/*--------------------------------*- C++ -*----------------------------------*\
  =========                 |
  \\      /  F ield         | OpenFOAM: The Open Source CFD Toolbox
   \\    /   O peration     | Website:  https://openfoam.org
    \\  /    A nd           | Version:  13
     \\/     M anipulation  |
\*---------------------------------------------------------------------------*/
FoamFile
{
    format      ascii;
    class       volScalarField;
    location    "7.5";
    object      nut;
}
// * * * * * * * * * * * * * * * * * * * * * * * * * * * * * * * * * * * * * //

dimensions      [0 2 -1 0 0 0 0];

internalField   nonuniform List<scalar> 
315000
(
7.28353e-12
1.87267e-09
4.19979e-08
7.30652e-08
1.0212e-07
1.28966e-07
1.53473e-07
1.75507e-07
1.94988e-07
2.11916e-07
2.26369e-07
2.38499e-07
2.4851e-07
2.56638e-07
2.63134e-07
2.68247e-07
2.72213e-07
2.75247e-07
2.77537e-07
2.79244e-07
2.80502e-07
2.81418e-07
2.82078e-07
2.82549e-07
2.82883e-07
2.83116e-07
2.83278e-07
2.8339e-07
2.83467e-07
2.83518e-07
2.83553e-07
2.83576e-07
2.8359e-07
2.83599e-07
2.83602e-07
2.83602e-07
2.83597e-07
2.83588e-07
2.83573e-07
2.83548e-07
2.83512e-07
2.83458e-07
2.83378e-07
2.83262e-07
2.83094e-07
2.82853e-07
2.82511e-07
2.82029e-07
2.81356e-07
2.80425e-07
2.79151e-07
2.77427e-07
2.75119e-07
2.72069e-07
2.6809e-07
2.6297e-07
2.56475e-07
2.48359e-07
2.38373e-07
2.26282e-07
2.11883e-07
1.95025e-07
1.75623e-07
1.53674e-07
1.29248e-07
1.0247e-07
7.34515e-08
4.23488e-08
1.89715e-09
7.40118e-12
1.65321e-10
4.32222e-08
7.69992e-06
1.17108e-05
1.49438e-05
1.76526e-05
1.99678e-05
2.19475e-05
2.36324e-05
2.50555e-05
2.62463e-05
2.72323e-05
2.80396e-05
2.86928e-05
2.92152e-05
2.96278e-05
2.99499e-05
3.01984e-05
3.03878e-05
3.05305e-05
3.0637e-05
3.07155e-05
3.07729e-05
3.08144e-05
3.08441e-05
3.08652e-05
3.08801e-05
3.08905e-05
3.08977e-05
3.09027e-05
3.09061e-05
3.09083e-05
3.09097e-05
3.09106e-05
3.09109e-05
3.09109e-05
3.09105e-05
3.09096e-05
3.09081e-05
3.09058e-05
3.09023e-05
3.08972e-05
3.08898e-05
3.08791e-05
3.08639e-05
3.08423e-05
3.08121e-05
3.077e-05
3.07119e-05
3.06326e-05
3.05252e-05
3.03814e-05
3.0191e-05
2.99415e-05
2.96185e-05
2.9205e-05
2.86821e-05
2.80287e-05
2.72216e-05
2.62364e-05
2.5047e-05
2.36258e-05
2.19433e-05
1.99663e-05
1.76538e-05
1.49476e-05
1.17175e-05
7.70852e-06
4.3305e-08
1.65679e-10
4.5486e-10
1.19437e-07
3.51334e-05
4.61186e-05
4.6581e-05
5.00216e-05
5.30011e-05
5.54541e-05
5.74766e-05
5.91415e-05
6.0507e-05
6.16209e-05
6.25239e-05
6.32508e-05
6.38314e-05
6.42914e-05
6.46529e-05
6.49346e-05
6.51523e-05
6.53191e-05
6.5446e-05
6.55417e-05
6.56134e-05
6.56667e-05
6.57061e-05
6.57349e-05
6.57559e-05
6.57711e-05
6.5782e-05
6.57897e-05
6.57951e-05
6.57988e-05
6.58012e-05
6.58027e-05
6.58034e-05
6.58034e-05
6.58026e-05
6.58011e-05
6.57986e-05
6.57949e-05
6.57894e-05
6.57816e-05
6.57706e-05
6.57553e-05
6.57341e-05
6.5705e-05
6.56654e-05
6.56118e-05
6.55398e-05
6.54436e-05
6.53163e-05
6.5149e-05
6.49308e-05
6.46486e-05
6.42865e-05
6.3826e-05
6.32449e-05
6.25177e-05
6.16145e-05
6.05006e-05
5.91353e-05
5.74707e-05
5.54488e-05
5.29966e-05
5.0018e-05
4.65785e-05
4.61167e-05
3.51359e-05
1.19471e-07
4.55014e-10
4.98087e-10
1.31174e-07
3.773e-05
4.91126e-05
4.80557e-05
5.15611e-05
5.46047e-05
5.71488e-05
5.92439e-05
6.09693e-05
6.23875e-05
6.35491e-05
6.44961e-05
6.52641e-05
6.58836e-05
6.63805e-05
6.67769e-05
6.70913e-05
6.73396e-05
6.75345e-05
6.76868e-05
6.78052e-05
6.78967e-05
6.79671e-05
6.80209e-05
6.80618e-05
6.80926e-05
6.81156e-05
6.81327e-05
6.81452e-05
6.81542e-05
6.81606e-05
6.81649e-05
6.81675e-05
6.81687e-05
6.81687e-05
6.81675e-05
6.81648e-05
6.81605e-05
6.81541e-05
6.8145e-05
6.81324e-05
6.81153e-05
6.80922e-05
6.80613e-05
6.80204e-05
6.79665e-05
6.7896e-05
6.78043e-05
6.76858e-05
6.75334e-05
6.73383e-05
6.709e-05
6.67754e-05
6.63789e-05
6.5882e-05
6.52624e-05
6.44943e-05
6.35473e-05
6.23858e-05
6.09678e-05
5.92425e-05
5.71476e-05
5.46037e-05
5.15604e-05
4.80554e-05
4.9114e-05
3.77336e-05
1.31209e-07
4.9824e-10
5.06119e-10
1.33357e-07
3.82104e-05
4.96837e-05
4.83455e-05
5.18719e-05
5.49356e-05
5.74991e-05
5.96119e-05
6.13542e-05
6.27892e-05
6.39679e-05
6.49327e-05
6.57193e-05
6.63581e-05
6.68749e-05
6.72915e-05
6.76262e-05
6.78942e-05
6.81081e-05
6.82782e-05
6.84128e-05
6.85189e-05
6.8602e-05
6.86668e-05
6.87168e-05
6.87552e-05
6.87844e-05
6.88064e-05
6.88227e-05
6.88346e-05
6.88431e-05
6.88488e-05
6.88524e-05
6.88541e-05
6.88541e-05
6.88524e-05
6.88488e-05
6.8843e-05
6.88345e-05
6.88225e-05
6.88062e-05
6.87842e-05
6.8755e-05
6.87165e-05
6.86664e-05
6.86017e-05
6.85185e-05
6.84123e-05
6.82777e-05
6.81076e-05
6.78937e-05
6.76257e-05
6.72911e-05
6.68746e-05
6.63579e-05
6.57193e-05
6.49329e-05
6.39684e-05
6.27899e-05
6.13552e-05
5.96131e-05
5.75006e-05
5.49372e-05
5.18736e-05
4.83472e-05
4.9689e-05
3.82174e-05
1.33411e-07
5.06348e-10
5.07349e-10
1.33696e-07
3.8286e-05
4.97745e-05
4.83932e-05
5.19233e-05
5.49907e-05
5.75582e-05
5.96749e-05
6.14211e-05
6.28603e-05
6.40435e-05
6.50132e-05
6.5805e-05
6.64495e-05
6.69722e-05
6.7395e-05
6.7736e-05
6.80102e-05
6.823e-05
6.84056e-05
6.85454e-05
6.86561e-05
6.87433e-05
6.88115e-05
6.88645e-05
6.89053e-05
6.89364e-05
6.89599e-05
6.89774e-05
6.89902e-05
6.89994e-05
6.90056e-05
6.90095e-05
6.90113e-05
6.90113e-05
6.90094e-05
6.90056e-05
6.89993e-05
6.89902e-05
6.89773e-05
6.89598e-05
6.89363e-05
6.89051e-05
6.88643e-05
6.88113e-05
6.87431e-05
6.86559e-05
6.85452e-05
6.84054e-05
6.82297e-05
6.801e-05
6.77359e-05
6.7395e-05
6.69724e-05
6.64498e-05
6.58056e-05
6.5014e-05
6.40446e-05
6.28617e-05
6.14228e-05
5.96769e-05
5.75606e-05
5.49932e-05
5.19258e-05
4.83956e-05
4.97815e-05
3.82947e-05
1.33757e-07
5.07607e-10
5.07506e-10
1.33739e-07
3.8296e-05
4.97866e-05
4.83997e-05
5.19304e-05
5.49984e-05
5.75666e-05
5.96839e-05
6.14308e-05
6.28708e-05
6.40548e-05
6.50255e-05
6.58184e-05
6.6464e-05
6.69879e-05
6.74119e-05
6.77542e-05
6.80296e-05
6.82506e-05
6.84274e-05
6.85682e-05
6.86799e-05
6.87679e-05
6.88368e-05
6.88903e-05
6.89316e-05
6.89631e-05
6.89869e-05
6.90047e-05
6.90177e-05
6.90269e-05
6.90332e-05
6.90372e-05
6.9039e-05
6.9039e-05
6.90371e-05
6.90332e-05
6.90269e-05
6.90176e-05
6.90046e-05
6.89868e-05
6.8963e-05
6.89315e-05
6.88902e-05
6.88366e-05
6.87677e-05
6.86797e-05
6.8568e-05
6.84272e-05
6.82505e-05
6.80295e-05
6.77542e-05
6.74121e-05
6.69882e-05
6.64644e-05
6.58191e-05
6.50264e-05
6.40561e-05
6.28724e-05
6.14328e-05
5.96861e-05
5.75691e-05
5.50011e-05
5.19331e-05
4.84024e-05
4.9794e-05
3.8305e-05
1.33803e-07
5.07771e-10
5.07523e-10
1.33744e-07
3.82971e-05
4.97879e-05
4.84005e-05
5.19312e-05
5.49993e-05
5.75676e-05
5.9685e-05
6.1432e-05
6.28721e-05
6.40563e-05
6.5027e-05
6.58201e-05
6.64659e-05
6.699e-05
6.74142e-05
6.77567e-05
6.80323e-05
6.82535e-05
6.84305e-05
6.85714e-05
6.86832e-05
6.87713e-05
6.88404e-05
6.8894e-05
6.89353e-05
6.89669e-05
6.89908e-05
6.90085e-05
6.90216e-05
6.90308e-05
6.90372e-05
6.90411e-05
6.9043e-05
6.9043e-05
6.90411e-05
6.90371e-05
6.90308e-05
6.90215e-05
6.90085e-05
6.89907e-05
6.89668e-05
6.89352e-05
6.88938e-05
6.88402e-05
6.87712e-05
6.8683e-05
6.85713e-05
6.84303e-05
6.82534e-05
6.80322e-05
6.77567e-05
6.74144e-05
6.69903e-05
6.64664e-05
6.58209e-05
6.50281e-05
6.40576e-05
6.28737e-05
6.1434e-05
5.96873e-05
5.75701e-05
5.5002e-05
5.1934e-05
4.84032e-05
4.97955e-05
3.83062e-05
1.33808e-07
5.07789e-10
5.07525e-10
1.33745e-07
3.82973e-05
4.97881e-05
4.84006e-05
5.19313e-05
5.49994e-05
5.75677e-05
5.96851e-05
6.14321e-05
6.28722e-05
6.40564e-05
6.50272e-05
6.58203e-05
6.64661e-05
6.69903e-05
6.74145e-05
6.77569e-05
6.80326e-05
6.82538e-05
6.84308e-05
6.85718e-05
6.86836e-05
6.87718e-05
6.88408e-05
6.88944e-05
6.89358e-05
6.89674e-05
6.89912e-05
6.9009e-05
6.9022e-05
6.90313e-05
6.90376e-05
6.90416e-05
6.90434e-05
6.90434e-05
6.90416e-05
6.90376e-05
6.90313e-05
6.9022e-05
6.90089e-05
6.89911e-05
6.89673e-05
6.89357e-05
6.88943e-05
6.88406e-05
6.87716e-05
6.86834e-05
6.85716e-05
6.84307e-05
6.82537e-05
6.80325e-05
6.7757e-05
6.74147e-05
6.69906e-05
6.64666e-05
6.58211e-05
6.50283e-05
6.40578e-05
6.28739e-05
6.14341e-05
5.96874e-05
5.75702e-05
5.50021e-05
5.19341e-05
4.84033e-05
4.97956e-05
3.83064e-05
1.33808e-07
5.07791e-10
5.07525e-10
1.33745e-07
3.82973e-05
4.97881e-05
4.84006e-05
5.19313e-05
5.49994e-05
5.75677e-05
5.96851e-05
6.14322e-05
6.28722e-05
6.40565e-05
6.50272e-05
6.58203e-05
6.64661e-05
6.69903e-05
6.74145e-05
6.7757e-05
6.80326e-05
6.82539e-05
6.84309e-05
6.85719e-05
6.86837e-05
6.87718e-05
6.88408e-05
6.88945e-05
6.89358e-05
6.89674e-05
6.89913e-05
6.90091e-05
6.90221e-05
6.90314e-05
6.90377e-05
6.90416e-05
6.90435e-05
6.90435e-05
6.90416e-05
6.90377e-05
6.90313e-05
6.9022e-05
6.9009e-05
6.89912e-05
6.89673e-05
6.89357e-05
6.88943e-05
6.88407e-05
6.87716e-05
6.86835e-05
6.85717e-05
6.84307e-05
6.82537e-05
6.80326e-05
6.7757e-05
6.74147e-05
6.69906e-05
6.64666e-05
6.58211e-05
6.50283e-05
6.40578e-05
6.28739e-05
6.14341e-05
5.96874e-05
5.75703e-05
5.50021e-05
5.19341e-05
4.84033e-05
4.97957e-05
3.83064e-05
1.33808e-07
5.07791e-10
5.07525e-10
1.33745e-07
3.82973e-05
4.97881e-05
4.84006e-05
5.19313e-05
5.49994e-05
5.75677e-05
5.96851e-05
6.14322e-05
6.28722e-05
6.40565e-05
6.50272e-05
6.58203e-05
6.64661e-05
6.69903e-05
6.74145e-05
6.7757e-05
6.80326e-05
6.82539e-05
6.84309e-05
6.85719e-05
6.86837e-05
6.87718e-05
6.88408e-05
6.88945e-05
6.89358e-05
6.89674e-05
6.89913e-05
6.90091e-05
6.90221e-05
6.90314e-05
6.90377e-05
6.90416e-05
6.90435e-05
6.90435e-05
6.90416e-05
6.90377e-05
6.90313e-05
6.9022e-05
6.9009e-05
6.89912e-05
6.89673e-05
6.89357e-05
6.88943e-05
6.88407e-05
6.87716e-05
6.86835e-05
6.85717e-05
6.84307e-05
6.82538e-05
6.80326e-05
6.7757e-05
6.74147e-05
6.69906e-05
6.64666e-05
6.58211e-05
6.50283e-05
6.40578e-05
6.28739e-05
6.14341e-05
5.96874e-05
5.75703e-05
5.50021e-05
5.19341e-05
4.84033e-05
4.97957e-05
3.83064e-05
1.33808e-07
5.07791e-10
5.07525e-10
1.33745e-07
3.82973e-05
4.97881e-05
4.84006e-05
5.19313e-05
5.49994e-05
5.75677e-05
5.96851e-05
6.14322e-05
6.28722e-05
6.40565e-05
6.50272e-05
6.58203e-05
6.64661e-05
6.69903e-05
6.74145e-05
6.7757e-05
6.80326e-05
6.82539e-05
6.84309e-05
6.85719e-05
6.86837e-05
6.87718e-05
6.88408e-05
6.88945e-05
6.89358e-05
6.89674e-05
6.89913e-05
6.90091e-05
6.90221e-05
6.90314e-05
6.90377e-05
6.90416e-05
6.90435e-05
6.90435e-05
6.90416e-05
6.90377e-05
6.90313e-05
6.9022e-05
6.9009e-05
6.89912e-05
6.89673e-05
6.89357e-05
6.88943e-05
6.88407e-05
6.87716e-05
6.86835e-05
6.85717e-05
6.84307e-05
6.82538e-05
6.80326e-05
6.7757e-05
6.74147e-05
6.69906e-05
6.64666e-05
6.58211e-05
6.50283e-05
6.40578e-05
6.28739e-05
6.14341e-05
5.96874e-05
5.75703e-05
5.50021e-05
5.19341e-05
4.84033e-05
4.97957e-05
3.83064e-05
1.33808e-07
5.07791e-10
5.07525e-10
1.33745e-07
3.82973e-05
4.97881e-05
4.84006e-05
5.19313e-05
5.49994e-05
5.75677e-05
5.96851e-05
6.14322e-05
6.28722e-05
6.40565e-05
6.50272e-05
6.58203e-05
6.64661e-05
6.69903e-05
6.74145e-05
6.7757e-05
6.80326e-05
6.82539e-05
6.84309e-05
6.85719e-05
6.86837e-05
6.87718e-05
6.88408e-05
6.88945e-05
6.89358e-05
6.89674e-05
6.89913e-05
6.90091e-05
6.90221e-05
6.90314e-05
6.90377e-05
6.90416e-05
6.90435e-05
6.90435e-05
6.90416e-05
6.90377e-05
6.90313e-05
6.9022e-05
6.9009e-05
6.89912e-05
6.89673e-05
6.89357e-05
6.88943e-05
6.88407e-05
6.87716e-05
6.86835e-05
6.85717e-05
6.84307e-05
6.82538e-05
6.80326e-05
6.7757e-05
6.74147e-05
6.69906e-05
6.64666e-05
6.58211e-05
6.50283e-05
6.40578e-05
6.28739e-05
6.14341e-05
5.96874e-05
5.75703e-05
5.50021e-05
5.19341e-05
4.84033e-05
4.97957e-05
3.83064e-05
1.33808e-07
5.07791e-10
5.07525e-10
1.33745e-07
3.82973e-05
4.97881e-05
4.84006e-05
5.19313e-05
5.49994e-05
5.75677e-05
5.96851e-05
6.14322e-05
6.28722e-05
6.40565e-05
6.50272e-05
6.58203e-05
6.64661e-05
6.69903e-05
6.74145e-05
6.7757e-05
6.80326e-05
6.82539e-05
6.84309e-05
6.85719e-05
6.86837e-05
6.87718e-05
6.88408e-05
6.88945e-05
6.89358e-05
6.89674e-05
6.89913e-05
6.90091e-05
6.90221e-05
6.90314e-05
6.90377e-05
6.90416e-05
6.90435e-05
6.90435e-05
6.90416e-05
6.90377e-05
6.90313e-05
6.9022e-05
6.9009e-05
6.89912e-05
6.89673e-05
6.89357e-05
6.88943e-05
6.88407e-05
6.87716e-05
6.86835e-05
6.85717e-05
6.84307e-05
6.82538e-05
6.80326e-05
6.7757e-05
6.74147e-05
6.69906e-05
6.64666e-05
6.58211e-05
6.50283e-05
6.40578e-05
6.28739e-05
6.14341e-05
5.96874e-05
5.75703e-05
5.50021e-05
5.19341e-05
4.84033e-05
4.97957e-05
3.83064e-05
1.33808e-07
5.07791e-10
5.07525e-10
1.33745e-07
3.82973e-05
4.97881e-05
4.84006e-05
5.19313e-05
5.49994e-05
5.75677e-05
5.96851e-05
6.14322e-05
6.28722e-05
6.40565e-05
6.50272e-05
6.58203e-05
6.64661e-05
6.69903e-05
6.74145e-05
6.7757e-05
6.80326e-05
6.82539e-05
6.84309e-05
6.85719e-05
6.86837e-05
6.87718e-05
6.88408e-05
6.88945e-05
6.89358e-05
6.89674e-05
6.89913e-05
6.90091e-05
6.90221e-05
6.90314e-05
6.90377e-05
6.90416e-05
6.90435e-05
6.90435e-05
6.90416e-05
6.90377e-05
6.90313e-05
6.9022e-05
6.9009e-05
6.89912e-05
6.89673e-05
6.89357e-05
6.88943e-05
6.88407e-05
6.87716e-05
6.86835e-05
6.85717e-05
6.84307e-05
6.82538e-05
6.80326e-05
6.7757e-05
6.74147e-05
6.69906e-05
6.64666e-05
6.58211e-05
6.50283e-05
6.40578e-05
6.28739e-05
6.14341e-05
5.96874e-05
5.75703e-05
5.50021e-05
5.19341e-05
4.84033e-05
4.97957e-05
3.83064e-05
1.33808e-07
5.07791e-10
5.07525e-10
1.33745e-07
3.82973e-05
4.97881e-05
4.84006e-05
5.19313e-05
5.49994e-05
5.75677e-05
5.96851e-05
6.14322e-05
6.28722e-05
6.40565e-05
6.50272e-05
6.58203e-05
6.64661e-05
6.69903e-05
6.74145e-05
6.7757e-05
6.80326e-05
6.82539e-05
6.84309e-05
6.85719e-05
6.86837e-05
6.87718e-05
6.88408e-05
6.88945e-05
6.89358e-05
6.89674e-05
6.89913e-05
6.90091e-05
6.90221e-05
6.90314e-05
6.90377e-05
6.90416e-05
6.90435e-05
6.90435e-05
6.90416e-05
6.90377e-05
6.90313e-05
6.9022e-05
6.9009e-05
6.89912e-05
6.89673e-05
6.89357e-05
6.88943e-05
6.88407e-05
6.87716e-05
6.86835e-05
6.85717e-05
6.84307e-05
6.82538e-05
6.80326e-05
6.7757e-05
6.74147e-05
6.69906e-05
6.64666e-05
6.58211e-05
6.50283e-05
6.40578e-05
6.28739e-05
6.14341e-05
5.96874e-05
5.75703e-05
5.50021e-05
5.19341e-05
4.84033e-05
4.97957e-05
3.83064e-05
1.33808e-07
5.07791e-10
5.07525e-10
1.33745e-07
3.82973e-05
4.97881e-05
4.84006e-05
5.19313e-05
5.49994e-05
5.75677e-05
5.96851e-05
6.14322e-05
6.28722e-05
6.40565e-05
6.50272e-05
6.58203e-05
6.64661e-05
6.69903e-05
6.74145e-05
6.7757e-05
6.80326e-05
6.82539e-05
6.84309e-05
6.85719e-05
6.86837e-05
6.87718e-05
6.88408e-05
6.88945e-05
6.89358e-05
6.89674e-05
6.89913e-05
6.90091e-05
6.90221e-05
6.90314e-05
6.90377e-05
6.90416e-05
6.90435e-05
6.90435e-05
6.90416e-05
6.90377e-05
6.90313e-05
6.9022e-05
6.9009e-05
6.89912e-05
6.89673e-05
6.89357e-05
6.88943e-05
6.88407e-05
6.87716e-05
6.86835e-05
6.85717e-05
6.84307e-05
6.82538e-05
6.80326e-05
6.7757e-05
6.74147e-05
6.69906e-05
6.64666e-05
6.58211e-05
6.50283e-05
6.40578e-05
6.28739e-05
6.14341e-05
5.96874e-05
5.75703e-05
5.50021e-05
5.19341e-05
4.84033e-05
4.97957e-05
3.83064e-05
1.33808e-07
5.07791e-10
5.07525e-10
1.33745e-07
3.82973e-05
4.97881e-05
4.84006e-05
5.19313e-05
5.49994e-05
5.75677e-05
5.96851e-05
6.14322e-05
6.28722e-05
6.40565e-05
6.50272e-05
6.58203e-05
6.64661e-05
6.69903e-05
6.74145e-05
6.7757e-05
6.80326e-05
6.82539e-05
6.84309e-05
6.85719e-05
6.86837e-05
6.87718e-05
6.88408e-05
6.88945e-05
6.89358e-05
6.89674e-05
6.89913e-05
6.90091e-05
6.90221e-05
6.90314e-05
6.90377e-05
6.90416e-05
6.90435e-05
6.90435e-05
6.90416e-05
6.90377e-05
6.90313e-05
6.9022e-05
6.9009e-05
6.89912e-05
6.89673e-05
6.89357e-05
6.88943e-05
6.88407e-05
6.87716e-05
6.86835e-05
6.85717e-05
6.84307e-05
6.82538e-05
6.80326e-05
6.7757e-05
6.74147e-05
6.69906e-05
6.64666e-05
6.58211e-05
6.50283e-05
6.40578e-05
6.28739e-05
6.14341e-05
5.96874e-05
5.75703e-05
5.50021e-05
5.19341e-05
4.84033e-05
4.97957e-05
3.83064e-05
1.33808e-07
5.07791e-10
5.07525e-10
1.33745e-07
3.82973e-05
4.97881e-05
4.84006e-05
5.19313e-05
5.49994e-05
5.75677e-05
5.96851e-05
6.14322e-05
6.28722e-05
6.40565e-05
6.50272e-05
6.58203e-05
6.64661e-05
6.69903e-05
6.74145e-05
6.7757e-05
6.80326e-05
6.82539e-05
6.84309e-05
6.85719e-05
6.86837e-05
6.87718e-05
6.88408e-05
6.88945e-05
6.89358e-05
6.89674e-05
6.89913e-05
6.90091e-05
6.90221e-05
6.90314e-05
6.90377e-05
6.90416e-05
6.90435e-05
6.90435e-05
6.90416e-05
6.90377e-05
6.90313e-05
6.9022e-05
6.9009e-05
6.89912e-05
6.89673e-05
6.89357e-05
6.88943e-05
6.88407e-05
6.87716e-05
6.86835e-05
6.85717e-05
6.84307e-05
6.82538e-05
6.80326e-05
6.7757e-05
6.74147e-05
6.69906e-05
6.64666e-05
6.58211e-05
6.50283e-05
6.40578e-05
6.28739e-05
6.14341e-05
5.96874e-05
5.75703e-05
5.50021e-05
5.19341e-05
4.84033e-05
4.97957e-05
3.83064e-05
1.33808e-07
5.07791e-10
5.07525e-10
1.33745e-07
3.82973e-05
4.97881e-05
4.84006e-05
5.19313e-05
5.49994e-05
5.75677e-05
5.96851e-05
6.14322e-05
6.28722e-05
6.40565e-05
6.50272e-05
6.58203e-05
6.64661e-05
6.69903e-05
6.74145e-05
6.7757e-05
6.80326e-05
6.82539e-05
6.84309e-05
6.85719e-05
6.86837e-05
6.87718e-05
6.88408e-05
6.88945e-05
6.89358e-05
6.89674e-05
6.89913e-05
6.90091e-05
6.90221e-05
6.90314e-05
6.90377e-05
6.90416e-05
6.90435e-05
6.90435e-05
6.90416e-05
6.90377e-05
6.90313e-05
6.9022e-05
6.9009e-05
6.89912e-05
6.89673e-05
6.89357e-05
6.88943e-05
6.88407e-05
6.87716e-05
6.86835e-05
6.85717e-05
6.84307e-05
6.82538e-05
6.80326e-05
6.7757e-05
6.74147e-05
6.69906e-05
6.64666e-05
6.58211e-05
6.50283e-05
6.40578e-05
6.28739e-05
6.14341e-05
5.96874e-05
5.75703e-05
5.50021e-05
5.19341e-05
4.84033e-05
4.97957e-05
3.83064e-05
1.33808e-07
5.07791e-10
5.07525e-10
1.33745e-07
3.82973e-05
4.97881e-05
4.84006e-05
5.19313e-05
5.49994e-05
5.75677e-05
5.96851e-05
6.14322e-05
6.28722e-05
6.40565e-05
6.50272e-05
6.58203e-05
6.64661e-05
6.69903e-05
6.74145e-05
6.7757e-05
6.80326e-05
6.82539e-05
6.84309e-05
6.85719e-05
6.86837e-05
6.87718e-05
6.88408e-05
6.88945e-05
6.89358e-05
6.89674e-05
6.89913e-05
6.90091e-05
6.90221e-05
6.90314e-05
6.90377e-05
6.90416e-05
6.90435e-05
6.90435e-05
6.90416e-05
6.90377e-05
6.90313e-05
6.9022e-05
6.9009e-05
6.89912e-05
6.89673e-05
6.89357e-05
6.88943e-05
6.88407e-05
6.87716e-05
6.86835e-05
6.85717e-05
6.84307e-05
6.82538e-05
6.80326e-05
6.7757e-05
6.74147e-05
6.69906e-05
6.64666e-05
6.58211e-05
6.50283e-05
6.40578e-05
6.28739e-05
6.14341e-05
5.96874e-05
5.75703e-05
5.50021e-05
5.19341e-05
4.84033e-05
4.97957e-05
3.83064e-05
1.33808e-07
5.07791e-10
5.07525e-10
1.33745e-07
3.82973e-05
4.97881e-05
4.84006e-05
5.19313e-05
5.49994e-05
5.75677e-05
5.96851e-05
6.14322e-05
6.28722e-05
6.40565e-05
6.50272e-05
6.58203e-05
6.64661e-05
6.69903e-05
6.74145e-05
6.7757e-05
6.80326e-05
6.82539e-05
6.84309e-05
6.85719e-05
6.86837e-05
6.87718e-05
6.88408e-05
6.88945e-05
6.89358e-05
6.89674e-05
6.89913e-05
6.90091e-05
6.90221e-05
6.90314e-05
6.90377e-05
6.90416e-05
6.90435e-05
6.90435e-05
6.90416e-05
6.90377e-05
6.90313e-05
6.9022e-05
6.9009e-05
6.89912e-05
6.89673e-05
6.89357e-05
6.88943e-05
6.88407e-05
6.87716e-05
6.86835e-05
6.85717e-05
6.84307e-05
6.82538e-05
6.80326e-05
6.7757e-05
6.74147e-05
6.69906e-05
6.64666e-05
6.58211e-05
6.50283e-05
6.40578e-05
6.28739e-05
6.14341e-05
5.96874e-05
5.75703e-05
5.50021e-05
5.19341e-05
4.84033e-05
4.97957e-05
3.83064e-05
1.33808e-07
5.07791e-10
5.07525e-10
1.33745e-07
3.82973e-05
4.97881e-05
4.84006e-05
5.19313e-05
5.49994e-05
5.75677e-05
5.96851e-05
6.14322e-05
6.28722e-05
6.40565e-05
6.50272e-05
6.58203e-05
6.64661e-05
6.69903e-05
6.74145e-05
6.7757e-05
6.80326e-05
6.82539e-05
6.84309e-05
6.85719e-05
6.86837e-05
6.87718e-05
6.88408e-05
6.88945e-05
6.89358e-05
6.89674e-05
6.89913e-05
6.90091e-05
6.90221e-05
6.90314e-05
6.90377e-05
6.90416e-05
6.90435e-05
6.90435e-05
6.90416e-05
6.90377e-05
6.90313e-05
6.9022e-05
6.9009e-05
6.89912e-05
6.89673e-05
6.89357e-05
6.88943e-05
6.88407e-05
6.87716e-05
6.86835e-05
6.85717e-05
6.84307e-05
6.82538e-05
6.80326e-05
6.7757e-05
6.74147e-05
6.69906e-05
6.64666e-05
6.58211e-05
6.50283e-05
6.40578e-05
6.28739e-05
6.14341e-05
5.96874e-05
5.75703e-05
5.50021e-05
5.19341e-05
4.84033e-05
4.97957e-05
3.83064e-05
1.33808e-07
5.07791e-10
5.07525e-10
1.33745e-07
3.82973e-05
4.97881e-05
4.84006e-05
5.19313e-05
5.49994e-05
5.75677e-05
5.96851e-05
6.14322e-05
6.28722e-05
6.40565e-05
6.50272e-05
6.58203e-05
6.64661e-05
6.69903e-05
6.74145e-05
6.7757e-05
6.80326e-05
6.82539e-05
6.84309e-05
6.85719e-05
6.86837e-05
6.87718e-05
6.88408e-05
6.88945e-05
6.89358e-05
6.89674e-05
6.89913e-05
6.90091e-05
6.90221e-05
6.90314e-05
6.90377e-05
6.90416e-05
6.90435e-05
6.90435e-05
6.90416e-05
6.90377e-05
6.90313e-05
6.9022e-05
6.9009e-05
6.89912e-05
6.89673e-05
6.89357e-05
6.88943e-05
6.88407e-05
6.87716e-05
6.86835e-05
6.85717e-05
6.84307e-05
6.82538e-05
6.80326e-05
6.7757e-05
6.74147e-05
6.69906e-05
6.64666e-05
6.58211e-05
6.50283e-05
6.40578e-05
6.28739e-05
6.14341e-05
5.96874e-05
5.75703e-05
5.50021e-05
5.19341e-05
4.84033e-05
4.97957e-05
3.83064e-05
1.33808e-07
5.07791e-10
5.07525e-10
1.33745e-07
3.82973e-05
4.97881e-05
4.84006e-05
5.19313e-05
5.49994e-05
5.75677e-05
5.96851e-05
6.14322e-05
6.28722e-05
6.40565e-05
6.50272e-05
6.58203e-05
6.64661e-05
6.69903e-05
6.74145e-05
6.7757e-05
6.80326e-05
6.82539e-05
6.84309e-05
6.85719e-05
6.86837e-05
6.87718e-05
6.88408e-05
6.88945e-05
6.89358e-05
6.89674e-05
6.89913e-05
6.90091e-05
6.90221e-05
6.90314e-05
6.90377e-05
6.90416e-05
6.90435e-05
6.90435e-05
6.90416e-05
6.90377e-05
6.90313e-05
6.9022e-05
6.9009e-05
6.89912e-05
6.89673e-05
6.89357e-05
6.88943e-05
6.88407e-05
6.87716e-05
6.86835e-05
6.85717e-05
6.84307e-05
6.82538e-05
6.80326e-05
6.7757e-05
6.74147e-05
6.69906e-05
6.64666e-05
6.58211e-05
6.50283e-05
6.40578e-05
6.28739e-05
6.14341e-05
5.96874e-05
5.75703e-05
5.50021e-05
5.19341e-05
4.84033e-05
4.97957e-05
3.83064e-05
1.33808e-07
5.07791e-10
5.07525e-10
1.33745e-07
3.82973e-05
4.97881e-05
4.84006e-05
5.19313e-05
5.49994e-05
5.75677e-05
5.96851e-05
6.14322e-05
6.28722e-05
6.40565e-05
6.50272e-05
6.58203e-05
6.64661e-05
6.69903e-05
6.74145e-05
6.7757e-05
6.80326e-05
6.82539e-05
6.84309e-05
6.85719e-05
6.86837e-05
6.87718e-05
6.88408e-05
6.88945e-05
6.89358e-05
6.89674e-05
6.89913e-05
6.90091e-05
6.90221e-05
6.90314e-05
6.90377e-05
6.90416e-05
6.90435e-05
6.90435e-05
6.90416e-05
6.90377e-05
6.90313e-05
6.9022e-05
6.9009e-05
6.89912e-05
6.89673e-05
6.89357e-05
6.88943e-05
6.88407e-05
6.87716e-05
6.86835e-05
6.85717e-05
6.84307e-05
6.82538e-05
6.80326e-05
6.7757e-05
6.74147e-05
6.69906e-05
6.64666e-05
6.58211e-05
6.50283e-05
6.40578e-05
6.28739e-05
6.14341e-05
5.96874e-05
5.75703e-05
5.50021e-05
5.19341e-05
4.84033e-05
4.97957e-05
3.83064e-05
1.33808e-07
5.07791e-10
5.07525e-10
1.33745e-07
3.82973e-05
4.97881e-05
4.84006e-05
5.19313e-05
5.49994e-05
5.75677e-05
5.96851e-05
6.14322e-05
6.28722e-05
6.40565e-05
6.50272e-05
6.58203e-05
6.64661e-05
6.69903e-05
6.74145e-05
6.7757e-05
6.80326e-05
6.82539e-05
6.84309e-05
6.85719e-05
6.86837e-05
6.87718e-05
6.88408e-05
6.88945e-05
6.89358e-05
6.89674e-05
6.89913e-05
6.90091e-05
6.90221e-05
6.90314e-05
6.90377e-05
6.90416e-05
6.90435e-05
6.90435e-05
6.90416e-05
6.90377e-05
6.90313e-05
6.9022e-05
6.9009e-05
6.89912e-05
6.89673e-05
6.89357e-05
6.88943e-05
6.88407e-05
6.87716e-05
6.86835e-05
6.85717e-05
6.84307e-05
6.82538e-05
6.80326e-05
6.7757e-05
6.74147e-05
6.69906e-05
6.64666e-05
6.58211e-05
6.50283e-05
6.40578e-05
6.28739e-05
6.14341e-05
5.96874e-05
5.75703e-05
5.50021e-05
5.19341e-05
4.84033e-05
4.97957e-05
3.83064e-05
1.33808e-07
5.07791e-10
5.07525e-10
1.33745e-07
3.82973e-05
4.97881e-05
4.84006e-05
5.19313e-05
5.49994e-05
5.75677e-05
5.96851e-05
6.14322e-05
6.28722e-05
6.40565e-05
6.50272e-05
6.58203e-05
6.64661e-05
6.69903e-05
6.74145e-05
6.7757e-05
6.80326e-05
6.82539e-05
6.84309e-05
6.85719e-05
6.86837e-05
6.87718e-05
6.88408e-05
6.88945e-05
6.89358e-05
6.89674e-05
6.89913e-05
6.90091e-05
6.90221e-05
6.90314e-05
6.90377e-05
6.90416e-05
6.90435e-05
6.90435e-05
6.90416e-05
6.90377e-05
6.90313e-05
6.9022e-05
6.9009e-05
6.89912e-05
6.89673e-05
6.89357e-05
6.88943e-05
6.88407e-05
6.87716e-05
6.86835e-05
6.85717e-05
6.84307e-05
6.82538e-05
6.80326e-05
6.7757e-05
6.74147e-05
6.69906e-05
6.64666e-05
6.58211e-05
6.50283e-05
6.40578e-05
6.28739e-05
6.14341e-05
5.96874e-05
5.75703e-05
5.50021e-05
5.19341e-05
4.84033e-05
4.97957e-05
3.83064e-05
1.33808e-07
5.07791e-10
5.07525e-10
1.33745e-07
3.82973e-05
4.97881e-05
4.84006e-05
5.19313e-05
5.49994e-05
5.75677e-05
5.96851e-05
6.14322e-05
6.28722e-05
6.40565e-05
6.50272e-05
6.58203e-05
6.64661e-05
6.69903e-05
6.74145e-05
6.7757e-05
6.80326e-05
6.82539e-05
6.84309e-05
6.85719e-05
6.86837e-05
6.87718e-05
6.88408e-05
6.88945e-05
6.89358e-05
6.89674e-05
6.89913e-05
6.90091e-05
6.90221e-05
6.90314e-05
6.90377e-05
6.90416e-05
6.90435e-05
6.90435e-05
6.90416e-05
6.90377e-05
6.90313e-05
6.9022e-05
6.9009e-05
6.89912e-05
6.89673e-05
6.89357e-05
6.88943e-05
6.88407e-05
6.87716e-05
6.86835e-05
6.85717e-05
6.84307e-05
6.82538e-05
6.80326e-05
6.7757e-05
6.74147e-05
6.69906e-05
6.64666e-05
6.58211e-05
6.50283e-05
6.40578e-05
6.28739e-05
6.14341e-05
5.96874e-05
5.75703e-05
5.50021e-05
5.19341e-05
4.84033e-05
4.97957e-05
3.83064e-05
1.33808e-07
5.07791e-10
5.07525e-10
1.33745e-07
3.82973e-05
4.97881e-05
4.84006e-05
5.19313e-05
5.49994e-05
5.75677e-05
5.96851e-05
6.14322e-05
6.28722e-05
6.40565e-05
6.50272e-05
6.58203e-05
6.64661e-05
6.69903e-05
6.74145e-05
6.7757e-05
6.80326e-05
6.82539e-05
6.84309e-05
6.85719e-05
6.86837e-05
6.87718e-05
6.88408e-05
6.88945e-05
6.89358e-05
6.89674e-05
6.89913e-05
6.90091e-05
6.90221e-05
6.90314e-05
6.90377e-05
6.90416e-05
6.90435e-05
6.90435e-05
6.90416e-05
6.90377e-05
6.90313e-05
6.9022e-05
6.9009e-05
6.89912e-05
6.89673e-05
6.89357e-05
6.88943e-05
6.88407e-05
6.87716e-05
6.86835e-05
6.85717e-05
6.84307e-05
6.82538e-05
6.80326e-05
6.7757e-05
6.74147e-05
6.69906e-05
6.64666e-05
6.58211e-05
6.50283e-05
6.40578e-05
6.28739e-05
6.14341e-05
5.96874e-05
5.75703e-05
5.50021e-05
5.19341e-05
4.84033e-05
4.97957e-05
3.83064e-05
1.33808e-07
5.07791e-10
5.07525e-10
1.33745e-07
3.82973e-05
4.97881e-05
4.84006e-05
5.19313e-05
5.49994e-05
5.75677e-05
5.96851e-05
6.14322e-05
6.28722e-05
6.40565e-05
6.50272e-05
6.58203e-05
6.64661e-05
6.69903e-05
6.74145e-05
6.7757e-05
6.80326e-05
6.82539e-05
6.84309e-05
6.85719e-05
6.86837e-05
6.87718e-05
6.88408e-05
6.88945e-05
6.89358e-05
6.89674e-05
6.89913e-05
6.90091e-05
6.90221e-05
6.90314e-05
6.90377e-05
6.90416e-05
6.90435e-05
6.90435e-05
6.90416e-05
6.90377e-05
6.90313e-05
6.9022e-05
6.9009e-05
6.89912e-05
6.89673e-05
6.89357e-05
6.88943e-05
6.88407e-05
6.87716e-05
6.86835e-05
6.85717e-05
6.84307e-05
6.82538e-05
6.80326e-05
6.7757e-05
6.74147e-05
6.69906e-05
6.64666e-05
6.58211e-05
6.50283e-05
6.40578e-05
6.28739e-05
6.14341e-05
5.96874e-05
5.75703e-05
5.50021e-05
5.19341e-05
4.84033e-05
4.97957e-05
3.83064e-05
1.33808e-07
5.07791e-10
5.07525e-10
1.33745e-07
3.82973e-05
4.97881e-05
4.84006e-05
5.19313e-05
5.49994e-05
5.75677e-05
5.96851e-05
6.14322e-05
6.28722e-05
6.40565e-05
6.50272e-05
6.58203e-05
6.64661e-05
6.69903e-05
6.74145e-05
6.7757e-05
6.80326e-05
6.82539e-05
6.84309e-05
6.85719e-05
6.86837e-05
6.87718e-05
6.88408e-05
6.88945e-05
6.89358e-05
6.89674e-05
6.89913e-05
6.90091e-05
6.90221e-05
6.90314e-05
6.90377e-05
6.90416e-05
6.90435e-05
6.90435e-05
6.90416e-05
6.90377e-05
6.90313e-05
6.9022e-05
6.9009e-05
6.89912e-05
6.89673e-05
6.89357e-05
6.88943e-05
6.88407e-05
6.87716e-05
6.86835e-05
6.85717e-05
6.84307e-05
6.82538e-05
6.80326e-05
6.7757e-05
6.74147e-05
6.69906e-05
6.64666e-05
6.58211e-05
6.50283e-05
6.40578e-05
6.28739e-05
6.14341e-05
5.96874e-05
5.75703e-05
5.50021e-05
5.19341e-05
4.84033e-05
4.97957e-05
3.83064e-05
1.33808e-07
5.07791e-10
5.07525e-10
1.33745e-07
3.82973e-05
4.97881e-05
4.84006e-05
5.19313e-05
5.49994e-05
5.75677e-05
5.96851e-05
6.14322e-05
6.28722e-05
6.40565e-05
6.50272e-05
6.58203e-05
6.64661e-05
6.69903e-05
6.74145e-05
6.7757e-05
6.80326e-05
6.82539e-05
6.84309e-05
6.85719e-05
6.86837e-05
6.87718e-05
6.88408e-05
6.88945e-05
6.89358e-05
6.89674e-05
6.89913e-05
6.90091e-05
6.90221e-05
6.90314e-05
6.90377e-05
6.90416e-05
6.90435e-05
6.90435e-05
6.90416e-05
6.90377e-05
6.90313e-05
6.9022e-05
6.9009e-05
6.89912e-05
6.89673e-05
6.89357e-05
6.88943e-05
6.88407e-05
6.87716e-05
6.86835e-05
6.85717e-05
6.84307e-05
6.82538e-05
6.80326e-05
6.7757e-05
6.74147e-05
6.69906e-05
6.64666e-05
6.58211e-05
6.50283e-05
6.40578e-05
6.28739e-05
6.14341e-05
5.96874e-05
5.75703e-05
5.50021e-05
5.19341e-05
4.84033e-05
4.97957e-05
3.83064e-05
1.33808e-07
5.07791e-10
5.07525e-10
1.33745e-07
3.82973e-05
4.97881e-05
4.84006e-05
5.19313e-05
5.49994e-05
5.75677e-05
5.96851e-05
6.14322e-05
6.28722e-05
6.40565e-05
6.50272e-05
6.58203e-05
6.64661e-05
6.69903e-05
6.74145e-05
6.7757e-05
6.80326e-05
6.82539e-05
6.84309e-05
6.85719e-05
6.86837e-05
6.87718e-05
6.88408e-05
6.88945e-05
6.89358e-05
6.89674e-05
6.89913e-05
6.90091e-05
6.90221e-05
6.90314e-05
6.90377e-05
6.90416e-05
6.90435e-05
6.90435e-05
6.90416e-05
6.90377e-05
6.90313e-05
6.9022e-05
6.9009e-05
6.89912e-05
6.89673e-05
6.89357e-05
6.88943e-05
6.88407e-05
6.87716e-05
6.86835e-05
6.85717e-05
6.84307e-05
6.82538e-05
6.80326e-05
6.7757e-05
6.74147e-05
6.69906e-05
6.64666e-05
6.58211e-05
6.50283e-05
6.40578e-05
6.28739e-05
6.14341e-05
5.96874e-05
5.75703e-05
5.50021e-05
5.19341e-05
4.84033e-05
4.97957e-05
3.83064e-05
1.33808e-07
5.07791e-10
5.07525e-10
1.33745e-07
3.82973e-05
4.97881e-05
4.84006e-05
5.19313e-05
5.49994e-05
5.75677e-05
5.96851e-05
6.14322e-05
6.28722e-05
6.40565e-05
6.50272e-05
6.58203e-05
6.64661e-05
6.69903e-05
6.74145e-05
6.7757e-05
6.80326e-05
6.82539e-05
6.84309e-05
6.85719e-05
6.86837e-05
6.87718e-05
6.88408e-05
6.88945e-05
6.89358e-05
6.89674e-05
6.89913e-05
6.90091e-05
6.90221e-05
6.90314e-05
6.90377e-05
6.90416e-05
6.90435e-05
6.90435e-05
6.90416e-05
6.90377e-05
6.90313e-05
6.9022e-05
6.9009e-05
6.89912e-05
6.89673e-05
6.89357e-05
6.88943e-05
6.88407e-05
6.87716e-05
6.86835e-05
6.85717e-05
6.84307e-05
6.82538e-05
6.80326e-05
6.7757e-05
6.74147e-05
6.69906e-05
6.64666e-05
6.58211e-05
6.50283e-05
6.40578e-05
6.28739e-05
6.14341e-05
5.96874e-05
5.75703e-05
5.50021e-05
5.19341e-05
4.84033e-05
4.97957e-05
3.83064e-05
1.33808e-07
5.07791e-10
5.07525e-10
1.33745e-07
3.82973e-05
4.97881e-05
4.84006e-05
5.19313e-05
5.49994e-05
5.75677e-05