/*--------------------------------*- C++ -*----------------------------------*\
  =========                 |
  \\      /  F ield         | OpenFOAM: The Open Source CFD Toolbox
   \\    /   O peration     | Website:  https://openfoam.org
    \\  /    A nd           | Version:  13
     \\/     M anipulation  |
\*---------------------------------------------------------------------------*/
FoamFile
{
    format      ascii;
    class       volScalarField;
    location    "28";
    object      k;
}
// * * * * * * * * * * * * * * * * * * * * * * * * * * * * * * * * * * * * * //

dimensions      [0 2 -2 0 0 0 0];

internalField   nonuniform List<scalar> 
78750
(
9.93237e-16
2.82102e-14
1.27734e-13
2.31693e-13
3.41263e-13
4.57244e-13
5.79697e-13
7.07757e-13
8.39612e-13
9.72609e-13
1.10342e-12
1.22824e-12
1.3431e-12
1.44404e-12
1.52741e-12
1.59007e-12
1.62963e-12
1.64452e-12
1.63414e-12
1.59889e-12
1.54014e-12
1.46012e-12
1.36184e-12
1.24885e-12
1.12507e-12
9.94485e-13
8.60938e-13
7.27841e-13
5.97953e-13
4.73188e-13
3.5449e-13
2.41803e-13
1.34153e-13
2.98789e-14
1.05668e-15
2.15499e-14
6.21714e-13
3.09884e-12
5.66144e-12
8.35953e-12
1.12229e-11
1.42574e-11
1.74425e-11
2.07328e-11
2.40605e-11
2.73401e-11
3.04747e-11
3.33617e-11
3.58999e-11
3.79956e-11
3.95687e-11
4.05575e-11
4.09222e-11
4.06481e-11
3.97458e-11
3.82507e-11
3.62211e-11
3.37346e-11
3.08828e-11
2.77662e-11
2.44873e-11
2.11444e-11
1.78246e-11
1.4598e-11
1.15124e-11
8.59056e-12
5.82814e-12
3.19565e-12
6.4221e-13
2.22747e-14
5.98821e-14
1.72805e-12
8.63105e-12
1.58614e-11
2.36247e-11
3.20579e-11
4.12127e-11
5.10469e-11
6.14229e-11
7.21157e-11
8.28275e-11
9.32077e-11
1.02877e-10
1.11455e-10
1.18584e-10
1.23955e-10
1.27329e-10
1.28553e-10
1.27571e-10
1.24426e-10
1.19261e-10
1.12303e-10
1.03855e-10
9.42688e-11
8.39247e-11
7.3203e-11
6.24584e-11
5.1995e-11
4.20452e-11
3.27542e-11
2.41712e-11
1.62491e-11
8.85263e-12
1.77449e-12
6.15192e-14
1.14684e-13
3.30956e-12
1.65419e-11
3.04655e-11
4.55235e-11
6.20201e-11
8.00863e-11
9.96582e-11
1.20473e-10
1.42078e-10
1.63864e-10
1.85096e-10
2.04972e-10
2.22674e-10
2.37428e-10
2.48561e-10
2.55551e-10
2.58062e-10
2.55972e-10
2.49381e-10
2.38602e-10
2.24142e-10
2.06661e-10
1.86924e-10
1.65747e-10
1.43938e-10
1.22235e-10
1.01264e-10
8.14881e-11
6.31854e-11
4.64318e-11
3.11053e-11
1.69051e-11
3.3854e-12
1.17355e-13
1.76717e-13
5.0994e-12
2.54919e-11
4.69777e-11
7.02626e-11
9.58345e-11
1.2391e-10
1.54397e-10
1.86893e-10
2.20691e-10
2.54831e-10
2.88156e-10
3.19393e-10
3.47242e-10
3.70468e-10
3.87997e-10
3.98992e-10
4.02916e-10
3.99577e-10
3.89136e-10
3.721e-10
3.49281e-10
3.21738e-10
2.90691e-10
2.5744e-10
2.23263e-10
1.89328e-10
1.56612e-10
1.25838e-10
9.74334e-11
7.15047e-11
4.78493e-11
2.59847e-11
5.20212e-12
1.80335e-13
2.37335e-13
6.84832e-12
3.42354e-11
6.30999e-11
9.43981e-11
1.28793e-10
1.66578e-10
2.07637e-10
2.51422e-10
2.96985e-10
3.43027e-10
3.87986e-10
4.30137e-10
4.67722e-10
4.99067e-10
5.22718e-10
5.3754e-10
5.42807e-10
5.38259e-10
5.24118e-10
5.01073e-10
4.70229e-10
4.33019e-10
3.91101e-10
3.46233e-10
3.00144e-10
2.5441e-10
2.10351e-10
1.6894e-10
1.30747e-10
9.59126e-11
6.41595e-11
3.48327e-11
6.97274e-12
2.41718e-13
2.90522e-13
8.38307e-12
4.19083e-11
7.72438e-11
1.15564e-10
1.57681e-10
2.03959e-10
2.54252e-10
3.07892e-10
3.63715e-10
4.20128e-10
4.75216e-10
5.26864e-10
5.72914e-10
6.11314e-10
6.4028e-10
6.5842e-10
6.64847e-10
6.5924e-10
6.41875e-10
6.136e-10
5.7577e-10
5.30147e-10
4.78765e-10
4.2378e-10
3.67312e-10
3.11293e-10
2.5734e-10
2.06642e-10
1.59898e-10
1.17279e-10
7.8441e-11
4.25814e-11
8.52323e-12
2.95459e-13
3.33006e-13
9.60942e-12
4.80404e-11
8.85465e-11
1.32475e-10
1.80759e-10
2.33814e-10
2.91475e-10
3.52974e-10
4.16977e-10
4.81657e-10
5.44815e-10
6.04027e-10
6.56816e-10
7.00832e-10
7.34025e-10
7.54803e-10
7.62146e-10
7.5569e-10
7.35752e-10
7.03306e-10
6.59908e-10
6.07581e-10
5.48657e-10
4.8561e-10
4.2087e-10
3.56654e-10
2.94813e-10
2.36713e-10
1.8315e-10
1.34322e-10
8.98337e-11
4.87627e-11
9.75975e-12
3.38301e-13
3.64061e-13
1.05064e-11
5.2527e-11
9.6816e-11
1.44847e-10
1.97641e-10
2.55654e-10
3.18703e-10
3.85949e-10
4.55932e-10
5.26655e-10
5.95712e-10
6.60452e-10
7.18165e-10
7.66282e-10
8.02563e-10
8.25263e-10
8.33272e-10
8.26191e-10
8.04368e-10
7.6887e-10
7.21399e-10
6.64169e-10
5.9973e-10
5.30788e-10
4.60002e-10
3.89795e-10
3.2219e-10
2.5868e-10
2.00136e-10
1.46771e-10
9.81549e-11
5.32772e-11
1.06624e-11
3.69559e-13
3.8491e-13
1.1109e-11
5.55426e-11
1.02374e-10
1.53163e-10
2.08989e-10
2.70334e-10
3.37005e-10
4.08114e-10
4.82117e-10
5.56902e-10
6.29923e-10
6.98378e-10
7.594e-10
8.10272e-10
8.48625e-10
8.72616e-10
8.8107e-10
8.73566e-10
8.50473e-10
8.1292e-10
7.6271e-10
7.02182e-10
6.34035e-10
5.61131e-10
4.86282e-10
4.12048e-10
3.40571e-10
2.73427e-10
2.11537e-10
1.55127e-10
1.03739e-10
5.63064e-11
1.12679e-11
3.90507e-13
3.97816e-13
1.14823e-11
5.74119e-11
1.0582e-10
1.58319e-10
2.16024e-10
2.79435e-10
3.48351e-10
4.21856e-10
4.98352e-10
5.75655e-10
6.51134e-10
7.21892e-10
7.84966e-10
8.37545e-10
8.77183e-10
9.01972e-10
9.107e-10
9.02932e-10
8.7905e-10
8.40222e-10
7.88311e-10
7.25736e-10
6.5529e-10
5.79929e-10
5.0256e-10
4.25831e-10
3.51954e-10
2.82558e-10
2.18596e-10
1.60299e-10
1.07196e-10
5.8181e-11
1.16423e-11
4.03452e-13
4.05213e-13
1.16965e-11
5.84849e-11
1.07798e-10
1.61278e-10
2.20063e-10
2.8466e-10
3.54866e-10
4.29747e-10
5.07674e-10
5.86423e-10
6.63315e-10
7.35395e-10
7.99646e-10
8.53207e-10
8.93581e-10
9.18829e-10
9.27713e-10
9.19792e-10
8.95456e-10
8.55894e-10
8.03006e-10
7.39256e-10
6.67488e-10
5.90716e-10
5.11899e-10
4.33738e-10
3.58483e-10
2.87795e-10
2.22644e-10
1.63265e-10
1.09177e-10
5.92555e-11
1.18568e-11
4.10861e-13
4.09156e-13
1.18108e-11
5.90579e-11
1.08854e-10
1.62859e-10
2.2222e-10
2.87451e-10
3.58346e-10
4.33961e-10
5.12653e-10
5.92176e-10
6.69821e-10
7.42608e-10
8.07489e-10
8.61573e-10
9.0234e-10
9.27832e-10
9.368e-10
9.28797e-10
9.04218e-10
8.64263e-10
8.10852e-10
7.46474e-10
6.74e-10
5.96474e-10
5.16884e-10
4.37957e-10
3.61966e-10
2.90589e-10
2.24803e-10
1.64847e-10
1.10234e-10
5.98285e-11
1.19711e-11
4.14804e-13
4.1112e-13
1.18677e-11
5.93436e-11
1.09381e-10
1.63647e-10
2.23296e-10
2.88843e-10
3.60082e-10
4.36064e-10
5.15138e-10
5.95046e-10
6.73068e-10
7.46208e-10
8.11402e-10
8.65747e-10
9.06711e-10
9.32325e-10
9.41334e-10
9.3329e-10
9.08589e-10
8.68439e-10
8.14767e-10
7.50074e-10
6.77248e-10
5.99345e-10
5.1937e-10
4.4006e-10
3.63703e-10
2.91981e-10
2.25879e-10
1.65635e-10
1.1076e-10
6.01139e-11
1.20279e-11
4.16765e-13
4.12036e-13
1.18943e-11
5.94773e-11
1.09628e-10
1.64016e-10
2.238e-10
2.89495e-10
3.60895e-10
4.37048e-10
5.16301e-10
5.96389e-10
6.74588e-10
7.47892e-10
8.13234e-10
8.67702e-10
9.08757e-10
9.34428e-10
9.43456e-10
9.35393e-10
9.10635e-10
8.70393e-10
8.16598e-10
7.51759e-10
6.78767e-10
6.00688e-10
5.20532e-10
4.41044e-10
3.64515e-10
2.92632e-10
2.26382e-10
1.66003e-10
1.11006e-10
6.02472e-11
1.20545e-11
4.1768e-13
4.12439e-13
1.19061e-11
5.95362e-11
1.09736e-10
1.64179e-10
2.24022e-10
2.89782e-10
3.61252e-10
4.37482e-10
5.16813e-10
5.96981e-10
6.75257e-10
7.48635e-10
8.14041e-10
8.68563e-10
9.09659e-10
9.35355e-10
9.44392e-10
9.3632e-10
9.11537e-10
8.71254e-10
8.17405e-10
7.52501e-10
6.79436e-10
6.0128e-10
5.21044e-10
4.41477e-10
3.64872e-10
2.92919e-10
2.26603e-10
1.66165e-10
1.11114e-10
6.03059e-11
1.20662e-11
4.18081e-13
4.12607e-13
1.19109e-11
5.95607e-11
1.09782e-10
1.64246e-10
2.24114e-10
2.89901e-10
3.61401e-10
4.37662e-10
5.17027e-10
5.97228e-10
6.75536e-10
7.48944e-10
8.14377e-10
8.68921e-10
9.10034e-10
9.35741e-10
9.44781e-10
9.36706e-10
9.11912e-10
8.71612e-10
8.17741e-10
7.5281e-10
6.79715e-10
6.01526e-10
5.21257e-10
4.41658e-10
3.65021e-10
2.93038e-10
2.26695e-10
1.66233e-10
1.11159e-10
6.03303e-11
1.2071e-11
4.18248e-13
4.12673e-13
1.19129e-11
5.95703e-11
1.09799e-10
1.64273e-10
2.2415e-10
2.89948e-10
3.6146e-10
4.37734e-10
5.17111e-10
5.97325e-10
6.75646e-10
7.49066e-10
8.1451e-10
8.69063e-10
9.10182e-10
9.35893e-10
9.44935e-10
9.36858e-10
9.1206e-10
8.71753e-10
8.17874e-10
7.52931e-10
6.79825e-10
6.01623e-10
5.21341e-10
4.41729e-10
3.6508e-10
2.93085e-10
2.26731e-10
1.66259e-10
1.11177e-10
6.03399e-11
1.20729e-11
4.18313e-13
4.12697e-13
1.19136e-11
5.9574e-11
1.09806e-10
1.64283e-10
2.24164e-10
2.89966e-10
3.61482e-10
4.3776e-10
5.17142e-10
5.97362e-10
6.75687e-10
7.49112e-10
8.1456e-10
8.69116e-10
9.10238e-10
9.3595e-10
9.44992e-10
9.36915e-10
9.12116e-10
8.71806e-10
8.17923e-10
7.52977e-10
6.79866e-10
6.01659e-10
5.21373e-10
4.41755e-10
3.65102e-10
2.93102e-10
2.26745e-10
1.66269e-10
1.11184e-10
6.03435e-11
1.20737e-11
4.18338e-13
4.12706e-13
1.19138e-11
5.95753e-11
1.09808e-10
1.64286e-10
2.24169e-10
2.89972e-10
3.6149e-10
4.3777e-10
5.17154e-10
5.97375e-10
6.75702e-10
7.49128e-10
8.14577e-10
8.69135e-10
9.10258e-10
9.35971e-10
9.45013e-10
9.36935e-10
9.12135e-10
8.71825e-10
8.17941e-10
7.52993e-10
6.79881e-10
6.01672e-10
5.21384e-10
4.41765e-10
3.65109e-10
2.93109e-10
2.2675e-10
1.66273e-10
1.11186e-10
6.03448e-11
1.20739e-11
4.18347e-13
4.12709e-13
1.19139e-11
5.95757e-11
1.09809e-10
1.64288e-10
2.2417e-10
2.89974e-10
3.61493e-10
4.37773e-10
5.17157e-10
5.97379e-10
6.75707e-10
7.49134e-10
8.14584e-10
8.69141e-10
9.10264e-10
9.35977e-10
9.4502e-10
9.36942e-10
9.12142e-10
8.71832e-10
8.17947e-10
7.52999e-10
6.79886e-10
6.01676e-10
5.21388e-10
4.41768e-10
3.65112e-10
2.93111e-10
2.26751e-10
1.66274e-10
1.11187e-10
6.03452e-11
1.2074e-11
4.1835e-13
4.1271e-13
1.19139e-11
5.95758e-11
1.0981e-10
1.64288e-10
2.24171e-10
2.89975e-10
3.61494e-10
4.37774e-10
5.17159e-10
5.9738e-10
6.75709e-10
7.49135e-10
8.14586e-10
8.69143e-10
9.10267e-10
9.3598e-10
9.45022e-10
9.36944e-10
9.12144e-10
8.71834e-10
8.17949e-10
7.53001e-10
6.79887e-10
6.01678e-10
5.21389e-10
4.41769e-10
3.65113e-10
2.93112e-10
2.26752e-10
1.66274e-10
1.11187e-10
6.03454e-11
1.2074e-11
4.18351e-13
4.1271e-13
1.1914e-11
5.95759e-11
1.0981e-10
1.64288e-10
2.24171e-10
2.89975e-10
3.61494e-10
4.37774e-10
5.17159e-10
5.97381e-10
6.75709e-10
7.49136e-10
8.14586e-10
8.69144e-10
9.10267e-10
9.3598e-10
9.45023e-10
9.36945e-10
9.12145e-10
8.71835e-10
8.1795e-10
7.53001e-10
6.79888e-10
6.01678e-10
5.21389e-10
4.41769e-10
3.65113e-10
2.93112e-10
2.26752e-10
1.66274e-10
1.11187e-10
6.03454e-11
1.2074e-11
4.18351e-13
4.1271e-13
1.1914e-11
5.95759e-11
1.0981e-10
1.64288e-10
2.24171e-10
2.89975e-10
3.61494e-10
4.37775e-10
5.17159e-10
5.97381e-10
6.75709e-10
7.49136e-10
8.14586e-10
8.69144e-10
9.10267e-10
9.35981e-10
9.45023e-10
9.36945e-10
9.12145e-10
8.71835e-10
8.1795e-10
7.53001e-10
6.79888e-10
6.01679e-10
5.21389e-10
4.41769e-10
3.65113e-10
2.93112e-10
2.26752e-10
1.66274e-10
1.11187e-10
6.03454e-11
1.2074e-11
4.18351e-13
4.1271e-13
1.1914e-11
5.95759e-11
1.0981e-10
1.64288e-10
2.24171e-10
2.89975e-10
3.61494e-10
4.37775e-10
5.17159e-10
5.97381e-10
6.7571e-10
7.49136e-10
8.14586e-10
8.69144e-10
9.10268e-10
9.35981e-10
9.45023e-10
9.36945e-10
9.12145e-10
8.71835e-10
8.1795e-10
7.53001e-10
6.79888e-10
6.01679e-10
5.21389e-10
4.41769e-10
3.65113e-10
2.93112e-10
2.26752e-10
1.66274e-10
1.11187e-10
6.03454e-11
1.2074e-11
4.18351e-13
4.1271e-13
1.1914e-11
5.95759e-11
1.0981e-10
1.64288e-10
2.24171e-10
2.89975e-10
3.61494e-10
4.37775e-10
5.17159e-10
5.97381e-10
6.7571e-10
7.49136e-10
8.14586e-10
8.69144e-10
9.10268e-10
9.35981e-10
9.45023e-10
9.36945e-10
9.12145e-10
8.71835e-10
8.1795e-10
7.53001e-10
6.79888e-10
6.01679e-10
5.21389e-10
4.41769e-10
3.65113e-10
2.93112e-10
2.26752e-10
1.66274e-10
1.11187e-10
6.03454e-11
1.2074e-11
4.18351e-13
4.1271e-13
1.1914e-11
5.95759e-11
1.0981e-10
1.64288e-10
2.24171e-10
2.89975e-10
3.61494e-10
4.37775e-10
5.17159e-10
5.97381e-10
6.7571e-10
7.49136e-10
8.14586e-10
8.69144e-10
9.10268e-10
9.35981e-10
9.45023e-10
9.36945e-10
9.12145e-10
8.71835e-10
8.1795e-10
7.53001e-10
6.79888e-10
6.01679e-10
5.21389e-10
4.41769e-10
3.65113e-10
2.93112e-10
2.26752e-10
1.66274e-10
1.11187e-10
6.03454e-11
1.2074e-11
4.18351e-13
4.1271e-13
1.1914e-11
5.95759e-11
1.0981e-10
1.64288e-10
2.24171e-10
2.89975e-10
3.61494e-10
4.37775e-10
5.17159e-10
5.97381e-10
6.7571e-10
7.49136e-10
8.14586e-10
8.69144e-10
9.10268e-10
9.35981e-10
9.45023e-10
9.36945e-10
9.12145e-10
8.71835e-10
8.1795e-10
7.53001e-10
6.79888e-10
6.01679e-10
5.21389e-10
4.41769e-10
3.65113e-10
2.93112e-10
2.26752e-10
1.66274e-10
1.11187e-10
6.03454e-11
1.2074e-11
4.18351e-13
4.1271e-13
1.1914e-11
5.95759e-11
1.0981e-10
1.64288e-10
2.24171e-10
2.89975e-10
3.61494e-10
4.37775e-10
5.17159e-10
5.97381e-10
6.7571e-10
7.49136e-10
8.14586e-10
8.69144e-10
9.10268e-10
9.35981e-10
9.45023e-10
9.36945e-10
9.12145e-10
8.71835e-10
8.1795e-10
7.53001e-10
6.79888e-10
6.01679e-10
5.21389e-10
4.41769e-10
3.65113e-10
2.93112e-10
2.26752e-10
1.66274e-10
1.11187e-10
6.03454e-11
1.2074e-11
4.18351e-13
4.1271e-13
1.1914e-11
5.95759e-11
1.0981e-10
1.64288e-10
2.24171e-10
2.89975e-10
3.61494e-10
4.37775e-10
5.17159e-10
5.97381e-10
6.7571e-10
7.49136e-10
8.14586e-10
8.69144e-10
9.10268e-10
9.35981e-10
9.45023e-10
9.36945e-10
9.12145e-10
8.71835e-10
8.1795e-10
7.53001e-10
6.79888e-10
6.01679e-10
5.21389e-10
4.41769e-10
3.65113e-10
2.93112e-10
2.26752e-10
1.66274e-10
1.11187e-10
6.03454e-11
1.2074e-11
4.18351e-13
4.1271e-13
1.1914e-11
5.95759e-11
1.0981e-10
1.64288e-10
2.24171e-10
2.89975e-10
3.61494e-10
4.37775e-10
5.17159e-10
5.97381e-10
6.7571e-10
7.49136e-10
8.14586e-10
8.69144e-10
9.10268e-10
9.35981e-10
9.45023e-10
9.36945e-10
9.12145e-10
8.71835e-10
8.1795e-10
7.53001e-10
6.79888e-10
6.01679e-10
5.21389e-10
4.41769e-10
3.65113e-10
2.93112e-10
2.26752e-10
1.66274e-10
1.11187e-10
6.03454e-11
1.2074e-11
4.18351e-13
4.1271e-13
1.1914e-11
5.95759e-11
1.0981e-10
1.64288e-10
2.24171e-10
2.89975e-10
3.61494e-10
4.37775e-10
5.17159e-10
5.97381e-10
6.7571e-10
7.49136e-10
8.14586e-10
8.69144e-10
9.10268e-10
9.35981e-10
9.45023e-10
9.36945e-10
9.12145e-10
8.71835e-10
8.1795e-10
7.53001e-10
6.79888e-10
6.01679e-10
5.21389e-10
4.41769e-10
3.65113e-10
2.93112e-10
2.26752e-10
1.66274e-10
1.11187e-10
6.03454e-11
1.2074e-11
4.18351e-13
4.1271e-13
1.1914e-11
5.95759e-11
1.0981e-10
1.64288e-10
2.24171e-10
2.89975e-10
3.61494e-10
4.37775e-10
5.17159e-10
5.97381e-10
6.7571e-10
7.49136e-10
8.14586e-10
8.69144e-10
9.10268e-10
9.35981e-10
9.45023e-10
9.36945e-10
9.12145e-10
8.71835e-10
8.1795e-10
7.53001e-10
6.79888e-10
6.01679e-10
5.21389e-10
4.41769e-10
3.65113e-10
2.93112e-10
2.26752e-10
1.66274e-10
1.11187e-10
6.03454e-11
1.2074e-11
4.18351e-13
4.1271e-13
1.1914e-11
5.95759e-11
1.0981e-10
1.64288e-10
2.24171e-10
2.89975e-10
3.61494e-10
4.37775e-10
5.17159e-10
5.97381e-10
6.7571e-10
7.49136e-10
8.14586e-10
8.69144e-10
9.10268e-10
9.35981e-10
9.45023e-10
9.36945e-10
9.12145e-10
8.71835e-10
8.1795e-10
7.53001e-10
6.79888e-10
6.01679e-10
5.21389e-10
4.41769e-10
3.65113e-10
2.93112e-10
2.26752e-10
1.66274e-10
1.11187e-10
6.03454e-11
1.2074e-11
4.18351e-13
4.1271e-13
1.1914e-11
5.95759e-11
1.0981e-10
1.64288e-10
2.24171e-10
2.89975e-10
3.61494e-10
4.37775e-10
5.17159e-10
5.97381e-10
6.7571e-10
7.49136e-10
8.14586e-10
8.69144e-10
9.10268e-10
9.35981e-10
9.45023e-10
9.36945e-10
9.12145e-10
8.71835e-10
8.1795e-10
7.53001e-10
6.79888e-10
6.01679e-10
5.21389e-10
4.41769e-10
3.65113e-10
2.93112e-10
2.26752e-10
1.66274e-10
1.11187e-10
6.03454e-11
1.2074e-11
4.18351e-13
4.1271e-13
1.1914e-11
5.95759e-11
1.0981e-10
1.64288e-10
2.24171e-10
2.89975e-10
3.61494e-10
4.37775e-10
5.17159e-10
5.97381e-10
6.7571e-10
7.49136e-10
8.14586e-10
8.69144e-10
9.10268e-10
9.35981e-10
9.45023e-10
9.36945e-10
9.12145e-10
8.71835e-10
8.1795e-10
7.53001e-10
6.79888e-10
6.01679e-10
5.21389e-10
4.41769e-10
3.65113e-10
2.93112e-10
2.26752e-10
1.66274e-10
1.11187e-10
6.03454e-11
1.2074e-11
4.18351e-13
4.1271e-13
1.1914e-11
5.95759e-11
1.0981e-10
1.64288e-10
2.24171e-10
2.89975e-10
3.61494e-10
4.37775e-10
5.17159e-10
5.97381e-10
6.7571e-10
7.49136e-10
8.14586e-10
8.69144e-10
9.10268e-10
9.35981e-10
9.45023e-10
9.36945e-10
9.12145e-10
8.71835e-10
8.1795e-10
7.53001e-10
6.79888e-10
6.01679e-10
5.21389e-10
4.41769e-10
3.65113e-10
2.93112e-10
2.26752e-10
1.66274e-10
1.11187e-10
6.03454e-11
1.2074e-11
4.18351e-13
4.1271e-13
1.1914e-11
5.95759e-11
1.0981e-10
1.64288e-10
2.24171e-10
2.89975e-10
3.61494e-10
4.37775e-10
5.17159e-10
5.97381e-10
6.7571e-10
7.49136e-10
8.14586e-10
8.69144e-10
9.10268e-10
9.35981e-10
9.45023e-10
9.36945e-10
9.12145e-10
8.71835e-10
8.1795e-10
7.53001e-10
6.79888e-10
6.01679e-10
5.21389e-10
4.41769e-10
3.65113e-10
2.93112e-10
2.26752e-10
1.66274e-10
1.11187e-10
6.03454e-11
1.2074e-11
4.18351e-13
4.1271e-13
1.1914e-11
5.95759e-11
1.0981e-10
1.64288e-10
2.24171e-10
2.89975e-10
3.61494e-10
4.37775e-10
5.17159e-10
5.97381e-10
6.7571e-10
7.49136e-10
8.14586e-10
8.69144e-10
9.10268e-10
9.35981e-10
9.45023e-10
9.36945e-10
9.12145e-10
8.71835e-10
8.1795e-10
7.53001e-10
6.79888e-10
6.01679e-10
5.21389e-10
4.41769e-10
3.65113e-10
2.93112e-10
2.26752e-10
1.66274e-10
1.11187e-10
6.03454e-11
1.2074e-11
4.18351e-13
4.1271e-13
1.1914e-11
5.95759e-11
1.0981e-10
1.64288e-10
2.24171e-10
2.89975e-10
3.61494e-10
4.37775e-10
5.17159e-10
5.97381e-10
6.7571e-10
7.49136e-10
8.14586e-10
8.69144e-10
9.10268e-10
9.35981e-10
9.45023e-10
9.36945e-10
9.12145e-10
8.71835e-10
8.1795e-10
7.53001e-10
6.79888e-10
6.01679e-10
5.21389e-10
4.41769e-10
3.65113e-10
2.93112e-10
2.26752e-10
1.66274e-10
1.11187e-10
6.03454e-11
1.2074e-11
4.18351e-13
4.1271e-13
1.1914e-11
5.95759e-11
1.0981e-10
1.64288e-10
2.24171e-10
2.89975e-10
3.61494e-10
4.37775e-10
5.17159e-10
5.97381e-10
6.7571e-10
7.49136e-10
8.14586e-10
8.69144e-10
9.10268e-10
9.35981e-10
9.45023e-10
9.36945e-10
9.12145e-10
8.71835e-10
8.1795e-10
7.53001e-10
6.79888e-10
6.01679e-10
5.21389e-10
4.41769e-10
3.65113e-10
2.93112e-10
2.26752e-10
1.66274e-10
1.11187e-10
6.03454e-11
1.2074e-11
4.18351e-13
4.1271e-13
1.1914e-11
5.95759e-11
1.0981e-10
1.64288e-10
2.24171e-10
2.89975e-10
3.61494e-10
4.37775e-10
5.17159e-10
5.97381e-10
6.7571e-10
7.49136e-10
8.14586e-10
8.69144e-10
9.10268e-10
9.35981e-10
9.45023e-10
9.36945e-10
9.12145e-10
8.71835e-10
8.1795e-10
7.53001e-10
6.79888e-10
6.01679e-10
5.21389e-10
4.41769e-10
3.65113e-10
2.93112e-10
2.26752e-10
1.66274e-10
1.11187e-10
6.03454e-11
1.2074e-11
4.18351e-13
4.1271e-13
1.1914e-11
5.95759e-11
1.0981e-10
1.64288e-10
2.24171e-10
2.89975e-10
3.61494e-10
4.37775e-10
5.17159e-10
5.97381e-10
6.7571e-10
7.49136e-10
8.14586e-10
8.69144e-10
9.10268e-10
9.35981e-10
9.45023e-10
9.36945e-10
9.12145e-10
8.71835e-10
8.1795e-10
7.53001e-10
6.79888e-10
6.01679e-10
5.21389e-10
4.41769e-10
3.65113e-10
2.93112e-10
2.26752e-10
1.66274e-10
1.11187e-10
6.03454e-11
1.2074e-11
4.18351e-13
4.1271e-13
1.1914e-11
5.95759e-11
1.0981e-10
1.64288e-10
2.24171e-10
2.89975e-10
3.61494e-10
4.37775e-10
5.17159e-10
5.97381e-10
6.7571e-10
7.49136e-10
8.14586e-10
8.69144e-10
9.10268e-10
9.35981e-10
9.45023e-10
9.36945e-10
9.12145e-10
8.71835e-10
8.1795e-10
7.53001e-10
6.79888e-10
6.01679e-10
5.21389e-10
4.41769e-10
3.65113e-10
2.93112e-10
2.26752e-10
1.66274e-10
1.11187e-10
6.03454e-11
1.2074e-11
4.18351e-13
4.1271e-13
1.1914e-11
5.95759e-11
1.0981e-10
1.64288e-10
2.24171e-10
2.89975e-10
3.61494e-10
4.37775e-10
5.17159e-10
5.97381e-10
6.7571e-10
7.49136e-10
8.14586e-10
8.69144e-10
9.10268e-10
9.35981e-10
9.45023e-10
9.36945e-10
9.12145e-10
8.71835e-10
8.1795e-10
7.53001e-10
6.79888e-10
6.01679e-10
5.21389e-10
4.41769e-10
3.65113e-10
2.93112e-10
2.26752e-10
1.66274e-10
1.11187e-10
6.03454e-11
1.2074e-11
4.18351e-13
4.1271e-13
1.1914e-11
5.95759e-11
1.0981e-10
1.64288e-10
2.24171e-10
2.89975e-10
3.61494e-10
4.37775e-10
5.17159e-10
5.97381e-10
6.7571e-10
7.49136e-10
8.14586e-10
8.69144e-10
9.10268e-10
9.35981e-10
9.45023e-10
9.36945e-10
9.12145e-10
8.71835e-10
8.1795e-10
7.53001e-10
6.79888e-10
6.01679e-10
5.21389e-10
4.41769e-10
3.65113e-10
2.93112e-10
2.26752e-10
1.66274e-10
1.11187e-10
6.03454e-11
1.2074e-11
4.18351e-13
4.1271e-13
1.1914e-11
5.95759e-11
1.0981e-10
1.64288e-10
2.24171e-10
2.89975e-10
3.61494e-10
4.37775e-10
5.17159e-10
5.97381e-10
6.7571e-10
7.49136e-10
8.14586e-10
8.69144e-10
9.10268e-10
9.35981e-10
9.45023e-10
9.36945e-10
9.12145e-10
8.71835e-10
8.1795e-10
7.53001e-10
6.79888e-10
6.01679e-10
5.21389e-10
4.41769e-10
3.65113e-10
2.93112e-10
2.26752e-10
1.66274e-10
1.11187e-10
6.03454e-11
1.2074e-11
4.18351e-13
4.1271e-13
1.1914e-11
5.95759e-11
1.0981e-10
1.64288e-10
2.24171e-10
2.89975e-10
3.61494e-10
4.37775e-10
5.17159e-10
5.97381e-10
6.7571e-10
7.49136e-10
8.14586e-10
8.69144e-10
9.10268e-10
9.35981e-10
9.45023e-10
9.36945e-10
9.12145e-10
8.71835e-10
8.1795e-10
7.53001e-10
6.79888e-10
6.01679e-10
5.21389e-10
4.41769e-10
3.65113e-10
2.93112e-10
2.26752e-10
1.66274e-10
1.11187e-10
6.03454e-11
1.2074e-11
4.18351e-13
4.1271e-13
1.1914e-11
5.95759e-11
1.0981e-10
1.64288e-10
2.24171e-10
2.89975e-10
3.61494e-10
4.37775e-10
5.17159e-10
5.97381e-10
6.7571e-10
7.49136e-10
8.14586e-10
8.69144e-10
9.10268e-10
9.35981e-10
9.45023e-10
9.36945e-10
9.12145e-10
8.71835e-10
8.1795e-10
7.53001e-10
6.79888e-10
6.01679e-10
5.21389e-10
4.41769e-10
3.65113e-10
2.93112e-10
2.26752e-10
1.66274e-10
1.11187e-10
6.03454e-11
1.2074e-11
4.18351e-13
4.1271e-13
1.1914e-11
5.95759e-11
1.0981e-10
1.64288e-10
2.24171e-10
2.89975e-10
3.61494e-10
4.37775e-10
5.17159e-10
5.97381e-10
6.7571e-10
7.49136e-10
8.14586e-10
8.69144e-10
9.10268e-10
9.35981e-10
9.45023e-10
9.36945e-10
9.12145e-10
8.71835e-10
8.1795e-10
7.53001e-10
6.79888e-10
6.01679e-10
5.21389e-10
4.41769e-10
3.65113e-10
2.93112e-10
2.26752e-10
1.66274e-10
1.11187e-10
6.03454e-11
1.2074e-11
4.18351e-13
4.1271e-13
1.1914e-11
5.95759e-11
1.0981e-10
1.64288e-10
2.24171e-10
2.89975e-10
3.61494e-10
4.37775e-10
5.17159e-10
5.97381e-10
6.7571e-10
7.49136e-10
8.14586e-10
8.69144e-10
9.10268e-10
9.35981e-10
9.45023e-10
9.36945e-10
9.12145e-10
8.71835e-10
8.1795e-10
7.53001e-10
6.79888e-10
6.01679e-10
5.21389e-10
4.41769e-10
3.65113e-10
2.93112e-10
2.26752e-10
1.66274e-10
1.11187e-10
6.03454e-11
1.2074e-11
4.18351e-13
4.1271e-13
1.1914e-11
5.95759e-11
1.0981e-10
1.64288e-10
2.24171e-10
2.89975e-10
3.61494e-10
4.37775e-10
5.17159e-10
5.97381e-10
6.7571e-10
7.49136e-10
8.14586e-10
8.69144e-10
9.10268e-10
9.35981e-10
9.45023e-10
9.36945e-10
9.12145e-10
8.71835e-10
8.1795e-10
7.53001e-10
6.79888e-10
6.01679e-10
5.21389e-10
4.41769e-10
3.65113e-10
2.93112e-10
2.26752e-10
1.66274e-10
1.11187e-10
6.03454e-11
1.2074e-11
4.18351e-13
4.1271e-13
1.1914e-11
5.95759e-11
1.0981e-10
1.64288e-10
2.24171e-10
2.89975e-10
3.61494e-10
4.37775e-10
5.17159e-10
5.97381e-10
6.7571e-10
7.49136e-10
8.14586e-10
8.69144e-10
9.10268e-10
9.35981e-10
9.45023e-10
9.36945e-10
9.12145e-10
8.71835e-10
8.1795e-10
7.53001e-10
6.79888e-10
6.01679e-10
5.21389e-10
4.41769e-10
3.65113e-10
2.93112e-10
2.26752e-10
1.66274e-10
1.11187e-10
6.03454e-11
1.2074e-11
4.18351e-13
4.1271e-13
1.1914e-11
5.95759e-11
1.0981e-10
1.64288e-10
2.24171e-10
2.89975e-10
3.61494e-10
4.37775e-10
5.17159e-10
5.97381e-10
6.7571e-10
7.49136e-10
8.14586e-10
8.69144e-10
9.10268e-10
9.35981e-10
9.45023e-10
9.36945e-10
9.12145e-10
8.71835e-10
8.1795e-10
7.53001e-10
6.79888e-10
6.01679e-10
5.21389e-10
4.41769e-10
3.65113e-10
2.93112e-10
2.26752e-10
1.66274e-10
1.11187e-10
6.03454e-11
1.2074e-11
4.18351e-13
4.1271e-13
1.1914e-11
5.95759e-11
1.0981e-10
1.64288e-10
2.24171e-10
2.89975e-10
3.61494e-10
4.37775e-10
5.17159e-10
5.97381e-10
6.7571e-10
7.49136e-10
8.14586e-10
8.69144e-10
9.10268e-10
9.35981e-10
9.45023e-10
9.36945e-10
9.12145e-10
8.71835e-10
8.1795e-10
7.53001e-10
6.79888e-10
6.01679e-10
5.21389e-10
4.41769e-10
3.65113e-10
2.93112e-10
2.26752e-10
1.66274e-10
1.11187e-10
6.03454e-11
1.2074e-11
4.18351e-13
4.1271e-13
1.1914e-11
5.95759e-11
1.0981e-10
1.64288e-10
2.24171e-10
2.89975e-10
3.61494e-10
4.37775e-10
5.17159e-10
5.97381e-10
6.7571e-10
7.49136e-10
8.14586e-10
8.69144e-10
9.10268e-10
9.35981e-10
9.45023e-10
9.36945e-10
9.12145e-10
8.71835e-10
8.1795e-10
7.53001e-10
6.79888e-10
6.01679e-10
5.21389e-10
4.41769e-10
3.65113e-10
2.93112e-10
2.26752e-10
1.66274e-10
1.11187e-10
6.03454e-11
1.2074e-11
4.18351e-13
4.1271e-13
1.1914e-11
5.95759e-11
1.0981e-10
1.64288e-10
2.24171e-10
2.89975e-10
3.61494e-10
4.37775e-10
5.17159e-10
5.97381e-10
6.7571e-10
7.49136e-10
8.14586e-10
8.69144e-10
9.10268e-10
9.35981e-10
9.45023e-10
9.36945e-10
9.12145e-10
8.71835e-10
8.1795e-10
7.53001e-10
6.79888e-10
6.01679e-10
5.21389e-10
4.41769e-10
3.65113e-10
2.93112e-10
2.26752e-10
1.66274e-10
1.11187e-10
6.03454e-11
1.2074e-11
4.18351e-13
4.1271e-13
1.1914e-11
5.95759e-11
1.0981e-10
1.64288e-10
2.24171e-10
2.89975e-10
3.61494e-10
4.37775e-10
5.17159e-10
5.97381e-10
6.7571e-10
7.49136e-10
8.14586e-10
8.69144e-10
9.10268e-10
9.35981e-10
9.45023e-10
9.36945e-10
9.12145e-10
8.71835e-10
8.1795e-10
7.53001e-10
6.79888e-10
6.01679e-10
5.21389e-10
4.41769e-10
3.65113e-10
2.93112e-10
2.26752e-10
1.66274e-10
1.11187e-10
6.03454e-11
1.2074e-11
4.18351e-13
4.1271e-13
1.1914e-11
5.95759e-11
1.0981e-10
1.64288e-10
2.24171e-10
2.89975e-10
3.61494e-10
4.37775e-10
5.17159e-10
5.97381e-10
6.7571e-10
7.49136e-10
8.14586e-10
8.69144e-10
9.10268e-10
9.35981e-10
9.45023e-10
9.36945e-10
9.12145e-10
8.71835e-10
8.1795e-10
7.53001e-10
6.79888e-10
6.01679e-10
5.21389e-10
4.41769e-10
3.65113e-10
2.93112e-10
2.26752e-10
1.66274e-10
1.11187e-10
6.03454e-11
1.2074e-11
4.18351e-13
4.1271e-13
1.1914e-11
5.95759e-11
1.0981e-10
1.64288e-10
2.24171e-10
2.89975e-10
3.61494e-10
4.37775e-10
5.17159e-10
5.97381e-10
6.7571e-10
7.49136e-10
8.14586e-10
8.69144e-10
9.10268e-10
9.35981e-10
9.45023e-10
9.36945e-10
9.12145e-10
8.71835e-10
8.1795e-10
7.53001e-10
6.79888e-10
6.01679e-10
5.21389e-10
4.41769e-10
3.65113e-10
2.93112e-10
2.26752e-10
1.66274e-10
1.11187e-10
6.03454e-11
1.2074e-11
4.18351e-13
4.1271e-13
1.1914e-11
5.95759e-11
1.0981e-10
1.64288e-10
2.24171e-10
2.89975e-10
3.61494e-10
4.37775e-10
5.17159e-10
5.97381e-10
6.7571e-10
7.49136e-10
8.14586e-10
8.69144e-10
9.10268e-10
9.35981e-10
9.45023e-10
9.36945e-10
9.12145e-10
8.71835e-10
8.1795e-10
7.53001e-10
6.79888e-10
6.01679e-10
5.21389e-10
4.41769e-10
3.65113e-10
2.93112e-10
2.26752e-10
1.66274e-10
1.11187e-10
6.03454e-11
1.2074e-11
4.18351e-13
4.1271e-13
1.1914e-11
5.95759e-11
1.0981e-10
1.64288e-10
2.24171e-10
2.89975e-10
3.61494e-10
4.37775e-10
5.17159e-10
5.97381e-10
6.7571e-10
7.49136e-10
8.14586e-10
8.69144e-10
9.10268e-10
9.35981e-10
9.45023e-10
9.36945e-10
9.12145e-10
8.71835e-10
8.1795e-10
7.53001e-10
6.79888e-10
6.01679e-10
5.21389e-10
4.41769e-10
3.65113e-10
2.93112e-10
2.26752e-10
1.66274e-10
1.11187e-10
6.03454e-11
1.2074e-11
4.18351e-13
4.1271e-13
1.1914e-11
5.95759e-11
1.0981e-10
1.64288e-10
2.24171e-10
2.89975e-10
3.61494e-10
4.37775e-10
5.17159e-10
5.97381e-10
6.7571e-10
7.49136e-10
8.14586e-10
8.69144e-10
9.10268e-10
9.35981e-10
9.45023e-10
9.36945e-10
9.12145e-10
8.71835e-10
8.1795e-10
7.53001e-10
6.79888e-10
6.01679e-10
5.21389e-10
4.41769e-10
3.65113e-10
2.93112e-10
2.26752e-10
1.66274e-10
1.11187e-10
6.03454e-11
1.2074e-11
4.18351e-13
4.1271e-13
1.1914e-11
5.95759e-11
1.0981e-10
1.64288e-10
2.24171e-10
2.89975e-10
3.61494e-10
4.37775e-10
5.17159e-10
5.97381e-10
6.7571e-10
7.49136e-10
8.14586e-10
8.69144e-10
9.10268e-10
9.35981e-10
9.45023e-10
9.36945e-10
9.12145e-10
8.71835e-10
8.1795e-10
7.53001e-10
6.79888e-10
6.01679e-10
5.21389e-10
4.41769e-10
3.65113e-10
2.93112e-10
2.26752e-10
1.66274e-10
1.11187e-10
6.03454e-11
1.2074e-11
4.18351e-13
4.1271e-13
1.1914e-11
5.95759e-11
1.0981e-10
1.64288e-10
2.24171e-10
2.89975e-10
3.61494e-10
4.37775e-10
5.17159e-10
5.97381e-10
6.7571e-10
7.49136e-10
8.14586e-10
8.69144e-10
9.10268e-10
9.35981e-10
9.45023e-10
9.36945e-10
9.12145e-10
8.71835e-10
8.1795e-10
7.53001e-10
6.79888e-10
6.01679e-10
5.21389e-10
4.41769e-10
3.65113e-10
2.93112e-10
2.26752e-10
1.66274e-10
1.11187e-10
6.03454e-11
1.2074e-11
4.18351e-13
4.1271e-13
1.1914e-11
5.95759e-11
1.0981e-10
1.64288e-10
2.24171e-10
2.89975e-10
3.61494e-10
4.37775e-10
5.17159e-10
5.97381e-10
6.7571e-10
7.49136e-10
8.14586e-10
8.69144e-10
9.10268e-10
9.35981e-10
9.45023e-10
9.36945e-10
9.12145e-10
8.71835e-10
8.1795e-10
7.53001e-10
6.79888e-10
6.01679e-10
5.21389e-10
4.41769e-10
3.65113e-10
2.93112e-10
2.26752e-10
1.66274e-10
1.11187e-10
6.03454e-11
1.2074e-11
4.18351e-13
4.1271e-13
1.1914e-11
5.95759e-11
1.0981e-10
1.64288e-10
2.24171e-10
2.89975e-10
3.61494e-10
4.37775e-10
5.17159e-10
5.97381e-10
6.7571e-10
7.49136e-10
8.14586e-10
8.69144e-10
9.10268e-10
9.35981e-10
9.45023e-10
9.36945e-10
9.12145e-10
8.71835e-10
8.1795e-10
7.53001e-10
6.79888e-10
6.01679e-10
5.21389e-10
4.41769e-10
3.65113e-10
2.93112e-10
2.26752e-10
1.66274e-10
1.11187e-10
6.03454e-11
1.2074e-11
4.18351e-13
4.1271e-13
1.1914e-11
5.95759e-11
1.0981e-10
1.64288e-10
2.24171e-10
2.89975e-10
3.61494e-10
4.37775e-10
5.17159e-10
5.97381e-10
6.7571e-10
7.49136e-10
8.14586e-10
8.69144e-10
9.10268e-10
9.35981e-10
9.45023e-10
9.36945e-10
9.12145e-10
8.71835e-10
8.1795e-10
7.53001e-10
6.79888e-10
6.01679e-10
5.21389e-10
4.41769e-10
3.65113e-10
2.93112e-10
2.26752e-10
1.66274e-10
1.11187e-10
6.03454e-11
1.2074e-11
4.18351e-13
4.1271e-13
1.1914e-11
5.95759e-11
1.0981e-10
1.64288e-10
2.24171e-10
2.89975e-10
3.61494e-10
4.37775e-10
5.17159e-10
5.97381e-10
6.7571e-10
7.49136e-10
8.14586e-10
8.69144e-10
9.10268e-10
9.35981e-10
9.45023e-10
9.36945e-10
9.12145e-10
8.71835e-10
8.1795e-10
7.53001e-10
6.79888e-10
6.01679e-10
5.21389e-10
4.41769e-10
3.65113e-10
2.93112e-10
2.26752e-10
1.66274e-10
1.11187e-10
6.03454e-11
1.2074e-11
4.18351e-13
4.1271e-13
1.1914e-11
5.95759e-11
1.0981e-10
1.64288e-10
2.24171e-10
2.89975e-10
3.61494e-10
4.37775e-10
5.17159e-10
5.97381e-10
6.7571e-10
7.49136e-10
8.14586e-10
8.69144e-10
9.10268e-10
9.35981e-10
9.45023e-10
9.36945e-10
9.12145e-10
8.71835e-10
8.1795e-10
7.53001e-10
6.79888e-10
6.01679e-10
5.21389e-10
4.41769e-10
3.65113e-10
2.93112e-10
2.26752e-10
1.66274e-10
1.11187e-10
6.03454e-11
1.2074e-11
4.18351e-13
4.1271e-13
1.1914e-11
5.95759e-11
1.0981e-10
1.64288e-10
2.24171e-10
2.89975e-10
3.61494e-10
4.37775e-10
5.17159e-10
5.97381e-10
6.7571e-10
7.49136e-10
8.14586e-10
8.69144e-10
9.10268e-10
9.35981e-10
9.45023e-10
9.36945e-10
9.12145e-10
8.71835e-10
8.1795e-10
7.53001e-10
6.79888e-10
6.01679e-10
5.21389e-10