/*--------------------------------*- C++ -*----------------------------------*\
  =========                 |
  \\      /  F ield         | OpenFOAM: The Open Source CFD Toolbox
   \\    /   O peration     | Website:  https://openfoam.org
    \\  /    A nd           | Version:  13
     \\/     M anipulation  |
\*---------------------------------------------------------------------------*/
FoamFile
{
    format      ascii;
    class       volScalarField;
    location    "172.5";
    object      rhok;
}
// * * * * * * * * * * * * * * * * * * * * * * * * * * * * * * * * * * * * * //

dimensions      [];

internalField   nonuniform List<scalar> 
315000
(
0.444647
0.430657
0.417457
0.41352
0.412738
0.412177
0.411547
0.410887
0.410213
0.409531
0.408844
0.408153
0.40746
0.406764
0.406067
0.40537
0.404672
0.403975
0.403279
0.402584
0.40189
0.401198
0.400508
0.399821
0.399135
0.398451
0.39777
0.397091
0.396414
0.39574
0.395068
0.394398
0.393731
0.393066
0.392404
0.391743
0.391085
0.390429
0.389776
0.389124
0.388475
0.387827
0.387182
0.386539
0.385897
0.385258
0.38462
0.383984
0.38335
0.382717
0.382087
0.381457
0.380829
0.380203
0.379577
0.378953
0.378331
0.377709
0.377088
0.376469
0.37585
0.375232
0.374614
0.373998
0.373382
0.372766
0.372151
0.371536
0.370921
0.370306
0.444647
0.430656
0.417467
0.413559
0.412781
0.412216
0.411582
0.410918
0.41024
0.409553
0.408862
0.408167
0.40747
0.406772
0.406073
0.405373
0.404674
0.403976
0.403279
0.402583
0.401889
0.401197
0.400506
0.399818
0.399132
0.398449
0.397767
0.397088
0.396412
0.395737
0.395065
0.394396
0.393729
0.393064
0.392401
0.391741
0.391083
0.390427
0.389773
0.389122
0.388472
0.387825
0.38718
0.386537
0.385895
0.385256
0.384618
0.383982
0.383348
0.382716
0.382085
0.381456
0.380828
0.380201
0.379576
0.378952
0.378329
0.377708
0.377087
0.376468
0.375849
0.375231
0.374614
0.373997
0.373381
0.372766
0.37215
0.371536
0.370921
0.370306
0.444632
0.430037
0.415376
0.413961
0.413216
0.412486
0.411764
0.411048
0.410334
0.409623
0.408914
0.408206
0.407498
0.406792
0.406087
0.405383
0.404681
0.40398
0.403281
0.402584
0.401889
0.401196
0.400505
0.399817
0.399131
0.398447
0.397765
0.397086
0.396409
0.395735
0.395063
0.394394
0.393726
0.393061
0.392399
0.391739
0.391081
0.390425
0.389771
0.38912
0.38847
0.387823
0.387178
0.386535
0.385893
0.385254
0.384616
0.383981
0.383347
0.382714
0.382083
0.381454
0.380826
0.3802
0.379575
0.378951
0.378328
0.377707
0.377086
0.376467
0.375848
0.37523
0.374613
0.373997
0.373381
0.372765
0.37215
0.371535
0.370921
0.370306
0.444645
0.430551
0.416286
0.414091
0.413153
0.41237
0.411649
0.41095
0.410257
0.409565
0.40887
0.408174
0.407475
0.406775
0.406075
0.405374
0.404674
0.403975
0.403277
0.402581
0.401886
0.401193
0.400503
0.399814
0.399128
0.398445
0.397763
0.397084
0.396407
0.395733
0.395061
0.394392
0.393724
0.393059
0.392397
0.391737
0.391079
0.390423
0.389769
0.389118
0.388469
0.387821
0.387176
0.386533
0.385892
0.385252
0.384615
0.383979
0.383345
0.382713
0.382082
0.381453
0.380825
0.380199
0.379574
0.37895
0.378328
0.377706
0.377086
0.376466
0.375848
0.37523
0.374613
0.373996
0.37338
0.372765
0.37215
0.371535
0.370921
0.370306
0.444645
0.430551
0.416285
0.41409
0.413158
0.412376
0.411654
0.410953
0.41026
0.409566
0.408871
0.408174
0.407475
0.406775
0.406074
0.405373
0.404673
0.403974
0.403275
0.402579
0.401884
0.401192
0.400501
0.399813
0.399127
0.398443
0.397761
0.397082
0.396406
0.395731
0.395059
0.39439
0.393723
0.393058
0.392395
0.391735
0.391077
0.390421
0.389768
0.389116
0.388467
0.38782
0.387175
0.386532
0.38589
0.385251
0.384614
0.383978
0.383344
0.382712
0.382081
0.381452
0.380824
0.380198
0.379573
0.378949
0.378327
0.377705
0.377085
0.376466
0.375847
0.375229
0.374612
0.373996
0.37338
0.372765
0.37215
0.371535
0.370921
0.370306
0.444632
0.430038
0.415378
0.413962
0.413224
0.412495
0.411772
0.411054
0.41034
0.409627
0.408917
0.408207
0.407499
0.406792
0.406086
0.405381
0.404678
0.403977
0.403277
0.40258
0.401884
0.401191
0.4005
0.399812
0.399125
0.398442
0.39776
0.397081
0.396404
0.39573
0.395058
0.394388
0.393721
0.393056
0.392394
0.391734
0.391076
0.39042
0.389766
0.389115
0.388466
0.387819
0.387174
0.38653
0.385889
0.38525
0.384613
0.383977
0.383343
0.382711
0.38208
0.381451
0.380823
0.380197
0.379572
0.378949
0.378326
0.377705
0.377084
0.376465
0.375847
0.375229
0.374612
0.373996
0.37338
0.372764
0.37215
0.371535
0.370921
0.370306
0.444645
0.43057
0.417396
0.413538
0.412771
0.412215
0.411587
0.410927
0.410251
0.409564
0.408872
0.408176
0.407476
0.406776
0.406074
0.405373
0.404672
0.403972
0.403274
0.402577
0.401882
0.401189
0.400499
0.39981
0.399124
0.39844
0.397759
0.39708
0.396403
0.395729
0.395057
0.394387
0.39372
0.393055
0.392393
0.391732
0.391075
0.390419
0.389765
0.389114
0.388465
0.387818
0.387173
0.38653
0.385888
0.385249
0.384612
0.383976
0.383342
0.38271
0.382079
0.38145
0.380823
0.380196
0.379572
0.378948
0.378326
0.377704
0.377084
0.376465
0.375846
0.375229
0.374612
0.373995
0.37338
0.372764
0.372149
0.371535
0.37092
0.370306
0.444645
0.430568
0.417383
0.413501
0.412734
0.41218
0.411557
0.410901
0.410229
0.409547
0.408858
0.408165
0.407468
0.406769
0.406069
0.405369
0.404669
0.40397
0.403272
0.402576
0.401881
0.401188
0.400498
0.399809
0.399123
0.398439
0.397758
0.397079
0.396402
0.395728
0.395056
0.394386
0.393719
0.393054
0.392392
0.391732
0.391074
0.390418
0.389764
0.389113
0.388464
0.387817
0.387172
0.386529
0.385888
0.385248
0.384611
0.383975
0.383342
0.382709
0.382079
0.38145
0.380822
0.380196
0.379571
0.378947
0.378325
0.377704
0.377084
0.376464
0.375846
0.375228
0.374611
0.373995
0.373379
0.372764
0.372149
0.371535
0.37092
0.370306
0.444645
0.430567
0.417381
0.413499
0.412731
0.412177
0.411554
0.410898
0.410226
0.409544
0.408856
0.408163
0.407466
0.406768
0.406068
0.405368
0.404668
0.403969
0.403271
0.402575
0.40188
0.401187
0.400497
0.399808
0.399122
0.398438
0.397757
0.397078
0.396401
0.395727
0.395055
0.394385
0.393718
0.393054
0.392391
0.391731
0.391073
0.390417
0.389764
0.389112
0.388463
0.387816
0.387171
0.386528
0.385887
0.385248
0.38461
0.383975
0.383341
0.382709
0.382078
0.381449
0.380822
0.380196
0.379571
0.378947
0.378325
0.377703
0.377083
0.376464
0.375846
0.375228
0.374611
0.373995
0.373379
0.372764
0.372149
0.371535
0.37092
0.370306
0.444645
0.430567
0.41738
0.413497
0.412729
0.412175
0.411552
0.410897
0.410225
0.409543
0.408855
0.408162
0.407465
0.406767
0.406067
0.405367
0.404667
0.403968
0.40327
0.402574
0.401879
0.401187
0.400496
0.399808
0.399122
0.398438
0.397756
0.397077
0.396401
0.395726
0.395054
0.394385
0.393718
0.393053
0.392391
0.39173
0.391072
0.390417
0.389763
0.389112
0.388463
0.387816
0.387171
0.386528
0.385887
0.385247
0.38461
0.383975
0.383341
0.382709
0.382078
0.381449
0.380821
0.380195
0.37957
0.378947
0.378324
0.377703
0.377083
0.376464
0.375845
0.375228
0.374611
0.373995
0.373379
0.372764
0.372149
0.371535
0.37092
0.370306
0.444645
0.430567
0.41738
0.413496
0.412728
0.412175
0.411551
0.410896
0.410224
0.409542
0.408854
0.408161
0.407465
0.406766
0.406067
0.405367
0.404667
0.403968
0.40327
0.402574
0.401879
0.401186
0.400496
0.399807
0.399121
0.398437
0.397756
0.397077
0.3964
0.395726
0.395054
0.394385
0.393717
0.393053
0.39239
0.39173
0.391072
0.390416
0.389763
0.389112
0.388463
0.387815
0.38717
0.386527
0.385886
0.385247
0.38461
0.383974
0.38334
0.382708
0.382078
0.381449
0.380821
0.380195
0.37957
0.378947
0.378324
0.377703
0.377083
0.376464
0.375845
0.375228
0.374611
0.373995
0.373379
0.372764
0.372149
0.371535
0.37092
0.370306
0.444645
0.430567
0.41738
0.413496
0.412728
0.412174
0.411551
0.410896
0.410224
0.409542
0.408854
0.408161
0.407465
0.406766
0.406067
0.405367
0.404667
0.403968
0.40327
0.402574
0.401879
0.401186
0.400496
0.399807
0.399121
0.398437
0.397756
0.397077
0.3964
0.395726
0.395054
0.394384
0.393717
0.393052
0.39239
0.39173
0.391072
0.390416
0.389763
0.389112
0.388462
0.387815
0.38717
0.386527
0.385886
0.385247
0.38461
0.383974
0.38334
0.382708
0.382078
0.381449
0.380821
0.380195
0.37957
0.378947
0.378324
0.377703
0.377083
0.376464
0.375845
0.375228
0.374611
0.373995
0.373379
0.372764
0.372149
0.371535
0.37092
0.370306
0.444645
0.430567
0.41738
0.413496
0.412728
0.412174
0.411551
0.410896
0.410224
0.409542
0.408854
0.408161
0.407465
0.406766
0.406067
0.405367
0.404667
0.403968
0.40327
0.402573
0.401879
0.401186
0.400496
0.399807
0.399121
0.398437
0.397756
0.397077
0.3964
0.395726
0.395054
0.394384
0.393717
0.393052
0.39239
0.39173
0.391072
0.390416
0.389763
0.389111
0.388462
0.387815
0.38717
0.386527
0.385886
0.385247
0.38461
0.383974
0.38334
0.382708
0.382078
0.381449
0.380821
0.380195
0.37957
0.378947
0.378324
0.377703
0.377083
0.376464
0.375845
0.375228
0.374611
0.373995
0.373379
0.372764
0.372149
0.371535
0.37092
0.370306
0.444645
0.430567
0.41738
0.413496
0.412728
0.412175
0.411551
0.410896
0.410224
0.409542
0.408854
0.408161
0.407465
0.406766
0.406067
0.405367
0.404667
0.403968
0.40327
0.402574
0.401879
0.401186
0.400496
0.399807
0.399121
0.398437
0.397756
0.397077
0.3964
0.395726
0.395054
0.394384
0.393717
0.393052
0.39239
0.39173
0.391072
0.390416
0.389763
0.389112
0.388462
0.387815
0.38717
0.386527
0.385886
0.385247
0.38461
0.383974
0.38334
0.382708
0.382078
0.381449
0.380821
0.380195
0.37957
0.378947
0.378324
0.377703
0.377083
0.376464
0.375845
0.375228
0.374611
0.373995
0.373379
0.372764
0.372149
0.371535
0.37092
0.370306
0.444645
0.430567
0.41738
0.413496
0.412728
0.412175
0.411551
0.410896
0.410224
0.409543
0.408854
0.408161
0.407465
0.406766
0.406067
0.405367
0.404667
0.403968
0.40327
0.402574
0.401879
0.401186
0.400496
0.399807
0.399121
0.398437
0.397756
0.397077
0.3964
0.395726
0.395054
0.394385
0.393717
0.393053
0.39239
0.39173
0.391072
0.390416
0.389763
0.389112
0.388463
0.387815
0.38717
0.386527
0.385886
0.385247
0.38461
0.383974
0.38334
0.382708
0.382078
0.381449
0.380821
0.380195
0.37957
0.378947
0.378324
0.377703
0.377083
0.376464
0.375845
0.375228
0.374611
0.373995
0.373379
0.372764
0.372149
0.371535
0.37092
0.370306
0.444645
0.430567
0.41738
0.413497
0.412729
0.412175
0.411552
0.410897
0.410225
0.409543
0.408855
0.408161
0.407465
0.406767
0.406067
0.405367
0.404667
0.403968
0.40327
0.402574
0.401879
0.401187
0.400496
0.399808
0.399122
0.398438
0.397756
0.397077
0.396401
0.395726
0.395054
0.394385
0.393718
0.393053
0.39239
0.39173
0.391072
0.390417
0.389763
0.389112
0.388463
0.387816
0.387171
0.386528
0.385886
0.385247
0.38461
0.383974
0.383341
0.382708
0.382078
0.381449
0.380821
0.380195
0.37957
0.378947
0.378324
0.377703
0.377083
0.376464
0.375845
0.375228
0.374611
0.373995
0.373379
0.372764
0.372149
0.371535
0.37092
0.370306
0.444645
0.430567
0.417381
0.413498
0.41273
0.412177
0.411553
0.410898
0.410226
0.409544
0.408855
0.408162
0.407466
0.406767
0.406068
0.405367
0.404668
0.403969
0.403271
0.402574
0.40188
0.401187
0.400496
0.399808
0.399122
0.398438
0.397757
0.397078
0.396401
0.395727
0.395055
0.394385
0.393718
0.393053
0.392391
0.39173
0.391073
0.390417
0.389763
0.389112
0.388463
0.387816
0.387171
0.386528
0.385887
0.385248
0.38461
0.383975
0.383341
0.382709
0.382078
0.381449
0.380821
0.380195
0.37957
0.378947
0.378325
0.377703
0.377083
0.376464
0.375845
0.375228
0.374611
0.373995
0.373379
0.372764
0.372149
0.371535
0.37092
0.370306
0.444645
0.430567
0.417381
0.413497
0.412729
0.412175
0.411552
0.410897
0.410225
0.409543
0.408855
0.408162
0.407466
0.406767
0.406068
0.405368
0.404668
0.403969
0.403271
0.402575
0.40188
0.401187
0.400497
0.399808
0.399122
0.398438
0.397757
0.397078
0.396401
0.395727
0.395055
0.394385
0.393718
0.393054
0.392391
0.391731
0.391073
0.390417
0.389764
0.389112
0.388463
0.387816
0.387171
0.386528
0.385887
0.385248
0.38461
0.383975
0.383341
0.382709
0.382078
0.381449
0.380822
0.380195
0.379571
0.378947
0.378325
0.377703
0.377083
0.376464
0.375846
0.375228
0.374611
0.373995
0.373379
0.372764
0.372149
0.371535
0.37092
0.370306
0.444645
0.430568
0.417381
0.413497
0.412729
0.412175
0.411552
0.410897
0.410225
0.409544
0.408855
0.408162
0.407466
0.406768
0.406068
0.405368
0.404668
0.403969
0.403271
0.402575
0.40188
0.401188
0.400497
0.399809
0.399123
0.398439
0.397757
0.397078
0.396402
0.395727
0.395055
0.394386
0.393719
0.393054
0.392391
0.391731
0.391073
0.390418
0.389764
0.389113
0.388464
0.387817
0.387171
0.386528
0.385887
0.385248
0.384611
0.383975
0.383341
0.382709
0.382078
0.381449
0.380822
0.380196
0.379571
0.378947
0.378325
0.377704
0.377083
0.376464
0.375846
0.375228
0.374611
0.373995
0.373379
0.372764
0.372149
0.371535
0.37092
0.370306
0.444645
0.430568
0.417381
0.413497
0.412729
0.412176
0.411553
0.410897
0.410226
0.409544
0.408856
0.408163
0.407466
0.406768
0.406069
0.405369
0.404669
0.40397
0.403272
0.402576
0.401881
0.401188
0.400498
0.399809
0.399123
0.398439
0.397758
0.397079
0.396402
0.395728
0.395056
0.394386
0.393719
0.393054
0.392392
0.391732
0.391074
0.390418
0.389765
0.389113
0.388464
0.387817
0.387172
0.386529
0.385888
0.385248
0.384611
0.383975
0.383342
0.382709
0.382079
0.38145
0.380822
0.380196
0.379571
0.378947
0.378325
0.377704
0.377084
0.376464
0.375846
0.375228
0.374611
0.373995
0.373379
0.372764
0.372149
0.371535
0.37092
0.370306
0.444645
0.430568
0.417382
0.413498
0.41273
0.412176
0.411553
0.410898
0.410226
0.409544
0.408856
0.408163
0.407467
0.406769
0.406069
0.405369
0.404669
0.40397
0.403272
0.402576
0.401882
0.401189
0.400498
0.39981
0.399124
0.39844
0.397758
0.397079
0.396403
0.395728
0.395056
0.394387
0.39372
0.393055
0.392392
0.391732
0.391074
0.390418
0.389765
0.389114
0.388464
0.387817
0.387172
0.386529
0.385888
0.385249
0.384611
0.383976
0.383342
0.38271
0.382079
0.38145
0.380822
0.380196
0.379571
0.378948
0.378325
0.377704
0.377084
0.376464
0.375846
0.375228
0.374611
0.373995
0.373379
0.372764
0.372149
0.371535
0.37092
0.370306
0.444645
0.430568
0.417382
0.413499
0.412731
0.412177
0.411554
0.410899
0.410227
0.409545
0.408857
0.408164
0.407468
0.406769
0.40607
0.40537
0.40467
0.403971
0.403273
0.402577
0.401882
0.401189
0.400499
0.39981
0.399124
0.39844
0.397759
0.39708
0.396403
0.395729
0.395057
0.394387
0.39372
0.393055
0.392393
0.391733
0.391075
0.390419
0.389765
0.389114
0.388465
0.387818
0.387173
0.38653
0.385888
0.385249
0.384612
0.383976
0.383342
0.38271
0.382079
0.38145
0.380823
0.380196
0.379572
0.378948
0.378325
0.377704
0.377084
0.376465
0.375846
0.375228
0.374612
0.373995
0.37338
0.372764
0.372149
0.371535
0.37092
0.370306
0.444645
0.430569
0.417385
0.413503
0.412735
0.412182
0.411558
0.410903
0.410231
0.409548
0.40886
0.408166
0.40747
0.406771
0.406071
0.405371
0.404671
0.403972
0.403274
0.402577
0.401883
0.40119
0.400499
0.399811
0.399125
0.398441
0.397759
0.39708
0.396404
0.395729
0.395057
0.394388
0.393721
0.393056
0.392393
0.391733
0.391075
0.390419
0.389766
0.389115
0.388465
0.387818
0.387173
0.38653
0.385889
0.38525
0.384612
0.383976
0.383343
0.38271
0.38208
0.381451
0.380823
0.380197
0.379572
0.378948
0.378326
0.377704
0.377084
0.376465
0.375846
0.375229
0.374612
0.373995
0.37338
0.372764
0.372149
0.371535
0.37092
0.370306
0.444645
0.43057
0.417397
0.41354
0.412774
0.412216
0.411588
0.410928
0.410252
0.409566
0.408873
0.408177
0.407478
0.406777
0.406076
0.405374
0.404674
0.403974
0.403275
0.402579
0.401884
0.401191
0.4005
0.399812
0.399125
0.398442
0.39776
0.397081
0.396404
0.39573
0.395058
0.394388
0.393721
0.393056
0.392394
0.391734
0.391076
0.39042
0.389766
0.389115
0.388466
0.387819
0.387173
0.38653
0.385889
0.38525
0.384612
0.383977
0.383343
0.382711
0.38208
0.381451
0.380823
0.380197
0.379572
0.378948
0.378326
0.377705
0.377084
0.376465
0.375846
0.375229
0.374612
0.373995
0.37338
0.372764
0.37215
0.371535
0.37092
0.370306
0.444632
0.430038
0.41538
0.413966
0.413222
0.412491
0.41177
0.411053
0.410339
0.409628
0.408917
0.408208
0.4075
0.406792
0.406087
0.405382
0.404679
0.403978
0.403278
0.402581
0.401885
0.401192
0.400501
0.399812
0.399126
0.398442
0.397761
0.397082
0.396405
0.39573
0.395058
0.394389
0.393722
0.393057
0.392394
0.391734
0.391076
0.39042
0.389767
0.389115
0.388466
0.387819
0.387174
0.386531
0.38589
0.38525
0.384613
0.383977
0.383343
0.382711
0.38208
0.381451
0.380823
0.380197
0.379572
0.378949
0.378326
0.377705
0.377084
0.376465
0.375847
0.375229
0.374612
0.373996
0.37338
0.372764
0.37215
0.371535
0.370921
0.370306
0.444645
0.43055
0.416282
0.414086
0.413148
0.412365
0.411644
0.410946
0.410253
0.409561
0.408867
0.408171
0.407472
0.406773
0.406072
0.405372
0.404672
0.403973
0.403275
0.402579
0.401884
0.401191
0.400501
0.399812
0.399126
0.398442
0.397761
0.397082
0.396405
0.395731
0.395059
0.394389
0.393722
0.393057
0.392395
0.391734
0.391077
0.390421
0.389767
0.389116
0.388467
0.387819
0.387174
0.386531
0.38589
0.385251
0.384613
0.383977
0.383344
0.382711
0.382081
0.381451
0.380824
0.380197
0.379573
0.378949
0.378326
0.377705
0.377085
0.376465
0.375847
0.375229
0.374612
0.373996
0.37338
0.372765
0.37215
0.371535
0.370921
0.370306
0.444645
0.430548
0.416259
0.414053
0.413112
0.41233
0.411611
0.410917
0.410229
0.409541
0.408851
0.408158
0.407462
0.406765
0.406067
0.405368
0.404669
0.403971
0.403274
0.402578
0.401884
0.401191
0.400501
0.399813
0.399126
0.398443
0.397761
0.397082
0.396406
0.395731
0.395059
0.39439
0.393723
0.393058
0.392395
0.391735
0.391077
0.390421
0.389768
0.389116
0.388467
0.38782
0.387175
0.386531
0.38589
0.385251
0.384613
0.383978
0.383344
0.382712
0.382081
0.381452
0.380824
0.380198
0.379573
0.378949
0.378327
0.377705
0.377085
0.376465
0.375847
0.375229
0.374612
0.373996
0.37338
0.372765
0.37215
0.371535
0.370921
0.370306
0.444645
0.430548
0.416256
0.414048
0.413108
0.412325
0.411607
0.410912
0.410225
0.409538
0.408848
0.408156
0.407461
0.406764
0.406066
0.405367
0.404669
0.403971
0.403274
0.402578
0.401884
0.401191
0.400501
0.399813
0.399127
0.398443
0.397762
0.397083
0.396406
0.395732
0.39506
0.39439
0.393723
0.393058
0.392396
0.391735
0.391077
0.390422
0.389768
0.389117
0.388467
0.38782
0.387175
0.386532
0.385891
0.385251
0.384614
0.383978
0.383344
0.382712
0.382081
0.381452
0.380824
0.380198
0.379573
0.378949
0.378327
0.377705
0.377085
0.376466
0.375847
0.375229
0.374612
0.373996
0.37338
0.372765
0.37215
0.371535
0.370921
0.370306
0.444645
0.430548
0.416256
0.414048
0.413107
0.412325
0.411607
0.410912
0.410225
0.409537
0.408848
0.408156
0.407461
0.406764
0.406066
0.405367
0.404669
0.403971
0.403274
0.402578
0.401884
0.401192
0.400501
0.399813
0.399127
0.398444
0.397762
0.397083
0.396406
0.395732
0.39506
0.394391
0.393723
0.393058
0.392396
0.391736
0.391078
0.390422
0.389768
0.389117
0.388468
0.38782
0.387175
0.386532
0.385891
0.385252
0.384614
0.383978
0.383344
0.382712
0.382081
0.381452
0.380824
0.380198
0.379573
0.378949
0.378327
0.377705
0.377085
0.376466
0.375847
0.375229
0.374612
0.373996
0.37338
0.372765
0.37215
0.371535
0.370921
0.370306
0.444645
0.430548
0.416256
0.414049
0.413108
0.412325
0.411607
0.410912
0.410225
0.409538
0.408848
0.408156
0.407461
0.406764
0.406066
0.405368
0.404669
0.403971
0.403274
0.402579
0.401884
0.401192
0.400502
0.399814
0.399128
0.398444
0.397762
0.397083
0.396407
0.395732
0.39506
0.394391
0.393724
0.393059
0.392396
0.391736
0.391078
0.390422
0.389769
0.389117
0.388468
0.387821
0.387176
0.386532
0.385891
0.385252
0.384614
0.383979
0.383345
0.382712
0.382081
0.381452
0.380825
0.380198
0.379573
0.37895
0.378327
0.377706
0.377085
0.376466
0.375847
0.375229
0.374612
0.373996
0.37338
0.372765
0.37215
0.371535
0.370921
0.370306
0.444645
0.430548
0.416256
0.414049
0.413108
0.412325
0.411607
0.410913
0.410225
0.409538
0.408848
0.408156
0.407461
0.406765
0.406067
0.405368
0.40467
0.403972
0.403275
0.402579
0.401885
0.401192
0.400502
0.399814
0.399128
0.398444
0.397763
0.397084
0.396407
0.395733
0.395061
0.394391
0.393724
0.393059
0.392397
0.391736
0.391078
0.390422
0.389769
0.389117
0.388468
0.387821
0.387176
0.386533
0.385891
0.385252
0.384614
0.383979
0.383345
0.382712
0.382082
0.381452
0.380825
0.380198
0.379573
0.37895
0.378327
0.377706
0.377085
0.376466
0.375847
0.37523
0.374612
0.373996
0.37338
0.372765
0.37215
0.371535
0.370921
0.370306
0.444645
0.430548
0.416257
0.414049
0.413108
0.412326
0.411607
0.410913
0.410226
0.409538
0.408849
0.408156
0.407462
0.406765
0.406067
0.405368
0.40467
0.403972
0.403275
0.402579
0.401885
0.401193
0.400502
0.399814
0.399128
0.398444
0.397763
0.397084
0.396407
0.395733
0.395061
0.394391
0.393724
0.393059
0.392397
0.391736
0.391078
0.390423
0.389769
0.389118
0.388468
0.387821
0.387176
0.386533
0.385892
0.385252
0.384615
0.383979
0.383345
0.382713
0.382082
0.381453
0.380825
0.380199
0.379574
0.37895
0.378327
0.377706
0.377085
0.376466
0.375847
0.37523
0.374613
0.373996
0.37338
0.372765
0.37215
0.371535
0.370921
0.370306
0.444645
0.430548
0.416257
0.414049
0.413108
0.412326
0.411608
0.410913
0.410226
0.409538
0.408849
0.408157
0.407462
0.406765
0.406067
0.405369
0.40467
0.403972
0.403275
0.402579
0.401885
0.401193
0.400503
0.399814
0.399128
0.398445
0.397763
0.397084
0.396408
0.395733
0.395061
0.394392
0.393724
0.39306
0.392397
0.391737
0.391079
0.390423
0.389769
0.389118
0.388469
0.387821
0.387176
0.386533
0.385892
0.385252
0.384615
0.383979
0.383345
0.382713
0.382082
0.381453
0.380825
0.380199
0.379574
0.37895
0.378327
0.377706
0.377085
0.376466
0.375847
0.37523
0.374613
0.373996
0.37338
0.372765
0.37215
0.371535
0.370921
0.370306
0.444645
0.430548
0.416257
0.414049
0.413109
0.412326
0.411608
0.410913
0.410226
0.409539
0.408849
0.408157
0.407462
0.406765
0.406067
0.405369
0.40467
0.403972
0.403275
0.40258
0.401885
0.401193
0.400503
0.399815
0.399129
0.398445
0.397763
0.397084
0.396408
0.395733
0.395061
0.394392
0.393725
0.39306
0.392397
0.391737
0.391079
0.390423
0.389769
0.389118
0.388469
0.387821
0.387176
0.386533
0.385892
0.385252
0.384615
0.383979
0.383345
0.382713
0.382082
0.381453
0.380825
0.380199
0.379574
0.37895
0.378327
0.377706
0.377086
0.376466
0.375847
0.37523
0.374613
0.373996
0.37338
0.372765
0.37215
0.371535
0.370921
0.370306
0.444645
0.430548
0.416257
0.41405
0.413109
0.412326
0.411608
0.410914
0.410226
0.409539
0.408849
0.408157
0.407462
0.406765
0.406067
0.405369
0.40467
0.403972
0.403275
0.40258
0.401886
0.401193
0.400503
0.399815
0.399129
0.398445
0.397764
0.397085
0.396408
0.395734
0.395062
0.394392
0.393725
0.39306
0.392397
0.391737
0.391079
0.390423
0.38977
0.389118
0.388469
0.387822
0.387176
0.386533
0.385892
0.385253
0.384615
0.383979
0.383345
0.382713
0.382082
0.381453
0.380825
0.380199
0.379574
0.37895
0.378327
0.377706
0.377086
0.376466
0.375848
0.37523
0.374613
0.373996
0.37338
0.372765
0.37215
0.371535
0.370921
0.370306
0.444645
0.430548
0.416257
0.41405
0.413109
0.412326
0.411608
0.410914
0.410226
0.409539
0.408849
0.408157
0.407462
0.406766
0.406068
0.405369
0.404671
0.403973
0.403276
0.40258
0.401886
0.401193
0.400503
0.399815
0.399129
0.398445
0.397764
0.397085
0.396408
0.395734
0.395062
0.394392
0.393725
0.39306
0.392397
0.391737
0.391079
0.390423
0.38977
0.389118
0.388469
0.387822
0.387176
0.386533
0.385892
0.385253
0.384615
0.383979
0.383345
0.382713
0.382082
0.381453
0.380825
0.380199
0.379574
0.37895
0.378328
0.377706
0.377086
0.376466
0.375848
0.37523
0.374613
0.373996
0.37338
0.372765
0.37215
0.371535
0.370921
0.370306
0.444645
0.430548
0.416257
0.41405
0.413109
0.412326
0.411608
0.410914
0.410226
0.409539
0.408849
0.408157
0.407462
0.406766
0.406068
0.405369
0.404671
0.403973
0.403276
0.40258
0.401886
0.401193
0.400503
0.399815
0.399129
0.398445
0.397764
0.397085
0.396408
0.395734
0.395062
0.394392
0.393725
0.39306
0.392397
0.391737
0.391079
0.390423
0.38977
0.389118
0.388469
0.387822
0.387177
0.386533
0.385892
0.385253
0.384615
0.383979
0.383345
0.382713
0.382082
0.381453
0.380825
0.380199
0.379574
0.37895
0.378328
0.377706
0.377086
0.376466
0.375848
0.37523
0.374613
0.373996
0.37338
0.372765
0.37215
0.371535
0.370921
0.370306
0.444645
0.430548
0.416257
0.41405
0.413109
0.412326
0.411608
0.410914
0.410226
0.409539
0.40885
0.408157
0.407462
0.406766
0.406068
0.405369
0.404671
0.403973
0.403276
0.40258
0.401886
0.401194
0.400503
0.399815
0.399129
0.398445
0.397764
0.397085
0.396408
0.395734
0.395062
0.394392
0.393725
0.39306
0.392398
0.391737
0.391079
0.390423
0.38977
0.389118
0.388469
0.387822
0.387177
0.386533
0.385892
0.385253
0.384615
0.383979
0.383345
0.382713
0.382082
0.381453
0.380825
0.380199
0.379574
0.37895
0.378328
0.377706
0.377086
0.376466
0.375848
0.37523
0.374613
0.373996
0.37338
0.372765
0.37215
0.371535
0.370921
0.370306
0.444645
0.430548
0.416257
0.41405
0.413109
0.412326
0.411608
0.410914
0.410226
0.409539
0.40885
0.408157
0.407463
0.406766
0.406068
0.405369
0.404671
0.403973
0.403276
0.40258
0.401886
0.401194
0.400503
0.399815
0.399129
0.398445
0.397764
0.397085
0.396408
0.395734
0.395062
0.394392
0.393725
0.39306
0.392398
0.391737
0.391079
0.390423
0.38977
0.389118
0.388469
0.387822
0.387177
0.386533
0.385892
0.385253
0.384615
0.38398
0.383345
0.382713
0.382082
0.381453
0.380825
0.380199
0.379574
0.37895
0.378328
0.377706
0.377086
0.376466
0.375848
0.37523
0.374613
0.373996
0.37338
0.372765
0.37215
0.371535
0.370921
0.370306
0.444645
0.430549
0.416257
0.41405
0.413109
0.412326
0.411608
0.410914
0.410226
0.409539
0.40885
0.408157
0.407463
0.406766
0.406068
0.405369
0.404671
0.403973
0.403276
0.40258
0.401886
0.401194
0.400503
0.399815
0.399129
0.398445
0.397764
0.397085
0.396408
0.395734
0.395062
0.394392
0.393725
0.39306
0.392398
0.391737
0.391079
0.390423
0.38977
0.389118
0.388469
0.387822
0.387177
0.386533
0.385892
0.385253
0.384615
0.38398
0.383345
0.382713
0.382082
0.381453
0.380825
0.380199
0.379574
0.37895
0.378328
0.377706
0.377086
0.376466
0.375848
0.37523
0.374613
0.373996
0.37338
0.372765
0.37215
0.371535
0.370921
0.370306
0.444645
0.430549
0.416257
0.41405
0.413109
0.412326
0.411608
0.410914
0.410226
0.409539
0.40885
0.408157
0.407463
0.406766
0.406068
0.405369
0.404671
0.403973
0.403276
0.40258
0.401886
0.401194
0.400503
0.399815
0.399129
0.398445
0.397764
0.397085
0.396408
0.395734
0.395062
0.394392
0.393725
0.39306
0.392398
0.391737
0.391079
0.390424
0.38977
0.389118
0.388469
0.387822
0.387177
0.386533
0.385892
0.385253
0.384615
0.38398
0.383346
0.382713
0.382082
0.381453
0.380825
0.380199
0.379574
0.37895
0.378328
0.377706
0.377086
0.376466
0.375848
0.37523
0.374613
0.373996
0.37338
0.372765
0.37215
0.371535
0.370921
0.370306
0.444645
0.430549
0.416257
0.41405
0.413109
0.412326
0.411608
0.410914
0.410226
0.409539
0.40885
0.408157
0.407463
0.406766
0.406068
0.405369
0.404671
0.403973
0.403276
0.40258
0.401886
0.401194
0.400503
0.399815
0.399129
0.398445
0.397764
0.397085
0.396408
0.395734
0.395062
0.394392
0.393725
0.39306
0.392398
0.391737
0.391079
0.390424
0.38977
0.389118
0.388469
0.387822
0.387177
0.386534
0.385892
0.385253
0.384615
0.38398
0.383346
0.382713
0.382082
0.381453
0.380825
0.380199
0.379574
0.37895
0.378328
0.377706
0.377086
0.376466
0.375848
0.37523
0.374613
0.373996
0.37338
0.372765
0.37215
0.371535
0.370921
0.370306
0.444645
0.430549
0.416257
0.41405
0.413109
0.412326
0.411608
0.410914
0.410227
0.409539
0.40885
0.408157
0.407463
0.406766
0.406068
0.405369
0.404671
0.403973
0.403276
0.40258
0.401886
0.401194
0.400503
0.399815
0.399129
0.398445
0.397764
0.397085
0.396408
0.395734
0.395062
0.394392
0.393725
0.39306
0.392398
0.391737
0.391079
0.390424
0.38977
0.389118
0.388469
0.387822
0.387177
0.386534
0.385892
0.385253
0.384615
0.38398
0.383346
0.382713
0.382082
0.381453
0.380825
0.380199
0.379574
0.37895
0.378328
0.377706
0.377086
0.376466
0.375848
0.37523
0.374613
0.373996
0.37338
0.372765
0.37215
0.371535
0.370921
0.370306
0.444645
0.430549
0.416257
0.41405
0.413109
0.412326
0.411608
0.410914
0.410227
0.409539
0.40885
0.408157
0.407463
0.406766
0.406068
0.405369
0.404671
0.403973
0.403276
0.40258
0.401886
0.401194
0.400503
0.399815
0.399129
0.398445
0.397764
0.397085
0.396408
0.395734
0.395062
0.394392
0.393725
0.39306
0.392398
0.391737
0.391079
0.390424
0.38977
0.389118
0.388469
0.387822
0.387177
0.386534
0.385892
0.385253
0.384615
0.38398
0.383346
0.382713
0.382082
0.381453
0.380825
0.380199
0.379574
0.37895
0.378328
0.377706
0.377086
0.376466
0.375848
0.37523
0.374613
0.373996
0.37338
0.372765
0.37215
0.371535
0.370921
0.370306
0.444645
0.430549
0.416257
0.41405
0.413109
0.412326
0.411608
0.410914
0.410227
0.409539
0.40885
0.408157
0.407463
0.406766
0.406068
0.405369
0.404671
0.403973
0.403276
0.40258
0.401886
0.401194
0.400503
0.399815
0.399129
0.398445
0.397764
0.397085
0.396408
0.395734
0.395062
0.394392
0.393725
0.39306
0.392398
0.391737
0.391079
0.390424
0.38977
0.389118
0.388469
0.387822
0.387177
0.386534
0.385892
0.385253
0.384615
0.38398
0.383346
0.382713
0.382082
0.381453
0.380825
0.380199
0.379574
0.37895
0.378328
0.377706
0.377086
0.376466
0.375848
0.37523
0.374613
0.373996
0.37338
0.372765
0.37215
0.371535
0.370921
0.370306
0.444645
0.430549
0.416257
0.41405
0.413109
0.412326
0.411608
0.410914
0.410227
0.409539
0.40885
0.408157
0.407463
0.406766
0.406068
0.405369
0.404671
0.403973
0.403276
0.40258
0.401886
0.401194
0.400503
0.399815
0.399129
0.398445
0.397764
0.397085
0.396408
0.395734
0.395062
0.394392
0.393725
0.39306
0.392398
0.391737
0.391079
0.390424
0.38977
0.389118
0.388469
0.387822
0.387177
0.386534
0.385892
0.385253
0.384615
0.38398
0.383346
0.382713
0.382082
0.381453
0.380825
0.380199
0.379574
0.37895
0.378328
0.377706
0.377086
0.376466
0.375848
0.37523
0.374613
0.373996
0.37338
0.372765
0.37215
0.371535
0.370921
0.370306
0.444645
0.430549
0.416257
0.41405
0.413109
0.412326
0.411608
0.410914
0.410227
0.409539
0.40885
0.408157
0.407463
0.406766
0.406068
0.405369
0.404671
0.403973
0.403276
0.40258
0.401886
0.401194
0.400503
0.399815
0.399129
0.398445
0.397764
0.397085
0.396408
0.395734
0.395062
0.394392
0.393725
0.39306
0.392398
0.391737
0.391079
0.390424
0.38977
0.389118
0.388469
0.387822
0.387177
0.386534
0.385892
0.385253
0.384615
0.38398
0.383346
0.382713
0.382082
0.381453
0.380825
0.380199
0.379574
0.37895
0.378328
0.377706
0.377086
0.376466
0.375848
0.37523
0.374613
0.373996
0.37338
0.372765
0.37215
0.371535
0.370921
0.370306
0.444645
0.430549
0.416257
0.41405
0.413109
0.412326
0.411608
0.410914
0.410227
0.409539
0.40885