/*--------------------------------*- C++ -*----------------------------------*\
  =========                 |
  \\      /  F ield         | OpenFOAM: The Open Source CFD Toolbox
   \\    /   O peration     | Website:  https://openfoam.org
    \\  /    A nd           | Version:  13
     \\/     M anipulation  |
\*---------------------------------------------------------------------------*/
FoamFile
{
    format      ascii;
    class       volScalarField;
    location    "6";
    object      k;
}
// * * * * * * * * * * * * * * * * * * * * * * * * * * * * * * * * * * * * * //

dimensions      [0 2 -2 0 0 0 0];

internalField   nonuniform List<scalar> 
78750
(
4.11322e-08
1.08802e-06
1.42489e-05
3.19408e-05
5.35868e-05
6.81754e-05
7.84927e-05
8.4587e-05
8.58859e-05
8.55768e-05
8.57428e-05
8.80338e-05
8.82842e-05
8.74717e-05
8.49227e-05
8.16985e-05
7.81676e-05
7.45758e-05
7.09935e-05
6.73491e-05
6.3717e-05
6.01272e-05
5.6634e-05
5.32051e-05
4.99694e-05
4.6841e-05
4.40717e-05
4.12163e-05
3.88985e-05
3.6772e-05
3.72182e-05
3.79353e-05
3.80612e-05
2.3752e-05
1.48517e-06
4.24116e-07
1.22029e-05
7.64468e-05
0.000129665
0.00014417
0.000147948
0.000148963
0.00014818
0.000146335
0.000146958
0.000145799
0.000145359
0.000144797
0.000144637
0.000144854
0.000145458
0.000146149
0.000146785
0.000146919
0.000143232
0.000142613
0.000144598
0.000145433
0.000144794
0.000142617
0.000139537
0.00013688
0.00013526
0.000134804
0.000135281
0.000140857
0.000142079
0.000135528
4.50835e-05
2.26458e-06
8.63245e-07
2.46668e-05
9.23952e-05
0.000138501
0.000148277
0.00014898
0.000149974
0.000147561
0.000145606
0.000145713
0.000146215
0.000145619
0.000145133
0.0001448
0.000144559
0.000144372
0.000144211
0.000144049
0.000143848
0.000143533
0.000143043
0.000142311
0.000141361
0.000140438
0.000140147
0.000141016
0.00014326
0.000145295
0.000154374
0.000168838
0.000177987
0.000175277
0.000145271
5.36734e-05
2.34559e-06
9.24528e-07
2.64937e-05
9.57612e-05
0.000141868
0.00014882
0.000150424
0.00015639
0.000152224
0.000147597
0.000144874
0.000145196
0.000142985
0.000140537
0.000138421
0.000136786
0.00013562
0.000134844
0.000134343
0.000134003
0.000133734
0.000133499
0.00013336
0.00013345
0.000134224
0.000136322
0.000139988
0.000141852
0.000145922
0.00015215
0.00016156
0.000162349
0.000158443
0.000142574
5.16124e-05
2.18096e-06
9.94055e-07
2.84472e-05
9.99462e-05
0.000146681
0.000155455
0.000155531
0.000182937
0.000180682
0.000168415
0.00015256
0.000148787
0.000144367
0.00014075
0.000137924
0.000135845
0.000134375
0.000133362
0.000132677
0.000132205
0.000131876
0.000131693
0.000131709
0.00013216
0.000133592
0.00013646
0.00014089
0.000143746
0.000148549
0.000156354
0.000159378
0.000159924
0.000158046
0.00014393
4.70388e-05
1.89785e-06
1.02853e-06
2.93871e-05
0.000101188
0.000145601
0.0001692
0.000161347
0.000176337
0.000180072
0.000169845
0.000153291
0.000149106
0.000144096
0.00013986
0.000136445
0.000133845
0.000131969
0.000130664
0.000129775
0.000129212
0.000128942
0.000128965
0.00012941
0.000130621
0.000132961
0.000136722
0.000141961
0.000145274
0.000151068
0.000152513
0.000154692
0.000158366
0.000160516
0.000157577
4.43159e-05
1.76514e-06
1.05017e-06
2.99008e-05
0.000102066
0.000139207
0.000148568
0.000153762
0.000173349
0.000179696
0.000170479
0.000158655
0.000150348
0.00014443
0.000139751
0.000136117
0.000133397
0.000131441
0.000130092
0.000129201
0.000128675
0.000128496
0.000128674
0.000129466
0.000131244
0.000134424
0.00013918
0.000145728
0.000150224
0.00015902
0.00016823
0.000165412
0.000163899
0.000163791
0.000151379
4.29572e-05
1.75284e-06
1.07006e-06
3.05201e-05
0.00010456
0.000151524
0.000152721
0.000152557
0.000153266
0.000174867
0.000169707
0.000158358
0.00015037
0.000144297
0.000139486
0.000135738
0.000132921
0.000130881
0.000129482
0.000128584
0.000128091
0.000127995
0.00012831
0.000129325
0.00013135
0.000134748
0.000139663
0.000146241
0.000150489
0.000158544
0.000160793
0.000162221
0.000165474
0.000166896
0.000149609
4.14984e-05
1.6259e-06
1.08761e-06
3.09103e-05
0.000104419
0.000146593
0.000151631
0.000152473
0.000153433
0.000167027
0.000165288
0.00015726
0.000149757
0.000143749
0.000138986
0.000135228
0.000132403
0.000130356
0.000128946
0.000128051
0.000127591
0.000127561
0.00012798
0.000129126
0.000131273
0.000134637
0.000139002
0.000143289
0.000150376
0.000159337
0.000159801
0.000162094
0.000167095
0.000170285
0.000148905
4.14405e-05
1.58734e-06
1.10464e-06
3.13802e-05
0.000105405
0.000149791
0.000152657
0.000152137
0.000150196
0.000150124
0.000162793
0.000156607
0.000149648
0.000143659
0.000138889
0.000135096
0.000132225
0.000130142
0.000128706
0.000127814
0.000127409
0.000127475
0.000128141
0.000129606
0.000132092
0.000135751
0.000140327
0.000144962
0.000152897
0.000162647
0.000162208
0.000164442
0.000170877
0.000174035
0.000148822
4.13042e-05
1.58596e-06
1.11413e-06
3.16228e-05
0.000105959
0.000147427
0.00015247
0.000152523
0.00015084
0.000152044
0.0001624
0.000156863
0.000149698
0.000143774
0.000138974
0.000135136
0.00013225
0.000130181
0.000128781
0.000127943
0.000127612
0.000127787
0.000128597
0.000130231
0.000132867
0.000136546
0.00014088
0.000144624
0.000149939
0.00015119
0.000155056
0.000163322
0.000172536
0.000176162
0.000149033
4.19616e-05
1.60819e-06
1.1196e-06
3.17291e-05
0.00010554
0.000141226
0.000151698
0.000152778
0.000152706
0.000153216
0.000150367
0.000148819
0.000145709
0.000143058
0.000138938
0.000135229
0.000132372
0.000130326
0.000128951
0.000128143
0.000127858
0.000128102
0.00012902
0.00013082
0.000133723
0.000137837
0.000142908
0.000148102
0.000156966
0.000165301
0.000163268
0.000167065
0.000175834
0.000178121
0.000149414
4.29713e-05
1.65105e-06
1.13004e-06
3.20617e-05
0.000106334
0.000146012
0.000152728
0.000153761
0.000155541
0.000161502
0.000157693
0.000151685
0.000146692
0.000143751
0.000139464
0.000135609
0.000132639
0.000130522
0.000129131
0.000128344
0.00012811
0.000128434
0.000129457
0.000131368
0.000134358
0.000138567
0.000144168
0.000152706
0.000164924
0.000156345
0.000158466
0.000166979
0.000177421
0.000181498
0.00015262
4.35297e-05
1.67566e-06
1.13377e-06
3.21702e-05
0.00010748
0.000152671
0.000154484
0.000153649
0.000155398
0.000171029
0.000168944
0.000159717
0.000151227
0.000144803
0.000139675
0.000135635
0.000132639
0.000130535
0.000129157
0.000128389
0.000128186
0.000128564
0.000129662
0.000131657
0.000134712
0.000138928
0.00014442
0.000152746
0.000165051
0.000156163
0.000157913
0.00016707
0.000178636
0.000183067
0.000154236
4.47967e-05
1.69727e-06
1.13664e-06
3.22246e-05
0.00010632
0.000143429
0.000152348
0.000152052
0.000149967
0.000148927
0.000158582
0.000155607
0.000149333
0.000144121
0.000139424
0.000135557
0.00013264
0.000130564
0.000129196
0.000128443
0.000128275
0.000128713
0.000129878
0.000131911
0.000134898
0.000138722
0.000142878
0.000146019
0.000152056
0.000152161
0.000157691
0.000169131
0.000180337
0.000182635
0.000153118
4.47071e-05
1.69646e-06
1.13188e-06
3.20234e-05
0.000105762
0.000141555
0.000152229
0.000152774
0.000151843
0.000151126
0.000148452
0.000145906
0.000144315
0.000142771
0.000139101
0.000135566
0.000132756
0.000130717
0.00012937
0.000128634
0.000128479
0.000128943
0.000130165
0.00013231
0.000135501
0.000139818
0.000145513
0.000155146
0.000176923
0.000197627
0.000169552
0.000171427
0.000180786
0.00018241
0.00015111
4.44443e-05
1.69102e-06
1.13539e-06
3.21549e-05
0.000104978
0.000140572
0.000151807
0.000152434
0.00015159
0.000151344
0.000149785
0.000148243
0.000148495
0.000144279
0.000139766
0.000135868
0.000132898
0.000130808
0.000129445
0.000128705
0.000128559
0.000129045
0.0001303
0.000132479
0.000135683
0.000139799
0.000144456
0.000149626
0.000149276
0.000154499
0.000161513
0.00017082
0.000182045
0.000183122
0.000151355
4.46142e-05
1.6989e-06
1.14066e-06
3.23434e-05
0.000106275
0.000141782
0.000152451
0.000152693
0.000151382
0.000152189
0.000149623
0.000147483
0.000147292
0.000143529
0.000139356
0.000135683
0.000132843
0.00013081
0.000129495
0.000128788
0.000128653
0.000129129
0.000130346
0.000132453
0.000135531
0.000139467
0.000143965
0.000148947
0.000147951
0.000150994
0.00015944
0.000172089
0.000184595
0.00018346
0.000150615
4.45968e-05
1.70061e-06
1.15234e-06
3.26327e-05
0.000107121
0.000141814
0.000152748
0.000153494
0.000154782
0.000170901
0.000165507
0.00015811
0.000150321
0.00014455
0.000139708
0.000135803
0.000132886
0.000130836
0.0001295
0.000128788
0.000128656
0.000129144
0.000130361
0.000132447
0.000135439
0.000139091
0.000142652
0.000143912
0.000144944
0.000148854
0.000158041
0.000171642
0.000184906
0.000184351
0.000151416
4.47435e-05
1.70435e-06
1.15466e-06
3.27553e-05
0.000107671
0.000143252
0.000152419
0.00015271
0.000149656
0.000145684
0.000145894
0.000146916
0.000145489
0.000143591
0.000139549
0.000135792
0.000132879
0.000130816
0.000129478
0.000128772
0.000128658
0.00012918
0.000130434
0.00013254
0.000135531
0.00013917
0.000142666
0.000143777
0.000146171
0.000150296
0.000159111
0.000172631
0.000184915
0.000184488
0.000151165
4.43588e-05
1.696e-06
1.15221e-06
3.27195e-05
0.000108599
0.000151278
0.000153837
0.000153097
0.000149993
0.000147076
0.000145983
0.000146597
0.000145143
0.000143362
0.000139389
0.000135702
0.000132843
0.000130809
0.000129483
0.000128782
0.000128678
0.000129216
0.000130516
0.000132701
0.000135785
0.000139479
0.000143053
0.000144179
0.000144706
0.000148503
0.000158076
0.000171946
0.000185994
0.000184658
0.000150954
4.49949e-05
1.71159e-06
1.15844e-06
3.28649e-05
0.000108868
0.000153052
0.000154517
0.00015331
0.000150347
0.000148014
0.000147224
0.000147015
0.000145114
0.00014317
0.000139198
0.000135539
0.000132713
0.000130704
0.000129402
0.000128715
0.000128618
0.000129163
0.000130484
0.000132722
0.000135911
0.000139815
0.000143748
0.000145699
0.000147291
0.000150509
0.000158792
0.000172682
0.000186194
0.000186216
0.00015305
4.56293e-05
1.73913e-06
1.16461e-06
3.29163e-05
0.000108282
0.00014964
0.000153932
0.000153641
0.000151044
0.000148798
0.000147917
0.000147135
0.000147671
0.000143765
0.000139471
0.000135729
0.000132856
0.000130836
0.000129536
0.000128856
0.000128767
0.000129311
0.000130613
0.000132841
0.000136139
0.000140439
0.000145317
0.000149342
0.000155446
0.000156515
0.000162486
0.000174653
0.000187878
0.000187994
0.000151999
4.53713e-05
1.72769e-06
1.15165e-06
3.26677e-05
0.000108204
0.000146121
0.000153169
0.000153313
0.000151209
0.000150104
0.000150784
0.000148289
0.000147899
0.000143894
0.000139512
0.000135738
0.00013286
0.000130837
0.000129551
0.000128904
0.000128858
0.000129466
0.000130848
0.000133152
0.00013647
0.000140735
0.000145511
0.000149331
0.000154963
0.000156284
0.000162378
0.000174621
0.000187641
0.000187949
0.000153308
4.52905e-05
1.7301e-06
1.14908e-06
3.26122e-05
0.000108816
0.000153365
0.000154385
0.000153391
0.00015139
0.000152183
0.000162542
0.000157521
0.000150076
0.000144377
0.000139526
0.000135648
0.00013278
0.000130792
0.000129539
0.000128927
0.000128908
0.000129522
0.000130882
0.000133108
0.000136226
0.000140052
0.000144247
0.000148772
0.000147666
0.000151795
0.000161084
0.000173857
0.000187152
0.000188772
0.000153644
4.62206e-05
1.7521e-06
1.15523e-06
3.25996e-05
0.000107574
0.000148413
0.000153321
0.000153127
0.000151
0.000148605
0.000146274
0.000146734
0.000145013
0.00014312
0.000139166
0.000135525
0.000132724
0.000130756
0.000129509
0.000128899
0.000128897
0.00012955
0.000130978
0.000133312
0.000136571
0.000140444
0.00014411
0.000145561
0.000148654
0.000154831
0.000163994
0.00017719
0.000188558
0.000189004
0.00015333
4.58252e-05
1.74106e-06
1.14545e-06
3.24802e-05
0.000106932
0.000143381
0.000152937
0.00015338
0.00015177
0.000150245
0.000148609
0.000147944
0.000145255
0.00014301
0.000139015
0.00013541
0.00013264
0.000130684
0.00012946
0.000128858
0.000128862
0.000129509
0.000130924
0.000133244
0.000136498
0.000140503
0.000144951
0.000149861
0.00014823
0.000152685
0.000163096
0.000177057
0.000189917
0.000188186
0.000153553
4.58176e-05
1.73859e-06
1.15514e-06
3.27096e-05
0.000108711
0.000151425
0.000154269
0.000154578
0.000153902
0.000153127
0.000150337
0.00014777
0.000148674
0.000144151
0.000139481
0.000135616
0.000132727
0.000130733
0.000129489
0.000128887
0.000128908
0.0001296
0.000131071
0.00013345
0.000136767
0.000140712
0.000144511
0.000146207
0.000150116
0.000155521
0.000164329
0.000176928
0.000190035
0.000190137
0.000153864
4.61563e-05
1.75039e-06
1.16709e-06
3.3127e-05
0.000109682
0.000153864
0.000155208
0.000155089
0.000153668
0.000152922
0.000152321
0.000149638
0.000148787
0.000144256
0.000139573
0.00013566
0.000132737
0.000130722
0.000129464
0.000128873
0.000128915
0.00012964
0.000131144
0.000133584
0.000137065
0.00014151
0.000146522
0.000150778
0.000157478
0.000159089
0.000165383
0.000177211
0.000189739
0.000189677
0.000153165
4.61152e-05
1.7542e-06
1.15494e-06
3.28056e-05
0.000108584
0.000150021
0.000156017
0.000156022
0.000153376
0.000152248
0.000154191
0.000150577
0.000146497
0.000143749
0.000139407
0.000135555
0.000132663
0.000130679
0.000129457
0.000128883
0.000128927
0.000129639
0.000131134
0.000133565
0.000137036
0.000141456
0.00014642
0.000150644
0.000157104
0.000159397
0.000166438
0.000179205
0.000190853
0.000188359
0.000152988
4.61589e-05
1.75155e-06
1.16407e-06
3.29962e-05
0.000108455
0.000144786
0.000156161
0.000157571
0.000154929
0.000154794
0.000164769
0.000158982
0.000151529
0.000145082
0.000139848
0.000135745
0.000132763
0.000130721
0.00012946
0.000128862
0.000128887
0.000129574
0.000131017
0.000133324
0.000136517
0.000140413
0.000144685
0.000149392
0.00014818
0.000152981
0.000163817
0.000178414
0.00019141
0.000190997
0.000154403
4.6494e-05
1.76396e-06
1.16964e-06
3.31454e-05
0.000109285
0.000148225
0.000156845
0.00015832
0.000155795
0.000153971
0.000161186
0.000156694
0.00015081
0.000144887
0.000139781
0.000135722
0.000132754
0.000130724
0.000129466
0.00012887
0.000128898
0.000129599
0.000131079
0.000133452
0.00013672
0.000140588
0.000144309
0.000145862
0.000148624
0.000153418
0.000163403
0.000178192
0.00019165
0.000190758
0.00015319
4.60926e-05
1.76607e-06
1.16884e-06
3.31808e-05
0.000109936
0.000153976
0.000158078
0.000159793
0.000157338
0.000153388
0.000148995
0.000147167
0.000147851
0.000143752
0.000139326
0.000135532
0.000132659
0.000130657
0.000129403
0.000128797
0.000128804
0.000129488
0.000130959
0.000133334
0.000136628
0.000140645
0.000145077
0.000149999
0.000148975
0.000153378
0.000163571
0.000178301
0.000191757
0.000191035
0.000154128
4.58805e-05
1.75324e-06
1.17245e-06
3.32355e-05
0.000109335
0.000147004
0.000156028
0.000158749
0.000157182
0.000153678
0.00015026
0.000148401
0.000148006
0.000143791
0.000139367
0.000135582
0.000132714
0.000130726
0.0001295
0.000128946
0.00012903
0.000129755
0.00013123
0.000133576
0.000136826
0.000140681
0.000144373
0.000145902
0.000149102
0.000154368
0.000164364
0.000178838
0.000192214
0.000190946
0.000154297
4.65254e-05
1.75925e-06
1.16305e-06
3.29194e-05
0.000109553
0.000151979
0.000155836
0.000157869
0.000155444
0.000150552
0.0001493
0.000154545
0.000149278
0.000143964
0.00013926
0.000135453
0.000132632
0.000130688
0.00012949
0.000128937
0.000129012
0.000129744
0.000131226
0.000133524
0.000136636
0.000140268
0.000143713
0.000145051
0.000146224
0.000151798
0.000163255
0.000177964
0.00019208
0.000191058
0.000154127
4.63346e-05
1.75994e-06
1.16312e-06
3.29262e-05
0.000109502
0.000150685
0.000154524
0.00015368
0.000152738
0.000149679
0.000148973
0.00015423
0.000149012
0.000143921
0.000139245
0.000135435
0.000132618
0.000130687
0.000129503
0.00012897
0.000129053
0.0001298
0.000131307
0.000133701
0.000137008
0.00014105
0.000145585
0.000150914
0.000150112
0.000152999
0.000163813
0.00017921
0.000192305
0.000189594
0.000154078
4.5852e-05
1.75225e-06
1.17927e-06
3.32722e-05
0.000110719
0.000152425
0.000155055
0.00015408
0.000151549
0.000149593
0.000148767
0.000148047
0.000145182
0.000143032
0.000139011
0.000135358
0.000132569
0.000130623
0.000129421
0.000128877
0.000128958
0.000129705
0.000131219
0.000133627
0.000137015
0.000141381
0.00014699
0.000156402
0.000174214
0.000161956
0.00016621
0.00017935
0.000192589
0.000191549
0.000154217
4.6204e-05
1.75104e-06
1.17206e-06
3.31848e-05
0.000108905
0.000145459
0.000154818
0.00015533
0.000155105
0.000156721
0.000157235
0.000152639
0.000147684
0.000144337
0.000139661
0.000135667
0.000132701
0.000130675
0.000129437
0.000128872
0.000128941
0.000129682
0.000131173
0.000133507
0.000136666
0.000140341
0.000143838
0.000145111
0.000146561
0.000153439
0.000164668
0.000178863
0.000191348
0.000190098
0.000154415
4.62123e-05
1.75905e-06
1.17281e-06
3.31652e-05
0.000109089
0.000144458
0.000154927
0.000156291
0.000157652
0.000162598
0.000158341
0.000151636
0.0001473
0.000144383
0.000139763
0.000135726
0.000132709
0.000130652
0.000129393
0.000128836
0.000128897
0.000129632
0.000131116
0.000133444
0.00013663
0.000140436
0.000144264
0.000146347
0.000148825
0.000154384
0.00016514
0.000179423
0.000192146
0.000190587
0.000154318
4.60723e-05
1.74693e-06
1.18301e-06
3.3366e-05
0.000110532
0.000149267
0.000155273
0.000155766
0.000157589
0.000171316
0.00016588
0.000151511
0.000146376
0.000143497
0.000139188
0.000135407
0.000132564
0.000130609
0.000129405
0.000128864
0.000128947
0.000129692
0.000131224
0.000133667
0.000137106
0.000141426
0.00014626
0.000150513
0.000157284
0.000160362
0.000169156
0.000182986
0.000193558
0.000191041
0.000153975
4.61947e-05
1.7513e-06
1.16998e-06
3.31582e-05
0.00010976
0.000152938
0.000155616
0.000154959
0.000151846
0.000147436
0.000145809
0.000146019
0.000147761
0.000143674
0.000139211
0.000135407
0.000132546
0.000130569
0.000129346
0.000128801
0.000128878
0.000129618
0.000131118
0.000133482
0.000136737
0.000140729
0.000145259
0.000150663
0.000150623
0.000155169
0.000167424
0.000181957
0.000194482
0.000191935
0.000153984
4.6054e-05
1.74958e-06
1.1647e-06
3.29359e-05
0.000108623
0.000145827
0.000153587
0.000154412
0.000152177
0.000150921
0.000150781
0.000148941
0.0001485
0.000144154
0.000139466
0.000135538
0.000132599
0.000130582
0.000129359
0.000128808
0.000128914
0.000129686
0.000131216
0.000133626
0.000136994
0.000141321
0.000146874
0.000156177
0.000173851
0.000164049
0.000169831
0.000184545
0.000196564
0.000194442
0.000156012
4.71759e-05
1.79076e-06
1.1691e-06
3.28615e-05
0.000109177
0.000152637
0.000154684
0.000154486
0.000152196
0.000151154
0.0001522
0.000149865
0.000146332
0.000143754
0.000139395
0.000135527
0.000132605
0.00013059
0.000129358
0.000128818
0.000128915
0.000129705
0.000131283
0.000133768
0.000137177
0.000141305
0.000145892
0.000151329
0.000150767
0.000156874
0.000168459
0.000183963
0.000196927
0.000194713
0.000156663
4.72116e-05
1.80866e-06
1.15649e-06
3.27483e-05
0.000108552
0.000147234
0.000154221
0.000154516
0.000152488
0.000150566
0.0001491
0.000148518
0.000145655
0.000143329
0.000139137
0.000135386
0.000132523
0.000130533
0.000129298
0.000128726
0.000128796
0.000129534
0.000131029
0.000133394
0.000136657
0.000140639
0.000145073
0.000150213
0.000150499
0.000157337
0.000169752
0.000184544
0.000198624
0.000197394
0.000157079
4.76925e-05
1.80356e-06
1.15896e-06
3.27094e-05
0.000108649
0.000145368
0.000154109
0.000154431
0.000152363
0.000151161
0.000149656
0.000148233
0.000148288
0.000143934
0.0001393
0.000135402
0.000132499
0.000130508
0.000129291
0.000128748
0.00012883
0.000129571
0.000131052
0.000133326
0.000136418
0.000140149
0.000144306
0.000149298
0.000149266
0.000156703
0.000170642
0.000188112
0.000201251
0.000198152
0.000158937
4.7734e-05
1.81259e-06
1.17432e-06
3.29469e-05
0.000109749
0.000153016
0.000155835
0.000154409
0.00015115
0.000148588
0.000147413
0.00014673
0.000147588
0.000143649
0.000139133
0.000135294
0.000132434
0.000130477
0.000129281
0.00012874
0.000128845
0.000129618
0.00013114
0.000133508
0.000136705
0.000140437
0.000144098
0.00014603
0.000148538
0.000156413
0.000170259
0.000187997
0.00020133
0.000198496
0.000157913
4.8233e-05
1.83064e-06
1.16662e-06
3.29995e-05
0.00010803
0.000142801
0.000154245
0.000154698
0.000153203
0.000153272
0.000151872
0.000149969
0.000146258
0.000143484
0.000139076
0.000135228
0.00013234
0.000130367
0.000129187
0.000128672
0.000128769
0.000129512
0.000130987
0.000133306
0.000136517
0.000140479
0.000144987
0.000150443
0.00015121
0.000157936
0.000171222
0.000187286
0.000200776
0.000198913
0.00015939
4.79869e-05
1.81908e-06
1.15639e-06
3.2737e-05
0.000108463
0.000144221
0.000154221
0.000154999
0.000155028
0.000158732
0.000157791
0.000151593
0.000146663
0.000143668
0.000139149
0.00013526
0.000132367
0.000130383
0.000129159
0.000128611
0.000128699
0.000129459
0.000130991
0.000133434
0.000136876
0.000141235
0.000146252
0.000151217
0.000159211
0.000164098
0.000174473
0.000189523
0.000202208
0.000198546
0.000158197
4.77487e-05
1.81574e-06
1.16461e-06
3.28787e-05
0.000109362
0.000147516
0.000154175
0.000153537
0.000151975
0.00015259
0.000161599
0.000151213
0.000146194
0.000143599
0.000139234
0.000135367
0.00013244
0.000130434
0.000129231
0.00012874
0.000128873
0.000129696
0.000131271
0.000133698
0.000136993
0.000141013
0.000145565
0.000151083
0.000151557
0.000159538
0.000173647
0.000190541
0.000204991
0.000199318
0.000158818
4.77716e-05
1.82675e-06
1.1662e-06
3.30726e-05
0.000110318
0.000152949
0.000155577
0.000154686
0.000153051
0.000151496
0.000149281
0.000153497
0.00014621
0.000143381
0.000139073
0.000135253
0.000132373
0.000130406
0.000129218
0.000128723
0.000128885
0.000129725
0.000131331
0.000133808
0.00013718
0.000141199
0.00014524
0.000147768
0.000153276
0.000161919
0.000175155
0.000191305
0.000205521
0.000200838
0.000160141
4.8806e-05
1.8484e-06
1.1672e-06
3.30249e-05
0.000109331
0.000145061
0.000154683
0.000155247
0.000154834
0.00015403
0.000151075
0.00014705
0.000144701
0.000142844
0.000138841
0.000135142
0.00013232
0.000130385
0.000129228
0.00012875
0.000128909
0.000129748
0.000131336
0.00013376
0.00013703
0.000140885
0.000144742
0.000147127
0.000150953
0.000160635
0.000175703
0.000192545
0.000205938
0.000201232
0.000161991
4.88482e-05
1.84891e-06
1.17408e-06
3.3107e-05
0.000110187
0.000147959
0.000154979
0.000156046
0.000155355
0.000153499
0.000150458
0.00014814
0.00014834
0.000143919
0.000139189
0.000135241
0.000132318
0.000130343
0.000129179
0.000128709
0.000128881
0.000129737
0.000131368
0.000133848
0.000137164
0.00014106
0.000144961
0.000147345
0.000151357
0.000161075
0.000176311
0.000195756
0.00020983
0.000205709
0.000163009
4.88656e-05
1.86383e-06
1.17482e-06
3.32639e-05
0.000110921
0.000152848
0.000156444
0.000158193
0.000156542
0.000152564
0.000148583
0.000146647
0.000147361
0.000143415
0.000138922
0.000135122
0.000132284
0.000130343
0.000129177
0.000128701
0.000128886
0.000129748
0.000131372
0.000133857
0.000137193
0.000141084
0.000144976
0.000147546
0.000151357
0.000161119
0.000176264
0.00019502
0.000209316
0.000206008
0.000163999
4.98747e-05
1.88234e-06
1.17378e-06
3.31579e-05
0.000109752
0.00014559
0.000155879
0.000160354
0.000163846
0.000160866
0.000154448
0.000148739
0.000145549
0.00014322
0.000138993
0.000135204
0.000132326
0.000130353
0.000129184
0.000128706
0.000128878
0.000129738
0.000131362
0.000133833
0.000137161
0.000141173
0.000145711
0.000151376
0.000152275
0.000161624
0.000177491
0.0001957
0.000210001
0.000204846
0.000163687
4.94498e-05
1.87879e-06
1.16959e-06
3.31196e-05
0.000110347
0.000152361
0.000155584
0.000159364
0.000164202
0.000163088
0.000157793
0.000152022
0.000149881
0.000144629
0.000139528
0.000135409
0.000132401
0.000130381
0.000129182
0.000128693
0.000128862
0.000129716
0.000131319
0.000133754
0.000137034
0.000141002
0.000145513
0.000151212
0.000152179
0.000161479
0.00017731
0.00019599
0.000210223
0.00020484
0.000164203
4.98618e-05
1.88034e-06
1.17227e-06
3.31547e-05
0.000110248
0.000152715
0.000155047
0.000156901
0.000160759
0.000160908
0.000158018
0.000152301
0.000146864
0.000143697
0.00013913
0.000135242
0.000132329
0.000130345
0.000129161
0.000128673
0.000128826
0.000129672
0.000131271
0.000133695
0.000136946
0.00014088
0.00014537
0.000151063
0.000152294
0.00016191
0.000177683
0.00019634
0.000209874
0.000204945
0.000164092
4.97866e-05
1.89281e-06
1.18172e-06
3.32197e-05
0.00010979
0.000144219
0.000153684
0.00015315
0.000150402
0.000149944
0.000153154
0.000150174
0.000145847
0.000143169
0.000138912
0.000135156
0.000132295
0.000130334
0.00012916
0.000128686
0.000128865
0.000129724
0.000131361
0.000133842
0.000137145
0.000141078
0.000145514
0.000151278
0.000152896
0.000162657
0.000178333
0.00019672
0.000209877
0.000204974
0.000162966
5.00824e-05
1.89159e-06
1.1758e-06
3.33296e-05
0.000110789
0.000147364
0.000154616
0.000154005
0.000151679
0.000151725
0.000162419
0.000158512
0.000150611
0.000144447
0.000139297
0.000135237
0.00013228
0.000130301
0.000129138
0.000128672
0.000128845
0.000129712
0.000131328
0.000133772
0.000137004
0.000140695
0.000144208
0.000146254
0.000152222
0.00016413
0.000181272
0.000200391
0.000213505
0.00020647
0.000165185
4.99863e-05
1.89719e-06
1.17644e-06
3.32972e-05
0.000111544
0.000153849
0.000155989
0.000154394
0.000151334
0.000149098
0.00014968
0.000155851
0.000149765
0.0001441
0.000139119
0.000135128
0.000132198
0.000130227
0.000129062
0.000128593
0.000128769
0.000129634
0.000131235
0.000133644
0.000136846
0.000140591
0.000144387
0.000146907
0.000151652
0.000163285
0.000180799
0.000200226
0.000213365
0.000206525
0.000163122
4.98848e-05
1.8852e-06
1.18699e-06
3.34302e-05
0.000111459
0.000148462
0.00015467
0.000154304
0.000151331
0.000148584
0.000148724
0.000154916
0.000150648
0.000144591
0.000139361
0.000135261
0.000132277
0.000130272
0.00012909
0.000128626
0.000128808
0.000129673
0.000131305
0.000133741
0.000136963
0.00014073
0.000144552
0.000147255
0.000151626
0.00016283
0.000180017
0.000200294
0.00021404
0.000206856
0.000165054
4.99392e-05
1.89953e-06
1.17392e-06
3.33035e-05
0.000111666
0.000154959
0.000155562
0.000154252
0.000151088
0.000147952
0.000146089
0.000145777
0.000147515
0.000143588
0.000139004
0.000135137
0.000132235
0.000130252
0.000129069
0.000128598
0.000128795
0.000129682
0.00013133
0.000133837
0.000137206
0.000141286
0.000145974
0.000152021
0.000153846
0.00016446
0.000181275
0.000201123
0.000214896
0.000208867
0.0001655
5.08716e-05
1.92286e-06
1.17777e-06
3.32739e-05
0.000111073
0.000150902
0.000155466
0.000154207
0.000151841
0.00014986
0.000149844
0.000150128
0.000146859
0.000144078
0.000139424
0.000135371
0.000132338
0.000130285
0.000129071
0.000128584
0.000128769
0.000129653
0.000131303
0.000133795
0.000137144
0.000141214
0.00014593
0.000152196
0.000154182
0.000165133
0.000182069
0.00020086
0.000214648
0.000211613
0.000165523
5.06625e-05
1.92293e-06
1.18492e-06
3.33872e-05
0.000111595
0.000147728
0.000154795
0.000154546
0.000152789
0.000152736
0.000154377
0.000151651
0.000147206
0.000144096
0.000139305
0.000135232
0.000132231
0.000130211
0.000129027
0.000128571
0.000128781
0.000129704
0.000131406
0.000133947
0.000137268
0.000141023
0.000144595
0.000146647
0.000152802
0.000165421
0.000182695
0.000201781
0.000216536
0.000212494
0.000167648
5.10021e-05
1.9257e-06
1.18912e-06
3.3574e-05
0.000111122
0.000145947
0.000154808
0.000154914
0.000154635
0.00015576
0.000155456
0.00015099
0.00014628
0.000143367
0.000138831
0.000134965
0.00013208
0.000130135
0.00012899
0.000128551
0.000128773
0.000129686
0.000131357
0.000133853
0.00013714
0.000140918
0.000144623
0.000147036
0.000153543
0.000166833
0.000184783
0.000203795
0.000217448
0.000213127
0.000169637
5.13882e-05
1.9609e-06
1.17434e-06
3.3208e-05
0.000110705
0.000148979
0.000154708
0.000155263
0.000156606
0.00016199
0.000158257
0.000151883
0.000146806
0.00014372
0.00013908
0.000135082
0.000132103
0.000130089
0.0001289
0.000128437
0.000128644
0.000129551
0.000131222
0.000133721
0.000137029
0.000140915
0.000144935
0.000147947
0.000154014
0.000167311
0.000185759
0.00020565
0.000219624
0.000216847
0.000170925
5.2177e-05
1.9855e-06
1.19162e-06
3.35697e-05
0.000111899
0.000154548
0.000156003
0.000154483
0.000154582
0.000166278
0.000162922
0.000151402
0.000146847
0.000143889
0.00013926
0.000135259
0.00013227
0.00013026
0.00012909
0.000128645
0.000128861
0.000129763
0.000131411
0.000133864
0.00013708
0.000140757
0.000144376
0.000146743
0.000153702
0.000167814
0.000186526
0.000206153
0.000219672
0.000216737
0.000171691
5.19475e-05
1.98072e-06
1.20325e-06
3.39165e-05
0.000111987
0.000148495
0.000154754
0.000153655
0.000150432
0.000147991
0.000147104
0.00014744
0.000145559
0.00014341
0.000139032
0.000135157
0.000132257
0.000130301
0.000129153
0.000128714
0.000128927
0.000129824
0.000131473
0.00013394
0.000137203
0.000141
0.000144847
0.00014753
0.000155051
0.00017025
0.000190667
0.000210639
0.000223174
0.000216771
0.00017215
5.32079e-05
2.00863e-06
1.19002e-06
3.37527e-05
0.000111885
0.000154267
0.000156145
0.000154203
0.000150998
0.000148476
0.000147591
0.000148778
0.000145841
0.000143372
0.000139068
0.000135235
0.000132335
0.00013038
0.000129262
0.000128863
0.000129119
0.000130061
0.000131761
0.00013429
0.000137654
0.000141645
0.000145833
0.000149124
0.000155934
0.000170668
0.000191083
0.000211078
0.000223433
0.00021631
0.000172484
5.28505e-05
1.99473e-06
1.18611e-06
3.35357e-05
0.00011208
0.000145463
0.000154818
0.000154568
0.000151906
0.000149836
0.000149691
0.00015487
0.000149554
0.000144006
0.000139074
0.000135151
0.000132283
0.000130377
0.000129276
0.000128896
0.000129187
0.000130177
0.000131932
0.000134499
0.000137823
0.000141624
0.000145414
0.000148019
0.000155886
0.000171906
0.000193431
0.000216342
0.000230011
0.000222113
0.00017322
5.25706e-05
1.99641e-06
1.19719e-06
3.37721e-05
0.000112658
0.00014972
0.000155734
0.000154781
0.000151904
0.000150098
0.000150316
0.0001562
0.000150901
0.000144716
0.000139474
0.000135358
0.000132381
0.000130413
0.000129302
0.000128921
0.00012921
0.0001302
0.000131952
0.000134533
0.000137887
0.000141742
0.00014562
0.000148301
0.000155702
0.000171505
0.0001931
0.000215575
0.000229643
0.000222327
0.000171932
5.31188e-05
1.99936e-06
1.18922e-06
3.36005e-05
0.000113092
0.000156207
0.000157165
0.00015528
0.000151908
0.000149549
0.000149945
0.000155323
0.000150066
0.000144332
0.000139298
0.000135281
0.000132333
0.000130363
0.000129233
0.000128836
0.000129107