/*--------------------------------*- C++ -*----------------------------------*\
  =========                 |
  \\      /  F ield         | OpenFOAM: The Open Source CFD Toolbox
   \\    /   O peration     | Website:  https://openfoam.org
    \\  /    A nd           | Version:  13
     \\/     M anipulation  |
\*---------------------------------------------------------------------------*/
FoamFile
{
    format      ascii;
    class       volScalarField;
    location    "6";
    object      nut;
}
// * * * * * * * * * * * * * * * * * * * * * * * * * * * * * * * * * * * * * //

dimensions      [0 2 -1 0 0 0 0];

internalField   nonuniform List<scalar> 
78750
(
6.0607e-11
1.44284e-08
6.40835e-07
1.43099e-06
2.54599e-06
3.31239e-06
3.86145e-06
4.85967e-06
5.66895e-06
5.64855e-06
5.45589e-06
5.28358e-06
5.82725e-06
5.77362e-06
5.60537e-06
5.39255e-06
5.15949e-06
4.92242e-06
4.68596e-06
4.44542e-06
4.20567e-06
3.96873e-06
3.73816e-06
3.51183e-06
3.29826e-06
3.09177e-06
2.90897e-06
2.72051e-06
2.56752e-06
2.42716e-06
2.16578e-06
1.69799e-06
1.53565e-06
3.1498e-07
2.18836e-09
6.24922e-10
1.61825e-07
4.69791e-06
8.82472e-06
8.4796e-06
8.31592e-06
7.71478e-06
8.04107e-06
1.33327e-05
4.39198e-05
5.47555e-05
4.73398e-05
3.79133e-05
3.09147e-05
2.71862e-05
2.57713e-05
2.55127e-05
2.5862e-05
2.65131e-05
2.68186e-05
2.79926e-05
2.99459e-05
3.2207e-05
3.64321e-05
4.54749e-05
5.2404e-05
5.14059e-05
3.03643e-05
1.75899e-05
1.05352e-05
7.14768e-06
5.40305e-06
4.3851e-06
5.97863e-07
3.33679e-09
1.27197e-09
3.27112e-07
1.01206e-05
9.23873e-06
7.55291e-06
6.9413e-06
7.14346e-06
8.73893e-06
1.4477e-05
3.24185e-05
5.49117e-05
5.46881e-05
5.45054e-05
5.40501e-05
5.22573e-05
5.15199e-05
5.13993e-05
5.15723e-05
5.19887e-05
5.27517e-05
5.37206e-05
5.34458e-05
5.30891e-05
5.27422e-05
5.26329e-05
5.29592e-05
3.76309e-05
2.05354e-05
1.14617e-05
8.29532e-06
6.16945e-06
4.58274e-06
3.62723e-06
7.11774e-07
3.45616e-09
1.36226e-09
3.51339e-07
1.05817e-05
9.19097e-06
7.1241e-06
6.54005e-06
7.02688e-06
7.99423e-06
1.10874e-05
2.05825e-05
4.42538e-05
5.36988e-05
5.27796e-05
5.19847e-05
5.13707e-05
5.09329e-05
5.06416e-05
5.04533e-05
5.03256e-05
5.02245e-05
5.01362e-05
5.00839e-05
5.0118e-05
5.04085e-05
5.11964e-05
3.83515e-05
2.58288e-05
1.50641e-05
9.19401e-06
6.31673e-06
4.42733e-06
3.5294e-06
3.34036e-06
6.84443e-07
3.21358e-09
1.46471e-09
3.77245e-07
1.06056e-05
8.50026e-06
6.95186e-06
6.65143e-06
8.48492e-06
1.01482e-05
1.34802e-05
2.19626e-05
4.3676e-05
5.42179e-05
5.28596e-05
5.17983e-05
5.10174e-05
5.04651e-05
5.00848e-05
4.98275e-05
4.96504e-05
4.95267e-05
4.94582e-05
4.94642e-05
4.96333e-05
5.01714e-05
5.12484e-05
3.85435e-05
1.88564e-05
1.39943e-05
8.80953e-06
5.26041e-06
3.75107e-06
2.96246e-06
2.92313e-06
6.23792e-07
2.79642e-09
1.5155e-09
3.89709e-07
1.08092e-05
8.634e-06
7.70968e-06
6.97282e-06
8.22704e-06
1.00627e-05
1.30688e-05
2.00886e-05
3.91067e-05
5.4116e-05
5.25254e-05
5.12428e-05
5.02662e-05
4.95617e-05
4.90715e-05
4.87379e-05
4.85264e-05
4.84249e-05
4.84337e-05
4.86006e-05
4.90556e-05
4.99343e-05
5.13467e-05
3.60413e-05
1.67012e-05
1.16535e-05
6.88441e-06
4.13013e-06
3.13641e-06
2.83771e-06
3.58406e-06
5.87683e-07
2.60087e-09
1.54739e-09
3.96521e-07
1.05596e-05
7.95579e-06
6.65057e-06
6.6693e-06
8.23926e-06
1.0264e-05
1.32514e-05
2.03354e-05
3.73989e-05
5.42415e-05
5.24844e-05
5.11196e-05
5.00979e-05
4.93633e-05
4.8857e-05
4.85223e-05
4.83245e-05
4.82572e-05
4.83242e-05
4.86217e-05
4.92893e-05
5.04835e-05
5.22696e-05
3.02297e-05
1.46128e-05
1.06837e-05
6.92776e-06
4.25276e-06
3.26323e-06
2.90968e-06
3.26569e-06
5.69665e-07
2.58276e-09
1.5767e-09
4.04734e-07
1.07038e-05
8.58364e-06
6.82359e-06
6.65932e-06
7.38916e-06
1.01201e-05
1.31461e-05
1.96302e-05
3.53158e-05
5.41916e-05
5.23846e-05
5.09772e-05
4.99194e-05
4.9153e-05
4.86275e-05
4.82906e-05
4.81051e-05
4.80691e-05
4.81876e-05
4.85686e-05
4.93292e-05
5.06053e-05
5.24512e-05
2.98532e-05
1.39139e-05
9.92256e-06
6.15284e-06
3.85484e-06
2.98198e-06
2.68084e-06
3.11643e-06
5.50319e-07
2.39572e-09
1.60256e-09
4.09909e-07
1.05223e-05
8.22871e-06
6.76207e-06
6.65601e-06
7.50742e-06
9.91901e-06
1.29114e-05
1.91678e-05
3.39577e-05
5.39857e-05
5.21971e-05
5.07856e-05
4.97246e-05
4.8956e-05
4.84266e-05
4.80903e-05
4.79176e-05
4.79064e-05
4.80636e-05
4.84939e-05
4.93002e-05
5.05637e-05
5.22031e-05
3.14283e-05
1.37367e-05
8.9018e-06
5.19368e-06
3.36091e-06
2.77013e-06
2.72167e-06
3.55438e-06
5.49552e-07
2.3389e-09
1.62766e-09
4.16139e-07
1.05954e-05
8.28831e-06
6.79721e-06
6.67523e-06
7.25382e-06
8.80331e-06
1.26975e-05
1.88855e-05
3.30107e-05
5.39521e-05
5.21605e-05
5.07362e-05
4.9658e-05
4.88754e-05
4.83361e-05
4.80014e-05
4.78493e-05
4.7874e-05
4.81239e-05
4.86741e-05
4.9608e-05
5.0982e-05
5.27005e-05
3.10452e-05
1.28506e-05
7.74357e-06
4.64831e-06
3.21348e-06
2.83132e-06
2.9367e-06
3.58796e-06
5.47744e-07
2.33686e-09
1.64164e-09
4.19357e-07
1.05764e-05
8.15706e-06
6.71579e-06
6.62246e-06
7.3815e-06
9.15902e-06
1.29443e-05
1.87503e-05
3.17642e-05
5.3995e-05
5.21925e-05
5.07511e-05
4.96674e-05
4.889e-05
4.83644e-05
4.80496e-05
4.79254e-05
4.79912e-05
4.82955e-05
4.8909e-05
4.98991e-05
5.12807e-05
5.29083e-05
2.87155e-05
1.16452e-05
6.52683e-06
4.23207e-06
3.20902e-06
2.83667e-06
2.82685e-06
3.88791e-06
5.56463e-07
2.36961e-09
1.6497e-09
4.20767e-07
1.03253e-05
7.74214e-06
6.76934e-06
6.89693e-06
7.66928e-06
9.06347e-06
1.15832e-05
1.72516e-05
2.97923e-05
5.37261e-05
5.21788e-05
5.07861e-05
4.97131e-05
4.89446e-05
4.84283e-05
4.81248e-05
4.80176e-05
4.81095e-05
4.84542e-05
4.91303e-05
5.02203e-05
5.17656e-05
5.36698e-05
2.70969e-05
1.14052e-05
6.6806e-06
4.18457e-06
3.07683e-06
2.93774e-06
3.16035e-06
4.02046e-06
5.69852e-07
2.43278e-09
1.66508e-09
4.25177e-07
1.0571e-05
8.07525e-06
6.79398e-06
6.68766e-06
7.56904e-06
9.66634e-06
1.24427e-05
1.78883e-05
3.00813e-05
5.36391e-05
5.23765e-05
5.09286e-05
4.98134e-05
4.90182e-05
4.84958e-05
4.82003e-05
4.81124e-05
4.82341e-05
4.86182e-05
4.93361e-05
5.04588e-05
5.20398e-05
5.41431e-05
2.619e-05
1.12528e-05
6.00862e-06
4.00024e-06
3.1493e-06
2.98468e-06
3.22785e-06
4.14999e-06
5.77257e-07
2.46903e-09
1.67057e-09
4.26616e-07
1.03541e-05
8.18177e-06
6.84108e-06
6.81808e-06
7.70809e-06
1.02767e-05
1.33836e-05
1.87084e-05
3.01915e-05
5.25528e-05
5.24555e-05
5.09384e-05
4.98133e-05
4.90233e-05
4.85058e-05
4.82172e-05
4.8141e-05
4.82828e-05
4.86952e-05
4.94444e-05
5.05918e-05
5.21752e-05
5.42378e-05
2.61561e-05
1.10669e-05
5.82125e-06
3.91126e-06
3.16939e-06
2.91694e-06
3.13287e-06
4.53667e-06
5.94059e-07
2.50087e-09
1.6748e-09
4.27337e-07
1.03045e-05
7.95981e-06
6.68551e-06
6.52684e-06
7.30434e-06
9.04144e-06
1.27005e-05
1.8097e-05
2.96353e-05
5.17481e-05
5.23615e-05
5.09091e-05
4.98136e-05
4.90339e-05
4.85205e-05
4.82375e-05
4.81745e-05
4.8339e-05
4.87763e-05
4.95398e-05
5.06617e-05
5.2098e-05
5.36585e-05
2.39363e-05
9.60709e-06
5.17532e-06
3.67574e-06
3.19645e-06
3.12758e-06
3.34432e-06
4.52276e-06
5.92871e-07
2.49969e-09
1.6678e-09
4.2467e-07
1.02484e-05
7.81771e-06
6.72758e-06
6.77579e-06
7.50939e-06
8.84682e-06
1.17167e-05
1.71305e-05
2.84645e-05
5.0613e-05
5.224e-05
5.09124e-05
4.98572e-05
4.90914e-05
4.85857e-05
4.83093e-05
4.8251e-05
4.84251e-05
4.88841e-05
4.96898e-05
5.08882e-05
5.25094e-05
5.43275e-05
2.50109e-05
1.11823e-05
6.85168e-06
4.03188e-06
3.25221e-06
3.047e-06
3.32323e-06
4.41857e-06
5.89386e-07
2.49167e-09
1.67296e-09
4.26413e-07
1.03021e-05
7.44602e-06
6.62532e-06
6.61392e-06
7.47795e-06
9.11384e-06
1.17465e-05
1.73136e-05
2.93307e-05
5.13746e-05
5.24897e-05
5.1026e-05
4.99106e-05
4.91257e-05
4.86138e-05
4.83358e-05
4.8281e-05
4.84635e-05
4.8935e-05
4.97532e-05
5.09566e-05
5.25021e-05
5.30108e-05
2.33732e-05
9.31783e-06
5.36487e-06
3.80026e-06
3.13329e-06
3.07943e-06
3.33625e-06
4.61975e-06
5.91639e-07
2.50328e-09
1.68073e-09
4.28914e-07
1.03546e-05
7.5307e-06
6.57568e-06
6.73447e-06
7.43363e-06
8.96915e-06
1.18358e-05
1.72963e-05
2.9163e-05
5.07672e-05
5.23361e-05
5.09565e-05
4.989e-05
4.91263e-05
4.86326e-05
4.83672e-05
4.83165e-05
4.84949e-05
4.89523e-05
4.97435e-05
5.08994e-05
5.23774e-05
5.15783e-05
2.24398e-05
8.8584e-06
5.04811e-06
3.80339e-06
3.28523e-06
3.13771e-06
3.37951e-06
4.4687e-06
5.91408e-07
2.5058e-09
1.69794e-09
4.32749e-07
1.02205e-05
7.90495e-06
6.72119e-06
6.65676e-06
7.58995e-06
1.01645e-05
1.28837e-05
1.8171e-05
2.95518e-05
5.1148e-05
5.24682e-05
5.10014e-05
4.99061e-05
4.91362e-05
4.86343e-05
4.83669e-05
4.83175e-05
4.85006e-05
4.89576e-05
4.97412e-05
5.08648e-05
5.22365e-05
5.14419e-05
2.21709e-05
8.87329e-06
5.05834e-06
3.74297e-06
3.19283e-06
3.12104e-06
3.37213e-06
4.54457e-06
5.93354e-07
2.5113e-09
1.70136e-09
4.34375e-07
1.02685e-05
7.7003e-06
6.73335e-06
6.65664e-06
7.41468e-06
8.73282e-06
1.12958e-05
1.71074e-05
2.85437e-05
5.01935e-05
5.24083e-05
5.09975e-05
4.99034e-05
4.91286e-05
4.86261e-05
4.83611e-05
4.83181e-05
4.85142e-05
4.89851e-05
4.9776e-05
5.08994e-05
5.22661e-05
5.14367e-05
2.12877e-05
8.54984e-06
4.86673e-06
3.60582e-06
3.24332e-06
3.2955e-06
3.48367e-06
4.48142e-06
5.88253e-07
2.499e-09
1.69774e-09
4.33901e-07
1.04503e-05
8.29468e-06
6.78464e-06
6.67823e-06
7.2578e-06
8.8776e-06
1.14743e-05
1.63116e-05
2.83652e-05
4.95569e-05
5.23481e-05
5.09635e-05
4.98898e-05
4.91262e-05
4.86279e-05
4.83648e-05
4.83258e-05
4.85278e-05
4.9016e-05
4.98365e-05
5.09949e-05
5.2382e-05
4.97427e-05
2.10634e-05
8.55384e-06
4.96717e-06
3.73473e-06
3.25178e-06
3.17374e-06
3.35345e-06
4.59275e-06
5.96688e-07
2.52197e-09
1.70693e-09
4.35828e-07
1.04627e-05
8.25178e-06
6.78482e-06
6.71308e-06
7.42265e-06
8.76113e-06
1.15268e-05
1.72316e-05
2.823e-05
4.94352e-05
5.22766e-05
5.09024e-05
4.9841e-05
4.90868e-05
4.85977e-05
4.83397e-05
4.83031e-05
4.85077e-05
4.9004e-05
4.98446e-05
5.1042e-05
5.25084e-05
5.18164e-05
2.22883e-05
8.88808e-06
5.04774e-06
3.68117e-06
3.24418e-06
3.13893e-06
3.3223e-06
4.50909e-06
6.05101e-07
2.56256e-09
1.71601e-09
4.36511e-07
1.05207e-05
8.26528e-06
6.81713e-06
6.658e-06
7.16584e-06
8.66864e-06
1.15666e-05
1.71042e-05
2.95279e-05
5.14229e-05
5.23791e-05
5.09739e-05
4.98949e-05
4.91361e-05
4.86479e-05
4.83925e-05
4.83593e-05
4.85635e-05
4.90525e-05
4.98891e-05
5.11277e-05
5.27428e-05
5.29865e-05
2.22722e-05
9.04989e-06
5.00593e-06
3.68336e-06
3.21853e-06
3.25079e-06
3.54788e-06
4.60035e-06
6.01679e-07
2.54569e-09
1.69692e-09
4.33213e-07
1.01051e-05
7.64407e-06
6.66517e-06
6.79492e-06
7.58761e-06
9.0806e-06
1.18622e-05
1.66237e-05
2.78467e-05
4.84061e-05
5.23943e-05
5.09772e-05
4.98963e-05
4.91365e-05
4.86537e-05
4.84105e-05
4.83932e-05
4.86216e-05
4.91409e-05
5.00058e-05
5.1252e-05
5.28538e-05
5.14385e-05
2.17692e-05
9.01367e-06
5.09207e-06
3.75125e-06
3.27305e-06
3.21902e-06
3.46351e-06
4.62001e-06
6.00607e-07
2.54925e-09
1.69314e-09
4.32478e-07
1.0475e-05
8.1806e-06
6.74421e-06
6.64137e-06
7.45565e-06
9.34114e-06
1.29299e-05
1.80128e-05
2.90521e-05
5.00163e-05
5.23997e-05
5.09434e-05
4.98664e-05
4.91198e-05
4.86492e-05
4.84194e-05
4.84123e-05
4.86428e-05
4.91535e-05
4.99894e-05
5.11604e-05
5.25972e-05
5.25007e-05
2.26114e-05
8.71758e-06
4.9173e-06
3.67551e-06
3.24525e-06
3.11296e-06
3.3622e-06
4.69328e-06
6.12942e-07
2.58167e-09
1.7022e-09
4.32311e-07
1.03505e-05
8.17911e-06
6.69168e-06
6.80421e-06
7.44337e-06
8.6069e-06
1.13446e-05
1.69551e-05
2.82432e-05
4.97526e-05
5.22646e-05
5.08971e-05
4.98451e-05
4.91063e-05
4.86377e-05
4.84089e-05
4.8408e-05
4.86532e-05
4.91895e-05
5.00662e-05
5.12902e-05
5.27446e-05
5.2561e-05
2.14725e-05
8.58494e-06
4.91032e-06
3.63715e-06
3.21904e-06
3.292e-06
3.61218e-06
4.70247e-06
6.07698e-07
2.56541e-09
1.68779e-09
4.30728e-07
1.036e-05
7.81831e-06
6.69025e-06
6.51979e-06
7.39103e-06
9.1513e-06
1.16227e-05
1.69703e-05
2.81205e-05
4.9663e-05
5.2208e-05
5.0854e-05
4.98136e-05
4.90792e-05
4.86196e-05
4.83935e-05
4.8395e-05
4.8638e-05
4.91694e-05
5.00404e-05
5.12625e-05
5.27667e-05
5.22333e-05
2.18909e-05
8.39207e-06
4.76556e-06
3.70845e-06
3.35181e-06
3.2408e-06
3.49198e-06
4.68754e-06
6.07598e-07
2.56176e-09
1.70206e-09
4.33769e-07
1.00895e-05
8.29832e-06
6.85476e-06
6.68151e-06
7.45863e-06
9.27342e-06
1.2434e-05
1.74019e-05
2.74261e-05
4.78808e-05
5.2383e-05
5.09312e-05
4.98463e-05
4.90976e-05
4.86305e-05
4.84042e-05
4.84121e-05
4.86721e-05
4.92243e-05
5.01178e-05
5.13637e-05
5.2845e-05
5.19687e-05
2.15172e-05
8.69058e-06
4.95138e-06
3.73123e-06
3.30458e-06
3.1934e-06
3.41884e-06
4.7585e-06
6.1209e-07
2.57915e-09
1.71967e-09
4.39305e-07
1.05673e-05
8.22174e-06
6.58537e-06
6.98067e-06
7.70206e-06
8.95051e-06
1.20347e-05
1.6967e-05
2.80677e-05
4.94857e-05
5.24175e-05
5.0948e-05
4.98501e-05
4.90933e-05
4.86209e-05
4.8399e-05
4.84148e-05
4.86872e-05
4.9252e-05
5.01682e-05
5.14755e-05
5.31448e-05
5.25573e-05
2.19125e-05
9.06883e-06
5.06889e-06
3.72557e-06
3.20741e-06
3.24233e-06
3.62036e-06
4.76243e-06
6.11544e-07
2.58477e-09
1.70177e-09
4.35042e-07
1.05256e-05
8.3806e-06
6.88455e-06
6.59612e-06
7.44519e-06
9.1953e-06
1.21857e-05
1.74167e-05
2.83219e-05
4.93489e-05
5.23551e-05
5.09083e-05
4.98225e-05
4.90773e-05
4.86182e-05
4.84029e-05
4.84194e-05
4.86866e-05
4.9248e-05
5.01609e-05
5.14647e-05
5.31245e-05
5.24158e-05
2.19103e-05
8.91739e-06
4.9638e-06
3.66732e-06
3.3538e-06
3.3517e-06
3.53893e-06
4.73353e-06
6.12124e-07
2.58085e-09
1.71522e-09
4.3757e-07
1.03584e-05
7.70943e-06
6.77485e-06
6.89374e-06
7.65136e-06
9.40158e-06
1.29748e-05
1.81027e-05
2.90142e-05
5.00206e-05
5.25207e-05
5.09797e-05
4.98601e-05
4.90929e-05
4.86195e-05
4.8395e-05
4.84044e-05
4.86622e-05
4.9204e-05
5.00704e-05
5.12696e-05
5.27328e-05
5.32011e-05
2.19053e-05
8.38046e-06
4.718e-06
3.68631e-06
3.35581e-06
3.2236e-06
3.5063e-06
4.86405e-06
6.16567e-07
2.59914e-09
1.72343e-09
4.39548e-07
1.03889e-05
8.31126e-06
6.99479e-06
6.89375e-06
7.53325e-06
8.8319e-06
1.25723e-05
1.82e-05
2.96768e-05
4.95555e-05
5.24957e-05
5.0971e-05
4.98566e-05
4.9094e-05
4.86218e-05
4.8398e-05
4.84085e-05
4.86717e-05
4.92274e-05
5.01185e-05
5.13461e-05
5.27987e-05
5.17805e-05
2.11114e-05
8.43996e-06
4.78801e-06
3.62754e-06
3.25874e-06
3.34365e-06
3.69523e-06
4.73964e-06
6.11244e-07
2.60225e-09
1.72226e-09
4.40019e-07
1.04113e-05
7.96374e-06
6.91591e-06
6.90627e-06
7.80685e-06
9.75787e-06
1.1552e-05
1.61343e-05
2.73821e-05
4.88381e-05
5.23246e-05
5.09e-05
4.98206e-05
4.9069e-05
4.85979e-05
4.83703e-05
4.83732e-05
4.86298e-05
4.91823e-05
5.00744e-05
5.13113e-05
5.282e-05
5.19229e-05
2.1852e-05
8.43585e-06
4.77428e-06
3.64475e-06
3.34965e-06
3.30963e-06
3.54211e-06
4.84287e-06
6.08432e-07
2.58335e-09
1.72756e-09
4.40743e-07
1.04145e-05
7.77852e-06
6.70364e-06
6.87941e-06
7.78397e-06
9.29077e-06
1.21972e-05
1.73671e-05
2.80888e-05
4.86795e-05
5.23402e-05
5.09186e-05
4.98414e-05
4.90948e-05
4.86346e-05
4.84264e-05
4.84581e-05
4.87301e-05
4.9284e-05
5.0165e-05
5.13858e-05
5.28336e-05
5.25351e-05
2.11643e-05
8.38676e-06
4.76414e-06
3.6975e-06
3.34126e-06
3.27666e-06
3.56148e-06
4.92076e-06
6.16984e-07
2.5922e-09
1.71371e-09
4.36552e-07
1.05286e-05
8.85764e-06
6.87336e-06
6.61664e-06
7.38032e-06
8.85888e-06
1.19478e-05
1.80687e-05
2.85484e-05
4.86691e-05
5.22999e-05
5.08701e-05
4.98106e-05
4.90807e-05
4.86306e-05
4.84228e-05
4.8451e-05
4.87262e-05
4.92827e-05
5.01456e-05
5.13145e-05
5.26785e-05
5.21993e-05
2.1179e-05
8.26461e-06
4.6923e-06
3.64653e-06
3.30509e-06
3.33034e-06
3.62336e-06
4.77236e-06
6.14453e-07
2.59322e-09
1.71382e-09
4.36642e-07
1.02332e-05
8.09019e-06
6.91627e-06
6.7938e-06
7.57086e-06
9.10557e-06
1.13252e-05
1.68968e-05
2.84825e-05
4.9412e-05
5.22943e-05
5.08634e-05
4.98055e-05
4.90803e-05
4.86355e-05
4.84353e-05
4.84667e-05
4.87471e-05
4.93129e-05
5.02123e-05
5.14541e-05
5.29722e-05
5.26661e-05
2.19117e-05
8.48491e-06
4.74187e-06
3.60626e-06
3.35725e-06
3.40572e-06
3.59516e-06
4.71818e-06
6.08054e-07
2.58189e-09
1.73762e-09
4.4123e-07
1.00862e-05
8.20186e-06
6.70765e-06
6.72204e-06
7.54214e-06
8.99903e-06
1.18074e-05
1.71327e-05
2.77551e-05
4.86726e-05
5.22065e-05
5.08346e-05
4.97869e-05
4.90563e-05
4.86048e-05
4.84005e-05
4.8431e-05
4.87116e-05
4.92799e-05
5.01843e-05
5.14569e-05
5.30964e-05
5.32923e-05
2.27706e-05
9.80956e-06
5.00388e-06
3.7102e-06
3.35591e-06
3.30855e-06
3.55557e-06
4.83988e-06
6.12722e-07
2.5801e-09
1.727e-09
4.40071e-07
1.04692e-05
8.2407e-06
6.85159e-06
6.67121e-06
7.43311e-06
9.01938e-06
1.25888e-05
1.77202e-05
2.82744e-05
4.93118e-05
5.24505e-05
5.09503e-05
4.98364e-05
4.90758e-05
4.86106e-05
4.83987e-05
4.84246e-05
4.87026e-05
4.92626e-05
5.01393e-05
5.13258e-05
5.27057e-05
5.19039e-05
2.11037e-05
8.19639e-06
4.70695e-06
3.68969e-06
3.38989e-06
3.3416e-06
3.58344e-06
4.78227e-06
6.12832e-07
2.5919e-09
1.7281e-09
4.39811e-07
1.04518e-05
7.69988e-06
6.64626e-06
6.74528e-06
7.83518e-06
1.02248e-05
1.27527e-05
1.69872e-05
2.69014e-05
4.77717e-05
5.24889e-05
5.09726e-05
4.98394e-05
4.90669e-05
4.85943e-05
4.83849e-05
4.84081e-05
4.8684e-05
4.92412e-05
5.01155e-05
5.13122e-05
5.27414e-05
5.28596e-05
2.15584e-05
8.40149e-06
4.75645e-06
3.68593e-06
3.38654e-06
3.28928e-06
3.56473e-06
4.85116e-06
6.10975e-07
2.57405e-09
1.74313e-09
4.42473e-07
9.95948e-06
7.7126e-06
6.71382e-06
6.84436e-06
7.78055e-06
1.04546e-05
1.311e-05
1.7229e-05
2.78721e-05
4.8278e-05
5.22729e-05
5.0853e-05
4.97853e-05
4.90508e-05
4.85989e-05
4.83956e-05
4.84267e-05
4.87064e-05
4.92817e-05
5.01992e-05
5.1491e-05
5.31134e-05
5.34381e-05
2.17864e-05
8.8277e-06
4.91944e-06
3.73694e-06
3.36767e-06
3.38764e-06
3.66054e-06
4.80212e-06
6.12598e-07
2.58048e-09
1.72393e-09
4.39718e-07
1.02936e-05
8.11127e-06
6.9055e-06
6.99106e-06
7.72361e-06
8.53693e-06
1.09091e-05
1.65118e-05
2.85901e-05
4.92722e-05
5.22816e-05
5.08528e-05
4.97784e-05
4.90358e-05
4.85768e-05
4.83719e-05
4.8401e-05
4.86788e-05
4.9242e-05
5.01299e-05
5.13525e-05
5.28517e-05
5.37429e-05
2.26462e-05
8.61923e-06
4.80528e-06
3.72029e-06
3.38713e-06
3.37956e-06
3.65089e-06
4.6648e-06
6.10732e-07
2.57795e-09
1.71616e-09
4.3677e-07
1.0314e-05
8.13918e-06
6.66228e-06
6.54409e-06
7.33965e-06
9.16914e-06
1.21415e-05
1.69839e-05
2.7683e-05
4.775e-05
5.23774e-05
5.09022e-05
4.97982e-05
4.90407e-05
4.85816e-05
4.83747e-05
4.84142e-05
4.87042e-05
4.92789e-05
5.0184e-05
5.14487e-05
5.3074e-05
5.51401e-05
2.32583e-05
9.84561e-06
5.05692e-06
3.76861e-06
3.43339e-06
3.32106e-06
3.56214e-06
5.07968e-06
6.2561e-07
2.63863e-09
1.72263e-09
4.35783e-07
1.05562e-05
8.16506e-06
6.61407e-06
6.74469e-06
7.47998e-06
9.20666e-06
1.2165e-05
1.71998e-05
2.7466e-05
4.77622e-05
5.23506e-05
5.08979e-05
4.98006e-05
4.90438e-05
4.85809e-05
4.83783e-05
4.84148e-05
4.87114e-05
4.93042e-05
5.02373e-05
5.15176e-05
5.30677e-05
5.27963e-05
2.16763e-05
8.44266e-06
4.82143e-06
3.77078e-06
3.46501e-06
3.39905e-06
3.65365e-06
4.88671e-06
6.26084e-07
2.66501e-09
1.70406e-09
4.34283e-07
9.94311e-06
7.9989e-06
6.91126e-06
6.54857e-06
7.52346e-06
9.30662e-06
1.17784e-05
1.58933e-05
2.58638e-05
4.62268e-05
5.22538e-05
5.08448e-05
4.97697e-05
4.90225e-05
4.85585e-05
4.83437e-05
4.83699e-05
4.86472e-05
4.92087e-05
5.00967e-05
5.13224e-05
5.28178e-05
5.37454e-05
2.28694e-05
8.64655e-06
4.89175e-06
3.75739e-06
3.43752e-06
3.43988e-06
3.64909e-06
4.90918e-06
6.32461e-07
2.6575e-09
1.70769e-09
4.33766e-07
1.01308e-05
7.89467e-06
6.74832e-06
6.80627e-06
7.55606e-06
9.00361e-06
1.15699e-05
1.70946e-05
2.80031e-05
4.7998e-05
5.23148e-05
5.08511e-05
4.97607e-05
4.9013e-05
4.85561e-05
4.83519e-05
4.83827e-05
4.86611e-05
4.92172e-05
5.00713e-05
5.12324e-05
5.26337e-05
5.41951e-05
2.26623e-05
8.46516e-06
4.76723e-06
3.72449e-06
3.43427e-06
3.42916e-06
3.77125e-06
5.18509e-06
6.33011e-07
2.6708e-09
1.73032e-09
4.36916e-07
9.98414e-06
8.2698e-06
6.9478e-06
6.89699e-06
7.30851e-06
8.68018e-06
1.15874e-05
1.64951e-05
2.78644e-05
4.77209e-05
5.22523e-05
5.08106e-05
4.97362e-05
4.90014e-05
4.8552e-05
4.83491e-05
4.83884e-05
4.86787e-05
4.92502e-05
5.01397e-05
5.13405e-05
5.27419e-05
5.31354e-05
2.1275e-05
8.32329e-06
4.79731e-06
3.76754e-06
3.50754e-06
3.51774e-06
3.74838e-06
4.91678e-06
6.39628e-07
2.69739e-09
1.71898e-09
4.37614e-07
1.01897e-05
7.7945e-06
6.62698e-06
6.60171e-06
7.50076e-06
9.15831e-06
1.17454e-05
1.72359e-05
2.77906e-05
4.81445e-05
5.22309e-05
5.07856e-05
4.97009e-05
4.89601e-05
4.85168e-05
4.83235e-05
4.836e-05
4.86388e-05
4.9193e-05
5.00637e-05
5.12696e-05
5.27577e-05
5.43575e-05
2.31329e-05
8.67043e-06
4.84203e-06
3.78113e-06
3.49414e-06
3.43869e-06
3.73634e-06
4.96715e-06
6.36365e-07
2.68036e-09
1.70391e-09
4.34133e-07
1.02455e-05
7.92481e-06
6.77594e-06
6.6925e-06
7.52586e-06
9.62518e-06
1.26918e-05
1.66136e-05
2.59756e-05
4.73185e-05
5.2258e-05
5.07976e-05
4.9711e-05
4.8966e-05
4.85064e-05
4.83006e-05
4.83335e-05
4.86189e-05
4.91946e-05
5.01118e-05
5.14044e-05
5.30416e-05
5.49256e-05
2.26089e-05
8.98449e-06
4.9721e-06
3.77089e-06
3.45445e-06
3.5137e-06
3.86192e-06
5.06771e-06
6.33206e-07
2.67544e-09
1.71601e-09
4.36012e-07
9.98926e-06
7.771e-06
6.9256e-06
6.69827e-06
7.53807e-06
9.32792e-06
1.23405e-05
1.65204e-05
2.70091e-05
4.66664e-05
5.229e-05
5.08377e-05
4.97386e-05
4.8985e-05
4.85333e-05
4.8349e-05
4.83991e-05
4.87079e-05
4.92997e-05
5.0211e-05
5.14486e-05
5.29581e-05
5.38286e-05
2.20322e-05
8.46423e-06
4.87096e-06
3.82976e-06
3.55807e-06
3.57038e-06
3.78272e-06
4.95794e-06
6.3351e-07
2.69167e-09
1.71836e-09
4.38584e-07
1.00749e-05
8.03608e-06
6.77989e-06
6.90663e-06
7.7009e-06
9.03869e-06
1.14564e-05
1.71543e-05
2.69563e-05
4.71699e-05
5.22295e-05
5.0795e-05
4.97134e-05
4.89747e-05
4.85286e-05
4.83425e-05
4.84034e-05
4.87189e-05
4.9322e-05
5.02522e-05
5.15189e-05
5.30279e-05
5.37893e-05
2.23198e-05
8.74643e-06
4.95794e-06
3.85041e-06
3.54045e-06
3.58188e-06
3.71515e-06
4.79448e-06
6.47228e-07
2.72356e-09
1.71983e-09
4.37951e-07
1.01792e-05
7.65033e-06
6.68856e-06
6.83008e-06
7.49105e-06
9.21313e-06
1.22071e-05
1.64911e-05
2.63574e-05
4.63391e-05
5.21425e-05
5.07534e-05
4.96935e-05
4.89668e-05
4.85324e-05
4.83528e-05
4.84127e-05
4.87274e-05
4.9324e-05
5.02344e-05
5.14623e-05
5.29102e-05
5.43586e-05
2.24128e-05
8.59613e-06
4.91603e-06
3.85053e-06
3.49873e-06
3.47535e-06
3.85191e-06
5.26941e-06
6.47787e-07
2.72431e-09
1.72998e-09
4.39039e-07
9.92114e-06
8.00401e-06
6.80134e-06
6.73601e-06
7.94613e-06
9.18451e-06
1.12385e-05
1.66057e-05
2.72214e-05
4.63347e-05
5.22732e-05
5.07904e-05
4.96928e-05
4.89512e-05
4.85138e-05
4.83373e-05
4.84018e-05
4.87235e-05
4.93361e-05
5.02673e-05
5.15126e-05
5.29759e-05
5.43589e-05
2.18796e-05
8.42933e-06
4.81022e-06
3.82731e-06
3.66595e-06
3.66706e-06
3.88498e-06
5.09306e-06
6.48017e-07
2.74629e-09
1.73106e-09
4.41121e-07
9.96661e-06
8.22571e-06
7.01253e-06
7.00072e-06
7.58538e-06
9.10879e-06
1.18848e-05
1.62165e-05
2.66931e-05
4.70226e-05
5.2173e-05
5.0746e-05
4.96801e-05
4.89511e-05
4.85132e-05
4.83345e-05
4.84037e-05
4.87275e-05
4.93376e-05
5.02707e-05
5.15236e-05
5.2985e-05
5.44467e-05
2.24394e-05
8.61556e-06
4.87736e-06
3.82789e-06
3.58724e-06
3.63454e-06
3.80606e-06
4.9574e-06
6.61399e-07
2.77357e-09
1.72953e-09
4.39715e-07
1.01746e-05
7.93731e-06
6.82138e-06
6.80976e-06
8.02291e-06
9.79403e-06
1.22277e-05
1.66796e-05
2.59983e-05
4.57807e-05
5.21995e-05
5.07766e-05
4.96957e-05
4.89548e-05
4.85157e-05
4.83362e-05
4.84007e-05
4.87237e-05
4.93336e-05
5.02619e-05
5.15117e-05
5.30182e-05
5.47224e-05
2.27671e-05
8.61384e-06
4.90258e-06
3.83828e-06
3.55115e-06
3.56587e-06
3.93464e-06
5.35373e-06
6.55764e-07
2.76834e-09
1.72335e-09
4.39206e-07
1.01462e-05
8.19051e-06
7.0363e-06
7.21314e-06
7.90803e-06
9.33316e-06
1.22204e-05
1.67559e-05
2.67109e-05
4.6528e-05
5.24003e-05
5.08535e-05
4.9724e-05
4.89653e-05
4.85151e-05
4.83315e-05
4.8395e-05
4.87157e-05
4.93178e-05
5.02321e-05
5.14638e-05
5.2954e-05
5.46484e-05
2.28231e-05
8.58075e-06
4.87176e-06
3.84699e-06
3.62638e-06
3.64453e-06
3.81936e-06
5.13081e-06
6.61228e-07
2.77062e-09
1.7273e-09
4.39672e-07
1.03671e-05
8.32187e-06
6.75727e-06
6.73119e-06
7.91784e-06
9.81618e-06
1.21863e-05
1.70351e-05
2.72607e-05
4.63689e-05
5.2251e-05
5.0791e-05
4.9697e-05
4.89519e-05
4.85072e-05
4.8324e-05
4.83811e-05
4.86989e-05
4.92997e-05
5.02098e-05
5.14308e-05
5.29081e-05
5.45943e-05
2.25121e-05
8.45728e-06
4.81653e-06
3.85791e-06
3.62155e-06
3.6345e-06
3.84387e-06
5.14093e-06
6.60231e-07
2.78899e-09
1.74122e-09
4.40534e-07
1.02101e-05
7.67059e-06
6.47632e-06
6.6436e-06
7.58676e-06
9.40384e-06
1.22375e-05
1.58875e-05
2.4911e-05
4.48174e-05
5.21692e-05
5.07586e-05
4.96841e-05
4.89475e-05
4.85069e-05
4.83287e-05
4.83958e-05
4.87185e-05
4.93334e-05
5.02652e-05
5.15057e-05
5.29825e-05
5.43341e-05
2.22288e-05
8.55955e-06
4.89992e-06
3.87012e-06
3.59215e-06
3.55655e-06
3.94767e-06
5.40869e-06
6.64154e-07
2.7872e-09
1.73251e-09
4.41991e-07
1.00519e-05
7.97754e-06
6.89682e-06
6.62796e-06
7.55408e-06
8.8855e-06
1.21449e-05
1.76992e-05
2.72941e-05
4.63232e-05
5.23136e-05
5.07891e-05
4.96787e-05
4.89354e-05
4.84985e-05
4.83234e-05
4.83883e-05
4.87141e-05
4.9321e-05
5.02388e-05
5.14526e-05
5.28387e-05
5.41582e-05
2.224e-05
8.6153e-06
4.92477e-06
3.93182e-06
3.68911e-06
3.70026e-06
3.94543e-06
5.30839e-06
6.62879e-07
2.79545e-09
1.73345e-09
4.41561e-07
1.02517e-05
8.23056e-06
6.76175e-06
6.75476e-06
7.4168e-06
9.0447e-06
1.17743e-05
1.68136e-05
2.66998e-05
4.70563e-05
5.22467e-05
5.07479e-05
4.96478e-05
4.89073e-05
4.847e-05
4.82938e-05
4.836e-05
4.86848e-05
4.9286e-05
5.01909e-05
5.13931e-05
5.27996e-05
5.42252e-05
2.14298e-05
8.31071e-06
4.82492e-06
3.86122e-06
3.72275e-06
3.77199e-06
3.98303e-06
5.1491e-06
6.61533e-07
2.77778e-09
1.74899e-09
4.43326e-07
1.0021e-05
7.96245e-06
6.88715e-06
6.70351e-06
7.35528e-06
8.80899e-06
1.16552e-05
1.71401e-05
2.6606e-05
4.593e-05
5.2338e-05
5.0798e-05
4.96775e-05
4.89243e-05
4.84804e-05
4.83061e-05
4.83747e-05
4.86994e-05
4.93124e-05
5.02274e-05
5.14374e-05
5.28519e-05
5.40937e-05
2.16633e-05
8.45411e-06
4.91529e-06
3.91923e-06
3.71541e-06
3.73784e-06
3.91457e-06
5.2685e-06
6.62255e-07
2.7989e-09
1.72974e-09
4.41646e-07
1.02563e-05
8.32251e-06
6.83101e-06
6.64886e-06
7.31319e-06
9.0757e-06
1.13903e-05
1.57615e-05
2.57358e-05
4.55568e-05
5.22036e-05
5.07516e-05
4.96617e-05
4.89168e-05
4.84727e-05
4.82958e-05
4.83699e-05
4.87028e-05
4.93216e-05
5.02633e-05
5.15285e-05
5.30609e-05
5.45309e-05
2.30757e-05
8.6961e-06
4.93189e-06
3.95132e-06
3.73881e-06
3.6896e-06
3.93498e-06
5.27604e-06
6.7462e-07
2.83327e-09
1.73541e-09
4.41253e-07
1.01858e-05
8.26719e-06
6.64005e-06
6.57218e-06
7.67555e-06
8.94427e-06
1.14782e-05
1.6618e-05
2.60768e-05
4.61393e-05
5.23615e-05
5.08395e-05
4.97001e-05
4.89293e-05
4.84733e-05
4.82906e-05
4.83598e-05
4.86918e-05
4.93115e-05
5.02475e-05
5.15053e-05
5.30339e-05
5.41702e-05
2.20543e-05
8.44019e-06
4.90803e-06
3.9205e-06
3.76555e-06
3.78595e-06
4.03107e-06
5.2629e-06
6.71846e-07
2.83337e-09
1.74594e-09
4.42755e-07
9.62849e-06
7.76705e-06
6.9275e-06
6.82753e-06
7.50417e-06
9.30771e-06
1.20238e-05
1.61883e-05
2.58739e-05
4.59006e-05
5.23168e-05
5.0787e-05
4.96602e-05
4.89016e-05
4.84567e-05
4.82855e-05
4.83646e-05
4.87111e-05
4.93504e-05
5.03047e-05
5.15518e-05
5.29618e-05
5.3765e-05
2.20832e-05
8.632e-06
4.99118e-06
3.96108e-06
3.74089e-06
3.77681e-06
4.04102e-06
5.28469e-06
6.76351e-07
2.83746e-09
1.75213e-09
4.45232e-07
1.00036e-05
7.7159e-06
6.72337e-06
7.00021e-06
7.71537e-06
9.06015e-06
1.19606e-05
1.64708e-05
2.58114e-05
4.49534e-05
5.21386e-05
5.0687e-05
4.96033e-05
4.8873e-05
4.8443e-05
4.8278e-05
4.83614e-05
4.87041e-05
4.93318e-05
5.02692e-05
5.15036e-05
5.29224e-05
5.39999e-05
2.19799e-05
8.63711e-06
5.02673e-06
4.0103e-06
3.70294e-06
3.73713e-06
4.0147e-06
5.32686e-06
6.81471e-07
2.88933e-09
1.73036e-09
4.40379e-07
1.02999e-05
8.03054e-06
6.74572e-06
6.69336e-06
7.5807e-06
9.70423e-06
1.2372e-05
1.68261e-05
2.63002e-05
4.56672e-05
5.22323e-05
5.0731e-05
4.96121e-05
4.88558e-05
4.84093e-05
4.82352e-05
4.83131e-05
4.86536e-05
4.9281e-05
5.02195e-05
5.14618e-05
5.29212e-05
5.38124e-05
2.17168e-05
8.51763e-06
5.01731e-06
4.01486e-06
3.78538e-06
3.83811e-06
4.15495e-06
5.45718e-06
6.91931e-07
2.92558e-09
1.75581e-09
4.45175e-07
1.00221e-05
8.11216e-06
6.77083e-06
6.75009e-06
7.80388e-06
1.01153e-05
1.23137e-05
1.62497e-05
2.56148e-05
4.52087e-05
5.22999e-05
5.07971e-05
4.96749e-05
4.89199e-05
4.84806e-05
4.83134e-05
4.83943e-05
4.8733e-05
4.93523e-05
5.02733e-05
5.14812e-05
5.2862e-05
5.38735e-05
2.14904e-05
8.40169e-06
4.92139e-06
3.99495e-06
3.83436e-06
3.83518e-06
4.10106e-06
5.45253e-06
6.88887e-07
2.91852e-09
1.77296e-09
4.49774e-07
9.82707e-06
7.79902e-06
6.81525e-06
6.73172e-06
7.3654e-06
8.88391e-06
1.1518e-05
1.59138e-05
2.53403e-05
4.49745e-05
5.22144e-05
5.07591e-05
4.96697e-05
4.89352e-05
4.85041e-05
4.83391e-05
4.84193e-05
4.87561e-05
4.93755e-05
5.0302e-05
5.15272e-05
5.29535e-05
5.29359e-05
2.08777e-05
8.41492e-06
5.04122e-06
4.12469e-06
3.91438e-06
3.87028e-06
4.07522e-06
5.492e-06
7.05602e-07
2.95965e-09
1.75346e-09
4.47602e-07
1.03516e-05
7.99872e-06
6.50173e-06
6.57267e-06
7.51926e-06
8.90761e-06
1.14326e-05
1.62441e-05
2.59218e-05
4.54763e-05
5.22278e-05
5.07883e-05
4.96991e-05
4.8965e-05
4.85449e-05
4.83952e-05
4.84915e-05
4.88452e-05
4.94834e-05
5.04335e-05
5.16967e-05
5.31957e-05
5.37201e-05
2.15479e-05
8.51285e-06
5.05018e-06
4.13192e-06
3.94178e-06
3.90549e-06
4.10611e-06
5.52122e-06
7.00862e-07
2.93917e-09
1.7477e-09
4.44724e-07
9.81926e-06
7.67372e-06
6.81997e-06
6.82267e-06
7.43664e-06
8.89996e-06
1.18273e-05
1.71558e-05
2.58769e-05
4.48277e-05
5.22299e-05
5.07567e-05
4.96798e-05
4.89638e-05
4.85502e-05
4.84077e-05
4.85169e-05
4.88885e-05
4.95478e-05
5.05119e-05
5.17602e-05
5.31878e-05
5.34871e-05
2.08792e-05
8.41797e-06
5.04473e-06
4.08179e-06
3.94528e-06
4.04914e-06
4.3521e-06
5.69134e-06
6.9715e-07
2.94165e-09
1.76402e-09
4.47859e-07
1.00898e-05
7.93013e-06
6.72752e-06
6.60383e-06
7.61412e-06
9.30076e-06
1.14398e-05
1.65592e-05
2.67134e-05
4.5649e-05
5.23803e-05
5.08345e-05
4.97165e-05
4.89774e-05
4.856e-05
4.8417e-05
4.85256e-05
4.88973e-05
4.95555e-05
5.05245e-05
5.17841e-05
5.3232e-05
5.21641e-05
2.00958e-05
8.20907e-06
4.97785e-06
4.20732e-06
4.07574e-06
4.07412e-06
4.2888e-06
5.47599e-06
7.0442e-07
2.946e-09
1.75229e-09
4.45584e-07
9.97391e-06
8.01611e-06
6.79926e-06
6.88448e-06
7.59018e-06
8.89538e-06
1.1462e-05
1.70599e-05
2.64115e-05
4.5278e-05
5.2314e-05
5.08057e-05
4.96986e-05
4.89585e-05
4.85343e-05
4.8385e-05
4.84869e-05