/*--------------------------------*- C++ -*----------------------------------*\
  =========                 |
  \\      /  F ield         | OpenFOAM: The Open Source CFD Toolbox
   \\    /   O peration     | Website:  https://openfoam.org
    \\  /    A nd           | Version:  13
     \\/     M anipulation  |
\*---------------------------------------------------------------------------*/
FoamFile
{
    format      ascii;
    class       volScalarField;
    location    "6";
    object      omega;
}
// * * * * * * * * * * * * * * * * * * * * * * * * * * * * * * * * * * * * * //

dimensions      [0 0 -1 0 0 0 0];

internalField   nonuniform List<scalar> 
78750
(
678.67
75.4078
15.1502
15.1502
15.1502
15.1502
15.1502
15.1502
15.1502
15.1502
15.1502
15.1502
15.1502
15.1502
15.1502
15.1502
15.1502
15.1502
15.1502
15.1502
15.1502
15.1502
15.1502
15.1502
15.1502
15.1502
15.1502
15.1502
15.1502
15.1502
15.1502
15.1502
15.1502
75.4078
678.67
678.67
75.4078
2.66272
2.66272
3.2204
3.16027
3.17831
3.16816
3.14707
2.66272
2.66272
2.66272
2.66272
2.66272
2.66272
2.66272
2.66272
2.66272
2.66272
3.12144
3.12221
2.66272
2.66272
2.66272
2.66272
2.66272
2.66272
2.66272
2.66272
2.66272
2.66272
2.66272
2.66272
75.4078
678.67
678.67
75.4078
2.66272
2.66272
3.22593
3.16854
3.18925
3.17227
3.13658
3.13717
2.66272
2.66272
2.66272
2.66272
2.66272
2.66272
2.66272
2.66272
2.66272
2.66272
2.66272
2.66272
2.66272
2.66272
2.66272
2.66272
2.66272
3.12422
2.66272
2.66272
2.66272
2.66272
3.17328
75.4078
678.67
678.67
75.4078
2.66272
2.66272
3.12066
3.15004
3.18971
3.16668
3.16277
3.13359
2.66272
2.66272
2.66272
2.66272
2.66272
2.66272
2.66272
2.66272
2.66272
2.66272
2.66272
2.66272
2.66272
2.66272
2.66272
2.66272
3.12041
3.22527
3.32722
3.44252
3.25073
3.20168
3.21608
75.4078
678.67
678.67
75.4078
2.66272
2.66272
3.14294
3.12679
2.66272
2.66272
2.66272
3.14045
2.66272
2.66272
2.66272
2.66272
2.66272
2.66272
2.66272
2.66272
2.66272
2.66272
2.66272
2.66272
2.66272
2.66272
2.66272
2.66272
3.16058
3.24553
3.36054
3.28024
3.22295
3.20747
3.18364
75.4078
678.67
678.67
75.4078
2.66272
2.66272
2.66272
3.12127
2.66272
2.66272
2.66272
3.15285
2.66272
2.66272
2.66272
2.66272
2.66272
2.66272
2.66272
2.66272
2.66272
2.66272
2.66272
2.66272
2.66272
2.66272
2.66272
2.66272
3.17389
3.28877
3.21299
3.18357
3.22399
3.23414
2.66272
75.4078
678.67
678.67
75.4078
2.66272
3.15197
3.15523
3.1467
2.66272
2.66272
2.66272
2.66272
2.66272
2.66272
2.66272
2.66272
2.66272
2.66272
2.66272
2.66272
2.66272
2.66272
2.66272
2.66272
2.66272
2.66272
2.66272
2.66272
3.23506
3.40687
3.57145
3.33486
3.28924
3.28618
3.12671
75.4078
678.67
678.67
75.4078
2.66272
2.66272
3.15719
3.15675
3.13817
2.66272
2.66272
2.66272
2.66272
2.66272
2.66272
2.66272
2.66272
2.66272
2.66272
2.66272
2.66272
2.66272
2.66272
2.66272
2.66272
2.66272
2.66272
2.66272
3.23846
3.38673
3.29401
3.25481
3.29973
3.31908
3.12623
75.4078
678.67
678.67
75.4078
2.66272
2.66272
3.15882
3.16189
3.14034
2.66272
2.66272
2.66272
2.66272
2.66272
2.66272
2.66272
2.66272
2.66272
2.66272
2.66272
2.66272
2.66272
2.66272
2.66272
2.66272
2.66272
2.66272
3.12446
3.26269
3.42939
3.27865
3.24551
3.316
3.35359
3.13369
75.4078
678.67
678.67
75.4078
2.66272
2.66272
3.15101
3.16126
3.13921
3.12205
2.66272
2.66272
2.66272
2.66272
2.66272
2.66272
2.66272
2.66272
2.66272
2.66272
2.66272
2.66272
2.66272
2.66272
2.66272
2.66272
2.66272
3.13965
3.29472
3.49345
3.30156
3.27705
3.34898
3.38815
3.14302
75.4078
678.67
678.67
75.4078
2.66272
2.66272
3.16114
3.1601
3.13998
3.12455
2.66272
2.66272
2.66272
2.66272
2.66272
2.66272
2.66272
2.66272
2.66272
2.66272
2.66272
2.66272
2.66272
2.66272
2.66272
2.66272
2.66272
3.13667
3.25897
3.18057
3.19569
3.27217
3.36543
3.40457
3.13927
75.4078
678.67
678.67
75.4078
2.66272
3.15992
3.17145
3.16444
3.15864
3.17281
3.14899
3.18039
3.13168
2.66272
2.66272
2.66272
2.66272
2.66272
2.66272
2.66272
2.66272
2.66272
2.66272
2.66272
2.66272
2.66272
2.66272
3.16956
3.34515
3.54972
3.3104
3.30585
3.39405
3.42567
3.13268
75.4078
678.67
678.67
75.4078
2.66272
3.1289
3.16514
3.17014
3.19274
3.35083
3.29687
3.22049
3.14976
2.66272
2.66272
2.66272
2.66272
2.66272
2.66272
2.66272
2.66272
2.66272
2.66272
2.66272
2.66272
2.66272
2.66272
2.66272
2.66272
3.14362
3.21171
3.29365
3.40098
3.43988
3.23197
75.4078
678.67
678.67
75.4078
2.66272
2.66272
3.15638
3.1513
3.12285
2.66272
2.66272
2.66272
2.66272
2.66272
2.66272
2.66272
2.66272
2.66272
2.66272
2.66272
2.66272
2.66272
2.66272
2.66272
2.66272
2.66272
2.66272
2.66272
2.66272
3.13809
3.20838
3.31291
3.41483
3.43892
3.2005
75.4078
678.67
678.67
75.4078
2.66272
3.16509
3.1704
3.15898
3.13746
3.12143
2.66272
2.66272
2.66272
2.66272
2.66272
2.66272
2.66272
2.66272
2.66272
2.66272
2.66272
2.66272
2.66272
2.66272
2.66272
2.66272
2.66272
3.12825
3.28802
3.19518
3.22193
3.32151
3.42957
3.44998
3.17047
75.4078
678.67
678.67
75.4078
2.66272
3.17191
3.17679
3.16962
3.16651
3.17597
3.16323
3.13093
3.12035
2.66272
2.66272
2.66272
2.66272
2.66272
2.66272
2.66272
2.66272
2.66272
2.66272
2.66272
2.66272
2.66272
2.66272
2.66272
2.66272
2.66272
3.19251
3.31878
3.43153
3.45125
3.14801
75.4078
678.67
678.67
75.4078
2.66272
3.12555
3.16004
3.16781
3.17471
3.2145
3.2067
3.16238
2.66272
2.66272
2.66272
2.66272
2.66272
2.66272
2.66272
2.66272
2.66272
2.66272
2.66272
2.66272
2.66272
2.66272
2.66272
2.66272
3.16106
3.21011
3.24971
3.34132
3.45098
3.45951
3.1391
75.4078
678.67
678.67
75.4078
2.66272
3.15677
3.17187
3.16233
3.13827
3.12589
3.14713
3.13221
2.66272
2.66272
2.66272
2.66272
2.66272
2.66272
2.66272
2.66272
2.66272
2.66272
2.66272
2.66272
2.66272
2.66272
2.66272
2.66272
3.15789
3.17621
3.23725
3.3481
3.46788
3.4627
3.14387
75.4078
678.67
678.67
75.4078
2.66272
3.13157
3.17545
3.17211
3.14656
2.66272
2.66272
2.66272
2.66272
2.66272
2.66272
2.66272
2.66272
2.66272
2.66272
2.66272
2.66272
2.66272
2.66272
2.66272
2.66272
2.66272
2.66272
3.13461
3.12845
3.1594
3.23184
3.34457
3.46603
3.471
3.14558
75.4078
678.67
678.67
75.4078
2.66272
3.16092
3.18972
3.18188
3.15365
3.13136
3.13099
3.18357
3.14063
2.66272
2.66272
2.66272
2.66272
2.66272
2.66272
2.66272
2.66272
2.66272
2.66272
2.66272
2.66272
2.66272
2.66272
3.12092
3.17111
3.1826
3.24474
3.36287
3.47903
3.472
3.14421
75.4078
678.67
678.67
75.4078
2.66272
2.66272
3.17819
3.17929
3.15408
3.13261
3.12915
3.17736
3.13491
2.66272
2.66272
2.66272
2.66272
2.66272
2.66272
2.66272
2.66272
2.66272
2.66272
2.66272
2.66272
2.66272
2.66272
3.13895
3.12344
3.14639
3.22773
3.35678
3.47997
3.47622
3.14706
75.4078
678.67
678.67
75.4078
2.66272
2.66272
3.17196
3.17737
3.15082
3.13263
3.14062
3.18303
3.1363
2.66272
2.66272
2.66272
2.66272
2.66272
2.66272
2.66272
2.66272
2.66272
2.66272
2.66272
2.66272
2.66272
2.66272
3.14741
3.14522
3.1684
3.24227
3.35515
3.47687
3.49542
3.16262
75.4078
678.67
678.67
75.4078
2.66272
2.66272
3.18059
3.18354
3.16703
3.15524
3.16861
3.143
2.66272
2.66272
2.66272
2.66272
2.66272
2.66272
2.66272
2.66272
2.66272
2.66272
2.66272
2.66272
2.66272
2.66272
2.66272
3.19346
3.35522
3.23403
3.26423
3.38066
3.49882
3.49637
3.15766
75.4078
678.67
678.67
75.4078
2.66272
3.16173
3.18967
3.18577
3.16198
3.15005
3.16546
3.13802
2.66272
2.66272
2.66272
2.66272
2.66272
2.66272
2.66272
2.66272
2.66272
2.66272
2.66272
2.66272
2.66272
2.66272
2.66272
3.19269
3.34989
3.23486
3.26272
3.36649
3.48006
3.48664
3.15325
75.4078
678.67
678.67
75.4078
2.66272
2.66272
3.16763
3.17672
3.15542
3.12858
2.66272
2.66272
2.66272
2.66272
2.66272
2.66272
2.66272
2.66272
2.66272
2.66272
2.66272
2.66272
2.66272
2.66272
2.66272
2.66272
2.66272
2.66272
3.1219
3.16549
3.24899
3.37632
3.49886
3.50705
3.16414
75.4078
678.67
678.67
75.4078
2.66272
2.66272
3.17339
3.17684
3.16138
3.14707
3.13789
3.18367
3.13696
2.66272
2.66272
2.66272
2.66272
2.66272
2.66272
2.66272
2.66272
2.66272
2.66272
2.66272
2.66272
2.66272
2.66272
3.12797
3.18471
3.24959
3.30166
3.39954
3.50903
3.5046
3.15744
75.4078
678.67
678.67
75.4078
2.66272
3.16211
3.18625
3.17886
3.16665
3.16371
3.1535
3.18197
3.12914
2.66272
2.66272
2.66272
2.66272
2.66272
2.66272
2.66272
2.66272
2.66272
2.66272
2.66272
2.66272
2.66272
2.66272
2.66272
3.12574
3.178
3.27467
3.39576
3.51001
3.50799
3.16324
75.4078
678.67
678.67
75.4078
2.66272
2.66272
3.17541
3.18708
3.19295
3.20782
3.17652
3.12851
2.66272
2.66272
2.66272
2.66272
2.66272
2.66272
2.66272
2.66272
2.66272
2.66272
2.66272
2.66272
2.66272
2.66272
2.66272
3.13128
3.19153
3.24391
3.30333
3.4023
3.50408
3.50977
3.16229
75.4078
678.67
678.67
75.4078
2.66272
2.66272
3.1812
3.19451
3.19617
3.22472
3.20849
3.15643
2.66272
2.66272
2.66272
2.66272
2.66272
2.66272
2.66272
2.66272
2.66272
2.66272
2.66272
2.66272
2.66272
2.66272
2.66272
3.20715
3.37886
3.26347
3.29623
3.40302
3.5047
3.50654
3.16782
75.4078
678.67
678.67
75.4078
2.66272
2.66272
3.19478
3.20478
3.17756
3.1684
3.24945
3.21204
3.14653
2.66272
2.66272
2.66272
2.66272
2.66272
2.66272
2.66272
2.66272
2.66272
2.66272
2.66272
2.66272
2.66272
2.66272
3.20589
3.37425
3.26245
3.29746
3.41101
3.52367
3.50873
3.16994
75.4078
678.67
678.67
75.4078
2.66272
3.19665
3.21719
3.22711
3.19003
3.14215
2.66272
2.66272
2.66272
2.66272
2.66272
2.66272
2.66272
2.66272
2.66272
2.66272
2.66272
2.66272
2.66272
2.66272
2.66272
2.66272
2.66272
2.66272
3.12694
3.17416
3.26819
3.40169
3.52251
3.52461
3.17328
75.4078
678.67
678.67
75.4078
2.66272
3.14999
3.21795
3.23598
3.20283
3.15218
2.66272
2.66272
2.66272
2.66272
2.66272
2.66272
2.66272
2.66272
2.66272
2.66272
2.66272
2.66272
2.66272
2.66272
2.66272
2.66272
2.66272
3.13648
3.19406
3.20577
3.27304
3.40188
3.52391
3.52015
3.16593
75.4078
678.67
678.67
75.4078
2.66272
2.66272
3.21425
3.25498
3.23148
3.19448
3.15775
3.13708
2.66272
2.66272
2.66272
2.66272
2.66272
2.66272
2.66272
2.66272
2.66272
2.66272
2.66272
2.66272
2.66272
2.66272
2.66272
2.66272
3.13971
3.18323
3.27055
3.40165
3.52328
3.5204
3.16127
75.4078
678.67
678.67
75.4078
2.66272
3.18168
3.23333
3.26738
3.26691
3.23992
3.19132
3.14327
2.66272
2.66272
2.66272
2.66272
2.66272
2.66272
2.66272
2.66272
2.66272
2.66272
2.66272
2.66272
2.66272
2.66272
2.66272
3.14171
3.19889
3.21367
3.28265
3.40817
3.52835
3.50928
3.16856
75.4078
678.67
678.67
75.4078
2.66272
2.66272
3.20623
3.25617
3.23951
3.16709
3.12157
2.66272
2.66272
2.66272
2.66272
2.66272
2.66272
2.66272
2.66272
2.66272
2.66272
2.66272
2.66272
2.66272
2.66272
2.66272
2.66272
3.13857
3.12299
3.16623
3.26798
3.40679
3.52169
3.52029
3.16055
75.4078
678.67
678.67
75.4078
2.66272
2.66272
3.18035
3.18874
3.20585
3.15353
3.12091
2.66272
2.66272
2.66272
2.66272
2.66272
2.66272
2.66272
2.66272
2.66272
2.66272
2.66272
2.66272
2.66272
2.66272
2.66272
2.66272
2.66272
3.1333
3.18041
3.27396
3.4054
3.53329
3.51757
3.16963
75.4078
678.67
678.67
75.4078
2.66272
2.66272
3.18428
3.17701
3.15533
3.14277
3.14441
3.18256
3.12766
2.66272
2.66272
2.66272
2.66272
2.66272
2.66272
2.66272
2.66272
2.66272
2.66272
2.66272
2.66272
2.66272
2.66272
2.66272
2.66272
3.16947
3.27396
3.4057
3.52327
3.5173
3.16212
75.4078
678.67
678.67
75.4078
2.66272
3.16879
3.1925
3.18832
3.17952
3.20397
3.26785
3.21462
3.14644
2.66272
2.66272
2.66272
2.66272
2.66272
2.66272
2.66272
2.66272
2.66272
2.66272
2.66272
2.66272
2.66272
2.66272
3.14287
3.13106
3.17931
3.28155
3.4153
3.52959
3.51947
3.17082
75.4078
678.67
678.67
75.4078
2.66272
3.18356
3.20056
3.19791
3.21361
3.35527
3.3195
3.23387
3.15852
2.66272
2.66272
2.66272
2.66272
2.66272
2.66272
2.66272
2.66272
2.66272
2.66272
2.66272
2.66272
2.66272
2.66272
3.1455
3.14441
3.18135
3.29295
3.42443
3.54025
3.5259
3.1664
75.4078
678.67
678.67
75.4078
2.66272
3.1693
3.20108
3.19794
3.16366
2.66272
2.66272
3.1693
3.13197
2.66272
2.66272
2.66272
2.66272
2.66272
2.66272
2.66272
2.66272
2.66272
2.66272
2.66272
2.66272
2.66272
2.66272
3.19968
3.37036
3.26683
3.3171
3.44788
3.55037
3.53204
3.17269
75.4078
678.67
678.67
75.4078
2.66272
2.66272
3.19631
3.19913
3.1721
3.15586
3.14849
3.12143
2.66272
2.66272
2.66272
2.66272
2.66272
2.66272
2.66272
2.66272
2.66272
2.66272
2.66272
2.66272
2.66272
2.66272
2.66272
2.66272
3.12346
3.1884
3.30037
3.44729
3.56555
3.54696
3.17931
75.4078
678.67
678.67
75.4078
2.66272
3.14863
3.20193
3.19933
3.17465
3.1644
3.18264
3.14557
2.66272
2.66272
2.66272
2.66272
2.66272
2.66272
2.66272
2.66272
2.66272
2.66272
2.66272
2.66272
2.66272
2.66272
2.66272
2.66272
2.66272
3.1849
3.30114
3.44726
3.58219
3.5687
3.20307
75.4078
678.67
678.67
75.4078
2.66272
2.66272
3.18619
3.19378
3.17226
3.17541
3.26642
3.21872
3.14539
2.66272
2.66272
2.66272
2.66272
2.66272
2.66272
2.66272
2.66272
2.66272
2.66272
2.66272
2.66272
2.66272
2.66272
2.66272
3.15218
3.21235
3.31914
3.4645
3.58798
3.57288
3.20535
75.4078
678.67
678.67
75.4078
2.66272
2.66272
3.1821
3.19179
3.17864
3.17358
3.15735
3.19011
3.13442
2.66272
2.66272
2.66272
2.66272
2.66272
2.66272
2.66272
2.66272
2.66272
2.66272
2.66272
2.66272
2.66272
2.66272
2.66272
3.15273
3.22337
3.33571
3.47125
3.58902
3.58304
3.21031
75.4078
678.67
678.67
75.4078
2.66272
3.12025
3.19844
3.19733
3.18952
3.21754
3.20315
3.15647
2.66272
2.66272
2.66272
2.66272
2.66272
2.66272
2.66272
2.66272
2.66272
2.66272
2.66272
2.66272
2.66272
2.66272
2.66272
2.66272
3.12022
3.1993
3.33244
3.49595
3.61473
3.57253
3.21125
75.4078
678.67
678.67
75.4078
2.66272
2.66272
3.18811
3.18393
3.15291
3.13618
3.15131
3.13698
2.66272
2.66272
2.66272
2.66272
2.66272
2.66272
2.66272
2.66272
2.66272
2.66272
2.66272
2.66272
2.66272
2.66272
2.66272
3.1431
3.14148
3.20688
3.33522
3.49014
3.60687
3.58955
3.21096
75.4078
678.67
678.67
75.4078
2.66272
3.12041
3.19629
3.19028
3.1666
3.17427
3.15795
3.18343
3.13428
2.66272
2.66272
2.66272
2.66272
2.66272
2.66272
2.66272
2.66272
2.66272
2.66272
2.66272
2.66272
2.66272
2.66272
2.66272
3.13547
3.19794
3.33576
3.49677
3.61827
3.57943
3.20858
75.4078
678.67
678.67
75.4078
2.66272
3.18791
3.19997
3.19457
3.20723
3.36467
3.32147
3.24117
3.14626
2.66272
2.66272
2.66272
2.66272
2.66272
2.66272
2.66272
2.66272
2.66272
2.66272
2.66272
2.66272
2.66272
2.66272
3.20382
3.3862
3.29797
3.36507
3.51022
3.63467
3.60072
3.21321
75.4078
678.67
678.67
75.4078
2.66272
3.14408
3.18805
3.17839
3.15725
3.12657
2.66272
3.16973
3.13603
2.66272
2.66272
2.66272
2.66272
2.66272
2.66272
2.66272
2.66272
2.66272
2.66272
2.66272
2.66272
2.66272
2.66272
2.66272
3.13943
3.22105
3.35283
3.5203
3.64199
3.60455
3.2152
75.4078
678.67
678.67
75.4078
2.66272
2.66272
3.16925
3.17696
3.1745
3.1737
3.14473
2.66272
3.12072
2.66272
2.66272
2.66272
2.66272
2.66272
2.66272
2.66272
2.66272
2.66272
2.66272
2.66272
2.66272
2.66272
2.66272
3.15253
3.23044
3.28037
3.38403
3.52774
3.64198
3.62127
3.24206
75.4078
678.67
678.67
75.4078
2.66272
3.2008
3.19805
3.19234
3.19893
3.21719
3.18846
3.14301
3.12441
2.66272
2.66272
2.66272
2.66272
2.66272
2.66272
2.66272
2.66272
2.66272
2.66272
2.66272
2.66272
2.66272
2.66272
3.15326
3.15844
3.24103
3.38021
3.54468
3.67314
3.6263
3.24274
75.4078
678.67
678.67
75.4078
2.66272
3.14934
3.18736
3.20055
3.21481
3.23704
3.20678
3.15601
2.66272
2.66272
2.66272
2.66272
2.66272
2.66272
2.66272
2.66272
2.66272
2.66272
2.66272
2.66272
2.66272
2.66272
2.66272
3.15967
3.16875
3.24878
3.38298
3.54865
3.67404
3.64835
3.24127
75.4078
678.67
678.67
75.4078
2.66272
2.66272
3.18971
3.21923
3.21212
3.17655
3.14151
3.1268
2.66272
2.66272
2.66272
2.66272
2.66272
2.66272
2.66272
2.66272
2.66272
2.66272
2.66272
2.66272
2.66272
2.66272
2.66272
3.156
3.16941
3.2509
3.38427
3.5363
3.65519
3.64749
3.26183
75.4078
678.67
678.67
75.4078
2.66272
3.17675
3.21051
3.25299
3.30968
3.2793
3.20919
3.14751
3.12666
2.66272
2.66272
2.66272
2.66272
2.66272
2.66272
2.66272
2.66272
2.66272
2.66272
2.66272
2.66272
2.66272
2.66272
2.66272
3.14971
3.24507
3.38991
3.55215
3.68458
3.64778
3.24513
75.4078
678.67
678.67
75.4078
2.66272
2.66272
3.18673
3.24092
3.33819
3.31767
3.24714
3.16898
2.66272
2.66272
2.66272
2.66272
2.66272
2.66272
2.66272
2.66272
2.66272
2.66272
2.66272
2.66272
2.66272
2.66272
2.66272
2.66272
3.14733
3.24295
3.38829
3.55023
3.6817
3.64886
3.25772
75.4078
678.67
678.67
75.4078
2.66272
2.66272
3.18489
3.22921
3.3944
3.40637
3.34201
3.23746
3.1427
2.66272
2.66272
2.66272
2.66272
2.66272
2.66272
2.66272
2.66272
2.66272
2.66272
2.66272
2.66272
2.66272
2.66272
2.66272
3.15182
3.25329
3.4073
3.58207
3.69719
3.651
3.25168
75.4078
678.67
678.67
75.4078
2.66272
3.12609
3.1803
3.17064
3.13115
3.12963
3.23024
3.19681
3.13153
2.66272
2.66272
2.66272
2.66272
2.66272
2.66272
2.66272
2.66272
2.66272
2.66272
2.66272
2.66272
2.66272
2.66272
2.66272
3.15982
3.26243
3.41414
3.58637
3.70408
3.65779
3.26648
75.4078
678.67
678.67
75.4078
2.66272
3.16624
3.19376
3.18145
3.15531
3.13051
2.66272
2.66272
2.66272
2.66272
2.66272
2.66272
2.66272
2.66272
2.66272
2.66272
2.66272
2.66272
2.66272
2.66272
2.66272
2.66272
2.66272
3.12212
3.18285
3.28559
3.43237
3.59858
3.71648
3.66602
3.26873
75.4078
678.67
678.67
75.4078
2.66272
2.66272
3.18896
3.1864
3.16129
3.13979
3.12725
2.66272
2.66272
2.66272
2.66272
2.66272
2.66272
2.66272
2.66272
2.66272
2.66272
2.66272
2.66272
2.66272
2.66272
2.66272
2.66272
3.1507
3.16245
3.263
3.42034
3.59064
3.70331
3.6668
3.25722
75.4078
678.67
678.67
75.4078
2.66272
3.18548
3.20605
3.19533
3.16743
3.14175
3.12573
2.66272
2.66272
2.66272
2.66272
2.66272
2.66272
2.66272
2.66272
2.66272
2.66272
2.66272
2.66272
2.66272
2.66272
2.66272
2.66272
3.1473
3.162
3.26134
3.42477
3.60239
3.72359
3.66947
3.25652
75.4078
678.67
678.67
75.4078
2.66272
2.66272
3.18423
3.1902
3.16783
3.14056
3.12435
3.12331
2.66272
2.66272
2.66272
2.66272
2.66272
2.66272
2.66272
2.66272
2.66272
2.66272
2.66272
2.66272
2.66272
2.66272
2.66272
2.66272
3.16228
3.27146
3.42789
3.59772
3.71735
3.69809
3.2872
75.4078
678.67
678.67
75.4078
2.66272
2.66272
3.18349
3.18531
3.16577
3.14498
3.14684
3.19344
3.14512
2.66272
2.66272
2.66272
2.66272
2.66272
2.66272
2.66272
2.66272
2.66272
2.66272
2.66272
2.66272
2.66272
2.66272
2.66272
3.16198
3.27585
3.44014
3.61244
3.73627
3.69884
3.28848
75.4078
678.67
678.67
75.4078
2.66272
3.18772
3.18864
3.18019
3.16297
3.1712
3.27735
3.23487
3.1551
2.66272
2.66272
2.66272
2.66272
2.66272
2.66272
2.66272
2.66272
2.66272
2.66272
2.66272
2.66272
2.66272
2.66272
3.12499
3.17776
3.2889
3.44612
3.61758
3.73757
3.69336
3.28962
75.4078
678.67
678.67
75.4078
2.66272
3.20919
3.20073
3.18717
3.18019
3.20162
3.26236
3.20201
3.13157
2.66272
2.66272
2.66272
2.66272
2.66272
2.66272
2.66272
2.66272
2.66272
2.66272
2.66272
2.66272
2.66272
2.66272
3.12625
3.18044
3.30213
3.46728
3.63748
3.76178
3.7381
3.32449
75.4078
678.67
678.67
75.4078
2.66272
3.15927
3.18656
3.18951
3.2146
3.37086
3.32627
3.24216
3.14557
2.66272
2.66272
2.66272
2.66272
2.66272
2.66272
2.66272
2.66272
2.66272
2.66272
2.66272
2.66272
2.66272
2.66272
3.15747
3.18506
3.30218
3.473
3.65104
3.77075
3.73846
3.32302
75.4078
678.67
678.67
75.4078
2.66272
2.66272
3.18227
3.17194
3.1456
2.66272
2.66272
3.17978
3.14159
2.66272
2.66272
2.66272
2.66272
2.66272
2.66272
2.66272
2.66272
2.66272
2.66272
2.66272
2.66272
2.66272
2.66272
3.12149
3.1813
3.31054
3.48474
3.66154
3.7749
3.72526
3.33229
75.4078
678.67
678.67
75.4078
2.66272
3.19018
3.19936
3.18017
3.15436
3.13661
3.13822
3.19164
3.14112
2.66272
2.66272
2.66272
2.66272
2.66272
2.66272
2.66272
2.66272
2.66272
2.66272
2.66272
2.66272
2.66272
2.66272
3.12673
3.18797
3.32827
3.52013
3.70826
3.81248
3.7542
3.32073
75.4078
678.67
678.67
75.4078
2.66272
2.66272
3.18184
3.17705
3.15453
3.13556
3.13347
3.18523
3.13948
2.66272
2.66272
2.66272
2.66272
2.66272
2.66272
2.66272
2.66272
2.66272
2.66272
2.66272
2.66272
2.66272
2.66272
3.1686
3.20098
3.32963
3.5192
3.7117
3.81623
3.75855
3.34097
75.4078
678.67
678.67
75.4078
2.66272
3.12923
3.19571
3.19051
3.17522
3.16324
3.13368
2.66272
2.66272
2.66272
2.66272
2.66272
2.66272
2.66272
2.66272
2.66272
2.66272
2.66272
2.66272
2.66272
2.66272
2.66272
2.66272
3.13359
3.19922
3.34139
3.53463
3.73233
3.8582
3.79297
3.33626
75.4078
678.67
678.67
75.4078
2.66272
3.19995
3.21072
3.19282
3.17046
3.15773
3.13964
2.66272
2.66272
2.66272
2.66272
2.66272
2.66272
2.66272
2.66272
2.66272
2.66272
2.66272
2.66272
2.66272
2.66272
2.66272
2.66272
3.13231
3.19601
3.33674
3.52436
3.71443
3.83071
3.78911
3.34183
75.4078
678.67
678.67
75.4078
2.66272
2.66272
3.19195
3.19166
3.16283
3.14096
3.13243
2.66272
2.66272
2.66272
2.66272
2.66272
2.66272
2.66272
2.66272
2.66272
2.66272
2.66272
2.66272
2.66272
2.66272
2.66272
2.66272
2.66272
3.18255
3.33183
3.53259
3.73333
3.85574
3.79544
3.34496
75.4078
678.67
678.67
75.4078
2.66272
3.13303
3.20478
3.20295
3.17697
3.1703
3.19274
3.15327
2.66272
2.66272
2.66272
2.66272
2.66272
2.66272
2.66272
2.66272
2.66272
2.66272
2.66272
2.66272
2.66272
2.66272
2.66272
2.66272
3.18669
3.33392
3.5276
3.73375
3.85582
3.77022
3.3409
75.4078
678.67
678.67
75.4078
2.66272
3.20356
3.21499
3.20395
3.17808
3.18316
3.28302
3.22837
3.15346
2.66272
2.66272
2.66272
2.66272
2.66272
2.66272
2.66272
2.66272
2.66272
2.66272
2.66272
2.66272
2.66272
2.66272
2.66272
3.19275
3.34379
3.53853
3.73567
3.85703
3.80131
3.37125
75.4078
678.67
678.67
75.4078
2.66272
3.1323
3.19648
3.19565
3.16938
3.1658
3.2433
3.20319
3.13771
2.66272
2.66272
2.66272
2.66272
2.66272
2.66272
2.66272
2.66272
2.66272
2.66272
2.66272
2.66272
2.66272
2.66272
3.12241
3.19532
3.34543
3.53547
3.72343
3.83887
3.77631
3.366
75.4078
678.67
678.67
75.4078
2.66272
3.21416
3.20443
3.1916
3.16095
3.13556
2.66272
2.66272
2.66272
2.66272
2.66272
2.66272
2.66272
2.66272
2.66272
2.66272
2.66272
2.66272
2.66272
2.66272
2.66272
2.66272
2.66272
3.1827
3.22461
3.36531
3.55167
3.73606
3.85121
3.78916
3.35343
75.4078
678.67
678.67
75.4078
2.66272
3.15731
3.19433
3.19857
3.18432
3.1739
3.16877
3.13815
2.66272
2.66272
2.66272
2.66272
2.66272
2.66272
2.66272
2.66272
2.66272
2.66272
2.66272
2.66272
2.66272
2.66272
2.66272
3.12525
3.21031
3.37603
3.58434
3.77597
3.86563
3.79577
3.35341
75.4078
678.67
678.67
75.4078
2.66272
3.21692
3.2159
3.22252
3.21672
3.17641
3.12757
2.66272
2.66272
2.66272
2.66272
2.66272
2.66272
2.66272
2.66272
2.66272
2.66272
2.66272
2.66272
2.66272
2.66272
2.66272
2.66272
3.14445
3.21531
3.36916
3.57231
3.77578
3.87383
3.80577
3.36088
75.4078
678.67
678.67
75.4078
2.66272
3.20913
3.20807
3.21435
3.20394
3.17073
3.13635
2.66272
3.12109
2.66272
2.66272
2.66272
2.66272
2.66272
2.66272
2.66272
2.66272
2.66272
2.66272
2.66272
2.66272
2.66272
2.66272
3.18606
3.22998
3.38032
3.5853
3.77424
3.87914
3.80485
3.3548
75.4078
678.67
678.67
75.4078
2.66272
2.66272
3.19056
3.19548
3.19538
3.18624
3.16212
3.19228
3.14409
2.66272
2.66272
2.66272
2.66272
2.66272
2.66272
2.66272
2.66272
2.66272
2.66272
2.66272
2.66272
2.66272
2.66272
3.13449
3.22113
3.38462
3.58804
3.79089
3.90478
3.83451
3.39733
75.4078
678.67
678.67
75.4078
2.66272
2.66272
3.19134
3.19144
3.2071
3.35961
3.32737
3.23138
3.14285
2.66272
2.66272
2.66272
2.66272
2.66272
2.66272
2.66272
2.66272
2.66272
2.66272
2.66272
2.66272
2.66272
2.66272
3.15229
3.23588
3.4009
3.60629
3.80459
3.91805
3.84018
3.40196
75.4078
678.67
678.67
75.4078
2.66272
3.15038
3.19483
3.1838
3.16157
3.13276
3.12923
3.18634
3.12811
2.66272
2.66272
2.66272
2.66272
2.66272
2.66272
2.66272
2.66272
2.66272
2.66272
2.66272
2.66272
2.66272
2.66272
3.13928
3.23124
3.40474
3.61768
3.82023
3.93768
3.87079
3.41247
75.4078
678.67
678.67
75.4078
2.66272
3.22019
3.21003
3.18528
3.16251
3.14888
3.14809
3.20059
3.14729
2.66272
2.66272
2.66272
2.66272
2.66272
2.66272
2.66272
2.66272
2.66272
2.66272
2.66272
2.66272
2.66272
2.66272
3.155
3.24547
3.41878
3.62806
3.82963
3.94778
3.88195
3.41675
75.4078
678.67
678.67
75.4078
2.66272
2.66272
3.18725
3.1807
3.15816
3.14159
3.13801
3.18159
3.13166
2.66272
2.66272
2.66272
2.66272
2.66272
2.66272
2.66272
2.66272
2.66272
2.66272
2.66272
2.66272
2.66272
2.66272
3.13593
3.24347
3.43954
3.673
3.88631
4.00084
3.89841
3.43753
75.4078
678.67
678.67
75.4078
2.66272
2.66272
3.19963
3.18136
3.14684
3.13018
3.13339
3.12582
2.66272
2.66272
2.66272
2.66272
2.66272
2.66272
2.66272
2.66272
2.66272
2.66272
2.66272
2.66272
2.66272
2.66272
2.66272
3.13297
3.23518
3.42456
3.65255
3.86813
3.99541
3.93431
3.4618
75.4078
678.67
678.67
75.4078
2.66272
2.66272
3.20037
3.18854
3.16069
3.15182
3.16874
3.14257
2.66272
2.66272
2.66272
2.66272
2.66272
2.66272
2.66272
2.66272
2.66272
2.66272
2.66272
2.66272
2.66272
2.66272
2.66272
3.14484
3.24982
3.43946
3.67145
3.88373
3.97872
3.9035
3.44632
75.4078
678.67
678.67
75.4078
2.66272
2.66272
3.20412
3.19805
3.16414
3.14646
3.16307
3.14225
2.66272
2.66272
2.66272
2.66272
2.66272
2.66272
2.66272
2.66272
2.66272
2.66272
2.66272
2.66272
2.66272
2.66272
2.66272
3.15157
3.25615
3.44372
3.66078
3.86898
4.00844
3.93428
3.46879
75.4078
678.67
678.67
75.4078
2.66272
3.14809
3.2027
3.20276
3.17171
3.13594
2.66272
2.66272
2.66272
2.66272
2.66272
2.66272
2.66272
2.66272
2.66272
2.66272
2.66272
2.66272
2.66272
2.66272
2.66272
2.66272
2.66272
3.13844
3.25008
3.44729
3.67383
3.87953
3.99053
3.91229
3.44385
75.4078
678.67
678.67
75.4078
2.66272
3.21718
3.21002
3.20613
3.17669
3.1598
3.15228
3.12517
2.66272
2.66272
2.66272
2.66272
2.66272
2.66272
2.66272
2.66272
2.66272
2.66272
2.66272
2.66272
2.66272
2.66272
2.66272
3.1483
3.26335
3.4634
3.69309
3.90192
4.01531
3.9381
3.46586
75.4078
678.67
678.67
75.4078
2.66272
3.22458
3.21098
3.20172
3.17866
3.1673
3.18747
3.14612
2.66272
2.66272
2.66272
2.66272
2.66272
2.66272
2.66272
2.66272
2.66272
2.66272
2.66272
2.66272
2.66272
2.66272
3.12341
3.16285
3.27888
3.47638
3.70197
3.9083
4.03007
3.97744
3.47521
75.4078
678.67
678.67
75.4078
2.66272
3.22154
3.20988
3.1948
3.16277
3.16415
3.26442
3.20949
3.14122
2.66272
2.66272
2.66272
2.66272
2.66272
2.66272
2.66272
2.66272
2.66272
2.66272
2.66272
2.66272
2.66272
3.12571
3.16876
3.29735
3.51165
3.74862
3.96248
4.0659
3.98461
3.51063
75.4078
678.67
678.67
75.4078
2.66272
3.21483
3.19297
3.17487
3.14927
3.15162
3.23175
3.19429
3.12709
2.66272
2.66272
2.66272
2.66272
2.66272
2.66272
2.66272
2.66272
2.66272
2.66272
2.66272
2.66272
2.66272
3.12169
3.16421
3.29749
3.51893
3.76222
3.97545
4.07576
3.96782
3.51113
75.4078
678.67
678.67
75.4078
2.66272
3.18519
3.19061
3.17086
3.14047
3.12414
3.12573
3.17511
3.12478
2.66272
2.66272
2.66272
2.66272
2.66272
2.66272
2.66272
2.66272
2.66272
2.66272
2.66272
2.66272
2.66272
3.12268
3.16507
3.29694
3.51946
3.76675
3.9812
4.08639
3.97799
3.52399
75.4078
678.67
678.67
75.4078
2.66272
3.18355
3.20169
3.17757
3.15357
3.14383
3.15491
3.13222
2.66272
2.66272
2.66272
2.66272
2.66272
2.66272
2.66272
2.66272
2.66272
2.66272
2.66272
2.66272
2.66272
2.66272
3.1266
3.17145
3.30712
3.53128
3.78619
4.02456
4.13258
3.99692
3.53273
75.4078
678.67
678.67
75.4078
2.66272
3.14509
3.19281
3.17793
3.15755
3.13943
3.12448
2.66272
2.66272
2.66272
2.66272
2.66272
2.66272
2.66272
2.66272
2.66272
2.66272
2.66272
2.66272
2.66272
2.66272
2.66272
2.66272
3.16845
3.31392
3.54293
3.79355
4.02668
4.13509
4.00008
3.52331
75.4078
678.67
678.67
75.4078
2.66272
3.12298
3.19285
3.18357
3.16861
3.15882
3.13766
2.66272
2.66272
2.66272
2.66272
2.66272
2.66272
2.66272
2.66272
2.66272
2.66272
2.66272
2.66272
2.66272
2.66272
2.66272
2.66272
3.1697
3.31856
3.55128
3.80272
4.01805
4.12389
4.01448
3.51905
75.4078
678.67
678.67
75.4078
2.66272
3.17436
3.20343
3.18979
3.16928
3.14781
3.12603
3.12398
2.66272
2.66272
2.66272
2.66272
2.66272
2.66272
2.66272
2.66272
2.66272
2.66272
2.66272
2.66272
2.66272
2.66272
2.66272
3.17414
3.32385
3.55574
3.80827
4.02753
4.13657
4.03838
3.57704
75.4078
678.67
678.67
75.4078
2.66272
3.21245
3.21259
3.21612
3.21075
3.17998
3.1481
3.1274
2.66272
2.66272
2.66272
2.66272
2.66272
2.66272
2.66272
2.66272
2.66272
2.66272
2.66272
2.66272
2.66272
2.66272
3.13065
3.18444
3.33348
3.56636
3.8181
4.03757
4.14107
4.03971
3.56504
75.4078
678.67
678.67
75.4078
2.66272
2.66272
3.19942
3.23408
3.26606
3.23961
3.18478
3.13618
3.1213
2.66272
2.66272
2.66272
2.66272
2.66272
2.66272
2.66272
2.66272
2.66272
2.66272
2.66272
2.66272
2.66272
2.66272
3.18268
3.33912
3.582
3.84421
4.05195
4.15548
4.04644
3.55105
75.4078
678.67
678.67
75.4078
2.66272
3.12885
3.20308
3.21376
3.24068
3.23118
3.19345
3.14335
2.66272
2.66272
2.66272
2.66272
2.66272
2.66272
2.66272
2.66272
2.66272
2.66272
2.66272
2.66272
2.66272
2.66272
3.13372
3.18659
3.33804
3.57626
3.83439
4.05796
4.15612
4.05073
3.57599
75.4078
678.67
678.67
75.4078
2.66272
3.12483
3.1936
3.18379
3.16605
3.15773
3.14222
2.66272
3.12167
2.66272
2.66272
2.66272
2.66272
2.66272
2.66272
2.66272
2.66272
2.66272
2.66272
2.66272
2.66272
2.66272
3.13736
3.19071
3.34129
3.5793
3.84479
4.06015
4.16586
4.05402
3.55571
75.4078
678.67
678.67
75.4078
2.66272
3.1568
3.19389
3.1875
3.17998
3.20127
3.19333
3.14709
2.66272
2.66272
2.66272
2.66272
2.66272
2.66272
2.66272
2.66272
2.66272
2.66272
2.66272
2.66272
2.66272
2.66272
3.13916
3.19559
3.3509
3.59049
3.84983
4.07579
4.17938
4.06679
3.57062
75.4078
678.67
678.67
75.4078
2.66272
3.2244
3.20475
3.18389
3.15863
3.16449
3.25819
3.20896
3.14118
2.66272
2.66272
2.66272
2.66272
2.66272
2.66272
2.66272
2.66272
2.66272
2.66272
2.66272
2.66272
2.66272
3.12235
3.19093
3.35183
3.59722
3.86212
4.09018
4.20178
4.11224
3.58342
75.4078
678.67
678.67
75.4078
2.66272
2.66272
3.19137
3.18568
3.15682
3.13146
3.12662
3.16671
3.1224
2.66272
2.66272
2.66272
2.66272
2.66272
2.66272
2.66272
2.66272
2.66272
2.66272
2.66272
2.66272
2.66272
3.12778
3.19866
3.36192
3.60565
3.86906
4.10321
4.21421
4.11867
3.5925
75.4078
678.67
678.67
75.4078
2.66272
2.66272
3.19406
3.19692
3.17768
3.16012
3.16303
3.13948
2.66272
2.66272
2.66272
2.66272
2.66272
2.66272
2.66272
2.66272
2.66272
2.66272
2.66272
2.66272
2.66272
2.66272
3.13289
3.20944
3.38546
3.64769
3.92388
4.15137
4.24476
4.13959
3.63072
75.4078
678.67
678.67
75.4078
2.66272
3.14436
3.19312
3.21295
3.20743
3.16646
3.1412
3.17429
3.1326
2.66272
2.66272
2.66272
2.66272
2.66272
2.66272
2.66272
2.66272
2.66272
2.66272
2.66272
2.66272
2.66272
3.12959
3.20206
3.37212
3.63181
3.91649
4.15825
4.25794
4.16008
3.64172
75.4078
678.67
678.67
75.4078
2.66272
3.21065
3.20931
3.22811
3.25901
3.2309
3.16871
3.12069
2.66272
2.66272
2.66272
2.66272
2.66272
2.66272
2.66272
2.66272
2.66272
2.66272
2.66272
2.66272
2.66272
2.66272
3.12317
3.19982
3.37423
3.63316
3.9169
4.17558
4.30201
4.17831
3.67608
75.4078
678.67
678.67
75.4078