/*--------------------------------*- C++ -*----------------------------------*\
  =========                 |
  \\      /  F ield         | OpenFOAM: The Open Source CFD Toolbox
   \\    /   O peration     | Website:  https://openfoam.org
    \\  /    A nd           | Version:  13
     \\/     M anipulation  |
\*---------------------------------------------------------------------------*/
FoamFile
{
    format      ascii;
    class       volScalarField;
    location    "6";
    object      p;
}
// * * * * * * * * * * * * * * * * * * * * * * * * * * * * * * * * * * * * * //

dimensions      [0 2 -2 0 0 0 0];

internalField   nonuniform List<scalar> 
78750
(
0
-5.90072e-06
4.63962e-06
-3.56684e-05
-0.000160472
-0.000364027
-0.000575562
-0.000732332
-0.000846839
-0.000989334
-0.00111855
-0.00121776
-0.00128974
-0.00135707
-0.00141952
-0.00147788
-0.00153252
-0.00158503
-0.00163547
-0.00168431
-0.00173201
-0.00177797
-0.0018223
-0.00186508
-0.00190379
-0.00193871
-0.00196012
-0.00197077
-0.00195327
-0.00191687
-0.00183632
-0.00172777
-0.0016166
-0.00144777
-0.00128486
-0.146596
-0.146611
-0.146656
-0.146762
-0.146905
-0.147021
-0.147169
-0.147283
-0.14736
-0.147429
-0.147492
-0.147521
-0.147518
-0.147501
-0.147483
-0.147468
-0.147459
-0.147457
-0.147462
-0.147473
-0.14749
-0.147513
-0.14754
-0.147571
-0.147605
-0.147642
-0.147677
-0.147692
-0.147685
-0.147646
-0.147584
-0.147501
-0.147385
-0.147268
-0.147186
-0.292765
-0.292776
-0.292807
-0.292866
-0.292943
-0.292981
-0.292981
-0.292978
-0.292964
-0.292943
-0.292915
-0.292896
-0.292887
-0.29288
-0.292879
-0.292885
-0.292895
-0.29291
-0.29293
-0.292953
-0.292979
-0.293008
-0.293039
-0.293071
-0.293103
-0.293136
-0.293168
-0.293186
-0.293188
-0.293178
-0.293151
-0.293102
-0.293031
-0.292956
-0.292911
-0.438449
-0.438453
-0.438459
-0.438478
-0.438499
-0.438516
-0.438529
-0.438534
-0.438536
-0.438534
-0.438528
-0.438527
-0.438529
-0.438533
-0.438538
-0.438544
-0.438551
-0.43856
-0.43857
-0.438581
-0.438594
-0.438607
-0.438622
-0.438638
-0.438657
-0.438675
-0.438689
-0.438701
-0.438694
-0.438682
-0.438659
-0.438631
-0.438591
-0.438545
-0.438517
-0.583943
-0.583945
-0.583945
-0.583953
-0.583965
-0.583973
-0.583978
-0.58398
-0.583978
-0.583971
-0.583961
-0.583955
-0.583955
-0.583957
-0.583963
-0.583971
-0.583981
-0.583994
-0.58401
-0.584028
-0.584048
-0.584071
-0.584095
-0.584125
-0.584157
-0.584188
-0.584214
-0.584237
-0.584244
-0.584249
-0.584241
-0.584222
-0.584193
-0.584161
-0.584143
-0.729319
-0.72932
-0.729318
-0.729322
-0.729327
-0.729331
-0.729334
-0.729336
-0.729335
-0.729333
-0.729329
-0.729329
-0.729333
-0.729339
-0.729347
-0.729356
-0.729368
-0.72938
-0.729395
-0.729411
-0.729428
-0.729448
-0.72947
-0.729492
-0.729515
-0.729539
-0.729558
-0.729573
-0.729582
-0.729583
-0.729577
-0.729564
-0.729546
-0.729526
-0.729518
-0.874592
-0.874593
-0.87459
-0.874592
-0.874597
-0.8746
-0.874602
-0.874604
-0.874604
-0.874601
-0.874598
-0.874597
-0.8746
-0.874604
-0.87461
-0.874617
-0.874625
-0.874634
-0.874643
-0.874654
-0.874664
-0.874674
-0.874686
-0.874697
-0.874707
-0.874718
-0.874725
-0.874728
-0.874725
-0.874719
-0.874711
-0.874701
-0.87469
-0.874677
-0.874669
-1.01982
-1.01982
-1.01982
-1.01983
-1.01983
-1.01983
-1.01984
-1.01984
-1.01984
-1.01984
-1.01984
-1.01985
-1.01986
-1.01987
-1.01988
-1.0199
-1.01991
-1.01993
-1.01995
-1.01997
-1.01999
-1.02001
-1.02004
-1.02007
-1.02009
-1.02012
-1.02014
-1.02015
-1.02017
-1.02017
-1.02017
-1.02017
-1.02016
-1.02014
-1.02013
-1.16496
-1.16496
-1.16496
-1.16496
-1.16497
-1.16497
-1.16498
-1.16498
-1.16498
-1.16499
-1.16499
-1.165
-1.16502
-1.16503
-1.16505
-1.16507
-1.16509
-1.16511
-1.16514
-1.16517
-1.1652
-1.16523
-1.16527
-1.16531
-1.16536
-1.1654
-1.16544
-1.16546
-1.16549
-1.1655
-1.1655
-1.1655
-1.16549
-1.16548
-1.16547
-1.31005
-1.31005
-1.31005
-1.31005
-1.31006
-1.31006
-1.31006
-1.31007
-1.31007
-1.31008
-1.31008
-1.31009
-1.3101
-1.31012
-1.31014
-1.31016
-1.31018
-1.3102
-1.31022
-1.31025
-1.31028
-1.31031
-1.31034
-1.31038
-1.31042
-1.31046
-1.31049
-1.31051
-1.31053
-1.31054
-1.31054
-1.31054
-1.31053
-1.31052
-1.31052
-1.45508
-1.45508
-1.45508
-1.45508
-1.45509
-1.45509
-1.45509
-1.45509
-1.4551
-1.4551
-1.4551
-1.45511
-1.45512
-1.45513
-1.45515
-1.45516
-1.45518
-1.4552
-1.45522
-1.45524
-1.45526
-1.45529
-1.45531
-1.45534
-1.45537
-1.4554
-1.45542
-1.45543
-1.45544
-1.45545
-1.45545
-1.45545
-1.45545
-1.45543
-1.45544
-1.60003
-1.60003
-1.60003
-1.60003
-1.60003
-1.60004
-1.60004
-1.60004
-1.60004
-1.60005
-1.60005
-1.60006
-1.60007
-1.60008
-1.60009
-1.6001
-1.60011
-1.60013
-1.60014
-1.60016
-1.60017
-1.60019
-1.6002
-1.60022
-1.60024
-1.60026
-1.60027
-1.60028
-1.60028
-1.60029
-1.60029
-1.60028
-1.60028
-1.60028
-1.60029
-1.74493
-1.74494
-1.74493
-1.74494
-1.74495
-1.74495
-1.74496
-1.74496
-1.74496
-1.74497
-1.74497
-1.74497
-1.74498
-1.74499
-1.745
-1.74501
-1.74502
-1.74503
-1.74504
-1.74505
-1.74506
-1.74507
-1.74509
-1.7451
-1.74511
-1.74512
-1.74513
-1.74513
-1.74513
-1.74513
-1.74512
-1.74513
-1.74513
-1.74511
-1.74511
-1.88982
-1.88982
-1.88982
-1.88983
-1.88984
-1.88984
-1.88985
-1.88985
-1.88985
-1.88985
-1.88986
-1.88986
-1.88987
-1.88988
-1.88989
-1.8899
-1.88991
-1.88992
-1.88993
-1.88995
-1.88996
-1.88997
-1.88999
-1.89001
-1.89002
-1.89004
-1.89005
-1.89005
-1.89006
-1.89006
-1.89006
-1.89004
-1.89004
-1.89003
-1.89004
-2.03471
-2.03472
-2.03472
-2.03471
-2.03471
-2.03471
-2.03471
-2.03472
-2.03472
-2.03472
-2.03472
-2.03473
-2.03473
-2.03474
-2.03474
-2.03475
-2.03476
-2.03477
-2.03478
-2.03479
-2.0348
-2.03481
-2.03482
-2.03483
-2.03484
-2.03486
-2.03486
-2.03487
-2.03487
-2.03487
-2.03488
-2.03487
-2.03487
-2.03487
-2.03488
-2.17956
-2.17956
-2.17955
-2.17955
-2.17955
-2.17955
-2.17955
-2.17955
-2.17955
-2.17955
-2.17955
-2.17956
-2.17956
-2.17957
-2.17957
-2.17958
-2.17958
-2.17959
-2.17959
-2.1796
-2.1796
-2.17961
-2.17962
-2.17962
-2.17963
-2.17963
-2.17964
-2.17963
-2.17963
-2.17963
-2.17964
-2.17965
-2.17966
-2.17966
-2.17967
-2.32434
-2.32434
-2.32434
-2.32434
-2.32434
-2.32435
-2.32435
-2.32436
-2.32436
-2.32436
-2.32436
-2.32436
-2.32437
-2.32437
-2.32438
-2.32438
-2.32438
-2.32439
-2.32439
-2.3244
-2.3244
-2.32441
-2.32441
-2.32442
-2.32442
-2.32443
-2.32443
-2.32443
-2.32443
-2.32443
-2.32443
-2.32442
-2.32442
-2.32442
-2.32442
-2.46914
-2.46914
-2.46915
-2.46915
-2.46915
-2.46915
-2.46915
-2.46915
-2.46915
-2.46915
-2.46916
-2.46916
-2.46916
-2.46916
-2.46917
-2.46917
-2.46917
-2.46917
-2.46917
-2.46918
-2.46918
-2.46918
-2.46918
-2.46918
-2.46918
-2.46918
-2.46917
-2.46917
-2.46917
-2.46917
-2.46916
-2.46916
-2.46915
-2.46916
-2.46917
-2.61395
-2.61396
-2.61396
-2.61396
-2.61396
-2.61395
-2.61395
-2.61395
-2.61395
-2.61395
-2.61395
-2.61395
-2.61396
-2.61396
-2.61396
-2.61396
-2.61397
-2.61397
-2.61397
-2.61397
-2.61398
-2.61398
-2.61398
-2.61399
-2.61399
-2.61399
-2.61399
-2.61399
-2.61399
-2.61399
-2.61399
-2.61398
-2.61397
-2.61396
-2.61397
-2.75873
-2.75873
-2.75873
-2.75872
-2.75872
-2.75872
-2.75872
-2.75872
-2.75872
-2.75872
-2.75872
-2.75872
-2.75872
-2.75872
-2.75873
-2.75873
-2.75873
-2.75873
-2.75873
-2.75874
-2.75874
-2.75874
-2.75875
-2.75875
-2.75876
-2.75876
-2.75876
-2.75876
-2.75876
-2.75876
-2.75876
-2.75876
-2.75876
-2.75875
-2.75876
-2.90348
-2.90348
-2.90348
-2.90347
-2.90347
-2.90347
-2.90347
-2.90347
-2.90347
-2.90347
-2.90347
-2.90347
-2.90347
-2.90347
-2.90348
-2.90348
-2.90348
-2.90348
-2.90348
-2.90348
-2.90348
-2.90348
-2.90348
-2.90349
-2.90349
-2.90349
-2.90349
-2.90348
-2.90348
-2.90349
-2.9035
-2.90352
-2.90353
-2.90353
-2.90353
-3.04818
-3.04818
-3.04817
-3.04817
-3.04818
-3.04818
-3.04818
-3.04819
-3.0482
-3.0482
-3.0482
-3.0482
-3.04821
-3.04821
-3.04822
-3.04822
-3.04823
-3.04823
-3.04824
-3.04824
-3.04825
-3.04825
-3.04826
-3.04826
-3.04827
-3.04827
-3.04828
-3.04827
-3.04827
-3.04828
-3.04828
-3.04827
-3.04826
-3.04827
-3.04828
-3.19288
-3.19289
-3.19289
-3.19289
-3.1929
-3.1929
-3.1929
-3.1929
-3.1929
-3.19291
-3.19291
-3.19291
-3.19292
-3.19292
-3.19293
-3.19293
-3.19294
-3.19294
-3.19294
-3.19295
-3.19295
-3.19296
-3.19296
-3.19297
-3.19297
-3.19298
-3.19298
-3.19298
-3.19298
-3.19297
-3.19297
-3.19296
-3.19296
-3.19294
-3.19295
-3.33764
-3.33765
-3.33765
-3.33765
-3.33765
-3.33765
-3.33765
-3.33765
-3.33764
-3.33764
-3.33764
-3.33764
-3.33764
-3.33765
-3.33765
-3.33765
-3.33765
-3.33766
-3.33766
-3.33766
-3.33766
-3.33767
-3.33767
-3.33768
-3.33768
-3.33769
-3.33769
-3.33769
-3.33769
-3.3377
-3.33771
-3.33772
-3.33772
-3.3377
-3.33771
-3.48231
-3.48232
-3.48231
-3.48231
-3.48231
-3.48231
-3.48231
-3.48231
-3.48232
-3.48232
-3.48232
-3.48232
-3.48233
-3.48233
-3.48234
-3.48234
-3.48234
-3.48235
-3.48235
-3.48236
-3.48237
-3.48237
-3.48238
-3.48239
-3.4824
-3.4824
-3.48241
-3.48241
-3.48241
-3.48241
-3.48241
-3.48241
-3.48241
-3.48241
-3.48242
-3.62697
-3.62697
-3.62697
-3.62696
-3.62696
-3.62696
-3.62697
-3.62697
-3.62698
-3.62698
-3.62698
-3.62699
-3.62699
-3.627
-3.627
-3.62701
-3.62701
-3.62701
-3.62702
-3.62702
-3.62703
-3.62703
-3.62704
-3.62704
-3.62705
-3.62705
-3.62706
-3.62705
-3.62705
-3.62705
-3.62705
-3.62705
-3.62705
-3.62703
-3.62704
-3.77164
-3.77165
-3.77165
-3.77165
-3.77165
-3.77166
-3.77166
-3.77166
-3.77166
-3.77165
-3.77165
-3.77166
-3.77166
-3.77166
-3.77166
-3.77166
-3.77167
-3.77167
-3.77167
-3.77167
-3.77168
-3.77168
-3.77168
-3.77168
-3.77169
-3.77169
-3.77169
-3.77169
-3.77168
-3.77168
-3.77169
-3.7717
-3.77172
-3.77171
-3.77174
-3.91628
-3.91628
-3.91628
-3.91629
-3.91629
-3.91629
-3.91629
-3.91629
-3.91629
-3.91629
-3.91628
-3.91629
-3.91629
-3.91629
-3.91629
-3.91629
-3.9163
-3.9163
-3.9163
-3.91631
-3.91631
-3.91631
-3.91632
-3.91632
-3.91633
-3.91633
-3.91633
-3.91633
-3.91632
-3.91633
-3.91634
-3.91632
-3.91632
-3.91632
-3.91633
-4.06091
-4.06092
-4.06091
-4.06091
-4.06091
-4.06091
-4.06091
-4.06091
-4.06091
-4.06092
-4.06092
-4.06092
-4.06092
-4.06092
-4.06092
-4.06092
-4.06092
-4.06093
-4.06093
-4.06093
-4.06094
-4.06094
-4.06094
-4.06095
-4.06095
-4.06096
-4.06096
-4.06096
-4.06096
-4.06096
-4.06095
-4.06095
-4.06094
-4.06093
-4.06095
-4.20551
-4.20552
-4.20551
-4.20551
-4.20551
-4.20551
-4.20552
-4.20552
-4.20552
-4.20552
-4.20553
-4.20553
-4.20553
-4.20554
-4.20554
-4.20555
-4.20555
-4.20556
-4.20556
-4.20556
-4.20557
-4.20557
-4.20558
-4.20558
-4.20559
-4.2056
-4.20561
-4.20561
-4.20561
-4.20561
-4.20562
-4.20563
-4.20563
-4.2056
-4.20561
-4.35009
-4.3501
-4.35009
-4.35009
-4.35009
-4.35009
-4.35009
-4.3501
-4.3501
-4.3501
-4.35011
-4.35011
-4.35012
-4.35012
-4.35013
-4.35014
-4.35014
-4.35015
-4.35015
-4.35016
-4.35016
-4.35017
-4.35017
-4.35018
-4.35018
-4.35019
-4.35019
-4.35019
-4.35019
-4.35019
-4.35019
-4.35019
-4.35019
-4.35019
-4.35022
-4.49472
-4.49472
-4.49472
-4.49472
-4.49472
-4.49472
-4.49472
-4.49472
-4.49472
-4.49472
-4.49472
-4.49472
-4.49473
-4.49473
-4.49473
-4.49473
-4.49474
-4.49474
-4.49474
-4.49474
-4.49475
-4.49475
-4.49475
-4.49475
-4.49475
-4.49476
-4.49475
-4.49475
-4.49475
-4.49475
-4.49475
-4.49475
-4.49474
-4.49472
-4.49474
-4.63935
-4.63935
-4.63934
-4.63935
-4.63936
-4.63936
-4.63936
-4.63935
-4.63935
-4.63935
-4.63935
-4.63935
-4.63935
-4.63935
-4.63935
-4.63935
-4.63935
-4.63935
-4.63935
-4.63935
-4.63936
-4.63936
-4.63936
-4.63936
-4.63936
-4.63936
-4.63936
-4.63935
-4.63935
-4.63936
-4.63936
-4.63937
-4.63938
-4.63937
-4.63939
-4.78389
-4.7839
-4.7839
-4.7839
-4.78389
-4.78389
-4.7839
-4.7839
-4.7839
-4.7839
-4.7839
-4.7839
-4.78391
-4.78391
-4.78391
-4.78391
-4.78392
-4.78392
-4.78392
-4.78393
-4.78393
-4.78393
-4.78394
-4.78394
-4.78395
-4.78396
-4.78396
-4.78396
-4.78395
-4.78395
-4.78396
-4.78395
-4.78395
-4.78393
-4.78394
-4.92845
-4.92846
-4.92846
-4.92845
-4.92845
-4.92845
-4.92845
-4.92845
-4.92846
-4.92846
-4.92846
-4.92847
-4.92847
-4.92848
-4.92848
-4.92848
-4.92849
-4.92849
-4.92849
-4.9285
-4.9285
-4.9285
-4.92851
-4.92851
-4.92852
-4.92852
-4.92852
-4.92852
-4.92851
-4.92852
-4.92852
-4.92851
-4.92851
-4.92849
-4.9285
-5.07304
-5.07305
-5.07304
-5.07305
-5.07306
-5.07306
-5.07306
-5.07306
-5.07305
-5.07305
-5.07305
-5.07305
-5.07306
-5.07306
-5.07306
-5.07306
-5.07306
-5.07307
-5.07307
-5.07307
-5.07308
-5.07308
-5.07308
-5.07309
-5.0731
-5.0731
-5.0731
-5.0731
-5.0731
-5.07311
-5.07312
-5.07313
-5.07314
-5.07311
-5.07312
-5.21759
-5.2176
-5.2176
-5.21759
-5.21759
-5.21759
-5.2176
-5.2176
-5.2176
-5.2176
-5.2176
-5.2176
-5.2176
-5.21761
-5.21761
-5.21761
-5.21761
-5.21762
-5.21762
-5.21762
-5.21762
-5.21763
-5.21763
-5.21763
-5.21763
-5.21764
-5.21764
-5.21763
-5.21763
-5.21763
-5.21763
-5.21764
-5.21765
-5.21765
-5.21767
-5.36213
-5.36214
-5.36213
-5.36212
-5.36212
-5.36212
-5.36213
-5.36213
-5.36213
-5.36213
-5.36213
-5.36214
-5.36214
-5.36214
-5.36215
-5.36215
-5.36216
-5.36216
-5.36216
-5.36217
-5.36217
-5.36217
-5.36217
-5.36217
-5.36218
-5.36218
-5.36218
-5.36217
-5.36217
-5.36216
-5.36217
-5.36216
-5.36215
-5.36212
-5.36212
-5.50662
-5.50663
-5.50663
-5.50664
-5.50665
-5.50666
-5.50666
-5.50666
-5.50666
-5.50667
-5.50667
-5.50667
-5.50668
-5.50668
-5.50669
-5.50669
-5.5067
-5.5067
-5.50671
-5.50671
-5.50672
-5.50672
-5.50673
-5.50673
-5.50674
-5.50675
-5.50675
-5.50675
-5.50675
-5.50676
-5.50677
-5.50676
-5.50677
-5.50677
-5.5068
-5.6512
-5.65121
-5.65121
-5.65121
-5.65121
-5.65121
-5.6512
-5.65121
-5.65121
-5.65121
-5.65121
-5.65122
-5.65122
-5.65123
-5.65123
-5.65124
-5.65124
-5.65125
-5.65125
-5.65126
-5.65126
-5.65127
-5.65127
-5.65128
-5.65128
-5.65129
-5.65129
-5.65129
-5.65129
-5.65129
-5.65129
-5.65129
-5.65131
-5.65131
-5.65134
-5.79577
-5.79577
-5.79576
-5.79576
-5.79575
-5.79576
-5.79576
-5.79576
-5.79576
-5.79576
-5.79576
-5.79577
-5.79577
-5.79577
-5.79577
-5.79578
-5.79578
-5.79578
-5.79579
-5.79579
-5.79579
-5.7958
-5.7958
-5.79581
-5.79581
-5.79582
-5.79582
-5.79582
-5.79582
-5.79582
-5.79583
-5.79584
-5.79582
-5.79581
-5.79585
-5.94027
-5.94029
-5.94029
-5.94029
-5.94029
-5.94029
-5.9403
-5.9403
-5.9403
-5.9403
-5.9403
-5.9403
-5.9403
-5.9403
-5.9403
-5.94031
-5.94031
-5.94031
-5.94032
-5.94032
-5.94032
-5.94033
-5.94033
-5.94033
-5.94034
-5.94035
-5.94035
-5.94034
-5.94034
-5.94034
-5.94034
-5.94034
-5.94035
-5.94033
-5.94036
-6.08479
-6.08479
-6.08477
-6.08478
-6.08477
-6.08478
-6.08478
-6.08478
-6.08478
-6.08478
-6.08478
-6.08479
-6.08479
-6.0848
-6.0848
-6.08481
-6.08481
-6.08482
-6.08482
-6.08482
-6.08483
-6.08483
-6.08483
-6.08484
-6.08484
-6.08484
-6.08484
-6.08483
-6.08483
-6.08483
-6.08483
-6.08483
-6.08483
-6.08481
-6.08482
-6.22931
-6.22931
-6.22931
-6.22932
-6.22931
-6.22931
-6.22931
-6.22931
-6.22931
-6.22932
-6.22932
-6.22932
-6.22932
-6.22933
-6.22933
-6.22934
-6.22934
-6.22935
-6.22935
-6.22935
-6.22936
-6.22936
-6.22937
-6.22937
-6.22938
-6.22939
-6.22939
-6.22938
-6.22938
-6.22939
-6.2294
-6.2294
-6.22941
-6.2294
-6.22943
-6.37383
-6.37384
-6.37384
-6.37384
-6.37384
-6.37384
-6.37384
-6.37384
-6.37384
-6.37384
-6.37384
-6.37384
-6.37384
-6.37384
-6.37384
-6.37385
-6.37385
-6.37386
-6.37386
-6.37387
-6.37387
-6.37388
-6.37388
-6.37389
-6.3739
-6.37391
-6.37391
-6.37391
-6.3739
-6.37391
-6.37391
-6.3739
-6.37391
-6.37389
-6.3739
-6.51831
-6.51832
-6.51831
-6.51831
-6.51831
-6.51832
-6.51832
-6.51833
-6.51833
-6.51833
-6.51833
-6.51833
-6.51834
-6.51834
-6.51834
-6.51835
-6.51835
-6.51836
-6.51836
-6.51836
-6.51837
-6.51837
-6.51837
-6.51838
-6.51838
-6.51839
-6.51839
-6.51838
-6.51838
-6.51838
-6.51838
-6.51838
-6.51838
-6.51836
-6.51837
-6.66282
-6.66284
-6.66283
-6.66283
-6.66283
-6.66283
-6.66284
-6.66284
-6.66284
-6.66285
-6.66285
-6.66285
-6.66286
-6.66286
-6.66287
-6.66287
-6.66287
-6.66288
-6.66288
-6.66289
-6.66289
-6.6629
-6.6629
-6.66291
-6.66292
-6.66292
-6.66292
-6.66292
-6.66292
-6.66293
-6.66294
-6.66294
-6.66295
-6.66292
-6.66294
-6.80733
-6.80735
-6.80734
-6.80734
-6.80734
-6.80734
-6.80734
-6.80734
-6.80734
-6.80734
-6.80734
-6.80734
-6.80735
-6.80736
-6.80736
-6.80736
-6.80737
-6.80737
-6.80738
-6.80738
-6.80739
-6.80739
-6.8074
-6.8074
-6.80741
-6.80742
-6.80743
-6.80743
-6.80742
-6.80742
-6.80742
-6.80742
-6.80742
-6.80739
-6.8074
-6.95186
-6.95187
-6.95186
-6.95186
-6.95186
-6.95186
-6.95186
-6.95186
-6.95186
-6.95186
-6.95186
-6.95186
-6.95186
-6.95187
-6.95187
-6.95187
-6.95188
-6.95188
-6.95188
-6.95188
-6.95189
-6.95189
-6.95189
-6.9519
-6.95191
-6.95191
-6.95191
-6.95191
-6.95191
-6.95191
-6.95192
-6.95193
-6.95194
-6.95188
-6.95188
-7.09632
-7.09633
-7.09632
-7.09632
-7.09633
-7.09634
-7.09634
-7.09635
-7.09635
-7.09635
-7.09635
-7.09635
-7.09636
-7.09636
-7.09637
-7.09637
-7.09638
-7.09638
-7.09638
-7.09639
-7.09639
-7.09639
-7.0964
-7.0964
-7.09641
-7.09641
-7.09641
-7.09641
-7.09641
-7.09641
-7.09642
-7.09642
-7.09642
-7.09642
-7.09647
-7.2408
-7.24081
-7.2408
-7.24081
-7.24081
-7.24082
-7.24082
-7.24083
-7.24083
-7.24084
-7.24084
-7.24084
-7.24085
-7.24086
-7.24086
-7.24087
-7.24088
-7.24088
-7.24089
-7.24089
-7.2409
-7.2409
-7.24091
-7.24091
-7.24092
-7.24093
-7.24093
-7.24093
-7.24092
-7.24093
-7.24092
-7.24092
-7.24093
-7.24091
-7.24093
-7.38534
-7.38536
-7.38536
-7.38536
-7.38536
-7.38536
-7.38536
-7.38536
-7.38536
-7.38536
-7.38536
-7.38536
-7.38537
-7.38537
-7.38538
-7.38538
-7.38539
-7.38539
-7.3854
-7.3854
-7.38541
-7.38541
-7.38542
-7.38542
-7.38544
-7.38545
-7.38545
-7.38544
-7.38544
-7.38545
-7.38546
-7.38546
-7.38548
-7.38542
-7.38545
-7.52984
-7.52986
-7.52986
-7.52986
-7.52986
-7.52986
-7.52986
-7.52986
-7.52986
-7.52986
-7.52986
-7.52986
-7.52986
-7.52987
-7.52987
-7.52988
-7.52988
-7.52989
-7.52989
-7.5299
-7.5299
-7.52991
-7.52991
-7.52992
-7.52993
-7.52994
-7.52994
-7.52993
-7.52993
-7.52994
-7.52994
-7.52995
-7.52994
-7.52995
-7.52999
-7.67431
-7.67432
-7.67431
-7.67431
-7.67431
-7.67432
-7.67432
-7.67432
-7.67432
-7.67433
-7.67433
-7.67433
-7.67434
-7.67435
-7.67435
-7.67436
-7.67436
-7.67437
-7.67437
-7.67438
-7.67438
-7.67439
-7.6744
-7.6744
-7.67441
-7.67442
-7.67442
-7.67441
-7.67441
-7.67441
-7.67441
-7.67441
-7.67443
-7.67439
-7.67443
-7.81882
-7.81883
-7.81882
-7.81882
-7.81882
-7.81882
-7.81882
-7.81882
-7.81882
-7.81882
-7.81882
-7.81883
-7.81883
-7.81884
-7.81884
-7.81885
-7.81885
-7.81886
-7.81886
-7.81887
-7.81888
-7.81888
-7.81889
-7.81889
-7.81891
-7.81892
-7.81892
-7.81891
-7.81891
-7.81891
-7.81892
-7.81891
-7.81893
-7.81893
-7.81896
-7.96331
-7.96332
-7.9633
-7.9633
-7.96331
-7.96331
-7.96331
-7.96332
-7.96332
-7.96332
-7.96332
-7.96333
-7.96333
-7.96334
-7.96334
-7.96335
-7.96336
-7.96336
-7.96337
-7.96338
-7.96338
-7.96339
-7.9634
-7.96341
-7.96342
-7.96343
-7.96343
-7.96343
-7.96343
-7.96343
-7.96344
-7.96344
-7.96342
-7.96338
-7.96341
-8.10775
-8.10776
-8.10775
-8.10776
-8.10776
-8.10776
-8.10777
-8.10777
-8.10777
-8.10778
-8.10778
-8.10779
-8.1078
-8.1078
-8.10781
-8.10782
-8.10782
-8.10783
-8.10784
-8.10785
-8.10785
-8.10786
-8.10787
-8.10787
-8.10788
-8.10789
-8.10789
-8.10788
-8.10788
-8.10788
-8.10788
-8.10788
-8.10789
-8.10785
-8.10789
-8.25227
-8.25228
-8.25229
-8.25229
-8.25228
-8.25228
-8.25229
-8.25229
-8.25229
-8.25229
-8.2523
-8.2523
-8.2523
-8.25231
-8.25231
-8.25232
-8.25232
-8.25233
-8.25233
-8.25234
-8.25234
-8.25235
-8.25235
-8.25236
-8.25237
-8.25238
-8.25238
-8.25237
-8.25237
-8.25238
-8.25239
-8.25239
-8.2524
-8.25238
-8.25238
-8.39679
-8.3968
-8.39679
-8.39679
-8.39679
-8.3968
-8.3968
-8.39681
-8.39681
-8.39681
-8.39681
-8.39681
-8.39682
-8.39682
-8.39682
-8.39683
-8.39683
-8.39684
-8.39684
-8.39685
-8.39685
-8.39686
-8.39686
-8.39687
-8.39688
-8.39689
-8.39689
-8.39689
-8.39689
-8.39689
-8.39689
-8.39689
-8.3969
-8.39691
-8.39696
-8.54128
-8.5413
-8.54129
-8.54129
-8.54129
-8.54129
-8.5413
-8.5413
-8.5413
-8.5413
-8.5413
-8.54131
-8.54131
-8.54132
-8.54132
-8.54133
-8.54133
-8.54134
-8.54134
-8.54135
-8.54135
-8.54135
-8.54136
-8.54136
-8.54137
-8.54138
-8.54138
-8.54137
-8.54137
-8.54138
-8.54138
-8.54138
-8.54139
-8.54136
-8.5414
-8.68581
-8.68583
-8.68582
-8.68581
-8.68581
-8.68582
-8.68582
-8.68582
-8.68582
-8.68582
-8.68583
-8.68583
-8.68584
-8.68584
-8.68585
-8.68586
-8.68586
-8.68587
-8.68587
-8.68588
-8.68588
-8.68589
-8.68589
-8.68589
-8.6859
-8.68591
-8.68591
-8.6859
-8.6859
-8.68591
-8.68591
-8.68592
-8.68592
-8.68589
-8.6859
-8.83033
-8.83035
-8.83034
-8.83035
-8.83035
-8.83035
-8.83036
-8.83036
-8.83036
-8.83036
-8.83036
-8.83036
-8.83037
-8.83037
-8.83037
-8.83038
-8.83038
-8.83039
-8.83039
-8.8304
-8.8304
-8.83041
-8.83041
-8.83042
-8.83042
-8.83043
-8.83043
-8.83042
-8.83042
-8.83042
-8.83042
-8.83041
-8.83042
-8.83038
-8.83042
-8.97488
-8.9749
-8.97489
-8.97489
-8.97489
-8.97489
-8.97489
-8.97489
-8.9749
-8.9749
-8.9749
-8.9749
-8.97491
-8.97491
-8.97492
-8.97492
-8.97493
-8.97493
-8.97494
-8.97495
-8.97495
-8.97496
-8.97496
-8.97497
-8.97498
-8.97499
-8.97499
-8.97499
-8.97499
-8.975
-8.97501
-8.97502
-8.97503
-8.97496
-8.97497
-9.11943
-9.11945
-9.11944
-9.11943
-9.11943
-9.11944
-9.11944
-9.11945
-9.11945
-9.11945
-9.11945
-9.11945
-9.11946
-9.11946
-9.11947
-9.11947
-9.11948
-9.11949
-9.11949
-9.1195
-9.1195
-9.11951
-9.11952
-9.11952
-9.11954
-9.11955
-9.11955
-9.11954
-9.11954
-9.11955
-9.11955
-9.11955
-9.11955
-9.11955
-9.1196
-9.26397
-9.26398
-9.26396
-9.26397
-9.26397
-9.26398
-9.26398
-9.26398
-9.26399
-9.26399
-9.26399
-9.264
-9.264
-9.26401
-9.26401
-9.26402
-9.26402
-9.26403
-9.26403
-9.26404
-9.26405
-9.26405
-9.26406
-9.26407
-9.26408
-9.2641
-9.2641
-9.2641
-9.26409
-9.2641
-9.26411
-9.26411
-9.26411
-9.26405
-9.26406
-9.40851
-9.40852
-9.40852
-9.40852
-9.40853
-9.40853
-9.40853
-9.40853
-9.40853
-9.40853
-9.40854
-9.40855
-9.40856
-9.40856
-9.40857
-9.40858
-9.40859
-9.4086
-9.4086
-9.40861
-9.40862
-9.40863
-9.40863
-9.40864
-9.40865
-9.40866
-9.40867
-9.40866
-9.40865
-9.40866
-9.40866
-9.40867
-9.4087
-9.40871
-9.40878
-9.55307
-9.5531
-9.55309
-9.55309
-9.55308
-9.55309
-9.55309
-9.5531
-9.5531
-9.5531
-9.5531
-9.55311
-9.55312
-9.55313
-9.55314
-9.55315
-9.55316
-9.55316
-9.55317
-9.55318
-9.55319
-9.5532
-9.5532
-9.55321
-9.55322
-9.55324
-9.55324
-9.55323
-9.55322
-9.55323
-9.55323
-9.55323
-9.55323
-9.55319
-9.55321
-9.69771
-9.69772
-9.6977
-9.6977
-9.6977
-9.6977
-9.6977
-9.6977
-9.6977
-9.6977
-9.6977
-9.69771
-9.69771
-9.69772
-9.69772
-9.69773
-9.69773
-9.69774
-9.69775
-9.69775
-9.69776
-9.69777
-9.69777
-9.69778
-9.69779
-9.6978
-9.69781
-9.6978
-9.6978
-9.69782
-9.69782
-9.69781
-9.69781
-9.69778
-9.69783
-9.84229
-9.8423
-9.84229
-9.84229
-9.84229
-9.8423
-9.8423
-9.8423
-9.8423
-9.84231
-9.84231
-9.84231
-9.84231
-9.84232
-9.84233
-9.84233
-9.84234
-9.84235
-9.84235
-9.84236
-9.84237
-9.84238
-9.84238
-9.84239
-9.84241
-9.84242
-9.84242
-9.84242
-9.84242
-9.84242
-9.84242
-9.84241
-9.84241
-9.84237
-9.84242
-9.98686
-9.98686
-9.98685
-9.98686
-9.98686
-9.98687
-9.98687
-9.98688
-9.98688
-9.98689
-9.98689
-9.9869
-9.9869
-9.98691
-9.98692
-9.98692
-9.98693
-9.98694
-9.98695
-9.98695
-9.98696
-9.98697
-9.98697
-9.98698
-9.98699
-9.987
-9.987
-9.98699
-9.98698
-9.98699
-9.98701
-9.98701
-9.98701
-9.98693
-9.98695
-10.1315
-10.1315
-10.1315
-10.1315
-10.1315
-10.1315
-10.1315
-10.1315
-10.1315
-10.1315
-10.1315
-10.1315
-10.1315
-10.1315
-10.1315
-10.1315
-10.1316
-10.1316
-10.1316
-10.1316
-10.1316
-10.1316
-10.1316
-10.1316
-10.1316
-10.1316
-10.1316
-10.1316
-10.1316
-10.1316
-10.1316
-10.1316
-10.1316
-10.1316
-10.1317
-10.2761
-10.2762
-10.2762
-10.2761
-10.2761
-10.2761
-10.2761
-10.2761
-10.2762
-10.2762
-10.2762
-10.2762
-10.2762
-10.2762
-10.2762
-10.2762
-10.2762
-10.2762
-10.2762
-10.2762
-10.2762
-10.2762
-10.2762
-10.2762
-10.2763
-10.2763
-10.2763
-10.2763
-10.2763
-10.2763
-10.2763
-10.2763
-10.2762
-10.2762
-10.2762
-10.4208
-10.4208
-10.4208
-10.4208
-10.4208
-10.4208
-10.4208
-10.4208
-10.4208
-10.4208
-10.4208
-10.4208
-10.4208
-10.4208
-10.4208
-10.4208
-10.4208
-10.4209
-10.4209
-10.4209
-10.4209
-10.4209
-10.4209
-10.4209
-10.4209
-10.4209
-10.4209
-10.4209
-10.4209
-10.4209
-10.4209
-10.4209
-10.4209
-10.4209
-10.4209
-10.5654
-10.5655
-10.5655
-10.5655
-10.5655
-10.5655
-10.5655
-10.5655
-10.5655
-10.5655
-10.5655
-10.5655
-10.5655
-10.5655
-10.5655
-10.5655
-10.5655
-10.5655
-10.5655
-10.5655
-10.5655
-10.5655
-10.5656
-10.5656
-10.5656
-10.5656
-10.5656
-10.5656
-10.5656
-10.5656
-10.5656
-10.5656
-10.5656
-10.5656
-10.5657
-10.7102
-10.7102
-10.7101
-10.7101
-10.7101
-10.7101
-10.7101
-10.7101
-10.7101
-10.7102
-10.7102
-10.7102
-10.7102
-10.7102
-10.7102
-10.7102
-10.7102
-10.7102
-10.7102
-10.7102
-10.7102
-10.7103
-10.7103
-10.7103
-10.7103
-10.7103
-10.7103
-10.7103
-10.7103
-10.7103
-10.7103
-10.7103
-10.7103
-10.7103
-10.7103
-10.8548
-10.8549
-10.8549
-10.8549
-10.8549
-10.8549
-10.8549
-10.8549
-10.8549
-10.8549
-10.8549
-10.8549
-10.8549
-10.8549
-10.8549
-10.8549
-10.8549
-10.8549
-10.8549
-10.8549
-10.8549
-10.8549
-10.8549
-10.855
-10.855
-10.855
-10.855
-10.855
-10.855
-10.855
-10.855
-10.855
-10.855
-10.855
-10.855
-10.9995
-10.9995
-10.9995
-10.9995
-10.9995
-10.9995
-10.9996
-10.9996
-10.9996
-10.9996
-10.9996
-10.9996
-10.9996
-10.9996
-10.9996
-10.9996
-10.9996
-10.9996
-10.9996
-10.9996
-10.9996
-10.9996
-10.9996
-10.9997
-10.9997
-10.9997
-10.9997
-10.9997
-10.9997
-10.9997
-10.9997
-10.9997
-10.9997
-10.9997
-10.9996
-11.1442
-11.1443
-11.1442
-11.1443
-11.1443
-11.1443
-11.1443
-11.1443
-11.1443
-11.1443
-11.1443
-11.1443
-11.1443
-11.1443
-11.1443
-11.1443
-11.1443
-11.1443
-11.1443
-11.1444
-11.1444
-11.1444
-11.1444
-11.1444
-11.1444
-11.1444
-11.1444
-11.1444
-11.1444
-11.1444
-11.1444
-11.1444
-11.1444
-11.1444
-11.1445
-11.289
-11.289
-11.289
-11.289
-11.289
-11.289
-11.289
-11.289
-11.289
-11.289
-11.289
-11.2891
-11.2891
-11.2891
-11.2891
-11.2891
-11.2891
-11.2891
-11.2891
-11.2891
-11.2891
-11.2891
-11.2891
-11.2891
-11.2891
-11.2891
-11.2891
-11.2891
-11.2891
-11.2891
-11.2891
-11.2891
-11.2891
-11.2891
-11.2892
-11.4338
-11.4338
-11.4338
-11.4338
-11.4338
-11.4338
-11.4338
-11.4338
-11.4338
-11.4338
-11.4338
-11.4338
-11.4338
-11.4338
-11.4338
-11.4338
-11.4338
-11.4338
-11.4338
-11.4338
-11.4338
-11.4338
-11.4338
-11.4338
-11.4339
-11.4339
-11.4339
-11.4338
-11.4338
-11.4339
-11.4339
-11.4339
-11.4339
-11.4338
-11.4339
-11.5785
-11.5785
-11.5785
-11.5785
-11.5786
-11.5786
-11.5786
-11.5786
-11.5786
-11.5786
-11.5786
-11.5786
-11.5786
-11.5786
-11.5786
-11.5786
-11.5786
-11.5786
-11.5786
-11.5786
-11.5786
-11.5786
-11.5786
-11.5786
-11.5786
-11.5786
-11.5786
-11.5786
-11.5786
-11.5786
-11.5786
-11.5786
-11.5786
-11.5786
-11.5786
-11.7233
-11.7233
-11.7233
-11.7233
-11.7233
-11.7233
-11.7233
-11.7233
-11.7233
-11.7233
-11.7233
-11.7233
-11.7233
-11.7233
-11.7233
-11.7234
-11.7234
-11.7234
-11.7234
-11.7234
-11.7234
-11.7234
-11.7234
-11.7234
-11.7234
-11.7234
-11.7234
-11.7234
-11.7234
-11.7234
-11.7234
-11.7234
-11.7234
-11.7234
-11.7234
-11.8681
-11.8681
-11.8681
-11.8681
-11.8681
-11.8681
-11.8681
-11.8681
-11.8681
-11.8681
-11.8681
-11.8681
-11.8681
-11.8681
-11.8681
-11.8681
-11.8682
-11.8682
-11.8682
-11.8682
-11.8682
-11.8682
-11.8682
-11.8682
-11.8682
-11.8682
-11.8682
-11.8682
-11.8682
-11.8682
-11.8682
-11.8682
-11.8682
-11.8682
-11.8683
-12.0129
-12.0129
-12.0129
-12.0129
-12.0129
-12.0129
-12.0129
-12.0129
-12.0129
-12.0129
-12.0129
-12.0129
-12.0129
-12.0129
-12.0129
-12.0129
-12.0129
-12.013
-12.013
-12.013
-12.013
-12.013
-12.013
-12.013
-12.013
-12.0131
-12.0131
-12.013
-12.013
-12.013
-12.0131
-12.0131
-12.0131
-12.013
-12.013
-12.1577
-12.1577
-12.1577
-12.1577
-12.1577
-12.1577
-12.1577
-12.1577
-12.1577
-12.1577
-12.1577
-12.1577
-12.1577
-12.1577
-12.1577
-12.1577
-12.1578
-12.1578
-12.1578
-12.1578
-12.1578
-12.1578
-12.1578
-12.1578
-12.1578
-12.1579
-12.1579
-12.1578
-12.1579
-12.1579
-12.1579
-12.1579
-12.1579
-12.1578
-12.1579
-12.3025
-12.3025
-12.3025
-12.3025
-12.3025
-12.3025
-12.3025
-12.3025
-12.3025
-12.3025
-12.3025
-12.3025
-12.3025
-12.3025
-12.3026
-12.3026
-12.3026
-12.3026
-12.3026
-12.3026
-12.3026
-12.3026
-12.3026
-12.3026
-12.3027
-12.3027
-12.3027
-12.3027
-12.3027
-12.3027
-12.3027
-12.3027
-12.3027
-12.3026
-12.3027
-12.4473
-12.4473
-12.4473
-12.4473
-12.4473
-12.4473
-12.4473
-12.4473
-12.4473
-12.4473
-12.4473
-12.4473
-12.4474
-12.4474
-12.4474
-12.4474
-12.4474
-12.4474
-12.4474
-12.4474
-12.4474
-12.4474
-12.4474
-12.4475
-12.4475
-12.4475
-12.4475
-12.4475
-12.4475
-12.4475
-12.4475
-12.4475
-12.4475
-12.4475
-12.4475
-12.5921
-12.5922
-12.5922
-12.5922
-12.5922
-12.5922
-12.5922
-12.5922
-12.5922
-12.5922
-12.5922
-12.5922
-12.5922
-12.5922
-12.5922
-12.5922
-12.5922
-12.5922
-12.5922
-12.5922
-12.5922
-12.5923
-12.5923
-12.5923
-12.5923
-12.5923
-12.5923
-12.5923
-12.5923
-12.5923
-12.5923
-12.5923
-12.5923
-12.5923
-12.5923
-12.737
-12.737
-12.737
-12.737
-12.737
-12.737
-12.737
-12.737
-12.737
-12.737
-12.737
-12.737
-12.737
-12.737
-12.737
-12.737
-12.737
-12.737
-12.7371
-12.7371
-12.7371
-12.7371
-12.7371
-12.7371
-12.7371
-12.7371
-12.7371
-12.7371
-12.7371
-12.7371
-12.7371
-12.7371
-12.7371
-12.7371
-12.7371
-12.8818
-12.8818
-12.8818
-12.8818
-12.8818
-12.8818
-12.8818
-12.8818
-12.8818
-12.8818
-12.8818
-12.8818
-12.8819
-12.8819
-12.8819
-12.8819
-12.8819
-12.8819
-12.8819
-12.8819
-12.8819
-12.8819
-12.8819
-12.8819
-12.882
-12.882
-12.882
-12.882
-12.882
-12.882
-12.882
-12.882
-12.882
-12.8819
-12.882
-13.0266
-13.0266
-13.0266
-13.0266
-13.0266
-13.0266
-13.0266
-13.0266
-13.0266
-13.0266
-13.0267
-13.0267
-13.0267
-13.0267
-13.0267
-13.0267
-13.0267
-13.0267
-13.0267
-13.0267
-13.0267
-13.0267
-13.0267
-13.0268
-13.0268
-13.0268
-13.0268
-13.0268
-13.0267
-13.0268
-13.0268
-13.0268
-13.0268
-13.0267
-13.0267
-13.1714
-13.1715
-13.1715
-13.1715
-13.1715
-13.1715
-13.1715
-13.1715
-13.1715
-13.1715
-13.1715
-13.1715
-13.1715
-13.1715
-13.1715
-13.1715
-13.1715
-13.1715
-13.1715
-13.1715
-13.1715
-13.1716
-13.1716
-13.1716
-13.1716
-13.1716
-13.1716
-13.1715
-13.1715
-13.1716
-13.1716
-13.1716
-13.1716
-13.1715
-13.1716
-13.3163
-13.3163
-13.3163
-13.3163
-13.3163
-13.3163
-13.3163
-13.3163
-13.3164
-13.3164
-13.3164
-13.3164
-13.3164
-13.3164
-13.3164
-13.3164
-13.3164
-13.3164
-13.3164
-13.3164
-13.3164
-13.3164
-13.3164
-13.3165
-13.3165
-13.3165
-13.3165
-13.3165
-13.3165
-13.3165
-13.3165
-13.3165
-13.3165
-13.3164
-13.3165
-13.4611