/*--------------------------------*- C++ -*----------------------------------*\
  =========                 |
  \\      /  F ield         | OpenFOAM: The Open Source CFD Toolbox
   \\    /   O peration     | Website:  https://openfoam.org
    \\  /    A nd           | Version:  13
     \\/     M anipulation  |
\*---------------------------------------------------------------------------*/
FoamFile
{
    format      ascii;
    class       volScalarField;
    location    "6";
    object      p_rgh;
}
// * * * * * * * * * * * * * * * * * * * * * * * * * * * * * * * * * * * * * //

dimensions      [0 2 -2 0 0 0 0];

internalField   nonuniform List<scalar> 
78750
(
0.0737346
0.073563
0.0734182
0.0732385
0.0729935
0.0726907
0.0724003
0.0721834
0.0720247
0.071851
0.0717004
0.0715872
0.0715062
0.0714333
0.0713675
0.0713069
0.0712507
0.0711967
0.0711441
0.0710919
0.0710383
0.0709822
0.0709211
0.0708511
0.0707696
0.0706698
0.0705533
0.0704083
0.0702429
0.0700396
0.0698183
0.0695615
0.0692486
0.0689452
0.0686042
0.0746068
0.074092
0.0735794
0.0730541
0.0725503
0.0721363
0.0717524
0.0714591
0.0712501
0.071089
0.0709626
0.0708921
0.0708688
0.0708691
0.0708773
0.0708858
0.0708903
0.070888
0.0708775
0.0708565
0.070822
0.0707698
0.0706934
0.0705828
0.0704225
0.0701937
0.0698761
0.0694612
0.0689226
0.0682442
0.0674004
0.0663867
0.0652265
0.0639212
0.0624851
0.0759056
0.0750618
0.0742514
0.0734933
0.0728145
0.0722804
0.0718871
0.0715915
0.0713855
0.0712522
0.0711752
0.0711251
0.0710912
0.0710707
0.0710546
0.0710389
0.0710211
0.0709987
0.0709694
0.0709298
0.0708749
0.0707971
0.0706844
0.0705197
0.0702786
0.0699255
0.0694244
0.0687401
0.0678278
0.0666429
0.0651612
0.0633808
0.0613241
0.0590286
0.0565409
0.0776899
0.0765198
0.0754222
0.0744245
0.0735612
0.072849
0.0722868
0.0718624
0.0715541
0.0713397
0.0711983
0.0711034
0.0710395
0.0709975
0.0709695
0.0709493
0.0709317
0.0709128
0.0708888
0.0708545
0.0708022
0.0707205
0.070591
0.0703886
0.0700769
0.0696119
0.0689402
0.0679958
0.066729
0.0650682
0.0629778
0.0604448
0.057507
0.0542325
0.0507155
0.0796639
0.0781637
0.0767598
0.0754924
0.0743986
0.0734971
0.0727843
0.0722437
0.0718515
0.0715804
0.071402
0.0712836
0.0712051
0.0711541
0.0711186
0.0710916
0.0710679
0.071042
0.0710085
0.070961
0.0708895
0.0707792
0.0706075
0.0703389
0.0699291
0.069323
0.0684522
0.0672305
0.0655855
0.0634297
0.0607214
0.0574475
0.0536472
0.0494109
0.0448703
0.0817569
0.079924
0.0782103
0.0766675
0.0753387
0.0742429
0.0733755
0.072716
0.0722344
0.0718973
0.0716703
0.0715188
0.0714181
0.0713521
0.0713083
0.0712757
0.0712477
0.0712191
0.071183
0.0711309
0.071051
0.0709243
0.0707227
0.0704074
0.0699234
0.0691975
0.0681448
0.0666642
0.0646544
0.062024
0.0587104
0.0546981
0.0500365
0.0448397
0.0392767
0.083952
0.0817864
0.079762
0.0779405
0.0763722
0.0750786
0.0740545
0.0732755
0.0727062
0.0723071
0.0720377
0.0718594
0.0717424
0.0716671
0.0716189
0.0715848
0.0715568
0.0715292
0.0714937
0.0714409
0.0713567
0.0712197
0.0709961
0.0706393
0.0700838
0.0692427
0.0680149
0.0662805
0.0639181
0.0608165
0.0569015
0.0521548
0.046635
0.0404824
0.033906
0.0861897
0.0836899
0.0813528
0.0792511
0.0774421
0.0759495
0.074767
0.0738674
0.0732089
0.0727448
0.0724286
0.0722166
0.0720754
0.0719823
0.0719199
0.0718745
0.0718356
0.0717959
0.0717474
0.071678
0.0715714
0.0714021
0.0711318
0.0707068
0.0700501
0.0690652
0.067636
0.0656239
0.0628825
0.0592895
0.0547628
0.0492805
0.04291
0.0358145
0.028224
0.0885212
0.0856877
0.083038
0.080656
0.0786057
0.0769148
0.0755741
0.074553
0.073805
0.0732768
0.0729151
0.0726716
0.0725087
0.0724004
0.0723267
0.0722722
0.0722247
0.0721759
0.0721164
0.0720325
0.071905
0.0717043
0.0713887
0.0708958
0.0701378
0.0690067
0.0673761
0.0650863
0.0619709
0.0578944
0.0527593
0.0465436
0.0393234
0.0312675
0.0226629
0.0909034
0.087736
0.0847742
0.0821125
0.0798219
0.0779314
0.0764336
0.0752926
0.0744569
0.0738665
0.0734623
0.0731909
0.0730106
0.0728917
0.0728119
0.0727539
0.0727049
0.0726542
0.0725917
0.0725032
0.0723669
0.07215
0.0718053
0.0712629
0.0704256
0.069173
0.0673592
0.0648076
0.0613334
0.0567827
0.0510461
0.0440968
0.0360187
0.0270188
0.0173926
0.0933393
0.0898381
0.0865634
0.0836225
0.0810938
0.0790071
0.0773551
0.0760968
0.0751744
0.074523
0.0740776
0.0737803
0.0735848
0.0734577
0.0733742
0.0733154
0.0732674
0.0732182
0.0731564
0.0730663
0.0729244
0.0726954
0.0723263
0.0717393
0.0708284
0.0694592
0.0674672
0.0646579
0.0608274
0.0558014
0.049458
0.0417786
0.0328452
0.0229006
0.0122629
0.0958587
0.0920235
0.0884391
0.0852198
0.08245
0.0801647
0.0783541
0.0769756
0.0759657
0.0752529
0.0747661
0.0744424
0.0742313
0.074096
0.0740089
0.0739494
0.0739025
0.0738553
0.0737948
0.0737042
0.0735578
0.0733172
0.0729244
0.0722944
0.0713109
0.0698247
0.067652
0.0645813
0.0603926
0.0548928
0.0479513
0.0395381
0.0297591
0.0188491
0.00719321
0.0984204
0.094254
0.0903575
0.0868543
0.0838407
0.0813546
0.0793845
0.0778849
0.0767868
0.076012
0.0754834
0.0751329
0.0749058
0.0747615
0.0746699
0.0746088
0.0745617
0.074515
0.0744543
0.0743611
0.074208
0.0739529
0.0735329
0.0728561
0.0717959
0.0701892
0.0678355
0.0645037
0.0599549
0.0539818
0.0464417
0.0372865
0.0266506
0.0148113
0.00215017
0.101003
0.096503
0.09229
0.0885078
0.085254
0.0825682
0.0804414
0.078823
0.0776376
0.0768009
0.07623
0.0758516
0.0756066
0.0754512
0.0753527
0.075287
0.0752364
0.0751861
0.0751205
0.0750194
0.074853
0.0745762
0.07412
0.0733848
0.0722342
0.0704933
0.0679485
0.0643477
0.0594306
0.0529738
0.0448302
0.0349651
0.0234815
0.0106851
-0.0029956
0.103582
0.0987457
0.0942231
0.0901677
0.0866807
0.0838016
0.0815218
0.0797846
0.0785122
0.0776149
0.0770034
0.0765993
0.0763392
0.0761756
0.076073
0.0760057
0.0759547
0.0759042
0.0758376
0.075733
0.0755584
0.0752652
0.0747804
0.0739972
0.072768
0.0709038
0.0681723
0.064305
0.0590247
0.0520902
0.0433341
0.0327262
0.0203938
0.00664043
-0.0080567
0.106203
0.101034
0.0962079
0.0918725
0.0881433
0.0850671
0.0826308
0.0807766
0.0794176
0.0784592
0.0778067
0.0773763
0.0771004
0.0769279
0.0768207
0.0767515
0.0766999
0.0766492
0.0765816
0.076474
0.0762923
0.0759841
0.0754715
0.0746408
0.0733348
0.0713499
0.0684368
0.0643095
0.0586715
0.0512591
0.0418947
0.0305446
0.0173436
0.00264435
-0.0130721
0.108884
0.103388
0.0982488
0.0936298
0.0896534
0.0863734
0.0837748
0.0817977
0.0803509
0.0793302
0.0786356
0.0781776
0.0778846
0.0777018
0.0775889
0.0775164
0.077463
0.0774105
0.0773402
0.0772274
0.0770359
0.0767099
0.0761658
0.0752827
0.073893
0.0717805
0.0686792
0.0642846
0.0582807
0.0503934
0.0404349
0.0283657
0.0143222
-0.00132279
-0.0180404
0.111554
0.105723
0.100262
0.0953638
0.0911525
0.0876783
0.0849271
0.082831
0.0812959
0.0802136
0.0794773
0.0789926
0.078683
0.0784906
0.0783724
0.0782975
0.0782429
0.0781897
0.0781179
0.0780016
0.0778023
0.0774612
0.0768898
0.0759594
0.0744921
0.0722573
0.0689715
0.0643119
0.0579466
0.0495823
0.0390218
0.0262229
0.0113362
-0.00526718
-0.0230079
0.11421
0.108042
0.102271
0.0970961
0.092648
0.0889779
0.0860703
0.0838588
0.0822377
0.0810944
0.0803169
0.0798052
0.0794786
0.0792757
0.079151
0.0790719
0.079014
0.078957
0.0788801
0.0787556
0.0785431
0.0781801
0.0775733
0.0765868
0.0750323
0.0726662
0.0691915
0.0642664
0.057536
0.0486896
0.0375255
0.0239961
0.00825921
-0.0092755
-0.0280301
0.116905
0.110405
0.104328
0.0988749
0.0941844
0.0903146
0.0872484
0.0849157
0.0832095
0.082005
0.081186
0.0806473
0.0803039
0.0800911
0.0799605
0.0798778
0.0798175
0.0797582
0.0796778
0.079547
0.0793228
0.0789397
0.078299
0.0772575
0.0756172
0.0731221
0.069457
0.0642629
0.0571682
0.0478469
0.0360765
0.0218038
0.00520919
-0.0132751
-0.033037
0.119624
0.112791
0.106402
0.100668
0.0957369
0.0916681
0.0884454
0.0859913
0.0841959
0.0829307
0.0820701
0.0815044
0.0811441
0.0809209
0.0807843
0.0806979
0.0806352
0.080574
0.0804908
0.080355
0.0801215
0.0797212
0.0790506
0.0779592
0.0762384
0.0736187
0.0697689
0.0643104
0.0568513
0.047044
0.0346603
0.0196438
0.00218555
-0.0172582
-0.0380235
0.122393
0.115232
0.108531
0.102513
0.0973369
0.0930655
0.0896803
0.0871022
0.0852138
0.0838831
0.0829772
0.0823803
0.0819986
0.081761
0.0816145
0.0815208
0.0814518
0.0813842
0.0812935
0.0811476
0.0808992
0.0804758
0.0797687
0.0786201
0.0768111
0.074059
0.0700182
0.0642916
0.0564681
0.0461872
0.0332055
0.0174823
-0.000806542
-0.0211999
-0.0429967
0.125152
0.117654
0.110638
0.104338
0.0989198
0.0944512
0.090913
0.0882187
0.0862462
0.0848543
0.0839064
0.0832815
0.0828823
0.0826336
0.0824804
0.0823828
0.0823111
0.0822408
0.0821462
0.0819939
0.0817342
0.0812915
0.0805521
0.0793505
0.0774578
0.0745785
0.0703499
0.0643574
0.0561726
0.0454192
0.0318411
0.0153819
-0.0037589
-0.0250839
-0.0478846
0.12786
0.120025
0.112698
0.106122
0.100467
0.095802
0.0921098
0.0893024
0.0872461
0.0857957
0.084809
0.08416
0.0837461
0.0834893
0.0833319
0.0832323
0.0831598
0.0830884
0.0829914
0.0828339
0.082564
0.0821025
0.0813309
0.0800766
0.0781005
0.0750937
0.070677
0.0644178
0.0558655
0.044623
0.0304295
0.0132197
-0.00677725
-0.0290446
-0.0528607
0.13066
0.122496
0.114858
0.108005
0.10211
0.0972472
0.0933954
0.090462
0.0883139
0.0867994
0.0857679
0.0850888
0.0846549
0.0843851
0.0842188
0.0841126
0.0840347
0.0839581
0.0838547
0.083688
0.0834042
0.0829208
0.0821136
0.080803
0.07874
0.0756027
0.070998
0.0644719
0.0555569
0.0438411
0.0290485
0.0111267
-0.00972252
-0.0329611
-0.0577897
0.133473
0.124975
0.117028
0.109897
0.103763
0.0986987
0.094686
0.0916317
0.0893938
0.0878154
0.0867411
0.0860332
0.085581
0.0852997
0.0851267
0.0850164
0.0849357
0.0848567
0.0847504
0.0845785
0.0842847
0.0837833
0.0829457
0.0815842
0.0794397
0.0761775
0.0713855
0.0645944
0.055316
0.0431258
0.0277353
0.00907729
-0.0126193
-0.0367901
-0.0626253
0.136265
0.127435
0.11917
0.11175
0.105373
0.100111
0.0959425
0.0927717
0.0904528
0.0888184
0.0877055
0.0869729
0.086506
0.0862165
0.0860391
0.0859269
0.0858454
0.0857656
0.0856573
0.085481
0.0851782
0.0846597
0.0837917
0.0823796
0.080154
0.0767664
0.0717888
0.0647322
0.055093
0.042423
0.026419
0.00701495
-0.0155456
-0.0406778
-0.0675463
0.139102
0.129935
0.121358
0.11366
0.107037
0.101579
0.0972596
0.0939695
0.0915617
0.0898649
0.0887109
0.0879517
0.0874677
0.0871674
0.0869829
0.086866
0.0867807
0.0866971
0.0865838
0.0863998
0.0860846
0.0855457
0.0846442
0.083178
0.0808676
0.0773514
0.0721858
0.0648636
0.0548587
0.0417061
0.0251
0.00498757
-0.0184129
-0.0444883
-0.0723633
0.141938
0.132435
0.123552
0.11558
0.108724
0.103065
0.0985843
0.0951743
0.0926754
0.0909128
0.089715
0.0889279
0.0884272
0.0881172
0.0879278
0.0878079
0.0877207
0.087635
0.0875183
0.0873282
0.0870019
0.0864435
0.0855091
0.0839891
0.081594
0.077949
0.0725945
0.065004
0.0546338
0.0410056
0.0238063
0.00295644
-0.0212892
-0.0483058
-0.0772014
0.144804
0.134971
0.125777
0.117522
0.110425
0.104568
0.0999255
0.0963949
0.0938092
0.0919846
0.0907426
0.0899249
0.0894028
0.0890783
0.0888792
0.0887528
0.0886604
0.0885699
0.0884474
0.0882491
0.0879099
0.0873304
0.0863616
0.0847864
0.0823044
0.0785281
0.0729818
0.0651229
0.054387
0.0402817
0.0224678
0.000866774
-0.0242355
-0.0521841
-0.0820789
0.147693
0.137525
0.128017
0.119485
0.112148
0.106094
0.101297
0.097643
0.0949674
0.0930806
0.0917968
0.0909501
0.090409
0.0900723
0.0898649
0.0897329
0.0896365
0.0895422
0.0894152
0.0892099
0.0888591
0.0882602
0.0872589
0.0856313
0.0830673
0.0791661
0.0734354
0.0653116
0.0542156
0.0396319
0.0212157
-0.00109504
-0.0270521
-0.0559856
-0.0869053
0.150533
0.140036
0.130218
0.121404
0.113824
0.107572
0.102619
0.0988518
0.0960919
0.0941451
0.0928201
0.0919486
0.0913932
0.091049
0.0908382
0.0907051
0.0906082
0.0905135
0.0903851
0.0901759
0.0898166
0.0892013
0.0881709
0.0864938
0.0838498
0.0798241
0.0739083
0.0655213
0.0540623
0.0390025
0.0199895
-0.00306131
-0.0298605
-0.0597203
-0.0916466
0.153374
0.142545
0.132413
0.123315
0.115488
0.109035
0.103927
0.100041
0.0971982
0.0951942
0.0938305
0.0929344
0.0923643
0.0920114
0.0917956
0.0916596
0.091561
0.0914643
0.0913328
0.0911179
0.090748
0.090114
0.0890516
0.0873222
0.0845953
0.0804425
0.0743395
0.0656872
0.0538628
0.0383223
0.0186994
-0.0050903
-0.0327577
-0.0635738
-0.0965139
0.156301
0.145134
0.134684
0.125312
0.117256
0.110604
0.105336
0.101322
0.0983854
0.0963165
0.0949099
0.0939842
0.0933944
0.093029
0.0928054
0.0926641
0.0925614
0.0924606
0.0923234
0.0920999
0.0917163
0.0910598
0.0899612
0.0881744
0.0853585
0.0810739
0.0747789
0.065856
0.0536691
0.0376523
0.0174283
-0.00707974
-0.0355816
-0.0673434
-0.101286
0.159201
0.147702
0.136949
0.127301
0.119002
0.112155
0.106729
0.102599
0.0995735
0.0974383
0.0959859
0.0950301
0.0944204
0.0940419
0.09381
0.0936634
0.093557
0.0934529
0.0933117
0.0930818
0.0926873
0.0920121
0.0908819
0.0890433
0.0861457
0.081734
0.0752525
0.0660656
0.053515
0.0370174
0.0161941
-0.00904596
-0.0383983
-0.0711057
-0.10606
0.162086
0.150255
0.139185
0.129246
0.120698
0.113649
0.108069
0.103824
0.100716
0.0985234
0.0970319
0.0960516
0.0954274
0.0950407
0.094804
0.0946544
0.0945457
0.0944391
0.0942942
0.0940579
0.0936522
0.0929573
0.0917938
0.0899009
0.0869176
0.0823766
0.0757058
0.0662515
0.0533317
0.0363541
0.0149147
-0.0110767
-0.0412879
-0.0749332
-0.110902
0.165001
0.152835
0.141455
0.131246
0.122466
0.115218
0.109478
0.105105
0.101907
0.0996533
0.0981204
0.0971124
0.0964705
0.0960729
0.0958295
0.0956758
0.0955639
0.0954542
0.0953051
0.0950625
0.0946459
0.0939326
0.0927383
0.0907949
0.0877312
0.083066
0.0762101
0.06649
0.053211
0.0357606
0.0137258
-0.0129857
-0.0440585
-0.0786781
-0.115674
0.167928
0.155434
0.14375
0.13326
0.124236
0.116792
0.110894
0.106407
0.103121
0.100804
0.0992263
0.0981878
0.0975257
0.0971151
0.0968633
0.096704
0.0965882
0.096475
0.0963215
0.0960721
0.0956441
0.0949115
0.0936847
0.0916885
0.0885413
0.0837491
0.0767066
0.0667225
0.0530836
0.0351566
0.0125197
-0.0149181
-0.0468208
-0.0823521
-0.120337
0.170905
0.158073
0.146065
0.135284
0.12601
0.118364
0.112306
0.107699
0.104325
0.101945
0.100326
0.09926
0.0985796
0.0981571
0.0978977
0.0977331
0.0976129
0.0974954
0.0973363
0.0970782
0.0966362
0.0958808
0.0946174
0.0925634
0.0893273
0.0844021
0.0771675
0.0669142
0.0529055
0.0344928
0.011243
-0.0169241
-0.0496907
-0.086215
-0.125244
0.173798
0.160631
0.148315
0.137261
0.127759
0.11992
0.113713
0.108984
0.10552
0.103079
0.101418
0.100324
0.0996262
0.0991929
0.0989268
0.0987581
0.098635
0.0985144
0.0983512
0.0980869
0.0976341
0.09686
0.0955653
0.0934592
0.0901395
0.0850875
0.0776662
0.0671462
0.0527744
0.0338869
0.0100417
-0.018863
-0.0524874
-0.0899577
-0.129995
0.176698
0.163206
0.150582
0.139255
0.129514
0.121473
0.115105
0.110258
0.106709
0.104207
0.102504
0.101384
0.10067
0.100228
0.0999574
0.0997866
0.0996624
0.0995409
0.0993756
0.0991062
0.0986434
0.0978509
0.096524
0.0943655
0.090963
0.0857833
0.0781735
0.0673874
0.0526516
0.0332835
0.00882803
-0.0208163
-0.0552638
-0.0936644
-0.134723
0.179662
0.165824
0.15288
0.14127
0.13128
0.12304
0.116511
0.111543
0.107909
0.105347
0.103605
0.102459
0.101729
0.101278
0.101001
0.100827
0.1007
0.100576
0.100407
0.100131
0.0996568
0.0988452
0.0974862
0.0952746
0.0917885
0.0864816
0.0786846
0.0676334
0.0525337
0.0326915
0.00764162
-0.022722
-0.0580451
-0.0973939
-0.139453
0.182617
0.168455
0.155219
0.143324
0.1331
0.124661
0.11798
0.112894
0.10917
0.106542
0.104754
0.103578
0.102827
0.102362
0.102076
0.101895
0.101764
0.101636
0.101462
0.101179
0.100694
0.0998632
0.0984719
0.0962083
0.09264
0.0872082
0.0792266
0.0679112
0.0524544
0.032136
0.00647914
-0.0246184
-0.0607832
-0.101073
-0.14414
0.185562
0.171069
0.157501
0.145328
0.134862
0.126228
0.119391
0.114186
0.110374
0.107687
0.105857
0.104654
0.103887
0.103412
0.10312
0.102935
0.1028
0.102669
0.10249
0.1022
0.101703
0.100851
0.0994256
0.0971074
0.0934536
0.0878912
0.0797192
0.0681341
0.0523046
0.0315014
0.00523257
-0.0265946
-0.0636214
-0.104875
-0.148967
0.188509
0.173675
0.159798
0.147347
0.136637
0.127807
0.120813
0.115489
0.11159
0.108842
0.106974
0.105745
0.104963
0.104479
0.104182
0.103994
0.103857
0.103723
0.10354
0.103242
0.102732
0.10186
0.100401
0.0980278
0.0942875
0.0885949
0.0802325
0.0683815
0.0521916
0.0309155
0.00405399
-0.0285073
-0.0663769
-0.108568
-0.153658
0.191499
0.176337
0.162154
0.149423
0.138472
0.129435
0.122277
0.116828
0.112839
0.110029
0.108116
0.106858
0.106057
0.10556
0.105256
0.105064
0.104924
0.104787
0.104601
0.104298
0.103779
0.102889
0.101399
0.0989754
0.0951546
0.0893383
0.0807915
0.0686767
0.0521239
0.0303692
0.00290225
-0.0303929
-0.0691102
-0.112247
-0.158347
0.194451
0.178951
0.164453
0.151446
0.140258
0.131023
0.123707
0.118141
0.114065
0.11119
0.109234
0.107948
0.107128
0.106619
0.106308
0.106111
0.105968
0.105828
0.105637
0.105327
0.104795
0.103884
0.10236
0.0998816
0.0959751
0.0900285
0.0812929
0.068909
0.0519912
0.0297517
0.00167039
-0.0323606
-0.0719348
-0.11601
-0.163136
0.197409
0.181574
0.166768
0.153474
0.142048
0.132622
0.125156
0.119473
0.115311
0.112376
0.110379
0.109064
0.108226
0.107706
0.107388
0.107186
0.107039
0.106895
0.106701
0.106384
0.10584
0.10491
0.103353
0.100821
0.0968294
0.0907529
0.081825
0.0691729
0.0518907
0.0291829
0.000511619
-0.0342426
-0.074661
-0.119688
-0.167813
0.200353
0.184192
0.169075
0.155504
0.143832
0.134206
0.126584
0.120781
0.116532
0.113535
0.111497
0.110157
0.109304
0.108775
0.108452
0.108248
0.1081
0.107955
0.107758
0.107436
0.106883
0.105935
0.104347
0.101763
0.0976904
0.0914891
0.0823778
0.0694633
0.0518167
0.0286236
-0.000662664
-0.0361579
-0.0774364
-0.123384
-0.172511
0.203358
0.186866
0.171434
0.157583
0.145665
0.135832
0.128045
0.122118
0.117781
0.114722
0.112641
0.111272
0.110399
0.109858
0.109527
0.109317
0.109165
0.109016
0.108814
0.108486
0.107921
0.106953
0.105333
0.102696
0.0985399
0.0922123
0.0829134
0.0697307
0.0517232
0.0280546
-0.00183367
-0.0380582
-0.0801767
-0.127134
-0.177321
0.206347
0.189517
0.173775
0.15964
0.147487
0.137455
0.129511
0.123465
0.119036
0.115914
0.11379
0.112391
0.111498
0.110945
0.110605
0.11039
0.110233
0.110079
0.109872
0.109534
0.108956
0.107966
0.106312
0.10362
0.0993778
0.0929203
0.0834318
0.069984
0.051611
0.0274649
-0.00301489
-0.0399665
-0.0829458
-0.130823
-0.182003
0.209272
0.192107
0.176044
0.161629
0.149238
0.139019
0.130922
0.12476
0.120249
0.117068
0.114905
0.113482
0.112575
0.112011
0.111666
0.111447
0.111288
0.111132
0.11092
0.110577
0.109988
0.10898
0.107292
0.104546
0.100218
0.0936295
0.0839521
0.0702358
0.0514991
0.0268732
-0.00422647
-0.0419149
-0.0857495
-0.134542
-0.186736
0.212241
0.194736
0.17836
0.163673
0.151044
0.140623
0.132369
0.126087
0.121489
0.118248
0.116042
0.114591
0.113667
0.113093
0.112742
0.11252
0.112358
0.112199
0.111984
0.111635
0.111034
0.110007
0.108287
0.105489
0.101078
0.0943641
0.0845001
0.070519
0.0514184
0.0263126
-0.00538605
-0.0438047
-0.0884767
-0.138276
-0.191495
0.215242
0.197412
0.180735
0.165766
0.152892
0.142271
0.133857
0.127453
0.122764
0.119458
0.117209
0.115727
0.114782
0.114196
0.113837
0.11361
0.113445
0.113283
0.113063
0.112706
0.112094
0.111046
0.109293
0.106442
0.101949
0.0951078
0.0850578
0.0708122
0.0513467
0.0257657
-0.00652798
-0.0456792
-0.0912187
-0.141929
-0.196157
0.2182
0.200035
0.183047
0.167802
0.15469
0.143873
0.135304
0.128782
0.124005
0.120637
0.118348
0.116843
0.115883
0.115287
0.114922
0.11469
0.114522
0.114357
0.114133
0.113769
0.113145
0.112077
0.110291
0.107385
0.102805
0.0958342
0.085593
0.0710793
0.0512528
0.0251953
-0.00770855
-0.0475841
-0.0939759
-0.145669
-0.200909
0.221177
0.202681
0.18539
0.169864
0.156506
0.145485
0.136757
0.130115
0.125253
0.121822
0.119487
0.117952
0.116973
0.116366
0.115993
0.115757
0.115585
0.115416
0.115187
0.114815
0.114178
0.11309
0.111269
0.108309
0.103644
0.096545
0.0861155
0.0713335
0.0511424
0.0246036
-0.00890686
-0.0495228
-0.096727
-0.149327
-0.205572
0.224204
0.20538
0.187767
0.171951
0.158355
0.147136
0.138251
0.131487
0.126534
0.123042
0.120665
0.119099
0.1181
0.11748
0.117099
0.116858
0.116682
0.11651
0.116277
0.115899
0.115251
0.114143
0.112291
0.109279
0.104533
0.0973084
0.0866946
0.0716502
0.0510972
0.0240842
-0.0100204
-0.0513645
-0.0994521
-0.153
-0.210271
0.227152
0.207991
0.190057
0.173967
0.160135
0.148721
0.139678
0.132797
0.127757
0.124202
0.121785
0.120197
0.119184
0.118557
0.118172
0.117928
0.11775
0.117576
0.117341
0.116958
0.116301
0.115176
0.113292
0.110229
0.1054
0.0980484
0.087246
0.0719332
0.0510119
0.0235107
-0.011206
-0.0532844
-0.102226
-0.156739
-0.214984
0.230108
0.21061
0.192374
0.176005
0.161926
0.150311
0.14111
0.134106
0.128981
0.125369
0.122911
0.121293
0.120262
0.119624
0.119233
0.118986
0.118807
0.11863
0.118391
0.118002
0.117333
0.116188
0.114271
0.111154
0.106239
0.0987567
0.0877655
0.0721864
0.0509029
0.0229351
-0.0123818
-0.0551938
-0.104979
-0.160477
-0.219788
0.233078
0.213248
0.194699
0.178051
0.163734
0.151922
0.142565
0.135443
0.130228
0.126551
0.12405
0.122404
0.121355
0.120705
0.120306
0.120055
0.119872
0.119694
0.119452
0.119057
0.118378
0.117215
0.115267
0.112098
0.107102
0.0994957
0.0883179
0.0724736
0.0508258
0.0223745
-0.0135502
-0.0570869
-0.107722
-0.164134
-0.224438
0.23602
0.215854
0.196995
0.180071
0.165513
0.1535
0.143989
0.136748
0.131445
0.127707
0.125164
0.12349
0.122423
0.121761
0.121355
0.121099
0.120912
0.120729
0.120482
0.120079
0.119388
0.118206
0.116225
0.113003
0.107923
0.100188
0.0888222
0.0727106
0.0507025
0.0217721
-0.0147545
-0.0590283
-0.110517
-0.167867
-0.22916
0.238966
0.218463
0.19929
0.182076
0.167277
0.155068
0.145397
0.138038
0.132652
0.128852
0.126268
0.124569
0.123486
0.122815
0.122404
0.122144
0.121955
0.121771
0.12152
0.121111
0.120409
0.119207
0.117194
0.113918
0.108755
0.100892
0.0893399
0.072964
0.0505901
0.0211897
-0.0159356
-0.0609318
-0.113268
-0.171566
-0.233906
0.241884
0.221055
0.201569
0.18408
0.169039
0.156636
0.146811
0.139329
0.133851
0.129989
0.127362
0.125634
0.124534
0.123852
0.123434
0.12317
0.122978
0.122789
0.122533
0.122117
0.121402
0.120178
0.11813
0.114798
0.109547
0.101555
0.0898121
0.0731681
0.0504285
0.0205394
-0.0172054
-0.062945
-0.116137
-0.175355
-0.238668
0.244808
0.223641
0.203844
0.18608
0.170801
0.158191
0.148205
0.140605
0.135039
0.131117
0.128449
0.126694
0.125575
0.124881
0.124457
0.124188
0.123993
0.123802
0.123542
0.123118
0.122392
0.121149
0.119068
0.115682
0.110347
0.102227
0.0902961
0.0733853
0.0502804
0.0199115
-0.0184202
-0.0648813
-0.118913
-0.179146
-0.243516
0.247731
0.226245
0.206142
0.188089
0.172566
0.15976
0.149614
0.141895
0.136241
0.132254
0.129542
0.127759
0.126623
0.125919
0.125487
0.125214
0.125016
0.124822
0.124558
0.124128
0.12339
0.122127
0.120012
0.116573
0.111152
0.102902
0.0907804
0.0736018
0.0501339
0.0192935
-0.0196476
-0.0668529
-0.121737
-0.182859
-0.248202
0.250665
0.228835
0.208411
0.190077
0.174315
0.161312
0.151014
0.143176
0.137436
0.133387
0.130631
0.128817
0.127659
0.126941
0.1265
0.12622
0.126016
0.125817
0.125547
0.12511
0.124359
0.123076
0.120929
0.117437
0.111933
0.103558
0.091251
0.0738076
0.0499812
0.018666
-0.0208811
-0.0688205
-0.124581
-0.186718
-0.253135
0.253566
0.231396
0.21066
0.19206
0.17606
0.162855
0.152397
0.144434
0.138607
0.134498
0.131702
0.129861
0.128686
0.127956
0.127508
0.127224
0.127016
0.126813
0.126539
0.126094
0.125332
0.124029
0.121849
0.118304
0.112716
0.104211
0.0917174
0.0740099
0.0498173
0.0180207
-0.0221256
-0.0707854
-0.127368
-0.190407
-0.257787
0.256397
0.23391
0.212876
0.193991
0.177748
0.164348
0.153735
0.145659
0.139744
0.135575
0.132738
0.130873
0.129685
0.128949
0.128497
0.128212
0.128005
0.127801
0.127525
0.127075
0.126303
0.124981
0.12277
0.119171
0.1135
0.104868
0.0921853
0.0742082
0.0496456
0.0173603
-0.0233921
-0.0727716
-0.130209
-0.194202
-0.262622
0.25929
0.236462
0.215105
0.195938
0.179455
0.165854
0.155082
0.146886
0.140883
0.136651
0.133774
0.131881
0.130675
0.129926
0.129468
0.129178
0.128966
0.128758
0.128477
0.128019
0.127235
0.125893
0.123647
0.119994
0.114237
0.105476
0.0926036
0.0743598
0.049437
0.0166893
-0.0246613
-0.0747805
-0.133062
-0.198
-0.267434
0.262189
0.239035
0.217369
0.19792
0.181192
0.167392
0.15646
0.148138
0.142045
0.137747
0.134824
0.132902
0.131676
0.130916
0.13045
0.130155
0.12994
0.12973
0.129445
0.128981
0.128186
0.126826
0.124549
0.120846
0.115009
0.106123
0.0930681
0.0745587
0.0492764
0.0160423
-0.0259239
-0.0767862
-0.135924
-0.201771
-0.272187
0.265019
0.241532
0.219544
0.19981
0.182845
0.168852
0.157767
0.14933
0.143154
0.138798
0.135834
0.133884
0.132642
0.131871
0.1314
0.131102
0.130885
0.130674
0.130387
0.129919
0.129113
0.127735
0.125426
0.12167
0.115749
0.106736
0.0934926
0.0747188
0.0490683
0.0153596
-0.0272043
-0.0787947
-0.138803
-0.205675
-0.277124
0.267841
0.244005
0.221714
0.201717
0.184516
0.170324
0.159085
0.150525
0.144256
0.139838
0.136832
0.134854
0.133592
0.132809
0.132329
0.132026
0.131805
0.131589
0.131297
0.130821
0.130004
0.128605
0.126263
0.122453
0.116448
0.107308
0.0938761
0.0748351
0.0488196
0.0146311
-0.0285314
-0.0808518
-0.141679
-0.209435
-0.281876
0.270659
0.246496
0.2239
0.20361
0.186162
0.171765
0.160366
0.151692
0.14534
0.14086
0.137814
0.135809
0.134532
0.133739
0.133254
0.132946
0.132722
0.132503
0.132205
0.131721
0.130891
0.129471
0.127096
0.123231
0.117141
0.107871
0.0942514
0.0749442
0.0485701
0.0139058
-0.0298699
-0.0829192
-0.144631
-0.213371
-0.286812
0.273472
0.248975
0.226055
0.20549
0.187802
0.17321
0.161646
0.152847
0.146406
0.141863
0.138773
0.136742
0.135449
0.134648
0.134157
0.133847
0.133621
0.1334
0.133099
0.13261
0.131769
0.13033
0.127922
0.124004
0.117829
0.108432
0.0946233
0.0750497
0.0483068
0.0131519
-0.0312254
-0.0850189
-0.147583
-0.217277
-0.291779
0.276224
0.251411
0.228202
0.20736
0.189433
0.174641
0.162925
0.154008
0.147478
0.142874
0.139741
0.137679
0.136363
0.135546
0.135045
0.134727
0.134495
0.134268
0.133961
0.133462
0.132607
0.131146
0.128703
0.124729
0.118466
0.108938
0.0949387
0.0750976
0.0479895
0.0123733
-0.0325979
-0.0871056
-0.150489
-0.221148
-0.296667
0.279008
0.253842
0.230295
0.209163
0.191
0.176015
0.164152
0.155119
0.148504
0.143841
0.140668
0.138581
0.13725
0.136424
0.135918
0.135597
0.135364
0.135136
0.134826
0.134324
0.133461
0.131983
0.12951
0.125487
0.119147
0.109496
0.0953125
0.0752048
0.0477407
0.0116458
-0.0339346
-0.0891772
-0.153437
-0.225044
-0.301532
0.281801
0.256297
0.232448
0.211045
0.192632
0.177442
0.165411
0.156255
0.149553
0.144824
0.141606
0.13949
0.138141
0.137305
0.136792
0.136468
0.136233
0.136002
0.135688
0.135178
0.134304
0.132807
0.1303
0.126223
0.119796
0.110015
0.0956459
0.0752751
0.0474403
0.0108503
-0.0353428
-0.0913271
-0.156438
-0.228933
-0.306401
0.284557
0.258721
0.234559
0.212868
0.194215
0.178826
0.166638
0.157362
0.150568
0.14578
0.142522
0.140377
0.139011
0.138163
0.137644
0.137315
0.137076
0.136842
0.136524
0.136007
0.13512
0.133603
0.131064
0.126933
0.120422
0.110513
0.0959519
0.0753104
0.0471066
0.010052
-0.0367311
-0.0934451
-0.159388
-0.232887
-0.311457
0.287246
0.261079
0.236594
0.21463
0.195751
0.180168
0.167817
0.158422
0.151544
0.146694
0.143394
0.141223
0.139841
0.138985
0.138461
0.13813
0.13789
0.137655
0.137335
0.136814
0.135918
0.134383
0.131813
0.127631
0.12104
0.111008
0.0962626
0.0753581
0.046805
0.00927693
-0.0381153
-0.0955497
-0.162373
-0.236829
-0.316397
0.289962
0.263468
0.238679
0.216431
0.197295
0.181514
0.169016
0.159497
0.15253
0.147618
0.144278
0.142082
0.140683
0.139817
0.139288
0.138954
0.138712
0.138475
0.138153
0.137627
0.136722
0.135171
0.132571
0.12834
0.121668
0.111509
0.0965783
0.0754087
0.0464841
0.00846684
-0.0395311
-0.0977109
-0.16536
-0.240711
-0.321298
0.292693
0.265856
0.240744
0.218211
0.198834
0.18285
0.170196
0.160566
0.153513
0.14854
0.145157
0.142933
0.141516
0.140639
0.140102
0.139764
0.139518
0.139277
0.138949
0.138415
0.137496
0.135923
0.133288
0.129
0.122242
0.111952
0.0968334
0.0753987
0.0461085
0.00761589
-0.0409803
-0.0998816
-0.168391
-0.244735
-0.326294
0.29537
0.268197
0.242798
0.219998
0.200393
0.184215
0.1714
0.161645
0.154504
0.149468
0.146041
0.143786
0.142348
0.141456
0.140909
0.140563
0.140311
0.140065
0.139731
0.139188
0.138256
0.13666
0.13399
0.129646
0.1228
0.112381
0.0970696
0.0753629
0.0457147
0.0067481
-0.0424546
-0.102089
-0.17144
-0.248696
-0.33127
0.298058
0.270547
0.244834
0.221755
0.201904
0.185525
0.172553
0.162678
0.155446
0.150348
0.14688
0.144598
0.143143
0.142241
0.141688
0.141337
0.141081
0.140832
0.140493
0.139943
0.139
0.137385
0.134682
0.130286
0.123358
0.112813
0.0973159
0.0753461
0.0453273
0.00587581
-0.043934
-0.104284
-0.17447
-0.252721
-0.336371
0.300733
0.272903
0.246876
0.223511
0.203415
0.186836
0.173705
0.163713
0.156397
0.151236
0.147725
0.145415
0.143943
0.14303
0.14247
0.142115
0.141856
0.141602
0.141257
0.140698
0.13974
0.138103
0.135363
0.130909
0.123891
0.113214
0.0975296
0.0752929
0.0449148
0.00498637
-0.0454283
-0.106539
-0.177589
-0.256742
-0.341326
0.303416
0.275255
0.248914
0.225269
0.204934
0.188156
0.174867
0.16475
0.157344
0.152122
0.148567
0.146227
0.144733
0.143806
0.143237
0.142876
0.142614
0.142356
0.142008
0.141442
0.140473
0.138817
0.136046
0.131539
0.124439
0.113637
0.0977639
0.0752591
0.0445085
0.00410127
-0.0469104
-0.108747
-0.180664
-0.26076
-0.346381
0.306081
0.277578
0.250913
0.226989
0.206417
0.189441
0.175994
0.165757
0.158261
0.152975
0.149378
0.147012
0.145502
0.144565
0.14399
0.143626
0.14336
0.1431
0.142749
0.142177
0.141198
0.139523
0.13672
0.132162
0.12498
0.11405
0.0979872
0.0752158
0.0441072
0.00322318
-0.0484012
-0.110976
-0.183747
-0.264774
-0.351416
0.308698
0.279859
0.252897
0.228693
0.207875
0.190701
0.177097
0.166747
0.159169
0.153826
0.150191
0.147799
0.146274
0.145329
0.144749
0.144382
0.144115
0.143853
0.143497
0.14292
0.141929
0.140235
0.1374
0.13279
0.125526
0.114472
0.0982242
0.0751865
0.0437133
0.00235189
-0.0498778
-0.113166
-0.186782
-0.268832
-0.356484
0.311336
0.282168
0.254879
0.230391
0.209336
0.191969
0.178218
0.167747
0.16008
0.154674
0.150996
0.148576
0.147034
0.146077
0.145491
0.145121
0.144851
0.144587
0.144229
0.143646
0.142646
0.140934
0.138069
0.133407
0.126061
0.114879
0.0984471
0.0751475
0.0433192
0.0014854
-0.0513362
-0.115377
-0.189845
-0.272801
-0.361462