/*--------------------------------*- C++ -*----------------------------------*\
  =========                 |
  \\      /  F ield         | OpenFOAM: The Open Source CFD Toolbox
   \\    /   O peration     | Website:  https://openfoam.org
    \\  /    A nd           | Version:  13
     \\/     M anipulation  |
\*---------------------------------------------------------------------------*/
FoamFile
{
    format      ascii;
    class       volScalarField;
    location    "16";
    object      nut;
}
// * * * * * * * * * * * * * * * * * * * * * * * * * * * * * * * * * * * * * //

dimensions      [0 2 -1 0 0 0 0];

internalField   nonuniform List<scalar> 
78750
(
4.43605e-15
1.14062e-12
2.58327e-11
4.70444e-11
6.96848e-11
9.4014e-11
1.20099e-10
1.47775e-10
1.76637e-10
2.06069e-10
2.35281e-10
2.63363e-10
2.89349e-10
3.12277e-10
3.31254e-10
3.45512e-10
3.54462e-10
3.57726e-10
3.55166e-10
3.46889e-10
3.33243e-10
3.14793e-10
2.92284e-10
2.66595e-10
2.38681e-10
2.09506e-10
1.79987e-10
1.50927e-10
1.22961e-10
9.65087e-11
7.17518e-11
4.86246e-11
2.68387e-11
1.19329e-12
4.65773e-15
9.7597e-14
2.54906e-11
3.61659e-09
6.63797e-09
9.86373e-09
1.3343e-08
1.70907e-08
2.10842e-08
2.52645e-08
2.95402e-08
3.3794e-08
3.78906e-08
4.16863e-08
4.50378e-08
4.78118e-08
4.98941e-08
5.11967e-08
5.16638e-08
5.12752e-08
5.00474e-08
4.80331e-08
4.5317e-08
4.20112e-08
3.82471e-08
3.41671e-08
2.99148e-08
2.56263e-08
2.14203e-08
1.73902e-08
1.35974e-08
1.00666e-08
6.78432e-09
3.70174e-09
2.61274e-11
1.00086e-13
2.89308e-13
7.55845e-11
1.07493e-08
1.98724e-08
2.98458e-08
4.09013e-08
5.31415e-08
6.65245e-08
8.08604e-08
9.58211e-08
1.10965e-07
1.25771e-07
1.39666e-07
1.52062e-07
1.62399e-07
1.70192e-07
1.75068e-07
1.76789e-07
1.75272e-07
1.7059e-07
1.62972e-07
1.52784e-07
1.40503e-07
1.26686e-07
1.11919e-07
9.67734e-08
8.17741e-08
6.73661e-08
5.38832e-08
4.15226e-08
3.03334e-08
2.02181e-08
1.09471e-08
7.70475e-11
2.95003e-13
5.68185e-13
1.4852e-10
2.1144e-08
3.92037e-08
5.91379e-08
8.14762e-08
1.06473e-07
1.34069e-07
1.63882e-07
1.95224e-07
2.27167e-07
2.58606e-07
2.88282e-07
3.14869e-07
3.37101e-07
3.53882e-07
3.64371e-07
3.68036e-07
3.64692e-07
3.54509e-07
3.38005e-07
3.16007e-07
2.89602e-07
2.60049e-07
2.28672e-07
1.96729e-07
1.6533e-07
1.35407e-07
1.07654e-07
8.24654e-08
5.99117e-08
3.97495e-08
2.14542e-08
1.50807e-10
5.77076e-13
8.60894e-13
2.25148e-10
3.20648e-08
5.95029e-08
8.98791e-08
1.24023e-07
1.62324e-07
2.04672e-07
2.5044e-07
2.98527e-07
3.47487e-07
3.95615e-07
4.4098e-07
4.81555e-07
5.15422e-07
5.40937e-07
5.56849e-07
5.62374e-07
5.57239e-07
5.41699e-07
5.16521e-07
4.82942e-07
4.42593e-07
3.97383e-07
3.49336e-07
3.00385e-07
2.52237e-07
2.06342e-07
1.63805e-07
1.25267e-07
9.08533e-08
6.01889e-08
3.24533e-08
2.28011e-10
8.72016e-13
1.10523e-12
2.89189e-10
4.11922e-08
7.64553e-08
1.15526e-07
1.59471e-07
2.08772e-07
2.63249e-07
3.22037e-07
3.83671e-07
4.46266e-07
5.07643e-07
5.65353e-07
6.16848e-07
6.59738e-07
6.91992e-07
7.12069e-07
7.19012e-07
7.12489e-07
6.92813e-07
6.60925e-07
6.18348e-07
5.671e-07
5.09563e-07
4.4828e-07
3.85702e-07
3.2401e-07
2.65089e-07
2.10412e-07
1.60852e-07
1.16608e-07
7.72161e-08
4.1622e-08
2.92356e-10
1.11753e-12
1.27542e-12
3.33859e-10
4.75614e-08
8.82782e-08
1.334e-07
1.84151e-07
2.41068e-07
3.03907e-07
3.71626e-07
4.42494e-07
5.14325e-07
5.84617e-07
6.50586e-07
7.09352e-07
7.58225e-07
7.94932e-07
8.17755e-07
8.25628e-07
8.18184e-07
7.95771e-07
7.59439e-07
7.10887e-07
6.52377e-07
5.86587e-07
5.16395e-07
4.44585e-07
3.73662e-07
3.05812e-07
2.42769e-07
1.85586e-07
1.34524e-07
8.90682e-08
4.80068e-08
3.37142e-10
1.28817e-12
1.37703e-12
3.60576e-10
5.13736e-08
9.53527e-08
1.4409e-07
1.98904e-07
2.60358e-07
3.28167e-07
4.01177e-07
4.77496e-07
5.54758e-07
6.30274e-07
7.01065e-07
7.64063e-07
8.16413e-07
8.55701e-07
8.80113e-07
8.88523e-07
8.80542e-07
8.56541e-07
8.17627e-07
7.656e-07
7.02859e-07
6.32249e-07
5.56835e-07
4.79597e-07
4.03226e-07
3.30087e-07
2.62074e-07
2.00352e-07
1.45225e-07
9.61493e-08
5.18222e-08
3.63883e-10
1.38988e-12
1.43008e-12
3.7455e-10
5.33696e-08
9.90564e-08
1.49686e-07
2.06624e-07
2.70449e-07
3.40852e-07
4.16618e-07
4.95772e-07
5.75853e-07
6.54075e-07
7.27359e-07
7.92544e-07
8.46685e-07
8.87304e-07
9.12534e-07
9.21219e-07
9.12961e-07
8.8814e-07
8.47895e-07
7.94074e-07
7.29147e-07
6.56043e-07
5.77924e-07
4.97868e-07
4.18663e-07
3.42769e-07
2.72164e-07
2.08072e-07
1.5082e-07
9.98521e-08
5.38172e-08
3.7785e-10
1.4429e-12
1.45469e-12
3.81044e-10
5.42983e-08
1.0078e-07
1.5229e-07
2.10217e-07
2.75145e-07
3.46754e-07
4.23801e-07
5.04271e-07
5.8566e-07
6.65136e-07
7.39576e-07
8.05772e-07
8.60743e-07
9.01977e-07
9.27586e-07
9.36397e-07
9.28011e-07
9.0281e-07
8.61948e-07
8.07298e-07
7.41357e-07
6.67099e-07
5.87725e-07
5.06362e-07
4.25841e-07
3.48667e-07
2.76856e-07
2.11662e-07
1.53422e-07
1.01574e-07
5.47447e-08
3.84335e-10
1.46747e-12
1.46496e-12
3.83761e-10
5.46874e-08
1.01502e-07
1.53381e-07
2.11722e-07
2.77113e-07
3.49228e-07
4.26812e-07
5.07834e-07
5.89772e-07
6.69773e-07
7.44698e-07
8.11318e-07
8.66636e-07
9.08128e-07
9.33895e-07
9.42759e-07
9.34319e-07
9.0896e-07
8.67839e-07
8.12841e-07
7.46476e-07
6.71733e-07
5.91834e-07
5.09922e-07
4.2885e-07
3.51138e-07
2.78822e-07
2.13166e-07
1.54512e-07
1.02295e-07
5.5133e-08
3.87047e-10
1.47773e-12
1.46887e-12
3.84796e-10
5.48357e-08
1.01777e-07
1.53797e-07
2.12297e-07
2.77864e-07
3.50173e-07
4.27962e-07
5.09195e-07
5.91342e-07
6.71545e-07
7.46654e-07
8.13436e-07
8.68888e-07
9.10478e-07
9.36305e-07
9.4519e-07
9.36729e-07
9.11309e-07
8.7009e-07
8.14958e-07
7.48431e-07
6.73503e-07
5.93402e-07
5.11281e-07
4.29998e-07
3.52081e-07
2.79572e-07
2.13739e-07
1.54927e-07
1.02569e-07
5.5281e-08
3.88079e-10
1.48162e-12
1.47023e-12
3.85157e-10
5.48876e-08
1.01874e-07
1.53943e-07
2.12498e-07
2.78127e-07
3.50503e-07
4.28365e-07
5.09672e-07
5.91892e-07
6.72166e-07
7.4734e-07
8.14179e-07
8.69678e-07
9.11302e-07
9.37151e-07
9.46043e-07
9.37575e-07
9.12133e-07
8.70879e-07
8.15701e-07
7.49117e-07
6.74123e-07
5.93952e-07
5.11758e-07
4.304e-07
3.52412e-07
2.79835e-07
2.1394e-07
1.55073e-07
1.02666e-07
5.53327e-08
3.88439e-10
1.48298e-12
1.47067e-12
3.85274e-10
5.49044e-08
1.01905e-07
1.5399e-07
2.12563e-07
2.78213e-07
3.50611e-07
4.28495e-07
5.09826e-07
5.92071e-07
6.72367e-07
7.47562e-07
8.1442e-07
8.69934e-07
9.1157e-07
9.37425e-07
9.4632e-07
9.37849e-07
9.12401e-07
8.71136e-07
8.15942e-07
7.49339e-07
6.74325e-07
5.94131e-07
5.11912e-07
4.30531e-07
3.52519e-07
2.7992e-07
2.14005e-07
1.5512e-07
1.02697e-07
5.53495e-08
3.88556e-10
1.48341e-12
1.4708e-12
3.85309e-10
5.49094e-08
1.01914e-07
1.54004e-07
2.12583e-07
2.78238e-07
3.50643e-07
4.28535e-07
5.09873e-07
5.92125e-07
6.72428e-07
7.4763e-07
8.14493e-07
8.70011e-07
9.11651e-07
9.37508e-07
9.46403e-07
9.37932e-07
9.12481e-07
8.71213e-07
8.16015e-07
7.49406e-07
6.74385e-07
5.94185e-07
5.11959e-07
4.3057e-07
3.52551e-07
2.79945e-07
2.14025e-07
1.55134e-07
1.02706e-07
5.53545e-08
3.88591e-10
1.48354e-12
1.47083e-12
3.85319e-10
5.49108e-08
1.01917e-07
1.54008e-07
2.12588e-07
2.78245e-07
3.50652e-07
4.28546e-07
5.09886e-07
5.9214e-07
6.72445e-07
7.47649e-07
8.14513e-07
8.70033e-07
9.11673e-07
9.37531e-07
9.46427e-07
9.37956e-07
9.12504e-07
8.71235e-07
8.16035e-07
7.49425e-07
6.74402e-07
5.942e-07
5.11972e-07
4.30581e-07
3.5256e-07
2.79953e-07
2.1403e-07
1.55138e-07
1.02709e-07
5.53559e-08
3.88601e-10
1.48358e-12
1.47084e-12
3.85321e-10
5.49112e-08
1.01918e-07
1.5401e-07
2.1259e-07
2.78247e-07
3.50654e-07
4.28549e-07
5.0989e-07
5.92144e-07
6.7245e-07
7.47654e-07
8.14519e-07
8.70039e-07
9.11679e-07
9.37538e-07
9.46433e-07
9.37962e-07
9.1251e-07
8.7124e-07
8.16041e-07
7.4943e-07
6.74407e-07
5.94204e-07
5.11975e-07
4.30584e-07
3.52563e-07
2.79955e-07
2.14032e-07
1.55139e-07
1.02709e-07
5.53563e-08
3.88603e-10
1.48359e-12
1.47085e-12
3.85322e-10
5.49113e-08
1.01918e-07
1.5401e-07
2.1259e-07
2.78248e-07
3.50655e-07
4.28549e-07
5.0989e-07
5.92145e-07
6.72451e-07
7.47655e-07
8.1452e-07
8.7004e-07
9.11681e-07
9.37539e-07
9.46435e-07
9.37963e-07
9.12512e-07
8.71242e-07
8.16042e-07
7.49432e-07
6.74408e-07
5.94205e-07
5.11976e-07
4.30585e-07
3.52563e-07
2.79955e-07
2.14032e-07
1.55139e-07
1.0271e-07
5.53564e-08
3.88604e-10
1.48359e-12
1.47085e-12
3.85322e-10
5.49113e-08
1.01918e-07
1.5401e-07
2.1259e-07
2.78248e-07
3.50655e-07
4.2855e-07
5.09891e-07
5.92145e-07
6.72451e-07
7.47655e-07
8.14521e-07
8.7004e-07
9.11681e-07
9.37539e-07
9.46435e-07
9.37964e-07
9.12512e-07
8.71242e-07
8.16042e-07
7.49432e-07
6.74408e-07
5.94205e-07
5.11976e-07
4.30585e-07
3.52563e-07
2.79955e-07
2.14032e-07
1.55139e-07
1.0271e-07
5.53564e-08
3.88604e-10
1.48359e-12
1.47085e-12
3.85322e-10
5.49113e-08
1.01918e-07
1.5401e-07
2.1259e-07
2.78248e-07
3.50655e-07
4.2855e-07
5.09891e-07
5.92145e-07
6.72451e-07
7.47655e-07
8.14521e-07
8.70041e-07
9.11681e-07
9.3754e-07
9.46435e-07
9.37964e-07
9.12512e-07
8.71242e-07
8.16042e-07
7.49432e-07
6.74408e-07
5.94205e-07
5.11976e-07
4.30585e-07
3.52563e-07
2.79955e-07
2.14032e-07
1.55139e-07
1.0271e-07
5.53564e-08
3.88604e-10
1.48359e-12
1.47085e-12
3.85322e-10
5.49113e-08
1.01918e-07
1.5401e-07
2.1259e-07
2.78248e-07
3.50655e-07
4.2855e-07
5.09891e-07
5.92145e-07
6.72451e-07
7.47655e-07
8.14521e-07
8.70041e-07
9.11681e-07
9.3754e-07
9.46435e-07
9.37964e-07
9.12512e-07
8.71242e-07
8.16042e-07
7.49432e-07
6.74408e-07
5.94205e-07
5.11976e-07
4.30585e-07
3.52563e-07
2.79955e-07
2.14032e-07
1.55139e-07
1.0271e-07
5.53564e-08
3.88604e-10
1.48359e-12
1.47085e-12
3.85322e-10
5.49113e-08
1.01918e-07
1.5401e-07
2.1259e-07
2.78248e-07
3.50655e-07
4.2855e-07
5.09891e-07
5.92145e-07
6.72451e-07
7.47655e-07
8.14521e-07
8.70041e-07
9.11681e-07
9.3754e-07
9.46435e-07
9.37964e-07
9.12512e-07
8.71242e-07
8.16042e-07
7.49432e-07
6.74408e-07
5.94205e-07
5.11976e-07
4.30585e-07
3.52563e-07
2.79955e-07
2.14032e-07
1.55139e-07
1.0271e-07
5.53564e-08
3.88604e-10
1.48359e-12
1.47085e-12
3.85322e-10
5.49113e-08
1.01918e-07
1.5401e-07
2.1259e-07
2.78248e-07
3.50655e-07
4.2855e-07
5.09891e-07
5.92145e-07
6.72451e-07
7.47655e-07
8.14521e-07
8.70041e-07
9.11681e-07
9.3754e-07
9.46435e-07
9.37964e-07
9.12512e-07
8.71242e-07
8.16042e-07
7.49432e-07
6.74408e-07
5.94205e-07
5.11976e-07
4.30585e-07
3.52563e-07
2.79955e-07
2.14032e-07
1.55139e-07
1.0271e-07
5.53564e-08
3.88604e-10
1.48359e-12
1.47085e-12
3.85322e-10
5.49113e-08
1.01918e-07
1.5401e-07
2.1259e-07
2.78248e-07
3.50655e-07
4.2855e-07
5.09891e-07
5.92145e-07
6.72451e-07
7.47655e-07
8.14521e-07
8.70041e-07
9.11681e-07
9.3754e-07
9.46435e-07
9.37964e-07
9.12512e-07
8.71242e-07
8.16042e-07
7.49432e-07
6.74408e-07
5.94205e-07
5.11976e-07
4.30585e-07
3.52563e-07
2.79955e-07
2.14032e-07
1.55139e-07
1.0271e-07
5.53564e-08
3.88604e-10
1.48359e-12
1.47085e-12
3.85322e-10
5.49113e-08
1.01918e-07
1.5401e-07
2.1259e-07
2.78248e-07
3.50655e-07
4.2855e-07
5.09891e-07
5.92145e-07
6.72451e-07
7.47655e-07
8.14521e-07
8.70041e-07
9.11681e-07
9.3754e-07
9.46435e-07
9.37964e-07
9.12512e-07
8.71242e-07
8.16042e-07
7.49432e-07
6.74408e-07
5.94205e-07
5.11976e-07
4.30585e-07
3.52563e-07
2.79955e-07
2.14032e-07
1.55139e-07
1.0271e-07
5.53564e-08
3.88604e-10
1.48359e-12
1.47085e-12
3.85322e-10
5.49113e-08
1.01918e-07
1.5401e-07
2.1259e-07
2.78248e-07
3.50655e-07
4.2855e-07
5.09891e-07
5.92145e-07
6.72451e-07
7.47655e-07
8.14521e-07
8.70041e-07
9.11681e-07
9.3754e-07
9.46435e-07
9.37964e-07
9.12512e-07
8.71242e-07
8.16042e-07
7.49432e-07
6.74408e-07
5.94205e-07
5.11976e-07
4.30585e-07
3.52563e-07
2.79955e-07
2.14032e-07
1.55139e-07
1.0271e-07
5.53564e-08
3.88604e-10
1.48359e-12
1.47085e-12
3.85322e-10
5.49113e-08
1.01918e-07
1.5401e-07
2.1259e-07
2.78248e-07
3.50655e-07
4.2855e-07
5.09891e-07
5.92145e-07
6.72451e-07
7.47655e-07
8.14521e-07
8.70041e-07
9.11681e-07
9.3754e-07
9.46435e-07
9.37964e-07
9.12512e-07
8.71242e-07
8.16042e-07
7.49432e-07
6.74408e-07
5.94205e-07
5.11976e-07
4.30585e-07
3.52563e-07
2.79955e-07
2.14032e-07
1.55139e-07
1.0271e-07
5.53564e-08
3.88604e-10
1.48359e-12
1.47085e-12
3.85322e-10
5.49113e-08
1.01918e-07
1.5401e-07
2.1259e-07
2.78248e-07
3.50655e-07
4.2855e-07
5.09891e-07
5.92145e-07
6.72451e-07
7.47655e-07
8.14521e-07
8.70041e-07
9.11681e-07
9.3754e-07
9.46435e-07
9.37964e-07
9.12512e-07
8.71242e-07
8.16042e-07
7.49432e-07
6.74408e-07
5.94205e-07
5.11976e-07
4.30585e-07
3.52563e-07
2.79955e-07
2.14032e-07
1.55139e-07
1.0271e-07
5.53564e-08
3.88604e-10
1.48359e-12
1.47085e-12
3.85322e-10
5.49113e-08
1.01918e-07
1.5401e-07
2.1259e-07
2.78248e-07
3.50655e-07
4.2855e-07
5.09891e-07
5.92145e-07
6.72451e-07
7.47655e-07
8.14521e-07
8.70041e-07
9.11681e-07
9.3754e-07
9.46435e-07
9.37964e-07
9.12512e-07
8.71242e-07
8.16042e-07
7.49432e-07
6.74408e-07
5.94205e-07
5.11976e-07
4.30585e-07
3.52563e-07
2.79955e-07
2.14032e-07
1.55139e-07
1.0271e-07
5.53564e-08
3.88604e-10
1.48359e-12
1.47085e-12
3.85322e-10
5.49113e-08
1.01918e-07
1.5401e-07
2.1259e-07
2.78248e-07
3.50655e-07
4.2855e-07
5.09891e-07
5.92145e-07
6.72451e-07
7.47655e-07
8.14521e-07
8.70041e-07
9.11681e-07
9.3754e-07
9.46435e-07
9.37964e-07
9.12512e-07
8.71242e-07
8.16042e-07
7.49432e-07
6.74408e-07
5.94205e-07
5.11976e-07
4.30585e-07
3.52563e-07
2.79955e-07
2.14032e-07
1.55139e-07
1.0271e-07
5.53564e-08
3.88604e-10
1.48359e-12
1.47085e-12
3.85322e-10
5.49113e-08
1.01918e-07
1.5401e-07
2.1259e-07
2.78248e-07
3.50655e-07
4.2855e-07
5.09891e-07
5.92145e-07
6.72451e-07
7.47655e-07
8.14521e-07
8.70041e-07
9.11681e-07
9.3754e-07
9.46435e-07
9.37964e-07
9.12512e-07
8.71242e-07
8.16042e-07
7.49432e-07
6.74408e-07
5.94205e-07
5.11976e-07
4.30585e-07
3.52563e-07
2.79955e-07
2.14032e-07
1.55139e-07
1.0271e-07
5.53564e-08
3.88604e-10
1.48359e-12
1.47085e-12
3.85322e-10
5.49113e-08
1.01918e-07
1.5401e-07
2.1259e-07
2.78248e-07
3.50655e-07
4.2855e-07
5.09891e-07
5.92145e-07
6.72451e-07
7.47655e-07
8.14521e-07
8.70041e-07
9.11681e-07
9.3754e-07
9.46435e-07
9.37964e-07
9.12512e-07
8.71242e-07
8.16042e-07
7.49432e-07
6.74408e-07
5.94205e-07
5.11976e-07
4.30585e-07
3.52563e-07
2.79955e-07
2.14032e-07
1.55139e-07
1.0271e-07
5.53564e-08
3.88604e-10
1.48359e-12
1.47085e-12
3.85322e-10
5.49113e-08
1.01918e-07
1.5401e-07
2.1259e-07
2.78248e-07
3.50655e-07
4.2855e-07
5.09891e-07
5.92145e-07
6.72451e-07
7.47655e-07
8.14521e-07
8.70041e-07
9.11681e-07
9.3754e-07
9.46435e-07
9.37964e-07
9.12512e-07
8.71242e-07
8.16042e-07
7.49432e-07
6.74408e-07
5.94205e-07
5.11976e-07
4.30585e-07
3.52563e-07
2.79955e-07
2.14032e-07
1.55139e-07
1.0271e-07
5.53564e-08
3.88604e-10
1.48359e-12
1.47085e-12
3.85322e-10
5.49113e-08
1.01918e-07
1.5401e-07
2.1259e-07
2.78248e-07
3.50655e-07
4.2855e-07
5.09891e-07
5.92145e-07
6.72451e-07
7.47655e-07
8.14521e-07
8.70041e-07
9.11681e-07
9.3754e-07
9.46435e-07
9.37964e-07
9.12512e-07
8.71242e-07
8.16042e-07
7.49432e-07
6.74408e-07
5.94205e-07
5.11976e-07
4.30585e-07
3.52563e-07
2.79955e-07
2.14032e-07
1.55139e-07
1.0271e-07
5.53564e-08
3.88604e-10
1.48359e-12
1.47085e-12
3.85322e-10
5.49113e-08
1.01918e-07
1.5401e-07
2.1259e-07
2.78248e-07
3.50655e-07
4.2855e-07
5.09891e-07
5.92145e-07
6.72451e-07
7.47655e-07
8.14521e-07
8.70041e-07
9.11681e-07
9.3754e-07
9.46435e-07
9.37964e-07
9.12512e-07
8.71242e-07
8.16042e-07
7.49432e-07
6.74408e-07
5.94205e-07
5.11976e-07
4.30585e-07
3.52563e-07
2.79955e-07
2.14032e-07
1.55139e-07
1.0271e-07
5.53564e-08
3.88604e-10
1.48359e-12
1.47085e-12
3.85322e-10
5.49113e-08
1.01918e-07
1.5401e-07
2.1259e-07
2.78248e-07
3.50655e-07
4.2855e-07
5.09891e-07
5.92145e-07
6.72451e-07
7.47655e-07
8.14521e-07
8.70041e-07
9.11681e-07
9.3754e-07
9.46435e-07
9.37964e-07
9.12512e-07
8.71242e-07
8.16042e-07
7.49432e-07
6.74408e-07
5.94205e-07
5.11976e-07
4.30585e-07
3.52563e-07
2.79955e-07
2.14032e-07
1.55139e-07
1.0271e-07
5.53564e-08
3.88604e-10
1.48359e-12
1.47085e-12
3.85322e-10
5.49113e-08
1.01918e-07
1.5401e-07
2.1259e-07
2.78248e-07
3.50655e-07
4.2855e-07
5.09891e-07
5.92145e-07
6.72451e-07
7.47655e-07
8.14521e-07
8.70041e-07
9.11681e-07
9.3754e-07
9.46435e-07
9.37964e-07
9.12512e-07
8.71242e-07
8.16042e-07
7.49432e-07
6.74408e-07
5.94205e-07
5.11976e-07
4.30585e-07
3.52563e-07
2.79955e-07
2.14032e-07
1.55139e-07
1.0271e-07
5.53564e-08
3.88604e-10
1.48359e-12
1.47085e-12
3.85322e-10
5.49113e-08
1.01918e-07
1.5401e-07
2.1259e-07
2.78248e-07
3.50655e-07
4.2855e-07
5.09891e-07
5.92145e-07
6.72451e-07
7.47655e-07
8.14521e-07
8.70041e-07
9.11681e-07
9.3754e-07
9.46435e-07
9.37964e-07
9.12512e-07
8.71242e-07
8.16042e-07
7.49432e-07
6.74408e-07
5.94205e-07
5.11976e-07
4.30585e-07
3.52563e-07
2.79955e-07
2.14032e-07
1.55139e-07
1.0271e-07
5.53564e-08
3.88604e-10
1.48359e-12
1.47085e-12
3.85322e-10
5.49113e-08
1.01918e-07
1.5401e-07
2.1259e-07
2.78248e-07
3.50655e-07
4.2855e-07
5.09891e-07
5.92145e-07
6.72451e-07
7.47655e-07
8.14521e-07
8.70041e-07
9.11681e-07
9.3754e-07
9.46435e-07
9.37964e-07
9.12512e-07
8.71242e-07
8.16042e-07
7.49432e-07
6.74408e-07
5.94205e-07
5.11976e-07
4.30585e-07
3.52563e-07
2.79955e-07
2.14032e-07
1.55139e-07
1.0271e-07
5.53564e-08
3.88604e-10
1.48359e-12
1.47085e-12
3.85322e-10
5.49113e-08
1.01918e-07
1.5401e-07
2.1259e-07
2.78248e-07
3.50655e-07
4.2855e-07
5.09891e-07
5.92145e-07
6.72451e-07
7.47655e-07
8.14521e-07
8.70041e-07
9.11681e-07
9.3754e-07
9.46435e-07
9.37964e-07
9.12512e-07
8.71242e-07
8.16042e-07
7.49432e-07
6.74408e-07
5.94205e-07
5.11976e-07
4.30585e-07
3.52563e-07
2.79955e-07
2.14032e-07
1.55139e-07
1.0271e-07
5.53564e-08
3.88604e-10
1.48359e-12
1.47085e-12
3.85322e-10
5.49113e-08
1.01918e-07
1.5401e-07
2.1259e-07
2.78248e-07
3.50655e-07
4.2855e-07
5.09891e-07
5.92145e-07
6.72451e-07
7.47655e-07
8.14521e-07
8.70041e-07
9.11681e-07
9.3754e-07
9.46435e-07
9.37964e-07
9.12512e-07
8.71242e-07
8.16042e-07
7.49432e-07
6.74408e-07
5.94205e-07
5.11976e-07
4.30585e-07
3.52563e-07
2.79955e-07
2.14032e-07
1.55139e-07
1.0271e-07
5.53564e-08
3.88604e-10
1.48359e-12
1.47085e-12
3.85322e-10
5.49113e-08
1.01918e-07
1.5401e-07
2.1259e-07
2.78248e-07
3.50655e-07
4.2855e-07
5.09891e-07
5.92145e-07
6.72451e-07
7.47655e-07
8.14521e-07
8.70041e-07
9.11681e-07
9.3754e-07
9.46435e-07
9.37964e-07
9.12512e-07
8.71242e-07
8.16042e-07
7.49432e-07
6.74408e-07
5.94205e-07
5.11976e-07
4.30585e-07
3.52563e-07
2.79955e-07
2.14032e-07
1.55139e-07
1.0271e-07
5.53564e-08
3.88604e-10
1.48359e-12
1.47085e-12
3.85322e-10
5.49113e-08
1.01918e-07
1.5401e-07
2.1259e-07
2.78248e-07
3.50655e-07
4.2855e-07
5.09891e-07
5.92145e-07
6.72451e-07
7.47655e-07
8.14521e-07
8.70041e-07
9.11681e-07
9.3754e-07
9.46435e-07
9.37964e-07
9.12512e-07
8.71242e-07
8.16042e-07
7.49432e-07
6.74408e-07
5.94205e-07
5.11976e-07
4.30585e-07
3.52563e-07
2.79955e-07
2.14032e-07
1.55139e-07
1.0271e-07
5.53564e-08
3.88604e-10
1.48359e-12
1.47085e-12
3.85322e-10
5.49113e-08
1.01918e-07
1.5401e-07
2.1259e-07
2.78248e-07
3.50655e-07
4.2855e-07
5.09891e-07
5.92145e-07
6.72451e-07
7.47655e-07
8.14521e-07
8.70041e-07
9.11681e-07
9.3754e-07
9.46435e-07
9.37964e-07
9.12512e-07
8.71242e-07
8.16042e-07
7.49432e-07
6.74408e-07
5.94205e-07
5.11976e-07
4.30585e-07
3.52563e-07
2.79955e-07
2.14032e-07
1.55139e-07
1.0271e-07
5.53564e-08
3.88604e-10
1.48359e-12
1.47085e-12
3.85322e-10
5.49113e-08
1.01918e-07
1.5401e-07
2.1259e-07
2.78248e-07
3.50655e-07
4.2855e-07
5.09891e-07
5.92145e-07
6.72451e-07
7.47655e-07
8.14521e-07
8.70041e-07
9.11681e-07
9.3754e-07
9.46435e-07
9.37964e-07
9.12512e-07
8.71242e-07
8.16042e-07
7.49432e-07
6.74408e-07
5.94205e-07
5.11976e-07
4.30585e-07
3.52563e-07
2.79955e-07
2.14032e-07
1.55139e-07
1.0271e-07
5.53564e-08
3.88604e-10
1.48359e-12
1.47085e-12
3.85322e-10
5.49113e-08
1.01918e-07
1.5401e-07
2.1259e-07
2.78248e-07
3.50655e-07
4.2855e-07
5.09891e-07
5.92145e-07
6.72451e-07
7.47655e-07
8.14521e-07
8.70041e-07
9.11681e-07
9.3754e-07
9.46435e-07
9.37964e-07
9.12512e-07
8.71242e-07
8.16042e-07
7.49432e-07
6.74408e-07
5.94205e-07
5.11976e-07
4.30585e-07
3.52563e-07
2.79955e-07
2.14032e-07
1.55139e-07
1.0271e-07
5.53564e-08
3.88604e-10
1.48359e-12
1.47085e-12
3.85322e-10
5.49113e-08
1.01918e-07
1.5401e-07
2.1259e-07
2.78248e-07
3.50655e-07
4.2855e-07
5.09891e-07
5.92145e-07
6.72451e-07
7.47655e-07
8.14521e-07
8.70041e-07
9.11681e-07
9.3754e-07
9.46435e-07
9.37964e-07
9.12512e-07
8.71242e-07
8.16042e-07
7.49432e-07
6.74408e-07
5.94205e-07
5.11976e-07
4.30585e-07
3.52563e-07
2.79955e-07
2.14032e-07
1.55139e-07
1.0271e-07
5.53564e-08
3.88604e-10
1.48359e-12
1.47085e-12
3.85322e-10
5.49113e-08
1.01918e-07
1.5401e-07
2.1259e-07
2.78248e-07
3.50655e-07
4.2855e-07
5.09891e-07
5.92145e-07
6.72451e-07
7.47655e-07
8.14521e-07
8.70041e-07
9.11681e-07
9.3754e-07
9.46435e-07
9.37964e-07
9.12512e-07
8.71242e-07
8.16042e-07
7.49432e-07
6.74408e-07
5.94205e-07
5.11976e-07
4.30585e-07
3.52563e-07
2.79955e-07
2.14032e-07
1.55139e-07
1.0271e-07
5.53564e-08
3.88604e-10
1.48359e-12
1.47085e-12
3.85322e-10
5.49113e-08
1.01918e-07
1.5401e-07
2.1259e-07
2.78248e-07
3.50655e-07
4.2855e-07
5.09891e-07
5.92145e-07
6.72451e-07
7.47655e-07
8.14521e-07
8.70041e-07
9.11681e-07
9.3754e-07
9.46435e-07
9.37964e-07
9.12512e-07
8.71242e-07
8.16042e-07
7.49432e-07
6.74408e-07
5.94205e-07
5.11976e-07
4.30585e-07
3.52563e-07
2.79955e-07
2.14032e-07
1.55139e-07
1.0271e-07
5.53564e-08
3.88604e-10
1.48359e-12
1.47085e-12
3.85322e-10
5.49113e-08
1.01918e-07
1.5401e-07
2.1259e-07
2.78248e-07
3.50655e-07
4.2855e-07
5.09891e-07
5.92145e-07
6.72451e-07
7.47655e-07
8.14521e-07
8.70041e-07
9.11681e-07
9.3754e-07
9.46435e-07
9.37964e-07
9.12512e-07
8.71242e-07
8.16042e-07
7.49432e-07
6.74408e-07
5.94205e-07
5.11976e-07
4.30585e-07
3.52563e-07
2.79955e-07
2.14032e-07
1.55139e-07
1.0271e-07
5.53564e-08
3.88604e-10
1.48359e-12
1.47085e-12
3.85322e-10
5.49113e-08
1.01918e-07
1.5401e-07
2.1259e-07
2.78248e-07
3.50655e-07
4.2855e-07
5.09891e-07
5.92145e-07
6.72451e-07
7.47655e-07
8.14521e-07
8.70041e-07
9.11681e-07
9.3754e-07
9.46435e-07
9.37964e-07
9.12512e-07
8.71242e-07
8.16042e-07
7.49432e-07
6.74408e-07
5.94205e-07
5.11976e-07
4.30585e-07
3.52563e-07
2.79955e-07
2.14032e-07
1.55139e-07
1.0271e-07
5.53564e-08
3.88604e-10
1.48359e-12
1.47085e-12
3.85322e-10
5.49113e-08
1.01918e-07
1.5401e-07
2.1259e-07
2.78248e-07
3.50655e-07
4.2855e-07
5.09891e-07
5.92145e-07
6.72451e-07
7.47655e-07
8.14521e-07
8.70041e-07
9.11681e-07
9.3754e-07
9.46435e-07
9.37964e-07
9.12512e-07
8.71242e-07
8.16042e-07
7.49432e-07
6.74408e-07
5.94205e-07
5.11976e-07
4.30585e-07
3.52563e-07
2.79955e-07
2.14032e-07
1.55139e-07
1.0271e-07
5.53564e-08
3.88604e-10
1.48359e-12
1.47085e-12
3.85322e-10
5.49113e-08
1.01918e-07
1.5401e-07
2.1259e-07
2.78248e-07
3.50655e-07
4.2855e-07
5.09891e-07
5.92145e-07
6.72451e-07
7.47655e-07
8.14521e-07
8.70041e-07
9.11681e-07
9.3754e-07
9.46435e-07
9.37964e-07
9.12512e-07
8.71242e-07
8.16042e-07
7.49432e-07
6.74408e-07
5.94205e-07
5.11976e-07
4.30585e-07
3.52563e-07
2.79955e-07
2.14032e-07
1.55139e-07
1.0271e-07
5.53564e-08
3.88604e-10
1.48359e-12
1.47085e-12
3.85322e-10
5.49113e-08
1.01918e-07
1.5401e-07
2.1259e-07
2.78248e-07
3.50655e-07
4.2855e-07
5.09891e-07
5.92145e-07
6.72451e-07
7.47655e-07
8.14521e-07
8.70041e-07
9.11681e-07
9.3754e-07
9.46435e-07
9.37964e-07
9.12512e-07
8.71242e-07
8.16042e-07
7.49432e-07
6.74408e-07
5.94205e-07
5.11976e-07
4.30585e-07
3.52563e-07
2.79955e-07
2.14032e-07
1.55139e-07
1.0271e-07
5.53564e-08
3.88604e-10
1.48359e-12
1.47085e-12
3.85322e-10
5.49113e-08
1.01918e-07
1.5401e-07
2.1259e-07
2.78248e-07
3.50655e-07
4.2855e-07
5.09891e-07
5.92145e-07
6.72451e-07
7.47655e-07
8.14521e-07
8.70041e-07
9.11681e-07
9.3754e-07
9.46435e-07
9.37964e-07
9.12512e-07
8.71242e-07
8.16042e-07
7.49432e-07
6.74408e-07
5.94205e-07
5.11976e-07
4.30585e-07
3.52563e-07
2.79955e-07
2.14032e-07
1.55139e-07
1.0271e-07
5.53564e-08
3.88604e-10
1.48359e-12
1.47085e-12
3.85322e-10
5.49113e-08
1.01918e-07
1.5401e-07
2.1259e-07
2.78248e-07
3.50655e-07
4.2855e-07
5.09891e-07
5.92145e-07
6.72451e-07
7.47655e-07
8.14521e-07
8.70041e-07
9.11681e-07
9.3754e-07
9.46435e-07
9.37964e-07
9.12512e-07
8.71242e-07
8.16042e-07
7.49432e-07
6.74408e-07
5.94205e-07
5.11976e-07
4.30585e-07
3.52563e-07
2.79955e-07
2.14032e-07
1.55139e-07
1.0271e-07
5.53564e-08
3.88604e-10
1.48359e-12
1.47085e-12
3.85322e-10
5.49113e-08
1.01918e-07
1.5401e-07
2.1259e-07
2.78248e-07
3.50655e-07
4.2855e-07
5.09891e-07
5.92145e-07
6.72451e-07
7.47655e-07
8.14521e-07
8.70041e-07
9.11681e-07
9.3754e-07
9.46435e-07
9.37964e-07
9.12512e-07
8.71242e-07
8.16042e-07
7.49432e-07
6.74408e-07
5.94205e-07
5.11976e-07
4.30585e-07
3.52563e-07
2.79955e-07
2.14032e-07
1.55139e-07
1.0271e-07
5.53564e-08
3.88604e-10
1.48359e-12
1.47085e-12
3.85322e-10
5.49113e-08
1.01918e-07
1.5401e-07
2.1259e-07
2.78248e-07
3.50655e-07
4.2855e-07
5.09891e-07
5.92145e-07
6.72451e-07
7.47655e-07
8.14521e-07
8.70041e-07
9.11681e-07
9.3754e-07
9.46435e-07
9.37964e-07
9.12512e-07
8.71242e-07
8.16042e-07
7.49432e-07
6.74408e-07
5.94205e-07
5.11976e-07
4.30585e-07
3.52563e-07
2.79955e-07
2.14032e-07
1.55139e-07
1.0271e-07
5.53564e-08
3.88604e-10
1.48359e-12
1.47085e-12
3.85322e-10
5.49113e-08
1.01918e-07
1.5401e-07
2.1259e-07
2.78248e-07
3.50655e-07
4.2855e-07
5.09891e-07
5.92145e-07
6.72451e-07
7.47655e-07
8.14521e-07
8.70041e-07
9.11681e-07
9.3754e-07
9.46435e-07
9.37964e-07
9.12512e-07
8.71242e-07
8.16042e-07
7.49432e-07
6.74408e-07
5.94205e-07
5.11976e-07
4.30585e-07
3.52563e-07
2.79955e-07
2.14032e-07
1.55139e-07
1.0271e-07
5.53564e-08
3.88604e-10
1.48359e-12
1.47085e-12
3.85322e-10
5.49113e-08
1.01918e-07
1.5401e-07
2.1259e-07
2.78248e-07
3.50655e-07
4.2855e-07
5.09891e-07
5.92145e-07
6.72451e-07
7.47655e-07
8.14521e-07
8.70041e-07
9.11681e-07
9.3754e-07
9.46435e-07
9.37964e-07
9.12512e-07
8.71242e-07
8.16042e-07
7.49432e-07
6.74408e-07
5.94205e-07
5.11976e-07
4.30585e-07
3.52563e-07
2.79955e-07
2.14032e-07
1.55139e-07
1.0271e-07
5.53564e-08
3.88604e-10
1.48359e-12
1.47085e-12
3.85322e-10
5.49113e-08
1.01918e-07
1.5401e-07
2.1259e-07
2.78248e-07
3.50655e-07
4.2855e-07
5.09891e-07
5.92145e-07
6.72451e-07
7.47655e-07
8.14521e-07
8.70041e-07
9.11681e-07
9.3754e-07
9.46435e-07
9.37964e-07
9.12512e-07
8.71242e-07
8.16042e-07
7.49432e-07
6.74408e-07
5.94205e-07
5.11976e-07
4.30585e-07
3.52563e-07
2.79955e-07
2.14032e-07
1.55139e-07
1.0271e-07
5.53564e-08
3.88604e-10
1.48359e-12
1.47085e-12
3.85322e-10
5.49113e-08
1.01918e-07
1.5401e-07
2.1259e-07
2.78248e-07
3.50655e-07
4.2855e-07
5.09891e-07
5.92145e-07
6.72451e-07
7.47655e-07
8.14521e-07
8.70041e-07
9.11681e-07
9.3754e-07
9.46435e-07
9.37964e-07
9.12512e-07
8.71242e-07
8.16042e-07
7.49432e-07
6.74408e-07
5.94205e-07
5.11976e-07
4.30585e-07
3.52563e-07
2.79955e-07
2.14032e-07
1.55139e-07
1.0271e-07
5.53564e-08
3.88604e-10
1.48359e-12
1.47085e-12
3.85322e-10
5.49113e-08
1.01918e-07
1.5401e-07
2.1259e-07
2.78248e-07
3.50655e-07
4.2855e-07
5.09891e-07
5.92145e-07
6.72451e-07
7.47655e-07
8.14521e-07
8.70041e-07
9.11681e-07
9.3754e-07
9.46435e-07
9.37964e-07
9.12512e-07
8.71242e-07
8.16042e-07
7.49432e-07
6.74408e-07
5.94205e-07
5.11976e-07
4.30585e-07
3.52563e-07
2.79955e-07
2.14032e-07
1.55139e-07
1.0271e-07
5.53564e-08
3.88604e-10
1.48359e-12
1.47085e-12
3.85322e-10
5.49113e-08
1.01918e-07
1.5401e-07
2.1259e-07
2.78248e-07
3.50655e-07
4.2855e-07
5.09891e-07
5.92145e-07
6.72451e-07
7.47655e-07
8.14521e-07
8.70041e-07
9.11681e-07
9.3754e-07
9.46435e-07
9.37964e-07
9.12512e-07
8.71242e-07
8.16042e-07
7.49432e-07
6.74408e-07
5.94205e-07
5.11976e-07
4.30585e-07
3.52563e-07
2.79955e-07
2.14032e-07
1.55139e-07
1.0271e-07
5.53564e-08
3.88604e-10
1.48359e-12
1.47085e-12
3.85322e-10
5.49113e-08
1.01918e-07
1.5401e-07
2.1259e-07
2.78248e-07
3.50655e-07
4.2855e-07
5.09891e-07
5.92145e-07
6.72451e-07
7.47655e-07
8.14521e-07
8.70041e-07
9.11681e-07
9.3754e-07
9.46435e-07
9.37964e-07
9.12512e-07
8.71242e-07
8.16042e-07
7.49432e-07
6.74408e-07
5.94205e-07
5.11976e-07
4.30585e-07
3.52563e-07
2.79955e-07
2.14032e-07
1.55139e-07
1.0271e-07
5.53564e-08
3.88604e-10
1.48359e-12
1.47085e-12
3.85322e-10
5.49113e-08
1.01918e-07
1.5401e-07
2.1259e-07
2.78248e-07
3.50655e-07
4.2855e-07
5.09891e-07
5.92145e-07
6.72451e-07
7.47655e-07
8.14521e-07
8.70041e-07
9.11681e-07
9.3754e-07
9.46435e-07
9.37964e-07
9.12512e-07
8.71242e-07
8.16042e-07
7.49432e-07
6.74408e-07
5.94205e-07
5.11976e-07
4.30585e-07
3.52563e-07
2.79955e-07
2.14032e-07
1.55139e-07
1.0271e-07
5.53564e-08
3.88604e-10
1.48359e-12
1.47085e-12
3.85322e-10
5.49113e-08
1.01918e-07
1.5401e-07
2.1259e-07
2.78248e-07
3.50655e-07
4.2855e-07
5.09891e-07
5.92145e-07
6.72451e-07
7.47655e-07
8.14521e-07
8.70041e-07
9.11681e-07
9.3754e-07
9.46435e-07
9.37964e-07
9.12512e-07
8.71242e-07
8.16042e-07
7.49432e-07
6.74408e-07
5.94205e-07
5.11976e-07
4.30585e-07
3.52563e-07
2.79955e-07
2.14032e-07
1.55139e-07
1.0271e-07
5.53564e-08
3.88604e-10
1.48359e-12
1.47085e-12
3.85322e-10
5.49113e-08
1.01918e-07
1.5401e-07
2.1259e-07
2.78248e-07
3.50655e-07
4.2855e-07
5.09891e-07
5.92145e-07
6.72451e-07
7.47655e-07
8.14521e-07
8.70041e-07
9.11681e-07
9.3754e-07
9.46435e-07
9.37964e-07
9.12512e-07
8.71242e-07
8.16042e-07
7.49432e-07
6.74408e-07
5.94205e-07
5.11976e-07
4.30585e-07
3.52563e-07
2.79955e-07
2.14032e-07
1.55139e-07
1.0271e-07
5.53564e-08
3.88604e-10
1.48359e-12
1.47085e-12
3.85322e-10
5.49113e-08
1.01918e-07
1.5401e-07
2.1259e-07
2.78248e-07
3.50655e-07
4.2855e-07
5.09891e-07
5.92145e-07
6.72451e-07
7.47655e-07
8.14521e-07
8.70041e-07
9.11681e-07
9.3754e-07
9.46435e-07
9.37964e-07
9.12512e-07
8.71242e-07
8.16042e-07
7.49432e-07
6.74408e-07
5.94205e-07
5.11976e-07
4.30585e-07
3.52563e-07
2.79955e-07
2.14032e-07
1.55139e-07
1.0271e-07
5.53564e-08
3.88604e-10
1.48359e-12
1.47085e-12
3.85322e-10
5.49113e-08
1.01918e-07
1.5401e-07
2.1259e-07
2.78248e-07
3.50655e-07
4.2855e-07
5.09891e-07
5.92145e-07
6.72451e-07
7.47655e-07
8.14521e-07
8.70041e-07
9.11681e-07
9.3754e-07
9.46435e-07
9.37964e-07
9.12512e-07
8.71242e-07
8.16042e-07
7.49432e-07
6.74408e-07
5.94205e-07
5.11976e-07
4.30585e-07
3.52563e-07
2.79955e-07
2.14032e-07
1.55139e-07
1.0271e-07
5.53564e-08
3.88604e-10
1.48359e-12
1.47085e-12
3.85322e-10
5.49113e-08
1.01918e-07
1.5401e-07
2.1259e-07
2.78248e-07
3.50655e-07
4.2855e-07
5.09891e-07
5.92145e-07
6.72451e-07
7.47655e-07
8.14521e-07
8.70041e-07
9.11681e-07
9.3754e-07
9.46435e-07
9.37964e-07
9.12512e-07
8.71242e-07