/*--------------------------------*- C++ -*----------------------------------*\
  =========                 |
  \\      /  F ield         | OpenFOAM: The Open Source CFD Toolbox
   \\    /   O peration     | Website:  https://openfoam.org
    \\  /    A nd           | Version:  13
     \\/     M anipulation  |
\*---------------------------------------------------------------------------*/
FoamFile
{
    format      ascii;
    class       volScalarField;
    location    "300";
    object      nut;
}
// * * * * * * * * * * * * * * * * * * * * * * * * * * * * * * * * * * * * * //

dimensions      [0 2 -1 0 0 0 0];

internalField   nonuniform List<scalar> 
78750
(
3.4623e-19
8.84896e-17
1.99407e-15
3.61679e-15
5.32681e-15
7.13653e-15
9.04685e-15
1.10442e-14
1.31004e-14
1.51741e-14
1.72133e-14
1.91591e-14
2.09492e-14
2.25223e-14
2.38215e-14
2.47982e-14
2.54146e-14
2.56467e-14
2.54851e-14
2.49359e-14
2.40204e-14
2.27735e-14
2.12419e-14
1.9481e-14
1.75515e-14
1.55159e-14
1.34337e-14
1.13582e-14
9.33226e-15
7.38586e-15
5.5337e-15
3.77496e-15
2.09452e-15
9.37385e-17
3.6841e-19
7.50732e-18
1.94898e-15
2.75078e-13
5.02524e-13
7.41954e-13
9.96004e-13
1.26517e-12
1.54765e-12
1.83941e-12
2.13443e-12
2.42515e-12
2.70298e-12
2.95884e-12
3.18378e-12
3.36949e-12
3.50889e-12
3.5965e-12
3.62883e-12
3.60455e-12
3.5246e-12
3.39213e-12
3.21229e-12
2.99194e-12
2.73921e-12
2.46297e-12
2.17232e-12
1.87596e-12
1.58159e-12
1.29542e-12
1.02172e-12
7.62476e-13
5.17333e-13
2.83679e-13
2.01328e-15
7.75998e-18
2.0784e-17
5.39739e-15
7.63386e-13
1.40282e-12
2.0893e-12
2.8349e-12
3.6442e-12
4.51344e-12
5.43046e-12
6.37539e-12
7.3219e-12
8.23905e-12
9.09337e-12
9.8512e-12
1.0481e-11
1.09554e-11
1.12535e-11
1.13616e-11
1.12748e-11
1.09971e-11
1.05407e-11
9.9261e-12
9.17975e-12
8.33283e-12
7.41888e-12
6.47149e-12
5.522e-12
4.59725e-12
3.71779e-12
2.89646e-12
2.13761e-12
1.43709e-12
7.82973e-13
5.54233e-15
2.13518e-17
3.96249e-17
1.02908e-14
1.45656e-12
2.68247e-12
4.00812e-12
5.46025e-12
7.05035e-12
8.7728e-12
1.06044e-11
1.25055e-11
1.44222e-11
1.62902e-11
1.80387e-11
1.95959e-11
2.08937e-11
2.1873e-11
2.24878e-11
2.27087e-11
2.25248e-11
2.19451e-11
2.0997e-11
1.9725e-11
1.81872e-11
1.64509e-11
1.45879e-11
1.2669e-11
1.07594e-11
8.914e-12
7.17364e-12
5.56273e-12
4.08801e-12
2.73874e-12
1.4885e-12
1.05262e-14
4.05465e-17
6.08191e-17
1.57945e-14
2.23597e-12
4.12038e-12
6.16234e-12
8.40458e-12
1.0866e-11
1.35386e-11
1.63869e-11
1.93492e-11
2.23411e-11
2.52614e-11
2.79986e-11
3.04387e-11
3.24736e-11
3.40094e-11
3.49726e-11
3.53164e-11
3.50239e-11
3.41091e-11
3.26166e-11
3.06173e-11
2.8204e-11
2.54835e-11
2.25697e-11
1.95746e-11
1.66003e-11
1.37327e-11
1.1035e-11
8.54471e-12
6.2712e-12
4.19676e-12
2.27915e-12
1.61124e-14
6.20632e-17
8.15064e-17
2.11663e-14
2.9965e-12
5.52264e-12
8.2614e-12
1.12706e-11
1.45761e-11
1.81673e-11
2.19965e-11
2.59808e-11
3.00066e-11
3.39372e-11
3.76222e-11
4.09076e-11
4.36476e-11
4.57148e-11
4.70103e-11
4.74707e-11
4.70732e-11
4.58373e-11
4.38231e-11
4.11271e-11
3.78744e-11
3.421e-11
3.02872e-11
2.62574e-11
2.22582e-11
1.8405e-11
1.47829e-11
1.14418e-11
8.39405e-12
5.61546e-12
3.04882e-12
2.15511e-14
8.30127e-17
9.97795e-17
2.59116e-14
3.66832e-12
6.76095e-12
1.01142e-11
1.37991e-11
1.78473e-11
2.2246e-11
2.69367e-11
3.18176e-11
3.67496e-11
4.15651e-11
4.60796e-11
5.01043e-11
5.34604e-11
5.59918e-11
5.75771e-11
5.81387e-11
5.76489e-11
5.61316e-11
5.36608e-11
5.03549e-11
4.63675e-11
4.18765e-11
3.70699e-11
3.21332e-11
2.72351e-11
2.25169e-11
1.80828e-11
1.39937e-11
1.02648e-11
6.86606e-12
3.72743e-12
2.63462e-14
1.01481e-16
1.146e-16
2.97615e-14
4.21343e-12
7.76558e-12
1.16171e-11
1.58496e-11
2.04995e-11
2.5552e-11
3.09399e-11
3.65462e-11
4.22111e-11
4.77421e-11
5.29269e-11
5.75489e-11
6.14025e-11
6.43085e-11
6.61275e-11
6.67704e-11
6.62055e-11
6.44605e-11
6.16203e-11
5.78211e-11
5.32398e-11
4.80803e-11
4.25591e-11
3.6889e-11
3.12639e-11
2.5846e-11
2.07548e-11
1.60604e-11
1.17799e-11
7.87903e-12
4.27711e-12
3.02295e-14
1.16432e-16
1.25688e-16
3.26431e-14
4.62156e-12
8.51772e-12
1.27422e-11
1.73845e-11
2.24846e-11
2.80262e-11
3.39356e-11
4.00846e-11
4.62975e-11
5.23634e-11
5.80493e-11
6.31177e-11
6.7343e-11
7.05287e-11
7.25221e-11
7.32255e-11
7.26041e-11
7.06883e-11
6.75717e-11
6.34036e-11
5.83779e-11
5.27186e-11
4.6663e-11
4.04445e-11
3.42758e-11
2.83347e-11
2.27523e-11
1.76053e-11
1.29125e-11
8.63625e-12
4.68798e-12
3.31312e-14
1.27599e-16
1.33359e-16
3.46379e-14
4.90418e-12
9.03857e-12
1.35213e-11
1.84474e-11
2.38592e-11
2.97395e-11
3.601e-11
4.25345e-11
4.91269e-11
5.55629e-11
6.15957e-11
6.69729e-11
7.14554e-11
7.48346e-11
7.69484e-11
7.76934e-11
7.70326e-11
7.49985e-11
7.16903e-11
6.72666e-11
6.19332e-11
5.59278e-11
4.95023e-11
4.29041e-11
3.63592e-11
3.00561e-11
2.41338e-11
1.86737e-11
1.36957e-11
9.15982e-12
4.97205e-12
3.51365e-14
1.35312e-16
1.38279e-16
3.59181e-14
5.08565e-12
9.37302e-12
1.40216e-11
1.91299e-11
2.47419e-11
3.08396e-11
3.7342e-11
4.41077e-11
5.09437e-11
5.76175e-11
6.38729e-11
6.94485e-11
7.4096e-11
7.75993e-11
7.97903e-11
8.05619e-11
7.98757e-11
7.77654e-11
7.43341e-11
6.97461e-11
6.4215e-11
5.79873e-11
5.13241e-11
4.44822e-11
3.76958e-11
3.11603e-11
2.50199e-11
1.93589e-11
1.4198e-11
9.49554e-12
5.15418e-12
3.64216e-14
1.4025e-16
1.41214e-16
3.66823e-14
5.19403e-12
9.57278e-12
1.43204e-11
1.95376e-11
2.52691e-11
3.14968e-11
3.81377e-11
4.50475e-11
5.2029e-11
5.88448e-11
6.52333e-11
7.09272e-11
7.56733e-11
7.92507e-11
8.14878e-11
8.22752e-11
8.15737e-11
7.94178e-11
7.59128e-11
7.12266e-11
6.55773e-11
5.92168e-11
5.24116e-11
4.54242e-11
3.84935e-11
3.18192e-11
2.55486e-11
1.97677e-11
1.44976e-11
9.69579e-12
5.26279e-12
3.71875e-14
1.43192e-16
1.42847e-16
3.71081e-14
5.25445e-12
9.68413e-12
1.4487e-11
1.97649e-11
2.55631e-11
3.18632e-11
3.85813e-11
4.55715e-11
5.26342e-11
5.95292e-11
6.59918e-11
7.17518e-11
7.65528e-11
8.01715e-11
8.24342e-11
8.32303e-11
8.25203e-11
8.03389e-11
7.67928e-11
7.20518e-11
6.63366e-11
5.99019e-11
5.30176e-11
4.5949e-11
3.89378e-11
3.21862e-11
2.58431e-11
1.99954e-11
1.46644e-11
9.80727e-12
5.32325e-12
3.76136e-14
1.44826e-16
1.43699e-16
3.73302e-14
5.28599e-12
9.74227e-12
1.4574e-11
1.98835e-11
2.57166e-11
3.20545e-11
3.8813e-11
4.58452e-11
5.29503e-11
5.98866e-11
6.63879e-11
7.21824e-11
7.70121e-11
8.06524e-11
8.29285e-11
8.37292e-11
8.30146e-11
8.08199e-11
7.72523e-11
7.24826e-11
6.6733e-11
6.02596e-11
5.33339e-11
4.62228e-11
3.91697e-11
3.23777e-11
2.59967e-11
2.01141e-11
1.47514e-11
9.86541e-12
5.35478e-12
3.78356e-14
1.45677e-16
1.44116e-16
3.74392e-14
5.30147e-12
9.77081e-12
1.46167e-11
1.99418e-11
2.57919e-11
3.21485e-11
3.89268e-11
4.59795e-11
5.31054e-11
6.0062e-11
6.65824e-11
7.23938e-11
7.72376e-11
8.08884e-11
8.31712e-11
8.3974e-11
8.32573e-11
8.1056e-11
7.74778e-11
7.2694e-11
6.69275e-11
6.04351e-11
5.34891e-11
4.63572e-11
3.92835e-11
3.24717e-11
2.6072e-11
2.01723e-11
1.47941e-11
9.89391e-12
5.37023e-12
3.79444e-14
1.46094e-16
1.44309e-16
3.74896e-14
5.30863e-12
9.78401e-12
1.46364e-11
1.99687e-11
2.58268e-11
3.21919e-11
3.89794e-11
4.60417e-11
5.31772e-11
6.01433e-11
6.66725e-11
7.24917e-11
7.7342e-11
8.09977e-11
8.32835e-11
8.40874e-11
8.33696e-11
8.11653e-11
7.75822e-11
7.27919e-11
6.70175e-11
6.05163e-11
5.35609e-11
4.64194e-11
3.93361e-11
3.25151e-11
2.61068e-11
2.01992e-11
1.48138e-11
9.90708e-12
5.37738e-12
3.79946e-14
1.46286e-16
1.44393e-16
3.75116e-14
5.31176e-12
9.78979e-12
1.46451e-11
1.99805e-11
2.5842e-11
3.2211e-11
3.90025e-11
4.60689e-11
5.32087e-11
6.01789e-11
6.67119e-11
7.25346e-11
7.73877e-11
8.10456e-11
8.33327e-11
8.4137e-11
8.34188e-11
8.12132e-11
7.76279e-11
7.28348e-11
6.70569e-11
6.05518e-11
5.35923e-11
4.64466e-11
3.93591e-11
3.25341e-11
2.61221e-11
2.0211e-11
1.48224e-11
9.91284e-12
5.3805e-12
3.80166e-14
1.4637e-16
1.44428e-16
3.75207e-14
5.31306e-12
9.79219e-12
1.46486e-11
1.99854e-11
2.58484e-11
3.22189e-11
3.9012e-11
4.60803e-11
5.32218e-11
6.01936e-11
6.67283e-11
7.25524e-11
7.74067e-11
8.10655e-11
8.33531e-11
8.41577e-11
8.34392e-11
8.12331e-11
7.76469e-11
7.28526e-11
6.70733e-11
6.05666e-11
5.36054e-11
4.64579e-11
3.93687e-11
3.2542e-11
2.61284e-11
2.02159e-11
1.4826e-11
9.91524e-12
5.3818e-12
3.80257e-14
1.46405e-16
1.44442e-16
3.75243e-14
5.31358e-12
9.79314e-12
1.46501e-11
1.99874e-11
2.58509e-11
3.2222e-11
3.90158e-11
4.60847e-11
5.32269e-11
6.01995e-11
6.67348e-11
7.25594e-11
7.74142e-11
8.10734e-11
8.33612e-11
8.41658e-11
8.34473e-11
8.12409e-11
7.76544e-11
7.28596e-11
6.70797e-11
6.05724e-11
5.36105e-11
4.64623e-11
3.93724e-11
3.25451e-11
2.61309e-11
2.02178e-11
1.48274e-11
9.91618e-12
5.38231e-12
3.80293e-14
1.46418e-16
1.44447e-16
3.75257e-14
5.31377e-12
9.7935e-12
1.46506e-11
1.99881e-11
2.58518e-11
3.22232e-11
3.90172e-11
4.60864e-11
5.32289e-11
6.02017e-11
6.67372e-11
7.25621e-11
7.74171e-11
8.10763e-11
8.33642e-11
8.41689e-11
8.34503e-11
8.12439e-11
7.76572e-11
7.28622e-11
6.70822e-11
6.05746e-11
5.36125e-11
4.6464e-11
3.93739e-11
3.25463e-11
2.61318e-11
2.02186e-11
1.4828e-11
9.91653e-12
5.3825e-12
3.80306e-14
1.46424e-16
1.44449e-16
3.75262e-14
5.31384e-12
9.79362e-12
1.46508e-11
1.99884e-11
2.58522e-11
3.22236e-11
3.90178e-11
4.6087e-11
5.32296e-11
6.02025e-11
6.67381e-11
7.2563e-11
7.74181e-11
8.10774e-11
8.33653e-11
8.417e-11
8.34514e-11
8.12449e-11
7.76582e-11
7.28632e-11
6.7083e-11
6.05754e-11
5.36131e-11
4.64646e-11
3.93744e-11
3.25467e-11
2.61322e-11
2.02188e-11
1.48282e-11
9.91666e-12
5.38257e-12
3.80311e-14
1.46425e-16
1.44449e-16
3.75264e-14
5.31387e-12
9.79367e-12
1.46509e-11
1.99885e-11
2.58523e-11
3.22237e-11
3.90179e-11
4.60872e-11
5.32298e-11
6.02027e-11
6.67384e-11
7.25634e-11
7.74184e-11
8.10777e-11
8.33657e-11
8.41704e-11
8.34518e-11
8.12453e-11
7.76586e-11
7.28635e-11
6.70833e-11
6.05757e-11
5.36134e-11
4.64648e-11
3.93745e-11
3.25468e-11
2.61323e-11
2.02189e-11
1.48282e-11
9.91671e-12
5.38259e-12
3.80313e-14
1.46426e-16
1.44449e-16
3.75264e-14
5.31387e-12
9.79368e-12
1.46509e-11
1.99885e-11
2.58523e-11
3.22238e-11
3.9018e-11
4.60873e-11
5.32299e-11
6.02028e-11
6.67385e-11
7.25635e-11
7.74186e-11
8.10779e-11
8.33658e-11
8.41705e-11
8.34519e-11
8.12454e-11
7.76587e-11
7.28636e-11
6.70834e-11
6.05758e-11
5.36135e-11
4.64649e-11
3.93746e-11
3.25469e-11
2.61323e-11
2.02189e-11
1.48282e-11
9.91672e-12
5.3826e-12
3.80313e-14
1.46426e-16
1.44449e-16
3.75264e-14
5.31388e-12
9.79369e-12
1.46509e-11
1.99885e-11
2.58523e-11
3.22238e-11
3.9018e-11
4.60873e-11
5.32299e-11
6.02029e-11
6.67385e-11
7.25635e-11
7.74186e-11
8.10779e-11
8.33659e-11
8.41705e-11
8.3452e-11
8.12455e-11
7.76587e-11
7.28637e-11
6.70835e-11
6.05758e-11
5.36135e-11
4.64649e-11
3.93746e-11
3.25469e-11
2.61323e-11
2.0219e-11
1.48282e-11
9.91672e-12
5.3826e-12
3.80313e-14
1.46426e-16
1.44449e-16
3.75264e-14
5.31388e-12
9.79369e-12
1.46509e-11
1.99885e-11
2.58523e-11
3.22238e-11
3.9018e-11
4.60873e-11
5.32299e-11
6.02029e-11
6.67385e-11
7.25635e-11
7.74186e-11
8.10779e-11
8.33659e-11
8.41705e-11
8.3452e-11
8.12455e-11
7.76587e-11
7.28637e-11
6.70835e-11
6.05758e-11
5.36135e-11
4.64649e-11
3.93746e-11
3.25469e-11
2.61324e-11
2.0219e-11
1.48282e-11
9.91673e-12
5.3826e-12
3.80313e-14
1.46426e-16
1.44449e-16
3.75264e-14
5.31388e-12
9.79369e-12
1.46509e-11
1.99885e-11
2.58523e-11
3.22238e-11
3.9018e-11
4.60873e-11
5.32299e-11
6.02029e-11
6.67385e-11
7.25635e-11
7.74186e-11
8.10779e-11
8.33659e-11
8.41705e-11
8.3452e-11
8.12455e-11
7.76587e-11
7.28637e-11
6.70835e-11
6.05758e-11
5.36135e-11
4.64649e-11
3.93746e-11
3.25469e-11
2.61324e-11
2.0219e-11
1.48283e-11
9.91673e-12
5.3826e-12
3.80313e-14
1.46426e-16
1.44449e-16
3.75264e-14
5.31388e-12
9.79369e-12
1.46509e-11
1.99885e-11
2.58523e-11
3.22238e-11
3.9018e-11
4.60873e-11
5.32299e-11
6.02029e-11
6.67385e-11
7.25635e-11
7.74186e-11
8.10779e-11
8.33659e-11
8.41705e-11
8.3452e-11
8.12455e-11
7.76587e-11
7.28637e-11
6.70835e-11
6.05758e-11
5.36135e-11
4.64649e-11
3.93746e-11
3.25469e-11
2.61324e-11
2.0219e-11
1.48283e-11
9.91673e-12
5.3826e-12
3.80313e-14
1.46426e-16
1.44449e-16
3.75264e-14
5.31388e-12
9.79369e-12
1.46509e-11
1.99885e-11
2.58523e-11
3.22238e-11
3.9018e-11
4.60873e-11
5.32299e-11
6.02029e-11
6.67385e-11
7.25635e-11
7.74186e-11
8.10779e-11
8.33659e-11
8.41705e-11
8.3452e-11
8.12455e-11
7.76587e-11
7.28637e-11
6.70835e-11
6.05758e-11
5.36135e-11
4.64649e-11
3.93746e-11
3.25469e-11
2.61324e-11
2.0219e-11
1.48283e-11
9.91673e-12
5.3826e-12
3.80313e-14
1.46426e-16
1.44449e-16
3.75264e-14
5.31388e-12
9.79369e-12
1.46509e-11
1.99885e-11
2.58523e-11
3.22238e-11
3.9018e-11
4.60873e-11
5.32299e-11
6.02029e-11
6.67385e-11
7.25635e-11
7.74186e-11
8.10779e-11
8.33659e-11
8.41705e-11
8.3452e-11
8.12455e-11
7.76587e-11
7.28637e-11
6.70835e-11
6.05758e-11
5.36135e-11
4.64649e-11
3.93746e-11
3.25469e-11
2.61324e-11
2.0219e-11
1.48283e-11
9.91673e-12
5.3826e-12
3.80313e-14
1.46426e-16
1.44449e-16
3.75264e-14
5.31388e-12
9.79369e-12
1.46509e-11
1.99885e-11
2.58523e-11
3.22238e-11
3.9018e-11
4.60873e-11
5.32299e-11
6.02029e-11
6.67385e-11
7.25635e-11
7.74186e-11
8.10779e-11
8.33659e-11
8.41705e-11
8.3452e-11
8.12455e-11
7.76587e-11
7.28637e-11
6.70835e-11
6.05758e-11
5.36135e-11
4.64649e-11
3.93746e-11
3.25469e-11
2.61324e-11
2.0219e-11
1.48283e-11
9.91673e-12
5.3826e-12
3.80313e-14
1.46426e-16
1.44449e-16
3.75264e-14
5.31388e-12
9.79369e-12
1.46509e-11
1.99885e-11
2.58523e-11
3.22238e-11
3.9018e-11
4.60873e-11
5.32299e-11
6.02029e-11
6.67385e-11
7.25635e-11
7.74186e-11
8.10779e-11
8.33659e-11
8.41705e-11
8.3452e-11
8.12455e-11
7.76587e-11
7.28637e-11
6.70835e-11
6.05758e-11
5.36135e-11
4.64649e-11
3.93746e-11
3.25469e-11
2.61324e-11
2.0219e-11
1.48283e-11
9.91673e-12
5.3826e-12
3.80313e-14
1.46426e-16
1.44449e-16
3.75264e-14
5.31388e-12
9.79369e-12
1.46509e-11
1.99885e-11
2.58523e-11
3.22238e-11
3.9018e-11
4.60873e-11
5.32299e-11
6.02029e-11
6.67385e-11
7.25635e-11
7.74186e-11
8.10779e-11
8.33659e-11
8.41705e-11
8.3452e-11
8.12455e-11
7.76587e-11
7.28637e-11
6.70835e-11
6.05758e-11
5.36135e-11
4.64649e-11
3.93746e-11
3.25469e-11
2.61324e-11
2.0219e-11
1.48283e-11
9.91673e-12
5.3826e-12
3.80313e-14
1.46426e-16
1.44449e-16
3.75264e-14
5.31388e-12
9.79369e-12
1.46509e-11
1.99885e-11
2.58523e-11
3.22238e-11
3.9018e-11
4.60873e-11
5.32299e-11
6.02029e-11
6.67385e-11
7.25635e-11
7.74186e-11
8.10779e-11
8.33659e-11
8.41705e-11
8.3452e-11
8.12455e-11
7.76587e-11
7.28637e-11
6.70835e-11
6.05758e-11
5.36135e-11
4.64649e-11
3.93746e-11
3.25469e-11
2.61324e-11
2.0219e-11
1.48283e-11
9.91673e-12
5.3826e-12
3.80313e-14
1.46426e-16
1.44449e-16
3.75264e-14
5.31388e-12
9.79369e-12
1.46509e-11
1.99885e-11
2.58523e-11
3.22238e-11
3.9018e-11
4.60873e-11
5.32299e-11
6.02029e-11
6.67385e-11
7.25635e-11
7.74186e-11
8.10779e-11
8.33659e-11
8.41705e-11
8.3452e-11
8.12455e-11
7.76587e-11
7.28637e-11
6.70835e-11
6.05758e-11
5.36135e-11
4.64649e-11
3.93746e-11
3.25469e-11
2.61324e-11
2.0219e-11
1.48283e-11
9.91673e-12
5.3826e-12
3.80313e-14
1.46426e-16
1.44449e-16
3.75264e-14
5.31388e-12
9.79369e-12
1.46509e-11
1.99885e-11
2.58523e-11
3.22238e-11
3.9018e-11
4.60873e-11
5.32299e-11
6.02029e-11
6.67385e-11
7.25635e-11
7.74186e-11
8.10779e-11
8.33659e-11
8.41705e-11
8.3452e-11
8.12455e-11
7.76587e-11
7.28637e-11
6.70835e-11
6.05758e-11
5.36135e-11
4.64649e-11
3.93746e-11
3.25469e-11
2.61324e-11
2.0219e-11
1.48283e-11
9.91673e-12
5.3826e-12
3.80313e-14
1.46426e-16
1.44449e-16
3.75264e-14
5.31388e-12
9.79369e-12
1.46509e-11
1.99885e-11
2.58523e-11
3.22238e-11
3.9018e-11
4.60873e-11
5.32299e-11
6.02029e-11
6.67385e-11
7.25635e-11
7.74186e-11
8.10779e-11
8.33659e-11
8.41705e-11
8.3452e-11
8.12455e-11
7.76587e-11
7.28637e-11
6.70835e-11
6.05758e-11
5.36135e-11
4.64649e-11
3.93746e-11
3.25469e-11
2.61324e-11
2.0219e-11
1.48283e-11
9.91673e-12
5.3826e-12
3.80313e-14
1.46426e-16
1.44449e-16
3.75264e-14
5.31388e-12
9.79369e-12
1.46509e-11
1.99885e-11
2.58523e-11
3.22238e-11
3.9018e-11
4.60873e-11
5.32299e-11
6.02029e-11
6.67385e-11
7.25635e-11
7.74186e-11
8.10779e-11
8.33659e-11
8.41705e-11
8.3452e-11
8.12455e-11
7.76587e-11
7.28637e-11
6.70835e-11
6.05758e-11
5.36135e-11
4.64649e-11
3.93746e-11
3.25469e-11
2.61324e-11
2.0219e-11
1.48283e-11
9.91673e-12
5.3826e-12
3.80313e-14
1.46426e-16
1.44449e-16
3.75264e-14
5.31388e-12
9.79369e-12
1.46509e-11
1.99885e-11
2.58523e-11
3.22238e-11
3.9018e-11
4.60873e-11
5.32299e-11
6.02029e-11
6.67385e-11
7.25635e-11
7.74186e-11
8.10779e-11
8.33659e-11
8.41705e-11
8.3452e-11
8.12455e-11
7.76587e-11
7.28637e-11
6.70835e-11
6.05758e-11
5.36135e-11
4.64649e-11
3.93746e-11
3.25469e-11
2.61324e-11
2.0219e-11
1.48283e-11
9.91673e-12
5.3826e-12
3.80313e-14
1.46426e-16
1.44449e-16
3.75264e-14
5.31388e-12
9.79369e-12
1.46509e-11
1.99885e-11
2.58523e-11
3.22238e-11
3.9018e-11
4.60873e-11
5.32299e-11
6.02029e-11
6.67385e-11
7.25635e-11
7.74186e-11
8.10779e-11
8.33659e-11
8.41705e-11
8.3452e-11
8.12455e-11
7.76587e-11
7.28637e-11
6.70835e-11
6.05758e-11
5.36135e-11
4.64649e-11
3.93746e-11
3.25469e-11
2.61324e-11
2.0219e-11
1.48283e-11
9.91673e-12
5.3826e-12
3.80313e-14
1.46426e-16
1.44449e-16
3.75264e-14
5.31388e-12
9.79369e-12
1.46509e-11
1.99885e-11
2.58523e-11
3.22238e-11
3.9018e-11
4.60873e-11
5.32299e-11
6.02029e-11
6.67385e-11
7.25635e-11
7.74186e-11
8.10779e-11
8.33659e-11
8.41705e-11
8.3452e-11
8.12455e-11
7.76587e-11
7.28637e-11
6.70835e-11
6.05758e-11
5.36135e-11
4.64649e-11
3.93746e-11
3.25469e-11
2.61324e-11
2.0219e-11
1.48283e-11
9.91673e-12
5.3826e-12
3.80313e-14
1.46426e-16
1.44449e-16
3.75264e-14
5.31388e-12
9.79369e-12
1.46509e-11
1.99885e-11
2.58523e-11
3.22238e-11
3.9018e-11
4.60873e-11
5.32299e-11
6.02029e-11
6.67385e-11
7.25635e-11
7.74186e-11
8.10779e-11
8.33659e-11
8.41705e-11
8.3452e-11
8.12455e-11
7.76587e-11
7.28637e-11
6.70835e-11
6.05758e-11
5.36135e-11
4.64649e-11
3.93746e-11
3.25469e-11
2.61324e-11
2.0219e-11
1.48283e-11
9.91673e-12
5.3826e-12
3.80313e-14
1.46426e-16
1.44449e-16
3.75264e-14
5.31388e-12
9.79369e-12
1.46509e-11
1.99885e-11
2.58523e-11
3.22238e-11
3.9018e-11
4.60873e-11
5.32299e-11
6.02029e-11
6.67385e-11
7.25635e-11
7.74186e-11
8.10779e-11
8.33659e-11
8.41705e-11
8.3452e-11
8.12455e-11
7.76587e-11
7.28637e-11
6.70835e-11
6.05758e-11
5.36135e-11
4.64649e-11
3.93746e-11
3.25469e-11
2.61324e-11
2.0219e-11
1.48283e-11
9.91673e-12
5.3826e-12
3.80313e-14
1.46426e-16
1.44449e-16
3.75264e-14
5.31388e-12
9.79369e-12
1.46509e-11
1.99885e-11
2.58523e-11
3.22238e-11
3.9018e-11
4.60873e-11
5.32299e-11
6.02029e-11
6.67385e-11
7.25635e-11
7.74186e-11
8.10779e-11
8.33659e-11
8.41705e-11
8.3452e-11
8.12455e-11
7.76587e-11
7.28637e-11
6.70835e-11
6.05758e-11
5.36135e-11
4.64649e-11
3.93746e-11
3.25469e-11
2.61324e-11
2.0219e-11
1.48283e-11
9.91673e-12
5.3826e-12
3.80313e-14
1.46426e-16
1.44449e-16
3.75264e-14
5.31388e-12
9.79369e-12
1.46509e-11
1.99885e-11
2.58523e-11
3.22238e-11
3.9018e-11
4.60873e-11
5.32299e-11
6.02029e-11
6.67385e-11
7.25635e-11
7.74186e-11
8.10779e-11
8.33659e-11
8.41705e-11
8.3452e-11
8.12455e-11
7.76587e-11
7.28637e-11
6.70835e-11
6.05758e-11
5.36135e-11
4.64649e-11
3.93746e-11
3.25469e-11
2.61324e-11
2.0219e-11
1.48283e-11
9.91673e-12
5.3826e-12
3.80313e-14
1.46426e-16
1.44449e-16
3.75264e-14
5.31388e-12
9.79369e-12
1.46509e-11
1.99885e-11
2.58523e-11
3.22238e-11
3.9018e-11
4.60873e-11
5.32299e-11
6.02029e-11
6.67385e-11
7.25635e-11
7.74186e-11
8.10779e-11
8.33659e-11
8.41705e-11
8.3452e-11
8.12455e-11
7.76587e-11
7.28637e-11
6.70835e-11
6.05758e-11
5.36135e-11
4.64649e-11
3.93746e-11
3.25469e-11
2.61324e-11
2.0219e-11
1.48283e-11
9.91673e-12
5.3826e-12
3.80313e-14
1.46426e-16
1.44449e-16
3.75264e-14
5.31388e-12
9.79369e-12
1.46509e-11
1.99885e-11
2.58523e-11
3.22238e-11
3.9018e-11
4.60873e-11
5.32299e-11
6.02029e-11
6.67385e-11
7.25635e-11
7.74186e-11
8.10779e-11
8.33659e-11
8.41705e-11
8.3452e-11
8.12455e-11
7.76587e-11
7.28637e-11
6.70835e-11
6.05758e-11
5.36135e-11
4.64649e-11
3.93746e-11
3.25469e-11
2.61324e-11
2.0219e-11
1.48283e-11
9.91673e-12
5.3826e-12
3.80313e-14
1.46426e-16
1.44449e-16
3.75264e-14
5.31388e-12
9.79369e-12
1.46509e-11
1.99885e-11
2.58523e-11
3.22238e-11
3.9018e-11
4.60873e-11
5.32299e-11
6.02029e-11
6.67385e-11
7.25635e-11
7.74186e-11
8.10779e-11
8.33659e-11
8.41705e-11
8.3452e-11
8.12455e-11
7.76587e-11
7.28637e-11
6.70835e-11
6.05758e-11
5.36135e-11
4.64649e-11
3.93746e-11
3.25469e-11
2.61324e-11
2.0219e-11
1.48283e-11
9.91673e-12
5.3826e-12
3.80313e-14
1.46426e-16
1.44449e-16
3.75264e-14
5.31388e-12
9.79369e-12
1.46509e-11
1.99885e-11
2.58523e-11
3.22238e-11
3.9018e-11
4.60873e-11
5.32299e-11
6.02029e-11
6.67385e-11
7.25635e-11
7.74186e-11
8.10779e-11
8.33659e-11
8.41705e-11
8.3452e-11
8.12455e-11
7.76587e-11
7.28637e-11
6.70835e-11
6.05758e-11
5.36135e-11
4.64649e-11
3.93746e-11
3.25469e-11
2.61324e-11
2.0219e-11
1.48283e-11
9.91673e-12
5.3826e-12
3.80313e-14
1.46426e-16
1.44449e-16
3.75264e-14
5.31388e-12
9.79369e-12
1.46509e-11
1.99885e-11
2.58523e-11
3.22238e-11
3.9018e-11
4.60873e-11
5.32299e-11
6.02029e-11
6.67385e-11
7.25635e-11
7.74186e-11
8.10779e-11
8.33659e-11
8.41705e-11
8.3452e-11
8.12455e-11
7.76587e-11
7.28637e-11
6.70835e-11
6.05758e-11
5.36135e-11
4.64649e-11
3.93746e-11
3.25469e-11
2.61324e-11
2.0219e-11
1.48283e-11
9.91673e-12
5.3826e-12
3.80313e-14
1.46426e-16
1.44449e-16
3.75264e-14
5.31388e-12
9.79369e-12
1.46509e-11
1.99885e-11
2.58523e-11
3.22238e-11
3.9018e-11
4.60873e-11
5.32299e-11
6.02029e-11
6.67385e-11
7.25635e-11
7.74186e-11
8.10779e-11
8.33659e-11
8.41705e-11
8.3452e-11
8.12455e-11
7.76587e-11
7.28637e-11
6.70835e-11
6.05758e-11
5.36135e-11
4.64649e-11
3.93746e-11
3.25469e-11
2.61324e-11
2.0219e-11
1.48283e-11
9.91673e-12
5.3826e-12
3.80313e-14
1.46426e-16
1.44449e-16
3.75264e-14
5.31388e-12
9.79369e-12
1.46509e-11
1.99885e-11
2.58523e-11
3.22238e-11
3.9018e-11
4.60873e-11
5.32299e-11
6.02029e-11
6.67385e-11
7.25635e-11
7.74186e-11
8.10779e-11
8.33659e-11
8.41705e-11
8.3452e-11
8.12455e-11
7.76587e-11
7.28637e-11
6.70835e-11
6.05758e-11
5.36135e-11
4.64649e-11
3.93746e-11
3.25469e-11
2.61324e-11
2.0219e-11
1.48283e-11
9.91673e-12
5.3826e-12
3.80313e-14
1.46426e-16
1.44449e-16
3.75264e-14
5.31388e-12
9.79369e-12
1.46509e-11
1.99885e-11
2.58523e-11
3.22238e-11
3.9018e-11
4.60873e-11
5.32299e-11
6.02029e-11
6.67385e-11
7.25635e-11
7.74186e-11
8.10779e-11
8.33659e-11
8.41705e-11
8.3452e-11
8.12455e-11
7.76587e-11
7.28637e-11
6.70835e-11
6.05758e-11
5.36135e-11
4.64649e-11
3.93746e-11
3.25469e-11
2.61324e-11
2.0219e-11
1.48283e-11
9.91673e-12
5.3826e-12
3.80313e-14
1.46426e-16
1.44449e-16
3.75264e-14
5.31388e-12
9.79369e-12
1.46509e-11
1.99885e-11
2.58523e-11
3.22238e-11
3.9018e-11
4.60873e-11
5.32299e-11
6.02029e-11
6.67385e-11
7.25635e-11
7.74186e-11
8.10779e-11
8.33659e-11
8.41705e-11
8.3452e-11
8.12455e-11
7.76587e-11
7.28637e-11
6.70835e-11
6.05758e-11
5.36135e-11
4.64649e-11
3.93746e-11
3.25469e-11
2.61324e-11
2.0219e-11
1.48283e-11
9.91673e-12
5.3826e-12
3.80313e-14
1.46426e-16
1.44449e-16
3.75264e-14
5.31388e-12
9.79369e-12
1.46509e-11
1.99885e-11
2.58523e-11
3.22238e-11
3.9018e-11
4.60873e-11
5.32299e-11
6.02029e-11
6.67385e-11
7.25635e-11
7.74186e-11
8.10779e-11
8.33659e-11
8.41705e-11
8.3452e-11
8.12455e-11
7.76587e-11
7.28637e-11
6.70835e-11
6.05758e-11
5.36135e-11
4.64649e-11
3.93746e-11
3.25469e-11
2.61324e-11
2.0219e-11
1.48283e-11
9.91673e-12
5.3826e-12
3.80313e-14
1.46426e-16
1.44449e-16
3.75264e-14
5.31388e-12
9.79369e-12
1.46509e-11
1.99885e-11
2.58523e-11
3.22238e-11
3.9018e-11
4.60873e-11
5.32299e-11
6.02029e-11
6.67385e-11
7.25635e-11
7.74186e-11
8.10779e-11
8.33659e-11
8.41705e-11
8.3452e-11
8.12455e-11
7.76587e-11
7.28637e-11
6.70835e-11
6.05758e-11
5.36135e-11
4.64649e-11
3.93746e-11
3.25469e-11
2.61324e-11
2.0219e-11
1.48283e-11
9.91673e-12
5.3826e-12
3.80313e-14
1.46426e-16
1.44449e-16
3.75264e-14
5.31388e-12
9.79369e-12
1.46509e-11
1.99885e-11
2.58523e-11
3.22238e-11
3.9018e-11
4.60873e-11
5.32299e-11
6.02029e-11
6.67385e-11
7.25635e-11
7.74186e-11
8.10779e-11
8.33659e-11
8.41705e-11
8.3452e-11
8.12455e-11
7.76587e-11
7.28637e-11
6.70835e-11
6.05758e-11
5.36135e-11
4.64649e-11
3.93746e-11
3.25469e-11
2.61324e-11
2.0219e-11
1.48283e-11
9.91673e-12
5.3826e-12
3.80313e-14
1.46426e-16
1.44449e-16
3.75264e-14
5.31388e-12
9.79369e-12
1.46509e-11
1.99885e-11
2.58523e-11
3.22238e-11
3.9018e-11
4.60873e-11
5.32299e-11
6.02029e-11
6.67385e-11
7.25635e-11
7.74186e-11
8.10779e-11
8.33659e-11
8.41705e-11
8.3452e-11
8.12455e-11
7.76587e-11
7.28637e-11
6.70835e-11
6.05758e-11
5.36135e-11
4.64649e-11
3.93746e-11
3.25469e-11
2.61324e-11
2.0219e-11
1.48283e-11
9.91673e-12
5.3826e-12
3.80313e-14
1.46426e-16
1.44449e-16
3.75264e-14
5.31388e-12
9.79369e-12
1.46509e-11
1.99885e-11
2.58523e-11
3.22238e-11
3.9018e-11
4.60873e-11
5.32299e-11
6.02029e-11
6.67385e-11
7.25635e-11
7.74186e-11
8.10779e-11
8.33659e-11
8.41705e-11
8.3452e-11
8.12455e-11
7.76587e-11
7.28637e-11
6.70835e-11
6.05758e-11
5.36135e-11
4.64649e-11
3.93746e-11
3.25469e-11
2.61324e-11
2.0219e-11
1.48283e-11
9.91673e-12
5.3826e-12
3.80313e-14
1.46426e-16
1.44449e-16
3.75264e-14
5.31388e-12
9.79369e-12
1.46509e-11
1.99885e-11
2.58523e-11
3.22238e-11
3.9018e-11
4.60873e-11
5.32299e-11
6.02029e-11
6.67385e-11
7.25635e-11
7.74186e-11
8.10779e-11
8.33659e-11
8.41705e-11
8.3452e-11
8.12455e-11
7.76587e-11
7.28637e-11
6.70835e-11
6.05758e-11
5.36135e-11
4.64649e-11
3.93746e-11
3.25469e-11
2.61324e-11
2.0219e-11
1.48283e-11
9.91673e-12
5.3826e-12
3.80313e-14
1.46426e-16
1.44449e-16
3.75264e-14
5.31388e-12
9.79369e-12
1.46509e-11
1.99885e-11
2.58523e-11
3.22238e-11
3.9018e-11
4.60873e-11
5.32299e-11
6.02029e-11
6.67385e-11
7.25635e-11
7.74186e-11
8.10779e-11
8.33659e-11
8.41705e-11
8.3452e-11
8.12455e-11
7.76587e-11
7.28637e-11
6.70835e-11
6.05758e-11
5.36135e-11
4.64649e-11
3.93746e-11
3.25469e-11
2.61324e-11
2.0219e-11
1.48283e-11
9.91673e-12
5.3826e-12
3.80313e-14
1.46426e-16
1.44449e-16
3.75264e-14
5.31388e-12
9.79369e-12
1.46509e-11
1.99885e-11
2.58523e-11
3.22238e-11
3.9018e-11
4.60873e-11
5.32299e-11
6.02029e-11
6.67385e-11
7.25635e-11
7.74186e-11
8.10779e-11
8.33659e-11
8.41705e-11
8.3452e-11
8.12455e-11
7.76587e-11
7.28637e-11
6.70835e-11
6.05758e-11
5.36135e-11
4.64649e-11
3.93746e-11
3.25469e-11
2.61324e-11
2.0219e-11
1.48283e-11
9.91673e-12
5.3826e-12
3.80313e-14
1.46426e-16
1.44449e-16
3.75264e-14
5.31388e-12
9.79369e-12
1.46509e-11
1.99885e-11
2.58523e-11
3.22238e-11
3.9018e-11
4.60873e-11
5.32299e-11
6.02029e-11
6.67385e-11
7.25635e-11
7.74186e-11
8.10779e-11
8.33659e-11
8.41705e-11
8.3452e-11
8.12455e-11
7.76587e-11
7.28637e-11
6.70835e-11
6.05758e-11
5.36135e-11
4.64649e-11
3.93746e-11
3.25469e-11
2.61324e-11
2.0219e-11
1.48283e-11
9.91673e-12
5.3826e-12
3.80313e-14
1.46426e-16
1.44449e-16
3.75264e-14
5.31388e-12
9.79369e-12
1.46509e-11
1.99885e-11
2.58523e-11
3.22238e-11
3.9018e-11
4.60873e-11
5.32299e-11
6.02029e-11
6.67385e-11
7.25635e-11
7.74186e-11
8.10779e-11
8.33659e-11
8.41705e-11
8.3452e-11
8.12455e-11
7.76587e-11
7.28637e-11
6.70835e-11
6.05758e-11
5.36135e-11
4.64649e-11
3.93746e-11
3.25469e-11
2.61324e-11
2.0219e-11
1.48283e-11
9.91673e-12
5.3826e-12
3.80313e-14
1.46426e-16
1.44449e-16
3.75264e-14
5.31388e-12
9.79369e-12
1.46509e-11
1.99885e-11
2.58523e-11
3.22238e-11
3.9018e-11
4.60873e-11
5.32299e-11
6.02029e-11
6.67385e-11
7.25635e-11
7.74186e-11
8.10779e-11
8.33659e-11
8.41705e-11
8.3452e-11
8.12455e-11
7.76587e-11
7.28637e-11
6.70835e-11
6.05758e-11
5.36135e-11
4.64649e-11
3.93746e-11
3.25469e-11
2.61324e-11
2.0219e-11
1.48283e-11
9.91673e-12
5.3826e-12
3.80313e-14
1.46426e-16
1.44449e-16
3.75264e-14
5.31388e-12
9.79369e-12
1.46509e-11
1.99885e-11
2.58523e-11
3.22238e-11
3.9018e-11
4.60873e-11
5.32299e-11
6.02029e-11
6.67385e-11
7.25635e-11
7.74186e-11
8.10779e-11
8.33659e-11
8.41705e-11
8.3452e-11
8.12455e-11
7.76587e-11
7.28637e-11
6.70835e-11
6.05758e-11
5.36135e-11
4.64649e-11
3.93746e-11
3.25469e-11
2.61324e-11
2.0219e-11
1.48283e-11
9.91673e-12
5.3826e-12
3.80313e-14
1.46426e-16
1.44449e-16
3.75264e-14
5.31388e-12
9.79369e-12
1.46509e-11
1.99885e-11
2.58523e-11
3.22238e-11
3.9018e-11
4.60873e-11
5.32299e-11
6.02029e-11
6.67385e-11
7.25635e-11
7.74186e-11
8.10779e-11
8.33659e-11
8.41705e-11
8.3452e-11
8.12455e-11
7.76587e-11
7.28637e-11
6.70835e-11
6.05758e-11
5.36135e-11
4.64649e-11
3.93746e-11
3.25469e-11
2.61324e-11
2.0219e-11
1.48283e-11
9.91673e-12
5.3826e-12
3.80313e-14
1.46426e-16
1.44449e-16
3.75264e-14
5.31388e-12
9.79369e-12
1.46509e-11
1.99885e-11
2.58523e-11
3.22238e-11
3.9018e-11
4.60873e-11
5.32299e-11
6.02029e-11
6.67385e-11
7.25635e-11
7.74186e-11
8.10779e-11
8.33659e-11
8.41705e-11
8.3452e-11
8.12455e-11
7.76587e-11
7.28637e-11
6.70835e-11
6.05758e-11
5.36135e-11
4.64649e-11
3.93746e-11
3.25469e-11
2.61324e-11
2.0219e-11
1.48283e-11
9.91673e-12
5.3826e-12
3.80313e-14
1.46426e-16
1.44449e-16
3.75264e-14
5.31388e-12
9.79369e-12
1.46509e-11
1.99885e-11
2.58523e-11
3.22238e-11
3.9018e-11
4.60873e-11
5.32299e-11
6.02029e-11
6.67385e-11
7.25635e-11
7.74186e-11
8.10779e-11
8.33659e-11
8.41705e-11
8.3452e-11
8.12455e-11
7.76587e-11
7.28637e-11
6.70835e-11
6.05758e-11
5.36135e-11
4.64649e-11
3.93746e-11
3.25469e-11
2.61324e-11
2.0219e-11
1.48283e-11
9.91673e-12
5.3826e-12
3.80313e-14
1.46426e-16
1.44449e-16
3.75264e-14
5.31388e-12
9.79369e-12
1.46509e-11
1.99885e-11
2.58523e-11
3.22238e-11
3.9018e-11
4.60873e-11
5.32299e-11
6.02029e-11
6.67385e-11
7.25635e-11
7.74186e-11
8.10779e-11
8.33659e-11
8.41705e-11
8.3452e-11
8.12455e-11
7.76587e-11
7.28637e-11
6.70835e-11
6.05758e-11
5.36135e-11
4.64649e-11
3.93746e-11
3.25469e-11
2.61324e-11
2.0219e-11
1.48283e-11
9.91673e-12
5.3826e-12
3.80313e-14
1.46426e-16
1.44449e-16
3.75264e-14
5.31388e-12
9.79369e-12
1.46509e-11
1.99885e-11
2.58523e-11
3.22238e-11
3.9018e-11
4.60873e-11
5.32299e-11
6.02029e-11
6.67385e-11
7.25635e-11
7.74186e-11
8.10779e-11
8.33659e-11
8.41705e-11
8.3452e-11
8.12455e-11
7.76587e-11
7.28637e-11
6.70835e-11
6.05758e-11
5.36135e-11
4.64649e-11
3.93746e-11
3.25469e-11
2.61324e-11
2.0219e-11
1.48283e-11
9.91673e-12
5.3826e-12
3.80313e-14
1.46426e-16
1.44449e-16
3.75264e-14
5.31388e-12
9.79369e-12
1.46509e-11
1.99885e-11
2.58523e-11
3.22238e-11
3.9018e-11
4.60873e-11
5.32299e-11
6.02029e-11
6.67385e-11
7.25635e-11
7.74186e-11
8.10779e-11