/*--------------------------------*- C++ -*----------------------------------*\
  =========                 |
  \\      /  F ield         | OpenFOAM: The Open Source CFD Toolbox
   \\    /   O peration     | Website:  https://openfoam.org
    \\  /    A nd           | Version:  13
     \\/     M anipulation  |
\*---------------------------------------------------------------------------*/
FoamFile
{
    format      ascii;
    class       volScalarField;
    location    "10";
    object      nut;
}
// * * * * * * * * * * * * * * * * * * * * * * * * * * * * * * * * * * * * * //

dimensions      [0 2 -1 0 0 0 0];

internalField   nonuniform List<scalar> 
315000
(
4.50131e-12
1.16315e-09
2.62014e-08
4.59341e-08
6.47488e-08
8.24939e-08
9.90642e-08
1.14442e-07
1.2859e-07
1.4145e-07
1.52986e-07
1.63194e-07
1.72108e-07
1.79787e-07
1.86318e-07
1.91804e-07
1.96355e-07
2.00087e-07
2.03112e-07
2.05536e-07
2.07459e-07
2.08969e-07
2.10142e-07
2.11046e-07
2.11735e-07
2.12256e-07
2.12647e-07
2.12937e-07
2.13151e-07
2.13306e-07
2.13417e-07
2.13495e-07
2.13547e-07
2.13579e-07
2.13594e-07
2.13593e-07
2.13576e-07
2.13542e-07
2.13488e-07
2.13407e-07
2.13293e-07
2.13133e-07
2.12915e-07
2.1262e-07
2.12223e-07
2.11694e-07
2.10997e-07
2.10086e-07
2.08903e-07
2.07385e-07
2.05454e-07
2.03023e-07
1.99995e-07
1.96262e-07
1.91714e-07
1.86237e-07
1.79721e-07
1.72062e-07
1.63177e-07
1.53002e-07
1.41506e-07
1.28688e-07
1.14584e-07
9.92448e-08
8.27056e-08
6.49817e-08
4.61726e-08
2.64069e-08
1.17699e-09
4.56667e-12
1.05462e-10
2.77022e-08
5.28371e-06
8.3148e-06
1.08422e-05
1.30048e-05
1.4864e-05
1.64983e-05
1.79428e-05
1.92121e-05
2.03195e-05
2.12779e-05
2.21003e-05
2.27998e-05
2.33895e-05
2.38819e-05
2.42893e-05
2.46231e-05
2.48942e-05
2.51123e-05
2.5286e-05
2.54233e-05
2.55307e-05
2.56141e-05
2.56782e-05
2.57272e-05
2.57642e-05
2.5792e-05
2.58126e-05
2.58277e-05
2.58387e-05
2.58464e-05
2.58516e-05
2.58548e-05
2.58563e-05
2.58562e-05
2.58546e-05
2.58513e-05
2.58459e-05
2.5838e-05
2.58268e-05
2.58114e-05
2.57904e-05
2.57623e-05
2.57249e-05
2.56755e-05
2.56108e-05
2.55268e-05
2.54188e-05
2.52809e-05
2.51066e-05
2.4888e-05
2.46164e-05
2.42822e-05
2.38746e-05
2.33823e-05
2.2793e-05
2.20941e-05
2.12726e-05
2.03155e-05
1.92098e-05
1.79423e-05
1.64996e-05
1.48672e-05
1.301e-05
1.08488e-05
8.32193e-06
5.29069e-06
2.77589e-08
1.05707e-10
3.24802e-10
8.56101e-08
2.76414e-05
3.77897e-05
4.59494e-05
5.25356e-05
4.8123e-05
5.04444e-05
5.24699e-05
5.41928e-05
5.56538e-05
5.68891e-05
5.79301e-05
5.88034e-05
5.95324e-05
6.01377e-05
6.06372e-05
6.10468e-05
6.13806e-05
6.16508e-05
6.18681e-05
6.20416e-05
6.21792e-05
6.22877e-05
6.23726e-05
6.24386e-05
6.24895e-05
6.25286e-05
6.25582e-05
6.25804e-05
6.25968e-05
6.26086e-05
6.26167e-05
6.26218e-05
6.26242e-05
6.26241e-05
6.26216e-05
6.26164e-05
6.26082e-05
6.25963e-05
6.25797e-05
6.25573e-05
6.25275e-05
6.24882e-05
6.2437e-05
6.23707e-05
6.22855e-05
6.21767e-05
6.20386e-05
6.18647e-05
6.16471e-05
6.13765e-05
6.10423e-05
6.06323e-05
6.01325e-05
5.95271e-05
5.8798e-05
5.79247e-05
5.6884e-05
5.56489e-05
5.41885e-05
5.24663e-05
5.04415e-05
4.81206e-05
5.25314e-05
4.59478e-05
3.77907e-05
2.76448e-05
8.56373e-08
3.24922e-10
3.7352e-10
9.86453e-08
3.07334e-05
4.15805e-05
4.9705e-05
4.74217e-05
5.02038e-05
5.26985e-05
5.48196e-05
5.66251e-05
5.81608e-05
5.94647e-05
6.05688e-05
6.15005e-05
6.22837e-05
6.29393e-05
6.34857e-05
6.3939e-05
6.43133e-05
6.46209e-05
6.48724e-05
6.50771e-05
6.52427e-05
6.53761e-05
6.54828e-05
6.55677e-05
6.56348e-05
6.56875e-05
6.57283e-05
6.57597e-05
6.57834e-05
6.58007e-05
6.58128e-05
6.58205e-05
6.58242e-05
6.58241e-05
6.58204e-05
6.58127e-05
6.58005e-05
6.5783e-05
6.57593e-05
6.57278e-05
6.56868e-05
6.56341e-05
6.55669e-05
6.54818e-05
6.53749e-05
6.52414e-05
6.50756e-05
6.48708e-05
6.46191e-05
6.43114e-05
6.39369e-05
6.34835e-05
6.2937e-05
6.22813e-05
6.14981e-05
6.05663e-05
5.94623e-05
5.81585e-05
5.66229e-05
5.48176e-05
5.26966e-05
5.02021e-05
4.742e-05
4.97031e-05
4.15809e-05
3.07348e-05
9.8661e-08
3.7359e-10
3.84265e-10
1.01568e-07
3.14345e-05
4.24577e-05
5.07045e-05
4.79171e-05
5.07427e-05
5.32801e-05
5.54378e-05
5.7276e-05
5.88421e-05
6.01754e-05
6.13087e-05
6.22696e-05
6.30824e-05
6.37679e-05
6.43444e-05
6.48276e-05
6.52314e-05
6.55675e-05
6.58464e-05
6.60767e-05
6.62661e-05
6.64211e-05
6.65473e-05
6.66493e-05
6.67312e-05
6.67964e-05
6.68478e-05
6.68878e-05
6.69184e-05
6.6941e-05
6.6957e-05
6.69671e-05
6.6972e-05
6.6972e-05
6.6967e-05
6.69568e-05
6.69409e-05
6.69182e-05
6.68876e-05
6.68475e-05
6.6796e-05
6.67307e-05
6.66488e-05
6.65467e-05
6.64205e-05
6.62655e-05
6.6076e-05
6.58456e-05
6.55668e-05
6.52306e-05
6.48269e-05
6.43437e-05
6.37672e-05
6.30818e-05
6.22691e-05
6.13083e-05
6.01752e-05
5.8842e-05
5.7276e-05
5.54381e-05
5.32804e-05
5.07431e-05
4.79176e-05
5.07067e-05
4.24607e-05
3.14379e-05
1.01595e-07
3.84383e-10
3.86581e-10
1.02199e-07
3.15856e-05
4.26471e-05
5.0922e-05
4.80263e-05
5.08616e-05
5.34092e-05
5.55766e-05
5.7424e-05
5.89995e-05
6.03425e-05
6.14858e-05
6.24573e-05
6.32811e-05
6.39782e-05
6.45665e-05
6.50617e-05
6.54775e-05
6.58254e-05
6.61156e-05
6.63566e-05
6.6556e-05
6.67201e-05
6.68545e-05
6.69637e-05
6.70519e-05
6.71224e-05
6.71783e-05
6.7222e-05
6.72554e-05
6.72803e-05
6.72979e-05
6.7309e-05
6.73145e-05
6.73145e-05
6.7309e-05
6.72978e-05
6.72802e-05
6.72553e-05
6.72218e-05
6.71781e-05
6.71222e-05
6.70516e-05
6.69634e-05
6.68541e-05
6.67198e-05
6.65557e-05
6.63563e-05
6.61152e-05
6.58251e-05
6.54772e-05
6.50615e-05
6.45664e-05
6.39782e-05
6.32813e-05
6.24577e-05
6.14863e-05
6.03433e-05
5.90004e-05
5.74251e-05
5.55779e-05
5.34106e-05
5.0863e-05
4.80278e-05
5.09263e-05
4.26522e-05
3.1591e-05
1.02236e-07
3.86737e-10
3.86993e-10
1.02312e-07
3.1613e-05
4.26814e-05
5.09615e-05
4.80466e-05
5.08837e-05
5.34335e-05
5.56029e-05
5.74525e-05
5.90302e-05
6.03756e-05
6.15215e-05
6.24957e-05
6.33224e-05
6.40225e-05
6.46139e-05
6.51124e-05
6.55313e-05
6.58824e-05
6.61756e-05
6.64196e-05
6.66217e-05
6.67882e-05
6.69247e-05
6.70359e-05
6.71257e-05
6.71977e-05
6.72548e-05
6.72994e-05
6.73336e-05
6.7359e-05
6.7377e-05
6.73885e-05
6.73941e-05
6.73941e-05
6.73885e-05
6.7377e-05
6.73589e-05
6.73335e-05
6.72992e-05
6.72546e-05
6.71975e-05
6.71255e-05
6.70356e-05
6.69245e-05
6.6788e-05
6.66214e-05
6.64194e-05
6.61755e-05
6.58823e-05
6.55313e-05
6.51124e-05
6.46141e-05
6.40228e-05
6.33229e-05
6.24964e-05
6.15223e-05
6.03767e-05
5.90315e-05
5.7454e-05
5.56046e-05
5.34353e-05
5.08856e-05
4.80484e-05
5.09666e-05
4.26873e-05
3.1619e-05
1.02352e-07
3.87159e-10
3.87055e-10
1.0233e-07
3.16172e-05
4.26867e-05
5.09677e-05
4.80499e-05
5.08873e-05
5.34374e-05
5.56072e-05
5.74572e-05
5.90354e-05
6.03812e-05
6.15276e-05
6.25023e-05
6.33296e-05
6.40303e-05
6.46224e-05
6.51215e-05
6.55411e-05
6.58928e-05
6.61867e-05
6.64312e-05
6.66338e-05
6.68009e-05
6.69378e-05
6.70493e-05
6.71395e-05
6.72118e-05
6.72691e-05
6.73139e-05
6.73483e-05
6.73738e-05
6.73919e-05
6.74034e-05
6.7409e-05
6.7409e-05
6.74034e-05
6.73918e-05
6.73737e-05
6.73482e-05
6.73138e-05
6.72689e-05
6.72116e-05
6.71393e-05
6.70491e-05
6.69376e-05
6.68007e-05
6.66336e-05
6.6431e-05
6.61865e-05
6.58928e-05
6.55411e-05
6.51216e-05
6.46226e-05
6.40307e-05
6.33302e-05
6.25031e-05
6.15285e-05
6.03824e-05
5.90367e-05
5.74588e-05
5.5609e-05
5.34393e-05
5.08892e-05
4.80518e-05
5.0973e-05
4.26928e-05
3.16234e-05
1.02369e-07
3.87223e-10
3.87063e-10
1.02332e-07
3.16177e-05
4.26874e-05
5.09685e-05
4.80503e-05
5.08878e-05
5.3438e-05
5.56079e-05
5.74579e-05
5.90361e-05
6.0382e-05
6.15285e-05
6.25033e-05
6.33307e-05
6.40315e-05
6.46237e-05
6.51229e-05
6.55426e-05
6.58945e-05
6.61884e-05
6.6433e-05
6.66357e-05
6.68029e-05
6.69399e-05
6.70515e-05
6.71417e-05
6.7214e-05
6.72714e-05
6.73162e-05
6.73506e-05
6.73762e-05
6.73943e-05
6.74058e-05
6.74114e-05
6.74114e-05
6.74058e-05
6.73942e-05
6.73761e-05
6.73505e-05
6.73161e-05
6.72712e-05
6.72139e-05
6.71415e-05
6.70513e-05
6.69397e-05
6.68027e-05
6.66355e-05
6.64329e-05
6.61883e-05
6.58944e-05
6.55427e-05
6.5123e-05
6.4624e-05
6.40319e-05
6.33313e-05
6.25041e-05
6.15294e-05
6.03832e-05
5.90375e-05
5.74595e-05
5.56097e-05
5.34399e-05
5.08897e-05
4.80522e-05
5.09739e-05
4.26935e-05
3.1624e-05
1.02372e-07
3.87232e-10
3.87064e-10
1.02332e-07
3.16178e-05
4.26875e-05
5.09686e-05
4.80504e-05
5.08879e-05
5.3438e-05
5.56079e-05
5.7458e-05
5.90362e-05
6.03822e-05
6.15286e-05
6.25035e-05
6.33309e-05
6.40317e-05
6.46239e-05
6.51231e-05
6.55428e-05
6.58947e-05
6.61886e-05
6.64333e-05
6.6636e-05
6.68031e-05
6.69402e-05
6.70518e-05
6.7142e-05
6.72143e-05
6.72717e-05
6.73165e-05
6.73509e-05
6.73765e-05
6.73946e-05
6.74061e-05
6.74117e-05
6.74117e-05
6.74061e-05
6.73945e-05
6.73764e-05
6.73508e-05
6.73164e-05
6.72715e-05
6.72142e-05
6.71418e-05
6.70516e-05
6.694e-05
6.68029e-05
6.66358e-05
6.64331e-05
6.61885e-05
6.58946e-05
6.55429e-05
6.51232e-05
6.46241e-05
6.40321e-05
6.33315e-05
6.25042e-05
6.15296e-05
6.03833e-05
5.90376e-05
5.74596e-05
5.56097e-05
5.344e-05
5.08898e-05
4.80523e-05
5.0974e-05
4.26936e-05
3.1624e-05
1.02372e-07
3.87233e-10
3.87064e-10
1.02332e-07
3.16178e-05
4.26875e-05
5.09686e-05
4.80504e-05
5.08879e-05
5.3438e-05
5.56079e-05
5.7458e-05
5.90362e-05
6.03822e-05
6.15286e-05
6.25035e-05
6.33309e-05
6.40317e-05
6.46239e-05
6.51231e-05
6.55429e-05
6.58947e-05
6.61887e-05
6.64333e-05
6.6636e-05
6.68032e-05
6.69402e-05
6.70518e-05
6.7142e-05
6.72144e-05
6.72717e-05
6.73165e-05
6.73509e-05
6.73765e-05
6.73946e-05
6.74062e-05
6.74118e-05
6.74118e-05
6.74061e-05
6.73946e-05
6.73765e-05
6.73508e-05
6.73164e-05
6.72716e-05
6.72142e-05
6.71419e-05
6.70516e-05
6.694e-05
6.6803e-05
6.66358e-05
6.64331e-05
6.61885e-05
6.58947e-05
6.55429e-05
6.51233e-05
6.46242e-05
6.40321e-05
6.33315e-05
6.25043e-05
6.15296e-05
6.03834e-05
5.90376e-05
5.74596e-05
5.56097e-05
5.344e-05
5.08898e-05
4.80523e-05
5.0974e-05
4.26936e-05
3.16241e-05
1.02372e-07
3.87233e-10
3.87064e-10
1.02332e-07
3.16178e-05
4.26875e-05
5.09686e-05
4.80504e-05
5.08879e-05
5.3438e-05
5.56079e-05
5.7458e-05
5.90362e-05
6.03822e-05
6.15286e-05
6.25035e-05
6.33309e-05
6.40317e-05
6.46239e-05
6.51231e-05
6.55429e-05
6.58947e-05
6.61887e-05
6.64333e-05
6.6636e-05
6.68032e-05
6.69402e-05
6.70518e-05
6.7142e-05
6.72144e-05
6.72717e-05
6.73165e-05
6.73509e-05
6.73765e-05
6.73946e-05
6.74062e-05
6.74118e-05
6.74118e-05
6.74061e-05
6.73946e-05
6.73765e-05
6.73508e-05
6.73164e-05
6.72716e-05
6.72142e-05
6.71419e-05
6.70516e-05
6.694e-05
6.6803e-05
6.66358e-05
6.64332e-05
6.61885e-05
6.58947e-05
6.55429e-05
6.51233e-05
6.46242e-05
6.40321e-05
6.33315e-05
6.25043e-05
6.15296e-05
6.03834e-05
5.90376e-05
5.74596e-05
5.56097e-05
5.344e-05
5.08898e-05
4.80523e-05
5.0974e-05
4.26936e-05
3.16241e-05
1.02372e-07
3.87233e-10
3.87064e-10
1.02332e-07
3.16178e-05
4.26875e-05
5.09686e-05
4.80504e-05
5.08879e-05
5.3438e-05
5.56079e-05
5.7458e-05
5.90362e-05
6.03822e-05
6.15286e-05
6.25035e-05
6.33309e-05
6.40317e-05
6.46239e-05
6.51231e-05
6.55429e-05
6.58947e-05
6.61887e-05
6.64333e-05
6.6636e-05
6.68032e-05
6.69402e-05
6.70518e-05
6.7142e-05
6.72144e-05
6.72717e-05
6.73165e-05
6.73509e-05
6.73765e-05
6.73946e-05
6.74062e-05
6.74118e-05
6.74118e-05
6.74061e-05
6.73946e-05
6.73765e-05
6.73508e-05
6.73164e-05
6.72716e-05
6.72142e-05
6.71419e-05
6.70516e-05
6.694e-05
6.6803e-05
6.66358e-05
6.64332e-05
6.61885e-05
6.58947e-05
6.55429e-05
6.51233e-05
6.46242e-05
6.40321e-05
6.33315e-05
6.25043e-05
6.15296e-05
6.03834e-05
5.90376e-05
5.74596e-05
5.56097e-05
5.344e-05
5.08898e-05
4.80523e-05
5.0974e-05
4.26936e-05
3.16241e-05
1.02372e-07
3.87233e-10
3.87064e-10
1.02332e-07
3.16178e-05
4.26875e-05
5.09686e-05
4.80504e-05
5.08879e-05
5.3438e-05
5.56079e-05
5.7458e-05
5.90362e-05
6.03822e-05
6.15286e-05
6.25035e-05
6.33309e-05
6.40317e-05
6.46239e-05
6.51231e-05
6.55429e-05
6.58947e-05
6.61887e-05
6.64333e-05
6.6636e-05
6.68032e-05
6.69402e-05
6.70518e-05
6.7142e-05
6.72144e-05
6.72717e-05
6.73165e-05
6.73509e-05
6.73765e-05
6.73946e-05
6.74062e-05
6.74118e-05
6.74118e-05
6.74061e-05
6.73946e-05
6.73765e-05
6.73508e-05
6.73164e-05
6.72716e-05
6.72142e-05
6.71419e-05
6.70516e-05
6.694e-05
6.6803e-05
6.66358e-05
6.64332e-05
6.61885e-05
6.58947e-05
6.55429e-05
6.51233e-05
6.46242e-05
6.40321e-05
6.33315e-05
6.25043e-05
6.15296e-05
6.03834e-05
5.90376e-05
5.74596e-05
5.56097e-05
5.344e-05
5.08898e-05
4.80523e-05
5.0974e-05
4.26936e-05
3.16241e-05
1.02372e-07
3.87233e-10
3.87064e-10
1.02332e-07
3.16178e-05
4.26875e-05
5.09686e-05
4.80504e-05
5.08879e-05
5.3438e-05
5.56079e-05
5.7458e-05
5.90362e-05
6.03822e-05
6.15286e-05
6.25035e-05
6.33309e-05
6.40317e-05
6.46239e-05
6.51231e-05
6.55429e-05
6.58947e-05
6.61887e-05
6.64333e-05
6.6636e-05
6.68032e-05
6.69402e-05
6.70518e-05
6.7142e-05
6.72144e-05
6.72717e-05
6.73165e-05
6.73509e-05
6.73765e-05
6.73946e-05
6.74062e-05
6.74118e-05
6.74118e-05
6.74061e-05
6.73946e-05
6.73765e-05
6.73508e-05
6.73164e-05
6.72716e-05
6.72142e-05
6.71419e-05
6.70516e-05
6.694e-05
6.6803e-05
6.66358e-05
6.64332e-05
6.61885e-05
6.58947e-05
6.55429e-05
6.51233e-05
6.46242e-05
6.40321e-05
6.33315e-05
6.25043e-05
6.15296e-05
6.03834e-05
5.90376e-05
5.74596e-05
5.56097e-05
5.344e-05
5.08898e-05
4.80523e-05
5.0974e-05
4.26936e-05
3.16241e-05
1.02372e-07
3.87233e-10
3.87064e-10
1.02332e-07
3.16178e-05
4.26875e-05
5.09686e-05
4.80504e-05
5.08879e-05
5.3438e-05
5.56079e-05
5.7458e-05
5.90362e-05
6.03822e-05
6.15286e-05
6.25035e-05
6.33309e-05
6.40317e-05
6.46239e-05
6.51231e-05
6.55429e-05
6.58947e-05
6.61887e-05
6.64333e-05
6.6636e-05
6.68032e-05
6.69402e-05
6.70518e-05
6.7142e-05
6.72144e-05
6.72717e-05
6.73165e-05
6.73509e-05
6.73765e-05
6.73946e-05
6.74062e-05
6.74118e-05
6.74118e-05
6.74061e-05
6.73946e-05
6.73765e-05
6.73508e-05
6.73164e-05
6.72716e-05
6.72142e-05
6.71419e-05
6.70516e-05
6.694e-05
6.6803e-05
6.66358e-05
6.64332e-05
6.61885e-05
6.58947e-05
6.55429e-05
6.51233e-05
6.46242e-05
6.40321e-05
6.33315e-05
6.25043e-05
6.15296e-05
6.03834e-05
5.90376e-05
5.74596e-05
5.56097e-05
5.344e-05
5.08898e-05
4.80523e-05
5.0974e-05
4.26936e-05
3.16241e-05
1.02372e-07
3.87233e-10
3.87064e-10
1.02332e-07
3.16178e-05
4.26875e-05
5.09686e-05
4.80504e-05
5.08879e-05
5.3438e-05
5.56079e-05
5.7458e-05
5.90362e-05
6.03822e-05
6.15286e-05
6.25035e-05
6.33309e-05
6.40317e-05
6.46239e-05
6.51231e-05
6.55429e-05
6.58947e-05
6.61887e-05
6.64333e-05
6.6636e-05
6.68032e-05
6.69402e-05
6.70518e-05
6.7142e-05
6.72144e-05
6.72717e-05
6.73165e-05
6.73509e-05
6.73765e-05
6.73946e-05
6.74062e-05
6.74118e-05
6.74118e-05
6.74061e-05
6.73946e-05
6.73765e-05
6.73508e-05
6.73164e-05
6.72716e-05
6.72142e-05
6.71419e-05
6.70516e-05
6.694e-05
6.6803e-05
6.66358e-05
6.64332e-05
6.61885e-05
6.58947e-05
6.55429e-05
6.51233e-05
6.46242e-05
6.40321e-05
6.33315e-05
6.25043e-05
6.15296e-05
6.03834e-05
5.90376e-05
5.74596e-05
5.56097e-05
5.344e-05
5.08898e-05
4.80523e-05
5.0974e-05
4.26936e-05
3.16241e-05
1.02372e-07
3.87233e-10
3.87064e-10
1.02332e-07
3.16178e-05
4.26875e-05
5.09686e-05
4.80504e-05
5.08879e-05
5.3438e-05
5.56079e-05
5.7458e-05
5.90362e-05
6.03822e-05
6.15286e-05
6.25035e-05
6.33309e-05
6.40317e-05
6.46239e-05
6.51231e-05
6.55429e-05
6.58947e-05
6.61887e-05
6.64333e-05
6.6636e-05
6.68032e-05
6.69402e-05
6.70518e-05
6.7142e-05
6.72144e-05
6.72717e-05
6.73165e-05
6.73509e-05
6.73765e-05
6.73946e-05
6.74062e-05
6.74118e-05
6.74118e-05
6.74061e-05
6.73946e-05
6.73765e-05
6.73508e-05
6.73164e-05
6.72716e-05
6.72142e-05
6.71419e-05
6.70516e-05
6.694e-05
6.6803e-05
6.66358e-05
6.64332e-05
6.61885e-05
6.58947e-05
6.55429e-05
6.51233e-05
6.46242e-05
6.40321e-05
6.33315e-05
6.25043e-05
6.15296e-05
6.03834e-05
5.90376e-05
5.74596e-05
5.56097e-05
5.344e-05
5.08898e-05
4.80523e-05
5.0974e-05
4.26936e-05
3.16241e-05
1.02372e-07
3.87233e-10
3.87064e-10
1.02332e-07
3.16178e-05
4.26875e-05
5.09686e-05
4.80504e-05
5.08879e-05
5.3438e-05
5.56079e-05
5.7458e-05
5.90362e-05
6.03822e-05
6.15286e-05
6.25035e-05
6.33309e-05
6.40317e-05
6.46239e-05
6.51231e-05
6.55429e-05
6.58947e-05
6.61887e-05
6.64333e-05
6.6636e-05
6.68032e-05
6.69402e-05
6.70518e-05
6.7142e-05
6.72144e-05
6.72717e-05
6.73165e-05
6.73509e-05
6.73765e-05
6.73946e-05
6.74062e-05
6.74118e-05
6.74118e-05
6.74061e-05
6.73946e-05
6.73765e-05
6.73508e-05
6.73164e-05
6.72716e-05
6.72142e-05
6.71419e-05
6.70516e-05
6.694e-05
6.6803e-05
6.66358e-05
6.64332e-05
6.61885e-05
6.58947e-05
6.55429e-05
6.51233e-05
6.46242e-05
6.40321e-05
6.33315e-05
6.25043e-05
6.15296e-05
6.03834e-05
5.90376e-05
5.74596e-05
5.56097e-05
5.344e-05
5.08898e-05
4.80523e-05
5.0974e-05
4.26936e-05
3.16241e-05
1.02372e-07
3.87233e-10
3.87064e-10
1.02332e-07
3.16178e-05
4.26875e-05
5.09686e-05
4.80504e-05
5.08879e-05
5.3438e-05
5.56079e-05
5.7458e-05
5.90362e-05
6.03822e-05
6.15286e-05
6.25035e-05
6.33309e-05
6.40317e-05
6.46239e-05
6.51231e-05
6.55429e-05
6.58947e-05
6.61887e-05
6.64333e-05
6.6636e-05
6.68032e-05
6.69402e-05
6.70518e-05
6.7142e-05
6.72144e-05
6.72717e-05
6.73165e-05
6.73509e-05
6.73765e-05
6.73946e-05
6.74062e-05
6.74118e-05
6.74118e-05
6.74061e-05
6.73946e-05
6.73765e-05
6.73508e-05
6.73164e-05
6.72716e-05
6.72142e-05
6.71419e-05
6.70516e-05
6.694e-05
6.6803e-05
6.66358e-05
6.64332e-05
6.61885e-05
6.58947e-05
6.55429e-05
6.51233e-05
6.46242e-05
6.40321e-05
6.33315e-05
6.25043e-05
6.15296e-05
6.03834e-05
5.90376e-05
5.74596e-05
5.56097e-05
5.344e-05
5.08898e-05
4.80523e-05
5.0974e-05
4.26936e-05
3.16241e-05
1.02372e-07
3.87233e-10
3.87064e-10
1.02332e-07
3.16178e-05
4.26875e-05
5.09686e-05
4.80504e-05
5.08879e-05
5.3438e-05
5.56079e-05
5.7458e-05
5.90362e-05
6.03822e-05
6.15286e-05
6.25035e-05
6.33309e-05
6.40317e-05
6.46239e-05
6.51231e-05
6.55429e-05
6.58947e-05
6.61887e-05
6.64333e-05
6.6636e-05
6.68032e-05
6.69402e-05
6.70518e-05
6.7142e-05
6.72144e-05
6.72717e-05
6.73165e-05
6.73509e-05
6.73765e-05
6.73946e-05
6.74062e-05
6.74118e-05
6.74118e-05
6.74061e-05
6.73946e-05
6.73765e-05
6.73508e-05
6.73164e-05
6.72716e-05
6.72142e-05
6.71419e-05
6.70516e-05
6.694e-05
6.6803e-05
6.66358e-05
6.64332e-05
6.61885e-05
6.58947e-05
6.55429e-05
6.51233e-05
6.46242e-05
6.40321e-05
6.33315e-05
6.25043e-05
6.15296e-05
6.03834e-05
5.90376e-05
5.74596e-05
5.56097e-05
5.344e-05
5.08898e-05
4.80523e-05
5.0974e-05
4.26936e-05
3.16241e-05
1.02372e-07
3.87233e-10
3.87064e-10
1.02332e-07
3.16178e-05
4.26875e-05
5.09686e-05
4.80504e-05
5.08879e-05
5.3438e-05
5.56079e-05
5.7458e-05
5.90362e-05
6.03822e-05
6.15286e-05
6.25035e-05
6.33309e-05
6.40317e-05
6.46239e-05
6.51231e-05
6.55429e-05
6.58947e-05
6.61887e-05
6.64333e-05
6.6636e-05
6.68032e-05
6.69402e-05
6.70518e-05
6.7142e-05
6.72144e-05
6.72717e-05
6.73165e-05
6.73509e-05
6.73765e-05
6.73946e-05
6.74062e-05
6.74118e-05
6.74118e-05
6.74061e-05
6.73946e-05
6.73765e-05
6.73508e-05
6.73164e-05
6.72716e-05
6.72142e-05
6.71419e-05
6.70516e-05
6.694e-05
6.6803e-05
6.66358e-05
6.64332e-05
6.61885e-05
6.58947e-05
6.55429e-05
6.51233e-05
6.46242e-05
6.40321e-05
6.33315e-05
6.25043e-05
6.15296e-05
6.03834e-05
5.90376e-05
5.74596e-05
5.56097e-05
5.344e-05
5.08898e-05
4.80523e-05
5.0974e-05
4.26936e-05
3.16241e-05
1.02372e-07
3.87233e-10
3.87064e-10
1.02332e-07
3.16178e-05
4.26875e-05
5.09686e-05
4.80504e-05
5.08879e-05
5.3438e-05
5.56079e-05
5.7458e-05
5.90362e-05
6.03822e-05
6.15286e-05
6.25035e-05
6.33309e-05
6.40317e-05
6.46239e-05
6.51231e-05
6.55429e-05
6.58947e-05
6.61887e-05
6.64333e-05
6.6636e-05
6.68032e-05
6.69402e-05
6.70518e-05
6.7142e-05
6.72144e-05
6.72717e-05
6.73165e-05
6.73509e-05
6.73765e-05
6.73946e-05
6.74062e-05
6.74118e-05
6.74118e-05
6.74061e-05
6.73946e-05
6.73765e-05
6.73508e-05
6.73164e-05
6.72716e-05
6.72142e-05
6.71419e-05
6.70516e-05
6.694e-05
6.6803e-05
6.66358e-05
6.64332e-05
6.61885e-05
6.58947e-05
6.55429e-05
6.51233e-05
6.46242e-05
6.40321e-05
6.33315e-05
6.25043e-05
6.15296e-05
6.03834e-05
5.90376e-05
5.74596e-05
5.56097e-05
5.344e-05
5.08898e-05
4.80523e-05
5.0974e-05
4.26936e-05
3.16241e-05
1.02372e-07
3.87233e-10
3.87064e-10
1.02332e-07
3.16178e-05
4.26875e-05
5.09686e-05
4.80504e-05
5.08879e-05
5.3438e-05
5.56079e-05
5.7458e-05
5.90362e-05
6.03822e-05
6.15286e-05
6.25035e-05
6.33309e-05
6.40317e-05
6.46239e-05
6.51231e-05
6.55429e-05
6.58947e-05
6.61887e-05
6.64333e-05
6.6636e-05
6.68032e-05
6.69402e-05
6.70518e-05
6.7142e-05
6.72144e-05
6.72717e-05
6.73165e-05
6.73509e-05
6.73765e-05
6.73946e-05
6.74062e-05
6.74118e-05
6.74118e-05
6.74061e-05
6.73946e-05
6.73765e-05
6.73508e-05
6.73164e-05
6.72716e-05
6.72142e-05
6.71419e-05
6.70516e-05
6.694e-05
6.6803e-05
6.66358e-05
6.64332e-05
6.61885e-05
6.58947e-05
6.55429e-05
6.51233e-05
6.46242e-05
6.40321e-05
6.33315e-05
6.25043e-05
6.15296e-05
6.03834e-05
5.90376e-05
5.74596e-05
5.56097e-05
5.344e-05
5.08898e-05
4.80523e-05
5.0974e-05
4.26936e-05
3.16241e-05
1.02372e-07
3.87233e-10
3.87064e-10
1.02332e-07
3.16178e-05
4.26875e-05
5.09686e-05
4.80504e-05
5.08879e-05
5.3438e-05
5.56079e-05
5.7458e-05
5.90362e-05
6.03822e-05
6.15286e-05
6.25035e-05
6.33309e-05
6.40317e-05
6.46239e-05
6.51231e-05
6.55429e-05
6.58947e-05
6.61887e-05
6.64333e-05
6.6636e-05
6.68032e-05
6.69402e-05
6.70518e-05
6.7142e-05
6.72144e-05
6.72717e-05
6.73165e-05
6.73509e-05
6.73765e-05
6.73946e-05
6.74062e-05
6.74118e-05
6.74118e-05
6.74061e-05
6.73946e-05
6.73765e-05
6.73508e-05
6.73164e-05
6.72716e-05
6.72142e-05
6.71419e-05
6.70516e-05
6.694e-05
6.6803e-05
6.66358e-05
6.64332e-05
6.61885e-05
6.58947e-05
6.55429e-05
6.51233e-05
6.46242e-05
6.40321e-05
6.33315e-05
6.25043e-05
6.15296e-05
6.03834e-05
5.90376e-05
5.74596e-05
5.56097e-05
5.344e-05
5.08898e-05
4.80523e-05
5.0974e-05
4.26936e-05
3.16241e-05
1.02372e-07
3.87233e-10
3.87064e-10
1.02332e-07
3.16178e-05
4.26875e-05
5.09686e-05
4.80504e-05
5.08879e-05
5.3438e-05
5.56079e-05
5.7458e-05
5.90362e-05
6.03822e-05
6.15286e-05
6.25035e-05
6.33309e-05
6.40317e-05
6.46239e-05
6.51231e-05
6.55429e-05
6.58947e-05
6.61887e-05
6.64333e-05
6.6636e-05
6.68032e-05
6.69402e-05
6.70518e-05
6.7142e-05
6.72144e-05
6.72717e-05
6.73165e-05
6.73509e-05
6.73765e-05
6.73946e-05
6.74062e-05
6.74118e-05
6.74118e-05
6.74061e-05
6.73946e-05
6.73765e-05
6.73508e-05
6.73164e-05
6.72716e-05
6.72142e-05
6.71419e-05
6.70516e-05
6.694e-05
6.6803e-05
6.66358e-05
6.64332e-05
6.61885e-05
6.58947e-05
6.55429e-05
6.51233e-05
6.46242e-05
6.40321e-05
6.33315e-05
6.25043e-05
6.15296e-05
6.03834e-05
5.90376e-05
5.74596e-05
5.56097e-05
5.344e-05
5.08898e-05
4.80523e-05
5.0974e-05
4.26936e-05
3.16241e-05
1.02372e-07
3.87233e-10
3.87064e-10
1.02332e-07
3.16178e-05
4.26875e-05
5.09686e-05
4.80504e-05
5.08879e-05
5.3438e-05
5.56079e-05
5.7458e-05
5.90362e-05
6.03822e-05
6.15286e-05
6.25035e-05
6.33309e-05
6.40317e-05
6.46239e-05
6.51231e-05
6.55429e-05
6.58947e-05
6.61887e-05
6.64333e-05
6.6636e-05
6.68032e-05
6.69402e-05
6.70518e-05
6.7142e-05
6.72144e-05
6.72717e-05
6.73165e-05
6.73509e-05
6.73765e-05
6.73946e-05
6.74062e-05
6.74118e-05
6.74118e-05
6.74061e-05
6.73946e-05
6.73765e-05
6.73508e-05
6.73164e-05
6.72716e-05
6.72142e-05
6.71419e-05
6.70516e-05
6.694e-05
6.6803e-05
6.66358e-05
6.64332e-05
6.61885e-05
6.58947e-05
6.55429e-05
6.51233e-05
6.46242e-05
6.40321e-05
6.33315e-05
6.25043e-05
6.15296e-05
6.03834e-05
5.90376e-05
5.74596e-05
5.56097e-05
5.344e-05
5.08898e-05
4.80523e-05
5.0974e-05
4.26936e-05
3.16241e-05
1.02372e-07
3.87233e-10
3.87064e-10
1.02332e-07
3.16178e-05
4.26875e-05
5.09686e-05
4.80504e-05
5.08879e-05
5.3438e-05
5.56079e-05
5.7458e-05
5.90362e-05
6.03822e-05
6.15286e-05
6.25035e-05
6.33309e-05
6.40317e-05
6.46239e-05
6.51231e-05
6.55429e-05
6.58947e-05
6.61887e-05
6.64333e-05
6.6636e-05
6.68032e-05
6.69402e-05
6.70518e-05
6.7142e-05
6.72144e-05
6.72717e-05
6.73165e-05
6.73509e-05
6.73765e-05
6.73946e-05
6.74062e-05
6.74118e-05
6.74118e-05
6.74061e-05
6.73946e-05
6.73765e-05
6.73508e-05
6.73164e-05
6.72716e-05
6.72142e-05
6.71419e-05
6.70516e-05
6.694e-05
6.6803e-05
6.66358e-05
6.64332e-05
6.61885e-05
6.58947e-05
6.55429e-05
6.51233e-05
6.46242e-05
6.40321e-05
6.33315e-05
6.25043e-05
6.15296e-05
6.03834e-05
5.90376e-05
5.74596e-05
5.56097e-05
5.344e-05
5.08898e-05
4.80523e-05
5.0974e-05
4.26936e-05
3.16241e-05
1.02372e-07
3.87233e-10
3.87064e-10
1.02332e-07
3.16178e-05
4.26875e-05
5.09686e-05
4.80504e-05
5.08879e-05
5.3438e-05
5.56079e-05
5.7458e-05
5.90362e-05
6.03822e-05
6.15286e-05
6.25035e-05
6.33309e-05
6.40317e-05
6.46239e-05
6.51231e-05
6.55429e-05
6.58947e-05
6.61887e-05
6.64333e-05
6.6636e-05
6.68032e-05
6.69402e-05
6.70518e-05
6.7142e-05
6.72144e-05
6.72717e-05
6.73165e-05
6.73509e-05
6.73765e-05
6.73946e-05
6.74062e-05
6.74118e-05
6.74118e-05
6.74061e-05
6.73946e-05
6.73765e-05
6.73508e-05
6.73164e-05
6.72716e-05
6.72142e-05
6.71419e-05
6.70516e-05
6.694e-05
6.6803e-05
6.66358e-05
6.64332e-05
6.61885e-05
6.58947e-05
6.55429e-05
6.51233e-05
6.46242e-05
6.40321e-05
6.33315e-05
6.25043e-05
6.15296e-05
6.03834e-05
5.90376e-05
5.74596e-05
5.56097e-05
5.344e-05
5.08898e-05
4.80523e-05
5.0974e-05
4.26936e-05
3.16241e-05
1.02372e-07
3.87233e-10
3.87064e-10
1.02332e-07
3.16178e-05
4.26875e-05
5.09686e-05
4.80504e-05
5.08879e-05
5.3438e-05
5.56079e-05
5.7458e-05
5.90362e-05
6.03822e-05
6.15286e-05
6.25035e-05
6.33309e-05
6.40317e-05
6.46239e-05
6.51231e-05
6.55429e-05
6.58947e-05
6.61887e-05
6.64333e-05
6.6636e-05
6.68032e-05
6.69402e-05
6.70518e-05
6.7142e-05
6.72144e-05
6.72717e-05
6.73165e-05
6.73509e-05
6.73765e-05
6.73946e-05
6.74062e-05
6.74118e-05
6.74118e-05
6.74061e-05
6.73946e-05
6.73765e-05
6.73508e-05
6.73164e-05
6.72716e-05
6.72142e-05
6.71419e-05
6.70516e-05
6.694e-05
6.6803e-05
6.66358e-05
6.64332e-05
6.61885e-05
6.58947e-05
6.55429e-05
6.51233e-05
6.46242e-05
6.40321e-05
6.33315e-05
6.25043e-05
6.15296e-05
6.03834e-05
5.90376e-05
5.74596e-05
5.56097e-05
5.344e-05
5.08898e-05
4.80523e-05
5.0974e-05
4.26936e-05
3.16241e-05
1.02372e-07
3.87233e-10
3.87064e-10
1.02332e-07
3.16178e-05
4.26875e-05
5.09686e-05
4.80504e-05
5.08879e-05
5.3438e-05
5.56079e-05
5.7458e-05
5.90362e-05
6.03822e-05
6.15286e-05
6.25035e-05
6.33309e-05
6.40317e-05
6.46239e-05
6.51231e-05
6.55429e-05
6.58947e-05
6.61887e-05
6.64333e-05
6.6636e-05
6.68032e-05
6.69402e-05
6.70518e-05
6.7142e-05
6.72144e-05
6.72717e-05
6.73165e-05
6.73509e-05
6.73765e-05
6.73946e-05
6.74062e-05
6.74118e-05
6.74118e-05
6.74061e-05
6.73946e-05
6.73765e-05
6.73508e-05
6.73164e-05
6.72716e-05
6.72142e-05
6.71419e-05
6.70516e-05
6.694e-05
6.6803e-05
6.66358e-05
6.64332e-05
6.61885e-05
6.58947e-05
6.55429e-05
6.51233e-05
6.46242e-05
6.40321e-05
6.33315e-05
6.25043e-05
6.15296e-05
6.03834e-05
5.90376e-05
5.74596e-05
5.56097e-05
5.344e-05
5.08898e-05
4.80523e-05
5.0974e-05
4.26936e-05
3.16241e-05
1.02372e-07
3.87233e-10
3.87064e-10
1.02332e-07
3.16178e-05
4.26875e-05
5.09686e-05
4.80504e-05
5.08879e-05
5.3438e-05
5.56079e-05
5.7458e-05
5.90362e-05
6.03822e-05
6.15286e-05
6.25035e-05
6.33309e-05
6.40317e-05
6.46239e-05
6.51231e-05
6.55429e-05
6.58947e-05
6.61887e-05
6.64333e-05
6.6636e-05
6.68032e-05
6.69402e-05
6.70518e-05
6.7142e-05
6.72144e-05
6.72717e-05
6.73165e-05
6.73509e-05
6.73765e-05
6.73946e-05
6.74062e-05
6.74118e-05
6.74118e-05
6.74061e-05
6.73946e-05
6.73765e-05
6.73508e-05
6.73164e-05
6.72716e-05
6.72142e-05
6.71419e-05
6.70516e-05
6.694e-05
6.6803e-05
6.66358e-05
6.64332e-05
6.61885e-05
6.58947e-05
6.55429e-05
6.51233e-05
6.46242e-05
6.40321e-05
6.33315e-05
6.25043e-05
6.15296e-05
6.03834e-05
5.90376e-05
5.74596e-05
5.56097e-05
5.344e-05
5.08898e-05
4.80523e-05
5.0974e-05
4.26936e-05
3.16241e-05
1.02372e-07
3.87233e-10
3.87064e-10
1.02332e-07
3.16178e-05
4.26875e-05
5.09686e-05
4.80504e-05
5.08879e-05
5.3438e-05
5.56079e-05
5.7458e-05
5.90362e-05
6.03822e-05
6.15286e-05
6.25035e-05
6.33309e-05
6.40317e-05
6.46239e-05
6.51231e-05
6.55429e-05
6.58947e-05
6.61887e-05
6.64333e-05
6.6636e-05
6.68032e-05
6.69402e-05
6.70518e-05
6.7142e-05
6.72144e-05
6.72717e-05
6.73165e-05
6.73509e-05
6.73765e-05
6.73946e-05
6.74062e-05
6.74118e-05
6.74118e-05
6.74061e-05
6.73946e-05
6.73765e-05
6.73508e-05
6.73164e-05
6.72716e-05
6.72142e-05
6.71419e-05
6.70516e-05
6.694e-05
6.6803e-05
6.66358e-05
6.64332e-05
6.61885e-05
6.58947e-05
6.55429e-05
6.51233e-05
6.46242e-05
6.40321e-05
6.33315e-05
6.25043e-05
6.15296e-05
6.03834e-05
5.90376e-05
5.74596e-05
5.56097e-05
5.344e-05
5.08898e-05
4.80523e-05
5.0974e-05
4.26936e-05
3.16241e-05
1.02372e-07
3.87233e-10
3.87064e-10
1.02332e-07
3.16178e-05
4.26875e-05
5.09686e-05
4.80504e-05
5.08879e-05
5.3438e-05
5.56079e-05
5.7458e-05
5.90362e-05
6.03822e-05
6.15286e-05
6.25035e-05
6.33309e-05
6.40317e-05
6.46239e-05
6.51231e-05
6.55429e-05
6.58947e-05
6.61887e-05
6.64333e-05
6.6636e-05
6.68032e-05
6.69402e-05
6.70518e-05
6.7142e-05
6.72144e-05
6.72717e-05
6.73165e-05
6.73509e-05
6.73765e-05
6.73946e-05
6.74062e-05
6.74118e-05
6.74118e-05
6.74061e-05
6.73946e-05
6.73765e-05
6.73508e-05
6.73164e-05
6.72716e-05
6.72142e-05
6.71419e-05
6.70516e-05
6.694e-05
6.6803e-05
6.66358e-05
6.64332e-05
6.61885e-05
6.58947e-05
6.55429e-05
6.51233e-05
6.46242e-05
6.40321e-05
6.33315e-05
6.25043e-05
6.15296e-05
6.03834e-05
5.90376e-05
5.74596e-05
5.56097e-05
5.344e-05
5.08898e-05
4.80523e-05
5.0974e-05
4.26936e-05
3.16241e-05
1.02372e-07
3.87233e-10
3.87064e-10
1.02332e-07
3.16178e-05
4.26875e-05
5.09686e-05
4.80504e-05
5.08879e-05
5.3438e-05
5.56079e-05
5.7458e-05
5.90362e-05
6.03822e-05
6.15286e-05
6.25035e-05
6.33309e-05
6.40317e-05
6.46239e-05
6.51231e-05
6.55429e-05
6.58947e-05
6.61887e-05
6.64333e-05
6.6636e-05
6.68032e-05
6.69402e-05
6.70518e-05
6.7142e-05
6.72144e-05
6.72717e-05
6.73165e-05
6.73509e-05
6.73765e-05
6.73946e-05
6.74062e-05
6.74118e-05
6.74118e-05
6.74061e-05
6.73946e-05
6.73765e-05
6.73508e-05
6.73164e-05
6.72716e-05
6.72142e-05
6.71419e-05
6.70516e-05
6.694e-05
6.6803e-05
6.66358e-05
6.64332e-05
6.61885e-05
6.58947e-05
6.55429e-05
6.51233e-05
6.46242e-05
6.40321e-05
6.33315e-05
6.25043e-05
6.15296e-05
6.03834e-05
5.90376e-05
5.74596e-05
5.56097e-05
5.344e-05
5.08898e-05
4.80523e-05
5.0974e-05
4.26936e-05
3.16241e-05
1.02372e-07
3.87233e-10
3.87064e-10
1.02332e-07
3.16178e-05
4.26875e-05
5.09686e-05
4.80504e-05
5.08879e-05
5.3438e-05
5.56079e-05
5.7458e-05
5.90362e-05
6.03822e-05
6.15286e-05
6.25035e-05
6.33309e-05
6.40317e-05
6.46239e-05
6.51231e-05
6.55429e-05
6.58947e-05
6.61887e-05