/*--------------------------------*- C++ -*----------------------------------*\
  =========                 |
  \\      /  F ield         | OpenFOAM: The Open Source CFD Toolbox
   \\    /   O peration     | Website:  https://openfoam.org
    \\  /    A nd           | Version:  13
     \\/     M anipulation  |
\*---------------------------------------------------------------------------*/
FoamFile
{
    format      ascii;
    class       volScalarField;
    location    "115";
    object      nut;
}
// * * * * * * * * * * * * * * * * * * * * * * * * * * * * * * * * * * * * * //

dimensions      [0 2 -1 0 0 0 0];

internalField   nonuniform List<scalar> 
315000
(
5.12716e-15
1.34276e-12
3.06413e-11
5.50028e-11
7.9765e-11
1.04981e-10
1.30715e-10
1.57026e-10
1.83953e-10
2.1151e-10
2.39688e-10
2.68448e-10
2.97728e-10
3.27438e-10
3.57468e-10
3.87687e-10
4.17944e-10
4.48079e-10
4.77916e-10
5.07275e-10
5.35968e-10
5.63807e-10
5.90604e-10
6.16173e-10
6.40334e-10
6.62914e-10
6.8375e-10
7.02688e-10
7.19588e-10
7.34325e-10
7.46786e-10
7.56879e-10
7.64526e-10
7.6967e-10
7.7227e-10
7.72307e-10
7.6978e-10
7.6471e-10
7.57134e-10
7.4711e-10
7.34715e-10
7.20042e-10
7.03201e-10
6.84319e-10
6.63535e-10
6.41001e-10
6.16881e-10
5.91347e-10
5.64581e-10
5.36765e-10
5.0809e-10
4.78743e-10
4.48911e-10
4.18776e-10
3.88512e-10
3.58281e-10
3.28233e-10
2.98499e-10
2.6919e-10
2.40395e-10
2.12178e-10
1.84577e-10
1.57601e-10
1.31235e-10
1.05439e-10
8.01526e-11
5.53072e-11
3.08407e-11
1.35334e-12
5.17166e-15
1.28312e-13
3.41703e-11
7.78156e-09
1.40751e-08
2.04439e-08
2.69169e-08
3.3518e-08
4.02656e-08
4.71712e-08
5.42395e-08
6.1468e-08
6.88471e-08
7.636e-08
8.39839e-08
9.16894e-08
9.94425e-08
1.07204e-07
1.14933e-07
1.22583e-07
1.30109e-07
1.37461e-07
1.44591e-07
1.51452e-07
1.57997e-07
1.64178e-07
1.69953e-07
1.7528e-07
1.8012e-07
1.84438e-07
1.88202e-07
1.91384e-07
1.9396e-07
1.95911e-07
1.97223e-07
1.97885e-07
1.97893e-07
1.97246e-07
1.9595e-07
1.94013e-07
1.91451e-07
1.88283e-07
1.84533e-07
1.80227e-07
1.75399e-07
1.70083e-07
1.64317e-07
1.58144e-07
1.51607e-07
1.44752e-07
1.37626e-07
1.30278e-07
1.22755e-07
1.15106e-07
1.07377e-07
9.96129e-08
9.18567e-08
8.41468e-08
7.65174e-08
6.89976e-08
6.16105e-08
5.43728e-08
4.72941e-08
4.03769e-08
3.36165e-08
2.70011e-08
2.05122e-08
1.41255e-08
7.81165e-09
3.43127e-11
1.28864e-13
5.16147e-13
1.37653e-10
7.97488e-08
1.44069e-07
2.09003e-07
2.74907e-07
3.42075e-07
4.1073e-07
4.81014e-07
5.52985e-07
6.26616e-07
7.01791e-07
7.78319e-07
8.55929e-07
9.34291e-07
1.01302e-06
1.09169e-06
1.16984e-06
1.247e-06
1.3227e-06
1.39644e-06
1.46775e-06
1.53616e-06
1.60122e-06
1.66251e-06
1.71962e-06
1.77216e-06
1.8198e-06
1.8622e-06
1.8991e-06
1.93024e-06
1.95542e-06
1.97446e-06
1.98725e-06
1.9937e-06
1.99376e-06
1.98743e-06
1.97476e-06
1.95582e-06
1.93076e-06
1.89972e-06
1.86293e-06
1.82062e-06
1.77307e-06
1.72061e-06
1.66358e-06
1.60236e-06
1.53735e-06
1.46898e-06
1.39771e-06
1.324e-06
1.24833e-06
1.17117e-06
1.09301e-06
1.01433e-06
9.35579e-07
8.57182e-07
7.79525e-07
7.02942e-07
6.277e-07
5.53994e-07
4.81938e-07
4.1156e-07
3.42802e-07
2.75521e-07
2.09494e-07
1.44426e-07
7.99572e-08
1.38033e-10
5.17603e-13
9.67415e-13
2.58027e-10
1.49175e-07
2.68995e-07
3.89748e-07
5.12217e-07
6.37043e-07
7.64704e-07
8.95498e-07
1.02954e-06
1.16675e-06
1.30688e-06
1.4495e-06
1.59402e-06
1.73974e-06
1.88585e-06
2.03151e-06
2.17581e-06
2.31787e-06
2.4568e-06
2.59174e-06
2.72183e-06
2.84628e-06
2.96433e-06
3.07524e-06
3.17834e-06
3.273e-06
3.35865e-06
3.43477e-06
3.5009e-06
3.55664e-06
3.60166e-06
3.63568e-06
3.6585e-06
3.66999e-06
3.67007e-06
3.65875e-06
3.63609e-06
3.60222e-06
3.55736e-06
3.50177e-06
3.43579e-06
3.35981e-06
3.27428e-06
3.17974e-06
3.07674e-06
2.96593e-06
2.84797e-06
2.72359e-06
2.59355e-06
2.45866e-06
2.31976e-06
2.17771e-06
2.0334e-06
1.88773e-06
1.74158e-06
1.59582e-06
1.45123e-06
1.30853e-06
1.16831e-06
1.03098e-06
8.96819e-07
7.65888e-07
6.38077e-07
5.13088e-07
3.90442e-07
2.69498e-07
1.49468e-07
2.58563e-10
9.6947e-13
1.48023e-12
3.94838e-10
2.27712e-07
4.09679e-07
5.92543e-07
7.77636e-07
9.66019e-07
1.15846e-06
1.35542e-06
1.55703e-06
1.76314e-06
1.97327e-06
2.1867e-06
2.40244e-06
2.61938e-06
2.83629e-06
3.05189e-06
3.26488e-06
3.474e-06
3.67799e-06
3.87567e-06
4.06588e-06
4.24751e-06
4.41953e-06
4.58095e-06
4.73083e-06
4.86832e-06
4.99263e-06
5.10302e-06
5.19888e-06
5.27963e-06
5.34481e-06
5.39405e-06
5.42707e-06
5.44368e-06
5.44377e-06
5.42736e-06
5.39453e-06
5.34548e-06
5.28047e-06
5.1999e-06
5.10421e-06
4.99398e-06
4.86982e-06
4.73247e-06
4.58271e-06
4.42141e-06
4.24949e-06
4.06794e-06
3.8778e-06
3.68017e-06
3.47621e-06
3.26712e-06
3.05412e-06
2.83851e-06
2.62157e-06
2.40457e-06
2.18875e-06
1.97524e-06
1.76499e-06
1.55876e-06
1.35699e-06
1.15988e-06
9.67256e-07
7.78678e-07
5.93374e-07
4.10281e-07
2.28065e-07
3.95487e-10
1.48272e-12
2.02552e-12
5.40336e-10
3.10803e-07
5.57735e-07
8.05003e-07
1.05456e-06
1.30792e-06
1.56616e-06
1.82987e-06
2.09921e-06
2.37388e-06
2.65318e-06
2.93604e-06
3.22114e-06
3.50698e-06
3.79195e-06
4.07442e-06
4.35279e-06
4.62547e-06
4.89094e-06
5.14774e-06
5.39447e-06
5.62979e-06
5.85241e-06
6.06117e-06
6.25498e-06
6.43278e-06
6.59358e-06
6.73645e-06
6.86054e-06
6.96512e-06
7.04957e-06
7.11338e-06
7.15616e-06
7.17767e-06
7.17777e-06
7.15646e-06
7.11388e-06
7.05027e-06
6.96601e-06
6.86162e-06
6.7377e-06
6.595e-06
6.43436e-06
6.2567e-06
6.06302e-06
5.85439e-06
5.63188e-06
5.39665e-06
5.14999e-06
4.89325e-06
4.62782e-06
4.35516e-06
4.0768e-06
3.79431e-06
3.50931e-06
3.22342e-06
2.93824e-06
2.65528e-06
2.37587e-06
2.10107e-06
1.83158e-06
1.56769e-06
1.30926e-06
1.05569e-06
8.05908e-07
5.58392e-07
3.11189e-07
5.41054e-10
2.02828e-12
2.56296e-12
6.83769e-10
3.92282e-07
7.02143e-07
1.01128e-06
1.32229e-06
1.63717e-06
1.95727e-06
2.28334e-06
2.61552e-06
2.95338e-06
3.29599e-06
3.64202e-06
3.98983e-06
4.33761e-06
4.68348e-06
5.02554e-06
5.36193e-06
5.69084e-06
6.01053e-06
6.31941e-06
6.616e-06
6.89887e-06
7.1666e-06
7.41778e-06
7.65103e-06
7.86504e-06
8.05856e-06
8.23045e-06
8.37972e-06
8.50548e-06
8.60699e-06
8.68367e-06
8.73507e-06
8.76089e-06
8.76099e-06
8.73536e-06
8.68416e-06
8.60767e-06
8.50635e-06
8.38077e-06
8.23168e-06
8.05995e-06
7.86658e-06
7.65273e-06
7.41961e-06
7.16855e-06
6.90093e-06
6.61815e-06
6.32163e-06
6.01282e-06
5.69316e-06
5.36428e-06
5.0279e-06
4.68584e-06
4.33994e-06
3.99211e-06
3.64423e-06
3.29811e-06
2.95538e-06
2.61739e-06
2.28506e-06
1.95882e-06
1.63853e-06
1.32344e-06
1.0122e-06
7.02814e-07
3.92678e-07
6.84512e-10
2.56583e-12
3.05415e-12
8.14892e-10
4.66403e-07
8.32861e-07
1.19721e-06
1.56272e-06
1.9318e-06
2.3061e-06
2.68649e-06
3.0731e-06
3.4654e-06
3.86229e-06
4.26219e-06
4.66324e-06
5.0634e-06
5.4606e-06
5.85272e-06
6.23773e-06
6.61373e-06
6.97896e-06
7.33174e-06
7.67046e-06
7.99347e-06
8.29914e-06
8.58584e-06
8.85198e-06
9.09605e-06
9.31664e-06
9.51249e-06
9.68247e-06
9.82562e-06
9.94113e-06
1.00283e-05
1.00868e-05
1.01161e-05
1.01162e-05
1.00871e-05
1.00288e-05
9.94177e-06
9.82644e-06
9.68346e-06
9.51365e-06
9.31796e-06
9.09751e-06
8.85358e-06
8.58757e-06
8.30098e-06
7.99541e-06
7.67249e-06
7.33385e-06
6.98113e-06
6.61594e-06
6.23998e-06
5.85498e-06
5.46285e-06
5.06563e-06
4.66542e-06
4.26431e-06
3.86433e-06
3.46734e-06
3.07491e-06
2.68816e-06
2.30761e-06
1.93312e-06
1.56383e-06
1.19811e-06
8.33514e-07
4.6679e-07
8.15625e-10
3.05699e-12
3.47172e-12
9.26393e-10
5.29165e-07
9.43083e-07
1.35345e-06
1.76412e-06
2.17792e-06
2.59673e-06
3.02153e-06
3.45248e-06
3.88894e-06
4.32969e-06
4.77298e-06
5.21679e-06
5.65893e-06
6.09716e-06
6.52923e-06
6.95309e-06
7.36678e-06
7.76845e-06
8.15632e-06
8.52862e-06
8.88357e-06
9.21934e-06
9.53415e-06
9.82625e-06
1.0094e-05
1.03359e-05
1.05505e-05
1.07367e-05
1.08935e-05
1.10199e-05
1.11154e-05
1.11793e-05
1.12114e-05
1.12115e-05
1.11796e-05
1.11158e-05
1.10205e-05
1.08942e-05
1.07376e-05
1.05516e-05
1.03371e-05
1.00953e-05
9.82774e-06
9.53576e-06
9.22106e-06
8.88538e-06
8.53052e-06
8.15829e-06
7.77047e-06
7.36885e-06
6.95519e-06
6.53135e-06
6.09927e-06
5.66103e-06
5.21885e-06
4.77498e-06
4.33161e-06
3.89077e-06
3.45419e-06
3.02311e-06
2.59815e-06
2.17917e-06
1.76518e-06
1.3543e-06
9.43703e-07
5.29533e-07
9.27097e-10
3.47446e-12
3.80314e-12
1.01492e-09
5.7883e-07
1.03001e-06
1.47635e-06
1.92217e-06
2.37066e-06
2.82389e-06
3.28296e-06
3.74801e-06
4.21837e-06
4.69269e-06
5.16914e-06
5.64557e-06
6.11967e-06
6.58911e-06
7.05161e-06
7.50506e-06
7.94743e-06
8.37681e-06
8.79133e-06
9.18912e-06
9.56825e-06
9.9268e-06
1.02628e-05
1.05745e-05
1.08601e-05
1.11179e-05
1.13467e-05
1.15451e-05
1.17121e-05
1.18468e-05
1.19484e-05
1.20165e-05
1.20506e-05
1.20507e-05
1.20167e-05
1.19488e-05
1.18473e-05
1.17128e-05
1.1546e-05
1.13477e-05
1.11191e-05
1.08613e-05
1.05759e-05
1.02643e-05
9.9284e-06
9.56994e-06
9.19089e-06
8.79317e-06
8.3787e-06
7.94936e-06
7.50702e-06
7.05359e-06
6.59109e-06
6.12164e-06
5.6475e-06
5.17102e-06
4.6945e-06
4.22009e-06
3.74962e-06
3.28445e-06
2.82524e-06
2.37183e-06
1.92317e-06
1.47715e-06
1.0306e-06
5.79176e-07
1.01559e-09
3.80575e-12
4.04969e-12
1.0808e-09
6.15699e-07
1.09439e-06
1.56719e-06
2.03881e-06
2.51271e-06
2.99112e-06
3.4752e-06
3.9651e-06
4.46014e-06
4.95888e-06
5.45941e-06
5.95951e-06
6.45681e-06
6.94889e-06
7.43347e-06
7.90838e-06
8.37156e-06
8.82103e-06
9.25487e-06
9.67112e-06
1.00678e-05
1.04428e-05
1.07941e-05
1.11199e-05
1.14183e-05
1.16877e-05
1.19267e-05
1.21339e-05
1.23082e-05
1.24488e-05
1.25549e-05
1.2626e-05
1.26616e-05
1.26617e-05
1.26262e-05
1.25553e-05
1.24493e-05
1.23089e-05
1.21347e-05
1.19276e-05
1.16888e-05
1.14195e-05
1.11212e-05
1.07955e-05
1.04443e-05
1.00694e-05
9.67279e-06
9.25661e-06
8.82282e-06
8.37339e-06
7.91024e-06
7.43535e-06
6.95077e-06
6.45867e-06
5.96134e-06
5.46119e-06
4.96059e-06
4.46177e-06
3.96664e-06
3.47661e-06
2.99239e-06
2.51383e-06
2.03976e-06
1.56795e-06
1.09495e-06
6.16028e-07
1.08144e-09
4.05219e-12
4.22227e-12
1.12694e-09
6.41476e-07
1.13933e-06
1.63052e-06
2.12005e-06
2.61157e-06
3.10742e-06
3.60883e-06
4.11595e-06
4.62805e-06
5.14369e-06
5.66088e-06
6.17736e-06
6.69069e-06
7.19845e-06
7.69832e-06
8.18808e-06
8.66566e-06
9.12905e-06
9.57627e-06
1.00053e-05
1.04141e-05
1.08004e-05
1.11624e-05
1.14979e-05
1.18052e-05
1.20826e-05
1.23286e-05
1.25419e-05
1.27213e-05
1.2866e-05
1.29752e-05
1.30483e-05
1.3085e-05
1.3085e-05
1.30485e-05
1.29755e-05
1.28665e-05
1.27219e-05
1.25426e-05
1.23295e-05
1.20837e-05
1.18064e-05
1.14992e-05
1.11638e-05
1.08019e-05
1.04156e-05
1.00069e-05
9.57794e-06
9.13077e-06
8.66742e-06
8.18987e-06
7.70012e-06
7.20025e-06
6.69248e-06
6.17912e-06
5.6626e-06
5.14534e-06
4.62963e-06
4.11742e-06
3.61019e-06
3.10865e-06
2.61264e-06
2.12096e-06
1.63124e-06
1.13986e-06
6.41792e-07
1.12756e-09
4.22469e-12
4.33636e-12
1.15746e-09
6.58507e-07
1.16899e-06
1.67229e-06
2.17362e-06
2.67673e-06
3.18407e-06
3.69689e-06
4.21535e-06
4.73871e-06
5.26548e-06
5.79366e-06
6.32094e-06
6.84485e-06
7.36297e-06
7.87293e-06
8.37252e-06
8.85963e-06
9.33223e-06
9.7883e-06
1.02258e-05
1.06426e-05
1.10365e-05
1.14055e-05
1.17475e-05
1.20606e-05
1.23433e-05
1.25939e-05
1.28112e-05
1.2994e-05
1.31414e-05
1.32526e-05
1.33271e-05
1.33645e-05
1.33645e-05
1.33273e-05
1.3253e-05
1.31419e-05
1.29946e-05
1.2812e-05
1.25948e-05
1.23443e-05
1.20618e-05
1.17487e-05
1.14068e-05
1.10379e-05
1.06441e-05
1.02274e-05
9.78993e-06
9.33391e-06
8.86135e-06
8.37427e-06
7.87469e-06
7.36473e-06
6.8466e-06
6.32266e-06
5.79534e-06
5.26709e-06
4.74024e-06
4.21679e-06
3.69822e-06
3.18527e-06
2.67778e-06
2.17451e-06
1.673e-06
1.16951e-06
6.58816e-07
1.15806e-09
4.33874e-12
4.40784e-12
1.17658e-09
6.69177e-07
1.18756e-06
1.69844e-06
2.20715e-06
2.71753e-06
3.23207e-06
3.75203e-06
4.27761e-06
4.80804e-06
5.34182e-06
5.87692e-06
6.411e-06
6.94159e-06
7.46623e-06
7.98258e-06
8.48837e-06
8.98151e-06
9.45993e-06
9.9216e-06
1.03644e-05
1.07863e-05
1.1185e-05
1.15584e-05
1.19045e-05
1.22214e-05
1.25074e-05
1.2761e-05
1.29808e-05
1.31658e-05
1.33149e-05
1.34274e-05
1.35027e-05
1.35405e-05
1.35406e-05
1.35029e-05
1.34277e-05
1.33154e-05
1.31664e-05
1.29816e-05
1.27619e-05
1.25084e-05
1.22225e-05
1.19057e-05
1.15597e-05
1.11864e-05
1.07878e-05
1.0366e-05
9.92321e-06
9.46159e-06
8.9832e-06
8.4901e-06
7.98432e-06
7.46798e-06
6.94332e-06
6.4127e-06
5.87858e-06
5.34342e-06
4.80957e-06
4.27904e-06
3.75335e-06
3.23325e-06
2.71857e-06
2.20803e-06
1.69914e-06
1.18808e-06
6.69482e-07
1.17718e-09
4.41019e-12
4.45041e-12
1.18798e-09
6.75534e-07
1.19863e-06
1.71402e-06
2.22713e-06
2.74184e-06
3.26068e-06
3.78493e-06
4.31478e-06
4.84945e-06
5.38744e-06
5.92669e-06
6.46487e-06
6.99948e-06
7.52807e-06
8.04826e-06
8.55781e-06
9.05459e-06
9.53653e-06
1.00016e-05
1.04477e-05
1.08726e-05
1.12742e-05
1.16503e-05
1.19989e-05
1.23181e-05
1.26061e-05
1.28615e-05
1.30829e-05
1.32691e-05
1.34192e-05
1.35325e-05
1.36084e-05
1.36465e-05
1.36465e-05
1.36086e-05
1.35329e-05
1.34197e-05
1.32697e-05
1.30836e-05
1.28624e-05
1.26071e-05
1.23192e-05
1.20001e-05
1.16516e-05
1.12756e-05
1.08741e-05
1.04492e-05
1.00032e-05
9.53819e-06
9.05628e-06
8.55953e-06
8.05e-06
7.52981e-06
7.00121e-06
6.46657e-06
5.92835e-06
5.38903e-06
4.85097e-06
4.3162e-06
3.78625e-06
3.26187e-06
2.74288e-06
2.228e-06
1.71472e-06
1.19914e-06
6.75838e-07
1.18857e-09
4.45275e-12
4.47457e-12
1.19445e-09
6.79145e-07
1.20491e-06
1.72287e-06
2.23849e-06
2.75567e-06
3.27697e-06
3.80367e-06
4.33596e-06
4.87307e-06
5.41347e-06
5.95512e-06
6.49566e-06
7.03259e-06
7.56345e-06
8.08587e-06
8.59759e-06
9.09647e-06
9.58046e-06
1.00475e-05
1.04955e-05
1.09222e-05
1.13255e-05
1.17031e-05
1.20532e-05
1.23737e-05
1.26629e-05
1.29193e-05
1.31416e-05
1.33286e-05
1.34793e-05
1.35931e-05
1.36692e-05
1.37075e-05
1.37075e-05
1.36695e-05
1.35934e-05
1.34798e-05
1.33292e-05
1.31423e-05
1.29202e-05
1.26639e-05
1.23748e-05
1.20544e-05
1.17045e-05
1.13269e-05
1.09237e-05
1.0497e-05
1.00491e-05
9.58212e-06
9.09817e-06
8.59931e-06
8.0876e-06
7.56519e-06
7.03431e-06
6.49736e-06
5.95677e-06
5.41507e-06
4.87459e-06
4.33739e-06
3.80499e-06
3.27816e-06
2.75671e-06
2.23936e-06
1.72357e-06
1.20542e-06
6.79449e-07
1.19505e-09
4.47692e-12
4.48769e-12
1.19796e-09
6.81106e-07
1.20833e-06
1.72768e-06
2.24466e-06
2.7632e-06
3.28584e-06
3.81388e-06
4.34751e-06
4.88596e-06
5.42769e-06
5.97065e-06
6.5125e-06
7.05071e-06
7.58283e-06
8.10648e-06
8.61941e-06
9.11946e-06
9.60459e-06
1.00727e-05
1.05217e-05
1.09495e-05
1.13537e-05
1.17322e-05
1.20831e-05
1.24043e-05
1.26942e-05
1.29512e-05
1.31739e-05
1.33614e-05
1.35124e-05
1.36265e-05
1.37028e-05
1.37411e-05
1.37412e-05
1.3703e-05
1.36268e-05
1.35129e-05
1.3362e-05
1.31747e-05
1.2952e-05
1.26951e-05
1.24054e-05
1.20843e-05
1.17335e-05
1.13551e-05
1.09509e-05
1.05233e-05
1.00743e-05
9.60625e-06
9.12116e-06
8.62113e-06
8.10822e-06
7.58457e-06
7.05244e-06
6.5142e-06
5.97231e-06
5.42929e-06
4.88748e-06
4.34894e-06
3.8152e-06
3.28703e-06
2.76424e-06
2.24554e-06
1.72839e-06
1.20884e-06
6.81411e-07
1.19856e-09
4.49004e-12
4.4945e-12
1.19979e-09
6.82127e-07
1.2101e-06
1.73019e-06
2.24788e-06
2.76712e-06
3.29047e-06
3.81921e-06
4.35355e-06
4.8927e-06
5.43513e-06
5.9788e-06
6.52133e-06
7.06022e-06
7.59301e-06
8.11732e-06
8.63088e-06
9.13156e-06
9.6173e-06
1.0086e-05
1.05356e-05
1.09638e-05
1.13686e-05
1.17476e-05
1.20988e-05
1.24205e-05
1.27107e-05
1.2968e-05
1.31911e-05
1.33787e-05
1.353e-05
1.36441e-05
1.37205e-05
1.37589e-05
1.3759e-05
1.37208e-05
1.36445e-05
1.35305e-05
1.33793e-05
1.31918e-05
1.29689e-05
1.27117e-05
1.24216e-05
1.21001e-05
1.17489e-05
1.137e-05
1.09653e-05
1.05371e-05
1.00876e-05
9.61896e-06
9.13327e-06
8.63261e-06
8.11906e-06
7.59476e-06
7.06196e-06
6.52303e-06
5.98046e-06
5.43674e-06
4.89422e-06
4.35498e-06
3.82053e-06
3.29166e-06
2.76816e-06
2.24876e-06
1.73089e-06
1.21062e-06
6.82432e-07
1.20039e-09
4.49686e-12
4.4979e-12
1.2007e-09
6.82636e-07
1.21099e-06
1.73144e-06
2.24949e-06
2.76908e-06
3.29278e-06
3.82189e-06
4.35658e-06
4.89608e-06
5.43887e-06
5.98289e-06
6.52578e-06
7.06502e-06
7.59815e-06
8.12279e-06
8.63668e-06
9.13768e-06
9.62372e-06
1.00927e-05
1.05426e-05
1.09711e-05
1.13761e-05
1.17554e-05
1.21069e-05
1.24287e-05
1.27191e-05
1.29766e-05
1.31998e-05
1.33875e-05
1.35389e-05
1.36531e-05
1.37296e-05
1.37679e-05
1.3768e-05
1.37298e-05
1.36534e-05
1.35394e-05
1.33881e-05
1.32005e-05
1.29774e-05
1.27201e-05
1.24298e-05
1.21081e-05
1.17567e-05
1.13775e-05
1.09726e-05
1.05442e-05
1.00944e-05
9.62539e-06
9.13939e-06
8.63841e-06
8.12454e-06
7.5999e-06
7.06675e-06
6.52749e-06
5.98456e-06
5.44048e-06
4.89761e-06
4.35801e-06
3.82321e-06
3.29398e-06
2.77013e-06
2.25037e-06
1.73215e-06
1.21151e-06
6.82942e-07
1.2013e-09
4.50026e-12
4.49953e-12
1.20114e-09
6.82881e-07
1.21142e-06
1.73204e-06
2.25026e-06
2.77003e-06
3.2939e-06
3.82318e-06
4.35804e-06
4.89772e-06
5.44068e-06
5.98488e-06
6.52793e-06
7.06734e-06
7.60064e-06
8.12545e-06
8.6395e-06
9.14066e-06
9.62685e-06
1.0096e-05
1.0546e-05
1.09747e-05
1.13798e-05
1.17592e-05
1.21108e-05
1.24327e-05
1.27232e-05
1.29807e-05
1.3204e-05
1.33918e-05
1.35432e-05
1.36575e-05
1.3734e-05
1.37724e-05
1.37724e-05
1.37342e-05
1.36578e-05
1.35437e-05
1.33924e-05
1.32047e-05
1.29816e-05
1.27242e-05
1.24338e-05
1.2112e-05
1.17605e-05
1.13812e-05
1.09762e-05
1.05476e-05
1.00976e-05
9.62852e-06
9.14237e-06
8.64123e-06
8.1272e-06
7.60239e-06
7.06908e-06
6.52964e-06
5.98655e-06
5.44229e-06
4.89925e-06
4.35948e-06
3.8245e-06
3.29509e-06
2.77108e-06
2.25115e-06
1.73275e-06
1.21193e-06
6.83187e-07
1.20174e-09
4.50189e-12
4.50029e-12
1.20134e-09
6.82994e-07
1.21161e-06
1.73232e-06
2.25062e-06
2.77047e-06
3.29442e-06
3.82377e-06
4.35872e-06
4.89848e-06
5.44153e-06
5.9858e-06
6.52894e-06
7.06843e-06
7.60181e-06
8.12669e-06
8.64082e-06
9.14205e-06
9.62832e-06
1.00976e-05
1.05476e-05
1.09764e-05
1.13815e-05
1.1761e-05
1.21126e-05
1.24346e-05
1.27251e-05
1.29827e-05
1.3206e-05
1.33939e-05
1.35453e-05
1.36596e-05
1.37361e-05
1.37745e-05
1.37745e-05
1.37363e-05
1.36599e-05
1.35458e-05
1.33945e-05
1.32068e-05
1.29836e-05
1.27261e-05
1.24357e-05
1.21138e-05
1.17623e-05
1.13829e-05
1.09778e-05
1.05492e-05
1.00992e-05
9.62999e-06
9.14376e-06
8.64255e-06
8.12844e-06
7.60356e-06
7.07017e-06
6.53065e-06
5.98747e-06
5.44314e-06
4.90001e-06
4.36016e-06
3.8251e-06
3.29561e-06
2.77151e-06
2.2515e-06
1.73303e-06
1.21213e-06
6.833e-07
1.20194e-09
4.50265e-12
4.50062e-12
1.20143e-09
6.83044e-07
1.2117e-06
1.73245e-06
2.25078e-06
2.77066e-06
3.29465e-06
3.82404e-06
4.35902e-06
4.89882e-06
5.44191e-06
5.98622e-06
6.52939e-06
7.06892e-06
7.60233e-06
8.12725e-06
8.64141e-06
9.14268e-06
9.62898e-06
1.00983e-05
1.05484e-05
1.09771e-05
1.13823e-05
1.17618e-05
1.21134e-05
1.24354e-05
1.2726e-05
1.29836e-05
1.32069e-05
1.33948e-05
1.35462e-05
1.36605e-05
1.3737e-05
1.37754e-05
1.37755e-05
1.37372e-05
1.36608e-05
1.35467e-05
1.33954e-05
1.32077e-05
1.29845e-05
1.2727e-05
1.24365e-05
1.21147e-05
1.17631e-05
1.13837e-05
1.09786e-05
1.05499e-05
1.00999e-05
9.63066e-06
9.14439e-06
8.64315e-06
8.129e-06
7.60409e-06
7.07066e-06
6.5311e-06
5.98789e-06
5.44352e-06
4.90036e-06
4.36046e-06
3.82537e-06
3.29584e-06
2.77171e-06
2.25166e-06
1.73315e-06
1.21222e-06
6.83351e-07
1.20203e-09
4.50298e-12
4.50077e-12
1.20147e-09
6.83066e-07
1.21174e-06
1.7325e-06
2.25085e-06
2.77075e-06
3.29475e-06
3.82416e-06
4.35916e-06
4.89897e-06
5.44207e-06
5.9864e-06
6.52959e-06
7.06913e-06
7.60256e-06
8.12749e-06
8.64167e-06
9.14296e-06
9.62927e-06
1.00986e-05
1.05487e-05
1.09774e-05
1.13826e-05
1.17621e-05
1.21138e-05
1.24358e-05
1.27264e-05
1.2984e-05
1.32073e-05
1.33952e-05
1.35466e-05
1.36609e-05
1.37374e-05
1.37758e-05
1.37759e-05
1.37376e-05
1.36613e-05
1.35471e-05
1.33958e-05
1.32081e-05
1.29849e-05
1.27274e-05
1.24369e-05
1.2115e-05
1.17634e-05
1.13841e-05
1.09789e-05
1.05502e-05
1.01002e-05
9.63095e-06
9.14467e-06
8.64341e-06
8.12925e-06
7.60432e-06
7.07087e-06
6.5313e-06
5.98807e-06
5.44368e-06
4.9005e-06
4.36059e-06
3.82548e-06
3.29594e-06
2.77179e-06
2.25173e-06
1.73321e-06
1.21226e-06
6.83373e-07
1.20207e-09
4.50313e-12
4.50083e-12
1.20149e-09
6.83075e-07
1.21176e-06
1.73252e-06
2.25088e-06
2.77078e-06
3.29479e-06
3.82421e-06
4.35921e-06
4.89903e-06
5.44214e-06
5.98647e-06
6.52967e-06
7.06922e-06
7.60266e-06
8.1276e-06
8.64178e-06
9.14307e-06
9.6294e-06
1.00987e-05
1.05488e-05
1.09776e-05
1.13828e-05
1.17623e-05
1.2114e-05
1.2436e-05
1.27265e-05
1.29842e-05
1.32075e-05
1.33953e-05
1.35468e-05
1.36611e-05
1.37376e-05
1.3776e-05
1.37761e-05
1.37378e-05
1.36614e-05
1.35473e-05
1.3396e-05
1.32082e-05
1.2985e-05
1.27275e-05
1.24371e-05
1.21152e-05
1.17636e-05
1.13842e-05
1.09791e-05
1.05504e-05
1.01003e-05
9.63107e-06
9.14478e-06
8.64352e-06
8.12935e-06
7.60441e-06
7.07096e-06
6.53138e-06
5.98814e-06
5.44375e-06
4.90057e-06
4.36065e-06
3.82553e-06
3.29599e-06
2.77183e-06
2.25176e-06
1.73323e-06
1.21227e-06
6.83382e-07
1.20209e-09
4.50319e-12
4.50085e-12
1.20149e-09
6.83078e-07
1.21176e-06
1.73253e-06
2.25089e-06
2.7708e-06
3.29481e-06
3.82423e-06
4.35923e-06
4.89906e-06
5.44217e-06
5.9865e-06
6.5297e-06
7.06926e-06
7.6027e-06
8.12764e-06
8.64183e-06
9.14312e-06
9.62945e-06
1.00987e-05
1.05489e-05
1.09776e-05
1.13829e-05
1.17623e-05
1.2114e-05
1.2436e-05
1.27266e-05
1.29842e-05
1.32076e-05
1.33954e-05
1.35469e-05
1.36612e-05
1.37377e-05
1.37761e-05
1.37761e-05
1.37379e-05
1.36615e-05
1.35474e-05
1.3396e-05
1.32083e-05
1.29851e-05
1.27276e-05
1.24371e-05
1.21152e-05
1.17637e-05
1.13843e-05
1.09791e-05
1.05504e-05
1.01004e-05
9.63112e-06
9.14483e-06
8.64357e-06
8.12939e-06
7.60445e-06
7.071e-06
6.53142e-06
5.98818e-06
5.44378e-06
4.90059e-06
4.36067e-06
3.82555e-06
3.296e-06
2.77184e-06
2.25177e-06
1.73324e-06
1.21228e-06
6.83385e-07
1.2021e-09
4.50321e-12
4.50086e-12
1.2015e-09
6.8308e-07
1.21176e-06
1.73253e-06
2.25089e-06
2.7708e-06
3.29482e-06
3.82423e-06
4.35924e-06
4.89907e-06
5.44218e-06
5.98652e-06
6.52972e-06
7.06927e-06
7.60271e-06
8.12766e-06
8.64185e-06
9.14314e-06
9.62947e-06
1.00988e-05
1.05489e-05
1.09777e-05
1.13829e-05
1.17624e-05
1.2114e-05
1.2436e-05
1.27266e-05
1.29843e-05
1.32076e-05
1.33954e-05
1.35469e-05
1.36612e-05
1.37377e-05
1.37761e-05
1.37762e-05
1.37379e-05
1.36615e-05
1.35474e-05
1.33961e-05
1.32083e-05
1.29851e-05
1.27276e-05
1.24372e-05
1.21153e-05
1.17637e-05
1.13843e-05
1.09792e-05
1.05504e-05
1.01004e-05
9.63114e-06
9.14485e-06
8.64358e-06
8.12941e-06
7.60447e-06
7.07101e-06
6.53143e-06
5.98819e-06
5.44379e-06
4.9006e-06
4.36068e-06
3.82556e-06
3.29601e-06
2.77185e-06
2.25178e-06
1.73324e-06
1.21228e-06
6.83387e-07
1.2021e-09
4.50322e-12
4.50086e-12
1.2015e-09
6.8308e-07
1.21177e-06
1.73253e-06
2.2509e-06
2.7708e-06
3.29482e-06
3.82424e-06
4.35925e-06
4.89907e-06
5.44218e-06
5.98652e-06
6.52972e-06
7.06928e-06
7.60272e-06
8.12766e-06
8.64185e-06
9.14315e-06
9.62947e-06
1.00988e-05
1.05489e-05
1.09777e-05
1.13829e-05
1.17624e-05
1.21141e-05
1.24361e-05
1.27266e-05
1.29843e-05
1.32076e-05
1.33955e-05
1.35469e-05
1.36612e-05
1.37377e-05
1.37761e-05
1.37762e-05
1.37379e-05
1.36615e-05
1.35474e-05
1.33961e-05
1.32083e-05
1.29851e-05
1.27276e-05
1.24372e-05
1.21153e-05
1.17637e-05
1.13843e-05
1.09792e-05
1.05505e-05
1.01004e-05
9.63115e-06
9.14486e-06
8.64359e-06
8.12942e-06
7.60447e-06
7.07102e-06
6.53144e-06
5.98819e-06
5.44379e-06
4.90061e-06
4.36068e-06
3.82556e-06
3.29601e-06
2.77185e-06
2.25178e-06
1.73324e-06
1.21228e-06
6.83387e-07
1.2021e-09
4.50322e-12
4.50086e-12
1.2015e-09
6.83081e-07
1.21177e-06
1.73254e-06
2.2509e-06
2.7708e-06
3.29482e-06
3.82424e-06
4.35925e-06
4.89907e-06
5.44218e-06
5.98652e-06
6.52972e-06
7.06928e-06
7.60272e-06
8.12766e-06
8.64186e-06
9.14315e-06
9.62948e-06
1.00988e-05
1.05489e-05
1.09777e-05
1.13829e-05
1.17624e-05
1.21141e-05
1.24361e-05
1.27266e-05
1.29843e-05
1.32076e-05
1.33955e-05
1.35469e-05
1.36612e-05
1.37377e-05
1.37761e-05
1.37762e-05
1.37379e-05
1.36615e-05
1.35474e-05
1.33961e-05
1.32083e-05
1.29851e-05
1.27276e-05
1.24372e-05
1.21153e-05
1.17637e-05
1.13843e-05
1.09792e-05
1.05505e-05
1.01004e-05
9.63115e-06
9.14486e-06
8.64359e-06
8.12942e-06
7.60447e-06
7.07102e-06
6.53144e-06
5.98819e-06
5.4438e-06
4.90061e-06
4.36069e-06
3.82556e-06
3.29601e-06
2.77185e-06
2.25178e-06
1.73324e-06
1.21228e-06
6.83387e-07
1.2021e-09
4.50322e-12
4.50086e-12
1.2015e-09
6.83081e-07
1.21177e-06
1.73254e-06
2.2509e-06
2.77081e-06
3.29482e-06
3.82424e-06
4.35925e-06
4.89907e-06
5.44219e-06
5.98652e-06
6.52972e-06
7.06928e-06
7.60272e-06
8.12767e-06
8.64186e-06
9.14315e-06
9.62948e-06
1.00988e-05
1.05489e-05
1.09777e-05
1.13829e-05
1.17624e-05
1.21141e-05
1.24361e-05
1.27266e-05
1.29843e-05
1.32076e-05
1.33955e-05
1.35469e-05
1.36612e-05
1.37377e-05
1.37761e-05
1.37762e-05
1.37379e-05
1.36615e-05
1.35474e-05
1.33961e-05
1.32083e-05
1.29851e-05
1.27276e-05
1.24372e-05
1.21153e-05
1.17637e-05
1.13843e-05
1.09792e-05
1.05505e-05
1.01004e-05
9.63115e-06
9.14486e-06
8.64359e-06
8.12942e-06
7.60448e-06
7.07102e-06
6.53144e-06
5.98819e-06
5.4438e-06
4.90061e-06
4.36069e-06
3.82556e-06
3.29601e-06
2.77185e-06
2.25178e-06
1.73324e-06
1.21228e-06
6.83387e-07
1.2021e-09
4.50323e-12
4.50086e-12
1.2015e-09
6.83081e-07
1.21177e-06
1.73254e-06
2.2509e-06
2.77081e-06
3.29482e-06
3.82424e-06
4.35925e-06
4.89907e-06
5.44219e-06
5.98652e-06
6.52972e-06
7.06928e-06
7.60272e-06
8.12767e-06
8.64186e-06
9.14315e-06
9.62948e-06
1.00988e-05
1.05489e-05
1.09777e-05
1.13829e-05
1.17624e-05
1.21141e-05
1.24361e-05
1.27266e-05
1.29843e-05
1.32076e-05
1.33955e-05
1.35469e-05
1.36612e-05
1.37377e-05
1.37761e-05
1.37762e-05
1.37379e-05
1.36615e-05
1.35474e-05
1.33961e-05
1.32083e-05
1.29851e-05
1.27276e-05
1.24372e-05
1.21153e-05
1.17637e-05
1.13843e-05
1.09792e-05
1.05505e-05
1.01004e-05
9.63115e-06
9.14486e-06
8.6436e-06
8.12942e-06
7.60448e-06
7.07102e-06
6.53144e-06
5.98819e-06
5.4438e-06
4.90061e-06
4.36069e-06
3.82556e-06
3.29601e-06
2.77185e-06
2.25178e-06
1.73324e-06
1.21228e-06
6.83387e-07
1.2021e-09
4.50323e-12
4.50086e-12
1.2015e-09
6.83081e-07
1.21177e-06
1.73254e-06
2.2509e-06
2.77081e-06
3.29482e-06
3.82424e-06
4.35925e-06
4.89907e-06
5.44219e-06
5.98652e-06
6.52972e-06
7.06928e-06
7.60272e-06
8.12767e-06
8.64186e-06
9.14315e-06
9.62948e-06
1.00988e-05
1.05489e-05
1.09777e-05
1.13829e-05
1.17624e-05
1.21141e-05
1.24361e-05
1.27266e-05
1.29843e-05
1.32076e-05
1.33955e-05
1.35469e-05
1.36612e-05
1.37377e-05
1.37761e-05
1.37762e-05
1.37379e-05
1.36615e-05
1.35474e-05
1.33961e-05
1.32083e-05
1.29851e-05
1.27276e-05
1.24372e-05
1.21153e-05
1.17637e-05
1.13843e-05
1.09792e-05
1.05505e-05
1.01004e-05
9.63115e-06
9.14486e-06
8.6436e-06
8.12942e-06
7.60448e-06
7.07102e-06
6.53144e-06
5.9882e-06
5.4438e-06
4.90061e-06
4.36069e-06
3.82556e-06
3.29601e-06
2.77185e-06
2.25178e-06
1.73324e-06
1.21228e-06
6.83387e-07
1.2021e-09
4.50323e-12
4.50086e-12
1.2015e-09
6.83081e-07
1.21177e-06
1.73254e-06
2.2509e-06
2.77081e-06
3.29482e-06
3.82424e-06
4.35925e-06
4.89907e-06
5.44219e-06
5.98652e-06
6.52972e-06
7.06928e-06
7.60272e-06
8.12767e-06
8.64186e-06
9.14315e-06
9.62948e-06
1.00988e-05
1.05489e-05
1.09777e-05
1.13829e-05
1.17624e-05
1.21141e-05
1.24361e-05
1.27266e-05
1.29843e-05
1.32076e-05
1.33955e-05
1.35469e-05
1.36612e-05
1.37377e-05
1.37761e-05
1.37762e-05
1.37379e-05
1.36615e-05
1.35474e-05
1.33961e-05
1.32083e-05
1.29851e-05
1.27276e-05
1.24372e-05
1.21153e-05
1.17637e-05
1.13843e-05
1.09792e-05
1.05505e-05
1.01004e-05
9.63115e-06
9.14486e-06
8.6436e-06
8.12942e-06
7.60448e-06
7.07102e-06
6.53144e-06
5.9882e-06
5.4438e-06
4.90061e-06
4.36069e-06
3.82556e-06
3.29601e-06
2.77185e-06
2.25178e-06
1.73324e-06
1.21228e-06
6.83387e-07
1.2021e-09
4.50323e-12
4.50086e-12
1.2015e-09
6.83081e-07
1.21177e-06
1.73254e-06
2.2509e-06
2.77081e-06
3.29482e-06
3.82424e-06
4.35925e-06
4.89907e-06
5.44219e-06
5.98652e-06
6.52972e-06
7.06928e-06
7.60272e-06
8.12767e-06
8.64186e-06
9.14315e-06
9.62948e-06
1.00988e-05
1.05489e-05
1.09777e-05
1.13829e-05
1.17624e-05
1.21141e-05
1.24361e-05
1.27266e-05
1.29843e-05
1.32076e-05
1.33955e-05
1.35469e-05
1.36612e-05
1.37377e-05
1.37761e-05
1.37762e-05
1.37379e-05
1.36615e-05
1.35474e-05
1.33961e-05
1.32083e-05
1.29851e-05
1.27276e-05
1.24372e-05
1.21153e-05
1.17637e-05
1.13843e-05
1.09792e-05
1.05505e-05
1.01004e-05
9.63115e-06
9.14486e-06
8.6436e-06
8.12942e-06
7.60448e-06
7.07102e-06
6.53144e-06
5.9882e-06
5.4438e-06
4.90061e-06
4.36069e-06
3.82556e-06
3.29601e-06
2.77185e-06
2.25178e-06
1.73324e-06
1.21228e-06
6.83388e-07
1.2021e-09
4.50323e-12
4.50086e-12
1.2015e-09
6.83081e-07
1.21177e-06
1.73254e-06
2.2509e-06
2.77081e-06
3.29482e-06
3.82424e-06
4.35925e-06
4.89907e-06
5.44219e-06
5.98652e-06
6.52972e-06
7.06928e-06
7.60272e-06
8.12767e-06
8.64186e-06
9.14315e-06
9.62948e-06
1.00988e-05
1.05489e-05
1.09777e-05
1.13829e-05
1.17624e-05
1.21141e-05
1.24361e-05
1.27266e-05
1.29843e-05
1.32076e-05
1.33955e-05
1.35469e-05
1.36612e-05
1.37377e-05
1.37761e-05
1.37762e-05
1.37379e-05
1.36615e-05
1.35474e-05
1.33961e-05
1.32083e-05
1.29851e-05
1.27276e-05
1.24372e-05
1.21153e-05
1.17637e-05
1.13843e-05
1.09792e-05
1.05505e-05
1.01004e-05
9.63115e-06
9.14486e-06
8.6436e-06
8.12942e-06
7.60448e-06
7.07102e-06
6.53144e-06
5.9882e-06
5.4438e-06
4.90061e-06
4.36069e-06
3.82556e-06
3.29601e-06
2.77185e-06
2.25178e-06
1.73324e-06
1.21228e-06
6.83388e-07
1.2021e-09
4.50323e-12
4.50086e-12
1.2015e-09
6.83081e-07
1.21177e-06
1.73254e-06
2.2509e-06
2.77081e-06
3.29482e-06
3.82424e-06
4.35925e-06
4.89907e-06
5.44219e-06
5.98652e-06
6.52972e-06
7.06928e-06
7.60272e-06
8.12767e-06
8.64186e-06
9.14315e-06
9.62948e-06
1.00988e-05
1.05489e-05
1.09777e-05
1.13829e-05
1.17624e-05
1.21141e-05
1.24361e-05
1.27266e-05
1.29843e-05
1.32076e-05
1.33955e-05
1.35469e-05
1.36612e-05
1.37377e-05
1.37761e-05
1.37762e-05
1.37379e-05
1.36615e-05
1.35474e-05
1.33961e-05
1.32083e-05
1.29851e-05
1.27276e-05
1.24372e-05
1.21153e-05
1.17637e-05
1.13843e-05
1.09792e-05
1.05505e-05
1.01004e-05
9.63115e-06
9.14486e-06
8.6436e-06
8.12942e-06
7.60448e-06
7.07102e-06
6.53144e-06
5.9882e-06
5.4438e-06
4.90061e-06
4.36069e-06
3.82556e-06
3.29601e-06
2.77185e-06
2.25178e-06
1.73324e-06
1.21228e-06
6.83388e-07
1.2021e-09
4.50323e-12
4.50086e-12
1.2015e-09
6.83081e-07
1.21177e-06
1.73254e-06
2.2509e-06
2.77081e-06
3.29482e-06
3.82424e-06
4.35925e-06
4.89907e-06
5.44219e-06
5.98652e-06