/*--------------------------------*- C++ -*----------------------------------*\
  =========                 |
  \\      /  F ield         | OpenFOAM: The Open Source CFD Toolbox
   \\    /   O peration     | Website:  https://openfoam.org
    \\  /    A nd           | Version:  13
     \\/     M anipulation  |
\*---------------------------------------------------------------------------*/
FoamFile
{
    format      ascii;
    class       volScalarField;
    location    "130";
    object      nut;
}
// * * * * * * * * * * * * * * * * * * * * * * * * * * * * * * * * * * * * * //

dimensions      [0 2 -1 0 0 0 0];

internalField   nonuniform List<scalar> 
315000
(
2.44975e-15
6.4163e-13
1.46434e-11
2.62905e-11
3.81369e-11
5.02107e-11
6.25463e-11
7.51735e-11
8.81134e-11
1.01375e-10
1.14956e-10
1.28839e-10
1.42995e-10
1.57383e-10
1.71948e-10
1.86628e-10
2.0135e-10
2.16035e-10
2.30595e-10
2.44941e-10
2.5898e-10
2.72617e-10
2.85757e-10
2.98307e-10
3.10177e-10
3.21278e-10
3.31528e-10
3.4085e-10
3.49173e-10
3.56433e-10
3.62575e-10
3.67551e-10
3.71322e-10
3.7386e-10
3.75143e-10
3.75162e-10
3.73918e-10
3.71419e-10
3.67685e-10
3.62745e-10
3.56638e-10
3.49411e-10
3.41119e-10
3.31826e-10
3.21602e-10
3.10525e-10
2.98677e-10
2.86145e-10
2.73019e-10
2.59394e-10
2.45364e-10
2.31023e-10
2.16465e-10
2.0178e-10
1.87053e-10
1.72365e-10
1.57789e-10
1.43389e-10
1.29216e-10
1.15314e-10
1.01713e-10
8.8427e-11
7.5461e-11
6.28051e-11
5.04378e-11
3.8328e-11
2.64397e-11
1.47405e-11
6.46751e-13
2.47123e-15
6.13141e-14
1.63299e-11
3.71974e-09
6.73045e-09
9.78002e-09
1.2883e-08
1.60517e-08
1.92954e-08
2.26204e-08
2.60296e-08
2.95223e-08
3.30943e-08
3.6738e-08
4.04424e-08
4.41939e-08
4.79757e-08
5.17689e-08
5.55528e-08
5.9305e-08
6.30019e-08
6.66195e-08
7.01333e-08
7.35187e-08
7.67518e-08
7.98091e-08
8.26681e-08
8.53076e-08
8.77078e-08
8.98504e-08
9.17192e-08
9.32998e-08
9.45801e-08
9.55501e-08
9.62024e-08
9.6532e-08
9.65361e-08
9.62148e-08
9.55707e-08
9.46086e-08
9.3336e-08
9.17629e-08
8.99011e-08
8.77651e-08
8.53711e-08
8.27372e-08
7.98833e-08
7.68304e-08
7.36011e-08
7.02188e-08
6.67075e-08
6.30916e-08
5.93956e-08
5.56438e-08
5.18594e-08
4.8065e-08
4.42814e-08
4.05274e-08
3.68197e-08
3.31722e-08
2.95958e-08
2.60981e-08
2.26834e-08
1.93522e-08
1.61017e-08
1.29256e-08
9.81442e-09
6.75574e-09
3.73474e-09
1.64006e-11
6.15877e-14
2.4672e-13
6.58051e-11
3.81819e-08
6.90923e-08
1.00396e-07
1.32273e-07
1.64874e-07
1.98318e-07
2.32686e-07
2.68017e-07
3.04309e-07
3.41518e-07
3.79557e-07
4.18302e-07
4.57593e-07
4.97241e-07
5.37028e-07
5.76722e-07
6.16072e-07
6.54823e-07
6.92711e-07
7.29478e-07
7.64863e-07
7.98617e-07
8.30497e-07
8.60275e-07
8.87735e-07
9.12677e-07
9.34921e-07
9.54303e-07
9.70682e-07
9.83938e-07
9.93975e-07
1.00072e-06
1.00412e-06
1.00415e-06
1.00082e-06
9.94142e-07
9.8417e-07
9.70976e-07
9.54657e-07
9.35332e-07
9.13143e-07
8.88251e-07
8.60837e-07
8.311e-07
7.99256e-07
7.65533e-07
7.30172e-07
6.93426e-07
6.5555e-07
6.16808e-07
5.77458e-07
5.3776e-07
4.97962e-07
4.58298e-07
4.18984e-07
3.8021e-07
3.42138e-07
3.0489e-07
2.68555e-07
2.33176e-07
1.98756e-07
1.65255e-07
1.32593e-07
1.00651e-07
6.92759e-08
3.82885e-08
6.59982e-11
2.47459e-13
4.65119e-13
1.24066e-10
7.19243e-08
1.30087e-07
1.89027e-07
2.49147e-07
3.10788e-07
3.74215e-07
4.39612e-07
5.07073e-07
5.766e-07
6.48098e-07
7.21384e-07
7.96184e-07
8.72151e-07
9.4887e-07
1.02588e-06
1.10268e-06
1.17877e-06
1.25362e-06
1.32671e-06
1.39755e-06
1.46562e-06
1.53046e-06
1.59162e-06
1.64866e-06
1.7012e-06
1.74886e-06
1.79132e-06
1.82828e-06
1.85949e-06
1.88473e-06
1.90382e-06
1.91664e-06
1.9231e-06
1.92315e-06
1.91679e-06
1.90407e-06
1.88507e-06
1.85993e-06
1.82881e-06
1.79194e-06
1.74956e-06
1.70197e-06
1.64951e-06
1.59252e-06
1.53142e-06
1.46663e-06
1.39859e-06
1.32779e-06
1.25472e-06
1.17988e-06
1.1038e-06
1.02699e-06
9.4996e-07
8.73215e-07
7.97213e-07
7.22369e-07
6.49031e-07
5.77473e-07
5.07879e-07
4.40343e-07
3.74865e-07
3.11351e-07
2.49618e-07
1.89399e-07
1.30354e-07
7.20788e-08
1.24346e-10
4.66191e-13
7.16637e-13
1.9117e-10
1.10704e-07
2.00051e-07
2.90555e-07
3.829e-07
4.77658e-07
5.75272e-07
6.76041e-07
7.8011e-07
8.87465e-07
9.97934e-07
1.11119e-06
1.22676e-06
1.34405e-06
1.46238e-06
1.58099e-06
1.69912e-06
1.81597e-06
1.93076e-06
2.04271e-06
2.15107e-06
2.25511e-06
2.35413e-06
2.44745e-06
2.53444e-06
2.61451e-06
2.68712e-06
2.75178e-06
2.80804e-06
2.85552e-06
2.89391e-06
2.92295e-06
2.94243e-06
2.95224e-06
2.9523e-06
2.94262e-06
2.92326e-06
2.89434e-06
2.85607e-06
2.8087e-06
2.75255e-06
2.68799e-06
2.61548e-06
2.53549e-06
2.44857e-06
2.35532e-06
2.25636e-06
2.15237e-06
2.04405e-06
1.93212e-06
1.81735e-06
1.70051e-06
1.58237e-06
1.46373e-06
1.34537e-06
1.22804e-06
1.11242e-06
9.99098e-07
8.88554e-07
7.81115e-07
6.76953e-07
5.76082e-07
4.78359e-07
3.83485e-07
2.91017e-07
2.00382e-07
1.10895e-07
1.91519e-10
7.17973e-13
9.88491e-13
2.63707e-10
1.52515e-07
2.75287e-07
3.99487e-07
5.26109e-07
6.55973e-07
7.89701e-07
9.27697e-07
1.07014e-06
1.21697e-06
1.36792e-06
1.52246e-06
1.6799e-06
1.8394e-06
1.99997e-06
2.16062e-06
2.32028e-06
2.47793e-06
2.63253e-06
2.78309e-06
2.92864e-06
3.06824e-06
3.20097e-06
3.32598e-06
3.44244e-06
3.54958e-06
3.64669e-06
3.73312e-06
3.80831e-06
3.87175e-06
3.92303e-06
3.96181e-06
3.98782e-06
4.00091e-06
4.00098e-06
3.98803e-06
3.96215e-06
3.92351e-06
3.87236e-06
3.80904e-06
3.73398e-06
3.64765e-06
3.55065e-06
3.44361e-06
3.32723e-06
3.2023e-06
3.06963e-06
2.93009e-06
2.78458e-06
2.63405e-06
2.47947e-06
2.32183e-06
2.16216e-06
2.00149e-06
1.84088e-06
1.68135e-06
1.52384e-06
1.36923e-06
1.2182e-06
1.07127e-06
9.28727e-07
7.90617e-07
6.56766e-07
5.26771e-07
4.0001e-07
2.75662e-07
1.52732e-07
2.64104e-10
9.90015e-13
1.26232e-12
3.36779e-10
1.9452e-07
3.50658e-07
5.08338e-07
6.68867e-07
8.33308e-07
1.00245e-06
1.17679e-06
1.35651e-06
1.5415e-06
1.73135e-06
1.92535e-06
2.12259e-06
2.32196e-06
2.52223e-06
2.72217e-06
2.92048e-06
3.11591e-06
3.30724e-06
3.49329e-06
3.67289e-06
3.84494e-06
4.00836e-06
4.16214e-06
4.3053e-06
4.43692e-06
4.55615e-06
4.66225e-06
4.7545e-06
4.83233e-06
4.89522e-06
4.94276e-06
4.97465e-06
4.99069e-06
4.99076e-06
4.97487e-06
4.94312e-06
4.89571e-06
4.83296e-06
4.75526e-06
4.66313e-06
4.55715e-06
4.43802e-06
4.3065e-06
4.16344e-06
4.00974e-06
3.84638e-06
3.67439e-06
3.49483e-06
3.30882e-06
3.11751e-06
2.92209e-06
2.72377e-06
2.52382e-06
2.32351e-06
2.1241e-06
1.92681e-06
1.73273e-06
1.54279e-06
1.3577e-06
1.17787e-06
1.00342e-06
8.34146e-07
6.69567e-07
5.0889e-07
3.51055e-07
1.9475e-07
3.37202e-10
1.26395e-12
1.51976e-12
4.0549e-10
2.33916e-07
4.21151e-07
6.09892e-07
8.01746e-07
9.97996e-07
1.19958e-06
1.40706e-06
1.62064e-06
1.84011e-06
2.06495e-06
2.29427e-06
2.52694e-06
2.76165e-06
2.99697e-06
3.23143e-06
3.46358e-06
3.69198e-06
3.91526e-06
4.13206e-06
4.34111e-06
4.54115e-06
4.73098e-06
4.90947e-06
5.07552e-06
5.2281e-06
5.36629e-06
5.48923e-06
5.59615e-06
5.68635e-06
5.75925e-06
5.81437e-06
5.85134e-06
5.86993e-06
5.87e-06
5.85155e-06
5.81472e-06
5.75974e-06
5.68697e-06
5.5969e-06
5.4901e-06
5.36727e-06
5.22919e-06
5.07671e-06
4.91075e-06
4.73235e-06
4.54258e-06
4.3426e-06
4.1336e-06
3.91683e-06
3.69358e-06
3.46518e-06
3.23303e-06
2.99855e-06
2.76321e-06
2.52846e-06
2.29573e-06
2.06633e-06
1.84141e-06
1.62184e-06
1.40816e-06
1.20055e-06
9.9884e-07
8.02451e-07
6.10449e-07
4.21551e-07
2.34149e-07
4.05921e-10
1.52142e-12
1.74644e-12
4.66002e-10
2.68531e-07
4.82934e-07
6.98706e-07
9.17717e-07
1.14145e-06
1.37096e-06
1.60687e-06
1.84937e-06
2.0982e-06
2.35271e-06
2.61186e-06
2.87435e-06
3.13869e-06
3.40329e-06
3.66654e-06
3.92681e-06
4.18256e-06
4.43226e-06
4.67446e-06
4.90777e-06
5.13083e-06
5.34236e-06
5.54117e-06
5.72613e-06
5.89614e-06
6.05016e-06
6.18719e-06
6.30636e-06
6.4069e-06
6.48813e-06
6.54954e-06
6.59073e-06
6.61143e-06
6.61149e-06
6.59093e-06
6.54988e-06
6.4886e-06
6.40749e-06
6.30708e-06
6.18803e-06
6.0511e-06
5.89719e-06
5.72728e-06
5.5424e-06
5.34367e-06
5.13221e-06
4.9092e-06
4.67594e-06
4.43377e-06
4.1841e-06
3.92836e-06
3.66809e-06
3.40483e-06
3.1402e-06
2.87582e-06
2.61327e-06
2.35405e-06
2.09947e-06
1.85054e-06
1.60794e-06
1.37191e-06
1.14227e-06
9.18405e-07
6.99249e-07
4.83324e-07
2.68757e-07
4.66425e-10
1.74808e-12
1.93402e-12
5.16086e-10
2.97125e-07
5.33868e-07
7.71794e-07
1.013e-06
1.25912e-06
1.51133e-06
1.77028e-06
2.03617e-06
2.30866e-06
2.58702e-06
2.87008e-06
3.15642e-06
3.4444e-06
3.73231e-06
4.01842e-06
4.301e-06
4.57839e-06
4.84899e-06
5.11125e-06
5.36369e-06
5.60494e-06
5.83373e-06
6.0488e-06
6.24891e-06
6.43284e-06
6.59943e-06
6.74764e-06
6.8765e-06
6.98518e-06
7.07298e-06
7.13934e-06
7.18384e-06
7.2062e-06
7.20626e-06
7.18403e-06
7.13966e-06
7.07342e-06
6.98574e-06
6.87717e-06
6.74843e-06
6.60033e-06
6.43383e-06
6.24999e-06
6.04997e-06
5.83497e-06
5.60624e-06
5.36505e-06
5.11265e-06
4.85043e-06
4.57986e-06
4.30248e-06
4.0199e-06
3.73378e-06
3.44584e-06
3.15783e-06
2.87144e-06
2.58831e-06
2.30988e-06
2.03729e-06
1.77131e-06
1.51224e-06
1.25991e-06
1.01366e-06
7.72315e-07
5.34242e-07
2.97342e-07
5.16494e-10
1.9356e-12
2.08035e-12
5.5517e-10
3.19406e-07
5.73495e-07
8.28581e-07
1.08694e-06
1.35034e-06
1.62003e-06
1.89671e-06
2.18054e-06
2.47116e-06
2.76776e-06
3.06908e-06
3.37359e-06
3.67957e-06
3.9852e-06
4.28867e-06
4.58817e-06
4.88197e-06
5.16839e-06
5.44583e-06
5.71281e-06
5.96798e-06
6.20998e-06
6.43746e-06
6.6491e-06
6.84359e-06
7.01973e-06
7.17638e-06
7.31256e-06
7.4274e-06
7.52016e-06
7.59026e-06
7.63725e-06
7.66086e-06
7.66092e-06
7.63744e-06
7.59056e-06
7.52057e-06
7.42793e-06
7.31321e-06
7.17713e-06
7.02058e-06
6.84453e-06
6.65013e-06
6.43857e-06
6.21116e-06
5.96922e-06
5.71411e-06
5.44717e-06
5.16977e-06
4.88337e-06
4.58958e-06
4.29008e-06
3.9866e-06
3.68095e-06
3.37493e-06
3.07038e-06
2.769e-06
2.47233e-06
2.18161e-06
1.89769e-06
1.62091e-06
1.3511e-06
1.08757e-06
8.29078e-07
5.73851e-07
3.19614e-07
5.55561e-10
2.08187e-12
2.18832e-12
5.84014e-10
3.35834e-07
6.02677e-07
8.70364e-07
1.14131e-06
1.41737e-06
1.69985e-06
1.98948e-06
2.28642e-06
2.59029e-06
2.90019e-06
3.21481e-06
3.53255e-06
3.85162e-06
4.17014e-06
4.48623e-06
4.79803e-06
5.10375e-06
5.40167e-06
5.69016e-06
5.96778e-06
6.23312e-06
6.48476e-06
6.72129e-06
6.94131e-06
7.14349e-06
7.32656e-06
7.48935e-06
7.63084e-06
7.75014e-06
7.84649e-06
7.9193e-06
7.9681e-06
7.99261e-06
7.99267e-06
7.96828e-06
7.91958e-06
7.84689e-06
7.75065e-06
7.63146e-06
7.49007e-06
7.32737e-06
7.14439e-06
6.9423e-06
6.72235e-06
6.48589e-06
6.23431e-06
5.96902e-06
5.69145e-06
5.40299e-06
5.10509e-06
4.79938e-06
4.48759e-06
4.17149e-06
3.85295e-06
3.53385e-06
3.21606e-06
2.90138e-06
2.59141e-06
2.28746e-06
1.99043e-06
1.70069e-06
1.41809e-06
1.14191e-06
8.70841e-07
6.03019e-07
3.36032e-07
5.84391e-10
2.18979e-12
2.26387e-12
6.04205e-10
3.47325e-07
6.23077e-07
8.99557e-07
1.17927e-06
1.46416e-06
1.75556e-06
2.05423e-06
2.36031e-06
2.67339e-06
2.99256e-06
3.31645e-06
3.64341e-06
3.9716e-06
4.29909e-06
4.62397e-06
4.94433e-06
5.25835e-06
5.56427e-06
5.8605e-06
6.14557e-06
6.41802e-06
6.67639e-06
6.91924e-06
7.14512e-06
7.35266e-06
7.54055e-06
7.70763e-06
7.85282e-06
7.97523e-06
8.07408e-06
8.14877e-06
8.19884e-06
8.22398e-06
8.22404e-06
8.19901e-06
8.14905e-06
8.07447e-06
7.97572e-06
7.85341e-06
7.70832e-06
7.54134e-06
7.35353e-06
7.14608e-06
6.92027e-06
6.67749e-06
6.41917e-06
6.14677e-06
5.86175e-06
5.56555e-06
5.25965e-06
4.94564e-06
4.62528e-06
4.3004e-06
3.97288e-06
3.64466e-06
3.31766e-06
2.99372e-06
2.67448e-06
2.36132e-06
2.05514e-06
1.75638e-06
1.46487e-06
1.17986e-06
9.00018e-07
6.23407e-07
3.47518e-07
6.04571e-10
2.26529e-12
2.31414e-12
6.17646e-10
3.54973e-07
6.36648e-07
9.18973e-07
1.20452e-06
1.49528e-06
1.79262e-06
2.09729e-06
2.40946e-06
2.72869e-06
3.05403e-06
3.38409e-06
3.7172e-06
4.05146e-06
4.38495e-06
4.71569e-06
5.04177e-06
5.36134e-06
5.67262e-06
5.97403e-06
6.26409e-06
6.5413e-06
6.80419e-06
7.05127e-06
7.28107e-06
7.4922e-06
7.68333e-06
7.85326e-06
8.00094e-06
8.12542e-06
8.22595e-06
8.30191e-06
8.35282e-06
8.37838e-06
8.37844e-06
8.35299e-06
8.30218e-06
8.22633e-06
8.12591e-06
8.00152e-06
7.85394e-06
7.6841e-06
7.49305e-06
7.28201e-06
7.05227e-06
6.80526e-06
6.54243e-06
6.26526e-06
5.97525e-06
5.67387e-06
5.36261e-06
5.04306e-06
4.71698e-06
4.38623e-06
4.05273e-06
3.71843e-06
3.38528e-06
3.05516e-06
2.72975e-06
2.41044e-06
2.09819e-06
1.79342e-06
1.49597e-06
1.2051e-06
9.19424e-07
6.36971e-07
3.55161e-07
6.18005e-10
2.31554e-12
2.34604e-12
6.26179e-10
3.59828e-07
6.45261e-07
9.31296e-07
1.22055e-06
1.51504e-06
1.81615e-06
2.12465e-06
2.44069e-06
2.76384e-06
3.09312e-06
3.42713e-06
3.76416e-06
4.10232e-06
4.43963e-06
4.77412e-06
5.10387e-06
5.427e-06
5.74171e-06
6.04646e-06
6.33972e-06
6.62e-06
6.88579e-06
7.13559e-06
7.36792e-06
7.58135e-06
7.77456e-06
7.94634e-06
8.09561e-06
8.22143e-06
8.32304e-06
8.39981e-06
8.45127e-06
8.4771e-06
8.47715e-06
8.45143e-06
8.40008e-06
8.32342e-06
8.22191e-06
8.09618e-06
7.94701e-06
7.77533e-06
7.5822e-06
7.36884e-06
7.13659e-06
6.88685e-06
6.62111e-06
6.34089e-06
6.04767e-06
5.74295e-06
5.42826e-06
5.10514e-06
4.7754e-06
4.4409e-06
4.10357e-06
3.76538e-06
3.42831e-06
3.09424e-06
2.76489e-06
2.44167e-06
2.12554e-06
1.81694e-06
1.51572e-06
1.22112e-06
9.31742e-07
6.4558e-07
3.60013e-07
6.26533e-10
2.34743e-12
2.3654e-12
6.31357e-10
3.62774e-07
6.50489e-07
9.38776e-07
1.23028e-06
1.52704e-06
1.83045e-06
2.14128e-06
2.45969e-06
2.78523e-06
3.11693e-06
3.45335e-06
3.79279e-06
4.13333e-06
4.473e-06
4.8098e-06
5.1418e-06
5.46711e-06
5.78395e-06
6.09076e-06
6.386e-06
6.66816e-06
6.93575e-06
7.18723e-06
7.42112e-06
7.63598e-06
7.83048e-06
8.00339e-06
8.15365e-06
8.2803e-06
8.38258e-06
8.45985e-06
8.51164e-06
8.53764e-06
8.5377e-06
8.5118e-06
8.46012e-06
8.38295e-06
8.28078e-06
8.15422e-06
8.00406e-06
7.83124e-06
7.63682e-06
7.42204e-06
7.18822e-06
6.9368e-06
6.66928e-06
6.38716e-06
6.09196e-06
5.78518e-06
5.46836e-06
5.14306e-06
4.81107e-06
4.47426e-06
4.13458e-06
3.794e-06
3.45452e-06
3.11804e-06
2.78628e-06
2.46066e-06
2.14217e-06
1.83123e-06
1.52772e-06
1.23085e-06
9.39219e-07
6.50806e-07
3.62958e-07
6.31709e-10
2.36677e-12
2.37664e-12
6.34367e-10
3.64487e-07
6.53529e-07
9.43127e-07
1.23594e-06
1.53402e-06
1.83878e-06
2.15098e-06
2.47078e-06
2.79772e-06
3.13083e-06
3.46868e-06
3.80954e-06
4.15149e-06
4.49254e-06
4.83071e-06
5.16403e-06
5.49064e-06
5.80874e-06
6.11676e-06
6.41318e-06
6.69647e-06
6.96512e-06
7.2176e-06
7.45241e-06
7.66812e-06
7.86339e-06
8.03698e-06
8.18782e-06
8.31497e-06
8.41764e-06
8.49521e-06
8.5472e-06
8.5733e-06
8.57336e-06
8.54736e-06
8.49548e-06
8.41801e-06
8.31544e-06
8.18839e-06
8.03765e-06
7.86414e-06
7.66896e-06
7.45333e-06
7.21859e-06
6.96617e-06
6.69758e-06
6.41433e-06
6.11796e-06
5.80997e-06
5.49189e-06
5.1653e-06
4.83197e-06
4.4938e-06
4.15273e-06
3.81075e-06
3.46985e-06
3.13195e-06
2.79877e-06
2.47175e-06
2.15186e-06
1.83956e-06
1.5347e-06
1.23651e-06
9.4357e-07
6.53845e-07
3.64671e-07
6.34718e-10
2.37801e-12
2.38291e-12
6.36047e-10
3.65443e-07
6.55226e-07
9.45558e-07
1.23911e-06
1.53793e-06
1.84344e-06
2.15641e-06
2.47699e-06
2.80473e-06
3.13864e-06
3.47729e-06
3.81895e-06
4.1617e-06
4.50354e-06
4.84248e-06
5.17656e-06
5.50391e-06
5.82272e-06
6.13144e-06
6.42853e-06
6.71246e-06
6.98172e-06
7.23477e-06
7.47011e-06
7.68631e-06
7.88201e-06
8.05599e-06
8.20717e-06
8.3346e-06
8.4375e-06
8.51524e-06
8.56735e-06
8.59351e-06
8.59356e-06
8.56751e-06
8.51551e-06
8.43787e-06
8.33507e-06
8.20774e-06
8.05666e-06
7.88277e-06
7.68715e-06
7.47103e-06
7.23576e-06
6.98277e-06
6.71357e-06
6.42968e-06
6.13264e-06
5.82395e-06
5.50516e-06
5.17783e-06
4.84375e-06
4.5048e-06
4.16294e-06
3.82016e-06
3.47846e-06
3.13975e-06
2.80577e-06
2.47796e-06
2.15729e-06
1.84423e-06
1.53861e-06
1.23967e-06
9.46e-07
6.55543e-07
3.65627e-07
6.36398e-10
2.38429e-12
2.38628e-12
6.36948e-10
3.65957e-07
6.56138e-07
9.46864e-07
1.24081e-06
1.54003e-06
1.84595e-06
2.15933e-06
2.48034e-06
2.80851e-06
3.14285e-06
3.48195e-06
3.82404e-06
4.16723e-06
4.5095e-06
4.84886e-06
5.18336e-06
5.51111e-06
5.83032e-06
6.13942e-06
6.43687e-06
6.72116e-06
6.99075e-06
7.24412e-06
7.47975e-06
7.69622e-06
7.89216e-06
8.06636e-06
8.21772e-06
8.3453e-06
8.44833e-06
8.52616e-06
8.57834e-06
8.60453e-06
8.60458e-06
8.5785e-06
8.52643e-06
8.4487e-06
8.34578e-06
8.21829e-06
8.06702e-06
7.89292e-06
7.69706e-06
7.48067e-06
7.24511e-06
6.9918e-06
6.72227e-06
6.43803e-06
6.14062e-06
5.83155e-06
5.51236e-06
5.18463e-06
4.85013e-06
4.51076e-06
4.16847e-06
3.82525e-06
3.48311e-06
3.14397e-06
2.80955e-06
2.48131e-06
2.16022e-06
1.84674e-06
1.54071e-06
1.24137e-06
9.47306e-07
6.56454e-07
3.66141e-07
6.373e-10
2.38765e-12
2.38802e-12
6.37414e-10
3.66222e-07
6.56609e-07
9.47539e-07
1.24169e-06
1.54112e-06
1.84725e-06
2.16085e-06
2.48208e-06
2.81047e-06
3.14505e-06
3.48437e-06
3.8267e-06
4.17011e-06
4.51261e-06
4.8522e-06
5.18692e-06
5.51487e-06
5.8343e-06
6.1436e-06
6.44125e-06
6.72572e-06
6.99549e-06
7.24902e-06
7.48481e-06
7.70142e-06
7.89749e-06
8.0718e-06
8.22326e-06
8.35093e-06
8.45403e-06
8.53191e-06
8.58411e-06
8.61032e-06
8.61038e-06
8.58428e-06
8.53218e-06
8.4544e-06
8.35141e-06
8.22384e-06
8.07247e-06
7.89825e-06
7.70226e-06
7.48573e-06
7.25001e-06
6.99654e-06
6.72683e-06
6.44241e-06
6.1448e-06
5.83553e-06
5.51613e-06
5.18818e-06
4.85347e-06
4.51387e-06
4.17135e-06
3.82791e-06
3.48554e-06
3.14616e-06
2.81152e-06
2.48305e-06
2.16174e-06
1.84804e-06
1.5418e-06
1.24226e-06
9.47983e-07
6.56926e-07
3.66406e-07
6.37766e-10
2.38939e-12
2.38888e-12
6.37647e-10
3.66355e-07
6.56845e-07
9.47877e-07
1.24213e-06
1.54167e-06
1.8479e-06
2.16161e-06
2.48295e-06
2.81146e-06
3.14615e-06
3.48559e-06
3.82803e-06
4.17156e-06
4.51418e-06
4.85388e-06
5.18871e-06
5.51678e-06
5.83631e-06
6.14571e-06
6.44346e-06
6.72803e-06
6.99789e-06
7.25151e-06
7.48738e-06
7.70406e-06
7.9002e-06
8.07457e-06
8.22608e-06
8.35379e-06
8.45692e-06
8.53483e-06
8.58705e-06
8.61327e-06
8.61332e-06
8.58721e-06
8.5351e-06
8.45729e-06
8.35426e-06
8.22665e-06
8.07523e-06
7.90095e-06
7.7049e-06
7.4883e-06
7.2525e-06
6.99894e-06
6.72914e-06
6.44462e-06
6.14691e-06
5.83754e-06
5.51803e-06
5.18998e-06
4.85515e-06
4.51544e-06
4.17281e-06
3.82925e-06
3.48676e-06
3.14727e-06
2.81251e-06
2.48392e-06
2.1625e-06
1.84869e-06
1.54235e-06
1.2427e-06
9.4832e-07
6.57162e-07
3.66539e-07
6.37998e-10
2.39026e-12
2.3893e-12
6.37759e-10
3.66418e-07
6.56958e-07
9.4804e-07
1.24234e-06
1.54193e-06
1.84822e-06
2.16198e-06
2.48337e-06
2.81194e-06
3.14668e-06
3.48618e-06
3.82868e-06
4.17227e-06
4.51494e-06
4.8547e-06
5.18959e-06
5.51771e-06
5.83729e-06
6.14674e-06
6.44454e-06
6.72916e-06
6.99906e-06
7.25273e-06
7.48864e-06
7.70535e-06
7.90152e-06
8.07592e-06
8.22746e-06
8.35519e-06
8.45833e-06
8.53626e-06
8.58849e-06
8.61471e-06
8.61476e-06
8.58865e-06
8.53653e-06
8.45871e-06
8.35566e-06
8.22803e-06
8.07659e-06
7.90228e-06
7.70619e-06
7.48956e-06
7.25372e-06
7.00012e-06
6.73027e-06
6.4457e-06
6.14794e-06
5.83852e-06
5.51896e-06
5.19085e-06
4.85597e-06
4.51621e-06
4.17351e-06
3.8299e-06
3.48735e-06
3.1478e-06
2.81299e-06
2.48434e-06
2.16287e-06
1.849e-06
1.54261e-06
1.24291e-06
9.48483e-07
6.57275e-07
3.66603e-07
6.38111e-10
2.39068e-12
2.38949e-12
6.37811e-10
3.66448e-07
6.57011e-07
9.48116e-07
1.24244e-06
1.54205e-06
1.84836e-06
2.16215e-06
2.48357e-06
2.81216e-06
3.14693e-06
3.48646e-06
3.82899e-06
4.1726e-06
4.5153e-06
4.85509e-06
5.19e-06
5.51814e-06
5.83775e-06
6.14723e-06
6.44505e-06
6.72969e-06
6.99962e-06
7.2533e-06
7.48923e-06
7.70596e-06
7.90215e-06
8.07656e-06
8.22811e-06
8.35585e-06
8.45901e-06
8.53694e-06
8.58917e-06
8.6154e-06
8.61545e-06
8.58933e-06
8.53721e-06
8.45938e-06
8.35633e-06
8.22868e-06
8.07723e-06
7.90291e-06
7.70681e-06
7.49015e-06
7.25429e-06
7.00068e-06
6.73081e-06
6.44621e-06
6.14843e-06
5.83898e-06
5.5194e-06
5.19127e-06
4.85636e-06
4.51657e-06
4.17385e-06
3.8302e-06
3.48763e-06
3.14805e-06
2.81321e-06
2.48454e-06
2.16304e-06
1.84915e-06
1.54273e-06
1.24301e-06
9.48559e-07
6.57328e-07
3.66633e-07
6.38163e-10
2.39087e-12
2.38958e-12
6.37834e-10
3.66462e-07
6.57035e-07
9.4815e-07
1.24249e-06
1.54211e-06
1.84843e-06
2.16223e-06
2.48366e-06
2.81226e-06
3.14705e-06
3.48658e-06
3.82913e-06
4.17275e-06
4.51547e-06
4.85526e-06
5.19019e-06
5.51834e-06
5.83796e-06
6.14745e-06
6.44529e-06
6.72994e-06
6.99987e-06
7.25357e-06
7.4895e-06
7.70625e-06
7.90244e-06
8.07686e-06
8.22841e-06
8.35616e-06
8.45932e-06
8.53725e-06
8.58949e-06
8.61571e-06
8.61576e-06
8.58965e-06
8.53752e-06
8.45969e-06
8.35664e-06
8.22899e-06
8.07753e-06
7.9032e-06
7.70709e-06
7.49043e-06
7.25456e-06
7.00093e-06
6.73105e-06
6.44645e-06
6.14866e-06
5.83919e-06
5.5196e-06
5.19145e-06
4.85653e-06
4.51673e-06
4.174e-06
3.83034e-06
3.48776e-06
3.14817e-06
2.81331e-06
2.48463e-06
2.16312e-06
1.84922e-06
1.54279e-06
1.24305e-06
9.48594e-07
6.57352e-07
3.66646e-07
6.38186e-10
2.39096e-12
2.38962e-12
6.37844e-10
3.66468e-07
6.57045e-07
9.48165e-07
1.24251e-06
1.54213e-06
1.84846e-06
2.16227e-06
2.4837e-06
2.81231e-06
3.1471e-06
3.48664e-06
3.82919e-06
4.17282e-06
4.51554e-06
4.85534e-06
5.19027e-06
5.51843e-06
5.83806e-06
6.14755e-06
6.44539e-06
6.73005e-06
6.99999e-06
7.25368e-06
7.48963e-06
7.70637e-06
7.90257e-06
8.07699e-06
8.22855e-06
8.3563e-06
8.45945e-06
8.53739e-06
8.58963e-06
8.61585e-06
8.61591e-06
8.58979e-06
8.53766e-06
8.45983e-06
8.35677e-06
8.22912e-06
8.07766e-06
7.90333e-06
7.70721e-06
7.49055e-06
7.25468e-06
7.00104e-06
6.73116e-06
6.44655e-06
6.14875e-06
5.83929e-06
5.51969e-06
5.19154e-06
4.85661e-06
4.5168e-06
4.17407e-06
3.8304e-06
3.48781e-06
3.14822e-06
2.81336e-06
2.48467e-06
2.16315e-06
1.84925e-06
1.54281e-06
1.24307e-06
9.48609e-07
6.57363e-07
3.66652e-07
6.38197e-10
2.391e-12
2.38964e-12
6.37849e-10
3.6647e-07
6.5705e-07
9.48171e-07
1.24252e-06
1.54214e-06
1.84847e-06
2.16228e-06
2.48371e-06
2.81233e-06
3.14712e-06
3.48666e-06
3.82921e-06
4.17285e-06
4.51557e-06
4.85537e-06
5.19031e-06
5.51847e-06
5.8381e-06
6.1476e-06
6.44544e-06
6.73009e-06
7.00004e-06
7.25373e-06
7.48968e-06
7.70642e-06
7.90262e-06
8.07705e-06
8.2286e-06
8.35636e-06
8.45951e-06
8.53745e-06
8.58969e-06
8.61591e-06
8.61597e-06
8.58985e-06
8.53772e-06
8.45989e-06
8.35683e-06
8.22918e-06
8.07771e-06
7.90338e-06
7.70727e-06
7.4906e-06
7.25473e-06
7.00109e-06
6.73121e-06
6.4466e-06
6.1488e-06
5.83933e-06
5.51973e-06
5.19157e-06
4.85665e-06
4.51683e-06
4.17409e-06
3.83043e-06
3.48784e-06
3.14824e-06
2.81338e-06
2.48469e-06
2.16317e-06
1.84926e-06
1.54282e-06
1.24308e-06
9.48615e-07
6.57367e-07
3.66654e-07
6.38201e-10
2.39101e-12
2.38964e-12
6.37851e-10
3.66471e-07
6.57051e-07
9.48174e-07
1.24252e-06
1.54215e-06
1.84848e-06
2.16229e-06
2.48372e-06
2.81233e-06
3.14713e-06
3.48667e-06
3.82923e-06
4.17286e-06
4.51558e-06
4.85539e-06
5.19032e-06
5.51849e-06
5.83811e-06
6.14761e-06
6.44545e-06
6.73011e-06
7.00006e-06
7.25376e-06
7.4897e-06
7.70645e-06
7.90265e-06
8.07707e-06
8.22863e-06
8.35638e-06
8.45954e-06
8.53747e-06
8.58971e-06
8.61594e-06
8.61599e-06
8.58987e-06
8.53774e-06
8.45991e-06
8.35685e-06
8.2292e-06
8.07774e-06
7.9034e-06
7.70729e-06
7.49062e-06
7.25475e-06
7.00111e-06
6.73123e-06
6.44662e-06
6.14882e-06
5.83935e-06
5.51974e-06
5.19159e-06
4.85666e-06
4.51685e-06
4.17411e-06
3.83044e-06
3.48785e-06
3.14825e-06
2.81338e-06
2.4847e-06
2.16317e-06
1.84927e-06
1.54283e-06
1.24308e-06
9.48618e-07
6.57369e-07
3.66655e-07
6.38203e-10
2.39102e-12
2.38965e-12
6.37851e-10
3.66471e-07
6.57052e-07
9.48175e-07
1.24252e-06
1.54215e-06
1.84848e-06
2.16229e-06
2.48372e-06
2.81234e-06
3.14713e-06
3.48668e-06
3.82923e-06
4.17287e-06
4.51559e-06
4.85539e-06
5.19033e-06
5.51849e-06
5.83812e-06
6.14762e-06
6.44546e-06
6.73012e-06
7.00006e-06
7.25376e-06
7.48971e-06
7.70646e-06
7.90266e-06
8.07708e-06
8.22864e-06
8.35639e-06
8.45955e-06
8.53748e-06
8.58972e-06
8.61595e-06
8.616e-06
8.58988e-06
8.53775e-06
8.45992e-06
8.35686e-06
8.22921e-06
8.07775e-06
7.90341e-06
7.7073e-06
7.49063e-06
7.25476e-06
7.00112e-06
6.73123e-06
6.44662e-06
6.14882e-06
5.83935e-06
5.51975e-06
5.1916e-06
4.85667e-06
4.51685e-06
4.17411e-06
3.83044e-06
3.48785e-06
3.14825e-06
2.81339e-06
2.4847e-06
2.16317e-06
1.84927e-06
1.54283e-06
1.24309e-06
9.48619e-07
6.5737e-07
3.66656e-07
6.38203e-10
2.39102e-12
2.38965e-12
6.37852e-10
3.66472e-07
6.57052e-07
9.48175e-07
1.24252e-06
1.54215e-06
1.84848e-06
2.16229e-06
2.48373e-06
2.81234e-06
3.14713e-06
3.48668e-06
3.82923e-06
4.17287e-06
4.51559e-06
4.8554e-06
5.19033e-06
5.5185e-06
5.83812e-06
6.14762e-06
6.44546e-06
6.73012e-06
7.00007e-06
7.25377e-06
7.48971e-06
7.70646e-06
7.90266e-06
8.07708e-06
8.22864e-06
8.35639e-06
8.45955e-06
8.53749e-06
8.58973e-06
8.61595e-06
8.61601e-06
8.58989e-06
8.53776e-06
8.45993e-06
8.35687e-06
8.22922e-06
8.07775e-06
7.90342e-06
7.7073e-06
7.49063e-06
7.25476e-06
7.00113e-06
6.73124e-06
6.44663e-06
6.14883e-06
5.83936e-06
5.51975e-06
5.1916e-06
4.85667e-06
4.51685e-06
4.17411e-06
3.83045e-06
3.48785e-06
3.14825e-06
2.81339e-06
2.4847e-06
2.16318e-06
1.84927e-06
1.54283e-06
1.24309e-06
9.48619e-07
6.5737e-07
3.66656e-07
6.38204e-10
2.39102e-12
2.38965e-12
6.37852e-10
3.66472e-07
6.57053e-07
9.48175e-07
1.24252e-06
1.54215e-06
1.84848e-06
2.16229e-06
2.48373e-06
2.81234e-06
3.14713e-06
3.48668e-06
3.82923e-06
4.17287e-06
4.51559e-06
4.8554e-06
5.19033e-06
5.5185e-06
5.83812e-06
6.14762e-06
6.44547e-06
6.73012e-06
7.00007e-06
7.25377e-06
7.48971e-06
7.70646e-06
7.90266e-06
8.07708e-06
8.22864e-06
8.3564e-06
8.45955e-06
8.53749e-06
8.58973e-06
8.61595e-06
8.61601e-06
8.58989e-06
8.53776e-06
8.45993e-06
8.35687e-06
8.22922e-06
8.07775e-06
7.90342e-06
7.7073e-06
7.49064e-06
7.25476e-06
7.00113e-06
6.73124e-06
6.44663e-06
6.14883e-06
5.83936e-06
5.51975e-06
5.1916e-06
4.85667e-06
4.51685e-06
4.17411e-06
3.83045e-06
3.48785e-06
3.14825e-06
2.81339e-06
2.4847e-06
2.16318e-06
1.84927e-06
1.54283e-06
1.24309e-06
9.48619e-07
6.5737e-07
3.66656e-07
6.38204e-10
2.39102e-12
2.38965e-12
6.37852e-10
3.66472e-07
6.57053e-07
9.48176e-07
1.24252e-06
1.54215e-06
1.84848e-06
2.16229e-06
2.48373e-06
2.81234e-06
3.14713e-06
3.48668e-06
3.82923e-06
4.17287e-06
4.51559e-06
4.8554e-06
5.19033e-06
5.5185e-06
5.83812e-06
6.14763e-06
6.44547e-06
6.73012e-06
7.00007e-06
7.25377e-06
7.48971e-06
7.70646e-06
7.90266e-06
8.07709e-06
8.22864e-06
8.3564e-06
8.45956e-06
8.53749e-06
8.58973e-06
8.61595e-06
8.61601e-06
8.58989e-06
8.53776e-06
8.45993e-06
8.35687e-06
8.22922e-06
8.07775e-06
7.90342e-06
7.70731e-06
7.49064e-06
7.25476e-06
7.00113e-06
6.73124e-06
6.44663e-06
6.14883e-06
5.83936e-06
5.51975e-06
5.1916e-06
4.85667e-06
4.51686e-06
4.17411e-06
3.83045e-06
3.48785e-06
3.14825e-06
2.81339e-06
2.4847e-06
2.16318e-06
1.84927e-06
1.54283e-06
1.24309e-06
9.48619e-07
6.5737e-07
3.66656e-07
6.38204e-10
2.39102e-12
2.38965e-12
6.37852e-10
3.66472e-07
6.57053e-07
9.48176e-07
1.24252e-06
1.54215e-06
1.84848e-06
2.16229e-06
2.48373e-06
2.81234e-06
3.14713e-06
3.48668e-06
3.82923e-06
4.17287e-06
4.51559e-06
4.8554e-06
5.19033e-06
5.5185e-06
5.83812e-06
6.14763e-06
6.44547e-06
6.73012e-06
7.00007e-06
7.25377e-06
7.48971e-06
7.70646e-06
7.90266e-06
8.07709e-06
8.22864e-06
8.3564e-06
8.45956e-06
8.53749e-06
8.58973e-06
8.61595e-06
8.61601e-06
8.58989e-06
8.53776e-06
8.45993e-06
8.35687e-06
8.22922e-06
8.07775e-06
7.90342e-06
7.70731e-06
7.49064e-06
7.25476e-06
7.00113e-06
6.73124e-06
6.44663e-06
6.14883e-06
5.83936e-06
5.51975e-06
5.1916e-06
4.85667e-06
4.51686e-06
4.17411e-06
3.83045e-06
3.48785e-06
3.14825e-06
2.81339e-06
2.4847e-06
2.16318e-06
1.84927e-06
1.54283e-06
1.24309e-06
9.48619e-07
6.5737e-07
3.66656e-07
6.38204e-10
2.39102e-12
2.38965e-12
6.37852e-10
3.66472e-07
6.57053e-07
9.48176e-07
1.24252e-06
1.54215e-06
1.84848e-06
2.16229e-06
2.48373e-06
2.81234e-06
3.14713e-06
3.48668e-06
3.82923e-06
4.17287e-06
4.51559e-06
4.8554e-06
5.19033e-06
5.5185e-06
5.83812e-06
6.14763e-06
6.44547e-06
6.73013e-06
7.00007e-06
7.25377e-06
7.48972e-06
7.70646e-06
7.90266e-06
8.07709e-06
8.22864e-06
8.3564e-06
8.45956e-06
8.53749e-06
8.58973e-06
8.61595e-06
8.61601e-06
8.58989e-06
8.53776e-06
8.45993e-06
8.35687e-06
8.22922e-06
8.07775e-06
7.90342e-06
7.70731e-06
7.49064e-06
7.25476e-06
7.00113e-06
6.73124e-06
6.44663e-06
6.14883e-06
5.83936e-06
5.51975e-06
5.1916e-06
4.85667e-06
4.51686e-06
4.17411e-06
3.83045e-06
3.48785e-06
3.14825e-06
2.81339e-06
2.4847e-06
2.16318e-06
1.84927e-06
1.54283e-06
1.24309e-06
9.48619e-07
6.5737e-07
3.66656e-07
6.38204e-10
2.39102e-12
2.38965e-12
6.37852e-10
3.66472e-07
6.57053e-07
9.48176e-07
1.24252e-06
1.54215e-06
1.84848e-06
2.16229e-06
2.48373e-06
2.81234e-06
3.14713e-06
3.48668e-06
3.82923e-06
4.17287e-06
4.51559e-06
4.8554e-06
5.19033e-06
5.5185e-06
5.83812e-06
6.14763e-06
6.44547e-06
6.73013e-06
7.00007e-06
7.25377e-06
7.48972e-06
7.70646e-06
7.90266e-06
8.07709e-06
8.22864e-06
8.3564e-06
8.45956e-06
8.53749e-06
8.58973e-06
8.61595e-06
8.61601e-06
8.58989e-06
8.53776e-06
8.45993e-06
8.35687e-06
8.22922e-06
8.07775e-06
7.90342e-06
7.70731e-06
7.49064e-06
7.25476e-06
7.00113e-06
6.73124e-06
6.44663e-06
6.14883e-06
5.83936e-06
5.51975e-06
5.1916e-06
4.85667e-06
4.51686e-06
4.17411e-06
3.83045e-06
3.48785e-06
3.14825e-06
2.81339e-06
2.4847e-06
2.16318e-06
1.84927e-06
1.54283e-06
1.24309e-06
9.48619e-07
6.5737e-07
3.66656e-07
6.38204e-10
2.39102e-12
2.38965e-12
6.37852e-10
3.66472e-07
6.57053e-07
9.48176e-07
1.24252e-06
1.54215e-06
1.84848e-06
2.16229e-06
2.48373e-06
2.81234e-06
3.14713e-06
3.48668e-06
3.82923e-06
4.17287e-06
4.51559e-06
4.8554e-06
5.19033e-06
5.5185e-06
5.83812e-06
6.14763e-06
6.44547e-06
6.73013e-06
7.00007e-06
7.25377e-06
7.48972e-06
7.70646e-06
7.90266e-06
8.07709e-06
8.22864e-06
8.3564e-06
8.45956e-06
8.53749e-06
8.58973e-06
8.61595e-06
8.61601e-06
8.58989e-06
8.53776e-06
8.45993e-06
8.35687e-06
8.22922e-06
8.07775e-06
7.90342e-06
7.70731e-06
7.49064e-06
7.25476e-06
7.00113e-06
6.73124e-06
6.44663e-06
6.14883e-06
5.83936e-06
5.51975e-06
5.1916e-06
4.85667e-06
4.51686e-06
4.17411e-06
3.83045e-06
3.48785e-06
3.14825e-06
2.81339e-06
2.4847e-06
2.16318e-06
1.84927e-06
1.54283e-06
1.24309e-06
9.48619e-07
6.5737e-07
3.66656e-07
6.38204e-10
2.39102e-12
2.38965e-12
6.37852e-10
3.66472e-07
6.57053e-07
9.48176e-07
1.24252e-06
1.54215e-06
1.84848e-06
2.16229e-06
2.48373e-06
2.81234e-06
3.14713e-06
3.48668e-06
3.82923e-06