/*--------------------------------*- C++ -*----------------------------------*\
  =========                 |
  \\      /  F ield         | OpenFOAM: The Open Source CFD Toolbox
   \\    /   O peration     | Website:  https://openfoam.org
    \\  /    A nd           | Version:  13
     \\/     M anipulation  |
\*---------------------------------------------------------------------------*/
FoamFile
{
    format      ascii;
    class       volScalarField;
    location    "115";
    object      rhok;
}
// * * * * * * * * * * * * * * * * * * * * * * * * * * * * * * * * * * * * * //

dimensions      [];

internalField   nonuniform List<scalar> 
315000
(
0.444617
0.429407
0.414167
0.412708
0.411944
0.411182
0.410422
0.409664
0.408908
0.408155
0.407404
0.406656
0.40591
0.405167
0.404427
0.40369
0.402956
0.402226
0.401499
0.400775
0.400055
0.399339
0.398627
0.397919
0.397216
0.396516
0.395821
0.395131
0.394445
0.393764
0.393088
0.392416
0.39175
0.391089
0.390433
0.389782
0.389136
0.388495
0.38786
0.38723
0.386605
0.385985
0.38537
0.384761
0.384156
0.383556
0.382961
0.382371
0.381786
0.381205
0.380628
0.380056
0.379487
0.378923
0.378362
0.377805
0.377252
0.376701
0.376154
0.375609
0.375067
0.374527
0.373989
0.373454
0.372919
0.372387
0.371855
0.371324
0.370794
0.370264
0.444617
0.429405
0.414163
0.412704
0.41194
0.411178
0.410418
0.40966
0.408904
0.40815
0.4074
0.406651
0.405905
0.405162
0.404422
0.403685
0.402951
0.402221
0.401494
0.40077
0.40005
0.399334
0.398622
0.397914
0.39721
0.39651
0.395815
0.395125
0.394439
0.393758
0.393082
0.39241
0.391744
0.391083
0.390427
0.389776
0.38913
0.388489
0.387854
0.387224
0.386599
0.385979
0.385365
0.384755
0.384151
0.383551
0.382956
0.382366
0.381781
0.3812
0.380624
0.380051
0.379483
0.378919
0.378359
0.377802
0.377249
0.376698
0.376151
0.375607
0.375065
0.374525
0.373988
0.373452
0.372918
0.372385
0.371854
0.371323
0.370794
0.370264
0.444617
0.429402
0.414159
0.4127
0.411935
0.411173
0.410413
0.409655
0.408899
0.408146
0.407395
0.406646
0.4059
0.405157
0.404417
0.40368
0.402946
0.402216
0.401488
0.400765
0.400045
0.399329
0.398617
0.397908
0.397205
0.396505
0.39581
0.395119
0.394434
0.393752
0.393076
0.392405
0.391739
0.391078
0.390421
0.389771
0.389125
0.388484
0.387849
0.387219
0.386594
0.385975
0.38536
0.384751
0.384146
0.383547
0.382952
0.382362
0.381777
0.381196
0.38062
0.380048
0.37948
0.378916
0.378356
0.377799
0.377246
0.376696
0.376149
0.375604
0.375063
0.374523
0.373986
0.373451
0.372917
0.372385
0.371853
0.371323
0.370793
0.370264
0.444617
0.4294
0.414155
0.412696
0.411932
0.411169
0.410409
0.409651
0.408895
0.408142
0.407391
0.406642
0.405896
0.405153
0.404413
0.403676
0.402942
0.402211
0.401484
0.40076
0.40004
0.399324
0.398612
0.397904
0.3972
0.396501
0.395805
0.395115
0.394429
0.393748
0.393072
0.392401
0.391734
0.391073
0.390417
0.389766
0.389121
0.38848
0.387845
0.387215
0.38659
0.385971
0.385356
0.384747
0.384142
0.383543
0.382949
0.382359
0.381774
0.381193
0.380617
0.380045
0.379477
0.378913
0.378353
0.377797
0.377244
0.376694
0.376147
0.375603
0.375061
0.374522
0.373985
0.37345
0.372916
0.372384
0.371853
0.371322
0.370793
0.370264
0.444617
0.429399
0.414153
0.412694
0.411929
0.411167
0.410406
0.409648
0.408892
0.408139
0.407388
0.406639
0.405893
0.40515
0.40441
0.403673
0.402939
0.402208
0.401481
0.400757
0.400037
0.399321
0.398609
0.397901
0.397197
0.396497
0.395802
0.395112
0.394426
0.393745
0.393069
0.392397
0.391731
0.39107
0.390414
0.389763
0.389117
0.388477
0.387842
0.387212
0.386587
0.385968
0.385353
0.384744
0.38414
0.38354
0.382946
0.382356
0.381771
0.381191
0.380615
0.380043
0.379475
0.378911
0.378351
0.377795
0.377242
0.376692
0.376145
0.375601
0.37506
0.374521
0.373984
0.373449
0.372915
0.372383
0.371852
0.371322
0.370793
0.370264
0.444617
0.429399
0.414152
0.412692
0.411928
0.411166
0.410405
0.409647
0.408891
0.408137
0.407386
0.406638
0.405892
0.405149
0.404408
0.403671
0.402937
0.402206
0.401479
0.400755
0.400035
0.399319
0.398607
0.397899
0.397195
0.396495
0.3958
0.395109
0.394424
0.393743
0.393066
0.392395
0.391729
0.391068
0.390412
0.389761
0.389115
0.388475
0.38784
0.38721
0.386585
0.385965
0.385351
0.384742
0.384137
0.383538
0.382944
0.382354
0.381769
0.381189
0.380613
0.380041
0.379473
0.37891
0.37835
0.377793
0.377241
0.376691
0.376144
0.3756
0.375059
0.37452
0.373983
0.373448
0.372915
0.372383
0.371852
0.371322
0.370793
0.370264
0.444617
0.429399
0.414152
0.412692
0.411928
0.411165
0.410405
0.409647
0.408891
0.408137
0.407386
0.406637
0.405891
0.405148
0.404408
0.403671
0.402937
0.402206
0.401478
0.400755
0.400034
0.399318
0.398606
0.397898
0.397194
0.396494
0.395799
0.395108
0.394422
0.393741
0.393065
0.392394
0.391727
0.391066
0.39041
0.389759
0.389114
0.388473
0.387838
0.387208
0.386583
0.385964
0.385349
0.38474
0.384136
0.383537
0.382942
0.382353
0.381768
0.381187
0.380611
0.38004
0.379472
0.378909
0.378349
0.377792
0.37724
0.37669
0.376143
0.375599
0.375058
0.374519
0.373982
0.373448
0.372914
0.372382
0.371852
0.371322
0.370792
0.370264
0.444617
0.429399
0.414152
0.412693
0.411928
0.411166
0.410406
0.409647
0.408891
0.408138
0.407386
0.406638
0.405892
0.405149
0.404408
0.403671
0.402937
0.402206
0.401478
0.400754
0.400034
0.399318
0.398606
0.397897
0.397193
0.396494
0.395798
0.395108
0.394422
0.393741
0.393064
0.392393
0.391727
0.391065
0.390409
0.389758
0.389113
0.388472
0.387837
0.387207
0.386582
0.385963
0.385349
0.384739
0.384135
0.383536
0.382941
0.382352
0.381767
0.381187
0.380611
0.380039
0.379471
0.378908
0.378348
0.377792
0.377239
0.376689
0.376143
0.375599
0.375058
0.374519
0.373982
0.373447
0.372914
0.372382
0.371851
0.371322
0.370792
0.370264
0.444617
0.4294
0.414154
0.412694
0.41193
0.411167
0.410407
0.409649
0.408893
0.408139
0.407388
0.406639
0.405893
0.40515
0.404409
0.403672
0.402938
0.402207
0.401479
0.400755
0.400035
0.399319
0.398606
0.397898
0.397194
0.396494
0.395799
0.395108
0.394422
0.393741
0.393064
0.392393
0.391726
0.391065
0.390409
0.389758
0.389112
0.388472
0.387837
0.387207
0.386582
0.385962
0.385348
0.384739
0.384135
0.383535
0.382941
0.382351
0.381766
0.381186
0.38061
0.380039
0.379471
0.378907
0.378348
0.377791
0.377239
0.376689
0.376142
0.375599
0.375057
0.374519
0.373982
0.373447
0.372914
0.372382
0.371851
0.371321
0.370792
0.370264
0.444617
0.429401
0.414156
0.412696
0.411932
0.411169
0.410409
0.409651
0.408895
0.408141
0.40739
0.406641
0.405895
0.405151
0.404411
0.403674
0.402939
0.402208
0.401481
0.400757
0.400036
0.39932
0.398607
0.397899
0.397195
0.396495
0.395799
0.395108
0.394422
0.393741
0.393065
0.392393
0.391727
0.391065
0.390409
0.389758
0.389112
0.388472
0.387837
0.387207
0.386582
0.385962
0.385348
0.384739
0.384134
0.383535
0.382941
0.382351
0.381766
0.381186
0.38061
0.380038
0.379471
0.378907
0.378347
0.377791
0.377238
0.376689
0.376142
0.375599
0.375057
0.374519
0.373982
0.373447
0.372914
0.372382
0.371851
0.371321
0.370792
0.370264
0.444617
0.429402
0.414158
0.412699
0.411934
0.411172
0.410411
0.409653
0.408897
0.408143
0.407392
0.406643
0.405897
0.405154
0.404413
0.403675
0.402941
0.40221
0.401482
0.400758
0.400038
0.399321
0.398609
0.3979
0.397196
0.396496
0.3958
0.395109
0.394423
0.393742
0.393065
0.392394
0.391727
0.391066
0.39041
0.389759
0.389113
0.388472
0.387837
0.387207
0.386582
0.385963
0.385348
0.384739
0.384135
0.383535
0.382941
0.382351
0.381766
0.381186
0.38061
0.380038
0.379471
0.378907
0.378347
0.377791
0.377238
0.376689
0.376142
0.375599
0.375057
0.374519
0.373982
0.373447
0.372914
0.372382
0.371851
0.371321
0.370792
0.370264
0.444617
0.429403
0.41416
0.4127
0.411936
0.411173
0.410413
0.409655
0.408899
0.408145
0.407393
0.406645
0.405898
0.405155
0.404414
0.403677
0.402942
0.402211
0.401484
0.400759
0.400039
0.399322
0.39861
0.397901
0.397197
0.396497
0.395801
0.39511
0.394424
0.393743
0.393066
0.392394
0.391728
0.391067
0.39041
0.389759
0.389113
0.388473
0.387837
0.387207
0.386583
0.385963
0.385348
0.384739
0.384135
0.383536
0.382941
0.382351
0.381767
0.381186
0.38061
0.380039
0.379471
0.378907
0.378348
0.377791
0.377239
0.376689
0.376142
0.375599
0.375057
0.374519
0.373982
0.373447
0.372914
0.372382
0.371851
0.371321
0.370792
0.370264
0.444617
0.429403
0.41416
0.412701
0.411936
0.411174
0.410413
0.409655
0.408899
0.408145
0.407394
0.406645
0.405899
0.405155
0.404415
0.403677
0.402943
0.402212
0.401484
0.40076
0.400039
0.399323
0.39861
0.397901
0.397197
0.396497
0.395802
0.395111
0.394424
0.393743
0.393066
0.392395
0.391728
0.391067
0.390411
0.38976
0.389114
0.388473
0.387838
0.387208
0.386583
0.385963
0.385349
0.384739
0.384135
0.383536
0.382941
0.382352
0.381767
0.381186
0.38061
0.380039
0.379471
0.378908
0.378348
0.377791
0.377239
0.376689
0.376142
0.375599
0.375058
0.374519
0.373982
0.373447
0.372914
0.372382
0.371851
0.371321
0.370792
0.370264
0.444617
0.429403
0.414159
0.412699
0.411935
0.411173
0.410412
0.409654
0.408898
0.408144
0.407393
0.406644
0.405898
0.405154
0.404414
0.403676
0.402942
0.402211
0.401483
0.400759
0.400039
0.399322
0.39861
0.397901
0.397197
0.396497
0.395801
0.39511
0.394424
0.393743
0.393066
0.392395
0.391728
0.391067
0.390411
0.38976
0.389114
0.388473
0.387838
0.387208
0.386583
0.385963
0.385349
0.38474
0.384135
0.383536
0.382942
0.382352
0.381767
0.381187
0.380611
0.380039
0.379471
0.378908
0.378348
0.377792
0.377239
0.376689
0.376143
0.375599
0.375058
0.374519
0.373982
0.373447
0.372914
0.372382
0.371851
0.371322
0.370792
0.370264
0.444617
0.429401
0.414157
0.412697
0.411933
0.411171
0.41041
0.409652
0.408896
0.408142
0.407391
0.406642
0.405896
0.405153
0.404412
0.403675
0.402941
0.40221
0.401482
0.400758
0.400038
0.399321
0.398609
0.3979
0.397196
0.396496
0.395801
0.39511
0.394424
0.393742
0.393066
0.392395
0.391728
0.391067
0.390411
0.38976
0.389114
0.388473
0.387838
0.387208
0.386583
0.385963
0.385349
0.38474
0.384135
0.383536
0.382942
0.382352
0.381767
0.381187
0.380611
0.380039
0.379471
0.378908
0.378348
0.377792
0.377239
0.376689
0.376143
0.375599
0.375058
0.374519
0.373982
0.373447
0.372914
0.372382
0.371851
0.371322
0.370792
0.370264
0.444617
0.4294
0.414155
0.412696
0.411931
0.411169
0.410408
0.40965
0.408894
0.40814
0.407389
0.40664
0.405894
0.405151
0.404411
0.403673
0.402939
0.402208
0.401481
0.400757
0.400037
0.39932
0.398608
0.397899
0.397195
0.396495
0.3958
0.395109
0.394423
0.393742
0.393066
0.392394
0.391728
0.391066
0.39041
0.389759
0.389114
0.388473
0.387838
0.387208
0.386583
0.385964
0.385349
0.38474
0.384136
0.383536
0.382942
0.382352
0.381767
0.381187
0.380611
0.380039
0.379472
0.378908
0.378348
0.377792
0.377239
0.376689
0.376143
0.375599
0.375058
0.374519
0.373982
0.373447
0.372914
0.372382
0.371851
0.371322
0.370792
0.370264
0.444617
0.4294
0.414154
0.412695
0.41193
0.411168
0.410407
0.409649
0.408893
0.40814
0.407388
0.40664
0.405894
0.40515
0.40441
0.403673
0.402939
0.402208
0.40148
0.400756
0.400036
0.39932
0.398607
0.397899
0.397195
0.396495
0.3958
0.395109
0.394423
0.393742
0.393066
0.392394
0.391728
0.391067
0.39041
0.389759
0.389114
0.388473
0.387838
0.387208
0.386583
0.385964
0.385349
0.38474
0.384136
0.383536
0.382942
0.382352
0.381767
0.381187
0.380611
0.380039
0.379472
0.378908
0.378348
0.377792
0.377239
0.37669
0.376143
0.375599
0.375058
0.374519
0.373982
0.373447
0.372914
0.372382
0.371851
0.371322
0.370792
0.370264
0.444617
0.4294
0.414155
0.412695
0.411931
0.411169
0.410408
0.40965
0.408894
0.40814
0.407389
0.406641
0.405895
0.405151
0.404411
0.403674
0.402939
0.402208
0.401481
0.400757
0.400037
0.39932
0.398608
0.3979
0.397196
0.396496
0.3958
0.39511
0.394424
0.393742
0.393066
0.392395
0.391728
0.391067
0.390411
0.38976
0.389114
0.388474
0.387838
0.387208
0.386584
0.385964
0.38535
0.38474
0.384136
0.383537
0.382942
0.382353
0.381768
0.381187
0.380611
0.38004
0.379472
0.378908
0.378349
0.377792
0.377239
0.37669
0.376143
0.375599
0.375058
0.374519
0.373982
0.373447
0.372914
0.372382
0.371852
0.371322
0.370792
0.370264
0.444617
0.429401
0.414157
0.412698
0.411933
0.411171
0.41041
0.409652
0.408896
0.408143
0.407391
0.406643
0.405897
0.405153
0.404413
0.403675
0.402941
0.40221
0.401483
0.400759
0.400038
0.399322
0.39861
0.397901
0.397197
0.396497
0.395802
0.395111
0.394425
0.393744
0.393067
0.392396
0.391729
0.391068
0.390412
0.389761
0.389115
0.388474
0.387839
0.387209
0.386584
0.385965
0.38535
0.384741
0.384137
0.383537
0.382943
0.382353
0.381768
0.381188
0.380612
0.38004
0.379472
0.378909
0.378349
0.377793
0.37724
0.37669
0.376143
0.3756
0.375058
0.374519
0.373982
0.373448
0.372914
0.372382
0.371852
0.371322
0.370792
0.370264
0.444617
0.429403
0.414159
0.4127
0.411936
0.411173
0.410413
0.409655
0.408899
0.408145
0.407394
0.406645
0.405899
0.405156
0.404415
0.403678
0.402944
0.402213
0.401485
0.400761
0.400041
0.399324
0.398611
0.397903
0.397199
0.396499
0.395803
0.395113
0.394426
0.393745
0.393069
0.392397
0.39173
0.391069
0.390413
0.389762
0.389116
0.388475
0.38784
0.38721
0.386585
0.385965
0.385351
0.384741
0.384137
0.383538
0.382943
0.382354
0.381769
0.381188
0.380612
0.38004
0.379473
0.378909
0.378349
0.377793
0.37724
0.37669
0.376144
0.3756
0.375058
0.374519
0.373983
0.373448
0.372914
0.372382
0.371852
0.371322
0.370792
0.370264
0.444617
0.429404
0.414161
0.412702
0.411938
0.411175
0.410415
0.409657
0.408901
0.408147
0.407396
0.406647
0.405901
0.405158
0.404417
0.40368
0.402945
0.402214
0.401487
0.400763
0.400042
0.399326
0.398613
0.397905
0.3972
0.3965
0.395805
0.395114
0.394428
0.393746
0.39307
0.392398
0.391732
0.39107
0.390414
0.389763
0.389117
0.388476
0.387841
0.387211
0.386586
0.385966
0.385352
0.384742
0.384138
0.383538
0.382944
0.382354
0.381769
0.381189
0.380612
0.380041
0.379473
0.378909
0.378349
0.377793
0.37724
0.37669
0.376144
0.3756
0.375059
0.37452
0.373983
0.373448
0.372914
0.372382
0.371852
0.371322
0.370793
0.370264
0.444617
0.429404
0.414162
0.412703
0.411939
0.411177
0.410416
0.409658
0.408902
0.408148
0.407397
0.406648
0.405902
0.405159
0.404418
0.403681
0.402947
0.402216
0.401488
0.400764
0.400043
0.399327
0.398614
0.397906
0.397201
0.396501
0.395806
0.395115
0.394429
0.393747
0.393071
0.392399
0.391732
0.391071
0.390415
0.389763
0.389117
0.388477
0.387841
0.387211
0.386586
0.385967
0.385352
0.384743
0.384138
0.383539
0.382944
0.382355
0.381769
0.381189
0.380613
0.380041
0.379473
0.37891
0.37835
0.377793
0.37724
0.376691
0.376144
0.3756
0.375059
0.37452
0.373983
0.373448
0.372915
0.372383
0.371852
0.371322
0.370793
0.370264
0.444617
0.429405
0.414163
0.412704
0.411939
0.411177
0.410417
0.409659
0.408903
0.408149
0.407398
0.406649
0.405903
0.40516
0.404419
0.403682
0.402947
0.402216
0.401489
0.400765
0.400044
0.399328
0.398615
0.397906
0.397202
0.396502
0.395806
0.395116
0.394429
0.393748
0.393071
0.3924
0.391733
0.391072
0.390415
0.389764
0.389118
0.388477
0.387842
0.387212
0.386587
0.385967
0.385353
0.384743
0.384139
0.383539
0.382945
0.382355
0.38177
0.381189
0.380613
0.380041
0.379474
0.37891
0.37835
0.377794
0.377241
0.376691
0.376144
0.3756
0.375059
0.37452
0.373983
0.373448
0.372915
0.372383
0.371852
0.371322
0.370793
0.370264
0.444617
0.429405
0.414163
0.412704
0.41194
0.411178
0.410418
0.409659
0.408903
0.40815
0.407399
0.40665
0.405904
0.40516
0.40442
0.403683
0.402948
0.402217
0.40149
0.400765
0.400045
0.399328
0.398616
0.397907
0.397203
0.396503
0.395807
0.395116
0.39443
0.393749
0.393072
0.3924
0.391734
0.391072
0.390416
0.389765
0.389119
0.388478
0.387843
0.387212
0.386587
0.385968
0.385353
0.384744
0.384139
0.38354
0.382945
0.382355
0.38177
0.38119
0.380613
0.380042
0.379474
0.37891
0.37835
0.377794
0.377241
0.376691
0.376144
0.3756
0.375059
0.37452
0.373983
0.373448
0.372915
0.372383
0.371852
0.371322
0.370793
0.370264
0.444617
0.429405
0.414165
0.412706
0.411941
0.411179
0.410419
0.409661
0.408905
0.408151
0.4074
0.406651
0.405905
0.405162
0.404421
0.403684
0.40295
0.402218
0.401491
0.400767
0.400046
0.39933
0.398617
0.397908
0.397204
0.396504
0.395808
0.395117
0.394431
0.39375
0.393073
0.392401
0.391735
0.391073
0.390417
0.389765
0.38912
0.388479
0.387843
0.387213
0.386588
0.385968
0.385354
0.384744
0.38414
0.38354
0.382946
0.382356
0.381771
0.38119
0.380614
0.380042
0.379474
0.37891
0.37835
0.377794
0.377241
0.376691
0.376144
0.375601
0.375059
0.37452
0.373983
0.373448
0.372915
0.372383
0.371852
0.371322
0.370793
0.370264
0.444617
0.429406
0.414166
0.412707
0.411943
0.411181
0.410421
0.409662
0.408907
0.408153
0.407402
0.406653
0.405907
0.405164
0.404423
0.403686
0.402951
0.40222
0.401492
0.400768
0.400048
0.399331
0.398618
0.39791
0.397205
0.396505
0.39581
0.395119
0.394432
0.393751
0.393074
0.392402
0.391736
0.391074
0.390418
0.389766
0.38912
0.38848
0.387844
0.387214
0.386589
0.385969
0.385354
0.384745
0.38414
0.383541
0.382946
0.382356
0.381771
0.38119
0.380614
0.380042
0.379475
0.378911
0.378351
0.377794
0.377241
0.376691
0.376145
0.375601
0.375059
0.37452
0.373983
0.373448
0.372915
0.372383
0.371852
0.371322
0.370793
0.370264
0.444617
0.429407
0.414168
0.412709
0.411945
0.411183
0.410422
0.409664
0.408908
0.408155
0.407404
0.406655
0.405909
0.405165
0.404425
0.403687
0.402953
0.402222
0.401494
0.40077
0.40005
0.399333
0.39862
0.397912
0.397207
0.396507
0.395811
0.39512
0.394434
0.393752
0.393076
0.392404
0.391737
0.391075
0.390419
0.389768
0.389122
0.388481
0.387845
0.387215
0.38659
0.38597
0.385355
0.384745
0.384141
0.383541
0.382947
0.382357
0.381772
0.381191
0.380615
0.380043
0.379475
0.378911
0.378351
0.377795
0.377241
0.376692
0.376145
0.375601
0.375059
0.37452
0.373983
0.373448
0.372915
0.372383
0.371852
0.371322
0.370793
0.370264
0.444617
0.429408
0.414169
0.412711
0.411947
0.411184
0.410424
0.409666
0.40891
0.408157
0.407405
0.406657
0.405911
0.405167
0.404427
0.403689
0.402955
0.402224
0.401496
0.400772
0.400051
0.399335
0.398622
0.397913
0.397209
0.396509
0.395813
0.395122
0.394435
0.393754
0.393077
0.392405
0.391738
0.391077
0.39042
0.389769
0.389123
0.388482
0.387846
0.387216
0.386591
0.385971
0.385356
0.384746
0.384142
0.383542
0.382947
0.382357
0.381772
0.381191
0.380615
0.380043
0.379475
0.378911
0.378351
0.377795
0.377242
0.376692
0.376145
0.375601
0.37506
0.37452
0.373984
0.373448
0.372915
0.372383
0.371852
0.371322
0.370793
0.370264
0.444617
0.429409
0.414171
0.412712
0.411948
0.411186
0.410426
0.409668
0.408912
0.408158
0.407407
0.406659
0.405912
0.405169
0.404429
0.403691
0.402957
0.402226
0.401498
0.400774
0.400053
0.399336
0.398624
0.397915
0.39721
0.39651
0.395814
0.395123
0.394437
0.393755
0.393078
0.392406
0.39174
0.391078
0.390421
0.38977
0.389124
0.388483
0.387847
0.387217
0.386591
0.385971
0.385357
0.384747
0.384142
0.383543
0.382948
0.382358
0.381772
0.381192
0.380615
0.380043
0.379476
0.378912
0.378352
0.377795
0.377242
0.376692
0.376145
0.375601
0.37506
0.374521
0.373984
0.373449
0.372915
0.372383
0.371852
0.371322
0.370793
0.370264
0.444617
0.42941
0.414173
0.412714
0.41195
0.411188
0.410428
0.40967
0.408914
0.40816
0.407409
0.40666
0.405914
0.405171
0.40443
0.403693
0.402958
0.402227
0.4015
0.400775
0.400055
0.399338
0.398625
0.397916
0.397212
0.396512
0.395816
0.395125
0.394438
0.393756
0.39308
0.392408
0.391741
0.391079
0.390422
0.389771
0.389125
0.388484
0.387848
0.387217
0.386592
0.385972
0.385357
0.384747
0.384143
0.383543
0.382948
0.382358
0.381773
0.381192
0.380616
0.380044
0.379476
0.378912
0.378352
0.377795
0.377242
0.376692
0.376145
0.375601
0.37506
0.374521
0.373984
0.373449
0.372915
0.372383
0.371852
0.371322
0.370793
0.370264
0.444617
0.429411
0.414174
0.412716
0.411951
0.411189
0.410429
0.409671
0.408915
0.408162
0.407411
0.406662
0.405916
0.405172
0.404432
0.403694
0.40296
0.402229
0.401501
0.400777
0.400056
0.399339
0.398627
0.397918
0.397213
0.396513
0.395817
0.395126
0.394439
0.393758
0.393081
0.392409
0.391742
0.39108
0.390423
0.389772
0.389125
0.388484
0.387849
0.387218
0.386593
0.385973
0.385358
0.384748
0.384143
0.383543
0.382949
0.382359
0.381773
0.381192
0.380616
0.380044
0.379476
0.378912
0.378352
0.377795
0.377242
0.376692
0.376146
0.375601
0.37506
0.374521
0.373984
0.373449
0.372915
0.372383
0.371852
0.371322
0.370793
0.370264
0.444617
0.429411
0.414175
0.412717
0.411953
0.411191
0.41043
0.409672
0.408917
0.408163
0.407412
0.406663
0.405917
0.405174
0.404433
0.403696
0.402961
0.40223
0.401502
0.400778
0.400057
0.399341
0.398628
0.397919
0.397214
0.396514
0.395818
0.395127
0.39444
0.393758
0.393081
0.392409
0.391742
0.391081
0.390424
0.389772
0.389126
0.388485
0.387849
0.387218
0.386593
0.385973
0.385358
0.384748
0.384144
0.383544
0.382949
0.382359
0.381773
0.381193
0.380616
0.380044
0.379476
0.378912
0.378352
0.377796
0.377242
0.376692
0.376146
0.375601
0.37506
0.374521
0.373984
0.373449
0.372915
0.372383
0.371852
0.371322
0.370793
0.370264
0.444617
0.429412
0.414176
0.412718
0.411954
0.411192
0.410431
0.409673
0.408918
0.408164
0.407413
0.406664
0.405918
0.405175
0.404434
0.403697
0.402962
0.402231
0.401503
0.400779
0.400058
0.399341
0.398628
0.39792
0.397215
0.396515
0.395819
0.395127
0.394441
0.393759
0.393082
0.39241
0.391743
0.391081
0.390424
0.389773
0.389126
0.388485
0.387849
0.387219
0.386593
0.385973
0.385358
0.384749
0.384144
0.383544
0.382949
0.382359
0.381774
0.381193
0.380616
0.380044
0.379476
0.378912
0.378352
0.377796
0.377242
0.376693
0.376146
0.375602
0.37506
0.374521
0.373984
0.373449
0.372915
0.372383
0.371852
0.371322
0.370793
0.370264
0.444617
0.429412
0.414177
0.412718
0.411954
0.411192
0.410432
0.409674
0.408918
0.408165
0.407413
0.406665
0.405919
0.405175
0.404435
0.403697
0.402963
0.402231
0.401504
0.400779
0.400059
0.399342
0.398629
0.39792
0.397215
0.396515
0.395819
0.395128
0.394441
0.393759
0.393082
0.39241
0.391743
0.391081
0.390425
0.389773
0.389127
0.388485
0.38785
0.387219
0.386594
0.385973
0.385358
0.384749
0.384144
0.383544
0.382949
0.382359
0.381774
0.381193
0.380616
0.380044
0.379476
0.378912
0.378352
0.377796
0.377242
0.376693
0.376146
0.375602
0.37506
0.374521
0.373984
0.373449
0.372915
0.372383
0.371852
0.371322
0.370793
0.370264
0.444617
0.429412
0.414177
0.412719
0.411954
0.411192
0.410432
0.409674
0.408918
0.408165
0.407414
0.406665
0.405919
0.405176
0.404435
0.403697
0.402963
0.402232
0.401504
0.40078
0.400059
0.399342
0.398629
0.39792
0.397216
0.396515
0.395819
0.395128
0.394441
0.393759
0.393082
0.39241
0.391743
0.391081
0.390425
0.389773
0.389127
0.388486
0.38785
0.387219
0.386594
0.385974
0.385359
0.384749
0.384144
0.383544
0.382949
0.382359
0.381774
0.381193
0.380617
0.380044
0.379476
0.378912
0.378352
0.377796
0.377243
0.376693
0.376146
0.375602
0.37506
0.374521
0.373984
0.373449
0.372915
0.372383
0.371852
0.371322
0.370793
0.370264
0.444617
0.429412
0.414177
0.412719
0.411955
0.411192
0.410432
0.409674
0.408919
0.408165
0.407414
0.406665
0.405919
0.405176
0.404435
0.403698
0.402963
0.402232
0.401504
0.40078
0.400059
0.399342
0.398629
0.39792
0.397216
0.396515
0.395819
0.395128
0.394441
0.39376
0.393083
0.39241
0.391743
0.391082
0.390425
0.389773
0.389127
0.388486
0.38785
0.387219
0.386594
0.385974
0.385359
0.384749
0.384144
0.383544
0.382949
0.382359
0.381774
0.381193
0.380617
0.380044
0.379476
0.378912
0.378352
0.377796
0.377243
0.376693
0.376146
0.375602
0.37506
0.374521
0.373984
0.373449
0.372915
0.372383
0.371852
0.371322
0.370793
0.370264
0.444617
0.429412
0.414177
0.412719
0.411955
0.411193
0.410432
0.409674
0.408919
0.408165
0.407414
0.406665
0.405919
0.405176
0.404435
0.403698
0.402963
0.402232
0.401504
0.40078
0.400059
0.399342
0.398629
0.39792
0.397216
0.396515
0.39582
0.395128
0.394442
0.39376
0.393083
0.392411
0.391743
0.391082
0.390425
0.389773
0.389127
0.388486
0.38785
0.387219
0.386594
0.385974
0.385359
0.384749
0.384144
0.383544
0.382949
0.382359
0.381774
0.381193
0.380617
0.380044
0.379476
0.378912
0.378352
0.377796
0.377243
0.376693
0.376146
0.375602
0.37506
0.374521
0.373984
0.373449
0.372915
0.372383
0.371852
0.371322
0.370793
0.370264
0.444617
0.429412
0.414177
0.412719
0.411955
0.411193
0.410432
0.409674
0.408919
0.408165
0.407414
0.406665
0.405919
0.405176
0.404435
0.403698
0.402963
0.402232
0.401504
0.40078
0.400059
0.399342
0.398629
0.39792
0.397216
0.396515
0.39582
0.395128
0.394442
0.39376
0.393083
0.392411
0.391744
0.391082
0.390425
0.389773
0.389127
0.388486
0.38785
0.387219
0.386594
0.385974
0.385359
0.384749
0.384144
0.383544
0.382949
0.382359
0.381774
0.381193
0.380617
0.380044
0.379476
0.378912
0.378352
0.377796
0.377243
0.376693
0.376146
0.375602
0.37506
0.374521
0.373984
0.373449
0.372915
0.372383
0.371852
0.371322
0.370793
0.370264
0.444617
0.429412
0.414177
0.412719
0.411955
0.411193
0.410432
0.409674
0.408919
0.408165
0.407414
0.406665
0.405919
0.405176
0.404435
0.403698
0.402963
0.402232
0.401504
0.40078
0.400059
0.399342
0.398629
0.39792
0.397216
0.396515
0.39582
0.395128
0.394442
0.39376
0.393083
0.392411
0.391744
0.391082
0.390425
0.389773
0.389127
0.388486
0.38785
0.387219
0.386594
0.385974
0.385359
0.384749
0.384144
0.383544
0.382949
0.382359
0.381774
0.381193
0.380617
0.380044
0.379476
0.378912
0.378352
0.377796
0.377243
0.376693
0.376146
0.375602
0.37506
0.374521
0.373984
0.373449
0.372915
0.372383
0.371852
0.371322
0.370793
0.370264
0.444617
0.429412
0.414177
0.412719
0.411955
0.411193
0.410432
0.409674
0.408919
0.408165
0.407414
0.406665
0.405919
0.405176
0.404435
0.403698
0.402963
0.402232
0.401504
0.40078
0.400059
0.399342
0.398629
0.39792
0.397216
0.396515
0.39582
0.395128
0.394442
0.39376
0.393083
0.392411
0.391744
0.391082
0.390425
0.389773
0.389127
0.388486
0.38785
0.387219
0.386594
0.385974
0.385359
0.384749
0.384144
0.383544
0.382949
0.382359
0.381774
0.381193
0.380617
0.380044
0.379476
0.378912
0.378352
0.377796
0.377243
0.376693
0.376146
0.375602
0.37506
0.374521
0.373984
0.373449
0.372915
0.372383
0.371852
0.371322
0.370793
0.370264
0.444617
0.429412
0.414177
0.412719
0.411955
0.411193
0.410432
0.409674
0.408919
0.408165
0.407414
0.406665
0.405919
0.405176
0.404435
0.403698
0.402963
0.402232
0.401504
0.40078
0.400059
0.399342
0.398629
0.39792
0.397216
0.396515
0.39582
0.395128
0.394442
0.39376
0.393083
0.392411
0.391744
0.391082
0.390425
0.389773
0.389127
0.388486
0.38785
0.387219
0.386594
0.385974
0.385359
0.384749
0.384144
0.383544
0.382949
0.382359
0.381774
0.381193
0.380617
0.380044
0.379476
0.378912
0.378352
0.377796
0.377243
0.376693
0.376146
0.375602
0.37506
0.374521
0.373984
0.373449
0.372915
0.372383
0.371852
0.371322
0.370793
0.370264
0.444617
0.429412
0.414177
0.412719
0.411955
0.411193
0.410432
0.409675
0.408919
0.408165
0.407414
0.406665
0.405919
0.405176
0.404435
0.403698
0.402963
0.402232
0.401504
0.40078
0.400059
0.399342
0.398629
0.39792
0.397216
0.396515
0.39582
0.395128
0.394442
0.39376
0.393083
0.392411
0.391744
0.391082
0.390425
0.389773
0.389127
0.388486
0.38785
0.387219
0.386594
0.385974
0.385359
0.384749
0.384144
0.383544
0.382949
0.382359
0.381774
0.381193
0.380617
0.380044
0.379476
0.378912
0.378352
0.377796
0.377243
0.376693
0.376146
0.375602
0.37506
0.374521
0.373984
0.373449
0.372915
0.372383
0.371852
0.371322
0.370793
0.370264
0.444617
0.429412
0.414177
0.412719
0.411955
0.411193
0.410432
0.409675
0.408919
0.408165
0.407414
0.406665
0.405919
0.405176
0.404435
0.403698
0.402963
0.402232
0.401504
0.40078
0.400059
0.399342
0.398629
0.39792
0.397216
0.396515
0.39582
0.395128
0.394442
0.39376
0.393083
0.392411
0.391744
0.391082
0.390425
0.389773
0.389127
0.388486
0.38785
0.387219
0.386594
0.385974
0.385359
0.384749
0.384144
0.383544
0.382949
0.382359
0.381774
0.381193
0.380617
0.380044
0.379476
0.378912
0.378352
0.377796
0.377243
0.376693
0.376146
0.375602
0.37506
0.374521
0.373984
0.373449
0.372915
0.372383
0.371852
0.371322
0.370793
0.370264
0.444617
0.429412
0.414177
0.412719
0.411955
0.411193
0.410432
0.409675
0.408919
0.408165
0.407414
0.406665
0.405919
0.405176
0.404435
0.403698
0.402963
0.402232
0.401504
0.40078
0.400059
0.399342
0.398629
0.39792
0.397216
0.396515
0.39582
0.395128
0.394442
0.39376
0.393083
0.392411
0.391744
0.391082
0.390425
0.389773
0.389127
0.388486
0.38785
0.387219
0.386594
0.385974
0.385359
0.384749
0.384144
0.383544
0.382949
0.382359
0.381774
0.381193
0.380617
0.380044
0.379476
0.378912
0.378352
0.377796
0.377243
0.376693
0.376146
0.375602
0.37506
0.374521
0.373984
0.373449
0.372915
0.372383
0.371852
0.371322
0.370793
0.370264
0.444617
0.429412
0.414177
0.412719
0.411955
0.411193
0.410432
0.409675
0.408919
0.408165
0.407414
0.406665
0.405919
0.405176
0.404435
0.403698
0.402963
0.402232
0.401504
0.40078
0.400059
0.399342
0.398629
0.39792
0.397216
0.396515
0.39582
0.395128
0.394442
0.39376
0.393083
0.392411
0.391744
0.391082
0.390425
0.389773
0.389127
0.388486
0.38785
0.387219
0.386594
0.385974
0.385359
0.384749
0.384144
0.383544
0.382949
0.382359
0.381774
0.381193
0.380617
0.380044
0.379476
0.378912
0.378352
0.377796
0.377243
0.376693
0.376146
0.375602
0.37506
0.374521
0.373984
0.373449
0.372915
0.372383
0.371852
0.371322
0.370793
0.370264
0.444617
0.429412
0.414177
0.412719
0.411955
0.411193
0.410432
0.409675
0.408919
0.408165
0.407414
0.406665
0.405919
0.405176
0.404435
0.403698
0.402963
0.402232
0.401504
0.40078
0.400059
0.399342
0.398629
0.39792
0.397216
0.396515
0.39582
0.395128
0.394442
0.39376
0.393083
0.392411
0.391744
0.391082
0.390425
0.389773
0.389127
0.388486
0.38785
0.387219
0.386594
0.385974
0.385359
0.384749
0.384144
0.383544
0.382949
0.382359
0.381774
0.381193
0.380617
0.380044
0.379476
0.378912
0.378352
0.377796
0.377243
0.376693
0.376146
0.375602
0.37506
0.374521
0.373984
0.373449
0.372915
0.372383
0.371852
0.371322
0.370793
0.370264
0.444617
0.429412
0.414177
0.412719
0.411955
0.411193
0.410432
0.409675
0.408919
0.408165
0.407414
0.406665
0.405919
0.405176
0.404435
0.403698
0.402963
0.402232
0.401504
0.40078
0.400059
0.399342
0.398629
0.39792
0.397216
0.396515
0.39582
0.395128
0.394442
0.39376
0.393083
0.392411
0.391744
0.391082
0.390425
0.389773
0.389127
0.388486
0.38785
0.387219
0.386594
0.385974
0.385359
0.384749
0.384144
0.383544
0.382949
0.382359
0.381774
0.381193
0.380617
0.380044
0.379476
0.378912
0.378352
0.377796
0.377243
0.376693
0.376146
0.375602
0.37506
0.374521
0.373984
0.373449
0.372915
0.372383
0.371852
0.371322
0.370793
0.370264
0.444617
0.429412
0.414177
0.412719
0.411955
0.411193
0.410432