/*--------------------------------*- C++ -*----------------------------------*\
  =========                 |
  \\      /  F ield         | OpenFOAM: The Open Source CFD Toolbox
   \\    /   O peration     | Website:  https://openfoam.org
    \\  /    A nd           | Version:  13
     \\/     M anipulation  |
\*---------------------------------------------------------------------------*/
FoamFile
{
    format      ascii;
    class       volScalarField;
    location    "42.5";
    object      rhok;
}
// * * * * * * * * * * * * * * * * * * * * * * * * * * * * * * * * * * * * * //

dimensions      [];

internalField   nonuniform List<scalar> 
315000
(
0.444333
0.417648
0.413996
0.412421
0.411079
0.409816
0.408573
0.407335
0.406099
0.40487
0.403652
0.402449
0.401263
0.400097
0.398951
0.397828
0.396728
0.395651
0.394599
0.39357
0.392567
0.391589
0.390636
0.389709
0.388807
0.387932
0.387082
0.386258
0.385461
0.384689
0.383943
0.383223
0.382528
0.381858
0.381214
0.380594
0.379998
0.379427
0.378878
0.378353
0.377851
0.37737
0.376911
0.376473
0.376055
0.375656
0.375277
0.374916
0.374572
0.374246
0.373935
0.37364
0.37336
0.373093
0.372839
0.372598
0.372369
0.37215
0.371941
0.371742
0.37155
0.371367
0.37119
0.371019
0.370853
0.370692
0.370535
0.37038
0.370227
0.370075
0.444333
0.41764
0.413985
0.412413
0.411073
0.40981
0.408567
0.407327
0.406091
0.404861
0.403642
0.402438
0.401251
0.400084
0.398938
0.397815
0.396714
0.395636
0.394583
0.393554
0.392551
0.391572
0.390618
0.389691
0.388789
0.387913
0.387063
0.386239
0.385441
0.384669
0.383923
0.383202
0.382508
0.381838
0.381193
0.380574
0.379978
0.379407
0.378859
0.378334
0.377832
0.377352
0.376893
0.376455
0.376037
0.37564
0.375261
0.3749
0.374557
0.374231
0.373921
0.373627
0.373347
0.373081
0.372828
0.372588
0.372359
0.372141
0.371933
0.371734
0.371544
0.371361
0.371185
0.371014
0.37085
0.370689
0.370532
0.370378
0.370226
0.370075
0.444333
0.417644
0.41399
0.412418
0.411077
0.409815
0.408572
0.407332
0.406095
0.404865
0.403646
0.402441
0.401254
0.400087
0.39894
0.397816
0.396714
0.395636
0.394582
0.393553
0.392548
0.391568
0.390614
0.389686
0.388783
0.387907
0.387056
0.386231
0.385433
0.38466
0.383914
0.383193
0.382497
0.381827
0.381183
0.380563
0.379967
0.379395
0.378847
0.378322
0.37782
0.37734
0.376881
0.376443
0.376026
0.375628
0.37525
0.374889
0.374547
0.374221
0.373912
0.373617
0.373338
0.373073
0.37282
0.37258
0.372352
0.372134
0.371927
0.371728
0.371538
0.371356
0.371181
0.371011
0.370847
0.370687
0.37053
0.370377
0.370225
0.370075
0.444333
0.417651
0.413993
0.412426
0.411088
0.409824
0.408581
0.407342
0.406106
0.404876
0.403658
0.402454
0.401267
0.400099
0.398953
0.397828
0.396726
0.395647
0.394592
0.393562
0.392556
0.391576
0.390621
0.389691
0.388788
0.38791
0.387058
0.386233
0.385434
0.38466
0.383913
0.383191
0.382495
0.381825
0.381179
0.380558
0.379962
0.37939
0.378842
0.378317
0.377814
0.377334
0.376875
0.376437
0.376019
0.375622
0.375243
0.374883
0.37454
0.374215
0.373905
0.373611
0.373332
0.373067
0.372815
0.372575
0.372347
0.37213
0.371923
0.371724
0.371535
0.371353
0.371178
0.371008
0.370844
0.370685
0.370529
0.370376
0.370225
0.370075
0.444376
0.419915
0.413123
0.411782
0.410795
0.409682
0.408507
0.407304
0.406089
0.404873
0.403663
0.402464
0.401281
0.400115
0.39897
0.397845
0.396743
0.395664
0.394608
0.393577
0.392571
0.391589
0.390633
0.389703
0.388799
0.38792
0.387067
0.386241
0.38544
0.384666
0.383918
0.383195
0.382498
0.381827
0.381181
0.380559
0.379963
0.37939
0.378841
0.378315
0.377812
0.377331
0.376872
0.376434
0.376016
0.375618
0.37524
0.374879
0.374537
0.374211
0.373902
0.373608
0.373329
0.373063
0.372811
0.372572
0.372344
0.372127
0.37192
0.371722
0.371532
0.371351
0.371176
0.371007
0.370843
0.370684
0.370528
0.370375
0.370224
0.370074
0.444319
0.417146
0.414145
0.412633
0.411233
0.40991
0.40863
0.407373
0.406132
0.404903
0.403688
0.402487
0.401303
0.400137
0.398991
0.397866
0.396763
0.395683
0.394627
0.393595
0.392588
0.391606
0.390649
0.389718
0.388812
0.387932
0.387079
0.386251
0.38545
0.384675
0.383925
0.383202
0.382504
0.381832
0.381185
0.380563
0.379966
0.379392
0.378843
0.378316
0.377813
0.377332
0.376872
0.376434
0.376016
0.375617
0.375238
0.374878
0.374535
0.374209
0.3739
0.373606
0.373327
0.373061
0.372809
0.37257
0.372342
0.372125
0.371918
0.37172
0.371531
0.371349
0.371174
0.371006
0.370842
0.370683
0.370527
0.370375
0.370224
0.370074
0.444344
0.418037
0.414117
0.412449
0.411059
0.409781
0.408544
0.40732
0.406102
0.40489
0.403686
0.402492
0.401313
0.40015
0.399006
0.397883
0.39678
0.395701
0.394644
0.393612
0.392604
0.391621
0.390664
0.389732
0.388825
0.387945
0.38709
0.386262
0.38546
0.384684
0.383934
0.38321
0.382511
0.381838
0.381191
0.380568
0.37997
0.379396
0.378846
0.378319
0.377815
0.377333
0.376873
0.376434
0.376016
0.375618
0.375238
0.374878
0.374535
0.374209
0.373899
0.373605
0.373326
0.37306
0.372808
0.372569
0.372341
0.372124
0.371917
0.371719
0.37153
0.371349
0.371174
0.371005
0.370842
0.370682
0.370527
0.370374
0.370224
0.370074
0.444344
0.418038
0.414109
0.412443
0.411056
0.409781
0.408546
0.407325
0.406109
0.404899
0.403696
0.402504
0.401326
0.400164
0.399021
0.397897
0.396795
0.395715
0.394659
0.393626
0.392618
0.391634
0.390676
0.389743
0.388836
0.387955
0.3871
0.386271
0.385468
0.384692
0.383941
0.383216
0.382517
0.381844
0.381195
0.380572
0.379974
0.379399
0.378849
0.378321
0.377817
0.377335
0.376875
0.376436
0.376017
0.375618
0.375239
0.374878
0.374535
0.374209
0.373899
0.373605
0.373325
0.37306
0.372808
0.372568
0.372341
0.372124
0.371917
0.371719
0.37153
0.371348
0.371173
0.371005
0.370841
0.370682
0.370527
0.370374
0.370224
0.370074
0.444339
0.417872
0.414105
0.412483
0.411111
0.409834
0.40859
0.407358
0.406134
0.404917
0.40371
0.402516
0.401337
0.400174
0.399031
0.397907
0.396805
0.395725
0.394669
0.393636
0.392627
0.391643
0.390685
0.389752
0.388844
0.387963
0.387107
0.386278
0.385475
0.384697
0.383946
0.383221
0.382522
0.381848
0.381199
0.380576
0.379977
0.379402
0.378851
0.378324
0.377819
0.377337
0.376876
0.376437
0.376018
0.375619
0.375239
0.374878
0.374535
0.374209
0.373899
0.373605
0.373325
0.37306
0.372808
0.372568
0.37234
0.372123
0.371916
0.371719
0.371529
0.371348
0.371173
0.371005
0.370841
0.370682
0.370527
0.370374
0.370224
0.370074
0.444339
0.417878
0.414113
0.412493
0.411121
0.409843
0.408598
0.407366
0.406141
0.404924
0.403717
0.402523
0.401344
0.400181
0.399038
0.397914
0.396812
0.395732
0.394675
0.393642
0.392634
0.39165
0.390691
0.389757
0.38885
0.387968
0.387112
0.386282
0.385479
0.384701
0.38395
0.383224
0.382525
0.381851
0.381202
0.380578
0.379979
0.379404
0.378853
0.378325
0.37782
0.377338
0.376877
0.376438
0.376019
0.37562
0.37524
0.374879
0.374535
0.374209
0.373899
0.373605
0.373325
0.37306
0.372808
0.372568
0.37234
0.372123
0.371916
0.371719
0.371529
0.371348
0.371173
0.371004
0.370841
0.370682
0.370527
0.370374
0.370224
0.370074
0.444339
0.417881
0.414117
0.412496
0.411125
0.409847
0.408603
0.40737
0.406145
0.404928
0.403721
0.402527
0.401348
0.400186
0.399042
0.397919
0.396817
0.395737
0.39468
0.393647
0.392638
0.391654
0.390695
0.389761
0.388853
0.387971
0.387115
0.386285
0.385482
0.384704
0.383952
0.383227
0.382527
0.381852
0.381203
0.380579
0.37998
0.379405
0.378854
0.378326
0.377821
0.377339
0.376878
0.376438
0.376019
0.37562
0.37524
0.374879
0.374536
0.374209
0.373899
0.373605
0.373325
0.37306
0.372808
0.372568
0.37234
0.372123
0.371916
0.371719
0.371529
0.371348
0.371173
0.371004
0.370841
0.370682
0.370527
0.370374
0.370224
0.370074
0.444339
0.417883
0.414119
0.412499
0.411128
0.40985
0.408605
0.407373
0.406148
0.404931
0.403724
0.40253
0.401351
0.400189
0.399045
0.397921
0.396819
0.395739
0.394682
0.393649
0.39264
0.391656
0.390697
0.389763
0.388855
0.387973
0.387117
0.386287
0.385483
0.384705
0.383954
0.383228
0.382528
0.381854
0.381204
0.38058
0.379981
0.379406
0.378855
0.378327
0.377822
0.377339
0.376878
0.376439
0.37602
0.37562
0.375241
0.374879
0.374536
0.374209
0.373899
0.373605
0.373326
0.37306
0.372808
0.372568
0.37234
0.372123
0.371916
0.371719
0.371529
0.371348
0.371173
0.371004
0.370841
0.370682
0.370527
0.370374
0.370224
0.370074
0.444339
0.417883
0.41412
0.412499
0.411128
0.409851
0.408606
0.407373
0.406149
0.404932
0.403725
0.402531
0.401352
0.40019
0.399046
0.397923
0.396821
0.395741
0.394684
0.39365
0.392641
0.391657
0.390698
0.389764
0.388856
0.387974
0.387118
0.386288
0.385484
0.384706
0.383954
0.383229
0.382529
0.381854
0.381205
0.380581
0.379981
0.379406
0.378855
0.378327
0.377822
0.377339
0.376878
0.376439
0.37602
0.375621
0.375241
0.374879
0.374536
0.374209
0.373899
0.373605
0.373326
0.37306
0.372808
0.372568
0.37234
0.372123
0.371916
0.371719
0.371529
0.371348
0.371173
0.371004
0.370841
0.370682
0.370527
0.370374
0.370224
0.370074
0.444339
0.417877
0.414107
0.412492
0.411123
0.409844
0.408599
0.407367
0.406144
0.404928
0.403723
0.40253
0.401352
0.40019
0.399047
0.397923
0.396821
0.395741
0.394684
0.393651
0.392642
0.391658
0.390698
0.389765
0.388857
0.387974
0.387118
0.386288
0.385484
0.384707
0.383955
0.383229
0.382529
0.381854
0.381205
0.380581
0.379982
0.379406
0.378855
0.378327
0.377822
0.377339
0.376879
0.376439
0.37602
0.375621
0.375241
0.374879
0.374536
0.37421
0.3739
0.373605
0.373326
0.37306
0.372808
0.372568
0.37234
0.372123
0.371916
0.371719
0.371529
0.371348
0.371173
0.371004
0.370841
0.370682
0.370527
0.370374
0.370224
0.370074
0.444384
0.420233
0.41317
0.411781
0.410782
0.409662
0.408492
0.4073
0.4061
0.4049
0.403704
0.402518
0.401344
0.400185
0.399044
0.397922
0.39682
0.395741
0.394684
0.393651
0.392642
0.391658
0.390699
0.389765
0.388857
0.387975
0.387119
0.386288
0.385485
0.384707
0.383955
0.383229
0.382529
0.381855
0.381205
0.380581
0.379982
0.379406
0.378855
0.378327
0.377822
0.377339
0.376879
0.376439
0.37602
0.375621
0.375241
0.374879
0.374536
0.37421
0.3739
0.373605
0.373326
0.37306
0.372808
0.372568
0.37234
0.372123
0.371916
0.371719
0.371529
0.371348
0.371173
0.371004
0.370841
0.370682
0.370527
0.370374
0.370224
0.370074
0.444384
0.42023
0.413144
0.411756
0.41076
0.409645
0.408478
0.40729
0.406092
0.404894
0.403701
0.402515
0.401342
0.400184
0.399043
0.397921
0.39682
0.395741
0.394684
0.393651
0.392642
0.391658
0.390699
0.389765
0.388857
0.387975
0.387119
0.386289
0.385485
0.384707
0.383955
0.383229
0.382529
0.381855
0.381205
0.380581
0.379982
0.379407
0.378855
0.378327
0.377822
0.377339
0.376879
0.376439
0.37602
0.375621
0.375241
0.374879
0.374536
0.37421
0.3739
0.373605
0.373326
0.37306
0.372808
0.372568
0.37234
0.372123
0.371916
0.371719
0.371529
0.371348
0.371173
0.371004
0.370841
0.370682
0.370527
0.370374
0.370224
0.370074
0.444384
0.42023
0.413143
0.411754
0.410759
0.409644
0.408477
0.407289
0.406092
0.404894
0.4037
0.402515
0.401342
0.400184
0.399043
0.397921
0.39682
0.395741
0.394684
0.393651
0.392642
0.391658
0.390699
0.389765
0.388857
0.387975
0.387119
0.386289
0.385485
0.384707
0.383955
0.383229
0.382529
0.381855
0.381205
0.380581
0.379982
0.379407
0.378855
0.378327
0.377822
0.37734
0.376879
0.376439
0.37602
0.375621
0.375241
0.374879
0.374536
0.37421
0.3739
0.373605
0.373326
0.37306
0.372808
0.372568
0.37234
0.372123
0.371916
0.371719
0.371529
0.371348
0.371173
0.371004
0.370841
0.370682
0.370527
0.370374
0.370224
0.370074
0.444384
0.42023
0.413143
0.411754
0.410759
0.409644
0.408477
0.407289
0.406092
0.404894
0.4037
0.402515
0.401342
0.400184
0.399043
0.397921
0.39682
0.395741
0.394684
0.393651
0.392642
0.391658
0.390699
0.389765
0.388857
0.387975
0.387119
0.386289
0.385485
0.384707
0.383955
0.383229
0.382529
0.381855
0.381205
0.380581
0.379982
0.379407
0.378855
0.378327
0.377822
0.37734
0.376879
0.376439
0.37602
0.375621
0.375241
0.374879
0.374536
0.37421
0.3739
0.373605
0.373326
0.37306
0.372808
0.372568
0.37234
0.372123
0.371916
0.371719
0.371529
0.371348
0.371173
0.371004
0.370841
0.370682
0.370527
0.370374
0.370224
0.370074
0.444384
0.42023
0.413143
0.411754
0.410759
0.409644
0.408477
0.407289
0.406092
0.404894
0.4037
0.402515
0.401342
0.400184
0.399043
0.397921
0.39682
0.395741
0.394684
0.393651
0.392642
0.391658
0.390699
0.389765
0.388857
0.387975
0.387119
0.386289
0.385485
0.384707
0.383955
0.383229
0.382529
0.381855
0.381205
0.380581
0.379982
0.379407
0.378855
0.378327
0.377822
0.37734
0.376879
0.376439
0.37602
0.375621
0.375241
0.374879
0.374536
0.37421
0.3739
0.373605
0.373326
0.37306
0.372808
0.372568
0.37234
0.372123
0.371916
0.371719
0.371529
0.371348
0.371173
0.371004
0.370841
0.370682
0.370527
0.370374
0.370224
0.370074
0.444384
0.42023
0.413143
0.411754
0.410759
0.409644
0.408477
0.407289
0.406092
0.404894
0.4037
0.402515
0.401342
0.400184
0.399043
0.397921
0.39682
0.395741
0.394684
0.393651
0.392642
0.391658
0.390699
0.389765
0.388857
0.387975
0.387119
0.386289
0.385485
0.384707
0.383955
0.383229
0.382529
0.381855
0.381205
0.380581
0.379982
0.379407
0.378855
0.378327
0.377822
0.37734
0.376879
0.376439
0.37602
0.375621
0.375241
0.374879
0.374536
0.37421
0.3739
0.373605
0.373326
0.37306
0.372808
0.372568
0.37234
0.372123
0.371916
0.371719
0.371529
0.371348
0.371173
0.371004
0.370841
0.370682
0.370527
0.370374
0.370224
0.370074
0.444384
0.42023
0.413143
0.411754
0.410759
0.409644
0.408477
0.407289
0.406092
0.404894
0.4037
0.402515
0.401342
0.400184
0.399043
0.397921
0.39682
0.395741
0.394684
0.393651
0.392642
0.391658
0.390699
0.389765
0.388857
0.387975
0.387119
0.386289
0.385485
0.384707
0.383955
0.383229
0.382529
0.381855
0.381205
0.380581
0.379982
0.379407
0.378855
0.378327
0.377822
0.37734
0.376879
0.376439
0.37602
0.375621
0.375241
0.374879
0.374536
0.37421
0.3739
0.373605
0.373326
0.37306
0.372808
0.372568
0.37234
0.372123
0.371916
0.371719
0.371529
0.371348
0.371173
0.371004
0.370841
0.370682
0.370527
0.370374
0.370224
0.370074
0.444384
0.42023
0.413143
0.411754
0.410759
0.409644
0.408477
0.407289
0.406092
0.404894
0.4037
0.402515
0.401342
0.400184
0.399043
0.397921
0.39682
0.395741
0.394684
0.393651
0.392642
0.391658
0.390699
0.389765
0.388857
0.387975
0.387119
0.386289
0.385485
0.384707
0.383955
0.383229
0.382529
0.381855
0.381205
0.380581
0.379982
0.379407
0.378855
0.378327
0.377822
0.37734
0.376879
0.376439
0.37602
0.375621
0.375241
0.374879
0.374536
0.37421
0.3739
0.373605
0.373326
0.37306
0.372808
0.372568
0.37234
0.372123
0.371916
0.371719
0.371529
0.371348
0.371173
0.371004
0.370841
0.370682
0.370527
0.370374
0.370224
0.370074
0.444384
0.42023
0.413143
0.411754
0.410759
0.409644
0.408477
0.407289
0.406092
0.404894
0.4037
0.402515
0.401342
0.400184
0.399043
0.397921
0.39682
0.395741
0.394684
0.393651
0.392642
0.391658
0.390699
0.389765
0.388857
0.387975
0.387119
0.386289
0.385485
0.384707
0.383955
0.383229
0.382529
0.381855
0.381205
0.380581
0.379982
0.379407
0.378855
0.378327
0.377822
0.37734
0.376879
0.376439
0.37602
0.375621
0.375241
0.374879
0.374536
0.37421
0.3739
0.373605
0.373326
0.37306
0.372808
0.372568
0.37234
0.372123
0.371916
0.371719
0.371529
0.371348
0.371173
0.371004
0.370841
0.370682
0.370527
0.370374
0.370224
0.370074
0.444384
0.42023
0.413143
0.411754
0.410759
0.409644
0.408477
0.407289
0.406092
0.404894
0.4037
0.402515
0.401342
0.400184
0.399043
0.397921
0.39682
0.395741
0.394684
0.393651
0.392642
0.391658
0.390699
0.389765
0.388857
0.387975
0.387119
0.386289
0.385485
0.384707
0.383955
0.383229
0.382529
0.381855
0.381205
0.380581
0.379982
0.379407
0.378855
0.378327
0.377822
0.37734
0.376879
0.376439
0.37602
0.375621
0.375241
0.374879
0.374536
0.37421
0.3739
0.373605
0.373326
0.37306
0.372808
0.372568
0.37234
0.372123
0.371916
0.371719
0.371529
0.371348
0.371173
0.371004
0.370841
0.370682
0.370527
0.370374
0.370224
0.370074
0.444384
0.42023
0.413143
0.411754
0.410759
0.409644
0.408477
0.407289
0.406092
0.404894
0.4037
0.402515
0.401342
0.400184
0.399043
0.397921
0.39682
0.395741
0.394684
0.393651
0.392642
0.391658
0.390699
0.389765
0.388857
0.387975
0.387119
0.386289
0.385485
0.384707
0.383955
0.383229
0.382529
0.381855
0.381205
0.380581
0.379982
0.379407
0.378855
0.378327
0.377822
0.37734
0.376879
0.376439
0.37602
0.375621
0.375241
0.374879
0.374536
0.37421
0.3739
0.373605
0.373326
0.37306
0.372808
0.372568
0.37234
0.372123
0.371916
0.371719
0.371529
0.371348
0.371173
0.371004
0.370841
0.370682
0.370527
0.370374
0.370224
0.370074
0.444384
0.42023
0.413143
0.411754
0.410759
0.409644
0.408477
0.407289
0.406092
0.404894
0.4037
0.402515
0.401342
0.400184
0.399043
0.397921
0.39682
0.395741
0.394684
0.393651
0.392642
0.391658
0.390699
0.389765
0.388857
0.387975
0.387119
0.386289
0.385485
0.384707
0.383955
0.383229
0.382529
0.381855
0.381205
0.380581
0.379982
0.379407
0.378855
0.378327
0.377822
0.37734
0.376879
0.376439
0.37602
0.375621
0.375241
0.374879
0.374536
0.37421
0.3739
0.373605
0.373326
0.37306
0.372808
0.372568
0.37234
0.372123
0.371916
0.371719
0.371529
0.371348
0.371173
0.371004
0.370841
0.370682
0.370527
0.370374
0.370224
0.370074
0.444384
0.42023
0.413143
0.411754
0.410759
0.409644
0.408477
0.407289
0.406092
0.404894
0.4037
0.402515
0.401342
0.400184
0.399043
0.397921
0.39682
0.395741
0.394684
0.393651
0.392642
0.391658
0.390699
0.389765
0.388857
0.387975
0.387119
0.386289
0.385485
0.384707
0.383955
0.383229
0.382529
0.381855
0.381205
0.380581
0.379982
0.379407
0.378855
0.378327
0.377822
0.37734
0.376879
0.376439
0.37602
0.375621
0.375241
0.374879
0.374536
0.37421
0.3739
0.373605
0.373326
0.37306
0.372808
0.372568
0.37234
0.372123
0.371916
0.371719
0.371529
0.371348
0.371173
0.371004
0.370841
0.370682
0.370527
0.370374
0.370224
0.370074
0.444384
0.42023
0.413143
0.411754
0.410759
0.409644
0.408477
0.407289
0.406092
0.404894
0.4037
0.402515
0.401342
0.400184
0.399043
0.397921
0.39682
0.395741
0.394684
0.393651
0.392642
0.391658
0.390699
0.389765
0.388857
0.387975
0.387119
0.386289
0.385485
0.384707
0.383955
0.383229
0.382529
0.381855
0.381205
0.380581
0.379982
0.379407
0.378855
0.378327
0.377822
0.37734
0.376879
0.376439
0.37602
0.375621
0.375241
0.374879
0.374536
0.37421
0.3739
0.373605
0.373326
0.37306
0.372808
0.372568
0.37234
0.372123
0.371916
0.371719
0.371529
0.371348
0.371173
0.371004
0.370841
0.370682
0.370527
0.370374
0.370224
0.370074
0.444384
0.42023
0.413143
0.411754
0.410759
0.409644
0.408477
0.407289
0.406092
0.404894
0.4037
0.402515
0.401342
0.400184
0.399043
0.397921
0.39682
0.395741
0.394684
0.393651
0.392642
0.391658
0.390699
0.389765
0.388857
0.387975
0.387119
0.386289
0.385485
0.384707
0.383955
0.383229
0.382529
0.381855
0.381205
0.380581
0.379982
0.379407
0.378855
0.378327
0.377822
0.37734
0.376879
0.376439
0.37602
0.375621
0.375241
0.374879
0.374536
0.37421
0.3739
0.373605
0.373326
0.37306
0.372808
0.372568
0.37234
0.372123
0.371916
0.371719
0.371529
0.371348
0.371173
0.371004
0.370841
0.370682
0.370527
0.370374
0.370224
0.370074
0.444384
0.42023
0.413143
0.411754
0.410759
0.409644
0.408477
0.407289
0.406092
0.404894
0.4037
0.402515
0.401342
0.400184
0.399043
0.397921
0.39682
0.395741
0.394684
0.393651
0.392642
0.391658
0.390699
0.389765
0.388857
0.387975
0.387119
0.386289
0.385485
0.384707
0.383955
0.383229
0.382529
0.381855
0.381205
0.380581
0.379982
0.379407
0.378855
0.378327
0.377822
0.37734
0.376879
0.376439
0.37602
0.375621
0.375241
0.374879
0.374536
0.37421
0.3739
0.373605
0.373326
0.37306
0.372808
0.372568
0.37234
0.372123
0.371916
0.371719
0.371529
0.371348
0.371173
0.371004
0.370841
0.370682
0.370527
0.370374
0.370224
0.370074
0.444384
0.42023
0.413143
0.411754
0.410759
0.409644
0.408477
0.407289
0.406092
0.404894
0.4037
0.402515
0.401342
0.400184
0.399043
0.397921
0.39682
0.395741
0.394684
0.393651
0.392642
0.391658
0.390699
0.389765
0.388857
0.387975
0.387119
0.386289
0.385485
0.384707
0.383955
0.383229
0.382529
0.381855
0.381205
0.380581
0.379982
0.379407
0.378855
0.378327
0.377822
0.37734
0.376879
0.376439
0.37602
0.375621
0.375241
0.374879
0.374536
0.37421
0.3739
0.373605
0.373326
0.37306
0.372808
0.372568
0.37234
0.372123
0.371916
0.371719
0.371529
0.371348
0.371173
0.371004
0.370841
0.370682
0.370527
0.370374
0.370224
0.370074
0.444384
0.42023
0.413143
0.411754
0.410759
0.409644
0.408477
0.407289
0.406092
0.404894
0.4037
0.402515
0.401342
0.400184
0.399043
0.397921
0.39682
0.395741
0.394684
0.393651
0.392642
0.391658
0.390699
0.389765
0.388857
0.387975
0.387119
0.386289
0.385485
0.384707
0.383955
0.383229
0.382529
0.381855
0.381205
0.380581
0.379982
0.379407
0.378855
0.378327
0.377822
0.37734
0.376879
0.376439
0.37602
0.375621
0.375241
0.374879
0.374536
0.37421
0.3739
0.373605
0.373326
0.37306
0.372808
0.372568
0.37234
0.372123
0.371916
0.371719
0.371529
0.371348
0.371173
0.371004
0.370841
0.370682
0.370527
0.370374
0.370224
0.370074
0.444384
0.42023
0.413143
0.411754
0.410759
0.409644
0.408477
0.407289
0.406092
0.404894
0.4037
0.402515
0.401342
0.400184
0.399043
0.397921
0.39682
0.395741
0.394684
0.393651
0.392642
0.391658
0.390699
0.389765
0.388857
0.387975
0.387119
0.386289
0.385485
0.384707
0.383955
0.383229
0.382529
0.381855
0.381205
0.380581
0.379982
0.379407
0.378855
0.378327
0.377822
0.37734
0.376879
0.376439
0.37602
0.375621
0.375241
0.374879
0.374536
0.37421
0.3739
0.373605
0.373326
0.37306
0.372808
0.372568
0.37234
0.372123
0.371916
0.371719
0.371529
0.371348
0.371173
0.371004
0.370841
0.370682
0.370527
0.370374
0.370224
0.370074
0.444384
0.42023
0.413143
0.411754
0.410759
0.409644
0.408477
0.407289
0.406092
0.404894
0.4037
0.402515
0.401342
0.400184
0.399043
0.397921
0.39682
0.395741
0.394684
0.393651
0.392642
0.391658
0.390699
0.389765
0.388857
0.387975
0.387119
0.386289
0.385485
0.384707
0.383955
0.383229
0.382529
0.381855
0.381205
0.380581
0.379982
0.379407
0.378855
0.378327
0.377822
0.37734
0.376879
0.376439
0.37602
0.375621
0.375241
0.374879
0.374536
0.37421
0.3739
0.373605
0.373326
0.37306
0.372808
0.372568
0.37234
0.372123
0.371916
0.371719
0.371529
0.371348
0.371173
0.371004
0.370841
0.370682
0.370527
0.370374
0.370224
0.370074
0.444384
0.42023
0.413143
0.411754
0.410759
0.409644
0.408477
0.407289
0.406092
0.404894
0.4037
0.402515
0.401342
0.400184
0.399043
0.397921
0.39682
0.395741
0.394684
0.393651
0.392642
0.391658
0.390699
0.389765
0.388857
0.387975
0.387119
0.386289
0.385485
0.384707
0.383955
0.383229
0.382529
0.381855
0.381205
0.380581
0.379982
0.379407
0.378855
0.378327
0.377822
0.37734
0.376879
0.376439
0.37602
0.375621
0.375241
0.374879
0.374536
0.37421
0.3739
0.373605
0.373326
0.37306
0.372808
0.372568
0.37234
0.372123
0.371916
0.371719
0.371529
0.371348
0.371173
0.371004
0.370841
0.370682
0.370527
0.370374
0.370224
0.370074
0.444384
0.42023
0.413143
0.411754
0.410759
0.409644
0.408477
0.407289
0.406092
0.404894
0.4037
0.402515
0.401342
0.400184
0.399043
0.397921
0.39682
0.395741
0.394684
0.393651
0.392642
0.391658
0.390699
0.389765
0.388857
0.387975
0.387119
0.386289
0.385485
0.384707
0.383955
0.383229
0.382529
0.381855
0.381205
0.380581
0.379982
0.379407
0.378855
0.378327
0.377822
0.37734
0.376879
0.376439
0.37602
0.375621
0.375241
0.374879
0.374536
0.37421
0.3739
0.373605
0.373326
0.37306
0.372808
0.372568
0.37234
0.372123
0.371916
0.371719
0.371529
0.371348
0.371173
0.371004
0.370841
0.370682
0.370527
0.370374
0.370224
0.370074
0.444384
0.42023
0.413143
0.411754
0.410759
0.409644
0.408477
0.407289
0.406092
0.404894
0.4037
0.402515
0.401342
0.400184
0.399043
0.397921
0.39682
0.395741
0.394684
0.393651
0.392642
0.391658
0.390699
0.389765
0.388857
0.387975
0.387119
0.386289
0.385485
0.384707
0.383955
0.383229
0.382529
0.381855
0.381205
0.380581
0.379982
0.379407
0.378855
0.378327
0.377822
0.37734
0.376879
0.376439
0.37602
0.375621
0.375241
0.374879
0.374536
0.37421
0.3739
0.373605
0.373326
0.37306
0.372808
0.372568
0.37234
0.372123
0.371916
0.371719
0.371529
0.371348
0.371173
0.371004
0.370841
0.370682
0.370527
0.370374
0.370224
0.370074
0.444384
0.42023
0.413143
0.411754
0.410759
0.409644
0.408477
0.407289
0.406092
0.404894
0.4037
0.402515
0.401342
0.400184
0.399043
0.397921
0.39682
0.395741
0.394684
0.393651
0.392642
0.391658
0.390699
0.389765
0.388857
0.387975
0.387119
0.386289
0.385485
0.384707
0.383955
0.383229
0.382529
0.381855
0.381205
0.380581
0.379982
0.379407
0.378855
0.378327
0.377822
0.37734
0.376879
0.376439
0.37602
0.375621
0.375241
0.374879
0.374536
0.37421
0.3739
0.373605
0.373326
0.37306
0.372808
0.372568
0.37234
0.372123
0.371916
0.371719
0.371529
0.371348
0.371173
0.371004
0.370841
0.370682
0.370527
0.370374
0.370224
0.370074
0.444384
0.42023
0.413143
0.411754
0.410759
0.409644
0.408477
0.407289
0.406092
0.404894
0.4037
0.402515
0.401342
0.400184
0.399043
0.397921
0.39682
0.395741
0.394684
0.393651
0.392642
0.391658
0.390699
0.389765
0.388857
0.387975
0.387119
0.386289
0.385485
0.384707
0.383955
0.383229
0.382529
0.381855
0.381205
0.380581
0.379982
0.379407
0.378855
0.378327
0.377822
0.37734
0.376879
0.376439
0.37602
0.375621
0.375241
0.374879
0.374536
0.37421
0.3739
0.373605
0.373326
0.37306
0.372808
0.372568
0.37234
0.372123
0.371916
0.371719
0.371529
0.371348
0.371173
0.371004
0.370841
0.370682
0.370527
0.370374
0.370224
0.370074
0.444384
0.42023
0.413143
0.411754
0.410759
0.409644
0.408477
0.407289
0.406092
0.404894
0.4037
0.402515
0.401342
0.400184
0.399043
0.397921
0.39682
0.395741
0.394684
0.393651
0.392642
0.391658
0.390699
0.389765
0.388857
0.387975
0.387119
0.386289
0.385485
0.384707
0.383955
0.383229
0.382529
0.381855
0.381205
0.380581
0.379982
0.379407
0.378855
0.378327
0.377822
0.37734
0.376879
0.376439
0.37602
0.375621
0.375241
0.374879
0.374536
0.37421
0.3739
0.373605
0.373326
0.37306
0.372808
0.372568
0.37234
0.372123
0.371916
0.371719
0.371529
0.371348
0.371173
0.371004
0.370841
0.370682
0.370527
0.370374
0.370224
0.370074
0.444384
0.42023
0.413143
0.411754
0.410759
0.409644
0.408477
0.407289
0.406092
0.404894
0.4037
0.402515
0.401342
0.400184
0.399043
0.397921
0.39682
0.395741
0.394684
0.393651
0.392642
0.391658
0.390699
0.389765
0.388857
0.387975
0.387119
0.386289
0.385485
0.384707
0.383955
0.383229
0.382529
0.381855
0.381205
0.380581
0.379982
0.379407
0.378855
0.378327
0.377822
0.37734
0.376879
0.376439
0.37602
0.375621
0.375241
0.374879
0.374536
0.37421
0.3739
0.373605
0.373326
0.37306
0.372808
0.372568
0.37234
0.372123
0.371916
0.371719
0.371529
0.371348
0.371173
0.371004
0.370841
0.370682
0.370527
0.370374
0.370224
0.370074
0.444384
0.42023
0.413143
0.411754
0.410759
0.409644
0.408477
0.407289
0.406092
0.404894
0.4037
0.402515
0.401342
0.400184
0.399043
0.397921
0.39682
0.395741
0.394684
0.393651
0.392642
0.391658
0.390699
0.389765
0.388857
0.387975
0.387119
0.386289
0.385485
0.384707
0.383955
0.383229
0.382529
0.381855
0.381205
0.380581
0.379982
0.379407
0.378855
0.378327
0.377822
0.37734
0.376879
0.376439
0.37602
0.375621
0.375241
0.374879
0.374536
0.37421
0.3739
0.373605
0.373326
0.37306
0.372808
0.372568
0.37234
0.372123
0.371916
0.371719
0.371529
0.371348
0.371173
0.371004
0.370841
0.370682
0.370527
0.370374
0.370224
0.370074
0.444384
0.42023
0.413143
0.411754
0.410759
0.409644
0.408477
0.407289
0.406092
0.404894
0.4037
0.402515
0.401342
0.400184
0.399043
0.397921
0.39682
0.395741
0.394684
0.393651
0.392642
0.391658
0.390699
0.389765
0.388857
0.387975
0.387119
0.386289
0.385485
0.384707
0.383955
0.383229
0.382529
0.381855
0.381205
0.380581
0.379982
0.379407
0.378855
0.378327
0.377822
0.37734
0.376879
0.376439
0.37602
0.375621
0.375241
0.374879
0.374536
0.37421
0.3739
0.373605
0.373326
0.37306
0.372808
0.372568
0.37234
0.372123
0.371916
0.371719
0.371529
0.371348
0.371173
0.371004
0.370841
0.370682
0.370527
0.370374
0.370224
0.370074
0.444384
0.42023
0.413143
0.411754
0.410759
0.409644
0.408477
0.407289
0.406092
0.404894
0.4037
0.402515
0.401342
0.400184
0.399043
0.397921
0.39682
0.395741
0.394684
0.393651
0.392642
0.391658
0.390699
0.389765
0.388857
0.387975
0.387119
0.386289
0.385485
0.384707
0.383955
0.383229
0.382529
0.381855
0.381205
0.380581
0.379982
0.379407
0.378855
0.378327
0.377822
0.37734
0.376879
0.376439
0.37602
0.375621
0.375241
0.374879
0.374536
0.37421
0.3739
0.373605
0.373326
0.37306
0.372808
0.372568
0.37234
0.372123
0.371916
0.371719
0.371529
0.371348
0.371173
0.371004
0.370841
0.370682
0.370527
0.370374
0.370224
0.370074
0.444384
0.42023
0.413143
0.411754
0.410759
0.409644
0.408477
0.407289
0.406092
0.404894
0.4037
0.402515
0.401342
0.400184
0.399043
0.397921
0.39682
0.395741
0.394684
0.393651
0.392642
0.391658
0.390699
0.389765
0.388857
0.387975
0.387119
0.386289
0.385485
0.384707
0.383955
0.383229
0.382529
0.381855
0.381205
0.380581
0.379982
0.379407
0.378855
0.378327
0.377822
0.37734
0.376879
0.376439
0.37602
0.375621
0.375241
0.374879
0.374536
0.37421
0.3739
0.373605
0.373326
0.37306
0.372808
0.372568
0.37234
0.372123
0.371916
0.371719
0.371529
0.371348
0.371173
0.371004
0.370841
0.370682
0.370527
0.370374
0.370224
0.370074
0.444384
0.42023
0.413143
0.411754
0.410759
0.409644
0.408477
0.407289
0.406092
0.404894
0.4037
0.402515
0.401342
0.400184
0.399043
0.397921
0.39682
0.395741
0.394684
0.393651
0.392642
0.391658
0.390699
0.389765
0.388857
0.387975
0.387119
0.386289
0.385485
0.384707
0.383955
0.383229
0.382529
0.381855
0.381205
0.380581
0.379982
0.379407
0.378855
0.378327
0.377822
0.37734
0.376879
0.376439
0.37602
0.375621
0.375241
0.374879
0.374536
0.37421
0.3739
0.373605
0.373326
0.37306
0.372808
0.372568
0.37234
0.372123
0.371916
0.371719
0.371529
0.371348
0.371173
0.371004
0.370841
0.370682
0.370527
0.370374
0.370224
0.370074
0.444384
0.42023
0.413143
0.411754
0.410759
0.409644
0.408477
0.407289
0.406092
0.404894
0.4037
0.402515
0.401342
0.400184
0.399043
0.397921
0.39682
0.395741
0.394684
0.393651
0.392642
0.391658
0.390699
0.389765
0.388857
0.387975
0.387119
0.386289
0.385485
0.384707
0.383955
0.383229
0.382529
0.381855
0.381205
0.380581
0.379982
0.379407
0.378855
0.378327
0.377822
0.37734
0.376879
0.376439
0.37602
0.375621
0.375241
0.374879
0.374536
0.37421
0.3739
0.373605
0.373326
0.37306
0.372808
0.372568
0.37234
0.372123
0.371916
0.371719
0.371529
0.371348
0.371173
0.371004
0.370841
0.370682
0.370527
0.370374
0.370224
0.370074
0.444384
0.42023
0.413143
0.411754
0.410759
0.409644
0.408477
0.407289
0.406092
0.404894
0.4037
0.402515
0.401342
0.400184
0.399043
0.397921
0.39682
0.395741
0.394684
0.393651
0.392642
0.391658