/*--------------------------------*- C++ -*----------------------------------*\
  =========                 |
  \\      /  F ield         | OpenFOAM: The Open Source CFD Toolbox
   \\    /   O peration     | Website:  https://openfoam.org
    \\  /    A nd           | Version:  13
     \\/     M anipulation  |
\*---------------------------------------------------------------------------*/
FoamFile
{
    format      ascii;
    class       volScalarField;
    location    "32.5";
    object      rhok;
}
// * * * * * * * * * * * * * * * * * * * * * * * * * * * * * * * * * * * * * //

dimensions      [];

internalField   nonuniform List<scalar> 
315000
(
0.444268
0.415187
0.412419
0.410981
0.409559
0.408155
0.406769
0.405403
0.404056
0.402729
0.401425
0.400143
0.398884
0.39765
0.396441
0.395258
0.394102
0.392974
0.391874
0.390803
0.389762
0.388752
0.387772
0.386823
0.385906
0.38502
0.384166
0.383345
0.382555
0.381797
0.381071
0.380377
0.379713
0.37908
0.378478
0.377905
0.377361
0.376845
0.376357
0.375896
0.375461
0.375051
0.374666
0.374303
0.373964
0.373645
0.373347
0.373069
0.372809
0.372567
0.372342
0.372132
0.371937
0.371756
0.371587
0.371431
0.371286
0.371151
0.371025
0.370908
0.370799
0.370696
0.3706
0.370509
0.370423
0.370341
0.370262
0.370185
0.37011
0.370037
0.444268
0.415188
0.41242
0.410982
0.40956
0.408155
0.406769
0.405401
0.404053
0.402726
0.40142
0.400137
0.398877
0.397641
0.396431
0.395246
0.394089
0.392959
0.391858
0.390785
0.389743
0.388731
0.38775
0.3868
0.385882
0.384995
0.384141
0.383319
0.382529
0.381771
0.381045
0.38035
0.379686
0.379054
0.378452
0.377879
0.377335
0.37682
0.376333
0.375873
0.375438
0.375029
0.374644
0.374283
0.373944
0.373626
0.373329
0.373052
0.372793
0.372552
0.372327
0.372118
0.371924
0.371744
0.371576
0.371421
0.371276
0.371142
0.371017
0.370901
0.370792
0.370691
0.370595
0.370505
0.37042
0.370338
0.37026
0.370184
0.370109
0.370036
0.444269
0.415213
0.412448
0.41101
0.409589
0.408184
0.406797
0.405429
0.40408
0.402751
0.401444
0.400159
0.398897
0.397659
0.396447
0.39526
0.3941
0.392968
0.391864
0.390789
0.389745
0.38873
0.387747
0.386795
0.385875
0.384987
0.384131
0.383308
0.382517
0.381757
0.38103
0.380335
0.379671
0.379038
0.378435
0.377862
0.377319
0.376804
0.376317
0.375856
0.375422
0.375014
0.374629
0.374268
0.37393
0.373613
0.373316
0.373039
0.372781
0.372541
0.372317
0.372108
0.371915
0.371735
0.371568
0.371413
0.371269
0.371136
0.371012
0.370896
0.370788
0.370687
0.370592
0.370502
0.370417
0.370336
0.370258
0.370182
0.370109
0.370036
0.44427
0.415264
0.412501
0.411065
0.409645
0.40824
0.406853
0.405484
0.404134
0.402804
0.401495
0.400207
0.398943
0.397702
0.396487
0.395297
0.394134
0.392998
0.391891
0.390813
0.389765
0.388748
0.387762
0.386807
0.385884
0.384994
0.384135
0.38331
0.382516
0.381756
0.381027
0.38033
0.379665
0.379031
0.378427
0.377854
0.37731
0.376794
0.376307
0.375847
0.375412
0.375004
0.374619
0.374259
0.37392
0.373604
0.373307
0.373031
0.372773
0.372533
0.372309
0.372101
0.371908
0.371729
0.371562
0.371408
0.371265
0.371131
0.371007
0.370892
0.370784
0.370684
0.370589
0.3705
0.370415
0.370334
0.370257
0.370182
0.370108
0.370036
0.444272
0.415327
0.412569
0.411134
0.409715
0.408311
0.406924
0.405554
0.404203
0.402871
0.40156
0.40027
0.399003
0.397759
0.396541
0.395347
0.39418
0.393041
0.39193
0.390849
0.389797
0.388776
0.387787
0.386829
0.385903
0.385009
0.384148
0.38332
0.382524
0.381761
0.381031
0.380332
0.379666
0.37903
0.378426
0.377851
0.377306
0.37679
0.376302
0.375842
0.375407
0.374998
0.374614
0.374253
0.373915
0.373598
0.373302
0.373026
0.372768
0.372528
0.372304
0.372097
0.371904
0.371725
0.371559
0.371404
0.371261
0.371128
0.371005
0.37089
0.370782
0.370682
0.370587
0.370498
0.370414
0.370333
0.370256
0.370181
0.370108
0.370036
0.444273
0.415384
0.41263
0.411197
0.409779
0.408376
0.406989
0.405619
0.404267
0.402934
0.401621
0.400329
0.399059
0.397813
0.396591
0.395395
0.394225
0.393083
0.391969
0.390884
0.389829
0.388805
0.387812
0.386851
0.385922
0.385026
0.384163
0.383332
0.382535
0.38177
0.381037
0.380337
0.379669
0.379033
0.378427
0.377852
0.377306
0.376789
0.376301
0.375839
0.375405
0.374995
0.374611
0.37425
0.373911
0.373595
0.373299
0.373022
0.372765
0.372525
0.372301
0.372094
0.371901
0.371722
0.371556
0.371402
0.371259
0.371126
0.371003
0.370888
0.370781
0.37068
0.370586
0.370497
0.370413
0.370333
0.370255
0.370181
0.370108
0.370036
0.444274
0.415425
0.412673
0.411242
0.409824
0.408422
0.407035
0.405665
0.404312
0.402978
0.401664
0.400371
0.3991
0.397852
0.396628
0.39543
0.394258
0.393113
0.391997
0.39091
0.389853
0.388826
0.387831
0.386868
0.385938
0.38504
0.384174
0.383342
0.382543
0.381777
0.381043
0.380342
0.379673
0.379035
0.378429
0.377853
0.377307
0.376789
0.3763
0.375839
0.375404
0.374994
0.374609
0.374248
0.37391
0.373593
0.373297
0.37302
0.372763
0.372523
0.3723
0.372092
0.3719
0.371721
0.371555
0.371401
0.371258
0.371125
0.371002
0.370887
0.37078
0.370679
0.370585
0.370497
0.370412
0.370332
0.370255
0.37018
0.370108
0.370036
0.444275
0.415448
0.412699
0.411268
0.409851
0.408449
0.407062
0.405692
0.404339
0.403005
0.40169
0.400396
0.399124
0.397875
0.39665
0.395451
0.394278
0.393132
0.392014
0.390926
0.389867
0.38884
0.387843
0.386879
0.385947
0.385048
0.384182
0.383349
0.382548
0.381781
0.381047
0.380345
0.379675
0.379037
0.37843
0.377854
0.377307
0.376789
0.3763
0.375838
0.375403
0.374993
0.374608
0.374247
0.373909
0.373592
0.373296
0.373019
0.372762
0.372522
0.372299
0.372091
0.371899
0.37172
0.371554
0.3714
0.371257
0.371124
0.371001
0.370886
0.370779
0.370679
0.370585
0.370496
0.370412
0.370332
0.370255
0.37018
0.370107
0.370036
0.444275
0.41546
0.412712
0.411281
0.409865
0.408463
0.407076
0.405706
0.404353
0.403019
0.401704
0.40041
0.399137
0.397888
0.396662
0.395462
0.394288
0.393141
0.392023
0.390934
0.389875
0.388847
0.38785
0.386885
0.385952
0.385052
0.384186
0.383352
0.382551
0.381784
0.381049
0.380347
0.379677
0.379038
0.378431
0.377854
0.377307
0.37679
0.3763
0.375838
0.375403
0.374993
0.374608
0.374247
0.373908
0.373591
0.373295
0.373019
0.372761
0.372521
0.372298
0.372091
0.371898
0.371719
0.371553
0.371399
0.371257
0.371124
0.371001
0.370886
0.370779
0.370679
0.370585
0.370496
0.370412
0.370332
0.370255
0.37018
0.370107
0.370036
0.444275
0.415465
0.412718
0.411288
0.409872
0.40847
0.407083
0.405713
0.40436
0.403026
0.401711
0.400416
0.399144
0.397894
0.396668
0.395468
0.394293
0.393146
0.392028
0.390938
0.389879
0.38885
0.387853
0.386888
0.385955
0.385055
0.384188
0.383354
0.382553
0.381785
0.38105
0.380347
0.379677
0.379039
0.378431
0.377854
0.377307
0.37679
0.3763
0.375838
0.375403
0.374993
0.374608
0.374246
0.373908
0.373591
0.373295
0.373018
0.372761
0.372521
0.372298
0.37209
0.371898
0.371719
0.371553
0.371399
0.371256
0.371124
0.371001
0.370886
0.370779
0.370679
0.370585
0.370496
0.370412
0.370332
0.370255
0.37018
0.370107
0.370036
0.444275
0.415468
0.412721
0.411291
0.409875
0.408473
0.407086
0.405716
0.404363
0.403029
0.401714
0.400419
0.399146
0.397897
0.396671
0.39547
0.394296
0.393149
0.39203
0.39094
0.38988
0.388852
0.387854
0.386889
0.385956
0.385056
0.384188
0.383354
0.382553
0.381785
0.38105
0.380348
0.379677
0.379039
0.378431
0.377854
0.377307
0.37679
0.3763
0.375838
0.375402
0.374993
0.374608
0.374246
0.373908
0.373591
0.373295
0.373018
0.372761
0.372521
0.372298
0.37209
0.371898
0.371719
0.371553
0.371399
0.371256
0.371124
0.371
0.370886
0.370779
0.370679
0.370585
0.370496
0.370412
0.370332
0.370255
0.37018
0.370107
0.370036
0.444275
0.415469
0.412722
0.411292
0.409876
0.408474
0.407088
0.405717
0.404365
0.40303
0.401715
0.40042
0.399148
0.397898
0.396672
0.395471
0.394297
0.393149
0.392031
0.390941
0.389881
0.388852
0.387855
0.386889
0.385956
0.385056
0.384189
0.383355
0.382554
0.381786
0.38105
0.380348
0.379678
0.379039
0.378431
0.377854
0.377307
0.37679
0.3763
0.375838
0.375402
0.374993
0.374607
0.374246
0.373907
0.373591
0.373295
0.373018
0.372761
0.372521
0.372298
0.37209
0.371898
0.371719
0.371553
0.371399
0.371256
0.371124
0.371
0.370886
0.370779
0.370679
0.370585
0.370496
0.370412
0.370332
0.370255
0.37018
0.370107
0.370036
0.444275
0.415469
0.412722
0.411292
0.409876
0.408474
0.407088
0.405718
0.404365
0.40303
0.401715
0.400421
0.399148
0.397898
0.396672
0.395471
0.394297
0.39315
0.392031
0.390941
0.389881
0.388852
0.387855
0.38689
0.385956
0.385056
0.384189
0.383355
0.382554
0.381786
0.38105
0.380348
0.379678
0.379039
0.378431
0.377854
0.377307
0.37679
0.3763
0.375838
0.375402
0.374992
0.374607
0.374246
0.373907
0.373591
0.373295
0.373018
0.372761
0.372521
0.372298
0.37209
0.371898
0.371719
0.371553
0.371399
0.371256
0.371124
0.371
0.370886
0.370779
0.370678
0.370584
0.370496
0.370412
0.370332
0.370255
0.37018
0.370107
0.370036
0.444275
0.415469
0.412722
0.411292
0.409876
0.408475
0.407088
0.405718
0.404365
0.403031
0.401715
0.400421
0.399148
0.397898
0.396672
0.395472
0.394297
0.39315
0.392031
0.390941
0.389881
0.388853
0.387855
0.38689
0.385957
0.385056
0.384189
0.383355
0.382554
0.381786
0.381051
0.380348
0.379678
0.379039
0.378431
0.377854
0.377307
0.376789
0.3763
0.375838
0.375402
0.374992
0.374607
0.374246
0.373907
0.373591
0.373295
0.373018
0.372761
0.372521
0.372298
0.37209
0.371898
0.371719
0.371553
0.371399
0.371256
0.371124
0.371
0.370886
0.370779
0.370678
0.370584
0.370496
0.370412
0.370332
0.370255
0.37018
0.370107
0.370036
0.444275
0.415469
0.412722
0.411293
0.409876
0.408475
0.407088
0.405718
0.404365
0.403031
0.401716
0.400421
0.399148
0.397898
0.396672
0.395472
0.394297
0.39315
0.392031
0.390941
0.389881
0.388853
0.387855
0.38689
0.385957
0.385056
0.384189
0.383355
0.382554
0.381786
0.381051
0.380348
0.379678
0.379039
0.378431
0.377854
0.377307
0.376789
0.3763
0.375838
0.375402
0.374992
0.374607
0.374246
0.373907
0.373591
0.373294
0.373018
0.372761
0.372521
0.372298
0.37209
0.371898
0.371719
0.371553
0.371399
0.371256
0.371124
0.371
0.370886
0.370779
0.370678
0.370584
0.370496
0.370412
0.370332
0.370255
0.37018
0.370107
0.370036
0.444275
0.415469
0.412722
0.411293
0.409876
0.408475
0.407088
0.405718
0.404365
0.403031
0.401716
0.400421
0.399148
0.397898
0.396672
0.395472
0.394297
0.39315
0.392031
0.390941
0.389881
0.388853
0.387855
0.38689
0.385957
0.385056
0.384189
0.383355
0.382554
0.381786
0.38105
0.380348
0.379678
0.379039
0.378431
0.377854
0.377307
0.376789
0.3763
0.375838
0.375402
0.374992
0.374607
0.374246
0.373907
0.373591
0.373294
0.373018
0.372761
0.372521
0.372298
0.37209
0.371898
0.371719
0.371553
0.371399
0.371256
0.371124
0.371
0.370886
0.370779
0.370678
0.370584
0.370496
0.370412
0.370332
0.370255
0.37018
0.370107
0.370036
0.444275
0.415469
0.412722
0.411293
0.409876
0.408475
0.407088
0.405718
0.404365
0.403031
0.401716
0.400421
0.399148
0.397898
0.396672
0.395472
0.394297
0.39315
0.392031
0.390941
0.389881
0.388853
0.387855
0.38689
0.385957
0.385056
0.384189
0.383355
0.382554
0.381786
0.38105
0.380348
0.379678
0.379039
0.378431
0.377854
0.377307
0.376789
0.3763
0.375838
0.375402
0.374992
0.374607
0.374246
0.373907
0.373591
0.373294
0.373018
0.372761
0.372521
0.372298
0.37209
0.371898
0.371719
0.371553
0.371399
0.371256
0.371124
0.371
0.370886
0.370779
0.370678
0.370584
0.370496
0.370412
0.370332
0.370255
0.37018
0.370107
0.370036
0.444275
0.415469
0.412722
0.411293
0.409876
0.408475
0.407088
0.405718
0.404365
0.403031
0.401716
0.400421
0.399148
0.397898
0.396672
0.395472
0.394297
0.39315
0.392031
0.390941
0.389881
0.388853
0.387855
0.38689
0.385957
0.385056
0.384189
0.383355
0.382554
0.381786
0.38105
0.380348
0.379678
0.379039
0.378431
0.377854
0.377307
0.376789
0.3763
0.375838
0.375402
0.374992
0.374607
0.374246
0.373907
0.373591
0.373294
0.373018
0.372761
0.372521
0.372298
0.37209
0.371898
0.371719
0.371553
0.371399
0.371256
0.371124
0.371
0.370886
0.370779
0.370678
0.370584
0.370496
0.370412
0.370332
0.370255
0.37018
0.370107
0.370036
0.444275
0.415469
0.412722
0.411293
0.409876
0.408475
0.407088
0.405718
0.404365
0.403031
0.401716
0.400421
0.399148
0.397898
0.396672
0.395472
0.394297
0.39315
0.392031
0.390941
0.389881
0.388853
0.387855
0.38689
0.385957
0.385056
0.384189
0.383355
0.382554
0.381786
0.38105
0.380348
0.379678
0.379039
0.378431
0.377854
0.377307
0.376789
0.3763
0.375838
0.375402
0.374992
0.374607
0.374246
0.373907
0.373591
0.373294
0.373018
0.372761
0.372521
0.372298
0.37209
0.371898
0.371719
0.371553
0.371399
0.371256
0.371124
0.371
0.370886
0.370779
0.370678
0.370584
0.370496
0.370412
0.370332
0.370255
0.37018
0.370107
0.370036
0.444275
0.415469
0.412722
0.411293
0.409876
0.408475
0.407088
0.405718
0.404365
0.403031
0.401716
0.400421
0.399148
0.397898
0.396672
0.395472
0.394297
0.39315
0.392031
0.390941
0.389881
0.388853
0.387855
0.38689
0.385957
0.385056
0.384189
0.383355
0.382554
0.381786
0.38105
0.380348
0.379678
0.379039
0.378431
0.377854
0.377307
0.376789
0.3763
0.375838
0.375402
0.374992
0.374607
0.374246
0.373907
0.373591
0.373294
0.373018
0.372761
0.372521
0.372298
0.37209
0.371898
0.371719
0.371553
0.371399
0.371256
0.371124
0.371
0.370886
0.370779
0.370678
0.370584
0.370496
0.370412
0.370332
0.370255
0.37018
0.370107
0.370036
0.444275
0.415469
0.412722
0.411293
0.409876
0.408475
0.407088
0.405718
0.404365
0.403031
0.401716
0.400421
0.399148
0.397898
0.396672
0.395472
0.394297
0.39315
0.392031
0.390941
0.389881
0.388853
0.387855
0.38689
0.385957
0.385056
0.384189
0.383355
0.382554
0.381786
0.38105
0.380348
0.379678
0.379039
0.378431
0.377854
0.377307
0.376789
0.3763
0.375838
0.375402
0.374992
0.374607
0.374246
0.373907
0.373591
0.373294
0.373018
0.372761
0.372521
0.372298
0.37209
0.371898
0.371719
0.371553
0.371399
0.371256
0.371124
0.371
0.370886
0.370779
0.370678
0.370584
0.370496
0.370412
0.370332
0.370255
0.37018
0.370107
0.370036
0.444275
0.415469
0.412722
0.411293
0.409876
0.408475
0.407088
0.405718
0.404365
0.403031
0.401716
0.400421
0.399148
0.397898
0.396672
0.395472
0.394297
0.39315
0.392031
0.390941
0.389881
0.388853
0.387855
0.38689
0.385957
0.385056
0.384189
0.383355
0.382554
0.381786
0.38105
0.380348
0.379678
0.379039
0.378431
0.377854
0.377307
0.376789
0.3763
0.375838
0.375402
0.374992
0.374607
0.374246
0.373907
0.373591
0.373294
0.373018
0.372761
0.372521
0.372298
0.37209
0.371898
0.371719
0.371553
0.371399
0.371256
0.371124
0.371
0.370886
0.370779
0.370678
0.370584
0.370496
0.370412
0.370332
0.370255
0.37018
0.370107
0.370036
0.444275
0.415469
0.412722
0.411293
0.409876
0.408475
0.407088
0.405718
0.404365
0.403031
0.401716
0.400421
0.399148
0.397898
0.396672
0.395472
0.394297
0.39315
0.392031
0.390941
0.389881
0.388853
0.387855
0.38689
0.385957
0.385056
0.384189
0.383355
0.382554
0.381786
0.38105
0.380348
0.379678
0.379039
0.378431
0.377854
0.377307
0.376789
0.3763
0.375838
0.375402
0.374992
0.374607
0.374246
0.373907
0.373591
0.373294
0.373018
0.372761
0.372521
0.372298
0.37209
0.371898
0.371719
0.371553
0.371399
0.371256
0.371124
0.371
0.370886
0.370779
0.370678
0.370584
0.370496
0.370412
0.370332
0.370255
0.37018
0.370107
0.370036
0.444275
0.415469
0.412722
0.411293
0.409876
0.408475
0.407088
0.405718
0.404365
0.403031
0.401716
0.400421
0.399148
0.397898
0.396672
0.395472
0.394297
0.39315
0.392031
0.390941
0.389881
0.388853
0.387855
0.38689
0.385957
0.385056
0.384189
0.383355
0.382554
0.381786
0.38105
0.380348
0.379678
0.379039
0.378431
0.377854
0.377307
0.376789
0.3763
0.375838
0.375402
0.374992
0.374607
0.374246
0.373907
0.373591
0.373294
0.373018
0.372761
0.372521
0.372298
0.37209
0.371898
0.371719
0.371553
0.371399
0.371256
0.371124
0.371
0.370886
0.370779
0.370678
0.370584
0.370496
0.370412
0.370332
0.370255
0.37018
0.370107
0.370036
0.444275
0.415469
0.412722
0.411293
0.409876
0.408475
0.407088
0.405718
0.404365
0.403031
0.401716
0.400421
0.399148
0.397898
0.396672
0.395472
0.394297
0.39315
0.392031
0.390941
0.389881
0.388853
0.387855
0.38689
0.385957
0.385056
0.384189
0.383355
0.382554
0.381786
0.38105
0.380348
0.379678
0.379039
0.378431
0.377854
0.377307
0.376789
0.3763
0.375838
0.375402
0.374992
0.374607
0.374246
0.373907
0.373591
0.373294
0.373018
0.372761
0.372521
0.372298
0.37209
0.371898
0.371719
0.371553
0.371399
0.371256
0.371124
0.371
0.370886
0.370779
0.370678
0.370584
0.370496
0.370412
0.370332
0.370255
0.37018
0.370107
0.370036
0.444275
0.415469
0.412722
0.411293
0.409876
0.408475
0.407088
0.405718
0.404365
0.403031
0.401716
0.400421
0.399148
0.397898
0.396672
0.395472
0.394297
0.39315
0.392031
0.390941
0.389881
0.388853
0.387855
0.38689
0.385957
0.385056
0.384189
0.383355
0.382554
0.381786
0.38105
0.380348
0.379678
0.379039
0.378431
0.377854
0.377307
0.376789
0.3763
0.375838
0.375402
0.374992
0.374607
0.374246
0.373907
0.373591
0.373294
0.373018
0.372761
0.372521
0.372298
0.37209
0.371898
0.371719
0.371553
0.371399
0.371256
0.371124
0.371
0.370886
0.370779
0.370678
0.370584
0.370496
0.370412
0.370332
0.370255
0.37018
0.370107
0.370036
0.444275
0.415469
0.412722
0.411293
0.409876
0.408475
0.407088
0.405718
0.404365
0.403031
0.401716
0.400421
0.399148
0.397898
0.396672
0.395472
0.394297
0.39315
0.392031
0.390941
0.389881
0.388853
0.387855
0.38689
0.385957
0.385056
0.384189
0.383355
0.382554
0.381786
0.38105
0.380348
0.379678
0.379039
0.378431
0.377854
0.377307
0.376789
0.3763
0.375838
0.375402
0.374992
0.374607
0.374246
0.373907
0.373591
0.373294
0.373018
0.372761
0.372521
0.372298
0.37209
0.371898
0.371719
0.371553
0.371399
0.371256
0.371124
0.371
0.370886
0.370779
0.370678
0.370584
0.370496
0.370412
0.370332
0.370255
0.37018
0.370107
0.370036
0.444275
0.415469
0.412722
0.411293
0.409876
0.408475
0.407088
0.405718
0.404365
0.403031
0.401716
0.400421
0.399148
0.397898
0.396672
0.395472
0.394297
0.39315
0.392031
0.390941
0.389881
0.388853
0.387855
0.38689
0.385957
0.385056
0.384189
0.383355
0.382554
0.381786
0.38105
0.380348
0.379678
0.379039
0.378431
0.377854
0.377307
0.376789
0.3763
0.375838
0.375402
0.374992
0.374607
0.374246
0.373907
0.373591
0.373294
0.373018
0.372761
0.372521
0.372298
0.37209
0.371898
0.371719
0.371553
0.371399
0.371256
0.371124
0.371
0.370886
0.370779
0.370678
0.370584
0.370496
0.370412
0.370332
0.370255
0.37018
0.370107
0.370036
0.444275
0.415469
0.412722
0.411293
0.409876
0.408475
0.407088
0.405718
0.404365
0.403031
0.401716
0.400421
0.399148
0.397898
0.396672
0.395472
0.394297
0.39315
0.392031
0.390941
0.389881
0.388853
0.387855
0.38689
0.385957
0.385056
0.384189
0.383355
0.382554
0.381786
0.38105
0.380348
0.379678
0.379039
0.378431
0.377854
0.377307
0.376789
0.3763
0.375838
0.375402
0.374992
0.374607
0.374246
0.373907
0.373591
0.373294
0.373018
0.372761
0.372521
0.372298
0.37209
0.371898
0.371719
0.371553
0.371399
0.371256
0.371124
0.371
0.370886
0.370779
0.370678
0.370584
0.370496
0.370412
0.370332
0.370255
0.37018
0.370107
0.370036
0.444275
0.415469
0.412722
0.411293
0.409876
0.408475
0.407088
0.405718
0.404365
0.403031
0.401716
0.400421
0.399148
0.397898
0.396672
0.395472
0.394297
0.39315
0.392031
0.390941
0.389881
0.388853
0.387855
0.38689
0.385957
0.385056
0.384189
0.383355
0.382554
0.381786
0.38105
0.380348
0.379678
0.379039
0.378431
0.377854
0.377307
0.376789
0.3763
0.375838
0.375402
0.374992
0.374607
0.374246
0.373907
0.373591
0.373294
0.373018
0.372761
0.372521
0.372298
0.37209
0.371898
0.371719
0.371553
0.371399
0.371256
0.371124
0.371
0.370886
0.370779
0.370678
0.370584
0.370496
0.370412
0.370332
0.370255
0.37018
0.370107
0.370036
0.444275
0.415469
0.412722
0.411293
0.409876
0.408475
0.407088
0.405718
0.404365
0.403031
0.401716
0.400421
0.399148
0.397898
0.396672
0.395472
0.394297
0.39315
0.392031
0.390941
0.389881
0.388853
0.387855
0.38689
0.385957
0.385056
0.384189
0.383355
0.382554
0.381786
0.38105
0.380348
0.379678
0.379039
0.378431
0.377854
0.377307
0.376789
0.3763
0.375838
0.375402
0.374992
0.374607
0.374246
0.373907
0.373591
0.373294
0.373018
0.372761
0.372521
0.372298
0.37209
0.371898
0.371719
0.371553
0.371399
0.371256
0.371124
0.371
0.370886
0.370779
0.370678
0.370584
0.370496
0.370412
0.370332
0.370255
0.37018
0.370107
0.370036
0.444275
0.415469
0.412722
0.411293
0.409876
0.408475
0.407088
0.405718
0.404365
0.403031
0.401716
0.400421
0.399148
0.397898
0.396672
0.395472
0.394297
0.39315
0.392031
0.390941
0.389881
0.388853
0.387855
0.38689
0.385957
0.385056
0.384189
0.383355
0.382554
0.381786
0.38105
0.380348
0.379678
0.379039
0.378431
0.377854
0.377307
0.376789
0.3763
0.375838
0.375402
0.374992
0.374607
0.374246
0.373907
0.373591
0.373294
0.373018
0.372761
0.372521
0.372298
0.37209
0.371898
0.371719
0.371553
0.371399
0.371256
0.371124
0.371
0.370886
0.370779
0.370678
0.370584
0.370496
0.370412
0.370332
0.370255
0.37018
0.370107
0.370036
0.444275
0.415469
0.412722
0.411293
0.409876
0.408475
0.407088
0.405718
0.404365
0.403031
0.401716
0.400421
0.399148
0.397898
0.396672
0.395472
0.394297
0.39315
0.392031
0.390941
0.389881
0.388853
0.387855
0.38689
0.385957
0.385056
0.384189
0.383355
0.382554
0.381786
0.38105
0.380348
0.379678
0.379039
0.378431
0.377854
0.377307
0.376789
0.3763
0.375838
0.375402
0.374992
0.374607
0.374246
0.373907
0.373591
0.373294
0.373018
0.372761
0.372521
0.372298
0.37209
0.371898
0.371719
0.371553
0.371399
0.371256
0.371124
0.371
0.370886
0.370779
0.370678
0.370584
0.370496
0.370412
0.370332
0.370255
0.37018
0.370107
0.370036
0.444275
0.415469
0.412722
0.411293
0.409876
0.408475
0.407088
0.405718
0.404365
0.403031
0.401716
0.400421
0.399148
0.397898
0.396672
0.395472
0.394297
0.39315
0.392031
0.390941
0.389881
0.388853
0.387855
0.38689
0.385957
0.385056
0.384189
0.383355
0.382554
0.381786
0.38105
0.380348
0.379678
0.379039
0.378431
0.377854
0.377307
0.376789
0.3763
0.375838
0.375402
0.374992
0.374607
0.374246
0.373907
0.373591
0.373294
0.373018
0.372761
0.372521
0.372298
0.37209
0.371898
0.371719
0.371553
0.371399
0.371256
0.371124
0.371
0.370886
0.370779
0.370678
0.370584
0.370496
0.370412
0.370332
0.370255
0.37018
0.370107
0.370036
0.444275
0.415469
0.412722
0.411293
0.409876
0.408475
0.407088
0.405718
0.404365
0.403031
0.401716
0.400421
0.399148
0.397898
0.396672
0.395472
0.394297
0.39315
0.392031
0.390941
0.389881
0.388853
0.387855
0.38689
0.385957
0.385056
0.384189
0.383355
0.382554
0.381786
0.38105
0.380348
0.379678
0.379039
0.378431
0.377854
0.377307
0.376789
0.3763
0.375838
0.375402
0.374992
0.374607
0.374246
0.373907
0.373591
0.373294
0.373018
0.372761
0.372521
0.372298
0.37209
0.371898
0.371719
0.371553
0.371399
0.371256
0.371124
0.371
0.370886
0.370779
0.370678
0.370584
0.370496
0.370412
0.370332
0.370255
0.37018
0.370107
0.370036
0.444275
0.415469
0.412722
0.411293
0.409876
0.408475
0.407088
0.405718
0.404365
0.403031
0.401716
0.400421
0.399148
0.397898
0.396672
0.395472
0.394297
0.39315
0.392031
0.390941
0.389881
0.388853
0.387855
0.38689
0.385957
0.385056
0.384189
0.383355
0.382554
0.381786
0.38105
0.380348
0.379678
0.379039
0.378431
0.377854
0.377307
0.376789
0.3763
0.375838
0.375402
0.374992
0.374607
0.374246
0.373907
0.373591
0.373294
0.373018
0.372761
0.372521
0.372298
0.37209
0.371898
0.371719
0.371553
0.371399
0.371256
0.371124
0.371
0.370886
0.370779
0.370678
0.370584
0.370496
0.370412
0.370332
0.370255
0.37018
0.370107
0.370036
0.444275
0.415469
0.412722
0.411293
0.409876
0.408475
0.407088
0.405718
0.404365
0.403031
0.401716
0.400421
0.399148
0.397898
0.396672
0.395472
0.394297
0.39315
0.392031
0.390941
0.389881
0.388853
0.387855
0.38689
0.385957
0.385056
0.384189
0.383355
0.382554
0.381786
0.38105
0.380348
0.379678
0.379039
0.378431
0.377854
0.377307
0.376789
0.3763
0.375838
0.375402
0.374992
0.374607
0.374246
0.373907
0.373591
0.373294
0.373018
0.372761
0.372521
0.372298
0.37209
0.371898
0.371719
0.371553
0.371399
0.371256
0.371124
0.371
0.370886
0.370779
0.370678
0.370584
0.370496
0.370412
0.370332
0.370255
0.37018
0.370107
0.370036
0.444275
0.415469
0.412722
0.411293
0.409876
0.408475
0.407088
0.405718
0.404365
0.403031
0.401716
0.400421
0.399148
0.397898
0.396672
0.395472
0.394297
0.39315
0.392031
0.390941
0.389881
0.388853
0.387855
0.38689
0.385957
0.385056
0.384189
0.383355
0.382554
0.381786
0.38105
0.380348
0.379678
0.379039
0.378431
0.377854
0.377307
0.376789
0.3763
0.375838
0.375402
0.374992
0.374607
0.374246
0.373907
0.373591
0.373294
0.373018
0.372761
0.372521
0.372298
0.37209
0.371898
0.371719
0.371553
0.371399
0.371256
0.371124
0.371
0.370886
0.370779
0.370678
0.370584
0.370496
0.370412
0.370332
0.370255
0.37018
0.370107
0.370036
0.444275
0.415469
0.412722
0.411293
0.409876
0.408475
0.407088
0.405718
0.404365
0.403031
0.401716
0.400421
0.399148
0.397898
0.396672
0.395472
0.394297
0.39315
0.392031
0.390941
0.389881
0.388853
0.387855
0.38689
0.385957
0.385056
0.384189
0.383355
0.382554
0.381786
0.38105
0.380348
0.379678
0.379039
0.378431
0.377854
0.377307
0.376789
0.3763
0.375838
0.375402
0.374992
0.374607
0.374246
0.373907
0.373591
0.373294
0.373018
0.372761
0.372521
0.372298
0.37209
0.371898
0.371719
0.371553
0.371399
0.371256
0.371124
0.371
0.370886
0.370779
0.370678
0.370584
0.370496
0.370412
0.370332
0.370255
0.37018
0.370107
0.370036
0.444275
0.415469
0.412722
0.411293
0.409876
0.408475
0.407088
0.405718
0.404365
0.403031
0.401716
0.400421
0.399148
0.397898
0.396672
0.395472
0.394297
0.39315
0.392031
0.390941
0.389881
0.388853
0.387855
0.38689
0.385957
0.385056
0.384189
0.383355
0.382554
0.381786
0.38105
0.380348
0.379678
0.379039
0.378431
0.377854
0.377307
0.376789
0.3763
0.375838
0.375402
0.374992
0.374607
0.374246
0.373907
0.373591
0.373294
0.373018
0.372761
0.372521
0.372298
0.37209
0.371898
0.371719
0.371553
0.371399
0.371256
0.371124
0.371
0.370886
0.370779
0.370678
0.370584
0.370496
0.370412
0.370332
0.370255
0.37018
0.370107
0.370036
0.444275
0.415469
0.412722
0.411293
0.409876
0.408475
0.407088
0.405718
0.404365
0.403031
0.401716
0.400421
0.399148
0.397898
0.396672
0.395472
0.394297
0.39315
0.392031
0.390941
0.389881
0.388853
0.387855
0.38689
0.385957
0.385056
0.384189
0.383355
0.382554
0.381786
0.38105
0.380348
0.379678
0.379039
0.378431
0.377854
0.377307
0.376789
0.3763
0.375838
0.375402
0.374992
0.374607
0.374246
0.373907
0.373591
0.373294
0.373018
0.372761
0.372521
0.372298
0.37209
0.371898
0.371719
0.371553
0.371399
0.371256
0.371124
0.371
0.370886
0.370779
0.370678
0.370584
0.370496
0.370412
0.370332
0.370255
0.37018
0.370107
0.370036
0.444275
0.415469
0.412722
0.411293
0.409876
0.408475
0.407088
0.405718
0.404365
0.403031
0.401716
0.400421
0.399148
0.397898
0.396672
0.395472
0.394297
0.39315
0.392031
0.390941
0.389881
0.388853
0.387855
0.38689
0.385957
0.385056
0.384189
0.383355
0.382554
0.381786
0.38105
0.380348
0.379678
0.379039
0.378431
0.377854
0.377307
0.376789
0.3763
0.375838
0.375402
0.374992
0.374607
0.374246
0.373907
0.373591
0.373294
0.373018
0.372761
0.372521
0.372298
0.37209
0.371898
0.371719
0.371553
0.371399
0.371256
0.371124
0.371
0.370886
0.370779
0.370678
0.370584
0.370496
0.370412
0.370332
0.370255
0.37018
0.370107
0.370036
0.444275
0.415469
0.412722
0.411293
0.409876
0.408475
0.407088
0.405718
0.404365
0.403031
0.401716
0.400421
0.399148
0.397898
0.396672
0.395472
0.394297
0.39315
0.392031
0.390941
0.389881
0.388853
0.387855
0.38689
0.385957
0.385056
0.384189
0.383355
0.382554
0.381786
0.38105
0.380348
0.379678
0.379039
0.378431
0.377854
0.377307
0.376789
0.3763
0.375838
0.375402
0.374992
0.374607
0.374246
0.373907
0.373591
0.373294
0.373018
0.372761
0.372521
0.372298
0.37209
0.371898
0.371719
0.371553
0.371399
0.371256
0.371124
0.371
0.370886
0.370779
0.370678
0.370584
0.370496
0.370412
0.370332
0.370255
0.37018
0.370107
0.370036
0.444275
0.415469
0.412722
0.411293
0.409876
0.408475
0.407088
0.405718
0.404365
0.403031
0.401716
0.400421
0.399148
0.397898
0.396672
0.395472
0.394297
0.39315
0.392031
0.390941
0.389881
0.388853
0.387855
0.38689
0.385957
0.385056
0.384189
0.383355
0.382554
0.381786
0.38105
0.380348
0.379678
0.379039
0.378431
0.377854
0.377307
0.376789
0.3763
0.375838
0.375402
0.374992
0.374607
0.374246
0.373907
0.373591
0.373294
0.373018
0.372761
0.372521
0.372298
0.37209
0.371898
0.371719
0.371553
0.371399
0.371256
0.371124
0.371
0.370886
0.370779
0.370678
0.370584
0.370496
0.370412
0.370332
0.370255
0.37018
0.370107
0.370036
0.444275
0.415469
0.412722
0.411293
0.409876
0.408475
0.407088
0.405718
0.404365
0.403031
0.401716
0.400421
0.399148
0.397898
0.396672
0.395472
0.394297
0.39315
0.392031
0.390941
0.389881
0.388853
0.387855
0.38689
0.385957
0.385056
0.384189
0.383355
0.382554
0.381786
0.38105
0.380348
0.379678
0.379039
0.378431
0.377854
0.377307
0.376789
0.3763
0.375838
0.375402
0.374992
0.374607
0.374246
0.373907
0.373591
0.373294
0.373018
0.372761
0.372521
0.372298
0.37209
0.371898
0.371719
0.371553
0.371399
0.371256
0.371124
0.371
0.370886
0.370779
0.370678
0.370584
0.370496
0.370412
0.370332
0.370255
0.37018
0.370107
0.370036
0.444275
0.415469
0.412722
0.411293
0.409876
0.408475
0.407088
0.405718
0.404365
0.403031
0.401716
0.400421
0.399148
0.397898
0.396672
0.395472
0.394297
0.39315
0.392031
0.390941
0.389881
0.388853
0.387855
0.38689
0.385957
0.385056
0.384189
0.383355
0.382554
0.381786
0.38105
0.380348
0.379678
0.379039
0.378431
0.377854
0.377307
0.376789
0.3763
0.375838
0.375402
0.374992
0.374607
0.374246
0.373907
0.373591
0.373294
0.373018
0.372761
0.372521
0.372298
0.37209
0.371898
0.371719
0.371553
0.371399
0.371256
0.371124
0.371
0.370886
0.370779
0.370678
0.370584
0.370496
0.370412
0.370332
0.370255
0.37018
0.370107
0.370036
0.444275
0.415469
0.412722
0.411293
0.409876
0.408475
0.407088
0.405718
0.404365
0.403031
0.401716
0.400421
0.399148
0.397898
0.396672
0.395472
0.394297
0.39315
0.392031
0.390941
0.389881
0.388853
0.387855
0.38689
0.385957
0.385056
0.384189
0.383355
0.382554
0.381786
0.38105
0.380348
0.379678
0.379039
0.378431
0.377854
0.377307
0.376789
0.3763
0.375838
0.375402
0.374992
0.374607
0.374246
0.373907
0.373591
0.373294
0.373018
0.372761
0.372521
0.372298
0.37209
0.371898
0.371719
0.371553
0.371399
0.371256
0.371124
0.371
0.370886
0.370779
0.370678
0.370584
0.370496
0.370412
0.370332
0.370255
0.37018
0.370107
0.370036
0.444275
0.415469
0.412722
0.411293
0.409876
0.408475
0.407088
0.405718
0.404365
0.403031
0.401716
0.400421
0.399148
0.397898
0.396672
0.395472
0.394297
0.39315
0.392031
0.390941
0.389881