/*--------------------------------*- C++ -*----------------------------------*\
  =========                 |
  \\      /  F ield         | OpenFOAM: The Open Source CFD Toolbox
   \\    /   O peration     | Website:  https://openfoam.org
    \\  /    A nd           | Version:  13
     \\/     M anipulation  |
\*---------------------------------------------------------------------------*/
FoamFile
{
    format      ascii;
    class       volScalarField;
    location    "26";
    object      nut;
}
// * * * * * * * * * * * * * * * * * * * * * * * * * * * * * * * * * * * * * //

dimensions      [0 2 -1 0 0 0 0];

internalField   nonuniform List<scalar> 
78750
(
6.1241e-18
1.56593e-15
3.52999e-14
6.40385e-14
9.43416e-14
1.26435e-13
1.60339e-13
1.95814e-13
2.32359e-13
2.69235e-13
3.05518e-13
3.40153e-13
3.7203e-13
4.00049e-13
4.23193e-13
4.40593e-13
4.51574e-13
4.55706e-13
4.5282e-13
4.43027e-13
4.26706e-13
4.04485e-13
3.77197e-13
3.45836e-13
3.11487e-13
2.75264e-13
2.38233e-13
2.01344e-13
1.65363e-13
1.30821e-13
9.79783e-14
6.68166e-14
3.70627e-14
1.65795e-15
6.51257e-18
1.33015e-16
3.45475e-14
4.87775e-12
8.9129e-12
1.31634e-11
1.76768e-11
2.24626e-11
2.74887e-11
3.26832e-11
3.79389e-11
4.31208e-11
4.80748e-11
5.26388e-11
5.6652e-11
5.99662e-11
6.24541e-11
6.40178e-11
6.45944e-11
6.41604e-11
6.27326e-11
6.03673e-11
5.71572e-11
5.3225e-11
4.87163e-11
4.37903e-11
3.86096e-11
3.33297e-11
2.80887e-11
2.29972e-11
1.81311e-11
1.35258e-11
9.17436e-12
5.02957e-12
3.56822e-14
1.37471e-16
3.71838e-16
9.65965e-14
1.36661e-11
2.51184e-11
3.74203e-11
5.07904e-11
6.5312e-11
8.09183e-11
9.73912e-11
1.14373e-10
1.3139e-10
1.47884e-10
1.63253e-10
1.76888e-10
1.88222e-10
1.96761e-10
2.02126e-10
2.04071e-10
2.02509e-10
1.97507e-10
1.89293e-10
1.78231e-10
1.648e-10
1.49564e-10
1.33126e-10
1.16093e-10
9.90293e-11
8.24178e-11
6.66283e-11
5.18911e-11
3.8284e-11
2.5731e-11
1.40163e-11
9.91873e-14
3.81984e-16
7.16953e-16
1.86244e-13
2.6367e-11
4.85682e-11
7.25894e-11
9.89193e-11
1.27769e-10
1.59038e-10
1.92305e-10
2.2685e-10
2.61693e-10
2.9566e-10
3.27464e-10
3.55796e-10
3.79413e-10
3.97236e-10
4.08426e-10
4.12446e-10
4.09098e-10
3.98543e-10
3.81286e-10
3.58138e-10
3.30159e-10
2.98575e-10
2.64696e-10
2.29813e-10
1.95114e-10
1.61596e-10
1.30002e-10
1.00775e-10
7.40354e-11
4.95866e-11
2.6945e-11
1.90505e-13
7.33628e-16
1.11068e-15
2.88497e-13
4.08492e-11
7.52922e-11
1.12639e-10
1.53678e-10
1.9876e-10
2.47743e-10
2.99975e-10
3.54324e-10
4.09243e-10
4.62868e-10
5.13148e-10
5.57983e-10
5.95384e-10
6.23614e-10
6.41322e-10
6.47642e-10
6.4226e-10
6.25439e-10
5.97999e-10
5.61252e-10
5.16904e-10
4.6693e-10
4.13423e-10
3.58443e-10
3.03873e-10
2.51286e-10
2.01846e-10
1.56235e-10
1.14625e-10
7.66853e-11
4.16367e-11
2.94293e-13
1.13336e-15
1.49548e-15
3.88431e-13
5.50006e-11
1.01393e-10
1.51728e-10
2.0708e-10
2.6793e-10
3.34091e-10
4.04685e-10
4.78181e-10
5.52481e-10
6.2506e-10
6.9313e-10
7.53842e-10
8.04488e-10
8.42707e-10
8.6666e-10
8.7517e-10
8.67814e-10
8.44952e-10
8.07705e-10
7.57862e-10
6.9775e-10
6.30054e-10
5.57619e-10
4.83242e-10
4.09471e-10
3.38437e-10
2.7171e-10
2.10206e-10
1.5415e-10
1.03087e-10
5.59551e-11
3.9545e-13
1.52294e-15
1.8297e-15
4.75252e-13
6.72964e-11
1.24067e-10
1.85673e-10
2.53438e-10
3.27953e-10
4.08989e-10
4.95472e-10
5.85524e-10
6.76573e-10
7.65521e-10
8.48947e-10
9.23353e-10
9.85418e-10
1.03224e-09
1.06157e-09
1.07195e-09
1.06288e-09
1.03479e-09
9.89073e-10
9.27921e-10
8.54196e-10
7.71194e-10
6.82409e-10
5.9127e-10
5.00904e-10
4.13918e-10
3.32234e-10
2.56974e-10
1.88407e-10
1.25974e-10
6.83685e-11
4.83132e-13
1.86052e-15
2.09127e-15
5.43237e-13
7.69274e-11
1.41825e-10
2.12259e-10
2.89741e-10
3.74952e-10
4.6763e-10
5.66544e-10
6.69547e-10
7.73696e-10
8.75443e-10
9.70874e-10
1.05598e-09
1.12697e-09
1.18051e-09
1.21403e-09
1.22587e-09
1.21544e-09
1.18326e-09
1.13091e-09
1.06091e-09
9.76529e-10
8.81556e-10
7.79983e-10
6.75737e-10
5.72393e-10
4.72933e-10
3.79555e-10
2.93538e-10
2.15189e-10
1.43866e-10
7.80719e-11
5.51645e-13
2.12417e-15
2.27696e-15
5.91533e-13
8.37724e-11
1.54448e-10
2.31155e-10
3.15545e-10
4.08358e-10
5.09311e-10
6.17064e-10
7.29273e-10
8.42734e-10
9.53579e-10
1.05754e-09
1.15026e-09
1.22758e-09
1.28589e-09
1.32238e-09
1.33525e-09
1.32385e-09
1.28876e-09
1.23168e-09
1.15538e-09
1.06343e-09
9.59942e-10
8.49278e-10
7.35715e-10
6.23148e-10
5.14826e-10
4.13141e-10
3.19486e-10
2.34193e-10
1.5656e-10
8.49553e-11
6.00221e-13
2.31095e-15
2.39717e-15
6.22826e-13
8.82099e-11
1.62631e-10
2.43407e-10
3.32276e-10
4.30021e-10
5.36342e-10
6.49827e-10
7.6801e-10
8.87511e-10
1.00426e-09
1.11376e-09
1.21141e-09
1.29284e-09
1.35425e-09
1.39266e-09
1.40619e-09
1.39416e-09
1.35716e-09
1.29702e-09
1.21663e-09
1.11976e-09
1.01075e-09
8.94182e-10
7.74575e-10
6.56027e-10
5.4196e-10
4.34891e-10
3.36287e-10
2.46495e-10
1.64776e-10
8.94098e-11
6.31637e-13
2.43164e-15
2.46852e-15
6.41419e-13
9.08483e-11
1.67497e-10
2.50692e-10
3.42226e-10
4.42905e-10
5.52419e-10
6.69315e-10
7.91052e-10
9.14149e-10
1.03441e-09
1.1472e-09
1.24778e-09
1.33166e-09
1.39491e-09
1.43447e-09
1.44839e-09
1.43598e-09
1.39785e-09
1.33588e-09
1.25305e-09
1.15325e-09
1.04095e-09
9.20873e-10
7.9767e-10
6.75564e-10
5.5808e-10
4.4781e-10
3.46264e-10
2.538e-10
1.69654e-10
9.20538e-11
6.50271e-13
2.50315e-15
2.50757e-15
6.51606e-13
9.22948e-11
1.70165e-10
2.54687e-10
3.47683e-10
4.49971e-10
5.61237e-10
6.80006e-10
8.03693e-10
9.28763e-10
1.05095e-09
1.16555e-09
1.26774e-09
1.35296e-09
1.41722e-09
1.45741e-09
1.47154e-09
1.45892e-09
1.42017e-09
1.35719e-09
1.27302e-09
1.17162e-09
1.05751e-09
9.35506e-10
8.10329e-10
6.86271e-10
5.66912e-10
4.54887e-10
3.51729e-10
2.578e-10
1.72325e-10
9.35013e-11
6.60464e-13
2.54223e-15
2.52739e-15
6.5678e-13
9.30302e-11
1.71522e-10
2.56718e-10
3.50458e-10
4.53564e-10
5.65722e-10
6.85443e-10
8.10123e-10
9.36196e-10
1.05936e-09
1.17488e-09
1.2779e-09
1.3638e-09
1.42857e-09
1.46908e-09
1.48332e-09
1.47059e-09
1.43152e-09
1.36803e-09
1.28318e-09
1.18095e-09
1.06593e-09
9.42943e-10
8.16762e-10
6.91712e-10
5.714e-10
4.58483e-10
3.54504e-10
2.59832e-10
1.73681e-10
9.42361e-11
6.65635e-13
2.56204e-15
2.53676e-15
6.5923e-13
9.33785e-11
1.72164e-10
2.57681e-10
3.51772e-10
4.55267e-10
5.67848e-10
6.8802e-10
8.1317e-10
9.3972e-10
1.06335e-09
1.17931e-09
1.28271e-09
1.36894e-09
1.43395e-09
1.47461e-09
1.4889e-09
1.47612e-09
1.4369e-09
1.37317e-09
1.288e-09
1.18538e-09
1.06991e-09
9.46467e-10
8.1981e-10
6.94288e-10
5.73525e-10
4.60185e-10
3.55818e-10
2.60793e-10
1.74323e-10
9.45838e-11
6.6808e-13
2.57139e-15
2.5409e-15
6.60315e-13
9.3533e-11
1.72449e-10
2.58108e-10
3.52356e-10
4.56022e-10
5.68791e-10
6.89163e-10
8.14523e-10
9.41284e-10
1.06512e-09
1.18127e-09
1.28485e-09
1.37122e-09
1.43634e-09
1.47706e-09
1.49138e-09
1.47858e-09
1.43929e-09
1.37545e-09
1.29013e-09
1.18734e-09
1.07168e-09
9.4803e-10
8.21161e-10
6.95431e-10
5.74467e-10
4.60939e-10
3.56401e-10
2.61219e-10
1.74607e-10
9.47379e-11
6.69162e-13
2.57552e-15
2.54263e-15
6.60768e-13
9.35975e-11
1.72568e-10
2.58286e-10
3.52599e-10
4.56337e-10
5.69184e-10
6.8964e-10
8.15087e-10
9.41936e-10
1.06586e-09
1.18209e-09
1.28574e-09
1.37217e-09
1.43734e-09
1.47809e-09
1.49241e-09
1.4796e-09
1.44028e-09
1.3764e-09
1.29102e-09
1.18816e-09
1.07242e-09
9.48682e-10
8.21725e-10
6.95907e-10
5.7486e-10
4.61254e-10
3.56643e-10
2.61397e-10
1.74725e-10
9.4802e-11
6.69612e-13
2.57724e-15
2.5433e-15
6.60945e-13
9.36228e-11
1.72615e-10
2.58356e-10
3.52695e-10
4.56461e-10
5.69339e-10
6.89828e-10
8.15309e-10
9.42193e-10
1.06615e-09
1.18241e-09
1.28609e-09
1.37254e-09
1.43773e-09
1.47849e-09
1.49282e-09
1.48001e-09
1.44068e-09
1.37677e-09
1.29137e-09
1.18848e-09
1.07271e-09
9.48938e-10
8.21946e-10
6.96094e-10
5.75014e-10
4.61377e-10
3.56739e-10
2.61467e-10
1.74772e-10
9.48272e-11
6.69789e-13
2.57791e-15
2.54356e-15
6.61011e-13
9.36322e-11
1.72632e-10
2.58382e-10
3.5273e-10
4.56507e-10
5.69397e-10
6.89898e-10
8.15392e-10
9.42289e-10
1.06626e-09
1.18253e-09
1.28622e-09
1.37268e-09
1.43787e-09
1.47864e-09
1.49297e-09
1.48016e-09
1.44082e-09
1.37691e-09
1.2915e-09
1.1886e-09
1.07282e-09
9.49034e-10
8.22029e-10
6.96164e-10
5.75072e-10
4.61423e-10
3.56774e-10
2.61493e-10
1.74789e-10
9.48366e-11
6.69855e-13
2.57816e-15
2.54365e-15
6.61035e-13
9.36356e-11
1.72638e-10
2.58391e-10
3.52743e-10
4.56524e-10
5.69417e-10
6.89923e-10
8.15421e-10
9.42323e-10
1.0663e-09
1.18258e-09
1.28627e-09
1.37273e-09
1.43793e-09
1.47869e-09
1.49303e-09
1.48021e-09
1.44087e-09
1.37696e-09
1.29155e-09
1.18865e-09
1.07286e-09
9.49067e-10
8.22058e-10
6.96189e-10
5.75092e-10
4.6144e-10
3.56787e-10
2.61502e-10
1.74795e-10
9.48399e-11
6.69878e-13
2.57825e-15
2.54367e-15
6.61043e-13
9.36367e-11
1.72641e-10
2.58394e-10
3.52747e-10
4.56529e-10
5.69424e-10
6.89931e-10
8.15431e-10
9.42334e-10
1.06631e-09
1.18259e-09
1.28628e-09
1.37275e-09
1.43794e-09
1.47871e-09
1.49304e-09
1.48023e-09
1.44089e-09
1.37698e-09
1.29157e-09
1.18866e-09
1.07287e-09
9.49079e-10
8.22068e-10
6.96197e-10
5.75099e-10
4.61445e-10
3.56791e-10
2.61505e-10
1.74797e-10
9.4841e-11
6.69886e-13
2.57828e-15
2.54368e-15
6.61045e-13
9.3637e-11
1.72641e-10
2.58395e-10
3.52748e-10
4.56531e-10
5.69426e-10
6.89934e-10
8.15434e-10
9.42338e-10
1.06632e-09
1.1826e-09
1.28629e-09
1.37276e-09
1.43795e-09
1.47872e-09
1.49305e-09
1.48023e-09
1.4409e-09
1.37698e-09
1.29157e-09
1.18866e-09
1.07288e-09
9.49082e-10
8.22071e-10
6.962e-10
5.75101e-10
4.61447e-10
3.56792e-10
2.61506e-10
1.74798e-10
9.48414e-11
6.69888e-13
2.57829e-15
2.54369e-15
6.61046e-13
9.36372e-11
1.72641e-10
2.58396e-10
3.52749e-10
4.56532e-10
5.69427e-10
6.89935e-10
8.15435e-10
9.42339e-10
1.06632e-09
1.1826e-09
1.28629e-09
1.37276e-09
1.43795e-09
1.47872e-09
1.49305e-09
1.48023e-09
1.4409e-09
1.37698e-09
1.29157e-09
1.18867e-09
1.07288e-09
9.49083e-10
8.22072e-10
6.96201e-10
5.75102e-10
4.61447e-10
3.56793e-10
2.61506e-10
1.74798e-10
9.48415e-11
6.69889e-13
2.57829e-15
2.54369e-15
6.61046e-13
9.36372e-11
1.72641e-10
2.58396e-10
3.52749e-10
4.56532e-10
5.69427e-10
6.89935e-10
8.15435e-10
9.42339e-10
1.06632e-09
1.1826e-09
1.28629e-09
1.37276e-09
1.43795e-09
1.47872e-09
1.49305e-09
1.48023e-09
1.4409e-09
1.37698e-09
1.29157e-09
1.18867e-09
1.07288e-09
9.49084e-10
8.22072e-10
6.96201e-10
5.75102e-10
4.61448e-10
3.56793e-10
2.61506e-10
1.74798e-10
9.48415e-11
6.69889e-13
2.57829e-15
2.54369e-15
6.61046e-13
9.36372e-11
1.72642e-10
2.58396e-10
3.52749e-10
4.56532e-10
5.69427e-10
6.89935e-10
8.15435e-10
9.42339e-10
1.06632e-09
1.1826e-09
1.28629e-09
1.37276e-09
1.43795e-09
1.47872e-09
1.49305e-09
1.48023e-09
1.4409e-09
1.37698e-09
1.29157e-09
1.18867e-09
1.07288e-09
9.49084e-10
8.22072e-10
6.96201e-10
5.75102e-10
4.61448e-10
3.56793e-10
2.61506e-10
1.74798e-10
9.48415e-11
6.6989e-13
2.57829e-15
2.54369e-15
6.61046e-13
9.36372e-11
1.72642e-10
2.58396e-10
3.52749e-10
4.56532e-10
5.69427e-10
6.89935e-10
8.15435e-10
9.42339e-10
1.06632e-09
1.1826e-09
1.28629e-09
1.37276e-09
1.43795e-09
1.47872e-09
1.49305e-09
1.48023e-09
1.4409e-09
1.37698e-09
1.29157e-09
1.18867e-09
1.07288e-09
9.49084e-10
8.22072e-10
6.96201e-10
5.75102e-10
4.61448e-10
3.56793e-10
2.61506e-10
1.74798e-10
9.48415e-11
6.6989e-13
2.57829e-15
2.54369e-15
6.61046e-13
9.36372e-11
1.72642e-10
2.58396e-10
3.52749e-10
4.56532e-10
5.69427e-10
6.89935e-10
8.15435e-10
9.42339e-10
1.06632e-09
1.1826e-09
1.28629e-09
1.37276e-09
1.43795e-09
1.47872e-09
1.49305e-09
1.48023e-09
1.4409e-09
1.37698e-09
1.29157e-09
1.18867e-09
1.07288e-09
9.49084e-10
8.22072e-10
6.96201e-10
5.75102e-10
4.61448e-10
3.56793e-10
2.61506e-10
1.74798e-10
9.48415e-11
6.6989e-13
2.57829e-15
2.54369e-15
6.61046e-13
9.36372e-11
1.72642e-10
2.58396e-10
3.52749e-10
4.56532e-10
5.69427e-10
6.89935e-10
8.15435e-10
9.42339e-10
1.06632e-09
1.1826e-09
1.28629e-09
1.37276e-09
1.43795e-09
1.47872e-09
1.49305e-09
1.48023e-09
1.4409e-09
1.37698e-09
1.29157e-09
1.18867e-09
1.07288e-09
9.49084e-10
8.22072e-10
6.96201e-10
5.75102e-10
4.61448e-10
3.56793e-10
2.61506e-10
1.74798e-10
9.48415e-11
6.6989e-13
2.57829e-15
2.54369e-15
6.61046e-13
9.36372e-11
1.72642e-10
2.58396e-10
3.52749e-10
4.56532e-10
5.69427e-10
6.89935e-10
8.15435e-10
9.42339e-10
1.06632e-09
1.1826e-09
1.28629e-09
1.37276e-09
1.43795e-09
1.47872e-09
1.49305e-09
1.48023e-09
1.4409e-09
1.37698e-09
1.29157e-09
1.18867e-09
1.07288e-09
9.49084e-10
8.22072e-10
6.96201e-10
5.75102e-10
4.61448e-10
3.56793e-10
2.61506e-10
1.74798e-10
9.48415e-11
6.6989e-13
2.57829e-15
2.54369e-15
6.61046e-13
9.36372e-11
1.72642e-10
2.58396e-10
3.52749e-10
4.56532e-10
5.69427e-10
6.89935e-10
8.15435e-10
9.42339e-10
1.06632e-09
1.1826e-09
1.28629e-09
1.37276e-09
1.43795e-09
1.47872e-09
1.49305e-09
1.48023e-09
1.4409e-09
1.37698e-09
1.29157e-09
1.18867e-09
1.07288e-09
9.49084e-10
8.22072e-10
6.96201e-10
5.75102e-10
4.61448e-10
3.56793e-10
2.61506e-10
1.74798e-10
9.48415e-11
6.6989e-13
2.57829e-15
2.54369e-15
6.61046e-13
9.36372e-11
1.72642e-10
2.58396e-10
3.52749e-10
4.56532e-10
5.69427e-10
6.89935e-10
8.15435e-10
9.42339e-10
1.06632e-09
1.1826e-09
1.28629e-09
1.37276e-09
1.43795e-09
1.47872e-09
1.49305e-09
1.48023e-09
1.4409e-09
1.37698e-09
1.29157e-09
1.18867e-09
1.07288e-09
9.49084e-10
8.22072e-10
6.96201e-10
5.75102e-10
4.61448e-10
3.56793e-10
2.61506e-10
1.74798e-10
9.48415e-11
6.6989e-13
2.57829e-15
2.54369e-15
6.61046e-13
9.36372e-11
1.72642e-10
2.58396e-10
3.52749e-10
4.56532e-10
5.69427e-10
6.89935e-10
8.15435e-10
9.42339e-10
1.06632e-09
1.1826e-09
1.28629e-09
1.37276e-09
1.43795e-09
1.47872e-09
1.49305e-09
1.48023e-09
1.4409e-09
1.37698e-09
1.29157e-09
1.18867e-09
1.07288e-09
9.49084e-10
8.22072e-10
6.96201e-10
5.75102e-10
4.61448e-10
3.56793e-10
2.61506e-10
1.74798e-10
9.48415e-11
6.6989e-13
2.57829e-15
2.54369e-15
6.61046e-13
9.36372e-11
1.72642e-10
2.58396e-10
3.52749e-10
4.56532e-10
5.69427e-10
6.89935e-10
8.15435e-10
9.42339e-10
1.06632e-09
1.1826e-09
1.28629e-09
1.37276e-09
1.43795e-09
1.47872e-09
1.49305e-09
1.48023e-09
1.4409e-09
1.37698e-09
1.29157e-09
1.18867e-09
1.07288e-09
9.49084e-10
8.22072e-10
6.96201e-10
5.75102e-10
4.61448e-10
3.56793e-10
2.61506e-10
1.74798e-10
9.48415e-11
6.6989e-13
2.57829e-15
2.54369e-15
6.61046e-13
9.36372e-11
1.72642e-10
2.58396e-10
3.52749e-10
4.56532e-10
5.69427e-10
6.89935e-10
8.15435e-10
9.42339e-10
1.06632e-09
1.1826e-09
1.28629e-09
1.37276e-09
1.43795e-09
1.47872e-09
1.49305e-09
1.48023e-09
1.4409e-09
1.37698e-09
1.29157e-09
1.18867e-09
1.07288e-09
9.49084e-10
8.22072e-10
6.96201e-10
5.75102e-10
4.61448e-10
3.56793e-10
2.61506e-10
1.74798e-10
9.48415e-11
6.6989e-13
2.57829e-15
2.54369e-15
6.61046e-13
9.36372e-11
1.72642e-10
2.58396e-10
3.52749e-10
4.56532e-10
5.69427e-10
6.89935e-10
8.15435e-10
9.42339e-10
1.06632e-09
1.1826e-09
1.28629e-09
1.37276e-09
1.43795e-09
1.47872e-09
1.49305e-09
1.48023e-09
1.4409e-09
1.37698e-09
1.29157e-09
1.18867e-09
1.07288e-09
9.49084e-10
8.22072e-10
6.96201e-10
5.75102e-10
4.61448e-10
3.56793e-10
2.61506e-10
1.74798e-10
9.48415e-11
6.6989e-13
2.57829e-15
2.54369e-15
6.61046e-13
9.36372e-11
1.72642e-10
2.58396e-10
3.52749e-10
4.56532e-10
5.69427e-10
6.89935e-10
8.15435e-10
9.42339e-10
1.06632e-09
1.1826e-09
1.28629e-09
1.37276e-09
1.43795e-09
1.47872e-09
1.49305e-09
1.48023e-09
1.4409e-09
1.37698e-09
1.29157e-09
1.18867e-09
1.07288e-09
9.49084e-10
8.22072e-10
6.96201e-10
5.75102e-10
4.61448e-10
3.56793e-10
2.61506e-10
1.74798e-10
9.48415e-11
6.6989e-13
2.57829e-15
2.54369e-15
6.61046e-13
9.36372e-11
1.72642e-10
2.58396e-10
3.52749e-10
4.56532e-10
5.69427e-10
6.89935e-10
8.15435e-10
9.42339e-10
1.06632e-09
1.1826e-09
1.28629e-09
1.37276e-09
1.43795e-09
1.47872e-09
1.49305e-09
1.48023e-09
1.4409e-09
1.37698e-09
1.29157e-09
1.18867e-09
1.07288e-09
9.49084e-10
8.22072e-10
6.96201e-10
5.75102e-10
4.61448e-10
3.56793e-10
2.61506e-10
1.74798e-10
9.48415e-11
6.6989e-13
2.57829e-15
2.54369e-15
6.61046e-13
9.36372e-11
1.72642e-10
2.58396e-10
3.52749e-10
4.56532e-10
5.69427e-10
6.89935e-10
8.15435e-10
9.42339e-10
1.06632e-09
1.1826e-09
1.28629e-09
1.37276e-09
1.43795e-09
1.47872e-09
1.49305e-09
1.48023e-09
1.4409e-09
1.37698e-09
1.29157e-09
1.18867e-09
1.07288e-09
9.49084e-10
8.22072e-10
6.96201e-10
5.75102e-10
4.61448e-10
3.56793e-10
2.61506e-10
1.74798e-10
9.48415e-11
6.6989e-13
2.57829e-15
2.54369e-15
6.61046e-13
9.36372e-11
1.72642e-10
2.58396e-10
3.52749e-10
4.56532e-10
5.69427e-10
6.89935e-10
8.15435e-10
9.42339e-10
1.06632e-09
1.1826e-09
1.28629e-09
1.37276e-09
1.43795e-09
1.47872e-09
1.49305e-09
1.48023e-09
1.4409e-09
1.37698e-09
1.29157e-09
1.18867e-09
1.07288e-09
9.49084e-10
8.22072e-10
6.96201e-10
5.75102e-10
4.61448e-10
3.56793e-10
2.61506e-10
1.74798e-10
9.48415e-11
6.6989e-13
2.57829e-15
2.54369e-15
6.61046e-13
9.36372e-11
1.72642e-10
2.58396e-10
3.52749e-10
4.56532e-10
5.69427e-10
6.89935e-10
8.15435e-10
9.42339e-10
1.06632e-09
1.1826e-09
1.28629e-09
1.37276e-09
1.43795e-09
1.47872e-09
1.49305e-09
1.48023e-09
1.4409e-09
1.37698e-09
1.29157e-09
1.18867e-09
1.07288e-09
9.49084e-10
8.22072e-10
6.96201e-10
5.75102e-10
4.61448e-10
3.56793e-10
2.61506e-10
1.74798e-10
9.48415e-11
6.6989e-13
2.57829e-15
2.54369e-15
6.61046e-13
9.36372e-11
1.72642e-10
2.58396e-10
3.52749e-10
4.56532e-10
5.69427e-10
6.89935e-10
8.15435e-10
9.42339e-10
1.06632e-09
1.1826e-09
1.28629e-09
1.37276e-09
1.43795e-09
1.47872e-09
1.49305e-09
1.48023e-09
1.4409e-09
1.37698e-09
1.29157e-09
1.18867e-09
1.07288e-09
9.49084e-10
8.22072e-10
6.96201e-10
5.75102e-10
4.61448e-10
3.56793e-10
2.61506e-10
1.74798e-10
9.48415e-11
6.6989e-13
2.57829e-15
2.54369e-15
6.61046e-13
9.36372e-11
1.72642e-10
2.58396e-10
3.52749e-10
4.56532e-10
5.69427e-10
6.89935e-10
8.15435e-10
9.42339e-10
1.06632e-09
1.1826e-09
1.28629e-09
1.37276e-09
1.43795e-09
1.47872e-09
1.49305e-09
1.48023e-09
1.4409e-09
1.37698e-09
1.29157e-09
1.18867e-09
1.07288e-09
9.49084e-10
8.22072e-10
6.96201e-10
5.75102e-10
4.61448e-10
3.56793e-10
2.61506e-10
1.74798e-10
9.48415e-11
6.6989e-13
2.57829e-15
2.54369e-15
6.61046e-13
9.36372e-11
1.72642e-10
2.58396e-10
3.52749e-10
4.56532e-10
5.69427e-10
6.89935e-10
8.15435e-10
9.42339e-10
1.06632e-09
1.1826e-09
1.28629e-09
1.37276e-09
1.43795e-09
1.47872e-09
1.49305e-09
1.48023e-09
1.4409e-09
1.37698e-09
1.29157e-09
1.18867e-09
1.07288e-09
9.49084e-10
8.22072e-10
6.96201e-10
5.75102e-10
4.61448e-10
3.56793e-10
2.61506e-10
1.74798e-10
9.48415e-11
6.6989e-13
2.57829e-15
2.54369e-15
6.61046e-13
9.36372e-11
1.72642e-10
2.58396e-10
3.52749e-10
4.56532e-10
5.69427e-10
6.89935e-10
8.15435e-10
9.42339e-10
1.06632e-09
1.1826e-09
1.28629e-09
1.37276e-09
1.43795e-09
1.47872e-09
1.49305e-09
1.48023e-09
1.4409e-09
1.37698e-09
1.29157e-09
1.18867e-09
1.07288e-09
9.49084e-10
8.22072e-10
6.96201e-10
5.75102e-10
4.61448e-10
3.56793e-10
2.61506e-10
1.74798e-10
9.48415e-11
6.6989e-13
2.57829e-15
2.54369e-15
6.61046e-13
9.36372e-11
1.72642e-10
2.58396e-10
3.52749e-10
4.56532e-10
5.69427e-10
6.89935e-10
8.15435e-10
9.42339e-10
1.06632e-09
1.1826e-09
1.28629e-09
1.37276e-09
1.43795e-09
1.47872e-09
1.49305e-09
1.48023e-09
1.4409e-09
1.37698e-09
1.29157e-09
1.18867e-09
1.07288e-09
9.49084e-10
8.22072e-10
6.96201e-10
5.75102e-10
4.61448e-10
3.56793e-10
2.61506e-10
1.74798e-10
9.48415e-11
6.6989e-13
2.57829e-15
2.54369e-15
6.61046e-13
9.36372e-11
1.72642e-10
2.58396e-10
3.52749e-10
4.56532e-10
5.69427e-10
6.89935e-10
8.15435e-10
9.42339e-10
1.06632e-09
1.1826e-09
1.28629e-09
1.37276e-09
1.43795e-09
1.47872e-09
1.49305e-09
1.48023e-09
1.4409e-09
1.37698e-09
1.29157e-09
1.18867e-09
1.07288e-09
9.49084e-10
8.22072e-10
6.96201e-10
5.75102e-10
4.61448e-10
3.56793e-10
2.61506e-10
1.74798e-10
9.48415e-11
6.6989e-13
2.57829e-15
2.54369e-15
6.61046e-13
9.36372e-11
1.72642e-10
2.58396e-10
3.52749e-10
4.56532e-10
5.69427e-10
6.89935e-10
8.15435e-10
9.42339e-10
1.06632e-09
1.1826e-09
1.28629e-09
1.37276e-09
1.43795e-09
1.47872e-09
1.49305e-09
1.48023e-09
1.4409e-09
1.37698e-09
1.29157e-09
1.18867e-09
1.07288e-09
9.49084e-10
8.22072e-10
6.96201e-10
5.75102e-10
4.61448e-10
3.56793e-10
2.61506e-10
1.74798e-10
9.48415e-11
6.6989e-13
2.57829e-15
2.54369e-15
6.61046e-13
9.36372e-11
1.72642e-10
2.58396e-10
3.52749e-10
4.56532e-10
5.69427e-10
6.89935e-10
8.15435e-10
9.42339e-10
1.06632e-09
1.1826e-09
1.28629e-09
1.37276e-09
1.43795e-09
1.47872e-09
1.49305e-09
1.48023e-09
1.4409e-09
1.37698e-09
1.29157e-09
1.18867e-09
1.07288e-09
9.49084e-10
8.22072e-10
6.96201e-10
5.75102e-10
4.61448e-10
3.56793e-10
2.61506e-10
1.74798e-10
9.48415e-11
6.6989e-13
2.57829e-15
2.54369e-15
6.61046e-13
9.36372e-11
1.72642e-10
2.58396e-10
3.52749e-10
4.56532e-10
5.69427e-10
6.89935e-10
8.15435e-10
9.42339e-10
1.06632e-09
1.1826e-09
1.28629e-09
1.37276e-09
1.43795e-09
1.47872e-09
1.49305e-09
1.48023e-09
1.4409e-09
1.37698e-09
1.29157e-09
1.18867e-09
1.07288e-09
9.49084e-10
8.22072e-10
6.96201e-10
5.75102e-10
4.61448e-10
3.56793e-10
2.61506e-10
1.74798e-10
9.48415e-11
6.6989e-13
2.57829e-15
2.54369e-15
6.61046e-13
9.36372e-11
1.72642e-10
2.58396e-10
3.52749e-10
4.56532e-10
5.69427e-10
6.89935e-10
8.15435e-10
9.42339e-10
1.06632e-09
1.1826e-09
1.28629e-09
1.37276e-09
1.43795e-09
1.47872e-09
1.49305e-09
1.48023e-09
1.4409e-09
1.37698e-09
1.29157e-09
1.18867e-09
1.07288e-09
9.49084e-10
8.22072e-10
6.96201e-10
5.75102e-10
4.61448e-10
3.56793e-10
2.61506e-10
1.74798e-10
9.48415e-11
6.6989e-13
2.57829e-15
2.54369e-15
6.61046e-13
9.36372e-11
1.72642e-10
2.58396e-10
3.52749e-10
4.56532e-10
5.69427e-10
6.89935e-10
8.15435e-10
9.42339e-10
1.06632e-09
1.1826e-09
1.28629e-09
1.37276e-09
1.43795e-09
1.47872e-09
1.49305e-09
1.48023e-09
1.4409e-09
1.37698e-09
1.29157e-09
1.18867e-09
1.07288e-09
9.49084e-10
8.22072e-10
6.96201e-10
5.75102e-10
4.61448e-10
3.56793e-10
2.61506e-10
1.74798e-10
9.48415e-11
6.6989e-13
2.57829e-15
2.54369e-15
6.61046e-13
9.36372e-11
1.72642e-10
2.58396e-10
3.52749e-10
4.56532e-10
5.69427e-10
6.89935e-10
8.15435e-10
9.42339e-10
1.06632e-09
1.1826e-09
1.28629e-09
1.37276e-09
1.43795e-09
1.47872e-09
1.49305e-09
1.48023e-09
1.4409e-09
1.37698e-09
1.29157e-09
1.18867e-09
1.07288e-09
9.49084e-10
8.22072e-10
6.96201e-10
5.75102e-10
4.61448e-10
3.56793e-10
2.61506e-10
1.74798e-10
9.48415e-11
6.6989e-13
2.57829e-15
2.54369e-15
6.61046e-13
9.36372e-11
1.72642e-10
2.58396e-10
3.52749e-10
4.56532e-10
5.69427e-10
6.89935e-10
8.15435e-10
9.42339e-10
1.06632e-09
1.1826e-09
1.28629e-09
1.37276e-09
1.43795e-09
1.47872e-09
1.49305e-09
1.48023e-09
1.4409e-09
1.37698e-09
1.29157e-09
1.18867e-09
1.07288e-09
9.49084e-10
8.22072e-10
6.96201e-10
5.75102e-10
4.61448e-10
3.56793e-10
2.61506e-10
1.74798e-10
9.48415e-11
6.6989e-13
2.57829e-15
2.54369e-15
6.61046e-13
9.36372e-11
1.72642e-10
2.58396e-10
3.52749e-10
4.56532e-10
5.69427e-10
6.89935e-10
8.15435e-10
9.42339e-10
1.06632e-09
1.1826e-09
1.28629e-09
1.37276e-09
1.43795e-09
1.47872e-09
1.49305e-09
1.48023e-09
1.4409e-09
1.37698e-09
1.29157e-09
1.18867e-09
1.07288e-09
9.49084e-10
8.22072e-10
6.96201e-10
5.75102e-10
4.61448e-10
3.56793e-10
2.61506e-10
1.74798e-10
9.48415e-11
6.6989e-13
2.57829e-15
2.54369e-15
6.61046e-13
9.36372e-11
1.72642e-10
2.58396e-10
3.52749e-10
4.56532e-10
5.69427e-10
6.89935e-10
8.15435e-10
9.42339e-10
1.06632e-09
1.1826e-09
1.28629e-09
1.37276e-09
1.43795e-09
1.47872e-09
1.49305e-09
1.48023e-09
1.4409e-09
1.37698e-09
1.29157e-09
1.18867e-09
1.07288e-09
9.49084e-10
8.22072e-10
6.96201e-10
5.75102e-10
4.61448e-10
3.56793e-10
2.61506e-10
1.74798e-10
9.48415e-11
6.6989e-13
2.57829e-15
2.54369e-15
6.61046e-13
9.36372e-11
1.72642e-10
2.58396e-10
3.52749e-10
4.56532e-10
5.69427e-10
6.89935e-10
8.15435e-10
9.42339e-10
1.06632e-09
1.1826e-09
1.28629e-09
1.37276e-09
1.43795e-09
1.47872e-09
1.49305e-09
1.48023e-09
1.4409e-09
1.37698e-09
1.29157e-09
1.18867e-09
1.07288e-09
9.49084e-10
8.22072e-10
6.96201e-10
5.75102e-10
4.61448e-10
3.56793e-10
2.61506e-10
1.74798e-10
9.48415e-11
6.6989e-13
2.57829e-15
2.54369e-15
6.61046e-13
9.36372e-11
1.72642e-10
2.58396e-10
3.52749e-10
4.56532e-10
5.69427e-10
6.89935e-10
8.15435e-10
9.42339e-10
1.06632e-09
1.1826e-09
1.28629e-09
1.37276e-09
1.43795e-09
1.47872e-09
1.49305e-09
1.48023e-09
1.4409e-09
1.37698e-09
1.29157e-09
1.18867e-09
1.07288e-09
9.49084e-10
8.22072e-10
6.96201e-10
5.75102e-10
4.61448e-10
3.56793e-10
2.61506e-10
1.74798e-10
9.48415e-11
6.6989e-13
2.57829e-15
2.54369e-15
6.61046e-13
9.36372e-11
1.72642e-10
2.58396e-10
3.52749e-10
4.56532e-10
5.69427e-10
6.89935e-10
8.15435e-10
9.42339e-10
1.06632e-09
1.1826e-09
1.28629e-09
1.37276e-09
1.43795e-09
1.47872e-09
1.49305e-09
1.48023e-09
1.4409e-09
1.37698e-09
1.29157e-09
1.18867e-09
1.07288e-09
9.49084e-10
8.22072e-10
6.96201e-10
5.75102e-10
4.61448e-10
3.56793e-10
2.61506e-10
1.74798e-10
9.48415e-11
6.6989e-13
2.57829e-15
2.54369e-15
6.61046e-13
9.36372e-11
1.72642e-10
2.58396e-10
3.52749e-10
4.56532e-10
5.69427e-10
6.89935e-10
8.15435e-10
9.42339e-10
1.06632e-09
1.1826e-09
1.28629e-09
1.37276e-09
1.43795e-09
1.47872e-09
1.49305e-09
1.48023e-09
1.4409e-09
1.37698e-09
1.29157e-09
1.18867e-09
1.07288e-09
9.49084e-10
8.22072e-10
6.96201e-10
5.75102e-10
4.61448e-10
3.56793e-10
2.61506e-10
1.74798e-10
9.48415e-11
6.6989e-13
2.57829e-15
2.54369e-15
6.61046e-13
9.36372e-11
1.72642e-10
2.58396e-10
3.52749e-10
4.56532e-10
5.69427e-10
6.89935e-10
8.15435e-10
9.42339e-10
1.06632e-09
1.1826e-09
1.28629e-09
1.37276e-09
1.43795e-09
1.47872e-09
1.49305e-09
1.48023e-09
1.4409e-09
1.37698e-09
1.29157e-09
1.18867e-09
1.07288e-09
9.49084e-10
8.22072e-10
6.96201e-10
5.75102e-10
4.61448e-10
3.56793e-10
2.61506e-10
1.74798e-10
9.48415e-11
6.6989e-13
2.57829e-15
2.54369e-15
6.61046e-13
9.36372e-11
1.72642e-10
2.58396e-10
3.52749e-10
4.56532e-10
5.69427e-10
6.89935e-10
8.15435e-10
9.42339e-10
1.06632e-09
1.1826e-09
1.28629e-09
1.37276e-09
1.43795e-09
1.47872e-09
1.49305e-09
1.48023e-09
1.4409e-09
1.37698e-09
1.29157e-09
1.18867e-09
1.07288e-09
9.49084e-10
8.22072e-10
6.96201e-10
5.75102e-10
4.61448e-10
3.56793e-10
2.61506e-10
1.74798e-10
9.48415e-11
6.6989e-13
2.57829e-15
2.54369e-15
6.61046e-13
9.36372e-11
1.72642e-10
2.58396e-10
3.52749e-10
4.56532e-10
5.69427e-10
6.89935e-10
8.15435e-10
9.42339e-10
1.06632e-09
1.1826e-09
1.28629e-09
1.37276e-09
1.43795e-09
1.47872e-09
1.49305e-09
1.48023e-09
1.4409e-09
1.37698e-09
1.29157e-09
1.18867e-09
1.07288e-09
9.49084e-10
8.22072e-10
6.96201e-10
5.75102e-10
4.61448e-10
3.56793e-10
2.61506e-10
1.74798e-10
9.48415e-11
6.6989e-13
2.57829e-15
2.54369e-15
6.61046e-13
9.36372e-11
1.72642e-10
2.58396e-10
3.52749e-10
4.56532e-10
5.69427e-10
6.89935e-10
8.15435e-10
9.42339e-10
1.06632e-09
1.1826e-09
1.28629e-09
1.37276e-09
1.43795e-09
1.47872e-09
1.49305e-09
1.48023e-09
1.4409e-09
1.37698e-09
1.29157e-09
1.18867e-09
1.07288e-09
9.49084e-10
8.22072e-10
6.96201e-10
5.75102e-10
4.61448e-10
3.56793e-10
2.61506e-10
1.74798e-10
9.48415e-11
6.6989e-13
2.57829e-15
2.54369e-15
6.61046e-13
9.36372e-11
1.72642e-10
2.58396e-10
3.52749e-10
4.56532e-10
5.69427e-10
6.89935e-10
8.15435e-10
9.42339e-10
1.06632e-09
1.1826e-09
1.28629e-09
1.37276e-09
1.43795e-09
1.47872e-09
1.49305e-09
1.48023e-09
1.4409e-09
1.37698e-09
1.29157e-09
1.18867e-09
1.07288e-09
9.49084e-10
8.22072e-10
6.96201e-10
5.75102e-10
4.61448e-10
3.56793e-10
2.61506e-10
1.74798e-10
9.48415e-11
6.6989e-13
2.57829e-15
2.54369e-15
6.61046e-13
9.36372e-11
1.72642e-10
2.58396e-10
3.52749e-10
4.56532e-10
5.69427e-10
6.89935e-10
8.15435e-10
9.42339e-10
1.06632e-09
1.1826e-09
1.28629e-09
1.37276e-09
1.43795e-09
1.47872e-09
1.49305e-09
1.48023e-09
1.4409e-09
1.37698e-09
1.29157e-09
1.18867e-09
1.07288e-09
9.49084e-10
8.22072e-10
6.96201e-10
5.75102e-10
4.61448e-10
3.56793e-10
2.61506e-10
1.74798e-10
9.48415e-11
6.6989e-13
2.57829e-15
2.54369e-15
6.61046e-13
9.36372e-11
1.72642e-10
2.58396e-10
3.52749e-10
4.56532e-10
5.69427e-10
6.89935e-10
8.15435e-10
9.42339e-10
1.06632e-09
1.1826e-09
1.28629e-09
1.37276e-09
1.43795e-09
1.47872e-09
1.49305e-09
1.48023e-09
1.4409e-09
1.37698e-09
1.29157e-09
1.18867e-09
1.07288e-09
9.49084e-10
8.22072e-10
6.96201e-10
5.75102e-10
4.61448e-10
3.56793e-10
2.61506e-10
1.74798e-10
9.48415e-11
6.6989e-13
2.57829e-15
2.54369e-15
6.61046e-13
9.36372e-11
1.72642e-10
2.58396e-10
3.52749e-10
4.56532e-10
5.69427e-10
6.89935e-10
8.15435e-10
9.42339e-10
1.06632e-09
1.1826e-09
1.28629e-09
1.37276e-09
1.43795e-09
1.47872e-09
1.49305e-09
1.48023e-09
1.4409e-09
1.37698e-09
1.29157e-09
1.18867e-09
1.07288e-09
9.49084e-10
8.22072e-10
6.96201e-10
5.75102e-10
4.61448e-10
3.56793e-10
2.61506e-10
1.74798e-10
9.48415e-11
6.6989e-13
2.57829e-15
2.54369e-15
6.61046e-13
9.36372e-11
1.72642e-10
2.58396e-10
3.52749e-10
4.56532e-10
5.69427e-10
6.89935e-10
8.15435e-10
9.42339e-10
1.06632e-09
1.1826e-09
1.28629e-09
1.37276e-09
1.43795e-09
1.47872e-09
1.49305e-09
1.48023e-09
1.4409e-09
1.37698e-09
1.29157e-09
1.18867e-09
1.07288e-09
9.49084e-10
8.22072e-10
6.96201e-10
5.75102e-10
4.61448e-10
3.56793e-10
2.61506e-10
1.74798e-10
9.48415e-11
6.6989e-13
2.57829e-15
2.54369e-15
6.61046e-13
9.36372e-11
1.72642e-10
2.58396e-10
3.52749e-10
4.56532e-10
5.69427e-10
6.89935e-10
8.15435e-10
9.42339e-10
1.06632e-09
1.1826e-09
1.28629e-09
1.37276e-09
1.43795e-09
1.47872e-09
1.49305e-09
1.48023e-09
1.4409e-09
1.37698e-09
1.29157e-09
1.18867e-09
1.07288e-09
9.49084e-10
8.22072e-10
6.96201e-10
5.75102e-10
4.61448e-10
3.56793e-10
2.61506e-10
1.74798e-10
9.48415e-11
6.6989e-13
2.57829e-15
2.54369e-15
6.61046e-13
9.36372e-11
1.72642e-10
2.58396e-10
3.52749e-10
4.56532e-10
5.69427e-10
6.89935e-10
8.15435e-10
9.42339e-10
1.06632e-09
1.1826e-09
1.28629e-09
1.37276e-09
1.43795e-09
1.47872e-09
1.49305e-09
1.48023e-09
1.4409e-09
1.37698e-09
1.29157e-09
1.18867e-09
1.07288e-09
9.49084e-10
8.22072e-10
6.96201e-10
5.75102e-10
4.61448e-10
3.56793e-10
2.61506e-10
1.74798e-10
9.48415e-11
6.6989e-13
2.57829e-15
2.54369e-15
6.61046e-13
9.36372e-11
1.72642e-10
2.58396e-10
3.52749e-10
4.56532e-10
5.69427e-10
6.89935e-10
8.15435e-10
9.42339e-10
1.06632e-09
1.1826e-09
1.28629e-09
1.37276e-09
1.43795e-09
1.47872e-09
1.49305e-09
1.48023e-09
1.4409e-09
1.37698e-09
1.29157e-09
1.18867e-09
1.07288e-09
9.49084e-10
8.22072e-10
6.96201e-10
5.75102e-10
4.61448e-10
3.56793e-10
2.61506e-10
1.74798e-10
9.48415e-11
6.6989e-13
2.57829e-15
2.54369e-15
6.61046e-13
9.36372e-11
1.72642e-10
2.58396e-10
3.52749e-10
4.56532e-10
5.69427e-10
6.89935e-10
8.15435e-10
9.42339e-10
1.06632e-09
1.1826e-09