/*--------------------------------*- C++ -*----------------------------------*\
  =========                 |
  \\      /  F ield         | OpenFOAM: The Open Source CFD Toolbox
   \\    /   O peration     | Website:  https://openfoam.org
    \\  /    A nd           | Version:  13
     \\/     M anipulation  |
\*---------------------------------------------------------------------------*/
FoamFile
{
    format      ascii;
    class       volScalarField;
    location    "135";
    object      nut;
}
// * * * * * * * * * * * * * * * * * * * * * * * * * * * * * * * * * * * * * //

dimensions      [0 2 -1 0 0 0 0];

internalField   nonuniform List<scalar> 
315000
(
1.92066e-15
5.03068e-13
1.14815e-11
2.06147e-11
2.99058e-11
3.93776e-11
4.90575e-11
5.89697e-11
6.91312e-11
7.95498e-11
9.02234e-11
1.0114e-10
1.12275e-10
1.23599e-10
1.35068e-10
1.46632e-10
1.58236e-10
1.69815e-10
1.81302e-10
1.92625e-10
2.03711e-10
2.14483e-10
2.24867e-10
2.34788e-10
2.44174e-10
2.52955e-10
2.61065e-10
2.68442e-10
2.7503e-10
2.80778e-10
2.85641e-10
2.89582e-10
2.92569e-10
2.94578e-10
2.95595e-10
2.9561e-10
2.94625e-10
2.92646e-10
2.89689e-10
2.85778e-10
2.80943e-10
2.75221e-10
2.68658e-10
2.61304e-10
2.53215e-10
2.44453e-10
2.35084e-10
2.25178e-10
2.14806e-10
2.04043e-10
1.92965e-10
1.81645e-10
1.7016e-10
1.5858e-10
1.46972e-10
1.35401e-10
1.23923e-10
1.12589e-10
1.0144e-10
9.05088e-11
7.9818e-11
6.93803e-11
5.91979e-11
4.92627e-11
3.95573e-11
3.00569e-11
2.07325e-11
1.1558e-11
5.07095e-13
1.93754e-15
4.80747e-14
1.28042e-11
2.91681e-09
5.27808e-09
7.67038e-09
1.01053e-08
1.25926e-08
1.51399e-08
1.77521e-08
2.04317e-08
2.31782e-08
2.59885e-08
2.88567e-08
3.17744e-08
3.47307e-08
3.77125e-08
4.07051e-08
4.36919e-08
4.66552e-08
4.95765e-08
5.24365e-08
5.52157e-08
5.78947e-08
6.04541e-08
6.28753e-08
6.51402e-08
6.72319e-08
6.91344e-08
7.08332e-08
7.23152e-08
7.35689e-08
7.45845e-08
7.53541e-08
7.58717e-08
7.61332e-08
7.61365e-08
7.58817e-08
7.53707e-08
7.46075e-08
7.35982e-08
7.23505e-08
7.08742e-08
6.91807e-08
6.72832e-08
6.5196e-08
6.29352e-08
6.05176e-08
5.79612e-08
5.52847e-08
5.25074e-08
4.96488e-08
4.67282e-08
4.37651e-08
4.07779e-08
3.77843e-08
3.48009e-08
3.18425e-08
2.89222e-08
2.60509e-08
2.3237e-08
2.04864e-08
1.78023e-08
1.51851e-08
1.26325e-08
1.01392e-08
7.69772e-09
5.29815e-09
2.92871e-09
1.28602e-11
4.82913e-14
1.93499e-13
5.16117e-11
2.99559e-08
5.42256e-08
7.88211e-08
1.03885e-07
1.29539e-07
1.55879e-07
1.82969e-07
2.10846e-07
2.39508e-07
2.68924e-07
2.99028e-07
3.29724e-07
3.60888e-07
3.92368e-07
4.23996e-07
4.55584e-07
4.86934e-07
5.17839e-07
5.48087e-07
5.77468e-07
6.05771e-07
6.32792e-07
6.58333e-07
6.82208e-07
7.04238e-07
7.2426e-07
7.42124e-07
7.57698e-07
7.70863e-07
7.81522e-07
7.89595e-07
7.9502e-07
7.97756e-07
7.97784e-07
7.95102e-07
7.89732e-07
7.81712e-07
7.71105e-07
7.57989e-07
7.42462e-07
7.24642e-07
7.04661e-07
6.82668e-07
6.58827e-07
6.33315e-07
6.06319e-07
5.78036e-07
5.48671e-07
5.18433e-07
4.87534e-07
4.56185e-07
4.24592e-07
3.92955e-07
3.6146e-07
3.30277e-07
2.99558e-07
2.69426e-07
2.39978e-07
2.11279e-07
1.83364e-07
1.56231e-07
1.29845e-07
1.04142e-07
7.90249e-08
5.43724e-08
3.0041e-08
5.17656e-11
1.94088e-13
3.65376e-13
9.74635e-11
5.65338e-08
1.02314e-07
1.48763e-07
1.96201e-07
2.44905e-07
2.95091e-07
3.46914e-07
4.00457e-07
4.55729e-07
5.12667e-07
5.71131e-07
6.30915e-07
6.91746e-07
7.53298e-07
8.15202e-07
8.77059e-07
9.38451e-07
9.9895e-07
1.05813e-06
1.11557e-06
1.17085e-06
1.22357e-06
1.27336e-06
1.31986e-06
1.36272e-06
1.40164e-06
1.43634e-06
1.46656e-06
1.4921e-06
1.51276e-06
1.52839e-06
1.5389e-06
1.54419e-06
1.54423e-06
1.53902e-06
1.5286e-06
1.51305e-06
1.49247e-06
1.46701e-06
1.43686e-06
1.40223e-06
1.36337e-06
1.32056e-06
1.27412e-06
1.22437e-06
1.17169e-06
1.11644e-06
1.05903e-06
9.99862e-07
9.39371e-07
8.7798e-07
8.16116e-07
7.54197e-07
6.92622e-07
6.31761e-07
5.7194e-07
5.13431e-07
4.56442e-07
4.01114e-07
3.47509e-07
2.9562e-07
2.45362e-07
1.96583e-07
1.49064e-07
1.0253e-07
5.66581e-08
9.76884e-11
3.66236e-13
5.64019e-13
1.50462e-10
8.72032e-08
1.5773e-07
2.29294e-07
3.02446e-07
3.77653e-07
4.55281e-07
5.35586e-07
6.18702e-07
7.0464e-07
7.93281e-07
8.84383e-07
9.77585e-07
1.07242e-06
1.16835e-06
1.26476e-06
1.361e-06
1.45644e-06
1.5504e-06
1.64223e-06
1.73129e-06
1.81696e-06
1.89864e-06
1.97574e-06
2.04771e-06
2.11403e-06
2.17424e-06
2.22791e-06
2.27464e-06
2.31411e-06
2.34604e-06
2.37019e-06
2.38641e-06
2.39458e-06
2.39463e-06
2.38657e-06
2.37046e-06
2.3464e-06
2.31457e-06
2.2752e-06
2.22856e-06
2.17498e-06
2.11485e-06
2.04859e-06
1.97669e-06
1.89965e-06
1.81802e-06
1.73239e-06
1.64335e-06
1.55154e-06
1.45759e-06
1.36216e-06
1.26591e-06
1.16948e-06
1.07353e-06
9.78652e-07
8.85403e-07
7.94245e-07
7.0554e-07
6.19531e-07
5.36336e-07
4.55946e-07
3.78227e-07
3.02925e-07
2.29671e-07
1.58e-07
8.73585e-08
1.50744e-10
5.65098e-13
7.79571e-13
2.07977e-10
1.20419e-07
2.17624e-07
3.16181e-07
4.16894e-07
5.20434e-07
6.27321e-07
7.37908e-07
8.52368e-07
9.70689e-07
1.09268e-06
1.21795e-06
1.34597e-06
1.47605e-06
1.60741e-06
1.73921e-06
1.87058e-06
2.00062e-06
2.12848e-06
2.25328e-06
2.3742e-06
2.49041e-06
2.60111e-06
2.70554e-06
2.80297e-06
2.89272e-06
2.97416e-06
3.04672e-06
3.10989e-06
3.16322e-06
3.20635e-06
3.23898e-06
3.26087e-06
3.27189e-06
3.27195e-06
3.26105e-06
3.23927e-06
3.20676e-06
3.16374e-06
3.11052e-06
3.04745e-06
2.97499e-06
2.89364e-06
2.80397e-06
2.70661e-06
2.60224e-06
2.4916e-06
2.37544e-06
2.25455e-06
2.12977e-06
2.00193e-06
1.87189e-06
1.74052e-06
1.6087e-06
1.4773e-06
1.34718e-06
1.21911e-06
1.09377e-06
9.71716e-07
8.53314e-07
7.38765e-07
6.28081e-07
5.2109e-07
4.1744e-07
3.16611e-07
2.17931e-07
1.20596e-07
2.083e-10
7.80811e-13
9.97815e-13
2.66216e-10
1.53981e-07
2.78003e-07
4.03593e-07
5.31808e-07
6.6352e-07
7.99394e-07
9.39863e-07
1.08512e-06
1.23513e-06
1.38957e-06
1.54794e-06
1.70949e-06
1.87332e-06
2.03844e-06
2.20378e-06
2.36825e-06
2.53078e-06
2.6903e-06
2.84578e-06
2.99621e-06
3.14061e-06
3.27802e-06
3.40752e-06
3.52825e-06
3.63939e-06
3.74017e-06
3.82992e-06
3.90802e-06
3.97395e-06
4.02724e-06
4.06755e-06
4.09459e-06
4.10819e-06
4.10825e-06
4.09478e-06
4.06786e-06
4.02767e-06
3.9745e-06
3.90869e-06
3.83069e-06
3.74104e-06
3.64035e-06
3.5293e-06
3.40865e-06
3.27921e-06
3.14186e-06
2.99751e-06
2.84712e-06
2.69167e-06
2.53216e-06
2.36964e-06
2.20516e-06
2.0398e-06
1.87465e-06
1.71077e-06
1.54917e-06
1.39074e-06
1.23622e-06
1.08613e-06
9.40777e-07
8.00205e-07
6.64221e-07
5.32391e-07
4.04052e-07
2.78331e-07
1.5417e-07
2.66564e-10
9.99151e-13
1.20444e-12
3.21361e-10
1.85693e-07
3.34926e-07
4.85836e-07
6.39717e-07
7.97629e-07
9.60361e-07
1.12841e-06
1.30199e-06
1.481e-06
1.66503e-06
1.85341e-06
2.04523e-06
2.2394e-06
2.43471e-06
2.62992e-06
2.82376e-06
3.01499e-06
3.2024e-06
3.38479e-06
3.56103e-06
3.73e-06
3.89062e-06
4.04188e-06
4.18277e-06
4.31238e-06
4.42986e-06
4.53443e-06
4.62539e-06
4.70214e-06
4.76418e-06
4.81109e-06
4.84256e-06
4.85837e-06
4.85844e-06
4.84274e-06
4.8114e-06
4.76461e-06
4.70269e-06
4.62605e-06
4.5352e-06
4.43073e-06
4.31334e-06
4.18382e-06
4.043e-06
3.89182e-06
3.73125e-06
3.56233e-06
3.38614e-06
3.20377e-06
3.01638e-06
2.82516e-06
2.63131e-06
2.43608e-06
2.24074e-06
2.04654e-06
1.85466e-06
1.66622e-06
1.48211e-06
1.30302e-06
1.12934e-06
9.61186e-07
7.98342e-07
6.4031e-07
4.86302e-07
3.3526e-07
1.85886e-07
3.21717e-10
1.20581e-12
1.38799e-12
3.70358e-10
2.13817e-07
3.85306e-07
5.58492e-07
7.34886e-07
9.15705e-07
1.10185e-06
1.29387e-06
1.49197e-06
1.696e-06
1.90547e-06
2.11956e-06
2.33721e-06
2.55716e-06
2.77807e-06
2.99851e-06
3.2171e-06
3.43244e-06
3.64321e-06
3.8481e-06
4.04587e-06
4.2353e-06
4.41522e-06
4.58451e-06
4.74212e-06
4.88703e-06
5.01831e-06
5.13513e-06
5.23674e-06
5.32247e-06
5.39177e-06
5.44418e-06
5.47933e-06
5.49699e-06
5.49705e-06
5.47951e-06
5.44448e-06
5.39219e-06
5.32301e-06
5.23738e-06
5.13588e-06
5.01916e-06
4.88796e-06
4.74314e-06
4.58561e-06
4.41638e-06
4.23652e-06
4.04714e-06
3.84941e-06
3.64455e-06
3.4338e-06
3.21846e-06
2.99987e-06
2.77941e-06
2.55848e-06
2.33849e-06
2.12079e-06
1.90664e-06
1.6971e-06
1.49298e-06
1.29478e-06
1.10266e-06
9.16407e-07
7.35469e-07
5.58951e-07
3.85634e-07
2.14007e-07
3.7071e-10
1.38935e-12
1.54152e-12
4.1135e-10
2.37309e-07
4.27317e-07
6.18989e-07
8.14017e-07
1.01375e-06
1.21918e-06
1.43089e-06
1.6491e-06
1.87359e-06
2.10379e-06
2.33879e-06
2.57738e-06
2.8182e-06
3.05975e-06
3.30052e-06
3.53899e-06
3.77368e-06
4.00317e-06
4.22606e-06
4.44102e-06
4.64678e-06
4.84208e-06
5.02575e-06
5.19665e-06
5.35377e-06
5.49615e-06
5.62287e-06
5.7331e-06
5.82613e-06
5.90131e-06
5.95816e-06
5.9963e-06
6.01545e-06
6.01551e-06
5.99647e-06
5.95845e-06
5.90171e-06
5.82663e-06
5.73372e-06
5.62358e-06
5.49695e-06
5.35467e-06
5.19763e-06
5.02679e-06
4.84319e-06
4.64795e-06
4.44224e-06
4.22732e-06
4.00445e-06
3.77499e-06
3.5403e-06
3.30183e-06
3.06104e-06
2.81947e-06
2.57861e-06
2.33997e-06
2.10492e-06
1.87464e-06
1.65007e-06
1.43178e-06
1.21996e-06
1.01443e-06
8.1458e-07
6.19432e-07
4.27633e-07
2.37492e-07
4.11691e-10
1.54285e-12
1.66282e-12
4.43744e-10
2.55851e-07
4.60432e-07
6.66623e-07
8.76257e-07
1.0908e-06
1.31129e-06
1.53837e-06
1.77222e-06
2.01262e-06
2.25891e-06
2.5101e-06
2.76489e-06
3.02181e-06
3.27929e-06
3.5357e-06
3.78947e-06
4.03903e-06
4.28288e-06
4.51957e-06
4.74772e-06
4.96597e-06
5.17304e-06
5.36774e-06
5.54895e-06
5.71557e-06
5.86657e-06
6.00095e-06
6.11785e-06
6.21649e-06
6.29621e-06
6.35648e-06
6.3969e-06
6.4172e-06
6.41726e-06
6.39706e-06
6.35675e-06
6.29659e-06
6.21697e-06
6.11844e-06
6.00163e-06
5.86733e-06
5.71642e-06
5.54988e-06
5.36874e-06
5.17411e-06
4.96709e-06
4.74888e-06
4.52077e-06
4.28411e-06
4.04027e-06
3.79072e-06
3.53696e-06
3.28053e-06
3.02303e-06
2.76608e-06
2.51124e-06
2.26e-06
2.01364e-06
1.77316e-06
1.53922e-06
1.31205e-06
1.09145e-06
8.76798e-07
6.67047e-07
4.60735e-07
2.56026e-07
4.44072e-10
1.6641e-12
1.7536e-12
4.67994e-10
2.6972e-07
4.85179e-07
7.0219e-07
9.22701e-07
1.14825e-06
1.37994e-06
1.61843e-06
1.8639e-06
2.11608e-06
2.37429e-06
2.63745e-06
2.90421e-06
3.17303e-06
3.44225e-06
3.7102e-06
3.97524e-06
4.23575e-06
4.49017e-06
4.73703e-06
4.97487e-06
5.20232e-06
5.4181e-06
5.62101e-06
5.80988e-06
5.98356e-06
6.14093e-06
6.28099e-06
6.40281e-06
6.50559e-06
6.58864e-06
6.65143e-06
6.69353e-06
6.71468e-06
6.71473e-06
6.69369e-06
6.65169e-06
6.589e-06
6.50605e-06
6.40337e-06
6.28164e-06
6.14167e-06
5.98437e-06
5.81077e-06
5.62197e-06
5.41912e-06
5.20339e-06
4.97599e-06
4.73818e-06
4.49135e-06
4.23694e-06
3.97644e-06
3.71141e-06
3.44344e-06
3.1742e-06
2.90535e-06
2.63855e-06
2.37533e-06
2.11706e-06
1.8648e-06
1.61925e-06
1.38067e-06
1.14888e-06
9.2322e-07
7.02597e-07
4.85469e-07
2.69889e-07
4.68311e-10
1.75483e-12
1.81814e-12
4.85238e-10
2.79578e-07
5.02755e-07
7.27441e-07
9.55661e-07
1.18901e-06
1.42864e-06
1.67521e-06
1.9289e-06
2.18943e-06
2.45607e-06
2.72771e-06
3.00294e-06
3.28016e-06
3.55768e-06
3.83379e-06
4.1068e-06
4.37505e-06
4.63695e-06
4.89099e-06
5.13569e-06
5.36966e-06
5.59164e-06
5.8004e-06
5.99472e-06
6.1734e-06
6.3353e-06
6.47938e-06
6.60468e-06
6.71039e-06
6.79581e-06
6.86038e-06
6.90368e-06
6.92542e-06
6.92547e-06
6.90383e-06
6.86063e-06
6.79616e-06
6.71084e-06
6.60522e-06
6.48001e-06
6.33601e-06
6.17419e-06
5.99558e-06
5.80133e-06
5.59262e-06
5.37069e-06
5.13677e-06
4.8921e-06
4.63809e-06
4.37621e-06
4.10797e-06
3.83496e-06
3.55884e-06
3.2813e-06
3.00404e-06
2.72877e-06
2.45708e-06
2.19038e-06
1.92977e-06
1.676e-06
1.42935e-06
1.18962e-06
9.56164e-07
7.27835e-07
5.03036e-07
2.7974e-07
4.85545e-10
1.81933e-12
1.86182e-12
4.96916e-10
2.86251e-07
5.1465e-07
7.44526e-07
9.77961e-07
1.21659e-06
1.46159e-06
1.71363e-06
1.97288e-06
2.23907e-06
2.51142e-06
2.78881e-06
3.06977e-06
3.35269e-06
3.63585e-06
3.9175e-06
4.1959e-06
4.4694e-06
4.73638e-06
4.99529e-06
5.24465e-06
5.48307e-06
5.70929e-06
5.92204e-06
6.12008e-06
6.30217e-06
6.46716e-06
6.61397e-06
6.74164e-06
6.84935e-06
6.93637e-06
7.00215e-06
7.04626e-06
7.06841e-06
7.06846e-06
7.04641e-06
7.0024e-06
6.93672e-06
6.84978e-06
6.74217e-06
6.61458e-06
6.46785e-06
6.30294e-06
6.12092e-06
5.92295e-06
5.71025e-06
5.48408e-06
5.2457e-06
4.99638e-06
4.7375e-06
4.47054e-06
4.19705e-06
3.91864e-06
3.63699e-06
3.35381e-06
3.07086e-06
2.78985e-06
2.51242e-06
2.24e-06
1.97374e-06
1.7144e-06
1.46228e-06
1.21719e-06
9.78452e-07
7.44911e-07
5.14925e-07
2.8641e-07
4.97216e-10
1.86299e-12
1.89005e-12
5.04465e-10
2.90565e-07
5.22339e-07
7.55569e-07
9.92376e-07
1.23442e-06
1.4829e-06
1.73848e-06
2.00135e-06
2.2712e-06
2.54727e-06
2.82838e-06
3.11308e-06
3.39971e-06
3.68653e-06
3.97178e-06
4.25371e-06
4.53063e-06
4.80092e-06
5.06302e-06
5.31541e-06
5.55674e-06
5.78574e-06
6.00111e-06
6.20158e-06
6.3859e-06
6.55291e-06
6.70151e-06
6.83074e-06
6.93975e-06
7.02782e-06
7.0944e-06
7.13904e-06
7.16145e-06
7.1615e-06
7.13918e-06
7.09464e-06
7.02816e-06
6.94018e-06
6.83126e-06
6.70211e-06
6.55359e-06
6.38666e-06
6.20241e-06
6.002e-06
5.78669e-06
5.55774e-06
5.31645e-06
5.06409e-06
4.80203e-06
4.53175e-06
4.25484e-06
3.97291e-06
3.68765e-06
3.40081e-06
3.11415e-06
2.82941e-06
2.54825e-06
2.27212e-06
2.0022e-06
1.73925e-06
1.48358e-06
1.23501e-06
9.9286e-07
7.55948e-07
5.22609e-07
2.90721e-07
5.0476e-10
1.89121e-12
1.90751e-12
5.09134e-10
2.93233e-07
5.27095e-07
7.62401e-07
1.0013e-06
1.24546e-06
1.49609e-06
1.75388e-06
2.019e-06
2.29113e-06
2.56951e-06
2.85295e-06
3.13998e-06
3.42893e-06
3.71805e-06
4.00555e-06
4.28968e-06
4.56875e-06
4.84112e-06
5.1052e-06
5.3595e-06
5.60267e-06
5.83342e-06
6.05043e-06
6.25243e-06
6.43816e-06
6.60644e-06
6.75616e-06
6.88637e-06
6.9962e-06
7.08494e-06
7.15202e-06
7.19699e-06
7.21957e-06
7.21962e-06
7.19713e-06
7.15226e-06
7.08528e-06
6.99663e-06
6.88689e-06
6.75676e-06
6.60711e-06
6.43891e-06
6.25325e-06
6.05132e-06
5.83436e-06
5.60367e-06
5.36054e-06
5.10627e-06
4.84221e-06
4.56986e-06
4.2908e-06
4.00667e-06
3.71916e-06
3.43002e-06
3.14105e-06
2.85398e-06
2.57049e-06
2.29205e-06
2.01984e-06
1.75464e-06
1.49677e-06
1.24604e-06
1.00178e-06
7.62778e-07
5.27363e-07
2.93388e-07
5.09427e-10
1.90865e-12
1.91785e-12
5.11903e-10
2.94816e-07
5.29916e-07
7.66456e-07
1.00659e-06
1.25202e-06
1.50394e-06
1.76303e-06
2.02949e-06
2.303e-06
2.58277e-06
2.8676e-06
3.15603e-06
3.44637e-06
3.73686e-06
4.02572e-06
4.31118e-06
4.59155e-06
4.86516e-06
5.13046e-06
5.38591e-06
5.63019e-06
5.86199e-06
6.08e-06
6.28293e-06
6.46951e-06
6.63855e-06
6.78896e-06
6.91976e-06
7.03009e-06
7.11923e-06
7.18661e-06
7.23179e-06
7.25447e-06
7.25452e-06
7.23193e-06
7.18685e-06
7.11957e-06
7.03052e-06
6.92028e-06
6.78956e-06
6.63923e-06
6.47026e-06
6.28375e-06
6.08088e-06
5.86293e-06
5.63118e-06
5.38694e-06
5.13152e-06
4.86625e-06
4.59265e-06
4.3123e-06
4.02684e-06
3.73797e-06
3.44746e-06
3.15709e-06
2.86862e-06
2.58374e-06
2.30391e-06
2.03033e-06
1.76379e-06
1.50461e-06
1.2526e-06
1.00707e-06
7.66831e-07
5.30183e-07
2.9497e-07
5.12195e-10
1.919e-12
1.92375e-12
5.1348e-10
2.95718e-07
5.31525e-07
7.68768e-07
1.00961e-06
1.25576e-06
1.50841e-06
1.76827e-06
2.0355e-06
2.30979e-06
2.59036e-06
2.876e-06
3.16523e-06
3.45638e-06
3.74767e-06
4.03732e-06
4.32355e-06
4.60466e-06
4.879e-06
5.145e-06
5.40113e-06
5.64605e-06
5.87847e-06
6.09706e-06
6.30052e-06
6.4876e-06
6.6571e-06
6.80791e-06
6.93905e-06
7.04967e-06
7.13905e-06
7.2066e-06
7.2519e-06
7.27464e-06
7.27469e-06
7.25204e-06
7.20684e-06
7.13938e-06
7.0501e-06
6.93956e-06
6.8085e-06
6.65777e-06
6.48835e-06
6.30134e-06
6.09794e-06
5.87941e-06
5.64704e-06
5.40216e-06
5.14606e-06
4.88009e-06
4.60577e-06
4.32467e-06
4.03843e-06
3.74878e-06
3.45747e-06
3.16629e-06
2.87702e-06
2.59133e-06
2.3107e-06
2.03634e-06
1.76903e-06
1.50909e-06
1.25634e-06
1.01009e-06
7.69142e-07
5.31791e-07
2.95872e-07
5.13773e-10
1.92489e-12
1.92698e-12
5.14345e-10
2.96213e-07
5.32407e-07
7.70037e-07
1.01127e-06
1.25782e-06
1.51088e-06
1.77115e-06
2.03881e-06
2.31354e-06
2.59454e-06
2.88063e-06
3.17032e-06
3.46192e-06
3.75365e-06
4.04373e-06
4.3304e-06
4.61193e-06
4.88668e-06
5.15307e-06
5.40957e-06
5.65486e-06
5.88762e-06
6.10654e-06
6.31031e-06
6.49767e-06
6.66741e-06
6.81845e-06
6.94979e-06
7.06057e-06
7.15008e-06
7.21773e-06
7.2631e-06
7.28587e-06
7.28592e-06
7.26324e-06
7.21797e-06
7.15042e-06
7.061e-06
6.9503e-06
6.81905e-06
6.66809e-06
6.49842e-06
6.31113e-06
6.10742e-06
5.88856e-06
5.65585e-06
5.4106e-06
5.15413e-06
4.88777e-06
4.61304e-06
4.33152e-06
4.04485e-06
3.75476e-06
3.463e-06
3.17138e-06
2.88165e-06
2.59551e-06
2.31445e-06
2.03965e-06
1.77191e-06
1.51155e-06
1.2584e-06
1.01175e-06
7.70411e-07
5.32674e-07
2.96367e-07
5.14637e-10
1.92812e-12
1.92868e-12
5.14802e-10
2.96474e-07
5.32874e-07
7.70708e-07
1.01215e-06
1.25891e-06
1.51218e-06
1.77268e-06
2.04056e-06
2.31553e-06
2.59677e-06
2.8831e-06
3.17303e-06
3.46487e-06
3.75684e-06
4.04716e-06
4.33406e-06
4.61582e-06
4.89079e-06
5.15739e-06
5.41409e-06
5.65958e-06
5.89253e-06
6.11162e-06
6.31556e-06
6.50307e-06
6.67295e-06
6.82411e-06
6.95555e-06
7.06643e-06
7.15601e-06
7.22372e-06
7.26911e-06
7.29191e-06
7.29196e-06
7.26926e-06
7.22396e-06
7.15634e-06
7.06685e-06
6.95607e-06
6.82471e-06
6.67363e-06
6.50382e-06
6.31638e-06
6.11251e-06
5.89347e-06
5.66057e-06
5.41512e-06
5.15845e-06
4.89188e-06
4.61693e-06
4.33518e-06
4.04828e-06
3.75795e-06
3.46596e-06
3.17409e-06
2.88412e-06
2.59774e-06
2.31644e-06
2.0414e-06
1.77344e-06
1.51286e-06
1.25949e-06
1.01263e-06
7.71083e-07
5.3314e-07
2.96628e-07
5.15095e-10
1.92982e-12
1.92955e-12
5.15036e-10
2.96608e-07
5.33112e-07
7.71051e-07
1.0126e-06
1.25946e-06
1.51285e-06
1.77346e-06
2.04146e-06
2.31655e-06
2.59791e-06
2.88437e-06
3.17442e-06
3.46639e-06
3.75849e-06
4.04893e-06
4.33595e-06
4.61782e-06
4.89291e-06
5.15962e-06
5.41643e-06
5.66202e-06
5.89507e-06
6.11426e-06
6.31828e-06
6.50587e-06
6.67582e-06
6.82704e-06
6.95855e-06
7.06947e-06
7.15908e-06
7.22682e-06
7.27224e-06
7.29504e-06
7.29509e-06
7.27238e-06
7.22706e-06
7.15942e-06
7.06989e-06
6.95906e-06
6.82764e-06
6.6765e-06
6.50662e-06
6.3191e-06
6.11514e-06
5.89601e-06
5.66301e-06
5.41746e-06
5.16068e-06
4.894e-06
4.61893e-06
4.33707e-06
4.05005e-06
3.7596e-06
3.46748e-06
3.17548e-06
2.88539e-06
2.59888e-06
2.31746e-06
2.0423e-06
1.77422e-06
1.51353e-06
1.26004e-06
1.01308e-06
7.71426e-07
5.33379e-07
2.96762e-07
5.15328e-10
1.93069e-12
1.92998e-12
5.15151e-10
2.96674e-07
5.33229e-07
7.7122e-07
1.01282e-06
1.25974e-06
1.51318e-06
1.77385e-06
2.04191e-06
2.31705e-06
2.59848e-06
2.885e-06
3.17512e-06
3.46714e-06
3.75931e-06
4.04981e-06
4.33689e-06
4.61882e-06
4.89397e-06
5.16073e-06
5.4176e-06
5.66324e-06
5.89634e-06
6.11558e-06
6.31964e-06
6.50727e-06
6.67726e-06
6.82852e-06
6.96005e-06
7.07099e-06
7.16063e-06
7.22838e-06
7.2738e-06
7.29661e-06
7.29666e-06
7.27395e-06
7.22862e-06
7.16096e-06
7.07141e-06
6.96056e-06
6.82911e-06
6.67794e-06
6.50802e-06
6.32046e-06
6.11646e-06
5.89728e-06
5.66423e-06
5.41863e-06
5.1618e-06
4.89506e-06
4.61993e-06
4.33801e-06
4.05093e-06
3.76042e-06
3.46823e-06
3.17618e-06
2.88602e-06
2.59945e-06
2.31796e-06
2.04275e-06
1.77461e-06
1.51386e-06
1.26032e-06
1.0133e-06
7.71595e-07
5.33496e-07
2.96828e-07
5.15443e-10
1.93112e-12
1.93018e-12
5.15205e-10
2.96705e-07
5.33286e-07
7.71301e-07
1.01293e-06
1.25987e-06
1.51334e-06
1.77403e-06
2.04212e-06
2.3173e-06
2.59876e-06
2.8853e-06
3.17545e-06
3.46751e-06
3.7597e-06
4.05024e-06
4.33734e-06
4.61931e-06
4.89448e-06
5.16127e-06
5.41817e-06
5.66384e-06
5.89696e-06
6.11621e-06
6.3203e-06
6.50795e-06
6.67796e-06
6.82923e-06
6.96077e-06
7.07173e-06
7.16138e-06
7.22913e-06
7.27456e-06
7.29738e-06
7.29743e-06
7.27471e-06
7.22937e-06
7.16171e-06
7.07215e-06
6.96129e-06
6.82983e-06
6.67864e-06
6.5087e-06
6.32112e-06
6.1171e-06
5.8979e-06
5.66482e-06
5.4192e-06
5.16234e-06
4.89557e-06
4.62042e-06
4.33846e-06
4.05136e-06
3.76081e-06
3.4686e-06
3.17651e-06
2.88633e-06
2.59973e-06
2.31821e-06
2.04296e-06
1.77479e-06
1.51401e-06
1.26045e-06
1.01341e-06
7.71676e-07
5.33552e-07
2.96859e-07
5.15498e-10
1.93133e-12
1.93028e-12
5.15231e-10
2.9672e-07
5.33312e-07
7.71338e-07
1.01298e-06
1.25993e-06
1.51341e-06
1.77412e-06
2.04222e-06
2.31741e-06
2.59888e-06
2.88545e-06
3.17561e-06
3.46768e-06
3.75988e-06
4.05043e-06
4.33756e-06
4.61954e-06
4.89472e-06
5.16153e-06
5.41843e-06
5.66411e-06
5.89725e-06
6.11651e-06
6.32061e-06
6.50827e-06
6.67829e-06
6.82957e-06
6.96112e-06
7.07208e-06
7.16173e-06
7.22949e-06
7.27492e-06
7.29774e-06
7.29778e-06
7.27507e-06
7.22973e-06
7.16206e-06
7.0725e-06
6.96163e-06
6.83017e-06
6.67897e-06
6.50902e-06
6.32143e-06
6.1174e-06
5.89819e-06
5.6651e-06
5.41947e-06
5.16259e-06
4.89581e-06
4.62065e-06
4.33868e-06
4.05155e-06
3.761e-06
3.46877e-06
3.17667e-06
2.88647e-06
2.59985e-06
2.31832e-06
2.04306e-06
1.77488e-06
1.51409e-06
1.26051e-06
1.01346e-06
7.71714e-07
5.33578e-07
2.96874e-07
5.15523e-10
1.93142e-12
1.93032e-12
5.15242e-10
2.96726e-07
5.33323e-07
7.71355e-07
1.013e-06
1.25996e-06
1.51345e-06
1.77416e-06
2.04227e-06
2.31746e-06
2.59894e-06
2.88551e-06
3.17568e-06
3.46775e-06
3.75997e-06
4.05052e-06
4.33765e-06
4.61964e-06
4.89483e-06
5.16164e-06
5.41855e-06
5.66424e-06
5.89738e-06
6.11665e-06
6.32075e-06
6.50842e-06
6.67844e-06
6.82972e-06
6.96127e-06
7.07224e-06
7.16189e-06
7.22965e-06
7.27509e-06
7.2979e-06
7.29795e-06
7.27523e-06
7.22989e-06
7.16222e-06
7.07266e-06
6.96179e-06
6.83032e-06
6.67912e-06
6.50917e-06
6.32157e-06
6.11754e-06
5.89832e-06
5.66523e-06
5.41959e-06
5.16271e-06
4.89592e-06
4.62075e-06
4.33877e-06
4.05164e-06
3.76108e-06
3.46884e-06
3.17674e-06
2.88653e-06
2.59991e-06
2.31837e-06
2.04311e-06
1.77492e-06
1.51412e-06
1.26054e-06
1.01348e-06
7.7173e-07
5.3359e-07
2.9688e-07
5.15535e-10
1.93146e-12
1.93034e-12
5.15247e-10
2.96729e-07
5.33328e-07
7.71362e-07
1.01301e-06
1.25997e-06
1.51346e-06
1.77417e-06
2.04229e-06
2.31748e-06
2.59896e-06
2.88554e-06
3.17571e-06
3.46779e-06
3.76001e-06
4.05056e-06
4.3377e-06
4.61968e-06
4.89488e-06
5.16169e-06
5.41861e-06
5.66429e-06
5.89744e-06
6.11671e-06
6.32082e-06
6.50848e-06
6.6785e-06
6.82979e-06
6.96134e-06
7.07231e-06
7.16196e-06
7.22972e-06
7.27516e-06
7.29797e-06
7.29802e-06
7.2753e-06
7.22996e-06
7.1623e-06
7.07273e-06
6.96186e-06
6.83039e-06
6.67918e-06
6.50923e-06
6.32164e-06
6.1176e-06
5.89838e-06
5.66528e-06
5.41964e-06
5.16276e-06
4.89597e-06
4.62079e-06
4.33882e-06
4.05168e-06
3.76112e-06
3.46888e-06
3.17677e-06
2.88656e-06
2.59994e-06
2.31839e-06
2.04313e-06
1.77493e-06
1.51414e-06
1.26055e-06
1.01349e-06
7.71738e-07
5.33595e-07
2.96883e-07
5.1554e-10
1.93148e-12
1.93035e-12
5.15249e-10
2.9673e-07
5.3333e-07
7.71366e-07
1.01301e-06
1.25998e-06
1.51347e-06
1.77418e-06
2.0423e-06
2.31749e-06
2.59898e-06
2.88555e-06
3.17572e-06
3.4678e-06
3.76002e-06
4.05058e-06
4.33771e-06
4.6197e-06
4.8949e-06
5.16171e-06
5.41863e-06
5.66432e-06
5.89746e-06
6.11674e-06
6.32084e-06
6.50851e-06
6.67853e-06
6.82982e-06
6.96137e-06
7.07234e-06
7.16199e-06
7.22975e-06
7.27519e-06
7.298e-06
7.29805e-06
7.27533e-06
7.23e-06
7.16233e-06
7.07276e-06
6.96189e-06
6.83042e-06
6.67921e-06
6.50926e-06
6.32166e-06
6.11762e-06
5.8984e-06
5.66531e-06
5.41966e-06
5.16278e-06
4.89599e-06
4.62081e-06
4.33883e-06
4.0517e-06
3.76113e-06
3.46889e-06
3.17678e-06
2.88657e-06
2.59995e-06
2.3184e-06
2.04314e-06
1.77494e-06
1.51414e-06
1.26056e-06
1.01349e-06
7.71741e-07
5.33597e-07
2.96884e-07
5.15542e-10
1.93149e-12
1.93035e-12
5.1525e-10
2.96731e-07
5.33331e-07
7.71367e-07
1.01301e-06
1.25998e-06
1.51347e-06
1.77418e-06
2.0423e-06
2.3175e-06
2.59898e-06
2.88555e-06
3.17572e-06
3.46781e-06
3.76003e-06
4.05059e-06
4.33772e-06
4.61971e-06
4.89491e-06
5.16172e-06
5.41864e-06
5.66433e-06
5.89747e-06
6.11675e-06
6.32085e-06
6.50852e-06
6.67855e-06
6.82983e-06
6.96138e-06
7.07235e-06
7.162e-06
7.22977e-06
7.2752e-06
7.29802e-06
7.29807e-06
7.27535e-06
7.23001e-06
7.16234e-06
7.07277e-06
6.9619e-06
6.83043e-06
6.67922e-06
6.50927e-06
6.32168e-06
6.11763e-06
5.89841e-06
5.66532e-06
5.41967e-06
5.16279e-06
4.896e-06
4.62082e-06
4.33884e-06
4.05171e-06
3.76114e-06
3.4689e-06
3.17679e-06
2.88658e-06
2.59995e-06
2.31841e-06
2.04314e-06
1.77494e-06
1.51414e-06
1.26056e-06
1.01349e-06
7.71742e-07
5.33598e-07
2.96885e-07
5.15542e-10
1.93149e-12
1.93035e-12
5.1525e-10
2.96731e-07
5.33332e-07
7.71367e-07
1.01301e-06
1.25998e-06
1.51347e-06
1.77418e-06
2.0423e-06
2.3175e-06
2.59898e-06
2.88556e-06
3.17573e-06
3.46781e-06
3.76003e-06
4.05059e-06
4.33772e-06
4.61971e-06
4.89491e-06
5.16173e-06
5.41864e-06
5.66433e-06
5.89748e-06
6.11675e-06
6.32086e-06
6.50852e-06
6.67855e-06
6.82983e-06
6.96139e-06
7.07235e-06
7.16201e-06
7.22977e-06
7.27521e-06
7.29802e-06
7.29807e-06
7.27535e-06
7.23001e-06
7.16234e-06
7.07278e-06
6.9619e-06
6.83043e-06
6.67923e-06
6.50928e-06
6.32168e-06
6.11764e-06
5.89842e-06
5.66532e-06
5.41968e-06
5.16279e-06
4.896e-06
4.62082e-06
4.33884e-06
4.05171e-06
3.76114e-06
3.4689e-06
3.17679e-06
2.88658e-06
2.59995e-06
2.31841e-06
2.04314e-06
1.77495e-06
1.51414e-06
1.26056e-06
1.01349e-06
7.71743e-07
5.33598e-07
2.96885e-07
5.15543e-10
1.93149e-12
1.93035e-12
5.1525e-10
2.96731e-07
5.33332e-07
7.71368e-07
1.01301e-06
1.25998e-06
1.51347e-06
1.77418e-06
2.0423e-06
2.3175e-06
2.59898e-06
2.88556e-06
3.17573e-06
3.46781e-06
3.76003e-06
4.05059e-06
4.33773e-06
4.61972e-06
4.89491e-06
5.16173e-06
5.41865e-06
5.66433e-06
5.89748e-06
6.11675e-06
6.32086e-06
6.50853e-06
6.67855e-06
6.82984e-06
6.96139e-06
7.07236e-06
7.16201e-06
7.22977e-06
7.27521e-06
7.29802e-06
7.29807e-06
7.27536e-06
7.23002e-06
7.16235e-06
7.07278e-06
6.9619e-06
6.83043e-06
6.67923e-06
6.50928e-06
6.32168e-06
6.11764e-06
5.89842e-06
5.66532e-06
5.41968e-06
5.16279e-06
4.896e-06
4.62083e-06
4.33885e-06
4.05171e-06
3.76114e-06
3.4689e-06
3.17679e-06
2.88658e-06
2.59995e-06
2.31841e-06
2.04314e-06
1.77495e-06
1.51415e-06
1.26056e-06
1.01349e-06
7.71743e-07
5.33599e-07
2.96885e-07
5.15543e-10
1.9315e-12
1.93035e-12
5.1525e-10
2.96731e-07
5.33332e-07
7.71368e-07
1.01301e-06
1.25998e-06
1.51347e-06
1.77418e-06
2.0423e-06
2.3175e-06
2.59898e-06
2.88556e-06
3.17573e-06
3.46781e-06
3.76003e-06
4.05059e-06
4.33773e-06
4.61972e-06
4.89491e-06
5.16173e-06
5.41865e-06
5.66434e-06
5.89748e-06
6.11676e-06
6.32086e-06
6.50853e-06
6.67855e-06
6.82984e-06
6.96139e-06
7.07236e-06
7.16201e-06
7.22978e-06
7.27521e-06
7.29803e-06
7.29807e-06
7.27536e-06
7.23002e-06
7.16235e-06
7.07278e-06
6.96191e-06
6.83044e-06
6.67923e-06
6.50928e-06
6.32168e-06
6.11764e-06
5.89842e-06
5.66533e-06
5.41968e-06
5.16279e-06
4.896e-06
4.62083e-06
4.33885e-06
4.05171e-06
3.76114e-06
3.4689e-06
3.17679e-06
2.88658e-06
2.59995e-06
2.31841e-06
2.04314e-06
1.77495e-06
1.51415e-06
1.26056e-06
1.01349e-06
7.71743e-07
5.33599e-07
2.96885e-07
5.15543e-10
1.9315e-12
1.93035e-12
5.1525e-10
2.96731e-07
5.33332e-07
7.71368e-07
1.01301e-06
1.25998e-06
1.51347e-06
1.77418e-06
2.0423e-06
2.3175e-06
2.59898e-06
2.88556e-06
3.17573e-06
3.46781e-06
3.76003e-06
4.05059e-06
4.33773e-06
4.61972e-06
4.89491e-06
5.16173e-06
5.41865e-06
5.66434e-06
5.89748e-06
6.11676e-06
6.32086e-06
6.50853e-06
6.67855e-06
6.82984e-06
6.96139e-06
7.07236e-06
7.16201e-06
7.22978e-06
7.27521e-06
7.29803e-06
7.29807e-06
7.27536e-06
7.23002e-06
7.16235e-06
7.07278e-06
6.96191e-06
6.83044e-06
6.67923e-06
6.50928e-06
6.32168e-06
6.11764e-06
5.89842e-06
5.66533e-06
5.41968e-06
5.16279e-06
4.896e-06
4.62083e-06
4.33885e-06
4.05171e-06
3.76114e-06
3.4689e-06
3.17679e-06
2.88658e-06
2.59995e-06
2.31841e-06
2.04314e-06
1.77495e-06
1.51415e-06
1.26056e-06
1.01349e-06
7.71743e-07
5.33599e-07
2.96885e-07
5.15543e-10
1.9315e-12
1.93035e-12
5.1525e-10
2.96731e-07
5.33332e-07
7.71368e-07
1.01301e-06
1.25998e-06
1.51347e-06
1.77418e-06
2.0423e-06
2.3175e-06
2.59898e-06
2.88556e-06
3.17573e-06
3.46781e-06
3.76003e-06
4.05059e-06
4.33773e-06
4.61972e-06
4.89491e-06
5.16173e-06
5.41865e-06
5.66434e-06
5.89748e-06
6.11676e-06
6.32086e-06
6.50853e-06
6.67855e-06
6.82984e-06
6.96139e-06
7.07236e-06
7.16201e-06
7.22978e-06
7.27521e-06
7.29803e-06
7.29807e-06
7.27536e-06
7.23002e-06
7.16235e-06
7.07278e-06
6.96191e-06
6.83044e-06
6.67923e-06
6.50928e-06
6.32168e-06
6.11764e-06
5.89842e-06
5.66533e-06
5.41968e-06
5.16279e-06
4.896e-06
4.62083e-06
4.33885e-06
4.05171e-06
3.76114e-06
3.4689e-06
3.17679e-06
2.88658e-06
2.59995e-06
2.31841e-06
2.04314e-06
1.77495e-06
1.51415e-06
1.26056e-06
1.01349e-06
7.71743e-07
5.33599e-07
2.96885e-07
5.15543e-10
1.9315e-12
1.93035e-12
5.1525e-10
2.96731e-07
5.33332e-07
7.71368e-07
1.01301e-06
1.25998e-06
1.51347e-06
1.77418e-06
2.0423e-06
2.3175e-06
2.59898e-06
2.88556e-06
3.17573e-06
3.46781e-06
3.76003e-06
4.05059e-06
4.33773e-06
4.61972e-06
4.89491e-06
5.16173e-06
5.41865e-06
5.66434e-06
5.89748e-06
6.11676e-06
6.32086e-06
6.50853e-06
6.67855e-06
6.82984e-06
6.96139e-06
7.07236e-06
7.16201e-06
7.22978e-06
7.27521e-06
7.29803e-06
7.29807e-06
7.27536e-06
7.23002e-06
7.16235e-06
7.07278e-06
6.96191e-06
6.83044e-06
6.67923e-06
6.50928e-06
6.32168e-06
6.11764e-06
5.89842e-06
5.66533e-06
5.41968e-06
5.16279e-06
4.896e-06
4.62083e-06
4.33885e-06
4.05171e-06
3.76114e-06
3.4689e-06
3.17679e-06
2.88658e-06
2.59995e-06
2.31841e-06
2.04314e-06
1.77495e-06
1.51415e-06
1.26056e-06
1.01349e-06
7.71743e-07
5.33599e-07
2.96885e-07
5.15543e-10
1.9315e-12
1.93035e-12
5.1525e-10
2.96731e-07
5.33332e-07
7.71368e-07
1.01301e-06
1.25998e-06
1.51347e-06
1.77418e-06
2.0423e-06
2.3175e-06
2.59898e-06
2.88556e-06
3.17573e-06
3.46781e-06
3.76003e-06
4.05059e-06
4.33773e-06
4.61972e-06
4.89491e-06
5.16173e-06
5.41865e-06
5.66434e-06
5.89748e-06
6.11676e-06
6.32086e-06
6.50853e-06
6.67855e-06
6.82984e-06
6.96139e-06
7.07236e-06
7.16201e-06
7.22978e-06
7.27521e-06
7.29803e-06
7.29807e-06
7.27536e-06
7.23002e-06
7.16235e-06
7.07278e-06
6.96191e-06
6.83044e-06
6.67923e-06
6.50928e-06
6.32168e-06
6.11764e-06
5.89842e-06
5.66533e-06
5.41968e-06
5.16279e-06
4.896e-06
4.62083e-06
4.33885e-06
4.05171e-06
3.76114e-06
3.4689e-06
3.17679e-06
2.88658e-06
2.59995e-06
2.31841e-06
2.04314e-06
1.77495e-06
1.51415e-06
1.26056e-06
1.01349e-06
7.71743e-07
5.33599e-07
2.96885e-07
5.15543e-10
1.9315e-12
1.93035e-12
5.1525e-10
2.96731e-07
5.33332e-07
7.71368e-07
1.01301e-06
1.25998e-06
1.51347e-06
1.77418e-06
2.0423e-06
2.3175e-06
2.59898e-06
2.88556e-06
3.17573e-06
3.46781e-06
3.76003e-06
4.05059e-06
4.33773e-06