/*--------------------------------*- C++ -*----------------------------------*\
  =========                 |
  \\      /  F ield         | OpenFOAM: The Open Source CFD Toolbox
   \\    /   O peration     | Website:  https://openfoam.org
    \\  /    A nd           | Version:  13
     \\/     M anipulation  |
\*---------------------------------------------------------------------------*/
FoamFile
{
    format      ascii;
    class       volScalarField;
    location    "135";
    object      rhok;
}
// * * * * * * * * * * * * * * * * * * * * * * * * * * * * * * * * * * * * * //

dimensions      [];

internalField   nonuniform List<scalar> 
315000
(
0.444622
0.429633
0.414621
0.413185
0.412433
0.411684
0.410937
0.410194
0.409453
0.408714
0.407979
0.407246
0.406517
0.40579
0.405066
0.404346
0.403629
0.402915
0.402204
0.401497
0.400793
0.400092
0.399395
0.398701
0.398011
0.397324
0.396641
0.395962
0.395286
0.394613
0.393945
0.39328
0.392619
0.391961
0.391307
0.390657
0.390011
0.389368
0.388728
0.388092
0.38746
0.386831
0.386206
0.385584
0.384965
0.384349
0.383737
0.383128
0.382521
0.381918
0.381318
0.38072
0.380125
0.379532
0.378942
0.378354
0.377768
0.377184
0.376602
0.376022
0.375443
0.374866
0.374291
0.373716
0.373142
0.37257
0.371998
0.371426
0.370855
0.370285
0.444622
0.429631
0.414618
0.413182
0.41243
0.411681
0.410934
0.41019
0.409449
0.408711
0.407975
0.407243
0.406513
0.405786
0.405063
0.404342
0.403625
0.402911
0.4022
0.401493
0.400789
0.400088
0.399391
0.398697
0.398007
0.39732
0.396637
0.395957
0.395282
0.394609
0.393941
0.393276
0.392615
0.391957
0.391303
0.390653
0.390007
0.389364
0.388724
0.388088
0.387456
0.386827
0.386202
0.38558
0.384961
0.384346
0.383734
0.383124
0.382518
0.381915
0.381315
0.380717
0.380122
0.379529
0.378939
0.378352
0.377766
0.377182
0.3766
0.37602
0.375442
0.374865
0.374289
0.373715
0.373142
0.372569
0.371997
0.371426
0.370855
0.370284
0.444622
0.42963
0.414615
0.413179
0.412427
0.411678
0.410931
0.410187
0.409446
0.408708
0.407972
0.40724
0.40651
0.405783
0.405059
0.404339
0.403622
0.402908
0.402197
0.401489
0.400785
0.400084
0.399387
0.398693
0.398003
0.397316
0.396633
0.395954
0.395278
0.394606
0.393937
0.393272
0.392611
0.391954
0.3913
0.39065
0.390003
0.38936
0.388721
0.388085
0.387453
0.386824
0.386199
0.385577
0.384958
0.384343
0.383731
0.383122
0.382516
0.381912
0.381312
0.380715
0.38012
0.379527
0.378937
0.37835
0.377764
0.37718
0.376599
0.376019
0.375441
0.374864
0.374288
0.373714
0.373141
0.372568
0.371997
0.371426
0.370855
0.370284
0.444622
0.429629
0.414613
0.413177
0.412425
0.411675
0.410929
0.410185
0.409444
0.408705
0.407969
0.407237
0.406507
0.40578
0.405057
0.404336
0.403619
0.402905
0.402194
0.401486
0.400782
0.400081
0.399384
0.39869
0.398
0.397313
0.39663
0.395951
0.395275
0.394603
0.393934
0.393269
0.392608
0.391951
0.391297
0.390647
0.39
0.389357
0.388718
0.388082
0.38745
0.386821
0.386196
0.385574
0.384956
0.38434
0.383728
0.383119
0.382513
0.38191
0.38131
0.380713
0.380118
0.379525
0.378936
0.378348
0.377762
0.377179
0.376597
0.376018
0.375439
0.374863
0.374287
0.373713
0.37314
0.372568
0.371996
0.371425
0.370855
0.370284
0.444622
0.429628
0.414611
0.413175
0.412423
0.411673
0.410927
0.410183
0.409441
0.408703
0.407967
0.407234
0.406505
0.405778
0.405054
0.404334
0.403616
0.402902
0.402191
0.401484
0.400779
0.400079
0.399381
0.398688
0.397997
0.397311
0.396627
0.395948
0.395272
0.3946
0.393931
0.393267
0.392605
0.391948
0.391294
0.390644
0.389998
0.389355
0.388715
0.38808
0.387448
0.386819
0.386194
0.385572
0.384953
0.384338
0.383726
0.383117
0.382511
0.381908
0.381308
0.380711
0.380116
0.379524
0.378934
0.378346
0.377761
0.377178
0.376596
0.376017
0.375439
0.374862
0.374287
0.373713
0.37314
0.372567
0.371996
0.371425
0.370855
0.370284
0.444622
0.429627
0.41461
0.413173
0.412421
0.411672
0.410925
0.410181
0.40944
0.408701
0.407965
0.407233
0.406503
0.405776
0.405052
0.404332
0.403614
0.4029
0.402189
0.401482
0.400777
0.400077
0.399379
0.398686
0.397995
0.397309
0.396625
0.395946
0.39527
0.394598
0.393929
0.393265
0.392603
0.391946
0.391292
0.390642
0.389996
0.389353
0.388714
0.388078
0.387446
0.386817
0.386192
0.38557
0.384952
0.384337
0.383725
0.383116
0.38251
0.381907
0.381307
0.38071
0.380115
0.379523
0.378933
0.378345
0.37776
0.377177
0.376595
0.376016
0.375438
0.374861
0.374286
0.373712
0.373139
0.372567
0.371996
0.371425
0.370854
0.370284
0.444622
0.429626
0.414609
0.413172
0.41242
0.411671
0.410924
0.41018
0.409439
0.4087
0.407964
0.407231
0.406502
0.405775
0.405051
0.40433
0.403613
0.402899
0.402188
0.40148
0.400776
0.400075
0.399378
0.398684
0.397994
0.397307
0.396624
0.395944
0.395269
0.394596
0.393928
0.393263
0.392602
0.391944
0.391291
0.390641
0.389994
0.389351
0.388712
0.388077
0.387444
0.386816
0.386191
0.385569
0.384951
0.384335
0.383723
0.383115
0.382509
0.381906
0.381306
0.380708
0.380114
0.379522
0.378932
0.378345
0.377759
0.377176
0.376595
0.376015
0.375437
0.374861
0.374286
0.373712
0.373139
0.372567
0.371995
0.371425
0.370854
0.370284
0.444622
0.429626
0.414608
0.413171
0.41242
0.41167
0.410923
0.410179
0.409438
0.408699
0.407964
0.407231
0.406501
0.405774
0.40505
0.40433
0.403612
0.402898
0.402187
0.401479
0.400775
0.400074
0.399377
0.398683
0.397993
0.397306
0.396623
0.395944
0.395268
0.394595
0.393927
0.393262
0.392601
0.391944
0.39129
0.39064
0.389993
0.38935
0.388711
0.388076
0.387443
0.386815
0.38619
0.385568
0.38495
0.384335
0.383723
0.383114
0.382508
0.381905
0.381305
0.380708
0.380113
0.379521
0.378931
0.378344
0.377759
0.377176
0.376594
0.376015
0.375437
0.37486
0.374285
0.373711
0.373139
0.372567
0.371995
0.371425
0.370854
0.370284
0.444622
0.429626
0.414608
0.413171
0.412419
0.41167
0.410923
0.410179
0.409438
0.408699
0.407963
0.40723
0.406501
0.405774
0.40505
0.404329
0.403612
0.402898
0.402187
0.401479
0.400775
0.400074
0.399377
0.398683
0.397992
0.397306
0.396623
0.395943
0.395267
0.394595
0.393926
0.393262
0.3926
0.391943
0.391289
0.390639
0.389993
0.38935
0.388711
0.388075
0.387443
0.386814
0.386189
0.385568
0.384949
0.384334
0.383722
0.383113
0.382507
0.381905
0.381305
0.380707
0.380113
0.379521
0.378931
0.378344
0.377758
0.377175
0.376594
0.376014
0.375437
0.37486
0.374285
0.373711
0.373138
0.372566
0.371995
0.371424
0.370854
0.370284
0.444622
0.429626
0.414608
0.413171
0.412419
0.41167
0.410923
0.410179
0.409438
0.408699
0.407963
0.40723
0.406501
0.405774
0.40505
0.404329
0.403612
0.402898
0.402187
0.401479
0.400775
0.400074
0.399377
0.398683
0.397992
0.397306
0.396622
0.395943
0.395267
0.394595
0.393926
0.393261
0.3926
0.391943
0.391289
0.390639
0.389992
0.38935
0.38871
0.388075
0.387443
0.386814
0.386189
0.385567
0.384949
0.384334
0.383722
0.383113
0.382507
0.381904
0.381304
0.380707
0.380112
0.37952
0.378931
0.378343
0.377758
0.377175
0.376594
0.376014
0.375436
0.37486
0.374285
0.373711
0.373138
0.372566
0.371995
0.371424
0.370854
0.370284
0.444622
0.429626
0.414608
0.413172
0.41242
0.41167
0.410923
0.410179
0.409438
0.408699
0.407963
0.407231
0.406501
0.405774
0.40505
0.404329
0.403612
0.402898
0.402187
0.401479
0.400775
0.400074
0.399377
0.398683
0.397992
0.397306
0.396622
0.395943
0.395267
0.394595
0.393926
0.393261
0.3926
0.391943
0.391289
0.390639
0.389992
0.38935
0.38871
0.388075
0.387443
0.386814
0.386189
0.385567
0.384949
0.384334
0.383722
0.383113
0.382507
0.381904
0.381304
0.380707
0.380112
0.37952
0.378931
0.378343
0.377758
0.377175
0.376594
0.376014
0.375436
0.37486
0.374285
0.373711
0.373138
0.372566
0.371995
0.371424
0.370854
0.370284
0.444622
0.429626
0.414608
0.413172
0.41242
0.41167
0.410924
0.410179
0.409438
0.408699
0.407964
0.407231
0.406501
0.405774
0.40505
0.40433
0.403612
0.402898
0.402187
0.401479
0.400775
0.400074
0.399377
0.398683
0.397993
0.397306
0.396623
0.395943
0.395267
0.394595
0.393926
0.393261
0.3926
0.391943
0.391289
0.390639
0.389992
0.38935
0.38871
0.388075
0.387443
0.386814
0.386189
0.385567
0.384949
0.384334
0.383722
0.383113
0.382507
0.381904
0.381304
0.380707
0.380112
0.37952
0.378931
0.378343
0.377758
0.377175
0.376594
0.376014
0.375436
0.37486
0.374285
0.373711
0.373138
0.372566
0.371995
0.371424
0.370854
0.370284
0.444622
0.429626
0.414608
0.413172
0.41242
0.411671
0.410924
0.41018
0.409438
0.4087
0.407964
0.407231
0.406501
0.405774
0.40505
0.40433
0.403612
0.402898
0.402187
0.401479
0.400775
0.400074
0.399377
0.398683
0.397993
0.397306
0.396623
0.395943
0.395267
0.394595
0.393927
0.393262
0.3926
0.391943
0.391289
0.390639
0.389993
0.38935
0.38871
0.388075
0.387443
0.386814
0.386189
0.385567
0.384949
0.384334
0.383722
0.383113
0.382507
0.381904
0.381304
0.380707
0.380112
0.37952
0.378931
0.378343
0.377758
0.377175
0.376594
0.376014
0.375436
0.37486
0.374285
0.373711
0.373138
0.372566
0.371995
0.371424
0.370854
0.370284
0.444622
0.429626
0.414609
0.413172
0.41242
0.411671
0.410924
0.41018
0.409438
0.4087
0.407964
0.407231
0.406501
0.405774
0.405051
0.40433
0.403612
0.402898
0.402187
0.40148
0.400775
0.400075
0.399377
0.398683
0.397993
0.397306
0.396623
0.395943
0.395267
0.394595
0.393927
0.393262
0.392601
0.391943
0.391289
0.390639
0.389993
0.38935
0.388711
0.388075
0.387443
0.386814
0.386189
0.385567
0.384949
0.384334
0.383722
0.383113
0.382507
0.381904
0.381304
0.380707
0.380113
0.37952
0.378931
0.378343
0.377758
0.377175
0.376594
0.376014
0.375436
0.37486
0.374285
0.373711
0.373138
0.372566
0.371995
0.371424
0.370854
0.370284
0.444622
0.429627
0.414609
0.413172
0.41242
0.411671
0.410924
0.41018
0.409438
0.4087
0.407964
0.407231
0.406501
0.405775
0.405051
0.40433
0.403613
0.402898
0.402187
0.40148
0.400776
0.400075
0.399377
0.398683
0.397993
0.397306
0.396623
0.395944
0.395268
0.394595
0.393927
0.393262
0.392601
0.391943
0.391289
0.390639
0.389993
0.38935
0.388711
0.388075
0.387443
0.386814
0.386189
0.385568
0.384949
0.384334
0.383722
0.383113
0.382507
0.381905
0.381305
0.380707
0.380113
0.379521
0.378931
0.378344
0.377758
0.377175
0.376594
0.376014
0.375437
0.37486
0.374285
0.373711
0.373138
0.372566
0.371995
0.371424
0.370854
0.370284
0.444622
0.429627
0.414609
0.413172
0.41242
0.411671
0.410924
0.41018
0.409439
0.4087
0.407964
0.407232
0.406502
0.405775
0.405051
0.40433
0.403613
0.402899
0.402188
0.40148
0.400776
0.400075
0.399378
0.398684
0.397993
0.397307
0.396623
0.395944
0.395268
0.394596
0.393927
0.393262
0.392601
0.391944
0.39129
0.39064
0.389993
0.38935
0.388711
0.388075
0.387443
0.386815
0.38619
0.385568
0.384949
0.384334
0.383722
0.383113
0.382508
0.381905
0.381305
0.380707
0.380113
0.379521
0.378931
0.378344
0.377758
0.377175
0.376594
0.376014
0.375437
0.37486
0.374285
0.373711
0.373138
0.372566
0.371995
0.371424
0.370854
0.370284
0.444622
0.429627
0.414609
0.413173
0.412421
0.411671
0.410924
0.41018
0.409439
0.4087
0.407965
0.407232
0.406502
0.405775
0.405051
0.404331
0.403613
0.402899
0.402188
0.40148
0.400776
0.400075
0.399378
0.398684
0.397994
0.397307
0.396624
0.395944
0.395268
0.394596
0.393927
0.393263
0.392601
0.391944
0.39129
0.39064
0.389993
0.389351
0.388711
0.388076
0.387444
0.386815
0.38619
0.385568
0.38495
0.384334
0.383723
0.383114
0.382508
0.381905
0.381305
0.380708
0.380113
0.379521
0.378931
0.378344
0.377759
0.377175
0.376594
0.376015
0.375437
0.37486
0.374285
0.373711
0.373138
0.372566
0.371995
0.371425
0.370854
0.370284
0.444622
0.429627
0.41461
0.413173
0.412421
0.411672
0.410925
0.410181
0.409439
0.408701
0.407965
0.407232
0.406502
0.405776
0.405052
0.404331
0.403614
0.402899
0.402189
0.401481
0.400777
0.400076
0.399378
0.398685
0.397994
0.397307
0.396624
0.395945
0.395269
0.394597
0.393928
0.393263
0.392602
0.391944
0.391291
0.39064
0.389994
0.389351
0.388712
0.388076
0.387444
0.386815
0.38619
0.385568
0.38495
0.384335
0.383723
0.383114
0.382508
0.381905
0.381305
0.380708
0.380113
0.379521
0.378931
0.378344
0.377759
0.377176
0.376594
0.376015
0.375437
0.37486
0.374285
0.373711
0.373139
0.372567
0.371995
0.371425
0.370854
0.370284
0.444622
0.429627
0.41461
0.413174
0.412422
0.411672
0.410926
0.410182
0.40944
0.408702
0.407966
0.407233
0.406503
0.405776
0.405053
0.404332
0.403614
0.4029
0.402189
0.401482
0.400777
0.400076
0.399379
0.398685
0.397995
0.397308
0.396625
0.395945
0.395269
0.394597
0.393929
0.393264
0.392602
0.391945
0.391291
0.390641
0.389994
0.389352
0.388712
0.388077
0.387444
0.386816
0.386191
0.385569
0.38495
0.384335
0.383723
0.383114
0.382508
0.381906
0.381306
0.380708
0.380114
0.379521
0.378932
0.378344
0.377759
0.377176
0.376594
0.376015
0.375437
0.374861
0.374285
0.373712
0.373139
0.372567
0.371995
0.371425
0.370854
0.370284
0.444622
0.429628
0.414611
0.413174
0.412422
0.411673
0.410926
0.410182
0.409441
0.408702
0.407967
0.407234
0.406504
0.405777
0.405053
0.404333
0.403615
0.402901
0.40219
0.401482
0.400778
0.400077
0.39938
0.398686
0.397996
0.397309
0.396626
0.395946
0.39527
0.394598
0.393929
0.393264
0.392603
0.391946
0.391292
0.390642
0.389995
0.389352
0.388713
0.388077
0.387445
0.386816
0.386191
0.385569
0.384951
0.384336
0.383724
0.383115
0.382509
0.381906
0.381306
0.380709
0.380114
0.379522
0.378932
0.378345
0.377759
0.377176
0.376595
0.376015
0.375437
0.374861
0.374286
0.373712
0.373139
0.372567
0.371995
0.371425
0.370854
0.370284
0.444622
0.429628
0.414612
0.413175
0.412423
0.411674
0.410927
0.410183
0.409442
0.408703
0.407968
0.407235
0.406505
0.405778
0.405054
0.404334
0.403616
0.402902
0.402191
0.401483
0.400779
0.400078
0.399381
0.398687
0.397997
0.39731
0.396627
0.395947
0.395271
0.394599
0.39393
0.393265
0.392604
0.391946
0.391292
0.390642
0.389996
0.389353
0.388714
0.388078
0.387446
0.386817
0.386192
0.38557
0.384951
0.384336
0.383724
0.383115
0.382509
0.381906
0.381306
0.380709
0.380114
0.379522
0.378932
0.378345
0.37776
0.377176
0.376595
0.376015
0.375437
0.374861
0.374286
0.373712
0.373139
0.372567
0.371995
0.371425
0.370854
0.370284
0.444622
0.429628
0.414613
0.413176
0.412424
0.411675
0.410928
0.410184
0.409443
0.408704
0.407969
0.407236
0.406506
0.405779
0.405055
0.404335
0.403617
0.402903
0.402192
0.401484
0.40078
0.400079
0.399382
0.398688
0.397997
0.397311
0.396627
0.395948
0.395272
0.3946
0.393931
0.393266
0.392605
0.391947
0.391293
0.390643
0.389996
0.389354
0.388714
0.388078
0.387446
0.386818
0.386192
0.385571
0.384952
0.384337
0.383725
0.383116
0.38251
0.381907
0.381307
0.380709
0.380115
0.379522
0.378933
0.378345
0.37776
0.377177
0.376595
0.376016
0.375438
0.374861
0.374286
0.373712
0.373139
0.372567
0.371996
0.371425
0.370854
0.370284
0.444622
0.429629
0.414613
0.413177
0.412425
0.411676
0.410929
0.410185
0.409444
0.408705
0.40797
0.407237
0.406507
0.40578
0.405056
0.404336
0.403618
0.402904
0.402193
0.401485
0.400781
0.40008
0.399383
0.398689
0.397998
0.397312
0.396628
0.395949
0.395273
0.3946
0.393932
0.393267
0.392606
0.391948
0.391294
0.390644
0.389997
0.389354
0.388715
0.388079
0.387447
0.386818
0.386193
0.385571
0.384953
0.384337
0.383725
0.383116
0.38251
0.381907
0.381307
0.38071
0.380115
0.379523
0.378933
0.378345
0.37776
0.377177
0.376595
0.376016
0.375438
0.374861
0.374286
0.373712
0.373139
0.372567
0.371996
0.371425
0.370854
0.370284
0.444622
0.429629
0.414614
0.413178
0.412426
0.411677
0.41093
0.410186
0.409445
0.408706
0.407971
0.407238
0.406508
0.405781
0.405057
0.404337
0.403619
0.402905
0.402194
0.401486
0.400782
0.400081
0.399384
0.39869
0.397999
0.397313
0.396629
0.39595
0.395274
0.394601
0.393933
0.393268
0.392606
0.391949
0.391295
0.390645
0.389998
0.389355
0.388716
0.38808
0.387448
0.386819
0.386194
0.385572
0.384953
0.384338
0.383726
0.383117
0.382511
0.381908
0.381308
0.38071
0.380115
0.379523
0.378933
0.378346
0.37776
0.377177
0.376596
0.376016
0.375438
0.374861
0.374286
0.373712
0.373139
0.372567
0.371996
0.371425
0.370854
0.370284
0.444622
0.42963
0.414615
0.413179
0.412427
0.411678
0.410931
0.410187
0.409446
0.408707
0.407971
0.407239
0.406509
0.405782
0.405058
0.404338
0.40362
0.402906
0.402195
0.401487
0.400783
0.400082
0.399385
0.398691
0.398
0.397313
0.39663
0.395951
0.395274
0.394602
0.393933
0.393268
0.392607
0.39195
0.391296
0.390645
0.389999
0.389356
0.388716
0.388081
0.387448
0.386819
0.386194
0.385572
0.384954
0.384338
0.383726
0.383117
0.382511
0.381908
0.381308
0.380711
0.380116
0.379523
0.378934
0.378346
0.377761
0.377177
0.376596
0.376016
0.375438
0.374862
0.374286
0.373712
0.373139
0.372567
0.371996
0.371425
0.370854
0.370284
0.444622
0.42963
0.414616
0.41318
0.412428
0.411678
0.410932
0.410188
0.409447
0.408708
0.407972
0.40724
0.40651
0.405783
0.405059
0.404339
0.403621
0.402907
0.402196
0.401488
0.400784
0.400083
0.399386
0.398692
0.398001
0.397314
0.396631
0.395951
0.395275
0.394603
0.393934
0.393269
0.392608
0.39195
0.391296
0.390646
0.389999
0.389356
0.388717
0.388081
0.387449
0.38682
0.386195
0.385573
0.384954
0.384339
0.383727
0.383118
0.382512
0.381909
0.381308
0.380711
0.380116
0.379524
0.378934
0.378346
0.377761
0.377178
0.376596
0.376016
0.375438
0.374862
0.374287
0.373712
0.373139
0.372567
0.371996
0.371425
0.370854
0.370284
0.444622
0.429631
0.414617
0.41318
0.412429
0.411679
0.410933
0.410189
0.409447
0.408709
0.407973
0.40724
0.406511
0.405784
0.40506
0.404339
0.403622
0.402908
0.402197
0.401489
0.400785
0.400084
0.399386
0.398692
0.398002
0.397315
0.396632
0.395952
0.395276
0.394604
0.393935
0.39327
0.392609
0.391951
0.391297
0.390647
0.39
0.389357
0.388718
0.388082
0.387449
0.386821
0.386195
0.385573
0.384955
0.384339
0.383727
0.383118
0.382512
0.381909
0.381309
0.380711
0.380117
0.379524
0.378934
0.378347
0.377761
0.377178
0.376596
0.376017
0.375439
0.374862
0.374287
0.373713
0.37314
0.372567
0.371996
0.371425
0.370855
0.370284
0.444622
0.429631
0.414617
0.413181
0.412429
0.41168
0.410933
0.41019
0.409448
0.40871
0.407974
0.407241
0.406512
0.405785
0.405061
0.40434
0.403623
0.402909
0.402198
0.40149
0.400786
0.400085
0.399387
0.398693
0.398003
0.397316
0.396633
0.395953
0.395277
0.394605
0.393936
0.393271
0.392609
0.391952
0.391298
0.390647
0.390001
0.389358
0.388718
0.388082
0.38745
0.386821
0.386196
0.385574
0.384955
0.38434
0.383728
0.383119
0.382513
0.381909
0.381309
0.380712
0.380117
0.379525
0.378935
0.378347
0.377762
0.377178
0.376597
0.376017
0.375439
0.374862
0.374287
0.373713
0.37314
0.372567
0.371996
0.371425
0.370855
0.370284
0.444622
0.429631
0.414618
0.413182
0.41243
0.411681
0.410934
0.41019
0.409449
0.408711
0.407975
0.407242
0.406512
0.405786
0.405062
0.404341
0.403624
0.402909
0.402198
0.401491
0.400786
0.400086
0.399388
0.398694
0.398004
0.397317
0.396633
0.395954
0.395278
0.394605
0.393937
0.393272
0.39261
0.391952
0.391298
0.390648
0.390001
0.389358
0.388719
0.388083
0.387451
0.386822
0.386196
0.385574
0.384956
0.38434
0.383728
0.383119
0.382513
0.38191
0.38131
0.380712
0.380117
0.379525
0.378935
0.378347
0.377762
0.377178
0.376597
0.376017
0.375439
0.374862
0.374287
0.373713
0.37314
0.372568
0.371996
0.371425
0.370855
0.370284
0.444622
0.429632
0.414619
0.413183
0.412431
0.411682
0.410935
0.410191
0.40945
0.408711
0.407976
0.407243
0.406513
0.405786
0.405063
0.404342
0.403624
0.40291
0.402199
0.401492
0.400787
0.400086
0.399389
0.398695
0.398004
0.397318
0.396634
0.395954
0.395278
0.394606
0.393937
0.393272
0.392611
0.391953
0.391299
0.390649
0.390002
0.389359
0.388719
0.388084
0.387451
0.386822
0.386197
0.385575
0.384956
0.384341
0.383729
0.383119
0.382513
0.38191
0.38131
0.380712
0.380117
0.379525
0.378935
0.378348
0.377762
0.377179
0.376597
0.376017
0.375439
0.374862
0.374287
0.373713
0.37314
0.372568
0.371996
0.371425
0.370855
0.370284
0.444622
0.429632
0.414619
0.413183
0.412431
0.411682
0.410936
0.410192
0.40945
0.408712
0.407976
0.407244
0.406514
0.405787
0.405063
0.404343
0.403625
0.402911
0.4022
0.401492
0.400788
0.400087
0.39939
0.398696
0.398005
0.397318
0.396635
0.395955
0.395279
0.394607
0.393938
0.393273
0.392611
0.391954
0.3913
0.390649
0.390002
0.389359
0.38872
0.388084
0.387452
0.386823
0.386197
0.385575
0.384957
0.384341
0.383729
0.38312
0.382514
0.381911
0.38131
0.380713
0.380118
0.379525
0.378935
0.378348
0.377762
0.377179
0.376597
0.376017
0.375439
0.374863
0.374287
0.373713
0.37314
0.372568
0.371996
0.371425
0.370855
0.370284
0.444622
0.429632
0.41462
0.413184
0.412432
0.411683
0.410936
0.410192
0.409451
0.408713
0.407977
0.407244
0.406514
0.405788
0.405064
0.404343
0.403626
0.402911
0.4022
0.401493
0.400788
0.400088
0.39939
0.398696
0.398006
0.397319
0.396635
0.395956
0.39528
0.394607
0.393938
0.393273
0.392612
0.391954
0.3913
0.39065
0.390003
0.38936
0.38872
0.388084
0.387452
0.386823
0.386198
0.385576
0.384957
0.384341
0.383729
0.38312
0.382514
0.381911
0.38131
0.380713
0.380118
0.379526
0.378936
0.378348
0.377762
0.377179
0.376597
0.376018
0.375439
0.374863
0.374287
0.373713
0.37314
0.372568
0.371996
0.371425
0.370855
0.370284
0.444622
0.429632
0.41462
0.413184
0.412432
0.411683
0.410937
0.410193
0.409452
0.408713
0.407977
0.407245
0.406515
0.405788
0.405064
0.404344
0.403626
0.402912
0.402201
0.401493
0.400789
0.400088
0.399391
0.398697
0.398006
0.397319
0.396636
0.395956
0.39528
0.394608
0.393939
0.393274
0.392612
0.391954
0.3913
0.39065
0.390003
0.38936
0.388721
0.388085
0.387452
0.386823
0.386198
0.385576
0.384957
0.384342
0.383729
0.38312
0.382514
0.381911
0.381311
0.380713
0.380118
0.379526
0.378936
0.378348
0.377763
0.377179
0.376597
0.376018
0.375439
0.374863
0.374287
0.373713
0.37314
0.372568
0.371996
0.371425
0.370855
0.370284
0.444622
0.429633
0.414621
0.413185
0.412433
0.411684
0.410937
0.410193
0.409452
0.408713
0.407978
0.407245
0.406515
0.405788
0.405065
0.404344
0.403627
0.402912
0.402201
0.401494
0.400789
0.400088
0.399391
0.398697
0.398006
0.397319
0.396636
0.395956
0.39528
0.394608
0.393939
0.393274
0.392613
0.391955
0.391301
0.39065
0.390004
0.38936
0.388721
0.388085
0.387453
0.386824
0.386198
0.385576
0.384957
0.384342
0.38373
0.38312
0.382514
0.381911
0.381311
0.380713
0.380118
0.379526
0.378936
0.378348
0.377763
0.377179
0.376598
0.376018
0.37544
0.374863
0.374287
0.373713
0.37314
0.372568
0.371996
0.371425
0.370855
0.370284
0.444622
0.429633
0.414621
0.413185
0.412433
0.411684
0.410937
0.410193
0.409452
0.408714
0.407978
0.407245
0.406516
0.405789
0.405065
0.404344
0.403627
0.402913
0.402202
0.401494
0.40079
0.400089
0.399391
0.398697
0.398007
0.39732
0.396636
0.395957
0.395281
0.394608
0.393939
0.393274
0.392613
0.391955
0.391301
0.39065
0.390004
0.389361
0.388721
0.388085
0.387453
0.386824
0.386198
0.385576
0.384958
0.384342
0.38373
0.383121
0.382514
0.381911
0.381311
0.380713
0.380118
0.379526
0.378936
0.378348
0.377763
0.377179
0.376598
0.376018
0.37544
0.374863
0.374287
0.373713
0.37314
0.372568
0.371996
0.371425
0.370855
0.370284
0.444622
0.429633
0.414621
0.413185
0.412433
0.411684
0.410937
0.410194
0.409452
0.408714
0.407978
0.407246
0.406516
0.405789
0.405065
0.404345
0.403627
0.402913
0.402202
0.401494
0.40079
0.400089
0.399391
0.398697
0.398007
0.39732
0.396637
0.395957
0.395281
0.394608
0.393939
0.393274
0.392613
0.391955
0.391301
0.390651
0.390004
0.389361
0.388721
0.388085
0.387453
0.386824
0.386198
0.385576
0.384958
0.384342
0.38373
0.383121
0.382515
0.381911
0.381311
0.380713
0.380118
0.379526
0.378936
0.378348
0.377763
0.377179
0.376598
0.376018
0.37544
0.374863
0.374288
0.373713
0.37314
0.372568
0.371996
0.371425
0.370855
0.370284
0.444622
0.429633
0.414621
0.413185
0.412433
0.411684
0.410938
0.410194
0.409452
0.408714
0.407978
0.407246
0.406516
0.405789
0.405065
0.404345
0.403627
0.402913
0.402202
0.401494
0.40079
0.400089
0.399391
0.398697
0.398007
0.39732
0.396637
0.395957
0.395281
0.394608
0.39394
0.393274
0.392613
0.391955
0.391301
0.390651
0.390004
0.389361
0.388721
0.388085
0.387453
0.386824
0.386199
0.385576
0.384958
0.384342
0.38373
0.383121
0.382515
0.381911
0.381311
0.380713
0.380118
0.379526
0.378936
0.378348
0.377763
0.377179
0.376598
0.376018
0.37544
0.374863
0.374288
0.373713
0.37314
0.372568
0.371996
0.371425
0.370855
0.370284
0.444622
0.429633
0.414621
0.413185
0.412433
0.411684
0.410938
0.410194
0.409453
0.408714
0.407978
0.407246
0.406516
0.405789
0.405065
0.404345
0.403627
0.402913
0.402202
0.401494
0.40079
0.400089
0.399392
0.398698
0.398007
0.39732
0.396637
0.395957
0.395281
0.394608
0.39394
0.393275
0.392613
0.391955
0.391301
0.390651
0.390004
0.389361
0.388721
0.388085
0.387453
0.386824
0.386199
0.385576
0.384958
0.384342
0.38373
0.383121
0.382515
0.381911
0.381311
0.380713
0.380119
0.379526
0.378936
0.378348
0.377763
0.377179
0.376598
0.376018
0.37544
0.374863
0.374288
0.373713
0.37314
0.372568
0.371996
0.371425
0.370855
0.370284
0.444622
0.429633
0.414621
0.413185
0.412433
0.411684
0.410938
0.410194
0.409453
0.408714
0.407979
0.407246
0.406516
0.405789
0.405065
0.404345
0.403627
0.402913
0.402202
0.401494
0.40079
0.400089
0.399392
0.398698
0.398007
0.39732
0.396637
0.395957
0.395281
0.394608
0.39394
0.393275
0.392613
0.391955
0.391301
0.390651
0.390004
0.389361
0.388721
0.388085
0.387453
0.386824
0.386199
0.385577
0.384958
0.384342
0.38373
0.383121
0.382515
0.381911
0.381311
0.380714
0.380119
0.379526
0.378936
0.378348
0.377763
0.377179
0.376598
0.376018
0.37544
0.374863
0.374288
0.373713
0.37314
0.372568
0.371996
0.371425
0.370855
0.370284
0.444622
0.429633
0.414621
0.413185
0.412433
0.411684
0.410938
0.410194
0.409453
0.408714
0.407979
0.407246
0.406516
0.405789
0.405065
0.404345
0.403627
0.402913
0.402202
0.401494
0.40079
0.400089
0.399392
0.398698
0.398007
0.39732
0.396637
0.395957
0.395281
0.394609
0.39394
0.393275
0.392613
0.391955
0.391301
0.390651
0.390004
0.389361
0.388721
0.388085
0.387453
0.386824
0.386199
0.385577
0.384958
0.384342
0.38373
0.383121
0.382515
0.381911
0.381311
0.380714
0.380119
0.379526
0.378936
0.378348
0.377763
0.377179
0.376598
0.376018
0.37544
0.374863
0.374288
0.373713
0.37314
0.372568
0.371996
0.371425
0.370855
0.370284
0.444622
0.429633
0.414621
0.413185
0.412433
0.411684
0.410938
0.410194
0.409453
0.408714
0.407979
0.407246
0.406516
0.405789
0.405065
0.404345
0.403627
0.402913
0.402202
0.401494
0.40079
0.400089
0.399392
0.398698
0.398007
0.39732
0.396637
0.395957
0.395281
0.394609
0.39394
0.393275
0.392613
0.391955
0.391301
0.390651
0.390004
0.389361
0.388721
0.388085
0.387453
0.386824
0.386199
0.385577
0.384958
0.384342
0.38373
0.383121
0.382515
0.381911
0.381311
0.380714
0.380119
0.379526
0.378936
0.378348
0.377763
0.377179
0.376598
0.376018
0.37544
0.374863
0.374288
0.373713
0.37314
0.372568
0.371996
0.371425
0.370855
0.370284
0.444622
0.429633
0.414621
0.413185
0.412433
0.411684
0.410938
0.410194
0.409453
0.408714
0.407979
0.407246
0.406516
0.405789
0.405066
0.404345
0.403627
0.402913
0.402202
0.401494
0.40079
0.400089
0.399392
0.398698
0.398007
0.39732
0.396637
0.395957
0.395281
0.394609
0.39394
0.393275
0.392613
0.391955
0.391301
0.390651
0.390004
0.389361
0.388721
0.388085
0.387453
0.386824
0.386199
0.385577
0.384958
0.384342
0.38373
0.383121
0.382515
0.381911
0.381311
0.380714
0.380119
0.379526
0.378936
0.378348
0.377763
0.377179
0.376598
0.376018
0.37544
0.374863
0.374288
0.373713
0.37314
0.372568
0.371996
0.371425
0.370855
0.370284
0.444622
0.429633
0.414621
0.413185
0.412433
0.411684
0.410938
0.410194
0.409453
0.408714
0.407979
0.407246
0.406516
0.405789
0.405066
0.404345
0.403627
0.402913
0.402202
0.401494
0.40079
0.400089
0.399392
0.398698
0.398007
0.39732
0.396637
0.395957
0.395281
0.394609
0.39394
0.393275
0.392613
0.391955
0.391301
0.390651
0.390004
0.389361
0.388721
0.388085
0.387453
0.386824
0.386199
0.385577
0.384958
0.384342
0.38373
0.383121
0.382515
0.381911
0.381311
0.380714
0.380119
0.379526
0.378936
0.378348
0.377763
0.377179
0.376598
0.376018
0.37544
0.374863
0.374288
0.373713
0.37314
0.372568
0.371996
0.371425
0.370855
0.370284
0.444622
0.429633
0.414621
0.413185
0.412433
0.411684
0.410938
0.410194
0.409453
0.408714
0.407979
0.407246
0.406516
0.405789
0.405066
0.404345
0.403627
0.402913
0.402202
0.401494
0.40079
0.400089
0.399392
0.398698
0.398007
0.39732
0.396637
0.395957
0.395281
0.394609
0.39394
0.393275
0.392613
0.391955
0.391301
0.390651
0.390004
0.389361
0.388721
0.388085
0.387453
0.386824
0.386199
0.385577
0.384958
0.384342
0.38373
0.383121
0.382515
0.381911
0.381311
0.380714
0.380119
0.379526
0.378936
0.378348
0.377763
0.377179
0.376598
0.376018
0.37544
0.374863
0.374288
0.373713
0.37314
0.372568
0.371996
0.371425
0.370855
0.370284
0.444622
0.429633
0.414621
0.413185
0.412433
0.411684
0.410938
0.410194
0.409453
0.408714
0.407979
0.407246
0.406516
0.405789
0.405066
0.404345
0.403627
0.402913
0.402202
0.401494
0.40079
0.400089
0.399392
0.398698
0.398007
0.39732
0.396637
0.395957
0.395281
0.394609
0.39394
0.393275
0.392613
0.391955
0.391301
0.390651
0.390004
0.389361
0.388721
0.388085
0.387453
0.386824
0.386199
0.385577
0.384958
0.384342
0.38373
0.383121
0.382515
0.381911
0.381311
0.380714
0.380119
0.379526
0.378936
0.378348
0.377763
0.377179
0.376598
0.376018
0.37544
0.374863
0.374288
0.373713
0.37314
0.372568
0.371996
0.371425
0.370855
0.370284
0.444622
0.429633
0.414621
0.413185
0.412433
0.411684
0.410938
0.410194
0.409453
0.408714
0.407979
0.407246
0.406516
0.405789
0.405066
0.404345
0.403627
0.402913
0.402202
0.401494
0.40079
0.400089
0.399392
0.398698
0.398007
0.39732
0.396637
0.395957
0.395281
0.394609
0.39394
0.393275
0.392613
0.391955
0.391301
0.390651
0.390004
0.389361
0.388721
0.388085
0.387453
0.386824
0.386199
0.385577
0.384958
0.384342
0.38373
0.383121
0.382515
0.381911
0.381311
0.380714
0.380119
0.379526
0.378936
0.378348
0.377763
0.377179
0.376598
0.376018
0.37544
0.374863
0.374288
0.373713
0.37314
0.372568
0.371996
0.371425
0.370855
0.370284
0.444622
0.429633
0.414621
0.413185
0.412433
0.411684
0.410938
0.410194
0.409453
0.408714
0.407979
0.407246
0.406516
0.405789
0.405066
0.404345
0.403627
0.402913
0.402202
0.401494
0.40079
0.400089
0.399392
0.398698
0.398007
0.39732
0.396637
0.395957
0.395281
0.394609
0.39394
0.393275
0.392613
0.391955
0.391301
0.390651
0.390004
0.389361
0.388721
0.388085
0.387453
0.386824
0.386199
0.385577
0.384958
0.384342
0.38373
0.383121
0.382515
0.381911
0.381311
0.380714
0.380119
0.379526
0.378936
0.378348
0.377763
0.377179
0.376598
0.376018
0.37544
0.374863
0.374288
0.373713
0.37314
0.372568
0.371996
0.371425
0.370855
0.370284
0.444622
0.429633
0.414621
0.413185
0.412433
0.411684
0.410938
0.410194