/*--------------------------------*- C++ -*----------------------------------*\
  =========                 |
  \\      /  F ield         | OpenFOAM: The Open Source CFD Toolbox
   \\    /   O peration     | Website:  https://openfoam.org
    \\  /    A nd           | Version:  13
     \\/     M anipulation  |
\*---------------------------------------------------------------------------*/
FoamFile
{
    format      ascii;
    class       volScalarField;
    location    "230";
    object      k;
}
// * * * * * * * * * * * * * * * * * * * * * * * * * * * * * * * * * * * * * //

dimensions      [0 2 -2 0 0 0 0];

internalField   nonuniform List<scalar> 
78750
(
3.41804e-14
9.72074e-13
4.40604e-12
7.99773e-12
1.17919e-11
1.58191e-11
2.00834e-11
2.45552e-11
2.91712e-11
3.38374e-11
3.84356e-11
4.28307e-11
4.68801e-11
5.04423e-11
5.33866e-11
5.56005e-11
5.69975e-11
5.75215e-11
5.71514e-11
5.59014e-11
5.38206e-11
5.099e-11
4.75176e-11
4.3531e-11
3.91704e-11
3.45786e-11
2.98923e-11
2.5233e-11
2.06981e-11
1.63547e-11
1.22352e-11
8.33586e-12
4.62032e-12
1.02766e-12
3.6289e-14
7.44529e-13
2.1507e-11
1.07312e-10
1.96217e-10
2.9005e-10
3.89919e-10
4.96064e-10
6.07791e-10
7.23496e-10
8.40774e-10
9.56581e-10
1.06744e-09
1.16968e-09
1.25966e-09
1.33402e-09
1.38985e-09
1.42493e-09
1.43784e-09
1.42804e-09
1.39591e-09
1.34275e-09
1.27066e-09
1.18243e-09
1.08138e-09
9.71115e-10
8.55316e-10
7.37498e-10
6.20767e-10
5.0761e-10
3.99717e-10
2.97858e-10
2.01844e-10
1.10578e-10
2.21977e-11
7.6891e-13
2.11284e-12
6.10394e-11
3.05171e-10
5.61322e-10
8.37076e-10
1.13752e-09
1.46464e-09
1.817e-09
2.18969e-09
2.57457e-09
2.96083e-09
3.33573e-09
3.68543e-09
3.99598e-09
4.25427e-09
4.44897e-09
4.57127e-09
4.61556e-09
4.57976e-09
4.46549e-09
4.27799e-09
4.02568e-09
3.71965e-09
3.37284e-09
2.99915e-09
2.61249e-09
2.22575e-09
1.84997e-09
1.49354e-09
1.16165e-09
8.55984e-10
5.74721e-10
3.12824e-10
6.26419e-11
2.16925e-12
4.13369e-12
1.19411e-10
5.9741e-10
1.10137e-09
1.64803e-09
2.24894e-09
2.90922e-09
3.62675e-09
4.39196e-09
5.1882e-09
5.99281e-09
6.77851e-09
7.51527e-09
8.17238e-09
8.7207e-09
9.13478e-09
9.39479e-09
9.48804e-09
9.40988e-09
9.16413e-09
8.76275e-09
8.22493e-09
7.57565e-09
6.84378e-09
6.05997e-09
5.25438e-09
4.45459e-09
3.6837e-09
2.95885e-09
2.29011e-09
1.68007e-09
1.12391e-09
6.1019e-10
1.22077e-10
4.22744e-12
6.4611e-12
1.86634e-10
9.33925e-10
1.7231e-09
2.58134e-09
3.52761e-09
4.57059e-09
5.70733e-09
6.92289e-09
8.19092e-09
9.47518e-09
1.07318e-08
1.19123e-08
1.29667e-08
1.38474e-08
1.45127e-08
1.49302e-08
1.5079e-08
1.49514e-08
1.45539e-08
1.39063e-08
1.30403e-08
1.19968e-08
1.08231e-08
9.56904e-09
8.28329e-09
7.01016e-09
5.78652e-09
4.63942e-09
3.58455e-09
2.62548e-09
1.75401e-09
9.51374e-10
1.90267e-10
6.5888e-12
8.71326e-12
2.51704e-10
1.25971e-09
2.3249e-09
3.48453e-09
4.76467e-09
6.17738e-09
7.71889e-09
9.36906e-09
1.10921e-08
1.28388e-08
1.45492e-08
1.6157e-08
1.75939e-08
1.87945e-08
1.97016e-08
2.02703e-08
2.0472e-08
2.02962e-08
1.9752e-08
1.88667e-08
1.76841e-08
1.62606e-08
1.4661e-08
1.29536e-08
1.12051e-08
9.47572e-09
7.81557e-09
6.26128e-09
4.8339e-09
3.53805e-09
2.36226e-09
1.28073e-09
2.56075e-10
8.86688e-12
1.06112e-11
3.06575e-10
1.53454e-09
2.8326e-09
4.24654e-09
5.80844e-09
7.53323e-09
9.41643e-09
1.14335e-08
1.35408e-08
1.56778e-08
1.77714e-08
1.97402e-08
2.15001e-08
2.29708e-08
2.40819e-08
2.47781e-08
2.50241e-08
2.48073e-08
2.41386e-08
2.30521e-08
2.16015e-08
1.98567e-08
1.78972e-08
1.5807e-08
1.36678e-08
1.15534e-08
9.525e-09
7.62733e-09
5.88597e-09
4.30634e-09
2.87423e-09
1.55789e-09
3.11427e-10
1.07817e-11
1.20273e-11
3.47554e-10
1.73991e-09
3.21206e-09
4.81619e-09
6.5889e-09
8.54729e-09
1.06864e-08
1.29784e-08
1.53735e-08
1.78033e-08
2.01843e-08
2.24238e-08
2.4426e-08
2.60994e-08
2.73635e-08
2.81553e-08
2.84344e-08
2.81864e-08
2.7424e-08
2.6186e-08
2.45341e-08
2.25479e-08
2.03183e-08
1.7941e-08
1.55089e-08
1.3106e-08
1.0802e-08
8.64737e-09
6.67124e-09
4.87959e-09
3.25611e-09
1.76457e-09
3.52674e-10
1.22072e-11
1.29728e-11
3.74943e-10
1.87728e-09
3.46592e-09
5.19735e-09
7.11126e-09
9.22619e-09
1.15368e-08
1.40132e-08
1.66016e-08
1.92278e-08
2.18017e-08
2.4223e-08
2.63881e-08
2.81976e-08
2.95645e-08
3.04204e-08
3.07216e-08
3.04524e-08
2.96268e-08
2.82869e-08
2.64996e-08
2.43511e-08
2.194e-08
1.93698e-08
1.67412e-08
1.41448e-08
1.16559e-08
9.32926e-09
7.19599e-09
5.26251e-09
3.51111e-09
1.90254e-09
3.80186e-10
1.3157e-11
1.35426e-11
3.9147e-10
1.96024e-09
3.61926e-09
5.42764e-09
7.42692e-09
9.63655e-09
1.2051e-08
1.4639e-08
1.73444e-08
2.00896e-08
2.27805e-08
2.5312e-08
2.75757e-08
2.94678e-08
3.0897e-08
3.17917e-08
3.21062e-08
3.18241e-08
3.09601e-08
2.95583e-08
2.76887e-08
2.54417e-08
2.29206e-08
2.02335e-08
1.74858e-08
1.47723e-08
1.21716e-08
9.74089e-09
7.51264e-09
5.4935e-09
3.66489e-09
1.98572e-09
3.96758e-10
1.37284e-11
1.38553e-11
4.0055e-10
2.00585e-09
3.70358e-09
5.5543e-09
7.60057e-09
9.86235e-09
1.2334e-08
1.49835e-08
1.77534e-08
2.05642e-08
2.33195e-08
2.59118e-08
2.823e-08
3.01676e-08
3.1631e-08
3.25471e-08
3.28689e-08
3.25797e-08
3.16945e-08
3.02584e-08
2.83435e-08
2.60421e-08
2.34603e-08
2.07088e-08
1.78954e-08
1.51174e-08
1.24551e-08
9.96711e-09
7.68661e-09
5.62038e-09
3.74934e-09
2.03138e-09
4.05848e-10
1.40415e-11
1.40126e-11
4.05125e-10
2.02886e-09
3.74612e-09
5.61821e-09
7.6882e-09
9.97631e-09
1.24769e-08
1.51574e-08
1.79599e-08
2.08039e-08
2.35918e-08
2.62148e-08
2.85605e-08
3.05211e-08
3.20019e-08
3.29288e-08
3.32543e-08
3.29614e-08
3.20654e-08
3.0612e-08
2.86741e-08
2.63453e-08
2.37327e-08
2.09486e-08
1.81021e-08
1.52915e-08
1.25981e-08
1.00812e-08
7.7743e-09
5.68431e-09
3.79188e-09
2.05438e-09
4.10422e-10
1.41988e-11
1.40858e-11
4.07255e-10
2.03958e-09
3.76594e-09
5.64799e-09
7.72905e-09
1.00294e-08
1.25435e-08
1.52385e-08
1.80562e-08
2.09157e-08
2.37188e-08
2.63562e-08
2.87147e-08
3.0686e-08
3.21749e-08
3.31069e-08
3.34341e-08
3.31395e-08
3.22384e-08
3.0777e-08
2.88283e-08
2.64866e-08
2.38597e-08
2.10604e-08
1.81984e-08
1.53726e-08
1.26647e-08
1.01343e-08
7.81513e-09
5.71408e-09
3.81168e-09
2.06509e-09
4.12549e-10
1.42718e-11
1.41174e-11
4.08177e-10
2.04422e-09
3.77453e-09
5.66089e-09
7.74674e-09
1.00524e-08
1.25723e-08
1.52736e-08
1.80979e-08
2.09641e-08
2.37739e-08
2.64174e-08
2.87815e-08
3.07575e-08
3.22499e-08
3.31841e-08
3.3512e-08
3.32167e-08
3.23134e-08
3.08484e-08
2.88951e-08
2.65479e-08
2.39147e-08
2.11088e-08
1.82401e-08
1.54077e-08
1.26936e-08
1.01573e-08
7.8328e-09
5.72696e-09
3.82025e-09
2.06971e-09
4.13468e-10
1.43033e-11
1.41301e-11
4.08549e-10
2.0461e-09
3.778e-09
5.66611e-09
7.7539e-09
1.00618e-08
1.2584e-08
1.52879e-08
1.81148e-08
2.09837e-08
2.37961e-08
2.64422e-08
2.88086e-08
3.07864e-08
3.22803e-08
3.32153e-08
3.35436e-08
3.3248e-08
3.23438e-08
3.08774e-08
2.89222e-08
2.65727e-08
2.3937e-08
2.11284e-08
1.8257e-08
1.54219e-08
1.27052e-08
1.01666e-08
7.83995e-09
5.73216e-09
3.82371e-09
2.07159e-09
4.13839e-10
1.4316e-11
1.41349e-11
4.0869e-10
2.04681e-09
3.77932e-09
5.66809e-09
7.75661e-09
1.00653e-08
1.25884e-08
1.52933e-08
1.81212e-08
2.09912e-08
2.38046e-08
2.64517e-08
2.88189e-08
3.07974e-08
3.22919e-08
3.32272e-08
3.35556e-08
3.32598e-08
3.23553e-08
3.08884e-08
2.89324e-08
2.65821e-08
2.39455e-08
2.11359e-08
1.82634e-08
1.54273e-08
1.27096e-08
1.01701e-08
7.84266e-09
5.73414e-09
3.82503e-09
2.07229e-09
4.1398e-10
1.43208e-11
1.41367e-11
4.0874e-10
2.04707e-09
3.77979e-09
5.6688e-09
7.75758e-09
1.00666e-08
1.259e-08
1.52952e-08
1.81235e-08
2.09939e-08
2.38076e-08
2.6455e-08
2.88225e-08
3.08014e-08
3.2296e-08
3.32315e-08
3.35599e-08
3.32641e-08
3.23595e-08
3.08923e-08
2.89361e-08
2.65855e-08
2.39485e-08
2.11385e-08
1.82657e-08
1.54293e-08
1.27112e-08
1.01714e-08
7.84363e-09
5.73484e-09
3.8255e-09
2.07255e-09
4.1403e-10
1.43225e-11
1.41372e-11
4.08757e-10
2.04715e-09
3.77995e-09
5.66903e-09
7.75791e-09
1.0067e-08
1.25906e-08
1.52959e-08
1.81243e-08
2.09948e-08
2.38087e-08
2.64562e-08
2.88238e-08
3.08027e-08
3.22974e-08
3.32329e-08
3.35613e-08
3.32655e-08
3.23609e-08
3.08936e-08
2.89374e-08
2.65866e-08
2.39495e-08
2.11394e-08
1.82665e-08
1.54299e-08
1.27118e-08
1.01718e-08
7.84395e-09
5.73508e-09
3.82565e-09
2.07263e-09
4.14047e-10
1.43231e-11
1.41374e-11
4.08763e-10
2.04718e-09
3.78e-09
5.66911e-09
7.75802e-09
1.00671e-08
1.25907e-08
1.52961e-08
1.81245e-08
2.09951e-08
2.3809e-08
2.64565e-08
2.88242e-08
3.08031e-08
3.22978e-08
3.32334e-08
3.35618e-08
3.3266e-08
3.23613e-08
3.08941e-08
2.89378e-08
2.6587e-08
2.39498e-08
2.11397e-08
1.82667e-08
1.54301e-08
1.27119e-08
1.01719e-08
7.84406e-09
5.73516e-09
3.8257e-09
2.07266e-09
4.14052e-10
1.43233e-11
1.41375e-11
4.08764e-10
2.04719e-09
3.78001e-09
5.66913e-09
7.75805e-09
1.00672e-08
1.25908e-08
1.52961e-08
1.81246e-08
2.09951e-08
2.38091e-08
2.64567e-08
2.88243e-08
3.08033e-08
3.2298e-08
3.32335e-08
3.35619e-08
3.32661e-08
3.23614e-08
3.08942e-08
2.89379e-08
2.65871e-08
2.39499e-08
2.11398e-08
1.82668e-08
1.54302e-08
1.2712e-08
1.0172e-08
7.84409e-09
5.73518e-09
3.82572e-09
2.07267e-09
4.14054e-10
1.43234e-11
1.41375e-11
4.08765e-10
2.04719e-09
3.78002e-09
5.66914e-09
7.75806e-09
1.00672e-08
1.25908e-08
1.52961e-08
1.81246e-08
2.09952e-08
2.38091e-08
2.64567e-08
2.88243e-08
3.08033e-08
3.2298e-08
3.32335e-08
3.3562e-08
3.32662e-08
3.23615e-08
3.08942e-08
2.89379e-08
2.65871e-08
2.395e-08
2.11398e-08
1.82668e-08
1.54302e-08
1.2712e-08
1.0172e-08
7.8441e-09
5.73519e-09
3.82572e-09
2.07267e-09
4.14054e-10
1.43234e-11
1.41375e-11
4.08765e-10
2.04719e-09
3.78002e-09
5.66914e-09
7.75806e-09
1.00672e-08
1.25908e-08
1.52961e-08
1.81246e-08
2.09952e-08
2.38091e-08
2.64567e-08
2.88243e-08
3.08033e-08
3.2298e-08
3.32336e-08
3.3562e-08
3.32662e-08
3.23615e-08
3.08943e-08
2.89379e-08
2.65871e-08
2.395e-08
2.11398e-08
1.82668e-08
1.54302e-08
1.2712e-08
1.0172e-08
7.8441e-09
5.73519e-09
3.82573e-09
2.07267e-09
4.14054e-10
1.43234e-11
1.41375e-11
4.08765e-10
2.04719e-09
3.78002e-09
5.66914e-09
7.75806e-09
1.00672e-08
1.25908e-08
1.52962e-08
1.81246e-08
2.09952e-08
2.38091e-08
2.64567e-08
2.88243e-08
3.08033e-08
3.2298e-08
3.32336e-08
3.3562e-08
3.32662e-08
3.23615e-08
3.08943e-08
2.89379e-08
2.65871e-08
2.395e-08
2.11398e-08
1.82668e-08
1.54302e-08
1.2712e-08
1.0172e-08
7.8441e-09
5.73519e-09
3.82573e-09
2.07267e-09
4.14054e-10
1.43234e-11
1.41375e-11
4.08765e-10
2.04719e-09
3.78002e-09
5.66914e-09
7.75806e-09
1.00672e-08
1.25908e-08
1.52962e-08
1.81246e-08
2.09952e-08
2.38091e-08
2.64567e-08
2.88243e-08
3.08033e-08
3.2298e-08
3.32336e-08
3.3562e-08
3.32662e-08
3.23615e-08
3.08943e-08
2.89379e-08
2.65871e-08
2.395e-08
2.11398e-08
1.82668e-08
1.54302e-08
1.2712e-08
1.0172e-08
7.8441e-09
5.73519e-09
3.82573e-09
2.07267e-09
4.14054e-10
1.43234e-11
1.41375e-11
4.08765e-10
2.04719e-09
3.78002e-09
5.66914e-09
7.75806e-09
1.00672e-08
1.25908e-08
1.52962e-08
1.81246e-08
2.09952e-08
2.38091e-08
2.64567e-08
2.88243e-08
3.08033e-08
3.2298e-08
3.32336e-08
3.3562e-08
3.32662e-08
3.23615e-08
3.08943e-08
2.89379e-08
2.65871e-08
2.395e-08
2.11398e-08
1.82668e-08
1.54302e-08
1.2712e-08
1.0172e-08
7.8441e-09
5.73519e-09
3.82573e-09
2.07267e-09
4.14054e-10
1.43234e-11
1.41375e-11
4.08765e-10
2.04719e-09
3.78002e-09
5.66914e-09
7.75806e-09
1.00672e-08
1.25908e-08
1.52962e-08
1.81246e-08
2.09952e-08
2.38091e-08
2.64567e-08
2.88243e-08
3.08033e-08
3.2298e-08
3.32336e-08
3.3562e-08
3.32662e-08
3.23615e-08
3.08943e-08
2.89379e-08
2.65871e-08
2.395e-08
2.11398e-08
1.82668e-08
1.54302e-08
1.2712e-08
1.0172e-08
7.8441e-09
5.73519e-09
3.82573e-09
2.07267e-09
4.14054e-10
1.43234e-11
1.41375e-11
4.08765e-10
2.04719e-09
3.78002e-09
5.66914e-09
7.75806e-09
1.00672e-08
1.25908e-08
1.52962e-08
1.81246e-08
2.09952e-08
2.38091e-08
2.64567e-08
2.88243e-08
3.08033e-08
3.2298e-08
3.32336e-08
3.3562e-08
3.32662e-08
3.23615e-08
3.08943e-08
2.89379e-08
2.65871e-08
2.395e-08
2.11398e-08
1.82668e-08
1.54302e-08
1.2712e-08
1.0172e-08
7.8441e-09
5.73519e-09
3.82573e-09
2.07267e-09
4.14054e-10
1.43234e-11
1.41375e-11
4.08765e-10
2.04719e-09
3.78002e-09
5.66914e-09
7.75806e-09
1.00672e-08
1.25908e-08
1.52962e-08
1.81246e-08
2.09952e-08
2.38091e-08
2.64567e-08
2.88243e-08
3.08033e-08
3.2298e-08
3.32336e-08
3.3562e-08
3.32662e-08
3.23615e-08
3.08943e-08
2.89379e-08
2.65871e-08
2.395e-08
2.11398e-08
1.82668e-08
1.54302e-08
1.2712e-08
1.0172e-08
7.8441e-09
5.73519e-09
3.82573e-09
2.07267e-09
4.14054e-10
1.43234e-11
1.41375e-11
4.08765e-10
2.04719e-09
3.78002e-09
5.66914e-09
7.75806e-09
1.00672e-08
1.25908e-08
1.52962e-08
1.81246e-08
2.09952e-08
2.38091e-08
2.64567e-08
2.88243e-08
3.08033e-08
3.2298e-08
3.32336e-08
3.3562e-08
3.32662e-08
3.23615e-08
3.08943e-08
2.89379e-08
2.65871e-08
2.395e-08
2.11398e-08
1.82668e-08
1.54302e-08
1.2712e-08
1.0172e-08
7.8441e-09
5.73519e-09
3.82573e-09
2.07267e-09
4.14054e-10
1.43234e-11
1.41375e-11
4.08765e-10
2.04719e-09
3.78002e-09
5.66914e-09
7.75806e-09
1.00672e-08
1.25908e-08
1.52962e-08
1.81246e-08
2.09952e-08
2.38091e-08
2.64567e-08
2.88243e-08
3.08033e-08
3.2298e-08
3.32336e-08
3.3562e-08
3.32662e-08
3.23615e-08
3.08943e-08
2.89379e-08
2.65871e-08
2.395e-08
2.11398e-08
1.82668e-08
1.54302e-08
1.2712e-08
1.0172e-08
7.8441e-09
5.73519e-09
3.82573e-09
2.07267e-09
4.14054e-10
1.43234e-11
1.41375e-11
4.08765e-10
2.04719e-09
3.78002e-09
5.66914e-09
7.75806e-09
1.00672e-08
1.25908e-08
1.52962e-08
1.81246e-08
2.09952e-08
2.38091e-08
2.64567e-08
2.88243e-08
3.08033e-08
3.2298e-08
3.32336e-08
3.3562e-08
3.32662e-08
3.23615e-08
3.08943e-08
2.89379e-08
2.65871e-08
2.395e-08
2.11398e-08
1.82668e-08
1.54302e-08
1.2712e-08
1.0172e-08
7.8441e-09
5.73519e-09
3.82573e-09
2.07267e-09
4.14054e-10
1.43234e-11
1.41375e-11
4.08765e-10
2.04719e-09
3.78002e-09
5.66914e-09
7.75806e-09
1.00672e-08
1.25908e-08
1.52962e-08
1.81246e-08
2.09952e-08
2.38091e-08
2.64567e-08
2.88243e-08
3.08033e-08
3.2298e-08
3.32336e-08
3.3562e-08
3.32662e-08
3.23615e-08
3.08943e-08
2.89379e-08
2.65871e-08
2.395e-08
2.11398e-08
1.82668e-08
1.54302e-08
1.2712e-08
1.0172e-08
7.8441e-09
5.73519e-09
3.82573e-09
2.07267e-09
4.14054e-10
1.43234e-11
1.41375e-11
4.08765e-10
2.04719e-09
3.78002e-09
5.66914e-09
7.75806e-09
1.00672e-08
1.25908e-08
1.52962e-08
1.81246e-08
2.09952e-08
2.38091e-08
2.64567e-08
2.88243e-08
3.08033e-08
3.2298e-08
3.32336e-08
3.3562e-08
3.32662e-08
3.23615e-08
3.08943e-08
2.89379e-08
2.65871e-08
2.395e-08
2.11398e-08
1.82668e-08
1.54302e-08
1.2712e-08
1.0172e-08
7.8441e-09
5.73519e-09
3.82573e-09
2.07267e-09
4.14054e-10
1.43234e-11
1.41375e-11
4.08765e-10
2.04719e-09
3.78002e-09
5.66914e-09
7.75806e-09
1.00672e-08
1.25908e-08
1.52962e-08
1.81246e-08
2.09952e-08
2.38091e-08
2.64567e-08
2.88243e-08
3.08033e-08
3.2298e-08
3.32336e-08
3.3562e-08
3.32662e-08
3.23615e-08
3.08943e-08
2.89379e-08
2.65871e-08
2.395e-08
2.11398e-08
1.82668e-08
1.54302e-08
1.2712e-08
1.0172e-08
7.8441e-09
5.73519e-09
3.82573e-09
2.07267e-09
4.14054e-10
1.43234e-11
1.41375e-11
4.08765e-10
2.04719e-09
3.78002e-09
5.66914e-09
7.75806e-09
1.00672e-08
1.25908e-08
1.52962e-08
1.81246e-08
2.09952e-08
2.38091e-08
2.64567e-08
2.88243e-08
3.08033e-08
3.2298e-08
3.32336e-08
3.3562e-08
3.32662e-08
3.23615e-08
3.08943e-08
2.89379e-08
2.65871e-08
2.395e-08
2.11398e-08
1.82668e-08
1.54302e-08
1.2712e-08
1.0172e-08
7.8441e-09
5.73519e-09
3.82573e-09
2.07267e-09
4.14054e-10
1.43234e-11
1.41375e-11
4.08765e-10
2.04719e-09
3.78002e-09
5.66914e-09
7.75806e-09
1.00672e-08
1.25908e-08
1.52962e-08
1.81246e-08
2.09952e-08
2.38091e-08
2.64567e-08
2.88243e-08
3.08033e-08
3.2298e-08
3.32336e-08
3.3562e-08
3.32662e-08
3.23615e-08
3.08943e-08
2.89379e-08
2.65871e-08
2.395e-08
2.11398e-08
1.82668e-08
1.54302e-08
1.2712e-08
1.0172e-08
7.8441e-09
5.73519e-09
3.82573e-09
2.07267e-09
4.14054e-10
1.43234e-11
1.41375e-11
4.08765e-10
2.04719e-09
3.78002e-09
5.66914e-09
7.75806e-09
1.00672e-08
1.25908e-08
1.52962e-08
1.81246e-08
2.09952e-08
2.38091e-08
2.64567e-08
2.88243e-08
3.08033e-08
3.2298e-08
3.32336e-08
3.3562e-08
3.32662e-08
3.23615e-08
3.08943e-08
2.89379e-08
2.65871e-08
2.395e-08
2.11398e-08
1.82668e-08
1.54302e-08
1.2712e-08
1.0172e-08
7.8441e-09
5.73519e-09
3.82573e-09
2.07267e-09
4.14054e-10
1.43234e-11
1.41375e-11
4.08765e-10
2.04719e-09
3.78002e-09
5.66914e-09
7.75806e-09
1.00672e-08
1.25908e-08
1.52962e-08
1.81246e-08
2.09952e-08
2.38091e-08
2.64567e-08
2.88243e-08
3.08033e-08
3.2298e-08
3.32336e-08
3.3562e-08
3.32662e-08
3.23615e-08
3.08943e-08
2.89379e-08
2.65871e-08
2.395e-08
2.11398e-08
1.82668e-08
1.54302e-08
1.2712e-08
1.0172e-08
7.8441e-09
5.73519e-09
3.82573e-09
2.07267e-09
4.14054e-10
1.43234e-11
1.41375e-11
4.08765e-10
2.04719e-09
3.78002e-09
5.66914e-09
7.75806e-09
1.00672e-08
1.25908e-08
1.52962e-08
1.81246e-08
2.09952e-08
2.38091e-08
2.64567e-08
2.88243e-08
3.08033e-08
3.2298e-08
3.32336e-08
3.3562e-08
3.32662e-08
3.23615e-08
3.08943e-08
2.89379e-08
2.65871e-08
2.395e-08
2.11398e-08
1.82668e-08
1.54302e-08
1.2712e-08
1.0172e-08
7.8441e-09
5.73519e-09
3.82573e-09
2.07267e-09
4.14054e-10
1.43234e-11
1.41375e-11
4.08765e-10
2.04719e-09
3.78002e-09
5.66914e-09
7.75806e-09
1.00672e-08
1.25908e-08
1.52962e-08
1.81246e-08
2.09952e-08
2.38091e-08
2.64567e-08
2.88243e-08
3.08033e-08
3.2298e-08
3.32336e-08
3.3562e-08
3.32662e-08
3.23615e-08
3.08943e-08
2.89379e-08
2.65871e-08
2.395e-08
2.11398e-08
1.82668e-08
1.54302e-08
1.2712e-08
1.0172e-08
7.8441e-09
5.73519e-09
3.82573e-09
2.07267e-09
4.14054e-10
1.43234e-11
1.41375e-11
4.08765e-10
2.04719e-09
3.78002e-09
5.66914e-09
7.75806e-09
1.00672e-08
1.25908e-08
1.52962e-08
1.81246e-08
2.09952e-08
2.38091e-08
2.64567e-08
2.88243e-08
3.08033e-08
3.2298e-08
3.32336e-08
3.3562e-08
3.32662e-08
3.23615e-08
3.08943e-08
2.89379e-08
2.65871e-08
2.395e-08
2.11398e-08
1.82668e-08
1.54302e-08
1.2712e-08
1.0172e-08
7.8441e-09
5.73519e-09
3.82573e-09
2.07267e-09
4.14054e-10
1.43234e-11
1.41375e-11
4.08765e-10
2.04719e-09
3.78002e-09
5.66914e-09
7.75806e-09
1.00672e-08
1.25908e-08
1.52962e-08
1.81246e-08
2.09952e-08
2.38091e-08
2.64567e-08
2.88243e-08
3.08033e-08
3.2298e-08
3.32336e-08
3.3562e-08
3.32662e-08
3.23615e-08
3.08943e-08
2.89379e-08
2.65871e-08
2.395e-08
2.11398e-08
1.82668e-08
1.54302e-08
1.2712e-08
1.0172e-08
7.8441e-09
5.73519e-09
3.82573e-09
2.07267e-09
4.14054e-10
1.43234e-11
1.41375e-11
4.08765e-10
2.04719e-09
3.78002e-09
5.66914e-09
7.75806e-09
1.00672e-08
1.25908e-08
1.52962e-08
1.81246e-08
2.09952e-08
2.38091e-08
2.64567e-08
2.88243e-08
3.08033e-08
3.2298e-08
3.32336e-08
3.3562e-08
3.32662e-08
3.23615e-08
3.08943e-08
2.89379e-08
2.65871e-08
2.395e-08
2.11398e-08
1.82668e-08
1.54302e-08
1.2712e-08
1.0172e-08
7.8441e-09
5.73519e-09
3.82573e-09
2.07267e-09
4.14054e-10
1.43234e-11
1.41375e-11
4.08765e-10
2.04719e-09
3.78002e-09
5.66914e-09
7.75806e-09
1.00672e-08
1.25908e-08
1.52962e-08
1.81246e-08
2.09952e-08
2.38091e-08
2.64567e-08
2.88243e-08
3.08033e-08
3.2298e-08
3.32336e-08
3.3562e-08
3.32662e-08
3.23615e-08
3.08943e-08
2.89379e-08
2.65871e-08
2.395e-08
2.11398e-08
1.82668e-08
1.54302e-08
1.2712e-08
1.0172e-08
7.8441e-09
5.73519e-09
3.82573e-09
2.07267e-09
4.14054e-10
1.43234e-11
1.41375e-11
4.08765e-10
2.04719e-09
3.78002e-09
5.66914e-09
7.75806e-09
1.00672e-08
1.25908e-08
1.52962e-08
1.81246e-08
2.09952e-08
2.38091e-08
2.64567e-08
2.88243e-08
3.08033e-08
3.2298e-08
3.32336e-08
3.3562e-08
3.32662e-08
3.23615e-08
3.08943e-08
2.89379e-08
2.65871e-08
2.395e-08
2.11398e-08
1.82668e-08
1.54302e-08
1.2712e-08
1.0172e-08
7.8441e-09
5.73519e-09
3.82573e-09
2.07267e-09
4.14054e-10
1.43234e-11
1.41375e-11
4.08765e-10
2.04719e-09
3.78002e-09
5.66914e-09
7.75806e-09
1.00672e-08
1.25908e-08
1.52962e-08
1.81246e-08
2.09952e-08
2.38091e-08
2.64567e-08
2.88243e-08
3.08033e-08
3.2298e-08
3.32336e-08
3.3562e-08
3.32662e-08
3.23615e-08
3.08943e-08
2.89379e-08
2.65871e-08
2.395e-08
2.11398e-08
1.82668e-08
1.54302e-08
1.2712e-08
1.0172e-08
7.8441e-09
5.73519e-09
3.82573e-09
2.07267e-09
4.14054e-10
1.43234e-11
1.41375e-11
4.08765e-10
2.04719e-09
3.78002e-09
5.66914e-09
7.75806e-09
1.00672e-08
1.25908e-08
1.52962e-08
1.81246e-08
2.09952e-08
2.38091e-08
2.64567e-08
2.88243e-08
3.08033e-08
3.2298e-08
3.32336e-08
3.3562e-08
3.32662e-08
3.23615e-08
3.08943e-08
2.89379e-08
2.65871e-08
2.395e-08
2.11398e-08
1.82668e-08
1.54302e-08
1.2712e-08
1.0172e-08
7.8441e-09
5.73519e-09
3.82573e-09
2.07267e-09
4.14054e-10
1.43234e-11
1.41375e-11
4.08765e-10
2.04719e-09
3.78002e-09
5.66914e-09
7.75806e-09
1.00672e-08
1.25908e-08
1.52962e-08
1.81246e-08
2.09952e-08
2.38091e-08
2.64567e-08
2.88243e-08
3.08033e-08
3.2298e-08
3.32336e-08
3.3562e-08
3.32662e-08
3.23615e-08
3.08943e-08
2.89379e-08
2.65871e-08
2.395e-08
2.11398e-08
1.82668e-08
1.54302e-08
1.2712e-08
1.0172e-08
7.8441e-09
5.73519e-09
3.82573e-09
2.07267e-09
4.14054e-10
1.43234e-11
1.41375e-11
4.08765e-10
2.04719e-09
3.78002e-09
5.66914e-09
7.75806e-09
1.00672e-08
1.25908e-08
1.52962e-08
1.81246e-08
2.09952e-08
2.38091e-08
2.64567e-08
2.88243e-08
3.08033e-08
3.2298e-08
3.32336e-08
3.3562e-08
3.32662e-08
3.23615e-08
3.08943e-08
2.89379e-08
2.65871e-08
2.395e-08
2.11398e-08
1.82668e-08
1.54302e-08
1.2712e-08
1.0172e-08
7.8441e-09
5.73519e-09
3.82573e-09
2.07267e-09
4.14054e-10
1.43234e-11
1.41375e-11
4.08765e-10
2.04719e-09
3.78002e-09
5.66914e-09
7.75806e-09
1.00672e-08
1.25908e-08
1.52962e-08
1.81246e-08
2.09952e-08
2.38091e-08
2.64567e-08
2.88243e-08
3.08033e-08
3.2298e-08
3.32336e-08
3.3562e-08
3.32662e-08
3.23615e-08
3.08943e-08
2.89379e-08
2.65871e-08
2.395e-08
2.11398e-08
1.82668e-08
1.54302e-08
1.2712e-08
1.0172e-08
7.8441e-09
5.73519e-09
3.82573e-09
2.07267e-09
4.14054e-10
1.43234e-11
1.41375e-11
4.08765e-10
2.04719e-09
3.78002e-09
5.66914e-09
7.75806e-09
1.00672e-08
1.25908e-08
1.52962e-08
1.81246e-08
2.09952e-08
2.38091e-08
2.64567e-08
2.88243e-08
3.08033e-08
3.2298e-08
3.32336e-08
3.3562e-08
3.32662e-08
3.23615e-08
3.08943e-08
2.89379e-08
2.65871e-08
2.395e-08
2.11398e-08
1.82668e-08
1.54302e-08
1.2712e-08
1.0172e-08
7.8441e-09
5.73519e-09
3.82573e-09
2.07267e-09
4.14054e-10
1.43234e-11
1.41375e-11
4.08765e-10
2.04719e-09
3.78002e-09
5.66914e-09
7.75806e-09
1.00672e-08
1.25908e-08
1.52962e-08
1.81246e-08
2.09952e-08
2.38091e-08
2.64567e-08
2.88243e-08
3.08033e-08
3.2298e-08
3.32336e-08
3.3562e-08
3.32662e-08
3.23615e-08
3.08943e-08
2.89379e-08
2.65871e-08
2.395e-08
2.11398e-08
1.82668e-08
1.54302e-08
1.2712e-08
1.0172e-08
7.8441e-09
5.73519e-09
3.82573e-09
2.07267e-09
4.14054e-10
1.43234e-11
1.41375e-11
4.08765e-10
2.04719e-09
3.78002e-09
5.66914e-09
7.75806e-09
1.00672e-08
1.25908e-08
1.52962e-08
1.81246e-08
2.09952e-08
2.38091e-08
2.64567e-08
2.88243e-08
3.08033e-08
3.2298e-08
3.32336e-08
3.3562e-08
3.32662e-08
3.23615e-08
3.08943e-08
2.89379e-08
2.65871e-08
2.395e-08
2.11398e-08
1.82668e-08
1.54302e-08
1.2712e-08
1.0172e-08
7.8441e-09
5.73519e-09
3.82573e-09
2.07267e-09
4.14054e-10
1.43234e-11
1.41375e-11
4.08765e-10
2.04719e-09
3.78002e-09
5.66914e-09
7.75806e-09
1.00672e-08
1.25908e-08
1.52962e-08
1.81246e-08
2.09952e-08
2.38091e-08
2.64567e-08
2.88243e-08
3.08033e-08
3.2298e-08
3.32336e-08
3.3562e-08
3.32662e-08
3.23615e-08
3.08943e-08
2.89379e-08
2.65871e-08
2.395e-08
2.11398e-08
1.82668e-08
1.54302e-08
1.2712e-08
1.0172e-08
7.8441e-09
5.73519e-09
3.82573e-09
2.07267e-09
4.14054e-10
1.43234e-11
1.41375e-11
4.08765e-10
2.04719e-09
3.78002e-09
5.66914e-09
7.75806e-09
1.00672e-08
1.25908e-08
1.52962e-08
1.81246e-08
2.09952e-08
2.38091e-08
2.64567e-08
2.88243e-08
3.08033e-08
3.2298e-08
3.32336e-08
3.3562e-08
3.32662e-08
3.23615e-08
3.08943e-08
2.89379e-08
2.65871e-08
2.395e-08
2.11398e-08
1.82668e-08
1.54302e-08
1.2712e-08
1.0172e-08
7.8441e-09
5.73519e-09
3.82573e-09
2.07267e-09
4.14054e-10
1.43234e-11
1.41375e-11
4.08765e-10
2.04719e-09
3.78002e-09
5.66914e-09
7.75806e-09
1.00672e-08
1.25908e-08
1.52962e-08
1.81246e-08
2.09952e-08
2.38091e-08
2.64567e-08
2.88243e-08
3.08033e-08
3.2298e-08
3.32336e-08
3.3562e-08
3.32662e-08
3.23615e-08
3.08943e-08
2.89379e-08
2.65871e-08
2.395e-08
2.11398e-08
1.82668e-08
1.54302e-08
1.2712e-08
1.0172e-08
7.8441e-09
5.73519e-09
3.82573e-09
2.07267e-09
4.14054e-10
1.43234e-11
1.41375e-11
4.08765e-10
2.04719e-09
3.78002e-09
5.66914e-09
7.75806e-09
1.00672e-08
1.25908e-08
1.52962e-08
1.81246e-08
2.09952e-08
2.38091e-08
2.64567e-08
2.88243e-08
3.08033e-08
3.2298e-08
3.32336e-08
3.3562e-08
3.32662e-08
3.23615e-08
3.08943e-08
2.89379e-08
2.65871e-08
2.395e-08
2.11398e-08
1.82668e-08
1.54302e-08
1.2712e-08
1.0172e-08
7.8441e-09
5.73519e-09
3.82573e-09
2.07267e-09
4.14054e-10
1.43234e-11
1.41375e-11
4.08765e-10
2.04719e-09
3.78002e-09
5.66914e-09
7.75806e-09
1.00672e-08
1.25908e-08
1.52962e-08
1.81246e-08
2.09952e-08
2.38091e-08
2.64567e-08
2.88243e-08
3.08033e-08
3.2298e-08
3.32336e-08
3.3562e-08
3.32662e-08
3.23615e-08
3.08943e-08
2.89379e-08
2.65871e-08
2.395e-08
2.11398e-08
1.82668e-08
1.54302e-08
1.2712e-08
1.0172e-08
7.8441e-09
5.73519e-09
3.82573e-09
2.07267e-09
4.14054e-10
1.43234e-11
1.41375e-11
4.08765e-10
2.04719e-09
3.78002e-09
5.66914e-09
7.75806e-09
1.00672e-08
1.25908e-08
1.52962e-08
1.81246e-08
2.09952e-08
2.38091e-08
2.64567e-08
2.88243e-08
3.08033e-08
3.2298e-08
3.32336e-08
3.3562e-08
3.32662e-08
3.23615e-08
3.08943e-08
2.89379e-08
2.65871e-08
2.395e-08
2.11398e-08
1.82668e-08
1.54302e-08
1.2712e-08
1.0172e-08
7.8441e-09
5.73519e-09
3.82573e-09
2.07267e-09
4.14054e-10
1.43234e-11
1.41375e-11
4.08765e-10
2.04719e-09
3.78002e-09
5.66914e-09
7.75806e-09
1.00672e-08
1.25908e-08
1.52962e-08
1.81246e-08
2.09952e-08
2.38091e-08
2.64567e-08
2.88243e-08
3.08033e-08
3.2298e-08
3.32336e-08
3.3562e-08
3.32662e-08
3.23615e-08
3.08943e-08
2.89379e-08
2.65871e-08
2.395e-08
2.11398e-08
1.82668e-08
1.54302e-08
1.2712e-08
1.0172e-08
7.8441e-09
5.73519e-09
3.82573e-09
2.07267e-09
4.14054e-10
1.43234e-11
1.41375e-11
4.08765e-10
2.04719e-09
3.78002e-09
5.66914e-09
7.75806e-09
1.00672e-08
1.25908e-08
1.52962e-08
1.81246e-08
2.09952e-08
2.38091e-08
2.64567e-08
2.88243e-08
3.08033e-08
3.2298e-08
3.32336e-08
3.3562e-08
3.32662e-08
3.23615e-08
3.08943e-08
2.89379e-08
2.65871e-08
2.395e-08
2.11398e-08
1.82668e-08
1.54302e-08
1.2712e-08
1.0172e-08
7.8441e-09
5.73519e-09
3.82573e-09
2.07267e-09
4.14054e-10
1.43234e-11
1.41375e-11
4.08765e-10
2.04719e-09
3.78002e-09
5.66914e-09
7.75806e-09
1.00672e-08
1.25908e-08
1.52962e-08
1.81246e-08
2.09952e-08
2.38091e-08
2.64567e-08
2.88243e-08
3.08033e-08
3.2298e-08
3.32336e-08
3.3562e-08
3.32662e-08
3.23615e-08
3.08943e-08
2.89379e-08
2.65871e-08
2.395e-08
2.11398e-08
1.82668e-08
1.54302e-08
1.2712e-08
1.0172e-08
7.8441e-09
5.73519e-09
3.82573e-09
2.07267e-09
4.14054e-10
1.43234e-11
1.41375e-11
4.08765e-10
2.04719e-09
3.78002e-09
5.66914e-09
7.75806e-09
1.00672e-08
1.25908e-08
1.52962e-08
1.81246e-08
2.09952e-08
2.38091e-08
2.64567e-08
2.88243e-08
3.08033e-08
3.2298e-08
3.32336e-08
3.3562e-08
3.32662e-08
3.23615e-08
3.08943e-08
2.89379e-08
2.65871e-08
2.395e-08
2.11398e-08
1.82668e-08
1.54302e-08
1.2712e-08
1.0172e-08
7.8441e-09
5.73519e-09
3.82573e-09
2.07267e-09
4.14054e-10
1.43234e-11
1.41375e-11
4.08765e-10
2.04719e-09
3.78002e-09
5.66914e-09
7.75806e-09
1.00672e-08
1.25908e-08
1.52962e-08
1.81246e-08
2.09952e-08
2.38091e-08
2.64567e-08
2.88243e-08
3.08033e-08
3.2298e-08
3.32336e-08
3.3562e-08
3.32662e-08
3.23615e-08
3.08943e-08
2.89379e-08
2.65871e-08
2.395e-08
2.11398e-08
1.82668e-08
1.54302e-08
1.2712e-08
1.0172e-08
7.8441e-09
5.73519e-09
3.82573e-09
2.07267e-09
4.14054e-10
1.43234e-11
1.41375e-11
4.08765e-10
2.04719e-09
3.78002e-09
5.66914e-09
7.75806e-09
1.00672e-08
1.25908e-08
1.52962e-08
1.81246e-08
2.09952e-08
2.38091e-08
2.64567e-08
2.88243e-08
3.08033e-08
3.2298e-08
3.32336e-08
3.3562e-08
3.32662e-08
3.23615e-08
3.08943e-08
2.89379e-08
2.65871e-08
2.395e-08
2.11398e-08
1.82668e-08
1.54302e-08
1.2712e-08
1.0172e-08
7.8441e-09
5.73519e-09
3.82573e-09
2.07267e-09
4.14054e-10
1.43234e-11
1.41375e-11
4.08765e-10
2.04719e-09
3.78002e-09
5.66914e-09
7.75806e-09
1.00672e-08
1.25908e-08
1.52962e-08
1.81246e-08
2.09952e-08
2.38091e-08
2.64567e-08
2.88243e-08
3.08033e-08
3.2298e-08
3.32336e-08
3.3562e-08
3.32662e-08
3.23615e-08
3.08943e-08
2.89379e-08
2.65871e-08
2.395e-08
2.11398e-08
1.82668e-08
1.54302e-08
1.2712e-08
1.0172e-08
7.8441e-09
5.73519e-09
3.82573e-09
2.07267e-09
4.14054e-10
1.43234e-11
1.41375e-11
4.08765e-10
2.04719e-09
3.78002e-09
5.66914e-09
7.75806e-09
1.00672e-08
1.25908e-08
1.52962e-08
1.81246e-08
2.09952e-08
2.38091e-08
2.64567e-08
2.88243e-08
3.08033e-08
3.2298e-08
3.32336e-08
3.3562e-08
3.32662e-08
3.23615e-08
3.08943e-08
2.89379e-08
2.65871e-08
2.395e-08
2.11398e-08
1.82668e-08
1.54302e-08
1.2712e-08
1.0172e-08
7.8441e-09
5.73519e-09
3.82573e-09
2.07267e-09
4.14054e-10
1.43234e-11
1.41375e-11
4.08765e-10
2.04719e-09
3.78002e-09
5.66914e-09
7.75806e-09
1.00672e-08
1.25908e-08
1.52962e-08
1.81246e-08
2.09952e-08
2.38091e-08
2.64567e-08
2.88243e-08
3.08033e-08
3.2298e-08
3.32336e-08
3.3562e-08
3.32662e-08
3.23615e-08
3.08943e-08
2.89379e-08
2.65871e-08
2.395e-08
2.11398e-08
1.82668e-08
1.54302e-08
1.2712e-08
1.0172e-08
7.8441e-09
5.73519e-09
3.82573e-09
2.07267e-09
4.14054e-10
1.43234e-11
1.41375e-11
4.08765e-10
2.04719e-09
3.78002e-09
5.66914e-09
7.75806e-09
1.00672e-08
1.25908e-08
1.52962e-08
1.81246e-08
2.09952e-08
2.38091e-08
2.64567e-08
2.88243e-08
3.08033e-08
3.2298e-08
3.32336e-08
3.3562e-08
3.32662e-08
3.23615e-08
3.08943e-08
2.89379e-08
2.65871e-08
2.395e-08
2.11398e-08
1.82668e-08
1.54302e-08
1.2712e-08
1.0172e-08
7.8441e-09
5.73519e-09
3.82573e-09
2.07267e-09
4.14054e-10
1.43234e-11
1.41375e-11
4.08765e-10
2.04719e-09
3.78002e-09
5.66914e-09
7.75806e-09
1.00672e-08
1.25908e-08
1.52962e-08
1.81246e-08
2.09952e-08
2.38091e-08
2.64567e-08
2.88243e-08
3.08033e-08
3.2298e-08
3.32336e-08
3.3562e-08
3.32662e-08
3.23615e-08
3.08943e-08
2.89379e-08
2.65871e-08
2.395e-08
2.11398e-08
1.82668e-08
1.54302e-08
1.2712e-08
1.0172e-08
7.8441e-09
5.73519e-09
3.82573e-09
2.07267e-09
4.14054e-10
1.43234e-11
1.41375e-11
4.08765e-10
2.04719e-09
3.78002e-09
5.66914e-09
7.75806e-09
1.00672e-08
1.25908e-08
1.52962e-08
1.81246e-08
2.09952e-08
2.38091e-08
2.64567e-08
2.88243e-08
3.08033e-08
3.2298e-08
3.32336e-08
3.3562e-08
3.32662e-08
3.23615e-08
3.08943e-08
2.89379e-08
2.65871e-08
2.395e-08
2.11398e-08
1.82668e-08
1.54302e-08
1.2712e-08
1.0172e-08
7.8441e-09
5.73519e-09