/*--------------------------------*- C++ -*----------------------------------*\
  =========                 |
  \\      /  F ield         | OpenFOAM: The Open Source CFD Toolbox
   \\    /   O peration     | Website:  https://openfoam.org
    \\  /    A nd           | Version:  13
     \\/     M anipulation  |
\*---------------------------------------------------------------------------*/
FoamFile
{
    format      ascii;
    class       volScalarField;
    location    "230";
    object      nut;
}
// * * * * * * * * * * * * * * * * * * * * * * * * * * * * * * * * * * * * * //

dimensions      [0 2 -1 0 0 0 0];

internalField   nonuniform List<scalar> 
78750
(
5.03638e-17
1.28909e-14
2.90823e-13
5.27895e-13
7.78328e-13
1.04415e-12
1.32561e-12
1.62078e-12
1.92546e-12
2.23346e-12
2.53696e-12
2.82707e-12
3.09434e-12
3.32947e-12
3.52381e-12
3.66994e-12
3.76215e-12
3.79674e-12
3.77231e-12
3.6898e-12
3.55246e-12
3.36563e-12
3.13642e-12
2.87329e-12
2.58546e-12
2.28238e-12
1.97306e-12
1.66552e-12
1.36619e-12
1.0795e-12
8.07592e-13
5.50213e-13
3.04966e-13
1.3628e-14
5.34707e-17
1.09704e-15
2.8521e-13
4.03017e-11
7.36905e-11
1.0893e-10
1.46436e-10
1.863e-10
2.28259e-10
2.71713e-10
3.15757e-10
3.59249e-10
4.00884e-10
4.39281e-10
4.73074e-10
5.00997e-10
5.21965e-10
5.35141e-10
5.39989e-10
5.36308e-10
5.24243e-10
5.04278e-10
4.77203e-10
4.4407e-10
4.06119e-10
3.64708e-10
3.21219e-10
2.76971e-10
2.33132e-10
1.90636e-10
1.50116e-10
1.11862e-10
7.58038e-11
4.15282e-11
2.94369e-13
1.13297e-15
3.1132e-15
8.09457e-13
1.14609e-10
2.10808e-10
3.14369e-10
4.27201e-10
5.50054e-10
6.82386e-10
8.2235e-10
9.66893e-10
1.11196e-09
1.25275e-09
1.38409e-09
1.50071e-09
1.59772e-09
1.67083e-09
1.71677e-09
1.7334e-09
1.71995e-09
1.67704e-09
1.60662e-09
1.51187e-09
1.39693e-09
1.26669e-09
1.12635e-09
9.81134e-10
8.35892e-10
6.94765e-10
5.60906e-10
4.36263e-10
3.2147e-10
2.1584e-10
1.17483e-10
8.30708e-13
3.19632e-15
6.09087e-15
1.58353e-12
2.24361e-10
4.13627e-10
6.18926e-10
8.446e-10
1.09257e-09
1.36205e-09
1.64942e-09
1.94846e-09
2.25063e-09
2.54571e-09
2.8224e-09
3.06918e-09
3.27511e-09
3.43062e-09
3.52827e-09
3.56329e-09
3.53393e-09
3.44164e-09
3.2909e-09
3.08892e-09
2.84508e-09
2.57022e-09
2.27585e-09
1.97331e-09
1.67295e-09
1.38344e-09
1.11121e-09
8.60064e-10
6.30959e-10
4.22091e-10
2.2916e-10
1.61889e-12
6.229e-15
9.52024e-15
2.475e-12
3.50741e-10
6.4712e-10
9.69438e-10
1.32481e-09
1.71651e-09
2.14342e-09
2.59993e-09
3.07615e-09
3.55846e-09
4.0304e-09
4.47372e-09
4.8697e-09
5.20045e-09
5.45034e-09
5.60714e-09
5.66299e-09
5.61508e-09
5.4658e-09
5.22259e-09
4.89735e-09
4.50548e-09
4.06469e-09
3.59371e-09
3.11084e-09
2.63271e-09
2.17316e-09
1.74236e-09
1.3462e-09
9.86012e-10
6.58727e-10
3.57294e-10
2.52317e-12
9.7084e-15
1.28387e-14
3.33791e-12
4.7309e-10
8.73128e-10
1.30863e-09
1.7894e-09
2.31995e-09
2.89887e-09
3.5186e-09
4.16571e-09
4.82167e-09
5.46404e-09
6.06787e-09
6.60749e-09
7.05839e-09
7.39904e-09
7.61263e-09
7.68837e-09
7.62237e-09
7.41798e-09
7.0855e-09
6.64136e-09
6.10674e-09
5.50602e-09
4.86481e-09
4.20814e-09
3.55866e-09
2.93518e-09
2.35146e-09
1.8154e-09
1.32873e-09
8.87158e-10
4.80984e-10
3.39587e-12
1.30651e-14
1.56352e-14
4.06556e-12
5.76304e-10
1.0638e-09
1.59481e-09
2.18139e-09
2.82914e-09
3.53639e-09
4.29392e-09
5.08531e-09
5.8879e-09
6.67417e-09
7.41354e-09
8.07448e-09
8.62682e-09
9.04409e-09
9.30556e-09
9.39796e-09
9.31651e-09
9.06539e-09
8.65733e-09
8.11258e-09
7.45728e-09
6.7214e-09
5.93642e-09
5.13302e-09
4.33894e-09
3.57717e-09
2.86449e-09
2.21051e-09
1.61727e-09
1.07943e-09
5.85075e-10
4.12991e-12
1.58865e-14
1.77219e-14
4.60899e-12
6.53434e-10
1.20631e-09
1.80875e-09
2.4745e-09
3.20998e-09
4.01333e-09
4.87409e-09
5.77362e-09
6.68613e-09
7.58032e-09
8.42137e-09
9.17333e-09
9.80178e-09
1.02765e-08
1.05739e-08
1.06787e-08
1.05855e-08
1.02992e-08
9.83429e-09
9.21393e-09
8.46799e-09
7.63066e-09
6.73784e-09
5.82445e-09
4.92204e-09
4.05673e-09
3.24757e-09
2.50542e-09
1.83256e-09
1.22285e-09
6.62694e-10
4.67689e-12
1.7987e-14
1.9115e-14
4.9722e-12
7.05023e-10
1.30164e-09
1.95189e-09
2.67067e-09
3.46495e-09
4.33273e-09
5.26273e-09
6.23481e-09
7.2211e-09
8.18776e-09
9.0971e-09
9.91019e-09
1.05898e-08
1.11031e-08
1.14245e-08
1.15377e-08
1.14366e-08
1.11265e-08
1.06233e-08
9.95207e-09
9.14518e-09
8.23968e-09
7.27444e-09
6.28723e-09
5.31217e-09
4.37745e-09
3.50366e-09
2.70249e-09
1.97637e-09
1.31862e-09
7.14508e-10
5.04173e-12
1.93865e-14
1.99546e-14
5.19138e-12
7.36179e-10
1.35923e-09
2.03838e-09
2.78922e-09
3.61906e-09
4.52583e-09
5.49775e-09
6.51378e-09
7.54477e-09
8.55534e-09
9.50607e-09
1.03562e-08
1.10668e-08
1.16035e-08
1.19395e-08
1.20577e-08
1.19517e-08
1.16272e-08
1.11008e-08
1.03987e-08
9.55479e-09
8.60795e-09
7.59881e-09
6.56689e-09
5.54783e-09
4.57113e-09
3.65824e-09
2.82141e-09
2.06312e-09
1.37637e-09
7.45747e-10
5.2615e-12
2.02284e-14
2.04153e-14
5.31178e-12
7.5331e-10
1.3909e-09
2.08595e-09
2.85444e-09
3.70386e-09
4.63211e-09
5.62713e-09
6.66737e-09
7.72301e-09
8.75778e-09
9.73133e-09
1.06019e-08
1.13296e-08
1.18792e-08
1.22233e-08
1.23441e-08
1.22355e-08
1.1903e-08
1.13637e-08
1.06445e-08
9.78027e-09
8.81063e-09
7.77729e-09
6.72072e-09
5.67743e-09
4.6776e-09
3.7432e-09
2.88675e-09
2.11076e-09
1.40808e-09
7.62896e-10
5.38204e-12
2.06897e-14
2.06472e-14
5.37246e-12
7.6195e-10
1.40688e-09
2.10995e-09
2.88735e-09
3.74666e-09
4.68576e-09
5.69245e-09
6.74493e-09
7.81302e-09
8.86004e-09
9.84512e-09
1.0726e-08
1.14624e-08
1.20185e-08
1.23666e-08
1.24888e-08
1.23789e-08
1.20423e-08
1.14965e-08
1.07687e-08
9.89412e-09
8.91295e-09
7.86736e-09
6.79834e-09
5.74281e-09
4.73129e-09
3.78604e-09
2.91968e-09
2.13478e-09
1.42406e-09
7.71534e-10
5.4427e-12
2.09215e-14
2.07549e-14
5.4007e-12
7.65976e-10
1.41432e-09
2.12113e-09
2.90269e-09
3.76661e-09
4.71077e-09
5.7229e-09
6.7811e-09
7.855e-09
8.90773e-09
9.8982e-09
1.0784e-08
1.15243e-08
1.20835e-08
1.24335e-08
1.25564e-08
1.24457e-08
1.21073e-08
1.15585e-08
1.08266e-08
9.94721e-09
8.96065e-09
7.90935e-09
6.83452e-09
5.77327e-09
4.75631e-09
3.80599e-09
2.93502e-09
2.14595e-09
1.4315e-09
7.75554e-10
5.47091e-12
2.10291e-14
2.08015e-14
5.41292e-12
7.67719e-10
1.41754e-09
2.12598e-09
2.90933e-09
3.77525e-09
4.72161e-09
5.7361e-09
6.79677e-09
7.8732e-09
8.92841e-09
9.92121e-09
1.08091e-08
1.15511e-08
1.21116e-08
1.24625e-08
1.25856e-08
1.24747e-08
1.21355e-08
1.15853e-08
1.08517e-08
9.97021e-09
8.98131e-09
7.92754e-09
6.85018e-09
5.78646e-09
4.76714e-09
3.81462e-09
2.94165e-09
2.15079e-09
1.43472e-09
7.77293e-10
5.48309e-12
2.10755e-14
2.08203e-14
5.41786e-12
7.68424e-10
1.41885e-09
2.12794e-09
2.91202e-09
3.77875e-09
4.72599e-09
5.74144e-09
6.80312e-09
7.88056e-09
8.93678e-09
9.93053e-09
1.08192e-08
1.1562e-08
1.21231e-08
1.24742e-08
1.25975e-08
1.24865e-08
1.21469e-08
1.15962e-08
1.08619e-08
9.97952e-09
8.98968e-09
7.9349e-09
6.85652e-09
5.79179e-09
4.77152e-09
3.81811e-09
2.94434e-09
2.15275e-09
1.43602e-09
7.77995e-10
5.48801e-12
2.10942e-14
2.08274e-14
5.41973e-12
7.68691e-10
1.41934e-09
2.12868e-09
2.91304e-09
3.78008e-09
4.72766e-09
5.74347e-09
6.80553e-09
7.88336e-09
8.93995e-09
9.93407e-09
1.08231e-08
1.15662e-08
1.21274e-08
1.24787e-08
1.2602e-08
1.24909e-08
1.21512e-08
1.16003e-08
1.08657e-08
9.98306e-09
8.99285e-09
7.9377e-09
6.85893e-09
5.79382e-09
4.77318e-09
3.81944e-09
2.94535e-09
2.15349e-09
1.43651e-09
7.78262e-10
5.48988e-12
2.11013e-14
2.08299e-14
5.4204e-12
7.68787e-10
1.41952e-09
2.12895e-09
2.9134e-09
3.78055e-09
4.72825e-09
5.7442e-09
6.80639e-09
7.88436e-09
8.94109e-09
9.93534e-09
1.08245e-08
1.15676e-08
1.21289e-08
1.24803e-08
1.26036e-08
1.24925e-08
1.21528e-08
1.16018e-08
1.08671e-08
9.98432e-09
8.99399e-09
7.9387e-09
6.85979e-09
5.79454e-09
4.77377e-09
3.81991e-09
2.94572e-09
2.15375e-09
1.43669e-09
7.78357e-10
5.49054e-12
2.11038e-14
2.08308e-14
5.42062e-12
7.68819e-10
1.41958e-09
2.12904e-09
2.91353e-09
3.78071e-09
4.72845e-09
5.74444e-09
6.80668e-09
7.8847e-09
8.94148e-09
9.93576e-09
1.08249e-08
1.15681e-08
1.21295e-08
1.24808e-08
1.26041e-08
1.24931e-08
1.21533e-08
1.16023e-08
1.08676e-08
9.98475e-09
8.99437e-09
7.93903e-09
6.86008e-09
5.79479e-09
4.77397e-09
3.82007e-09
2.94584e-09
2.15384e-09
1.43675e-09
7.78389e-10
5.49076e-12
2.11047e-14
2.08311e-14
5.42069e-12
7.68829e-10
1.4196e-09
2.12907e-09
2.91357e-09
3.78076e-09
4.72852e-09
5.74452e-09
6.80677e-09
7.88481e-09
8.9416e-09
9.9359e-09
1.08251e-08
1.15683e-08
1.21296e-08
1.2481e-08
1.26043e-08
1.24932e-08
1.21535e-08
1.16024e-08
1.08677e-08
9.98489e-09
8.9945e-09
7.93914e-09
6.86017e-09
5.79487e-09
4.77404e-09
3.82012e-09
2.94588e-09
2.15387e-09
1.43676e-09
7.78399e-10
5.49084e-12
2.1105e-14
2.08311e-14
5.42072e-12
7.68832e-10
1.4196e-09
2.12908e-09
2.91358e-09
3.78078e-09
4.72854e-09
5.74454e-09
6.8068e-09
7.88484e-09
8.94164e-09
9.93594e-09
1.08251e-08
1.15683e-08
1.21297e-08
1.2481e-08
1.26044e-08
1.24933e-08
1.21535e-08
1.16025e-08
1.08678e-08
9.98493e-09
8.99454e-09
7.93917e-09
6.8602e-09
5.79489e-09
4.77406e-09
3.82014e-09
2.94589e-09
2.15388e-09
1.43677e-09
7.78403e-10
5.49086e-12
2.1105e-14
2.08312e-14
5.42072e-12
7.68833e-10
1.41961e-09
2.12908e-09
2.91358e-09
3.78078e-09
4.72854e-09
5.74455e-09
6.80681e-09
7.88485e-09
8.94165e-09
9.93596e-09
1.08251e-08
1.15684e-08
1.21297e-08
1.2481e-08
1.26044e-08
1.24933e-08
1.21535e-08
1.16025e-08
1.08678e-08
9.98494e-09
8.99455e-09
7.93918e-09
6.86021e-09
5.7949e-09
4.77406e-09
3.82014e-09
2.94589e-09
2.15388e-09
1.43677e-09
7.78403e-10
5.49086e-12
2.11051e-14
2.08312e-14
5.42072e-12
7.68834e-10
1.41961e-09
2.12908e-09
2.91358e-09
3.78079e-09
4.72854e-09
5.74455e-09
6.80681e-09
7.88485e-09
8.94165e-09
9.93596e-09
1.08251e-08
1.15684e-08
1.21297e-08
1.2481e-08
1.26044e-08
1.24933e-08
1.21535e-08
1.16025e-08
1.08678e-08
9.98495e-09
8.99455e-09
7.93919e-09
6.86021e-09
5.7949e-09
4.77407e-09
3.82015e-09
2.9459e-09
2.15388e-09
1.43677e-09
7.78404e-10
5.49087e-12
2.11051e-14
2.08312e-14
5.42072e-12
7.68834e-10
1.41961e-09
2.12908e-09
2.91358e-09
3.78079e-09
4.72854e-09
5.74455e-09
6.80681e-09
7.88485e-09
8.94165e-09
9.93596e-09
1.08251e-08
1.15684e-08
1.21297e-08
1.2481e-08
1.26044e-08
1.24933e-08
1.21535e-08
1.16025e-08
1.08678e-08
9.98495e-09
8.99455e-09
7.93919e-09
6.86021e-09
5.7949e-09
4.77407e-09
3.82015e-09
2.9459e-09
2.15388e-09
1.43677e-09
7.78404e-10
5.49087e-12
2.11051e-14
2.08312e-14
5.42072e-12
7.68834e-10
1.41961e-09
2.12908e-09
2.91358e-09
3.78079e-09
4.72854e-09
5.74455e-09
6.80681e-09
7.88485e-09
8.94165e-09
9.93596e-09
1.08251e-08
1.15684e-08
1.21297e-08
1.2481e-08
1.26044e-08
1.24933e-08
1.21535e-08
1.16025e-08
1.08678e-08
9.98495e-09
8.99455e-09
7.93919e-09
6.86021e-09
5.7949e-09
4.77407e-09
3.82015e-09
2.9459e-09
2.15388e-09
1.43677e-09
7.78404e-10
5.49087e-12
2.11051e-14
2.08312e-14
5.42072e-12
7.68834e-10
1.41961e-09
2.12908e-09
2.91358e-09
3.78079e-09
4.72854e-09
5.74455e-09
6.80681e-09
7.88485e-09
8.94165e-09
9.93596e-09
1.08251e-08
1.15684e-08
1.21297e-08
1.2481e-08
1.26044e-08
1.24933e-08
1.21535e-08
1.16025e-08
1.08678e-08
9.98495e-09
8.99455e-09
7.93919e-09
6.86021e-09
5.7949e-09
4.77407e-09
3.82015e-09
2.9459e-09
2.15388e-09
1.43677e-09
7.78404e-10
5.49087e-12
2.11051e-14
2.08312e-14
5.42072e-12
7.68834e-10
1.41961e-09
2.12908e-09
2.91358e-09
3.78079e-09
4.72854e-09
5.74455e-09
6.80681e-09
7.88485e-09
8.94165e-09
9.93596e-09
1.08251e-08
1.15684e-08
1.21297e-08
1.2481e-08
1.26044e-08
1.24933e-08
1.21535e-08
1.16025e-08
1.08678e-08
9.98495e-09
8.99455e-09
7.93919e-09
6.86021e-09
5.7949e-09
4.77407e-09
3.82015e-09
2.9459e-09
2.15388e-09
1.43677e-09
7.78404e-10
5.49087e-12
2.11051e-14
2.08312e-14
5.42072e-12
7.68834e-10
1.41961e-09
2.12908e-09
2.91358e-09
3.78079e-09
4.72854e-09
5.74455e-09
6.80681e-09
7.88485e-09
8.94165e-09
9.93596e-09
1.08251e-08
1.15684e-08
1.21297e-08
1.2481e-08
1.26044e-08
1.24933e-08
1.21535e-08
1.16025e-08
1.08678e-08
9.98495e-09
8.99455e-09
7.93919e-09
6.86021e-09
5.7949e-09
4.77407e-09
3.82015e-09
2.9459e-09
2.15388e-09
1.43677e-09
7.78404e-10
5.49087e-12
2.11051e-14
2.08312e-14
5.42072e-12
7.68834e-10
1.41961e-09
2.12908e-09
2.91358e-09
3.78079e-09
4.72854e-09
5.74455e-09
6.80681e-09
7.88485e-09
8.94165e-09
9.93596e-09
1.08251e-08
1.15684e-08
1.21297e-08
1.2481e-08
1.26044e-08
1.24933e-08
1.21535e-08
1.16025e-08
1.08678e-08
9.98495e-09
8.99455e-09
7.93919e-09
6.86021e-09
5.7949e-09
4.77407e-09
3.82015e-09
2.9459e-09
2.15388e-09
1.43677e-09
7.78404e-10
5.49087e-12
2.11051e-14
2.08312e-14
5.42072e-12
7.68834e-10
1.41961e-09
2.12908e-09
2.91358e-09
3.78079e-09
4.72854e-09
5.74455e-09
6.80681e-09
7.88485e-09
8.94165e-09
9.93596e-09
1.08251e-08
1.15684e-08
1.21297e-08
1.2481e-08
1.26044e-08
1.24933e-08
1.21535e-08
1.16025e-08
1.08678e-08
9.98495e-09
8.99455e-09
7.93919e-09
6.86021e-09
5.7949e-09
4.77407e-09
3.82015e-09
2.9459e-09
2.15388e-09
1.43677e-09
7.78404e-10
5.49087e-12
2.11051e-14
2.08312e-14
5.42072e-12
7.68834e-10
1.41961e-09
2.12908e-09
2.91358e-09
3.78079e-09
4.72854e-09
5.74455e-09
6.80681e-09
7.88485e-09
8.94165e-09
9.93596e-09
1.08251e-08
1.15684e-08
1.21297e-08
1.2481e-08
1.26044e-08
1.24933e-08
1.21535e-08
1.16025e-08
1.08678e-08
9.98495e-09
8.99455e-09
7.93919e-09
6.86021e-09
5.7949e-09
4.77407e-09
3.82015e-09
2.9459e-09
2.15388e-09
1.43677e-09
7.78404e-10
5.49087e-12
2.11051e-14
2.08312e-14
5.42072e-12
7.68834e-10
1.41961e-09
2.12908e-09
2.91358e-09
3.78079e-09
4.72854e-09
5.74455e-09
6.80681e-09
7.88485e-09
8.94165e-09
9.93596e-09
1.08251e-08
1.15684e-08
1.21297e-08
1.2481e-08
1.26044e-08
1.24933e-08
1.21535e-08
1.16025e-08
1.08678e-08
9.98495e-09
8.99455e-09
7.93919e-09
6.86021e-09
5.7949e-09
4.77407e-09
3.82015e-09
2.9459e-09
2.15388e-09
1.43677e-09
7.78404e-10
5.49087e-12
2.11051e-14
2.08312e-14
5.42072e-12
7.68834e-10
1.41961e-09
2.12908e-09
2.91358e-09
3.78079e-09
4.72854e-09
5.74455e-09
6.80681e-09
7.88485e-09
8.94165e-09
9.93596e-09
1.08251e-08
1.15684e-08
1.21297e-08
1.2481e-08
1.26044e-08
1.24933e-08
1.21535e-08
1.16025e-08
1.08678e-08
9.98495e-09
8.99455e-09
7.93919e-09
6.86021e-09
5.7949e-09
4.77407e-09
3.82015e-09
2.9459e-09
2.15388e-09
1.43677e-09
7.78404e-10
5.49087e-12
2.11051e-14
2.08312e-14
5.42072e-12
7.68834e-10
1.41961e-09
2.12908e-09
2.91358e-09
3.78079e-09
4.72854e-09
5.74455e-09
6.80681e-09
7.88485e-09
8.94165e-09
9.93596e-09
1.08251e-08
1.15684e-08
1.21297e-08
1.2481e-08
1.26044e-08
1.24933e-08
1.21535e-08
1.16025e-08
1.08678e-08
9.98495e-09
8.99455e-09
7.93919e-09
6.86021e-09
5.7949e-09
4.77407e-09
3.82015e-09
2.9459e-09
2.15388e-09
1.43677e-09
7.78404e-10
5.49087e-12
2.11051e-14
2.08312e-14
5.42072e-12
7.68834e-10
1.41961e-09
2.12908e-09
2.91358e-09
3.78079e-09
4.72854e-09
5.74455e-09
6.80681e-09
7.88485e-09
8.94165e-09
9.93596e-09
1.08251e-08
1.15684e-08
1.21297e-08
1.2481e-08
1.26044e-08
1.24933e-08
1.21535e-08
1.16025e-08
1.08678e-08
9.98495e-09
8.99455e-09
7.93919e-09
6.86021e-09
5.7949e-09
4.77407e-09
3.82015e-09
2.9459e-09
2.15388e-09
1.43677e-09
7.78404e-10
5.49087e-12
2.11051e-14
2.08312e-14
5.42072e-12
7.68834e-10
1.41961e-09
2.12908e-09
2.91358e-09
3.78079e-09
4.72854e-09
5.74455e-09
6.80681e-09
7.88485e-09
8.94165e-09
9.93596e-09
1.08251e-08
1.15684e-08
1.21297e-08
1.2481e-08
1.26044e-08
1.24933e-08
1.21535e-08
1.16025e-08
1.08678e-08
9.98495e-09
8.99455e-09
7.93919e-09
6.86021e-09
5.7949e-09
4.77407e-09
3.82015e-09
2.9459e-09
2.15388e-09
1.43677e-09
7.78404e-10
5.49087e-12
2.11051e-14
2.08312e-14
5.42072e-12
7.68834e-10
1.41961e-09
2.12908e-09
2.91358e-09
3.78079e-09
4.72854e-09
5.74455e-09
6.80681e-09
7.88485e-09
8.94165e-09
9.93596e-09
1.08251e-08
1.15684e-08
1.21297e-08
1.2481e-08
1.26044e-08
1.24933e-08
1.21535e-08
1.16025e-08
1.08678e-08
9.98495e-09
8.99455e-09
7.93919e-09
6.86021e-09
5.7949e-09
4.77407e-09
3.82015e-09
2.9459e-09
2.15388e-09
1.43677e-09
7.78404e-10
5.49087e-12
2.11051e-14
2.08312e-14
5.42072e-12
7.68834e-10
1.41961e-09
2.12908e-09
2.91358e-09
3.78079e-09
4.72854e-09
5.74455e-09
6.80681e-09
7.88485e-09
8.94165e-09
9.93596e-09
1.08251e-08
1.15684e-08
1.21297e-08
1.2481e-08
1.26044e-08
1.24933e-08
1.21535e-08
1.16025e-08
1.08678e-08
9.98495e-09
8.99455e-09
7.93919e-09
6.86021e-09
5.7949e-09
4.77407e-09
3.82015e-09
2.9459e-09
2.15388e-09
1.43677e-09
7.78404e-10
5.49087e-12
2.11051e-14
2.08312e-14
5.42072e-12
7.68834e-10
1.41961e-09
2.12908e-09
2.91358e-09
3.78079e-09
4.72854e-09
5.74455e-09
6.80681e-09
7.88485e-09
8.94165e-09
9.93596e-09
1.08251e-08
1.15684e-08
1.21297e-08
1.2481e-08
1.26044e-08
1.24933e-08
1.21535e-08
1.16025e-08
1.08678e-08
9.98495e-09
8.99455e-09
7.93919e-09
6.86021e-09
5.7949e-09
4.77407e-09
3.82015e-09
2.9459e-09
2.15388e-09
1.43677e-09
7.78404e-10
5.49087e-12
2.11051e-14
2.08312e-14
5.42072e-12
7.68834e-10
1.41961e-09
2.12908e-09
2.91358e-09
3.78079e-09
4.72854e-09
5.74455e-09
6.80681e-09
7.88485e-09
8.94165e-09
9.93596e-09
1.08251e-08
1.15684e-08
1.21297e-08
1.2481e-08
1.26044e-08
1.24933e-08
1.21535e-08
1.16025e-08
1.08678e-08
9.98495e-09
8.99455e-09
7.93919e-09
6.86021e-09
5.7949e-09
4.77407e-09
3.82015e-09
2.9459e-09
2.15388e-09
1.43677e-09
7.78404e-10
5.49087e-12
2.11051e-14
2.08312e-14
5.42072e-12
7.68834e-10
1.41961e-09
2.12908e-09
2.91358e-09
3.78079e-09
4.72854e-09
5.74455e-09
6.80681e-09
7.88485e-09
8.94165e-09
9.93596e-09
1.08251e-08
1.15684e-08
1.21297e-08
1.2481e-08
1.26044e-08
1.24933e-08
1.21535e-08
1.16025e-08
1.08678e-08
9.98495e-09
8.99455e-09
7.93919e-09
6.86021e-09
5.7949e-09
4.77407e-09
3.82015e-09
2.9459e-09
2.15388e-09
1.43677e-09
7.78404e-10
5.49087e-12
2.11051e-14
2.08312e-14
5.42072e-12
7.68834e-10
1.41961e-09
2.12908e-09
2.91358e-09
3.78079e-09
4.72854e-09
5.74455e-09
6.80681e-09
7.88485e-09
8.94165e-09
9.93596e-09
1.08251e-08
1.15684e-08
1.21297e-08
1.2481e-08
1.26044e-08
1.24933e-08
1.21535e-08
1.16025e-08
1.08678e-08
9.98495e-09
8.99455e-09
7.93919e-09
6.86021e-09
5.7949e-09
4.77407e-09
3.82015e-09
2.9459e-09
2.15388e-09
1.43677e-09
7.78404e-10
5.49087e-12
2.11051e-14
2.08312e-14
5.42072e-12
7.68834e-10
1.41961e-09
2.12908e-09
2.91358e-09
3.78079e-09
4.72854e-09
5.74455e-09
6.80681e-09
7.88485e-09
8.94165e-09
9.93596e-09
1.08251e-08
1.15684e-08
1.21297e-08
1.2481e-08
1.26044e-08
1.24933e-08
1.21535e-08
1.16025e-08
1.08678e-08
9.98495e-09
8.99455e-09
7.93919e-09
6.86021e-09
5.7949e-09
4.77407e-09
3.82015e-09
2.9459e-09
2.15388e-09
1.43677e-09
7.78404e-10
5.49087e-12
2.11051e-14
2.08312e-14
5.42072e-12
7.68834e-10
1.41961e-09
2.12908e-09
2.91358e-09
3.78079e-09
4.72854e-09
5.74455e-09
6.80681e-09
7.88485e-09
8.94165e-09
9.93596e-09
1.08251e-08
1.15684e-08
1.21297e-08
1.2481e-08
1.26044e-08
1.24933e-08
1.21535e-08
1.16025e-08
1.08678e-08
9.98495e-09
8.99455e-09
7.93919e-09
6.86021e-09
5.7949e-09
4.77407e-09
3.82015e-09
2.9459e-09
2.15388e-09
1.43677e-09
7.78404e-10
5.49087e-12
2.11051e-14
2.08312e-14
5.42072e-12
7.68834e-10
1.41961e-09
2.12908e-09
2.91358e-09
3.78079e-09
4.72854e-09
5.74455e-09
6.80681e-09
7.88485e-09
8.94165e-09
9.93596e-09
1.08251e-08
1.15684e-08
1.21297e-08
1.2481e-08
1.26044e-08
1.24933e-08
1.21535e-08
1.16025e-08
1.08678e-08
9.98495e-09
8.99455e-09
7.93919e-09
6.86021e-09
5.7949e-09
4.77407e-09
3.82015e-09
2.9459e-09
2.15388e-09
1.43677e-09
7.78404e-10
5.49087e-12
2.11051e-14
2.08312e-14
5.42072e-12
7.68834e-10
1.41961e-09
2.12908e-09
2.91358e-09
3.78079e-09
4.72854e-09
5.74455e-09
6.80681e-09
7.88485e-09
8.94165e-09
9.93596e-09
1.08251e-08
1.15684e-08
1.21297e-08
1.2481e-08
1.26044e-08
1.24933e-08
1.21535e-08
1.16025e-08
1.08678e-08
9.98495e-09
8.99455e-09
7.93919e-09
6.86021e-09
5.7949e-09
4.77407e-09
3.82015e-09
2.9459e-09
2.15388e-09
1.43677e-09
7.78404e-10
5.49087e-12
2.11051e-14
2.08312e-14
5.42072e-12
7.68834e-10
1.41961e-09
2.12908e-09
2.91358e-09
3.78079e-09
4.72854e-09
5.74455e-09
6.80681e-09
7.88485e-09
8.94165e-09
9.93596e-09
1.08251e-08
1.15684e-08
1.21297e-08
1.2481e-08
1.26044e-08
1.24933e-08
1.21535e-08
1.16025e-08
1.08678e-08
9.98495e-09
8.99455e-09
7.93919e-09
6.86021e-09
5.7949e-09
4.77407e-09
3.82015e-09
2.9459e-09
2.15388e-09
1.43677e-09
7.78404e-10
5.49087e-12
2.11051e-14
2.08312e-14
5.42072e-12
7.68834e-10
1.41961e-09
2.12908e-09
2.91358e-09
3.78079e-09
4.72854e-09
5.74455e-09
6.80681e-09
7.88485e-09
8.94165e-09
9.93596e-09
1.08251e-08
1.15684e-08
1.21297e-08
1.2481e-08
1.26044e-08
1.24933e-08
1.21535e-08
1.16025e-08
1.08678e-08
9.98495e-09
8.99455e-09
7.93919e-09
6.86021e-09
5.7949e-09
4.77407e-09
3.82015e-09
2.9459e-09
2.15388e-09
1.43677e-09
7.78404e-10
5.49087e-12
2.11051e-14
2.08312e-14
5.42072e-12
7.68834e-10
1.41961e-09
2.12908e-09
2.91358e-09
3.78079e-09
4.72854e-09
5.74455e-09
6.80681e-09
7.88485e-09
8.94165e-09
9.93596e-09
1.08251e-08
1.15684e-08
1.21297e-08
1.2481e-08
1.26044e-08
1.24933e-08
1.21535e-08
1.16025e-08
1.08678e-08
9.98495e-09
8.99455e-09
7.93919e-09
6.86021e-09
5.7949e-09
4.77407e-09
3.82015e-09
2.9459e-09
2.15388e-09
1.43677e-09
7.78404e-10
5.49087e-12
2.11051e-14
2.08312e-14
5.42072e-12
7.68834e-10
1.41961e-09
2.12908e-09
2.91358e-09
3.78079e-09
4.72854e-09
5.74455e-09
6.80681e-09
7.88485e-09
8.94165e-09
9.93596e-09
1.08251e-08
1.15684e-08
1.21297e-08
1.2481e-08
1.26044e-08
1.24933e-08
1.21535e-08
1.16025e-08
1.08678e-08
9.98495e-09
8.99455e-09
7.93919e-09
6.86021e-09
5.7949e-09
4.77407e-09
3.82015e-09
2.9459e-09
2.15388e-09
1.43677e-09
7.78404e-10
5.49087e-12
2.11051e-14
2.08312e-14
5.42072e-12
7.68834e-10
1.41961e-09
2.12908e-09
2.91358e-09
3.78079e-09
4.72854e-09
5.74455e-09
6.80681e-09
7.88485e-09
8.94165e-09
9.93596e-09
1.08251e-08
1.15684e-08
1.21297e-08
1.2481e-08
1.26044e-08
1.24933e-08
1.21535e-08
1.16025e-08
1.08678e-08
9.98495e-09
8.99455e-09
7.93919e-09
6.86021e-09
5.7949e-09
4.77407e-09
3.82015e-09
2.9459e-09
2.15388e-09
1.43677e-09
7.78404e-10
5.49087e-12
2.11051e-14
2.08312e-14
5.42072e-12
7.68834e-10
1.41961e-09
2.12908e-09
2.91358e-09
3.78079e-09
4.72854e-09
5.74455e-09
6.80681e-09
7.88485e-09
8.94165e-09
9.93596e-09
1.08251e-08
1.15684e-08
1.21297e-08
1.2481e-08
1.26044e-08
1.24933e-08
1.21535e-08
1.16025e-08
1.08678e-08
9.98495e-09
8.99455e-09
7.93919e-09
6.86021e-09
5.7949e-09
4.77407e-09
3.82015e-09
2.9459e-09
2.15388e-09
1.43677e-09
7.78404e-10
5.49087e-12
2.11051e-14
2.08312e-14
5.42072e-12
7.68834e-10
1.41961e-09
2.12908e-09
2.91358e-09
3.78079e-09
4.72854e-09
5.74455e-09
6.80681e-09
7.88485e-09
8.94165e-09
9.93596e-09
1.08251e-08
1.15684e-08
1.21297e-08
1.2481e-08
1.26044e-08
1.24933e-08
1.21535e-08
1.16025e-08
1.08678e-08
9.98495e-09
8.99455e-09
7.93919e-09
6.86021e-09
5.7949e-09
4.77407e-09
3.82015e-09
2.9459e-09
2.15388e-09
1.43677e-09
7.78404e-10
5.49087e-12
2.11051e-14
2.08312e-14
5.42072e-12
7.68834e-10
1.41961e-09
2.12908e-09
2.91358e-09
3.78079e-09
4.72854e-09
5.74455e-09
6.80681e-09
7.88485e-09
8.94165e-09
9.93596e-09
1.08251e-08
1.15684e-08
1.21297e-08
1.2481e-08
1.26044e-08
1.24933e-08
1.21535e-08
1.16025e-08
1.08678e-08
9.98495e-09
8.99455e-09
7.93919e-09
6.86021e-09
5.7949e-09
4.77407e-09
3.82015e-09
2.9459e-09
2.15388e-09
1.43677e-09
7.78404e-10
5.49087e-12
2.11051e-14
2.08312e-14
5.42072e-12
7.68834e-10
1.41961e-09
2.12908e-09
2.91358e-09
3.78079e-09
4.72854e-09
5.74455e-09
6.80681e-09
7.88485e-09
8.94165e-09
9.93596e-09
1.08251e-08
1.15684e-08
1.21297e-08
1.2481e-08
1.26044e-08
1.24933e-08
1.21535e-08
1.16025e-08
1.08678e-08
9.98495e-09
8.99455e-09
7.93919e-09
6.86021e-09
5.7949e-09
4.77407e-09
3.82015e-09
2.9459e-09
2.15388e-09
1.43677e-09
7.78404e-10
5.49087e-12
2.11051e-14
2.08312e-14
5.42072e-12
7.68834e-10
1.41961e-09
2.12908e-09
2.91358e-09
3.78079e-09
4.72854e-09
5.74455e-09
6.80681e-09
7.88485e-09
8.94165e-09
9.93596e-09
1.08251e-08
1.15684e-08
1.21297e-08
1.2481e-08
1.26044e-08
1.24933e-08
1.21535e-08
1.16025e-08
1.08678e-08
9.98495e-09
8.99455e-09
7.93919e-09
6.86021e-09
5.7949e-09
4.77407e-09
3.82015e-09
2.9459e-09
2.15388e-09
1.43677e-09
7.78404e-10
5.49087e-12
2.11051e-14
2.08312e-14
5.42072e-12
7.68834e-10
1.41961e-09
2.12908e-09
2.91358e-09
3.78079e-09
4.72854e-09
5.74455e-09
6.80681e-09
7.88485e-09
8.94165e-09
9.93596e-09
1.08251e-08
1.15684e-08
1.21297e-08
1.2481e-08
1.26044e-08
1.24933e-08
1.21535e-08
1.16025e-08
1.08678e-08
9.98495e-09
8.99455e-09
7.93919e-09
6.86021e-09
5.7949e-09
4.77407e-09
3.82015e-09
2.9459e-09
2.15388e-09
1.43677e-09
7.78404e-10
5.49087e-12
2.11051e-14
2.08312e-14
5.42072e-12
7.68834e-10
1.41961e-09
2.12908e-09
2.91358e-09
3.78079e-09
4.72854e-09
5.74455e-09
6.80681e-09
7.88485e-09
8.94165e-09
9.93596e-09
1.08251e-08
1.15684e-08
1.21297e-08
1.2481e-08
1.26044e-08
1.24933e-08
1.21535e-08
1.16025e-08
1.08678e-08
9.98495e-09
8.99455e-09
7.93919e-09
6.86021e-09
5.7949e-09
4.77407e-09
3.82015e-09
2.9459e-09
2.15388e-09
1.43677e-09
7.78404e-10
5.49087e-12
2.11051e-14
2.08312e-14
5.42072e-12
7.68834e-10
1.41961e-09
2.12908e-09
2.91358e-09
3.78079e-09
4.72854e-09
5.74455e-09
6.80681e-09
7.88485e-09
8.94165e-09
9.93596e-09
1.08251e-08
1.15684e-08
1.21297e-08
1.2481e-08
1.26044e-08
1.24933e-08
1.21535e-08
1.16025e-08
1.08678e-08
9.98495e-09
8.99455e-09
7.93919e-09
6.86021e-09
5.7949e-09
4.77407e-09
3.82015e-09
2.9459e-09
2.15388e-09
1.43677e-09
7.78404e-10
5.49087e-12
2.11051e-14
2.08312e-14
5.42072e-12
7.68834e-10
1.41961e-09
2.12908e-09
2.91358e-09
3.78079e-09
4.72854e-09
5.74455e-09
6.80681e-09
7.88485e-09
8.94165e-09
9.93596e-09
1.08251e-08
1.15684e-08
1.21297e-08
1.2481e-08
1.26044e-08
1.24933e-08
1.21535e-08
1.16025e-08
1.08678e-08
9.98495e-09
8.99455e-09
7.93919e-09
6.86021e-09
5.7949e-09
4.77407e-09
3.82015e-09
2.9459e-09
2.15388e-09
1.43677e-09
7.78404e-10
5.49087e-12
2.11051e-14
2.08312e-14
5.42072e-12
7.68834e-10
1.41961e-09
2.12908e-09
2.91358e-09
3.78079e-09
4.72854e-09
5.74455e-09
6.80681e-09
7.88485e-09
8.94165e-09
9.93596e-09
1.08251e-08
1.15684e-08
1.21297e-08
1.2481e-08
1.26044e-08
1.24933e-08
1.21535e-08
1.16025e-08
1.08678e-08
9.98495e-09
8.99455e-09
7.93919e-09
6.86021e-09
5.7949e-09
4.77407e-09
3.82015e-09
2.9459e-09
2.15388e-09
1.43677e-09
7.78404e-10
5.49087e-12
2.11051e-14
2.08312e-14
5.42072e-12
7.68834e-10
1.41961e-09
2.12908e-09
2.91358e-09
3.78079e-09
4.72854e-09
5.74455e-09
6.80681e-09
7.88485e-09
8.94165e-09
9.93596e-09
1.08251e-08
1.15684e-08
1.21297e-08
1.2481e-08
1.26044e-08
1.24933e-08
1.21535e-08
1.16025e-08
1.08678e-08
9.98495e-09
8.99455e-09
7.93919e-09
6.86021e-09
5.7949e-09
4.77407e-09
3.82015e-09
2.9459e-09
2.15388e-09
1.43677e-09
7.78404e-10
5.49087e-12
2.11051e-14
2.08312e-14
5.42072e-12
7.68834e-10
1.41961e-09
2.12908e-09
2.91358e-09
3.78079e-09
4.72854e-09
5.74455e-09
6.80681e-09
7.88485e-09
8.94165e-09
9.93596e-09
1.08251e-08
1.15684e-08
1.21297e-08
1.2481e-08
1.26044e-08
1.24933e-08
1.21535e-08
1.16025e-08
1.08678e-08
9.98495e-09
8.99455e-09
7.93919e-09
6.86021e-09
5.7949e-09
4.77407e-09
3.82015e-09
2.9459e-09
2.15388e-09
1.43677e-09
7.78404e-10
5.49087e-12
2.11051e-14
2.08312e-14
5.42072e-12
7.68834e-10
1.41961e-09
2.12908e-09
2.91358e-09
3.78079e-09
4.72854e-09
5.74455e-09
6.80681e-09
7.88485e-09
8.94165e-09
9.93596e-09
1.08251e-08
1.15684e-08
1.21297e-08
1.2481e-08
1.26044e-08
1.24933e-08
1.21535e-08
1.16025e-08
1.08678e-08
9.98495e-09
8.99455e-09
7.93919e-09
6.86021e-09
5.7949e-09
4.77407e-09
3.82015e-09
2.9459e-09
2.15388e-09
1.43677e-09
7.78404e-10
5.49087e-12
2.11051e-14
2.08312e-14
5.42072e-12
7.68834e-10
1.41961e-09
2.12908e-09
2.91358e-09
3.78079e-09
4.72854e-09
5.74455e-09
6.80681e-09
7.88485e-09
8.94165e-09
9.93596e-09
1.08251e-08
1.15684e-08
1.21297e-08
1.2481e-08
1.26044e-08
1.24933e-08
1.21535e-08
1.16025e-08
1.08678e-08
9.98495e-09
8.99455e-09
7.93919e-09
6.86021e-09
5.7949e-09
4.77407e-09
3.82015e-09
2.9459e-09
2.15388e-09
1.43677e-09
7.78404e-10
5.49087e-12
2.11051e-14
2.08312e-14
5.42072e-12
7.68834e-10
1.41961e-09
2.12908e-09
2.91358e-09
3.78079e-09
4.72854e-09
5.74455e-09
6.80681e-09
7.88485e-09
8.94165e-09
9.93596e-09
1.08251e-08
1.15684e-08
1.21297e-08
1.2481e-08
1.26044e-08
1.24933e-08
1.21535e-08
1.16025e-08
1.08678e-08
9.98495e-09
8.99455e-09
7.93919e-09
6.86021e-09
5.7949e-09
4.77407e-09
3.82015e-09
2.9459e-09
2.15388e-09
1.43677e-09
7.78404e-10
5.49087e-12
2.11051e-14
2.08312e-14
5.42072e-12
7.68834e-10
1.41961e-09
2.12908e-09
2.91358e-09
3.78079e-09
4.72854e-09
5.74455e-09
6.80681e-09
7.88485e-09
8.94165e-09
9.93596e-09
1.08251e-08
1.15684e-08
1.21297e-08
1.2481e-08
1.26044e-08
1.24933e-08
1.21535e-08
1.16025e-08
1.08678e-08
9.98495e-09
8.99455e-09
7.93919e-09
6.86021e-09
5.7949e-09
4.77407e-09
3.82015e-09
2.9459e-09
2.15388e-09
1.43677e-09
7.78404e-10
5.49087e-12
2.11051e-14
2.08312e-14
5.42072e-12
7.68834e-10
1.41961e-09
2.12908e-09
2.91358e-09
3.78079e-09
4.72854e-09
5.74455e-09
6.80681e-09
7.88485e-09
8.94165e-09
9.93596e-09
1.08251e-08
1.15684e-08
1.21297e-08
1.2481e-08
1.26044e-08
1.24933e-08
1.21535e-08
1.16025e-08
1.08678e-08
9.98495e-09
8.99455e-09
7.93919e-09
6.86021e-09
5.7949e-09
4.77407e-09
3.82015e-09
2.9459e-09
2.15388e-09
1.43677e-09
7.78404e-10
5.49087e-12
2.11051e-14
2.08312e-14
5.42072e-12
7.68834e-10
1.41961e-09
2.12908e-09
2.91358e-09
3.78079e-09
4.72854e-09
5.74455e-09
6.80681e-09
7.88485e-09
8.94165e-09
9.93596e-09
1.08251e-08
1.15684e-08
1.21297e-08
1.2481e-08
1.26044e-08
1.24933e-08
1.21535e-08
1.16025e-08
1.08678e-08
9.98495e-09
8.99455e-09
7.93919e-09
6.86021e-09
5.7949e-09
4.77407e-09
3.82015e-09
2.9459e-09
2.15388e-09
1.43677e-09
7.78404e-10
5.49087e-12
2.11051e-14
2.08312e-14
5.42072e-12
7.68834e-10
1.41961e-09
2.12908e-09
2.91358e-09
3.78079e-09
4.72854e-09
5.74455e-09
6.80681e-09
7.88485e-09
8.94165e-09
9.93596e-09
1.08251e-08
1.15684e-08
1.21297e-08
1.2481e-08
1.26044e-08
1.24933e-08
1.21535e-08
1.16025e-08
1.08678e-08
9.98495e-09
8.99455e-09
7.93919e-09
6.86021e-09
5.7949e-09
4.77407e-09
3.82015e-09
2.9459e-09
2.15388e-09
1.43677e-09
7.78404e-10
5.49087e-12
2.11051e-14
2.08312e-14
5.42072e-12
7.68834e-10
1.41961e-09
2.12908e-09
2.91358e-09
3.78079e-09
4.72854e-09
5.74455e-09
6.80681e-09
7.88485e-09
8.94165e-09
9.93596e-09
1.08251e-08
1.15684e-08
1.21297e-08
1.2481e-08
1.26044e-08
1.24933e-08
1.21535e-08
1.16025e-08
1.08678e-08
9.98495e-09
8.99455e-09
7.93919e-09
6.86021e-09
5.7949e-09
4.77407e-09
3.82015e-09
2.9459e-09
2.15388e-09
1.43677e-09
7.78404e-10
5.49087e-12
2.11051e-14
2.08312e-14
5.42072e-12
7.68834e-10
1.41961e-09
2.12908e-09
2.91358e-09
3.78079e-09
4.72854e-09
5.74455e-09
6.80681e-09
7.88485e-09
8.94165e-09
9.93596e-09