/*--------------------------------*- C++ -*----------------------------------*\
  =========                 |
  \\      /  F ield         | OpenFOAM: The Open Source CFD Toolbox
   \\    /   O peration     | Website:  https://openfoam.org
    \\  /    A nd           | Version:  13
     \\/     M anipulation  |
\*---------------------------------------------------------------------------*/
FoamFile
{
    format      ascii;
    class       volScalarField;
    location    "102.5";
    object      nut;
}
// * * * * * * * * * * * * * * * * * * * * * * * * * * * * * * * * * * * * * //

dimensions      [0 2 -1 0 0 0 0];

internalField   nonuniform List<scalar> 
315000
(
9.58213e-15
2.50929e-12
5.72547e-11
1.02755e-10
1.48973e-10
1.95994e-10
2.43931e-10
2.9288e-10
3.42907e-10
3.94031e-10
4.46226e-10
4.99417e-10
5.53481e-10
6.08254e-10
6.63528e-10
7.19062e-10
7.74586e-10
8.29805e-10
8.84407e-10
9.38066e-10
9.90449e-10
1.04122e-09
1.09004e-09
1.13659e-09
1.18054e-09
1.22159e-09
1.25945e-09
1.29384e-09
1.32451e-09
1.35125e-09
1.37385e-09
1.39215e-09
1.40602e-09
1.41534e-09
1.42005e-09
1.42011e-09
1.41552e-09
1.40632e-09
1.39258e-09
1.3744e-09
1.35191e-09
1.32528e-09
1.2947e-09
1.26041e-09
1.22264e-09
1.18167e-09
1.13779e-09
1.0913e-09
1.04253e-09
9.91804e-10
9.39454e-10
8.85818e-10
8.3123e-10
7.76013e-10
7.20482e-10
6.6493e-10
6.09629e-10
5.5482e-10
5.00709e-10
4.47463e-10
3.95204e-10
3.44007e-10
2.93898e-10
2.44856e-10
1.96814e-10
1.49671e-10
1.03307e-10
5.76185e-11
2.52872e-12
9.6641e-15
2.3981e-13
6.38577e-11
1.45373e-08
2.62826e-08
3.81551e-08
5.02056e-08
6.24759e-08
7.49972e-08
8.77888e-08
1.00857e-07
1.14195e-07
1.27782e-07
1.41588e-07
1.55568e-07
1.69668e-07
1.83826e-07
1.97972e-07
2.12031e-07
2.25921e-07
2.39561e-07
2.52866e-07
2.65751e-07
2.78132e-07
2.89927e-07
3.01056e-07
3.11442e-07
3.21013e-07
3.29703e-07
3.3745e-07
3.44198e-07
3.499e-07
3.54515e-07
3.58008e-07
3.60356e-07
3.6154e-07
3.61553e-07
3.60393e-07
3.58071e-07
3.54602e-07
3.50011e-07
3.44332e-07
3.37605e-07
3.29879e-07
3.21208e-07
3.11655e-07
3.01285e-07
2.9017e-07
2.78388e-07
2.66017e-07
2.53141e-07
2.39842e-07
2.26207e-07
2.12319e-07
1.98261e-07
1.84113e-07
1.6995e-07
1.55843e-07
1.41855e-07
1.28039e-07
1.14438e-07
1.01086e-07
8.8001e-08
7.51903e-08
6.26475e-08
5.0353e-08
3.82753e-08
2.63719e-08
1.45908e-08
6.41123e-11
2.40799e-13
9.65129e-13
2.57373e-10
1.48746e-07
2.68012e-07
3.87851e-07
5.08904e-07
6.31684e-07
7.56564e-07
8.83763e-07
1.01335e-06
1.14522e-06
1.27915e-06
1.41475e-06
1.55154e-06
1.68892e-06
1.82622e-06
1.96273e-06
2.0977e-06
2.23035e-06
2.35991e-06
2.48563e-06
2.60674e-06
2.72253e-06
2.83231e-06
2.93542e-06
3.03124e-06
3.1192e-06
3.19877e-06
3.26947e-06
3.33089e-06
3.38265e-06
3.42445e-06
3.45604e-06
3.47724e-06
3.48791e-06
3.488e-06
3.4775e-06
3.45648e-06
3.42506e-06
3.38343e-06
3.33183e-06
3.27056e-06
3.20001e-06
3.12058e-06
3.03275e-06
2.93705e-06
2.83404e-06
2.72436e-06
2.60864e-06
2.4876e-06
2.36194e-06
2.23241e-06
2.09978e-06
1.96482e-06
1.8283e-06
1.69096e-06
1.55354e-06
1.41669e-06
1.28101e-06
1.14699e-06
1.015e-06
8.85289e-07
7.57944e-07
6.32901e-07
5.0994e-07
3.88686e-07
2.68623e-07
1.49106e-07
2.58036e-10
9.67671e-13
1.79617e-12
4.79042e-10
2.75742e-07
4.9491e-07
7.1399e-07
9.34406e-07
1.15727e-06
1.38337e-06
1.61314e-06
1.84668e-06
2.08379e-06
2.32393e-06
2.56632e-06
2.80996e-06
3.05369e-06
3.29626e-06
3.53637e-06
3.77269e-06
4.00394e-06
4.22884e-06
4.44616e-06
4.65474e-06
4.85345e-06
5.04124e-06
5.21709e-06
5.38009e-06
5.52937e-06
5.66412e-06
5.78364e-06
5.88729e-06
5.97452e-06
6.04488e-06
6.098e-06
6.13359e-06
6.1515e-06
6.15161e-06
6.13394e-06
6.09857e-06
6.04568e-06
5.97554e-06
5.88851e-06
5.78507e-06
5.66574e-06
5.53117e-06
5.38207e-06
5.21923e-06
5.04351e-06
4.85585e-06
4.65725e-06
4.44877e-06
4.23152e-06
4.00667e-06
3.77546e-06
3.53915e-06
3.29904e-06
3.05644e-06
2.81265e-06
2.56893e-06
2.32644e-06
2.08617e-06
1.84892e-06
1.6152e-06
1.38523e-06
1.15892e-06
9.35806e-07
7.15117e-07
4.95735e-07
2.76229e-07
4.79945e-10
1.79964e-12
2.72404e-12
7.26592e-10
4.16358e-07
7.44058e-07
1.06967e-06
1.39568e-06
1.72398e-06
2.05587e-06
2.39202e-06
2.73257e-06
3.07714e-06
3.42488e-06
3.77456e-06
4.12469e-06
4.47359e-06
4.81951e-06
5.16068e-06
5.49533e-06
5.82178e-06
6.13836e-06
6.44348e-06
6.73563e-06
7.01344e-06
7.27564e-06
7.52095e-06
7.7482e-06
7.95624e-06
8.14403e-06
8.31058e-06
8.45503e-06
8.57663e-06
8.67471e-06
8.74876e-06
8.7984e-06
8.82334e-06
8.82347e-06
8.79877e-06
8.74939e-06
8.67558e-06
8.57773e-06
8.45637e-06
8.31214e-06
8.1458e-06
7.95822e-06
7.75036e-06
7.52329e-06
7.27813e-06
7.01608e-06
6.73839e-06
6.44635e-06
6.14131e-06
5.8248e-06
5.4984e-06
5.16376e-06
4.82259e-06
4.47664e-06
4.12769e-06
3.77749e-06
3.4277e-06
3.07982e-06
2.73509e-06
2.39435e-06
2.05798e-06
1.72586e-06
1.39728e-06
1.07096e-06
7.45005e-07
4.16921e-07
7.27648e-10
2.7281e-12
3.68828e-12
9.83914e-10
5.61198e-07
9.98425e-07
1.43014e-06
1.86015e-06
2.29128e-06
2.72539e-06
3.16346e-06
3.60567e-06
4.0515e-06
4.49983e-06
4.94906e-06
5.39733e-06
5.84258e-06
6.28272e-06
6.71564e-06
7.1393e-06
7.55179e-06
7.95134e-06
8.3362e-06
8.70473e-06
9.05527e-06
9.3862e-06
9.69591e-06
9.98286e-06
1.02456e-05
1.04826e-05
1.06929e-05
1.08751e-05
1.10285e-05
1.11522e-05
1.12455e-05
1.13081e-05
1.13395e-05
1.13396e-05
1.13084e-05
1.12461e-05
1.1153e-05
1.10296e-05
1.08765e-05
1.06944e-05
1.04844e-05
1.02475e-05
9.985e-06
9.69823e-06
9.38868e-06
9.05789e-06
8.70748e-06
8.33906e-06
7.95428e-06
7.55481e-06
7.14237e-06
6.71874e-06
6.28582e-06
5.84566e-06
5.40036e-06
4.95202e-06
4.50269e-06
4.05424e-06
3.60825e-06
3.16585e-06
2.72756e-06
2.29321e-06
1.8618e-06
1.43147e-06
9.99412e-07
5.61789e-07
9.85039e-10
3.69263e-12
4.61077e-12
1.23017e-09
6.98583e-07
1.23766e-06
1.76685e-06
2.29144e-06
2.81523e-06
3.34073e-06
3.86925e-06
4.40105e-06
4.93552e-06
5.47136e-06
6.00673e-06
6.53952e-06
7.06744e-06
7.58817e-06
8.09948e-06
8.59925e-06
9.08545e-06
9.55615e-06
1.00094e-05
1.04434e-05
1.08561e-05
1.12456e-05
1.161e-05
1.19474e-05
1.22561e-05
1.25345e-05
1.27812e-05
1.2995e-05
1.31748e-05
1.33197e-05
1.3429e-05
1.35022e-05
1.3539e-05
1.35391e-05
1.35026e-05
1.34296e-05
1.33205e-05
1.31758e-05
1.29962e-05
1.27826e-05
1.25361e-05
1.22579e-05
1.19494e-05
1.16122e-05
1.12479e-05
1.08586e-05
1.0446e-05
1.00121e-05
9.55891e-06
9.08829e-06
8.60214e-06
8.1024e-06
7.5911e-06
7.07036e-06
6.5424e-06
6.00955e-06
5.47409e-06
4.93814e-06
4.40352e-06
3.87154e-06
3.34283e-06
2.8171e-06
2.29303e-06
1.76815e-06
1.23863e-06
6.99164e-07
1.23129e-09
4.61512e-12
5.42333e-12
1.44716e-09
8.18683e-07
1.44527e-06
2.05733e-06
2.66167e-06
3.26307e-06
3.86463e-06
4.468e-06
5.07356e-06
5.68068e-06
6.28793e-06
6.89336e-06
7.49467e-06
8.08946e-06
8.67534e-06
9.24999e-06
9.8112e-06
1.03568e-05
1.08849e-05
1.13932e-05
1.18797e-05
1.23422e-05
1.27784e-05
1.31862e-05
1.35636e-05
1.39087e-05
1.42197e-05
1.44952e-05
1.47338e-05
1.49344e-05
1.5096e-05
1.52179e-05
1.52995e-05
1.53405e-05
1.53406e-05
1.52998e-05
1.52184e-05
1.50967e-05
1.49353e-05
1.47349e-05
1.44965e-05
1.42212e-05
1.39103e-05
1.35654e-05
1.31882e-05
1.27805e-05
1.23444e-05
1.18821e-05
1.13957e-05
1.08874e-05
1.03594e-05
9.81384e-06
9.25266e-06
8.67803e-06
8.09214e-06
7.49732e-06
6.89595e-06
6.29046e-06
5.6831e-06
5.07585e-06
4.47013e-06
3.86658e-06
3.2648e-06
2.66316e-06
2.05855e-06
1.44617e-06
8.19231e-07
1.44823e-09
5.42751e-12
6.08471e-12
1.62385e-09
9.15844e-07
1.61222e-06
2.28988e-06
2.95694e-06
3.61908e-06
4.27992e-06
4.94141e-06
5.60406e-06
6.26723e-06
6.92945e-06
7.58866e-06
8.24251e-06
8.88853e-06
9.52427e-06
1.01474e-05
1.07555e-05
1.13466e-05
1.19184e-05
1.24687e-05
1.29951e-05
1.34953e-05
1.39669e-05
1.44076e-05
1.48152e-05
1.51877e-05
1.55233e-05
1.58205e-05
1.60778e-05
1.6294e-05
1.64682e-05
1.65996e-05
1.66875e-05
1.67316e-05
1.67317e-05
1.66878e-05
1.66001e-05
1.64689e-05
1.62948e-05
1.60788e-05
1.58216e-05
1.55247e-05
1.51892e-05
1.48168e-05
1.44094e-05
1.39689e-05
1.34974e-05
1.29972e-05
1.24709e-05
1.19207e-05
1.13489e-05
1.07579e-05
1.01498e-05
9.52673e-06
8.89098e-06
8.24493e-06
7.59104e-06
6.93176e-06
6.26945e-06
5.60617e-06
4.94338e-06
4.28172e-06
3.62068e-06
2.95832e-06
2.291e-06
1.61306e-06
9.16353e-07
1.62486e-09
6.08866e-12
6.58456e-12
1.75745e-09
9.88947e-07
1.73728e-06
2.4635e-06
3.17682e-06
3.8836e-06
4.58792e-06
5.29193e-06
5.99627e-06
6.70031e-06
7.40255e-06
8.10089e-06
8.79294e-06
9.47619e-06
1.01481e-05
1.08064e-05
1.14487e-05
1.20727e-05
1.26762e-05
1.32569e-05
1.38123e-05
1.43398e-05
1.4837e-05
1.53014e-05
1.57308e-05
1.6123e-05
1.64764e-05
1.67892e-05
1.706e-05
1.72875e-05
1.74708e-05
1.76089e-05
1.77014e-05
1.77478e-05
1.77479e-05
1.77017e-05
1.76094e-05
1.74714e-05
1.72882e-05
1.70609e-05
1.67903e-05
1.64776e-05
1.61244e-05
1.57323e-05
1.5303e-05
1.48388e-05
1.43417e-05
1.38143e-05
1.3259e-05
1.26784e-05
1.20749e-05
1.14509e-05
1.08087e-05
1.01504e-05
9.47846e-06
8.79519e-06
8.1031e-06
7.4047e-06
6.70238e-06
5.99823e-06
5.29376e-06
4.58959e-06
3.88509e-06
3.1781e-06
2.46455e-06
1.73806e-06
9.89422e-07
1.7584e-09
6.58829e-12
6.93704e-12
1.85171e-09
1.04035e-06
1.82495e-06
2.58495e-06
3.33036e-06
4.06808e-06
4.80248e-06
5.5359e-06
6.26905e-06
7.00132e-06
7.7312e-06
8.45655e-06
9.17497e-06
9.88392e-06
1.05809e-05
1.12635e-05
1.19293e-05
1.25761e-05
1.32016e-05
1.38033e-05
1.43786e-05
1.4925e-05
1.54397e-05
1.59205e-05
1.63648e-05
1.67708e-05
1.71363e-05
1.74599e-05
1.774e-05
1.79753e-05
1.81648e-05
1.83077e-05
1.84033e-05
1.84513e-05
1.84514e-05
1.84036e-05
1.83081e-05
1.81654e-05
1.7976e-05
1.77408e-05
1.74609e-05
1.71375e-05
1.67721e-05
1.63663e-05
1.5922e-05
1.54414e-05
1.49267e-05
1.43805e-05
1.38052e-05
1.32036e-05
1.25782e-05
1.19314e-05
1.12656e-05
1.05831e-05
9.88608e-06
9.17711e-06
8.45865e-06
7.73324e-06
7.00329e-06
6.27091e-06
5.53764e-06
4.80407e-06
4.0695e-06
3.33158e-06
2.58594e-06
1.82569e-06
1.0408e-06
1.85262e-09
6.94063e-12
7.17007e-12
1.91406e-09
1.07427e-06
1.8827e-06
2.66485e-06
3.4313e-06
4.18927e-06
4.94338e-06
5.69606e-06
6.44809e-06
7.19886e-06
7.94685e-06
8.68992e-06
9.42565e-06
1.01515e-05
1.08649e-05
1.15634e-05
1.22447e-05
1.29065e-05
1.35464e-05
1.41619e-05
1.47504e-05
1.53092e-05
1.58356e-05
1.6327e-05
1.67813e-05
1.71962e-05
1.75698e-05
1.79005e-05
1.81867e-05
1.84271e-05
1.86207e-05
1.87667e-05
1.88644e-05
1.89134e-05
1.89135e-05
1.88647e-05
1.87671e-05
1.86213e-05
1.84278e-05
1.81875e-05
1.79015e-05
1.7571e-05
1.71975e-05
1.67827e-05
1.63286e-05
1.58372e-05
1.53109e-05
1.47522e-05
1.41638e-05
1.35484e-05
1.29085e-05
1.22468e-05
1.15655e-05
1.0867e-05
1.01536e-05
9.42773e-06
8.69197e-06
7.94884e-06
7.20077e-06
6.4499e-06
5.69776e-06
4.94493e-06
4.19065e-06
3.43248e-06
2.66582e-06
1.88342e-06
1.07471e-06
1.91495e-09
7.17358e-12
7.31513e-12
1.95289e-09
1.09538e-06
1.91859e-06
2.71448e-06
3.49396e-06
4.26451e-06
5.03085e-06
5.79551e-06
6.55927e-06
7.32156e-06
8.08084e-06
8.83497e-06
9.5815e-06
1.03179e-05
1.10415e-05
1.17501e-05
1.24411e-05
1.31123e-05
1.37612e-05
1.43854e-05
1.49822e-05
1.55487e-05
1.60824e-05
1.65806e-05
1.70411e-05
1.74616e-05
1.78403e-05
1.81754e-05
1.84654e-05
1.87091e-05
1.89053e-05
1.90532e-05
1.91522e-05
1.92019e-05
1.9202e-05
1.91525e-05
1.90536e-05
1.89058e-05
1.87098e-05
1.84662e-05
1.81764e-05
1.78414e-05
1.74628e-05
1.70424e-05
1.65821e-05
1.6084e-05
1.55504e-05
1.4984e-05
1.43873e-05
1.37632e-05
1.31143e-05
1.24431e-05
1.17521e-05
1.10436e-05
1.03199e-05
9.58356e-06
8.837e-06
8.08281e-06
7.32346e-06
6.56107e-06
5.79719e-06
5.03239e-06
4.26588e-06
3.49514e-06
2.71543e-06
1.91931e-06
1.09581e-06
1.95377e-09
7.31861e-12
7.40048e-12
1.97575e-09
1.1078e-06
1.9397e-06
2.74366e-06
3.53082e-06
4.30878e-06
5.08233e-06
5.85406e-06
6.62477e-06
7.39388e-06
8.15986e-06
8.92055e-06
9.6735e-06
1.04161e-05
1.11459e-05
1.18604e-05
1.25572e-05
1.3234e-05
1.38884e-05
1.45178e-05
1.51195e-05
1.56907e-05
1.62287e-05
1.6731e-05
1.71951e-05
1.76191e-05
1.80008e-05
1.83385e-05
1.86309e-05
1.88765e-05
1.90743e-05
1.92234e-05
1.93232e-05
1.93732e-05
1.93733e-05
1.93234e-05
1.92238e-05
1.90748e-05
1.88772e-05
1.86317e-05
1.83395e-05
1.80019e-05
1.76203e-05
1.71965e-05
1.67324e-05
1.62303e-05
1.56924e-05
1.51213e-05
1.45197e-05
1.38904e-05
1.3236e-05
1.25593e-05
1.18625e-05
1.1148e-05
1.04182e-05
9.67556e-06
8.92257e-06
8.16183e-06
7.39578e-06
6.62657e-06
5.85574e-06
5.08387e-06
4.31015e-06
3.532e-06
2.74462e-06
1.94042e-06
1.10823e-06
1.97664e-09
7.40397e-12
7.44812e-12
1.98852e-09
1.11473e-06
1.95149e-06
2.75996e-06
3.55142e-06
4.33352e-06
5.11112e-06
5.88683e-06
6.66145e-06
7.43441e-06
8.20417e-06
8.96857e-06
9.72516e-06
1.04714e-05
1.12046e-05
1.19225e-05
1.26226e-05
1.33026e-05
1.39601e-05
1.45924e-05
1.51969e-05
1.57708e-05
1.63113e-05
1.68159e-05
1.72822e-05
1.7708e-05
1.80915e-05
1.84308e-05
1.87245e-05
1.89712e-05
1.91699e-05
1.93196e-05
1.94199e-05
1.94701e-05
1.94702e-05
1.94201e-05
1.932e-05
1.91704e-05
1.89719e-05
1.87253e-05
1.84318e-05
1.80926e-05
1.77093e-05
1.72836e-05
1.68174e-05
1.63129e-05
1.57725e-05
1.51987e-05
1.45943e-05
1.3962e-05
1.33046e-05
1.26247e-05
1.19246e-05
1.12067e-05
1.04735e-05
9.72724e-06
8.97061e-06
8.20615e-06
7.43632e-06
6.66326e-06
5.88852e-06
5.11267e-06
4.33489e-06
3.5526e-06
2.76092e-06
1.95221e-06
1.11517e-06
1.98941e-09
7.45162e-12
7.47341e-12
1.9953e-09
1.11842e-06
1.95776e-06
2.76863e-06
3.56237e-06
4.34669e-06
5.12646e-06
5.9043e-06
6.68102e-06
7.45606e-06
8.22785e-06
8.99426e-06
9.75282e-06
1.0501e-05
1.12361e-05
1.19558e-05
1.26577e-05
1.33395e-05
1.39986e-05
1.46326e-05
1.52386e-05
1.58139e-05
1.63558e-05
1.68616e-05
1.73291e-05
1.7756e-05
1.81404e-05
1.84806e-05
1.8775e-05
1.90223e-05
1.92215e-05
1.93716e-05
1.94721e-05
1.95225e-05
1.95226e-05
1.94723e-05
1.9372e-05
1.9222e-05
1.9023e-05
1.87758e-05
1.84816e-05
1.81416e-05
1.77573e-05
1.73305e-05
1.68632e-05
1.63574e-05
1.58156e-05
1.52404e-05
1.46345e-05
1.40006e-05
1.33415e-05
1.26598e-05
1.19579e-05
1.12382e-05
1.05031e-05
9.75491e-06
8.99631e-06
8.22985e-06
7.45797e-06
6.68284e-06
5.906e-06
5.12802e-06
4.34807e-06
3.56356e-06
2.7696e-06
1.95848e-06
1.11886e-06
1.99619e-09
7.47692e-12
7.48621e-12
1.99873e-09
1.12028e-06
1.96093e-06
2.77303e-06
3.56793e-06
4.35338e-06
5.13426e-06
5.9132e-06
6.69099e-06
7.46709e-06
8.23994e-06
9.00739e-06
9.76696e-06
1.05161e-05
1.12522e-05
1.19729e-05
1.26758e-05
1.33584e-05
1.40184e-05
1.46532e-05
1.526e-05
1.58361e-05
1.63787e-05
1.68852e-05
1.73533e-05
1.77808e-05
1.81657e-05
1.85063e-05
1.8801e-05
1.90487e-05
1.92481e-05
1.93984e-05
1.9499e-05
1.95495e-05
1.95496e-05
1.94993e-05
1.93988e-05
1.92486e-05
1.90494e-05
1.88019e-05
1.85073e-05
1.81668e-05
1.7782e-05
1.73547e-05
1.68867e-05
1.63803e-05
1.58378e-05
1.52619e-05
1.46551e-05
1.40204e-05
1.33604e-05
1.26778e-05
1.1975e-05
1.12543e-05
1.05182e-05
9.76906e-06
9.00945e-06
8.24195e-06
7.46902e-06
6.69282e-06
5.9149e-06
5.13582e-06
4.35477e-06
3.56913e-06
2.774e-06
1.96166e-06
1.12073e-06
1.99963e-09
7.48975e-12
7.49241e-12
2.0004e-09
1.12119e-06
1.96247e-06
2.77516e-06
3.57063e-06
4.35664e-06
5.13806e-06
5.91753e-06
6.69586e-06
7.47248e-06
8.24585e-06
9.0138e-06
9.77388e-06
1.05235e-05
1.12601e-05
1.19813e-05
1.26846e-05
1.33677e-05
1.40281e-05
1.46634e-05
1.52706e-05
1.5847e-05
1.639e-05
1.68968e-05
1.73652e-05
1.7793e-05
1.81781e-05
1.85189e-05
1.88139e-05
1.90617e-05
1.92612e-05
1.94117e-05
1.95123e-05
1.95628e-05
1.95629e-05
1.95126e-05
1.94121e-05
1.92618e-05
1.90624e-05
1.88147e-05
1.85199e-05
1.81793e-05
1.77942e-05
1.73666e-05
1.68983e-05
1.63916e-05
1.58488e-05
1.52724e-05
1.46653e-05
1.40301e-05
1.33697e-05
1.26867e-05
1.19834e-05
1.12623e-05
1.05256e-05
9.77598e-06
9.01587e-06
8.24786e-06
7.47441e-06
6.69769e-06
5.91924e-06
5.13962e-06
4.35803e-06
3.57183e-06
2.77613e-06
1.9632e-06
1.12163e-06
2.0013e-09
7.49596e-12
7.49529e-12
2.00117e-09
1.12161e-06
1.96319e-06
2.77615e-06
3.57189e-06
4.35815e-06
5.13983e-06
5.91955e-06
6.69813e-06
7.475e-06
8.24861e-06
9.01681e-06
9.77713e-06
1.0527e-05
1.12638e-05
1.19852e-05
1.26888e-05
1.33721e-05
1.40327e-05
1.46681e-05
1.52756e-05
1.58522e-05
1.63953e-05
1.69023e-05
1.73708e-05
1.77987e-05
1.8184e-05
1.85249e-05
1.882e-05
1.90678e-05
1.92674e-05
1.94179e-05
1.95186e-05
1.95691e-05
1.95692e-05
1.95189e-05
1.94183e-05
1.9268e-05
1.90685e-05
1.88208e-05
1.85259e-05
1.81851e-05
1.78e-05
1.73723e-05
1.69038e-05
1.63969e-05
1.58539e-05
1.52774e-05
1.46701e-05
1.40347e-05
1.33741e-05
1.26908e-05
1.19873e-05
1.1266e-05
1.05291e-05
9.77923e-06
9.01888e-06
8.25062e-06
7.47693e-06
6.69996e-06
5.92126e-06
5.1414e-06
4.35955e-06
3.57309e-06
2.77713e-06
1.96392e-06
1.12206e-06
2.00208e-09
7.49884e-12
7.49657e-12
2.00152e-09
1.1218e-06
1.96351e-06
2.77659e-06
3.57245e-06
4.35883e-06
5.14062e-06
5.92045e-06
6.69914e-06
7.47613e-06
8.24985e-06
9.01816e-06
9.77859e-06
1.05286e-05
1.12655e-05
1.1987e-05
1.26906e-05
1.3374e-05
1.40348e-05
1.46703e-05
1.52778e-05
1.58545e-05
1.63977e-05
1.69048e-05
1.73734e-05
1.78014e-05
1.81867e-05
1.85276e-05
1.88227e-05
1.90706e-05
1.92703e-05
1.94208e-05
1.95215e-05
1.9572e-05
1.95721e-05
1.95218e-05
1.94212e-05
1.92708e-05
1.90713e-05
1.88236e-05
1.85287e-05
1.81878e-05
1.78026e-05
1.73748e-05
1.69063e-05
1.63994e-05
1.58563e-05
1.52797e-05
1.46722e-05
1.40368e-05
1.33761e-05
1.26927e-05
1.19891e-05
1.12676e-05
1.05307e-05
9.7807e-06
9.02023e-06
8.25187e-06
7.47807e-06
6.70098e-06
5.92217e-06
5.14219e-06
4.36023e-06
3.57365e-06
2.77757e-06
1.96424e-06
1.12224e-06
2.00242e-09
7.50012e-12
7.49712e-12
2.00166e-09
1.12188e-06
1.96365e-06
2.77678e-06
3.57269e-06
4.35912e-06
5.14096e-06
5.92084e-06
6.69958e-06
7.47662e-06
8.25039e-06
9.01875e-06
9.77922e-06
1.05292e-05
1.12662e-05
1.19878e-05
1.26914e-05
1.33749e-05
1.40357e-05
1.46713e-05
1.52788e-05
1.58555e-05
1.63988e-05
1.69059e-05
1.73745e-05
1.78025e-05
1.81879e-05
1.85288e-05
1.88239e-05
1.90719e-05
1.92715e-05
1.9422e-05
1.95228e-05
1.95733e-05
1.95734e-05
1.9523e-05
1.94224e-05
1.92721e-05
1.90726e-05
1.88248e-05
1.85298e-05
1.8189e-05
1.78038e-05
1.73759e-05
1.69074e-05
1.64004e-05
1.58573e-05
1.52806e-05
1.46732e-05
1.40377e-05
1.33769e-05
1.26935e-05
1.19899e-05
1.12684e-05
1.05314e-05
9.78133e-06
9.02082e-06
8.25241e-06
7.47856e-06
6.70142e-06
5.92256e-06
5.14253e-06
4.36052e-06
3.57389e-06
2.77776e-06
1.96437e-06
1.12232e-06
2.00257e-09
7.50067e-12
7.49734e-12
2.00173e-09
1.12191e-06
1.9637e-06
2.77686e-06
3.57279e-06
4.35924e-06
5.1411e-06
5.921e-06
6.69977e-06
7.47682e-06
8.25061e-06
9.01899e-06
9.77949e-06
1.05295e-05
1.12666e-05
1.19881e-05
1.26918e-05
1.33753e-05
1.40361e-05
1.46716e-05
1.52792e-05
1.5856e-05
1.63992e-05
1.69063e-05
1.7375e-05
1.7803e-05
1.81883e-05
1.85293e-05
1.88245e-05
1.90724e-05
1.9272e-05
1.94226e-05
1.95233e-05
1.95738e-05
1.95739e-05
1.95235e-05
1.9423e-05
1.92726e-05
1.90731e-05
1.88253e-05
1.85303e-05
1.81895e-05
1.78043e-05
1.73764e-05
1.69079e-05
1.64009e-05
1.58577e-05
1.5281e-05
1.46736e-05
1.40381e-05
1.33773e-05
1.26939e-05
1.19902e-05
1.12687e-05
1.05317e-05
9.7816e-06
9.02107e-06
8.25263e-06
7.47876e-06
6.70161e-06
5.92272e-06
5.14267e-06
4.36064e-06
3.57399e-06
2.77784e-06
1.96443e-06
1.12236e-06
2.00263e-09
7.5009e-12
7.49743e-12
2.00175e-09
1.12192e-06
1.96372e-06
2.77689e-06
3.57283e-06
4.35929e-06
5.14116e-06
5.92107e-06
6.69984e-06
7.4769e-06
8.2507e-06
9.01909e-06
9.77959e-06
1.05296e-05
1.12667e-05
1.19882e-05
1.26919e-05
1.33754e-05
1.40362e-05
1.46718e-05
1.52794e-05
1.58561e-05
1.63994e-05
1.69065e-05
1.73752e-05
1.78032e-05
1.81885e-05
1.85295e-05
1.88247e-05
1.90726e-05
1.92723e-05
1.94228e-05
1.95235e-05
1.9574e-05
1.95741e-05
1.95238e-05
1.94232e-05
1.92728e-05
1.90733e-05
1.88255e-05
1.85306e-05
1.81897e-05
1.78045e-05
1.73766e-05
1.69081e-05
1.6401e-05
1.58579e-05
1.52812e-05
1.46737e-05
1.40382e-05
1.33775e-05
1.2694e-05
1.19903e-05
1.12688e-05
1.05318e-05
9.7817e-06
9.02116e-06
8.25272e-06
7.47884e-06
6.70168e-06
5.92279e-06
5.14273e-06
4.36069e-06
3.57403e-06
2.77787e-06
1.96445e-06
1.12237e-06
2.00265e-09
7.50099e-12
7.49747e-12
2.00176e-09
1.12193e-06
1.96373e-06
2.77691e-06
3.57285e-06
4.35931e-06
5.14118e-06
5.92109e-06
6.69987e-06
7.47693e-06
8.25074e-06
9.01913e-06
9.77963e-06
1.05297e-05
1.12667e-05
1.19883e-05
1.2692e-05
1.33755e-05
1.40363e-05
1.46719e-05
1.52794e-05
1.58562e-05
1.63995e-05
1.69066e-05
1.73753e-05
1.78033e-05
1.81886e-05
1.85296e-05
1.88247e-05
1.90727e-05
1.92723e-05
1.94229e-05
1.95236e-05
1.95741e-05
1.95742e-05
1.95238e-05
1.94233e-05
1.92729e-05
1.90734e-05
1.88256e-05
1.85306e-05
1.81898e-05
1.78045e-05
1.73767e-05
1.69081e-05
1.64011e-05
1.5858e-05
1.52813e-05
1.46738e-05
1.40383e-05
1.33775e-05
1.26941e-05
1.19904e-05
1.12689e-05
1.05318e-05
9.78175e-06
9.0212e-06
8.25276e-06
7.47887e-06
6.70171e-06
5.92281e-06
5.14275e-06
4.36071e-06
3.57405e-06
2.77788e-06
1.96446e-06
1.12238e-06
2.00266e-09
7.50103e-12
7.49748e-12
2.00176e-09
1.12193e-06
1.96374e-06
2.77691e-06
3.57285e-06
4.35931e-06
5.14119e-06
5.9211e-06
6.69988e-06
7.47694e-06
8.25075e-06
9.01914e-06
9.77965e-06
1.05297e-05
1.12667e-05
1.19883e-05
1.2692e-05
1.33755e-05
1.40363e-05
1.46719e-05
1.52795e-05
1.58562e-05
1.63995e-05
1.69066e-05
1.73753e-05
1.78033e-05
1.81887e-05
1.85297e-05
1.88248e-05
1.90727e-05
1.92724e-05
1.94229e-05
1.95236e-05
1.95741e-05
1.95742e-05
1.95239e-05
1.94233e-05
1.92729e-05
1.90734e-05
1.88256e-05
1.85307e-05
1.81898e-05
1.78046e-05
1.73767e-05
1.69082e-05
1.64011e-05
1.5858e-05
1.52813e-05
1.46738e-05
1.40383e-05
1.33775e-05
1.26941e-05
1.19904e-05
1.12689e-05
1.05318e-05
9.78176e-06
9.02122e-06
8.25277e-06
7.47889e-06
6.70172e-06
5.92282e-06
5.14276e-06
4.36071e-06
3.57406e-06
2.77789e-06
1.96447e-06
1.12238e-06
2.00267e-09
7.50104e-12
7.49749e-12
2.00176e-09
1.12193e-06
1.96374e-06
2.77691e-06
3.57286e-06
4.35932e-06
5.14119e-06
5.92111e-06
6.69988e-06
7.47695e-06
8.25076e-06
9.01915e-06
9.77966e-06
1.05297e-05
1.12667e-05
1.19883e-05
1.2692e-05
1.33755e-05
1.40363e-05
1.46719e-05
1.52795e-05
1.58563e-05
1.63995e-05
1.69066e-05
1.73753e-05
1.78033e-05
1.81887e-05
1.85297e-05
1.88248e-05
1.90727e-05
1.92724e-05
1.94229e-05
1.95236e-05
1.95742e-05
1.95742e-05
1.95239e-05
1.94233e-05
1.92729e-05
1.90734e-05
1.88256e-05
1.85307e-05
1.81898e-05
1.78046e-05
1.73767e-05
1.69082e-05
1.64011e-05
1.5858e-05
1.52813e-05
1.46738e-05
1.40383e-05
1.33775e-05
1.26941e-05
1.19904e-05
1.12689e-05
1.05318e-05
9.78177e-06
9.02122e-06
8.25277e-06
7.47889e-06
6.70172e-06
5.92282e-06
5.14276e-06
4.36072e-06
3.57406e-06
2.77789e-06
1.96447e-06
1.12238e-06
2.00267e-09
7.50104e-12
7.49749e-12
2.00176e-09
1.12193e-06
1.96374e-06
2.77691e-06
3.57286e-06
4.35932e-06
5.14119e-06
5.92111e-06
6.69988e-06
7.47695e-06
8.25076e-06
9.01915e-06
9.77966e-06
1.05297e-05
1.12667e-05
1.19883e-05
1.2692e-05
1.33755e-05
1.40363e-05
1.46719e-05
1.52795e-05
1.58563e-05
1.63995e-05
1.69066e-05
1.73753e-05
1.78033e-05
1.81887e-05
1.85297e-05
1.88248e-05
1.90727e-05
1.92724e-05
1.94229e-05
1.95236e-05
1.95742e-05
1.95742e-05
1.95239e-05
1.94233e-05
1.92729e-05
1.90734e-05
1.88257e-05
1.85307e-05
1.81898e-05
1.78046e-05
1.73767e-05
1.69082e-05
1.64011e-05
1.5858e-05
1.52813e-05
1.46738e-05
1.40383e-05
1.33775e-05
1.26941e-05
1.19904e-05
1.12689e-05
1.05318e-05
9.78177e-06
9.02122e-06
8.25278e-06
7.47889e-06
6.70172e-06
5.92283e-06
5.14276e-06
4.36072e-06
3.57406e-06
2.77789e-06
1.96447e-06
1.12238e-06
2.00267e-09
7.50104e-12
7.49749e-12
2.00176e-09
1.12193e-06
1.96374e-06
2.77691e-06
3.57286e-06
4.35932e-06
5.14119e-06
5.92111e-06
6.69988e-06
7.47695e-06
8.25076e-06
9.01915e-06
9.77966e-06
1.05297e-05
1.12668e-05
1.19883e-05
1.2692e-05
1.33755e-05
1.40363e-05
1.46719e-05
1.52795e-05
1.58563e-05
1.63995e-05
1.69067e-05
1.73753e-05
1.78033e-05
1.81887e-05
1.85297e-05
1.88248e-05
1.90727e-05
1.92724e-05
1.94229e-05
1.95236e-05
1.95742e-05
1.95742e-05
1.95239e-05
1.94233e-05
1.92729e-05
1.90734e-05
1.88257e-05
1.85307e-05
1.81898e-05
1.78046e-05
1.73767e-05
1.69082e-05
1.64011e-05
1.5858e-05
1.52813e-05
1.46738e-05
1.40383e-05
1.33775e-05
1.26941e-05
1.19904e-05
1.12689e-05
1.05318e-05
9.78177e-06
9.02122e-06
8.25278e-06
7.47889e-06
6.70172e-06
5.92283e-06
5.14276e-06
4.36072e-06
3.57406e-06
2.77789e-06
1.96447e-06
1.12238e-06
2.00267e-09
7.50105e-12
7.49749e-12
2.00176e-09
1.12193e-06
1.96374e-06
2.77691e-06
3.57286e-06
4.35932e-06
5.14119e-06
5.92111e-06
6.69988e-06
7.47695e-06
8.25076e-06
9.01915e-06
9.77966e-06
1.05297e-05
1.12668e-05
1.19883e-05
1.2692e-05
1.33755e-05
1.40363e-05
1.46719e-05
1.52795e-05
1.58563e-05
1.63995e-05
1.69067e-05
1.73753e-05
1.78033e-05
1.81887e-05
1.85297e-05
1.88248e-05
1.90727e-05
1.92724e-05
1.94229e-05
1.95236e-05
1.95742e-05
1.95742e-05
1.95239e-05
1.94233e-05
1.92729e-05
1.90734e-05
1.88257e-05
1.85307e-05
1.81898e-05
1.78046e-05
1.73767e-05
1.69082e-05
1.64011e-05
1.5858e-05
1.52813e-05
1.46738e-05
1.40383e-05
1.33775e-05
1.26941e-05
1.19904e-05
1.12689e-05
1.05318e-05
9.78177e-06
9.02122e-06
8.25278e-06
7.47889e-06
6.70173e-06
5.92283e-06
5.14276e-06
4.36072e-06
3.57406e-06
2.77789e-06
1.96447e-06
1.12238e-06
2.00267e-09
7.50105e-12
7.49749e-12
2.00176e-09
1.12193e-06
1.96374e-06
2.77691e-06
3.57286e-06
4.35932e-06
5.14119e-06
5.92111e-06
6.69988e-06
7.47695e-06
8.25076e-06
9.01915e-06
9.77966e-06
1.05297e-05
1.12668e-05
1.19883e-05
1.2692e-05
1.33755e-05
1.40363e-05
1.46719e-05
1.52795e-05
1.58563e-05
1.63995e-05
1.69067e-05
1.73753e-05
1.78033e-05
1.81887e-05
1.85297e-05
1.88248e-05
1.90727e-05
1.92724e-05
1.94229e-05
1.95236e-05
1.95742e-05
1.95742e-05
1.95239e-05
1.94233e-05
1.92729e-05
1.90734e-05
1.88257e-05
1.85307e-05
1.81898e-05
1.78046e-05
1.73767e-05
1.69082e-05
1.64011e-05
1.5858e-05
1.52813e-05
1.46738e-05
1.40383e-05
1.33775e-05
1.26941e-05
1.19904e-05
1.12689e-05
1.05318e-05
9.78177e-06
9.02122e-06
8.25278e-06
7.47889e-06
6.70173e-06
5.92283e-06
5.14276e-06
4.36072e-06
3.57406e-06
2.77789e-06
1.96447e-06
1.12238e-06
2.00267e-09
7.50105e-12
7.49749e-12
2.00176e-09
1.12193e-06
1.96374e-06
2.77691e-06
3.57286e-06
4.35932e-06
5.14119e-06
5.92111e-06
6.69988e-06
7.47695e-06
8.25076e-06
9.01915e-06
9.77966e-06
1.05297e-05
1.12668e-05
1.19883e-05
1.2692e-05
1.33755e-05
1.40363e-05
1.46719e-05
1.52795e-05
1.58563e-05
1.63995e-05
1.69067e-05
1.73753e-05
1.78033e-05
1.81887e-05
1.85297e-05
1.88248e-05
1.90727e-05
1.92724e-05
1.94229e-05
1.95236e-05
1.95742e-05
1.95742e-05
1.95239e-05
1.94233e-05
1.92729e-05
1.90734e-05
1.88257e-05
1.85307e-05
1.81898e-05
1.78046e-05
1.73767e-05
1.69082e-05
1.64011e-05
1.5858e-05
1.52813e-05
1.46738e-05
1.40383e-05
1.33775e-05
1.26941e-05
1.19904e-05
1.12689e-05
1.05318e-05
9.78177e-06
9.02122e-06
8.25278e-06
7.47889e-06
6.70173e-06
5.92283e-06
5.14276e-06
4.36072e-06
3.57406e-06
2.77789e-06
1.96447e-06
1.12238e-06
2.00267e-09
7.50105e-12
7.49749e-12
2.00176e-09
1.12193e-06
1.96374e-06
2.77691e-06
3.57286e-06
4.35932e-06
5.14119e-06
5.92111e-06
6.69988e-06
7.47695e-06
8.25076e-06
9.01915e-06
9.77966e-06
1.05297e-05
1.12668e-05
1.19883e-05
1.2692e-05
1.33755e-05
1.40363e-05
1.46719e-05
1.52795e-05
1.58563e-05
1.63995e-05
1.69067e-05
1.73753e-05
1.78033e-05
1.81887e-05
1.85297e-05
1.88248e-05
1.90727e-05
1.92724e-05
1.94229e-05
1.95236e-05
1.95742e-05
1.95742e-05
1.95239e-05
1.94233e-05
1.92729e-05
1.90734e-05
1.88257e-05
1.85307e-05
1.81898e-05
1.78046e-05
1.73767e-05
1.69082e-05
1.64011e-05
1.5858e-05
1.52813e-05
1.46738e-05
1.40383e-05
1.33775e-05
1.26941e-05
1.19904e-05
1.12689e-05
1.05318e-05
9.78177e-06
9.02122e-06
8.25278e-06
7.47889e-06
6.70173e-06
5.92283e-06
5.14276e-06
4.36072e-06
3.57406e-06
2.77789e-06
1.96447e-06
1.12238e-06
2.00267e-09
7.50105e-12
7.49749e-12
2.00176e-09
1.12193e-06
1.96374e-06
2.77691e-06
3.57286e-06
4.35932e-06
5.14119e-06
5.92111e-06
6.69988e-06
7.47695e-06
8.25076e-06
9.01915e-06
9.77966e-06
1.05297e-05
1.12668e-05
1.19883e-05
1.2692e-05
1.33755e-05
1.40363e-05
1.46719e-05
1.52795e-05
1.58563e-05
1.63995e-05
1.69067e-05
1.73753e-05
1.78033e-05
1.81887e-05
1.85297e-05
1.88248e-05
1.90727e-05
1.92724e-05
1.94229e-05
1.95236e-05
1.95742e-05
1.95742e-05
1.95239e-05
1.94233e-05
1.92729e-05
1.90734e-05
1.88257e-05
1.85307e-05
1.81898e-05
1.78046e-05
1.73767e-05
1.69082e-05
1.64011e-05
1.5858e-05
1.52813e-05
1.46738e-05
1.40383e-05
1.33775e-05
1.26941e-05
1.19904e-05
1.12689e-05
1.05318e-05
9.78177e-06
9.02122e-06
8.25278e-06
7.47889e-06
6.70173e-06
5.92283e-06
5.14276e-06
4.36072e-06
3.57406e-06
2.77789e-06
1.96447e-06
1.12238e-06
2.00267e-09
7.50105e-12
7.49749e-12
2.00176e-09
1.12193e-06
1.96374e-06
2.77691e-06
3.57286e-06
4.35932e-06
5.14119e-06
5.92111e-06
6.69988e-06
7.47695e-06
8.25076e-06
9.01915e-06
9.77966e-06
1.05297e-05
1.12668e-05
1.19883e-05
1.2692e-05
1.33755e-05
1.40363e-05
1.46719e-05
1.52795e-05
1.58563e-05
1.63995e-05
1.69067e-05
1.73753e-05
1.78033e-05
1.81887e-05
1.85297e-05
1.88248e-05
1.90727e-05
1.92724e-05
1.94229e-05
1.95236e-05
1.95742e-05
1.95742e-05
1.95239e-05
1.94233e-05
1.92729e-05
1.90734e-05
1.88257e-05
1.85307e-05
1.81898e-05
1.78046e-05
1.73767e-05
1.69082e-05
1.64011e-05
1.5858e-05
1.52813e-05
1.46738e-05
1.40383e-05
1.33775e-05
1.26941e-05
1.19904e-05
1.12689e-05
1.05318e-05
9.78177e-06
9.02122e-06
8.25278e-06
7.47889e-06
6.70173e-06
5.92283e-06
5.14276e-06
4.36072e-06
3.57406e-06
2.77789e-06
1.96447e-06
1.12238e-06
2.00267e-09
7.50105e-12
7.49749e-12
2.00176e-09
1.12193e-06
1.96374e-06
2.77691e-06
3.57286e-06
4.35932e-06
5.14119e-06
5.92111e-06
6.69988e-06
7.47695e-06
8.25076e-06
9.01915e-06
9.77966e-06
1.05297e-05
1.12668e-05
1.19883e-05
1.2692e-05
1.33755e-05
1.40363e-05
1.46719e-05
1.52795e-05
1.58563e-05
1.63995e-05
1.69067e-05
1.73753e-05
1.78033e-05
1.81887e-05
1.85297e-05
1.88248e-05
1.90727e-05
1.92724e-05
1.94229e-05
1.95236e-05
1.95742e-05
1.95742e-05
1.95239e-05
1.94233e-05
1.92729e-05
1.90734e-05
1.88257e-05
1.85307e-05
1.81898e-05
1.78046e-05
1.73767e-05
1.69082e-05
1.64011e-05
1.5858e-05
1.52813e-05
1.46738e-05
1.40383e-05
1.33775e-05
1.26941e-05
1.19904e-05
1.12689e-05
1.05318e-05
9.78177e-06
9.02122e-06
8.25278e-06
7.47889e-06
6.70173e-06
5.92283e-06
5.14276e-06
4.36072e-06
3.57406e-06
2.77789e-06
1.96447e-06
1.12238e-06
2.00267e-09
7.50105e-12
7.49749e-12
2.00176e-09
1.12193e-06
1.96374e-06
2.77691e-06
3.57286e-06
4.35932e-06
5.14119e-06
5.92111e-06
6.69988e-06
7.47695e-06