/*--------------------------------*- C++ -*----------------------------------*\
  =========                 |
  \\      /  F ield         | OpenFOAM: The Open Source CFD Toolbox
   \\    /   O peration     | Website:  https://openfoam.org
    \\  /    A nd           | Version:  13
     \\/     M anipulation  |
\*---------------------------------------------------------------------------*/
FoamFile
{
    format      ascii;
    class       volScalarField;
    location    "160";
    object      rhok;
}
// * * * * * * * * * * * * * * * * * * * * * * * * * * * * * * * * * * * * * //

dimensions      [];

internalField   nonuniform List<scalar> 
315000
(
0.444629
0.429925
0.415197
0.413788
0.41305
0.412314
0.411581
0.410849
0.410121
0.409394
0.408671
0.407949
0.40723
0.406514
0.4058
0.405089
0.404381
0.403675
0.402972
0.402271
0.401574
0.400879
0.400187
0.399497
0.39881
0.398127
0.397445
0.396767
0.396091
0.395419
0.394749
0.394081
0.393416
0.392755
0.392095
0.391439
0.390785
0.390133
0.389484
0.388838
0.388194
0.387552
0.386913
0.386276
0.385642
0.385009
0.384379
0.383751
0.383125
0.382501
0.381878
0.381258
0.380639
0.380022
0.379406
0.378792
0.37818
0.377568
0.376958
0.376349
0.375741
0.375134
0.374528
0.373923
0.373318
0.372714
0.37211
0.371507
0.370904
0.370301
0.444629
0.429924
0.415195
0.413785
0.413047
0.412311
0.411578
0.410847
0.410118
0.409392
0.408668
0.407946
0.407227
0.406511
0.405797
0.405086
0.404378
0.403672
0.402969
0.402268
0.401571
0.400876
0.400183
0.399494
0.398807
0.398123
0.397442
0.396764
0.396088
0.395416
0.394746
0.394078
0.393414
0.392752
0.392092
0.391436
0.390782
0.39013
0.389481
0.388835
0.388191
0.38755
0.386911
0.386274
0.385639
0.385007
0.384377
0.383749
0.383123
0.382499
0.381876
0.381256
0.380637
0.38002
0.379405
0.378791
0.378178
0.377567
0.376957
0.376348
0.37574
0.375133
0.374527
0.373922
0.373317
0.372713
0.37211
0.371506
0.370903
0.370301
0.444629
0.429922
0.415193
0.413783
0.413045
0.412309
0.411576
0.410844
0.410116
0.409389
0.408665
0.407944
0.407225
0.406508
0.405795
0.405084
0.404375
0.403669
0.402966
0.402266
0.401568
0.400873
0.400181
0.399491
0.398805
0.398121
0.39744
0.396761
0.396086
0.395413
0.394743
0.394076
0.393411
0.392749
0.39209
0.391433
0.390779
0.390128
0.389479
0.388833
0.388189
0.387547
0.386908
0.386272
0.385637
0.385005
0.384375
0.383747
0.383121
0.382497
0.381875
0.381254
0.380636
0.380019
0.379403
0.378789
0.378177
0.377566
0.376956
0.376347
0.375739
0.375133
0.374527
0.373921
0.373317
0.372713
0.372109
0.371506
0.370903
0.3703
0.444629
0.429922
0.415191
0.413781
0.413043
0.412307
0.411574
0.410842
0.410113
0.409387
0.408663
0.407942
0.407223
0.406506
0.405792
0.405081
0.404373
0.403667
0.402964
0.402263
0.401566
0.400871
0.400178
0.399489
0.398802
0.398118
0.397437
0.396759
0.396083
0.395411
0.394741
0.394073
0.393409
0.392747
0.392088
0.391431
0.390777
0.390126
0.389477
0.388831
0.388187
0.387545
0.386906
0.38627
0.385635
0.385003
0.384373
0.383745
0.383119
0.382495
0.381873
0.381253
0.380634
0.380017
0.379402
0.378788
0.378176
0.377565
0.376955
0.376346
0.375739
0.375132
0.374526
0.373921
0.373316
0.372712
0.372109
0.371506
0.370903
0.3703
0.444629
0.429921
0.415189
0.41378
0.413041
0.412305
0.411572
0.410841
0.410112
0.409385
0.408661
0.40794
0.407221
0.406504
0.40579
0.405079
0.404371
0.403665
0.402962
0.402261
0.401564
0.400869
0.400176
0.399487
0.3988
0.398116
0.397435
0.396757
0.396081
0.395409
0.394739
0.394071
0.393407
0.392745
0.392086
0.391429
0.390775
0.390124
0.389475
0.388829
0.388185
0.387544
0.386905
0.386268
0.385634
0.385002
0.384372
0.383744
0.383118
0.382494
0.381872
0.381252
0.380633
0.380016
0.379401
0.378787
0.378175
0.377564
0.376954
0.376346
0.375738
0.375131
0.374525
0.37392
0.373316
0.372712
0.372109
0.371506
0.370903
0.3703
0.444629
0.42992
0.415188
0.413778
0.41304
0.412304
0.41157
0.410839
0.41011
0.409384
0.40866
0.407938
0.407219
0.406503
0.405789
0.405078
0.404369
0.403663
0.40296
0.40226
0.401562
0.400867
0.400175
0.399485
0.398799
0.398115
0.397434
0.396755
0.39608
0.395407
0.394737
0.39407
0.393405
0.392743
0.392084
0.391428
0.390774
0.390122
0.389474
0.388827
0.388184
0.387542
0.386903
0.386267
0.385632
0.385
0.38437
0.383742
0.383117
0.382493
0.381871
0.381251
0.380632
0.380015
0.3794
0.378787
0.378174
0.377563
0.376954
0.376345
0.375737
0.375131
0.374525
0.37392
0.373316
0.372712
0.372109
0.371506
0.370903
0.3703
0.444629
0.42992
0.415187
0.413777
0.413039
0.412303
0.411569
0.410838
0.410109
0.409383
0.408658
0.407937
0.407218
0.406501
0.405788
0.405076
0.404368
0.403662
0.402959
0.402258
0.401561
0.400866
0.400173
0.399484
0.398797
0.398113
0.397432
0.396754
0.396078
0.395406
0.394736
0.394068
0.393404
0.392742
0.392083
0.391426
0.390772
0.390121
0.389472
0.388826
0.388182
0.387541
0.386902
0.386266
0.385631
0.384999
0.384369
0.383742
0.383116
0.382492
0.38187
0.38125
0.380631
0.380015
0.3794
0.378786
0.378174
0.377563
0.376953
0.376344
0.375737
0.37513
0.374525
0.37392
0.373315
0.372712
0.372108
0.371506
0.370903
0.3703
0.444629
0.429919
0.415186
0.413776
0.413038
0.412302
0.411568
0.410837
0.410108
0.409382
0.408658
0.407936
0.407217
0.4065
0.405787
0.405075
0.404367
0.403661
0.402958
0.402257
0.40156
0.400865
0.400172
0.399483
0.398796
0.398112
0.397431
0.396753
0.396077
0.395405
0.394735
0.394067
0.393403
0.392741
0.392082
0.391425
0.390771
0.39012
0.389471
0.388825
0.388182
0.38754
0.386901
0.386265
0.385631
0.384998
0.384369
0.383741
0.383115
0.382491
0.381869
0.381249
0.380631
0.380014
0.379399
0.378785
0.378173
0.377562
0.376953
0.376344
0.375737
0.37513
0.374524
0.373919
0.373315
0.372712
0.372108
0.371505
0.370903
0.3703
0.444629
0.429919
0.415186
0.413776
0.413037
0.412301
0.411568
0.410836
0.410107
0.409381
0.408657
0.407935
0.407216
0.4065
0.405786
0.405075
0.404366
0.40366
0.402957
0.402257
0.401559
0.400864
0.400172
0.399482
0.398795
0.398112
0.39743
0.396752
0.396077
0.395404
0.394734
0.394067
0.393402
0.39274
0.392081
0.391425
0.390771
0.39012
0.389471
0.388825
0.388181
0.38754
0.386901
0.386264
0.38563
0.384998
0.384368
0.38374
0.383114
0.382491
0.381869
0.381249
0.38063
0.380014
0.379399
0.378785
0.378173
0.377562
0.376952
0.376344
0.375736
0.37513
0.374524
0.373919
0.373315
0.372711
0.372108
0.371505
0.370903
0.3703
0.444629
0.429919
0.415185
0.413775
0.413037
0.412301
0.411567
0.410836
0.410107
0.409381
0.408656
0.407935
0.407216
0.406499
0.405785
0.405074
0.404366
0.40366
0.402957
0.402256
0.401558
0.400863
0.400171
0.399482
0.398795
0.398111
0.39743
0.396752
0.396076
0.395403
0.394733
0.394066
0.393402
0.39274
0.392081
0.391424
0.39077
0.390119
0.38947
0.388824
0.38818
0.387539
0.3869
0.386264
0.38563
0.384997
0.384368
0.38374
0.383114
0.38249
0.381868
0.381248
0.38063
0.380013
0.379398
0.378785
0.378173
0.377562
0.376952
0.376344
0.375736
0.37513
0.374524
0.373919
0.373315
0.372711
0.372108
0.371505
0.370903
0.3703
0.444629
0.429919
0.415185
0.413775
0.413037
0.412301
0.411567
0.410836
0.410107
0.40938
0.408656
0.407935
0.407216
0.406499
0.405785
0.405074
0.404365
0.403659
0.402956
0.402256
0.401558
0.400863
0.400171
0.399481
0.398795
0.398111
0.39743
0.396751
0.396076
0.395403
0.394733
0.394066
0.393401
0.392739
0.39208
0.391424
0.39077
0.390119
0.38947
0.388824
0.38818
0.387539
0.3869
0.386264
0.385629
0.384997
0.384367
0.38374
0.383114
0.38249
0.381868
0.381248
0.38063
0.380013
0.379398
0.378785
0.378172
0.377562
0.376952
0.376343
0.375736
0.37513
0.374524
0.373919
0.373315
0.372711
0.372108
0.371505
0.370903
0.3703
0.444629
0.429919
0.415185
0.413775
0.413037
0.412301
0.411567
0.410836
0.410107
0.40938
0.408656
0.407934
0.407215
0.406499
0.405785
0.405074
0.404365
0.403659
0.402956
0.402256
0.401558
0.400863
0.400171
0.399481
0.398795
0.398111
0.39743
0.396751
0.396076
0.395403
0.394733
0.394066
0.393401
0.392739
0.39208
0.391424
0.39077
0.390119
0.38947
0.388824
0.38818
0.387539
0.3869
0.386263
0.385629
0.384997
0.384367
0.38374
0.383114
0.38249
0.381868
0.381248
0.38063
0.380013
0.379398
0.378784
0.378172
0.377561
0.376952
0.376343
0.375736
0.37513
0.374524
0.373919
0.373315
0.372711
0.372108
0.371505
0.370903
0.3703
0.444629
0.429919
0.415185
0.413775
0.413037
0.412301
0.411567
0.410836
0.410107
0.40938
0.408656
0.407934
0.407215
0.406499
0.405785
0.405074
0.404365
0.403659
0.402956
0.402256
0.401558
0.400863
0.400171
0.399481
0.398795
0.398111
0.39743
0.396751
0.396076
0.395403
0.394733
0.394066
0.393401
0.392739
0.39208
0.391424
0.39077
0.390119
0.38947
0.388824
0.38818
0.387539
0.3869
0.386263
0.385629
0.384997
0.384367
0.383739
0.383114
0.38249
0.381868
0.381248
0.38063
0.380013
0.379398
0.378784
0.378172
0.377561
0.376952
0.376343
0.375736
0.37513
0.374524
0.373919
0.373315
0.372711
0.372108
0.371505
0.370903
0.3703
0.444629
0.429919
0.415185
0.413775
0.413037
0.412301
0.411567
0.410836
0.410107
0.40938
0.408656
0.407935
0.407216
0.406499
0.405785
0.405074
0.404365
0.403659
0.402956
0.402256
0.401558
0.400863
0.400171
0.399481
0.398795
0.398111
0.39743
0.396751
0.396076
0.395403
0.394733
0.394066
0.393401
0.392739
0.39208
0.391424
0.39077
0.390119
0.38947
0.388824
0.38818
0.387539
0.3869
0.386263
0.385629
0.384997
0.384367
0.38374
0.383114
0.38249
0.381868
0.381248
0.38063
0.380013
0.379398
0.378784
0.378172
0.377561
0.376952
0.376343
0.375736
0.37513
0.374524
0.373919
0.373315
0.372711
0.372108
0.371505
0.370903
0.3703
0.444629
0.429919
0.415185
0.413775
0.413037
0.412301
0.411567
0.410836
0.410107
0.409381
0.408656
0.407935
0.407216
0.406499
0.405785
0.405074
0.404366
0.40366
0.402956
0.402256
0.401558
0.400863
0.400171
0.399482
0.398795
0.398111
0.39743
0.396752
0.396076
0.395403
0.394733
0.394066
0.393401
0.39274
0.39208
0.391424
0.39077
0.390119
0.38947
0.388824
0.38818
0.387539
0.3869
0.386264
0.385629
0.384997
0.384367
0.38374
0.383114
0.38249
0.381868
0.381248
0.38063
0.380013
0.379398
0.378785
0.378172
0.377562
0.376952
0.376343
0.375736
0.37513
0.374524
0.373919
0.373315
0.372711
0.372108
0.371505
0.370903
0.3703
0.444629
0.429919
0.415186
0.413776
0.413037
0.412301
0.411568
0.410836
0.410107
0.409381
0.408657
0.407935
0.407216
0.4065
0.405786
0.405074
0.404366
0.40366
0.402957
0.402256
0.401559
0.400864
0.400171
0.399482
0.398795
0.398111
0.39743
0.396752
0.396076
0.395404
0.394734
0.394066
0.393402
0.39274
0.392081
0.391424
0.39077
0.390119
0.38947
0.388824
0.388181
0.387539
0.3869
0.386264
0.38563
0.384998
0.384368
0.38374
0.383114
0.38249
0.381868
0.381248
0.38063
0.380013
0.379398
0.378785
0.378173
0.377562
0.376952
0.376344
0.375736
0.37513
0.374524
0.373919
0.373315
0.372711
0.372108
0.371505
0.370903
0.3703
0.444629
0.429919
0.415186
0.413776
0.413038
0.412302
0.411568
0.410837
0.410108
0.409381
0.408657
0.407935
0.407216
0.4065
0.405786
0.405075
0.404366
0.40366
0.402957
0.402257
0.401559
0.400864
0.400172
0.399482
0.398796
0.398112
0.397431
0.396752
0.396077
0.395404
0.394734
0.394067
0.393402
0.39274
0.392081
0.391425
0.390771
0.390119
0.389471
0.388825
0.388181
0.38754
0.386901
0.386264
0.38563
0.384998
0.384368
0.38374
0.383114
0.382491
0.381869
0.381249
0.38063
0.380014
0.379398
0.378785
0.378173
0.377562
0.376952
0.376344
0.375736
0.37513
0.374524
0.373919
0.373315
0.372711
0.372108
0.371505
0.370903
0.3703
0.444629
0.429919
0.415186
0.413776
0.413038
0.412302
0.411568
0.410837
0.410108
0.409382
0.408658
0.407936
0.407217
0.4065
0.405787
0.405075
0.404367
0.403661
0.402958
0.402257
0.401559
0.400864
0.400172
0.399483
0.398796
0.398112
0.397431
0.396753
0.396077
0.395404
0.394734
0.394067
0.393402
0.392741
0.392081
0.391425
0.390771
0.39012
0.389471
0.388825
0.388181
0.38754
0.386901
0.386264
0.38563
0.384998
0.384368
0.38374
0.383115
0.382491
0.381869
0.381249
0.38063
0.380014
0.379399
0.378785
0.378173
0.377562
0.376952
0.376344
0.375736
0.37513
0.374524
0.373919
0.373315
0.372711
0.372108
0.371505
0.370903
0.3703
0.444629
0.429919
0.415187
0.413777
0.413039
0.412303
0.411569
0.410838
0.410109
0.409382
0.408658
0.407936
0.407217
0.406501
0.405787
0.405076
0.404367
0.403661
0.402958
0.402258
0.40156
0.400865
0.400173
0.399483
0.398797
0.398113
0.397432
0.396753
0.396078
0.395405
0.394735
0.394068
0.393403
0.392741
0.392082
0.391425
0.390772
0.39012
0.389472
0.388825
0.388182
0.38754
0.386901
0.386265
0.385631
0.384998
0.384369
0.383741
0.383115
0.382491
0.381869
0.381249
0.380631
0.380014
0.379399
0.378785
0.378173
0.377562
0.376953
0.376344
0.375737
0.37513
0.374524
0.373919
0.373315
0.372711
0.372108
0.371505
0.370903
0.3703
0.444629
0.42992
0.415187
0.413777
0.413039
0.412303
0.411569
0.410838
0.410109
0.409383
0.408659
0.407937
0.407218
0.406501
0.405788
0.405076
0.404368
0.403662
0.402959
0.402258
0.40156
0.400865
0.400173
0.399484
0.398797
0.398113
0.397432
0.396754
0.396078
0.395405
0.394735
0.394068
0.393403
0.392742
0.392082
0.391426
0.390772
0.390121
0.389472
0.388826
0.388182
0.387541
0.386902
0.386265
0.385631
0.384999
0.384369
0.383741
0.383115
0.382491
0.38187
0.381249
0.380631
0.380014
0.379399
0.378786
0.378173
0.377562
0.376953
0.376344
0.375737
0.37513
0.374524
0.37392
0.373315
0.372712
0.372108
0.371505
0.370903
0.3703
0.444629
0.42992
0.415188
0.413778
0.41304
0.412304
0.41157
0.410839
0.41011
0.409383
0.408659
0.407938
0.407219
0.406502
0.405788
0.405077
0.404368
0.403663
0.402959
0.402259
0.401561
0.400866
0.400174
0.399484
0.398798
0.398114
0.397433
0.396754
0.396079
0.395406
0.394736
0.394069
0.393404
0.392742
0.392083
0.391426
0.390773
0.390121
0.389473
0.388826
0.388183
0.387541
0.386902
0.386266
0.385631
0.384999
0.384369
0.383741
0.383116
0.382492
0.38187
0.38125
0.380631
0.380015
0.379399
0.378786
0.378174
0.377563
0.376953
0.376344
0.375737
0.37513
0.374525
0.37392
0.373315
0.372712
0.372108
0.371505
0.370903
0.3703
0.444629
0.42992
0.415188
0.413778
0.41304
0.412304
0.411571
0.410839
0.41011
0.409384
0.40866
0.407938
0.407219
0.406503
0.405789
0.405078
0.404369
0.403663
0.40296
0.402259
0.401562
0.400867
0.400175
0.399485
0.398798
0.398114
0.397433
0.396755
0.396079
0.395407
0.394737
0.394069
0.393405
0.392743
0.392084
0.391427
0.390773
0.390122
0.389473
0.388827
0.388183
0.387542
0.386903
0.386266
0.385632
0.385
0.38437
0.383742
0.383116
0.382492
0.38187
0.38125
0.380632
0.380015
0.3794
0.378786
0.378174
0.377563
0.376953
0.376345
0.375737
0.37513
0.374525
0.37392
0.373315
0.372712
0.372108
0.371506
0.370903
0.3703
0.444629
0.42992
0.415189
0.413779
0.413041
0.412305
0.411571
0.41084
0.410111
0.409384
0.40866
0.407939
0.40722
0.406503
0.40579
0.405078
0.40437
0.403664
0.402961
0.40226
0.401562
0.400867
0.400175
0.399486
0.398799
0.398115
0.397434
0.396756
0.39608
0.395407
0.394737
0.39407
0.393405
0.392743
0.392084
0.391428
0.390774
0.390122
0.389474
0.388827
0.388184
0.387542
0.386903
0.386267
0.385632
0.385
0.38437
0.383742
0.383116
0.382493
0.381871
0.38125
0.380632
0.380015
0.3794
0.378786
0.378174
0.377563
0.376953
0.376345
0.375737
0.375131
0.374525
0.37392
0.373316
0.372712
0.372109
0.371506
0.370903
0.3703
0.444629
0.429921
0.415189
0.413779
0.413041
0.412305
0.411572
0.41084
0.410112
0.409385
0.408661
0.407939
0.40722
0.406504
0.40579
0.405079
0.40437
0.403664
0.402961
0.402261
0.401563
0.400868
0.400176
0.399486
0.3988
0.398116
0.397435
0.396756
0.396081
0.395408
0.394738
0.39407
0.393406
0.392744
0.392085
0.391428
0.390774
0.390123
0.389474
0.388828
0.388184
0.387543
0.386904
0.386267
0.385633
0.385001
0.384371
0.383743
0.383117
0.382493
0.381871
0.381251
0.380632
0.380015
0.3794
0.378787
0.378174
0.377563
0.376954
0.376345
0.375737
0.375131
0.374525
0.37392
0.373316
0.372712
0.372109
0.371506
0.370903
0.3703
0.444629
0.429921
0.41519
0.41378
0.413042
0.412306
0.411572
0.410841
0.410112
0.409386
0.408662
0.40794
0.407221
0.406505
0.405791
0.40508
0.404371
0.403665
0.402962
0.402261
0.401564
0.400869
0.400176
0.399487
0.3988
0.398116
0.397435
0.396757
0.396081
0.395408
0.394738
0.394071
0.393406
0.392745
0.392085
0.391429
0.390775
0.390123
0.389475
0.388828
0.388185
0.387543
0.386904
0.386268
0.385633
0.385001
0.384371
0.383743
0.383117
0.382493
0.381871
0.381251
0.380633
0.380016
0.379401
0.378787
0.378175
0.377564
0.376954
0.376345
0.375738
0.375131
0.374525
0.37392
0.373316
0.372712
0.372109
0.371506
0.370903
0.3703
0.444629
0.429921
0.41519
0.413781
0.413042
0.412307
0.411573
0.410842
0.410113
0.409386
0.408662
0.407941
0.407222
0.406505
0.405791
0.40508
0.404372
0.403666
0.402963
0.402262
0.401564
0.400869
0.400177
0.399488
0.398801
0.398117
0.397436
0.396757
0.396082
0.395409
0.394739
0.394072
0.393407
0.392745
0.392086
0.391429
0.390775
0.390124
0.389475
0.388829
0.388185
0.387544
0.386905
0.386268
0.385634
0.385001
0.384371
0.383743
0.383118
0.382494
0.381872
0.381251
0.380633
0.380016
0.379401
0.378787
0.378175
0.377564
0.376954
0.376345
0.375738
0.375131
0.374525
0.37392
0.373316
0.372712
0.372109
0.371506
0.370903
0.3703
0.444629
0.429922
0.415191
0.413781
0.413043
0.412307
0.411573
0.410842
0.410113
0.409387
0.408663
0.407941
0.407222
0.406506
0.405792
0.405081
0.404372
0.403666
0.402963
0.402263
0.401565
0.40087
0.400178
0.399488
0.398801
0.398118
0.397436
0.396758
0.396082
0.39541
0.394739
0.394072
0.393407
0.392746
0.392086
0.39143
0.390776
0.390124
0.389476
0.388829
0.388185
0.387544
0.386905
0.386268
0.385634
0.385002
0.384372
0.383744
0.383118
0.382494
0.381872
0.381252
0.380633
0.380016
0.379401
0.378787
0.378175
0.377564
0.376954
0.376345
0.375738
0.375131
0.374525
0.37392
0.373316
0.372712
0.372109
0.371506
0.370903
0.3703
0.444629
0.429922
0.415191
0.413782
0.413043
0.412307
0.411574
0.410843
0.410114
0.409387
0.408663
0.407942
0.407223
0.406506
0.405793
0.405081
0.404373
0.403667
0.402964
0.402263
0.401565
0.40087
0.400178
0.399489
0.398802
0.398118
0.397437
0.396758
0.396083
0.39541
0.39474
0.394073
0.393408
0.392746
0.392087
0.39143
0.390776
0.390125
0.389476
0.38883
0.388186
0.387544
0.386905
0.386269
0.385634
0.385002
0.384372
0.383744
0.383118
0.382494
0.381872
0.381252
0.380633
0.380017
0.379401
0.378788
0.378175
0.377564
0.376954
0.376346
0.375738
0.375131
0.374526
0.37392
0.373316
0.372712
0.372109
0.371506
0.370903
0.3703
0.444629
0.429922
0.415192
0.413782
0.413044
0.412308
0.411574
0.410843
0.410114
0.409388
0.408664
0.407942
0.407223
0.406507
0.405793
0.405082
0.404373
0.403667
0.402964
0.402264
0.401566
0.400871
0.400179
0.399489
0.398802
0.398119
0.397437
0.396759
0.396083
0.39541
0.39474
0.394073
0.393408
0.392746
0.392087
0.391431
0.390777
0.390125
0.389476
0.38883
0.388186
0.387545
0.386906
0.386269
0.385635
0.385002
0.384372
0.383744
0.383118
0.382495
0.381872
0.381252
0.380634
0.380017
0.379402
0.378788
0.378175
0.377564
0.376954
0.376346
0.375738
0.375131
0.374526
0.373921
0.373316
0.372712
0.372109
0.371506
0.370903
0.3703
0.444629
0.429922
0.415192
0.413782
0.413044
0.412308
0.411575
0.410843
0.410115
0.409388
0.408664
0.407943
0.407224
0.406507
0.405793
0.405082
0.404374
0.403668
0.402965
0.402264
0.401566
0.400871
0.400179
0.39949
0.398803
0.398119
0.397438
0.396759
0.396084
0.395411
0.394741
0.394073
0.393409
0.392747
0.392088
0.391431
0.390777
0.390126
0.389477
0.38883
0.388187
0.387545
0.386906
0.386269
0.385635
0.385003
0.384373
0.383745
0.383119
0.382495
0.381873
0.381252
0.380634
0.380017
0.379402
0.378788
0.378176
0.377564
0.376955
0.376346
0.375738
0.375132
0.374526
0.373921
0.373316
0.372712
0.372109
0.371506
0.370903
0.3703
0.444629
0.429922
0.415192
0.413783
0.413044
0.412309
0.411575
0.410844
0.410115
0.409388
0.408665
0.407943
0.407224
0.406508
0.405794
0.405083
0.404374
0.403668
0.402965
0.402264
0.401567
0.400872
0.400179
0.39949
0.398803
0.398119
0.397438
0.39676
0.396084
0.395411
0.394741
0.394074
0.393409
0.392747
0.392088
0.391431
0.390777
0.390126
0.389477
0.388831
0.388187
0.387545
0.386906
0.38627
0.385635
0.385003
0.384373
0.383745
0.383119
0.382495
0.381873
0.381253
0.380634
0.380017
0.379402
0.378788
0.378176
0.377565
0.376955
0.376346
0.375738
0.375132
0.374526
0.373921
0.373316
0.372712
0.372109
0.371506
0.370903
0.3703
0.444629
0.429922
0.415192
0.413783
0.413045
0.412309
0.411575
0.410844
0.410115
0.409389
0.408665
0.407943
0.407224
0.406508
0.405794
0.405083
0.404374
0.403668
0.402965
0.402265
0.401567
0.400872
0.40018
0.39949
0.398804
0.39812
0.397438
0.39676
0.396084
0.395412
0.394741
0.394074
0.393409
0.392747
0.392088
0.391432
0.390778
0.390126
0.389477
0.388831
0.388187
0.387546
0.386907
0.38627
0.385635
0.385003
0.384373
0.383745
0.383119
0.382495
0.381873
0.381253
0.380634
0.380017
0.379402
0.378788
0.378176
0.377565
0.376955
0.376346
0.375738
0.375132
0.374526
0.373921
0.373316
0.372712
0.372109
0.371506
0.370903
0.3703
0.444629
0.429923
0.415193
0.413783
0.413045
0.412309
0.411576
0.410844
0.410116
0.409389
0.408665
0.407944
0.407225
0.406508
0.405794
0.405083
0.404375
0.403669
0.402966
0.402265
0.401567
0.400872
0.40018
0.399491
0.398804
0.39812
0.397439
0.39676
0.396085
0.395412
0.394742
0.394074
0.39341
0.392748
0.392088
0.391432
0.390778
0.390126
0.389478
0.388831
0.388187
0.387546
0.386907
0.38627
0.385636
0.385003
0.384373
0.383745
0.383119
0.382495
0.381873
0.381253
0.380634
0.380017
0.379402
0.378788
0.378176
0.377565
0.376955
0.376346
0.375739
0.375132
0.374526
0.373921
0.373316
0.372712
0.372109
0.371506
0.370903
0.3703
0.444629
0.429923
0.415193
0.413783
0.413045
0.412309
0.411576
0.410845
0.410116
0.409389
0.408665
0.407944
0.407225
0.406508
0.405795
0.405083
0.404375
0.403669
0.402966
0.402265
0.401568
0.400873
0.40018
0.399491
0.398804
0.39812
0.397439
0.396761
0.396085
0.395412
0.394742
0.394075
0.39341
0.392748
0.392089
0.391432
0.390778
0.390127
0.389478
0.388831
0.388187
0.387546
0.386907
0.38627
0.385636
0.385004
0.384373
0.383745
0.383119
0.382495
0.381873
0.381253
0.380634
0.380018
0.379402
0.378788
0.378176
0.377565
0.376955
0.376346
0.375739
0.375132
0.374526
0.373921
0.373316
0.372712
0.372109
0.371506
0.370903
0.3703
0.444629
0.429923
0.415193
0.413783
0.413045
0.41231
0.411576
0.410845
0.410116
0.409389
0.408665
0.407944
0.407225
0.406509
0.405795
0.405084
0.404375
0.403669
0.402966
0.402265
0.401568
0.400873
0.40018
0.399491
0.398804
0.39812
0.397439
0.396761
0.396085
0.395412
0.394742
0.394075
0.39341
0.392748
0.392089
0.391432
0.390778
0.390127
0.389478
0.388832
0.388188
0.387546
0.386907
0.38627
0.385636
0.385004
0.384374
0.383746
0.38312
0.382496
0.381873
0.381253
0.380635
0.380018
0.379402
0.378788
0.378176
0.377565
0.376955
0.376346
0.375739
0.375132
0.374526
0.373921
0.373316
0.372713
0.372109
0.371506
0.370903
0.3703
0.444629
0.429923
0.415193
0.413784
0.413046
0.41231
0.411576
0.410845
0.410116
0.40939
0.408666
0.407944
0.407225
0.406509
0.405795
0.405084
0.404375
0.403669
0.402966
0.402266
0.401568
0.400873
0.400181
0.399491
0.398804
0.39812
0.397439
0.396761
0.396085
0.395412
0.394742
0.394075
0.39341
0.392748
0.392089
0.391432
0.390778
0.390127
0.389478
0.388832
0.388188
0.387546
0.386907
0.38627
0.385636
0.385004
0.384374
0.383746
0.38312
0.382496
0.381874
0.381253
0.380635
0.380018
0.379402
0.378789
0.378176
0.377565
0.376955
0.376346
0.375739
0.375132
0.374526
0.373921
0.373316
0.372713
0.372109
0.371506
0.370903
0.3703
0.444629
0.429923
0.415193
0.413784
0.413046
0.41231
0.411576
0.410845
0.410116
0.40939
0.408666
0.407944
0.407225
0.406509
0.405795
0.405084
0.404375
0.403669
0.402966
0.402266
0.401568
0.400873
0.400181
0.399491
0.398804
0.398121
0.397439
0.396761
0.396085
0.395412
0.394742
0.394075
0.39341
0.392748
0.392089
0.391432
0.390778
0.390127
0.389478
0.388832
0.388188
0.387546
0.386907
0.386271
0.385636
0.385004
0.384374
0.383746
0.38312
0.382496
0.381874
0.381253
0.380635
0.380018
0.379402
0.378789
0.378176
0.377565
0.376955
0.376346
0.375739
0.375132
0.374526
0.373921
0.373316
0.372713
0.372109
0.371506
0.370903
0.3703
0.444629
0.429923
0.415193
0.413784
0.413046
0.41231
0.411576
0.410845
0.410116
0.40939
0.408666
0.407944
0.407225
0.406509
0.405795
0.405084
0.404375
0.403669
0.402966
0.402266
0.401568
0.400873
0.400181
0.399491
0.398805
0.398121
0.397439
0.396761
0.396085
0.395413
0.394742
0.394075
0.39341
0.392748
0.392089
0.391432
0.390778
0.390127
0.389478
0.388832
0.388188
0.387546
0.386907
0.386271
0.385636
0.385004
0.384374
0.383746
0.38312
0.382496
0.381874
0.381253
0.380635
0.380018
0.379402
0.378789
0.378176
0.377565
0.376955
0.376346
0.375739
0.375132
0.374526
0.373921
0.373316
0.372713
0.372109
0.371506
0.370903
0.3703
0.444629
0.429923
0.415193
0.413784
0.413046
0.41231
0.411576
0.410845
0.410116
0.40939
0.408666
0.407944
0.407225
0.406509
0.405795
0.405084
0.404375
0.40367
0.402966
0.402266
0.401568
0.400873
0.400181
0.399491
0.398805
0.398121
0.39744
0.396761
0.396085
0.395413
0.394742
0.394075
0.39341
0.392748
0.392089
0.391433
0.390778
0.390127
0.389478
0.388832
0.388188
0.387546
0.386907
0.386271
0.385636
0.385004
0.384374
0.383746
0.38312
0.382496
0.381874
0.381253
0.380635
0.380018
0.379402
0.378789
0.378176
0.377565
0.376955
0.376346
0.375739
0.375132
0.374526
0.373921
0.373316
0.372713
0.372109
0.371506
0.370903
0.3703
0.444629
0.429923
0.415193
0.413784
0.413046
0.41231
0.411576
0.410845
0.410116
0.40939
0.408666
0.407944
0.407225
0.406509
0.405795
0.405084
0.404375
0.40367
0.402966
0.402266
0.401568
0.400873
0.400181
0.399491
0.398805
0.398121
0.39744
0.396761
0.396086
0.395413
0.394743
0.394075
0.39341
0.392748
0.392089
0.391433
0.390779
0.390127
0.389478
0.388832
0.388188
0.387546
0.386907
0.386271
0.385636
0.385004
0.384374
0.383746
0.38312
0.382496
0.381874
0.381253
0.380635
0.380018
0.379403
0.378789
0.378176
0.377565
0.376955
0.376346
0.375739
0.375132
0.374526
0.373921
0.373316
0.372713
0.372109
0.371506
0.370903
0.3703
0.444629
0.429923
0.415193
0.413784
0.413046
0.41231
0.411576
0.410845
0.410116
0.40939
0.408666
0.407944
0.407225
0.406509
0.405795
0.405084
0.404375
0.40367
0.402966
0.402266
0.401568
0.400873
0.400181
0.399491
0.398805
0.398121
0.39744
0.396761
0.396086
0.395413
0.394743
0.394075
0.39341
0.392749
0.392089
0.391433
0.390779
0.390127
0.389478
0.388832
0.388188
0.387547
0.386907
0.386271
0.385636
0.385004
0.384374
0.383746
0.38312
0.382496
0.381874
0.381253
0.380635
0.380018
0.379403
0.378789
0.378176
0.377565
0.376955
0.376346
0.375739
0.375132
0.374526
0.373921
0.373316
0.372713
0.372109
0.371506
0.370903
0.3703
0.444629
0.429923
0.415193
0.413784
0.413046
0.41231
0.411576
0.410845
0.410116
0.40939
0.408666
0.407944
0.407225
0.406509
0.405795
0.405084
0.404376
0.40367
0.402966
0.402266
0.401568
0.400873
0.400181
0.399491
0.398805
0.398121
0.39744
0.396761
0.396086
0.395413
0.394743
0.394075
0.39341
0.392749
0.392089
0.391433
0.390779
0.390127
0.389478
0.388832
0.388188
0.387547
0.386907
0.386271
0.385636
0.385004
0.384374
0.383746
0.38312
0.382496
0.381874
0.381253
0.380635
0.380018
0.379403
0.378789
0.378176
0.377565
0.376955
0.376346
0.375739
0.375132
0.374526
0.373921
0.373316
0.372713
0.372109
0.371506
0.370903
0.3703
0.444629
0.429923
0.415193
0.413784
0.413046
0.41231
0.411576
0.410845
0.410116
0.40939
0.408666
0.407944
0.407225
0.406509
0.405795
0.405084
0.404376
0.40367
0.402966
0.402266
0.401568
0.400873
0.400181
0.399491
0.398805
0.398121
0.39744
0.396761
0.396086
0.395413
0.394743
0.394075
0.393411
0.392749
0.392089
0.391433
0.390779
0.390127
0.389478
0.388832
0.388188
0.387547
0.386907
0.386271
0.385636
0.385004
0.384374
0.383746
0.38312
0.382496
0.381874
0.381253
0.380635
0.380018
0.379403
0.378789
0.378176
0.377565
0.376955
0.376346
0.375739
0.375132
0.374526
0.373921
0.373317
0.372713
0.372109
0.371506
0.370903
0.3703
0.444629
0.429923
0.415193
0.413784
0.413046
0.41231
0.411576
0.410845
0.410116
0.40939
0.408666
0.407944
0.407225
0.406509
0.405795
0.405084
0.404376
0.40367
0.402966
0.402266
0.401568
0.400873
0.400181
0.399491
0.398805
0.398121
0.39744
0.396761
0.396086
0.395413
0.394743
0.394075
0.393411
0.392749
0.392089
0.391433
0.390779
0.390127
0.389478
0.388832
0.388188
0.387547
0.386907
0.386271
0.385636
0.385004
0.384374
0.383746
0.38312
0.382496
0.381874
0.381253
0.380635
0.380018
0.379403
0.378789
0.378176
0.377565
0.376955
0.376346
0.375739
0.375132
0.374526
0.373921
0.373317
0.372713
0.372109
0.371506
0.370903
0.3703
0.444629
0.429923
0.415193
0.413784
0.413046
0.41231
0.411576
0.410845
0.410116
0.40939
0.408666
0.407944
0.407226
0.406509
0.405795
0.405084
0.404376
0.40367
0.402966
0.402266
0.401568
0.400873
0.400181
0.399491
0.398805
0.398121
0.39744
0.396761
0.396086
0.395413
0.394743
0.394075
0.393411
0.392749
0.392089
0.391433
0.390779
0.390127
0.389478
0.388832
0.388188
0.387547
0.386907
0.386271
0.385636
0.385004
0.384374
0.383746
0.38312
0.382496
0.381874
0.381253
0.380635
0.380018
0.379403
0.378789
0.378176
0.377565
0.376955
0.376346
0.375739
0.375132
0.374526
0.373921
0.373317
0.372713
0.372109
0.371506
0.370903
0.3703
0.444629
0.429923
0.415193
0.413784
0.413046
0.41231
0.411576
0.410845
0.410116
0.40939
0.408666
0.407944
0.407226
0.406509
0.405795
0.405084
0.404376
0.40367
0.402966
0.402266
0.401568
0.400873
0.400181
0.399491
0.398805
0.398121
0.39744
0.396761
0.396086
0.395413
0.394743
0.394075
0.393411
0.392749
0.392089
0.391433
0.390779
0.390127
0.389478
0.388832
0.388188
0.387547
0.386907
0.386271
0.385636
0.385004
0.384374
0.383746
0.38312
0.382496
0.381874
0.381253
0.380635
0.380018
0.379403
0.378789
0.378176
0.377565
0.376955
0.376346
0.375739
0.375132
0.374526
0.373921
0.373317
0.372713
0.372109
0.371506
0.370903
0.3703
0.444629
0.429923
0.415193
0.413784
0.413046
0.41231
0.411576
0.410845
0.410116
0.40939
0.408666
0.407944
0.407226
0.406509
0.405795
0.405084
0.404376
0.40367
0.402966
0.402266
0.401568
0.400873
0.400181
0.399491
0.398805
0.398121
0.39744
0.396761
0.396086
0.395413
0.394743
0.394075
0.393411
0.392749
0.392089
0.391433
0.390779
0.390127
0.389478
0.388832
0.388188
0.387547
0.386907
0.386271
0.385636
0.385004
0.384374
0.383746
0.38312
0.382496
0.381874
0.381253
0.380635
0.380018
0.379403
0.378789
0.378176
0.377565
0.376955
0.376346
0.375739
0.375132
0.374526
0.373921
0.373317
0.372713
0.372109
0.371506
0.370903
0.3703
0.444629
0.429923
0.415193
0.413784
0.413046
0.41231
0.411576
0.410845
0.410116
0.40939
0.408666
0.407944
0.407226
0.406509
0.405795
0.405084
0.404376