/*--------------------------------*- C++ -*----------------------------------*\
  =========                 |
  \\      /  F ield         | OpenFOAM: The Open Source CFD Toolbox
   \\    /   O peration     | Website:  https://openfoam.org
    \\  /    A nd           | Version:  13
     \\/     M anipulation  |
\*---------------------------------------------------------------------------*/
FoamFile
{
    format      ascii;
    class       volScalarField;
    location    "65";
    object      nut;
}
// * * * * * * * * * * * * * * * * * * * * * * * * * * * * * * * * * * * * * //

dimensions      [0 2 -1 0 0 0 0];

internalField   nonuniform List<scalar> 
315000
(
6.64809e-14
1.74028e-11
3.96852e-10
7.11342e-10
1.02948e-09
1.35144e-09
1.6776e-09
2.00827e-09
2.34357e-09
2.68334e-09
3.02716e-09
3.37434e-09
3.72395e-09
4.07484e-09
4.42568e-09
4.77502e-09
5.12127e-09
5.46277e-09
5.79782e-09
6.12466e-09
6.44154e-09
6.74671e-09
7.03846e-09
7.31512e-09
7.57506e-09
7.81675e-09
8.03874e-09
8.23968e-09
8.41836e-09
8.57366e-09
8.70463e-09
8.81045e-09
8.89045e-09
8.94414e-09
8.97118e-09
8.9714e-09
8.9448e-09
8.89154e-09
8.81197e-09
8.70658e-09
8.57602e-09
8.42113e-09
8.24285e-09
8.04229e-09
7.82067e-09
7.57933e-09
7.31972e-09
7.04338e-09
6.75191e-09
6.44699e-09
6.13034e-09
5.8037e-09
5.46883e-09
5.12745e-09
4.7813e-09
4.43202e-09
4.08119e-09
3.73027e-09
3.38059e-09
3.03329e-09
2.6893e-09
2.3493e-09
2.01371e-09
1.68268e-09
1.35607e-09
1.03355e-09
7.14664e-10
3.9912e-10
1.7528e-11
6.70167e-14
1.66484e-12
4.43143e-10
1.00524e-07
1.80924e-07
2.61408e-07
3.42227e-07
4.23569e-07
5.05551e-07
5.88211e-07
6.71511e-07
7.55338e-07
8.39514e-07
9.23804e-07
1.00793e-06
1.09157e-06
1.17439e-06
1.25602e-06
1.3361e-06
1.41425e-06
1.49009e-06
1.56326e-06
1.63339e-06
1.70012e-06
1.76314e-06
1.82211e-06
1.87673e-06
1.92673e-06
1.97185e-06
2.01186e-06
2.04655e-06
2.07574e-06
2.09928e-06
2.11705e-06
2.12896e-06
2.13495e-06
2.13499e-06
2.12907e-06
2.11723e-06
2.09953e-06
2.07606e-06
2.04694e-06
2.01232e-06
1.97238e-06
1.92733e-06
1.87739e-06
1.82283e-06
1.76392e-06
1.70096e-06
1.63427e-06
1.56419e-06
1.49106e-06
1.41526e-06
1.33714e-06
1.25709e-06
1.17547e-06
1.09266e-06
1.00902e-06
9.24892e-07
8.40586e-07
7.56386e-07
6.72523e-07
5.89175e-07
5.06452e-07
4.24393e-07
3.42956e-07
2.62021e-07
1.81394e-07
1.00815e-07
4.44574e-10
1.67046e-12
6.74306e-12
1.79753e-09
1.00913e-06
1.76694e-06
2.49488e-06
3.20073e-06
3.88992e-06
4.56604e-06
5.23124e-06
5.88656e-06
6.53215e-06
7.16754e-06
7.79176e-06
8.40354e-06
9.00141e-06
9.58379e-06
1.01491e-05
1.06956e-05
1.12217e-05
1.17258e-05
1.22065e-05
1.26622e-05
1.30915e-05
1.34932e-05
1.3866e-05
1.42087e-05
1.45202e-05
1.47997e-05
1.50462e-05
1.52589e-05
1.54372e-05
1.55806e-05
1.56885e-05
1.57607e-05
1.57969e-05
1.57971e-05
1.57612e-05
1.56893e-05
1.55816e-05
1.54386e-05
1.52606e-05
1.50481e-05
1.4802e-05
1.45228e-05
1.42115e-05
1.38691e-05
1.34966e-05
1.30952e-05
1.26661e-05
1.22106e-05
1.17302e-05
1.12263e-05
1.07004e-05
1.0154e-05
9.58892e-06
9.00665e-06
8.40885e-06
7.79711e-06
7.17288e-06
6.53743e-06
5.89172e-06
5.23621e-06
4.57075e-06
3.89428e-06
3.20464e-06
2.49821e-06
1.76953e-06
1.01077e-06
1.80079e-09
6.75567e-12
1.18283e-11
3.15402e-09
1.73061e-06
2.9715e-06
4.13448e-06
5.24138e-06
6.30642e-06
7.33873e-06
8.34397e-06
9.32534e-06
1.02843e-05
1.1221e-05
1.2135e-05
1.30252e-05
1.38902e-05
1.47285e-05
1.55383e-05
1.63181e-05
1.70661e-05
1.77807e-05
1.84603e-05
1.91031e-05
1.97075e-05
2.02721e-05
2.07954e-05
2.12758e-05
2.1712e-05
2.2103e-05
2.24475e-05
2.27446e-05
2.29935e-05
2.31935e-05
2.3344e-05
2.34446e-05
2.34951e-05
2.34952e-05
2.3445e-05
2.33447e-05
2.31944e-05
2.29947e-05
2.27461e-05
2.24492e-05
2.2105e-05
2.17143e-05
2.12783e-05
2.07981e-05
2.02752e-05
1.97108e-05
1.91066e-05
1.8464e-05
1.77847e-05
1.70703e-05
1.63224e-05
1.55428e-05
1.47331e-05
1.3895e-05
1.30301e-05
1.214e-05
1.1226e-05
1.02892e-05
9.33016e-06
8.34865e-06
7.34318e-06
6.31057e-06
5.24514e-06
4.13771e-06
2.97405e-06
1.73227e-06
3.1575e-09
1.18419e-11
1.67027e-11
4.45524e-09
2.39562e-06
4.04985e-06
5.57449e-06
7.00918e-06
8.37823e-06
9.69677e-06
1.09741e-05
1.22157e-05
1.34242e-05
1.46009e-05
1.57458e-05
1.68581e-05
1.79369e-05
1.89809e-05
1.99886e-05
2.09584e-05
2.18887e-05
2.27777e-05
2.36233e-05
2.44235e-05
2.51761e-05
2.58789e-05
2.65301e-05
2.71279e-05
2.76705e-05
2.81566e-05
2.85847e-05
2.89538e-05
2.92629e-05
2.95111e-05
2.96979e-05
2.98227e-05
2.98853e-05
2.98854e-05
2.9823e-05
2.96984e-05
2.95118e-05
2.92638e-05
2.89549e-05
2.8586e-05
2.81581e-05
2.76722e-05
2.71298e-05
2.65323e-05
2.58813e-05
2.51786e-05
2.44262e-05
2.36263e-05
2.27808e-05
2.1892e-05
2.09618e-05
1.99921e-05
1.89846e-05
1.79408e-05
1.6862e-05
1.57497e-05
1.46049e-05
1.34282e-05
1.22196e-05
1.09779e-05
9.70042e-06
8.38164e-06
7.01228e-06
5.57718e-06
4.05201e-06
2.39706e-06
4.45841e-09
1.67152e-11
2.092e-11
5.58193e-09
2.95264e-06
4.93359e-06
6.73893e-06
8.42558e-06
1.00271e-05
1.15638e-05
1.30481e-05
1.44873e-05
1.58856e-05
1.72448e-05
1.85655e-05
1.98475e-05
2.10901e-05
2.22923e-05
2.34529e-05
2.45702e-05
2.56425e-05
2.66673e-05
2.76421e-05
2.85643e-05
2.94314e-05
3.02409e-05
3.09908e-05
3.1679e-05
3.23037e-05
3.28631e-05
3.33558e-05
3.37806e-05
3.41362e-05
3.44218e-05
3.46367e-05
3.47803e-05
3.48522e-05
3.48523e-05
3.47805e-05
3.46371e-05
3.44223e-05
3.41368e-05
3.37813e-05
3.33567e-05
3.28641e-05
3.23049e-05
3.16804e-05
3.09923e-05
3.02426e-05
2.94332e-05
2.85663e-05
2.76442e-05
2.66696e-05
2.56449e-05
2.45728e-05
2.34555e-05
2.22951e-05
2.10929e-05
1.98504e-05
1.85684e-05
1.72478e-05
1.58886e-05
1.44903e-05
1.3051e-05
1.15666e-05
1.00297e-05
8.42798e-06
6.74103e-06
4.93529e-06
2.9538e-06
5.58462e-09
2.09306e-11
2.41943e-11
6.45745e-09
3.37473e-06
5.59316e-06
7.60035e-06
9.46729e-06
1.12347e-05
1.29269e-05
1.45587e-05
1.61388e-05
1.76723e-05
1.91616e-05
2.06079e-05
2.20113e-05
2.33714e-05
2.46874e-05
2.59582e-05
2.7182e-05
2.83564e-05
2.94788e-05
3.05463e-05
3.1556e-05
3.25052e-05
3.33914e-05
3.42123e-05
3.49656e-05
3.56493e-05
3.62617e-05
3.6801e-05
3.7266e-05
3.76553e-05
3.7968e-05
3.82032e-05
3.83604e-05
3.84391e-05
3.84391e-05
3.83605e-05
3.82034e-05
3.79683e-05
3.76557e-05
3.72665e-05
3.68017e-05
3.62624e-05
3.56502e-05
3.49666e-05
3.42134e-05
3.33926e-05
3.25065e-05
3.15574e-05
3.05478e-05
2.94805e-05
2.83582e-05
2.71839e-05
2.59602e-05
2.46895e-05
2.33736e-05
2.20136e-05
2.06102e-05
1.9164e-05
1.76746e-05
1.61412e-05
1.4561e-05
1.29291e-05
1.12367e-05
9.46918e-06
7.60201e-06
5.59451e-06
3.37567e-06
6.45971e-09
2.42033e-11
2.64899e-11
7.07182e-09
3.66582e-06
6.04354e-06
8.18537e-06
1.01723e-05
1.205e-05
1.38457e-05
1.55756e-05
1.72495e-05
1.8873e-05
2.04491e-05
2.19792e-05
2.34638e-05
2.49026e-05
2.62949e-05
2.76396e-05
2.89347e-05
3.01777e-05
3.13654e-05
3.2495e-05
3.35633e-05
3.45677e-05
3.55054e-05
3.63739e-05
3.7171e-05
3.78945e-05
3.85424e-05
3.91132e-05
3.96052e-05
4.00172e-05
4.03481e-05
4.0597e-05
4.07634e-05
4.08467e-05
4.08467e-05
4.07635e-05
4.05972e-05
4.03484e-05
4.00175e-05
3.96056e-05
3.91137e-05
3.8543e-05
3.78952e-05
3.71718e-05
3.63748e-05
3.55064e-05
3.45688e-05
3.35645e-05
3.24963e-05
3.13669e-05
3.01792e-05
2.89364e-05
2.76413e-05
2.62967e-05
2.49044e-05
2.34657e-05
2.19812e-05
2.04511e-05
1.8875e-05
1.72515e-05
1.55775e-05
1.38475e-05
1.20518e-05
1.01739e-05
8.18679e-06
6.0447e-06
3.66663e-06
7.07384e-09
2.6498e-11
2.79561e-11
7.46458e-09
3.84989e-06
6.32665e-06
8.55198e-06
1.06133e-05
1.25594e-05
1.44193e-05
1.62101e-05
1.79423e-05
1.96219e-05
2.12521e-05
2.28345e-05
2.43698e-05
2.58577e-05
2.72979e-05
2.86889e-05
3.00287e-05
3.13145e-05
3.25432e-05
3.37116e-05
3.48167e-05
3.58556e-05
3.68256e-05
3.7724e-05
3.85486e-05
3.9297e-05
3.99673e-05
4.05578e-05
4.10668e-05
4.14931e-05
4.18355e-05
4.2093e-05
4.22651e-05
4.23513e-05
4.23513e-05
4.22652e-05
4.20932e-05
4.18357e-05
4.14935e-05
4.10673e-05
4.05583e-05
3.9968e-05
3.92977e-05
3.85494e-05
3.7725e-05
3.68266e-05
3.58567e-05
3.48179e-05
3.37129e-05
3.25446e-05
3.1316e-05
3.00303e-05
2.86906e-05
2.72996e-05
2.58596e-05
2.43716e-05
2.28364e-05
2.1254e-05
1.96238e-05
1.79443e-05
1.6212e-05
1.44211e-05
1.25612e-05
1.06148e-05
8.55334e-06
6.32776e-06
3.85067e-06
7.46655e-09
2.7964e-11
2.88163e-11
7.69522e-09
3.95731e-06
6.49134e-06
8.76493e-06
1.08693e-05
1.2855e-05
1.47521e-05
1.65783e-05
1.83444e-05
2.00566e-05
2.17183e-05
2.33313e-05
2.48961e-05
2.64129e-05
2.7881e-05
2.92992e-05
3.06652e-05
3.19761e-05
3.32287e-05
3.44199e-05
3.55466e-05
3.66058e-05
3.75947e-05
3.85107e-05
3.93513e-05
4.01144e-05
4.07979e-05
4.13999e-05
4.19189e-05
4.23536e-05
4.27026e-05
4.29653e-05
4.31408e-05
4.32286e-05
4.32287e-05
4.31409e-05
4.29655e-05
4.2703e-05
4.2354e-05
4.19194e-05
4.14005e-05
4.07986e-05
4.01152e-05
3.93522e-05
3.85117e-05
3.75958e-05
3.6607e-05
3.55479e-05
3.44214e-05
3.32303e-05
3.19777e-05
3.06669e-05
2.9301e-05
2.78829e-05
2.64148e-05
2.48981e-05
2.33333e-05
2.17203e-05
2.00586e-05
1.83464e-05
1.65803e-05
1.4754e-05
1.28568e-05
1.08709e-05
8.76633e-06
6.49248e-06
3.95811e-06
7.69723e-09
2.88244e-11
2.92829e-11
7.82046e-09
4.01547e-06
6.58038e-06
8.88e-06
1.10076e-05
1.30148e-05
1.4932e-05
1.67775e-05
1.8562e-05
2.0292e-05
2.19709e-05
2.36005e-05
2.51816e-05
2.67141e-05
2.81976e-05
2.96306e-05
3.1011e-05
3.23357e-05
3.36015e-05
3.48053e-05
3.59438e-05
3.70141e-05
3.80134e-05
3.89391e-05
3.97886e-05
4.05597e-05
4.12504e-05
4.18588e-05
4.23833e-05
4.28226e-05
4.31754e-05
4.34408e-05
4.36181e-05
4.37069e-05
4.3707e-05
4.36183e-05
4.3441e-05
4.31757e-05
4.2823e-05
4.23839e-05
4.18595e-05
4.12512e-05
4.05607e-05
3.97896e-05
3.89402e-05
3.80147e-05
3.70155e-05
3.59453e-05
3.48068e-05
3.36032e-05
3.23375e-05
3.10129e-05
2.96326e-05
2.81996e-05
2.67162e-05
2.51837e-05
2.36027e-05
2.19731e-05
2.02941e-05
1.85641e-05
1.67796e-05
1.4934e-05
1.30167e-05
1.10093e-05
8.88147e-06
6.58158e-06
4.0163e-06
7.82255e-09
2.92913e-11
2.95183e-11
7.8837e-09
4.04481e-06
6.62528e-06
8.93803e-06
1.10774e-05
1.30955e-05
1.50229e-05
1.68782e-05
1.86721e-05
2.04112e-05
2.20989e-05
2.3737e-05
2.53264e-05
2.6867e-05
2.83584e-05
2.97991e-05
3.11869e-05
3.25187e-05
3.37913e-05
3.50015e-05
3.61461e-05
3.72222e-05
3.82269e-05
3.91576e-05
4.00117e-05
4.07869e-05
4.14814e-05
4.20931e-05
4.26204e-05
4.3062e-05
4.34167e-05
4.36836e-05
4.38619e-05
4.39512e-05
4.39513e-05
4.38621e-05
4.36839e-05
4.34171e-05
4.30626e-05
4.26211e-05
4.20938e-05
4.14823e-05
4.0788e-05
4.00128e-05
3.91588e-05
3.82283e-05
3.72237e-05
3.61478e-05
3.50032e-05
3.37932e-05
3.25206e-05
3.11889e-05
2.98012e-05
2.83605e-05
2.68692e-05
2.53287e-05
2.37393e-05
2.21011e-05
2.04134e-05
1.86743e-05
1.68803e-05
1.5025e-05
1.30974e-05
1.10791e-05
8.93957e-06
6.62653e-06
4.04568e-06
7.88587e-09
2.9527e-11
2.96292e-11
7.91352e-09
4.05865e-06
6.64646e-06
8.96543e-06
1.11103e-05
1.31336e-05
1.5066e-05
1.69259e-05
1.87243e-05
2.04677e-05
2.21596e-05
2.38019e-05
2.53953e-05
2.69398e-05
2.8435e-05
2.98795e-05
3.12708e-05
3.26061e-05
3.3882e-05
3.50953e-05
3.62429e-05
3.73218e-05
3.83291e-05
3.92621e-05
4.01184e-05
4.08957e-05
4.1592e-05
4.22053e-05
4.2734e-05
4.31768e-05
4.35324e-05
4.38e-05
4.39787e-05
4.40683e-05
4.40683e-05
4.39789e-05
4.38003e-05
4.35328e-05
4.31773e-05
4.27347e-05
4.22061e-05
4.15929e-05
4.08968e-05
4.01196e-05
3.92634e-05
3.83305e-05
3.73233e-05
3.62446e-05
3.50971e-05
3.38839e-05
3.26081e-05
3.12729e-05
2.98816e-05
2.84373e-05
2.69421e-05
2.53976e-05
2.38043e-05
2.2162e-05
2.04701e-05
1.87266e-05
1.69281e-05
1.50681e-05
1.31356e-05
1.11122e-05
8.96702e-06
6.64775e-06
4.05955e-06
7.91576e-09
2.96382e-11
2.96783e-11
7.92673e-09
4.06478e-06
6.65585e-06
8.97758e-06
1.1125e-05
1.31505e-05
1.50851e-05
1.69471e-05
1.87476e-05
2.04929e-05
2.21868e-05
2.38309e-05
2.54261e-05
2.69724e-05
2.84693e-05
2.99154e-05
3.13084e-05
3.26452e-05
3.39226e-05
3.51374e-05
3.62863e-05
3.73665e-05
3.83749e-05
3.93091e-05
4.01664e-05
4.09447e-05
4.16417e-05
4.22557e-05
4.27851e-05
4.32284e-05
4.35844e-05
4.38523e-05
4.40313e-05
4.4121e-05
4.4121e-05
4.40315e-05
4.38526e-05
4.35849e-05
4.3229e-05
4.27858e-05
4.22566e-05
4.16427e-05
4.09458e-05
4.01677e-05
3.93105e-05
3.83765e-05
3.73681e-05
3.62881e-05
3.51392e-05
3.39246e-05
3.26473e-05
3.13106e-05
2.99177e-05
2.84716e-05
2.69748e-05
2.54285e-05
2.38333e-05
2.21892e-05
2.04953e-05
1.87499e-05
1.69494e-05
1.50873e-05
1.31526e-05
1.11268e-05
8.9792e-06
6.65717e-06
4.0657e-06
7.92901e-09
2.96874e-11
2.96988e-11
7.93225e-09
4.06734e-06
6.65978e-06
8.98267e-06
1.11311e-05
1.31576e-05
1.50931e-05
1.6956e-05
1.87573e-05
2.05035e-05
2.21982e-05
2.38431e-05
2.54391e-05
2.69861e-05
2.84837e-05
2.99306e-05
3.13243e-05
3.26617e-05
3.39398e-05
3.51551e-05
3.63046e-05
3.73853e-05
3.83943e-05
3.93289e-05
4.01866e-05
4.09652e-05
4.16626e-05
4.22769e-05
4.28065e-05
4.32501e-05
4.36063e-05
4.38743e-05
4.40534e-05
4.41431e-05
4.41431e-05
4.40536e-05
4.38746e-05
4.36068e-05
4.32507e-05
4.28073e-05
4.22778e-05
4.16636e-05
4.09664e-05
4.01879e-05
3.93303e-05
3.83958e-05
3.73869e-05
3.63064e-05
3.5157e-05
3.39418e-05
3.26638e-05
3.13265e-05
2.99329e-05
2.84861e-05
2.69885e-05
2.54415e-05
2.38455e-05
2.22006e-05
2.05059e-05
1.87597e-05
1.69583e-05
1.50953e-05
1.31597e-05
1.1133e-05
8.98431e-06
6.66111e-06
4.06827e-06
7.93454e-09
2.97079e-11
2.97068e-11
7.93442e-09
4.06836e-06
6.66133e-06
8.98468e-06
1.11335e-05
1.31605e-05
1.50963e-05
1.69595e-05
1.87612e-05
2.05077e-05
2.22027e-05
2.38479e-05
2.54442e-05
2.69916e-05
2.84895e-05
2.99366e-05
3.13306e-05
3.26683e-05
3.39466e-05
3.51621e-05
3.63119e-05
3.73928e-05
3.84019e-05
3.93367e-05
4.01946e-05
4.09734e-05
4.16709e-05
4.22853e-05
4.2815e-05
4.32586e-05
4.36149e-05
4.3883e-05
4.40621e-05
4.41518e-05
4.41519e-05
4.40623e-05
4.38833e-05
4.36154e-05
4.32592e-05
4.28158e-05
4.22862e-05
4.16719e-05
4.09745e-05
4.01959e-05
3.93381e-05
3.84035e-05
3.73944e-05
3.63137e-05
3.5164e-05
3.39486e-05
3.26704e-05
3.13328e-05
2.99389e-05
2.84918e-05
2.6994e-05
2.54466e-05
2.38504e-05
2.22052e-05
2.05102e-05
1.87636e-05
1.69619e-05
1.50985e-05
1.31625e-05
1.11354e-05
8.98633e-06
6.66267e-06
4.06929e-06
7.93673e-09
2.9716e-11
2.97099e-11
7.93524e-09
4.06874e-06
6.66192e-06
8.98544e-06
1.11344e-05
1.31615e-05
1.50975e-05
1.69609e-05
1.87627e-05
2.05093e-05
2.22044e-05
2.38498e-05
2.54462e-05
2.69936e-05
2.84917e-05
2.99389e-05
3.1333e-05
3.26708e-05
3.39491e-05
3.51648e-05
3.63146e-05
3.73956e-05
3.84048e-05
3.93397e-05
4.01977e-05
4.09765e-05
4.1674e-05
4.22885e-05
4.28182e-05
4.32619e-05
4.36182e-05
4.38863e-05
4.40654e-05
4.41551e-05
4.41552e-05
4.40656e-05
4.38866e-05
4.36187e-05
4.32625e-05
4.2819e-05
4.22894e-05
4.1675e-05
4.09776e-05
4.01989e-05
3.93411e-05
3.84064e-05
3.73973e-05
3.63164e-05
3.51667e-05
3.39512e-05
3.26729e-05
3.13352e-05
2.99412e-05
2.8494e-05
2.6996e-05
2.54486e-05
2.38522e-05
2.22069e-05
2.05118e-05
1.87651e-05
1.69632e-05
1.50997e-05
1.31636e-05
1.11363e-05
8.98709e-06
6.66326e-06
4.06967e-06
7.93756e-09
2.97191e-11
2.97109e-11
7.93554e-09
4.06887e-06
6.66213e-06
8.98571e-06
1.11348e-05
1.31619e-05
1.50979e-05
1.69614e-05
1.87632e-05
2.05099e-05
2.2205e-05
2.38504e-05
2.54469e-05
2.69944e-05
2.84925e-05
2.99397e-05
3.13338e-05
3.26717e-05
3.39501e-05
3.51658e-05
3.63156e-05
3.73966e-05
3.84059e-05
3.93408e-05
4.01988e-05
4.09776e-05
4.16752e-05
4.22897e-05
4.28194e-05
4.3263e-05
4.36194e-05
4.38875e-05
4.40666e-05
4.41563e-05
4.41564e-05
4.40668e-05
4.38878e-05
4.36198e-05
4.32637e-05
4.28202e-05
4.22905e-05
4.16762e-05
4.09787e-05
4.02001e-05
3.93422e-05
3.84074e-05
3.73983e-05
3.63174e-05
3.51677e-05
3.39521e-05
3.26738e-05
3.1336e-05
2.9942e-05
2.84948e-05
2.69968e-05
2.54493e-05
2.38529e-05
2.22075e-05
2.05124e-05
1.87656e-05
1.69637e-05
1.51002e-05
1.3164e-05
1.11367e-05
8.98737e-06
6.66347e-06
4.06981e-06
7.93785e-09
2.97202e-11
2.97113e-11
7.93564e-09
4.06892e-06
6.6622e-06
8.98581e-06
1.11349e-05
1.3162e-05
1.50981e-05
1.69615e-05
1.87634e-05
2.05101e-05
2.22052e-05
2.38507e-05
2.54471e-05
2.69946e-05
2.84927e-05
2.994e-05
3.13341e-05
3.2672e-05
3.39504e-05
3.51661e-05
3.6316e-05
3.7397e-05
3.84063e-05
3.93411e-05
4.01992e-05
4.0978e-05
4.16756e-05
4.22901e-05
4.28198e-05
4.32635e-05
4.36198e-05
4.38879e-05
4.4067e-05
4.41567e-05
4.41568e-05
4.40672e-05
4.38882e-05
4.36203e-05
4.32641e-05
4.28206e-05
4.2291e-05
4.16766e-05
4.09791e-05
4.02004e-05
3.93426e-05
3.84078e-05
3.73987e-05
3.63178e-05
3.5168e-05
3.39525e-05
3.26741e-05
3.13363e-05
2.99423e-05
2.84951e-05
2.69971e-05
2.54496e-05
2.38531e-05
2.22077e-05
2.05126e-05
1.87658e-05
1.69639e-05
1.51003e-05
1.31641e-05
1.11368e-05
8.98746e-06
6.66354e-06
4.06986e-06
7.93795e-09
2.97205e-11
2.97114e-11
7.93567e-09
4.06894e-06
6.66222e-06
8.98584e-06
1.11349e-05
1.31621e-05
1.50981e-05
1.69616e-05
1.87634e-05
2.05102e-05
2.22053e-05
2.38507e-05
2.54472e-05
2.69947e-05
2.84928e-05
2.99401e-05
3.13342e-05
3.26721e-05
3.39505e-05
3.51662e-05
3.63161e-05
3.73971e-05
3.84064e-05
3.93413e-05
4.01993e-05
4.09781e-05
4.16757e-05
4.22902e-05
4.282e-05
4.32636e-05
4.36199e-05
4.3888e-05
4.40672e-05
4.41569e-05
4.4157e-05
4.40674e-05
4.38884e-05
4.36204e-05
4.32642e-05
4.28207e-05
4.22911e-05
4.16767e-05
4.09793e-05
4.02006e-05
3.93427e-05
3.84079e-05
3.73988e-05
3.63179e-05
3.51682e-05
3.39526e-05
3.26742e-05
3.13365e-05
2.99424e-05
2.84952e-05
2.69972e-05
2.54497e-05
2.38532e-05
2.22078e-05
2.05126e-05
1.87659e-05
1.69639e-05
1.51004e-05
1.31642e-05
1.11368e-05
8.98749e-06
6.66357e-06
4.06987e-06
7.93798e-09
2.97207e-11
2.97115e-11
7.93568e-09
4.06894e-06
6.66223e-06
8.98585e-06
1.11349e-05
1.31621e-05
1.50982e-05
1.69616e-05
1.87635e-05
2.05102e-05
2.22053e-05
2.38508e-05
2.54472e-05
2.69948e-05
2.84929e-05
2.99402e-05
3.13343e-05
3.26722e-05
3.39506e-05
3.51663e-05
3.63161e-05
3.73971e-05
3.84064e-05
3.93413e-05
4.01993e-05
4.09782e-05
4.16758e-05
4.22903e-05
4.282e-05
4.32637e-05
4.362e-05
4.38881e-05
4.40672e-05
4.41569e-05
4.4157e-05
4.40674e-05
4.38884e-05
4.36205e-05
4.32643e-05
4.28208e-05
4.22911e-05
4.16768e-05
4.09793e-05
4.02006e-05
3.93428e-05
3.8408e-05
3.73988e-05
3.63179e-05
3.51682e-05
3.39526e-05
3.26743e-05
3.13365e-05
2.99424e-05
2.84952e-05
2.69972e-05
2.54497e-05
2.38532e-05
2.22078e-05
2.05126e-05
1.87659e-05
1.69639e-05
1.51004e-05
1.31642e-05
1.11368e-05
8.9875e-06
6.66358e-06
4.06988e-06
7.938e-09
2.97207e-11
2.97115e-11
7.93568e-09
4.06894e-06
6.66223e-06
8.98585e-06
1.11349e-05
1.31621e-05
1.50982e-05
1.69616e-05
1.87635e-05
2.05102e-05
2.22053e-05
2.38508e-05
2.54472e-05
2.69948e-05
2.84929e-05
2.99402e-05
3.13343e-05
3.26722e-05
3.39506e-05
3.51663e-05
3.63162e-05
3.73972e-05
3.84064e-05
3.93413e-05
4.01993e-05
4.09782e-05
4.16758e-05
4.22903e-05
4.282e-05
4.32637e-05
4.362e-05
4.38881e-05
4.40672e-05
4.4157e-05
4.4157e-05
4.40674e-05
4.38884e-05
4.36205e-05
4.32643e-05
4.28208e-05
4.22912e-05
4.16768e-05
4.09793e-05
4.02006e-05
3.93428e-05
3.8408e-05
3.73988e-05
3.6318e-05
3.51682e-05
3.39526e-05
3.26743e-05
3.13365e-05
2.99425e-05
2.84952e-05
2.69972e-05
2.54497e-05
2.38533e-05
2.22078e-05
2.05126e-05
1.87659e-05
1.69639e-05
1.51004e-05
1.31642e-05
1.11368e-05
8.98751e-06
6.66358e-06
4.06988e-06
7.938e-09
2.97207e-11
2.97115e-11
7.93568e-09
4.06894e-06
6.66223e-06
8.98585e-06
1.11349e-05
1.31621e-05
1.50982e-05
1.69616e-05
1.87635e-05
2.05102e-05
2.22053e-05
2.38508e-05
2.54472e-05
2.69948e-05
2.84929e-05
2.99402e-05
3.13343e-05
3.26722e-05
3.39506e-05
3.51663e-05
3.63162e-05
3.73972e-05
3.84064e-05
3.93413e-05
4.01993e-05
4.09782e-05
4.16758e-05
4.22903e-05
4.282e-05
4.32637e-05
4.362e-05
4.38881e-05
4.40672e-05
4.4157e-05
4.4157e-05
4.40674e-05
4.38884e-05
4.36205e-05
4.32643e-05
4.28208e-05
4.22912e-05
4.16768e-05
4.09793e-05
4.02006e-05
3.93428e-05
3.8408e-05
3.73988e-05
3.6318e-05
3.51682e-05
3.39526e-05
3.26743e-05
3.13365e-05
2.99425e-05
2.84952e-05
2.69972e-05
2.54497e-05
2.38533e-05
2.22078e-05
2.05126e-05
1.87659e-05
1.69639e-05
1.51004e-05
1.31642e-05
1.11368e-05
8.98751e-06
6.66358e-06
4.06988e-06
7.938e-09
2.97207e-11
2.97115e-11
7.93568e-09
4.06894e-06
6.66223e-06
8.98585e-06
1.11349e-05
1.31621e-05
1.50982e-05
1.69616e-05
1.87635e-05
2.05102e-05
2.22053e-05
2.38508e-05
2.54472e-05
2.69948e-05
2.84929e-05
2.99402e-05
3.13343e-05
3.26722e-05
3.39506e-05
3.51663e-05
3.63162e-05
3.73972e-05
3.84064e-05
3.93413e-05
4.01993e-05
4.09782e-05
4.16758e-05
4.22903e-05
4.282e-05
4.32637e-05
4.362e-05
4.38881e-05
4.40672e-05
4.4157e-05
4.4157e-05
4.40674e-05
4.38884e-05
4.36205e-05
4.32643e-05
4.28208e-05
4.22912e-05
4.16768e-05
4.09793e-05
4.02006e-05
3.93428e-05
3.8408e-05
3.73988e-05
3.6318e-05
3.51682e-05
3.39526e-05
3.26743e-05
3.13365e-05
2.99425e-05
2.84952e-05
2.69972e-05
2.54497e-05
2.38533e-05
2.22078e-05
2.05126e-05
1.87659e-05
1.69639e-05
1.51004e-05
1.31642e-05
1.11368e-05
8.98751e-06
6.66358e-06
4.06988e-06
7.938e-09
2.97207e-11
2.97115e-11
7.93568e-09
4.06894e-06
6.66223e-06
8.98585e-06
1.11349e-05
1.31621e-05
1.50982e-05
1.69616e-05
1.87635e-05
2.05102e-05
2.22053e-05
2.38508e-05
2.54472e-05
2.69948e-05
2.84929e-05
2.99402e-05
3.13343e-05
3.26722e-05
3.39506e-05
3.51663e-05
3.63162e-05
3.73972e-05
3.84064e-05
3.93413e-05
4.01993e-05
4.09782e-05
4.16758e-05
4.22903e-05
4.282e-05
4.32637e-05
4.362e-05
4.38881e-05
4.40672e-05
4.4157e-05
4.4157e-05
4.40674e-05
4.38884e-05
4.36205e-05
4.32643e-05
4.28208e-05
4.22912e-05
4.16768e-05
4.09793e-05
4.02006e-05
3.93428e-05
3.8408e-05
3.73988e-05
3.6318e-05
3.51682e-05
3.39526e-05
3.26743e-05
3.13365e-05
2.99425e-05
2.84952e-05
2.69972e-05
2.54497e-05
2.38533e-05
2.22078e-05
2.05126e-05
1.87659e-05
1.69639e-05
1.51004e-05
1.31642e-05
1.11368e-05
8.98751e-06
6.66358e-06
4.06988e-06
7.938e-09
2.97207e-11
2.97115e-11
7.93568e-09
4.06894e-06
6.66223e-06
8.98585e-06
1.11349e-05
1.31621e-05
1.50982e-05
1.69616e-05
1.87635e-05
2.05102e-05
2.22053e-05
2.38508e-05
2.54472e-05
2.69948e-05
2.84929e-05
2.99402e-05
3.13343e-05
3.26722e-05
3.39506e-05
3.51663e-05
3.63162e-05
3.73972e-05
3.84064e-05
3.93413e-05
4.01993e-05
4.09782e-05
4.16758e-05
4.22903e-05
4.282e-05
4.32637e-05
4.362e-05
4.38881e-05
4.40672e-05
4.4157e-05
4.4157e-05
4.40674e-05
4.38884e-05
4.36205e-05
4.32643e-05
4.28208e-05
4.22912e-05
4.16768e-05
4.09793e-05
4.02006e-05
3.93428e-05
3.8408e-05
3.73988e-05
3.6318e-05
3.51682e-05
3.39526e-05
3.26743e-05
3.13365e-05
2.99425e-05
2.84952e-05
2.69972e-05
2.54497e-05
2.38533e-05
2.22078e-05
2.05126e-05
1.87659e-05
1.69639e-05
1.51004e-05
1.31642e-05
1.11368e-05
8.98751e-06
6.66358e-06
4.06988e-06
7.938e-09
2.97207e-11
2.97115e-11
7.93568e-09
4.06894e-06
6.66223e-06
8.98585e-06
1.11349e-05
1.31621e-05
1.50982e-05
1.69616e-05
1.87635e-05
2.05102e-05
2.22053e-05
2.38508e-05
2.54472e-05
2.69948e-05
2.84929e-05
2.99402e-05
3.13343e-05
3.26722e-05
3.39506e-05
3.51663e-05
3.63162e-05
3.73972e-05
3.84064e-05
3.93413e-05
4.01993e-05
4.09782e-05
4.16758e-05
4.22903e-05
4.282e-05
4.32637e-05
4.362e-05
4.38881e-05
4.40672e-05
4.4157e-05
4.4157e-05
4.40674e-05
4.38884e-05
4.36205e-05
4.32643e-05
4.28208e-05
4.22912e-05
4.16768e-05
4.09793e-05
4.02006e-05
3.93428e-05
3.8408e-05
3.73988e-05
3.6318e-05
3.51682e-05
3.39526e-05
3.26743e-05
3.13365e-05
2.99425e-05
2.84952e-05
2.69972e-05
2.54497e-05
2.38533e-05
2.22078e-05
2.05126e-05
1.87659e-05
1.69639e-05
1.51004e-05
1.31642e-05
1.11368e-05
8.98751e-06
6.66358e-06
4.06988e-06
7.938e-09
2.97207e-11
2.97115e-11
7.93568e-09
4.06894e-06
6.66223e-06
8.98585e-06
1.11349e-05
1.31621e-05
1.50982e-05
1.69616e-05
1.87635e-05
2.05102e-05
2.22053e-05
2.38508e-05
2.54472e-05
2.69948e-05
2.84929e-05
2.99402e-05
3.13343e-05
3.26722e-05
3.39506e-05
3.51663e-05
3.63162e-05
3.73972e-05
3.84064e-05
3.93413e-05
4.01993e-05
4.09782e-05
4.16758e-05
4.22903e-05
4.282e-05
4.32637e-05
4.362e-05
4.38881e-05
4.40672e-05
4.4157e-05
4.4157e-05
4.40674e-05
4.38884e-05
4.36205e-05
4.32643e-05
4.28208e-05
4.22912e-05
4.16768e-05
4.09793e-05
4.02006e-05
3.93428e-05
3.8408e-05
3.73988e-05
3.6318e-05
3.51682e-05
3.39526e-05
3.26743e-05
3.13365e-05
2.99425e-05
2.84952e-05
2.69972e-05
2.54497e-05
2.38533e-05
2.22078e-05
2.05126e-05
1.87659e-05
1.69639e-05
1.51004e-05
1.31642e-05
1.11368e-05
8.98751e-06
6.66358e-06
4.06988e-06
7.938e-09
2.97207e-11
2.97115e-11
7.93568e-09
4.06894e-06
6.66223e-06
8.98585e-06
1.11349e-05
1.31621e-05
1.50982e-05
1.69616e-05
1.87635e-05
2.05102e-05
2.22053e-05
2.38508e-05
2.54472e-05
2.69948e-05
2.84929e-05
2.99402e-05
3.13343e-05
3.26722e-05
3.39506e-05
3.51663e-05
3.63162e-05
3.73972e-05
3.84064e-05
3.93413e-05
4.01993e-05
4.09782e-05
4.16758e-05
4.22903e-05
4.282e-05
4.32637e-05
4.362e-05
4.38881e-05
4.40672e-05
4.4157e-05
4.4157e-05
4.40674e-05
4.38884e-05
4.36205e-05
4.32643e-05
4.28208e-05
4.22912e-05
4.16768e-05
4.09793e-05
4.02006e-05
3.93428e-05
3.8408e-05
3.73988e-05
3.6318e-05
3.51682e-05
3.39526e-05
3.26743e-05
3.13365e-05
2.99425e-05
2.84952e-05
2.69972e-05
2.54497e-05
2.38533e-05
2.22078e-05
2.05126e-05
1.87659e-05
1.69639e-05
1.51004e-05
1.31642e-05
1.11368e-05
8.98751e-06
6.66358e-06
4.06988e-06
7.938e-09
2.97207e-11
2.97115e-11
7.93568e-09
4.06894e-06
6.66223e-06
8.98585e-06
1.11349e-05
1.31621e-05
1.50982e-05
1.69616e-05
1.87635e-05
2.05102e-05
2.22053e-05
2.38508e-05
2.54472e-05
2.69948e-05
2.84929e-05
2.99402e-05
3.13343e-05
3.26722e-05
3.39506e-05
3.51663e-05
3.63162e-05
3.73972e-05
3.84064e-05
3.93413e-05
4.01993e-05
4.09782e-05
4.16758e-05
4.22903e-05
4.282e-05
4.32637e-05
4.362e-05
4.38881e-05
4.40672e-05
4.4157e-05
4.4157e-05
4.40674e-05
4.38884e-05
4.36205e-05
4.32643e-05
4.28208e-05
4.22912e-05
4.16768e-05
4.09793e-05
4.02006e-05
3.93428e-05
3.8408e-05
3.73988e-05
3.6318e-05
3.51682e-05
3.39526e-05
3.26743e-05
3.13365e-05
2.99425e-05
2.84952e-05
2.69972e-05
2.54497e-05
2.38533e-05
2.22078e-05
2.05126e-05
1.87659e-05
1.69639e-05
1.51004e-05
1.31642e-05
1.11368e-05
8.98751e-06
6.66358e-06
4.06988e-06
7.938e-09
2.97207e-11
2.97115e-11
7.93568e-09
4.06894e-06
6.66223e-06
8.98585e-06
1.11349e-05
1.31621e-05
1.50982e-05
1.69616e-05
1.87635e-05
2.05102e-05
2.22053e-05
2.38508e-05
2.54472e-05
2.69948e-05
2.84929e-05
2.99402e-05
3.13343e-05
3.26722e-05
3.39506e-05
3.51663e-05
3.63162e-05
3.73972e-05
3.84064e-05
3.93413e-05
4.01993e-05
4.09782e-05
4.16758e-05
4.22903e-05
4.282e-05
4.32637e-05
4.362e-05
4.38881e-05
4.40672e-05
4.4157e-05
4.4157e-05
4.40674e-05
4.38884e-05
4.36205e-05
4.32643e-05
4.28208e-05
4.22912e-05
4.16768e-05
4.09793e-05
4.02006e-05
3.93428e-05
3.8408e-05
3.73988e-05
3.6318e-05
3.51682e-05
3.39526e-05
3.26743e-05
3.13365e-05
2.99425e-05
2.84952e-05
2.69972e-05
2.54497e-05
2.38533e-05
2.22078e-05
2.05126e-05
1.87659e-05
1.69639e-05
1.51004e-05
1.31642e-05
1.11368e-05
8.98751e-06
6.66358e-06
4.06988e-06
7.938e-09
2.97207e-11
2.97115e-11
7.93568e-09
4.06894e-06
6.66223e-06
8.98585e-06
1.11349e-05
1.31621e-05
1.50982e-05
1.69616e-05
1.87635e-05
2.05102e-05
2.22053e-05
2.38508e-05
2.54472e-05
2.69948e-05
2.84929e-05
2.99402e-05
3.13343e-05
3.26722e-05
3.39506e-05
3.51663e-05
3.63162e-05
3.73972e-05
3.84064e-05
3.93413e-05
4.01993e-05
4.09782e-05
4.16758e-05
4.22903e-05
4.282e-05
4.32637e-05
4.362e-05
4.38881e-05
4.40672e-05
4.4157e-05
4.4157e-05
4.40674e-05
4.38884e-05
4.36205e-05
4.32643e-05
4.28208e-05
4.22912e-05
4.16768e-05
4.09793e-05
4.02006e-05
3.93428e-05
3.8408e-05
3.73988e-05
3.6318e-05
3.51682e-05
3.39526e-05
3.26743e-05
3.13365e-05
2.99425e-05
2.84952e-05
2.69972e-05
2.54497e-05
2.38533e-05
2.22078e-05
2.05126e-05
1.87659e-05
1.69639e-05
1.51004e-05
1.31642e-05
1.11368e-05
8.98751e-06
6.66358e-06
4.06988e-06
7.938e-09
2.97207e-11
2.97115e-11
7.93568e-09
4.06894e-06
6.66223e-06
8.98585e-06
1.11349e-05
1.31621e-05
1.50982e-05
1.69616e-05
1.87635e-05
2.05102e-05
2.22053e-05
2.38508e-05
2.54472e-05
2.69948e-05
2.84929e-05
2.99402e-05
3.13343e-05
3.26722e-05
3.39506e-05
3.51663e-05
3.63162e-05
3.73972e-05
3.84064e-05
3.93413e-05
4.01993e-05
4.09782e-05
4.16758e-05
4.22903e-05
4.282e-05
4.32637e-05
4.362e-05
4.38881e-05
4.40672e-05
4.4157e-05
4.4157e-05
4.40674e-05
4.38884e-05
4.36205e-05
4.32643e-05
4.28208e-05
4.22912e-05
4.16768e-05
4.09793e-05
4.02006e-05
3.93428e-05
3.8408e-05
3.73988e-05
3.6318e-05
3.51682e-05
3.39526e-05
3.26743e-05
3.13365e-05
2.99425e-05
2.84952e-05
2.69972e-05
2.54497e-05
2.38533e-05
2.22078e-05
2.05126e-05
1.87659e-05
1.69639e-05
1.51004e-05
1.31642e-05
1.11368e-05
8.98751e-06
6.66358e-06
4.06988e-06
7.938e-09
2.97207e-11
2.97115e-11
7.93568e-09
4.06894e-06
6.66223e-06
8.98585e-06
1.11349e-05
1.31621e-05
1.50982e-05
1.69616e-05
1.87635e-05
2.05102e-05
2.22053e-05
2.38508e-05
2.54472e-05
2.69948e-05
2.84929e-05
2.99402e-05
3.13343e-05
3.26722e-05
3.39506e-05
3.51663e-05
3.63162e-05
3.73972e-05
3.84064e-05
3.93413e-05
4.01993e-05
4.09782e-05
4.16758e-05
4.22903e-05
4.282e-05
4.32637e-05
4.362e-05
4.38881e-05
4.40672e-05
4.4157e-05
4.4157e-05
4.40674e-05
4.38884e-05
4.36205e-05
4.32643e-05
4.28208e-05
4.22912e-05
4.16768e-05
4.09793e-05
4.02006e-05
3.93428e-05
3.8408e-05
3.73988e-05
3.6318e-05
3.51682e-05
3.39526e-05
3.26743e-05
3.13365e-05
2.99425e-05
2.84952e-05
2.69972e-05
2.54497e-05
2.38533e-05
2.22078e-05
2.05126e-05
1.87659e-05
1.69639e-05
1.51004e-05
1.31642e-05
1.11368e-05
8.98751e-06
6.66358e-06
4.06988e-06
7.938e-09
2.97207e-11
2.97115e-11
7.93568e-09
4.06894e-06
6.66223e-06
8.98585e-06
1.11349e-05
1.31621e-05
1.50982e-05
1.69616e-05
1.87635e-05
2.05102e-05
2.22053e-05
2.38508e-05
2.54472e-05
2.69948e-05
2.84929e-05
2.99402e-05
3.13343e-05
3.26722e-05
3.39506e-05
3.51663e-05
3.63162e-05
3.73972e-05
3.84064e-05
3.93413e-05
4.01993e-05
4.09782e-05
4.16758e-05
4.22903e-05
4.282e-05
4.32637e-05
4.362e-05
4.38881e-05
4.40672e-05
4.4157e-05
4.4157e-05
4.40674e-05
4.38884e-05
4.36205e-05
4.32643e-05
4.28208e-05
4.22912e-05
4.16768e-05
4.09793e-05
4.02006e-05
3.93428e-05
3.8408e-05
3.73988e-05
3.6318e-05
3.51682e-05
3.39526e-05
3.26743e-05
3.13365e-05
2.99425e-05
2.84952e-05
2.69972e-05
2.54497e-05
2.38533e-05
2.22078e-05
2.05126e-05
1.87659e-05
1.69639e-05
1.51004e-05
1.31642e-05
1.11368e-05
8.98751e-06
6.66358e-06
4.06988e-06
7.938e-09
2.97207e-11
2.97115e-11
7.93568e-09
4.06894e-06
6.66223e-06
8.98585e-06
1.11349e-05
1.31621e-05
1.50982e-05
1.69616e-05
1.87635e-05
2.05102e-05
2.22053e-05
2.38508e-05
2.54472e-05
2.69948e-05
2.84929e-05
2.99402e-05
3.13343e-05