/*--------------------------------*- C++ -*----------------------------------*\
  =========                 |
  \\      /  F ield         | OpenFOAM: The Open Source CFD Toolbox
   \\    /   O peration     | Website:  https://openfoam.org
    \\  /    A nd           | Version:  13
     \\/     M anipulation  |
\*---------------------------------------------------------------------------*/
FoamFile
{
    format      ascii;
    class       volScalarField;
    location    "37";
    object      nut;
}
// * * * * * * * * * * * * * * * * * * * * * * * * * * * * * * * * * * * * * //

dimensions      [0 2 -1 0 0 0 0];

internalField   nonuniform List<scalar> 
78750
(
3.27176e-19
2.94458e-18
1.46562e-17
2.36019e-17
3.38607e-17
4.50137e-17
5.6919e-17
6.94254e-17
8.23261e-17
9.53477e-17
1.08158e-16
1.20383e-16
1.31632e-16
1.41517e-16
1.49681e-16
1.55818e-16
1.59692e-16
1.6115e-16
1.60135e-16
1.56684e-16
1.50931e-16
1.43096e-16
1.33472e-16
1.22407e-16
1.10284e-16
9.74961e-17
8.44207e-17
7.13982e-17
5.87117e-17
4.65782e-17
3.51553e-17
2.45832e-17
1.50919e-17
2.94458e-18
3.27176e-19
3.27176e-19
1.24052e-17
1.73026e-15
3.15706e-15
4.65948e-15
6.25405e-15
7.94383e-15
9.71742e-15
1.15494e-14
1.3402e-14
1.52277e-14
1.69725e-14
1.85793e-14
1.99919e-14
2.11582e-14
2.20336e-14
2.25838e-14
2.27868e-14
2.26343e-14
2.21322e-14
2.13003e-14
2.01709e-14
1.8787e-14
1.71998e-14
1.54651e-14
1.36398e-14
1.17788e-14
9.93034e-15
8.13363e-15
6.4154e-15
4.78828e-15
3.25005e-15
1.78438e-15
1.28098e-17
3.27176e-19
3.27176e-19
3.38417e-17
4.773e-15
8.76905e-15
1.30602e-14
1.77221e-14
2.27833e-14
2.82203e-14
3.39571e-14
3.98691e-14
4.57915e-14
5.15307e-14
5.68768e-14
6.16193e-14
6.55605e-14
6.85297e-14
7.03949e-14
7.10715e-14
7.05284e-14
6.87897e-14
6.59337e-14
6.20869e-14
5.7416e-14
5.2116e-14
4.63968e-14
4.04688e-14
3.45282e-14
2.87432e-14
2.32423e-14
1.81059e-14
1.33614e-14
8.98263e-15
4.89502e-15
3.47435e-17
3.27176e-19
3.27176e-19
6.39455e-17
9.04725e-15
1.66624e-14
2.48993e-14
3.39243e-14
4.38094e-14
5.45196e-14
6.59106e-14
7.77354e-14
8.96589e-14
1.0128e-13
1.12159e-13
1.21847e-13
1.29923e-13
1.36016e-13
1.39842e-13
1.41215e-13
1.40071e-13
1.36463e-13
1.30563e-13
1.22648e-13
1.13079e-13
1.02276e-13
9.06854e-14
7.87483e-14
6.68708e-14
5.53941e-14
4.45728e-14
3.45587e-14
2.53936e-14
1.70105e-14
9.24471e-15
6.53986e-17
3.27176e-19
3.75553e-19
9.75341e-17
1.38085e-14
2.54482e-14
3.80642e-14
5.19214e-14
6.71371e-14
8.36624e-14
1.01277e-13
1.19599e-13
1.38108e-13
1.56175e-13
1.7311e-13
1.88208e-13
2.008e-13
2.10303e-13
2.16263e-13
2.1839e-13
2.16579e-13
2.10918e-13
2.01681e-13
1.8931e-13
1.74376e-13
1.57544e-13
1.39517e-13
1.20989e-13
1.02592e-13
8.48578e-14
6.81782e-14
5.27842e-14
3.87343e-14
2.59182e-14
1.40742e-14
9.94895e-17
3.83204e-19
5.01755e-19
1.30315e-16
1.84504e-14
3.40077e-14
5.08787e-14
6.94209e-14
8.97937e-14
1.11933e-13
1.35544e-13
1.60115e-13
1.84944e-13
2.0919e-13
2.31922e-13
2.5219e-13
2.69094e-13
2.81848e-13
2.8984e-13
2.92681e-13
2.90228e-13
2.82603e-13
2.70176e-13
2.53543e-13
2.33476e-13
2.10871e-13
1.86674e-13
1.61818e-13
1.37156e-13
1.13397e-13
9.10672e-14
7.04746e-14
5.16952e-14
3.4579e-14
1.87724e-14
1.32682e-16
5.11021e-19
6.14892e-19
1.597e-16
2.26112e-14
4.16776e-14
6.23559e-14
8.50853e-14
1.10062e-13
1.37207e-13
1.66159e-13
1.9629e-13
2.2674e-13
2.56474e-13
2.84351e-13
3.09205e-13
3.29931e-13
3.45565e-13
3.55356e-13
3.58826e-13
3.55801e-13
3.46432e-13
3.31173e-13
3.10758e-13
2.86135e-13
2.58402e-13
2.28724e-13
1.98244e-13
1.68007e-13
1.38884e-13
1.1152e-13
8.629e-14
6.32878e-14
4.23283e-14
2.29771e-14
1.6239e-16
6.25419e-19
7.09848e-19
1.84368e-16
2.61041e-14
4.81153e-14
7.19872e-14
9.82271e-14
1.27061e-13
1.58399e-13
1.91822e-13
2.26606e-13
2.61758e-13
2.96081e-13
3.28259e-13
3.56945e-13
3.80864e-13
3.98902e-13
4.10194e-13
4.14186e-13
4.10682e-13
3.99852e-13
3.82226e-13
3.58648e-13
3.30215e-13
2.98196e-13
2.63934e-13
2.28749e-13
1.93848e-13
1.60237e-13
1.28657e-13
9.95445e-14
7.3005e-14
4.88247e-14
2.65023e-14
1.87294e-16
7.21303e-19
7.84859e-19
2.03858e-16
2.88644e-14
5.32024e-14
7.95972e-14
1.0861e-13
1.4049e-13
1.75138e-13
2.12091e-13
2.50547e-13
2.89408e-13
3.27352e-13
3.62923e-13
3.94632e-13
4.21068e-13
4.41001e-13
4.53474e-13
4.57878e-13
4.53993e-13
4.4201e-13
4.22515e-13
3.9644e-13
3.65001e-13
3.29599e-13
2.9172e-13
2.52823e-13
2.14242e-13
1.77088e-13
1.42183e-13
1.10006e-13
8.06746e-14
5.39523e-14
2.92847e-14
2.06947e-16
7.96949e-19
8.40684e-19
2.18369e-16
3.09197e-14
5.69904e-14
8.52636e-14
1.1634e-13
1.50488e-13
1.876e-13
2.2718e-13
2.6837e-13
3.09991e-13
3.5063e-13
3.88724e-13
4.22682e-13
4.5099e-13
4.72332e-13
4.85684e-13
4.90392e-13
4.86223e-13
4.73381e-13
4.52492e-13
4.2456e-13
3.90883e-13
3.52963e-13
3.12391e-13
2.70732e-13
2.29413e-13
1.89624e-13
1.52244e-13
1.17787e-13
8.63792e-14
5.7766e-14
3.1354e-14
2.21559e-16
8.53174e-19
8.79835e-19
2.2855e-16
3.23622e-14
5.96488e-14
8.92404e-14
1.21766e-13
1.57505e-13
1.96346e-13
2.3777e-13
2.80877e-13
3.24436e-13
3.66965e-13
4.0683e-13
4.42365e-13
4.71986e-13
4.94316e-13
5.08284e-13
5.13204e-13
5.08834e-13
4.95388e-13
4.73522e-13
4.44285e-13
4.09037e-13
3.6935e-13
3.26889e-13
2.83292e-13
2.40052e-13
1.98414e-13
1.59299e-13
1.23243e-13
9.03786e-14
6.04396e-14
3.28046e-14
2.31799e-16
8.92556e-19
9.05729e-19
2.35286e-16
3.3317e-14
6.14086e-14
9.18727e-14
1.25357e-13
1.6215e-13
2.02135e-13
2.44779e-13
2.89156e-13
3.33997e-13
3.77777e-13
4.18815e-13
4.55393e-13
4.85883e-13
5.08867e-13
5.23241e-13
5.28302e-13
5.23799e-13
5.09952e-13
4.87438e-13
4.57337e-13
4.21048e-13
3.80192e-13
3.36481e-13
2.91601e-13
2.47089e-13
2.04228e-13
1.63964e-13
1.26851e-13
9.30231e-14
6.22073e-14
3.37636e-14
2.38567e-16
9.1857e-19
9.21898e-19
2.39495e-16
3.39138e-14
6.25085e-14
9.3518e-14
1.27602e-13
1.65053e-13
2.05754e-13
2.49161e-13
2.94331e-13
3.39974e-13
3.84535e-13
4.26306e-13
4.63536e-13
4.94569e-13
5.17961e-13
5.32589e-13
5.37737e-13
5.3315e-13
5.19053e-13
4.96134e-13
4.65492e-13
4.28553e-13
3.86965e-13
3.42472e-13
2.96791e-13
2.51484e-13
2.07859e-13
1.66878e-13
1.29104e-13
9.46743e-14
6.3311e-14
3.43623e-14
2.4279e-16
9.34794e-19
9.31445e-19
2.41982e-16
3.42665e-14
6.31586e-14
9.44906e-14
1.28929e-13
1.66769e-13
2.07893e-13
2.51751e-13
2.9739e-13
3.43507e-13
3.88531e-13
4.30734e-13
4.6835e-13
4.99704e-13
5.23337e-13
5.38115e-13
5.43315e-13
5.38678e-13
5.24432e-13
5.01273e-13
4.70311e-13
4.32988e-13
3.90967e-13
3.46013e-13
2.99857e-13
2.5408e-13
2.10003e-13
1.68598e-13
1.30434e-13
9.56494e-14
6.39626e-14
3.47157e-14
2.45282e-16
9.44363e-19
9.36785e-19
2.43374e-16
3.4464e-14
6.35227e-14
9.50352e-14
1.29672e-13
1.6773e-13
2.09091e-13
2.53202e-13
2.99103e-13
3.45485e-13
3.90769e-13
4.33214e-13
4.71046e-13
5.0258e-13
5.26348e-13
5.4121e-13
5.46438e-13
5.41774e-13
5.27445e-13
5.04151e-13
4.7301e-13
4.35471e-13
3.93208e-13
3.47994e-13
3.01573e-13
2.55534e-13
2.11204e-13
1.69561e-13
1.31179e-13
9.6195e-14
6.43272e-14
3.49135e-14
2.46675e-16
9.49709e-19
9.3962e-19
2.44114e-16
3.4569e-14
6.37162e-14
9.53248e-14
1.30067e-13
1.68241e-13
2.09728e-13
2.53973e-13
3.00014e-13
3.46537e-13
3.91958e-13
4.34533e-13
4.7248e-13
5.04109e-13
5.27949e-13
5.42856e-13
5.48099e-13
5.43419e-13
5.29046e-13
5.05681e-13
4.74444e-13
4.36791e-13
3.94399e-13
3.49047e-13
3.02485e-13
2.56306e-13
2.11841e-13
1.70073e-13
1.31574e-13
9.64847e-14
6.45208e-14
3.50185e-14
2.47415e-16
9.52545e-19
9.41052e-19
2.44487e-16
3.46221e-14
6.38141e-14
9.54712e-14
1.30267e-13
1.685e-13
2.1005e-13
2.54363e-13
3.00475e-13
3.4707e-13
3.9256e-13
4.352e-13
4.73205e-13
5.04883e-13
5.28759e-13
5.43688e-13
5.48939e-13
5.44251e-13
5.29856e-13
5.06454e-13
4.7517e-13
4.37458e-13
3.95001e-13
3.4958e-13
3.02946e-13
2.56696e-13
2.12164e-13
1.70331e-13
1.31774e-13
9.66311e-14
6.46186e-14
3.50715e-14
2.47788e-16
9.53975e-19
9.41741e-19
2.44667e-16
3.46477e-14
6.38612e-14
9.55417e-14
1.30363e-13
1.68624e-13
2.10205e-13
2.54551e-13
3.00697e-13
3.47326e-13
3.9285e-13
4.35522e-13
4.73554e-13
5.05255e-13
5.29149e-13
5.44089e-13
5.49343e-13
5.44652e-13
5.30246e-13
5.06827e-13
4.75519e-13
4.3778e-13
3.95291e-13
3.49836e-13
3.03168e-13
2.56884e-13
2.12319e-13
1.70456e-13
1.3187e-13
9.67016e-14
6.46657e-14
3.5097e-14
2.47968e-16
9.54662e-19
9.42057e-19
2.4475e-16
3.46594e-14
6.38829e-14
9.55742e-14
1.30407e-13
1.68682e-13
2.10276e-13
2.54637e-13
3.00799e-13
3.47444e-13
3.92984e-13
4.35669e-13
4.73715e-13
5.05427e-13
5.29328e-13
5.44273e-13
5.4953e-13
5.44837e-13
5.30425e-13
5.06999e-13
4.7568e-13
4.37927e-13
3.95424e-13
3.49954e-13
3.0327e-13
2.5697e-13
2.1239e-13
1.70513e-13
1.31914e-13
9.6734e-14
6.46874e-14
3.51088e-14
2.4805e-16
9.54978e-19
9.42196e-19
2.44786e-16
3.46646e-14
6.38924e-14
9.55884e-14
1.30427e-13
1.68707e-13
2.10308e-13
2.54675e-13
3.00844e-13
3.47496e-13
3.93042e-13
4.35735e-13
4.73786e-13
5.05502e-13
5.29408e-13
5.44355e-13
5.49612e-13
5.44918e-13
5.30504e-13
5.07074e-13
4.75751e-13
4.37992e-13
3.95483e-13
3.50006e-13
3.03315e-13
2.57008e-13
2.12421e-13
1.70538e-13
1.31934e-13
9.67482e-14
6.46969e-14
3.51139e-14
2.48087e-16
9.55117e-19
9.42255e-19
2.44802e-16
3.46668e-14
6.38965e-14
9.55944e-14
1.30435e-13
1.68717e-13
2.10321e-13
2.54691e-13
3.00863e-13
3.47518e-13
3.93067e-13
4.35762e-13
4.73816e-13
5.05534e-13
5.29441e-13
5.44389e-13
5.49646e-13
5.44952e-13
5.30538e-13
5.07106e-13
4.7578e-13
4.3802e-13
3.95508e-13
3.50028e-13
3.03334e-13
2.57024e-13
2.12435e-13
1.70549e-13
1.31942e-13
9.67542e-14
6.47009e-14
3.51161e-14
2.48102e-16
9.55175e-19
9.42278e-19
2.44808e-16
3.46677e-14
6.38981e-14
9.55969e-14
1.30438e-13
1.68722e-13
2.10326e-13
2.54698e-13
3.00871e-13
3.47527e-13
3.93077e-13
4.35773e-13
4.73828e-13
5.05547e-13
5.29454e-13
5.44403e-13
5.4966e-13
5.44966e-13
5.30551e-13
5.07119e-13
4.75793e-13
4.38031e-13
3.95518e-13
3.50037e-13
3.03341e-13
2.57031e-13
2.1244e-13
1.70553e-13
1.31945e-13
9.67566e-14
6.47025e-14
3.5117e-14
2.48108e-16
9.55198e-19
9.42288e-19
2.4481e-16
3.4668e-14
6.38987e-14
9.55978e-14
1.30439e-13
1.68723e-13
2.10329e-13
2.547e-13
3.00874e-13
3.4753e-13
3.93081e-13
4.35777e-13
4.73832e-13
5.05552e-13
5.2946e-13
5.44408e-13
5.49666e-13
5.44972e-13
5.30556e-13
5.07124e-13
4.75797e-13
4.38035e-13
3.95522e-13
3.5004e-13
3.03344e-13
2.57033e-13
2.12442e-13
1.70555e-13
1.31947e-13
9.67576e-14
6.47031e-14
3.51173e-14
2.4811e-16
9.55208e-19
9.42291e-19
2.44811e-16
3.46681e-14
6.3899e-14
9.55982e-14
1.3044e-13
1.68724e-13
2.10329e-13
2.54701e-13
3.00875e-13
3.47531e-13
3.93083e-13
4.35779e-13
4.73834e-13
5.05554e-13
5.29462e-13
5.4441e-13
5.49668e-13
5.44974e-13
5.30558e-13
5.07126e-13
4.75799e-13
4.38037e-13
3.95523e-13
3.50042e-13
3.03346e-13
2.57034e-13
2.12443e-13
1.70555e-13
1.31947e-13
9.67579e-14
6.47034e-14
3.51174e-14
2.48111e-16
9.55211e-19
9.42292e-19
2.44811e-16
3.46682e-14
6.3899e-14
9.55983e-14
1.3044e-13
1.68724e-13
2.1033e-13
2.54702e-13
3.00875e-13
3.47532e-13
3.93083e-13
4.3578e-13
4.73835e-13
5.05554e-13
5.29462e-13
5.44411e-13
5.49668e-13
5.44974e-13
5.30559e-13
5.07126e-13
4.758e-13
4.38038e-13
3.95524e-13
3.50042e-13
3.03346e-13
2.57035e-13
2.12443e-13
1.70556e-13
1.31947e-13
9.67581e-14
6.47035e-14
3.51175e-14
2.48112e-16
9.55212e-19
9.42293e-19
2.44812e-16
3.46682e-14
6.38991e-14
9.55984e-14
1.3044e-13
1.68724e-13
2.1033e-13
2.54702e-13
3.00875e-13
3.47532e-13
3.93083e-13
4.3578e-13
4.73835e-13
5.05555e-13
5.29462e-13
5.44411e-13
5.49669e-13
5.44975e-13
5.30559e-13
5.07127e-13
4.758e-13
4.38038e-13
3.95524e-13
3.50042e-13
3.03346e-13
2.57035e-13
2.12443e-13
1.70556e-13
1.31947e-13
9.67581e-14
6.47035e-14
3.51175e-14
2.48112e-16
9.55213e-19
9.42293e-19
2.44812e-16
3.46682e-14
6.38991e-14
9.55984e-14
1.3044e-13
1.68724e-13
2.1033e-13
2.54702e-13
3.00876e-13
3.47532e-13
3.93083e-13
4.3578e-13
4.73835e-13
5.05555e-13
5.29463e-13
5.44411e-13
5.49669e-13
5.44975e-13
5.30559e-13
5.07127e-13
4.758e-13
4.38038e-13
3.95524e-13
3.50042e-13
3.03346e-13
2.57035e-13
2.12443e-13
1.70556e-13
1.31947e-13
9.67581e-14
6.47035e-14
3.51175e-14
2.48112e-16
9.55213e-19
9.42293e-19
2.44812e-16
3.46682e-14
6.38991e-14
9.55984e-14
1.3044e-13
1.68724e-13
2.1033e-13
2.54702e-13
3.00876e-13
3.47532e-13
3.93083e-13
4.3578e-13
4.73835e-13
5.05555e-13
5.29463e-13
5.44411e-13
5.49669e-13
5.44975e-13
5.30559e-13
5.07127e-13
4.758e-13
4.38038e-13
3.95524e-13
3.50042e-13
3.03346e-13
2.57035e-13
2.12443e-13
1.70556e-13
1.31947e-13
9.67581e-14
6.47035e-14
3.51175e-14
2.48112e-16
9.55213e-19
9.42293e-19
2.44812e-16
3.46682e-14
6.38991e-14
9.55984e-14
1.3044e-13
1.68724e-13
2.1033e-13
2.54702e-13
3.00876e-13
3.47532e-13
3.93083e-13
4.3578e-13
4.73835e-13
5.05555e-13
5.29463e-13
5.44411e-13
5.49669e-13
5.44975e-13
5.30559e-13
5.07127e-13
4.758e-13
4.38038e-13
3.95524e-13
3.50042e-13
3.03346e-13
2.57035e-13
2.12443e-13
1.70556e-13
1.31947e-13
9.67581e-14
6.47035e-14
3.51175e-14
2.48112e-16
9.55213e-19
9.42293e-19
2.44812e-16
3.46682e-14
6.38991e-14
9.55984e-14
1.3044e-13
1.68724e-13
2.1033e-13
2.54702e-13
3.00876e-13
3.47532e-13
3.93083e-13
4.3578e-13
4.73835e-13
5.05555e-13
5.29463e-13
5.44411e-13
5.49669e-13
5.44975e-13
5.30559e-13
5.07127e-13
4.758e-13
4.38038e-13
3.95524e-13
3.50042e-13
3.03346e-13
2.57035e-13
2.12443e-13
1.70556e-13
1.31947e-13
9.67581e-14
6.47035e-14
3.51175e-14
2.48112e-16
9.55213e-19
9.42293e-19
2.44812e-16
3.46682e-14
6.38991e-14
9.55984e-14
1.3044e-13
1.68724e-13
2.1033e-13
2.54702e-13
3.00876e-13
3.47532e-13
3.93083e-13
4.3578e-13
4.73835e-13
5.05555e-13
5.29463e-13
5.44411e-13
5.49669e-13
5.44975e-13
5.30559e-13
5.07127e-13
4.758e-13
4.38038e-13
3.95524e-13
3.50042e-13
3.03346e-13
2.57035e-13
2.12443e-13
1.70556e-13
1.31947e-13
9.67581e-14
6.47035e-14
3.51175e-14
2.48112e-16
9.55213e-19
9.42293e-19
2.44812e-16
3.46682e-14
6.38991e-14
9.55984e-14
1.3044e-13
1.68724e-13
2.1033e-13
2.54702e-13
3.00876e-13
3.47532e-13
3.93083e-13
4.3578e-13
4.73835e-13
5.05555e-13
5.29463e-13
5.44411e-13
5.49669e-13
5.44975e-13
5.30559e-13
5.07127e-13
4.758e-13
4.38038e-13
3.95524e-13
3.50042e-13
3.03346e-13
2.57035e-13
2.12443e-13
1.70556e-13
1.31947e-13
9.67581e-14
6.47035e-14
3.51175e-14
2.48112e-16
9.55213e-19
9.42293e-19
2.44812e-16
3.46682e-14
6.38991e-14
9.55984e-14
1.3044e-13
1.68724e-13
2.1033e-13
2.54702e-13
3.00876e-13
3.47532e-13
3.93083e-13
4.3578e-13
4.73835e-13
5.05555e-13
5.29463e-13
5.44411e-13
5.49669e-13
5.44975e-13
5.30559e-13
5.07127e-13
4.758e-13
4.38038e-13
3.95524e-13
3.50042e-13
3.03346e-13
2.57035e-13
2.12443e-13
1.70556e-13
1.31947e-13
9.67581e-14
6.47035e-14
3.51175e-14
2.48112e-16
9.55213e-19
9.42293e-19
2.44812e-16
3.46682e-14
6.38991e-14
9.55984e-14
1.3044e-13
1.68724e-13
2.1033e-13
2.54702e-13
3.00876e-13
3.47532e-13
3.93083e-13
4.3578e-13
4.73835e-13
5.05555e-13
5.29463e-13
5.44411e-13
5.49669e-13
5.44975e-13
5.30559e-13
5.07127e-13
4.758e-13
4.38038e-13
3.95524e-13
3.50042e-13
3.03346e-13
2.57035e-13
2.12443e-13
1.70556e-13
1.31947e-13
9.67581e-14
6.47035e-14
3.51175e-14
2.48112e-16
9.55213e-19
9.42293e-19
2.44812e-16
3.46682e-14
6.38991e-14
9.55984e-14
1.3044e-13
1.68724e-13
2.1033e-13
2.54702e-13
3.00876e-13
3.47532e-13
3.93083e-13
4.3578e-13
4.73835e-13
5.05555e-13
5.29463e-13
5.44411e-13
5.49669e-13
5.44975e-13
5.30559e-13
5.07127e-13
4.758e-13
4.38038e-13
3.95524e-13
3.50042e-13
3.03346e-13
2.57035e-13
2.12443e-13
1.70556e-13
1.31947e-13
9.67581e-14
6.47035e-14
3.51175e-14
2.48112e-16
9.55213e-19
9.42293e-19
2.44812e-16
3.46682e-14
6.38991e-14
9.55984e-14
1.3044e-13
1.68724e-13
2.1033e-13
2.54702e-13
3.00876e-13
3.47532e-13
3.93083e-13
4.3578e-13
4.73835e-13
5.05555e-13
5.29463e-13
5.44411e-13
5.49669e-13
5.44975e-13
5.30559e-13
5.07127e-13
4.758e-13
4.38038e-13
3.95524e-13
3.50042e-13
3.03346e-13
2.57035e-13
2.12443e-13
1.70556e-13
1.31947e-13
9.67581e-14
6.47035e-14
3.51175e-14
2.48112e-16
9.55213e-19
9.42293e-19
2.44812e-16
3.46682e-14
6.38991e-14
9.55984e-14
1.3044e-13
1.68724e-13
2.1033e-13
2.54702e-13
3.00876e-13
3.47532e-13
3.93083e-13
4.3578e-13
4.73835e-13
5.05555e-13
5.29463e-13
5.44411e-13
5.49669e-13
5.44975e-13
5.30559e-13
5.07127e-13
4.758e-13
4.38038e-13
3.95524e-13
3.50042e-13
3.03346e-13
2.57035e-13
2.12443e-13
1.70556e-13
1.31947e-13
9.67581e-14
6.47035e-14
3.51175e-14
2.48112e-16
9.55213e-19
9.42293e-19
2.44812e-16
3.46682e-14
6.38991e-14
9.55984e-14
1.3044e-13
1.68724e-13
2.1033e-13
2.54702e-13
3.00876e-13
3.47532e-13
3.93083e-13
4.3578e-13
4.73835e-13
5.05555e-13
5.29463e-13
5.44411e-13
5.49669e-13
5.44975e-13
5.30559e-13
5.07127e-13
4.758e-13
4.38038e-13
3.95524e-13
3.50042e-13
3.03346e-13
2.57035e-13
2.12443e-13
1.70556e-13
1.31947e-13
9.67581e-14
6.47035e-14
3.51175e-14
2.48112e-16
9.55213e-19
9.42293e-19
2.44812e-16
3.46682e-14
6.38991e-14
9.55984e-14
1.3044e-13
1.68724e-13
2.1033e-13
2.54702e-13
3.00876e-13
3.47532e-13
3.93083e-13
4.3578e-13
4.73835e-13
5.05555e-13
5.29463e-13
5.44411e-13
5.49669e-13
5.44975e-13
5.30559e-13
5.07127e-13
4.758e-13
4.38038e-13
3.95524e-13
3.50042e-13
3.03346e-13
2.57035e-13
2.12443e-13
1.70556e-13
1.31947e-13
9.67581e-14
6.47035e-14
3.51175e-14
2.48112e-16
9.55213e-19
9.42293e-19
2.44812e-16
3.46682e-14
6.38991e-14
9.55984e-14
1.3044e-13
1.68724e-13
2.1033e-13
2.54702e-13
3.00876e-13
3.47532e-13
3.93083e-13
4.3578e-13
4.73835e-13
5.05555e-13
5.29463e-13
5.44411e-13
5.49669e-13
5.44975e-13
5.30559e-13
5.07127e-13
4.758e-13
4.38038e-13
3.95524e-13
3.50042e-13
3.03346e-13
2.57035e-13
2.12443e-13
1.70556e-13
1.31947e-13
9.67581e-14
6.47035e-14
3.51175e-14
2.48112e-16
9.55213e-19
9.42293e-19
2.44812e-16
3.46682e-14
6.38991e-14
9.55984e-14
1.3044e-13
1.68724e-13
2.1033e-13
2.54702e-13
3.00876e-13
3.47532e-13
3.93083e-13
4.3578e-13
4.73835e-13
5.05555e-13
5.29463e-13
5.44411e-13
5.49669e-13
5.44975e-13
5.30559e-13
5.07127e-13
4.758e-13
4.38038e-13
3.95524e-13
3.50042e-13
3.03346e-13
2.57035e-13
2.12443e-13
1.70556e-13
1.31947e-13
9.67581e-14
6.47035e-14
3.51175e-14
2.48112e-16
9.55213e-19
9.42293e-19
2.44812e-16
3.46682e-14
6.38991e-14
9.55984e-14
1.3044e-13
1.68724e-13
2.1033e-13
2.54702e-13
3.00876e-13
3.47532e-13
3.93083e-13
4.3578e-13
4.73835e-13
5.05555e-13
5.29463e-13
5.44411e-13
5.49669e-13
5.44975e-13
5.30559e-13
5.07127e-13
4.758e-13
4.38038e-13
3.95524e-13
3.50042e-13
3.03346e-13
2.57035e-13
2.12443e-13
1.70556e-13
1.31947e-13
9.67581e-14
6.47035e-14
3.51175e-14
2.48112e-16
9.55213e-19
9.42293e-19
2.44812e-16
3.46682e-14
6.38991e-14
9.55984e-14
1.3044e-13
1.68724e-13
2.1033e-13
2.54702e-13
3.00876e-13
3.47532e-13
3.93083e-13
4.3578e-13
4.73835e-13
5.05555e-13
5.29463e-13
5.44411e-13
5.49669e-13
5.44975e-13
5.30559e-13
5.07127e-13
4.758e-13
4.38038e-13
3.95524e-13
3.50042e-13
3.03346e-13
2.57035e-13
2.12443e-13
1.70556e-13
1.31947e-13
9.67581e-14
6.47035e-14
3.51175e-14
2.48112e-16
9.55213e-19
9.42293e-19
2.44812e-16
3.46682e-14
6.38991e-14
9.55984e-14
1.3044e-13
1.68724e-13
2.1033e-13
2.54702e-13
3.00876e-13
3.47532e-13
3.93083e-13
4.3578e-13
4.73835e-13
5.05555e-13
5.29463e-13
5.44411e-13
5.49669e-13
5.44975e-13
5.30559e-13
5.07127e-13
4.758e-13
4.38038e-13
3.95524e-13
3.50042e-13
3.03346e-13
2.57035e-13
2.12443e-13
1.70556e-13
1.31947e-13
9.67581e-14
6.47035e-14
3.51175e-14
2.48112e-16
9.55213e-19
9.42293e-19
2.44812e-16
3.46682e-14
6.38991e-14
9.55984e-14
1.3044e-13
1.68724e-13
2.1033e-13
2.54702e-13
3.00876e-13
3.47532e-13
3.93083e-13
4.3578e-13
4.73835e-13
5.05555e-13
5.29463e-13
5.44411e-13
5.49669e-13
5.44975e-13
5.30559e-13
5.07127e-13
4.758e-13
4.38038e-13
3.95524e-13
3.50042e-13
3.03346e-13
2.57035e-13
2.12443e-13
1.70556e-13
1.31947e-13
9.67581e-14
6.47035e-14
3.51175e-14
2.48112e-16
9.55213e-19
9.42293e-19
2.44812e-16
3.46682e-14
6.38991e-14
9.55984e-14
1.3044e-13
1.68724e-13
2.1033e-13
2.54702e-13
3.00876e-13
3.47532e-13
3.93083e-13
4.3578e-13
4.73835e-13
5.05555e-13
5.29463e-13
5.44411e-13
5.49669e-13
5.44975e-13
5.30559e-13
5.07127e-13
4.758e-13
4.38038e-13
3.95524e-13
3.50042e-13
3.03346e-13
2.57035e-13
2.12443e-13
1.70556e-13
1.31947e-13
9.67581e-14
6.47035e-14
3.51175e-14
2.48112e-16
9.55213e-19
9.42293e-19
2.44812e-16
3.46682e-14
6.38991e-14
9.55984e-14
1.3044e-13
1.68724e-13
2.1033e-13
2.54702e-13
3.00876e-13
3.47532e-13
3.93083e-13
4.3578e-13
4.73835e-13
5.05555e-13
5.29463e-13
5.44411e-13
5.49669e-13
5.44975e-13
5.30559e-13
5.07127e-13
4.758e-13
4.38038e-13
3.95524e-13
3.50042e-13
3.03346e-13
2.57035e-13
2.12443e-13
1.70556e-13
1.31947e-13
9.67581e-14
6.47035e-14
3.51175e-14
2.48112e-16
9.55213e-19
9.42293e-19
2.44812e-16
3.46682e-14
6.38991e-14
9.55984e-14
1.3044e-13
1.68724e-13
2.1033e-13
2.54702e-13
3.00876e-13
3.47532e-13
3.93083e-13
4.3578e-13
4.73835e-13
5.05555e-13
5.29463e-13
5.44411e-13
5.49669e-13
5.44975e-13
5.30559e-13
5.07127e-13
4.758e-13
4.38038e-13
3.95524e-13
3.50042e-13
3.03346e-13
2.57035e-13
2.12443e-13
1.70556e-13
1.31947e-13
9.67581e-14
6.47035e-14
3.51175e-14
2.48112e-16
9.55213e-19
9.42293e-19
2.44812e-16
3.46682e-14
6.38991e-14
9.55984e-14
1.3044e-13
1.68724e-13
2.1033e-13
2.54702e-13
3.00876e-13
3.47532e-13
3.93083e-13
4.3578e-13
4.73835e-13
5.05555e-13
5.29463e-13
5.44411e-13
5.49669e-13
5.44975e-13
5.30559e-13
5.07127e-13
4.758e-13
4.38038e-13
3.95524e-13
3.50042e-13
3.03346e-13
2.57035e-13
2.12443e-13
1.70556e-13
1.31947e-13
9.67581e-14
6.47035e-14
3.51175e-14
2.48112e-16
9.55213e-19
9.42293e-19
2.44812e-16
3.46682e-14
6.38991e-14
9.55984e-14
1.3044e-13
1.68724e-13
2.1033e-13
2.54702e-13
3.00876e-13
3.47532e-13
3.93083e-13
4.3578e-13
4.73835e-13
5.05555e-13
5.29463e-13
5.44411e-13
5.49669e-13
5.44975e-13
5.30559e-13
5.07127e-13
4.758e-13
4.38038e-13
3.95524e-13
3.50042e-13
3.03346e-13
2.57035e-13
2.12443e-13
1.70556e-13
1.31947e-13
9.67581e-14
6.47035e-14
3.51175e-14
2.48112e-16
9.55213e-19
9.42293e-19
2.44812e-16
3.46682e-14
6.38991e-14
9.55984e-14
1.3044e-13
1.68724e-13
2.1033e-13
2.54702e-13
3.00876e-13
3.47532e-13
3.93083e-13
4.3578e-13
4.73835e-13
5.05555e-13
5.29463e-13
5.44411e-13
5.49669e-13
5.44975e-13
5.30559e-13
5.07127e-13
4.758e-13
4.38038e-13
3.95524e-13
3.50042e-13
3.03346e-13
2.57035e-13
2.12443e-13
1.70556e-13
1.31947e-13
9.67581e-14
6.47035e-14
3.51175e-14
2.48112e-16
9.55213e-19
9.42293e-19
2.44812e-16
3.46682e-14
6.38991e-14
9.55984e-14
1.3044e-13
1.68724e-13
2.1033e-13
2.54702e-13
3.00876e-13
3.47532e-13
3.93083e-13
4.3578e-13
4.73835e-13
5.05555e-13
5.29463e-13
5.44411e-13
5.49669e-13
5.44975e-13
5.30559e-13
5.07127e-13
4.758e-13
4.38038e-13
3.95524e-13
3.50042e-13
3.03346e-13
2.57035e-13
2.12443e-13
1.70556e-13
1.31947e-13
9.67581e-14
6.47035e-14
3.51175e-14
2.48112e-16
9.55213e-19
9.42293e-19
2.44812e-16
3.46682e-14
6.38991e-14
9.55984e-14
1.3044e-13
1.68724e-13
2.1033e-13
2.54702e-13
3.00876e-13
3.47532e-13
3.93083e-13
4.3578e-13
4.73835e-13
5.05555e-13
5.29463e-13
5.44411e-13
5.49669e-13
5.44975e-13
5.30559e-13
5.07127e-13
4.758e-13
4.38038e-13
3.95524e-13
3.50042e-13
3.03346e-13
2.57035e-13
2.12443e-13
1.70556e-13
1.31947e-13
9.67581e-14
6.47035e-14
3.51175e-14
2.48112e-16
9.55213e-19
9.42293e-19
2.44812e-16
3.46682e-14
6.38991e-14
9.55984e-14
1.3044e-13
1.68724e-13
2.1033e-13
2.54702e-13
3.00876e-13
3.47532e-13
3.93083e-13
4.3578e-13
4.73835e-13
5.05555e-13
5.29463e-13
5.44411e-13
5.49669e-13
5.44975e-13
5.30559e-13
5.07127e-13
4.758e-13
4.38038e-13
3.95524e-13
3.50042e-13
3.03346e-13
2.57035e-13
2.12443e-13
1.70556e-13
1.31947e-13
9.67581e-14
6.47035e-14
3.51175e-14
2.48112e-16
9.55213e-19
9.42293e-19
2.44812e-16
3.46682e-14
6.38991e-14
9.55984e-14
1.3044e-13
1.68724e-13
2.1033e-13
2.54702e-13
3.00876e-13
3.47532e-13
3.93083e-13
4.3578e-13
4.73835e-13
5.05555e-13
5.29463e-13
5.44411e-13
5.49669e-13
5.44975e-13
5.30559e-13
5.07127e-13
4.758e-13
4.38038e-13
3.95524e-13
3.50042e-13
3.03346e-13
2.57035e-13
2.12443e-13
1.70556e-13
1.31947e-13
9.67581e-14
6.47035e-14
3.51175e-14
2.48112e-16
9.55213e-19
9.42293e-19
2.44812e-16
3.46682e-14
6.38991e-14
9.55984e-14
1.3044e-13
1.68724e-13
2.1033e-13
2.54702e-13
3.00876e-13
3.47532e-13
3.93083e-13
4.3578e-13
4.73835e-13
5.05555e-13
5.29463e-13
5.44411e-13
5.49669e-13
5.44975e-13
5.30559e-13
5.07127e-13
4.758e-13
4.38038e-13
3.95524e-13
3.50042e-13
3.03346e-13
2.57035e-13
2.12443e-13
1.70556e-13
1.31947e-13
9.67581e-14
6.47035e-14
3.51175e-14
2.48112e-16
9.55213e-19
9.42293e-19
2.44812e-16
3.46682e-14
6.38991e-14
9.55984e-14
1.3044e-13
1.68724e-13
2.1033e-13
2.54702e-13
3.00876e-13
3.47532e-13
3.93083e-13
4.3578e-13
4.73835e-13
5.05555e-13
5.29463e-13
5.44411e-13
5.49669e-13
5.44975e-13
5.30559e-13
5.07127e-13
4.758e-13
4.38038e-13
3.95524e-13
3.50042e-13
3.03346e-13
2.57035e-13
2.12443e-13
1.70556e-13
1.31947e-13
9.67581e-14
6.47035e-14
3.51175e-14
2.48112e-16
9.55213e-19
9.42293e-19
2.44812e-16
3.46682e-14
6.38991e-14
9.55984e-14
1.3044e-13
1.68724e-13
2.1033e-13
2.54702e-13
3.00876e-13
3.47532e-13
3.93083e-13
4.3578e-13
4.73835e-13
5.05555e-13
5.29463e-13
5.44411e-13
5.49669e-13
5.44975e-13
5.30559e-13
5.07127e-13
4.758e-13
4.38038e-13
3.95524e-13
3.50042e-13
3.03346e-13
2.57035e-13
2.12443e-13
1.70556e-13
1.31947e-13
9.67581e-14
6.47035e-14
3.51175e-14
2.48112e-16
9.55213e-19
9.42293e-19
2.44812e-16
3.46682e-14
6.38991e-14
9.55984e-14
1.3044e-13
1.68724e-13
2.1033e-13
2.54702e-13
3.00876e-13
3.47532e-13
3.93083e-13
4.3578e-13
4.73835e-13
5.05555e-13
5.29463e-13
5.44411e-13
5.49669e-13
5.44975e-13
5.30559e-13
5.07127e-13
4.758e-13
4.38038e-13
3.95524e-13
3.50042e-13
3.03346e-13
2.57035e-13
2.12443e-13
1.70556e-13
1.31947e-13
9.67581e-14
6.47035e-14
3.51175e-14
2.48112e-16
9.55213e-19
9.42293e-19
2.44812e-16
3.46682e-14
6.38991e-14
9.55984e-14
1.3044e-13
1.68724e-13
2.1033e-13
2.54702e-13
3.00876e-13
3.47532e-13
3.93083e-13
4.3578e-13
4.73835e-13
5.05555e-13
5.29463e-13
5.44411e-13
5.49669e-13
5.44975e-13
5.30559e-13
5.07127e-13
4.758e-13
4.38038e-13
3.95524e-13
3.50042e-13
3.03346e-13
2.57035e-13
2.12443e-13
1.70556e-13
1.31947e-13
9.67581e-14
6.47035e-14
3.51175e-14
2.48112e-16
9.55213e-19
9.42293e-19
2.44812e-16
3.46682e-14
6.38991e-14
9.55984e-14
1.3044e-13
1.68724e-13
2.1033e-13
2.54702e-13
3.00876e-13
3.47532e-13
3.93083e-13
4.3578e-13
4.73835e-13
5.05555e-13
5.29463e-13
5.44411e-13
5.49669e-13
5.44975e-13
5.30559e-13
5.07127e-13
4.758e-13
4.38038e-13
3.95524e-13
3.50042e-13
3.03346e-13
2.57035e-13
2.12443e-13
1.70556e-13
1.31947e-13
9.67581e-14
6.47035e-14
3.51175e-14
2.48112e-16
9.55213e-19
9.42293e-19
2.44812e-16
3.46682e-14
6.38991e-14
9.55984e-14
1.3044e-13
1.68724e-13
2.1033e-13
2.54702e-13
3.00876e-13
3.47532e-13
3.93083e-13
4.3578e-13
4.73835e-13
5.05555e-13
5.29463e-13
5.44411e-13
5.49669e-13
5.44975e-13
5.30559e-13
5.07127e-13
4.758e-13
4.38038e-13
3.95524e-13
3.50042e-13
3.03346e-13
2.57035e-13
2.12443e-13
1.70556e-13
1.31947e-13
9.67581e-14
6.47035e-14
3.51175e-14
2.48112e-16
9.55213e-19
9.42293e-19
2.44812e-16
3.46682e-14
6.38991e-14
9.55984e-14
1.3044e-13
1.68724e-13
2.1033e-13
2.54702e-13
3.00876e-13
3.47532e-13
3.93083e-13
4.3578e-13
4.73835e-13
5.05555e-13
5.29463e-13
5.44411e-13
5.49669e-13
5.44975e-13
5.30559e-13
5.07127e-13
4.758e-13
4.38038e-13
3.95524e-13
3.50042e-13
3.03346e-13
2.57035e-13
2.12443e-13
1.70556e-13
1.31947e-13
9.67581e-14
6.47035e-14
3.51175e-14
2.48112e-16
9.55213e-19
9.42293e-19
2.44812e-16
3.46682e-14
6.38991e-14
9.55984e-14
1.3044e-13
1.68724e-13
2.1033e-13
2.54702e-13
3.00876e-13
3.47532e-13
3.93083e-13
4.3578e-13
4.73835e-13
5.05555e-13
5.29463e-13
5.44411e-13
5.49669e-13
5.44975e-13
5.30559e-13
5.07127e-13
4.758e-13
4.38038e-13
3.95524e-13
3.50042e-13
3.03346e-13
2.57035e-13
2.12443e-13
1.70556e-13
1.31947e-13
9.67581e-14
6.47035e-14
3.51175e-14
2.48112e-16
9.55213e-19
9.42293e-19
2.44812e-16
3.46682e-14
6.38991e-14
9.55984e-14
1.3044e-13
1.68724e-13
2.1033e-13
2.54702e-13
3.00876e-13
3.47532e-13
3.93083e-13
4.3578e-13
4.73835e-13
5.05555e-13
5.29463e-13
5.44411e-13
5.49669e-13
5.44975e-13
5.30559e-13
5.07127e-13
4.758e-13
4.38038e-13
3.95524e-13
3.50042e-13
3.03346e-13
2.57035e-13
2.12443e-13
1.70556e-13
1.31947e-13
9.67581e-14
6.47035e-14
3.51175e-14
2.48112e-16
9.55213e-19
9.42293e-19
2.44812e-16
3.46682e-14
6.38991e-14
9.55984e-14
1.3044e-13
1.68724e-13
2.1033e-13
2.54702e-13
3.00876e-13
3.47532e-13
3.93083e-13
4.3578e-13
4.73835e-13
5.05555e-13
5.29463e-13
5.44411e-13
5.49669e-13
5.44975e-13
5.30559e-13
5.07127e-13
4.758e-13
4.38038e-13
3.95524e-13
3.50042e-13
3.03346e-13
2.57035e-13
2.12443e-13
1.70556e-13
1.31947e-13
9.67581e-14
6.47035e-14
3.51175e-14
2.48112e-16
9.55213e-19
9.42293e-19
2.44812e-16
3.46682e-14
6.38991e-14
9.55984e-14
1.3044e-13
1.68724e-13
2.1033e-13
2.54702e-13
3.00876e-13
3.47532e-13
3.93083e-13
4.3578e-13
4.73835e-13
5.05555e-13
5.29463e-13
5.44411e-13
5.49669e-13
5.44975e-13
5.30559e-13
5.07127e-13
4.758e-13
4.38038e-13
3.95524e-13
3.50042e-13
3.03346e-13
2.57035e-13
2.12443e-13
1.70556e-13
1.31947e-13
9.67581e-14
6.47035e-14
3.51175e-14
2.48112e-16
9.55213e-19
9.42293e-19
2.44812e-16
3.46682e-14
6.38991e-14
9.55984e-14
1.3044e-13
1.68724e-13
2.1033e-13
2.54702e-13
3.00876e-13
3.47532e-13
3.93083e-13
4.3578e-13
4.73835e-13
5.05555e-13
5.29463e-13
5.44411e-13
5.49669e-13
5.44975e-13
5.30559e-13
5.07127e-13
4.758e-13
4.38038e-13
3.95524e-13
3.50042e-13
3.03346e-13
2.57035e-13
2.12443e-13
1.70556e-13
1.31947e-13
9.67581e-14
6.47035e-14
3.51175e-14
2.48112e-16
9.55213e-19
9.42293e-19
2.44812e-16
3.46682e-14
6.38991e-14
9.55984e-14
1.3044e-13
1.68724e-13
2.1033e-13
2.54702e-13
3.00876e-13
3.47532e-13
3.93083e-13
4.3578e-13
4.73835e-13
5.05555e-13
5.29463e-13
5.44411e-13
5.49669e-13
5.44975e-13
5.30559e-13
5.07127e-13
4.758e-13
4.38038e-13
3.95524e-13
3.50042e-13
3.03346e-13
2.57035e-13
2.12443e-13
1.70556e-13
1.31947e-13
9.67581e-14
6.47035e-14
3.51175e-14
2.48112e-16
9.55213e-19
9.42293e-19
2.44812e-16
3.46682e-14
6.38991e-14
9.55984e-14
1.3044e-13
1.68724e-13
2.1033e-13
2.54702e-13
3.00876e-13
3.47532e-13
3.93083e-13
4.3578e-13
4.73835e-13
5.05555e-13
5.29463e-13
5.44411e-13
5.49669e-13
5.44975e-13
5.30559e-13
5.07127e-13
4.758e-13
4.38038e-13
3.95524e-13
3.50042e-13
3.03346e-13
2.57035e-13
2.12443e-13
1.70556e-13
1.31947e-13
9.67581e-14
6.47035e-14
3.51175e-14
2.48112e-16
9.55213e-19
9.42293e-19
2.44812e-16
3.46682e-14
6.38991e-14
9.55984e-14
1.3044e-13
1.68724e-13
2.1033e-13
2.54702e-13
3.00876e-13
3.47532e-13
3.93083e-13
4.3578e-13
4.73835e-13
5.05555e-13
5.29463e-13
5.44411e-13
5.49669e-13
5.44975e-13
5.30559e-13
5.07127e-13
4.758e-13