/*--------------------------------*- C++ -*----------------------------------*\
  =========                 |
  \\      /  F ield         | OpenFOAM: The Open Source CFD Toolbox
   \\    /   O peration     | Website:  https://openfoam.org
    \\  /    A nd           | Version:  13
     \\/     M anipulation  |
\*---------------------------------------------------------------------------*/
FoamFile
{
    format      ascii;
    class       volScalarField;
    location    "167.5";
    object      rhok;
}
// * * * * * * * * * * * * * * * * * * * * * * * * * * * * * * * * * * * * * //

dimensions      [];

internalField   nonuniform List<scalar> 
315000
(
0.444631
0.430003
0.415352
0.41395
0.413215
0.412483
0.411753
0.411025
0.410299
0.409575
0.408854
0.408135
0.407419
0.406705
0.405993
0.405284
0.404577
0.403873
0.403171
0.402472
0.401775
0.401081
0.400389
0.3997
0.399013
0.398329
0.397648
0.396969
0.396293
0.395619
0.394948
0.394279
0.393613
0.392949
0.392288
0.391629
0.390972
0.390318
0.389666
0.389017
0.388369
0.387724
0.387081
0.38644
0.385802
0.385165
0.38453
0.383897
0.383266
0.382636
0.382009
0.381383
0.380758
0.380135
0.379514
0.378893
0.378274
0.377657
0.37704
0.376424
0.375809
0.375195
0.374582
0.37397
0.373358
0.372747
0.372136
0.371525
0.370915
0.370304
0.444631
0.430002
0.41535
0.413947
0.413213
0.41248
0.41175
0.411022
0.410296
0.409573
0.408852
0.408133
0.407416
0.406702
0.40599
0.405281
0.404574
0.40387
0.403168
0.402469
0.401772
0.401078
0.400386
0.399697
0.399011
0.398327
0.397645
0.396966
0.39629
0.395616
0.394945
0.394276
0.39361
0.392946
0.392285
0.391626
0.39097
0.390316
0.389664
0.389014
0.388367
0.387722
0.387079
0.386438
0.385799
0.385163
0.384528
0.383895
0.383264
0.382635
0.382007
0.381381
0.380757
0.380134
0.379512
0.378892
0.378273
0.377655
0.377039
0.376423
0.375808
0.375195
0.374582
0.373969
0.373357
0.372746
0.372135
0.371525
0.370914
0.370304
0.444631
0.430001
0.415348
0.413945
0.413211
0.412478
0.411748
0.41102
0.410294
0.409571
0.408849
0.40813
0.407414
0.4067
0.405988
0.405279
0.404572
0.403867
0.403166
0.402466
0.40177
0.401075
0.400384
0.399695
0.399008
0.398324
0.397643
0.396964
0.396288
0.395614
0.394943
0.394274
0.393608
0.392944
0.392283
0.391624
0.390967
0.390313
0.389662
0.389012
0.388365
0.38772
0.387077
0.386436
0.385798
0.385161
0.384526
0.383893
0.383262
0.382633
0.382005
0.38138
0.380755
0.380132
0.379511
0.378891
0.378272
0.377654
0.377038
0.376422
0.375808
0.375194
0.374581
0.373969
0.373357
0.372746
0.372135
0.371525
0.370914
0.370304
0.444631
0.43
0.415346
0.413943
0.413209
0.412476
0.411746
0.411018
0.410292
0.409569
0.408847
0.408128
0.407412
0.406698
0.405986
0.405276
0.40457
0.403865
0.403163
0.402464
0.401767
0.401073
0.400381
0.399692
0.399006
0.398322
0.397641
0.396962
0.396285
0.395612
0.394941
0.394272
0.393606
0.392942
0.392281
0.391622
0.390965
0.390311
0.38966
0.38901
0.388363
0.387718
0.387075
0.386435
0.385796
0.385159
0.384525
0.383892
0.383261
0.382632
0.382004
0.381378
0.380754
0.380131
0.37951
0.37889
0.378271
0.377653
0.377037
0.376422
0.375807
0.375193
0.37458
0.373968
0.373357
0.372745
0.372135
0.371524
0.370914
0.370304
0.444631
0.43
0.415344
0.413942
0.413207
0.412475
0.411744
0.411016
0.41029
0.409567
0.408846
0.408127
0.40741
0.406696
0.405984
0.405275
0.404568
0.403863
0.403162
0.402462
0.401765
0.401071
0.40038
0.39969
0.399004
0.39832
0.397639
0.39696
0.396284
0.39561
0.394939
0.39427
0.393604
0.39294
0.392279
0.39162
0.390964
0.39031
0.389658
0.389009
0.388361
0.387717
0.387074
0.386433
0.385794
0.385158
0.384523
0.38389
0.38326
0.38263
0.382003
0.381377
0.380753
0.38013
0.379509
0.378889
0.37827
0.377653
0.377036
0.376421
0.375806
0.375193
0.37458
0.373968
0.373356
0.372745
0.372135
0.371524
0.370914
0.370304
0.444631
0.429999
0.415343
0.413941
0.413206
0.412473
0.411743
0.411015
0.410289
0.409565
0.408844
0.408125
0.407408
0.406694
0.405982
0.405273
0.404566
0.403862
0.40316
0.402461
0.401764
0.40107
0.400378
0.399689
0.399002
0.398318
0.397637
0.396958
0.396282
0.395608
0.394937
0.394268
0.393602
0.392939
0.392277
0.391619
0.390962
0.390308
0.389657
0.389007
0.38836
0.387715
0.387072
0.386432
0.385793
0.385157
0.384522
0.383889
0.383258
0.382629
0.382002
0.381376
0.380752
0.380129
0.379508
0.378888
0.37827
0.377652
0.377036
0.37642
0.375806
0.375192
0.37458
0.373967
0.373356
0.372745
0.372134
0.371524
0.370914
0.370304
0.444631
0.429999
0.415342
0.41394
0.413205
0.412472
0.411742
0.411014
0.410288
0.409564
0.408843
0.408124
0.407407
0.406693
0.405981
0.405272
0.404565
0.403861
0.403159
0.402459
0.401763
0.401068
0.400377
0.399688
0.399001
0.398317
0.397636
0.396957
0.396281
0.395607
0.394936
0.394267
0.393601
0.392937
0.392276
0.391618
0.390961
0.390307
0.389655
0.389006
0.388359
0.387714
0.387071
0.386431
0.385792
0.385156
0.384521
0.383888
0.383258
0.382629
0.382001
0.381375
0.380751
0.380129
0.379507
0.378888
0.378269
0.377651
0.377035
0.37642
0.375805
0.375192
0.374579
0.373967
0.373356
0.372745
0.372134
0.371524
0.370914
0.370304
0.444631
0.429998
0.415342
0.413939
0.413204
0.412472
0.411741
0.411013
0.410287
0.409563
0.408842
0.408123
0.407406
0.406692
0.40598
0.405271
0.404564
0.40386
0.403158
0.402458
0.401762
0.401067
0.400376
0.399687
0.399
0.398316
0.397635
0.396956
0.39628
0.395606
0.394935
0.394266
0.3936
0.392936
0.392275
0.391617
0.39096
0.390306
0.389655
0.389005
0.388358
0.387713
0.387071
0.38643
0.385791
0.385155
0.38452
0.383888
0.383257
0.382628
0.382001
0.381375
0.380751
0.380128
0.379507
0.378887
0.378268
0.377651
0.377035
0.376419
0.375805
0.375192
0.374579
0.373967
0.373356
0.372745
0.372134
0.371524
0.370914
0.370304
0.444631
0.429998
0.415341
0.413938
0.413203
0.412471
0.41174
0.411012
0.410286
0.409563
0.408841
0.408122
0.407406
0.406691
0.405979
0.40527
0.404563
0.403859
0.403157
0.402458
0.401761
0.401067
0.400375
0.399686
0.398999
0.398315
0.397634
0.396955
0.396279
0.395605
0.394934
0.394266
0.393599
0.392936
0.392275
0.391616
0.39096
0.390306
0.389654
0.389005
0.388358
0.387713
0.38707
0.386429
0.385791
0.385154
0.38452
0.383887
0.383256
0.382627
0.382
0.381374
0.38075
0.380128
0.379507
0.378887
0.378268
0.377651
0.377034
0.376419
0.375805
0.375191
0.374579
0.373967
0.373355
0.372744
0.372134
0.371524
0.370914
0.370304
0.444631
0.429998
0.415341
0.413938
0.413203
0.41247
0.41174
0.411012
0.410286
0.409562
0.408841
0.408122
0.407405
0.406691
0.405979
0.40527
0.404563
0.403858
0.403156
0.402457
0.40176
0.401066
0.400374
0.399685
0.398999
0.398315
0.397633
0.396955
0.396278
0.395605
0.394934
0.394265
0.393599
0.392935
0.392274
0.391615
0.390959
0.390305
0.389653
0.389004
0.388357
0.387712
0.38707
0.386429
0.38579
0.385154
0.384519
0.383887
0.383256
0.382627
0.382
0.381374
0.38075
0.380127
0.379506
0.378886
0.378268
0.377651
0.377034
0.376419
0.375805
0.375191
0.374579
0.373967
0.373355
0.372744
0.372134
0.371524
0.370914
0.370304
0.444631
0.429998
0.41534
0.413937
0.413203
0.41247
0.41174
0.411012
0.410286
0.409562
0.40884
0.408121
0.407405
0.406691
0.405979
0.405269
0.404562
0.403858
0.403156
0.402457
0.40176
0.401066
0.400374
0.399685
0.398998
0.398315
0.397633
0.396954
0.396278
0.395604
0.394933
0.394265
0.393599
0.392935
0.392274
0.391615
0.390959
0.390305
0.389653
0.389004
0.388357
0.387712
0.387069
0.386429
0.38579
0.385154
0.384519
0.383887
0.383256
0.382627
0.382
0.381374
0.38075
0.380127
0.379506
0.378886
0.378268
0.37765
0.377034
0.376419
0.375805
0.375191
0.374579
0.373967
0.373355
0.372744
0.372134
0.371524
0.370914
0.370304
0.444631
0.429998
0.41534
0.413937
0.413203
0.41247
0.41174
0.411011
0.410285
0.409562
0.40884
0.408121
0.407405
0.40669
0.405979
0.405269
0.404562
0.403858
0.403156
0.402457
0.40176
0.401066
0.400374
0.399685
0.398998
0.398314
0.397633
0.396954
0.396278
0.395604
0.394933
0.394265
0.393598
0.392935
0.392274
0.391615
0.390959
0.390305
0.389653
0.389004
0.388357
0.387712
0.387069
0.386429
0.38579
0.385154
0.384519
0.383886
0.383256
0.382627
0.381999
0.381374
0.38075
0.380127
0.379506
0.378886
0.378268
0.37765
0.377034
0.376419
0.375805
0.375191
0.374578
0.373967
0.373355
0.372744
0.372134
0.371524
0.370914
0.370304
0.444631
0.429998
0.41534
0.413937
0.413203
0.41247
0.41174
0.411011
0.410285
0.409562
0.40884
0.408121
0.407405
0.40669
0.405978
0.405269
0.404562
0.403858
0.403156
0.402457
0.40176
0.401066
0.400374
0.399685
0.398998
0.398314
0.397633
0.396954
0.396278
0.395604
0.394933
0.394264
0.393598
0.392935
0.392274
0.391615
0.390959
0.390305
0.389653
0.389004
0.388357
0.387712
0.387069
0.386428
0.38579
0.385154
0.384519
0.383886
0.383256
0.382627
0.381999
0.381374
0.38075
0.380127
0.379506
0.378886
0.378268
0.37765
0.377034
0.376419
0.375805
0.375191
0.374578
0.373967
0.373355
0.372744
0.372134
0.371524
0.370914
0.370304
0.444631
0.429998
0.41534
0.413937
0.413203
0.41247
0.41174
0.411011
0.410286
0.409562
0.40884
0.408121
0.407405
0.40669
0.405979
0.405269
0.404562
0.403858
0.403156
0.402457
0.40176
0.401066
0.400374
0.399685
0.398998
0.398314
0.397633
0.396954
0.396278
0.395604
0.394933
0.394265
0.393598
0.392935
0.392274
0.391615
0.390959
0.390305
0.389653
0.389004
0.388357
0.387712
0.387069
0.386429
0.38579
0.385154
0.384519
0.383886
0.383256
0.382627
0.381999
0.381374
0.38075
0.380127
0.379506
0.378886
0.378268
0.37765
0.377034
0.376419
0.375805
0.375191
0.374578
0.373967
0.373355
0.372744
0.372134
0.371524
0.370914
0.370304
0.444631
0.429998
0.41534
0.413938
0.413203
0.41247
0.41174
0.411012
0.410286
0.409562
0.408841
0.408122
0.407405
0.406691
0.405979
0.405269
0.404562
0.403858
0.403156
0.402457
0.40176
0.401066
0.400374
0.399685
0.398999
0.398315
0.397633
0.396954
0.396278
0.395604
0.394933
0.394265
0.393599
0.392935
0.392274
0.391615
0.390959
0.390305
0.389653
0.389004
0.388357
0.387712
0.387069
0.386429
0.38579
0.385154
0.384519
0.383887
0.383256
0.382627
0.382
0.381374
0.38075
0.380127
0.379506
0.378886
0.378268
0.37765
0.377034
0.376419
0.375805
0.375191
0.374579
0.373967
0.373355
0.372744
0.372134
0.371524
0.370914
0.370304
0.444631
0.429998
0.415341
0.413938
0.413203
0.412471
0.41174
0.411012
0.410286
0.409562
0.408841
0.408122
0.407405
0.406691
0.405979
0.40527
0.404563
0.403858
0.403156
0.402457
0.40176
0.401066
0.400374
0.399685
0.398999
0.398315
0.397633
0.396955
0.396278
0.395605
0.394934
0.394265
0.393599
0.392935
0.392274
0.391615
0.390959
0.390305
0.389653
0.389004
0.388357
0.387712
0.387069
0.386429
0.38579
0.385154
0.384519
0.383887
0.383256
0.382627
0.382
0.381374
0.38075
0.380127
0.379506
0.378886
0.378268
0.37765
0.377034
0.376419
0.375805
0.375191
0.374579
0.373967
0.373355
0.372744
0.372134
0.371524
0.370914
0.370304
0.444631
0.429998
0.415341
0.413938
0.413203
0.412471
0.41174
0.411012
0.410286
0.409563
0.408841
0.408122
0.407405
0.406691
0.405979
0.40527
0.404563
0.403859
0.403157
0.402457
0.401761
0.401066
0.400375
0.399686
0.398999
0.398315
0.397634
0.396955
0.396279
0.395605
0.394934
0.394265
0.393599
0.392936
0.392274
0.391616
0.390959
0.390305
0.389654
0.389004
0.388357
0.387712
0.38707
0.386429
0.385791
0.385154
0.38452
0.383887
0.383256
0.382627
0.382
0.381374
0.38075
0.380128
0.379506
0.378887
0.378268
0.377651
0.377034
0.376419
0.375805
0.375191
0.374579
0.373967
0.373355
0.372744
0.372134
0.371524
0.370914
0.370304
0.444631
0.429998
0.415341
0.413938
0.413204
0.412471
0.411741
0.411013
0.410287
0.409563
0.408842
0.408123
0.407406
0.406692
0.40598
0.40527
0.404564
0.403859
0.403157
0.402458
0.401761
0.401067
0.400375
0.399686
0.399
0.398316
0.397634
0.396955
0.396279
0.395605
0.394934
0.394266
0.3936
0.392936
0.392275
0.391616
0.39096
0.390306
0.389654
0.389005
0.388358
0.387713
0.38707
0.386429
0.385791
0.385154
0.38452
0.383887
0.383256
0.382627
0.382
0.381374
0.38075
0.380128
0.379507
0.378887
0.378268
0.377651
0.377034
0.376419
0.375805
0.375191
0.374579
0.373967
0.373355
0.372744
0.372134
0.371524
0.370914
0.370304
0.444631
0.429998
0.415342
0.413939
0.413204
0.412472
0.411741
0.411013
0.410287
0.409563
0.408842
0.408123
0.407406
0.406692
0.40598
0.405271
0.404564
0.40386
0.403158
0.402458
0.401762
0.401067
0.400376
0.399687
0.399
0.398316
0.397635
0.396956
0.39628
0.395606
0.394935
0.394266
0.3936
0.392936
0.392275
0.391616
0.39096
0.390306
0.389654
0.389005
0.388358
0.387713
0.38707
0.38643
0.385791
0.385155
0.38452
0.383888
0.383257
0.382628
0.382
0.381375
0.380751
0.380128
0.379507
0.378887
0.378268
0.377651
0.377035
0.376419
0.375805
0.375192
0.374579
0.373967
0.373355
0.372745
0.372134
0.371524
0.370914
0.370304
0.444631
0.429999
0.415342
0.413939
0.413205
0.412472
0.411742
0.411014
0.410288
0.409564
0.408843
0.408124
0.407407
0.406693
0.405981
0.405271
0.404565
0.40386
0.403158
0.402459
0.401762
0.401068
0.400376
0.399687
0.399001
0.398317
0.397635
0.396956
0.39628
0.395606
0.394935
0.394267
0.3936
0.392937
0.392276
0.391617
0.39096
0.390307
0.389655
0.389005
0.388358
0.387713
0.387071
0.38643
0.385792
0.385155
0.384521
0.383888
0.383257
0.382628
0.382001
0.381375
0.380751
0.380128
0.379507
0.378887
0.378269
0.377651
0.377035
0.37642
0.375805
0.375192
0.374579
0.373967
0.373356
0.372745
0.372134
0.371524
0.370914
0.370304
0.444631
0.429999
0.415343
0.41394
0.413205
0.412473
0.411742
0.411014
0.410288
0.409564
0.408843
0.408124
0.407407
0.406693
0.405981
0.405272
0.404565
0.403861
0.403159
0.402459
0.401763
0.401068
0.400377
0.399688
0.399001
0.398317
0.397636
0.396957
0.396281
0.395607
0.394936
0.394267
0.393601
0.392937
0.392276
0.391617
0.390961
0.390307
0.389655
0.389006
0.388359
0.387714
0.387071
0.386431
0.385792
0.385155
0.384521
0.383888
0.383257
0.382628
0.382001
0.381375
0.380751
0.380128
0.379507
0.378887
0.378269
0.377651
0.377035
0.37642
0.375805
0.375192
0.374579
0.373967
0.373356
0.372745
0.372134
0.371524
0.370914
0.370304
0.444631
0.429999
0.415343
0.41394
0.413206
0.412473
0.411743
0.411015
0.410289
0.409565
0.408844
0.408125
0.407408
0.406694
0.405982
0.405273
0.404566
0.403861
0.403159
0.40246
0.401763
0.401069
0.400377
0.399688
0.399002
0.398318
0.397636
0.396958
0.396281
0.395608
0.394936
0.394268
0.393602
0.392938
0.392277
0.391618
0.390961
0.390307
0.389656
0.389006
0.388359
0.387714
0.387072
0.386431
0.385792
0.385156
0.384521
0.383889
0.383258
0.382629
0.382001
0.381376
0.380751
0.380129
0.379507
0.378888
0.378269
0.377652
0.377035
0.37642
0.375806
0.375192
0.374579
0.373967
0.373356
0.372745
0.372134
0.371524
0.370914
0.370304
0.444631
0.429999
0.415343
0.413941
0.413206
0.412474
0.411743
0.411015
0.410289
0.409566
0.408844
0.408125
0.407409
0.406694
0.405983
0.405273
0.404566
0.403862
0.40316
0.402461
0.401764
0.40107
0.400378
0.399689
0.399002
0.398318
0.397637
0.396958
0.396282
0.395608
0.394937
0.394268
0.393602
0.392938
0.392277
0.391618
0.390962
0.390308
0.389656
0.389007
0.38836
0.387715
0.387072
0.386431
0.385793
0.385156
0.384522
0.383889
0.383258
0.382629
0.382002
0.381376
0.380752
0.380129
0.379508
0.378888
0.378269
0.377652
0.377035
0.37642
0.375806
0.375192
0.374579
0.373967
0.373356
0.372745
0.372134
0.371524
0.370914
0.370304
0.444631
0.429999
0.415344
0.413941
0.413207
0.412474
0.411744
0.411016
0.41029
0.409566
0.408845
0.408126
0.407409
0.406695
0.405983
0.405274
0.404567
0.403862
0.403161
0.402461
0.401764
0.40107
0.400379
0.399689
0.399003
0.398319
0.397637
0.396959
0.396282
0.395609
0.394937
0.394269
0.393603
0.392939
0.392278
0.391619
0.390962
0.390308
0.389657
0.389007
0.38836
0.387715
0.387072
0.386432
0.385793
0.385157
0.384522
0.383889
0.383258
0.382629
0.382002
0.381376
0.380752
0.380129
0.379508
0.378888
0.378269
0.377652
0.377036
0.37642
0.375806
0.375192
0.37458
0.373967
0.373356
0.372745
0.372134
0.371524
0.370914
0.370304
0.444631
0.43
0.415344
0.413942
0.413207
0.412475
0.411744
0.411016
0.41029
0.409567
0.408845
0.408126
0.40741
0.406695
0.405984
0.405274
0.404567
0.403863
0.403161
0.402462
0.401765
0.401071
0.400379
0.39969
0.399003
0.398319
0.397638
0.396959
0.396283
0.395609
0.394938
0.394269
0.393603
0.392939
0.392278
0.391619
0.390963
0.390309
0.389657
0.389008
0.388361
0.387716
0.387073
0.386432
0.385794
0.385157
0.384522
0.38389
0.383259
0.38263
0.382002
0.381376
0.380752
0.38013
0.379508
0.378888
0.37827
0.377652
0.377036
0.37642
0.375806
0.375192
0.37458
0.373968
0.373356
0.372745
0.372134
0.371524
0.370914
0.370304
0.444631
0.43
0.415345
0.413942
0.413208
0.412475
0.411745
0.411017
0.410291
0.409567
0.408846
0.408127
0.40741
0.406696
0.405984
0.405275
0.404568
0.403864
0.403162
0.402462
0.401766
0.401071
0.40038
0.399691
0.399004
0.39832
0.397639
0.39696
0.396283
0.39561
0.394939
0.39427
0.393604
0.39294
0.392279
0.39162
0.390963
0.390309
0.389658
0.389008
0.388361
0.387716
0.387073
0.386433
0.385794
0.385157
0.384523
0.38389
0.383259
0.38263
0.382003
0.381377
0.380753
0.38013
0.379509
0.378889
0.37827
0.377652
0.377036
0.376421
0.375806
0.375193
0.37458
0.373968
0.373356
0.372745
0.372134
0.371524
0.370914
0.370304
0.444631
0.43
0.415345
0.413943
0.413208
0.412476
0.411745
0.411017
0.410291
0.409568
0.408846
0.408127
0.407411
0.406696
0.405985
0.405275
0.404568
0.403864
0.403162
0.402463
0.401766
0.401072
0.40038
0.399691
0.399004
0.39832
0.397639
0.39696
0.396284
0.39561
0.394939
0.39427
0.393604
0.39294
0.392279
0.39162
0.390964
0.39031
0.389658
0.389009
0.388361
0.387717
0.387074
0.386433
0.385794
0.385158
0.384523
0.38389
0.383259
0.38263
0.382003
0.381377
0.380753
0.38013
0.379509
0.378889
0.37827
0.377653
0.377036
0.376421
0.375806
0.375193
0.37458
0.373968
0.373356
0.372745
0.372134
0.371524
0.370914
0.370304
0.444631
0.43
0.415346
0.413943
0.413208
0.412476
0.411746
0.411018
0.410292
0.409568
0.408847
0.408128
0.407411
0.406697
0.405985
0.405276
0.404569
0.403865
0.403163
0.402463
0.401767
0.401072
0.400381
0.399691
0.399005
0.398321
0.39764
0.396961
0.396284
0.395611
0.394939
0.394271
0.393605
0.392941
0.39228
0.391621
0.390964
0.39031
0.389658
0.389009
0.388362
0.387717
0.387074
0.386433
0.385795
0.385158
0.384523
0.383891
0.38326
0.382631
0.382003
0.381377
0.380753
0.38013
0.379509
0.378889
0.37827
0.377653
0.377036
0.376421
0.375806
0.375193
0.37458
0.373968
0.373356
0.372745
0.372135
0.371524
0.370914
0.370304
0.444631
0.430001
0.415346
0.413943
0.413209
0.412476
0.411746
0.411018
0.410292
0.409568
0.408847
0.408128
0.407412
0.406697
0.405986
0.405276
0.404569
0.403865
0.403163
0.402464
0.401767
0.401073
0.400381
0.399692
0.399005
0.398321
0.39764
0.396961
0.396285
0.395611
0.39494
0.394271
0.393605
0.392941
0.39228
0.391621
0.390965
0.390311
0.389659
0.389009
0.388362
0.387717
0.387074
0.386434
0.385795
0.385158
0.384524
0.383891
0.38326
0.382631
0.382003
0.381378
0.380753
0.38013
0.379509
0.378889
0.37827
0.377653
0.377036
0.376421
0.375807
0.375193
0.37458
0.373968
0.373356
0.372745
0.372135
0.371524
0.370914
0.370304
0.444631
0.430001
0.415346
0.413944
0.413209
0.412477
0.411746
0.411018
0.410292
0.409569
0.408848
0.408129
0.407412
0.406698
0.405986
0.405277
0.40457
0.403865
0.403163
0.402464
0.401767
0.401073
0.400381
0.399692
0.399006
0.398322
0.39764
0.396961
0.396285
0.395611
0.39494
0.394271
0.393605
0.392942
0.39228
0.391621
0.390965
0.390311
0.389659
0.38901
0.388362
0.387717
0.387075
0.386434
0.385795
0.385159
0.384524
0.383891
0.38326
0.382631
0.382004
0.381378
0.380753
0.380131
0.379509
0.378889
0.378271
0.377653
0.377037
0.376421
0.375807
0.375193
0.37458
0.373968
0.373356
0.372745
0.372135
0.371524
0.370914
0.370304
0.444631
0.430001
0.415347
0.413944
0.413209
0.412477
0.411747
0.411019
0.410293
0.409569
0.408848
0.408129
0.407412
0.406698
0.405986
0.405277
0.40457
0.403866
0.403164
0.402464
0.401768
0.401073
0.400382
0.399693
0.399006
0.398322
0.397641
0.396962
0.396285
0.395612
0.394941
0.394272
0.393606
0.392942
0.392281
0.391622
0.390965
0.390311
0.389659
0.38901
0.388363
0.387718
0.387075
0.386434
0.385796
0.385159
0.384524
0.383891
0.38326
0.382631
0.382004
0.381378
0.380754
0.380131
0.379509
0.378889
0.378271
0.377653
0.377037
0.376421
0.375807
0.375193
0.37458
0.373968
0.373356
0.372745
0.372135
0.371524
0.370914
0.370304
0.444631
0.430001
0.415347
0.413944
0.41321
0.412477
0.411747
0.411019
0.410293
0.409569
0.408848
0.408129
0.407413
0.406698
0.405987
0.405277
0.40457
0.403866
0.403164
0.402465
0.401768
0.401074
0.400382
0.399693
0.399006
0.398322
0.397641
0.396962
0.396286
0.395612
0.394941
0.394272
0.393606
0.392942
0.392281
0.391622
0.390966
0.390311
0.38966
0.38901
0.388363
0.387718
0.387075
0.386434
0.385796
0.385159
0.384524
0.383892
0.383261
0.382631
0.382004
0.381378
0.380754
0.380131
0.37951
0.37889
0.378271
0.377653
0.377037
0.376421
0.375807
0.375193
0.37458
0.373968
0.373356
0.372745
0.372135
0.371524
0.370914
0.370304
0.444631
0.430001
0.415347
0.413944
0.41321
0.412477
0.411747
0.411019
0.410293
0.40957
0.408848
0.408129
0.407413
0.406699
0.405987
0.405277
0.404571
0.403866
0.403164
0.402465
0.401768
0.401074
0.400382
0.399693
0.399007
0.398323
0.397641
0.396962
0.396286
0.395612
0.394941
0.394272
0.393606
0.392942
0.392281
0.391622
0.390966
0.390312
0.38966
0.38901
0.388363
0.387718
0.387075
0.386435
0.385796
0.385159
0.384525
0.383892
0.383261
0.382632
0.382004
0.381378
0.380754
0.380131
0.37951
0.37889
0.378271
0.377653
0.377037
0.376421
0.375807
0.375193
0.37458
0.373968
0.373357
0.372745
0.372135
0.371524
0.370914
0.370304
0.444631
0.430001
0.415347
0.413945
0.41321
0.412478
0.411747
0.411019
0.410293
0.40957
0.408849
0.40813
0.407413
0.406699
0.405987
0.405278
0.404571
0.403866
0.403165
0.402465
0.401768
0.401074
0.400382
0.399693
0.399007
0.398323
0.397641
0.396963
0.396286
0.395612
0.394941
0.394272
0.393606
0.392943
0.392281
0.391622
0.390966
0.390312
0.38966
0.389011
0.388363
0.387718
0.387075
0.386435
0.385796
0.385159
0.384525
0.383892
0.383261
0.382632
0.382004
0.381378
0.380754
0.380131
0.37951
0.37889
0.378271
0.377653
0.377037
0.376421
0.375807
0.375193
0.37458
0.373968
0.373357
0.372745
0.372135
0.371524
0.370914
0.370304
0.444631
0.430001
0.415347
0.413945
0.41321
0.412478
0.411748
0.411019
0.410294
0.40957
0.408849
0.40813
0.407413
0.406699
0.405987
0.405278
0.404571
0.403867
0.403165
0.402465
0.401769
0.401074
0.400383
0.399694
0.399007
0.398323
0.397642
0.396963
0.396286
0.395613
0.394941
0.394273
0.393606
0.392943
0.392281
0.391623
0.390966
0.390312
0.38966
0.389011
0.388363
0.387718
0.387076
0.386435
0.385796
0.385159
0.384525
0.383892
0.383261
0.382632
0.382004
0.381378
0.380754
0.380131
0.37951
0.37889
0.378271
0.377653
0.377037
0.376422
0.375807
0.375193
0.37458
0.373968
0.373357
0.372745
0.372135
0.371524
0.370914
0.370304
0.444631
0.430001
0.415347
0.413945
0.41321
0.412478
0.411748
0.41102
0.410294
0.40957
0.408849
0.40813
0.407413
0.406699
0.405987
0.405278
0.404571
0.403867
0.403165
0.402466
0.401769
0.401074
0.400383
0.399694
0.399007
0.398323
0.397642
0.396963
0.396286
0.395613
0.394941
0.394273
0.393607
0.392943
0.392281
0.391623
0.390966
0.390312
0.38966
0.389011
0.388364
0.387719
0.387076
0.386435
0.385796
0.38516
0.384525
0.383892
0.383261
0.382632
0.382004
0.381378
0.380754
0.380131
0.37951
0.37889
0.378271
0.377654
0.377037
0.376422
0.375807
0.375193
0.37458
0.373968
0.373357
0.372745
0.372135
0.371524
0.370914
0.370304
0.444631
0.430001
0.415348
0.413945
0.41321
0.412478
0.411748
0.41102
0.410294
0.40957
0.408849
0.40813
0.407413
0.406699
0.405987
0.405278
0.404571
0.403867
0.403165
0.402466
0.401769
0.401075
0.400383
0.399694
0.399007
0.398323
0.397642
0.396963
0.396287
0.395613
0.394942
0.394273
0.393607
0.392943
0.392282
0.391623
0.390966
0.390312
0.38966
0.389011
0.388364
0.387719
0.387076
0.386435
0.385796
0.38516
0.384525
0.383892
0.383261
0.382632
0.382004
0.381379
0.380754
0.380131
0.37951
0.37889
0.378271
0.377654
0.377037
0.376422
0.375807
0.375193
0.37458
0.373968
0.373357
0.372745
0.372135
0.371524
0.370914
0.370304
0.444631
0.430001
0.415348
0.413945
0.413211
0.412478
0.411748
0.41102
0.410294
0.40957
0.408849
0.40813
0.407413
0.406699
0.405987
0.405278
0.404571
0.403867
0.403165
0.402466
0.401769
0.401075
0.400383
0.399694
0.399007
0.398323
0.397642
0.396963
0.396287
0.395613
0.394942
0.394273
0.393607
0.392943
0.392282
0.391623
0.390966
0.390312
0.38966
0.389011
0.388364
0.387719
0.387076
0.386435
0.385796
0.38516
0.384525
0.383892
0.383261
0.382632
0.382004
0.381379
0.380754
0.380131
0.37951
0.37889
0.378271
0.377654
0.377037
0.376422
0.375807
0.375193
0.374581
0.373968
0.373357
0.372745
0.372135
0.371524
0.370914
0.370304
0.444631
0.430001
0.415348
0.413945
0.413211
0.412478
0.411748
0.41102
0.410294
0.40957
0.408849
0.40813
0.407413
0.406699
0.405988
0.405278
0.404571
0.403867
0.403165
0.402466
0.401769
0.401075
0.400383
0.399694
0.399007
0.398323
0.397642
0.396963
0.396287
0.395613
0.394942
0.394273
0.393607
0.392943
0.392282
0.391623
0.390966
0.390312
0.38966
0.389011
0.388364
0.387719
0.387076
0.386435
0.385796
0.38516
0.384525
0.383892
0.383261
0.382632
0.382004
0.381379
0.380754
0.380131
0.37951
0.37889
0.378271
0.377654
0.377037
0.376422
0.375807
0.375193
0.374581
0.373968
0.373357
0.372745
0.372135
0.371524
0.370914
0.370304
0.444631
0.430001
0.415348
0.413945
0.413211
0.412478
0.411748
0.41102
0.410294
0.40957
0.408849
0.40813
0.407414
0.406699
0.405988
0.405278
0.404571
0.403867
0.403165
0.402466
0.401769
0.401075
0.400383
0.399694
0.399007
0.398323
0.397642
0.396963
0.396287
0.395613
0.394942
0.394273
0.393607
0.392943
0.392282
0.391623
0.390966
0.390312
0.38966
0.389011
0.388364
0.387719
0.387076
0.386435
0.385796
0.38516
0.384525
0.383892
0.383261
0.382632
0.382004
0.381379
0.380754
0.380131
0.37951
0.37889
0.378271
0.377654
0.377037
0.376422
0.375807
0.375193
0.374581
0.373968
0.373357
0.372745
0.372135
0.371524
0.370914
0.370304
0.444631
0.430001
0.415348
0.413945
0.413211
0.412478
0.411748
0.41102
0.410294
0.40957
0.408849
0.40813
0.407414
0.406699
0.405988
0.405278
0.404571
0.403867
0.403165
0.402466
0.401769
0.401075
0.400383
0.399694
0.399007
0.398323
0.397642
0.396963
0.396287
0.395613
0.394942
0.394273
0.393607
0.392943
0.392282
0.391623
0.390966
0.390312
0.389661
0.389011
0.388364
0.387719
0.387076
0.386435
0.385796
0.38516
0.384525
0.383892
0.383261
0.382632
0.382004
0.381379
0.380754
0.380131
0.37951
0.37889
0.378271
0.377654
0.377037
0.376422
0.375807
0.375193
0.374581
0.373968
0.373357
0.372746
0.372135
0.371524
0.370914
0.370304
0.444631
0.430001
0.415348
0.413945
0.413211
0.412478
0.411748
0.41102
0.410294
0.40957
0.408849
0.40813
0.407414
0.406699
0.405988
0.405278
0.404571
0.403867
0.403165
0.402466
0.401769
0.401075
0.400383
0.399694
0.399007
0.398323
0.397642
0.396963
0.396287
0.395613
0.394942
0.394273
0.393607
0.392943
0.392282
0.391623
0.390966
0.390312
0.389661
0.389011
0.388364
0.387719
0.387076
0.386435
0.385796
0.38516
0.384525
0.383892
0.383261
0.382632
0.382005
0.381379
0.380754
0.380131
0.37951
0.37889
0.378271
0.377654
0.377037
0.376422
0.375807
0.375193
0.374581
0.373968
0.373357
0.372746
0.372135
0.371524
0.370914
0.370304
0.444631
0.430001
0.415348
0.413945
0.413211
0.412478
0.411748
0.41102
0.410294
0.40957
0.408849
0.40813
0.407414
0.406699
0.405988
0.405278
0.404571
0.403867
0.403165
0.402466
0.401769
0.401075
0.400383
0.399694
0.399007
0.398323
0.397642
0.396963
0.396287
0.395613
0.394942
0.394273
0.393607
0.392943
0.392282
0.391623
0.390966
0.390312
0.389661
0.389011
0.388364
0.387719
0.387076
0.386435
0.385796
0.38516
0.384525
0.383892
0.383261
0.382632
0.382005
0.381379
0.380754
0.380131
0.37951
0.37889
0.378271
0.377654
0.377037
0.376422
0.375807
0.375193
0.374581
0.373968
0.373357
0.372746
0.372135
0.371524
0.370914
0.370304
0.444631
0.430001
0.415348
0.413945
0.413211
0.412478
0.411748
0.41102
0.410294
0.40957
0.408849
0.40813
0.407414
0.406699
0.405988
0.405278
0.404571
0.403867
0.403165
0.402466
0.401769
0.401075
0.400383
0.399694
0.399007
0.398323
0.397642
0.396963
0.396287
0.395613
0.394942
0.394273
0.393607
0.392943
0.392282
0.391623
0.390966
0.390312
0.389661
0.389011
0.388364
0.387719
0.387076
0.386435
0.385796
0.38516
0.384525
0.383892
0.383261
0.382632
0.382005
0.381379
0.380754
0.380132
0.37951
0.37889
0.378271
0.377654
0.377037
0.376422
0.375807
0.375193
0.374581
0.373968
0.373357
0.372746
0.372135
0.371524
0.370914
0.370304
0.444631
0.430001
0.415348
0.413945
0.413211
0.412478
0.411748
0.41102
0.410294
0.40957
0.408849
0.40813
0.407414
0.406699
0.405988
0.405278
0.404571
0.403867
0.403165
0.402466
0.401769
0.401075
0.400383
0.399694
0.399007
0.398323
0.397642
0.396963
0.396287
0.395613
0.394942
0.394273
0.393607
0.392943
0.392282
0.391623
0.390966
0.390312
0.389661
0.389011
0.388364
0.387719
0.387076
0.386435
0.385796
0.38516
0.384525
0.383892
0.383261
0.382632
0.382005
0.381379
0.380754
0.380132
0.37951
0.37889
0.378271
0.377654
0.377037
0.376422
0.375807
0.375193
0.374581
0.373968
0.373357
0.372746
0.372135
0.371524
0.370914
0.370304
0.444631
0.430001
0.415348
0.413945
0.413211
0.412478
0.411748
0.41102
0.410294
0.40957
0.408849
0.40813
0.407414
0.406699
0.405988
0.405278
0.404571
0.403867
0.403165
0.402466
0.401769
0.401075
0.400383
0.399694
0.399007
0.398323
0.397642
0.396963
0.396287
0.395613
0.394942
0.394273
0.393607
0.392943
0.392282
0.391623
0.390966
0.390312
0.389661
0.389011
0.388364
0.387719
0.387076
0.386435
0.385797
0.38516
0.384525
0.383892
0.383261
0.382632
0.382005
0.381379
0.380754
0.380132
0.37951
0.37889
0.378271
0.377654
0.377037
0.376422
0.375807
0.375193
0.374581
0.373968
0.373357
0.372746
0.372135
0.371524
0.370914
0.370304
0.444631
0.430001
0.415348
0.413945
0.413211
0.412478
0.411748
0.41102
0.410294
0.40957
0.408849
0.40813
0.407414
0.406699
0.405988
0.405278
0.404571
0.403867
0.403165
0.402466
0.401769
0.401075
0.400383
0.399694
0.399007
0.398323
0.397642
0.396963
0.396287
0.395613
0.394942
0.394273
0.393607
0.392943
0.392282
0.391623
0.390966
0.390312
0.389661
0.389011
0.388364
0.387719
0.387076
0.386435
0.385797
0.38516
0.384525
0.383892
0.383261
0.382632
0.382005
0.381379
0.380754
0.380132
0.37951
0.37889
0.378271
0.377654
0.377037
0.376422
0.375807
0.375193
0.374581
0.373968
0.373357
0.372746
0.372135
0.371524
0.370914
0.370304
0.444631
0.430001
0.415348
0.413945
0.413211
0.412478
0.411748
0.41102
0.410294
0.40957
0.408849
0.40813
0.407414