/*--------------------------------*- C++ -*----------------------------------*\
  =========                 |
  \\      /  F ield         | OpenFOAM: The Open Source CFD Toolbox
   \\    /   O peration     | Website:  https://openfoam.org
    \\  /    A nd           | Version:  13
     \\/     M anipulation  |
\*---------------------------------------------------------------------------*/
FoamFile
{
    format      ascii;
    class       volScalarField;
    location    "122.5";
    object      nut;
}
// * * * * * * * * * * * * * * * * * * * * * * * * * * * * * * * * * * * * * //

dimensions      [0 2 -1 0 0 0 0];

internalField   nonuniform List<scalar> 
315000
(
3.53827e-15
9.26689e-13
2.11479e-11
3.79654e-11
5.50654e-11
7.24866e-11
9.02765e-11
1.08477e-10
1.27116e-10
1.46206e-10
1.65741e-10
1.85697e-10
2.0603e-10
2.26679e-10
2.47567e-10
2.68604e-10
2.89686e-10
3.10697e-10
3.31517e-10
3.52016e-10
3.72063e-10
3.91525e-10
4.10268e-10
4.2816e-10
4.45074e-10
4.60887e-10
4.75483e-10
4.88753e-10
5.00598e-10
5.10928e-10
5.19665e-10
5.26743e-10
5.32106e-10
5.35713e-10
5.37537e-10
5.37564e-10
5.35793e-10
5.32239e-10
5.26927e-10
5.199e-10
5.11211e-10
5.00927e-10
4.89125e-10
4.75895e-10
4.61336e-10
4.45557e-10
4.28672e-10
4.10805e-10
3.92084e-10
3.72639e-10
3.52604e-10
3.32112e-10
3.11296e-10
2.90284e-10
2.69197e-10
2.4815e-10
2.27248e-10
2.06581e-10
1.86226e-10
1.66245e-10
1.46681e-10
1.27558e-10
1.08883e-10
9.06433e-11
7.28091e-11
5.53375e-11
3.81784e-11
2.1287e-11
9.34044e-13
3.56916e-15
8.85519e-14
2.35831e-11
5.37131e-09
9.71733e-09
1.41176e-08
1.85927e-08
2.31596e-08
2.78316e-08
3.26172e-08
3.752e-08
4.25388e-08
4.76671e-08
5.28938e-08
5.8203e-08
6.35746e-08
6.89848e-08
7.44066e-08
7.98102e-08
8.51639e-08
9.04347e-08
9.55883e-08
1.0059e-07
1.05407e-07
1.10003e-07
1.14348e-07
1.18409e-07
1.22156e-07
1.25562e-07
1.28601e-07
1.31252e-07
1.33493e-07
1.35308e-07
1.36683e-07
1.37607e-07
1.38074e-07
1.38079e-07
1.37624e-07
1.36711e-07
1.35347e-07
1.33542e-07
1.31312e-07
1.28671e-07
1.2564e-07
1.22243e-07
1.18503e-07
1.1445e-07
1.10111e-07
1.0552e-07
1.00708e-07
9.57094e-08
9.05582e-08
8.5289e-08
7.99357e-08
7.45316e-08
6.91085e-08
6.36958e-08
5.83209e-08
5.30074e-08
4.77756e-08
4.26413e-08
3.76157e-08
3.27053e-08
2.79112e-08
2.32299e-08
1.86526e-08
1.41661e-08
9.75308e-09
5.39256e-09
2.36834e-11
8.89406e-14
3.56227e-13
9.50081e-11
5.50917e-08
9.96226e-08
1.4466e-07
1.90458e-07
2.37226e-07
2.85128e-07
3.34271e-07
3.84705e-07
4.36419e-07
4.89341e-07
5.43343e-07
5.98241e-07
6.53803e-07
7.09759e-07
7.65803e-07
8.21608e-07
8.76827e-07
9.31107e-07
9.8409e-07
1.03542e-06
1.08475e-06
1.13174e-06
1.17606e-06
1.21741e-06
1.25551e-06
1.29008e-06
1.32088e-06
1.3477e-06
1.37036e-06
1.38868e-06
1.40255e-06
1.41187e-06
1.41656e-06
1.41661e-06
1.412e-06
1.40277e-06
1.38899e-06
1.37075e-06
1.34818e-06
1.32143e-06
1.2907e-06
1.2562e-06
1.21816e-06
1.17687e-06
1.13259e-06
1.08565e-06
1.03635e-06
9.8505e-07
9.32087e-07
8.77818e-07
8.22603e-07
7.66794e-07
7.10737e-07
6.5476e-07
5.99169e-07
5.44235e-07
4.90189e-07
4.37216e-07
3.85444e-07
3.34946e-07
2.85732e-07
2.37754e-07
1.90902e-07
1.45015e-07
9.98789e-08
5.5241e-08
9.52792e-11
3.57265e-13
6.69773e-13
1.78648e-10
1.0345e-07
1.86872e-07
2.71212e-07
3.57031e-07
4.44796e-07
5.34865e-07
6.27474e-07
7.22731e-07
8.20609e-07
9.20953e-07
1.02348e-06
1.12778e-06
1.23336e-06
1.33963e-06
1.44596e-06
1.55167e-06
1.65608e-06
1.75851e-06
1.85827e-06
1.9547e-06
2.04716e-06
2.13506e-06
2.2178e-06
2.29485e-06
2.36571e-06
2.42991e-06
2.48703e-06
2.53671e-06
2.57862e-06
2.61249e-06
2.6381e-06
2.65529e-06
2.66394e-06
2.66401e-06
2.65548e-06
2.63842e-06
2.61294e-06
2.57919e-06
2.5374e-06
2.48783e-06
2.43082e-06
2.36672e-06
2.29595e-06
2.21898e-06
2.13631e-06
2.04848e-06
1.95607e-06
1.85968e-06
1.75995e-06
1.65754e-06
1.55314e-06
1.44742e-06
1.34107e-06
1.23477e-06
1.12915e-06
1.02479e-06
9.22202e-07
8.21782e-07
7.23816e-07
6.28463e-07
5.35748e-07
4.45564e-07
3.57674e-07
2.71722e-07
1.87239e-07
1.03663e-07
1.79036e-10
6.71261e-13
1.02871e-12
2.74408e-10
1.58637e-07
2.86142e-07
4.14863e-07
5.4575e-07
6.79579e-07
8.16934e-07
9.58187e-07
1.10349e-06
1.25277e-06
1.40573e-06
1.56188e-06
1.72052e-06
1.88082e-06
2.04185e-06
2.20261e-06
2.36209e-06
2.51925e-06
2.67311e-06
2.82269e-06
2.96703e-06
3.10524e-06
3.23645e-06
3.35983e-06
3.47461e-06
3.58008e-06
3.67557e-06
3.76048e-06
3.83428e-06
3.89651e-06
3.94678e-06
3.98479e-06
4.01028e-06
4.02311e-06
4.02319e-06
4.01052e-06
3.98518e-06
3.94733e-06
3.8972e-06
3.83511e-06
3.76144e-06
3.67666e-06
3.58129e-06
3.47594e-06
3.36125e-06
3.23796e-06
3.10683e-06
2.96869e-06
2.82439e-06
2.67486e-06
2.52102e-06
2.36386e-06
2.20439e-06
2.04361e-06
1.88254e-06
1.72219e-06
1.56348e-06
1.40726e-06
1.2542e-06
1.10482e-06
9.59396e-07
8.18013e-07
6.80517e-07
5.46536e-07
4.15487e-07
2.86592e-07
1.58898e-07
2.74885e-10
1.03054e-12
1.41391e-12
3.77189e-10
2.17654e-07
3.91903e-07
5.67411e-07
7.45558e-07
9.27453e-07
1.11391e-06
1.30541e-06
1.50213e-06
1.70392e-06
1.91032e-06
2.12056e-06
2.33366e-06
2.54845e-06
2.76367e-06
2.97801e-06
3.19014e-06
3.39875e-06
3.60258e-06
3.80041e-06
3.99104e-06
4.17336e-06
4.34626e-06
4.50872e-06
4.65976e-06
4.79847e-06
4.924e-06
5.03559e-06
5.13255e-06
5.21429e-06
5.28031e-06
5.33019e-06
5.36364e-06
5.38046e-06
5.38054e-06
5.36389e-06
5.33061e-06
5.28089e-06
5.21504e-06
5.13345e-06
5.03664e-06
4.92519e-06
4.79979e-06
4.6612e-06
4.51026e-06
4.3479e-06
4.17508e-06
3.99284e-06
3.80226e-06
3.60448e-06
3.40068e-06
3.19208e-06
2.97995e-06
2.76559e-06
2.55033e-06
2.33549e-06
2.12232e-06
1.912e-06
1.70551e-06
1.5036e-06
1.30675e-06
1.1151e-06
9.28495e-07
7.46432e-07
5.68105e-07
3.92403e-07
2.17945e-07
3.77725e-10
1.41598e-12
1.79825e-12
4.79755e-10
2.76324e-07
4.96628e-07
7.17944e-07
9.42092e-07
1.17051e-06
1.40422e-06
1.64381e-06
1.88946e-06
2.14092e-06
2.39753e-06
2.6583e-06
2.92195e-06
3.18704e-06
3.45202e-06
3.71531e-06
3.97534e-06
4.23057e-06
4.47953e-06
4.72079e-06
4.95298e-06
5.17479e-06
5.38496e-06
5.58227e-06
5.76567e-06
5.93409e-06
6.08655e-06
6.22213e-06
6.33997e-06
6.43935e-06
6.51963e-06
6.58031e-06
6.621e-06
6.64146e-06
6.64155e-06
6.62126e-06
6.58073e-06
6.52022e-06
6.4401e-06
6.34088e-06
6.22319e-06
6.08775e-06
5.93542e-06
5.76712e-06
5.58384e-06
5.38662e-06
5.17654e-06
4.95481e-06
4.72267e-06
4.48146e-06
4.23253e-06
3.97732e-06
3.71729e-06
3.45399e-06
3.18897e-06
2.92383e-06
2.66011e-06
2.39926e-06
2.14255e-06
1.89098e-06
1.6452e-06
1.40546e-06
1.17159e-06
9.42999e-07
7.18665e-07
4.97149e-07
2.76628e-07
4.8032e-10
1.80043e-12
2.15512e-12
5.75008e-10
3.30614e-07
5.93174e-07
8.56268e-07
1.12214e-06
1.39253e-06
1.66866e-06
1.95121e-06
2.24034e-06
2.53569e-06
2.83645e-06
3.14141e-06
3.44907e-06
3.75774e-06
4.06565e-06
4.37102e-06
4.67209e-06
4.96715e-06
5.25456e-06
5.53273e-06
5.80016e-06
6.05552e-06
6.2975e-06
6.52477e-06
6.73607e-06
6.93013e-06
7.10578e-06
7.26195e-06
7.39765e-06
7.51206e-06
7.60446e-06
7.67428e-06
7.7211e-06
7.74462e-06
7.7447e-06
7.72134e-06
7.67469e-06
7.60503e-06
7.51279e-06
7.39853e-06
7.26297e-06
7.10694e-06
6.93141e-06
6.73747e-06
6.52629e-06
6.29911e-06
6.05722e-06
5.80193e-06
5.53456e-06
5.25644e-06
4.96906e-06
4.67402e-06
4.37296e-06
4.06757e-06
3.75963e-06
3.45091e-06
3.14319e-06
2.83816e-06
2.5373e-06
2.24183e-06
1.95258e-06
1.66989e-06
1.3936e-06
1.12304e-06
8.56983e-07
5.93691e-07
3.30917e-07
5.75574e-10
2.15731e-12
2.46446e-12
6.57593e-10
3.77536e-07
6.76345e-07
9.75095e-07
1.27641e-06
1.58232e-06
1.89418e-06
2.21277e-06
2.53822e-06
2.8701e-06
3.20746e-06
3.54892e-06
3.89278e-06
4.2372e-06
4.58023e-06
4.91994e-06
5.25443e-06
5.58185e-06
5.90043e-06
6.20861e-06
6.5049e-06
6.78781e-06
7.05587e-06
7.30762e-06
7.54162e-06
7.75646e-06
7.95085e-06
8.12361e-06
8.27368e-06
8.40016e-06
8.50227e-06
8.57941e-06
8.63112e-06
8.65709e-06
8.65717e-06
8.63135e-06
8.5798e-06
8.50281e-06
8.40084e-06
8.27451e-06
8.12457e-06
7.95194e-06
7.75767e-06
7.54294e-06
7.30905e-06
7.0574e-06
6.78941e-06
6.50657e-06
6.21035e-06
5.90222e-06
5.58366e-06
5.25626e-06
4.92178e-06
4.58206e-06
4.239e-06
3.89455e-06
3.55062e-06
3.2091e-06
2.87165e-06
2.53966e-06
2.21409e-06
1.89536e-06
1.58335e-06
1.27728e-06
9.75783e-07
6.76842e-07
3.77828e-07
6.58144e-10
2.46659e-12
2.71565e-12
7.24676e-10
4.15552e-07
7.43551e-07
1.0709e-06
1.40055e-06
1.73475e-06
2.075e-06
2.42214e-06
2.77628e-06
3.13694e-06
3.50305e-06
3.8731e-06
4.24528e-06
4.61759e-06
4.98798e-06
5.3544e-06
5.71485e-06
6.06739e-06
6.4103e-06
6.74195e-06
7.06075e-06
7.36512e-06
7.65347e-06
7.9242e-06
8.17575e-06
8.40664e-06
8.61548e-06
8.80101e-06
8.96213e-06
9.09788e-06
9.20745e-06
9.29021e-06
9.34567e-06
9.37352e-06
9.3736e-06
9.34589e-06
9.29057e-06
9.20795e-06
9.09852e-06
8.96291e-06
8.80192e-06
8.6165e-06
8.40778e-06
8.177e-06
7.92554e-06
7.6549e-06
7.36663e-06
7.06233e-06
6.74359e-06
6.41198e-06
6.0691e-06
5.71658e-06
5.35614e-06
4.98971e-06
4.6193e-06
4.24695e-06
3.87472e-06
3.50461e-06
3.13841e-06
2.77765e-06
2.42339e-06
2.07613e-06
1.73573e-06
1.40137e-06
1.07155e-06
7.44024e-07
4.1583e-07
7.25203e-10
2.7177e-12
2.90741e-12
7.75902e-10
4.44526e-07
7.94671e-07
1.14366e-06
1.49469e-06
1.8502e-06
2.2118e-06
2.58036e-06
2.956e-06
3.33819e-06
3.72577e-06
4.11715e-06
4.51041e-06
4.90348e-06
5.29421e-06
5.68048e-06
6.0602e-06
6.43147e-06
6.79251e-06
7.14164e-06
7.4772e-06
7.79751e-06
8.10091e-06
8.38571e-06
8.65026e-06
8.89301e-06
9.11253e-06
9.30749e-06
9.47677e-06
9.61935e-06
9.73442e-06
9.82132e-06
9.87956e-06
9.90879e-06
9.90886e-06
9.87976e-06
9.82167e-06
9.7349e-06
9.61996e-06
9.4775e-06
9.30835e-06
9.1135e-06
8.89409e-06
8.65144e-06
8.38698e-06
8.10226e-06
7.79894e-06
7.47869e-06
7.14319e-06
6.7941e-06
6.43309e-06
6.06184e-06
5.68213e-06
5.29586e-06
4.9051e-06
4.512e-06
4.11869e-06
3.72725e-06
3.33959e-06
2.95731e-06
2.58155e-06
2.21287e-06
1.85113e-06
1.49547e-06
1.14428e-06
7.9512e-07
4.4479e-07
7.76406e-10
2.90938e-12
3.04549e-12
8.12802e-10
4.6537e-07
8.31395e-07
1.19587e-06
1.56219e-06
1.93291e-06
2.30974e-06
2.69358e-06
3.08454e-06
3.48205e-06
3.88491e-06
4.29145e-06
4.6997e-06
5.10751e-06
5.51269e-06
5.91305e-06
6.30649e-06
6.69109e-06
7.06504e-06
7.4266e-06
7.77407e-06
8.10573e-06
8.41981e-06
8.71459e-06
8.98837e-06
9.23954e-06
9.46662e-06
9.66827e-06
9.84332e-06
9.99075e-06
1.01097e-05
1.01996e-05
1.02597e-05
1.029e-05
1.029e-05
1.02599e-05
1.01999e-05
1.01102e-05
9.99133e-06
9.84402e-06
9.66909e-06
9.46755e-06
9.24057e-06
8.9895e-06
8.71581e-06
8.42111e-06
8.10709e-06
7.7755e-06
7.42809e-06
7.06656e-06
6.69264e-06
6.30807e-06
5.91464e-06
5.51427e-06
5.10907e-06
4.70123e-06
4.29293e-06
3.88633e-06
3.48339e-06
3.08579e-06
2.69472e-06
2.31077e-06
1.93381e-06
1.56294e-06
1.19646e-06
8.31825e-07
4.65622e-07
8.13287e-10
3.04738e-12
3.13958e-12
8.37955e-10
4.79567e-07
8.56388e-07
1.23138e-06
1.60808e-06
1.98913e-06
2.37629e-06
2.77049e-06
3.17185e-06
3.57976e-06
3.99299e-06
4.40982e-06
4.82825e-06
5.24607e-06
5.66106e-06
6.071e-06
6.47377e-06
6.86744e-06
7.25017e-06
7.6202e-06
7.97578e-06
8.31515e-06
8.63651e-06
8.93809e-06
9.21814e-06
9.47504e-06
9.70726e-06
9.91346e-06
1.00924e-05
1.02432e-05
1.03648e-05
1.04566e-05
1.05181e-05
1.0549e-05
1.05491e-05
1.05183e-05
1.04569e-05
1.03652e-05
1.02437e-05
1.00931e-05
9.91425e-06
9.70816e-06
9.47604e-06
9.21924e-06
8.93927e-06
8.63778e-06
8.31648e-06
7.97717e-06
7.62164e-06
7.25165e-06
6.86895e-06
6.4753e-06
6.07254e-06
5.6626e-06
5.24759e-06
4.82974e-06
4.41127e-06
3.99437e-06
3.58107e-06
3.17307e-06
2.77161e-06
2.37729e-06
1.99e-06
1.60881e-06
1.23196e-06
8.56805e-07
4.79812e-07
8.38428e-10
3.14143e-12
3.20044e-12
8.54233e-10
4.88751e-07
8.72548e-07
1.25433e-06
1.63774e-06
2.02546e-06
2.41931e-06
2.82022e-06
3.22831e-06
3.64296e-06
4.06291e-06
4.48642e-06
4.91145e-06
5.33578e-06
5.75715e-06
6.1733e-06
6.58215e-06
6.98173e-06
7.37018e-06
7.74573e-06
8.1066e-06
8.451e-06
8.77711e-06
9.08312e-06
9.36726e-06
9.62789e-06
9.86347e-06
1.00726e-05
1.02542e-05
1.0407e-05
1.05304e-05
1.06235e-05
1.06859e-05
1.07172e-05
1.07173e-05
1.06861e-05
1.06238e-05
1.05308e-05
1.04076e-05
1.02548e-05
1.00734e-05
9.86435e-06
9.62887e-06
9.36834e-06
9.08428e-06
8.77835e-06
8.45231e-06
8.10797e-06
7.74715e-06
7.37164e-06
6.98322e-06
6.58366e-06
6.17482e-06
5.75866e-06
5.33727e-06
4.91292e-06
4.48784e-06
4.06427e-06
3.64425e-06
3.22951e-06
2.82132e-06
2.4203e-06
2.02632e-06
1.63845e-06
1.2549e-06
8.72958e-07
4.88992e-07
8.54699e-10
3.20226e-12
3.23792e-12
8.64263e-10
4.94409e-07
8.82501e-07
1.26847e-06
1.65601e-06
2.04785e-06
2.44583e-06
2.85089e-06
3.26314e-06
3.68197e-06
4.10608e-06
4.53374e-06
4.96287e-06
5.39124e-06
5.81658e-06
6.23662e-06
6.64925e-06
7.05251e-06
7.44454e-06
7.82353e-06
8.18771e-06
8.53525e-06
8.86433e-06
9.17311e-06
9.45981e-06
9.72277e-06
9.96046e-06
1.01715e-05
1.03546e-05
1.05088e-05
1.06333e-05
1.07272e-05
1.07901e-05
1.08217e-05
1.08218e-05
1.07903e-05
1.07275e-05
1.06337e-05
1.05094e-05
1.03553e-05
1.01722e-05
9.96133e-06
9.72375e-06
9.46088e-06
9.17426e-06
8.86556e-06
8.53655e-06
8.18907e-06
7.82494e-06
7.44599e-06
7.05399e-06
6.65075e-06
6.23812e-06
5.81808e-06
5.39273e-06
4.96433e-06
4.53515e-06
4.10744e-06
3.68325e-06
3.26433e-06
2.85198e-06
2.44681e-06
2.0487e-06
1.65672e-06
1.26904e-06
8.82908e-07
4.94648e-07
8.64724e-10
3.23973e-12
3.25996e-12
8.70161e-10
4.97737e-07
8.88356e-07
1.27679e-06
1.66676e-06
2.06104e-06
2.46145e-06
2.86896e-06
3.28369e-06
3.70499e-06
4.13158e-06
4.5617e-06
4.99327e-06
5.42406e-06
5.85176e-06
6.27411e-06
6.68901e-06
7.09447e-06
7.48864e-06
7.8697e-06
8.23585e-06
8.58528e-06
8.91614e-06
9.22658e-06
9.51483e-06
9.77919e-06
1.00181e-05
1.02303e-05
1.04144e-05
1.05694e-05
1.06945e-05
1.07889e-05
1.08522e-05
1.08839e-05
1.0884e-05
1.08524e-05
1.07892e-05
1.06949e-05
1.05699e-05
1.0415e-05
1.0231e-05
1.0019e-05
9.78016e-06
9.51589e-06
9.22773e-06
8.91737e-06
8.58658e-06
8.23721e-06
7.8711e-06
7.49008e-06
7.09595e-06
6.6905e-06
6.27561e-06
5.85326e-06
5.42554e-06
4.99473e-06
4.56311e-06
4.13293e-06
3.70626e-06
3.28488e-06
2.87005e-06
2.46243e-06
2.06189e-06
1.66747e-06
1.27735e-06
8.88762e-07
4.97975e-07
8.70621e-10
3.26176e-12
3.27235e-12
8.7348e-10
4.9961e-07
8.91653e-07
1.28148e-06
1.67282e-06
2.06847e-06
2.47027e-06
2.87917e-06
3.29529e-06
3.718e-06
4.14601e-06
4.57753e-06
5.0105e-06
5.44266e-06
5.87172e-06
6.29539e-06
6.71159e-06
7.11832e-06
7.51371e-06
7.89596e-06
8.26326e-06
8.61377e-06
8.94566e-06
9.25706e-06
9.54619e-06
9.81136e-06
1.0051e-05
1.02638e-05
1.04485e-05
1.0604e-05
1.07294e-05
1.08241e-05
1.08876e-05
1.09194e-05
1.09195e-05
1.08878e-05
1.08244e-05
1.07298e-05
1.06045e-05
1.04491e-05
1.02646e-05
1.00519e-05
9.81234e-06
9.54725e-06
9.25821e-06
8.94689e-06
8.61507e-06
8.26461e-06
7.89737e-06
7.51516e-06
7.1198e-06
6.71308e-06
6.2969e-06
5.87322e-06
5.44414e-06
5.01195e-06
4.57894e-06
4.14736e-06
3.71928e-06
3.29648e-06
2.88026e-06
2.47124e-06
2.06932e-06
1.67353e-06
1.28204e-06
8.92059e-07
4.99848e-07
8.73941e-10
3.27416e-12
3.27904e-12
8.75271e-10
5.00621e-07
8.93433e-07
1.28401e-06
1.6761e-06
2.07249e-06
2.47504e-06
2.88469e-06
3.30158e-06
3.72506e-06
4.15384e-06
4.58614e-06
5.01987e-06
5.45278e-06
5.88259e-06
6.307e-06
6.7239e-06
7.13133e-06
7.52741e-06
7.91031e-06
8.27824e-06
8.62935e-06
8.9618e-06
9.27374e-06
9.56336e-06
9.82898e-06
1.00691e-05
1.02822e-05
1.04672e-05
1.06229e-05
1.07486e-05
1.08435e-05
1.0907e-05
1.09389e-05
1.0939e-05
1.09072e-05
1.08438e-05
1.0749e-05
1.06235e-05
1.04678e-05
1.0283e-05
1.00699e-05
9.82996e-06
9.56443e-06
9.27489e-06
8.96304e-06
8.63065e-06
8.27959e-06
7.91172e-06
7.52885e-06
7.13281e-06
6.7254e-06
6.3085e-06
5.88409e-06
5.45427e-06
5.02132e-06
4.58755e-06
4.15519e-06
3.72634e-06
3.30278e-06
2.88578e-06
2.47601e-06
2.07334e-06
1.67681e-06
1.28457e-06
8.93839e-07
5.0086e-07
8.75732e-10
3.28084e-12
3.2825e-12
8.762e-10
5.01146e-07
8.94356e-07
1.28532e-06
1.6778e-06
2.07458e-06
2.47752e-06
2.88757e-06
3.30486e-06
3.72874e-06
4.15793e-06
4.59063e-06
5.02477e-06
5.45808e-06
5.88828e-06
6.31307e-06
6.73036e-06
7.13816e-06
7.5346e-06
7.91785e-06
8.28611e-06
8.63755e-06
8.9703e-06
9.28252e-06
9.5724e-06
9.83826e-06
1.00786e-05
1.02919e-05
1.0477e-05
1.06329e-05
1.07587e-05
1.08536e-05
1.09173e-05
1.09492e-05
1.09492e-05
1.09174e-05
1.08539e-05
1.07591e-05
1.06335e-05
1.04777e-05
1.02927e-05
1.00794e-05
9.83924e-06
9.57347e-06
9.28367e-06
8.97153e-06
8.63885e-06
8.28747e-06
7.91926e-06
7.53605e-06
7.13964e-06
6.73186e-06
6.31458e-06
5.88978e-06
5.45957e-06
5.02622e-06
4.59204e-06
4.15928e-06
3.73002e-06
3.30605e-06
2.88866e-06
2.4785e-06
2.07543e-06
1.67851e-06
1.28589e-06
8.94763e-07
5.01384e-07
8.76662e-10
3.28431e-12
3.28423e-12
8.76663e-10
5.01407e-07
8.94817e-07
1.28598e-06
1.67865e-06
2.07562e-06
2.47876e-06
2.88901e-06
3.30651e-06
3.73059e-06
4.15998e-06
4.59289e-06
5.02723e-06
5.46075e-06
5.89115e-06
6.31614e-06
6.73362e-06
7.14161e-06
7.53823e-06
7.92166e-06
8.2901e-06
8.6417e-06
8.97461e-06
9.28697e-06
9.57699e-06
9.84297e-06
1.00834e-05
1.02968e-05
1.0482e-05
1.0638e-05
1.07638e-05
1.08588e-05
1.09225e-05
1.09544e-05
1.09545e-05
1.09226e-05
1.08591e-05
1.07642e-05
1.06385e-05
1.04827e-05
1.02976e-05
1.00843e-05
9.84395e-06
9.57806e-06
9.28813e-06
8.97584e-06
8.643e-06
8.29146e-06
7.92307e-06
7.53968e-06
7.14309e-06
6.73512e-06
6.31765e-06
5.89265e-06
5.46224e-06
5.02869e-06
4.59431e-06
4.16134e-06
3.73188e-06
3.3077e-06
2.89011e-06
2.47974e-06
2.07648e-06
1.67936e-06
1.28654e-06
8.95224e-07
5.01646e-07
8.77125e-10
3.28604e-12
3.28506e-12
8.76886e-10
5.01533e-07
8.95039e-07
1.28629e-06
1.67906e-06
2.07613e-06
2.47936e-06
2.88971e-06
3.3073e-06
3.73149e-06
4.16098e-06
4.59399e-06
5.02843e-06
5.46205e-06
5.89254e-06
6.31763e-06
6.73521e-06
7.1433e-06
7.54e-06
7.92352e-06
8.29204e-06
8.64373e-06
8.97671e-06
9.28915e-06
9.57923e-06
9.84528e-06
1.00857e-05
1.02992e-05
1.04845e-05
1.06405e-05
1.07663e-05
1.08614e-05
1.0925e-05
1.0957e-05
1.0957e-05
1.09252e-05
1.08617e-05
1.07668e-05
1.0641e-05
1.04851e-05
1.03e-05
1.00866e-05
9.84626e-06
9.5803e-06
9.2903e-06
8.97795e-06
8.64503e-06
8.2934e-06
7.92494e-06
7.54146e-06
7.14478e-06
6.73671e-06
6.31914e-06
5.89405e-06
5.46354e-06
5.02989e-06
4.5954e-06
4.16233e-06
3.73277e-06
3.3085e-06
2.8908e-06
2.48034e-06
2.07698e-06
1.67977e-06
1.28686e-06
8.95446e-07
5.01773e-07
8.77348e-10
3.28687e-12
3.28544e-12
8.76989e-10
5.01592e-07
8.95142e-07
1.28644e-06
1.67925e-06
2.07636e-06
2.47964e-06
2.89003e-06
3.30767e-06
3.73191e-06
4.16144e-06
4.5945e-06
5.02899e-06
5.46266e-06
5.8932e-06
6.31834e-06
6.73596e-06
7.14409e-06
7.54084e-06
7.9244e-06
8.29296e-06
8.64468e-06
8.9777e-06
9.29017e-06
9.58029e-06
9.84637e-06
1.00868e-05
1.03003e-05
1.04856e-05
1.06416e-05
1.07675e-05
1.08626e-05
1.09262e-05
1.09582e-05
1.09582e-05
1.09264e-05
1.08629e-05
1.07679e-05
1.06422e-05
1.04863e-05
1.03011e-05
1.00877e-05
9.84735e-06
9.58136e-06
9.29133e-06
8.97894e-06
8.64599e-06
8.29432e-06
7.92581e-06
7.54229e-06
7.14557e-06
6.73746e-06
6.31985e-06
5.89471e-06
5.46415e-06
5.03045e-06
4.59592e-06
4.1628e-06
3.73319e-06
3.30887e-06
2.89113e-06
2.48062e-06
2.07722e-06
1.67996e-06
1.28701e-06
8.9555e-07
5.01831e-07
8.77452e-10
3.28725e-12
3.28562e-12
8.77036e-10
5.01618e-07
8.95188e-07
1.28651e-06
1.67933e-06
2.07647e-06
2.47976e-06
2.89018e-06
3.30784e-06
3.7321e-06
4.16165e-06
4.59473e-06
5.02924e-06
5.46293e-06
5.8935e-06
6.31865e-06
6.7363e-06
7.14445e-06
7.54122e-06
7.9248e-06
8.29338e-06
8.64512e-06
8.97816e-06
9.29064e-06
9.58077e-06
9.84686e-06
1.00874e-05
1.03009e-05
1.04862e-05
1.06422e-05
1.07681e-05
1.08631e-05
1.09268e-05
1.09587e-05
1.09588e-05
1.0927e-05
1.08634e-05
1.07685e-05
1.06427e-05
1.04868e-05
1.03016e-05
1.00882e-05
9.84784e-06
9.58185e-06
9.2918e-06
8.97939e-06
8.64642e-06
8.29474e-06
7.92621e-06
7.54267e-06
7.14593e-06
6.7378e-06
6.32016e-06
5.895e-06
5.46442e-06
5.0307e-06
4.59615e-06
4.16301e-06
3.73338e-06
3.30904e-06
2.89128e-06
2.48074e-06
2.07732e-06
1.68005e-06
1.28707e-06
8.95596e-07
5.01857e-07
8.77498e-10
3.28743e-12
3.28569e-12
8.77056e-10
5.01629e-07
8.95209e-07
1.28653e-06
1.67937e-06
2.07651e-06
2.47982e-06
2.89025e-06
3.30791e-06
3.73218e-06
4.16175e-06
4.59484e-06
5.02936e-06
5.46305e-06
5.89363e-06
6.31879e-06
6.73645e-06
7.1446e-06
7.54139e-06
7.92497e-06
8.29356e-06
8.64531e-06
8.97836e-06
9.29085e-06
9.58099e-06
9.84708e-06
1.00876e-05
1.03011e-05
1.04864e-05
1.06424e-05
1.07683e-05
1.08633e-05
1.0927e-05
1.0959e-05
1.0959e-05
1.09272e-05
1.08637e-05
1.07687e-05
1.0643e-05
1.04871e-05
1.03019e-05
1.00885e-05
9.84806e-06
9.58206e-06
9.29201e-06
8.97959e-06
8.64661e-06
8.29492e-06
7.92639e-06
7.54284e-06
7.14609e-06
6.73795e-06
6.3203e-06
5.89513e-06
5.46454e-06
5.03082e-06
4.59625e-06
4.1631e-06
3.73346e-06
3.30911e-06
2.89134e-06
2.4808e-06
2.07737e-06
1.68009e-06
1.2871e-06
8.95616e-07
5.01869e-07
8.77518e-10
3.2875e-12
3.28572e-12
8.77064e-10
5.01634e-07
8.95217e-07
1.28655e-06
1.67939e-06
2.07653e-06
2.47984e-06
2.89027e-06
3.30794e-06
3.73221e-06
4.16178e-06
4.59488e-06
5.0294e-06
5.4631e-06
5.89368e-06
6.31885e-06
6.73651e-06
7.14467e-06
7.54146e-06
7.92505e-06
8.29364e-06
8.64539e-06
8.97844e-06
9.29094e-06
9.58108e-06
9.84718e-06
1.00877e-05
1.03012e-05
1.04865e-05
1.06425e-05
1.07684e-05
1.08634e-05
1.09271e-05
1.09591e-05
1.09591e-05
1.09273e-05
1.08638e-05
1.07688e-05
1.06431e-05
1.04872e-05
1.0302e-05
1.00886e-05
9.84816e-06
9.58215e-06
9.2921e-06
8.97968e-06
8.6467e-06
8.295e-06
7.92646e-06
7.54291e-06
7.14616e-06
6.73801e-06
6.32036e-06
5.89519e-06
5.46459e-06
5.03086e-06
4.59629e-06
4.16314e-06
3.7335e-06
3.30914e-06
2.89137e-06
2.48082e-06
2.07739e-06
1.6801e-06
1.28711e-06
8.95625e-07
5.01874e-07
8.77527e-10
3.28753e-12
3.28574e-12
8.77068e-10
5.01636e-07
8.9522e-07
1.28655e-06
1.67939e-06
2.07654e-06
2.47985e-06
2.89028e-06
3.30796e-06
3.73223e-06
4.1618e-06
4.5949e-06
5.02942e-06
5.46313e-06
5.8937e-06
6.31888e-06
6.73654e-06
7.1447e-06
7.54149e-06
7.92508e-06
8.29367e-06
8.64543e-06
8.97848e-06
9.29097e-06
9.58112e-06
9.84722e-06
1.00877e-05
1.03012e-05
1.04865e-05
1.06426e-05
1.07684e-05
1.08635e-05
1.09272e-05
1.09591e-05
1.09592e-05
1.09274e-05
1.08638e-05
1.07689e-05
1.06431e-05
1.04872e-05
1.0302e-05
1.00886e-05
9.8482e-06
9.58219e-06
9.29213e-06
8.97971e-06
8.64673e-06
8.29504e-06
7.92649e-06
7.54294e-06
7.14618e-06
6.73804e-06
6.32039e-06
5.89521e-06
5.46462e-06
5.03088e-06
4.59631e-06
4.16316e-06
3.73351e-06
3.30915e-06
2.89138e-06
2.48083e-06
2.07739e-06
1.68011e-06
1.28712e-06
8.95628e-07
5.01876e-07
8.7753e-10
3.28755e-12
3.28574e-12
8.77069e-10
5.01637e-07
8.95222e-07
1.28655e-06
1.6794e-06
2.07655e-06
2.47986e-06
2.89029e-06
3.30796e-06
3.73223e-06
4.16181e-06
4.5949e-06
5.02943e-06
5.46313e-06
5.89371e-06
6.31889e-06
6.73655e-06
7.14471e-06
7.5415e-06
7.92509e-06
8.29369e-06
8.64544e-06
8.97849e-06
9.29099e-06
9.58113e-06
9.84723e-06
1.00877e-05
1.03012e-05
1.04865e-05
1.06426e-05
1.07685e-05
1.08635e-05
1.09272e-05
1.09591e-05
1.09592e-05
1.09274e-05
1.08638e-05
1.07689e-05
1.06431e-05
1.04872e-05
1.0302e-05
1.00886e-05
9.84821e-06
9.5822e-06
9.29215e-06
8.97973e-06
8.64674e-06
8.29505e-06
7.92651e-06
7.54295e-06
7.14619e-06
6.73805e-06
6.3204e-06
5.89522e-06
5.46462e-06
5.03089e-06
4.59632e-06
4.16316e-06
3.73352e-06
3.30916e-06
2.89138e-06
2.48084e-06
2.0774e-06
1.68011e-06
1.28712e-06
8.95629e-07
5.01876e-07
8.77532e-10
3.28755e-12
3.28574e-12
8.7707e-10
5.01637e-07
8.95222e-07
1.28655e-06
1.6794e-06
2.07655e-06
2.47986e-06
2.89029e-06
3.30796e-06
3.73223e-06
4.16181e-06
4.59491e-06
5.02943e-06
5.46314e-06
5.89372e-06
6.31889e-06
6.73655e-06
7.14472e-06
7.5415e-06
7.9251e-06
8.29369e-06
8.64545e-06
8.9785e-06
9.29099e-06
9.58114e-06
9.84724e-06
1.00877e-05
1.03013e-05
1.04866e-05
1.06426e-05
1.07685e-05
1.08635e-05
1.09272e-05
1.09591e-05
1.09592e-05
1.09274e-05
1.08638e-05
1.07689e-05
1.06431e-05
1.04872e-05
1.0302e-05
1.00886e-05
9.84822e-06
9.58221e-06
9.29215e-06
8.97973e-06
8.64675e-06
8.29505e-06
7.92651e-06
7.54296e-06
7.1462e-06
6.73805e-06
6.3204e-06
5.89522e-06
5.46463e-06
5.03089e-06
4.59632e-06
4.16317e-06
3.73352e-06
3.30916e-06
2.89138e-06
2.48084e-06
2.0774e-06
1.68011e-06
1.28712e-06
8.9563e-07
5.01877e-07
8.77532e-10
3.28755e-12
3.28574e-12
8.7707e-10
5.01637e-07
8.95223e-07
1.28655e-06
1.6794e-06
2.07655e-06
2.47986e-06
2.89029e-06
3.30796e-06
3.73224e-06
4.16181e-06
4.59491e-06
5.02943e-06
5.46314e-06
5.89372e-06
6.31889e-06
6.73655e-06
7.14472e-06
7.5415e-06
7.9251e-06
8.29369e-06
8.64545e-06
8.9785e-06
9.291e-06
9.58114e-06
9.84724e-06
1.00877e-05
1.03013e-05
1.04866e-05
1.06426e-05
1.07685e-05
1.08635e-05
1.09272e-05
1.09591e-05
1.09592e-05
1.09274e-05
1.08638e-05
1.07689e-05
1.06431e-05
1.04872e-05
1.0302e-05
1.00886e-05
9.84822e-06
9.58221e-06
9.29215e-06
8.97974e-06
8.64675e-06
8.29506e-06
7.92651e-06
7.54296e-06
7.1462e-06
6.73806e-06
6.3204e-06
5.89523e-06
5.46463e-06
5.03089e-06
4.59632e-06
4.16317e-06
3.73352e-06
3.30916e-06
2.89138e-06
2.48084e-06
2.0774e-06
1.68011e-06
1.28712e-06
8.9563e-07
5.01877e-07
8.77532e-10
3.28755e-12
3.28574e-12
8.7707e-10
5.01637e-07
8.95223e-07
1.28655e-06
1.6794e-06
2.07655e-06
2.47986e-06
2.89029e-06
3.30796e-06
3.73224e-06
4.16181e-06
4.59491e-06
5.02943e-06
5.46314e-06
5.89372e-06
6.31889e-06
6.73655e-06
7.14472e-06
7.54151e-06
7.9251e-06
8.29369e-06
8.64545e-06
8.9785e-06
9.291e-06
9.58114e-06
9.84724e-06
1.00877e-05
1.03013e-05
1.04866e-05
1.06426e-05
1.07685e-05
1.08635e-05
1.09272e-05
1.09591e-05
1.09592e-05
1.09274e-05
1.08638e-05
1.07689e-05
1.06431e-05
1.04872e-05
1.0302e-05
1.00886e-05
9.84822e-06
9.58221e-06
9.29216e-06
8.97974e-06
8.64675e-06
8.29506e-06
7.92651e-06
7.54296e-06
7.1462e-06
6.73806e-06
6.3204e-06
5.89523e-06
5.46463e-06
5.03089e-06
4.59632e-06
4.16317e-06
3.73352e-06
3.30916e-06
2.89138e-06
2.48084e-06
2.0774e-06
1.68011e-06
1.28712e-06
8.9563e-07
5.01877e-07
8.77532e-10
3.28756e-12
3.28574e-12
8.7707e-10
5.01637e-07
8.95223e-07
1.28655e-06
1.6794e-06
2.07655e-06
2.47986e-06
2.89029e-06
3.30796e-06
3.73224e-06
4.16181e-06
4.59491e-06
5.02943e-06
5.46314e-06
5.89372e-06
6.31889e-06
6.73655e-06
7.14472e-06
7.54151e-06
7.9251e-06
8.29369e-06
8.64545e-06
8.9785e-06
9.291e-06
9.58114e-06
9.84724e-06
1.00877e-05
1.03013e-05
1.04866e-05
1.06426e-05
1.07685e-05
1.08635e-05
1.09272e-05
1.09591e-05
1.09592e-05
1.09274e-05
1.08638e-05
1.07689e-05
1.06431e-05
1.04872e-05
1.0302e-05
1.00886e-05
9.84822e-06
9.58221e-06
9.29216e-06
8.97974e-06
8.64675e-06
8.29506e-06
7.92651e-06
7.54296e-06
7.1462e-06
6.73806e-06
6.3204e-06
5.89523e-06
5.46463e-06
5.03089e-06
4.59632e-06
4.16317e-06
3.73352e-06
3.30916e-06
2.89138e-06
2.48084e-06
2.0774e-06
1.68011e-06
1.28712e-06
8.9563e-07
5.01877e-07
8.77533e-10
3.28756e-12
3.28574e-12
8.7707e-10
5.01637e-07
8.95223e-07
1.28655e-06
1.6794e-06
2.07655e-06
2.47986e-06
2.89029e-06
3.30796e-06
3.73224e-06
4.16181e-06
4.59491e-06
5.02943e-06
5.46314e-06
5.89372e-06
6.31889e-06
6.73655e-06
7.14472e-06
7.54151e-06
7.9251e-06
8.29369e-06
8.64545e-06
8.9785e-06
9.291e-06
9.58114e-06
9.84724e-06
1.00877e-05
1.03013e-05
1.04866e-05
1.06426e-05
1.07685e-05
1.08635e-05
1.09272e-05
1.09591e-05
1.09592e-05
1.09274e-05
1.08638e-05
1.07689e-05
1.06431e-05
1.04872e-05
1.0302e-05
1.00886e-05
9.84822e-06
9.58221e-06
9.29216e-06
8.97974e-06
8.64675e-06
8.29506e-06
7.92651e-06
7.54296e-06
7.1462e-06
6.73806e-06
6.3204e-06
5.89523e-06
5.46463e-06
5.03089e-06
4.59632e-06
4.16317e-06
3.73352e-06
3.30916e-06
2.89138e-06
2.48084e-06
2.0774e-06
1.68011e-06
1.28712e-06
8.9563e-07
5.01877e-07
8.77533e-10
3.28756e-12
3.28574e-12
8.7707e-10
5.01637e-07
8.95223e-07
1.28656e-06
1.6794e-06
2.07655e-06
2.47986e-06
2.89029e-06
3.30796e-06
3.73224e-06
4.16181e-06
4.59491e-06
5.02943e-06
5.46314e-06
5.89372e-06
6.31889e-06
6.73655e-06
7.14472e-06
7.54151e-06
7.9251e-06
8.29369e-06
8.64545e-06
8.9785e-06
9.291e-06
9.58114e-06
9.84724e-06
1.00877e-05
1.03013e-05
1.04866e-05
1.06426e-05
1.07685e-05
1.08635e-05
1.09272e-05
1.09591e-05
1.09592e-05
1.09274e-05
1.08638e-05
1.07689e-05
1.06431e-05
1.04872e-05
1.0302e-05
1.00886e-05
9.84822e-06
9.58221e-06
9.29216e-06
8.97974e-06
8.64675e-06
8.29506e-06
7.92651e-06
7.54296e-06
7.1462e-06
6.73806e-06
6.3204e-06
5.89523e-06
5.46463e-06
5.03089e-06
4.59632e-06
4.16317e-06
3.73352e-06
3.30916e-06
2.89138e-06
2.48084e-06
2.0774e-06
1.68011e-06
1.28712e-06
8.9563e-07
5.01877e-07
8.77533e-10
3.28756e-12
3.28574e-12
8.7707e-10
5.01637e-07
8.95223e-07
1.28656e-06
1.6794e-06
2.07655e-06
2.47986e-06
2.89029e-06
3.30796e-06
3.73224e-06
4.16181e-06
4.59491e-06
5.02943e-06
5.46314e-06
5.89372e-06
6.31889e-06
6.73655e-06
7.14472e-06
7.54151e-06
7.9251e-06
8.29369e-06
8.64545e-06
8.9785e-06
9.291e-06
9.58114e-06
9.84724e-06
1.00877e-05
1.03013e-05
1.04866e-05
1.06426e-05
1.07685e-05
1.08635e-05
1.09272e-05
1.09591e-05
1.09592e-05
1.09274e-05
1.08638e-05
1.07689e-05
1.06431e-05
1.04872e-05
1.0302e-05
1.00886e-05
9.84822e-06
9.58221e-06
9.29216e-06
8.97974e-06
8.64675e-06
8.29506e-06
7.92651e-06
7.54296e-06
7.1462e-06
6.73806e-06
6.3204e-06
5.89523e-06
5.46463e-06
5.03089e-06
4.59632e-06
4.16317e-06
3.73352e-06
3.30916e-06
2.89138e-06
2.48084e-06
2.0774e-06
1.68011e-06
1.28712e-06
8.9563e-07
5.01877e-07
8.77533e-10
3.28756e-12
3.28574e-12
8.7707e-10
5.01637e-07
8.95223e-07
1.28656e-06
1.6794e-06
2.07655e-06
2.47986e-06
2.89029e-06
3.30796e-06
3.73224e-06
4.16181e-06
4.59491e-06
5.02943e-06
5.46314e-06
5.89372e-06
6.31889e-06
6.73655e-06
7.14472e-06
7.54151e-06
7.9251e-06
8.29369e-06
8.64545e-06
8.9785e-06
9.291e-06
9.58114e-06
9.84724e-06
1.00877e-05
1.03013e-05
1.04866e-05
1.06426e-05
1.07685e-05
1.08635e-05
1.09272e-05
1.09591e-05
1.09592e-05
1.09274e-05
1.08638e-05
1.07689e-05
1.06431e-05
1.04872e-05
1.0302e-05
1.00886e-05
9.84822e-06
9.58221e-06
9.29216e-06
8.97974e-06
8.64675e-06
8.29506e-06
7.92651e-06
7.54296e-06
7.1462e-06
6.73806e-06
6.3204e-06
5.89523e-06
5.46463e-06
5.03089e-06
4.59632e-06
4.16317e-06
3.73352e-06
3.30916e-06
2.89138e-06
2.48084e-06
2.0774e-06
1.68011e-06
1.28712e-06
8.9563e-07
5.01877e-07
8.77533e-10
3.28756e-12
3.28574e-12
8.7707e-10
5.01637e-07
8.95223e-07
1.28656e-06
1.6794e-06
2.07655e-06
2.47986e-06
2.89029e-06
3.30796e-06
3.73224e-06
4.16181e-06
4.59491e-06
5.02943e-06
5.46314e-06
5.89372e-06
6.31889e-06
6.73655e-06
7.14472e-06
7.54151e-06