/*--------------------------------*- C++ -*----------------------------------*\
  =========                 |
  \\      /  F ield         | OpenFOAM: The Open Source CFD Toolbox
   \\    /   O peration     | Website:  https://openfoam.org
    \\  /    A nd           | Version:  13
     \\/     M anipulation  |
\*---------------------------------------------------------------------------*/
FoamFile
{
    format      ascii;
    class       volScalarField;
    location    "122.5";
    object      rhok;
}
// * * * * * * * * * * * * * * * * * * * * * * * * * * * * * * * * * * * * * //

dimensions      [];

internalField   nonuniform List<scalar> 
315000
(
0.444619
0.429484
0.414324
0.412873
0.412114
0.411357
0.410602
0.409851
0.409101
0.408354
0.407611
0.406869
0.406131
0.405396
0.404664
0.403935
0.403209
0.402487
0.401768
0.401053
0.400341
0.399633
0.398929
0.398228
0.397532
0.396839
0.396151
0.395467
0.394786
0.394111
0.393439
0.392772
0.392109
0.391451
0.390797
0.390147
0.389502
0.388861
0.388225
0.387593
0.386966
0.386343
0.385725
0.38511
0.3845
0.383894
0.383292
0.382694
0.3821
0.38151
0.380923
0.38034
0.379761
0.379185
0.378611
0.378041
0.377474
0.376909
0.376347
0.375787
0.375229
0.374673
0.374119
0.373567
0.373016
0.372466
0.371916
0.371368
0.37082
0.370273
0.444619
0.429482
0.414321
0.41287
0.412111
0.411354
0.410599
0.409847
0.409097
0.408351
0.407607
0.406866
0.406127
0.405392
0.40466
0.403931
0.403205
0.402483
0.401764
0.401048
0.400337
0.399628
0.398924
0.398224
0.397527
0.396834
0.396146
0.395462
0.394781
0.394106
0.393434
0.392767
0.392104
0.391446
0.390792
0.390142
0.389497
0.388856
0.38822
0.387589
0.386961
0.386338
0.38572
0.385106
0.384496
0.38389
0.383288
0.38269
0.382096
0.381506
0.38092
0.380337
0.379757
0.379181
0.378608
0.378038
0.377471
0.376906
0.376344
0.375785
0.375227
0.374672
0.374118
0.373565
0.373014
0.372465
0.371916
0.371368
0.37082
0.370273
0.444619
0.42948
0.414317
0.412867
0.412107
0.41135
0.410595
0.409843
0.409094
0.408347
0.407603
0.406862
0.406123
0.405388
0.404656
0.403927
0.403201
0.402479
0.40176
0.401044
0.400332
0.399624
0.39892
0.398219
0.397523
0.39683
0.396142
0.395457
0.394777
0.394101
0.39343
0.392762
0.392099
0.391441
0.390787
0.390138
0.389493
0.388852
0.388216
0.387584
0.386957
0.386334
0.385716
0.385102
0.384492
0.383886
0.383284
0.382687
0.382093
0.381503
0.380917
0.380334
0.379754
0.379178
0.378606
0.378036
0.377469
0.376904
0.376342
0.375783
0.375225
0.37467
0.374116
0.373564
0.373013
0.372464
0.371915
0.371367
0.37082
0.370273
0.444619
0.429479
0.414315
0.412864
0.412104
0.411347
0.410592
0.40984
0.409091
0.408344
0.4076
0.406858
0.40612
0.405385
0.404652
0.403923
0.403197
0.402475
0.401756
0.40104
0.400329
0.39962
0.398916
0.398215
0.397519
0.396826
0.396138
0.395453
0.394773
0.394097
0.393426
0.392758
0.392096
0.391437
0.390783
0.390134
0.389489
0.388848
0.388212
0.387581
0.386954
0.386331
0.385712
0.385098
0.384489
0.383883
0.383281
0.382684
0.38209
0.3815
0.380914
0.380331
0.379752
0.379176
0.378603
0.378034
0.377467
0.376902
0.376341
0.375781
0.375224
0.374669
0.374115
0.373563
0.373013
0.372463
0.371915
0.371367
0.37082
0.370273
0.444619
0.429478
0.414312
0.412862
0.412102
0.411345
0.41059
0.409838
0.409088
0.408341
0.407597
0.406856
0.406117
0.405382
0.40465
0.40392
0.403195
0.402472
0.401753
0.401038
0.400326
0.399617
0.398913
0.398212
0.397516
0.396823
0.396135
0.39545
0.39477
0.394094
0.393423
0.392755
0.392093
0.391434
0.39078
0.390131
0.389486
0.388845
0.388209
0.387578
0.386951
0.386328
0.38571
0.385096
0.384486
0.38388
0.383279
0.382681
0.382088
0.381498
0.380912
0.380329
0.37975
0.379174
0.378602
0.378032
0.377465
0.376901
0.376339
0.37578
0.375223
0.374668
0.374114
0.373562
0.373012
0.372463
0.371914
0.371366
0.370819
0.370273
0.444619
0.429477
0.414311
0.41286
0.4121
0.411343
0.410588
0.409836
0.409086
0.408339
0.407595
0.406854
0.406115
0.40538
0.404648
0.403919
0.403193
0.40247
0.401751
0.401035
0.400324
0.399615
0.398911
0.39821
0.397514
0.396821
0.396132
0.395448
0.394768
0.394092
0.39342
0.392753
0.39209
0.391432
0.390778
0.390129
0.389484
0.388843
0.388207
0.387576
0.386949
0.386326
0.385708
0.385094
0.384484
0.383878
0.383277
0.382679
0.382086
0.381496
0.38091
0.380328
0.379749
0.379173
0.3786
0.378031
0.377464
0.3769
0.376338
0.375779
0.375222
0.374667
0.374114
0.373562
0.373011
0.372462
0.371914
0.371366
0.370819
0.370273
0.444619
0.429477
0.41431
0.412859
0.4121
0.411342
0.410588
0.409835
0.409086
0.408339
0.407594
0.406853
0.406115
0.405379
0.404647
0.403918
0.403192
0.402469
0.40175
0.401034
0.400322
0.399614
0.39891
0.398209
0.397512
0.39682
0.396131
0.395447
0.394766
0.394091
0.393419
0.392752
0.392089
0.391431
0.390777
0.390127
0.389482
0.388842
0.388206
0.387574
0.386947
0.386325
0.385706
0.385092
0.384483
0.383877
0.383276
0.382678
0.382085
0.381495
0.380909
0.380326
0.379747
0.379172
0.378599
0.37803
0.377463
0.376899
0.376338
0.375778
0.375221
0.374666
0.374113
0.373561
0.373011
0.372462
0.371914
0.371366
0.370819
0.370272
0.444619
0.429477
0.41431
0.412859
0.4121
0.411342
0.410587
0.409835
0.409085
0.408338
0.407594
0.406853
0.406114
0.405379
0.404646
0.403917
0.403191
0.402469
0.40175
0.401034
0.400322
0.399614
0.398909
0.398208
0.397512
0.396819
0.39613
0.395446
0.394766
0.39409
0.393418
0.392751
0.392088
0.39143
0.390776
0.390126
0.389481
0.388841
0.388205
0.387573
0.386946
0.386324
0.385705
0.385091
0.384482
0.383876
0.383275
0.382677
0.382084
0.381494
0.380908
0.380326
0.379747
0.379171
0.378599
0.378029
0.377462
0.376898
0.376337
0.375778
0.375221
0.374666
0.374113
0.373561
0.373011
0.372462
0.371913
0.371366
0.370819
0.370272
0.444619
0.429477
0.414311
0.41286
0.4121
0.411343
0.410588
0.409836
0.409086
0.408339
0.407595
0.406853
0.406115
0.405379
0.404647
0.403918
0.403192
0.402469
0.40175
0.401034
0.400322
0.399614
0.398909
0.398208
0.397512
0.396819
0.39613
0.395446
0.394766
0.39409
0.393418
0.392751
0.392088
0.391429
0.390775
0.390126
0.389481
0.388841
0.388205
0.387573
0.386946
0.386323
0.385705
0.385091
0.384481
0.383876
0.383274
0.382677
0.382083
0.381494
0.380908
0.380325
0.379746
0.379171
0.378598
0.378029
0.377462
0.376898
0.376337
0.375778
0.375221
0.374666
0.374112
0.373561
0.373011
0.372461
0.371913
0.371366
0.370819
0.370272
0.444619
0.429478
0.414312
0.412861
0.412101
0.411344
0.410589
0.409837
0.409087
0.40834
0.407596
0.406854
0.406116
0.40538
0.404648
0.403918
0.403192
0.40247
0.40175
0.401035
0.400323
0.399614
0.39891
0.398209
0.397512
0.396819
0.396131
0.395446
0.394766
0.39409
0.393418
0.392751
0.392088
0.39143
0.390776
0.390126
0.389481
0.388841
0.388204
0.387573
0.386946
0.386323
0.385705
0.385091
0.384481
0.383876
0.383274
0.382677
0.382083
0.381493
0.380907
0.380325
0.379746
0.37917
0.378598
0.378029
0.377462
0.376898
0.376337
0.375777
0.375221
0.374666
0.374112
0.373561
0.37301
0.372461
0.371913
0.371366
0.370819
0.370272
0.444619
0.429478
0.414313
0.412862
0.412102
0.411345
0.41059
0.409838
0.409088
0.408341
0.407597
0.406855
0.406117
0.405381
0.404648
0.403919
0.403193
0.40247
0.401751
0.401035
0.400323
0.399615
0.39891
0.39821
0.397513
0.39682
0.396131
0.395447
0.394766
0.39409
0.393419
0.392751
0.392088
0.39143
0.390776
0.390126
0.389481
0.388841
0.388205
0.387573
0.386946
0.386323
0.385705
0.385091
0.384481
0.383876
0.383274
0.382677
0.382083
0.381493
0.380907
0.380325
0.379746
0.37917
0.378598
0.378028
0.377462
0.376898
0.376337
0.375777
0.375221
0.374666
0.374112
0.373561
0.37301
0.372461
0.371913
0.371366
0.370819
0.370272
0.444619
0.429478
0.414313
0.412862
0.412103
0.411345
0.410591
0.409838
0.409089
0.408342
0.407597
0.406856
0.406117
0.405382
0.404649
0.40392
0.403194
0.402471
0.401752
0.401036
0.400324
0.399616
0.398911
0.39821
0.397513
0.39682
0.396132
0.395447
0.394767
0.394091
0.393419
0.392752
0.392089
0.39143
0.390776
0.390127
0.389482
0.388841
0.388205
0.387573
0.386946
0.386323
0.385705
0.385091
0.384481
0.383876
0.383274
0.382677
0.382083
0.381494
0.380908
0.380325
0.379746
0.379171
0.378598
0.378029
0.377462
0.376898
0.376337
0.375777
0.375221
0.374666
0.374112
0.373561
0.37301
0.372461
0.371913
0.371366
0.370819
0.370272
0.444619
0.429479
0.414314
0.412863
0.412103
0.411346
0.410591
0.409839
0.409089
0.408342
0.407597
0.406856
0.406117
0.405382
0.404649
0.40392
0.403194
0.402471
0.401752
0.401036
0.400324
0.399616
0.398911
0.39821
0.397514
0.396821
0.396132
0.395447
0.394767
0.394091
0.393419
0.392752
0.392089
0.39143
0.390776
0.390127
0.389482
0.388841
0.388205
0.387574
0.386946
0.386324
0.385705
0.385091
0.384481
0.383876
0.383274
0.382677
0.382083
0.381494
0.380908
0.380325
0.379746
0.379171
0.378598
0.378029
0.377462
0.376898
0.376337
0.375778
0.375221
0.374666
0.374112
0.373561
0.373011
0.372461
0.371913
0.371366
0.370819
0.370272
0.444619
0.429478
0.414313
0.412862
0.412103
0.411345
0.410591
0.409838
0.409089
0.408342
0.407597
0.406856
0.406117
0.405382
0.404649
0.40392
0.403194
0.402471
0.401752
0.401036
0.400324
0.399616
0.398911
0.39821
0.397514
0.396821
0.396132
0.395447
0.394767
0.394091
0.393419
0.392752
0.392089
0.39143
0.390776
0.390127
0.389482
0.388841
0.388205
0.387574
0.386947
0.386324
0.385705
0.385091
0.384482
0.383876
0.383275
0.382677
0.382084
0.381494
0.380908
0.380325
0.379746
0.379171
0.378598
0.378029
0.377462
0.376898
0.376337
0.375778
0.375221
0.374666
0.374112
0.373561
0.373011
0.372461
0.371913
0.371366
0.370819
0.370272
0.444619
0.429478
0.414313
0.412862
0.412102
0.411345
0.41059
0.409838
0.409088
0.408341
0.407597
0.406855
0.406117
0.405381
0.404649
0.40392
0.403194
0.402471
0.401752
0.401036
0.400324
0.399615
0.398911
0.39821
0.397513
0.396821
0.396132
0.395447
0.394767
0.394091
0.393419
0.392752
0.392089
0.39143
0.390776
0.390127
0.389482
0.388841
0.388205
0.387574
0.386947
0.386324
0.385706
0.385092
0.384482
0.383876
0.383275
0.382677
0.382084
0.381494
0.380908
0.380326
0.379747
0.379171
0.378598
0.378029
0.377462
0.376898
0.376337
0.375778
0.375221
0.374666
0.374113
0.373561
0.373011
0.372461
0.371913
0.371366
0.370819
0.370272
0.444619
0.429478
0.414312
0.412861
0.412102
0.411344
0.41059
0.409837
0.409088
0.408341
0.407596
0.406855
0.406116
0.405381
0.404649
0.403919
0.403193
0.402471
0.401751
0.401036
0.400324
0.399615
0.398911
0.39821
0.397513
0.39682
0.396132
0.395447
0.394767
0.394091
0.393419
0.392752
0.392089
0.391431
0.390777
0.390127
0.389482
0.388841
0.388205
0.387574
0.386947
0.386324
0.385706
0.385092
0.384482
0.383876
0.383275
0.382677
0.382084
0.381494
0.380908
0.380326
0.379747
0.379171
0.378598
0.378029
0.377462
0.376898
0.376337
0.375778
0.375221
0.374666
0.374113
0.373561
0.373011
0.372462
0.371913
0.371366
0.370819
0.370272
0.444619
0.429478
0.414312
0.412861
0.412102
0.411344
0.41059
0.409837
0.409088
0.408341
0.407596
0.406855
0.406116
0.405381
0.404649
0.403919
0.403193
0.402471
0.401751
0.401036
0.400324
0.399615
0.398911
0.39821
0.397513
0.396821
0.396132
0.395447
0.394767
0.394091
0.393419
0.392752
0.392089
0.391431
0.390777
0.390127
0.389482
0.388842
0.388206
0.387574
0.386947
0.386324
0.385706
0.385092
0.384482
0.383877
0.383275
0.382678
0.382084
0.381494
0.380908
0.380326
0.379747
0.379171
0.378599
0.378029
0.377462
0.376899
0.376337
0.375778
0.375221
0.374666
0.374113
0.373561
0.373011
0.372462
0.371913
0.371366
0.370819
0.370272
0.444619
0.429478
0.414313
0.412862
0.412102
0.411345
0.41059
0.409838
0.409088
0.408341
0.407597
0.406855
0.406117
0.405381
0.404649
0.40392
0.403194
0.402471
0.401752
0.401036
0.400324
0.399616
0.398911
0.398211
0.397514
0.396821
0.396132
0.395448
0.394768
0.394092
0.39342
0.392753
0.39209
0.391431
0.390777
0.390128
0.389483
0.388842
0.388206
0.387574
0.386947
0.386325
0.385706
0.385092
0.384482
0.383877
0.383275
0.382678
0.382084
0.381495
0.380909
0.380326
0.379747
0.379171
0.378599
0.378029
0.377463
0.376899
0.376337
0.375778
0.375221
0.374666
0.374113
0.373561
0.373011
0.372462
0.371913
0.371366
0.370819
0.370272
0.444619
0.429479
0.414314
0.412863
0.412103
0.411346
0.410591
0.409839
0.409089
0.408342
0.407598
0.406857
0.406118
0.405383
0.40465
0.403921
0.403195
0.402472
0.401753
0.401037
0.400325
0.399617
0.398912
0.398212
0.397515
0.396822
0.396133
0.395449
0.394768
0.394092
0.393421
0.392753
0.39209
0.391432
0.390778
0.390128
0.389483
0.388843
0.388207
0.387575
0.386948
0.386325
0.385707
0.385093
0.384483
0.383877
0.383276
0.382678
0.382085
0.381495
0.380909
0.380326
0.379747
0.379172
0.378599
0.37803
0.377463
0.376899
0.376337
0.375778
0.375221
0.374666
0.374113
0.373561
0.373011
0.372462
0.371914
0.371366
0.370819
0.370272
0.444619
0.429479
0.414315
0.412864
0.412105
0.411347
0.410592
0.40984
0.409091
0.408344
0.407599
0.406858
0.406119
0.405384
0.404651
0.403922
0.403196
0.402474
0.401754
0.401039
0.400327
0.399618
0.398913
0.398213
0.397516
0.396823
0.396134
0.39545
0.394769
0.394093
0.393422
0.392754
0.392091
0.391433
0.390779
0.390129
0.389484
0.388843
0.388207
0.387576
0.386949
0.386326
0.385707
0.385093
0.384483
0.383878
0.383276
0.382679
0.382085
0.381495
0.380909
0.380327
0.379748
0.379172
0.378599
0.37803
0.377463
0.376899
0.376338
0.375778
0.375221
0.374666
0.374113
0.373561
0.373011
0.372462
0.371914
0.371366
0.370819
0.370272
0.444619
0.42948
0.414316
0.412865
0.412106
0.411349
0.410594
0.409842
0.409092
0.408345
0.407601
0.406859
0.406121
0.405385
0.404653
0.403924
0.403198
0.402475
0.401756
0.40104
0.400328
0.399619
0.398915
0.398214
0.397517
0.396824
0.396136
0.395451
0.394771
0.394094
0.393423
0.392755
0.392092
0.391434
0.39078
0.39013
0.389485
0.388844
0.388208
0.387576
0.386949
0.386326
0.385708
0.385094
0.384484
0.383878
0.383277
0.382679
0.382086
0.381496
0.38091
0.380327
0.379748
0.379172
0.3786
0.37803
0.377463
0.376899
0.376338
0.375779
0.375222
0.374667
0.374113
0.373561
0.373011
0.372462
0.371914
0.371366
0.370819
0.370272
0.444619
0.42948
0.414317
0.412867
0.412107
0.41135
0.410595
0.409843
0.409093
0.408346
0.407602
0.406861
0.406122
0.405387
0.404654
0.403925
0.403199
0.402476
0.401757
0.401041
0.400329
0.399621
0.398916
0.398215
0.397518
0.396825
0.396137
0.395452
0.394772
0.394095
0.393424
0.392756
0.392093
0.391435
0.39078
0.390131
0.389486
0.388845
0.388209
0.387577
0.38695
0.386327
0.385709
0.385094
0.384485
0.383879
0.383277
0.38268
0.382086
0.381496
0.38091
0.380328
0.379748
0.379173
0.3786
0.37803
0.377464
0.3769
0.376338
0.375779
0.375222
0.374667
0.374113
0.373562
0.373011
0.372462
0.371914
0.371366
0.370819
0.370272
0.444619
0.429481
0.414318
0.412868
0.412108
0.411351
0.410596
0.409844
0.409094
0.408347
0.407603
0.406862
0.406123
0.405388
0.404655
0.403926
0.4032
0.402477
0.401758
0.401042
0.40033
0.399622
0.398917
0.398216
0.397519
0.396826
0.396138
0.395453
0.394772
0.394096
0.393424
0.392757
0.392094
0.391435
0.390781
0.390132
0.389486
0.388846
0.38821
0.387578
0.386951
0.386328
0.385709
0.385095
0.384485
0.383879
0.383278
0.38268
0.382086
0.381497
0.38091
0.380328
0.379749
0.379173
0.3786
0.378031
0.377464
0.3769
0.376338
0.375779
0.375222
0.374667
0.374114
0.373562
0.373011
0.372462
0.371914
0.371366
0.370819
0.370273
0.444619
0.429481
0.414319
0.412869
0.412109
0.411352
0.410597
0.409845
0.409095
0.408348
0.407604
0.406863
0.406124
0.405389
0.404656
0.403927
0.403201
0.402478
0.401759
0.401043
0.400331
0.399623
0.398918
0.398217
0.39752
0.396827
0.396138
0.395454
0.394773
0.394097
0.393425
0.392758
0.392095
0.391436
0.390782
0.390132
0.389487
0.388846
0.38821
0.387578
0.386951
0.386328
0.38571
0.385096
0.384486
0.38388
0.383278
0.382681
0.382087
0.381497
0.380911
0.380328
0.379749
0.379173
0.378601
0.378031
0.377464
0.3769
0.376339
0.375779
0.375222
0.374667
0.374114
0.373562
0.373011
0.372462
0.371914
0.371366
0.370819
0.370273
0.444619
0.429482
0.41432
0.41287
0.41211
0.411353
0.410598
0.409846
0.409096
0.408349
0.407605
0.406864
0.406125
0.40539
0.404657
0.403928
0.403202
0.402479
0.40176
0.401044
0.400332
0.399624
0.398919
0.398218
0.397521
0.396828
0.39614
0.395455
0.394774
0.394098
0.393426
0.392759
0.392096
0.391437
0.390783
0.390133
0.389488
0.388847
0.388211
0.387579
0.386952
0.386329
0.38571
0.385096
0.384486
0.38388
0.383279
0.382681
0.382087
0.381497
0.380911
0.380329
0.379749
0.379174
0.378601
0.378031
0.377464
0.3769
0.376339
0.375779
0.375222
0.374667
0.374114
0.373562
0.373012
0.372462
0.371914
0.371366
0.370819
0.370273
0.444619
0.429482
0.414321
0.412871
0.412111
0.411354
0.410599
0.409847
0.409098
0.408351
0.407607
0.406865
0.406127
0.405391
0.404659
0.403929
0.403203
0.402481
0.401761
0.401046
0.400333
0.399625
0.39892
0.398219
0.397522
0.396829
0.396141
0.395456
0.394775
0.394099
0.393427
0.39276
0.392097
0.391438
0.390784
0.390134
0.389489
0.388848
0.388212
0.38758
0.386953
0.38633
0.385711
0.385097
0.384487
0.383881
0.383279
0.382682
0.382088
0.381498
0.380912
0.380329
0.37975
0.379174
0.378601
0.378032
0.377465
0.376901
0.376339
0.37578
0.375223
0.374667
0.374114
0.373562
0.373012
0.372462
0.371914
0.371366
0.370819
0.370273
0.444619
0.429483
0.414322
0.412872
0.412112
0.411355
0.410601
0.409849
0.409099
0.408352
0.407608
0.406866
0.406128
0.405392
0.40466
0.403931
0.403205
0.402482
0.401763
0.401047
0.400335
0.399626
0.398921
0.398221
0.397524
0.396831
0.396142
0.395457
0.394777
0.3941
0.393428
0.392761
0.392098
0.391439
0.390785
0.390135
0.38949
0.388849
0.388213
0.387581
0.386953
0.38633
0.385712
0.385097
0.384487
0.383882
0.38328
0.382682
0.382088
0.381498
0.380912
0.380329
0.37975
0.379174
0.378602
0.378032
0.377465
0.376901
0.376339
0.37578
0.375223
0.374668
0.374114
0.373562
0.373012
0.372462
0.371914
0.371366
0.370819
0.370273
0.444619
0.429484
0.414324
0.412873
0.412114
0.411357
0.410602
0.40985
0.4091
0.408353
0.407609
0.406868
0.406129
0.405394
0.404661
0.403932
0.403206
0.402483
0.401764
0.401048
0.400336
0.399627
0.398923
0.398222
0.397525
0.396832
0.396143
0.395458
0.394778
0.394101
0.393429
0.392762
0.392099
0.39144
0.390786
0.390136
0.389491
0.38885
0.388213
0.387582
0.386954
0.386331
0.385712
0.385098
0.384488
0.383882
0.38328
0.382683
0.382089
0.381499
0.380913
0.38033
0.379751
0.379175
0.378602
0.378032
0.377465
0.376901
0.376339
0.37578
0.375223
0.374668
0.374114
0.373562
0.373012
0.372462
0.371914
0.371366
0.370819
0.370273
0.444619
0.429484
0.414325
0.412874
0.412115
0.411358
0.410603
0.409851
0.409102
0.408355
0.40761
0.406869
0.406131
0.405395
0.404663
0.403933
0.403207
0.402485
0.401765
0.40105
0.400337
0.399629
0.398924
0.398223
0.397526
0.396833
0.396144
0.395459
0.394779
0.394102
0.39343
0.392763
0.3921
0.391441
0.390787
0.390137
0.389491
0.388851
0.388214
0.387582
0.386955
0.386332
0.385713
0.385099
0.384489
0.383883
0.383281
0.382683
0.382089
0.381499
0.380913
0.38033
0.379751
0.379175
0.378602
0.378032
0.377466
0.376901
0.37634
0.37578
0.375223
0.374668
0.374114
0.373562
0.373012
0.372463
0.371914
0.371366
0.370819
0.370273
0.444619
0.429485
0.414326
0.412876
0.412116
0.411359
0.410604
0.409852
0.409103
0.408356
0.407612
0.40687
0.406132
0.405396
0.404664
0.403935
0.403209
0.402486
0.401767
0.401051
0.400338
0.39963
0.398925
0.398224
0.397527
0.396834
0.396145
0.39546
0.39478
0.394103
0.393431
0.392764
0.392101
0.391442
0.390787
0.390138
0.389492
0.388851
0.388215
0.387583
0.386955
0.386332
0.385714
0.385099
0.384489
0.383883
0.383281
0.382684
0.38209
0.3815
0.380913
0.380331
0.379751
0.379175
0.378603
0.378033
0.377466
0.376902
0.37634
0.37578
0.375223
0.374668
0.374114
0.373563
0.373012
0.372463
0.371914
0.371367
0.370819
0.370273
0.444619
0.429485
0.414327
0.412877
0.412117
0.41136
0.410605
0.409853
0.409104
0.408357
0.407613
0.406871
0.406133
0.405397
0.404665
0.403936
0.40321
0.402487
0.401768
0.401052
0.40034
0.399631
0.398926
0.398225
0.397528
0.396835
0.396146
0.395461
0.394781
0.394104
0.393432
0.392765
0.392101
0.391443
0.390788
0.390138
0.389493
0.388852
0.388216
0.387584
0.386956
0.386333
0.385714
0.3851
0.38449
0.383884
0.383282
0.382684
0.38209
0.3815
0.380914
0.380331
0.379752
0.379176
0.378603
0.378033
0.377466
0.376902
0.37634
0.375781
0.375223
0.374668
0.374115
0.373563
0.373012
0.372463
0.371914
0.371367
0.370819
0.370273
0.444619
0.429486
0.414328
0.412877
0.412118
0.411361
0.410606
0.409854
0.409105
0.408358
0.407614
0.406872
0.406134
0.405398
0.404666
0.403937
0.403211
0.402488
0.401768
0.401053
0.40034
0.399632
0.398927
0.398226
0.397529
0.396836
0.396147
0.395462
0.394781
0.394105
0.393433
0.392765
0.392102
0.391443
0.390789
0.390139
0.389493
0.388852
0.388216
0.387584
0.386956
0.386333
0.385715
0.3851
0.38449
0.383884
0.383282
0.382684
0.38209
0.3815
0.380914
0.380331
0.379752
0.379176
0.378603
0.378033
0.377466
0.376902
0.37634
0.375781
0.375223
0.374668
0.374115
0.373563
0.373012
0.372463
0.371914
0.371367
0.370819
0.370273
0.444619
0.429486
0.414328
0.412878
0.412119
0.411362
0.410607
0.409855
0.409105
0.408359
0.407614
0.406873
0.406135
0.405399
0.404667
0.403937
0.403211
0.402489
0.401769
0.401053
0.400341
0.399632
0.398928
0.398227
0.39753
0.396836
0.396147
0.395463
0.394782
0.394106
0.393433
0.392766
0.392102
0.391444
0.390789
0.390139
0.389494
0.388853
0.388216
0.387584
0.386957
0.386334
0.385715
0.3851
0.38449
0.383884
0.383282
0.382685
0.382091
0.381501
0.380914
0.380331
0.379752
0.379176
0.378603
0.378033
0.377466
0.376902
0.37634
0.375781
0.375224
0.374668
0.374115
0.373563
0.373012
0.372463
0.371914
0.371367
0.370819
0.370273
0.444619
0.429486
0.414329
0.412878
0.412119
0.411362
0.410608
0.409855
0.409106
0.408359
0.407615
0.406874
0.406135
0.4054
0.404667
0.403938
0.403212
0.402489
0.40177
0.401054
0.400341
0.399633
0.398928
0.398227
0.39753
0.396837
0.396148
0.395463
0.394782
0.394106
0.393434
0.392766
0.392103
0.391444
0.390789
0.39014
0.389494
0.388853
0.388217
0.387585
0.386957
0.386334
0.385715
0.385101
0.38449
0.383884
0.383283
0.382685
0.382091
0.381501
0.380914
0.380331
0.379752
0.379176
0.378603
0.378033
0.377466
0.376902
0.37634
0.375781
0.375224
0.374668
0.374115
0.373563
0.373012
0.372463
0.371914
0.371367
0.370819
0.370273
0.444619
0.429487
0.414329
0.412879
0.412119
0.411362
0.410608
0.409856
0.409106
0.408359
0.407615
0.406874
0.406135
0.4054
0.404667
0.403938
0.403212
0.402489
0.40177
0.401054
0.400342
0.399633
0.398928
0.398227
0.39753
0.396837
0.396148
0.395463
0.394783
0.394106
0.393434
0.392766
0.392103
0.391444
0.39079
0.39014
0.389494
0.388853
0.388217
0.387585
0.386957
0.386334
0.385715
0.385101
0.384491
0.383885
0.383283
0.382685
0.382091
0.381501
0.380914
0.380332
0.379752
0.379176
0.378603
0.378033
0.377466
0.376902
0.37634
0.375781
0.375224
0.374668
0.374115
0.373563
0.373012
0.372463
0.371914
0.371367
0.370819
0.370273
0.444619
0.429487
0.414329
0.412879
0.41212
0.411363
0.410608
0.409856
0.409106
0.40836
0.407615
0.406874
0.406136
0.4054
0.404668
0.403938
0.403212
0.402489
0.40177
0.401054
0.400342
0.399633
0.398929
0.398228
0.39753
0.396837
0.396148
0.395463
0.394783
0.394106
0.393434
0.392766
0.392103
0.391444
0.39079
0.39014
0.389494
0.388853
0.388217
0.387585
0.386957
0.386334
0.385715
0.385101
0.384491
0.383885
0.383283
0.382685
0.382091
0.381501
0.380914
0.380332
0.379752
0.379176
0.378603
0.378033
0.377466
0.376902
0.37634
0.375781
0.375224
0.374668
0.374115
0.373563
0.373012
0.372463
0.371914
0.371367
0.370819
0.370273
0.444619
0.429487
0.414329
0.412879
0.41212
0.411363
0.410608
0.409856
0.409107
0.40836
0.407616
0.406874
0.406136
0.4054
0.404668
0.403938
0.403212
0.40249
0.40177
0.401054
0.400342
0.399633
0.398929
0.398228
0.397531
0.396837
0.396148
0.395464
0.394783
0.394106
0.393434
0.392767
0.392103
0.391444
0.39079
0.39014
0.389494
0.388853
0.388217
0.387585
0.386957
0.386334
0.385715
0.385101
0.384491
0.383885
0.383283
0.382685
0.382091
0.381501
0.380914
0.380332
0.379752
0.379176
0.378603
0.378033
0.377466
0.376902
0.37634
0.375781
0.375224
0.374668
0.374115
0.373563
0.373012
0.372463
0.371914
0.371367
0.370819
0.370273
0.444619
0.429487
0.414329
0.412879
0.41212
0.411363
0.410608
0.409856
0.409107
0.40836
0.407616
0.406874
0.406136
0.4054
0.404668
0.403939
0.403212
0.40249
0.40177
0.401054
0.400342
0.399634
0.398929
0.398228
0.397531
0.396837
0.396148
0.395464
0.394783
0.394106
0.393434
0.392767
0.392103
0.391444
0.39079
0.39014
0.389494
0.388853
0.388217
0.387585
0.386957
0.386334
0.385715
0.385101
0.384491
0.383885
0.383283
0.382685
0.382091
0.381501
0.380914
0.380332
0.379752
0.379176
0.378603
0.378033
0.377466
0.376902
0.37634
0.375781
0.375224
0.374668
0.374115
0.373563
0.373012
0.372463
0.371914
0.371367
0.370819
0.370273
0.444619
0.429487
0.414329
0.412879
0.41212
0.411363
0.410608
0.409856
0.409107
0.40836
0.407616
0.406874
0.406136
0.4054
0.404668
0.403939
0.403212
0.40249
0.40177
0.401054
0.400342
0.399634
0.398929
0.398228
0.397531
0.396837
0.396148
0.395464
0.394783
0.394106
0.393434
0.392767
0.392103
0.391444
0.39079
0.39014
0.389494
0.388853
0.388217
0.387585
0.386957
0.386334
0.385715
0.385101
0.384491
0.383885
0.383283
0.382685
0.382091
0.381501
0.380914
0.380332
0.379752
0.379176
0.378603
0.378033
0.377466
0.376902
0.37634
0.375781
0.375224
0.374668
0.374115
0.373563
0.373012
0.372463
0.371914
0.371367
0.370819
0.370273
0.444619
0.429487
0.414329
0.412879
0.41212
0.411363
0.410608
0.409856
0.409107
0.40836
0.407616
0.406874
0.406136
0.4054
0.404668
0.403939
0.403212
0.40249
0.40177
0.401054
0.400342
0.399634
0.398929
0.398228
0.397531
0.396837
0.396148
0.395464
0.394783
0.394106
0.393434
0.392767
0.392103
0.391444
0.39079
0.39014
0.389494
0.388854
0.388217
0.387585
0.386957
0.386334
0.385715
0.385101
0.384491
0.383885
0.383283
0.382685
0.382091
0.381501
0.380914
0.380332
0.379752
0.379176
0.378603
0.378033
0.377466
0.376902
0.37634
0.375781
0.375224
0.374668
0.374115
0.373563
0.373012
0.372463
0.371914
0.371367
0.370819
0.370273
0.444619
0.429487
0.414329
0.412879
0.41212
0.411363
0.410608
0.409856
0.409107
0.40836
0.407616
0.406874
0.406136
0.4054
0.404668
0.403939
0.403212
0.40249
0.40177
0.401054
0.400342
0.399634
0.398929
0.398228
0.397531
0.396837
0.396148
0.395464
0.394783
0.394106
0.393434
0.392767
0.392103
0.391444
0.39079
0.39014
0.389494
0.388854
0.388217
0.387585
0.386957
0.386334
0.385715
0.385101
0.384491
0.383885
0.383283
0.382685
0.382091
0.381501
0.380914
0.380332
0.379752
0.379176
0.378603
0.378033
0.377466
0.376902
0.37634
0.375781
0.375224
0.374668
0.374115
0.373563
0.373012
0.372463
0.371914
0.371367
0.370819
0.370273
0.444619
0.429487
0.414329
0.412879
0.41212
0.411363
0.410608
0.409856
0.409107
0.40836
0.407616
0.406874
0.406136
0.4054
0.404668
0.403939
0.403212
0.40249
0.40177
0.401054
0.400342
0.399634
0.398929
0.398228
0.397531
0.396837
0.396148
0.395464
0.394783
0.394106
0.393434
0.392767
0.392103
0.391444
0.39079
0.39014
0.389494
0.388854
0.388217
0.387585
0.386957
0.386334
0.385715
0.385101
0.384491
0.383885
0.383283
0.382685
0.382091
0.381501
0.380914
0.380332
0.379752
0.379176
0.378603
0.378033
0.377466
0.376902
0.37634
0.375781
0.375224
0.374668
0.374115
0.373563
0.373012
0.372463
0.371914
0.371367
0.370819
0.370273
0.444619
0.429487
0.414329
0.412879
0.41212
0.411363
0.410608
0.409856
0.409107
0.40836
0.407616
0.406874
0.406136
0.4054
0.404668
0.403939
0.403212
0.40249
0.40177
0.401054
0.400342
0.399634
0.398929
0.398228
0.397531
0.396838
0.396148
0.395464
0.394783
0.394106
0.393434
0.392767
0.392103
0.391444
0.39079
0.39014
0.389494
0.388854
0.388217
0.387585
0.386957
0.386334
0.385715
0.385101
0.384491
0.383885
0.383283
0.382685
0.382091
0.381501
0.380914
0.380332
0.379752
0.379176
0.378603
0.378033
0.377466
0.376902
0.37634
0.375781
0.375224
0.374668
0.374115
0.373563
0.373012
0.372463
0.371914
0.371367
0.370819
0.370273
0.444619
0.429487
0.414329
0.412879
0.41212
0.411363
0.410608
0.409856
0.409107
0.40836
0.407616
0.406874
0.406136
0.4054
0.404668
0.403939
0.403212
0.40249
0.40177
0.401054
0.400342
0.399634
0.398929
0.398228
0.397531
0.396838
0.396148
0.395464
0.394783
0.394106
0.393434
0.392767
0.392103
0.391444
0.39079
0.39014
0.389494
0.388854
0.388217
0.387585
0.386957
0.386334
0.385715
0.385101
0.384491
0.383885
0.383283
0.382685
0.382091
0.381501
0.380914
0.380332
0.379752
0.379176
0.378603
0.378033
0.377466
0.376902
0.37634
0.375781
0.375224
0.374668
0.374115
0.373563
0.373012
0.372463
0.371914
0.371367
0.370819
0.370273
0.444619
0.429487
0.414329
0.412879
0.41212
0.411363
0.410608
0.409856
0.409107
0.40836
0.407616
0.406874
0.406136
0.4054
0.404668
0.403939
0.403212
0.40249
0.40177
0.401054
0.400342
0.399634
0.398929
0.398228
0.397531
0.396838
0.396148
0.395464
0.394783
0.394106
0.393434
0.392767
0.392103
0.391444
0.39079
0.39014
0.389494
0.388854
0.388217
0.387585
0.386957
0.386334
0.385715
0.385101
0.384491
0.383885
0.383283
0.382685
0.382091
0.381501
0.380914
0.380332
0.379752
0.379176
0.378603
0.378033
0.377466
0.376902
0.37634
0.375781
0.375224
0.374668
0.374115
0.373563
0.373012
0.372463
0.371914
0.371367
0.370819
0.370273
0.444619
0.429487
0.414329
0.412879
0.41212
0.411363
0.410608
0.409856
0.409107
0.40836
0.407616
0.406874
0.406136
0.4054
0.404668
0.403939
0.403212
0.40249
0.40177
0.401054
0.400342
0.399634
0.398929
0.398228
0.397531
0.396838
0.396148
0.395464
0.394783
0.394106
0.393434
0.392767
0.392103
0.391444
0.39079
0.39014
0.389494
0.388854
0.388217
0.387585
0.386957
0.386334
0.385715
0.385101
0.384491
0.383885
0.383283
0.382685
0.382091
0.381501
0.380914
0.380332
0.379752
0.379176
0.378603
0.378033
0.377466
0.376902
0.37634
0.375781
0.375224
0.374668
0.374115
0.373563
0.373012
0.372463
0.371914
0.371367
0.370819
0.370273
0.444619
0.429487
0.414329
0.412879
0.41212
0.411363
0.410608
0.409856
0.409107
0.40836
0.407616
0.406874
0.406136
0.4054
0.404668
0.403939
0.403212
0.40249
0.40177
0.401054
0.400342
0.399634
0.398929
0.398228
0.397531
0.396838
0.396148
0.395464
0.394783
0.394106
0.393434
0.392767
0.392103
0.391444
0.39079
0.39014
0.389494
0.388854
0.388217
0.387585
0.386957
0.386334
0.385715
0.385101
0.384491
0.383885
0.383283
0.382685
0.382091
0.381501
0.380914
0.380332
0.379752
0.379176
0.378603
0.378033
0.377466
0.376902
0.37634
0.375781
0.375224
0.374668
0.374115
0.373563
0.373012
0.372463
0.371914
0.371367
0.370819
0.370273
0.444619
0.429487
0.414329
0.412879
0.41212
0.411363
0.410608
0.409856
0.409107