/*--------------------------------*- C++ -*----------------------------------*\
  =========                 |
  \\      /  F ield         | OpenFOAM: The Open Source CFD Toolbox
   \\    /   O peration     | Website:  https://openfoam.org
    \\  /    A nd           | Version:  13
     \\/     M anipulation  |
\*---------------------------------------------------------------------------*/
FoamFile
{
    format      ascii;
    class       volScalarField;
    location    "157.5";
    object      nut;
}
// * * * * * * * * * * * * * * * * * * * * * * * * * * * * * * * * * * * * * //

dimensions      [0 2 -1 0 0 0 0];

internalField   nonuniform List<scalar> 
315000
(
6.53315e-16
1.7114e-13
3.90642e-12
7.01499e-12
1.01792e-11
1.34075e-11
1.671e-11
2.00959e-11
2.35715e-11
2.71402e-11
3.0802e-11
3.45534e-11
3.8387e-11
4.22923e-11
4.62554e-11
5.02596e-11
5.42853e-11
5.83108e-11
6.23124e-11
6.62649e-11
7.01421e-11
7.3917e-11
7.75625e-11
8.10516e-11
8.43579e-11
8.74557e-11
9.03208e-11
9.29303e-11
9.52632e-11
9.73006e-11
9.90258e-11
1.00425e-10
1.01486e-10
1.022e-10
1.02561e-10
1.02567e-10
1.02217e-10
1.01515e-10
1.00465e-10
9.90771e-11
9.73624e-11
9.53349e-11
9.30113e-11
9.04104e-11
8.75532e-11
8.44623e-11
8.11622e-11
7.76783e-11
7.4037e-11
7.02653e-11
6.63903e-11
6.2439e-11
5.84376e-11
5.44113e-11
5.03837e-11
4.63769e-11
4.24101e-11
3.85005e-11
3.46617e-11
3.09045e-11
2.72361e-11
2.36602e-11
2.01768e-11
1.67825e-11
1.34706e-11
1.02319e-11
7.05591e-12
3.93284e-12
1.72522e-13
6.59091e-16
1.6359e-14
4.35759e-12
9.92856e-10
1.79704e-09
2.61238e-09
3.44303e-09
4.29252e-09
5.16362e-09
6.05825e-09
6.97741e-09
7.92116e-09
8.88859e-09
9.87786e-09
1.08862e-08
1.19101e-08
1.2945e-08
1.3986e-08
1.50273e-08
1.60627e-08
1.70857e-08
1.80895e-08
1.90669e-08
2.00111e-08
2.09148e-08
2.17712e-08
2.25737e-08
2.33159e-08
2.3992e-08
2.45964e-08
2.51242e-08
2.55711e-08
2.59335e-08
2.62082e-08
2.63931e-08
2.64866e-08
2.64878e-08
2.63969e-08
2.62146e-08
2.59423e-08
2.55823e-08
2.51377e-08
2.46121e-08
2.40097e-08
2.33355e-08
2.2595e-08
2.1794e-08
2.09389e-08
2.00363e-08
1.9093e-08
1.81162e-08
1.71129e-08
1.60901e-08
1.50546e-08
1.40131e-08
1.29717e-08
1.19361e-08
1.09114e-08
9.90196e-09
8.91146e-09
7.94263e-09
6.99733e-09
6.07645e-09
5.17996e-09
4.30684e-09
3.45516e-09
2.62213e-09
1.80417e-09
9.9706e-10
4.37729e-12
1.64351e-14
6.59676e-14
1.75976e-11
1.02219e-08
1.85199e-08
2.69447e-08
3.55474e-08
4.43724e-08
5.34553e-08
6.28218e-08
7.24869e-08
8.24542e-08
9.27159e-08
1.03252e-07
1.14033e-07
1.25018e-07
1.36157e-07
1.4739e-07
1.58653e-07
1.69875e-07
1.8098e-07
1.91891e-07
2.02528e-07
2.1281e-07
2.22659e-07
2.31998e-07
2.40753e-07
2.48852e-07
2.5623e-07
2.62827e-07
2.68589e-07
2.73467e-07
2.77422e-07
2.8042e-07
2.82436e-07
2.83454e-07
2.83465e-07
2.82469e-07
2.80475e-07
2.77498e-07
2.73564e-07
2.68706e-07
2.62963e-07
2.56383e-07
2.49021e-07
2.40936e-07
2.32195e-07
2.22867e-07
2.13028e-07
2.02752e-07
1.92121e-07
1.81214e-07
1.7011e-07
1.58887e-07
1.47621e-07
1.36383e-07
1.25238e-07
1.14245e-07
1.03454e-07
9.29056e-08
8.26311e-08
7.26495e-08
6.2969e-08
5.3586e-08
4.44855e-08
3.56418e-08
2.70193e-08
1.85734e-08
1.02528e-08
1.76531e-11
6.61798e-14
1.2537e-13
3.34464e-11
1.94279e-08
3.52162e-08
5.12856e-08
6.77545e-08
8.47261e-08
1.02286e-07
1.20497e-07
1.394e-07
1.5901e-07
1.79317e-07
2.00284e-07
2.21849e-07
2.43927e-07
2.66409e-07
2.89169e-07
3.12063e-07
3.34937e-07
3.57625e-07
3.7996e-07
4.01769e-07
4.2288e-07
4.43125e-07
4.62338e-07
4.80362e-07
4.97047e-07
5.12254e-07
5.25856e-07
5.37738e-07
5.47799e-07
5.55956e-07
5.6214e-07
5.66297e-07
5.68394e-07
5.68412e-07
5.66352e-07
5.6223e-07
5.56081e-07
5.47958e-07
5.37928e-07
5.26077e-07
5.12504e-07
4.97323e-07
4.80661e-07
4.62658e-07
4.43463e-07
4.23233e-07
4.02133e-07
3.80332e-07
3.58003e-07
3.35315e-07
3.1244e-07
2.89541e-07
2.66773e-07
2.44279e-07
2.22187e-07
2.00604e-07
1.79618e-07
1.59289e-07
1.39655e-07
1.20727e-07
1.02488e-07
8.49006e-08
6.78992e-08
5.13992e-08
3.52971e-08
1.94743e-08
3.35297e-11
1.25688e-13
1.95003e-13
5.20269e-11
3.02166e-08
5.4784e-08
7.98284e-08
1.05557e-07
1.3215e-07
1.5976e-07
1.88499e-07
2.18442e-07
2.4962e-07
2.8202e-07
3.15585e-07
3.50212e-07
3.85759e-07
4.22043e-07
4.58851e-07
4.95942e-07
5.33058e-07
5.69931e-07
6.06282e-07
6.41831e-07
6.76295e-07
7.09392e-07
7.40844e-07
7.70385e-07
7.97761e-07
8.22732e-07
8.45082e-07
8.64617e-07
8.81166e-07
8.94585e-07
9.04759e-07
9.11598e-07
9.15045e-07
9.15069e-07
9.11671e-07
9.04878e-07
8.94751e-07
8.81376e-07
8.6487e-07
8.45376e-07
8.23063e-07
7.98126e-07
7.70781e-07
7.41267e-07
7.09838e-07
6.76761e-07
6.42312e-07
6.06773e-07
5.70428e-07
5.33557e-07
4.96438e-07
4.5934e-07
4.22521e-07
3.86222e-07
3.50656e-07
3.16005e-07
2.82414e-07
2.49985e-07
2.18775e-07
1.88798e-07
1.60023e-07
1.32377e-07
1.05744e-07
7.99746e-08
5.48878e-08
3.02759e-08
5.21337e-11
1.95412e-13
2.71602e-13
7.24673e-11
4.20776e-08
7.62845e-08
1.11178e-07
1.47066e-07
1.84215e-07
2.22849e-07
2.63134e-07
3.05181e-07
3.49033e-07
3.94671e-07
4.42008e-07
4.90893e-07
5.41113e-07
5.924e-07
6.44443e-07
6.96896e-07
7.49395e-07
8.0156e-07
8.53005e-07
9.03333e-07
9.52146e-07
9.99042e-07
1.04362e-06
1.0855e-06
1.12432e-06
1.15974e-06
1.19143e-06
1.21913e-06
1.2426e-06
1.26163e-06
1.27605e-06
1.28575e-06
1.29063e-06
1.29066e-06
1.28583e-06
1.27619e-06
1.26182e-06
1.24285e-06
1.21943e-06
1.19178e-06
1.16012e-06
1.12475e-06
1.08597e-06
1.04412e-06
9.99568e-07
9.52695e-07
9.039e-07
8.53584e-07
8.02147e-07
7.49984e-07
6.97482e-07
6.4502e-07
5.92965e-07
5.4166e-07
4.91417e-07
4.42505e-07
3.95137e-07
3.49465e-07
3.05575e-07
2.63488e-07
2.2316e-07
1.84482e-07
1.47285e-07
1.1135e-07
7.64062e-08
4.21471e-08
7.25928e-11
2.72082e-13
3.50413e-13
9.34992e-11
5.42724e-08
9.83717e-08
1.43359e-07
1.89644e-07
2.37581e-07
2.87463e-07
3.39509e-07
3.93857e-07
4.50561e-07
5.09587e-07
5.7081e-07
6.3402e-07
6.98926e-07
7.65168e-07
8.32332e-07
8.99966e-07
9.67599e-07
1.03475e-06
1.10091e-06
1.1656e-06
1.2283e-06
1.2885e-06
1.3457e-06
1.3994e-06
1.44915e-06
1.49452e-06
1.53511e-06
1.57057e-06
1.6006e-06
1.62494e-06
1.64338e-06
1.65578e-06
1.66202e-06
1.66205e-06
1.65587e-06
1.64354e-06
1.62515e-06
1.60087e-06
1.57089e-06
1.53548e-06
1.49494e-06
1.44962e-06
1.39991e-06
1.34624e-06
1.28908e-06
1.2289e-06
1.16622e-06
1.10155e-06
1.03539e-06
9.68246e-07
9.0061e-07
8.32968e-07
7.65791e-07
6.9953e-07
6.34599e-07
5.71359e-07
5.10102e-07
4.51039e-07
3.94293e-07
3.399e-07
2.87807e-07
2.37875e-07
1.89886e-07
1.43548e-07
9.85056e-08
5.43489e-08
9.36376e-11
3.50943e-13
4.26677e-13
1.13853e-10
6.60651e-08
1.19712e-07
1.74426e-07
2.30713e-07
2.89012e-07
3.49678e-07
4.12975e-07
4.79066e-07
5.48006e-07
6.1974e-07
6.94101e-07
7.70816e-07
8.49513e-07
9.29738e-07
1.01098e-06
1.09269e-06
1.17429e-06
1.2552e-06
1.33484e-06
1.4126e-06
1.4879e-06
1.56012e-06
1.62868e-06
1.69301e-06
1.75255e-06
1.80681e-06
1.85533e-06
1.89769e-06
1.93356e-06
1.96262e-06
1.98463e-06
1.99942e-06
2.00686e-06
2.00689e-06
1.99952e-06
1.98479e-06
1.96284e-06
1.93384e-06
1.89803e-06
1.85572e-06
1.80725e-06
1.75304e-06
1.69354e-06
1.62925e-06
1.56073e-06
1.48853e-06
1.41325e-06
1.3355e-06
1.25587e-06
1.17496e-06
1.09336e-06
1.01165e-06
9.30392e-07
8.50147e-07
7.71425e-07
6.94679e-07
6.20283e-07
5.48509e-07
4.79526e-07
4.13388e-07
3.5004e-07
2.89322e-07
2.30968e-07
1.74625e-07
1.19852e-07
6.61453e-08
1.13999e-10
4.27236e-13
4.9645e-13
1.32476e-10
7.68475e-08
1.39208e-07
2.02787e-07
2.68178e-07
3.35893e-07
4.06343e-07
4.79829e-07
5.56534e-07
6.36507e-07
7.19673e-07
8.05819e-07
8.9461e-07
9.85597e-07
1.07824e-06
1.17194e-06
1.26606e-06
1.35993e-06
1.4529e-06
1.54428e-06
1.63342e-06
1.71963e-06
1.80225e-06
1.88059e-06
1.95404e-06
2.02198e-06
2.08385e-06
2.13915e-06
2.18741e-06
2.22825e-06
2.26132e-06
2.28638e-06
2.3032e-06
2.31166e-06
2.3117e-06
2.3033e-06
2.28654e-06
2.26155e-06
2.22853e-06
2.18775e-06
2.13954e-06
2.0843e-06
2.02247e-06
1.95458e-06
1.88117e-06
1.80285e-06
1.72027e-06
1.63408e-06
1.54496e-06
1.45358e-06
1.36062e-06
1.26674e-06
1.17262e-06
1.07891e-06
9.86242e-07
8.95229e-07
8.06407e-07
7.20226e-07
6.3702e-07
5.57002e-07
4.80249e-07
4.06711e-07
3.36207e-07
2.68437e-07
2.02989e-07
1.3935e-07
7.69287e-08
1.32624e-10
4.97019e-13
5.57022e-13
1.48646e-10
8.6204e-08
1.56114e-07
2.27365e-07
3.00627e-07
3.76471e-07
4.55359e-07
5.37622e-07
6.23453e-07
7.12899e-07
8.05859e-07
9.02082e-07
1.00117e-06
1.10262e-06
1.2058e-06
1.31005e-06
1.41464e-06
1.51884e-06
1.62193e-06
1.72315e-06
1.82179e-06
1.9171e-06
2.00834e-06
2.09481e-06
2.17582e-06
2.2507e-06
2.31886e-06
2.37975e-06
2.43287e-06
2.4778e-06
2.51418e-06
2.54173e-06
2.56023e-06
2.56953e-06
2.56956e-06
2.56032e-06
2.54189e-06
2.5144e-06
2.47808e-06
2.4332e-06
2.38014e-06
2.3193e-06
2.25119e-06
2.17635e-06
2.09538e-06
2.00894e-06
1.91772e-06
1.82244e-06
1.72382e-06
1.6226e-06
1.51952e-06
1.41532e-06
1.31072e-06
1.20646e-06
1.10326e-06
1.00179e-06
9.02667e-07
8.06409e-07
7.13409e-07
6.23918e-07
5.38039e-07
4.55725e-07
3.76783e-07
3.00883e-07
2.27565e-07
1.56255e-07
8.62843e-08
1.48793e-10
5.57589e-13
6.07058e-13
1.62005e-10
9.39307e-08
1.70068e-07
2.47642e-07
3.27384e-07
4.09919e-07
4.95744e-07
5.85217e-07
6.78538e-07
7.7575e-07
8.76729e-07
9.81188e-07
1.08869e-06
1.19865e-06
1.3104e-06
1.42321e-06
1.53628e-06
1.64884e-06
1.76009e-06
1.86925e-06
1.97553e-06
2.07814e-06
2.17631e-06
2.26928e-06
2.35633e-06
2.43676e-06
2.50994e-06
2.57528e-06
2.63227e-06
2.68047e-06
2.71948e-06
2.74902e-06
2.76885e-06
2.77882e-06
2.77885e-06
2.76894e-06
2.74917e-06
2.7197e-06
2.68074e-06
2.6326e-06
2.57566e-06
2.51037e-06
2.43724e-06
2.35685e-06
2.26984e-06
2.1769e-06
2.07875e-06
1.97616e-06
1.8699e-06
1.76075e-06
1.64951e-06
1.53695e-06
1.42386e-06
1.31105e-06
1.19928e-06
1.08929e-06
9.81762e-07
8.77269e-07
7.7625e-07
6.78995e-07
5.85626e-07
4.96103e-07
4.10225e-07
3.27635e-07
2.47837e-07
1.70205e-07
9.40089e-08
1.62149e-10
6.07613e-13
6.46476e-13
1.72531e-10
1.00017e-07
1.81056e-07
2.63603e-07
3.4844e-07
4.36234e-07
5.2751e-07
6.22644e-07
7.21845e-07
8.25148e-07
9.32413e-07
1.04332e-06
1.1574e-06
1.27402e-06
1.39246e-06
1.51194e-06
1.63162e-06
1.75068e-06
1.86828e-06
1.98359e-06
2.09578e-06
2.20405e-06
2.30758e-06
2.40558e-06
2.4973e-06
2.58201e-06
2.65906e-06
2.72784e-06
2.78781e-06
2.83852e-06
2.87956e-06
2.91063e-06
2.93148e-06
2.94197e-06
2.942e-06
2.93157e-06
2.91078e-06
2.87977e-06
2.83878e-06
2.78813e-06
2.72821e-06
2.65948e-06
2.58247e-06
2.4978e-06
2.40612e-06
2.30815e-06
2.20465e-06
2.0964e-06
1.98422e-06
1.86892e-06
1.75132e-06
1.63227e-06
1.51258e-06
1.39309e-06
1.27463e-06
1.15799e-06
1.04388e-06
9.32939e-07
8.25636e-07
7.2229e-07
6.23043e-07
5.27859e-07
4.36531e-07
3.48684e-07
2.63791e-07
1.81188e-07
1.00093e-07
1.72671e-10
6.47016e-13
6.76152e-13
1.80458e-10
1.046e-07
1.89326e-07
2.75614e-07
3.64285e-07
4.56034e-07
5.5141e-07
6.50803e-07
7.54426e-07
8.6231e-07
9.743e-07
1.09006e-06
1.20907e-06
1.33069e-06
1.45415e-06
1.57862e-06
1.70326e-06
1.82718e-06
1.94953e-06
2.06944e-06
2.18607e-06
2.29856e-06
2.40609e-06
2.50784e-06
2.60304e-06
2.69094e-06
2.77088e-06
2.84222e-06
2.90442e-06
2.95699e-06
2.99955e-06
3.03175e-06
3.05337e-06
3.06424e-06
3.06426e-06
3.05346e-06
3.0319e-06
2.99975e-06
2.95725e-06
2.90472e-06
2.84258e-06
2.77128e-06
2.69139e-06
2.60353e-06
2.50836e-06
2.40664e-06
2.29914e-06
2.18667e-06
2.07006e-06
1.95016e-06
1.82781e-06
1.70389e-06
1.57925e-06
1.45476e-06
1.33128e-06
1.20964e-06
1.0906e-06
9.74813e-07
8.62786e-07
7.5486e-07
6.51192e-07
5.5175e-07
4.56323e-07
3.64522e-07
2.75798e-07
1.89455e-07
1.04673e-07
1.80593e-10
6.76677e-13
6.97545e-13
1.86174e-10
1.07904e-07
1.95288e-07
2.84273e-07
3.75708e-07
4.70308e-07
5.68643e-07
6.71109e-07
7.77924e-07
8.89114e-07
1.00452e-06
1.12377e-06
1.24635e-06
1.37158e-06
1.49866e-06
1.62675e-06
1.75495e-06
1.88238e-06
2.00816e-06
2.13139e-06
2.2512e-06
2.36674e-06
2.47715e-06
2.5816e-06
2.67931e-06
2.76951e-06
2.85152e-06
2.92471e-06
2.9885e-06
3.04243e-06
3.08607e-06
3.1191e-06
3.14126e-06
3.1524e-06
3.15243e-06
3.14135e-06
3.11924e-06
3.08627e-06
3.04268e-06
2.9888e-06
2.92506e-06
2.85192e-06
2.76995e-06
2.67978e-06
2.58211e-06
2.47769e-06
2.3673e-06
2.25179e-06
2.13199e-06
2.00877e-06
1.883e-06
1.75557e-06
1.62736e-06
1.49926e-06
1.37216e-06
1.24691e-06
1.12431e-06
1.00502e-06
8.8958e-07
7.78348e-07
6.71489e-07
5.68975e-07
4.70591e-07
3.75939e-07
2.84452e-07
1.95413e-07
1.07975e-07
1.86306e-10
6.98058e-13
7.12339e-13
1.90127e-10
1.10189e-07
1.99412e-07
2.90264e-07
3.8361e-07
4.80186e-07
5.8057e-07
6.85167e-07
7.94196e-07
9.07683e-07
1.02545e-06
1.14714e-06
1.2722e-06
1.39993e-06
1.52953e-06
1.66012e-06
1.79081e-06
1.92069e-06
2.04884e-06
2.17438e-06
2.29641e-06
2.41406e-06
2.52648e-06
2.63281e-06
2.73226e-06
2.82406e-06
2.90752e-06
2.98198e-06
3.04689e-06
3.10176e-06
3.14615e-06
3.17975e-06
3.2023e-06
3.21363e-06
3.21366e-06
3.20238e-06
3.17989e-06
3.14635e-06
3.102e-06
3.04719e-06
2.98233e-06
2.9079e-06
2.82449e-06
2.73273e-06
2.63331e-06
2.52701e-06
2.41462e-06
2.29698e-06
2.17497e-06
2.04944e-06
1.92129e-06
1.79142e-06
1.66073e-06
1.53012e-06
1.4005e-06
1.27275e-06
1.14767e-06
1.02595e-06
9.0814e-07
7.94614e-07
6.85541e-07
5.80897e-07
4.80464e-07
3.83837e-07
2.90439e-07
1.99535e-07
1.10259e-07
1.90257e-10
7.12842e-13
7.2217e-13
1.92755e-10
1.11708e-07
2.02154e-07
2.94246e-07
3.88866e-07
4.86758e-07
5.88508e-07
6.94526e-07
8.05034e-07
9.20054e-07
1.03941e-06
1.16272e-06
1.28944e-06
1.41885e-06
1.55014e-06
1.68241e-06
1.81477e-06
1.94628e-06
2.07603e-06
2.20311e-06
2.32663e-06
2.44571e-06
2.55947e-06
2.66706e-06
2.76768e-06
2.86056e-06
2.94498e-06
3.02031e-06
3.08597e-06
3.14146e-06
3.18637e-06
3.22035e-06
3.24316e-06
3.25462e-06
3.25464e-06
3.24324e-06
3.22049e-06
3.18656e-06
3.1417e-06
3.08626e-06
3.02065e-06
2.94537e-06
2.86098e-06
2.76814e-06
2.66756e-06
2.55999e-06
2.44626e-06
2.3272e-06
2.20369e-06
2.07662e-06
1.94688e-06
1.81537e-06
1.68301e-06
1.55072e-06
1.41942e-06
1.28999e-06
1.16324e-06
1.0399e-06
9.20507e-07
8.05447e-07
6.94895e-07
5.8883e-07
4.87032e-07
3.8909e-07
2.94419e-07
2.02275e-07
1.11777e-07
1.92883e-10
7.22666e-13
7.28458e-13
1.94436e-10
1.12681e-07
2.03909e-07
2.96796e-07
3.92232e-07
4.90968e-07
5.93595e-07
7.00527e-07
8.11986e-07
9.27995e-07
1.04837e-06
1.17273e-06
1.30052e-06
1.43102e-06
1.56339e-06
1.69676e-06
1.83019e-06
1.96276e-06
2.09354e-06
2.22163e-06
2.34612e-06
2.46612e-06
2.58075e-06
2.68916e-06
2.79054e-06
2.88411e-06
2.96917e-06
3.04506e-06
3.1112e-06
3.1671e-06
3.21234e-06
3.24657e-06
3.26954e-06
3.28108e-06
3.28111e-06
3.26962e-06
3.2467e-06
3.21253e-06
3.16734e-06
3.11149e-06
3.04539e-06
2.96955e-06
2.88453e-06
2.791e-06
2.68965e-06
2.58127e-06
2.46666e-06
2.34668e-06
2.22221e-06
2.09413e-06
1.96335e-06
1.83079e-06
1.69735e-06
1.56397e-06
1.43158e-06
1.30106e-06
1.17325e-06
1.04886e-06
9.28444e-07
8.12396e-07
7.00893e-07
5.93915e-07
4.91239e-07
3.92454e-07
2.96967e-07
2.04029e-07
1.12749e-07
1.94563e-10
7.2895e-13
7.32334e-13
1.95473e-10
1.13281e-07
2.04992e-07
2.9837e-07
3.9431e-07
4.93568e-07
5.96739e-07
7.04238e-07
8.16288e-07
9.3291e-07
1.05392e-06
1.17894e-06
1.3074e-06
1.43857e-06
1.57162e-06
1.70567e-06
1.83978e-06
1.97301e-06
2.10444e-06
2.23315e-06
2.35824e-06
2.47882e-06
2.594e-06
2.70293e-06
2.80478e-06
2.89879e-06
2.98424e-06
3.06048e-06
3.12693e-06
3.18309e-06
3.22853e-06
3.26292e-06
3.286e-06
3.29759e-06
3.29762e-06
3.28608e-06
3.26306e-06
3.22872e-06
3.18333e-06
3.12722e-06
3.06082e-06
2.98462e-06
2.89921e-06
2.80524e-06
2.70341e-06
2.59452e-06
2.47936e-06
2.35881e-06
2.23373e-06
2.10502e-06
1.9736e-06
1.84037e-06
1.70626e-06
1.5722e-06
1.43913e-06
1.30794e-06
1.17945e-06
1.05441e-06
9.33358e-07
8.16696e-07
7.04602e-07
5.97057e-07
4.93838e-07
3.9453e-07
2.9854e-07
2.05111e-07
1.13348e-07
1.95599e-10
7.32825e-13
7.34642e-13
1.96091e-10
1.13638e-07
2.05636e-07
2.99307e-07
3.95548e-07
4.95119e-07
5.98615e-07
7.06453e-07
8.18858e-07
9.35849e-07
1.05724e-06
1.18265e-06
1.31151e-06
1.44309e-06
1.57656e-06
1.71102e-06
1.84553e-06
1.97916e-06
2.11098e-06
2.24008e-06
2.36554e-06
2.48646e-06
2.60197e-06
2.71121e-06
2.81336e-06
2.90763e-06
2.99332e-06
3.06978e-06
3.13641e-06
3.19273e-06
3.23829e-06
3.27278e-06
3.29592e-06
3.30755e-06
3.30757e-06
3.296e-06
3.27291e-06
3.23848e-06
3.19296e-06
3.1367e-06
3.07011e-06
2.9937e-06
2.90805e-06
2.81381e-06
2.7117e-06
2.60249e-06
2.487e-06
2.3661e-06
2.24065e-06
2.11157e-06
1.97975e-06
1.84612e-06
1.7116e-06
1.57714e-06
1.44365e-06
1.31205e-06
1.18317e-06
1.05773e-06
9.36296e-07
8.19265e-07
7.06817e-07
5.98932e-07
4.95388e-07
3.95769e-07
2.99477e-07
2.05756e-07
1.13705e-07
1.96217e-10
7.35131e-13
7.3597e-13
1.96446e-10
1.13843e-07
2.06008e-07
2.99847e-07
3.96262e-07
4.96013e-07
5.99697e-07
7.07732e-07
8.20342e-07
9.37548e-07
1.05916e-06
1.18481e-06
1.3139e-06
1.44572e-06
1.57942e-06
1.71412e-06
1.84887e-06
1.98274e-06
2.11479e-06
2.24411e-06
2.36978e-06
2.49091e-06
2.60662e-06
2.71604e-06
2.81835e-06
2.91279e-06
2.99862e-06
3.0752e-06
3.14194e-06
3.19835e-06
3.24399e-06
3.27853e-06
3.30171e-06
3.31336e-06
3.31338e-06
3.30179e-06
3.27866e-06
3.24418e-06
3.19858e-06
3.14223e-06
3.07553e-06
2.999e-06
2.9132e-06
2.81881e-06
2.71653e-06
2.60713e-06
2.49145e-06
2.37034e-06
2.24468e-06
2.11537e-06
1.98333e-06
1.84946e-06
1.71471e-06
1.58e-06
1.44627e-06
1.31444e-06
1.18532e-06
1.05965e-06
9.37994e-07
8.20749e-07
7.08096e-07
6.00014e-07
4.96282e-07
3.96482e-07
3.00017e-07
2.06127e-07
1.13911e-07
1.96572e-10
7.36458e-13
7.36709e-13
1.96644e-10
1.13958e-07
2.06215e-07
3.00149e-07
3.9666e-07
4.96512e-07
6.00301e-07
7.08447e-07
8.21173e-07
9.38499e-07
1.06024e-06
1.18601e-06
1.31524e-06
1.44719e-06
1.58103e-06
1.71586e-06
1.85075e-06
1.98475e-06
2.11693e-06
2.24638e-06
2.37217e-06
2.49342e-06
2.60924e-06
2.71876e-06
2.82117e-06
2.9157e-06
3.00161e-06
3.07826e-06
3.14506e-06
3.20152e-06
3.24721e-06
3.28178e-06
3.30498e-06
3.31664e-06
3.31666e-06
3.30506e-06
3.28191e-06
3.24739e-06
3.20176e-06
3.14535e-06
3.07859e-06
3.00198e-06
2.91611e-06
2.82163e-06
2.71925e-06
2.60975e-06
2.49396e-06
2.37273e-06
2.24695e-06
2.11752e-06
1.98534e-06
1.85134e-06
1.71645e-06
1.58161e-06
1.44775e-06
1.31577e-06
1.18652e-06
1.06072e-06
9.38945e-07
8.21579e-07
7.0881e-07
6.00618e-07
4.96781e-07
3.9688e-07
3.00318e-07
2.06334e-07
1.14026e-07
1.9677e-10
7.37197e-13
7.37107e-13
1.96751e-10
1.1402e-07
2.06327e-07
3.00311e-07
3.96875e-07
4.96781e-07
6.00628e-07
7.08834e-07
8.21622e-07
9.39015e-07
1.06082e-06
1.18667e-06
1.31596e-06
1.44799e-06
1.58191e-06
1.71681e-06
1.85177e-06
1.98585e-06
2.1181e-06
2.24762e-06
2.37348e-06
2.49479e-06
2.61067e-06
2.72025e-06
2.82272e-06
2.91729e-06
3.00324e-06
3.07993e-06
3.14677e-06
3.20326e-06
3.24897e-06
3.28356e-06
3.30677e-06
3.31843e-06
3.31846e-06
3.30685e-06
3.28369e-06
3.24916e-06
3.2035e-06
3.14706e-06
3.08027e-06
3.00362e-06
2.9177e-06
2.82317e-06
2.72074e-06
2.61118e-06
2.49533e-06
2.37404e-06
2.24819e-06
2.11869e-06
1.98644e-06
1.85236e-06
1.7174e-06
1.58248e-06
1.44855e-06
1.3165e-06
1.18718e-06
1.06131e-06
9.3946e-07
8.22029e-07
7.09197e-07
6.00945e-07
4.97051e-07
3.97095e-07
3.00481e-07
2.06445e-07
1.14087e-07
1.96876e-10
7.37595e-13
7.37316e-13
1.96807e-10
1.14052e-07
2.06385e-07
3.00396e-07
3.96988e-07
4.96923e-07
6.008e-07
7.09037e-07
8.21859e-07
9.39286e-07
1.06113e-06
1.18701e-06
1.31635e-06
1.44841e-06
1.58237e-06
1.71732e-06
1.85232e-06
1.98643e-06
2.11872e-06
2.24827e-06
2.37417e-06
2.49552e-06
2.61143e-06
2.72104e-06
2.82354e-06
2.91813e-06
3.00411e-06
3.08082e-06
3.14768e-06
3.20418e-06
3.24991e-06
3.28451e-06
3.30772e-06
3.31939e-06
3.31942e-06
3.30781e-06
3.28464e-06
3.25009e-06
3.20442e-06
3.14797e-06
3.08116e-06
3.00449e-06
2.91855e-06
2.82399e-06
2.72153e-06
2.61194e-06
2.49606e-06
2.37473e-06
2.24885e-06
2.11931e-06
1.98702e-06
1.85291e-06
1.7179e-06
1.58294e-06
1.44897e-06
1.31688e-06
1.18752e-06
1.06161e-06
9.39732e-07
8.22265e-07
7.094e-07
6.01117e-07
4.97192e-07
3.97208e-07
3.00566e-07
2.06504e-07
1.1412e-07
1.96932e-10
7.37804e-13
7.37422e-13
1.96835e-10
1.14069e-07
2.06415e-07
3.0044e-07
3.97045e-07
4.96995e-07
6.00887e-07
7.09141e-07
8.21979e-07
9.39424e-07
1.06129e-06
1.18719e-06
1.31654e-06
1.44863e-06
1.58261e-06
1.71757e-06
1.85259e-06
1.98673e-06
2.11904e-06
2.24861e-06
2.37453e-06
2.49589e-06
2.61182e-06
2.72145e-06
2.82396e-06
2.91857e-06
3.00456e-06
3.08128e-06
3.14815e-06
3.20466e-06
3.25039e-06
3.28499e-06
3.30822e-06
3.31988e-06
3.31991e-06
3.3083e-06
3.28513e-06
3.25058e-06
3.2049e-06
3.14844e-06
3.08162e-06
3.00494e-06
2.91898e-06
2.82441e-06
2.72193e-06
2.61233e-06
2.49643e-06
2.37509e-06
2.24918e-06
2.11962e-06
1.98732e-06
1.85318e-06
1.71816e-06
1.58318e-06
1.44919e-06
1.31708e-06
1.1877e-06
1.06177e-06
9.3987e-07
8.22386e-07
7.09504e-07
6.01204e-07
4.97264e-07
3.97265e-07
3.00609e-07
2.06534e-07
1.14136e-07
1.96961e-10
7.3791e-13
7.37474e-13
1.96849e-10
1.14077e-07
2.06429e-07
3.00461e-07
3.97074e-07
4.9703e-07
6.0093e-07
7.09192e-07
8.22039e-07
9.39493e-07
1.06137e-06
1.18727e-06
1.31664e-06
1.44874e-06
1.58273e-06
1.7177e-06
1.85273e-06
1.98688e-06
2.1192e-06
2.24878e-06
2.37471e-06
2.49608e-06
2.61201e-06
2.72165e-06
2.82417e-06
2.91879e-06
3.00479e-06
3.08151e-06
3.14839e-06
3.2049e-06
3.25063e-06
3.28524e-06
3.30846e-06
3.32013e-06
3.32016e-06
3.30854e-06
3.28537e-06
3.25082e-06
3.20514e-06
3.14867e-06
3.08185e-06
3.00516e-06
2.9192e-06
2.82462e-06
2.72214e-06
2.61253e-06
2.49662e-06
2.37526e-06
2.24935e-06
2.11978e-06
1.98746e-06
1.85332e-06
1.71829e-06
1.5833e-06
1.4493e-06
1.31718e-06
1.18779e-06
1.06185e-06
9.39939e-07
8.22446e-07
7.09555e-07
6.01248e-07
4.973e-07
3.97294e-07
3.0063e-07
2.06548e-07
1.14144e-07
1.96975e-10
7.37962e-13
7.37499e-13
1.96856e-10
1.14081e-07
2.06436e-07
3.00471e-07
3.97087e-07
4.97047e-07
6.00951e-07
7.09217e-07
8.22068e-07
9.39526e-07
1.0614e-06
1.18732e-06
1.31669e-06
1.44879e-06
1.58278e-06
1.71776e-06
1.8528e-06
1.98695e-06
2.11928e-06
2.24886e-06
2.37479e-06
2.49617e-06
2.61211e-06
2.72175e-06
2.82427e-06
2.91889e-06
3.00489e-06
3.08162e-06
3.1485e-06
3.20502e-06
3.25075e-06
3.28536e-06
3.30858e-06
3.32025e-06
3.32028e-06
3.30866e-06
3.28549e-06
3.25094e-06
3.20525e-06
3.14879e-06
3.08196e-06
3.00527e-06
2.91931e-06
2.82472e-06
2.72224e-06
2.61262e-06
2.49671e-06
2.37535e-06
2.24943e-06
2.11986e-06
1.98754e-06
1.85339e-06
1.71835e-06
1.58336e-06
1.44935e-06
1.31723e-06
1.18783e-06
1.06189e-06
9.39972e-07
8.22475e-07
7.0958e-07
6.01269e-07
4.97317e-07
3.97307e-07
3.00641e-07
2.06555e-07
1.14148e-07
1.96981e-10
7.37987e-13
7.3751e-13
1.96859e-10
1.14082e-07
2.0644e-07
3.00476e-07
3.97094e-07
4.97055e-07
6.00961e-07
7.09228e-07
8.22082e-07
9.39542e-07
1.06142e-06
1.18734e-06
1.31671e-06
1.44881e-06
1.58281e-06
1.71779e-06
1.85283e-06
1.98698e-06
2.11931e-06
2.2489e-06
2.37483e-06
2.49621e-06
2.61215e-06
2.7218e-06
2.82432e-06
2.91894e-06
3.00495e-06
3.08168e-06
3.14855e-06
3.20507e-06
3.25081e-06
3.28541e-06
3.30864e-06
3.32031e-06
3.32034e-06
3.30872e-06
3.28555e-06
3.25099e-06
3.20531e-06
3.14884e-06
3.08201e-06
3.00532e-06
2.91936e-06
2.82477e-06
2.72228e-06
2.61267e-06
2.49675e-06
2.37539e-06
2.24947e-06
2.1199e-06
1.98757e-06
1.85342e-06
1.71838e-06
1.58338e-06
1.44937e-06
1.31725e-06
1.18785e-06
1.0619e-06
9.39988e-07
8.22488e-07
7.09592e-07
6.01278e-07
4.97325e-07
3.97314e-07
3.00646e-07
2.06559e-07
1.1415e-07
1.96984e-10
7.37999e-13
7.37516e-13
1.9686e-10
1.14083e-07
2.06441e-07
3.00478e-07
3.97097e-07
4.97059e-07
6.00965e-07
7.09234e-07
8.22088e-07
9.39549e-07
1.06143e-06
1.18735e-06
1.31672e-06
1.44882e-06
1.58282e-06
1.71781e-06
1.85285e-06
1.987e-06
2.11933e-06
2.24892e-06
2.37485e-06
2.49623e-06
2.61217e-06
2.72182e-06
2.82434e-06
2.91897e-06
3.00497e-06
3.0817e-06
3.14858e-06
3.2051e-06
3.25083e-06
3.28544e-06
3.30867e-06
3.32033e-06
3.32036e-06
3.30875e-06
3.28558e-06
3.25102e-06
3.20534e-06
3.14887e-06
3.08204e-06
3.00535e-06
2.91938e-06
2.8248e-06
2.72231e-06
2.61269e-06
2.49677e-06
2.37541e-06
2.24949e-06
2.11991e-06
1.98759e-06
1.85344e-06
1.71839e-06
1.5834e-06
1.44938e-06
1.31726e-06
1.18786e-06
1.06191e-06
9.39995e-07
8.22494e-07
7.09597e-07
6.01283e-07
4.97328e-07
3.97316e-07
3.00648e-07
2.0656e-07
1.14151e-07
1.96986e-10
7.38004e-13
7.37518e-13
1.96861e-10
1.14084e-07
2.06442e-07
3.00479e-07
3.97098e-07
4.97061e-07
6.00967e-07
7.09236e-07
8.2209e-07
9.39552e-07
1.06143e-06
1.18735e-06
1.31672e-06
1.44883e-06
1.58283e-06
1.71781e-06
1.85285e-06
1.987e-06
2.11934e-06
2.24892e-06
2.37486e-06
2.49624e-06
2.61218e-06
2.72183e-06
2.82435e-06
2.91898e-06
3.00498e-06
3.08171e-06
3.14859e-06
3.20511e-06
3.25084e-06
3.28545e-06
3.30868e-06
3.32035e-06
3.32037e-06
3.30876e-06
3.28559e-06
3.25103e-06
3.20535e-06
3.14888e-06
3.08205e-06
3.00536e-06
2.91939e-06
2.82481e-06
2.72232e-06
2.6127e-06
2.49678e-06
2.37542e-06
2.2495e-06
2.11992e-06
1.98759e-06
1.85344e-06
1.7184e-06
1.5834e-06
1.44939e-06
1.31726e-06
1.18786e-06
1.06192e-06
9.39998e-07
8.22497e-07
7.09599e-07
6.01285e-07
4.9733e-07
3.97318e-07
3.00649e-07
2.06561e-07
1.14151e-07
1.96986e-10
7.38006e-13
7.37519e-13
1.96861e-10
1.14084e-07
2.06442e-07
3.0048e-07
3.97099e-07
4.97061e-07
6.00968e-07
7.09237e-07
8.22092e-07
9.39553e-07
1.06144e-06
1.18735e-06
1.31673e-06
1.44883e-06
1.58283e-06
1.71782e-06
1.85286e-06
1.98701e-06
2.11934e-06
2.24893e-06
2.37486e-06
2.49624e-06
2.61219e-06
2.72183e-06
2.82436e-06
2.91898e-06
3.00499e-06
3.08172e-06
3.1486e-06
3.20511e-06
3.25085e-06
3.28546e-06
3.30868e-06
3.32035e-06
3.32038e-06
3.30876e-06
3.28559e-06
3.25104e-06
3.20535e-06
3.14888e-06
3.08205e-06
3.00536e-06
2.9194e-06
2.82481e-06
2.72232e-06
2.6127e-06
2.49678e-06
2.37542e-06
2.2495e-06
2.11992e-06
1.9876e-06
1.85345e-06
1.7184e-06
1.5834e-06
1.44939e-06
1.31726e-06
1.18786e-06
1.06192e-06
9.39999e-07
8.22498e-07
7.096e-07
6.01286e-07
4.97331e-07
3.97318e-07
3.00649e-07
2.06561e-07
1.14151e-07
1.96987e-10
7.38007e-13
7.37519e-13
1.96861e-10
1.14084e-07
2.06442e-07
3.0048e-07
3.97099e-07
4.97062e-07
6.00968e-07
7.09237e-07
8.22092e-07
9.39554e-07
1.06144e-06
1.18735e-06
1.31673e-06
1.44883e-06
1.58283e-06
1.71782e-06
1.85286e-06
1.98701e-06
2.11934e-06
2.24893e-06
2.37487e-06
2.49625e-06
2.61219e-06
2.72184e-06
2.82436e-06
2.91898e-06
3.00499e-06
3.08172e-06
3.1486e-06
3.20512e-06
3.25085e-06
3.28546e-06
3.30868e-06
3.32035e-06
3.32038e-06
3.30877e-06
3.28559e-06
3.25104e-06
3.20535e-06
3.14888e-06
3.08205e-06
3.00536e-06
2.9194e-06
2.82481e-06
2.72232e-06
2.6127e-06
2.49679e-06
2.37542e-06
2.2495e-06
2.11992e-06
1.9876e-06
1.85345e-06
1.7184e-06
1.58341e-06
1.44939e-06
1.31726e-06
1.18786e-06
1.06192e-06
9.4e-07
8.22499e-07
7.09601e-07
6.01286e-07
4.97331e-07
3.97319e-07
3.00649e-07
2.06561e-07
1.14151e-07
1.96987e-10
7.38008e-13
7.3752e-13
1.96861e-10
1.14084e-07
2.06442e-07
3.0048e-07
3.97099e-07
4.97062e-07
6.00969e-07
7.09238e-07
8.22092e-07
9.39554e-07
1.06144e-06
1.18735e-06
1.31673e-06
1.44883e-06
1.58283e-06
1.71782e-06
1.85286e-06
1.98701e-06
2.11934e-06
2.24893e-06
2.37487e-06
2.49625e-06
2.61219e-06
2.72184e-06
2.82436e-06
2.91898e-06
3.00499e-06
3.08172e-06
3.1486e-06
3.20512e-06
3.25085e-06
3.28546e-06
3.30869e-06
3.32035e-06
3.32038e-06
3.30877e-06
3.2856e-06
3.25104e-06
3.20536e-06
3.14889e-06
3.08205e-06
3.00537e-06
2.9194e-06
2.82481e-06
2.72232e-06
2.61271e-06
2.49679e-06
2.37542e-06
2.2495e-06
2.11993e-06
1.9876e-06
1.85345e-06
1.7184e-06
1.58341e-06
1.44939e-06
1.31727e-06
1.18786e-06
1.06192e-06
9.4e-07
8.22499e-07
7.09601e-07
6.01286e-07
4.97331e-07
3.97319e-07
3.00649e-07
2.06561e-07
1.14151e-07
1.96987e-10
7.38008e-13
7.3752e-13
1.96861e-10
1.14084e-07
2.06442e-07
3.0048e-07
3.97099e-07
4.97062e-07
6.00969e-07
7.09238e-07
8.22092e-07
9.39554e-07
1.06144e-06
1.18735e-06
1.31673e-06
1.44883e-06
1.58283e-06
1.71782e-06
1.85286e-06
1.98701e-06
2.11934e-06
2.24893e-06
2.37487e-06
2.49625e-06
2.61219e-06
2.72184e-06
2.82436e-06
2.91898e-06
3.00499e-06
3.08172e-06
3.1486e-06
3.20512e-06
3.25085e-06
3.28546e-06
3.30869e-06
3.32036e-06
3.32038e-06
3.30877e-06
3.2856e-06
3.25104e-06
3.20536e-06
3.14889e-06
3.08205e-06
3.00537e-06
2.9194e-06
2.82481e-06
2.72232e-06
2.61271e-06
2.49679e-06
2.37542e-06
2.2495e-06
2.11993e-06
1.9876e-06
1.85345e-06
1.7184e-06
1.58341e-06
1.44939e-06
1.31727e-06
1.18787e-06
1.06192e-06
9.4e-07
8.22499e-07
7.09601e-07
6.01286e-07
4.97331e-07
3.97319e-07
3.00649e-07
2.06561e-07
1.14151e-07
1.96987e-10
7.38008e-13
7.3752e-13
1.96861e-10
1.14084e-07
2.06442e-07
3.0048e-07
3.97099e-07
4.97062e-07
6.00969e-07
7.09238e-07
8.22092e-07
9.39554e-07
1.06144e-06
1.18735e-06
1.31673e-06
1.44883e-06
1.58283e-06
1.71782e-06
1.85286e-06
1.98701e-06
2.11934e-06
2.24893e-06
2.37487e-06
2.49625e-06
2.61219e-06
2.72184e-06
2.82436e-06
2.91898e-06
3.00499e-06
3.08172e-06
3.1486e-06
3.20512e-06
3.25085e-06
3.28546e-06
3.30869e-06
3.32036e-06
3.32038e-06
3.30877e-06
3.2856e-06
3.25104e-06
3.20536e-06
3.14889e-06
3.08205e-06
3.00537e-06
2.9194e-06
2.82481e-06
2.72232e-06
2.61271e-06
2.49679e-06
2.37542e-06
2.2495e-06
2.11993e-06
1.9876e-06
1.85345e-06
1.7184e-06
1.58341e-06
1.44939e-06
1.31727e-06
1.18787e-06
1.06192e-06
9.4e-07
8.22499e-07
7.09601e-07
6.01286e-07
4.97331e-07
3.97319e-07
3.00649e-07
2.06561e-07
1.14151e-07
1.96987e-10
7.38008e-13
7.3752e-13
1.96861e-10
1.14084e-07
2.06442e-07
3.0048e-07
3.97099e-07
4.97062e-07
6.00969e-07
7.09238e-07
8.22092e-07
9.39554e-07
1.06144e-06
1.18735e-06
1.31673e-06
1.44883e-06
1.58283e-06
1.71782e-06
1.85286e-06
1.98701e-06
2.11934e-06
2.24893e-06
2.37487e-06
2.49625e-06
2.61219e-06
2.72184e-06
2.82436e-06
2.91898e-06
3.00499e-06
3.08172e-06
3.1486e-06
3.20512e-06
3.25085e-06
3.28546e-06
3.30869e-06
3.32036e-06
3.32038e-06
3.30877e-06
3.2856e-06
3.25104e-06
3.20536e-06
3.14889e-06
3.08205e-06
3.00537e-06
2.9194e-06
2.82481e-06
2.72232e-06
2.61271e-06
2.49679e-06
2.37543e-06
2.2495e-06
2.11993e-06
1.9876e-06
1.85345e-06
1.7184e-06
1.58341e-06
1.44939e-06
1.31727e-06
1.18787e-06
1.06192e-06
9.4e-07
8.22499e-07
7.09601e-07
6.01286e-07
4.97331e-07
3.97319e-07
3.00649e-07
2.06561e-07
1.14151e-07
1.96987e-10
7.38008e-13
7.3752e-13
1.96861e-10
1.14084e-07
2.06442e-07
3.0048e-07
3.97099e-07
4.97062e-07
6.00969e-07
7.09238e-07
8.22092e-07
9.39554e-07
1.06144e-06
1.18735e-06
1.31673e-06
1.44883e-06
1.58283e-06
1.71782e-06
1.85286e-06
1.98701e-06