/*--------------------------------*- C++ -*----------------------------------*\
  =========                 |
  \\      /  F ield         | OpenFOAM: The Open Source CFD Toolbox
   \\    /   O peration     | Website:  https://openfoam.org
    \\  /    A nd           | Version:  13
     \\/     M anipulation  |
\*---------------------------------------------------------------------------*/
FoamFile
{
    format      ascii;
    class       volScalarField;
    location    "72.5";
    object      nut;
}
// * * * * * * * * * * * * * * * * * * * * * * * * * * * * * * * * * * * * * //

dimensions      [0 2 -1 0 0 0 0];

internalField   nonuniform List<scalar> 
315000
(
4.46526e-14
1.16903e-11
2.66636e-10
4.78133e-10
6.92367e-10
9.09543e-10
1.13e-09
1.35401e-09
1.58174e-09
1.81312e-09
2.04792e-09
2.28572e-09
2.5259e-09
2.76768e-09
3.01016e-09
3.25231e-09
3.493e-09
3.73105e-09
3.96522e-09
4.19423e-09
4.41679e-09
4.63162e-09
4.83743e-09
5.03297e-09
5.21704e-09
5.38848e-09
5.54619e-09
5.68915e-09
5.81643e-09
5.92719e-09
6.02068e-09
6.09628e-09
6.15348e-09
6.1919e-09
6.21126e-09
6.21144e-09
6.19244e-09
6.15439e-09
6.09754e-09
6.02228e-09
5.92913e-09
5.8187e-09
5.69174e-09
5.54907e-09
5.39165e-09
5.22047e-09
5.03665e-09
4.84133e-09
4.63572e-09
4.42108e-09
4.19866e-09
3.96978e-09
3.73571e-09
3.49773e-09
3.25707e-09
3.01494e-09
2.77243e-09
2.53059e-09
2.29033e-09
2.0524e-09
1.81744e-09
1.58586e-09
1.3579e-09
1.1336e-09
9.12804e-10
6.95205e-10
4.8043e-10
2.68191e-10
1.17754e-11
4.50153e-14
1.11809e-12
2.97652e-10
6.76102e-08
1.21887e-07
1.76409e-07
2.31362e-07
2.86894e-07
3.43099e-07
4.00022e-07
4.57648e-07
5.15913e-07
5.74701e-07
6.33851e-07
6.93168e-07
7.52422e-07
8.11362e-07
8.69718e-07
9.27208e-07
9.83543e-07
1.03843e-06
1.09157e-06
1.14269e-06
1.19149e-06
1.23771e-06
1.28109e-06
1.32137e-06
1.35833e-06
1.39176e-06
1.42145e-06
1.44724e-06
1.46897e-06
1.48652e-06
1.49978e-06
1.50868e-06
1.51316e-06
1.51319e-06
1.50878e-06
1.49994e-06
1.48674e-06
1.46926e-06
1.44758e-06
1.42185e-06
1.39222e-06
1.35885e-06
1.32194e-06
1.2817e-06
1.23837e-06
1.19219e-06
1.14343e-06
1.09234e-06
1.03923e-06
9.84364e-07
9.28048e-07
8.70571e-07
8.12222e-07
7.53283e-07
6.94024e-07
6.34695e-07
5.75526e-07
5.16712e-07
4.58413e-07
4.00744e-07
3.43769e-07
2.87501e-07
2.31895e-07
1.76853e-07
1.22224e-07
6.78173e-08
2.98659e-10
1.12204e-12
4.52076e-12
1.20527e-09
6.84008e-07
1.20992e-06
1.72274e-06
2.2265e-06
2.72406e-06
3.21736e-06
3.70748e-06
4.19479e-06
4.67905e-06
5.15958e-06
5.63531e-06
6.10493e-06
6.56697e-06
7.01985e-06
7.46196e-06
7.89169e-06
8.30743e-06
8.70762e-06
9.09075e-06
9.45536e-06
9.80006e-06
1.01236e-05
1.04246e-05
1.07022e-05
1.0955e-05
1.11823e-05
1.13832e-05
1.15568e-05
1.17026e-05
1.18199e-05
1.19083e-05
1.19674e-05
1.19972e-05
1.19973e-05
1.19679e-05
1.1909e-05
1.18209e-05
1.17039e-05
1.15585e-05
1.13852e-05
1.11846e-05
1.09576e-05
1.07049e-05
1.04277e-05
1.01269e-05
9.80358e-06
9.45909e-06
9.09469e-06
8.71174e-06
8.31171e-06
7.89611e-06
7.46649e-06
7.02446e-06
6.57163e-06
6.10961e-06
5.63996e-06
5.16417e-06
4.68354e-06
4.19912e-06
3.71161e-06
3.22123e-06
2.72759e-06
2.2296e-06
1.72535e-06
1.21191e-06
6.85239e-07
1.20765e-09
4.52994e-12
8.0834e-12
2.15561e-09
1.20305e-06
2.09589e-06
2.94878e-06
3.77303e-06
4.57639e-06
5.36393e-06
6.13871e-06
6.9022e-06
7.65473e-06
8.39571e-06
9.12399e-06
9.83804e-06
1.05361e-05
1.12163e-05
1.18767e-05
1.25155e-05
1.31309e-05
1.37209e-05
1.42839e-05
1.48181e-05
1.53218e-05
1.57936e-05
1.62318e-05
1.66351e-05
1.7002e-05
1.73314e-05
1.76221e-05
1.78732e-05
1.80838e-05
1.82532e-05
1.83808e-05
1.84661e-05
1.85089e-05
1.85091e-05
1.84666e-05
1.83815e-05
1.82542e-05
1.80852e-05
1.78749e-05
1.76241e-05
1.73336e-05
1.70045e-05
1.66378e-05
1.62348e-05
1.57968e-05
1.53253e-05
1.48218e-05
1.42878e-05
1.3725e-05
1.31351e-05
1.252e-05
1.18813e-05
1.12209e-05
1.05408e-05
9.8428e-06
9.12875e-06
8.40043e-06
7.65936e-06
6.9067e-06
6.14301e-06
5.36797e-06
4.5801e-06
3.77633e-06
2.95157e-06
2.09804e-06
1.20441e-06
2.15834e-09
8.09398e-12
1.16683e-11
3.11247e-09
1.70981e-06
2.9396e-06
4.09594e-06
5.20072e-06
6.26815e-06
7.30729e-06
8.32361e-06
9.32004e-06
1.02977e-05
1.12564e-05
1.21952e-05
1.31128e-05
1.40073e-05
1.48771e-05
1.57201e-05
1.65346e-05
1.73186e-05
1.80701e-05
1.87872e-05
1.94678e-05
2.01098e-05
2.07109e-05
2.12694e-05
2.17831e-05
2.22504e-05
2.26698e-05
2.30398e-05
2.33593e-05
2.36271e-05
2.38424e-05
2.40045e-05
2.41129e-05
2.41672e-05
2.41674e-05
2.41133e-05
2.40051e-05
2.38433e-05
2.36282e-05
2.33607e-05
2.30415e-05
2.26717e-05
2.22526e-05
2.17855e-05
2.12719e-05
2.07138e-05
2.01128e-05
1.9471e-05
1.87906e-05
1.80737e-05
1.73223e-05
1.65384e-05
1.57241e-05
1.48811e-05
1.40115e-05
1.3117e-05
1.21994e-05
1.12606e-05
1.03018e-05
9.32403e-06
8.32744e-06
7.3109e-06
6.27148e-06
5.2037e-06
4.09848e-06
2.94159e-06
1.71109e-06
3.11516e-09
1.16788e-11
1.49473e-11
3.98825e-09
2.16103e-06
3.67565e-06
5.08321e-06
6.41722e-06
7.69858e-06
8.94032e-06
1.01503e-05
1.13328e-05
1.24899e-05
1.36219e-05
1.47282e-05
1.58078e-05
1.6859e-05
1.78803e-05
1.88698e-05
1.98258e-05
2.07461e-05
2.16285e-05
2.24705e-05
2.32695e-05
2.40227e-05
2.47279e-05
2.53825e-05
2.59845e-05
2.65319e-05
2.70229e-05
2.7456e-05
2.78298e-05
2.81431e-05
2.8395e-05
2.85846e-05
2.87113e-05
2.87749e-05
2.8775e-05
2.87116e-05
2.85851e-05
2.83957e-05
2.8144e-05
2.78309e-05
2.74573e-05
2.70244e-05
2.65336e-05
2.59864e-05
2.53846e-05
2.47301e-05
2.40251e-05
2.3272e-05
2.24732e-05
2.16314e-05
2.07491e-05
1.98289e-05
1.8873e-05
1.78836e-05
1.68624e-05
1.58112e-05
1.47317e-05
1.36253e-05
1.24932e-05
1.13361e-05
1.01534e-05
8.9433e-06
7.70135e-06
6.41971e-06
5.08534e-06
3.67734e-06
2.16214e-06
3.99066e-09
1.49567e-11
1.76509e-11
4.71088e-09
2.5251e-06
4.26048e-06
5.86004e-06
7.36787e-06
8.81065e-06
1.02047e-05
1.156e-05
1.28819e-05
1.41732e-05
1.54349e-05
1.66666e-05
1.78674e-05
1.90362e-05
2.01712e-05
2.1271e-05
2.23335e-05
2.33565e-05
2.43372e-05
2.52728e-05
2.61603e-05
2.69967e-05
2.77794e-05
2.85059e-05
2.91739e-05
2.97811e-05
3.03258e-05
3.08061e-05
3.12206e-05
3.1568e-05
3.18473e-05
3.20574e-05
3.2198e-05
3.22684e-05
3.22684e-05
3.21982e-05
3.20578e-05
3.18478e-05
3.15687e-05
3.12214e-05
3.08071e-05
3.03269e-05
2.97824e-05
2.91753e-05
2.85075e-05
2.77812e-05
2.69986e-05
2.61623e-05
2.5275e-05
2.43395e-05
2.33589e-05
2.2336e-05
2.12735e-05
2.01739e-05
1.90388e-05
1.78702e-05
1.66693e-05
1.54376e-05
1.4176e-05
1.28846e-05
1.15625e-05
1.02072e-05
8.81291e-06
7.3699e-06
5.86179e-06
4.26187e-06
2.52603e-06
4.71297e-09
1.76592e-11
1.96692e-11
5.25076e-09
2.79264e-06
4.68563e-06
6.42113e-06
8.05149e-06
9.60779e-06
1.11089e-05
1.25661e-05
1.39858e-05
1.53713e-05
1.67239e-05
1.80435e-05
1.93296e-05
2.0581e-05
2.17962e-05
2.29737e-05
2.41113e-05
2.52067e-05
2.62566e-05
2.72579e-05
2.82076e-05
2.91025e-05
2.99398e-05
3.07169e-05
3.14312e-05
3.20807e-05
3.26631e-05
3.31768e-05
3.362e-05
3.39915e-05
3.42901e-05
3.45148e-05
3.46651e-05
3.47404e-05
3.47404e-05
3.46653e-05
3.45152e-05
3.42905e-05
3.39921e-05
3.36207e-05
3.31776e-05
3.26641e-05
3.20817e-05
3.14324e-05
3.07182e-05
2.99412e-05
2.9104e-05
2.82093e-05
2.72597e-05
2.62585e-05
2.52086e-05
2.41134e-05
2.29758e-05
2.17984e-05
2.05832e-05
1.93319e-05
1.80459e-05
1.67262e-05
1.53736e-05
1.3988e-05
1.25683e-05
1.1111e-05
9.60972e-06
8.05322e-06
6.42262e-06
4.68682e-06
2.79344e-06
5.25262e-09
1.96766e-11
2.1044e-11
5.61879e-09
2.97298e-06
4.97023e-06
6.79524e-06
8.50613e-06
1.0137e-05
1.17084e-05
1.32325e-05
1.47165e-05
1.61639e-05
1.75764e-05
1.8954e-05
2.02963e-05
2.16022e-05
2.28704e-05
2.40993e-05
2.52867e-05
2.64299e-05
2.75256e-05
2.85704e-05
2.95612e-05
3.04948e-05
3.13683e-05
3.21789e-05
3.29241e-05
3.36015e-05
3.42091e-05
3.47449e-05
3.52072e-05
3.55947e-05
3.59062e-05
3.61406e-05
3.62973e-05
3.63758e-05
3.63759e-05
3.62975e-05
3.61409e-05
3.59066e-05
3.55952e-05
3.52079e-05
3.47456e-05
3.421e-05
3.36025e-05
3.29252e-05
3.21802e-05
3.13697e-05
3.04963e-05
2.95628e-05
2.85721e-05
2.75273e-05
2.64317e-05
2.52887e-05
2.41013e-05
2.28725e-05
2.16043e-05
2.02984e-05
1.89561e-05
1.75785e-05
1.61661e-05
1.47186e-05
1.32345e-05
1.17103e-05
1.01388e-05
8.50773e-06
6.79661e-06
4.97133e-06
2.97372e-06
5.62053e-09
2.10509e-11
2.1905e-11
5.84947e-09
3.08525e-06
5.14669e-06
7.02668e-06
8.78704e-06
1.04637e-05
1.20783e-05
1.36437e-05
1.51673e-05
1.66529e-05
1.81024e-05
1.95159e-05
2.0893e-05
2.22327e-05
2.35339e-05
2.47947e-05
2.60131e-05
2.7186e-05
2.83101e-05
2.93821e-05
3.03985e-05
3.13563e-05
3.22523e-05
3.30838e-05
3.38483e-05
3.45432e-05
3.51664e-05
3.5716e-05
3.61903e-05
3.65878e-05
3.69073e-05
3.71479e-05
3.73086e-05
3.73892e-05
3.73892e-05
3.73088e-05
3.71481e-05
3.69078e-05
3.65884e-05
3.6191e-05
3.57168e-05
3.51673e-05
3.45442e-05
3.38494e-05
3.30851e-05
3.22537e-05
3.13577e-05
3.04001e-05
2.93837e-05
2.83119e-05
2.71878e-05
2.6015e-05
2.47967e-05
2.35359e-05
2.22348e-05
2.08951e-05
1.9518e-05
1.81045e-05
1.66551e-05
1.51694e-05
1.36457e-05
1.20802e-05
1.04655e-05
8.78862e-06
7.02804e-06
5.14777e-06
3.08598e-06
5.85121e-09
2.19119e-11
2.24043e-11
5.98337e-09
3.15017e-06
5.24851e-06
7.16011e-06
8.94892e-06
1.0652e-05
1.22915e-05
1.38808e-05
1.54273e-05
1.69351e-05
1.84059e-05
1.98403e-05
2.12376e-05
2.25971e-05
2.39175e-05
2.51971e-05
2.64335e-05
2.76238e-05
2.87646e-05
2.98524e-05
3.08839e-05
3.18558e-05
3.27651e-05
3.36089e-05
3.43846e-05
3.50898e-05
3.57223e-05
3.62801e-05
3.67614e-05
3.71648e-05
3.74891e-05
3.77331e-05
3.78963e-05
3.7978e-05
3.79781e-05
3.78965e-05
3.77334e-05
3.74895e-05
3.71654e-05
3.67621e-05
3.62809e-05
3.57232e-05
3.50909e-05
3.43858e-05
3.36102e-05
3.27665e-05
3.18573e-05
3.08855e-05
2.98542e-05
2.87664e-05
2.76257e-05
2.64355e-05
2.51991e-05
2.39196e-05
2.25993e-05
2.12398e-05
1.98425e-05
1.84081e-05
1.69372e-05
1.54294e-05
1.38828e-05
1.22935e-05
1.06538e-05
8.95054e-06
7.1615e-06
5.24962e-06
3.15092e-06
5.98515e-09
2.24114e-11
2.2674e-11
6.05577e-09
3.18522e-06
5.30342e-06
7.23205e-06
9.03622e-06
1.07536e-05
1.24066e-05
1.40088e-05
1.55677e-05
1.70876e-05
1.85702e-05
2.00159e-05
2.14244e-05
2.27947e-05
2.41256e-05
2.54155e-05
2.66619e-05
2.78618e-05
2.90118e-05
3.01083e-05
3.11481e-05
3.21278e-05
3.30444e-05
3.38951e-05
3.4677e-05
3.53879e-05
3.60255e-05
3.65878e-05
3.7073e-05
3.74797e-05
3.78066e-05
3.80526e-05
3.82171e-05
3.82995e-05
3.82996e-05
3.82173e-05
3.8053e-05
3.7807e-05
3.74803e-05
3.70737e-05
3.65886e-05
3.60265e-05
3.5389e-05
3.46783e-05
3.38964e-05
3.30459e-05
3.21294e-05
3.11498e-05
3.01102e-05
2.90137e-05
2.78638e-05
2.6664e-05
2.54176e-05
2.41279e-05
2.2797e-05
2.14267e-05
2.00182e-05
1.85725e-05
1.70899e-05
1.557e-05
1.40109e-05
1.24086e-05
1.07554e-05
9.0379e-06
7.2335e-06
5.30458e-06
3.18599e-06
6.0576e-09
2.26813e-11
2.28104e-11
6.0924e-09
3.20294e-06
5.3312e-06
7.26845e-06
9.08042e-06
1.0805e-05
1.2465e-05
1.40737e-05
1.56391e-05
1.71651e-05
1.86538e-05
2.01054e-05
2.15196e-05
2.28955e-05
2.42318e-05
2.5527e-05
2.67785e-05
2.79834e-05
2.91382e-05
3.02393e-05
3.12834e-05
3.22672e-05
3.31876e-05
3.40418e-05
3.4827e-05
3.55409e-05
3.61811e-05
3.67458e-05
3.7233e-05
3.76414e-05
3.79697e-05
3.82168e-05
3.8382e-05
3.84647e-05
3.84648e-05
3.83822e-05
3.82171e-05
3.79702e-05
3.76421e-05
3.72338e-05
3.67467e-05
3.61822e-05
3.55421e-05
3.48283e-05
3.40432e-05
3.31892e-05
3.22689e-05
3.12852e-05
3.02412e-05
2.91402e-05
2.79855e-05
2.67807e-05
2.55292e-05
2.42341e-05
2.28978e-05
2.15219e-05
2.01077e-05
1.86561e-05
1.71675e-05
1.56414e-05
1.40759e-05
1.2467e-05
1.0807e-05
9.08215e-06
7.26994e-06
5.33239e-06
3.20374e-06
6.09429e-09
2.28179e-11
2.28752e-11
6.10982e-09
3.21138e-06
5.34442e-06
7.28579e-06
9.10148e-06
1.08296e-05
1.24928e-05
1.41048e-05
1.56732e-05
1.72023e-05
1.86938e-05
2.01482e-05
2.15652e-05
2.29438e-05
2.42829e-05
2.55806e-05
2.68347e-05
2.8042e-05
2.91991e-05
3.03025e-05
3.13487e-05
3.23345e-05
3.32568e-05
3.41127e-05
3.48995e-05
3.56148e-05
3.62564e-05
3.68222e-05
3.73105e-05
3.77197e-05
3.80486e-05
3.82963e-05
3.84618e-05
3.85447e-05
3.85448e-05
3.8462e-05
3.82966e-05
3.80492e-05
3.77204e-05
3.73113e-05
3.68231e-05
3.62575e-05
3.56161e-05
3.49009e-05
3.41142e-05
3.32584e-05
3.23362e-05
3.13505e-05
3.03044e-05
2.92012e-05
2.80442e-05
2.6837e-05
2.55829e-05
2.42852e-05
2.29462e-05
2.15676e-05
2.01507e-05
1.86962e-05
1.72047e-05
1.56755e-05
1.4107e-05
1.24949e-05
1.08315e-05
9.10325e-06
7.28731e-06
5.34563e-06
3.2122e-06
6.11175e-09
2.28828e-11
2.29042e-11
6.11764e-09
3.21516e-06
5.35035e-06
7.29358e-06
9.11095e-06
1.08406e-05
1.25054e-05
1.41188e-05
1.56886e-05
1.7219e-05
1.87119e-05
2.01676e-05
2.15859e-05
2.29658e-05
2.4306e-05
2.5605e-05
2.68602e-05
2.80687e-05
2.92268e-05
3.03312e-05
3.13784e-05
3.23651e-05
3.32883e-05
3.4145e-05
3.49326e-05
3.56486e-05
3.62908e-05
3.68571e-05
3.73458e-05
3.77555e-05
3.80847e-05
3.83326e-05
3.84982e-05
3.85812e-05
3.85813e-05
3.84985e-05
3.83329e-05
3.80852e-05
3.77561e-05
3.73467e-05
3.68581e-05
3.62919e-05
3.56498e-05
3.4934e-05
3.41465e-05
3.32899e-05
3.23669e-05
3.13803e-05
3.03332e-05
2.92289e-05
2.80709e-05
2.68625e-05
2.56073e-05
2.43084e-05
2.29682e-05
2.15884e-05
2.01701e-05
1.87144e-05
1.72215e-05
1.5691e-05
1.4121e-05
1.25075e-05
1.08426e-05
9.11274e-06
7.29512e-06
5.35158e-06
3.21599e-06
6.11958e-09
2.2912e-11
2.29165e-11
6.12095e-09
3.21677e-06
5.35288e-06
7.29689e-06
9.11498e-06
1.08453e-05
1.25107e-05
1.41247e-05
1.56952e-05
1.72262e-05
1.87196e-05
2.01759e-05
2.15948e-05
2.29752e-05
2.4316e-05
2.56154e-05
2.68712e-05
2.80801e-05
2.92388e-05
3.03436e-05
3.13912e-05
3.23783e-05
3.33019e-05
3.41589e-05
3.49468e-05
3.56631e-05
3.63056e-05
3.68721e-05
3.73611e-05
3.77709e-05
3.81003e-05
3.83482e-05
3.8514e-05
3.8597e-05
3.85971e-05
3.85142e-05
3.83486e-05
3.81008e-05
3.77716e-05
3.73619e-05
3.68731e-05
3.63067e-05
3.56644e-05
3.49483e-05
3.41605e-05
3.33035e-05
3.23801e-05
3.13931e-05
3.03456e-05
2.92409e-05
2.80823e-05
2.68735e-05
2.56178e-05
2.43184e-05
2.29776e-05
2.15973e-05
2.01784e-05
1.87221e-05
1.72286e-05
1.56976e-05
1.4127e-05
1.25129e-05
1.08473e-05
9.11679e-06
7.29844e-06
5.35411e-06
3.21761e-06
6.12291e-09
2.29243e-11
2.29215e-11
6.12229e-09
3.21742e-06
5.35389e-06
7.29823e-06
9.11661e-06
1.08472e-05
1.25129e-05
1.41272e-05
1.56978e-05
1.72291e-05
1.87228e-05
2.01793e-05
2.15984e-05
2.2979e-05
2.432e-05
2.56197e-05
2.68757e-05
2.80848e-05
2.92436e-05
3.03486e-05
3.13964e-05
3.23837e-05
3.33074e-05
3.41646e-05
3.49527e-05
3.56691e-05
3.63116e-05
3.68783e-05
3.73673e-05
3.77772e-05
3.81066e-05
3.83546e-05
3.85204e-05
3.86035e-05
3.86036e-05
3.85207e-05
3.8355e-05
3.81072e-05
3.77779e-05
3.73682e-05
3.68793e-05
3.63128e-05
3.56704e-05
3.49541e-05
3.41662e-05
3.33091e-05
3.23855e-05
3.13984e-05
3.03507e-05
2.92458e-05
2.8087e-05
2.6878e-05
2.56221e-05
2.43225e-05
2.29815e-05
2.16009e-05
2.01818e-05
1.87253e-05
1.72316e-05
1.57002e-05
1.41295e-05
1.25151e-05
1.08492e-05
9.11843e-06
7.29979e-06
5.35514e-06
3.21826e-06
6.12425e-09
2.29293e-11
2.29234e-11
6.12281e-09
3.21767e-06
5.35429e-06
7.29874e-06
9.11724e-06
1.0848e-05
1.25137e-05
1.41281e-05
1.56989e-05
1.72302e-05
1.8724e-05
2.01806e-05
2.15998e-05
2.29805e-05
2.43216e-05
2.56214e-05
2.68774e-05
2.80866e-05
2.92455e-05
3.03506e-05
3.13985e-05
3.23858e-05
3.33096e-05
3.41669e-05
3.4955e-05
3.56714e-05
3.6314e-05
3.68807e-05
3.73698e-05
3.77797e-05
3.81091e-05
3.83572e-05
3.8523e-05
3.8606e-05
3.86061e-05
3.85232e-05
3.83575e-05
3.81097e-05
3.77804e-05
3.73706e-05
3.68817e-05
3.63151e-05
3.56727e-05
3.49564e-05
3.41684e-05
3.33113e-05
3.23876e-05
3.14004e-05
3.03527e-05
2.92477e-05
2.80889e-05
2.68797e-05
2.56238e-05
2.4324e-05
2.2983e-05
2.16023e-05
2.01832e-05
1.87265e-05
1.72327e-05
1.57013e-05
1.41304e-05
1.25159e-05
1.085e-05
9.11906e-06
7.30031e-06
5.35553e-06
3.21851e-06
6.12477e-09
2.29312e-11
2.29241e-11
6.12299e-09
3.21776e-06
5.35443e-06
7.29894e-06
9.11747e-06
1.08482e-05
1.2514e-05
1.41284e-05
1.56993e-05
1.72306e-05
1.87245e-05
2.01811e-05
2.16003e-05
2.29811e-05
2.43222e-05
2.5622e-05
2.68781e-05
2.80873e-05
2.92462e-05
3.03514e-05
3.13992e-05
3.23866e-05
3.33104e-05
3.41677e-05
3.49558e-05
3.56723e-05
3.63149e-05
3.68816e-05
3.73707e-05
3.77806e-05
3.81101e-05
3.83581e-05
3.85239e-05
3.8607e-05
3.8607e-05
3.85241e-05
3.83585e-05
3.81106e-05
3.77813e-05
3.73715e-05
3.68826e-05
3.6316e-05
3.56736e-05
3.49572e-05
3.41693e-05
3.33121e-05
3.23884e-05
3.14012e-05
3.03534e-05
2.92484e-05
2.80895e-05
2.68804e-05
2.56244e-05
2.43246e-05
2.29835e-05
2.16028e-05
2.01837e-05
1.8727e-05
1.72331e-05
1.57017e-05
1.41308e-05
1.25162e-05
1.08503e-05
9.11929e-06
7.3005e-06
5.35568e-06
3.2186e-06
6.12496e-09
2.29319e-11
2.29244e-11
6.12306e-09
3.21779e-06
5.35448e-06
7.299e-06
9.11756e-06
1.08483e-05
1.25141e-05
1.41286e-05
1.56994e-05
1.72308e-05
1.87246e-05
2.01813e-05
2.16005e-05
2.29813e-05
2.43224e-05
2.56222e-05
2.68783e-05
2.80875e-05
2.92465e-05
3.03516e-05
3.13995e-05
3.23869e-05
3.33107e-05
3.4168e-05
3.49561e-05
3.56726e-05
3.63152e-05
3.6882e-05
3.7371e-05
3.77809e-05
3.81104e-05
3.83584e-05
3.85242e-05
3.86073e-05
3.86074e-05
3.85245e-05
3.83588e-05
3.8111e-05
3.77816e-05
3.73719e-05
3.68829e-05
3.63164e-05
3.56739e-05
3.49576e-05
3.41696e-05
3.33124e-05
3.23887e-05
3.14015e-05
3.03537e-05
2.92486e-05
2.80898e-05
2.68806e-05
2.56246e-05
2.43248e-05
2.29837e-05
2.1603e-05
2.01838e-05
1.87271e-05
1.72333e-05
1.57018e-05
1.41309e-05
1.25163e-05
1.08504e-05
9.11938e-06
7.30057e-06
5.35573e-06
3.21863e-06
6.12503e-09
2.29322e-11
2.29244e-11
6.12308e-09
3.21781e-06
5.3545e-06
7.29903e-06
9.11758e-06
1.08484e-05
1.25142e-05
1.41286e-05
1.56994e-05
1.72308e-05
1.87247e-05
2.01814e-05
2.16005e-05
2.29813e-05
2.43225e-05
2.56223e-05
2.68784e-05
2.80876e-05
2.92466e-05
3.03517e-05
3.13996e-05
3.2387e-05
3.33108e-05
3.41681e-05
3.49562e-05
3.56727e-05
3.63153e-05
3.68821e-05
3.73711e-05
3.77811e-05
3.81105e-05
3.83586e-05
3.85244e-05
3.86074e-05
3.86075e-05
3.85246e-05
3.8359e-05
3.81111e-05
3.77818e-05
3.7372e-05
3.68831e-05
3.63165e-05
3.5674e-05
3.49577e-05
3.41697e-05
3.33125e-05
3.23888e-05
3.14016e-05
3.03538e-05
2.92487e-05
2.80899e-05
2.68807e-05
2.56247e-05
2.43249e-05
2.29838e-05
2.16031e-05
2.01839e-05
1.87272e-05
1.72333e-05
1.57019e-05
1.41309e-05
1.25164e-05
1.08504e-05
9.1194e-06
7.30059e-06
5.35575e-06
3.21865e-06
6.12505e-09
2.29323e-11
2.29245e-11
6.12309e-09
3.21781e-06
5.35451e-06
7.29903e-06
9.11759e-06
1.08484e-05
1.25142e-05
1.41286e-05
1.56995e-05
1.72309e-05
1.87247e-05
2.01814e-05
2.16006e-05
2.29813e-05
2.43225e-05
2.56223e-05
2.68784e-05
2.80877e-05
2.92466e-05
3.03517e-05
3.13996e-05
3.2387e-05
3.33108e-05
3.41681e-05
3.49563e-05
3.56728e-05
3.63154e-05
3.68821e-05
3.73712e-05
3.77811e-05
3.81106e-05
3.83586e-05
3.85244e-05
3.86075e-05
3.86076e-05
3.85246e-05
3.8359e-05
3.81111e-05
3.77818e-05
3.7372e-05
3.68831e-05
3.63165e-05
3.5674e-05
3.49577e-05
3.41697e-05
3.33125e-05
3.23889e-05
3.14016e-05
3.03538e-05
2.92488e-05
2.80899e-05
2.68807e-05
2.56247e-05
2.43249e-05
2.29838e-05
2.16031e-05
2.01839e-05
1.87272e-05
1.72333e-05
1.57019e-05
1.41309e-05
1.25164e-05
1.08504e-05
9.11941e-06
7.3006e-06
5.35575e-06
3.21865e-06
6.12506e-09
2.29323e-11
2.29245e-11
6.12309e-09
3.21781e-06
5.35451e-06
7.29904e-06
9.1176e-06
1.08484e-05
1.25142e-05
1.41286e-05
1.56995e-05
1.72309e-05
1.87247e-05
2.01814e-05
2.16006e-05
2.29814e-05
2.43225e-05
2.56223e-05
2.68784e-05
2.80877e-05
2.92466e-05
3.03518e-05
3.13997e-05
3.2387e-05
3.33108e-05
3.41682e-05
3.49563e-05
3.56728e-05
3.63154e-05
3.68821e-05
3.73712e-05
3.77811e-05
3.81106e-05
3.83586e-05
3.85244e-05
3.86075e-05
3.86076e-05
3.85247e-05
3.8359e-05
3.81111e-05
3.77818e-05
3.7372e-05
3.68831e-05
3.63165e-05
3.56741e-05
3.49577e-05
3.41697e-05
3.33125e-05
3.23889e-05
3.14016e-05
3.03538e-05
2.92488e-05
2.80899e-05
2.68807e-05
2.56247e-05
2.4325e-05
2.29838e-05
2.16031e-05
2.01839e-05
1.87272e-05
1.72333e-05
1.57019e-05
1.41309e-05
1.25164e-05
1.08504e-05
9.11942e-06
7.3006e-06
5.35576e-06
3.21865e-06
6.12506e-09
2.29323e-11
2.29245e-11
6.12309e-09
3.21781e-06
5.35451e-06
7.29904e-06
9.1176e-06
1.08484e-05
1.25142e-05
1.41286e-05
1.56995e-05
1.72309e-05
1.87247e-05
2.01814e-05
2.16006e-05
2.29814e-05
2.43225e-05
2.56223e-05
2.68784e-05
2.80877e-05
2.92466e-05
3.03518e-05
3.13997e-05
3.2387e-05
3.33108e-05
3.41682e-05
3.49563e-05
3.56728e-05
3.63154e-05
3.68821e-05
3.73712e-05
3.77811e-05
3.81106e-05
3.83586e-05
3.85244e-05
3.86075e-05
3.86076e-05
3.85247e-05
3.8359e-05
3.81111e-05
3.77818e-05
3.7372e-05
3.68831e-05
3.63165e-05
3.56741e-05
3.49577e-05
3.41697e-05
3.33125e-05
3.23889e-05
3.14016e-05
3.03538e-05
2.92488e-05
2.80899e-05
2.68807e-05
2.56247e-05
2.4325e-05
2.29838e-05
2.16031e-05
2.01839e-05
1.87272e-05
1.72333e-05
1.57019e-05
1.41309e-05
1.25164e-05
1.08504e-05
9.11942e-06
7.3006e-06
5.35576e-06
3.21865e-06
6.12506e-09
2.29323e-11
2.29245e-11
6.12309e-09
3.21781e-06
5.35451e-06
7.29904e-06
9.1176e-06
1.08484e-05
1.25142e-05
1.41286e-05
1.56995e-05
1.72309e-05
1.87247e-05
2.01814e-05
2.16006e-05
2.29814e-05
2.43225e-05
2.56223e-05
2.68784e-05
2.80877e-05
2.92466e-05
3.03518e-05
3.13997e-05
3.23871e-05
3.33108e-05
3.41682e-05
3.49563e-05
3.56728e-05
3.63154e-05
3.68821e-05
3.73712e-05
3.77811e-05
3.81106e-05
3.83586e-05
3.85244e-05
3.86075e-05
3.86076e-05
3.85247e-05
3.8359e-05
3.81111e-05
3.77818e-05
3.7372e-05
3.68831e-05
3.63165e-05
3.56741e-05
3.49577e-05
3.41697e-05
3.33125e-05
3.23889e-05
3.14016e-05
3.03538e-05
2.92488e-05
2.80899e-05
2.68807e-05
2.56247e-05
2.4325e-05
2.29838e-05
2.16031e-05
2.01839e-05
1.87272e-05
1.72333e-05
1.57019e-05
1.41309e-05
1.25164e-05
1.08504e-05
9.11942e-06
7.3006e-06
5.35576e-06
3.21865e-06
6.12506e-09
2.29323e-11
2.29245e-11
6.12309e-09
3.21781e-06
5.35451e-06
7.29904e-06
9.1176e-06
1.08484e-05
1.25142e-05
1.41286e-05
1.56995e-05
1.72309e-05
1.87247e-05
2.01814e-05
2.16006e-05
2.29814e-05
2.43225e-05
2.56223e-05
2.68784e-05
2.80877e-05
2.92466e-05
3.03518e-05
3.13997e-05
3.23871e-05
3.33108e-05
3.41682e-05
3.49563e-05
3.56728e-05
3.63154e-05
3.68821e-05
3.73712e-05
3.77811e-05
3.81106e-05
3.83586e-05
3.85244e-05
3.86075e-05
3.86076e-05
3.85247e-05
3.8359e-05
3.81111e-05
3.77818e-05
3.7372e-05
3.68831e-05
3.63165e-05
3.56741e-05
3.49577e-05
3.41697e-05
3.33125e-05
3.23889e-05
3.14016e-05
3.03538e-05
2.92488e-05
2.80899e-05
2.68807e-05
2.56247e-05
2.4325e-05
2.29838e-05
2.16031e-05
2.01839e-05
1.87272e-05
1.72333e-05
1.57019e-05
1.41309e-05
1.25164e-05
1.08504e-05
9.11942e-06
7.3006e-06
5.35576e-06
3.21865e-06
6.12506e-09
2.29323e-11
2.29245e-11
6.12309e-09
3.21781e-06
5.35451e-06
7.29904e-06
9.1176e-06
1.08484e-05
1.25142e-05
1.41286e-05
1.56995e-05
1.72309e-05
1.87247e-05
2.01814e-05
2.16006e-05
2.29814e-05
2.43225e-05
2.56223e-05
2.68784e-05
2.80877e-05
2.92466e-05
3.03518e-05
3.13997e-05
3.23871e-05
3.33108e-05
3.41682e-05
3.49563e-05
3.56728e-05
3.63154e-05
3.68821e-05
3.73712e-05
3.77811e-05
3.81106e-05
3.83586e-05
3.85244e-05
3.86075e-05
3.86076e-05
3.85247e-05
3.8359e-05
3.81111e-05
3.77818e-05
3.7372e-05
3.68831e-05
3.63165e-05
3.56741e-05
3.49577e-05
3.41697e-05
3.33125e-05
3.23889e-05
3.14016e-05
3.03538e-05
2.92488e-05
2.80899e-05
2.68807e-05
2.56247e-05
2.4325e-05
2.29838e-05
2.16031e-05
2.01839e-05
1.87272e-05
1.72333e-05
1.57019e-05
1.41309e-05
1.25164e-05
1.08504e-05
9.11942e-06
7.3006e-06
5.35576e-06
3.21865e-06
6.12506e-09
2.29323e-11
2.29245e-11
6.12309e-09
3.21781e-06
5.35451e-06
7.29904e-06
9.1176e-06
1.08484e-05
1.25142e-05
1.41286e-05
1.56995e-05
1.72309e-05
1.87247e-05
2.01814e-05
2.16006e-05
2.29814e-05
2.43225e-05
2.56223e-05
2.68784e-05
2.80877e-05
2.92466e-05
3.03518e-05
3.13997e-05
3.23871e-05
3.33108e-05
3.41682e-05
3.49563e-05
3.56728e-05
3.63154e-05
3.68821e-05
3.73712e-05
3.77811e-05
3.81106e-05
3.83586e-05
3.85244e-05
3.86075e-05
3.86076e-05
3.85247e-05
3.8359e-05
3.81111e-05
3.77818e-05
3.7372e-05
3.68831e-05
3.63165e-05
3.56741e-05
3.49577e-05
3.41697e-05
3.33125e-05
3.23889e-05
3.14016e-05
3.03538e-05
2.92488e-05
2.80899e-05
2.68807e-05
2.56247e-05
2.4325e-05
2.29838e-05
2.16031e-05
2.01839e-05
1.87272e-05
1.72333e-05
1.57019e-05
1.41309e-05
1.25164e-05
1.08504e-05
9.11942e-06
7.3006e-06
5.35576e-06
3.21865e-06
6.12506e-09
2.29323e-11
2.29245e-11
6.12309e-09
3.21781e-06
5.35451e-06
7.29904e-06
9.1176e-06
1.08484e-05
1.25142e-05
1.41286e-05
1.56995e-05
1.72309e-05
1.87247e-05
2.01814e-05
2.16006e-05
2.29814e-05
2.43225e-05
2.56223e-05
2.68784e-05
2.80877e-05
2.92466e-05
3.03518e-05
3.13997e-05
3.23871e-05
3.33108e-05
3.41682e-05
3.49563e-05
3.56728e-05
3.63154e-05
3.68821e-05
3.73712e-05
3.77811e-05
3.81106e-05
3.83586e-05
3.85244e-05
3.86075e-05
3.86076e-05
3.85247e-05
3.8359e-05
3.81111e-05
3.77818e-05
3.7372e-05
3.68831e-05
3.63165e-05
3.56741e-05
3.49577e-05
3.41697e-05
3.33125e-05
3.23889e-05
3.14016e-05
3.03538e-05
2.92488e-05
2.80899e-05
2.68807e-05
2.56247e-05
2.4325e-05
2.29838e-05
2.16031e-05
2.01839e-05
1.87272e-05
1.72333e-05
1.57019e-05
1.41309e-05
1.25164e-05
1.08504e-05
9.11942e-06
7.3006e-06
5.35576e-06
3.21865e-06
6.12506e-09
2.29323e-11
2.29245e-11
6.12309e-09
3.21781e-06
5.35451e-06
7.29904e-06
9.1176e-06
1.08484e-05
1.25142e-05
1.41286e-05
1.56995e-05
1.72309e-05
1.87247e-05
2.01814e-05
2.16006e-05
2.29814e-05
2.43225e-05
2.56223e-05
2.68784e-05
2.80877e-05
2.92466e-05
3.03518e-05
3.13997e-05
3.23871e-05
3.33108e-05
3.41682e-05
3.49563e-05
3.56728e-05
3.63154e-05
3.68821e-05
3.73712e-05
3.77811e-05
3.81106e-05
3.83586e-05
3.85244e-05
3.86075e-05
3.86076e-05
3.85247e-05
3.8359e-05
3.81111e-05
3.77818e-05
3.7372e-05
3.68831e-05
3.63165e-05
3.56741e-05
3.49577e-05
3.41697e-05
3.33125e-05
3.23889e-05
3.14016e-05
3.03538e-05
2.92488e-05
2.80899e-05
2.68807e-05
2.56247e-05
2.4325e-05
2.29838e-05
2.16031e-05
2.01839e-05
1.87272e-05
1.72333e-05
1.57019e-05
1.41309e-05
1.25164e-05
1.08504e-05
9.11942e-06
7.3006e-06
5.35576e-06
3.21865e-06
6.12506e-09
2.29323e-11
2.29245e-11
6.12309e-09
3.21781e-06
5.35451e-06
7.29904e-06
9.1176e-06
1.08484e-05
1.25142e-05
1.41286e-05
1.56995e-05
1.72309e-05
1.87247e-05
2.01814e-05
2.16006e-05
2.29814e-05
2.43225e-05
2.56223e-05
2.68784e-05
2.80877e-05
2.92466e-05
3.03518e-05
3.13997e-05
3.23871e-05
3.33108e-05
3.41682e-05
3.49563e-05
3.56728e-05
3.63154e-05
3.68821e-05
3.73712e-05
3.77811e-05
3.81106e-05
3.83586e-05
3.85244e-05
3.86075e-05
3.86076e-05
3.85247e-05
3.8359e-05
3.81111e-05
3.77818e-05
3.7372e-05
3.68831e-05
3.63165e-05
3.56741e-05
3.49577e-05
3.41697e-05
3.33125e-05
3.23889e-05
3.14016e-05
3.03538e-05
2.92488e-05
2.80899e-05
2.68807e-05
2.56247e-05
2.4325e-05
2.29838e-05
2.16031e-05
2.01839e-05
1.87272e-05
1.72333e-05
1.57019e-05
1.41309e-05
1.25164e-05
1.08504e-05
9.11942e-06
7.3006e-06
5.35576e-06
3.21865e-06
6.12506e-09
2.29323e-11
2.29245e-11
6.12309e-09
3.21781e-06
5.35451e-06
7.29904e-06
9.1176e-06
1.08484e-05
1.25142e-05
1.41286e-05
1.56995e-05
1.72309e-05
1.87247e-05
2.01814e-05
2.16006e-05
2.29814e-05
2.43225e-05
2.56223e-05
2.68784e-05
2.80877e-05
2.92466e-05
3.03518e-05
3.13997e-05
3.23871e-05
3.33108e-05
3.41682e-05
3.49563e-05
3.56728e-05
3.63154e-05
3.68821e-05
3.73712e-05
3.77811e-05
3.81106e-05
3.83586e-05
3.85244e-05
3.86075e-05
3.86076e-05
3.85247e-05
3.8359e-05
3.81111e-05
3.77818e-05
3.7372e-05
3.68831e-05
3.63165e-05
3.56741e-05
3.49577e-05
3.41697e-05
3.33125e-05
3.23889e-05
3.14016e-05
3.03538e-05
2.92488e-05
2.80899e-05
2.68807e-05
2.56247e-05
2.4325e-05
2.29838e-05
2.16031e-05
2.01839e-05
1.87272e-05
1.72333e-05
1.57019e-05
1.41309e-05
1.25164e-05
1.08504e-05
9.11942e-06
7.3006e-06
5.35576e-06
3.21865e-06
6.12506e-09
2.29323e-11
2.29245e-11
6.12309e-09
3.21781e-06
5.35451e-06
7.29904e-06
9.1176e-06
1.08484e-05
1.25142e-05
1.41286e-05
1.56995e-05
1.72309e-05
1.87247e-05
2.01814e-05
2.16006e-05
2.29814e-05
2.43225e-05
2.56223e-05
2.68784e-05
2.80877e-05
2.92466e-05
3.03518e-05
3.13997e-05
3.23871e-05
3.33108e-05
3.41682e-05
3.49563e-05
3.56728e-05
3.63154e-05
3.68821e-05
3.73712e-05
3.77811e-05
3.81106e-05
3.83586e-05
3.85244e-05
3.86075e-05
3.86076e-05
3.85247e-05
3.8359e-05
3.81111e-05
3.77818e-05
3.7372e-05
3.68831e-05
3.63165e-05
3.56741e-05
3.49577e-05
3.41697e-05
3.33125e-05
3.23889e-05
3.14016e-05
3.03538e-05
2.92488e-05
2.80899e-05
2.68807e-05
2.56247e-05
2.4325e-05
2.29838e-05
2.16031e-05
2.01839e-05
1.87272e-05
1.72333e-05
1.57019e-05
1.41309e-05
1.25164e-05
1.08504e-05
9.11942e-06
7.3006e-06
5.35576e-06
3.21865e-06
6.12506e-09
2.29323e-11
2.29245e-11
6.12309e-09
3.21781e-06
5.35451e-06
7.29904e-06
9.1176e-06
1.08484e-05
1.25142e-05
1.41286e-05
1.56995e-05
1.72309e-05
1.87247e-05
2.01814e-05
2.16006e-05
2.29814e-05
2.43225e-05
2.56223e-05
2.68784e-05
2.80877e-05
2.92466e-05
3.03518e-05
3.13997e-05
3.23871e-05
3.33108e-05
3.41682e-05
3.49563e-05
3.56728e-05
3.63154e-05
3.68821e-05
3.73712e-05
3.77811e-05
3.81106e-05
3.83586e-05
3.85244e-05
3.86075e-05
3.86076e-05
3.85247e-05
3.8359e-05
3.81111e-05
3.77818e-05
3.7372e-05
3.68831e-05
3.63165e-05
3.56741e-05
3.49577e-05
3.41697e-05
3.33125e-05
3.23889e-05
3.14016e-05
3.03538e-05
2.92488e-05
2.80899e-05
2.68807e-05
2.56247e-05
2.4325e-05
2.29838e-05
2.16031e-05
2.01839e-05
1.87272e-05
1.72333e-05
1.57019e-05
1.41309e-05
1.25164e-05
1.08504e-05
9.11942e-06
7.3006e-06
5.35576e-06
3.21865e-06
6.12506e-09
2.29323e-11
2.29245e-11
6.12309e-09
3.21781e-06
5.35451e-06
7.29904e-06
9.1176e-06
1.08484e-05
1.25142e-05
1.41286e-05
1.56995e-05
1.72309e-05
1.87247e-05
2.01814e-05
2.16006e-05
2.29814e-05
2.43225e-05
2.56223e-05
2.68784e-05
2.80877e-05
2.92466e-05
3.03518e-05
3.13997e-05
3.23871e-05
3.33108e-05
3.41682e-05
3.49563e-05
3.56728e-05
3.63154e-05
3.68821e-05
3.73712e-05
3.77811e-05
3.81106e-05
3.83586e-05
3.85244e-05
3.86075e-05
3.86076e-05
3.85247e-05
3.8359e-05
3.81111e-05
3.77818e-05
3.7372e-05
3.68831e-05
3.63165e-05
3.56741e-05
3.49577e-05
3.41697e-05
3.33125e-05
3.23889e-05
3.14016e-05
3.03538e-05
2.92488e-05
2.80899e-05
2.68807e-05
2.56247e-05
2.4325e-05
2.29838e-05
2.16031e-05
2.01839e-05
1.87272e-05
1.72333e-05
1.57019e-05
1.41309e-05
1.25164e-05
1.08504e-05
9.11942e-06
7.3006e-06
5.35576e-06
3.21865e-06
6.12506e-09
2.29323e-11
2.29245e-11
6.12309e-09
3.21781e-06
5.35451e-06
7.29904e-06
9.1176e-06
1.08484e-05
1.25142e-05
1.41286e-05
1.56995e-05
1.72309e-05
1.87247e-05