/*--------------------------------*- C++ -*----------------------------------*\
  =========                 |
  \\      /  F ield         | OpenFOAM: The Open Source CFD Toolbox
   \\    /   O peration     | Website:  https://openfoam.org
    \\  /    A nd           | Version:  13
     \\/     M anipulation  |
\*---------------------------------------------------------------------------*/
FoamFile
{
    format      ascii;
    class       volScalarField;
    location    "72.5";
    object      rhok;
}
// * * * * * * * * * * * * * * * * * * * * * * * * * * * * * * * * * * * * * //

dimensions      [];

internalField   nonuniform List<scalar> 
315000
(
0.44456
0.427219
0.414036
0.41262
0.411815
0.410963
0.410076
0.40917
0.408252
0.407329
0.406405
0.405481
0.404561
0.403645
0.402735
0.401832
0.400937
0.400049
0.399171
0.398303
0.397444
0.396597
0.395761
0.394936
0.394124
0.393324
0.392537
0.391763
0.391002
0.390255
0.389522
0.388802
0.388097
0.387405
0.386728
0.386064
0.385415
0.384779
0.384158
0.38355
0.382956
0.382375
0.381808
0.381253
0.380711
0.380182
0.379665
0.37916
0.378667
0.378184
0.377713
0.377252
0.3768
0.376359
0.375926
0.375502
0.375086
0.374678
0.374277
0.373883
0.373494
0.373111
0.372734
0.37236
0.37199
0.371624
0.37126
0.370898
0.370538
0.370179
0.444482
0.424057
0.41672
0.413002
0.411878
0.411048
0.410135
0.409199
0.40826
0.407324
0.406394
0.405468
0.404547
0.403631
0.402722
0.401819
0.400924
0.400037
0.399159
0.39829
0.397432
0.396584
0.395748
0.394923
0.394111
0.393311
0.392523
0.391749
0.390989
0.390241
0.389508
0.388789
0.388083
0.387391
0.386714
0.386051
0.385401
0.384766
0.384145
0.383537
0.382943
0.382362
0.381795
0.381241
0.3807
0.380171
0.379654
0.379149
0.378656
0.378174
0.377703
0.377242
0.376791
0.37635
0.375918
0.375495
0.375079
0.374672
0.374271
0.373877
0.373489
0.373107
0.37273
0.372357
0.371987
0.371622
0.371258
0.370897
0.370537
0.370179
0.444571
0.427607
0.413921
0.41252
0.411728
0.41089
0.410018
0.409124
0.408216
0.407299
0.406379
0.405458
0.40454
0.403625
0.402716
0.401813
0.400917
0.40003
0.399151
0.398282
0.397423
0.396576
0.395739
0.394914
0.394101
0.393301
0.392514
0.39174
0.390979
0.390232
0.389498
0.388779
0.388073
0.387382
0.386704
0.386041
0.385392
0.384756
0.384135
0.383528
0.382934
0.382353
0.381786
0.381232
0.380691
0.380162
0.379646
0.379141
0.378648
0.378167
0.377696
0.377235
0.376785
0.376344
0.375912
0.375489
0.375074
0.374667
0.374267
0.373873
0.373486
0.373104
0.372727
0.372354
0.371985
0.37162
0.371257
0.370896
0.370537
0.370179
0.444546
0.426674
0.414191
0.412733
0.411895
0.411012
0.410102
0.409179
0.40825
0.40732
0.406391
0.405464
0.404542
0.403625
0.402714
0.40181
0.400913
0.400025
0.399147
0.398277
0.397418
0.39657
0.395733
0.394908
0.394096
0.393295
0.392508
0.391734
0.390973
0.390225
0.389492
0.388772
0.388067
0.387375
0.386698
0.386034
0.385385
0.38475
0.384129
0.383521
0.382927
0.382347
0.38178
0.381226
0.380685
0.380157
0.37964
0.379136
0.378643
0.378162
0.377691
0.377231
0.37678
0.37634
0.375908
0.375485
0.375071
0.374663
0.374263
0.37387
0.373483
0.373101
0.372725
0.372352
0.371984
0.371618
0.371256
0.370895
0.370536
0.370178
0.444482
0.424055
0.416722
0.413004
0.411878
0.411047
0.410132
0.409194
0.408253
0.407316
0.406384
0.405458
0.404536
0.40362
0.402709
0.401806
0.40091
0.400022
0.399144
0.398274
0.397415
0.396567
0.39573
0.394905
0.394093
0.393292
0.392505
0.39173
0.390969
0.390222
0.389488
0.388769
0.388063
0.387372
0.386694
0.386031
0.385381
0.384746
0.384125
0.383517
0.382924
0.382343
0.381776
0.381223
0.380681
0.380153
0.379637
0.379132
0.37864
0.378158
0.377688
0.377228
0.376777
0.376337
0.375906
0.375483
0.375068
0.374661
0.374261
0.373868
0.373481
0.3731
0.372723
0.372351
0.371983
0.371618
0.371255
0.370895
0.370536
0.370178
0.444571
0.427608
0.413923
0.412522
0.41173
0.410892
0.41002
0.409125
0.408216
0.407299
0.406378
0.405457
0.404538
0.403622
0.402712
0.401808
0.400912
0.400024
0.399145
0.398275
0.397416
0.396568
0.395731
0.394905
0.394092
0.393292
0.392504
0.391729
0.390968
0.390221
0.389487
0.388767
0.388062
0.38737
0.386692
0.386029
0.38538
0.384745
0.384123
0.383516
0.382922
0.382342
0.381775
0.381221
0.38068
0.380151
0.379635
0.379131
0.378638
0.378157
0.377686
0.377226
0.376776
0.376335
0.375904
0.375481
0.375067
0.37466
0.37426
0.373867
0.37348
0.373099
0.372722
0.37235
0.371982
0.371617
0.371255
0.370895
0.370536
0.370178
0.444547
0.426684
0.414187
0.412737
0.411902
0.411021
0.410113
0.409191
0.408262
0.407331
0.406401
0.405473
0.404549
0.403631
0.402719
0.401814
0.400916
0.400028
0.399148
0.398278
0.397418
0.396569
0.395732
0.394906
0.394093
0.393292
0.392505
0.39173
0.390969
0.390221
0.389487
0.388767
0.388062
0.38737
0.386692
0.386029
0.38538
0.384744
0.384123
0.383515
0.382921
0.382341
0.381774
0.38122
0.380679
0.380151
0.379634
0.37913
0.378638
0.378156
0.377686
0.377225
0.376775
0.376335
0.375904
0.375481
0.375066
0.37466
0.37426
0.373867
0.37348
0.373098
0.372722
0.37235
0.371982
0.371617
0.371255
0.370895
0.370536
0.370178
0.444546
0.426674
0.414201
0.412755
0.41192
0.411037
0.410127
0.409203
0.408272
0.407339
0.406407
0.405479
0.404554
0.403635
0.402723
0.401817
0.400919
0.40003
0.39915
0.39828
0.39742
0.396571
0.395734
0.394908
0.394094
0.393294
0.392506
0.391731
0.39097
0.390222
0.389488
0.388768
0.388062
0.387371
0.386693
0.38603
0.38538
0.384745
0.384123
0.383516
0.382922
0.382342
0.381775
0.381221
0.380679
0.380151
0.379635
0.37913
0.378638
0.378156
0.377686
0.377226
0.376775
0.376335
0.375904
0.375481
0.375066
0.37466
0.37426
0.373867
0.37348
0.373098
0.372722
0.37235
0.371982
0.371617
0.371255
0.370895
0.370536
0.370178
0.444546
0.426674
0.414224
0.412773
0.411935
0.41105
0.410137
0.40921
0.408278
0.407344
0.406412
0.405483
0.404558
0.403639
0.402726
0.40182
0.400922
0.400032
0.399152
0.398282
0.397422
0.396572
0.395735
0.394909
0.394096
0.393295
0.392507
0.391732
0.390971
0.390223
0.389489
0.388769
0.388064
0.387372
0.386694
0.386031
0.385381
0.384746
0.384124
0.383517
0.382923
0.382342
0.381775
0.381221
0.38068
0.380152
0.379635
0.379131
0.378638
0.378157
0.377686
0.377226
0.376776
0.376335
0.375904
0.375481
0.375067
0.37466
0.37426
0.373867
0.37348
0.373099
0.372722
0.37235
0.371982
0.371617
0.371255
0.370895
0.370536
0.370178
0.444477
0.42386
0.416677
0.413033
0.41192
0.411091
0.410176
0.409235
0.40829
0.407349
0.406413
0.405483
0.404558
0.403638
0.402726
0.40182
0.400922
0.400033
0.399153
0.398282
0.397422
0.396573
0.395736
0.39491
0.394096
0.393296
0.392508
0.391733
0.390972
0.390224
0.38949
0.38877
0.388065
0.387373
0.386695
0.386032
0.385382
0.384747
0.384125
0.383518
0.382924
0.382344
0.381776
0.381222
0.380681
0.380153
0.379636
0.379132
0.378639
0.378158
0.377687
0.377227
0.376777
0.376336
0.375905
0.375482
0.375067
0.37466
0.374261
0.373867
0.37348
0.373099
0.372722
0.37235
0.371982
0.371617
0.371255
0.370895
0.370536
0.370178
0.444562
0.427262
0.414061
0.412649
0.411835
0.410974
0.410082
0.40917
0.408249
0.407323
0.406396
0.40547
0.404549
0.403632
0.40272
0.401816
0.400919
0.40003
0.399151
0.398281
0.397422
0.396573
0.395736
0.39491
0.394097
0.393296
0.392508
0.391734
0.390973
0.390225
0.389491
0.388772
0.388066
0.387374
0.386696
0.386033
0.385383
0.384748
0.384127
0.383519
0.382925
0.382345
0.381777
0.381223
0.380682
0.380154
0.379637
0.379133
0.37864
0.378158
0.377688
0.377227
0.376777
0.376337
0.375905
0.375482
0.375068
0.374661
0.374261
0.373868
0.373481
0.373099
0.372723
0.372351
0.371982
0.371617
0.371255
0.370895
0.370536
0.370178
0.444505
0.425086
0.415163
0.413098
0.412065
0.411104
0.410159
0.409218
0.408278
0.40734
0.406406
0.405477
0.404553
0.403634
0.402722
0.401817
0.40092
0.400032
0.399152
0.398282
0.397423
0.396574
0.395737
0.394911
0.394098
0.393297
0.39251
0.391735
0.390974
0.390226
0.389493
0.388773
0.388067
0.387375
0.386697
0.386034
0.385385
0.384749
0.384128
0.38352
0.382926
0.382346
0.381778
0.381224
0.380683
0.380154
0.379638
0.379134
0.378641
0.378159
0.377688
0.377228
0.376778
0.376337
0.375906
0.375483
0.375068
0.374661
0.374261
0.373868
0.373481
0.3731
0.372723
0.372351
0.371983
0.371618
0.371255
0.370895
0.370536
0.370178
0.444571
0.427619
0.413916
0.412514
0.411725
0.410891
0.410023
0.409131
0.408224
0.407308
0.406387
0.405466
0.404546
0.403631
0.40272
0.401816
0.400919
0.400031
0.399152
0.398282
0.397423
0.396574
0.395737
0.394912
0.394099
0.393298
0.39251
0.391736
0.390975
0.390227
0.389493
0.388774
0.388068
0.387376
0.386698
0.386035
0.385385
0.38475
0.384128
0.383521
0.382927
0.382346
0.381779
0.381225
0.380684
0.380155
0.379639
0.379134
0.378641
0.37816
0.377689
0.377229
0.376778
0.376338
0.375906
0.375483
0.375069
0.374662
0.374262
0.373868
0.373481
0.3731
0.372723
0.372351
0.371983
0.371618
0.371255
0.370895
0.370536
0.370178
0.444571
0.427623
0.413921
0.412519
0.411726
0.410891
0.410023
0.409131
0.408224
0.407308
0.406388
0.405467
0.404548
0.403632
0.402721
0.401817
0.400921
0.400032
0.399153
0.398283
0.397424
0.396575
0.395738
0.394913
0.394099
0.393299
0.392511
0.391737
0.390975
0.390228
0.389494
0.388774
0.388069
0.387377
0.386699
0.386036
0.385386
0.384751
0.384129
0.383521
0.382927
0.382347
0.38178
0.381226
0.380684
0.380156
0.379639
0.379135
0.378642
0.37816
0.377689
0.377229
0.376779
0.376338
0.375906
0.375484
0.375069
0.374662
0.374262
0.373869
0.373482
0.3731
0.372723
0.372351
0.371983
0.371618
0.371255
0.370895
0.370536
0.370178
0.444506
0.425093
0.415172
0.413107
0.412073
0.411111
0.410167
0.409225
0.408284
0.407346
0.406411
0.405482
0.404557
0.403638
0.402726
0.40182
0.400923
0.400034
0.399154
0.398284
0.397425
0.396576
0.395739
0.394913
0.3941
0.3933
0.392512
0.391737
0.390976
0.390229
0.389495
0.388775
0.388069
0.387377
0.3867
0.386036
0.385387
0.384751
0.38413
0.383522
0.382928
0.382347
0.38178
0.381226
0.380685
0.380156
0.379639
0.379135
0.378642
0.37816
0.37769
0.377229
0.376779
0.376338
0.375907
0.375484
0.375069
0.374662
0.374262
0.373869
0.373482
0.3731
0.372723
0.372351
0.371983
0.371618
0.371255
0.370895
0.370536
0.370178
0.44456
0.427204
0.414027
0.412622
0.411819
0.410966
0.410079
0.409172
0.408252
0.407327
0.4064
0.405475
0.404553
0.403635
0.402724
0.401819
0.400922
0.400033
0.399154
0.398284
0.397424
0.396576
0.395739
0.394913
0.3941
0.3933
0.392512
0.391737
0.390976
0.390229
0.389495
0.388775
0.388069
0.387377
0.3867
0.386036
0.385387
0.384751
0.38413
0.383522
0.382928
0.382347
0.38178
0.381226
0.380685
0.380156
0.37964
0.379135
0.378642
0.378161
0.37769
0.377229
0.376779
0.376338
0.375907
0.375484
0.375069
0.374662
0.374262
0.373869
0.373482
0.3731
0.372723
0.372351
0.371983
0.371618
0.371255
0.370895
0.370536
0.370178
0.44456
0.427207
0.414005
0.412598
0.411798
0.410949
0.410067
0.409163
0.408246
0.407322
0.406397
0.405472
0.40455
0.403633
0.402722
0.401817
0.40092
0.400032
0.399153
0.398283
0.397424
0.396575
0.395738
0.394913
0.3941
0.393299
0.392512
0.391737
0.390976
0.390229
0.389495
0.388775
0.388069
0.387377
0.3867
0.386036
0.385387
0.384751
0.38413
0.383522
0.382928
0.382348
0.38178
0.381226
0.380685
0.380156
0.37964
0.379135
0.378642
0.378161
0.37769
0.377229
0.376779
0.376338
0.375907
0.375484
0.375069
0.374662
0.374262
0.373869
0.373482
0.3731
0.372724
0.372351
0.371983
0.371618
0.371255
0.370895
0.370536
0.370178
0.44456
0.427213
0.414054
0.41263
0.411814
0.410959
0.410075
0.40917
0.408253
0.40733
0.406404
0.405478
0.404556
0.403638
0.402726
0.40182
0.400923
0.400034
0.399154
0.398284
0.397424
0.396576
0.395738
0.394913
0.3941
0.393299
0.392511
0.391737
0.390976
0.390228
0.389495
0.388775
0.388069
0.387377
0.3867
0.386036
0.385387
0.384751
0.38413
0.383522
0.382928
0.382347
0.38178
0.381226
0.380685
0.380156
0.37964
0.379135
0.378642
0.378161
0.37769
0.377229
0.376779
0.376338
0.375907
0.375484
0.375069
0.374662
0.374262
0.373869
0.373482
0.3731
0.372724
0.372351
0.371983
0.371618
0.371255
0.370895
0.370536
0.370178
0.444457
0.422105
0.416245
0.414067
0.412529
0.41131
0.410246
0.409255
0.408297
0.407355
0.406421
0.405491
0.404567
0.403647
0.402734
0.401827
0.400928
0.400038
0.399157
0.398287
0.397426
0.396577
0.395739
0.394914
0.3941
0.393299
0.392512
0.391737
0.390976
0.390228
0.389494
0.388775
0.388069
0.387377
0.386699
0.386036
0.385386
0.384751
0.38413
0.383522
0.382928
0.382347
0.38178
0.381226
0.380685
0.380156
0.37964
0.379135
0.378642
0.378161
0.37769
0.377229
0.376779
0.376338
0.375907
0.375484
0.375069
0.374662
0.374262
0.373869
0.373482
0.3731
0.372724
0.372351
0.371983
0.371618
0.371255
0.370895
0.370536
0.370178
0.444457
0.422116
0.416267
0.414096
0.412554
0.41133
0.410262
0.409268
0.408308
0.407364
0.406429
0.405499
0.404573
0.403653
0.402738
0.401831
0.400931
0.400041
0.399159
0.398288
0.397427
0.396578
0.39574
0.394914
0.3941
0.393299
0.392511
0.391737
0.390976
0.390228
0.389494
0.388775
0.388069
0.387377
0.386699
0.386036
0.385386
0.384751
0.384129
0.383522
0.382928
0.382347
0.38178
0.381226
0.380685
0.380156
0.37964
0.379135
0.378642
0.378161
0.37769
0.377229
0.376779
0.376338
0.375907
0.375484
0.375069
0.374662
0.374262
0.373869
0.373482
0.3731
0.372724
0.372351
0.371983
0.371618
0.371255
0.370895
0.370536
0.370178
0.444457
0.422118
0.41627
0.414099
0.412558
0.411334
0.410265
0.409271
0.408311
0.407367
0.406431
0.405501
0.404575
0.403654
0.40274
0.401832
0.400932
0.400041
0.39916
0.398288
0.397427
0.396578
0.39574
0.394914
0.3941
0.393299
0.392511
0.391737
0.390975
0.390228
0.389494
0.388774
0.388069
0.387377
0.386699
0.386036
0.385386
0.384751
0.384129
0.383522
0.382928
0.382347
0.38178
0.381226
0.380685
0.380156
0.37964
0.379135
0.378642
0.37816
0.37769
0.377229
0.376779
0.376338
0.375907
0.375484
0.375069
0.374662
0.374262
0.373869
0.373482
0.3731
0.372724
0.372351
0.371983
0.371618
0.371255
0.370895
0.370536
0.370178
0.444457
0.422118
0.41627
0.4141
0.412558
0.411334
0.410266
0.409271
0.408311
0.407367
0.406431
0.405501
0.404575
0.403654
0.40274
0.401832
0.400932
0.400041
0.39916
0.398288
0.397427
0.396578
0.39574
0.394914
0.3941
0.393299
0.392511
0.391737
0.390975
0.390228
0.389494
0.388774
0.388068
0.387377
0.386699
0.386036
0.385386
0.384751
0.384129
0.383522
0.382928
0.382347
0.38178
0.381226
0.380685
0.380156
0.379639
0.379135
0.378642
0.37816
0.37769
0.377229
0.376779
0.376338
0.375907
0.375484
0.375069
0.374662
0.374262
0.373869
0.373482
0.3731
0.372724
0.372351
0.371983
0.371618
0.371255
0.370895
0.370536
0.370178
0.444457
0.422118
0.41627
0.4141
0.412558
0.411334
0.410266
0.409271
0.408311
0.407367
0.406431
0.405501
0.404575
0.403654
0.40274
0.401832
0.400932
0.400041
0.39916
0.398288
0.397427
0.396578
0.39574
0.394914
0.3941
0.393299
0.392511
0.391737
0.390975
0.390228
0.389494
0.388774
0.388068
0.387377
0.386699
0.386036
0.385386
0.384751
0.384129
0.383522
0.382928
0.382347
0.38178
0.381226
0.380685
0.380156
0.379639
0.379135
0.378642
0.37816
0.37769
0.377229
0.376779
0.376338
0.375907
0.375484
0.375069
0.374662
0.374262
0.373869
0.373482
0.3731
0.372724
0.372351
0.371983
0.371618
0.371255
0.370895
0.370536
0.370178
0.444457
0.422118
0.41627
0.4141
0.412558
0.411334
0.410266
0.409271
0.408311
0.407367
0.406431
0.405501
0.404575
0.403654
0.40274
0.401832
0.400932
0.400041
0.39916
0.398288
0.397427
0.396578
0.39574
0.394914
0.3941
0.393299
0.392511
0.391737
0.390975
0.390228
0.389494
0.388774
0.388068
0.387377
0.386699
0.386036
0.385386
0.384751
0.384129
0.383522
0.382928
0.382347
0.38178
0.381226
0.380685
0.380156
0.379639
0.379135
0.378642
0.37816
0.37769
0.377229
0.376779
0.376338
0.375907
0.375484
0.375069
0.374662
0.374262
0.373869
0.373482
0.3731
0.372724
0.372351
0.371983
0.371618
0.371255
0.370895
0.370536
0.370178
0.444457
0.422118
0.41627
0.4141
0.412558
0.411334
0.410266
0.409271
0.408311
0.407367
0.406431
0.405501
0.404575
0.403654
0.40274
0.401832
0.400932
0.400041
0.399159
0.398288
0.397427
0.396578
0.39574
0.394914
0.3941
0.393299
0.392511
0.391736
0.390975
0.390228
0.389494
0.388774
0.388068
0.387377
0.386699
0.386036
0.385386
0.384751
0.384129
0.383522
0.382928
0.382347
0.38178
0.381226
0.380685
0.380156
0.379639
0.379135
0.378642
0.37816
0.37769
0.377229
0.376779
0.376338
0.375907
0.375484
0.375069
0.374662
0.374262
0.373869
0.373482
0.3731
0.372724
0.372351
0.371983
0.371618
0.371255
0.370895
0.370536
0.370178
0.444457
0.422118
0.41627
0.4141
0.412558
0.411334
0.410265
0.409271
0.408311
0.407367
0.406431
0.405501
0.404575
0.403654
0.40274
0.401832
0.400932
0.400041
0.399159
0.398288
0.397427
0.396578
0.39574
0.394914
0.3941
0.393299
0.392511
0.391736
0.390975
0.390228
0.389494
0.388774
0.388068
0.387377
0.386699
0.386036
0.385386
0.384751
0.384129
0.383522
0.382928
0.382347
0.38178
0.381226
0.380685
0.380156
0.379639
0.379135
0.378642
0.37816
0.37769
0.377229
0.376779
0.376338
0.375907
0.375484
0.375069
0.374662
0.374262
0.373869
0.373482
0.3731
0.372724
0.372351
0.371983
0.371618
0.371255
0.370895
0.370536
0.370178
0.444457
0.422118
0.41627
0.4141
0.412558
0.411334
0.410265
0.409271
0.408311
0.407367
0.406431
0.405501
0.404575
0.403654
0.40274
0.401832
0.400932
0.400041
0.399159
0.398288
0.397427
0.396578
0.39574
0.394914
0.3941
0.393299
0.392511
0.391736
0.390975
0.390228
0.389494
0.388774
0.388068
0.387377
0.386699
0.386036
0.385386
0.384751
0.384129
0.383522
0.382928
0.382347
0.38178
0.381226
0.380685
0.380156
0.379639
0.379135
0.378642
0.37816
0.37769
0.377229
0.376779
0.376338
0.375907
0.375484
0.375069
0.374662
0.374262
0.373869
0.373482
0.3731
0.372724
0.372351
0.371983
0.371618
0.371255
0.370895
0.370536
0.370178
0.444457
0.422118
0.41627
0.4141
0.412558
0.411334
0.410265
0.409271
0.408311
0.407367
0.406431
0.405501
0.404575
0.403654
0.40274
0.401832
0.400932
0.400041
0.399159
0.398288
0.397427
0.396578
0.39574
0.394914
0.3941
0.393299
0.392511
0.391736
0.390975
0.390228
0.389494
0.388774
0.388068
0.387377
0.386699
0.386036
0.385386
0.384751
0.384129
0.383522
0.382928
0.382347
0.38178
0.381226
0.380685
0.380156
0.379639
0.379135
0.378642
0.37816
0.37769
0.377229
0.376779
0.376338
0.375907
0.375484
0.375069
0.374662
0.374262
0.373869
0.373482
0.3731
0.372724
0.372351
0.371983
0.371618
0.371255
0.370895
0.370536
0.370178
0.444457
0.422118
0.41627
0.4141
0.412558
0.411334
0.410265
0.409271
0.408311
0.407367
0.406431
0.405501
0.404575
0.403654
0.40274
0.401832
0.400932
0.400041
0.399159
0.398288
0.397427
0.396578
0.39574
0.394914
0.3941
0.393299
0.392511
0.391736
0.390975
0.390228
0.389494
0.388774
0.388068
0.387377
0.386699
0.386036
0.385386
0.384751
0.384129
0.383522
0.382928
0.382347
0.38178
0.381226
0.380685
0.380156
0.379639
0.379135
0.378642
0.37816
0.37769
0.377229
0.376779
0.376338
0.375907
0.375484
0.375069
0.374662
0.374262
0.373869
0.373482
0.3731
0.372724
0.372351
0.371983
0.371618
0.371255
0.370895
0.370536
0.370178
0.444457
0.422118
0.41627
0.4141
0.412558
0.411334
0.410265
0.409271
0.408311
0.407367
0.406431
0.405501
0.404575
0.403654
0.40274
0.401832
0.400932
0.400041
0.399159
0.398288
0.397427
0.396578
0.39574
0.394914
0.3941
0.393299
0.392511
0.391736
0.390975
0.390228
0.389494
0.388774
0.388068
0.387377
0.386699
0.386036
0.385386
0.384751
0.384129
0.383522
0.382928
0.382347
0.38178
0.381226
0.380685
0.380156
0.379639
0.379135
0.378642
0.37816
0.37769
0.377229
0.376779
0.376338
0.375907
0.375484
0.375069
0.374662
0.374262
0.373869
0.373482
0.3731
0.372724
0.372351
0.371983
0.371618
0.371255
0.370895
0.370536
0.370178
0.444457
0.422118
0.41627
0.4141
0.412558
0.411334
0.410265
0.409271
0.408311
0.407367
0.406431
0.405501
0.404575
0.403654
0.40274
0.401832
0.400932
0.400041
0.399159
0.398288
0.397427
0.396578
0.39574
0.394914
0.3941
0.393299
0.392511
0.391736
0.390975
0.390228
0.389494
0.388774
0.388068
0.387377
0.386699
0.386036
0.385386
0.384751
0.384129
0.383522
0.382928
0.382347
0.38178
0.381226
0.380685
0.380156
0.379639
0.379135
0.378642
0.37816
0.37769
0.377229
0.376779
0.376338
0.375907
0.375484
0.375069
0.374662
0.374262
0.373869
0.373482
0.3731
0.372724
0.372351
0.371983
0.371618
0.371255
0.370895
0.370536
0.370178
0.444457
0.422118
0.41627
0.4141
0.412558
0.411334
0.410265
0.409271
0.408311
0.407367
0.406431
0.405501
0.404575
0.403654
0.40274
0.401832
0.400932
0.400041
0.399159
0.398288
0.397427
0.396578
0.39574
0.394914
0.3941
0.393299
0.392511
0.391736
0.390975
0.390228
0.389494
0.388774
0.388068
0.387377
0.386699
0.386036
0.385386
0.384751
0.384129
0.383522
0.382928
0.382347
0.38178
0.381226
0.380685
0.380156
0.379639
0.379135
0.378642
0.37816
0.37769
0.377229
0.376779
0.376338
0.375907
0.375484
0.375069
0.374662
0.374262
0.373869
0.373482
0.3731
0.372724
0.372351
0.371983
0.371618
0.371255
0.370895
0.370536
0.370178
0.444457
0.422118
0.41627
0.4141
0.412558
0.411334
0.410265
0.409271
0.408311
0.407367
0.406431
0.405501
0.404575
0.403654
0.40274
0.401832
0.400932
0.400041
0.399159
0.398288
0.397427
0.396578
0.39574
0.394914
0.3941
0.393299
0.392511
0.391736
0.390975
0.390228
0.389494
0.388774
0.388068
0.387377
0.386699
0.386036
0.385386
0.384751
0.384129
0.383522
0.382928
0.382347
0.38178
0.381226
0.380685
0.380156
0.379639
0.379135
0.378642
0.37816
0.37769
0.377229
0.376779
0.376338
0.375907
0.375484
0.375069
0.374662
0.374262
0.373869
0.373482
0.3731
0.372724
0.372351
0.371983
0.371618
0.371255
0.370895
0.370536
0.370178
0.444457
0.422118
0.41627
0.4141
0.412558
0.411334
0.410265
0.409271
0.408311
0.407367
0.406431
0.405501
0.404575
0.403654
0.40274
0.401832
0.400932
0.400041
0.399159
0.398288
0.397427
0.396578
0.39574
0.394914
0.3941
0.393299
0.392511
0.391736
0.390975
0.390228
0.389494
0.388774
0.388068
0.387377
0.386699
0.386036
0.385386
0.384751
0.384129
0.383522
0.382928
0.382347
0.38178
0.381226
0.380685
0.380156
0.379639
0.379135
0.378642
0.37816
0.37769
0.377229
0.376779
0.376338
0.375907
0.375484
0.375069
0.374662
0.374262
0.373869
0.373482
0.3731
0.372724
0.372351
0.371983
0.371618
0.371255
0.370895
0.370536
0.370178
0.444457
0.422118
0.41627
0.4141
0.412558
0.411334
0.410265
0.409271
0.408311
0.407367
0.406431
0.405501
0.404575
0.403654
0.40274
0.401832
0.400932
0.400041
0.399159
0.398288
0.397427
0.396578
0.39574
0.394914
0.3941
0.393299
0.392511
0.391736
0.390975
0.390228
0.389494
0.388774
0.388068
0.387377
0.386699
0.386036
0.385386
0.384751
0.384129
0.383522
0.382928
0.382347
0.38178
0.381226
0.380685
0.380156
0.379639
0.379135
0.378642
0.37816
0.37769
0.377229
0.376779
0.376338
0.375907
0.375484
0.375069
0.374662
0.374262
0.373869
0.373482
0.3731
0.372724
0.372351
0.371983
0.371618
0.371255
0.370895
0.370536
0.370178
0.444457
0.422118
0.41627
0.4141
0.412558
0.411334
0.410265
0.409271
0.408311
0.407367
0.406431
0.405501
0.404575
0.403654
0.40274
0.401832
0.400932
0.400041
0.399159
0.398288
0.397427
0.396578
0.39574
0.394914
0.3941
0.393299
0.392511
0.391736
0.390975
0.390228
0.389494
0.388774
0.388068
0.387377
0.386699
0.386036
0.385386
0.384751
0.384129
0.383522
0.382928
0.382347
0.38178
0.381226
0.380685
0.380156
0.379639
0.379135
0.378642
0.37816
0.37769
0.377229
0.376779
0.376338
0.375907
0.375484
0.375069
0.374662
0.374262
0.373869
0.373482
0.3731
0.372724
0.372351
0.371983
0.371618
0.371255
0.370895
0.370536
0.370178
0.444457
0.422118
0.41627
0.4141
0.412558
0.411334
0.410265
0.409271
0.408311
0.407367
0.406431
0.405501
0.404575
0.403654
0.40274
0.401832
0.400932
0.400041
0.399159
0.398288
0.397427
0.396578
0.39574
0.394914
0.3941
0.393299
0.392511
0.391736
0.390975
0.390228
0.389494
0.388774
0.388068
0.387377
0.386699
0.386036
0.385386
0.384751
0.384129
0.383522
0.382928
0.382347
0.38178
0.381226
0.380685
0.380156
0.379639
0.379135
0.378642
0.37816
0.37769
0.377229
0.376779
0.376338
0.375907
0.375484
0.375069
0.374662
0.374262
0.373869
0.373482
0.3731
0.372724
0.372351
0.371983
0.371618
0.371255
0.370895
0.370536
0.370178
0.444457
0.422118
0.41627
0.4141
0.412558
0.411334
0.410265
0.409271
0.408311
0.407367
0.406431
0.405501
0.404575
0.403654
0.40274
0.401832
0.400932
0.400041
0.399159
0.398288
0.397427
0.396578
0.39574
0.394914
0.3941
0.393299
0.392511
0.391736
0.390975
0.390228
0.389494
0.388774
0.388068
0.387377
0.386699
0.386036
0.385386
0.384751
0.384129
0.383522
0.382928
0.382347
0.38178
0.381226
0.380685
0.380156
0.379639
0.379135
0.378642
0.37816
0.37769
0.377229
0.376779
0.376338
0.375907
0.375484
0.375069
0.374662
0.374262
0.373869
0.373482
0.3731
0.372724
0.372351
0.371983
0.371618
0.371255
0.370895
0.370536
0.370178
0.444457
0.422118
0.41627
0.4141
0.412558
0.411334
0.410265
0.409271
0.408311
0.407367
0.406431
0.405501
0.404575
0.403654
0.40274
0.401832
0.400932
0.400041
0.399159
0.398288
0.397427
0.396578
0.39574
0.394914
0.3941
0.393299
0.392511
0.391736
0.390975
0.390228
0.389494
0.388774
0.388068
0.387377
0.386699
0.386036
0.385386
0.384751
0.384129
0.383522
0.382928
0.382347
0.38178
0.381226
0.380685
0.380156
0.379639
0.379135
0.378642
0.37816
0.37769
0.377229
0.376779
0.376338
0.375907
0.375484
0.375069
0.374662
0.374262
0.373869
0.373482
0.3731
0.372724
0.372351
0.371983
0.371618
0.371255
0.370895
0.370536
0.370178
0.444457
0.422118
0.41627
0.4141
0.412558
0.411334
0.410265
0.409271
0.408311
0.407367
0.406431
0.405501
0.404575
0.403654
0.40274
0.401832
0.400932
0.400041
0.399159
0.398288
0.397427
0.396578
0.39574
0.394914
0.3941
0.393299
0.392511
0.391736
0.390975
0.390228
0.389494
0.388774
0.388068
0.387377
0.386699
0.386036
0.385386
0.384751
0.384129
0.383522
0.382928
0.382347
0.38178
0.381226
0.380685
0.380156
0.379639
0.379135
0.378642
0.37816
0.37769
0.377229
0.376779
0.376338
0.375907
0.375484
0.375069
0.374662
0.374262
0.373869
0.373482
0.3731
0.372724
0.372351
0.371983
0.371618
0.371255
0.370895
0.370536
0.370178
0.444457
0.422118
0.41627
0.4141
0.412558
0.411334
0.410265
0.409271
0.408311
0.407367
0.406431
0.405501
0.404575
0.403654
0.40274
0.401832
0.400932
0.400041
0.399159
0.398288
0.397427
0.396578
0.39574
0.394914
0.3941
0.393299
0.392511
0.391736
0.390975
0.390228
0.389494
0.388774
0.388068
0.387377
0.386699
0.386036
0.385386
0.384751
0.384129
0.383522
0.382928
0.382347
0.38178
0.381226
0.380685
0.380156
0.379639
0.379135
0.378642
0.37816
0.37769
0.377229
0.376779
0.376338
0.375907
0.375484
0.375069
0.374662
0.374262
0.373869
0.373482
0.3731
0.372724
0.372351
0.371983
0.371618
0.371255
0.370895
0.370536
0.370178
0.444457
0.422118
0.41627
0.4141
0.412558
0.411334
0.410265
0.409271
0.408311
0.407367
0.406431
0.405501
0.404575
0.403654
0.40274
0.401832
0.400932
0.400041
0.399159
0.398288
0.397427
0.396578
0.39574
0.394914
0.3941
0.393299
0.392511
0.391736
0.390975
0.390228
0.389494
0.388774
0.388068
0.387377
0.386699
0.386036
0.385386
0.384751
0.384129
0.383522
0.382928
0.382347
0.38178
0.381226
0.380685
0.380156
0.379639
0.379135
0.378642
0.37816
0.37769
0.377229
0.376779
0.376338
0.375907
0.375484
0.375069
0.374662
0.374262
0.373869
0.373482
0.3731
0.372724
0.372351
0.371983
0.371618
0.371255
0.370895
0.370536
0.370178
0.444457
0.422118
0.41627
0.4141
0.412558
0.411334
0.410265
0.409271
0.408311
0.407367
0.406431
0.405501
0.404575
0.403654
0.40274
0.401832
0.400932
0.400041
0.399159
0.398288
0.397427
0.396578
0.39574
0.394914
0.3941
0.393299
0.392511
0.391736
0.390975
0.390228
0.389494
0.388774
0.388068
0.387377
0.386699
0.386036
0.385386
0.384751
0.384129
0.383522
0.382928
0.382347
0.38178
0.381226
0.380685
0.380156
0.379639
0.379135
0.378642
0.37816
0.37769
0.377229
0.376779
0.376338
0.375907
0.375484
0.375069
0.374662
0.374262
0.373869
0.373482
0.3731
0.372724
0.372351
0.371983
0.371618
0.371255
0.370895
0.370536
0.370178
0.444457
0.422118
0.41627
0.4141
0.412558
0.411334
0.410265
0.409271
0.408311
0.407367
0.406431
0.405501
0.404575
0.403654
0.40274
0.401832
0.400932
0.400041
0.399159
0.398288
0.397427
0.396578
0.39574
0.394914
0.3941
0.393299
0.392511
0.391736
0.390975
0.390228
0.389494
0.388774
0.388068
0.387377
0.386699
0.386036
0.385386
0.384751
0.384129
0.383522
0.382928
0.382347
0.38178
0.381226
0.380685
0.380156
0.379639
0.379135
0.378642
0.37816
0.37769
0.377229
0.376779
0.376338
0.375907
0.375484
0.375069
0.374662
0.374262
0.373869
0.373482
0.3731
0.372724
0.372351
0.371983
0.371618
0.371255
0.370895
0.370536
0.370178
0.444457
0.422118
0.41627
0.4141
0.412558
0.411334
0.410265
0.409271
0.408311
0.407367
0.406431
0.405501
0.404575
0.403654
0.40274
0.401832
0.400932
0.400041
0.399159
0.398288
0.397427
0.396578
0.39574
0.394914
0.3941
0.393299
0.392511
0.391736
0.390975
0.390228
0.389494
0.388774
0.388068
0.387377
0.386699
0.386036
0.385386
0.384751
0.384129
0.383522
0.382928
0.382347
0.38178
0.381226
0.380685
0.380156
0.379639
0.379135
0.378642
0.37816
0.37769
0.377229
0.376779
0.376338
0.375907
0.375484
0.375069
0.374662
0.374262
0.373869
0.373482
0.3731
0.372724
0.372351
0.371983
0.371618
0.371255
0.370895
0.370536
0.370178
0.444457
0.422118
0.41627
0.4141
0.412558
0.411334
0.410265
0.409271
0.408311
0.407367
0.406431
0.405501
0.404575
0.403654
0.40274
0.401832
0.400932
0.400041
0.399159
0.398288
0.397427
0.396578
0.39574
0.394914
0.3941
0.393299
0.392511
0.391736
0.390975
0.390228
0.389494
0.388774
0.388068
0.387377
0.386699
0.386036
0.385386
0.384751
0.384129
0.383522
0.382928
0.382347
0.38178
0.381226
0.380685
0.380156
0.379639
0.379135
0.378642
0.37816
0.37769
0.377229
0.376779
0.376338
0.375907
0.375484
0.375069
0.374662
0.374262
0.373869
0.373482
0.3731
0.372724
0.372351
0.371983
0.371618
0.371255
0.370895
0.370536
0.370178
0.444457
0.422118
0.41627
0.4141
0.412558
0.411334
0.410265
0.409271
0.408311
0.407367
0.406431
0.405501
0.404575
0.403654
0.40274
0.401832
0.400932
0.400041
0.399159
0.398288
0.397427
0.396578
0.39574
0.394914
0.3941
0.393299
0.392511
0.391736
0.390975
0.390228
0.389494
0.388774
0.388068
0.387377
0.386699
0.386036
0.385386
0.384751
0.384129
0.383522
0.382928
0.382347
0.38178
0.381226
0.380685
0.380156
0.379639
0.379135
0.378642
0.37816
0.37769
0.377229
0.376779
0.376338
0.375907
0.375484
0.375069
0.374662
0.374262
0.373869
0.373482
0.3731
0.372724
0.372351
0.371983
0.371618
0.371255
0.370895
0.370536
0.370178
0.444457
0.422118
0.41627
0.4141
0.412558
0.411334
0.410265
0.409271
0.408311
0.407367
0.406431
0.405501
0.404575
0.403654
0.40274
0.401832
0.400932
0.400041
0.399159
0.398288
0.397427
0.396578
0.39574
0.394914
0.3941
0.393299
0.392511