/*--------------------------------*- C++ -*----------------------------------*\
  =========                 |
  \\      /  F ield         | OpenFOAM: The Open Source CFD Toolbox
   \\    /   O peration     | Website:  https://openfoam.org
    \\  /    A nd           | Version:  13
     \\/     M anipulation  |
\*---------------------------------------------------------------------------*/
FoamFile
{
    format      ascii;
    class       volScalarField;
    location    "37";
    object      k;
}
// * * * * * * * * * * * * * * * * * * * * * * * * * * * * * * * * * * * * * //

dimensions      [0 2 -2 0 0 0 0];

internalField   nonuniform List<scalar> 
78750
(
2.22045e-16
2.22045e-16
2.22045e-16
3.57574e-16
5.12998e-16
6.81968e-16
8.62336e-16
1.05181e-15
1.24726e-15
1.44454e-15
1.63862e-15
1.82384e-15
1.99426e-15
2.14402e-15
2.26771e-15
2.36069e-15
2.41937e-15
2.44147e-15
2.42608e-15
2.3738e-15
2.28664e-15
2.16794e-15
2.02213e-15
1.85449e-15
1.67083e-15
1.47709e-15
1.27899e-15
1.0817e-15
8.89496e-16
7.0567e-16
5.32611e-16
3.72441e-16
2.28646e-16
2.22045e-16
2.22045e-16
2.22045e-16
9.35453e-16
4.60719e-15
8.40637e-15
1.24069e-14
1.66528e-14
2.11522e-14
2.58748e-14
3.07528e-14
3.56858e-14
4.05471e-14
4.5193e-14
4.94716e-14
5.32329e-14
5.63384e-14
5.86694e-14
6.01344e-14
6.0675e-14
6.02689e-14
5.89319e-14
5.67167e-14
5.37094e-14
5.00246e-14
4.57983e-14
4.11791e-14
3.63191e-14
3.13635e-14
2.64417e-14
2.16576e-14
1.70824e-14
1.27499e-14
8.65398e-15
4.75131e-15
9.65958e-16
2.22045e-16
2.22045e-16
2.55193e-15
1.27092e-14
2.33495e-14
3.47757e-14
4.71889e-14
6.06655e-14
7.51428e-14
9.04182e-14
1.0616e-13
1.2193e-13
1.37212e-13
1.51447e-13
1.64075e-13
1.74569e-13
1.82476e-13
1.87442e-13
1.89244e-13
1.87797e-13
1.83168e-13
1.75563e-13
1.6532e-13
1.52883e-13
1.3877e-13
1.23542e-13
1.07757e-13
9.19391e-14
7.65351e-14
6.18877e-14
4.8211e-14
3.55776e-14
2.39182e-14
1.30341e-14
2.61993e-15
2.22045e-16
2.22045e-16
4.82199e-15
2.40903e-14
4.43674e-14
6.62998e-14
9.03311e-14
1.16652e-13
1.4517e-13
1.75502e-13
2.06988e-13
2.38737e-13
2.6968e-13
2.98647e-13
3.24446e-13
3.45948e-13
3.62173e-13
3.72359e-13
3.76017e-13
3.7297e-13
3.63362e-13
3.47652e-13
3.26577e-13
3.01099e-13
2.72333e-13
2.4147e-13
2.09685e-13
1.78058e-13
1.47499e-13
1.18685e-13
9.20203e-14
6.7616e-14
4.52942e-14
2.46161e-14
4.93156e-15
2.22045e-16
2.54877e-16
7.35483e-15
3.67683e-14
6.77614e-14
1.01354e-13
1.38252e-13
1.78767e-13
2.2277e-13
2.69673e-13
3.1846e-13
3.67743e-13
4.15851e-13
4.60944e-13
5.01146e-13
5.34674e-13
5.59977e-13
5.75847e-13
5.81511e-13
5.76689e-13
5.61615e-13
5.37021e-13
5.04079e-13
4.64316e-13
4.19497e-13
3.71496e-13
3.22159e-13
2.73174e-13
2.25953e-13
1.8154e-13
1.4055e-13
1.03139e-13
6.90131e-14
3.74757e-14
7.50229e-15
2.60069e-16
3.40526e-16
9.82675e-15
4.91283e-14
9.05532e-14
1.35476e-13
1.84849e-13
2.39096e-13
2.98046e-13
3.60916e-13
4.26341e-13
4.92456e-13
5.57015e-13
6.17543e-13
6.71512e-13
7.16522e-13
7.50482e-13
7.71764e-13
7.79328e-13
7.72798e-13
7.52493e-13
7.19404e-13
6.75113e-13
6.21682e-13
5.6149e-13
4.97061e-13
4.30878e-13
3.65207e-13
3.01944e-13
2.42487e-13
1.87654e-13
1.3765e-13
9.20742e-14
4.99856e-14
1.00053e-14
3.46815e-16
4.17309e-16
1.20426e-14
6.02074e-14
1.10976e-13
1.66036e-13
2.26559e-13
2.93064e-13
3.65343e-13
4.42435e-13
5.22665e-13
6.03745e-13
6.82919e-13
7.57148e-13
8.23328e-13
8.78516e-13
9.20143e-13
9.46215e-13
9.55453e-13
9.474e-13
9.22451e-13
8.81822e-13
8.27461e-13
7.61897e-13
6.88054e-13
6.09029e-13
5.27869e-13
4.47356e-13
3.6981e-13
2.96946e-13
2.29766e-13
1.68518e-13
1.12708e-13
6.11817e-14
1.22455e-14
4.24453e-16
4.81753e-16
1.39028e-14
6.9508e-14
1.28118e-13
1.91682e-13
2.61551e-13
3.38329e-13
4.21771e-13
5.10769e-13
6.03389e-13
6.96988e-13
7.88381e-13
8.74062e-13
9.50446e-13
1.01413e-12
1.06216e-12
1.09223e-12
1.10286e-12
1.09353e-12
1.0647e-12
1.01776e-12
9.54979e-13
8.79271e-13
7.94013e-13
7.02782e-13
6.09096e-13
5.16163e-13
4.26665e-13
3.42578e-13
2.65059e-13
1.94392e-13
1.30007e-13
7.05683e-14
1.41235e-14
4.89527e-16
5.32661e-16
1.53725e-14
7.68577e-14
1.41663e-13
2.11945e-13
2.89198e-13
3.74086e-13
4.66343e-13
5.64739e-13
6.67137e-13
7.70614e-13
8.71648e-13
9.66363e-13
1.05079e-12
1.12119e-12
1.17426e-12
1.20748e-12
1.2192e-12
1.20886e-12
1.17695e-12
1.12504e-12
1.05561e-12
9.71897e-13
8.77631e-13
7.76768e-13
6.73198e-13
5.70466e-13
4.71537e-13
3.78594e-13
2.92915e-13
2.14814e-13
1.4366e-13
7.7977e-14
1.56054e-14
5.40866e-16
5.70547e-16
1.64667e-14
8.23306e-14
1.51749e-13
2.27033e-13
3.09782e-13
4.00709e-13
4.99526e-13
6.04918e-13
7.14593e-13
8.25421e-13
9.33629e-13
1.03506e-12
1.12548e-12
1.20086e-12
1.25769e-12
1.29324e-12
1.30578e-12
1.29468e-12
1.26048e-12
1.20486e-12
1.13048e-12
1.04081e-12
9.39842e-13
8.31811e-13
7.20885e-13
6.10862e-13
5.04915e-13
4.05384e-13
3.13635e-13
2.30004e-13
1.53815e-13
8.34871e-14
1.67073e-14
5.79024e-16
5.97118e-16
1.72344e-14
8.61715e-14
1.58828e-13
2.37622e-13
3.24228e-13
4.19393e-13
5.22814e-13
6.33115e-13
7.47897e-13
8.63882e-13
9.77125e-13
1.08328e-12
1.17789e-12
1.25677e-12
1.31623e-12
1.35342e-12
1.36652e-12
1.35488e-12
1.31908e-12
1.26086e-12
1.18301e-12
1.08915e-12
9.83476e-13
8.70416e-13
7.54329e-13
6.3919e-13
5.28321e-13
4.24168e-13
3.28162e-13
2.40653e-13
1.60934e-13
8.73495e-14
1.74795e-14
6.05751e-16
6.14692e-16
1.77424e-14
8.87139e-14
1.63514e-13
2.44632e-13
3.33791e-13
4.3176e-13
5.38229e-13
6.51779e-13
7.69942e-13
8.89341e-13
1.00592e-12
1.11519e-12
1.21258e-12
1.29377e-12
1.35497e-12
1.39325e-12
1.40672e-12
1.39473e-12
1.35786e-12
1.29791e-12
1.21776e-12
1.12113e-12
1.01234e-12
8.95954e-13
7.76451e-13
6.57928e-13
5.43801e-13
4.36591e-13
3.37769e-13
2.47695e-13
1.65641e-13
8.9903e-14
1.79898e-14
6.23406e-16
6.25665e-16
1.80598e-14
9.03029e-14
1.66443e-13
2.49013e-13
3.39768e-13
4.39491e-13
5.47865e-13
6.63446e-13
7.83721e-13
9.05255e-13
1.02391e-12
1.13513e-12
1.23427e-12
1.3169e-12
1.37919e-12
1.41814e-12
1.43185e-12
1.41963e-12
1.38209e-12
1.32107e-12
1.23948e-12
1.14112e-12
1.03038e-12
9.11909e-13
7.90271e-13
6.69632e-13
5.5347e-13
4.44349e-13
3.43767e-13
2.52091e-13
1.68579e-13
9.14972e-14
1.83082e-14
6.34417e-16
6.32144e-16
1.82473e-14
9.12422e-14
1.68174e-13
2.51602e-13
3.43301e-13
4.4406e-13
5.53561e-13
6.70343e-13
7.91867e-13
9.14662e-13
1.03455e-12
1.14692e-12
1.24709e-12
1.33057e-12
1.3935e-12
1.43285e-12
1.4467e-12
1.43435e-12
1.39642e-12
1.33475e-12
1.25231e-12
1.15293e-12
1.04104e-12
9.21335e-13
7.98435e-13
6.76545e-13
5.59181e-13
4.48931e-13
3.4731e-13
2.54688e-13
1.70315e-13
9.24384e-14
1.84962e-14
6.40911e-16
6.35768e-16
1.83523e-14
9.17681e-14
1.69143e-13
2.53052e-13
3.4528e-13
4.46619e-13
5.56751e-13
6.74205e-13
7.96429e-13
9.19931e-13
1.04051e-12
1.15353e-12
1.25427e-12
1.33823e-12
1.40152e-12
1.44109e-12
1.45501e-12
1.44259e-12
1.40444e-12
1.34241e-12
1.25949e-12
1.15954e-12
1.047e-12
9.26612e-13
8.03005e-13
6.80415e-13
5.62377e-13
4.51495e-13
3.49292e-13
2.5614e-13
1.71285e-13
9.29648e-14
1.86012e-14
6.44539e-16
6.37692e-16
1.84081e-14
9.20477e-14
1.69659e-13
2.53823e-13
3.46332e-13
4.4798e-13
5.58447e-13
6.76259e-13
7.98855e-13
9.22733e-13
1.04368e-12
1.15704e-12
1.25808e-12
1.3423e-12
1.40578e-12
1.44547e-12
1.45944e-12
1.44697e-12
1.4087e-12
1.34649e-12
1.26331e-12
1.16305e-12
1.05017e-12
9.29416e-13
8.05433e-13
6.82471e-13
5.64075e-13
4.52857e-13
3.50345e-13
2.56912e-13
1.71801e-13
9.32444e-14
1.8657e-14
6.46464e-16
6.38664e-16
1.84362e-14
9.2189e-14
1.69919e-13
2.54213e-13
3.46864e-13
4.48668e-13
5.59304e-13
6.77297e-13
8.00082e-13
9.2415e-13
1.04528e-12
1.15882e-12
1.26001e-12
1.34436e-12
1.40794e-12
1.44769e-12
1.46167e-12
1.44919e-12
1.41086e-12
1.34855e-12
1.26524e-12
1.16483e-12
1.05178e-12
9.30834e-13
8.06661e-13
6.8351e-13
5.64933e-13
4.53545e-13
3.50877e-13
2.57302e-13
1.72061e-13
9.33856e-14
1.86852e-14
6.47434e-16
6.39132e-16
1.84498e-14
9.22571e-14
1.70045e-13
2.54401e-13
3.4712e-13
4.48999e-13
5.59717e-13
6.77798e-13
8.00673e-13
9.24832e-13
1.04605e-12
1.15967e-12
1.26094e-12
1.34535e-12
1.40898e-12
1.44876e-12
1.46275e-12
1.45026e-12
1.4119e-12
1.34954e-12
1.26618e-12
1.16569e-12
1.05255e-12
9.31517e-13
8.07252e-13
6.84011e-13
5.65346e-13
4.53877e-13
3.51133e-13
2.57489e-13
1.72187e-13
9.34536e-14
1.86987e-14
6.47901e-16
6.39346e-16
1.84561e-14
9.22884e-14
1.70102e-13
2.54487e-13
3.47238e-13
4.49152e-13
5.59908e-13
6.78028e-13
8.00945e-13
9.25147e-13
1.04641e-12
1.16007e-12
1.26137e-12
1.34581e-12
1.40945e-12
1.44925e-12
1.46324e-12
1.45075e-12
1.41238e-12
1.35e-12
1.2666e-12
1.16608e-12
1.05291e-12
9.31831e-13
8.07524e-13
6.84241e-13
5.65536e-13
4.54029e-13
3.51251e-13
2.57576e-13
1.72244e-13
9.34848e-14
1.87049e-14
6.48115e-16
6.39441e-16
1.84588e-14
9.23022e-14
1.70128e-13
2.54525e-13
3.4729e-13
4.49219e-13
5.59991e-13
6.78129e-13
8.01064e-13
9.25285e-13
1.04656e-12
1.16024e-12
1.26156e-12
1.34601e-12
1.40966e-12
1.44946e-12
1.46346e-12
1.45097e-12
1.41259e-12
1.3502e-12
1.26679e-12
1.16625e-12
1.05306e-12
9.31969e-13
8.07643e-13
6.84342e-13
5.65619e-13
4.54096e-13
3.51303e-13
2.57614e-13
1.7227e-13
9.34986e-14
1.87077e-14
6.48209e-16
6.3948e-16
1.846e-14
9.2308e-14
1.70138e-13
2.54541e-13
3.47311e-13
4.49247e-13
5.60026e-13
6.78172e-13
8.01115e-13
9.25343e-13
1.04663e-12
1.16031e-12
1.26164e-12
1.3461e-12
1.40975e-12
1.44956e-12
1.46356e-12
1.45106e-12
1.41267e-12
1.35028e-12
1.26687e-12
1.16633e-12
1.05313e-12
9.32027e-13
8.07694e-13
6.84385e-13
5.65655e-13
4.54124e-13
3.51325e-13
2.5763e-13
1.7228e-13
9.35044e-14
1.87088e-14
6.48249e-16
6.39496e-16
1.84604e-14
9.23104e-14
1.70143e-13
2.54548e-13
3.4732e-13
4.49259e-13
5.60041e-13
6.78189e-13
8.01135e-13
9.25367e-13
1.04666e-12
1.16034e-12
1.26167e-12
1.34613e-12
1.40979e-12
1.44959e-12
1.46359e-12
1.45109e-12
1.41271e-12
1.35032e-12
1.2669e-12
1.16635e-12
1.05315e-12
9.32051e-13
8.07714e-13
6.84402e-13
5.65669e-13
4.54136e-13
3.51333e-13
2.57636e-13
1.72285e-13
9.35067e-14
1.87093e-14
6.48265e-16
6.39503e-16
1.84606e-14
9.23113e-14
1.70145e-13
2.5455e-13
3.47324e-13
4.49263e-13
5.60046e-13
6.78196e-13
8.01143e-13
9.25376e-13
1.04667e-12
1.16035e-12
1.26168e-12
1.34614e-12
1.4098e-12
1.44961e-12
1.46361e-12
1.45111e-12
1.41272e-12
1.35033e-12
1.26692e-12
1.16637e-12
1.05316e-12
9.3206e-13
8.07722e-13
6.84409e-13
5.65674e-13
4.5414e-13
3.51337e-13
2.57639e-13
1.72286e-13
9.35076e-14
1.87095e-14
6.48271e-16
6.39505e-16
1.84607e-14
9.23116e-14
1.70145e-13
2.54551e-13
3.47325e-13
4.49265e-13
5.60048e-13
6.78199e-13
8.01146e-13
9.25379e-13
1.04667e-12
1.16036e-12
1.26169e-12
1.34615e-12
1.40981e-12
1.44961e-12
1.46361e-12
1.45111e-12
1.41273e-12
1.35033e-12
1.26692e-12
1.16637e-12
1.05317e-12
9.32063e-13
8.07725e-13
6.84411e-13
5.65676e-13
4.54142e-13
3.51338e-13
2.57639e-13
1.72287e-13
9.35079e-14
1.87095e-14
6.48273e-16
6.39506e-16
1.84607e-14
9.23117e-14
1.70145e-13
2.54552e-13
3.47325e-13
4.49266e-13
5.60049e-13
6.782e-13
8.01147e-13
9.25381e-13
1.04667e-12
1.16036e-12
1.26169e-12
1.34615e-12
1.40981e-12
1.44961e-12
1.46361e-12
1.45112e-12
1.41273e-12
1.35034e-12
1.26692e-12
1.16637e-12
1.05317e-12
9.32064e-13
8.07726e-13
6.84412e-13
5.65677e-13
4.54142e-13
3.51339e-13
2.5764e-13
1.72287e-13
9.35081e-14
1.87096e-14
6.48274e-16
6.39506e-16
1.84607e-14
9.23118e-14
1.70145e-13
2.54552e-13
3.47326e-13
4.49266e-13
5.60049e-13
6.782e-13
8.01148e-13
9.25381e-13
1.04667e-12
1.16036e-12
1.26169e-12
1.34615e-12
1.40981e-12
1.44962e-12
1.46361e-12
1.45112e-12
1.41273e-12
1.35034e-12
1.26692e-12
1.16637e-12
1.05317e-12
9.32065e-13
8.07726e-13
6.84412e-13
5.65677e-13
4.54143e-13
3.51339e-13
2.5764e-13
1.72287e-13
9.35081e-14
1.87096e-14
6.48274e-16
6.39506e-16
1.84607e-14
9.23118e-14
1.70145e-13
2.54552e-13
3.47326e-13
4.49266e-13
5.60049e-13
6.782e-13
8.01148e-13
9.25381e-13
1.04667e-12
1.16036e-12
1.26169e-12
1.34615e-12
1.40981e-12
1.44962e-12
1.46362e-12
1.45112e-12
1.41273e-12
1.35034e-12
1.26692e-12
1.16637e-12
1.05317e-12
9.32065e-13
8.07726e-13
6.84412e-13
5.65678e-13
4.54143e-13
3.51339e-13
2.5764e-13
1.72287e-13
9.35081e-14
1.87096e-14
6.48275e-16
6.39506e-16
1.84607e-14
9.23118e-14
1.70145e-13
2.54552e-13
3.47326e-13
4.49266e-13
5.6005e-13
6.782e-13
8.01148e-13
9.25381e-13
1.04667e-12
1.16036e-12
1.26169e-12
1.34615e-12
1.40981e-12
1.44962e-12
1.46362e-12
1.45112e-12
1.41273e-12
1.35034e-12
1.26692e-12
1.16637e-12
1.05317e-12
9.32065e-13
8.07727e-13
6.84412e-13
5.65678e-13
4.54143e-13
3.51339e-13
2.5764e-13
1.72287e-13
9.35081e-14
1.87096e-14
6.48275e-16
6.39506e-16
1.84607e-14
9.23118e-14
1.70145e-13
2.54552e-13
3.47326e-13
4.49266e-13
5.6005e-13
6.782e-13
8.01148e-13
9.25381e-13
1.04667e-12
1.16036e-12
1.26169e-12
1.34615e-12
1.40981e-12
1.44962e-12
1.46362e-12
1.45112e-12
1.41273e-12
1.35034e-12
1.26692e-12
1.16637e-12
1.05317e-12
9.32065e-13
8.07727e-13
6.84412e-13
5.65678e-13
4.54143e-13
3.51339e-13
2.5764e-13
1.72287e-13
9.35081e-14
1.87096e-14
6.48275e-16
6.39506e-16
1.84607e-14
9.23118e-14
1.70145e-13
2.54552e-13
3.47326e-13
4.49266e-13
5.6005e-13
6.782e-13
8.01148e-13
9.25381e-13
1.04667e-12
1.16036e-12
1.26169e-12
1.34615e-12
1.40981e-12
1.44962e-12
1.46362e-12
1.45112e-12
1.41273e-12
1.35034e-12
1.26692e-12
1.16637e-12
1.05317e-12
9.32065e-13
8.07727e-13
6.84412e-13
5.65678e-13
4.54143e-13
3.51339e-13
2.5764e-13
1.72287e-13
9.35081e-14
1.87096e-14
6.48275e-16
6.39506e-16
1.84607e-14
9.23118e-14
1.70145e-13
2.54552e-13
3.47326e-13
4.49266e-13
5.6005e-13
6.782e-13
8.01148e-13
9.25381e-13
1.04667e-12
1.16036e-12
1.26169e-12
1.34615e-12
1.40981e-12
1.44962e-12
1.46362e-12
1.45112e-12
1.41273e-12
1.35034e-12
1.26692e-12
1.16637e-12
1.05317e-12
9.32065e-13
8.07727e-13
6.84412e-13
5.65678e-13
4.54143e-13
3.51339e-13
2.5764e-13
1.72287e-13
9.35081e-14
1.87096e-14
6.48275e-16
6.39506e-16
1.84607e-14
9.23118e-14
1.70145e-13
2.54552e-13
3.47326e-13
4.49266e-13
5.6005e-13
6.782e-13
8.01148e-13
9.25381e-13
1.04667e-12
1.16036e-12
1.26169e-12
1.34615e-12
1.40981e-12
1.44962e-12
1.46362e-12
1.45112e-12
1.41273e-12
1.35034e-12
1.26692e-12
1.16637e-12
1.05317e-12
9.32065e-13
8.07727e-13
6.84412e-13
5.65678e-13
4.54143e-13
3.51339e-13
2.5764e-13
1.72287e-13
9.35081e-14
1.87096e-14
6.48275e-16
6.39506e-16
1.84607e-14
9.23118e-14
1.70145e-13
2.54552e-13
3.47326e-13
4.49266e-13
5.6005e-13
6.782e-13
8.01148e-13
9.25381e-13
1.04667e-12
1.16036e-12
1.26169e-12
1.34615e-12
1.40981e-12
1.44962e-12
1.46362e-12
1.45112e-12
1.41273e-12
1.35034e-12
1.26692e-12
1.16637e-12
1.05317e-12
9.32065e-13
8.07727e-13
6.84412e-13
5.65678e-13
4.54143e-13
3.51339e-13
2.5764e-13
1.72287e-13
9.35081e-14
1.87096e-14
6.48275e-16
6.39506e-16
1.84607e-14
9.23118e-14
1.70145e-13
2.54552e-13
3.47326e-13
4.49266e-13
5.6005e-13
6.782e-13
8.01148e-13
9.25381e-13
1.04667e-12
1.16036e-12
1.26169e-12
1.34615e-12
1.40981e-12
1.44962e-12
1.46362e-12
1.45112e-12
1.41273e-12
1.35034e-12
1.26692e-12
1.16637e-12
1.05317e-12
9.32065e-13
8.07727e-13
6.84412e-13
5.65678e-13
4.54143e-13
3.51339e-13
2.5764e-13
1.72287e-13
9.35081e-14
1.87096e-14
6.48275e-16
6.39506e-16
1.84607e-14
9.23118e-14
1.70145e-13
2.54552e-13
3.47326e-13
4.49266e-13
5.6005e-13
6.782e-13
8.01148e-13
9.25381e-13
1.04667e-12
1.16036e-12
1.26169e-12
1.34615e-12
1.40981e-12
1.44962e-12
1.46362e-12
1.45112e-12
1.41273e-12
1.35034e-12
1.26692e-12
1.16637e-12
1.05317e-12
9.32065e-13
8.07727e-13
6.84412e-13
5.65678e-13
4.54143e-13
3.51339e-13
2.5764e-13
1.72287e-13
9.35081e-14
1.87096e-14
6.48275e-16
6.39506e-16
1.84607e-14
9.23118e-14
1.70145e-13
2.54552e-13
3.47326e-13
4.49266e-13
5.6005e-13
6.782e-13
8.01148e-13
9.25381e-13
1.04667e-12
1.16036e-12
1.26169e-12
1.34615e-12
1.40981e-12
1.44962e-12
1.46362e-12
1.45112e-12
1.41273e-12
1.35034e-12
1.26692e-12
1.16637e-12
1.05317e-12
9.32065e-13
8.07727e-13
6.84412e-13
5.65678e-13
4.54143e-13
3.51339e-13
2.5764e-13
1.72287e-13
9.35081e-14
1.87096e-14
6.48275e-16
6.39506e-16
1.84607e-14
9.23118e-14
1.70145e-13
2.54552e-13
3.47326e-13
4.49266e-13
5.6005e-13
6.782e-13
8.01148e-13
9.25381e-13
1.04667e-12
1.16036e-12
1.26169e-12
1.34615e-12
1.40981e-12
1.44962e-12
1.46362e-12
1.45112e-12
1.41273e-12
1.35034e-12
1.26692e-12
1.16637e-12
1.05317e-12
9.32065e-13
8.07727e-13
6.84412e-13
5.65678e-13
4.54143e-13
3.51339e-13
2.5764e-13
1.72287e-13
9.35081e-14
1.87096e-14
6.48275e-16
6.39506e-16
1.84607e-14
9.23118e-14
1.70145e-13
2.54552e-13
3.47326e-13
4.49266e-13
5.6005e-13
6.782e-13
8.01148e-13
9.25381e-13
1.04667e-12
1.16036e-12
1.26169e-12
1.34615e-12
1.40981e-12
1.44962e-12
1.46362e-12
1.45112e-12
1.41273e-12
1.35034e-12
1.26692e-12
1.16637e-12
1.05317e-12
9.32065e-13
8.07727e-13
6.84412e-13
5.65678e-13
4.54143e-13
3.51339e-13
2.5764e-13
1.72287e-13
9.35081e-14
1.87096e-14
6.48275e-16
6.39506e-16
1.84607e-14
9.23118e-14
1.70145e-13
2.54552e-13
3.47326e-13
4.49266e-13
5.6005e-13
6.782e-13
8.01148e-13
9.25381e-13
1.04667e-12
1.16036e-12
1.26169e-12
1.34615e-12
1.40981e-12
1.44962e-12
1.46362e-12
1.45112e-12
1.41273e-12
1.35034e-12
1.26692e-12
1.16637e-12
1.05317e-12
9.32065e-13
8.07727e-13
6.84412e-13
5.65678e-13
4.54143e-13
3.51339e-13
2.5764e-13
1.72287e-13
9.35081e-14
1.87096e-14
6.48275e-16
6.39506e-16
1.84607e-14
9.23118e-14
1.70145e-13
2.54552e-13
3.47326e-13
4.49266e-13
5.6005e-13
6.782e-13
8.01148e-13
9.25381e-13
1.04667e-12
1.16036e-12
1.26169e-12
1.34615e-12
1.40981e-12
1.44962e-12
1.46362e-12
1.45112e-12
1.41273e-12
1.35034e-12
1.26692e-12
1.16637e-12
1.05317e-12
9.32065e-13
8.07727e-13
6.84412e-13
5.65678e-13
4.54143e-13
3.51339e-13
2.5764e-13
1.72287e-13
9.35081e-14
1.87096e-14
6.48275e-16
6.39506e-16
1.84607e-14
9.23118e-14
1.70145e-13
2.54552e-13
3.47326e-13
4.49266e-13
5.6005e-13
6.782e-13
8.01148e-13
9.25381e-13
1.04667e-12
1.16036e-12
1.26169e-12
1.34615e-12
1.40981e-12
1.44962e-12
1.46362e-12
1.45112e-12
1.41273e-12
1.35034e-12
1.26692e-12
1.16637e-12
1.05317e-12
9.32065e-13
8.07727e-13
6.84412e-13
5.65678e-13
4.54143e-13
3.51339e-13
2.5764e-13
1.72287e-13
9.35081e-14
1.87096e-14
6.48275e-16
6.39506e-16
1.84607e-14
9.23118e-14
1.70145e-13
2.54552e-13
3.47326e-13
4.49266e-13
5.6005e-13
6.782e-13
8.01148e-13
9.25381e-13
1.04667e-12
1.16036e-12
1.26169e-12
1.34615e-12
1.40981e-12
1.44962e-12
1.46362e-12
1.45112e-12
1.41273e-12
1.35034e-12
1.26692e-12
1.16637e-12
1.05317e-12
9.32065e-13
8.07727e-13
6.84412e-13
5.65678e-13
4.54143e-13
3.51339e-13
2.5764e-13
1.72287e-13
9.35081e-14
1.87096e-14
6.48275e-16
6.39506e-16
1.84607e-14
9.23118e-14
1.70145e-13
2.54552e-13
3.47326e-13
4.49266e-13
5.6005e-13
6.782e-13
8.01148e-13
9.25381e-13
1.04667e-12
1.16036e-12
1.26169e-12
1.34615e-12
1.40981e-12
1.44962e-12
1.46362e-12
1.45112e-12
1.41273e-12
1.35034e-12
1.26692e-12
1.16637e-12
1.05317e-12
9.32065e-13
8.07727e-13
6.84412e-13
5.65678e-13
4.54143e-13
3.51339e-13
2.5764e-13
1.72287e-13
9.35081e-14
1.87096e-14
6.48275e-16
6.39506e-16
1.84607e-14
9.23118e-14
1.70145e-13
2.54552e-13
3.47326e-13
4.49266e-13
5.6005e-13
6.782e-13
8.01148e-13
9.25381e-13
1.04667e-12
1.16036e-12
1.26169e-12
1.34615e-12
1.40981e-12
1.44962e-12
1.46362e-12
1.45112e-12
1.41273e-12
1.35034e-12
1.26692e-12
1.16637e-12
1.05317e-12
9.32065e-13
8.07727e-13
6.84412e-13
5.65678e-13
4.54143e-13
3.51339e-13
2.5764e-13
1.72287e-13
9.35081e-14
1.87096e-14
6.48275e-16
6.39506e-16
1.84607e-14
9.23118e-14
1.70145e-13
2.54552e-13
3.47326e-13
4.49266e-13
5.6005e-13
6.782e-13
8.01148e-13
9.25381e-13
1.04667e-12
1.16036e-12
1.26169e-12
1.34615e-12
1.40981e-12
1.44962e-12
1.46362e-12
1.45112e-12
1.41273e-12
1.35034e-12
1.26692e-12
1.16637e-12
1.05317e-12
9.32065e-13
8.07727e-13
6.84412e-13
5.65678e-13
4.54143e-13
3.51339e-13
2.5764e-13
1.72287e-13
9.35081e-14
1.87096e-14
6.48275e-16
6.39506e-16
1.84607e-14
9.23118e-14
1.70145e-13
2.54552e-13
3.47326e-13
4.49266e-13
5.6005e-13
6.782e-13
8.01148e-13
9.25381e-13
1.04667e-12
1.16036e-12
1.26169e-12
1.34615e-12
1.40981e-12
1.44962e-12
1.46362e-12
1.45112e-12
1.41273e-12
1.35034e-12
1.26692e-12
1.16637e-12
1.05317e-12
9.32065e-13
8.07727e-13
6.84412e-13
5.65678e-13
4.54143e-13
3.51339e-13
2.5764e-13
1.72287e-13
9.35081e-14
1.87096e-14
6.48275e-16
6.39506e-16
1.84607e-14
9.23118e-14
1.70145e-13
2.54552e-13
3.47326e-13
4.49266e-13
5.6005e-13
6.782e-13
8.01148e-13
9.25381e-13
1.04667e-12
1.16036e-12
1.26169e-12
1.34615e-12
1.40981e-12
1.44962e-12
1.46362e-12
1.45112e-12
1.41273e-12
1.35034e-12
1.26692e-12
1.16637e-12
1.05317e-12
9.32065e-13
8.07727e-13
6.84412e-13
5.65678e-13
4.54143e-13
3.51339e-13
2.5764e-13
1.72287e-13
9.35081e-14
1.87096e-14
6.48275e-16
6.39506e-16
1.84607e-14
9.23118e-14
1.70145e-13
2.54552e-13
3.47326e-13
4.49266e-13
5.6005e-13
6.782e-13
8.01148e-13
9.25381e-13
1.04667e-12
1.16036e-12
1.26169e-12
1.34615e-12
1.40981e-12
1.44962e-12
1.46362e-12
1.45112e-12
1.41273e-12
1.35034e-12
1.26692e-12
1.16637e-12
1.05317e-12
9.32065e-13
8.07727e-13
6.84412e-13
5.65678e-13
4.54143e-13
3.51339e-13
2.5764e-13
1.72287e-13
9.35081e-14
1.87096e-14
6.48275e-16
6.39506e-16
1.84607e-14
9.23118e-14
1.70145e-13
2.54552e-13
3.47326e-13
4.49266e-13
5.6005e-13
6.782e-13
8.01148e-13
9.25381e-13
1.04667e-12
1.16036e-12
1.26169e-12
1.34615e-12
1.40981e-12
1.44962e-12
1.46362e-12
1.45112e-12
1.41273e-12
1.35034e-12
1.26692e-12
1.16637e-12
1.05317e-12
9.32065e-13
8.07727e-13
6.84412e-13
5.65678e-13
4.54143e-13
3.51339e-13
2.5764e-13
1.72287e-13
9.35081e-14
1.87096e-14
6.48275e-16
6.39506e-16
1.84607e-14
9.23118e-14
1.70145e-13
2.54552e-13
3.47326e-13
4.49266e-13
5.6005e-13
6.782e-13
8.01148e-13
9.25381e-13
1.04667e-12
1.16036e-12
1.26169e-12
1.34615e-12
1.40981e-12
1.44962e-12
1.46362e-12
1.45112e-12
1.41273e-12
1.35034e-12
1.26692e-12
1.16637e-12
1.05317e-12
9.32065e-13
8.07727e-13
6.84412e-13
5.65678e-13
4.54143e-13
3.51339e-13
2.5764e-13
1.72287e-13
9.35081e-14
1.87096e-14
6.48275e-16
6.39506e-16
1.84607e-14
9.23118e-14
1.70145e-13
2.54552e-13
3.47326e-13
4.49266e-13
5.6005e-13
6.782e-13
8.01148e-13
9.25381e-13
1.04667e-12
1.16036e-12
1.26169e-12
1.34615e-12
1.40981e-12
1.44962e-12
1.46362e-12
1.45112e-12
1.41273e-12
1.35034e-12
1.26692e-12
1.16637e-12
1.05317e-12
9.32065e-13
8.07727e-13
6.84412e-13
5.65678e-13
4.54143e-13
3.51339e-13
2.5764e-13
1.72287e-13
9.35081e-14
1.87096e-14
6.48275e-16
6.39506e-16
1.84607e-14
9.23118e-14
1.70145e-13
2.54552e-13
3.47326e-13
4.49266e-13
5.6005e-13
6.782e-13
8.01148e-13
9.25381e-13
1.04667e-12
1.16036e-12
1.26169e-12
1.34615e-12
1.40981e-12
1.44962e-12
1.46362e-12
1.45112e-12
1.41273e-12
1.35034e-12
1.26692e-12
1.16637e-12
1.05317e-12
9.32065e-13
8.07727e-13
6.84412e-13
5.65678e-13
4.54143e-13
3.51339e-13
2.5764e-13
1.72287e-13
9.35081e-14
1.87096e-14
6.48275e-16
6.39506e-16
1.84607e-14
9.23118e-14
1.70145e-13
2.54552e-13
3.47326e-13
4.49266e-13
5.6005e-13
6.782e-13
8.01148e-13
9.25381e-13
1.04667e-12
1.16036e-12
1.26169e-12
1.34615e-12
1.40981e-12
1.44962e-12
1.46362e-12
1.45112e-12
1.41273e-12
1.35034e-12
1.26692e-12
1.16637e-12
1.05317e-12
9.32065e-13
8.07727e-13
6.84412e-13
5.65678e-13
4.54143e-13
3.51339e-13
2.5764e-13
1.72287e-13
9.35081e-14
1.87096e-14
6.48275e-16
6.39506e-16
1.84607e-14
9.23118e-14
1.70145e-13
2.54552e-13
3.47326e-13
4.49266e-13
5.6005e-13
6.782e-13
8.01148e-13
9.25381e-13
1.04667e-12
1.16036e-12
1.26169e-12
1.34615e-12
1.40981e-12
1.44962e-12
1.46362e-12
1.45112e-12
1.41273e-12
1.35034e-12
1.26692e-12
1.16637e-12
1.05317e-12
9.32065e-13
8.07727e-13
6.84412e-13
5.65678e-13
4.54143e-13
3.51339e-13
2.5764e-13
1.72287e-13
9.35081e-14
1.87096e-14
6.48275e-16
6.39506e-16
1.84607e-14
9.23118e-14
1.70145e-13
2.54552e-13
3.47326e-13
4.49266e-13
5.6005e-13
6.782e-13
8.01148e-13
9.25381e-13
1.04667e-12
1.16036e-12
1.26169e-12
1.34615e-12
1.40981e-12
1.44962e-12
1.46362e-12
1.45112e-12
1.41273e-12
1.35034e-12
1.26692e-12
1.16637e-12
1.05317e-12
9.32065e-13
8.07727e-13
6.84412e-13
5.65678e-13
4.54143e-13
3.51339e-13
2.5764e-13
1.72287e-13
9.35081e-14
1.87096e-14
6.48275e-16
6.39506e-16
1.84607e-14
9.23118e-14
1.70145e-13
2.54552e-13
3.47326e-13
4.49266e-13
5.6005e-13
6.782e-13
8.01148e-13
9.25381e-13
1.04667e-12
1.16036e-12
1.26169e-12
1.34615e-12
1.40981e-12
1.44962e-12
1.46362e-12
1.45112e-12
1.41273e-12
1.35034e-12
1.26692e-12
1.16637e-12
1.05317e-12
9.32065e-13
8.07727e-13
6.84412e-13
5.65678e-13
4.54143e-13
3.51339e-13
2.5764e-13
1.72287e-13
9.35081e-14
1.87096e-14
6.48275e-16
6.39506e-16
1.84607e-14
9.23118e-14
1.70145e-13
2.54552e-13
3.47326e-13
4.49266e-13
5.6005e-13
6.782e-13
8.01148e-13
9.25381e-13
1.04667e-12
1.16036e-12
1.26169e-12
1.34615e-12
1.40981e-12
1.44962e-12
1.46362e-12
1.45112e-12
1.41273e-12
1.35034e-12
1.26692e-12
1.16637e-12
1.05317e-12
9.32065e-13
8.07727e-13
6.84412e-13
5.65678e-13
4.54143e-13
3.51339e-13
2.5764e-13
1.72287e-13
9.35081e-14
1.87096e-14
6.48275e-16
6.39506e-16
1.84607e-14
9.23118e-14
1.70145e-13
2.54552e-13
3.47326e-13
4.49266e-13
5.6005e-13
6.782e-13
8.01148e-13
9.25381e-13
1.04667e-12
1.16036e-12
1.26169e-12
1.34615e-12
1.40981e-12
1.44962e-12
1.46362e-12
1.45112e-12
1.41273e-12
1.35034e-12
1.26692e-12
1.16637e-12
1.05317e-12
9.32065e-13
8.07727e-13
6.84412e-13
5.65678e-13
4.54143e-13
3.51339e-13
2.5764e-13
1.72287e-13
9.35081e-14
1.87096e-14
6.48275e-16
6.39506e-16
1.84607e-14
9.23118e-14
1.70145e-13
2.54552e-13
3.47326e-13
4.49266e-13
5.6005e-13
6.782e-13
8.01148e-13
9.25381e-13
1.04667e-12
1.16036e-12
1.26169e-12
1.34615e-12
1.40981e-12
1.44962e-12
1.46362e-12
1.45112e-12
1.41273e-12
1.35034e-12
1.26692e-12
1.16637e-12
1.05317e-12
9.32065e-13
8.07727e-13
6.84412e-13
5.65678e-13
4.54143e-13
3.51339e-13
2.5764e-13
1.72287e-13
9.35081e-14
1.87096e-14
6.48275e-16
6.39506e-16
1.84607e-14
9.23118e-14
1.70145e-13
2.54552e-13
3.47326e-13
4.49266e-13
5.6005e-13
6.782e-13
8.01148e-13
9.25381e-13
1.04667e-12
1.16036e-12
1.26169e-12
1.34615e-12
1.40981e-12
1.44962e-12
1.46362e-12
1.45112e-12
1.41273e-12
1.35034e-12
1.26692e-12
1.16637e-12
1.05317e-12
9.32065e-13
8.07727e-13
6.84412e-13
5.65678e-13
4.54143e-13
3.51339e-13
2.5764e-13
1.72287e-13
9.35081e-14
1.87096e-14
6.48275e-16
6.39506e-16
1.84607e-14
9.23118e-14
1.70145e-13
2.54552e-13
3.47326e-13
4.49266e-13
5.6005e-13
6.782e-13
8.01148e-13
9.25381e-13
1.04667e-12
1.16036e-12
1.26169e-12
1.34615e-12
1.40981e-12
1.44962e-12
1.46362e-12
1.45112e-12
1.41273e-12
1.35034e-12
1.26692e-12
1.16637e-12
1.05317e-12
9.32065e-13
8.07727e-13
6.84412e-13
5.65678e-13
4.54143e-13
3.51339e-13
2.5764e-13
1.72287e-13
9.35081e-14
1.87096e-14
6.48275e-16
6.39506e-16
1.84607e-14
9.23118e-14
1.70145e-13
2.54552e-13
3.47326e-13
4.49266e-13
5.6005e-13
6.782e-13
8.01148e-13
9.25381e-13
1.04667e-12
1.16036e-12
1.26169e-12
1.34615e-12
1.40981e-12
1.44962e-12
1.46362e-12
1.45112e-12
1.41273e-12
1.35034e-12
1.26692e-12
1.16637e-12
1.05317e-12
9.32065e-13
8.07727e-13
6.84412e-13
5.65678e-13
4.54143e-13
3.51339e-13
2.5764e-13
1.72287e-13
9.35081e-14
1.87096e-14
6.48275e-16
6.39506e-16
1.84607e-14
9.23118e-14
1.70145e-13
2.54552e-13
3.47326e-13
4.49266e-13
5.6005e-13
6.782e-13
8.01148e-13
9.25381e-13
1.04667e-12
1.16036e-12
1.26169e-12
1.34615e-12
1.40981e-12
1.44962e-12
1.46362e-12
1.45112e-12
1.41273e-12
1.35034e-12
1.26692e-12
1.16637e-12
1.05317e-12
9.32065e-13
8.07727e-13
6.84412e-13
5.65678e-13
4.54143e-13
3.51339e-13
2.5764e-13
1.72287e-13
9.35081e-14
1.87096e-14
6.48275e-16
6.39506e-16
1.84607e-14
9.23118e-14
1.70145e-13
2.54552e-13
3.47326e-13
4.49266e-13
5.6005e-13
6.782e-13
8.01148e-13
9.25381e-13
1.04667e-12
1.16036e-12
1.26169e-12
1.34615e-12
1.40981e-12
1.44962e-12
1.46362e-12
1.45112e-12
1.41273e-12
1.35034e-12
1.26692e-12
1.16637e-12
1.05317e-12
9.32065e-13
8.07727e-13
6.84412e-13
5.65678e-13
4.54143e-13
3.51339e-13
2.5764e-13
1.72287e-13
9.35081e-14
1.87096e-14
6.48275e-16
6.39506e-16
1.84607e-14
9.23118e-14
1.70145e-13
2.54552e-13
3.47326e-13
4.49266e-13
5.6005e-13
6.782e-13
8.01148e-13
9.25381e-13
1.04667e-12
1.16036e-12
1.26169e-12
1.34615e-12
1.40981e-12
1.44962e-12
1.46362e-12
1.45112e-12
1.41273e-12
1.35034e-12
1.26692e-12
1.16637e-12
1.05317e-12
9.32065e-13
8.07727e-13
6.84412e-13
5.65678e-13
4.54143e-13
3.51339e-13
2.5764e-13
1.72287e-13
9.35081e-14
1.87096e-14
6.48275e-16
6.39506e-16
1.84607e-14
9.23118e-14
1.70145e-13
2.54552e-13
3.47326e-13
4.49266e-13
5.6005e-13
6.782e-13
8.01148e-13
9.25381e-13
1.04667e-12
1.16036e-12
1.26169e-12
1.34615e-12
1.40981e-12
1.44962e-12
1.46362e-12
1.45112e-12
1.41273e-12
1.35034e-12
1.26692e-12
1.16637e-12
1.05317e-12
9.32065e-13
8.07727e-13
6.84412e-13
5.65678e-13
4.54143e-13
3.51339e-13
2.5764e-13
1.72287e-13
9.35081e-14
1.87096e-14
6.48275e-16
6.39506e-16
1.84607e-14
9.23118e-14
1.70145e-13
2.54552e-13
3.47326e-13
4.49266e-13
5.6005e-13
6.782e-13
8.01148e-13
9.25381e-13
1.04667e-12
1.16036e-12
1.26169e-12
1.34615e-12
1.40981e-12
1.44962e-12
1.46362e-12
1.45112e-12
1.41273e-12
1.35034e-12
1.26692e-12
1.16637e-12
1.05317e-12
9.32065e-13
8.07727e-13
6.84412e-13
5.65678e-13
4.54143e-13
3.51339e-13
2.5764e-13
1.72287e-13
9.35081e-14
1.87096e-14
6.48275e-16
6.39506e-16
1.84607e-14
9.23118e-14
1.70145e-13
2.54552e-13
3.47326e-13
4.49266e-13
5.6005e-13
6.782e-13
8.01148e-13
9.25381e-13
1.04667e-12
1.16036e-12
1.26169e-12
1.34615e-12
1.40981e-12
1.44962e-12
1.46362e-12
1.45112e-12
1.41273e-12
1.35034e-12
1.26692e-12
1.16637e-12
1.05317e-12
9.32065e-13
8.07727e-13
6.84412e-13
5.65678e-13
4.54143e-13
3.51339e-13
2.5764e-13
1.72287e-13
9.35081e-14
1.87096e-14
6.48275e-16
6.39506e-16
1.84607e-14
9.23118e-14
1.70145e-13
2.54552e-13
3.47326e-13
4.49266e-13
5.6005e-13
6.782e-13
8.01148e-13
9.25381e-13
1.04667e-12
1.16036e-12
1.26169e-12
1.34615e-12
1.40981e-12
1.44962e-12
1.46362e-12
1.45112e-12
1.41273e-12
1.35034e-12
1.26692e-12
1.16637e-12
1.05317e-12
9.32065e-13
8.07727e-13
6.84412e-13
5.65678e-13
4.54143e-13
3.51339e-13
2.5764e-13
1.72287e-13
9.35081e-14
1.87096e-14
6.48275e-16
6.39506e-16
1.84607e-14
9.23118e-14
1.70145e-13
2.54552e-13
3.47326e-13
4.49266e-13
5.6005e-13
6.782e-13
8.01148e-13
9.25381e-13
1.04667e-12
1.16036e-12
1.26169e-12
1.34615e-12
1.40981e-12
1.44962e-12
1.46362e-12
1.45112e-12
1.41273e-12
1.35034e-12
1.26692e-12
1.16637e-12
1.05317e-12
9.32065e-13
8.07727e-13
6.84412e-13
5.65678e-13
4.54143e-13
3.51339e-13
2.5764e-13
1.72287e-13
9.35081e-14
1.87096e-14
6.48275e-16
6.39506e-16
1.84607e-14
9.23118e-14
1.70145e-13
2.54552e-13
3.47326e-13
4.49266e-13
5.6005e-13
6.782e-13
8.01148e-13
9.25381e-13
1.04667e-12
1.16036e-12
1.26169e-12
1.34615e-12