/*--------------------------------*- C++ -*----------------------------------*\
  =========                 |
  \\      /  F ield         | OpenFOAM: The Open Source CFD Toolbox
   \\    /   O peration     | Website:  https://openfoam.org
    \\  /    A nd           | Version:  13
     \\/     M anipulation  |
\*---------------------------------------------------------------------------*/
FoamFile
{
    format      ascii;
    class       volScalarField;
    location    "200";
    object      nut;
}
// * * * * * * * * * * * * * * * * * * * * * * * * * * * * * * * * * * * * * //

dimensions      [0 2 -1 0 0 0 0];

internalField   nonuniform List<scalar> 
315000
(
9.06239e-17
2.37432e-14
5.42036e-13
9.73495e-13
1.41288e-12
1.86148e-12
2.32082e-12
2.79224e-12
3.27677e-12
3.77501e-12
4.28707e-12
4.81257e-12
5.35064e-12
5.89991e-12
6.45855e-12
7.02429e-12
7.59448e-12
8.16608e-12
8.73577e-12
9.29995e-12
9.85485e-12
1.03965e-11
1.0921e-11
1.14242e-11
1.19022e-11
1.23511e-11
1.27672e-11
1.31468e-11
1.34869e-11
1.37843e-11
1.40365e-11
1.42413e-11
1.43967e-11
1.45014e-11
1.45545e-11
1.45555e-11
1.45043e-11
1.44014e-11
1.42478e-11
1.40448e-11
1.37942e-11
1.34984e-11
1.31598e-11
1.27815e-11
1.23666e-11
1.19188e-11
1.14417e-11
1.09392e-11
1.04153e-11
9.87405e-12
9.3194e-12
8.75531e-12
8.18555e-12
7.61373e-12
7.04318e-12
6.47693e-12
5.91766e-12
5.36764e-12
4.82872e-12
4.30226e-12
3.78916e-12
3.2898e-12
2.80405e-12
2.33133e-12
1.8706e-12
1.42045e-12
9.79324e-13
5.45771e-13
2.3937e-14
9.14307e-17
2.27098e-15
6.05021e-13
1.37875e-10
2.49592e-10
3.6292e-10
4.78463e-10
5.96739e-10
7.18162e-10
8.43031e-10
9.71516e-10
1.10366e-09
1.23937e-09
1.37842e-09
1.52046e-09
1.66502e-09
1.8115e-09
1.95921e-09
2.10736e-09
2.25508e-09
2.40143e-09
2.54542e-09
2.68602e-09
2.8222e-09
2.95289e-09
3.07706e-09
3.19368e-09
3.30179e-09
3.40046e-09
3.48883e-09
3.56614e-09
3.63169e-09
3.6849e-09
3.72529e-09
3.75249e-09
3.76626e-09
3.76648e-09
3.75313e-09
3.72634e-09
3.68635e-09
3.63353e-09
3.56836e-09
3.4914e-09
3.40335e-09
3.30498e-09
3.19714e-09
3.08074e-09
2.95678e-09
2.82624e-09
2.69019e-09
2.54967e-09
2.40573e-09
2.25939e-09
2.11165e-09
1.96344e-09
1.81564e-09
1.66903e-09
1.52432e-09
1.3821e-09
1.24284e-09
1.10691e-09
9.74513e-10
8.45757e-10
7.20598e-10
5.98864e-10
4.80254e-10
3.64352e-10
2.50634e-10
1.38487e-10
6.07876e-13
2.28199e-15
9.19523e-15
2.4533e-12
1.42568e-09
2.58421e-09
3.76165e-09
4.96548e-09
6.20221e-09
7.47718e-09
8.79442e-09
1.01565e-08
1.15643e-08
1.30174e-08
1.45134e-08
1.60485e-08
1.76176e-08
1.92139e-08
2.08294e-08
2.24551e-08
2.40809e-08
2.5696e-08
2.72888e-08
2.88475e-08
3.03599e-08
3.18138e-08
3.31971e-08
3.4498e-08
3.57052e-08
3.68081e-08
3.77966e-08
3.86618e-08
3.93959e-08
3.99919e-08
4.04444e-08
4.07491e-08
4.09031e-08
4.0905e-08
4.07549e-08
4.0454e-08
4.00052e-08
3.94127e-08
3.86821e-08
3.782e-08
3.68344e-08
3.57342e-08
3.45294e-08
3.32305e-08
3.1849e-08
3.03964e-08
2.88851e-08
2.73271e-08
2.57346e-08
2.41195e-08
2.24933e-08
2.08669e-08
1.92504e-08
1.76528e-08
1.60822e-08
1.45452e-08
1.30472e-08
1.1592e-08
1.01818e-08
8.81723e-09
7.49733e-09
6.21956e-09
4.9799e-09
3.77299e-09
2.5923e-09
1.43033e-09
2.46163e-12
9.22697e-15
1.76467e-14
4.7085e-12
2.73697e-09
4.96513e-09
7.23687e-09
9.56971e-09
1.19792e-08
1.44785e-08
1.7078e-08
1.97847e-08
2.26023e-08
2.55309e-08
2.8567e-08
3.17034e-08
3.49294e-08
3.82309e-08
4.15909e-08
4.49896e-08
4.84046e-08
5.18119e-08
5.51855e-08
5.84989e-08
6.17242e-08
6.4834e-08
6.78005e-08
7.05968e-08
7.3197e-08
7.55765e-08
7.77126e-08
7.95847e-08
8.11744e-08
8.24663e-08
8.34474e-08
8.41081e-08
8.44418e-08
8.44452e-08
8.41183e-08
8.34643e-08
8.24896e-08
8.1204e-08
7.96202e-08
7.77537e-08
7.56226e-08
7.32477e-08
7.06516e-08
6.78587e-08
6.48951e-08
6.17876e-08
5.85638e-08
5.52515e-08
5.18782e-08
4.84707e-08
4.50548e-08
4.16547e-08
3.82927e-08
3.49887e-08
3.17598e-08
2.86201e-08
2.55804e-08
2.26479e-08
1.98261e-08
1.71151e-08
1.45111e-08
1.2007e-08
9.59264e-09
7.25477e-09
4.97781e-09
2.7442e-09
4.72142e-12
1.76959e-14
2.77813e-14
7.41309e-12
4.30992e-09
7.82338e-09
1.14141e-08
1.51136e-08
1.89501e-08
2.29477e-08
2.71258e-08
3.14984e-08
3.60738e-08
4.0854e-08
4.58345e-08
5.10048e-08
5.63479e-08
6.18408e-08
6.74551e-08
7.31572e-08
7.89092e-08
8.46695e-08
9.03935e-08
9.60345e-08
1.01544e-07
1.06872e-07
1.1197e-07
1.16788e-07
1.21279e-07
1.25397e-07
1.29101e-07
1.32352e-07
1.35116e-07
1.37364e-07
1.39072e-07
1.40223e-07
1.40804e-07
1.40809e-07
1.40238e-07
1.39096e-07
1.37397e-07
1.35158e-07
1.32402e-07
1.29159e-07
1.25463e-07
1.21351e-07
1.16866e-07
1.12052e-07
1.06958e-07
1.01633e-07
9.61256e-08
9.04859e-08
8.47621e-08
7.90013e-08
7.32479e-08
6.75436e-08
6.19264e-08
5.64298e-08
5.10825e-08
4.59075e-08
4.09218e-08
3.61361e-08
3.15548e-08
2.7176e-08
2.29916e-08
1.89875e-08
1.51443e-08
1.1438e-08
7.84023e-09
4.3195e-09
7.4302e-12
2.78466e-14
3.91597e-14
1.04498e-11
6.07603e-09
1.10332e-08
1.61068e-08
2.13447e-08
2.67899e-08
3.24794e-08
3.84435e-08
4.47042e-08
5.12753e-08
5.81612e-08
6.5357e-08
7.28482e-08
8.06112e-08
8.86131e-08
9.68128e-08
1.05161e-07
1.13603e-07
1.22078e-07
1.30519e-07
1.38858e-07
1.47021e-07
1.54933e-07
1.62518e-07
1.69699e-07
1.76404e-07
1.82561e-07
1.88106e-07
1.92977e-07
1.97122e-07
2.00496e-07
2.03062e-07
2.0479e-07
2.05662e-07
2.05668e-07
2.04808e-07
2.03092e-07
2.00538e-07
1.97175e-07
1.9304e-07
1.88178e-07
1.82643e-07
1.76493e-07
1.69795e-07
1.6262e-07
1.5504e-07
1.47131e-07
1.38971e-07
1.30633e-07
1.22192e-07
1.13717e-07
1.05273e-07
9.69221e-08
8.87188e-08
8.07123e-08
7.2944e-08
6.54468e-08
5.82445e-08
5.13517e-08
4.47732e-08
3.85048e-08
3.25329e-08
2.68353e-08
2.13819e-08
1.61357e-08
1.10535e-08
6.08757e-09
1.04704e-11
3.92385e-14
5.10878e-14
1.36333e-11
7.92739e-09
1.43976e-08
2.10252e-08
2.7875e-08
3.50055e-08
4.24675e-08
5.0302e-08
5.85397e-08
6.71997e-08
7.62888e-08
8.58012e-08
9.57184e-08
1.06009e-07
1.1663e-07
1.27526e-07
1.38633e-07
1.49877e-07
1.61177e-07
1.72445e-07
1.83589e-07
1.9451e-07
2.05105e-07
2.15272e-07
2.24906e-07
2.33906e-07
2.42177e-07
2.49628e-07
2.56178e-07
2.61753e-07
2.66292e-07
2.69744e-07
2.72069e-07
2.73242e-07
2.73249e-07
2.7209e-07
2.69778e-07
2.6634e-07
2.61813e-07
2.5625e-07
2.49711e-07
2.4227e-07
2.34009e-07
2.25016e-07
2.15389e-07
2.05228e-07
1.94636e-07
1.83718e-07
1.72576e-07
1.61308e-07
1.50008e-07
1.38762e-07
1.27652e-07
1.16751e-07
1.06125e-07
9.58281e-08
8.59041e-08
7.63842e-08
6.7287e-08
5.86185e-08
5.0372e-08
4.25284e-08
3.50572e-08
2.79172e-08
2.10579e-08
1.44206e-08
7.94044e-09
1.36567e-11
5.11771e-14
6.28788e-14
1.67803e-11
9.75732e-09
1.77225e-08
2.58847e-08
3.43255e-08
4.31188e-08
5.2328e-08
6.2005e-08
7.21884e-08
8.29023e-08
9.41554e-08
1.05941e-07
1.18235e-07
1.30999e-07
1.44179e-07
1.57706e-07
1.715e-07
1.85469e-07
1.99512e-07
2.1352e-07
2.27378e-07
2.40963e-07
2.54147e-07
2.668e-07
2.78792e-07
2.89997e-07
3.00294e-07
3.09572e-07
3.17727e-07
3.24669e-07
3.3032e-07
3.34617e-07
3.37512e-07
3.38971e-07
3.38979e-07
3.37534e-07
3.34655e-07
3.30372e-07
3.24734e-07
3.17805e-07
3.09662e-07
3.00396e-07
2.90108e-07
2.78912e-07
2.66928e-07
2.54281e-07
2.41101e-07
2.27519e-07
2.13662e-07
1.99655e-07
1.85611e-07
1.7164e-07
1.57843e-07
1.44311e-07
1.31125e-07
1.18354e-07
1.06053e-07
9.42593e-08
8.29974e-08
7.22742e-08
6.20811e-08
5.23942e-08
4.31749e-08
3.43714e-08
2.59201e-08
1.77473e-08
9.7714e-09
1.68056e-11
6.29755e-14
7.39733e-14
1.97416e-11
1.1479e-08
2.08502e-08
3.04551e-08
4.0391e-08
5.07456e-08
6.15945e-08
7.29993e-08
8.50057e-08
9.76422e-08
1.10919e-07
1.24827e-07
1.39339e-07
1.54407e-07
1.69968e-07
1.8594e-07
2.02225e-07
2.18717e-07
2.35295e-07
2.51831e-07
2.6819e-07
2.84225e-07
2.99785e-07
3.14717e-07
3.28866e-07
3.42085e-07
3.54231e-07
3.65172e-07
3.74788e-07
3.82972e-07
3.89634e-07
3.94698e-07
3.98109e-07
3.99829e-07
3.99836e-07
3.98133e-07
3.94737e-07
3.89688e-07
3.8304e-07
3.7487e-07
3.65267e-07
3.54337e-07
3.42202e-07
3.28992e-07
3.1485e-07
2.99925e-07
2.84369e-07
2.68338e-07
2.51981e-07
2.35445e-07
2.18866e-07
2.02373e-07
1.86083e-07
1.70107e-07
1.5454e-07
1.39465e-07
1.24945e-07
1.11028e-07
9.77424e-08
8.5096e-08
7.30793e-08
6.1664e-08
5.08044e-08
4.0439e-08
3.04921e-08
2.08761e-08
1.14937e-08
1.9768e-11
7.40745e-14
8.39735e-14
2.2411e-11
1.30309e-08
2.36689e-08
3.45734e-08
4.58556e-08
5.76156e-08
6.99397e-08
8.28982e-08
9.65429e-08
1.10906e-07
1.25999e-07
1.4181e-07
1.58308e-07
1.75439e-07
1.93127e-07
2.1128e-07
2.29787e-07
2.48524e-07
2.67356e-07
2.86136e-07
3.0471e-07
3.22914e-07
3.40574e-07
3.57516e-07
3.73568e-07
3.88559e-07
4.0233e-07
4.14732e-07
4.2563e-07
4.34903e-07
4.4245e-07
4.48187e-07
4.52049e-07
4.53996e-07
4.54004e-07
4.52074e-07
4.48226e-07
4.42505e-07
4.34973e-07
4.25714e-07
4.14829e-07
4.02439e-07
3.88679e-07
3.73697e-07
3.57653e-07
3.40717e-07
3.23062e-07
3.04862e-07
2.8629e-07
2.6751e-07
2.48678e-07
2.29939e-07
2.11428e-07
1.9327e-07
1.75576e-07
1.58438e-07
1.41932e-07
1.26111e-07
1.11009e-07
9.66357e-08
8.29803e-08
7.0011e-08
5.76758e-08
4.59046e-08
3.46112e-08
2.36954e-08
1.30459e-08
2.24379e-11
8.40769e-14
9.26411e-14
2.47248e-11
1.43761e-08
2.6112e-08
3.81425e-08
5.05909e-08
6.35682e-08
7.71698e-08
9.14732e-08
1.06536e-07
1.22392e-07
1.39055e-07
1.56511e-07
1.74725e-07
1.93634e-07
2.13158e-07
2.3319e-07
2.53608e-07
2.74275e-07
2.95041e-07
3.15746e-07
3.36219e-07
3.56277e-07
3.75732e-07
3.94392e-07
4.12065e-07
4.28567e-07
4.43722e-07
4.57368e-07
4.69355e-07
4.79554e-07
4.87852e-07
4.94159e-07
4.98405e-07
5.00544e-07
5.00552e-07
4.98429e-07
4.94199e-07
4.87907e-07
4.79624e-07
4.6944e-07
4.57465e-07
4.43832e-07
4.28688e-07
4.12195e-07
3.9453e-07
3.75877e-07
3.56427e-07
3.36372e-07
3.15902e-07
2.95197e-07
2.7443e-07
2.53761e-07
2.33339e-07
2.13302e-07
1.93773e-07
1.74856e-07
1.56634e-07
1.39169e-07
1.22496e-07
1.06629e-07
9.15561e-08
7.72416e-08
6.36288e-08
5.06402e-08
3.81804e-08
2.61385e-08
1.43911e-08
2.47519e-11
9.27451e-14
9.98814e-14
2.66578e-11
1.54998e-08
2.81527e-08
4.11238e-08
5.45463e-08
6.85403e-08
8.32088e-08
9.86356e-08
1.14882e-07
1.31986e-07
1.49959e-07
1.68788e-07
1.88432e-07
2.08825e-07
2.29877e-07
2.51474e-07
2.73483e-07
2.95755e-07
3.18129e-07
3.40431e-07
3.62479e-07
3.84075e-07
4.05016e-07
4.25097e-07
4.44112e-07
4.61863e-07
4.78161e-07
4.92832e-07
5.05718e-07
5.1668e-07
5.25598e-07
5.32375e-07
5.36937e-07
5.39234e-07
5.39243e-07
5.36961e-07
5.32415e-07
5.25653e-07
5.1675e-07
5.05803e-07
4.9293e-07
4.7827e-07
4.61983e-07
4.44242e-07
4.25235e-07
4.05161e-07
3.84224e-07
3.62632e-07
3.40586e-07
3.18284e-07
2.9591e-07
2.73635e-07
2.51623e-07
2.30021e-07
2.08963e-07
1.88563e-07
1.68911e-07
1.50073e-07
1.3209e-07
1.14976e-07
9.87182e-08
8.32804e-08
6.86006e-08
5.45953e-08
4.11614e-08
2.8179e-08
1.55146e-08
2.66846e-11
9.99846e-14
1.05718e-13
2.82162e-11
1.64058e-08
2.97981e-08
4.35274e-08
5.77355e-08
7.25494e-08
8.80785e-08
1.04411e-07
1.21613e-07
1.39723e-07
1.58754e-07
1.7869e-07
1.99488e-07
2.21078e-07
2.43362e-07
2.6622e-07
2.8951e-07
3.13074e-07
3.36742e-07
3.6033e-07
3.83643e-07
4.06474e-07
4.2861e-07
4.49831e-07
4.69922e-07
4.88674e-07
5.05888e-07
5.21382e-07
5.34988e-07
5.46561e-07
5.55975e-07
5.63128e-07
5.67942e-07
5.70367e-07
5.70375e-07
5.67966e-07
5.63167e-07
5.5603e-07
5.46631e-07
5.35072e-07
5.21479e-07
5.05997e-07
4.88793e-07
4.70051e-07
4.49968e-07
4.28753e-07
4.06623e-07
3.83795e-07
3.60484e-07
3.36896e-07
3.13228e-07
2.89662e-07
2.66368e-07
2.43505e-07
2.21215e-07
1.99618e-07
1.78812e-07
1.58867e-07
1.39826e-07
1.21706e-07
1.04493e-07
8.81494e-08
7.2609e-08
5.77838e-08
4.35646e-08
2.9824e-08
1.64204e-08
2.82427e-11
1.0582e-13
1.10263e-13
2.94301e-11
1.71115e-08
3.10798e-08
4.53999e-08
6.022e-08
7.56731e-08
9.18733e-08
1.08913e-07
1.2686e-07
1.45755e-07
1.65611e-07
1.86411e-07
2.0811e-07
2.30634e-07
2.5388e-07
2.77722e-07
3.02012e-07
3.26584e-07
3.51261e-07
3.7585e-07
4.0015e-07
4.23944e-07
4.47009e-07
4.69118e-07
4.90047e-07
5.09578e-07
5.27505e-07
5.43638e-07
5.57804e-07
5.69852e-07
5.79651e-07
5.87096e-07
5.92108e-07
5.94631e-07
5.94639e-07
5.92131e-07
5.87136e-07
5.79706e-07
5.69921e-07
5.57887e-07
5.43734e-07
5.27612e-07
5.09696e-07
4.90174e-07
4.69254e-07
4.47151e-07
4.2409e-07
4.003e-07
3.76002e-07
3.51414e-07
3.26736e-07
3.02162e-07
2.77869e-07
2.54022e-07
2.3077e-07
2.08239e-07
1.86532e-07
1.65722e-07
1.45857e-07
1.26951e-07
1.08994e-07
9.19432e-08
7.57319e-08
6.02676e-08
4.54364e-08
3.11052e-08
1.71259e-08
2.94561e-11
1.10364e-13
1.13686e-13
3.03443e-11
1.76431e-08
3.20452e-08
4.68105e-08
6.2092e-08
7.8027e-08
9.47333e-08
1.12306e-07
1.30816e-07
1.50304e-07
1.70783e-07
1.92237e-07
2.14617e-07
2.37847e-07
2.6182e-07
2.86406e-07
3.11452e-07
3.36786e-07
3.62225e-07
3.87572e-07
4.12617e-07
4.37138e-07
4.60906e-07
4.83686e-07
5.05247e-07
5.25366e-07
5.43832e-07
5.60448e-07
5.75037e-07
5.87443e-07
5.97533e-07
6.05199e-07
6.10358e-07
6.12956e-07
6.12964e-07
6.10382e-07
6.05238e-07
5.97587e-07
5.87511e-07
5.75119e-07
5.60542e-07
5.43938e-07
5.25483e-07
5.05373e-07
4.8382e-07
4.61046e-07
4.37283e-07
4.12765e-07
3.87722e-07
3.62376e-07
3.36937e-07
3.116e-07
2.86551e-07
2.61961e-07
2.37981e-07
2.14745e-07
1.92356e-07
1.70894e-07
1.50405e-07
1.30906e-07
1.12386e-07
9.48023e-08
7.80849e-08
6.21389e-08
4.68464e-08
3.20702e-08
1.76572e-08
3.03699e-11
1.13785e-13
1.16181e-13
3.10107e-11
1.80306e-08
3.27491e-08
4.7839e-08
6.34571e-08
7.97439e-08
9.682e-08
1.14783e-07
1.33704e-07
1.53626e-07
1.74561e-07
1.96493e-07
2.19372e-07
2.43119e-07
2.67625e-07
2.92757e-07
3.18356e-07
3.44249e-07
3.70247e-07
3.96149e-07
4.2174e-07
4.46795e-07
4.71078e-07
4.9435e-07
5.16375e-07
5.36926e-07
5.55786e-07
5.72755e-07
5.87654e-07
6.00323e-07
6.10627e-07
6.18455e-07
6.23723e-07
6.26375e-07
6.26383e-07
6.23746e-07
6.18493e-07
6.1068e-07
6.00391e-07
5.87735e-07
5.72849e-07
5.55891e-07
5.37041e-07
5.165e-07
4.94482e-07
4.71217e-07
4.46939e-07
4.21888e-07
3.96298e-07
3.70397e-07
3.44398e-07
3.18503e-07
2.929e-07
2.67764e-07
2.43252e-07
2.19498e-07
1.96611e-07
1.74671e-07
1.53725e-07
1.33793e-07
1.14862e-07
9.68882e-08
7.98011e-08
6.35034e-08
4.78744e-08
3.27737e-08
1.80445e-08
3.1036e-11
1.16278e-13
1.17942e-13
3.14813e-11
1.83043e-08
3.32462e-08
4.85655e-08
6.44216e-08
8.09572e-08
9.8295e-08
1.16534e-07
1.35746e-07
1.55976e-07
1.77235e-07
1.99506e-07
2.2274e-07
2.46854e-07
2.71739e-07
2.97258e-07
3.23251e-07
3.49542e-07
3.75937e-07
4.02234e-07
4.28215e-07
4.53649e-07
4.78298e-07
5.0192e-07
5.24276e-07
5.45134e-07
5.64275e-07
5.81496e-07
5.96616e-07
6.09472e-07
6.19928e-07
6.27871e-07
6.33216e-07
6.35907e-07
6.35915e-07
6.33239e-07
6.27909e-07
6.19981e-07
6.09539e-07
5.96696e-07
5.81589e-07
5.64379e-07
5.45248e-07
5.244e-07
5.02052e-07
4.78436e-07
4.53792e-07
4.28361e-07
4.02382e-07
3.76086e-07
3.49689e-07
3.23397e-07
2.974e-07
2.71877e-07
2.46986e-07
2.22865e-07
1.99623e-07
1.77343e-07
1.56074e-07
1.35835e-07
1.16612e-07
9.83625e-08
8.10139e-08
6.44674e-08
4.86006e-08
3.32705e-08
1.8318e-08
3.15062e-11
1.18038e-13
1.19147e-13
3.18034e-11
1.84917e-08
3.35865e-08
4.90631e-08
6.50823e-08
8.17886e-08
9.93059e-08
1.17734e-07
1.37147e-07
1.57588e-07
1.7907e-07
2.01575e-07
2.25053e-07
2.4942e-07
2.74567e-07
3.00353e-07
3.26618e-07
3.53183e-07
3.79854e-07
4.06423e-07
4.32673e-07
4.58369e-07
4.83272e-07
5.07136e-07
5.2972e-07
5.5079e-07
5.70125e-07
5.87522e-07
6.02794e-07
6.1578e-07
6.2634e-07
6.34363e-07
6.39762e-07
6.4248e-07
6.42487e-07
6.39785e-07
6.34401e-07
6.26393e-07
6.15846e-07
6.02874e-07
5.87614e-07
5.70229e-07
5.50904e-07
5.29843e-07
5.07267e-07
4.83409e-07
4.58511e-07
4.32818e-07
4.0657e-07
3.80001e-07
3.5333e-07
3.26763e-07
3.00495e-07
2.74704e-07
2.49552e-07
2.25177e-07
2.01692e-07
1.79178e-07
1.57686e-07
1.37235e-07
1.17812e-07
9.93729e-08
8.18448e-08
6.51277e-08
4.90978e-08
3.36107e-08
1.85052e-08
3.18281e-11
1.19243e-13
1.19948e-13
3.20173e-11
1.86161e-08
3.38127e-08
4.93937e-08
6.55214e-08
8.23413e-08
9.99783e-08
1.18533e-07
1.3808e-07
1.58662e-07
1.80293e-07
2.02954e-07
2.26595e-07
2.51132e-07
2.76454e-07
3.02419e-07
3.28867e-07
3.55616e-07
3.8247e-07
4.09223e-07
4.35653e-07
4.61526e-07
4.86599e-07
5.10626e-07
5.33363e-07
5.54576e-07
5.74042e-07
5.91555e-07
6.0693e-07
6.20003e-07
6.30635e-07
6.38711e-07
6.44146e-07
6.46882e-07
6.46889e-07
6.44169e-07
6.38749e-07
6.30687e-07
6.2007e-07
6.0701e-07
5.91647e-07
5.74145e-07
5.54689e-07
5.33486e-07
5.10756e-07
4.86735e-07
4.61667e-07
4.35797e-07
4.0937e-07
3.82617e-07
3.55762e-07
3.29011e-07
3.0256e-07
2.7659e-07
2.51263e-07
2.26719e-07
2.0307e-07
1.804e-07
1.5876e-07
1.38167e-07
1.18611e-07
1.00045e-07
8.23973e-08
6.55666e-08
4.94282e-08
3.38367e-08
1.86296e-08
3.20419e-11
1.20043e-13
1.20464e-13
3.21554e-11
1.86964e-08
3.39586e-08
4.96071e-08
6.58049e-08
8.26983e-08
1.00413e-07
1.19049e-07
1.38682e-07
1.59356e-07
1.81084e-07
2.03847e-07
2.27594e-07
2.52241e-07
2.77677e-07
3.03759e-07
3.30326e-07
3.57194e-07
3.84169e-07
4.11042e-07
4.37589e-07
4.63577e-07
4.88761e-07
5.12894e-07
5.35732e-07
5.57038e-07
5.7659e-07
5.9418e-07
6.09622e-07
6.22752e-07
6.33429e-07
6.41541e-07
6.46999e-07
6.49747e-07
6.49755e-07
6.47022e-07
6.41578e-07
6.33482e-07
6.22818e-07
6.09702e-07
5.94272e-07
5.76693e-07
5.57152e-07
5.35854e-07
5.13024e-07
4.88897e-07
4.63718e-07
4.37733e-07
4.11188e-07
3.84316e-07
3.5734e-07
3.30469e-07
3.039e-07
2.77813e-07
2.52372e-07
2.27717e-07
2.03963e-07
1.81191e-07
1.59454e-07
1.3877e-07
1.19127e-07
1.00479e-07
8.2754e-08
6.58499e-08
4.96415e-08
3.39825e-08
1.87099e-08
3.21798e-11
1.20559e-13
1.20788e-13
3.22419e-11
1.87468e-08
3.40502e-08
4.9741e-08
6.59828e-08
8.29224e-08
1.00685e-07
1.19374e-07
1.39061e-07
1.59793e-07
1.81582e-07
2.04409e-07
2.28223e-07
2.5294e-07
2.78447e-07
3.04604e-07
3.31246e-07
3.5819e-07
3.85242e-07
4.1219e-07
4.38812e-07
4.64873e-07
4.90128e-07
5.14329e-07
5.3723e-07
5.58596e-07
5.78202e-07
5.95841e-07
6.11326e-07
6.24492e-07
6.35199e-07
6.43332e-07
6.48806e-07
6.51561e-07
6.51569e-07
6.48829e-07
6.4337e-07
6.35251e-07
6.24558e-07
6.11405e-07
5.95932e-07
5.78304e-07
5.58709e-07
5.37352e-07
5.14458e-07
4.90264e-07
4.65014e-07
4.38956e-07
4.12336e-07
3.85388e-07
3.58336e-07
3.31389e-07
3.04744e-07
2.78583e-07
2.5307e-07
2.28346e-07
2.04524e-07
1.81688e-07
1.5989e-07
1.39149e-07
1.19451e-07
1.00752e-07
8.29779e-08
6.60277e-08
4.97753e-08
3.4074e-08
1.87602e-08
3.22663e-11
1.20882e-13
1.20985e-13
3.22947e-11
1.87775e-08
3.4106e-08
4.98227e-08
6.60914e-08
8.30591e-08
1.00852e-07
1.19572e-07
1.39293e-07
1.6006e-07
1.81886e-07
2.04753e-07
2.28608e-07
2.53368e-07
2.7892e-07
3.05122e-07
3.3181e-07
3.58802e-07
3.859e-07
4.12895e-07
4.39564e-07
4.6567e-07
4.90969e-07
5.15211e-07
5.38152e-07
5.59555e-07
5.79194e-07
5.96863e-07
6.12375e-07
6.25563e-07
6.36288e-07
6.44436e-07
6.49919e-07
6.52679e-07
6.52686e-07
6.49941e-07
6.44473e-07
6.3634e-07
6.25629e-07
6.12454e-07
5.96955e-07
5.79297e-07
5.59667e-07
5.38274e-07
5.15341e-07
4.91104e-07
4.6581e-07
4.39708e-07
4.13041e-07
3.86046e-07
3.58947e-07
3.31954e-07
3.05262e-07
2.79056e-07
2.53498e-07
2.28731e-07
2.04868e-07
1.81993e-07
1.60157e-07
1.3938e-07
1.19649e-07
1.00918e-07
8.31146e-08
6.61362e-08
4.98569e-08
3.41298e-08
1.87909e-08
3.2319e-11
1.21079e-13
1.21102e-13
3.2326e-11
1.87957e-08
3.41391e-08
4.98712e-08
6.61559e-08
8.31404e-08
1.00951e-07
1.1969e-07
1.39431e-07
1.60219e-07
1.82068e-07
2.04958e-07
2.28838e-07
2.53624e-07
2.79202e-07
3.05432e-07
3.32148e-07
3.59167e-07
3.86294e-07
4.13317e-07
4.40014e-07
4.66147e-07
4.91472e-07
5.1574e-07
5.38705e-07
5.60129e-07
5.79789e-07
5.97476e-07
6.13004e-07
6.26206e-07
6.36942e-07
6.45098e-07
6.50586e-07
6.53349e-07
6.53357e-07
6.50609e-07
6.45135e-07
6.36994e-07
6.26272e-07
6.13083e-07
5.97567e-07
5.79891e-07
5.60242e-07
5.38826e-07
5.15869e-07
4.91607e-07
4.66287e-07
4.40157e-07
4.13463e-07
3.8644e-07
3.59313e-07
3.32291e-07
3.05572e-07
2.79338e-07
2.53754e-07
2.28961e-07
2.05073e-07
1.82174e-07
1.60316e-07
1.39518e-07
1.19766e-07
1.01017e-07
8.31959e-08
6.62007e-08
4.99054e-08
3.41629e-08
1.88091e-08
3.23503e-11
1.21196e-13
1.2117e-13
3.23441e-11
1.88063e-08
3.41583e-08
4.98992e-08
6.61932e-08
8.31875e-08
1.01008e-07
1.19758e-07
1.39511e-07
1.60311e-07
1.82173e-07
2.05077e-07
2.28971e-07
2.53772e-07
2.79366e-07
3.05612e-07
3.32344e-07
3.5938e-07
3.86523e-07
4.13563e-07
4.40276e-07
4.66425e-07
4.91766e-07
5.16048e-07
5.39027e-07
5.60464e-07
5.80136e-07
5.97834e-07
6.13371e-07
6.26581e-07
6.37324e-07
6.45484e-07
6.50976e-07
6.53741e-07
6.53748e-07
6.50999e-07
6.45522e-07
6.37376e-07
6.26647e-07
6.1345e-07
5.97926e-07
5.80239e-07
5.60577e-07
5.39149e-07
5.16177e-07
4.91901e-07
4.66565e-07
4.40419e-07
4.13709e-07
3.86669e-07
3.59526e-07
3.32487e-07
3.05752e-07
2.79502e-07
2.53902e-07
2.29094e-07
2.05192e-07
1.82279e-07
1.60408e-07
1.39598e-07
1.19835e-07
1.01075e-07
8.32429e-08
6.6238e-08
4.99334e-08
3.4182e-08
1.88196e-08
3.23684e-11
1.21264e-13
1.21208e-13
3.23543e-11
1.88122e-08
3.41691e-08
4.9915e-08
6.62142e-08
8.3214e-08
1.01041e-07
1.19797e-07
1.39556e-07
1.60363e-07
1.82232e-07
2.05144e-07
2.29047e-07
2.53856e-07
2.79459e-07
3.05714e-07
3.32455e-07
3.59501e-07
3.86654e-07
4.13703e-07
4.40425e-07
4.66583e-07
4.91933e-07
5.16224e-07
5.3921e-07
5.60655e-07
5.80334e-07
5.98038e-07
6.1358e-07
6.26795e-07
6.37541e-07
6.45705e-07
6.51199e-07
6.53964e-07
6.53972e-07
6.51221e-07
6.45742e-07
6.37593e-07
6.26861e-07
6.13659e-07
5.98129e-07
5.80436e-07
5.60768e-07
5.39332e-07
5.16353e-07
4.92068e-07
4.66724e-07
4.40568e-07
4.13848e-07
3.868e-07
3.59646e-07
3.32598e-07
3.05854e-07
2.79595e-07
2.53986e-07
2.29169e-07
2.05259e-07
1.82339e-07
1.6046e-07
1.39643e-07
1.19873e-07
1.01107e-07
8.32694e-08
6.6259e-08
4.99492e-08
3.41928e-08
1.88256e-08
3.23786e-11
1.21302e-13
1.21228e-13
3.23599e-11
1.88155e-08
3.4175e-08
4.99237e-08
6.62258e-08
8.32286e-08
1.01059e-07
1.19818e-07
1.39581e-07
1.60392e-07
1.82265e-07
2.05181e-07
2.29088e-07
2.53903e-07
2.7951e-07
3.0577e-07
3.32517e-07
3.59568e-07
3.86726e-07
4.1378e-07
4.40508e-07
4.66671e-07
4.92025e-07
5.16321e-07
5.39312e-07
5.60761e-07
5.80444e-07
5.98151e-07
6.13697e-07
6.26914e-07
6.37662e-07
6.45827e-07
6.51322e-07
6.54088e-07
6.54096e-07
6.51345e-07
6.45865e-07
6.37714e-07
6.2698e-07
6.13776e-07
5.98243e-07
5.80546e-07
5.60874e-07
5.39434e-07
5.1645e-07
4.92161e-07
4.66811e-07
4.40651e-07
4.13926e-07
3.86872e-07
3.59713e-07
3.3266e-07
3.0591e-07
2.79646e-07
2.54032e-07
2.29211e-07
2.05296e-07
1.82372e-07
1.60489e-07
1.39668e-07
1.19894e-07
1.01125e-07
8.3284e-08
6.62705e-08
4.99579e-08
3.41988e-08
1.88288e-08
3.23842e-11
1.21323e-13
1.2124e-13
3.23629e-11
1.88172e-08
3.41782e-08
4.99284e-08
6.6232e-08
8.32364e-08
1.01068e-07
1.19829e-07
1.39594e-07
1.60407e-07
1.82283e-07
2.05201e-07
2.29111e-07
2.53928e-07
2.79538e-07
3.058e-07
3.3255e-07
3.59604e-07
3.86765e-07
4.13822e-07
4.40552e-07
4.66719e-07
4.92075e-07
5.16374e-07
5.39367e-07
5.60819e-07
5.80503e-07
5.98213e-07
6.1376e-07
6.26978e-07
6.37728e-07
6.45894e-07
6.51389e-07
6.54155e-07
6.54163e-07
6.51412e-07
6.45931e-07
6.3778e-07
6.27044e-07
6.13839e-07
5.98304e-07
5.80606e-07
5.60931e-07
5.39489e-07
5.16503e-07
4.92211e-07
4.66859e-07
4.40696e-07
4.13968e-07
3.86911e-07
3.59749e-07
3.32693e-07
3.0594e-07
2.79674e-07
2.54057e-07
2.29234e-07
2.05316e-07
1.82389e-07
1.60505e-07
1.39681e-07
1.19906e-07
1.01134e-07
8.32918e-08
6.62767e-08
4.99626e-08
3.4202e-08
1.88306e-08
3.23872e-11
1.21334e-13
1.21246e-13
3.23644e-11
1.88181e-08
3.41799e-08
4.99308e-08
6.62352e-08
8.32405e-08
1.01073e-07
1.19835e-07
1.39601e-07
1.60416e-07
1.82292e-07
2.05212e-07
2.29123e-07
2.53941e-07
2.79553e-07
3.05817e-07
3.32568e-07
3.59623e-07
3.86785e-07
4.13844e-07
4.40576e-07
4.66744e-07
4.92102e-07
5.16402e-07
5.39397e-07
5.60849e-07
5.80535e-07
5.98245e-07
6.13793e-07
6.27012e-07
6.37762e-07
6.45929e-07
6.51425e-07
6.54191e-07
6.54199e-07
6.51447e-07
6.45966e-07
6.37814e-07
6.27078e-07
6.13872e-07
5.98337e-07
5.80637e-07
5.60962e-07
5.39518e-07
5.16531e-07
4.92237e-07
4.66884e-07
4.40719e-07
4.1399e-07
3.86931e-07
3.59768e-07
3.32711e-07
3.05956e-07
2.79688e-07
2.54071e-07
2.29245e-07
2.05327e-07
1.82399e-07
1.60513e-07
1.39688e-07
1.19912e-07
1.01139e-07
8.32959e-08
6.628e-08
4.9965e-08
3.42036e-08
1.88315e-08
3.23888e-11
1.2134e-13
1.21249e-13
3.23652e-11
1.88186e-08
3.41807e-08
4.99321e-08
6.62369e-08
8.32426e-08
1.01076e-07
1.19838e-07
1.39605e-07
1.6042e-07
1.82297e-07
2.05217e-07
2.29129e-07
2.53948e-07
2.7956e-07
3.05825e-07
3.32577e-07
3.59633e-07
3.86796e-07
4.13856e-07
4.40588e-07
4.66757e-07
4.92116e-07
5.16416e-07
5.39412e-07
5.60865e-07
5.80551e-07
5.98262e-07
6.1381e-07
6.2703e-07
6.3778e-07
6.45947e-07
6.51443e-07
6.54209e-07
6.54217e-07
6.51466e-07
6.45985e-07
6.37832e-07
6.27096e-07
6.13889e-07
5.98353e-07
5.80653e-07
5.60977e-07
5.39533e-07
5.16545e-07
4.92251e-07
4.66897e-07
4.40731e-07
4.14001e-07
3.86942e-07
3.59778e-07
3.3272e-07
3.05965e-07
2.79696e-07
2.54077e-07
2.29252e-07
2.05332e-07
1.82403e-07
1.60517e-07
1.39692e-07
1.19915e-07
1.01142e-07
8.3298e-08
6.62817e-08
4.99662e-08
3.42045e-08
1.8832e-08
3.23896e-11
1.21343e-13
1.2125e-13
3.23656e-11
1.88188e-08
3.41812e-08
4.99327e-08
6.62377e-08
8.32437e-08
1.01077e-07
1.1984e-07
1.39606e-07
1.60422e-07
1.82299e-07
2.0522e-07
2.29132e-07
2.53951e-07
2.79564e-07
3.05829e-07
3.32581e-07
3.59638e-07
3.86801e-07
4.13861e-07
4.40594e-07
4.66763e-07
4.92122e-07
5.16423e-07
5.39419e-07
5.60873e-07
5.80559e-07
5.9827e-07
6.13819e-07
6.27039e-07
6.37789e-07
6.45956e-07
6.51452e-07
6.54219e-07
6.54226e-07
6.51475e-07
6.45994e-07
6.37841e-07
6.27105e-07
6.13898e-07
5.98362e-07
5.80662e-07
5.60985e-07
5.39541e-07
5.16552e-07
4.92258e-07
4.66903e-07
4.40738e-07
4.14007e-07
3.86947e-07
3.59783e-07
3.32724e-07
3.05969e-07
2.79699e-07
2.54081e-07
2.29255e-07
2.05335e-07
1.82406e-07
1.60519e-07
1.39693e-07
1.19916e-07
1.01143e-07
8.32991e-08
6.62825e-08
4.99669e-08
3.42049e-08
1.88322e-08
3.239e-11
1.21344e-13
1.21251e-13
3.23658e-11
1.8819e-08
3.41814e-08
4.9933e-08
6.62381e-08
8.32442e-08
1.01078e-07
1.1984e-07
1.39607e-07
1.60423e-07
1.82301e-07
2.05221e-07
2.29133e-07
2.53953e-07
2.79566e-07
3.05831e-07
3.32583e-07
3.5964e-07
3.86804e-07
4.13864e-07
4.40597e-07
4.66766e-07
4.92126e-07
5.16427e-07
5.39423e-07
5.60877e-07
5.80563e-07
5.98275e-07
6.13823e-07
6.27043e-07
6.37794e-07
6.45961e-07
6.51457e-07
6.54223e-07
6.54231e-07
6.51479e-07
6.45998e-07
6.37846e-07
6.27109e-07
6.13902e-07
5.98366e-07
5.80666e-07
5.60989e-07
5.39545e-07
5.16556e-07
4.92261e-07
4.66906e-07
4.40741e-07
4.1401e-07
3.8695e-07
3.59785e-07
3.32727e-07
3.05971e-07
2.79701e-07
2.54082e-07
2.29256e-07
2.05336e-07
1.82407e-07
1.6052e-07
1.39694e-07
1.19917e-07
1.01144e-07
8.32996e-08
6.62829e-08
4.99672e-08
3.42051e-08
1.88323e-08
3.23902e-11
1.21345e-13
1.21251e-13
3.23659e-11
1.8819e-08
3.41815e-08
4.99331e-08
6.62383e-08
8.32444e-08
1.01078e-07
1.19841e-07
1.39608e-07
1.60423e-07
1.82301e-07
2.05222e-07
2.29134e-07
2.53954e-07
2.79567e-07
3.05832e-07
3.32584e-07
3.59641e-07
3.86805e-07
4.13865e-07
4.40599e-07
4.66768e-07
4.92127e-07
5.16428e-07
5.39425e-07
5.60879e-07
5.80565e-07
5.98277e-07
6.13825e-07
6.27045e-07
6.37796e-07
6.45963e-07
6.51459e-07
6.54226e-07
6.54233e-07
6.51482e-07
6.46001e-07
6.37848e-07
6.27111e-07
6.13904e-07
5.98368e-07
5.80668e-07
5.60991e-07
5.39546e-07
5.16558e-07
4.92263e-07
4.66908e-07
4.40742e-07
4.14011e-07
3.86951e-07
3.59787e-07
3.32728e-07
3.05972e-07
2.79702e-07
2.54083e-07
2.29257e-07
2.05337e-07
1.82408e-07
1.6052e-07
1.39695e-07
1.19918e-07
1.01144e-07
8.32999e-08
6.62831e-08
4.99673e-08
3.42052e-08
1.88324e-08
3.23903e-11
1.21345e-13
1.21251e-13
3.2366e-11
1.8819e-08
3.41815e-08
4.99332e-08
6.62384e-08
8.32445e-08
1.01078e-07
1.19841e-07
1.39608e-07
1.60424e-07
1.82301e-07
2.05222e-07
2.29134e-07
2.53954e-07
2.79567e-07
3.05832e-07
3.32585e-07
3.59642e-07
3.86806e-07
4.13866e-07
4.40599e-07
4.66769e-07
4.92128e-07
5.16429e-07
5.39426e-07
5.60879e-07
5.80566e-07
5.98278e-07
6.13826e-07
6.27046e-07
6.37797e-07
6.45964e-07
6.5146e-07
6.54227e-07
6.54234e-07
6.51483e-07
6.46002e-07
6.37849e-07
6.27112e-07
6.13905e-07
5.98369e-07
5.80669e-07
5.60992e-07
5.39547e-07
5.16558e-07
4.92264e-07
4.66909e-07
4.40743e-07
4.14012e-07
3.86952e-07
3.59787e-07
3.32728e-07
3.05972e-07
2.79703e-07
2.54084e-07
2.29257e-07
2.05337e-07
1.82408e-07
1.60521e-07
1.39695e-07
1.19918e-07
1.01144e-07
8.33e-08
6.62832e-08
4.99674e-08
3.42052e-08
1.88324e-08
3.23903e-11
1.21345e-13
1.21251e-13
3.2366e-11
1.8819e-08
3.41815e-08
4.99332e-08
6.62385e-08
8.32446e-08
1.01078e-07
1.19841e-07
1.39608e-07
1.60424e-07
1.82301e-07
2.05222e-07
2.29134e-07
2.53954e-07
2.79567e-07
3.05833e-07
3.32585e-07
3.59642e-07
3.86806e-07
4.13866e-07
4.406e-07
4.66769e-07
4.92129e-07
5.1643e-07
5.39426e-07
5.6088e-07
5.80566e-07
5.98278e-07
6.13827e-07
6.27047e-07
6.37798e-07
6.45965e-07
6.51461e-07
6.54227e-07
6.54235e-07
6.51483e-07
6.46002e-07
6.3785e-07
6.27113e-07
6.13906e-07
5.98369e-07
5.80669e-07
5.60993e-07
5.39548e-07
5.16559e-07
4.92264e-07
4.66909e-07
4.40743e-07
4.14012e-07
3.86952e-07
3.59787e-07
3.32728e-07
3.05973e-07
2.79703e-07
2.54084e-07
2.29257e-07
2.05337e-07
1.82408e-07
1.60521e-07
1.39695e-07
1.19918e-07
1.01144e-07
8.33e-08
6.62832e-08
4.99674e-08
3.42053e-08
1.88324e-08
3.23903e-11
1.21346e-13
1.21251e-13
3.2366e-11
1.88191e-08
3.41815e-08
4.99332e-08
6.62385e-08
8.32446e-08
1.01078e-07
1.19841e-07
1.39608e-07
1.60424e-07
1.82302e-07
2.05222e-07
2.29134e-07
2.53954e-07
2.79567e-07
3.05833e-07
3.32585e-07
3.59642e-07
3.86806e-07
4.13867e-07
4.406e-07
4.66769e-07
4.92129e-07
5.1643e-07
5.39426e-07
5.6088e-07
5.80567e-07
5.98278e-07
6.13827e-07
6.27047e-07
6.37798e-07
6.45965e-07
6.51461e-07
6.54227e-07
6.54235e-07
6.51483e-07
6.46002e-07
6.3785e-07
6.27113e-07
6.13906e-07
5.9837e-07
5.80669e-07
5.60993e-07
5.39548e-07
5.16559e-07
4.92264e-07
4.66909e-07
4.40743e-07
4.14012e-07
3.86952e-07
3.59788e-07
3.32729e-07
3.05973e-07
2.79703e-07
2.54084e-07
2.29257e-07
2.05337e-07
1.82408e-07
1.60521e-07
1.39695e-07
1.19918e-07
1.01144e-07
8.33e-08
6.62832e-08
4.99674e-08
3.42053e-08
1.88324e-08
3.23903e-11
1.21346e-13
1.21251e-13
3.2366e-11
1.88191e-08
3.41815e-08
4.99333e-08
6.62385e-08
8.32446e-08
1.01078e-07
1.19841e-07
1.39608e-07
1.60424e-07
1.82302e-07
2.05222e-07
2.29134e-07
2.53954e-07
2.79568e-07
3.05833e-07