/*--------------------------------*- C++ -*----------------------------------*\
  =========                 |
  \\      /  F ield         | OpenFOAM: The Open Source CFD Toolbox
   \\    /   O peration     | Website:  https://openfoam.org
    \\  /    A nd           | Version:  13
     \\/     M anipulation  |
\*---------------------------------------------------------------------------*/
FoamFile
{
    format      ascii;
    class       volScalarField;
    location    "44";
    object      k;
}
// * * * * * * * * * * * * * * * * * * * * * * * * * * * * * * * * * * * * * //

dimensions      [0 2 -2 0 0 0 0];

internalField   nonuniform List<scalar> 
78750
(
2.22045e-16
2.22045e-16
2.22045e-16
2.22045e-16
2.22045e-16
2.22045e-16
2.22045e-16
2.22045e-16
2.22045e-16
2.22045e-16
2.22045e-16
2.22045e-16
2.22045e-16
2.22045e-16
2.22045e-16
2.22045e-16
2.22045e-16
2.22045e-16
2.22045e-16
2.22045e-16
2.22045e-16
2.22045e-16
2.22045e-16
2.22045e-16
2.22045e-16
2.22045e-16
2.22045e-16
2.22045e-16
2.22045e-16
2.22045e-16
2.22045e-16
2.22045e-16
2.22045e-16
2.22045e-16
2.22045e-16
2.22045e-16
2.22045e-16
2.22045e-16
2.22045e-16
2.22045e-16
2.22045e-16
2.22045e-16
2.22045e-16
2.35963e-16
2.60171e-16
2.86748e-16
3.13627e-16
3.39173e-16
3.62039e-16
3.81119e-16
3.9553e-16
4.04618e-16
4.07979e-16
4.05459e-16
3.97169e-16
3.83477e-16
3.64996e-16
3.42578e-16
3.17302e-16
2.90484e-16
2.63727e-16
2.39051e-16
2.22045e-16
2.22045e-16
2.22045e-16
2.22045e-16
2.22045e-16
2.22045e-16
2.22045e-16
2.22045e-16
2.22045e-16
2.22045e-16
2.22045e-16
2.22045e-16
2.6514e-16
3.30738e-16
4.07154e-16
4.92814e-16
5.85606e-16
6.82797e-16
7.81136e-16
8.77012e-16
9.66653e-16
1.04634e-15
1.11265e-15
1.16263e-15
1.19404e-15
1.20542e-15
1.19626e-15
1.16697e-15
1.11887e-15
1.05414e-15
9.75646e-16
8.86772e-16
7.91223e-16
6.92787e-16
5.95122e-16
5.01554e-16
4.14839e-16
3.37058e-16
2.69741e-16
2.22045e-16
2.22045e-16
2.22045e-16
2.22045e-16
2.22045e-16
2.22045e-16
2.22045e-16
3.17645e-16
4.44423e-16
5.88119e-16
7.48795e-16
9.25101e-16
1.11408e-15
1.31118e-15
1.51049e-15
1.70503e-15
1.88729e-15
2.04965e-15
2.18497e-15
2.28708e-15
2.35116e-15
2.37417e-15
2.35498e-15
2.29451e-15
2.19563e-15
2.06298e-15
1.90262e-15
1.72163e-15
1.52759e-15
1.32808e-15
1.13011e-15
9.39726e-16
7.61596e-16
5.98801e-16
4.52767e-16
3.23414e-16
2.22045e-16
2.22045e-16
2.22045e-16
2.22045e-16
2.22045e-16
2.78127e-16
4.58476e-16
6.59706e-16
8.84933e-16
1.13517e-15
1.40891e-15
1.70197e-15
2.00756e-15
2.31668e-15
2.61862e-15
2.90169e-15
3.15405e-15
3.36448e-15
3.52327e-15
3.62284e-15
3.65837e-15
3.62811e-15
3.53352e-15
3.37917e-15
3.17241e-15
2.92279e-15
2.64143e-15
2.34017e-15
2.03072e-15
1.72389e-15
1.42886e-15
1.15256e-15
8.99379e-16
6.7098e-16
4.66478e-16
2.82801e-16
2.22045e-16
2.22045e-16
2.22045e-16
2.22045e-16
3.51247e-16
5.98128e-16
8.71349e-16
1.1756e-15
1.51261e-15
1.88064e-15
2.27427e-15
2.68458e-15
3.09957e-15
3.50495e-15
3.88507e-15
4.22401e-15
4.50667e-15
4.71993e-15
4.85358e-15
4.90108e-15
4.86008e-15
4.73257e-15
4.52477e-15
4.24663e-15
3.91106e-15
3.53304e-15
3.12847e-15
2.71304e-15
2.3012e-15
1.90509e-15
1.53389e-15
1.19322e-15
8.85033e-16
6.07754e-16
3.56773e-16
2.22045e-16
2.22045e-16
2.22045e-16
2.22045e-16
4.1763e-16
7.24832e-16
1.06324e-15
1.43896e-15
1.85436e-15
2.30747e-15
2.79178e-15
3.29642e-15
3.80674e-15
4.30521e-15
4.77263e-15
5.18941e-15
5.53699e-15
5.79919e-15
5.96341e-15
6.02161e-15
5.9709e-15
5.81377e-15
5.55788e-15
5.21551e-15
4.80261e-15
4.33761e-15
3.84006e-15
3.32923e-15
2.8228e-15
2.33562e-15
1.87881e-15
1.45917e-15
1.07888e-15
7.3577e-16
4.23828e-16
2.22045e-16
2.22045e-16
2.22045e-16
2.22045e-16
4.74611e-16
8.33568e-16
1.22788e-15
1.66484e-15
2.14737e-15
2.67333e-15
3.23524e-15
3.82057e-15
4.41241e-15
4.99049e-15
5.53253e-15
6.01583e-15
6.41885e-15
6.72281e-15
6.91311e-15
6.98041e-15
6.92138e-15
6.73891e-15
6.44192e-15
6.04466e-15
5.56566e-15
5.02628e-15
4.44922e-15
3.85681e-15
3.26947e-15
2.70437e-15
2.17432e-15
1.68707e-15
1.24504e-15
8.45519e-16
4.8132e-16
2.22045e-16
2.22045e-16
2.22045e-16
2.22045e-16
5.21186e-16
9.22432e-16
1.36241e-15
1.84938e-15
2.38671e-15
2.97211e-15
3.59734e-15
4.24853e-15
4.90688e-15
5.54988e-15
6.15279e-15
6.69032e-15
7.13852e-15
7.4765e-15
7.68803e-15
7.76273e-15
7.69689e-15
7.49375e-15
7.16323e-15
6.7212e-15
6.18827e-15
5.58823e-15
4.94631e-15
4.28733e-15
3.63399e-15
3.00533e-15
2.41552e-15
1.87312e-15
1.3807e-15
9.35129e-16
5.28264e-16
2.22045e-16
2.22045e-16
2.22045e-16
2.22045e-16
5.57483e-16
9.91679e-16
1.46722e-15
1.99314e-15
2.57315e-15
3.20482e-15
3.87935e-15
4.5818e-15
5.29192e-15
5.98546e-15
6.63572e-15
7.21545e-15
7.6988e-15
8.06324e-15
8.29127e-15
8.37171e-15
8.30055e-15
8.0813e-15
7.72467e-15
7.24779e-15
6.67288e-15
6.02561e-15
5.33321e-15
4.62242e-15
3.91772e-15
3.23958e-15
2.60327e-15
2.01794e-15
1.4863e-15
1.00489e-15
5.64813e-16
2.22045e-16
2.22045e-16
2.22045e-16
2.22045e-16
5.8445e-16
1.04312e-15
1.54508e-15
2.09991e-15
2.71159e-15
3.37763e-15
4.08876e-15
4.82925e-15
5.57781e-15
6.30886e-15
6.99427e-15
7.60531e-15
8.11473e-15
8.49881e-15
8.73907e-15
8.82374e-15
8.74863e-15
8.51741e-15
8.14139e-15
7.63862e-15
7.03255e-15
6.35023e-15
5.62034e-15
4.8711e-15
4.12827e-15
3.41342e-15
2.7426e-15
2.12542e-15
1.56468e-15
1.05667e-15
5.9194e-16
2.22045e-16
2.22045e-16
2.22045e-16
2.22045e-16
6.03545e-16
1.07954e-15
1.60019e-15
2.17549e-15
2.8096e-15
3.49995e-15
4.23697e-15
5.0044e-15
5.78016e-15
6.53775e-15
7.24803e-15
7.88122e-15
8.40909e-15
8.80704e-15
9.05595e-15
9.14362e-15
9.06569e-15
8.82599e-15
8.43624e-15
7.91515e-15
7.28701e-15
6.57988e-15
5.82347e-15
5.04702e-15
4.27721e-15
3.53639e-15
2.84115e-15
2.20144e-15
1.62012e-15
1.0933e-15
6.11128e-16
2.22045e-16
2.22045e-16
2.22045e-16
2.22045e-16
6.16435e-16
1.10413e-15
1.63739e-15
2.2265e-15
2.87573e-15
3.58249e-15
4.33698e-15
5.12258e-15
5.91669e-15
6.69219e-15
7.41925e-15
8.06738e-15
8.60769e-15
9.01501e-15
9.26975e-15
9.35942e-15
9.27959e-15
9.03416e-15
8.63513e-15
8.10167e-15
7.45865e-15
6.73478e-15
5.96047e-15
5.16566e-15
4.37765e-15
3.61931e-15
2.90762e-15
2.25271e-15
1.65751e-15
1.11801e-15
6.2407e-16
2.22045e-16
2.22045e-16
2.22045e-16
2.22045e-16
6.24734e-16
1.11995e-15
1.66134e-15
2.25933e-15
2.9183e-15
3.63561e-15
4.40135e-15
5.19864e-15
6.00456e-15
6.79159e-15
7.52944e-15
8.18719e-15
8.7355e-15
9.14884e-15
9.40732e-15
9.49829e-15
9.41722e-15
9.1681e-15
8.7631e-15
8.22168e-15
7.56907e-15
6.83442e-15
6.0486e-15
5.24197e-15
4.44225e-15
3.67264e-15
2.95036e-15
2.28568e-15
1.68156e-15
1.13389e-15
6.32393e-16
2.22045e-16
2.22045e-16
2.22045e-16
2.22045e-16
6.29833e-16
1.12968e-15
1.67605e-15
2.2795e-15
2.94445e-15
3.66825e-15
4.44089e-15
5.24536e-15
6.05854e-15
6.85265e-15
7.59713e-15
8.26078e-15
8.81402e-15
9.23105e-15
9.49183e-15
9.58359e-15
9.50176e-15
9.25037e-15
8.8417e-15
8.29539e-15
7.63689e-15
6.89561e-15
6.10271e-15
5.28883e-15
4.48192e-15
3.70538e-15
2.9766e-15
2.30592e-15
1.69631e-15
1.14364e-15
6.375e-16
2.22045e-16
2.22045e-16
2.22045e-16
2.22045e-16
6.32826e-16
1.13538e-15
1.68469e-15
2.29134e-15
2.9598e-15
3.6874e-15
4.46411e-15
5.27279e-15
6.09022e-15
6.88849e-15
7.63686e-15
8.30398e-15
8.8601e-15
9.2793e-15
9.54144e-15
9.63366e-15
9.55138e-15
9.29865e-15
8.88783e-15
8.33864e-15
7.67668e-15
6.93152e-15
6.13446e-15
5.31632e-15
4.50519e-15
3.72459e-15
2.99199e-15
2.31779e-15
1.70497e-15
1.14936e-15
6.40495e-16
2.22045e-16
2.22045e-16
2.22045e-16
2.22045e-16
6.34506e-16
1.13859e-15
1.68953e-15
2.29799e-15
2.96841e-15
3.69816e-15
4.47714e-15
5.28819e-15
6.10802e-15
6.90861e-15
7.65917e-15
8.32824e-15
8.88598e-15
9.30639e-15
9.56929e-15
9.66176e-15
9.57924e-15
9.32576e-15
8.91372e-15
8.36292e-15
7.69902e-15
6.95167e-15
6.15228e-15
5.33174e-15
4.51824e-15
3.73537e-15
3.00062e-15
2.32445e-15
1.70983e-15
1.15257e-15
6.42175e-16
2.22045e-16
2.22045e-16
2.22045e-16
2.22045e-16
6.3541e-16
1.14031e-15
1.69214e-15
2.30156e-15
2.97305e-15
3.70394e-15
4.48415e-15
5.29647e-15
6.11758e-15
6.91943e-15
7.67117e-15
8.34128e-15
8.89989e-15
9.32096e-15
9.58426e-15
9.67688e-15
9.59421e-15
9.34033e-15
8.92764e-15
8.37597e-15
7.71102e-15
6.9625e-15
6.16186e-15
5.34004e-15
4.52526e-15
3.74116e-15
3.00526e-15
2.32802e-15
1.71243e-15
1.15429e-15
6.43078e-16
2.22045e-16
2.22045e-16
2.22045e-16
2.22045e-16
6.35875e-16
1.1412e-15
1.69349e-15
2.30341e-15
2.97544e-15
3.70692e-15
4.48776e-15
5.30074e-15
6.12252e-15
6.92501e-15
7.67736e-15
8.34801e-15
8.90707e-15
9.32848e-15
9.59198e-15
9.68467e-15
9.60194e-15
9.34785e-15
8.93482e-15
8.3827e-15
7.71721e-15
6.96809e-15
6.1668e-15
5.34431e-15
4.52888e-15
3.74414e-15
3.00765e-15
2.32987e-15
1.71378e-15
1.15518e-15
6.43543e-16
2.22045e-16
2.22045e-16
2.22045e-16
2.22045e-16
6.36106e-16
1.14164e-15
1.69415e-15
2.30432e-15
2.97662e-15
3.7084e-15
4.48955e-15
5.30286e-15
6.12496e-15
6.92778e-15
7.68042e-15
8.35134e-15
8.91062e-15
9.33219e-15
9.59581e-15
9.68853e-15
9.60576e-15
9.35157e-15
8.93837e-15
8.38603e-15
7.72028e-15
6.97085e-15
6.16924e-15
5.34643e-15
4.53067e-15
3.74562e-15
3.00884e-15
2.33078e-15
1.71444e-15
1.15562e-15
6.43772e-16
2.22045e-16
2.22045e-16
2.22045e-16
2.22045e-16
6.36216e-16
1.14185e-15
1.69447e-15
2.30475e-15
2.97718e-15
3.7091e-15
4.4904e-15
5.30386e-15
6.12612e-15
6.92909e-15
7.68188e-15
8.35292e-15
8.91231e-15
9.33396e-15
9.59762e-15
9.69036e-15
9.60758e-15
9.35334e-15
8.94006e-15
8.38761e-15
7.72174e-15
6.97216e-15
6.1704e-15
5.34743e-15
4.53152e-15
3.74632e-15
3.0094e-15
2.33121e-15
1.71476e-15
1.15583e-15
6.43882e-16
2.22045e-16
2.22045e-16
2.22045e-16
2.22045e-16
6.36266e-16
1.14194e-15
1.69461e-15
2.30495e-15
2.97744e-15
3.70942e-15
4.49079e-15
5.30432e-15
6.12665e-15
6.92969e-15
7.68255e-15
8.35365e-15
8.91308e-15
9.33478e-15
9.59846e-15
9.69121e-15
9.60841e-15
9.35415e-15
8.94084e-15
8.38834e-15
7.7224e-15
6.97277e-15
6.17094e-15
5.34789e-15
4.53191e-15
3.74664e-15
3.00966e-15
2.33141e-15
1.7149e-15
1.15592e-15
6.43932e-16
2.22045e-16
2.22045e-16
2.22045e-16
2.22045e-16
6.36288e-16
1.14199e-15
1.69468e-15
2.30504e-15
2.97755e-15
3.70956e-15
4.49096e-15
5.30453e-15
6.12689e-15
6.92996e-15
7.68284e-15
8.35397e-15
8.91343e-15
9.33513e-15
9.59883e-15
9.69158e-15
9.60878e-15
9.3545e-15
8.94118e-15
8.38866e-15
7.7227e-15
6.97303e-15
6.17117e-15
5.3481e-15
4.53208e-15
3.74679e-15
3.00977e-15
2.3315e-15
1.71497e-15
1.15596e-15
6.43954e-16
2.22045e-16
2.22045e-16
2.22045e-16
2.22045e-16
6.36298e-16
1.142e-15
1.6947e-15
2.30508e-15
2.9776e-15
3.70963e-15
4.49103e-15
5.30461e-15
6.12699e-15
6.93007e-15
7.68297e-15
8.35411e-15
8.91357e-15
9.33529e-15
9.59898e-15
9.69173e-15
9.60894e-15
9.35466e-15
8.94133e-15
8.3888e-15
7.72282e-15
6.97315e-15
6.17127e-15
5.34818e-15
4.53215e-15
3.74685e-15
3.00982e-15
2.33154e-15
1.715e-15
1.15598e-15
6.43963e-16
2.22045e-16
2.22045e-16
2.22045e-16
2.22045e-16
6.36301e-16
1.14201e-15
1.69471e-15
2.30509e-15
2.97762e-15
3.70965e-15
4.49106e-15
5.30465e-15
6.12703e-15
6.93012e-15
7.68302e-15
8.35416e-15
8.91363e-15
9.33535e-15
9.59905e-15
9.6918e-15
9.609e-15
9.35472e-15
8.94139e-15
8.38885e-15
7.72287e-15
6.97319e-15
6.17131e-15
5.34822e-15
4.53218e-15
3.74687e-15
3.00984e-15
2.33155e-15
1.71501e-15
1.15599e-15
6.43967e-16
2.22045e-16
2.22045e-16
2.22045e-16
2.22045e-16
6.36303e-16
1.14201e-15
1.69472e-15
2.3051e-15
2.97763e-15
3.70966e-15
4.49108e-15
5.30466e-15
6.12705e-15
6.93014e-15
7.68304e-15
8.35419e-15
8.91365e-15
9.33537e-15
9.59907e-15
9.69183e-15
9.60903e-15
9.35474e-15
8.94141e-15
8.38887e-15
7.7229e-15
6.97321e-15
6.17133e-15
5.34823e-15
4.53219e-15
3.74688e-15
3.00985e-15
2.33156e-15
1.71501e-15
1.15599e-15
6.43969e-16
2.22045e-16
2.22045e-16
2.22045e-16
2.22045e-16
6.36304e-16
1.14202e-15
1.69472e-15
2.3051e-15
2.97763e-15
3.70966e-15
4.49108e-15
5.30467e-15
6.12705e-15
6.93015e-15
7.68305e-15
8.35419e-15
8.91366e-15
9.33538e-15
9.59908e-15
9.69184e-15
9.60904e-15
9.35475e-15
8.94142e-15
8.38888e-15
7.7229e-15
6.97322e-15
6.17133e-15
5.34824e-15
4.5322e-15
3.74689e-15
3.00985e-15
2.33156e-15
1.71501e-15
1.15599e-15
6.43969e-16
2.22045e-16
2.22045e-16
2.22045e-16
2.22045e-16
6.36304e-16
1.14202e-15
1.69472e-15
2.3051e-15
2.97763e-15
3.70967e-15
4.49108e-15
5.30467e-15
6.12705e-15
6.93015e-15
7.68305e-15
8.3542e-15
8.91367e-15
9.33539e-15
9.59909e-15
9.69184e-15
9.60904e-15
9.35476e-15
8.94142e-15
8.38889e-15
7.72291e-15
6.97322e-15
6.17134e-15
5.34824e-15
4.5322e-15
3.74689e-15
3.00985e-15
2.33156e-15
1.71501e-15
1.15599e-15
6.43969e-16
2.22045e-16
2.22045e-16
2.22045e-16
2.22045e-16
6.36304e-16
1.14202e-15
1.69472e-15
2.3051e-15
2.97764e-15
3.70967e-15
4.49108e-15
5.30467e-15
6.12705e-15
6.93015e-15
7.68305e-15
8.3542e-15
8.91367e-15
9.33539e-15
9.59909e-15
9.69184e-15
9.60904e-15
9.35476e-15
8.94142e-15
8.38889e-15
7.72291e-15
6.97322e-15
6.17134e-15
5.34824e-15
4.5322e-15
3.74689e-15
3.00985e-15
2.33156e-15
1.71501e-15
1.15599e-15
6.43969e-16
2.22045e-16
2.22045e-16
2.22045e-16
2.22045e-16
6.36304e-16
1.14202e-15
1.69472e-15
2.3051e-15
2.97764e-15
3.70967e-15
4.49108e-15
5.30467e-15
6.12706e-15
6.93015e-15
7.68305e-15
8.3542e-15
8.91367e-15
9.33539e-15
9.59909e-15
9.69184e-15
9.60904e-15
9.35476e-15
8.94142e-15
8.38889e-15
7.72291e-15
6.97322e-15
6.17134e-15
5.34824e-15
4.5322e-15
3.74689e-15
3.00985e-15
2.33156e-15
1.71501e-15
1.15599e-15
6.4397e-16
2.22045e-16
2.22045e-16
2.22045e-16
2.22045e-16
6.36304e-16
1.14202e-15
1.69472e-15
2.3051e-15
2.97764e-15
3.70967e-15
4.49108e-15
5.30467e-15
6.12706e-15
6.93015e-15
7.68305e-15
8.3542e-15
8.91367e-15
9.33539e-15
9.59909e-15
9.69184e-15
9.60904e-15
9.35476e-15
8.94142e-15
8.38889e-15
7.72291e-15
6.97322e-15
6.17134e-15
5.34824e-15
4.5322e-15
3.74689e-15
3.00985e-15
2.33156e-15
1.71501e-15
1.15599e-15
6.4397e-16
2.22045e-16
2.22045e-16
2.22045e-16
2.22045e-16
6.36304e-16
1.14202e-15
1.69472e-15
2.3051e-15
2.97764e-15
3.70967e-15
4.49108e-15
5.30467e-15
6.12706e-15
6.93015e-15
7.68305e-15
8.3542e-15
8.91367e-15
9.33539e-15
9.59909e-15
9.69184e-15
9.60904e-15
9.35476e-15
8.94142e-15
8.38889e-15
7.72291e-15
6.97322e-15
6.17134e-15
5.34824e-15
4.5322e-15
3.74689e-15
3.00985e-15
2.33156e-15
1.71501e-15
1.15599e-15
6.4397e-16
2.22045e-16
2.22045e-16
2.22045e-16
2.22045e-16
6.36304e-16
1.14202e-15
1.69472e-15
2.3051e-15
2.97764e-15
3.70967e-15
4.49108e-15
5.30467e-15
6.12706e-15
6.93015e-15
7.68305e-15
8.3542e-15
8.91367e-15
9.33539e-15
9.59909e-15
9.69184e-15
9.60904e-15
9.35476e-15
8.94142e-15
8.38889e-15
7.72291e-15
6.97322e-15
6.17134e-15
5.34824e-15
4.5322e-15
3.74689e-15
3.00985e-15
2.33156e-15
1.71501e-15
1.15599e-15
6.4397e-16
2.22045e-16
2.22045e-16
2.22045e-16
2.22045e-16
6.36304e-16
1.14202e-15
1.69472e-15
2.3051e-15
2.97764e-15
3.70967e-15
4.49108e-15
5.30467e-15
6.12706e-15
6.93015e-15
7.68305e-15
8.3542e-15
8.91367e-15
9.33539e-15
9.59909e-15
9.69184e-15
9.60904e-15
9.35476e-15
8.94142e-15
8.38889e-15
7.72291e-15
6.97322e-15
6.17134e-15
5.34824e-15
4.5322e-15
3.74689e-15
3.00985e-15
2.33156e-15
1.71501e-15
1.15599e-15
6.4397e-16
2.22045e-16
2.22045e-16
2.22045e-16
2.22045e-16
6.36304e-16
1.14202e-15
1.69472e-15
2.3051e-15
2.97764e-15
3.70967e-15
4.49108e-15
5.30467e-15
6.12706e-15
6.93015e-15
7.68305e-15
8.3542e-15
8.91367e-15
9.33539e-15
9.59909e-15
9.69184e-15
9.60904e-15
9.35476e-15
8.94142e-15
8.38889e-15
7.72291e-15
6.97322e-15
6.17134e-15
5.34824e-15
4.5322e-15
3.74689e-15
3.00985e-15
2.33156e-15
1.71501e-15
1.15599e-15
6.4397e-16
2.22045e-16
2.22045e-16
2.22045e-16
2.22045e-16
6.36304e-16
1.14202e-15
1.69472e-15
2.3051e-15
2.97764e-15
3.70967e-15
4.49108e-15
5.30467e-15
6.12706e-15
6.93015e-15
7.68305e-15
8.3542e-15
8.91367e-15
9.33539e-15
9.59909e-15
9.69184e-15
9.60904e-15
9.35476e-15
8.94142e-15
8.38889e-15
7.72291e-15
6.97322e-15
6.17134e-15
5.34824e-15
4.5322e-15
3.74689e-15
3.00985e-15
2.33156e-15
1.71501e-15
1.15599e-15
6.4397e-16
2.22045e-16
2.22045e-16
2.22045e-16
2.22045e-16
6.36304e-16
1.14202e-15
1.69472e-15
2.3051e-15
2.97764e-15
3.70967e-15
4.49108e-15
5.30467e-15
6.12706e-15
6.93015e-15
7.68305e-15
8.3542e-15
8.91367e-15
9.33539e-15
9.59909e-15
9.69184e-15
9.60904e-15
9.35476e-15
8.94142e-15
8.38889e-15
7.72291e-15
6.97322e-15
6.17134e-15
5.34824e-15
4.5322e-15
3.74689e-15
3.00985e-15
2.33156e-15
1.71501e-15
1.15599e-15
6.4397e-16
2.22045e-16
2.22045e-16
2.22045e-16
2.22045e-16
6.36304e-16
1.14202e-15
1.69472e-15
2.3051e-15
2.97764e-15
3.70967e-15
4.49108e-15
5.30467e-15
6.12706e-15
6.93015e-15
7.68305e-15
8.3542e-15
8.91367e-15
9.33539e-15
9.59909e-15
9.69184e-15
9.60904e-15
9.35476e-15
8.94142e-15
8.38889e-15
7.72291e-15
6.97322e-15
6.17134e-15
5.34824e-15
4.5322e-15
3.74689e-15
3.00985e-15
2.33156e-15
1.71501e-15
1.15599e-15
6.4397e-16
2.22045e-16
2.22045e-16
2.22045e-16
2.22045e-16
6.36304e-16
1.14202e-15
1.69472e-15
2.3051e-15
2.97764e-15
3.70967e-15
4.49108e-15
5.30467e-15
6.12706e-15
6.93015e-15
7.68305e-15
8.3542e-15
8.91367e-15
9.33539e-15
9.59909e-15
9.69184e-15
9.60904e-15
9.35476e-15
8.94142e-15
8.38889e-15
7.72291e-15
6.97322e-15
6.17134e-15
5.34824e-15
4.5322e-15
3.74689e-15
3.00985e-15
2.33156e-15
1.71501e-15
1.15599e-15
6.4397e-16
2.22045e-16
2.22045e-16
2.22045e-16
2.22045e-16
6.36304e-16
1.14202e-15
1.69472e-15
2.3051e-15
2.97764e-15
3.70967e-15
4.49108e-15
5.30467e-15
6.12706e-15
6.93015e-15
7.68305e-15
8.3542e-15
8.91367e-15
9.33539e-15
9.59909e-15
9.69184e-15
9.60904e-15
9.35476e-15
8.94142e-15
8.38889e-15
7.72291e-15
6.97322e-15
6.17134e-15
5.34824e-15
4.5322e-15
3.74689e-15
3.00985e-15
2.33156e-15
1.71501e-15
1.15599e-15
6.4397e-16
2.22045e-16
2.22045e-16
2.22045e-16
2.22045e-16
6.36304e-16
1.14202e-15
1.69472e-15
2.3051e-15
2.97764e-15
3.70967e-15
4.49108e-15
5.30467e-15
6.12706e-15
6.93015e-15
7.68305e-15
8.3542e-15
8.91367e-15
9.33539e-15
9.59909e-15
9.69184e-15
9.60904e-15
9.35476e-15
8.94142e-15
8.38889e-15
7.72291e-15
6.97322e-15
6.17134e-15
5.34824e-15
4.5322e-15
3.74689e-15
3.00985e-15
2.33156e-15
1.71501e-15
1.15599e-15
6.4397e-16
2.22045e-16
2.22045e-16
2.22045e-16
2.22045e-16
6.36304e-16
1.14202e-15
1.69472e-15
2.3051e-15
2.97764e-15
3.70967e-15
4.49108e-15
5.30467e-15
6.12706e-15
6.93015e-15
7.68305e-15
8.3542e-15
8.91367e-15
9.33539e-15
9.59909e-15
9.69184e-15
9.60904e-15
9.35476e-15
8.94142e-15
8.38889e-15
7.72291e-15
6.97322e-15
6.17134e-15
5.34824e-15
4.5322e-15
3.74689e-15
3.00985e-15
2.33156e-15
1.71501e-15
1.15599e-15
6.4397e-16
2.22045e-16
2.22045e-16
2.22045e-16
2.22045e-16
6.36304e-16
1.14202e-15
1.69472e-15
2.3051e-15
2.97764e-15
3.70967e-15
4.49108e-15
5.30467e-15
6.12706e-15
6.93015e-15
7.68305e-15
8.3542e-15
8.91367e-15
9.33539e-15
9.59909e-15
9.69184e-15
9.60904e-15
9.35476e-15
8.94142e-15
8.38889e-15
7.72291e-15
6.97322e-15
6.17134e-15
5.34824e-15
4.5322e-15
3.74689e-15
3.00985e-15
2.33156e-15
1.71501e-15
1.15599e-15
6.4397e-16
2.22045e-16
2.22045e-16
2.22045e-16
2.22045e-16
6.36304e-16
1.14202e-15
1.69472e-15
2.3051e-15
2.97764e-15
3.70967e-15
4.49108e-15
5.30467e-15
6.12706e-15
6.93015e-15
7.68305e-15
8.3542e-15
8.91367e-15
9.33539e-15
9.59909e-15
9.69184e-15
9.60904e-15
9.35476e-15
8.94142e-15
8.38889e-15
7.72291e-15
6.97322e-15
6.17134e-15
5.34824e-15
4.5322e-15
3.74689e-15
3.00985e-15
2.33156e-15
1.71501e-15
1.15599e-15
6.4397e-16
2.22045e-16
2.22045e-16
2.22045e-16
2.22045e-16
6.36304e-16
1.14202e-15
1.69472e-15
2.3051e-15
2.97764e-15
3.70967e-15
4.49108e-15
5.30467e-15
6.12706e-15
6.93015e-15
7.68305e-15
8.3542e-15
8.91367e-15
9.33539e-15
9.59909e-15
9.69184e-15
9.60904e-15
9.35476e-15
8.94142e-15
8.38889e-15
7.72291e-15
6.97322e-15
6.17134e-15
5.34824e-15
4.5322e-15
3.74689e-15
3.00985e-15
2.33156e-15
1.71501e-15
1.15599e-15
6.4397e-16
2.22045e-16
2.22045e-16
2.22045e-16
2.22045e-16
6.36304e-16
1.14202e-15
1.69472e-15
2.3051e-15
2.97764e-15
3.70967e-15
4.49108e-15
5.30467e-15
6.12706e-15
6.93015e-15
7.68305e-15
8.3542e-15
8.91367e-15
9.33539e-15
9.59909e-15
9.69184e-15
9.60904e-15
9.35476e-15
8.94142e-15
8.38889e-15
7.72291e-15
6.97322e-15
6.17134e-15
5.34824e-15
4.5322e-15
3.74689e-15
3.00985e-15
2.33156e-15
1.71501e-15
1.15599e-15
6.4397e-16
2.22045e-16
2.22045e-16
2.22045e-16
2.22045e-16
6.36304e-16
1.14202e-15
1.69472e-15
2.3051e-15
2.97764e-15
3.70967e-15
4.49108e-15
5.30467e-15
6.12706e-15
6.93015e-15
7.68305e-15
8.3542e-15
8.91367e-15
9.33539e-15
9.59909e-15
9.69184e-15
9.60904e-15
9.35476e-15
8.94142e-15
8.38889e-15
7.72291e-15
6.97322e-15
6.17134e-15
5.34824e-15
4.5322e-15
3.74689e-15
3.00985e-15
2.33156e-15
1.71501e-15
1.15599e-15
6.4397e-16
2.22045e-16
2.22045e-16
2.22045e-16
2.22045e-16
6.36304e-16
1.14202e-15
1.69472e-15
2.3051e-15
2.97764e-15
3.70967e-15
4.49108e-15
5.30467e-15
6.12706e-15
6.93015e-15
7.68305e-15
8.3542e-15
8.91367e-15
9.33539e-15
9.59909e-15
9.69184e-15
9.60904e-15
9.35476e-15
8.94142e-15
8.38889e-15
7.72291e-15
6.97322e-15
6.17134e-15
5.34824e-15
4.5322e-15
3.74689e-15
3.00985e-15
2.33156e-15
1.71501e-15
1.15599e-15
6.4397e-16
2.22045e-16
2.22045e-16
2.22045e-16
2.22045e-16
6.36304e-16
1.14202e-15
1.69472e-15
2.3051e-15
2.97764e-15
3.70967e-15
4.49108e-15
5.30467e-15
6.12706e-15
6.93015e-15
7.68305e-15
8.3542e-15
8.91367e-15
9.33539e-15
9.59909e-15
9.69184e-15
9.60904e-15
9.35476e-15
8.94142e-15
8.38889e-15
7.72291e-15
6.97322e-15
6.17134e-15
5.34824e-15
4.5322e-15
3.74689e-15
3.00985e-15
2.33156e-15
1.71501e-15
1.15599e-15
6.4397e-16
2.22045e-16
2.22045e-16
2.22045e-16
2.22045e-16
6.36304e-16
1.14202e-15
1.69472e-15
2.3051e-15
2.97764e-15
3.70967e-15
4.49108e-15
5.30467e-15
6.12706e-15
6.93015e-15
7.68305e-15
8.3542e-15
8.91367e-15
9.33539e-15
9.59909e-15
9.69184e-15
9.60904e-15
9.35476e-15
8.94142e-15
8.38889e-15
7.72291e-15
6.97322e-15
6.17134e-15
5.34824e-15
4.5322e-15
3.74689e-15
3.00985e-15
2.33156e-15
1.71501e-15
1.15599e-15
6.4397e-16
2.22045e-16
2.22045e-16
2.22045e-16
2.22045e-16
6.36304e-16
1.14202e-15
1.69472e-15
2.3051e-15
2.97764e-15
3.70967e-15
4.49108e-15
5.30467e-15
6.12706e-15
6.93015e-15
7.68305e-15
8.3542e-15
8.91367e-15
9.33539e-15
9.59909e-15
9.69184e-15
9.60904e-15
9.35476e-15
8.94142e-15
8.38889e-15
7.72291e-15
6.97322e-15
6.17134e-15
5.34824e-15
4.5322e-15
3.74689e-15
3.00985e-15
2.33156e-15
1.71501e-15
1.15599e-15
6.4397e-16
2.22045e-16
2.22045e-16
2.22045e-16
2.22045e-16
6.36304e-16
1.14202e-15
1.69472e-15
2.3051e-15
2.97764e-15
3.70967e-15
4.49108e-15
5.30467e-15
6.12706e-15
6.93015e-15
7.68305e-15
8.3542e-15
8.91367e-15
9.33539e-15
9.59909e-15
9.69184e-15
9.60904e-15
9.35476e-15
8.94142e-15
8.38889e-15
7.72291e-15
6.97322e-15
6.17134e-15
5.34824e-15
4.5322e-15
3.74689e-15
3.00985e-15
2.33156e-15
1.71501e-15
1.15599e-15
6.4397e-16
2.22045e-16
2.22045e-16
2.22045e-16
2.22045e-16
6.36304e-16
1.14202e-15
1.69472e-15
2.3051e-15
2.97764e-15
3.70967e-15
4.49108e-15
5.30467e-15
6.12706e-15
6.93015e-15
7.68305e-15
8.3542e-15
8.91367e-15
9.33539e-15
9.59909e-15
9.69184e-15
9.60904e-15
9.35476e-15
8.94142e-15
8.38889e-15
7.72291e-15
6.97322e-15
6.17134e-15
5.34824e-15
4.5322e-15
3.74689e-15
3.00985e-15
2.33156e-15
1.71501e-15
1.15599e-15
6.4397e-16
2.22045e-16
2.22045e-16
2.22045e-16
2.22045e-16
6.36304e-16
1.14202e-15
1.69472e-15
2.3051e-15
2.97764e-15
3.70967e-15
4.49108e-15
5.30467e-15
6.12706e-15
6.93015e-15
7.68305e-15
8.3542e-15
8.91367e-15
9.33539e-15
9.59909e-15
9.69184e-15
9.60904e-15
9.35476e-15
8.94142e-15
8.38889e-15
7.72291e-15
6.97322e-15
6.17134e-15
5.34824e-15
4.5322e-15
3.74689e-15
3.00985e-15
2.33156e-15
1.71501e-15
1.15599e-15
6.4397e-16
2.22045e-16
2.22045e-16
2.22045e-16
2.22045e-16
6.36304e-16
1.14202e-15
1.69472e-15
2.3051e-15
2.97764e-15
3.70967e-15
4.49108e-15
5.30467e-15
6.12706e-15
6.93015e-15
7.68305e-15
8.3542e-15
8.91367e-15
9.33539e-15
9.59909e-15
9.69184e-15
9.60904e-15
9.35476e-15
8.94142e-15
8.38889e-15
7.72291e-15
6.97322e-15
6.17134e-15
5.34824e-15
4.5322e-15
3.74689e-15
3.00985e-15
2.33156e-15
1.71501e-15
1.15599e-15
6.4397e-16
2.22045e-16
2.22045e-16
2.22045e-16
2.22045e-16
6.36304e-16
1.14202e-15
1.69472e-15
2.3051e-15
2.97764e-15
3.70967e-15
4.49108e-15
5.30467e-15
6.12706e-15
6.93015e-15
7.68305e-15
8.3542e-15
8.91367e-15
9.33539e-15
9.59909e-15
9.69184e-15
9.60904e-15
9.35476e-15
8.94142e-15
8.38889e-15
7.72291e-15
6.97322e-15
6.17134e-15
5.34824e-15
4.5322e-15
3.74689e-15
3.00985e-15
2.33156e-15
1.71501e-15
1.15599e-15
6.4397e-16
2.22045e-16
2.22045e-16
2.22045e-16
2.22045e-16
6.36304e-16
1.14202e-15
1.69472e-15
2.3051e-15
2.97764e-15
3.70967e-15
4.49108e-15
5.30467e-15
6.12706e-15
6.93015e-15
7.68305e-15
8.3542e-15
8.91367e-15
9.33539e-15
9.59909e-15
9.69184e-15
9.60904e-15
9.35476e-15
8.94142e-15
8.38889e-15
7.72291e-15
6.97322e-15
6.17134e-15
5.34824e-15
4.5322e-15
3.74689e-15
3.00985e-15
2.33156e-15
1.71501e-15
1.15599e-15
6.4397e-16
2.22045e-16
2.22045e-16
2.22045e-16
2.22045e-16
6.36304e-16
1.14202e-15
1.69472e-15
2.3051e-15
2.97764e-15
3.70967e-15
4.49108e-15
5.30467e-15
6.12706e-15
6.93015e-15
7.68305e-15
8.3542e-15
8.91367e-15
9.33539e-15
9.59909e-15
9.69184e-15
9.60904e-15
9.35476e-15
8.94142e-15
8.38889e-15
7.72291e-15
6.97322e-15
6.17134e-15
5.34824e-15
4.5322e-15
3.74689e-15
3.00985e-15
2.33156e-15
1.71501e-15
1.15599e-15
6.4397e-16
2.22045e-16
2.22045e-16
2.22045e-16
2.22045e-16
6.36304e-16
1.14202e-15
1.69472e-15
2.3051e-15
2.97764e-15
3.70967e-15
4.49108e-15
5.30467e-15
6.12706e-15
6.93015e-15
7.68305e-15
8.3542e-15
8.91367e-15
9.33539e-15
9.59909e-15
9.69184e-15
9.60904e-15
9.35476e-15
8.94142e-15
8.38889e-15
7.72291e-15
6.97322e-15
6.17134e-15
5.34824e-15
4.5322e-15
3.74689e-15
3.00985e-15
2.33156e-15
1.71501e-15
1.15599e-15
6.4397e-16
2.22045e-16
2.22045e-16
2.22045e-16
2.22045e-16
6.36304e-16
1.14202e-15
1.69472e-15
2.3051e-15
2.97764e-15
3.70967e-15
4.49108e-15
5.30467e-15
6.12706e-15
6.93015e-15
7.68305e-15
8.3542e-15
8.91367e-15
9.33539e-15
9.59909e-15
9.69184e-15
9.60904e-15
9.35476e-15
8.94142e-15
8.38889e-15
7.72291e-15
6.97322e-15
6.17134e-15
5.34824e-15
4.5322e-15
3.74689e-15
3.00985e-15
2.33156e-15
1.71501e-15
1.15599e-15
6.4397e-16
2.22045e-16
2.22045e-16
2.22045e-16
2.22045e-16
6.36304e-16
1.14202e-15
1.69472e-15
2.3051e-15
2.97764e-15
3.70967e-15
4.49108e-15
5.30467e-15
6.12706e-15
6.93015e-15
7.68305e-15
8.3542e-15
8.91367e-15
9.33539e-15
9.59909e-15
9.69184e-15
9.60904e-15
9.35476e-15
8.94142e-15
8.38889e-15
7.72291e-15
6.97322e-15
6.17134e-15
5.34824e-15
4.5322e-15
3.74689e-15
3.00985e-15
2.33156e-15
1.71501e-15
1.15599e-15
6.4397e-16
2.22045e-16
2.22045e-16
2.22045e-16
2.22045e-16
6.36304e-16
1.14202e-15
1.69472e-15
2.3051e-15
2.97764e-15
3.70967e-15
4.49108e-15
5.30467e-15
6.12706e-15
6.93015e-15
7.68305e-15
8.3542e-15
8.91367e-15
9.33539e-15
9.59909e-15
9.69184e-15
9.60904e-15
9.35476e-15
8.94142e-15
8.38889e-15
7.72291e-15
6.97322e-15
6.17134e-15
5.34824e-15
4.5322e-15
3.74689e-15
3.00985e-15
2.33156e-15
1.71501e-15
1.15599e-15
6.4397e-16
2.22045e-16
2.22045e-16
2.22045e-16
2.22045e-16
6.36304e-16
1.14202e-15
1.69472e-15
2.3051e-15
2.97764e-15
3.70967e-15
4.49108e-15
5.30467e-15
6.12706e-15
6.93015e-15
7.68305e-15
8.3542e-15
8.91367e-15
9.33539e-15
9.59909e-15
9.69184e-15
9.60904e-15
9.35476e-15
8.94142e-15
8.38889e-15
7.72291e-15
6.97322e-15
6.17134e-15
5.34824e-15
4.5322e-15
3.74689e-15
3.00985e-15
2.33156e-15
1.71501e-15
1.15599e-15
6.4397e-16
2.22045e-16
2.22045e-16
2.22045e-16
2.22045e-16
6.36304e-16
1.14202e-15
1.69472e-15
2.3051e-15
2.97764e-15
3.70967e-15
4.49108e-15
5.30467e-15
6.12706e-15
6.93015e-15
7.68305e-15
8.3542e-15
8.91367e-15
9.33539e-15
9.59909e-15
9.69184e-15
9.60904e-15
9.35476e-15
8.94142e-15
8.38889e-15
7.72291e-15
6.97322e-15
6.17134e-15
5.34824e-15
4.5322e-15
3.74689e-15
3.00985e-15
2.33156e-15
1.71501e-15
1.15599e-15
6.4397e-16
2.22045e-16
2.22045e-16
2.22045e-16
2.22045e-16
6.36304e-16
1.14202e-15
1.69472e-15
2.3051e-15
2.97764e-15
3.70967e-15
4.49108e-15
5.30467e-15
6.12706e-15
6.93015e-15
7.68305e-15
8.3542e-15
8.91367e-15
9.33539e-15
9.59909e-15
9.69184e-15
9.60904e-15
9.35476e-15
8.94142e-15
8.38889e-15
7.72291e-15
6.97322e-15
6.17134e-15
5.34824e-15
4.5322e-15
3.74689e-15
3.00985e-15
2.33156e-15
1.71501e-15
1.15599e-15
6.4397e-16
2.22045e-16
2.22045e-16
2.22045e-16
2.22045e-16
6.36304e-16
1.14202e-15
1.69472e-15
2.3051e-15
2.97764e-15
3.70967e-15
4.49108e-15
5.30467e-15
6.12706e-15
6.93015e-15
7.68305e-15
8.3542e-15
8.91367e-15
9.33539e-15
9.59909e-15
9.69184e-15
9.60904e-15
9.35476e-15
8.94142e-15
8.38889e-15
7.72291e-15
6.97322e-15
6.17134e-15
5.34824e-15
4.5322e-15
3.74689e-15
3.00985e-15
2.33156e-15
1.71501e-15
1.15599e-15
6.4397e-16
2.22045e-16
2.22045e-16
2.22045e-16
2.22045e-16
6.36304e-16
1.14202e-15
1.69472e-15
2.3051e-15
2.97764e-15
3.70967e-15
4.49108e-15
5.30467e-15
6.12706e-15
6.93015e-15
7.68305e-15
8.3542e-15
8.91367e-15
9.33539e-15
9.59909e-15
9.69184e-15
9.60904e-15
9.35476e-15
8.94142e-15
8.38889e-15
7.72291e-15
6.97322e-15
6.17134e-15
5.34824e-15
4.5322e-15
3.74689e-15
3.00985e-15
2.33156e-15
1.71501e-15
1.15599e-15
6.4397e-16
2.22045e-16
2.22045e-16
2.22045e-16
2.22045e-16
6.36304e-16
1.14202e-15
1.69472e-15
2.3051e-15
2.97764e-15
3.70967e-15
4.49108e-15
5.30467e-15
6.12706e-15
6.93015e-15
7.68305e-15
8.3542e-15
8.91367e-15
9.33539e-15
9.59909e-15
9.69184e-15
9.60904e-15
9.35476e-15
8.94142e-15
8.38889e-15
7.72291e-15
6.97322e-15
6.17134e-15
5.34824e-15
4.5322e-15
3.74689e-15
3.00985e-15
2.33156e-15
1.71501e-15
1.15599e-15
6.4397e-16
2.22045e-16
2.22045e-16
2.22045e-16
2.22045e-16
6.36304e-16
1.14202e-15
1.69472e-15
2.3051e-15
2.97764e-15
3.70967e-15
4.49108e-15
5.30467e-15
6.12706e-15
6.93015e-15
7.68305e-15
8.3542e-15
8.91367e-15
9.33539e-15
9.59909e-15
9.69184e-15
9.60904e-15
9.35476e-15
8.94142e-15
8.38889e-15
7.72291e-15
6.97322e-15
6.17134e-15
5.34824e-15
4.5322e-15
3.74689e-15
3.00985e-15
2.33156e-15
1.71501e-15
1.15599e-15
6.4397e-16
2.22045e-16
2.22045e-16
2.22045e-16
2.22045e-16
6.36304e-16
1.14202e-15
1.69472e-15
2.3051e-15
2.97764e-15
3.70967e-15
4.49108e-15
5.30467e-15
6.12706e-15
6.93015e-15
7.68305e-15
8.3542e-15
8.91367e-15
9.33539e-15
9.59909e-15
9.69184e-15
9.60904e-15
9.35476e-15
8.94142e-15
8.38889e-15
7.72291e-15
6.97322e-15
6.17134e-15
5.34824e-15
4.5322e-15
3.74689e-15
3.00985e-15
2.33156e-15
1.71501e-15
1.15599e-15
6.4397e-16
2.22045e-16
2.22045e-16
2.22045e-16
2.22045e-16
6.36304e-16
1.14202e-15
1.69472e-15
2.3051e-15
2.97764e-15
3.70967e-15
4.49108e-15
5.30467e-15
6.12706e-15
6.93015e-15
7.68305e-15
8.3542e-15