/*--------------------------------*- C++ -*----------------------------------*\
  =========                 |
  \\      /  F ield         | OpenFOAM: The Open Source CFD Toolbox
   \\    /   O peration     | Website:  https://openfoam.org
    \\  /    A nd           | Version:  13
     \\/     M anipulation  |
\*---------------------------------------------------------------------------*/
FoamFile
{
    format      ascii;
    class       volScalarField;
    location    "70";
    object      nut;
}
// * * * * * * * * * * * * * * * * * * * * * * * * * * * * * * * * * * * * * //

dimensions      [0 2 -1 0 0 0 0];

internalField   nonuniform List<scalar> 
315000
(
5.09402e-14
1.33359e-11
3.04153e-10
5.45341e-10
7.89554e-10
1.03699e-09
1.28802e-09
1.54292e-09
1.80184e-09
2.06472e-09
2.33126e-09
2.60095e-09
2.8731e-09
3.14683e-09
3.42109e-09
3.69474e-09
3.96652e-09
4.23509e-09
4.49908e-09
4.75706e-09
5.00761e-09
5.24929e-09
5.48068e-09
5.70041e-09
5.90714e-09
6.09959e-09
6.27656e-09
6.43691e-09
6.57962e-09
6.70377e-09
6.80853e-09
6.89323e-09
6.9573e-09
7.00032e-09
7.022e-09
7.02219e-09
7.0009e-09
6.95827e-09
6.89458e-09
6.81025e-09
6.70585e-09
6.58206e-09
6.43969e-09
6.27966e-09
6.10301e-09
5.91085e-09
5.70439e-09
5.48491e-09
5.25374e-09
5.01227e-09
4.76189e-09
4.50406e-09
4.24018e-09
3.9717e-09
3.69997e-09
3.42634e-09
3.15206e-09
2.87829e-09
2.60605e-09
2.33623e-09
2.06953e-09
1.80644e-09
1.54727e-09
1.29205e-09
1.04066e-09
7.9275e-10
5.47935e-10
3.05914e-10
1.34326e-11
5.13527e-14
1.27559e-12
3.39566e-10
7.71011e-08
1.3893e-07
2.00975e-07
2.63443e-07
3.26492e-07
3.90227e-07
4.54689e-07
5.1986e-07
5.8566e-07
6.51955e-07
7.18564e-07
7.85264e-07
8.51801e-07
9.17893e-07
9.83243e-07
1.04754e-06
1.11047e-06
1.17171e-06
1.23094e-06
1.28785e-06
1.34213e-06
1.39349e-06
1.44166e-06
1.48635e-06
1.52733e-06
1.56437e-06
1.59725e-06
1.6258e-06
1.64984e-06
1.66925e-06
1.68392e-06
1.69375e-06
1.6987e-06
1.69873e-06
1.69385e-06
1.68408e-06
1.66949e-06
1.65014e-06
1.62616e-06
1.59768e-06
1.56485e-06
1.52787e-06
1.48695e-06
1.44231e-06
1.39419e-06
1.34287e-06
1.28863e-06
1.23176e-06
1.17256e-06
1.11135e-06
1.04845e-06
9.84163e-07
9.18823e-07
8.52734e-07
7.86195e-07
7.19484e-07
6.52857e-07
5.86535e-07
5.207e-07
4.55485e-07
3.90967e-07
3.27165e-07
2.64034e-07
2.01469e-07
1.39306e-07
7.73329e-08
3.40697e-10
1.28002e-12
5.16051e-12
1.37578e-09
7.78314e-07
1.37258e-06
1.94941e-06
2.51378e-06
3.06921e-06
3.61805e-06
4.16166e-06
4.70056e-06
5.2346e-06
5.76312e-06
6.28507e-06
6.79912e-06
7.30376e-06
7.79741e-06
8.27843e-06
8.74515e-06
9.19597e-06
9.62929e-06
1.00436e-05
1.04374e-05
1.08092e-05
1.11579e-05
1.14821e-05
1.17807e-05
1.20526e-05
1.22968e-05
1.25125e-05
1.26988e-05
1.28552e-05
1.2981e-05
1.30758e-05
1.31392e-05
1.31711e-05
1.31712e-05
1.31397e-05
1.30766e-05
1.29821e-05
1.28566e-05
1.27005e-05
1.25145e-05
1.22991e-05
1.20551e-05
1.17835e-05
1.14852e-05
1.11613e-05
1.08128e-05
1.04412e-05
1.00476e-05
9.63353e-06
9.20039e-06
8.74972e-06
8.28312e-06
7.80221e-06
7.30863e-06
6.80402e-06
6.28997e-06
5.76797e-06
5.23935e-06
4.70517e-06
4.16607e-06
3.62219e-06
3.07301e-06
2.51714e-06
1.95225e-06
1.37475e-06
7.7967e-07
1.37842e-09
5.17071e-12
9.17355e-12
2.44627e-09
1.3584e-06
2.35606e-06
3.30337e-06
4.2144e-06
5.09863e-06
5.96225e-06
6.80902e-06
7.6409e-06
8.45848e-06
9.26141e-06
1.00487e-05
1.08189e-05
1.15703e-05
1.23011e-05
1.30096e-05
1.36939e-05
1.43522e-05
1.49826e-05
1.55835e-05
1.6153e-05
1.66897e-05
1.71919e-05
1.7658e-05
1.80866e-05
1.84764e-05
1.88261e-05
1.91346e-05
1.94009e-05
1.96242e-05
1.98038e-05
1.9939e-05
2.00294e-05
2.00747e-05
2.00749e-05
2.00298e-05
1.99397e-05
1.98048e-05
1.96255e-05
1.94025e-05
1.91365e-05
1.88282e-05
1.84788e-05
1.80893e-05
1.76609e-05
1.71951e-05
1.66932e-05
1.61567e-05
1.55873e-05
1.49867e-05
1.43564e-05
1.36984e-05
1.30142e-05
1.23058e-05
1.1575e-05
1.08237e-05
1.00535e-05
9.26623e-06
8.46323e-06
7.64552e-06
6.81347e-06
5.96645e-06
5.1025e-06
4.21786e-06
3.30631e-06
2.35835e-06
1.35986e-06
2.44923e-09
9.18505e-12
1.3152e-11
3.5082e-09
1.91478e-06
3.27474e-06
4.54523e-06
5.75303e-06
6.91519e-06
8.04252e-06
9.14159e-06
1.0216e-05
1.12675e-05
1.22961e-05
1.33012e-05
1.42816e-05
1.52358e-05
1.61621e-05
1.70588e-05
1.7924e-05
1.87559e-05
1.95526e-05
2.0312e-05
2.10321e-05
2.17107e-05
2.23457e-05
2.2935e-05
2.34768e-05
2.39693e-05
2.44111e-05
2.48006e-05
2.51367e-05
2.54184e-05
2.56448e-05
2.58153e-05
2.59292e-05
2.59863e-05
2.59865e-05
2.59296e-05
2.58159e-05
2.56457e-05
2.54195e-05
2.5138e-05
2.48021e-05
2.44128e-05
2.39714e-05
2.3479e-05
2.29375e-05
2.23484e-05
2.17136e-05
2.10352e-05
2.03153e-05
1.9556e-05
1.87595e-05
1.79277e-05
1.70627e-05
1.61661e-05
1.52399e-05
1.42858e-05
1.33054e-05
1.23002e-05
1.12716e-05
1.022e-05
9.14543e-06
8.04616e-06
6.91856e-06
5.75606e-06
4.54783e-06
3.27679e-06
1.91612e-06
3.51105e-09
1.31631e-11
1.67285e-11
4.46356e-09
2.4008e-06
4.06052e-06
5.59305e-06
7.03858e-06
8.42169e-06
9.75759e-06
1.10555e-05
1.23206e-05
1.35556e-05
1.47612e-05
1.59373e-05
1.70828e-05
1.81967e-05
1.92773e-05
2.03231e-05
2.13324e-05
2.2303e-05
2.32328e-05
2.41191e-05
2.49593e-05
2.57507e-05
2.6491e-05
2.71778e-05
2.78089e-05
2.83825e-05
2.88967e-05
2.93501e-05
2.97413e-05
3.0069e-05
3.03324e-05
3.05306e-05
3.06632e-05
3.07296e-05
3.07297e-05
3.06634e-05
3.05311e-05
3.0333e-05
3.00698e-05
2.97423e-05
2.93513e-05
2.88981e-05
2.8384e-05
2.78106e-05
2.71796e-05
2.64931e-05
2.5753e-05
2.49616e-05
2.41216e-05
2.32355e-05
2.23059e-05
2.13353e-05
2.03262e-05
1.92805e-05
1.81999e-05
1.70861e-05
1.59405e-05
1.47645e-05
1.35589e-05
1.23238e-05
1.10586e-05
9.76053e-06
8.42443e-06
7.04105e-06
5.59518e-06
4.06222e-06
2.40193e-06
4.46606e-09
1.67384e-11
1.96224e-11
5.23715e-09
2.78524e-06
4.67255e-06
6.40144e-06
8.02389e-06
9.57075e-06
1.10608e-05
1.25055e-05
1.39112e-05
1.52814e-05
1.66174e-05
1.79195e-05
1.9187e-05
2.04189e-05
2.16139e-05
2.27704e-05
2.38867e-05
2.49604e-05
2.59888e-05
2.69689e-05
2.78977e-05
2.87724e-05
2.95904e-05
3.03491e-05
3.10463e-05
3.16798e-05
3.22477e-05
3.27484e-05
3.31804e-05
3.35423e-05
3.38331e-05
3.4052e-05
3.41983e-05
3.42715e-05
3.42716e-05
3.41985e-05
3.40523e-05
3.38336e-05
3.35429e-05
3.31811e-05
3.27493e-05
3.22488e-05
3.1681e-05
3.10476e-05
3.03506e-05
2.9592e-05
2.87741e-05
2.78995e-05
2.69708e-05
2.59909e-05
2.49626e-05
2.3889e-05
2.27728e-05
2.16163e-05
2.04214e-05
1.91896e-05
1.79221e-05
1.662e-05
1.5284e-05
1.39137e-05
1.2508e-05
1.10632e-05
9.57295e-06
8.02588e-06
6.40317e-06
4.67393e-06
2.78618e-06
5.2393e-09
1.96309e-11
2.17403e-11
5.80376e-09
3.06208e-06
5.10865e-06
6.97392e-06
8.7188e-06
1.03788e-05
1.19753e-05
1.35212e-05
1.50238e-05
1.64873e-05
1.79134e-05
1.93026e-05
2.06544e-05
2.19681e-05
2.32424e-05
2.44759e-05
2.56666e-05
2.68118e-05
2.79085e-05
2.89535e-05
2.99438e-05
3.08762e-05
3.17481e-05
3.25568e-05
3.32998e-05
3.3975e-05
3.45803e-05
3.51139e-05
3.55742e-05
3.59599e-05
3.62699e-05
3.65032e-05
3.66591e-05
3.67372e-05
3.67372e-05
3.66592e-05
3.65034e-05
3.62703e-05
3.59604e-05
3.55748e-05
3.51146e-05
3.45811e-05
3.3976e-05
3.33009e-05
3.2558e-05
3.17494e-05
3.08776e-05
2.99453e-05
2.89552e-05
2.79102e-05
2.68136e-05
2.56685e-05
2.44779e-05
2.32445e-05
2.19702e-05
2.06566e-05
1.93048e-05
1.79157e-05
1.64895e-05
1.5026e-05
1.35233e-05
1.19773e-05
1.03807e-05
8.7205e-06
6.9754e-06
5.10983e-06
3.06289e-06
5.80567e-09
2.17479e-11
2.31535e-11
6.18216e-09
3.24491e-06
5.39474e-06
7.34811e-06
9.17195e-06
1.09049e-05
1.257e-05
1.41812e-05
1.57465e-05
1.72703e-05
1.87547e-05
2.02002e-05
2.16068e-05
2.29736e-05
2.42995e-05
2.5583e-05
2.68221e-05
2.80138e-05
2.91549e-05
3.02422e-05
3.12725e-05
3.22426e-05
3.31496e-05
3.39909e-05
3.47639e-05
3.54663e-05
3.60959e-05
3.66511e-05
3.713e-05
3.75313e-05
3.78537e-05
3.80964e-05
3.82586e-05
3.83399e-05
3.83399e-05
3.82588e-05
3.80967e-05
3.78541e-05
3.75317e-05
3.71306e-05
3.66518e-05
3.60967e-05
3.54672e-05
3.47649e-05
3.3992e-05
3.31508e-05
3.22439e-05
3.12739e-05
3.02438e-05
2.91566e-05
2.80155e-05
2.68239e-05
2.55849e-05
2.43014e-05
2.29756e-05
2.16088e-05
2.02023e-05
1.87568e-05
1.72724e-05
1.57486e-05
1.41832e-05
1.25719e-05
1.09066e-05
9.17353e-06
7.34948e-06
5.39585e-06
3.24567e-06
6.18398e-09
2.31608e-11
2.40203e-11
6.41445e-09
3.3564e-06
5.56853e-06
7.57495e-06
9.44637e-06
1.12233e-05
1.29299e-05
1.45805e-05
1.61837e-05
1.77441e-05
1.92638e-05
2.07436e-05
2.21834e-05
2.35825e-05
2.49399e-05
2.6254e-05
2.75226e-05
2.87427e-05
2.9911e-05
3.10241e-05
3.20788e-05
3.3072e-05
3.40005e-05
3.48618e-05
3.56531e-05
3.63722e-05
3.70169e-05
3.75852e-05
3.80755e-05
3.84864e-05
3.88165e-05
3.9065e-05
3.92311e-05
3.93143e-05
3.93144e-05
3.92313e-05
3.90653e-05
3.88169e-05
3.84869e-05
3.80761e-05
3.75859e-05
3.70177e-05
3.63731e-05
3.56542e-05
3.48629e-05
3.40018e-05
3.30733e-05
3.20803e-05
3.10257e-05
2.99127e-05
2.87445e-05
2.75244e-05
2.62559e-05
2.49419e-05
2.35845e-05
2.21855e-05
2.07457e-05
1.92659e-05
1.77462e-05
1.61858e-05
1.45825e-05
1.29317e-05
1.1225e-05
9.44796e-06
7.57632e-06
5.56963e-06
3.35715e-06
6.41627e-09
2.40275e-11
2.45123e-11
6.54643e-09
3.41952e-06
5.66674e-06
7.70304e-06
9.60129e-06
1.1403e-05
1.31331e-05
1.48061e-05
1.64308e-05
1.80119e-05
1.95517e-05
2.10511e-05
2.25098e-05
2.39274e-05
2.53028e-05
2.66345e-05
2.792e-05
2.91564e-05
3.03403e-05
3.14683e-05
3.2537e-05
3.35434e-05
3.44844e-05
3.53571e-05
3.6159e-05
3.68877e-05
3.75411e-05
3.8117e-05
3.86139e-05
3.90303e-05
3.93649e-05
3.96167e-05
3.9785e-05
3.98694e-05
3.98694e-05
3.97852e-05
3.9617e-05
3.93653e-05
3.90308e-05
3.86146e-05
3.81178e-05
3.7542e-05
3.68888e-05
3.61602e-05
3.53584e-05
3.44857e-05
3.35449e-05
3.25386e-05
3.147e-05
3.03421e-05
2.91583e-05
2.79219e-05
2.66365e-05
2.53049e-05
2.39296e-05
2.2512e-05
2.10532e-05
1.95539e-05
1.80141e-05
1.64329e-05
1.48082e-05
1.3135e-05
1.14049e-05
9.60293e-06
7.70446e-06
5.66788e-06
3.42029e-06
6.5483e-09
2.45198e-11
2.47723e-11
6.61624e-09
3.45286e-06
5.71857e-06
7.77065e-06
9.68307e-06
1.1498e-05
1.32404e-05
1.49254e-05
1.65615e-05
1.81537e-05
1.97043e-05
2.12141e-05
2.26831e-05
2.41106e-05
2.54957e-05
2.68367e-05
2.81314e-05
2.93766e-05
3.05689e-05
3.17049e-05
3.27813e-05
3.37948e-05
3.47425e-05
3.56215e-05
3.64291e-05
3.7163e-05
3.7821e-05
3.84011e-05
3.89016e-05
3.9321e-05
3.9658e-05
3.99116e-05
4.00812e-05
4.01661e-05
4.01662e-05
4.00814e-05
3.9912e-05
3.96584e-05
3.93216e-05
3.89023e-05
3.8402e-05
3.7822e-05
3.71641e-05
3.64303e-05
3.56228e-05
3.47439e-05
3.37964e-05
3.2783e-05
3.17067e-05
3.05708e-05
2.93786e-05
2.81335e-05
2.68389e-05
2.54979e-05
2.41128e-05
2.26853e-05
2.12164e-05
1.97066e-05
1.8156e-05
1.65638e-05
1.49275e-05
1.32425e-05
1.14999e-05
9.68478e-06
7.77213e-06
5.71976e-06
3.45367e-06
6.61818e-09
2.47801e-11
2.49009e-11
6.65079e-09
3.46935e-06
5.74422e-06
7.80411e-06
9.72358e-06
1.1545e-05
1.32937e-05
1.49846e-05
1.66265e-05
1.82242e-05
1.97802e-05
2.12953e-05
2.27694e-05
2.4202e-05
2.55919e-05
2.69378e-05
2.82371e-05
2.94867e-05
3.06833e-05
3.18234e-05
3.29037e-05
3.39208e-05
3.48719e-05
3.57541e-05
3.65647e-05
3.73012e-05
3.79616e-05
3.85438e-05
3.90461e-05
3.9467e-05
3.98053e-05
4.00599e-05
4.023e-05
4.03153e-05
4.03153e-05
4.02302e-05
4.00602e-05
3.98058e-05
3.94677e-05
3.90469e-05
3.85447e-05
3.79627e-05
3.73024e-05
3.65659e-05
3.57555e-05
3.48735e-05
3.39225e-05
3.29054e-05
3.18253e-05
3.06853e-05
2.94888e-05
2.82392e-05
2.694e-05
2.55942e-05
2.42043e-05
2.27718e-05
2.12977e-05
1.97826e-05
1.82266e-05
1.66288e-05
1.49868e-05
1.32958e-05
1.1547e-05
9.72534e-06
7.80563e-06
5.74544e-06
3.47019e-06
6.65278e-09
2.49088e-11
2.49606e-11
6.66685e-09
3.47702e-06
5.75615e-06
7.81969e-06
9.74245e-06
1.1567e-05
1.33185e-05
1.50122e-05
1.66569e-05
1.82572e-05
1.98158e-05
2.13333e-05
2.28099e-05
2.42448e-05
2.56372e-05
2.69853e-05
2.82868e-05
2.95386e-05
3.07372e-05
3.18793e-05
3.29614e-05
3.39803e-05
3.4933e-05
3.58167e-05
3.66287e-05
3.73666e-05
3.80281e-05
3.86113e-05
3.91145e-05
3.95361e-05
3.9875e-05
4.013e-05
4.03005e-05
4.03858e-05
4.03859e-05
4.03007e-05
4.01304e-05
3.98755e-05
3.95368e-05
3.91153e-05
3.86122e-05
3.80292e-05
3.73678e-05
3.663e-05
3.58182e-05
3.49346e-05
3.3982e-05
3.29632e-05
3.18812e-05
3.07393e-05
2.95407e-05
2.8289e-05
2.69876e-05
2.56395e-05
2.42472e-05
2.28123e-05
2.13358e-05
1.98182e-05
1.82596e-05
1.66592e-05
1.50145e-05
1.33207e-05
1.1569e-05
9.74425e-06
7.82124e-06
5.7574e-06
3.47787e-06
6.66888e-09
2.49687e-11
2.49867e-11
6.67388e-09
3.48039e-06
5.76139e-06
7.82653e-06
9.75074e-06
1.15766e-05
1.33295e-05
1.50244e-05
1.66702e-05
1.82718e-05
1.98315e-05
2.13502e-05
2.28278e-05
2.42638e-05
2.56572e-05
2.70063e-05
2.83089e-05
2.95616e-05
3.07612e-05
3.19041e-05
3.2987e-05
3.40067e-05
3.49602e-05
3.58446e-05
3.66572e-05
3.73956e-05
3.80577e-05
3.86414e-05
3.91449e-05
3.95669e-05
3.9906e-05
4.01612e-05
4.03318e-05
4.04173e-05
4.04174e-05
4.0332e-05
4.01616e-05
3.99065e-05
3.95676e-05
3.91457e-05
3.86423e-05
3.80588e-05
3.73968e-05
3.66585e-05
3.58461e-05
3.49618e-05
3.40085e-05
3.29889e-05
3.19061e-05
3.07633e-05
2.95638e-05
2.83111e-05
2.70087e-05
2.56596e-05
2.42663e-05
2.28303e-05
2.13526e-05
1.9834e-05
1.82742e-05
1.66726e-05
1.50267e-05
1.33317e-05
1.15787e-05
9.75256e-06
7.8281e-06
5.76265e-06
3.48125e-06
6.67594e-09
2.49949e-11
2.49975e-11
6.6768e-09
3.48178e-06
5.76356e-06
7.82937e-06
9.75418e-06
1.15806e-05
1.3334e-05
1.50295e-05
1.66758e-05
1.82779e-05
1.9838e-05
2.13572e-05
2.28353e-05
2.42718e-05
2.56656e-05
2.70152e-05
2.83181e-05
2.95713e-05
3.07712e-05
3.19145e-05
3.29978e-05
3.40178e-05
3.49716e-05
3.58563e-05
3.66691e-05
3.74078e-05
3.80701e-05
3.8654e-05
3.91577e-05
3.95798e-05
3.9919e-05
4.01744e-05
4.0345e-05
4.04305e-05
4.04306e-05
4.03452e-05
4.01747e-05
3.99196e-05
3.95805e-05
3.91585e-05
3.86549e-05
3.80712e-05
3.74091e-05
3.66705e-05
3.58578e-05
3.49732e-05
3.40196e-05
3.29997e-05
3.19165e-05
3.07733e-05
2.95735e-05
2.83204e-05
2.70175e-05
2.5668e-05
2.42742e-05
2.28378e-05
2.13597e-05
1.98405e-05
1.82803e-05
1.66782e-05
1.50318e-05
1.33362e-05
1.15827e-05
9.75602e-06
7.83096e-06
5.76483e-06
3.48265e-06
6.67887e-09
2.50058e-11
2.50018e-11
6.67795e-09
3.48233e-06
5.76442e-06
7.83049e-06
9.75555e-06
1.15822e-05
1.33358e-05
1.50315e-05
1.6678e-05
1.82803e-05
1.98406e-05
2.136e-05
2.28383e-05
2.42749e-05
2.56689e-05
2.70187e-05
2.83218e-05
2.95751e-05
3.07752e-05
3.19187e-05
3.30021e-05
3.40223e-05
3.49762e-05
3.58609e-05
3.66739e-05
3.74127e-05
3.80751e-05
3.8659e-05
3.91628e-05
3.9585e-05
3.99243e-05
4.01796e-05
4.03503e-05
4.04358e-05
4.04359e-05
4.03505e-05
4.018e-05
3.99248e-05
3.95857e-05
3.91636e-05
3.866e-05
3.80762e-05
3.74139e-05
3.66753e-05
3.58624e-05
3.49778e-05
3.4024e-05
3.3004e-05
3.19207e-05
3.07773e-05
2.95773e-05
2.83241e-05
2.70211e-05
2.56714e-05
2.42774e-05
2.28408e-05
2.13625e-05
1.98431e-05
1.82828e-05
1.66805e-05
1.50338e-05
1.33381e-05
1.15843e-05
9.75739e-06
7.83208e-06
5.7657e-06
3.4832e-06
6.68002e-09
2.501e-11
2.50034e-11
6.67838e-09
3.48254e-06
5.76474e-06
7.83091e-06
9.75606e-06
1.15828e-05
1.33365e-05
1.50323e-05
1.66789e-05
1.82812e-05
1.98416e-05
2.13611e-05
2.28394e-05
2.42762e-05
2.56702e-05
2.702e-05
2.83232e-05
2.95766e-05
3.07767e-05
3.19202e-05
3.30037e-05
3.40239e-05
3.49779e-05
3.58627e-05
3.66757e-05
3.74146e-05
3.8077e-05
3.86609e-05
3.91648e-05
3.9587e-05
3.99262e-05
4.01816e-05
4.03523e-05
4.04378e-05
4.04379e-05
4.03525e-05
4.0182e-05
3.99268e-05
3.95876e-05
3.91656e-05
3.86619e-05
3.80781e-05
3.74158e-05
3.66771e-05
3.58642e-05
3.49795e-05
3.40257e-05
3.30056e-05
3.19223e-05
3.07789e-05
2.95788e-05
2.83255e-05
2.70224e-05
2.56726e-05
2.42786e-05
2.28419e-05
2.13636e-05
1.98441e-05
1.82837e-05
1.66813e-05
1.50346e-05
1.33387e-05
1.15849e-05
9.75791e-06
7.83251e-06
5.76602e-06
3.48341e-06
6.68046e-09
2.50117e-11
2.5004e-11
6.67854e-09
3.48262e-06
5.76486e-06
7.83107e-06
9.75625e-06
1.1583e-05
1.33368e-05
1.50326e-05
1.66792e-05
1.82815e-05
1.9842e-05
2.13614e-05
2.28398e-05
2.42766e-05
2.56707e-05
2.70205e-05
2.83237e-05
2.95771e-05
3.07773e-05
3.19208e-05
3.30043e-05
3.40246e-05
3.49785e-05
3.58634e-05
3.66764e-05
3.74153e-05
3.80777e-05
3.86617e-05
3.91655e-05
3.95877e-05
3.9927e-05
4.01823e-05
4.0353e-05
4.04385e-05
4.04386e-05
4.03533e-05
4.01827e-05
3.99275e-05
3.95884e-05
3.91663e-05
3.86626e-05
3.80788e-05
3.74165e-05
3.66778e-05
3.58649e-05
3.49802e-05
3.40263e-05
3.30062e-05
3.19228e-05
3.07794e-05
2.95793e-05
2.8326e-05
2.70229e-05
2.56731e-05
2.42791e-05
2.28423e-05
2.1364e-05
1.98445e-05
1.8284e-05
1.66816e-05
1.50349e-05
1.3339e-05
1.15851e-05
9.7581e-06
7.83266e-06
5.76614e-06
3.48349e-06
6.68062e-09
2.50122e-11
2.50042e-11
6.67859e-09
3.48264e-06
5.7649e-06
7.83112e-06
9.75631e-06
1.15831e-05
1.33369e-05
1.50326e-05
1.66793e-05
1.82817e-05
1.98421e-05
2.13616e-05
2.284e-05
2.42767e-05
2.56708e-05
2.70207e-05
2.83239e-05
2.95773e-05
3.07775e-05
3.1921e-05
3.30045e-05
3.40248e-05
3.49788e-05
3.58636e-05
3.66767e-05
3.74155e-05
3.80779e-05
3.86619e-05
3.91658e-05
3.95879e-05
3.99272e-05
4.01826e-05
4.03533e-05
4.04388e-05
4.04389e-05
4.03535e-05
4.0183e-05
3.99278e-05
3.95886e-05
3.91666e-05
3.86629e-05
3.8079e-05
3.74167e-05
3.6678e-05
3.58651e-05
3.49804e-05
3.40266e-05
3.30064e-05
3.1923e-05
3.07796e-05
2.95795e-05
2.83262e-05
2.70231e-05
2.56733e-05
2.42792e-05
2.28425e-05
2.13641e-05
1.98446e-05
1.82841e-05
1.66817e-05
1.5035e-05
1.33391e-05
1.15852e-05
9.75816e-06
7.83272e-06
5.76618e-06
3.48351e-06
6.68067e-09
2.50124e-11
2.50042e-11
6.67861e-09
3.48265e-06
5.76491e-06
7.83114e-06
9.75633e-06
1.15831e-05
1.33369e-05
1.50327e-05
1.66793e-05
1.82817e-05
1.98422e-05
2.13616e-05
2.284e-05
2.42768e-05
2.56709e-05
2.70207e-05
2.83239e-05
2.95774e-05
3.07776e-05
3.19211e-05
3.30046e-05
3.40249e-05
3.49788e-05
3.58637e-05
3.66767e-05
3.74156e-05
3.8078e-05
3.8662e-05
3.91658e-05
3.9588e-05
3.99273e-05
4.01827e-05
4.03534e-05
4.04389e-05
4.0439e-05
4.03536e-05
4.01831e-05
3.99278e-05
3.95887e-05
3.91667e-05
3.8663e-05
3.80791e-05
3.74168e-05
3.66781e-05
3.58652e-05
3.49805e-05
3.40266e-05
3.30065e-05
3.19231e-05
3.07797e-05
2.95796e-05
2.83262e-05
2.70231e-05
2.56733e-05
2.42793e-05
2.28425e-05
2.13641e-05
1.98447e-05
1.82842e-05
1.66817e-05
1.5035e-05
1.33391e-05
1.15852e-05
9.75818e-06
7.83273e-06
5.76619e-06
3.48352e-06
6.68069e-09
2.50125e-11
2.50043e-11
6.67861e-09
3.48265e-06
5.76491e-06
7.83114e-06
9.75634e-06
1.15832e-05
1.33369e-05
1.50327e-05
1.66793e-05
1.82817e-05
1.98422e-05
2.13616e-05
2.284e-05
2.42768e-05
2.56709e-05
2.70208e-05
2.8324e-05
2.95774e-05
3.07776e-05
3.19211e-05
3.30046e-05
3.40249e-05
3.49789e-05
3.58637e-05
3.66768e-05
3.74156e-05
3.8078e-05
3.8662e-05
3.91659e-05
3.95881e-05
3.99274e-05
4.01827e-05
4.03534e-05
4.04389e-05
4.0439e-05
4.03536e-05
4.01831e-05
3.99279e-05
3.95887e-05
3.91667e-05
3.8663e-05
3.80791e-05
3.74169e-05
3.66782e-05
3.58652e-05
3.49805e-05
3.40267e-05
3.30065e-05
3.19231e-05
3.07797e-05
2.95796e-05
2.83263e-05
2.70231e-05
2.56733e-05
2.42793e-05
2.28425e-05
2.13642e-05
1.98447e-05
1.82842e-05
1.66818e-05
1.5035e-05
1.33391e-05
1.15852e-05
9.75819e-06
7.83274e-06
5.7662e-06
3.48352e-06
6.68069e-09
2.50125e-11
2.50043e-11
6.67862e-09
3.48265e-06
5.76492e-06
7.83114e-06
9.75634e-06
1.15832e-05
1.33369e-05
1.50327e-05
1.66793e-05
1.82817e-05
1.98422e-05
2.13616e-05
2.28401e-05
2.42768e-05
2.56709e-05
2.70208e-05
2.8324e-05
2.95774e-05
3.07776e-05
3.19211e-05
3.30046e-05
3.40249e-05
3.49789e-05
3.58637e-05
3.66768e-05
3.74156e-05
3.8078e-05
3.8662e-05
3.91659e-05
3.95881e-05
3.99274e-05
4.01827e-05
4.03534e-05
4.04389e-05
4.0439e-05
4.03536e-05
4.01831e-05
3.99279e-05
3.95887e-05
3.91667e-05
3.8663e-05
3.80791e-05
3.74169e-05
3.66782e-05
3.58652e-05
3.49805e-05
3.40267e-05
3.30065e-05
3.19231e-05
3.07797e-05
2.95796e-05
2.83263e-05
2.70231e-05
2.56733e-05
2.42793e-05
2.28426e-05
2.13642e-05
1.98447e-05
1.82842e-05
1.66818e-05
1.5035e-05
1.33391e-05
1.15852e-05
9.75819e-06
7.83274e-06
5.7662e-06
3.48353e-06
6.68069e-09
2.50125e-11
2.50043e-11
6.67862e-09
3.48265e-06
5.76492e-06
7.83114e-06
9.75634e-06
1.15832e-05
1.33369e-05
1.50327e-05
1.66793e-05
1.82817e-05
1.98422e-05
2.13616e-05
2.28401e-05
2.42768e-05
2.56709e-05
2.70208e-05
2.8324e-05
2.95774e-05
3.07776e-05
3.19211e-05
3.30046e-05
3.40249e-05
3.49789e-05
3.58637e-05
3.66768e-05
3.74156e-05
3.8078e-05
3.8662e-05
3.91659e-05
3.95881e-05
3.99274e-05
4.01827e-05
4.03534e-05
4.04389e-05
4.0439e-05
4.03536e-05
4.01831e-05
3.99279e-05
3.95887e-05
3.91667e-05
3.8663e-05
3.80791e-05
3.74169e-05
3.66782e-05
3.58652e-05
3.49805e-05
3.40267e-05
3.30065e-05
3.19231e-05
3.07797e-05
2.95796e-05
2.83263e-05
2.70231e-05
2.56734e-05
2.42793e-05
2.28426e-05
2.13642e-05
1.98447e-05
1.82842e-05
1.66818e-05
1.5035e-05
1.33391e-05
1.15852e-05
9.75819e-06
7.83274e-06
5.7662e-06
3.48353e-06
6.6807e-09
2.50125e-11
2.50043e-11
6.67862e-09
3.48265e-06
5.76492e-06
7.83114e-06
9.75634e-06
1.15832e-05
1.33369e-05
1.50327e-05
1.66793e-05
1.82817e-05
1.98422e-05
2.13616e-05
2.28401e-05
2.42768e-05
2.56709e-05
2.70208e-05
2.8324e-05
2.95774e-05
3.07776e-05
3.19211e-05
3.30046e-05
3.40249e-05
3.49789e-05
3.58637e-05
3.66768e-05
3.74156e-05
3.8078e-05
3.8662e-05
3.91659e-05
3.95881e-05
3.99274e-05
4.01827e-05
4.03534e-05
4.04389e-05
4.0439e-05
4.03536e-05
4.01831e-05
3.99279e-05
3.95887e-05
3.91667e-05
3.8663e-05
3.80791e-05
3.74169e-05
3.66782e-05
3.58652e-05
3.49805e-05
3.40267e-05
3.30065e-05
3.19231e-05
3.07797e-05
2.95796e-05
2.83263e-05
2.70231e-05
2.56734e-05
2.42793e-05
2.28426e-05
2.13642e-05
1.98447e-05
1.82842e-05
1.66818e-05
1.5035e-05
1.33391e-05
1.15852e-05
9.75819e-06
7.83274e-06
5.7662e-06
3.48353e-06
6.6807e-09
2.50125e-11
2.50043e-11
6.67862e-09
3.48265e-06
5.76492e-06
7.83114e-06
9.75634e-06
1.15832e-05
1.33369e-05
1.50327e-05
1.66793e-05
1.82817e-05
1.98422e-05
2.13616e-05
2.28401e-05
2.42768e-05
2.56709e-05
2.70208e-05
2.8324e-05
2.95774e-05
3.07776e-05
3.19211e-05
3.30046e-05
3.40249e-05
3.49789e-05
3.58637e-05
3.66768e-05
3.74156e-05
3.8078e-05
3.8662e-05
3.91659e-05
3.95881e-05
3.99274e-05
4.01827e-05
4.03534e-05
4.04389e-05
4.0439e-05
4.03536e-05
4.01831e-05
3.99279e-05
3.95887e-05
3.91667e-05
3.8663e-05
3.80791e-05
3.74169e-05
3.66782e-05
3.58652e-05
3.49805e-05
3.40267e-05
3.30065e-05
3.19231e-05
3.07797e-05
2.95796e-05
2.83263e-05
2.70231e-05
2.56734e-05
2.42793e-05
2.28426e-05
2.13642e-05
1.98447e-05
1.82842e-05
1.66818e-05
1.5035e-05
1.33391e-05
1.15852e-05
9.75819e-06
7.83274e-06
5.7662e-06
3.48353e-06
6.6807e-09
2.50125e-11
2.50043e-11
6.67862e-09
3.48265e-06
5.76492e-06
7.83114e-06
9.75634e-06
1.15832e-05
1.33369e-05
1.50327e-05
1.66793e-05
1.82817e-05
1.98422e-05
2.13616e-05
2.28401e-05
2.42768e-05
2.56709e-05
2.70208e-05
2.8324e-05
2.95774e-05
3.07776e-05
3.19211e-05
3.30046e-05
3.40249e-05
3.49789e-05
3.58637e-05
3.66768e-05
3.74156e-05
3.8078e-05
3.8662e-05
3.91659e-05
3.95881e-05
3.99274e-05
4.01827e-05
4.03534e-05
4.04389e-05
4.0439e-05
4.03536e-05
4.01831e-05
3.99279e-05
3.95887e-05
3.91667e-05
3.8663e-05
3.80791e-05
3.74169e-05
3.66782e-05
3.58652e-05
3.49805e-05
3.40267e-05
3.30065e-05
3.19231e-05
3.07797e-05
2.95796e-05
2.83263e-05
2.70231e-05
2.56734e-05
2.42793e-05
2.28426e-05
2.13642e-05
1.98447e-05
1.82842e-05
1.66818e-05
1.5035e-05
1.33391e-05
1.15852e-05
9.75819e-06
7.83274e-06
5.7662e-06
3.48353e-06
6.6807e-09
2.50125e-11
2.50043e-11
6.67862e-09
3.48265e-06
5.76492e-06
7.83114e-06
9.75634e-06
1.15832e-05
1.33369e-05
1.50327e-05
1.66793e-05
1.82817e-05
1.98422e-05
2.13616e-05
2.28401e-05
2.42768e-05
2.56709e-05
2.70208e-05
2.8324e-05
2.95774e-05
3.07776e-05
3.19211e-05
3.30046e-05
3.40249e-05
3.49789e-05
3.58637e-05
3.66768e-05
3.74156e-05
3.8078e-05
3.8662e-05
3.91659e-05
3.95881e-05
3.99274e-05
4.01827e-05
4.03534e-05
4.04389e-05
4.0439e-05
4.03536e-05
4.01831e-05
3.99279e-05
3.95887e-05
3.91667e-05
3.8663e-05
3.80791e-05
3.74169e-05
3.66782e-05
3.58652e-05
3.49805e-05
3.40267e-05
3.30065e-05
3.19231e-05
3.07797e-05
2.95796e-05
2.83263e-05
2.70231e-05
2.56734e-05
2.42793e-05
2.28426e-05
2.13642e-05
1.98447e-05
1.82842e-05
1.66818e-05
1.5035e-05
1.33391e-05
1.15852e-05
9.75819e-06
7.83274e-06
5.7662e-06
3.48353e-06
6.6807e-09
2.50125e-11
2.50043e-11
6.67862e-09
3.48265e-06
5.76492e-06
7.83114e-06
9.75634e-06
1.15832e-05
1.33369e-05
1.50327e-05
1.66793e-05
1.82817e-05
1.98422e-05
2.13616e-05
2.28401e-05
2.42768e-05
2.56709e-05
2.70208e-05
2.8324e-05
2.95774e-05
3.07776e-05
3.19211e-05
3.30046e-05
3.40249e-05
3.49789e-05
3.58637e-05
3.66768e-05
3.74156e-05
3.8078e-05
3.8662e-05
3.91659e-05
3.95881e-05
3.99274e-05
4.01827e-05
4.03534e-05
4.04389e-05
4.0439e-05
4.03536e-05
4.01831e-05
3.99279e-05
3.95887e-05
3.91667e-05
3.8663e-05
3.80791e-05
3.74169e-05
3.66782e-05
3.58652e-05
3.49805e-05
3.40267e-05
3.30065e-05
3.19231e-05
3.07797e-05
2.95796e-05
2.83263e-05
2.70231e-05
2.56734e-05
2.42793e-05
2.28426e-05
2.13642e-05
1.98447e-05
1.82842e-05
1.66818e-05
1.5035e-05
1.33391e-05
1.15852e-05
9.75819e-06
7.83274e-06
5.7662e-06
3.48353e-06
6.6807e-09
2.50125e-11
2.50043e-11
6.67862e-09
3.48265e-06
5.76492e-06
7.83114e-06
9.75634e-06
1.15832e-05
1.33369e-05
1.50327e-05
1.66793e-05
1.82817e-05
1.98422e-05
2.13616e-05
2.28401e-05
2.42768e-05
2.56709e-05
2.70208e-05
2.8324e-05
2.95774e-05
3.07776e-05
3.19211e-05
3.30046e-05
3.40249e-05
3.49789e-05
3.58637e-05
3.66768e-05
3.74156e-05
3.8078e-05
3.8662e-05
3.91659e-05
3.95881e-05
3.99274e-05
4.01827e-05
4.03534e-05
4.04389e-05
4.0439e-05
4.03536e-05
4.01831e-05
3.99279e-05
3.95887e-05
3.91667e-05
3.8663e-05
3.80791e-05
3.74169e-05
3.66782e-05
3.58652e-05
3.49805e-05
3.40267e-05
3.30065e-05
3.19231e-05
3.07797e-05
2.95796e-05
2.83263e-05
2.70231e-05
2.56734e-05
2.42793e-05
2.28426e-05
2.13642e-05
1.98447e-05
1.82842e-05
1.66818e-05
1.5035e-05
1.33391e-05
1.15852e-05
9.75819e-06
7.83274e-06
5.7662e-06
3.48353e-06
6.6807e-09
2.50125e-11
2.50043e-11
6.67862e-09
3.48265e-06
5.76492e-06
7.83114e-06
9.75634e-06
1.15832e-05
1.33369e-05
1.50327e-05
1.66793e-05
1.82817e-05
1.98422e-05
2.13616e-05
2.28401e-05
2.42768e-05
2.56709e-05
2.70208e-05
2.8324e-05
2.95774e-05
3.07776e-05
3.19211e-05
3.30046e-05
3.40249e-05
3.49789e-05
3.58637e-05
3.66768e-05
3.74156e-05
3.8078e-05
3.8662e-05
3.91659e-05
3.95881e-05
3.99274e-05
4.01827e-05
4.03534e-05
4.04389e-05
4.0439e-05
4.03536e-05
4.01831e-05
3.99279e-05
3.95887e-05
3.91667e-05
3.8663e-05
3.80791e-05
3.74169e-05
3.66782e-05
3.58652e-05
3.49805e-05
3.40267e-05
3.30065e-05
3.19231e-05
3.07797e-05
2.95796e-05
2.83263e-05
2.70231e-05
2.56734e-05
2.42793e-05
2.28426e-05
2.13642e-05
1.98447e-05
1.82842e-05
1.66818e-05
1.5035e-05
1.33391e-05
1.15852e-05
9.75819e-06
7.83274e-06
5.7662e-06
3.48353e-06
6.6807e-09
2.50125e-11
2.50043e-11
6.67862e-09
3.48265e-06
5.76492e-06
7.83114e-06
9.75634e-06
1.15832e-05
1.33369e-05
1.50327e-05
1.66793e-05
1.82817e-05
1.98422e-05
2.13616e-05
2.28401e-05
2.42768e-05
2.56709e-05
2.70208e-05
2.8324e-05
2.95774e-05
3.07776e-05
3.19211e-05
3.30046e-05
3.40249e-05
3.49789e-05
3.58637e-05
3.66768e-05
3.74156e-05
3.8078e-05
3.8662e-05
3.91659e-05
3.95881e-05
3.99274e-05
4.01827e-05
4.03534e-05
4.04389e-05
4.0439e-05
4.03536e-05
4.01831e-05
3.99279e-05
3.95887e-05
3.91667e-05
3.8663e-05
3.80791e-05
3.74169e-05
3.66782e-05
3.58652e-05
3.49805e-05
3.40267e-05
3.30065e-05
3.19231e-05
3.07797e-05
2.95796e-05
2.83263e-05
2.70231e-05
2.56734e-05
2.42793e-05
2.28426e-05
2.13642e-05
1.98447e-05
1.82842e-05
1.66818e-05
1.5035e-05
1.33391e-05
1.15852e-05
9.75819e-06
7.83274e-06
5.7662e-06
3.48353e-06
6.6807e-09
2.50125e-11
2.50043e-11
6.67862e-09
3.48265e-06
5.76492e-06
7.83114e-06
9.75634e-06
1.15832e-05
1.33369e-05
1.50327e-05
1.66793e-05
1.82817e-05
1.98422e-05
2.13616e-05
2.28401e-05
2.42768e-05
2.56709e-05
2.70208e-05
2.8324e-05
2.95774e-05
3.07776e-05
3.19211e-05
3.30046e-05
3.40249e-05
3.49789e-05
3.58637e-05
3.66768e-05
3.74156e-05
3.8078e-05
3.8662e-05
3.91659e-05
3.95881e-05
3.99274e-05
4.01827e-05
4.03534e-05
4.04389e-05
4.0439e-05
4.03536e-05
4.01831e-05
3.99279e-05
3.95887e-05
3.91667e-05
3.8663e-05
3.80791e-05
3.74169e-05
3.66782e-05
3.58652e-05
3.49805e-05
3.40267e-05
3.30065e-05
3.19231e-05
3.07797e-05
2.95796e-05
2.83263e-05
2.70231e-05
2.56734e-05
2.42793e-05
2.28426e-05
2.13642e-05
1.98447e-05
1.82842e-05
1.66818e-05
1.5035e-05
1.33391e-05
1.15852e-05
9.75819e-06
7.83274e-06
5.7662e-06
3.48353e-06
6.6807e-09
2.50125e-11
2.50043e-11
6.67862e-09
3.48265e-06
5.76492e-06
7.83114e-06
9.75634e-06
1.15832e-05
1.33369e-05
1.50327e-05
1.66793e-05
1.82817e-05
1.98422e-05
2.13616e-05
2.28401e-05
2.42768e-05
2.56709e-05
2.70208e-05
2.8324e-05
2.95774e-05
3.07776e-05
3.19211e-05
3.30046e-05
3.40249e-05
3.49789e-05
3.58637e-05
3.66768e-05
3.74156e-05
3.8078e-05
3.8662e-05
3.91659e-05
3.95881e-05
3.99274e-05
4.01827e-05
4.03534e-05
4.04389e-05
4.0439e-05
4.03536e-05
4.01831e-05
3.99279e-05
3.95887e-05
3.91667e-05
3.8663e-05
3.80791e-05
3.74169e-05
3.66782e-05
3.58652e-05
3.49805e-05
3.40267e-05
3.30065e-05
3.19231e-05
3.07797e-05
2.95796e-05
2.83263e-05
2.70231e-05
2.56734e-05
2.42793e-05
2.28426e-05
2.13642e-05
1.98447e-05
1.82842e-05
1.66818e-05
1.5035e-05
1.33391e-05
1.15852e-05
9.75819e-06
7.83274e-06
5.7662e-06
3.48353e-06
6.6807e-09
2.50125e-11
2.50043e-11
6.67862e-09
3.48265e-06
5.76492e-06
7.83114e-06
9.75634e-06
1.15832e-05
1.33369e-05
1.50327e-05
1.66793e-05
1.82817e-05
1.98422e-05
2.13616e-05
2.28401e-05
2.42768e-05
2.56709e-05
2.70208e-05
2.8324e-05
2.95774e-05
3.07776e-05
3.19211e-05
3.30046e-05
3.40249e-05
3.49789e-05
3.58637e-05
3.66768e-05
3.74156e-05
3.8078e-05
3.8662e-05
3.91659e-05
3.95881e-05
3.99274e-05
4.01827e-05
4.03534e-05
4.04389e-05
4.0439e-05
4.03536e-05
4.01831e-05
3.99279e-05
3.95887e-05
3.91667e-05
3.8663e-05
3.80791e-05
3.74169e-05
3.66782e-05
3.58652e-05
3.49805e-05
3.40267e-05
3.30065e-05
3.19231e-05
3.07797e-05
2.95796e-05
2.83263e-05
2.70231e-05
2.56734e-05
2.42793e-05
2.28426e-05
2.13642e-05
1.98447e-05
1.82842e-05
1.66818e-05
1.5035e-05
1.33391e-05
1.15852e-05
9.75819e-06
7.83274e-06
5.7662e-06
3.48353e-06
6.6807e-09
2.50125e-11
2.50043e-11
6.67862e-09
3.48265e-06
5.76492e-06
7.83114e-06
9.75634e-06
1.15832e-05
1.33369e-05
1.50327e-05
1.66793e-05
1.82817e-05
1.98422e-05
2.13616e-05
2.28401e-05
2.42768e-05
2.56709e-05
2.70208e-05
2.8324e-05