/*--------------------------------*- C++ -*----------------------------------*\
  =========                 |
  \\      /  F ield         | OpenFOAM: The Open Source CFD Toolbox
   \\    /   O peration     | Website:  https://openfoam.org
    \\  /    A nd           | Version:  13
     \\/     M anipulation  |
\*---------------------------------------------------------------------------*/
FoamFile
{
    format      ascii;
    class       volScalarField;
    location    "152.5";
    object      nut;
}
// * * * * * * * * * * * * * * * * * * * * * * * * * * * * * * * * * * * * * //

dimensions      [0 2 -1 0 0 0 0];

internalField   nonuniform List<scalar> 
315000
(
8.28376e-16
2.16993e-13
4.95292e-12
8.89401e-12
1.29052e-11
1.6997e-11
2.11823e-11
2.5472e-11
2.98744e-11
3.43936e-11
3.90292e-11
4.37765e-11
4.86263e-11
5.3565e-11
5.85748e-11
6.36344e-11
6.87192e-11
7.38014e-11
7.88512e-11
8.38369e-11
8.87255e-11
9.34831e-11
9.80757e-11
1.0247e-10
1.06632e-10
1.1053e-10
1.14134e-10
1.17416e-10
1.20349e-10
1.2291e-10
1.25078e-10
1.26836e-10
1.28169e-10
1.29066e-10
1.2952e-10
1.29527e-10
1.29088e-10
1.28205e-10
1.26886e-10
1.25142e-10
1.22987e-10
1.20438e-10
1.17517e-10
1.14246e-10
1.10651e-10
1.06762e-10
1.02607e-10
9.82198e-11
9.36325e-11
8.8879e-11
8.39933e-11
7.90092e-11
7.39597e-11
6.88765e-11
6.37897e-11
5.87268e-11
5.37126e-11
4.87685e-11
4.39124e-11
3.91578e-11
3.45141e-11
2.9986e-11
2.55739e-11
2.12735e-11
1.70766e-11
1.29718e-11
8.9457e-12
4.98633e-12
2.18742e-13
8.35693e-16
2.07406e-14
5.52457e-12
1.2587e-09
2.27813e-09
3.31156e-09
4.36423e-09
5.44056e-09
6.544e-09
7.67695e-09
8.84061e-09
1.0035e-08
1.12589e-08
1.251e-08
1.37848e-08
1.50786e-08
1.63858e-08
1.77e-08
1.90141e-08
2.03201e-08
2.16099e-08
2.28748e-08
2.4106e-08
2.52946e-08
2.64319e-08
2.75093e-08
2.85185e-08
2.94515e-08
3.03011e-08
3.10604e-08
3.17234e-08
3.22846e-08
3.27395e-08
3.30844e-08
3.33165e-08
3.34338e-08
3.34353e-08
3.33212e-08
3.30923e-08
3.27504e-08
3.22985e-08
3.17401e-08
3.10798e-08
3.0323e-08
2.94758e-08
2.85448e-08
2.75376e-08
2.64618e-08
2.53259e-08
2.41384e-08
2.2908e-08
2.16437e-08
2.03542e-08
1.90482e-08
1.77338e-08
1.64191e-08
1.5111e-08
1.38162e-08
1.25402e-08
1.12875e-08
1.00619e-08
8.86554e-09
7.69975e-09
6.56449e-09
5.45853e-09
4.37947e-09
3.32381e-09
2.28709e-09
1.264e-09
5.5494e-12
2.08365e-14
8.3596e-14
2.22996e-11
1.29517e-08
2.34626e-08
3.4131e-08
4.50215e-08
5.61892e-08
6.76787e-08
7.95217e-08
9.17365e-08
1.04327e-07
1.17282e-07
1.30576e-07
1.44171e-07
1.58013e-07
1.72039e-07
1.86175e-07
2.00338e-07
2.14439e-07
2.28383e-07
2.42073e-07
2.55409e-07
2.68292e-07
2.80624e-07
2.92309e-07
3.03257e-07
3.1338e-07
3.22598e-07
3.30836e-07
3.38028e-07
3.44115e-07
3.49049e-07
3.52788e-07
3.55303e-07
3.56572e-07
3.56586e-07
3.55344e-07
3.52856e-07
3.49143e-07
3.44234e-07
3.38171e-07
3.31002e-07
3.22786e-07
3.13588e-07
3.03483e-07
2.92551e-07
2.80879e-07
2.68559e-07
2.55685e-07
2.42356e-07
2.28671e-07
2.14729e-07
2.00627e-07
1.86461e-07
1.72319e-07
1.58285e-07
1.44433e-07
1.30826e-07
1.17518e-07
1.04547e-07
9.1939e-08
7.97051e-08
6.78416e-08
5.63304e-08
4.51394e-08
3.42243e-08
2.35295e-08
1.29903e-08
2.23692e-11
8.3862e-14
1.58656e-13
4.23255e-11
2.45805e-08
4.45457e-08
6.48568e-08
8.56616e-08
1.07089e-07
1.29244e-07
1.52204e-07
1.76019e-07
2.00705e-07
2.26245e-07
2.5259e-07
2.7966e-07
3.07343e-07
3.35502e-07
3.63975e-07
3.92581e-07
4.21125e-07
4.49404e-07
4.77208e-07
5.04325e-07
5.30544e-07
5.55661e-07
5.79474e-07
6.01791e-07
6.22434e-07
6.41234e-07
6.58037e-07
6.72707e-07
6.85124e-07
6.95186e-07
7.02811e-07
7.07937e-07
7.10521e-07
7.10543e-07
7.08003e-07
7.0292e-07
6.95337e-07
6.85316e-07
6.72939e-07
6.58306e-07
6.41537e-07
6.22769e-07
6.02155e-07
5.79863e-07
5.56072e-07
5.30974e-07
5.04768e-07
4.77662e-07
4.49865e-07
4.21588e-07
3.93042e-07
3.6443e-07
3.35948e-07
3.07776e-07
2.80075e-07
2.52985e-07
2.26616e-07
2.01049e-07
1.76335e-07
1.52489e-07
1.29495e-07
1.07305e-07
8.58413e-08
6.4998e-08
4.46464e-08
2.46382e-08
4.24293e-11
1.59053e-13
2.46378e-13
6.57319e-11
3.81647e-08
6.91705e-08
1.00756e-07
1.33179e-07
1.66663e-07
2.01394e-07
2.37509e-07
2.75095e-07
3.14185e-07
3.54756e-07
3.96727e-07
4.39963e-07
4.84278e-07
5.29438e-07
5.75169e-07
6.21172e-07
6.67124e-07
7.12695e-07
7.57544e-07
8.0133e-07
8.43713e-07
8.84353e-07
9.22922e-07
9.59101e-07
9.92588e-07
1.0231e-06
1.05039e-06
1.07422e-06
1.0944e-06
1.11075e-06
1.12315e-06
1.13147e-06
1.13567e-06
1.1357e-06
1.13156e-06
1.12329e-06
1.11095e-06
1.09465e-06
1.07453e-06
1.05074e-06
1.0235e-06
9.93027e-07
9.59577e-07
9.23431e-07
8.84891e-07
8.44274e-07
8.0191e-07
7.58137e-07
7.13296e-07
6.67729e-07
6.21774e-07
5.75764e-07
5.30019e-07
4.84842e-07
4.40505e-07
3.97241e-07
3.55239e-07
3.14633e-07
2.75505e-07
2.37878e-07
2.01719e-07
1.66942e-07
1.3341e-07
1.00937e-07
6.92991e-08
3.82384e-08
6.58645e-11
2.46885e-13
3.42615e-13
9.14122e-11
5.30561e-08
9.61434e-08
1.40055e-07
1.85172e-07
2.31824e-07
2.80282e-07
3.30745e-07
3.8334e-07
4.3811e-07
4.95017e-07
5.5394e-07
6.14675e-07
6.76943e-07
7.40401e-07
8.04653e-07
8.6927e-07
9.338e-07
9.97783e-07
1.06075e-06
1.12222e-06
1.18173e-06
1.2388e-06
1.29297e-06
1.34378e-06
1.39081e-06
1.43367e-06
1.47199e-06
1.50545e-06
1.53377e-06
1.55673e-06
1.57412e-06
1.5858e-06
1.59168e-06
1.59172e-06
1.5859e-06
1.57428e-06
1.55696e-06
1.53407e-06
1.5058e-06
1.4724e-06
1.43413e-06
1.39132e-06
1.34434e-06
1.29356e-06
1.23943e-06
1.18239e-06
1.1229e-06
1.06144e-06
9.98487e-07
9.34508e-07
8.69975e-07
8.0535e-07
7.41083e-07
6.77605e-07
6.15311e-07
5.54544e-07
4.95585e-07
4.38636e-07
3.83821e-07
3.31178e-07
2.80663e-07
2.32151e-07
1.85442e-07
1.40267e-07
9.62934e-08
5.3142e-08
9.15673e-11
3.43209e-13
4.4135e-13
1.17761e-10
6.83204e-08
1.23763e-07
1.80259e-07
2.38313e-07
2.98361e-07
3.60756e-07
4.25758e-07
4.93522e-07
5.64098e-07
6.37421e-07
7.13318e-07
7.91505e-07
8.71602e-07
9.53147e-07
1.03562e-06
1.11847e-06
1.20111e-06
1.28295e-06
1.36342e-06
1.44191e-06
1.51782e-06
1.59057e-06
1.65956e-06
1.72425e-06
1.78408e-06
1.83857e-06
1.88727e-06
1.92978e-06
1.96575e-06
1.99489e-06
2.01696e-06
2.03179e-06
2.03925e-06
2.03929e-06
2.0319e-06
2.01714e-06
1.99514e-06
1.96607e-06
1.93017e-06
1.88772e-06
1.83907e-06
1.78464e-06
1.72485e-06
1.66021e-06
1.59125e-06
1.51854e-06
1.44265e-06
1.36418e-06
1.28372e-06
1.20188e-06
1.11924e-06
1.03638e-06
9.53894e-07
8.72327e-07
7.92202e-07
7.13981e-07
6.38045e-07
5.64676e-07
4.94051e-07
4.26233e-07
3.61175e-07
2.98719e-07
2.38609e-07
1.8049e-07
1.23927e-07
6.84144e-08
1.17931e-10
4.42004e-13
5.36537e-13
1.43165e-10
8.30233e-08
1.50338e-07
2.18903e-07
2.89342e-07
3.62188e-07
4.37872e-07
5.16702e-07
5.98857e-07
6.84384e-07
7.73185e-07
8.65028e-07
9.59545e-07
1.05625e-06
1.15458e-06
1.25388e-06
1.35349e-06
1.4527e-06
1.55083e-06
1.64717e-06
1.74102e-06
1.8317e-06
1.91849e-06
2.00073e-06
2.07776e-06
2.14897e-06
2.21377e-06
2.27166e-06
2.32216e-06
2.36487e-06
2.39946e-06
2.42565e-06
2.44323e-06
2.45208e-06
2.45212e-06
2.44335e-06
2.42583e-06
2.39972e-06
2.3652e-06
2.32255e-06
2.27212e-06
2.21429e-06
2.14954e-06
2.07839e-06
2.0014e-06
1.9192e-06
1.83244e-06
1.74179e-06
1.64795e-06
1.55162e-06
1.4535e-06
1.35429e-06
1.25468e-06
1.15536e-06
1.05701e-06
9.60274e-07
8.65721e-07
7.73838e-07
6.8499e-07
5.99412e-07
5.172e-07
4.3831e-07
3.62564e-07
2.89651e-07
2.19145e-07
1.50509e-07
8.31213e-08
1.43343e-10
5.37223e-13
6.23168e-13
1.66288e-10
9.63943e-08
1.74482e-07
2.5398e-07
3.35619e-07
4.2002e-07
5.07678e-07
5.98943e-07
6.94012e-07
7.9292e-07
8.95537e-07
1.00157e-06
1.11057e-06
1.22196e-06
1.33507e-06
1.44914e-06
1.5634e-06
1.67705e-06
1.78931e-06
1.89939e-06
2.0065e-06
2.10986e-06
2.20869e-06
2.30225e-06
2.38982e-06
2.4707e-06
2.54426e-06
2.60993e-06
2.6672e-06
2.71562e-06
2.75481e-06
2.78448e-06
2.8044e-06
2.81442e-06
2.81446e-06
2.80451e-06
2.78467e-06
2.75507e-06
2.71595e-06
2.6676e-06
2.61039e-06
2.54478e-06
2.47127e-06
2.39044e-06
2.30293e-06
2.2094e-06
2.1106e-06
2.00727e-06
1.90018e-06
1.79012e-06
1.67786e-06
1.56421e-06
1.44994e-06
1.33585e-06
1.22273e-06
1.11131e-06
1.00227e-06
8.96197e-07
7.93533e-07
6.94573e-07
5.99447e-07
5.08121e-07
4.204e-07
3.35932e-07
2.54224e-07
1.74655e-07
9.64931e-08
1.66468e-10
6.23863e-13
6.9786e-13
1.86227e-10
1.07916e-07
1.95269e-07
2.84158e-07
3.75404e-07
4.69702e-07
5.67602e-07
6.69488e-07
7.75567e-07
8.85863e-07
1.00021e-06
1.11827e-06
1.23951e-06
1.36328e-06
1.48881e-06
1.61527e-06
1.74179e-06
1.86749e-06
1.99151e-06
2.11299e-06
2.23108e-06
2.34492e-06
2.45368e-06
2.55656e-06
2.65278e-06
2.7416e-06
2.82234e-06
2.89438e-06
2.95719e-06
3.01026e-06
3.05322e-06
3.08573e-06
3.10755e-06
3.11852e-06
3.11856e-06
3.10766e-06
3.08591e-06
3.05347e-06
3.01059e-06
2.95757e-06
2.89484e-06
2.82285e-06
2.74216e-06
2.65339e-06
2.55722e-06
2.45438e-06
2.34565e-06
2.23183e-06
2.11377e-06
1.9923e-06
1.86829e-06
1.74258e-06
1.61606e-06
1.48959e-06
1.36404e-06
1.24024e-06
1.11896e-06
1.00087e-06
8.86469e-07
7.76121e-07
6.69986e-07
5.6804e-07
4.70076e-07
3.75712e-07
2.84398e-07
1.95439e-07
1.08013e-07
1.86405e-10
6.98547e-13
7.59038e-13
2.02562e-10
1.1735e-07
2.12278e-07
3.08835e-07
4.0792e-07
5.10287e-07
6.16528e-07
7.27055e-07
8.42082e-07
9.61622e-07
1.08548e-06
1.21327e-06
1.3444e-06
1.47816e-06
1.61369e-06
1.7501e-06
1.88645e-06
2.0218e-06
2.15523e-06
2.28581e-06
2.41264e-06
2.53482e-06
2.65148e-06
2.76176e-06
2.86484e-06
2.95994e-06
3.04636e-06
3.12345e-06
3.19063e-06
3.24739e-06
3.29332e-06
3.32807e-06
3.35139e-06
3.36311e-06
3.36315e-06
3.3515e-06
3.32825e-06
3.29356e-06
3.2477e-06
3.191e-06
3.12389e-06
3.04686e-06
2.96049e-06
2.86543e-06
2.7624e-06
2.65216e-06
2.53553e-06
2.41338e-06
2.28656e-06
2.15599e-06
2.02257e-06
1.88722e-06
1.75086e-06
1.61444e-06
1.47889e-06
1.34511e-06
1.21395e-06
1.08612e-06
9.62215e-07
8.42624e-07
7.27542e-07
6.16956e-07
5.10652e-07
4.0822e-07
3.09069e-07
2.12443e-07
1.17444e-07
2.02735e-10
7.59709e-13
8.06758e-13
2.15306e-10
1.24707e-07
2.25536e-07
3.28064e-07
4.33247e-07
5.41889e-07
6.54615e-07
7.71856e-07
8.93831e-07
1.02054e-06
1.15178e-06
1.2871e-06
1.42589e-06
1.56735e-06
1.71061e-06
1.85469e-06
1.99862e-06
2.1414e-06
2.28206e-06
2.41963e-06
2.55318e-06
2.68176e-06
2.80446e-06
2.9204e-06
3.02873e-06
3.12865e-06
3.21941e-06
3.30035e-06
3.37087e-06
3.43044e-06
3.47864e-06
3.5151e-06
3.53957e-06
3.55187e-06
3.5519e-06
3.53968e-06
3.51527e-06
3.47888e-06
3.43074e-06
3.37123e-06
3.30077e-06
3.21989e-06
3.12918e-06
3.02931e-06
2.92102e-06
2.80512e-06
2.68244e-06
2.55389e-06
2.42036e-06
2.2828e-06
2.14215e-06
1.99937e-06
1.85544e-06
1.71134e-06
1.56807e-06
1.42658e-06
1.28776e-06
1.1524e-06
1.02112e-06
8.94357e-07
7.72328e-07
6.5503e-07
5.42243e-07
4.33538e-07
3.28289e-07
2.25695e-07
1.24798e-07
2.15474e-10
8.07409e-13
8.42284e-13
2.24796e-10
1.30184e-07
2.35403e-07
3.42371e-07
4.5209e-07
5.65397e-07
6.82944e-07
8.05175e-07
9.32315e-07
1.06436e-06
1.20107e-06
1.34199e-06
1.48645e-06
1.63364e-06
1.78262e-06
1.9324e-06
2.08193e-06
2.23021e-06
2.37622e-06
2.51897e-06
2.65748e-06
2.79079e-06
2.91796e-06
3.03808e-06
3.15029e-06
3.25375e-06
3.34772e-06
3.4315e-06
3.50448e-06
3.56613e-06
3.616e-06
3.65373e-06
3.67905e-06
3.69177e-06
3.6918e-06
3.67915e-06
3.6539e-06
3.61623e-06
3.56643e-06
3.50484e-06
3.43191e-06
3.34818e-06
3.25427e-06
3.15085e-06
3.03868e-06
2.9186e-06
2.79146e-06
2.65817e-06
2.51968e-06
2.37695e-06
2.23094e-06
2.08266e-06
1.93312e-06
1.78334e-06
1.63434e-06
1.48712e-06
1.34263e-06
1.20167e-06
1.06492e-06
9.32827e-07
8.05635e-07
6.83347e-07
5.6574e-07
4.52371e-07
3.4259e-07
2.35557e-07
1.30272e-07
2.24959e-10
8.42917e-13
8.67579e-13
2.31554e-10
1.34084e-07
2.42428e-07
3.52557e-07
4.65504e-07
5.82134e-07
7.03115e-07
8.28903e-07
9.59723e-07
1.09557e-06
1.23618e-06
1.38109e-06
1.52961e-06
1.68088e-06
1.83394e-06
1.98777e-06
2.1413e-06
2.2935e-06
2.44332e-06
2.58976e-06
2.7318e-06
2.86848e-06
2.99883e-06
3.12193e-06
3.2369e-06
3.34289e-06
3.43914e-06
3.52495e-06
3.59969e-06
3.66281e-06
3.71387e-06
3.7525e-06
3.77842e-06
3.79144e-06
3.79147e-06
3.77852e-06
3.75266e-06
3.7141e-06
3.6631e-06
3.60003e-06
3.52535e-06
3.43959e-06
3.34339e-06
3.23744e-06
3.12252e-06
2.99945e-06
2.86913e-06
2.73248e-06
2.59045e-06
2.44403e-06
2.29421e-06
2.14202e-06
1.98848e-06
1.83464e-06
1.68156e-06
1.53026e-06
1.38172e-06
1.23677e-06
1.09611e-06
9.60224e-07
8.29352e-07
7.03509e-07
5.82469e-07
4.65779e-07
3.5277e-07
2.42578e-07
1.3417e-07
2.31713e-10
8.68197e-13
8.84839e-13
2.36167e-10
1.36746e-07
2.47223e-07
3.5951e-07
4.74662e-07
5.93561e-07
7.1689e-07
8.45111e-07
9.78451e-07
1.1169e-06
1.26019e-06
1.40783e-06
1.55913e-06
1.7132e-06
1.86906e-06
2.02567e-06
2.18195e-06
2.33683e-06
2.48928e-06
2.63824e-06
2.78271e-06
2.9217e-06
3.05424e-06
3.17939e-06
3.29625e-06
3.40398e-06
3.5018e-06
3.58899e-06
3.66494e-06
3.72908e-06
3.78096e-06
3.82021e-06
3.84654e-06
3.85977e-06
3.8598e-06
3.84664e-06
3.82037e-06
3.78118e-06
3.72936e-06
3.66528e-06
3.58939e-06
3.50224e-06
3.40447e-06
3.29678e-06
3.17996e-06
3.05485e-06
2.92234e-06
2.78337e-06
2.63892e-06
2.48997e-06
2.33754e-06
2.18265e-06
2.02636e-06
1.86975e-06
1.71387e-06
1.55977e-06
1.40845e-06
1.26077e-06
1.11744e-06
9.78944e-07
8.45553e-07
7.17277e-07
5.9389e-07
4.74931e-07
3.59719e-07
2.4737e-07
1.3683e-07
2.36323e-10
8.85445e-13
8.96145e-13
2.3919e-10
1.38491e-07
2.50366e-07
3.64067e-07
4.80665e-07
6.01055e-07
7.25927e-07
8.55749e-07
9.90748e-07
1.13091e-06
1.27596e-06
1.42541e-06
1.57854e-06
1.73446e-06
1.89217e-06
2.05062e-06
2.20871e-06
2.36538e-06
2.51955e-06
2.67019e-06
2.81627e-06
2.95679e-06
3.09078e-06
3.21728e-06
3.3354e-06
3.44428e-06
3.54314e-06
3.63127e-06
3.70801e-06
3.77283e-06
3.82525e-06
3.86491e-06
3.89152e-06
3.90488e-06
3.90492e-06
3.89161e-06
3.86507e-06
3.82547e-06
3.77311e-06
3.70835e-06
3.63165e-06
3.54358e-06
3.44477e-06
3.33593e-06
3.21785e-06
3.09138e-06
2.95742e-06
2.81693e-06
2.67086e-06
2.52024e-06
2.36607e-06
2.20941e-06
2.05131e-06
1.89285e-06
1.73512e-06
1.57918e-06
1.42602e-06
1.27654e-06
1.13144e-06
9.91235e-07
8.56185e-07
7.2631e-07
6.01381e-07
4.80932e-07
3.64273e-07
2.50511e-07
1.38574e-07
2.39344e-10
8.96744e-13
9.03267e-13
2.41095e-10
1.39591e-07
2.52347e-07
3.6694e-07
4.84452e-07
6.05784e-07
7.31632e-07
8.62467e-07
9.98518e-07
1.13977e-06
1.28594e-06
1.43654e-06
1.59083e-06
1.74793e-06
1.90682e-06
2.06644e-06
2.22569e-06
2.3835e-06
2.53878e-06
2.69048e-06
2.83759e-06
2.97909e-06
3.11401e-06
3.24138e-06
3.3603e-06
3.46992e-06
3.56945e-06
3.65816e-06
3.73542e-06
3.80067e-06
3.85344e-06
3.89336e-06
3.92014e-06
3.9336e-06
3.93363e-06
3.92024e-06
3.89352e-06
3.85366e-06
3.80094e-06
3.73575e-06
3.65854e-06
3.56988e-06
3.4704e-06
3.36083e-06
3.24194e-06
3.1146e-06
2.97972e-06
2.83824e-06
2.69115e-06
2.53946e-06
2.38419e-06
2.22638e-06
2.06713e-06
1.9075e-06
1.74859e-06
1.59147e-06
1.43715e-06
1.28651e-06
1.1403e-06
9.99002e-07
8.62901e-07
7.32012e-07
6.06107e-07
4.84717e-07
3.67145e-07
2.52491e-07
1.39673e-07
2.41248e-10
9.03862e-13
9.0759e-13
2.42251e-10
1.40258e-07
2.5355e-07
3.68686e-07
4.86753e-07
6.08659e-07
7.35103e-07
8.66556e-07
1.00325e-06
1.14517e-06
1.29203e-06
1.44333e-06
1.59834e-06
1.75616e-06
1.91578e-06
2.07612e-06
2.23608e-06
2.39459e-06
2.55055e-06
2.70292e-06
2.85066e-06
2.99276e-06
3.12825e-06
3.25616e-06
3.37558e-06
3.48565e-06
3.58559e-06
3.67467e-06
3.75225e-06
3.81777e-06
3.87075e-06
3.91084e-06
3.93773e-06
3.95124e-06
3.95127e-06
3.93782e-06
3.91099e-06
3.87097e-06
3.81804e-06
3.75258e-06
3.67505e-06
3.58603e-06
3.48613e-06
3.3761e-06
3.25672e-06
3.12884e-06
2.99339e-06
2.85131e-06
2.70358e-06
2.55123e-06
2.39527e-06
2.23677e-06
2.0768e-06
1.91645e-06
1.75681e-06
1.59897e-06
1.44393e-06
1.2926e-06
1.14569e-06
1.00373e-06
8.66988e-07
7.35481e-07
6.08981e-07
4.87017e-07
3.6889e-07
2.53693e-07
1.4034e-07
2.42403e-10
9.08182e-13
9.1012e-13
2.42928e-10
1.4065e-07
2.54255e-07
3.69709e-07
4.88103e-07
6.10346e-07
7.3714e-07
8.68958e-07
1.00603e-06
1.14834e-06
1.29561e-06
1.44733e-06
1.60276e-06
1.76101e-06
1.92106e-06
2.08183e-06
2.24222e-06
2.40114e-06
2.55751e-06
2.71027e-06
2.85839e-06
3.00086e-06
3.13668e-06
3.26491e-06
3.38463e-06
3.49498e-06
3.59517e-06
3.68446e-06
3.76223e-06
3.82791e-06
3.88103e-06
3.92121e-06
3.94816e-06
3.96171e-06
3.96174e-06
3.94826e-06
3.92136e-06
3.88124e-06
3.82818e-06
3.76256e-06
3.68484e-06
3.5956e-06
3.49546e-06
3.38515e-06
3.26547e-06
3.13728e-06
3.00148e-06
2.85904e-06
2.71094e-06
2.55819e-06
2.40183e-06
2.24291e-06
2.08251e-06
1.92173e-06
1.76167e-06
1.6034e-06
1.44793e-06
1.29618e-06
1.14887e-06
1.00651e-06
8.6939e-07
7.37518e-07
6.10667e-07
4.88366e-07
3.69912e-07
2.54398e-07
1.40731e-07
2.4308e-10
9.10711e-13
9.11551e-13
2.43312e-10
1.40871e-07
2.54654e-07
3.70288e-07
4.88867e-07
6.11302e-07
7.38295e-07
8.70322e-07
1.00761e-06
1.15015e-06
1.29765e-06
1.44961e-06
1.60528e-06
1.76378e-06
1.92407e-06
2.08509e-06
2.24573e-06
2.40489e-06
2.56149e-06
2.71448e-06
2.86282e-06
3.00549e-06
3.14152e-06
3.26993e-06
3.38982e-06
3.50033e-06
3.60065e-06
3.69008e-06
3.76796e-06
3.83373e-06
3.88692e-06
3.92716e-06
3.95415e-06
3.96771e-06
3.96774e-06
3.95424e-06
3.92731e-06
3.88713e-06
3.834e-06
3.76828e-06
3.69046e-06
3.60109e-06
3.50081e-06
3.39034e-06
3.27049e-06
3.14211e-06
3.00611e-06
2.86346e-06
2.71514e-06
2.56217e-06
2.40557e-06
2.24641e-06
2.08577e-06
1.92475e-06
1.76443e-06
1.60591e-06
1.45021e-06
1.29822e-06
1.15067e-06
1.00809e-06
8.70753e-07
7.38673e-07
6.11623e-07
4.8913e-07
3.70491e-07
2.54797e-07
1.40952e-07
2.43463e-10
9.12142e-13
9.12334e-13
2.43521e-10
1.40992e-07
2.54872e-07
3.70606e-07
4.89286e-07
6.11826e-07
7.38929e-07
8.7107e-07
1.00848e-06
1.15114e-06
1.29877e-06
1.45086e-06
1.60667e-06
1.7653e-06
1.92574e-06
2.08689e-06
2.24766e-06
2.40696e-06
2.56369e-06
2.71681e-06
2.86527e-06
3.00806e-06
3.14419e-06
3.27271e-06
3.3927e-06
3.50329e-06
3.6037e-06
3.6932e-06
3.77113e-06
3.83696e-06
3.89019e-06
3.93046e-06
3.95748e-06
3.97105e-06
3.97108e-06
3.95757e-06
3.93062e-06
3.89041e-06
3.83723e-06
3.77146e-06
3.69358e-06
3.60413e-06
3.50377e-06
3.39322e-06
3.27327e-06
3.14479e-06
3.00868e-06
2.86591e-06
2.71747e-06
2.56437e-06
2.40764e-06
2.24835e-06
2.08757e-06
1.92641e-06
1.76596e-06
1.6073e-06
1.45146e-06
1.29934e-06
1.15166e-06
1.00896e-06
8.71501e-07
7.39307e-07
6.12147e-07
4.89549e-07
3.70809e-07
2.55015e-07
1.41073e-07
2.43673e-10
9.12924e-13
9.12748e-13
2.43632e-10
1.41056e-07
2.54988e-07
3.70774e-07
4.89508e-07
6.12104e-07
7.39266e-07
8.71468e-07
1.00894e-06
1.15167e-06
1.29937e-06
1.45153e-06
1.60741e-06
1.76612e-06
1.92663e-06
2.08786e-06
2.2487e-06
2.40807e-06
2.56487e-06
2.71805e-06
2.86658e-06
3.00944e-06
3.14563e-06
3.27421e-06
3.39424e-06
3.50489e-06
3.60534e-06
3.69487e-06
3.77284e-06
3.83869e-06
3.89195e-06
3.93224e-06
3.95927e-06
3.97284e-06
3.97288e-06
3.95936e-06
3.93239e-06
3.89217e-06
3.83897e-06
3.77317e-06
3.69525e-06
3.60577e-06
3.50537e-06
3.39477e-06
3.27476e-06
3.14622e-06
3.01006e-06
2.86723e-06
2.71872e-06
2.56555e-06
2.40875e-06
2.24939e-06
2.08854e-06
1.9273e-06
1.76677e-06
1.60805e-06
1.45213e-06
1.29994e-06
1.15219e-06
1.00942e-06
8.71899e-07
7.39643e-07
6.12425e-07
4.89771e-07
3.70977e-07
2.55131e-07
1.41138e-07
2.43784e-10
9.13339e-13
9.12961e-13
2.43689e-10
1.41089e-07
2.55048e-07
3.7086e-07
4.89623e-07
6.12247e-07
7.39439e-07
8.71673e-07
1.00918e-06
1.15194e-06
1.29968e-06
1.45188e-06
1.6078e-06
1.76654e-06
1.92709e-06
2.08836e-06
2.24924e-06
2.40864e-06
2.56548e-06
2.7187e-06
2.86727e-06
3.01016e-06
3.14638e-06
3.27498e-06
3.39505e-06
3.50572e-06
3.60619e-06
3.69575e-06
3.77374e-06
3.8396e-06
3.89287e-06
3.93317e-06
3.9602e-06
3.97378e-06
3.97381e-06
3.96029e-06
3.93332e-06
3.89309e-06
3.83987e-06
3.77406e-06
3.69613e-06
3.60662e-06
3.5062e-06
3.39557e-06
3.27554e-06
3.14697e-06
3.01078e-06
2.86791e-06
2.71937e-06
2.56616e-06
2.40933e-06
2.24993e-06
2.08904e-06
1.92776e-06
1.7672e-06
1.60843e-06
1.45248e-06
1.30024e-06
1.15247e-06
1.00966e-06
8.72104e-07
7.39817e-07
6.12568e-07
4.89885e-07
3.71063e-07
2.5519e-07
1.41171e-07
2.43841e-10
9.13552e-13
9.13067e-13
2.43718e-10
1.41106e-07
2.55077e-07
3.70903e-07
4.8968e-07
6.12319e-07
7.39526e-07
8.71776e-07
1.0093e-06
1.15208e-06
1.29983e-06
1.45205e-06
1.60799e-06
1.76676e-06
1.92732e-06
2.08861e-06
2.24951e-06
2.40893e-06
2.56579e-06
2.71903e-06
2.86761e-06
3.01052e-06
3.14676e-06
3.27538e-06
3.39546e-06
3.50614e-06
3.60662e-06
3.69619e-06
3.77419e-06
3.84006e-06
3.89334e-06
3.93364e-06
3.96067e-06
3.97426e-06
3.97429e-06
3.96077e-06
3.93379e-06
3.89355e-06
3.84033e-06
3.77452e-06
3.69657e-06
3.60706e-06
3.50662e-06
3.39598e-06
3.27594e-06
3.14735e-06
3.01114e-06
2.86826e-06
2.7197e-06
2.56647e-06
2.40962e-06
2.2502e-06
2.08929e-06
1.92799e-06
1.76741e-06
1.60862e-06
1.45265e-06
1.3004e-06
1.1526e-06
1.00978e-06
8.72207e-07
7.39904e-07
6.1264e-07
4.89942e-07
3.71107e-07
2.5522e-07
1.41187e-07
2.43869e-10
9.13657e-13
9.13118e-13
2.43731e-10
1.41114e-07
2.55092e-07
3.70924e-07
4.89707e-07
6.12354e-07
7.39568e-07
8.71826e-07
1.00936e-06
1.15214e-06
1.29991e-06
1.45213e-06
1.60809e-06
1.76686e-06
1.92743e-06
2.08873e-06
2.24964e-06
2.40908e-06
2.56595e-06
2.71919e-06
2.86778e-06
3.0107e-06
3.14694e-06
3.27557e-06
3.39566e-06
3.50635e-06
3.60684e-06
3.69641e-06
3.77441e-06
3.84029e-06
3.89357e-06
3.93387e-06
3.96091e-06
3.97449e-06
3.97452e-06
3.961e-06
3.93402e-06
3.89378e-06
3.84056e-06
3.77474e-06
3.69679e-06
3.60727e-06
3.50682e-06
3.39618e-06
3.27613e-06
3.14754e-06
3.01132e-06
2.86843e-06
2.71986e-06
2.56662e-06
2.40976e-06
2.25033e-06
2.08941e-06
1.92811e-06
1.76751e-06
1.60872e-06
1.45274e-06
1.30048e-06
1.15267e-06
1.00984e-06
8.72257e-07
7.39946e-07
6.12675e-07
4.8997e-07
3.71127e-07
2.55234e-07
1.41195e-07
2.43883e-10
9.13709e-13
9.13142e-13
2.43738e-10
1.41117e-07
2.55098e-07
3.70934e-07
4.8972e-07
6.1237e-07
7.39588e-07
8.71849e-07
1.00938e-06
1.15217e-06
1.29994e-06
1.45217e-06
1.60813e-06
1.76691e-06
1.92749e-06
2.08879e-06
2.24971e-06
2.40914e-06
2.56602e-06
2.71927e-06
2.86786e-06
3.01078e-06
3.14703e-06
3.27566e-06
3.39575e-06
3.50644e-06
3.60694e-06
3.69651e-06
3.77452e-06
3.84039e-06
3.89368e-06
3.93398e-06
3.96102e-06
3.9746e-06
3.97463e-06
3.96111e-06
3.93413e-06
3.89389e-06
3.84067e-06
3.77484e-06
3.69689e-06
3.60737e-06
3.50692e-06
3.39627e-06
3.27622e-06
3.14763e-06
3.0114e-06
2.86851e-06
2.71993e-06
2.56669e-06
2.40983e-06
2.25039e-06
2.08947e-06
1.92816e-06
1.76756e-06
1.60876e-06
1.45278e-06
1.30051e-06
1.1527e-06
1.00987e-06
8.7228e-07
7.39966e-07
6.12691e-07
4.89983e-07
3.71137e-07
2.55241e-07
1.41199e-07
2.4389e-10
9.13733e-13
9.13153e-13
2.43741e-10
1.41119e-07
2.55101e-07
3.70939e-07
4.89726e-07
6.12377e-07
7.39597e-07
8.7186e-07
1.0094e-06
1.15219e-06
1.29996e-06
1.45219e-06
1.60815e-06
1.76693e-06
1.92751e-06
2.08882e-06
2.24974e-06
2.40918e-06
2.56605e-06
2.7193e-06
2.8679e-06
3.01082e-06
3.14707e-06
3.27571e-06
3.3958e-06
3.50649e-06
3.60698e-06
3.69656e-06
3.77457e-06
3.84045e-06
3.89373e-06
3.93403e-06
3.96107e-06
3.97465e-06
3.97469e-06
3.96116e-06
3.93419e-06
3.89394e-06
3.84072e-06
3.77489e-06
3.69694e-06
3.60742e-06
3.50697e-06
3.39632e-06
3.27627e-06
3.14767e-06
3.01144e-06
2.86855e-06
2.71997e-06
2.56673e-06
2.40986e-06
2.25042e-06
2.0895e-06
1.92818e-06
1.76759e-06
1.60878e-06
1.45279e-06
1.30053e-06
1.15272e-06
1.00988e-06
8.72291e-07
7.39975e-07
6.12699e-07
4.89989e-07
3.71142e-07
2.55244e-07
1.412e-07
2.43892e-10
9.13744e-13
9.13158e-13
2.43742e-10
1.4112e-07
2.55103e-07
3.70941e-07
4.89729e-07
6.12381e-07
7.39601e-07
8.71865e-07
1.0094e-06
1.1522e-06
1.29997e-06
1.4522e-06
1.60816e-06
1.76694e-06
1.92752e-06
2.08883e-06
2.24975e-06
2.40919e-06
2.56607e-06
2.71932e-06
2.86792e-06
3.01084e-06
3.14709e-06
3.27572e-06
3.39582e-06
3.50651e-06
3.60701e-06
3.69658e-06
3.77459e-06
3.84047e-06
3.89375e-06
3.93405e-06
3.96109e-06
3.97468e-06
3.97471e-06
3.96119e-06
3.93421e-06
3.89396e-06
3.84074e-06
3.77492e-06
3.69696e-06
3.60744e-06
3.50699e-06
3.39634e-06
3.27628e-06
3.14769e-06
3.01146e-06
2.86856e-06
2.71999e-06
2.56674e-06
2.40987e-06
2.25044e-06
2.08951e-06
1.9282e-06
1.7676e-06
1.60879e-06
1.4528e-06
1.30053e-06
1.15272e-06
1.00988e-06
8.72296e-07
7.39979e-07
6.12702e-07
4.89992e-07
3.71144e-07
2.55246e-07
1.41201e-07
2.43894e-10
9.13749e-13
9.1316e-13
2.43743e-10
1.4112e-07
2.55103e-07
3.70942e-07
4.8973e-07
6.12382e-07
7.39603e-07
8.71867e-07
1.00941e-06
1.1522e-06
1.29997e-06
1.4522e-06
1.60816e-06
1.76695e-06
1.92753e-06
2.08883e-06
2.24976e-06
2.4092e-06
2.56607e-06
2.71933e-06
2.86792e-06
3.01085e-06
3.1471e-06
3.27573e-06
3.39583e-06
3.50652e-06
3.60702e-06
3.69659e-06
3.7746e-06
3.84048e-06
3.89376e-06
3.93406e-06
3.9611e-06
3.97469e-06
3.97472e-06
3.9612e-06
3.93422e-06
3.89397e-06
3.84075e-06
3.77493e-06
3.69697e-06
3.60745e-06
3.507e-06
3.39635e-06
3.27629e-06
3.14769e-06
3.01147e-06
2.86857e-06
2.71999e-06
2.56675e-06
2.40988e-06
2.25044e-06
2.08952e-06
1.9282e-06
1.7676e-06
1.6088e-06
1.45281e-06
1.30054e-06
1.15273e-06
1.00989e-06
8.72298e-07
7.39981e-07
6.12703e-07
4.89993e-07
3.71145e-07
2.55246e-07
1.41202e-07
2.43894e-10
9.13751e-13
9.13161e-13
2.43743e-10
1.4112e-07
2.55104e-07
3.70942e-07
4.89731e-07
6.12383e-07
7.39604e-07
8.71868e-07
1.00941e-06
1.1522e-06
1.29997e-06
1.45221e-06
1.60817e-06
1.76695e-06
1.92753e-06
2.08884e-06
2.24976e-06
2.4092e-06
2.56608e-06
2.71933e-06
2.86793e-06
3.01085e-06
3.1471e-06
3.27574e-06
3.39583e-06
3.50652e-06
3.60702e-06
3.69659e-06
3.7746e-06
3.84048e-06
3.89376e-06
3.93407e-06
3.96111e-06
3.97469e-06
3.97472e-06
3.9612e-06
3.93422e-06
3.89398e-06
3.84076e-06
3.77493e-06
3.69698e-06
3.60745e-06
3.507e-06
3.39635e-06
3.2763e-06
3.1477e-06
3.01147e-06
2.86857e-06
2.72e-06
2.56675e-06
2.40988e-06
2.25044e-06
2.08952e-06
1.9282e-06
1.7676e-06
1.6088e-06
1.45281e-06
1.30054e-06
1.15273e-06
1.00989e-06
8.72299e-07
7.39981e-07
6.12704e-07
4.89993e-07
3.71145e-07
2.55246e-07
1.41202e-07
2.43895e-10
9.13752e-13
9.13161e-13
2.43743e-10
1.4112e-07
2.55104e-07
3.70942e-07
4.89731e-07
6.12383e-07
7.39604e-07
8.71868e-07
1.00941e-06
1.1522e-06
1.29997e-06
1.45221e-06
1.60817e-06
1.76695e-06
1.92753e-06
2.08884e-06
2.24976e-06
2.4092e-06
2.56608e-06
2.71933e-06
2.86793e-06
3.01085e-06
3.14711e-06
3.27574e-06
3.39583e-06
3.50653e-06
3.60702e-06
3.6966e-06
3.7746e-06
3.84048e-06
3.89377e-06
3.93407e-06
3.96111e-06
3.97469e-06
3.97473e-06
3.9612e-06
3.93423e-06
3.89398e-06
3.84076e-06
3.77493e-06
3.69698e-06
3.60745e-06
3.507e-06
3.39635e-06
3.2763e-06
3.1477e-06
3.01147e-06
2.86857e-06
2.72e-06
2.56675e-06
2.40988e-06
2.25045e-06
2.08952e-06
1.9282e-06
1.7676e-06
1.6088e-06
1.45281e-06
1.30054e-06
1.15273e-06
1.00989e-06
8.72299e-07
7.39982e-07
6.12704e-07
4.89993e-07
3.71145e-07
2.55247e-07
1.41202e-07
2.43895e-10
9.13752e-13
9.13162e-13
2.43743e-10
1.4112e-07
2.55104e-07
3.70942e-07
4.89731e-07
6.12383e-07
7.39604e-07
8.71868e-07
1.00941e-06
1.1522e-06
1.29997e-06
1.45221e-06
1.60817e-06
1.76695e-06
1.92753e-06
2.08884e-06
2.24976e-06
2.4092e-06
2.56608e-06
2.71933e-06
2.86793e-06
3.01085e-06
3.14711e-06
3.27574e-06
3.39583e-06
3.50653e-06
3.60702e-06
3.6966e-06
3.7746e-06
3.84048e-06
3.89377e-06
3.93407e-06
3.96111e-06
3.9747e-06
3.97473e-06
3.9612e-06
3.93423e-06
3.89398e-06
3.84076e-06
3.77493e-06
3.69698e-06
3.60745e-06
3.507e-06
3.39635e-06
3.2763e-06
3.1477e-06
3.01147e-06
2.86858e-06
2.72e-06
2.56675e-06
2.40988e-06
2.25045e-06
2.08952e-06
1.9282e-06
1.7676e-06
1.6088e-06
1.45281e-06
1.30054e-06
1.15273e-06
1.00989e-06
8.723e-07
7.39982e-07
6.12704e-07
4.89994e-07
3.71145e-07
2.55247e-07
1.41202e-07
2.43895e-10
9.13752e-13
9.13162e-13
2.43743e-10
1.4112e-07
2.55104e-07
3.70942e-07
4.89731e-07
6.12383e-07
7.39604e-07
8.71868e-07
1.00941e-06
1.1522e-06
1.29997e-06
1.45221e-06
1.60817e-06
1.76695e-06
1.92753e-06
2.08884e-06
2.24976e-06
2.4092e-06
2.56608e-06
2.71933e-06
2.86793e-06
3.01085e-06
3.14711e-06
3.27574e-06
3.39583e-06
3.50653e-06
3.60702e-06
3.6966e-06
3.7746e-06
3.84049e-06
3.89377e-06
3.93407e-06
3.96111e-06
3.9747e-06
3.97473e-06
3.96121e-06
3.93423e-06
3.89398e-06
3.84076e-06
3.77493e-06
3.69698e-06
3.60745e-06
3.50701e-06
3.39635e-06
3.2763e-06
3.1477e-06
3.01147e-06
2.86858e-06
2.72e-06
2.56675e-06
2.40988e-06
2.25045e-06
2.08952e-06
1.9282e-06
1.7676e-06
1.6088e-06
1.45281e-06
1.30054e-06
1.15273e-06
1.00989e-06
8.723e-07
7.39982e-07
6.12704e-07
4.89994e-07
3.71145e-07
2.55247e-07
1.41202e-07
2.43895e-10
9.13752e-13
9.13162e-13
2.43743e-10
1.4112e-07
2.55104e-07
3.70942e-07
4.89731e-07
6.12383e-07
7.39604e-07
8.71868e-07
1.00941e-06
1.1522e-06
1.29997e-06
1.45221e-06
1.60817e-06
1.76695e-06
1.92753e-06
2.08884e-06
2.24976e-06
2.4092e-06
2.56608e-06
2.71933e-06
2.86793e-06
3.01085e-06
3.14711e-06
3.27574e-06
3.39583e-06
3.50653e-06
3.60702e-06
3.6966e-06
3.7746e-06
3.84049e-06
3.89377e-06
3.93407e-06
3.96111e-06
3.9747e-06
3.97473e-06
3.96121e-06
3.93423e-06
3.89398e-06
3.84076e-06
3.77493e-06
3.69698e-06
3.60745e-06
3.50701e-06
3.39635e-06
3.2763e-06
3.1477e-06
3.01147e-06
2.86858e-06
2.72e-06
2.56675e-06
2.40988e-06
2.25045e-06
2.08952e-06
1.9282e-06
1.7676e-06
1.6088e-06
1.45281e-06
1.30054e-06
1.15273e-06
1.00989e-06
8.723e-07
7.39982e-07
6.12704e-07
4.89994e-07
3.71145e-07
2.55247e-07
1.41202e-07
2.43895e-10
9.13752e-13
9.13162e-13
2.43743e-10
1.4112e-07
2.55104e-07
3.70942e-07
4.89731e-07
6.12383e-07
7.39604e-07
8.71868e-07
1.00941e-06
1.1522e-06
1.29997e-06
1.45221e-06
1.60817e-06
1.76695e-06
1.92753e-06
2.08884e-06
2.24976e-06
2.4092e-06
2.56608e-06
2.71933e-06
2.86793e-06
3.01085e-06
3.14711e-06
3.27574e-06
3.39583e-06
3.50653e-06
3.60702e-06
3.6966e-06
3.7746e-06
3.84049e-06
3.89377e-06
3.93407e-06
3.96111e-06
3.9747e-06
3.97473e-06
3.96121e-06
3.93423e-06
3.89398e-06
3.84076e-06
3.77493e-06
3.69698e-06
3.60745e-06
3.50701e-06
3.39635e-06
3.2763e-06
3.1477e-06
3.01147e-06
2.86858e-06
2.72e-06
2.56675e-06
2.40988e-06
2.25045e-06
2.08952e-06
1.9282e-06
1.7676e-06
1.6088e-06
1.45281e-06
1.30054e-06
1.15273e-06
1.00989e-06
8.723e-07
7.39982e-07
6.12704e-07
4.89994e-07
3.71145e-07
2.55247e-07
1.41202e-07
2.43895e-10
9.13752e-13
9.13162e-13
2.43743e-10
1.4112e-07
2.55104e-07
3.70942e-07
4.89731e-07
6.12383e-07
7.39604e-07
8.71868e-07
1.00941e-06
1.1522e-06
1.29997e-06
1.45221e-06
1.60817e-06
1.76695e-06
1.92753e-06
2.08884e-06
2.24976e-06
2.4092e-06
2.56608e-06
2.71933e-06