/*--------------------------------*- C++ -*----------------------------------*\
  =========                 |
  \\      /  F ield         | OpenFOAM: The Open Source CFD Toolbox
   \\    /   O peration     | Website:  https://openfoam.org
    \\  /    A nd           | Version:  13
     \\/     M anipulation  |
\*---------------------------------------------------------------------------*/
FoamFile
{
    format      ascii;
    class       volScalarField;
    location    "152.5";
    object      rhok;
}
// * * * * * * * * * * * * * * * * * * * * * * * * * * * * * * * * * * * * * //

dimensions      [];

internalField   nonuniform List<scalar> 
315000
(
0.444627
0.429841
0.415033
0.413616
0.412874
0.412135
0.411398
0.410663
0.409931
0.409202
0.408475
0.407751
0.407029
0.40631
0.405594
0.404881
0.40417
0.403463
0.402758
0.402056
0.401357
0.400661
0.399968
0.399278
0.398591
0.397907
0.397226
0.396548
0.395873
0.395201
0.394532
0.393865
0.393202
0.392542
0.391885
0.39123
0.390579
0.38993
0.389284
0.388641
0.388
0.387362
0.386727
0.386095
0.385465
0.384837
0.384212
0.383589
0.382968
0.382349
0.381733
0.381119
0.380506
0.379895
0.379287
0.378679
0.378074
0.37747
0.376867
0.376265
0.375665
0.375066
0.374467
0.37387
0.373273
0.372677
0.372081
0.371486
0.370891
0.370296
0.444627
0.42984
0.41503
0.413613
0.412872
0.412132
0.411395
0.41066
0.409928
0.409199
0.408472
0.407748
0.407026
0.406307
0.405591
0.404878
0.404167
0.40346
0.402755
0.402053
0.401354
0.400658
0.399965
0.399275
0.398588
0.397904
0.397223
0.396545
0.39587
0.395197
0.394528
0.393862
0.393199
0.392539
0.391881
0.391227
0.390576
0.389927
0.389281
0.388638
0.387997
0.38736
0.386724
0.386092
0.385462
0.384834
0.384209
0.383586
0.382966
0.382347
0.381731
0.381117
0.380504
0.379894
0.379285
0.378678
0.378072
0.377468
0.376865
0.376264
0.375664
0.375065
0.374466
0.373869
0.373272
0.372676
0.372081
0.371486
0.370891
0.370296
0.444627
0.429839
0.415028
0.413611
0.412869
0.41213
0.411392
0.410658
0.409926
0.409196
0.408469
0.407745
0.407023
0.406304
0.405588
0.404875
0.404164
0.403457
0.402752
0.40205
0.401351
0.400655
0.399962
0.399272
0.398585
0.397901
0.39722
0.396542
0.395867
0.395195
0.394525
0.393859
0.393196
0.392536
0.391879
0.391224
0.390573
0.389924
0.389278
0.388635
0.387995
0.387357
0.386722
0.38609
0.38546
0.384832
0.384207
0.383584
0.382964
0.382345
0.381729
0.381115
0.380502
0.379892
0.379283
0.378676
0.378071
0.377467
0.376864
0.376263
0.375663
0.375064
0.374466
0.373868
0.373272
0.372676
0.372081
0.371486
0.370891
0.370296
0.444627
0.429838
0.415026
0.413609
0.412867
0.412127
0.41139
0.410656
0.409924
0.409194
0.408467
0.407743
0.407021
0.406302
0.405586
0.404872
0.404162
0.403454
0.402749
0.402048
0.401349
0.400653
0.39996
0.399269
0.398582
0.397898
0.397217
0.396539
0.395864
0.395192
0.394523
0.393857
0.393194
0.392534
0.391876
0.391222
0.39057
0.389922
0.389276
0.388633
0.387993
0.387355
0.38672
0.386087
0.385458
0.38483
0.384205
0.383582
0.382962
0.382344
0.381727
0.381113
0.380501
0.379891
0.379282
0.378675
0.37807
0.377466
0.376863
0.376262
0.375662
0.375063
0.374465
0.373868
0.373271
0.372676
0.37208
0.371485
0.370891
0.370296
0.444627
0.429837
0.415025
0.413607
0.412865
0.412126
0.411389
0.410654
0.409922
0.409192
0.408465
0.407741
0.407019
0.4063
0.405584
0.40487
0.40416
0.403452
0.402747
0.402045
0.401346
0.40065
0.399957
0.399267
0.39858
0.397896
0.397215
0.396537
0.395862
0.39519
0.394521
0.393855
0.393192
0.392531
0.391874
0.39122
0.390568
0.38992
0.389274
0.388631
0.387991
0.387353
0.386718
0.386086
0.385456
0.384828
0.384203
0.383581
0.38296
0.382342
0.381726
0.381112
0.3805
0.379889
0.379281
0.378674
0.378069
0.377465
0.376862
0.376261
0.375661
0.375062
0.374464
0.373867
0.373271
0.372675
0.37208
0.371485
0.370891
0.370296
0.444627
0.429836
0.415023
0.413606
0.412864
0.412124
0.411387
0.410652
0.40992
0.40919
0.408463
0.407739
0.407017
0.406298
0.405582
0.404869
0.404158
0.40345
0.402746
0.402044
0.401345
0.400649
0.399956
0.399266
0.398578
0.397894
0.397213
0.396535
0.39586
0.395188
0.394519
0.393853
0.39319
0.39253
0.391872
0.391218
0.390567
0.389918
0.389272
0.388629
0.387989
0.387352
0.386717
0.386084
0.385454
0.384827
0.384202
0.383579
0.382959
0.382341
0.381725
0.381111
0.380499
0.379888
0.37928
0.378673
0.378068
0.377464
0.376862
0.376261
0.375661
0.375062
0.374464
0.373867
0.373271
0.372675
0.37208
0.371485
0.370891
0.370296
0.444627
0.429836
0.415022
0.413605
0.412863
0.412123
0.411386
0.410651
0.409919
0.409189
0.408462
0.407738
0.407016
0.406297
0.405581
0.404867
0.404157
0.403449
0.402744
0.402042
0.401343
0.400647
0.399954
0.399264
0.398577
0.397893
0.397212
0.396534
0.395859
0.395187
0.394518
0.393852
0.393188
0.392528
0.391871
0.391217
0.390565
0.389917
0.389271
0.388628
0.387988
0.38735
0.386715
0.386083
0.385453
0.384826
0.384201
0.383578
0.382958
0.38234
0.381724
0.38111
0.380498
0.379888
0.379279
0.378672
0.378067
0.377463
0.376861
0.37626
0.37566
0.375061
0.374464
0.373867
0.37327
0.372675
0.37208
0.371485
0.37089
0.370296
0.444627
0.429835
0.415021
0.413604
0.412862
0.412122
0.411385
0.41065
0.409918
0.409188
0.408461
0.407737
0.407015
0.406296
0.40558
0.404866
0.404156
0.403448
0.402743
0.402041
0.401342
0.400646
0.399953
0.399263
0.398576
0.397892
0.397211
0.396533
0.395858
0.395186
0.394517
0.393851
0.393187
0.392527
0.39187
0.391216
0.390564
0.389916
0.38927
0.388627
0.387987
0.387349
0.386715
0.386082
0.385452
0.384825
0.3842
0.383578
0.382957
0.382339
0.381723
0.381109
0.380497
0.379887
0.379279
0.378672
0.378067
0.377463
0.376861
0.37626
0.37566
0.375061
0.374463
0.373866
0.37327
0.372674
0.372079
0.371485
0.37089
0.370296
0.444627
0.429835
0.415021
0.413603
0.412861
0.412122
0.411384
0.41065
0.409917
0.409188
0.408461
0.407736
0.407014
0.406295
0.405579
0.404866
0.404155
0.403447
0.402743
0.402041
0.401342
0.400646
0.399952
0.399262
0.398575
0.397891
0.39721
0.396532
0.395857
0.395185
0.394516
0.39385
0.393187
0.392527
0.391869
0.391215
0.390564
0.389915
0.38927
0.388627
0.387986
0.387349
0.386714
0.386082
0.385452
0.384825
0.3842
0.383577
0.382957
0.382339
0.381723
0.381109
0.380497
0.379887
0.379278
0.378671
0.378066
0.377463
0.37686
0.376259
0.37566
0.375061
0.374463
0.373866
0.37327
0.372674
0.372079
0.371485
0.37089
0.370296
0.444627
0.429835
0.415021
0.413603
0.412861
0.412121
0.411384
0.410649
0.409917
0.409187
0.40846
0.407736
0.407014
0.406295
0.405579
0.404865
0.404155
0.403447
0.402742
0.40204
0.401341
0.400645
0.399952
0.399262
0.398575
0.397891
0.39721
0.396532
0.395857
0.395184
0.394515
0.393849
0.393186
0.392526
0.391869
0.391215
0.390563
0.389915
0.389269
0.388626
0.387986
0.387348
0.386714
0.386081
0.385451
0.384824
0.384199
0.383577
0.382956
0.382338
0.381722
0.381108
0.380496
0.379886
0.379278
0.378671
0.378066
0.377462
0.37686
0.376259
0.375659
0.375061
0.374463
0.373866
0.37327
0.372674
0.372079
0.371485
0.37089
0.370296
0.444627
0.429835
0.41502
0.413603
0.412861
0.412121
0.411384
0.410649
0.409917
0.409187
0.40846
0.407736
0.407014
0.406295
0.405579
0.404865
0.404154
0.403447
0.402742
0.40204
0.401341
0.400645
0.399952
0.399262
0.398575
0.39789
0.397209
0.396531
0.395856
0.395184
0.394515
0.393849
0.393186
0.392526
0.391869
0.391214
0.390563
0.389915
0.389269
0.388626
0.387986
0.387348
0.386713
0.386081
0.385451
0.384824
0.384199
0.383577
0.382956
0.382338
0.381722
0.381108
0.380496
0.379886
0.379278
0.378671
0.378066
0.377462
0.37686
0.376259
0.375659
0.375061
0.374463
0.373866
0.37327
0.372674
0.372079
0.371485
0.37089
0.370296
0.444627
0.429835
0.41502
0.413603
0.412861
0.412121
0.411384
0.410649
0.409917
0.409187
0.40846
0.407736
0.407014
0.406295
0.405578
0.404865
0.404154
0.403447
0.402742
0.40204
0.401341
0.400645
0.399952
0.399262
0.398575
0.39789
0.397209
0.396531
0.395856
0.395184
0.394515
0.393849
0.393186
0.392526
0.391869
0.391214
0.390563
0.389914
0.389269
0.388626
0.387986
0.387348
0.386713
0.386081
0.385451
0.384824
0.384199
0.383576
0.382956
0.382338
0.381722
0.381108
0.380496
0.379886
0.379278
0.378671
0.378066
0.377462
0.37686
0.376259
0.375659
0.375061
0.374463
0.373866
0.37327
0.372674
0.372079
0.371485
0.37089
0.370296
0.444627
0.429835
0.41502
0.413603
0.412861
0.412121
0.411384
0.410649
0.409917
0.409187
0.40846
0.407736
0.407014
0.406295
0.405579
0.404865
0.404154
0.403447
0.402742
0.40204
0.401341
0.400645
0.399952
0.399262
0.398575
0.39789
0.397209
0.396531
0.395856
0.395184
0.394515
0.393849
0.393186
0.392526
0.391869
0.391214
0.390563
0.389915
0.389269
0.388626
0.387986
0.387348
0.386713
0.386081
0.385451
0.384824
0.384199
0.383576
0.382956
0.382338
0.381722
0.381108
0.380496
0.379886
0.379278
0.378671
0.378066
0.377462
0.37686
0.376259
0.375659
0.375061
0.374463
0.373866
0.37327
0.372674
0.372079
0.371485
0.37089
0.370296
0.444627
0.429835
0.415021
0.413603
0.412861
0.412121
0.411384
0.410649
0.409917
0.409187
0.40846
0.407736
0.407014
0.406295
0.405579
0.404865
0.404155
0.403447
0.402742
0.40204
0.401341
0.400645
0.399952
0.399262
0.398575
0.397891
0.39721
0.396531
0.395856
0.395184
0.394515
0.393849
0.393186
0.392526
0.391869
0.391215
0.390563
0.389915
0.389269
0.388626
0.387986
0.387348
0.386713
0.386081
0.385451
0.384824
0.384199
0.383577
0.382956
0.382338
0.381722
0.381108
0.380496
0.379886
0.379278
0.378671
0.378066
0.377462
0.37686
0.376259
0.375659
0.375061
0.374463
0.373866
0.37327
0.372674
0.372079
0.371485
0.37089
0.370296
0.444627
0.429835
0.415021
0.413603
0.412861
0.412122
0.411384
0.410649
0.409917
0.409187
0.40846
0.407736
0.407014
0.406295
0.405579
0.404866
0.404155
0.403447
0.402742
0.40204
0.401341
0.400645
0.399952
0.399262
0.398575
0.397891
0.39721
0.396532
0.395857
0.395185
0.394516
0.393849
0.393186
0.392526
0.391869
0.391215
0.390563
0.389915
0.389269
0.388626
0.387986
0.387348
0.386714
0.386081
0.385451
0.384824
0.384199
0.383577
0.382956
0.382338
0.381722
0.381108
0.380496
0.379886
0.379278
0.378671
0.378066
0.377462
0.37686
0.376259
0.375659
0.375061
0.374463
0.373866
0.37327
0.372674
0.372079
0.371485
0.37089
0.370296
0.444627
0.429835
0.415021
0.413604
0.412862
0.412122
0.411385
0.41065
0.409918
0.409188
0.408461
0.407736
0.407015
0.406296
0.405579
0.404866
0.404155
0.403447
0.402743
0.402041
0.401342
0.400646
0.399952
0.399262
0.398575
0.397891
0.39721
0.396532
0.395857
0.395185
0.394516
0.39385
0.393187
0.392527
0.391869
0.391215
0.390564
0.389915
0.389269
0.388626
0.387986
0.387349
0.386714
0.386081
0.385452
0.384824
0.384199
0.383577
0.382957
0.382338
0.381722
0.381109
0.380496
0.379886
0.379278
0.378671
0.378066
0.377462
0.37686
0.376259
0.375659
0.375061
0.374463
0.373866
0.37327
0.372674
0.372079
0.371485
0.37089
0.370296
0.444627
0.429835
0.415021
0.413604
0.412862
0.412122
0.411385
0.41065
0.409918
0.409188
0.408461
0.407737
0.407015
0.406296
0.40558
0.404866
0.404156
0.403448
0.402743
0.402041
0.401342
0.400646
0.399953
0.399263
0.398576
0.397892
0.39721
0.396532
0.395857
0.395185
0.394516
0.39385
0.393187
0.392527
0.39187
0.391215
0.390564
0.389915
0.38927
0.388627
0.387986
0.387349
0.386714
0.386082
0.385452
0.384825
0.3842
0.383577
0.382957
0.382339
0.381723
0.381109
0.380497
0.379887
0.379278
0.378671
0.378066
0.377463
0.37686
0.376259
0.37566
0.375061
0.374463
0.373866
0.37327
0.372674
0.372079
0.371485
0.37089
0.370296
0.444627
0.429836
0.415022
0.413604
0.412862
0.412123
0.411385
0.410651
0.409918
0.409189
0.408462
0.407737
0.407015
0.406296
0.40558
0.404867
0.404156
0.403448
0.402743
0.402042
0.401343
0.400646
0.399953
0.399263
0.398576
0.397892
0.397211
0.396533
0.395858
0.395186
0.394517
0.393851
0.393187
0.392527
0.39187
0.391216
0.390564
0.389916
0.38927
0.388627
0.387987
0.387349
0.386714
0.386082
0.385452
0.384825
0.3842
0.383577
0.382957
0.382339
0.381723
0.381109
0.380497
0.379887
0.379278
0.378672
0.378066
0.377463
0.37686
0.376259
0.37566
0.375061
0.374463
0.373866
0.37327
0.372674
0.372079
0.371485
0.37089
0.370296
0.444627
0.429836
0.415022
0.413605
0.412863
0.412123
0.411386
0.410651
0.409919
0.409189
0.408462
0.407738
0.407016
0.406297
0.405581
0.404867
0.404157
0.403449
0.402744
0.402042
0.401343
0.400647
0.399954
0.399264
0.398577
0.397893
0.397211
0.396533
0.395858
0.395186
0.394517
0.393851
0.393188
0.392528
0.391871
0.391216
0.390565
0.389916
0.389271
0.388628
0.387987
0.38735
0.386715
0.386082
0.385453
0.384825
0.3842
0.383578
0.382957
0.382339
0.381723
0.381109
0.380497
0.379887
0.379279
0.378672
0.378067
0.377463
0.376861
0.37626
0.37566
0.375061
0.374463
0.373866
0.37327
0.372674
0.372079
0.371485
0.37089
0.370296
0.444627
0.429836
0.415023
0.413605
0.412863
0.412124
0.411386
0.410652
0.409919
0.40919
0.408463
0.407738
0.407017
0.406298
0.405581
0.404868
0.404157
0.40345
0.402745
0.402043
0.401344
0.400648
0.399955
0.399264
0.398577
0.397893
0.397212
0.396534
0.395859
0.395187
0.394518
0.393852
0.393189
0.392528
0.391871
0.391217
0.390565
0.389917
0.389271
0.388628
0.387988
0.38735
0.386715
0.386083
0.385453
0.384826
0.384201
0.383578
0.382958
0.38234
0.381724
0.38111
0.380497
0.379887
0.379279
0.378672
0.378067
0.377463
0.376861
0.37626
0.37566
0.375061
0.374463
0.373866
0.37327
0.372675
0.372079
0.371485
0.37089
0.370296
0.444627
0.429836
0.415023
0.413606
0.412864
0.412124
0.411387
0.410652
0.40992
0.40919
0.408463
0.407739
0.407017
0.406298
0.405582
0.404869
0.404158
0.40345
0.402745
0.402043
0.401344
0.400648
0.399955
0.399265
0.398578
0.397894
0.397213
0.396535
0.39586
0.395187
0.394518
0.393852
0.393189
0.392529
0.391872
0.391217
0.390566
0.389917
0.389272
0.388629
0.387988
0.387351
0.386716
0.386083
0.385454
0.384826
0.384201
0.383579
0.382958
0.38234
0.381724
0.38111
0.380498
0.379888
0.379279
0.378672
0.378067
0.377463
0.376861
0.37626
0.37566
0.375061
0.374464
0.373867
0.37327
0.372675
0.37208
0.371485
0.37089
0.370296
0.444627
0.429837
0.415024
0.413607
0.412865
0.412125
0.411388
0.410653
0.409921
0.409191
0.408464
0.40774
0.407018
0.406299
0.405583
0.404869
0.404159
0.403451
0.402746
0.402044
0.401345
0.400649
0.399956
0.399266
0.398579
0.397895
0.397213
0.396535
0.39586
0.395188
0.394519
0.393853
0.39319
0.39253
0.391872
0.391218
0.390567
0.389918
0.389272
0.388629
0.387989
0.387351
0.386716
0.386084
0.385454
0.384827
0.384202
0.383579
0.382959
0.38234
0.381724
0.38111
0.380498
0.379888
0.379279
0.378673
0.378067
0.377464
0.376861
0.37626
0.37566
0.375062
0.374464
0.373867
0.37327
0.372675
0.37208
0.371485
0.37089
0.370296
0.444627
0.429837
0.415025
0.413607
0.412865
0.412126
0.411388
0.410654
0.409921
0.409192
0.408465
0.40774
0.407019
0.4063
0.405583
0.40487
0.404159
0.403452
0.402747
0.402045
0.401346
0.40065
0.399957
0.399267
0.398579
0.397895
0.397214
0.396536
0.395861
0.395189
0.39452
0.393854
0.39319
0.39253
0.391873
0.391219
0.390567
0.389919
0.389273
0.38863
0.387989
0.387352
0.386717
0.386084
0.385455
0.384827
0.384202
0.383579
0.382959
0.382341
0.381725
0.381111
0.380499
0.379888
0.37928
0.378673
0.378068
0.377464
0.376862
0.37626
0.375661
0.375062
0.374464
0.373867
0.37327
0.372675
0.37208
0.371485
0.370891
0.370296
0.444627
0.429837
0.415025
0.413608
0.412866
0.412126
0.411389
0.410654
0.409922
0.409193
0.408465
0.407741
0.407019
0.4063
0.405584
0.404871
0.40416
0.403452
0.402748
0.402046
0.401347
0.400651
0.399957
0.399267
0.39858
0.397896
0.397215
0.396537
0.395862
0.39519
0.39452
0.393854
0.393191
0.392531
0.391874
0.391219
0.390568
0.389919
0.389273
0.38863
0.38799
0.387352
0.386717
0.386085
0.385455
0.384828
0.384203
0.38358
0.382959
0.382341
0.381725
0.381111
0.380499
0.379889
0.37928
0.378673
0.378068
0.377464
0.376862
0.376261
0.375661
0.375062
0.374464
0.373867
0.373271
0.372675
0.37208
0.371485
0.370891
0.370296
0.444627
0.429838
0.415026
0.413609
0.412867
0.412127
0.41139
0.410655
0.409923
0.409193
0.408466
0.407742
0.40702
0.406301
0.405585
0.404872
0.404161
0.403453
0.402748
0.402046
0.401347
0.400651
0.399958
0.399268
0.398581
0.397897
0.397216
0.396537
0.395862
0.39519
0.394521
0.393855
0.393192
0.392532
0.391874
0.39122
0.390568
0.38992
0.389274
0.388631
0.38799
0.387353
0.386718
0.386085
0.385455
0.384828
0.384203
0.38358
0.38296
0.382342
0.381725
0.381111
0.380499
0.379889
0.37928
0.378673
0.378068
0.377464
0.376862
0.376261
0.375661
0.375062
0.374464
0.373867
0.373271
0.372675
0.37208
0.371485
0.370891
0.370296
0.444627
0.429838
0.415026
0.413609
0.412867
0.412128
0.41139
0.410656
0.409923
0.409194
0.408467
0.407742
0.407021
0.406302
0.405586
0.404872
0.404162
0.403454
0.402749
0.402047
0.401348
0.400652
0.399959
0.399269
0.398582
0.397897
0.397216
0.396538
0.395863
0.395191
0.394522
0.393856
0.393192
0.392532
0.391875
0.39122
0.390569
0.38992
0.389274
0.388631
0.387991
0.387353
0.386718
0.386086
0.385456
0.384828
0.384203
0.383581
0.38296
0.382342
0.381726
0.381112
0.3805
0.379889
0.379281
0.378674
0.378068
0.377465
0.376862
0.376261
0.375661
0.375062
0.374464
0.373867
0.373271
0.372675
0.37208
0.371485
0.370891
0.370296
0.444627
0.429838
0.415027
0.41361
0.412868
0.412128
0.411391
0.410656
0.409924
0.409194
0.408467
0.407743
0.407021
0.406302
0.405586
0.404873
0.404162
0.403455
0.40275
0.402048
0.401349
0.400653
0.399959
0.399269
0.398582
0.397898
0.397217
0.396539
0.395864
0.395191
0.394522
0.393856
0.393193
0.392533
0.391875
0.391221
0.390569
0.389921
0.389275
0.388632
0.387991
0.387354
0.386719
0.386086
0.385456
0.384829
0.384204
0.383581
0.382961
0.382342
0.381726
0.381112
0.3805
0.379889
0.379281
0.378674
0.378069
0.377465
0.376862
0.376261
0.375661
0.375062
0.374464
0.373867
0.373271
0.372675
0.37208
0.371485
0.370891
0.370296
0.444627
0.429839
0.415027
0.41361
0.412868
0.412129
0.411392
0.410657
0.409925
0.409195
0.408468
0.407744
0.407022
0.406303
0.405587
0.404873
0.404163
0.403455
0.40275
0.402048
0.401349
0.400653
0.39996
0.39927
0.398583
0.397899
0.397217
0.396539
0.395864
0.395192
0.394523
0.393857
0.393193
0.392533
0.391876
0.391222
0.39057
0.389921
0.389275
0.388632
0.387992
0.387354
0.386719
0.386087
0.385457
0.384829
0.384204
0.383581
0.382961
0.382343
0.381726
0.381112
0.3805
0.37989
0.379281
0.378674
0.378069
0.377465
0.376863
0.376261
0.375661
0.375062
0.374464
0.373867
0.373271
0.372675
0.37208
0.371485
0.370891
0.370296
0.444627
0.429839
0.415028
0.413611
0.412869
0.412129
0.411392
0.410657
0.409925
0.409196
0.408469
0.407744
0.407023
0.406304
0.405587
0.404874
0.404163
0.403456
0.402751
0.402049
0.40135
0.400654
0.399961
0.39927
0.398583
0.397899
0.397218
0.39654
0.395865
0.395193
0.394523
0.393857
0.393194
0.392534
0.391876
0.391222
0.39057
0.389922
0.389276
0.388633
0.387992
0.387355
0.38672
0.386087
0.385457
0.38483
0.384205
0.383582
0.382961
0.382343
0.381727
0.381113
0.3805
0.37989
0.379281
0.378674
0.378069
0.377465
0.376863
0.376262
0.375662
0.375063
0.374465
0.373867
0.373271
0.372675
0.37208
0.371485
0.370891
0.370296
0.444627
0.429839
0.415028
0.413611
0.412869
0.41213
0.411392
0.410658
0.409926
0.409196
0.408469
0.407745
0.407023
0.406304
0.405588
0.404874
0.404164
0.403456
0.402751
0.402049
0.40135
0.400654
0.399961
0.399271
0.398584
0.3979
0.397218
0.39654
0.395865
0.395193
0.394524
0.393858
0.393194
0.392534
0.391877
0.391222
0.390571
0.389922
0.389276
0.388633
0.387993
0.387355
0.38672
0.386087
0.385457
0.38483
0.384205
0.383582
0.382962
0.382343
0.381727
0.381113
0.380501
0.37989
0.379282
0.378675
0.378069
0.377465
0.376863
0.376262
0.375662
0.375063
0.374465
0.373868
0.373271
0.372675
0.37208
0.371485
0.370891
0.370296
0.444627
0.429839
0.415029
0.413611
0.41287
0.41213
0.411393
0.410658
0.409926
0.409196
0.408469
0.407745
0.407023
0.406305
0.405588
0.404875
0.404164
0.403457
0.402752
0.40205
0.401351
0.400655
0.399962
0.399271
0.398584
0.3979
0.397219
0.396541
0.395866
0.395193
0.394524
0.393858
0.393195
0.392535
0.391877
0.391223
0.390571
0.389922
0.389277
0.388633
0.387993
0.387355
0.38672
0.386088
0.385458
0.38483
0.384205
0.383582
0.382962
0.382343
0.381727
0.381113
0.380501
0.37989
0.379282
0.378675
0.378069
0.377466
0.376863
0.376262
0.375662
0.375063
0.374465
0.373868
0.373271
0.372675
0.37208
0.371485
0.370891
0.370296
0.444627
0.429839
0.415029
0.413612
0.41287
0.41213
0.411393
0.410659
0.409926
0.409197
0.40847
0.407745
0.407024
0.406305
0.405589
0.404875
0.404165
0.403457
0.402752
0.40205
0.401351
0.400655
0.399962
0.399272
0.398585
0.3979
0.397219
0.396541
0.395866
0.395194
0.394525
0.393858
0.393195
0.392535
0.391878
0.391223
0.390572
0.389923
0.389277
0.388634
0.387993
0.387356
0.386721
0.386088
0.385458
0.38483
0.384205
0.383583
0.382962
0.382344
0.381727
0.381113
0.380501
0.379891
0.379282
0.378675
0.37807
0.377466
0.376863
0.376262
0.375662
0.375063
0.374465
0.373868
0.373271
0.372675
0.37208
0.371485
0.370891
0.370296
0.444627
0.429839
0.415029
0.413612
0.41287
0.412131
0.411394
0.410659
0.409927
0.409197
0.40847
0.407746
0.407024
0.406305
0.405589
0.404876
0.404165
0.403457
0.402752
0.40205
0.401351
0.400655
0.399962
0.399272
0.398585
0.397901
0.39722
0.396541
0.395866
0.395194
0.394525
0.393859
0.393195
0.392535
0.391878
0.391223
0.390572
0.389923
0.389277
0.388634
0.387994
0.387356
0.386721
0.386088
0.385458
0.384831
0.384206
0.383583
0.382962
0.382344
0.381728
0.381113
0.380501
0.379891
0.379282
0.378675
0.37807
0.377466
0.376863
0.376262
0.375662
0.375063
0.374465
0.373868
0.373271
0.372676
0.37208
0.371485
0.370891
0.370296
0.444627
0.42984
0.415029
0.413612
0.41287
0.412131
0.411394
0.410659
0.409927
0.409197
0.40847
0.407746
0.407024
0.406305
0.405589
0.404876
0.404165
0.403458
0.402753
0.402051
0.401352
0.400656
0.399962
0.399272
0.398585
0.397901
0.39722
0.396542
0.395866
0.395194
0.394525
0.393859
0.393196
0.392535
0.391878
0.391224
0.390572
0.389923
0.389277
0.388634
0.387994
0.387356
0.386721
0.386088
0.385458
0.384831
0.384206
0.383583
0.382962
0.382344
0.381728
0.381114
0.380501
0.379891
0.379282
0.378675
0.37807
0.377466
0.376863
0.376262
0.375662
0.375063
0.374465
0.373868
0.373271
0.372676
0.37208
0.371485
0.370891
0.370296
0.444627
0.42984
0.415029
0.413612
0.412871
0.412131
0.411394
0.410659
0.409927
0.409198
0.408471
0.407746
0.407025
0.406306
0.405589
0.404876
0.404165
0.403458
0.402753
0.402051
0.401352
0.400656
0.399963
0.399273
0.398585
0.397901
0.39722
0.396542
0.395867
0.395194
0.394525
0.393859
0.393196
0.392536
0.391878
0.391224
0.390572
0.389923
0.389278
0.388634
0.387994
0.387356
0.386721
0.386089
0.385459
0.384831
0.384206
0.383583
0.382962
0.382344
0.381728
0.381114
0.380501
0.379891
0.379282
0.378675
0.37807
0.377466
0.376863
0.376262
0.375662
0.375063
0.374465
0.373868
0.373271
0.372676
0.37208
0.371485
0.370891
0.370296
0.444627
0.42984
0.41503
0.413613
0.412871
0.412131
0.411394
0.410659
0.409927
0.409198
0.408471
0.407746
0.407025
0.406306
0.40559
0.404876
0.404166
0.403458
0.402753
0.402051
0.401352
0.400656
0.399963
0.399273
0.398586
0.397901
0.39722
0.396542
0.395867
0.395195
0.394525
0.393859
0.393196
0.392536
0.391878
0.391224
0.390572
0.389924
0.389278
0.388634
0.387994
0.387356
0.386721
0.386089
0.385459
0.384831
0.384206
0.383583
0.382963
0.382344
0.381728
0.381114
0.380501
0.379891
0.379282
0.378675
0.37807
0.377466
0.376863
0.376262
0.375662
0.375063
0.374465
0.373868
0.373271
0.372676
0.37208
0.371485
0.370891
0.370296
0.444627
0.42984
0.41503
0.413613
0.412871
0.412131
0.411394
0.41066
0.409927
0.409198
0.408471
0.407747
0.407025
0.406306
0.40559
0.404876
0.404166
0.403458
0.402753
0.402051
0.401352
0.400656
0.399963
0.399273
0.398586
0.397901
0.39722
0.396542
0.395867
0.395195
0.394526
0.393859
0.393196
0.392536
0.391878
0.391224
0.390572
0.389924
0.389278
0.388635
0.387994
0.387356
0.386721
0.386089
0.385459
0.384831
0.384206
0.383583
0.382963
0.382344
0.381728
0.381114
0.380501
0.379891
0.379282
0.378675
0.37807
0.377466
0.376864
0.376262
0.375662
0.375063
0.374465
0.373868
0.373271
0.372676
0.37208
0.371485
0.370891
0.370296
0.444627
0.42984
0.41503
0.413613
0.412871
0.412131
0.411394
0.41066
0.409927
0.409198
0.408471
0.407747
0.407025
0.406306
0.40559
0.404876
0.404166
0.403458
0.402753
0.402051
0.401352
0.400656
0.399963
0.399273
0.398586
0.397902
0.39722
0.396542
0.395867
0.395195
0.394526
0.393859
0.393196
0.392536
0.391879
0.391224
0.390572
0.389924
0.389278
0.388635
0.387994
0.387356
0.386721
0.386089
0.385459
0.384831
0.384206
0.383583
0.382963
0.382344
0.381728
0.381114
0.380502
0.379891
0.379282
0.378675
0.37807
0.377466
0.376864
0.376262
0.375662
0.375063
0.374465
0.373868
0.373271
0.372676
0.37208
0.371485
0.370891
0.370296
0.444627
0.42984
0.41503
0.413613
0.412871
0.412131
0.411394
0.41066
0.409928
0.409198
0.408471
0.407747
0.407025
0.406306
0.40559
0.404876
0.404166
0.403458
0.402753
0.402051
0.401352
0.400656
0.399963
0.399273
0.398586
0.397902
0.39722
0.396542
0.395867
0.395195
0.394526
0.393859
0.393196
0.392536
0.391879
0.391224
0.390573
0.389924
0.389278
0.388635
0.387994
0.387356
0.386721
0.386089
0.385459
0.384831
0.384206
0.383583
0.382963
0.382344
0.381728
0.381114
0.380502
0.379891
0.379282
0.378675
0.37807
0.377466
0.376864
0.376262
0.375662
0.375063
0.374465
0.373868
0.373271
0.372676
0.37208
0.371485
0.370891
0.370296
0.444627
0.42984
0.41503
0.413613
0.412871
0.412131
0.411394
0.41066
0.409928
0.409198
0.408471
0.407747
0.407025
0.406306
0.40559
0.404877
0.404166
0.403458
0.402753
0.402051
0.401352
0.400656
0.399963
0.399273
0.398586
0.397902
0.39722
0.396542
0.395867
0.395195
0.394526
0.39386
0.393196
0.392536
0.391879
0.391224
0.390573
0.389924
0.389278
0.388635
0.387994
0.387357
0.386721
0.386089
0.385459
0.384831
0.384206
0.383583
0.382963
0.382344
0.381728
0.381114
0.380502
0.379891
0.379282
0.378675
0.37807
0.377466
0.376864
0.376262
0.375662
0.375063
0.374465
0.373868
0.373271
0.372676
0.37208
0.371485
0.370891
0.370296
0.444627
0.42984
0.41503
0.413613
0.412871
0.412131
0.411394
0.41066
0.409928
0.409198
0.408471
0.407747
0.407025
0.406306
0.40559
0.404877
0.404166
0.403458
0.402753
0.402051
0.401352
0.400656
0.399963
0.399273
0.398586
0.397902
0.39722
0.396542
0.395867
0.395195
0.394526
0.39386
0.393196
0.392536
0.391879
0.391224
0.390573
0.389924
0.389278
0.388635
0.387994
0.387357
0.386721
0.386089
0.385459
0.384831
0.384206
0.383583
0.382963
0.382344
0.381728
0.381114
0.380502
0.379891
0.379282
0.378675
0.37807
0.377466
0.376864
0.376262
0.375662
0.375063
0.374465
0.373868
0.373271
0.372676
0.37208
0.371485
0.370891
0.370296
0.444627
0.42984
0.41503
0.413613
0.412871
0.412131
0.411394
0.41066
0.409928
0.409198
0.408471
0.407747
0.407025
0.406306
0.40559
0.404877
0.404166
0.403458
0.402753
0.402051
0.401352
0.400656
0.399963
0.399273
0.398586
0.397902
0.39722
0.396542
0.395867
0.395195
0.394526
0.39386
0.393196
0.392536
0.391879
0.391224
0.390573
0.389924
0.389278
0.388635
0.387994
0.387357
0.386721
0.386089
0.385459
0.384831
0.384206
0.383583
0.382963
0.382344
0.381728
0.381114
0.380502
0.379891
0.379282
0.378675
0.37807
0.377466
0.376864
0.376262
0.375662
0.375063
0.374465
0.373868
0.373271
0.372676
0.37208
0.371485
0.370891
0.370296
0.444627
0.42984
0.41503
0.413613
0.412871
0.412132
0.411394
0.41066
0.409928
0.409198
0.408471
0.407747
0.407025
0.406306
0.40559
0.404877
0.404166
0.403458
0.402753
0.402051
0.401352
0.400656
0.399963
0.399273
0.398586
0.397902
0.39722
0.396542
0.395867
0.395195
0.394526
0.39386
0.393196
0.392536
0.391879
0.391224
0.390573
0.389924
0.389278
0.388635
0.387994
0.387357
0.386721
0.386089
0.385459
0.384831
0.384206
0.383583
0.382963
0.382344
0.381728
0.381114
0.380502
0.379891
0.379282
0.378675
0.37807
0.377466
0.376864
0.376262
0.375662
0.375063
0.374465
0.373868
0.373271
0.372676
0.37208
0.371485
0.370891
0.370296
0.444627
0.42984
0.41503
0.413613
0.412871
0.412132
0.411394
0.41066
0.409928
0.409198
0.408471
0.407747
0.407025
0.406306
0.40559
0.404877
0.404166
0.403458
0.402753
0.402051
0.401352
0.400656
0.399963
0.399273
0.398586
0.397902
0.397221
0.396542
0.395867
0.395195
0.394526
0.39386
0.393196
0.392536
0.391879
0.391224
0.390573
0.389924
0.389278
0.388635
0.387994
0.387357
0.386721
0.386089
0.385459
0.384831
0.384206
0.383583
0.382963
0.382344
0.381728
0.381114
0.380502
0.379891
0.379282
0.378675
0.37807
0.377466
0.376864
0.376262
0.375662
0.375063
0.374465
0.373868
0.373271
0.372676
0.37208
0.371485
0.370891
0.370296
0.444627
0.42984
0.41503
0.413613
0.412871
0.412132
0.411394
0.41066
0.409928
0.409198
0.408471
0.407747
0.407025
0.406306
0.40559
0.404877
0.404166
0.403458
0.402753
0.402051
0.401352
0.400656
0.399963
0.399273
0.398586
0.397902
0.397221
0.396542
0.395867
0.395195
0.394526
0.39386
0.393196
0.392536
0.391879
0.391224
0.390573
0.389924
0.389278
0.388635
0.387994
0.387357
0.386721
0.386089
0.385459
0.384831
0.384206
0.383583
0.382963
0.382344
0.381728
0.381114
0.380502
0.379891
0.379282
0.378675
0.37807
0.377466
0.376864
0.376262
0.375662
0.375063
0.374465
0.373868
0.373271
0.372676
0.37208
0.371485
0.370891
0.370296
0.444627
0.42984
0.41503
0.413613
0.412871
0.412132
0.411394
0.41066
0.409928
0.409198
0.408471
0.407747
0.407025
0.406306
0.40559
0.404877
0.404166
0.403458
0.402753
0.402051
0.401352
0.400656
0.399963
0.399273
0.398586
0.397902
0.397221
0.396542
0.395867
0.395195
0.394526
0.39386
0.393196
0.392536
0.391879
0.391224
0.390573
0.389924
0.389278
0.388635
0.387994
0.387357
0.386721
0.386089
0.385459
0.384831
0.384206
0.383583
0.382963
0.382344
0.381728
0.381114
0.380502
0.379891
0.379282
0.378675
0.37807
0.377466
0.376864
0.376262
0.375662
0.375063
0.374465
0.373868
0.373271
0.372676
0.37208
0.371485
0.370891
0.370296
0.444627
0.42984
0.41503
0.413613
0.412871
0.412132
0.411394
0.41066
0.409928
0.409198
0.408471
0.407747
0.407025
0.406306
0.40559
0.404877
0.404166
0.403458
0.402753
0.402051
0.401352
0.400656
0.399963
0.399273
0.398586
0.397902
0.397221
0.396542
0.395867
0.395195
0.394526
0.39386
0.393196
0.392536
0.391879
0.391224
0.390573
0.389924
0.389278
0.388635
0.387994
0.387357
0.386721
0.386089
0.385459
0.384831
0.384206
0.383583
0.382963
0.382344
0.381728
0.381114
0.380502
0.379891
0.379282
0.378675
0.37807
0.377466
0.376864
0.376262
0.375662
0.375063
0.374465
0.373868
0.373271
0.372676
0.37208
0.371485
0.370891
0.370296
0.444627
0.42984
0.41503
0.413613
0.412871
0.412132
0.411394
0.41066
0.409928
0.409198
0.408471
0.407747