/*--------------------------------*- C++ -*----------------------------------*\
  =========                 |
  \\      /  F ield         | OpenFOAM: The Open Source CFD Toolbox
   \\    /   O peration     | Website:  https://openfoam.org
    \\  /    A nd           | Version:  13
     \\/     M anipulation  |
\*---------------------------------------------------------------------------*/
FoamFile
{
    format      ascii;
    class       volScalarField;
    location    "62.5";
    object      rhok;
}
// * * * * * * * * * * * * * * * * * * * * * * * * * * * * * * * * * * * * * //

dimensions      [];

internalField   nonuniform List<scalar> 
315000
(
0.44448
0.424079
0.414133
0.412763
0.411888
0.410918
0.409906
0.408879
0.407851
0.406828
0.405812
0.404805
0.403806
0.402817
0.401838
0.40087
0.399914
0.398969
0.398038
0.39712
0.396216
0.395326
0.394452
0.393592
0.392749
0.391922
0.39111
0.390316
0.389538
0.388777
0.388033
0.387307
0.386597
0.385905
0.38523
0.384572
0.383931
0.383307
0.382699
0.382109
0.381534
0.380976
0.380434
0.379907
0.379396
0.378899
0.378417
0.377949
0.377494
0.377053
0.376624
0.376208
0.375803
0.37541
0.375027
0.374655
0.374291
0.373937
0.373591
0.373253
0.372921
0.372596
0.372277
0.371963
0.371653
0.371348
0.371045
0.370744
0.370446
0.370148
0.44445
0.422784
0.414695
0.413141
0.412111
0.41103
0.409953
0.408893
0.40785
0.406819
0.405801
0.404792
0.403793
0.402804
0.401825
0.400857
0.3999
0.398956
0.398024
0.397106
0.396201
0.395312
0.394437
0.393578
0.392734
0.391906
0.391095
0.3903
0.389522
0.388762
0.388018
0.387291
0.386581
0.385889
0.385214
0.384556
0.383915
0.383291
0.382684
0.382094
0.38152
0.380962
0.38042
0.379893
0.379382
0.378886
0.378404
0.377936
0.377482
0.377041
0.376613
0.376197
0.375793
0.3754
0.375018
0.374646
0.374283
0.37393
0.373584
0.373246
0.372916
0.372591
0.372273
0.371959
0.37165
0.371345
0.371043
0.370743
0.370445
0.370148
0.444506
0.425092
0.413804
0.412489
0.411676
0.410771
0.409809
0.408816
0.407809
0.406797
0.405788
0.404783
0.403786
0.402797
0.401818
0.40085
0.399893
0.398948
0.398016
0.397098
0.396193
0.395303
0.394428
0.393568
0.392725
0.391897
0.391085
0.39029
0.389512
0.388751
0.388007
0.387281
0.386571
0.385879
0.385203
0.384546
0.383905
0.383281
0.382674
0.382083
0.381509
0.380952
0.38041
0.379883
0.379372
0.378876
0.378395
0.377927
0.377474
0.377033
0.376605
0.37619
0.375786
0.375393
0.375012
0.37464
0.374278
0.373924
0.373579
0.373242
0.372911
0.372588
0.372269
0.371956
0.371648
0.371343
0.371041
0.370742
0.370444
0.370148
0.44448
0.424074
0.414115
0.412742
0.411866
0.410897
0.409886
0.40886
0.407832
0.406809
0.405793
0.404785
0.403786
0.402796
0.401816
0.400847
0.39989
0.398945
0.398012
0.397094
0.396189
0.395299
0.394423
0.393564
0.392719
0.391892
0.39108
0.390285
0.389507
0.388746
0.388001
0.387275
0.386565
0.385872
0.385197
0.384539
0.383898
0.383275
0.382668
0.382077
0.381503
0.380945
0.380404
0.379877
0.379366
0.37887
0.378389
0.377922
0.377468
0.377028
0.3766
0.376185
0.375781
0.375389
0.375007
0.374636
0.374274
0.373921
0.373576
0.373239
0.372909
0.372585
0.372267
0.371954
0.371646
0.371342
0.37104
0.370741
0.370444
0.370148
0.44445
0.422782
0.414691
0.413137
0.412107
0.411025
0.409948
0.408888
0.407843
0.406813
0.405793
0.404784
0.403784
0.402794
0.401815
0.400846
0.399888
0.398943
0.398011
0.397092
0.396187
0.395297
0.394422
0.393562
0.392718
0.39189
0.391078
0.390283
0.389505
0.388743
0.387999
0.387272
0.386562
0.38587
0.385195
0.384537
0.383896
0.383272
0.382665
0.382074
0.3815
0.380942
0.3804
0.379874
0.379363
0.378867
0.378386
0.377919
0.377465
0.377025
0.376597
0.376182
0.375778
0.375386
0.375005
0.374633
0.374271
0.373918
0.373574
0.373237
0.372907
0.372583
0.372266
0.371953
0.371645
0.371341
0.371039
0.370741
0.370444
0.370147
0.444506
0.425103
0.413822
0.412504
0.411687
0.410777
0.409813
0.408819
0.407812
0.4068
0.40579
0.404785
0.403787
0.402797
0.401818
0.400848
0.399891
0.398945
0.398013
0.397094
0.396189
0.395298
0.394423
0.393563
0.392718
0.39189
0.391078
0.390283
0.389505
0.388744
0.387999
0.387272
0.386562
0.38587
0.385194
0.384536
0.383895
0.383271
0.382664
0.382073
0.381499
0.380941
0.380399
0.379873
0.379362
0.378866
0.378385
0.377917
0.377464
0.377023
0.376596
0.376181
0.375777
0.375385
0.375003
0.374632
0.37427
0.373917
0.373573
0.373236
0.372906
0.372583
0.372265
0.371953
0.371645
0.37134
0.371039
0.37074
0.370443
0.370147
0.444449
0.42274
0.414669
0.413123
0.412096
0.411016
0.409942
0.408886
0.407845
0.406818
0.4058
0.404792
0.403792
0.402802
0.401822
0.400853
0.399895
0.398949
0.398016
0.397097
0.396191
0.395301
0.394425
0.393565
0.392721
0.391892
0.39108
0.390285
0.389507
0.388745
0.388001
0.387274
0.386564
0.385871
0.385196
0.384537
0.383896
0.383272
0.382665
0.382074
0.3815
0.380942
0.3804
0.379874
0.379363
0.378866
0.378385
0.377917
0.377464
0.377023
0.376596
0.376181
0.375777
0.375385
0.375003
0.374632
0.37427
0.373917
0.373572
0.373236
0.372906
0.372582
0.372265
0.371952
0.371644
0.37134
0.371039
0.37074
0.370443
0.370147
0.444449
0.422731
0.414675
0.413137
0.412108
0.411025
0.409948
0.40889
0.407848
0.40682
0.405803
0.404794
0.403795
0.402805
0.401825
0.400855
0.399897
0.398951
0.398019
0.397099
0.396194
0.395303
0.394428
0.393568
0.392723
0.391895
0.391083
0.390288
0.389509
0.388748
0.388003
0.387276
0.386566
0.385873
0.385198
0.384539
0.383898
0.383274
0.382666
0.382076
0.381501
0.380943
0.380401
0.379875
0.379364
0.378867
0.378386
0.377918
0.377465
0.377024
0.376596
0.376181
0.375777
0.375385
0.375004
0.374632
0.37427
0.373917
0.373573
0.373236
0.372906
0.372582
0.372265
0.371952
0.371644
0.37134
0.371039
0.37074
0.370443
0.370147
0.444449
0.422737
0.414669
0.413127
0.412101
0.411023
0.40995
0.408892
0.407851
0.406822
0.405804
0.404795
0.403796
0.402806
0.401826
0.400857
0.399899
0.398953
0.398021
0.397101
0.396196
0.395306
0.39443
0.39357
0.392726
0.391898
0.391086
0.39029
0.389512
0.38875
0.388006
0.387279
0.386568
0.385876
0.3852
0.384542
0.3839
0.383276
0.382668
0.382078
0.381503
0.380945
0.380403
0.379876
0.379365
0.378869
0.378387
0.377919
0.377466
0.377025
0.376597
0.376182
0.375778
0.375386
0.375004
0.374633
0.374271
0.373918
0.373573
0.373236
0.372906
0.372583
0.372265
0.371953
0.371645
0.37134
0.371039
0.37074
0.370443
0.370147
0.444506
0.425105
0.4138
0.41248
0.411668
0.410767
0.409809
0.408819
0.407814
0.406803
0.405794
0.404789
0.403792
0.402803
0.401824
0.400855
0.399898
0.398953
0.398021
0.397102
0.396198
0.395307
0.394432
0.393572
0.392728
0.3919
0.391088
0.390293
0.389514
0.388753
0.388008
0.387281
0.386571
0.385878
0.385202
0.384544
0.383902
0.383278
0.38267
0.382079
0.381505
0.380947
0.380404
0.379878
0.379366
0.37887
0.378388
0.377921
0.377467
0.377026
0.376598
0.376183
0.375779
0.375387
0.375005
0.374633
0.374271
0.373918
0.373573
0.373236
0.372906
0.372583
0.372265
0.371953
0.371645
0.37134
0.371039
0.37074
0.370443
0.370147
0.444506
0.425101
0.413773
0.412449
0.411642
0.410747
0.409794
0.408808
0.407805
0.406796
0.405789
0.404785
0.403789
0.402801
0.401822
0.400854
0.399898
0.398953
0.398021
0.397103
0.396198
0.395308
0.394433
0.393574
0.39273
0.391901
0.39109
0.390295
0.389516
0.388755
0.38801
0.387283
0.386573
0.38588
0.385204
0.384545
0.383904
0.38328
0.382672
0.382081
0.381507
0.380948
0.380406
0.379879
0.379368
0.378871
0.378389
0.377922
0.377468
0.377027
0.376599
0.376184
0.37578
0.375387
0.375005
0.374634
0.374272
0.373919
0.373574
0.373237
0.372907
0.372583
0.372266
0.371953
0.371645
0.371341
0.371039
0.370741
0.370443
0.370147
0.444506
0.4251
0.413771
0.412446
0.41164
0.410745
0.409793
0.408807
0.407804
0.406796
0.405788
0.404785
0.403789
0.402801
0.401823
0.400855
0.399899
0.398954
0.398023
0.397104
0.3962
0.39531
0.394435
0.393575
0.392731
0.391903
0.391091
0.390296
0.389518
0.388756
0.388012
0.387284
0.386574
0.385881
0.385205
0.384547
0.383905
0.383281
0.382673
0.382082
0.381508
0.380949
0.380407
0.37988
0.379369
0.378872
0.37839
0.377923
0.377469
0.377028
0.3766
0.376184
0.37578
0.375388
0.375006
0.374634
0.374272
0.373919
0.373574
0.373237
0.372907
0.372584
0.372266
0.371953
0.371645
0.371341
0.371039
0.370741
0.370444
0.370147
0.444506
0.425103
0.413776
0.412452
0.411645
0.41075
0.409797
0.408811
0.407808
0.406799
0.405791
0.404788
0.403792
0.402804
0.401825
0.400857
0.399901
0.398956
0.398025
0.397106
0.396202
0.395312
0.394437
0.393577
0.392733
0.391905
0.391093
0.390297
0.389519
0.388757
0.388013
0.387285
0.386575
0.385882
0.385207
0.384548
0.383906
0.383282
0.382674
0.382083
0.381509
0.38095
0.380408
0.379881
0.379369
0.378873
0.378391
0.377923
0.377469
0.377028
0.3766
0.376185
0.375781
0.375388
0.375006
0.374635
0.374273
0.373919
0.373574
0.373237
0.372907
0.372584
0.372266
0.371953
0.371645
0.371341
0.37104
0.370741
0.370444
0.370147
0.444506
0.425114
0.41382
0.412479
0.411657
0.410757
0.409803
0.408816
0.407813
0.406805
0.405796
0.404793
0.403796
0.402807
0.401829
0.40086
0.399903
0.398959
0.398027
0.397108
0.396203
0.395313
0.394438
0.393578
0.392734
0.391906
0.391094
0.390298
0.38952
0.388758
0.388014
0.387286
0.386576
0.385883
0.385207
0.384549
0.383907
0.383283
0.382675
0.382084
0.381509
0.380951
0.380408
0.379881
0.37937
0.378873
0.378391
0.377924
0.377469
0.377029
0.376601
0.376185
0.375781
0.375389
0.375007
0.374635
0.374273
0.37392
0.373575
0.373238
0.372908
0.372584
0.372266
0.371953
0.371645
0.371341
0.37104
0.370741
0.370444
0.370147
0.444426
0.421023
0.415722
0.413724
0.412256
0.411035
0.409927
0.408869
0.407834
0.406813
0.405799
0.404794
0.403797
0.402808
0.401829
0.400861
0.399904
0.398959
0.398027
0.397109
0.396204
0.395314
0.394438
0.393578
0.392734
0.391906
0.391094
0.390299
0.38952
0.388759
0.388014
0.387287
0.386576
0.385883
0.385208
0.384549
0.383907
0.383283
0.382675
0.382084
0.381509
0.380951
0.380409
0.379882
0.37937
0.378874
0.378392
0.377924
0.37747
0.377029
0.376601
0.376185
0.375781
0.375389
0.375007
0.374635
0.374273
0.37392
0.373575
0.373238
0.372908
0.372584
0.372266
0.371954
0.371645
0.371341
0.37104
0.370741
0.370444
0.370147
0.44448
0.424071
0.414125
0.412752
0.411876
0.410907
0.409896
0.40887
0.407843
0.40682
0.405805
0.404797
0.403799
0.402809
0.40183
0.400861
0.399904
0.398959
0.398027
0.397108
0.396204
0.395313
0.394438
0.393578
0.392734
0.391906
0.391094
0.390299
0.38952
0.388759
0.388014
0.387287
0.386576
0.385883
0.385208
0.384549
0.383907
0.383283
0.382675
0.382084
0.38151
0.380951
0.380409
0.379882
0.37937
0.378874
0.378392
0.377924
0.37747
0.377029
0.376601
0.376185
0.375781
0.375389
0.375007
0.374635
0.374273
0.37392
0.373575
0.373238
0.372908
0.372584
0.372266
0.371954
0.371645
0.371341
0.37104
0.370741
0.370444
0.370147
0.44448
0.424069
0.414109
0.412741
0.41187
0.410904
0.409895
0.408869
0.407842
0.406819
0.405804
0.404796
0.403797
0.402808
0.401829
0.40086
0.399903
0.398958
0.398026
0.397108
0.396203
0.395313
0.394437
0.393578
0.392733
0.391905
0.391094
0.390298
0.38952
0.388758
0.388014
0.387286
0.386576
0.385883
0.385207
0.384549
0.383907
0.383283
0.382675
0.382084
0.381509
0.380951
0.380409
0.379882
0.37937
0.378874
0.378392
0.377924
0.37747
0.377029
0.376601
0.376185
0.375781
0.375389
0.375007
0.374635
0.374273
0.37392
0.373575
0.373238
0.372908
0.372584
0.372266
0.371954
0.371645
0.371341
0.37104
0.370741
0.370444
0.370147
0.44448
0.424067
0.414107
0.412739
0.411867
0.410902
0.409893
0.408867
0.40784
0.406818
0.405802
0.404795
0.403796
0.402807
0.401828
0.400859
0.399902
0.398957
0.398025
0.397107
0.396202
0.395312
0.394437
0.393577
0.392733
0.391905
0.391093
0.390298
0.389519
0.388758
0.388013
0.387286
0.386576
0.385883
0.385207
0.384549
0.383907
0.383283
0.382675
0.382084
0.381509
0.380951
0.380409
0.379882
0.37937
0.378874
0.378392
0.377924
0.37747
0.377029
0.376601
0.376185
0.375781
0.375389
0.375007
0.374635
0.374273
0.37392
0.373575
0.373238
0.372908
0.372584
0.372266
0.371954
0.371645
0.371341
0.37104
0.370741
0.370444
0.370147
0.44448
0.424066
0.414106
0.412738
0.411866
0.410901
0.409892
0.408866
0.407839
0.406817
0.405801
0.404794
0.403795
0.402806
0.401827
0.400858
0.399901
0.398957
0.398025
0.397106
0.396201
0.395311
0.394436
0.393577
0.392732
0.391904
0.391093
0.390298
0.389519
0.388758
0.388013
0.387286
0.386576
0.385883
0.385207
0.384549
0.383907
0.383283
0.382675
0.382084
0.381509
0.380951
0.380409
0.379882
0.37937
0.378874
0.378392
0.377924
0.37747
0.377029
0.376601
0.376185
0.375781
0.375389
0.375007
0.374635
0.374273
0.37392
0.373575
0.373238
0.372908
0.372584
0.372266
0.371954
0.371645
0.371341
0.37104
0.370741
0.370444
0.370147
0.44448
0.424066
0.414106
0.412737
0.411866
0.410901
0.409891
0.408866
0.407839
0.406816
0.405801
0.404793
0.403795
0.402805
0.401826
0.400858
0.399901
0.398956
0.398024
0.397106
0.396201
0.395311
0.394436
0.393576
0.392732
0.391904
0.391093
0.390297
0.389519
0.388757
0.388013
0.387286
0.386576
0.385883
0.385207
0.384548
0.383907
0.383283
0.382675
0.382084
0.381509
0.380951
0.380408
0.379882
0.37937
0.378874
0.378392
0.377924
0.37747
0.377029
0.376601
0.376185
0.375781
0.375389
0.375007
0.374635
0.374273
0.37392
0.373575
0.373238
0.372908
0.372584
0.372266
0.371954
0.371645
0.371341
0.37104
0.370741
0.370444
0.370147
0.44448
0.424066
0.414105
0.412737
0.411866
0.4109
0.409891
0.408866
0.407838
0.406816
0.4058
0.404793
0.403794
0.402805
0.401826
0.400858
0.399901
0.398956
0.398024
0.397106
0.396201
0.395311
0.394436
0.393576
0.392732
0.391904
0.391092
0.390297
0.389519
0.388757
0.388013
0.387286
0.386576
0.385883
0.385207
0.384548
0.383907
0.383282
0.382675
0.382084
0.381509
0.380951
0.380408
0.379882
0.37937
0.378874
0.378392
0.377924
0.37747
0.377029
0.376601
0.376185
0.375781
0.375389
0.375007
0.374635
0.374273
0.37392
0.373575
0.373238
0.372908
0.372584
0.372266
0.371954
0.371645
0.371341
0.37104
0.370741
0.370444
0.370147
0.44448
0.424066
0.414105
0.412737
0.411866
0.4109
0.409891
0.408865
0.407838
0.406816
0.4058
0.404793
0.403794
0.402805
0.401826
0.400858
0.399901
0.398956
0.398024
0.397105
0.396201
0.395311
0.394436
0.393576
0.392732
0.391904
0.391092
0.390297
0.389519
0.388757
0.388013
0.387286
0.386575
0.385883
0.385207
0.384548
0.383907
0.383282
0.382675
0.382084
0.381509
0.380951
0.380408
0.379882
0.37937
0.378874
0.378392
0.377924
0.37747
0.377029
0.376601
0.376185
0.375781
0.375389
0.375007
0.374635
0.374273
0.37392
0.373575
0.373238
0.372908
0.372584
0.372266
0.371954
0.371645
0.371341
0.37104
0.370741
0.370444
0.370147
0.44448
0.424066
0.414105
0.412737
0.411866
0.4109
0.409891
0.408865
0.407838
0.406816
0.4058
0.404793
0.403794
0.402805
0.401826
0.400858
0.399901
0.398956
0.398024
0.397105
0.396201
0.395311
0.394436
0.393576
0.392732
0.391904
0.391092
0.390297
0.389519
0.388757
0.388013
0.387286
0.386575
0.385883
0.385207
0.384548
0.383907
0.383282
0.382675
0.382084
0.381509
0.380951
0.380408
0.379882
0.37937
0.378874
0.378392
0.377924
0.37747
0.377029
0.376601
0.376185
0.375781
0.375389
0.375007
0.374635
0.374273
0.37392
0.373575
0.373238
0.372908
0.372584
0.372266
0.371954
0.371645
0.371341
0.37104
0.370741
0.370444
0.370147
0.44448
0.424066
0.414105
0.412737
0.411866
0.4109
0.409891
0.408865
0.407838
0.406816
0.4058
0.404793
0.403794
0.402805
0.401826
0.400858
0.399901
0.398956
0.398024
0.397105
0.396201
0.395311
0.394436
0.393576
0.392732
0.391904
0.391092
0.390297
0.389519
0.388757
0.388013
0.387286
0.386575
0.385883
0.385207
0.384548
0.383907
0.383282
0.382675
0.382084
0.381509
0.380951
0.380408
0.379882
0.37937
0.378874
0.378392
0.377924
0.37747
0.377029
0.376601
0.376185
0.375781
0.375389
0.375007
0.374635
0.374273
0.37392
0.373575
0.373238
0.372908
0.372584
0.372266
0.371954
0.371645
0.371341
0.37104
0.370741
0.370444
0.370147
0.44448
0.424066
0.414105
0.412737
0.411866
0.4109
0.409891
0.408865
0.407838
0.406816
0.4058
0.404793
0.403794
0.402805
0.401826
0.400858
0.399901
0.398956
0.398024
0.397105
0.396201
0.395311
0.394436
0.393576
0.392732
0.391904
0.391092
0.390297
0.389519
0.388757
0.388013
0.387286
0.386575
0.385883
0.385207
0.384548
0.383907
0.383282
0.382675
0.382084
0.381509
0.380951
0.380408
0.379882
0.37937
0.378874
0.378392
0.377924
0.37747
0.377029
0.376601
0.376185
0.375781
0.375389
0.375007
0.374635
0.374273
0.37392
0.373575
0.373238
0.372908
0.372584
0.372266
0.371954
0.371645
0.371341
0.37104
0.370741
0.370444
0.370147
0.44448
0.424066
0.414105
0.412737
0.411866
0.4109
0.409891
0.408865
0.407838
0.406816
0.4058
0.404793
0.403794
0.402805
0.401826
0.400858
0.399901
0.398956
0.398024
0.397105
0.396201
0.395311
0.394436
0.393576
0.392732
0.391904
0.391092
0.390297
0.389519
0.388757
0.388013
0.387286
0.386575
0.385883
0.385207
0.384548
0.383907
0.383282
0.382675
0.382084
0.381509
0.380951
0.380408
0.379882
0.37937
0.378874
0.378392
0.377924
0.37747
0.377029
0.376601
0.376185
0.375781
0.375389
0.375007
0.374635
0.374273
0.37392
0.373575
0.373238
0.372908
0.372584
0.372266
0.371954
0.371645
0.371341
0.37104
0.370741
0.370444
0.370147
0.44448
0.424066
0.414105
0.412737
0.411866
0.4109
0.409891
0.408865
0.407838
0.406816
0.4058
0.404793
0.403794
0.402805
0.401826
0.400858
0.399901
0.398956
0.398024
0.397105
0.396201
0.395311
0.394436
0.393576
0.392732
0.391904
0.391092
0.390297
0.389519
0.388757
0.388013
0.387286
0.386575
0.385883
0.385207
0.384548
0.383907
0.383282
0.382675
0.382084
0.381509
0.380951
0.380408
0.379882
0.37937
0.378874
0.378392
0.377924
0.37747
0.377029
0.376601
0.376185
0.375781
0.375389
0.375007
0.374635
0.374273
0.37392
0.373575
0.373238
0.372908
0.372584
0.372266
0.371954
0.371645
0.371341
0.37104
0.370741
0.370444
0.370147
0.44448
0.424066
0.414105
0.412737
0.411866
0.4109
0.409891
0.408865
0.407838
0.406816
0.4058
0.404793
0.403794
0.402805
0.401826
0.400858
0.399901
0.398956
0.398024
0.397105
0.396201
0.395311
0.394436
0.393576
0.392732
0.391904
0.391092
0.390297
0.389519
0.388757
0.388013
0.387286
0.386575
0.385883
0.385207
0.384548
0.383907
0.383282
0.382675
0.382084
0.381509
0.380951
0.380408
0.379882
0.37937
0.378874
0.378392
0.377924
0.37747
0.377029
0.376601
0.376185
0.375781
0.375389
0.375007
0.374635
0.374273
0.37392
0.373575
0.373238
0.372908
0.372584
0.372266
0.371954
0.371645
0.371341
0.37104
0.370741
0.370444
0.370147
0.44448
0.424066
0.414105
0.412737
0.411866
0.4109
0.409891
0.408865
0.407838
0.406816
0.4058
0.404793
0.403794
0.402805
0.401826
0.400858
0.399901
0.398956
0.398024
0.397105
0.396201
0.395311
0.394436
0.393576
0.392732
0.391904
0.391092
0.390297
0.389519
0.388757
0.388013
0.387286
0.386575
0.385883
0.385207
0.384548
0.383907
0.383282
0.382675
0.382084
0.381509
0.380951
0.380408
0.379882
0.37937
0.378874
0.378392
0.377924
0.37747
0.377029
0.376601
0.376185
0.375781
0.375389
0.375007
0.374635
0.374273
0.37392
0.373575
0.373238
0.372908
0.372584
0.372266
0.371954
0.371645
0.371341
0.37104
0.370741
0.370444
0.370147
0.44448
0.424066
0.414105
0.412737
0.411866
0.4109
0.409891
0.408865
0.407838
0.406816
0.4058
0.404793
0.403794
0.402805
0.401826
0.400858
0.399901
0.398956
0.398024
0.397105
0.396201
0.395311
0.394436
0.393576
0.392732
0.391904
0.391092
0.390297
0.389519
0.388757
0.388013
0.387286
0.386575
0.385883
0.385207
0.384548
0.383907
0.383282
0.382675
0.382084
0.381509
0.380951
0.380408
0.379882
0.37937
0.378874
0.378392
0.377924
0.37747
0.377029
0.376601
0.376185
0.375781
0.375389
0.375007
0.374635
0.374273
0.37392
0.373575
0.373238
0.372908
0.372584
0.372266
0.371954
0.371645
0.371341
0.37104
0.370741
0.370444
0.370147
0.44448
0.424066
0.414105
0.412737
0.411866
0.4109
0.409891
0.408865
0.407838
0.406816
0.4058
0.404793
0.403794
0.402805
0.401826
0.400858
0.399901
0.398956
0.398024
0.397105
0.396201
0.395311
0.394436
0.393576
0.392732
0.391904
0.391092
0.390297
0.389519
0.388757
0.388013
0.387286
0.386575
0.385883
0.385207
0.384548
0.383907
0.383282
0.382675
0.382084
0.381509
0.380951
0.380408
0.379882
0.37937
0.378874
0.378392
0.377924
0.37747
0.377029
0.376601
0.376185
0.375781
0.375389
0.375007
0.374635
0.374273
0.37392
0.373575
0.373238
0.372908
0.372584
0.372266
0.371954
0.371645
0.371341
0.37104
0.370741
0.370444
0.370147
0.44448
0.424066
0.414105
0.412737
0.411866
0.4109
0.409891
0.408865
0.407838
0.406816
0.4058
0.404793
0.403794
0.402805
0.401826
0.400858
0.399901
0.398956
0.398024
0.397105
0.396201
0.395311
0.394436
0.393576
0.392732
0.391904
0.391092
0.390297
0.389519
0.388757
0.388013
0.387286
0.386575
0.385883
0.385207
0.384548
0.383907
0.383282
0.382675
0.382084
0.381509
0.380951
0.380408
0.379882
0.37937
0.378874
0.378392
0.377924
0.37747
0.377029
0.376601
0.376185
0.375781
0.375389
0.375007
0.374635
0.374273
0.37392
0.373575
0.373238
0.372908
0.372584
0.372266
0.371954
0.371645
0.371341
0.37104
0.370741
0.370444
0.370147
0.44448
0.424066
0.414105
0.412737
0.411866
0.4109
0.409891
0.408865
0.407838
0.406816
0.4058
0.404793
0.403794
0.402805
0.401826
0.400858
0.399901
0.398956
0.398024
0.397105
0.396201
0.395311
0.394436
0.393576
0.392732
0.391904
0.391092
0.390297
0.389519
0.388757
0.388013
0.387286
0.386575
0.385883
0.385207
0.384548
0.383907
0.383282
0.382675
0.382084
0.381509
0.380951
0.380408
0.379882
0.37937
0.378874
0.378392
0.377924
0.37747
0.377029
0.376601
0.376185
0.375781
0.375389
0.375007
0.374635
0.374273
0.37392
0.373575
0.373238
0.372908
0.372584
0.372266
0.371954
0.371645
0.371341
0.37104
0.370741
0.370444
0.370147
0.44448
0.424066
0.414105
0.412737
0.411866
0.4109
0.409891
0.408865
0.407838
0.406816
0.4058
0.404793
0.403794
0.402805
0.401826
0.400858
0.399901
0.398956
0.398024
0.397105
0.396201
0.395311
0.394436
0.393576
0.392732
0.391904
0.391092
0.390297
0.389519
0.388757
0.388013
0.387286
0.386575
0.385883
0.385207
0.384548
0.383907
0.383282
0.382675
0.382084
0.381509
0.380951
0.380408
0.379882
0.37937
0.378874
0.378392
0.377924
0.37747
0.377029
0.376601
0.376185
0.375781
0.375389
0.375007
0.374635
0.374273
0.37392
0.373575
0.373238
0.372908
0.372584
0.372266
0.371954
0.371645
0.371341
0.37104
0.370741
0.370444
0.370147
0.44448
0.424066
0.414105
0.412737
0.411866
0.4109
0.409891
0.408865
0.407838
0.406816
0.4058
0.404793
0.403794
0.402805
0.401826
0.400858
0.399901
0.398956
0.398024
0.397105
0.396201
0.395311
0.394436
0.393576
0.392732
0.391904
0.391092
0.390297
0.389519
0.388757
0.388013
0.387286
0.386575
0.385883
0.385207
0.384548
0.383907
0.383282
0.382675
0.382084
0.381509
0.380951
0.380408
0.379882
0.37937
0.378874
0.378392
0.377924
0.37747
0.377029
0.376601
0.376185
0.375781
0.375389
0.375007
0.374635
0.374273
0.37392
0.373575
0.373238
0.372908
0.372584
0.372266
0.371954
0.371645
0.371341
0.37104
0.370741
0.370444
0.370147
0.44448
0.424066
0.414105
0.412737
0.411866
0.4109
0.409891
0.408865
0.407838
0.406816
0.4058
0.404793
0.403794
0.402805
0.401826
0.400858
0.399901
0.398956
0.398024
0.397105
0.396201
0.395311
0.394436
0.393576
0.392732
0.391904
0.391092
0.390297
0.389519
0.388757
0.388013
0.387286
0.386575
0.385883
0.385207
0.384548
0.383907
0.383282
0.382675
0.382084
0.381509
0.380951
0.380408
0.379882
0.37937
0.378874
0.378392
0.377924
0.37747
0.377029
0.376601
0.376185
0.375781
0.375389
0.375007
0.374635
0.374273
0.37392
0.373575
0.373238
0.372908
0.372584
0.372266
0.371954
0.371645
0.371341
0.37104
0.370741
0.370444
0.370147
0.44448
0.424066
0.414105
0.412737
0.411866
0.4109
0.409891
0.408865
0.407838
0.406816
0.4058
0.404793
0.403794
0.402805
0.401826
0.400858
0.399901
0.398956
0.398024
0.397105
0.396201
0.395311
0.394436
0.393576
0.392732
0.391904
0.391092
0.390297
0.389519
0.388757
0.388013
0.387286
0.386575
0.385883
0.385207
0.384548
0.383907
0.383282
0.382675
0.382084
0.381509
0.380951
0.380408
0.379882
0.37937
0.378874
0.378392
0.377924
0.37747
0.377029
0.376601
0.376185
0.375781
0.375389
0.375007
0.374635
0.374273
0.37392
0.373575
0.373238
0.372908
0.372584
0.372266
0.371954
0.371645
0.371341
0.37104
0.370741
0.370444
0.370147
0.44448
0.424066
0.414105
0.412737
0.411866
0.4109
0.409891
0.408865
0.407838
0.406816
0.4058
0.404793
0.403794
0.402805
0.401826
0.400858
0.399901
0.398956
0.398024
0.397105
0.396201
0.395311
0.394436
0.393576
0.392732
0.391904
0.391092
0.390297
0.389519
0.388757
0.388013
0.387286
0.386575
0.385883
0.385207
0.384548
0.383907
0.383282
0.382675
0.382084
0.381509
0.380951
0.380408
0.379882
0.37937
0.378874
0.378392
0.377924
0.37747
0.377029
0.376601
0.376185
0.375781
0.375389
0.375007
0.374635
0.374273
0.37392
0.373575
0.373238
0.372908
0.372584
0.372266
0.371954
0.371645
0.371341
0.37104
0.370741
0.370444
0.370147
0.44448
0.424066
0.414105
0.412737
0.411866
0.4109
0.409891
0.408865
0.407838
0.406816
0.4058
0.404793
0.403794
0.402805
0.401826
0.400858
0.399901
0.398956
0.398024
0.397105
0.396201
0.395311
0.394436
0.393576
0.392732
0.391904
0.391092
0.390297
0.389519
0.388757
0.388013
0.387286
0.386575
0.385883
0.385207
0.384548
0.383907
0.383282
0.382675
0.382084
0.381509
0.380951
0.380408
0.379882
0.37937
0.378874
0.378392
0.377924
0.37747
0.377029
0.376601
0.376185
0.375781
0.375389
0.375007
0.374635
0.374273
0.37392
0.373575
0.373238
0.372908
0.372584
0.372266
0.371954
0.371645
0.371341
0.37104
0.370741
0.370444
0.370147
0.44448
0.424066
0.414105
0.412737
0.411866
0.4109
0.409891
0.408865
0.407838
0.406816
0.4058
0.404793
0.403794
0.402805
0.401826
0.400858
0.399901
0.398956
0.398024
0.397105
0.396201
0.395311
0.394436
0.393576
0.392732
0.391904
0.391092
0.390297
0.389519
0.388757
0.388013
0.387286
0.386575
0.385883
0.385207
0.384548
0.383907
0.383282
0.382675
0.382084
0.381509
0.380951
0.380408
0.379882
0.37937
0.378874
0.378392
0.377924
0.37747
0.377029
0.376601
0.376185
0.375781
0.375389
0.375007
0.374635
0.374273
0.37392
0.373575
0.373238
0.372908
0.372584
0.372266
0.371954
0.371645
0.371341
0.37104
0.370741
0.370444
0.370147
0.44448
0.424066
0.414105
0.412737
0.411866
0.4109
0.409891
0.408865
0.407838
0.406816
0.4058
0.404793
0.403794
0.402805
0.401826
0.400858
0.399901
0.398956
0.398024
0.397105
0.396201
0.395311
0.394436
0.393576
0.392732
0.391904
0.391092
0.390297
0.389519
0.388757
0.388013
0.387286
0.386575
0.385883
0.385207
0.384548
0.383907
0.383282
0.382675
0.382084
0.381509
0.380951
0.380408
0.379882
0.37937
0.378874
0.378392
0.377924
0.37747
0.377029
0.376601
0.376185
0.375781
0.375389
0.375007
0.374635
0.374273
0.37392
0.373575
0.373238
0.372908
0.372584
0.372266
0.371954
0.371645
0.371341
0.37104
0.370741
0.370444
0.370147
0.44448
0.424066
0.414105
0.412737
0.411866
0.4109
0.409891
0.408865
0.407838
0.406816
0.4058
0.404793
0.403794
0.402805
0.401826
0.400858
0.399901
0.398956
0.398024
0.397105
0.396201
0.395311
0.394436
0.393576
0.392732
0.391904
0.391092
0.390297
0.389519
0.388757
0.388013
0.387286
0.386575
0.385883
0.385207
0.384548
0.383907
0.383282
0.382675
0.382084
0.381509
0.380951
0.380408
0.379882
0.37937
0.378874
0.378392
0.377924
0.37747
0.377029
0.376601
0.376185
0.375781
0.375389
0.375007
0.374635
0.374273
0.37392
0.373575
0.373238
0.372908
0.372584
0.372266
0.371954
0.371645
0.371341
0.37104
0.370741
0.370444
0.370147
0.44448
0.424066
0.414105
0.412737
0.411866
0.4109
0.409891
0.408865
0.407838
0.406816
0.4058
0.404793
0.403794
0.402805
0.401826
0.400858
0.399901
0.398956
0.398024
0.397105
0.396201
0.395311
0.394436
0.393576
0.392732
0.391904
0.391092
0.390297
0.389519
0.388757
0.388013
0.387286
0.386575
0.385883
0.385207
0.384548
0.383907
0.383282
0.382675
0.382084
0.381509
0.380951
0.380408
0.379882
0.37937
0.378874
0.378392
0.377924
0.37747
0.377029
0.376601
0.376185
0.375781
0.375389
0.375007
0.374635
0.374273
0.37392
0.373575
0.373238
0.372908
0.372584
0.372266
0.371954
0.371645
0.371341
0.37104
0.370741
0.370444
0.370147
0.44448
0.424066
0.414105
0.412737
0.411866
0.4109
0.409891
0.408865
0.407838
0.406816
0.4058
0.404793
0.403794
0.402805
0.401826
0.400858
0.399901
0.398956
0.398024
0.397105
0.396201
0.395311
0.394436
0.393576
0.392732
0.391904
0.391092
0.390297
0.389519
0.388757
0.388013
0.387286
0.386575
0.385883
0.385207
0.384548
0.383907
0.383282
0.382675
0.382084
0.381509
0.380951
0.380408
0.379882
0.37937
0.378874
0.378392
0.377924
0.37747
0.377029
0.376601
0.376185
0.375781
0.375389
0.375007
0.374635
0.374273
0.37392
0.373575
0.373238
0.372908
0.372584
0.372266
0.371954
0.371645
0.371341
0.37104
0.370741
0.370444
0.370147
0.44448
0.424066
0.414105
0.412737
0.411866
0.4109
0.409891
0.408865
0.407838
0.406816
0.4058
0.404793
0.403794
0.402805
0.401826
0.400858
0.399901
0.398956
0.398024
0.397105
0.396201
0.395311
0.394436
0.393576
0.392732
0.391904
0.391092
0.390297
0.389519
0.388757
0.388013
0.387286
0.386575
0.385883
0.385207
0.384548
0.383907
0.383282
0.382675
0.382084
0.381509
0.380951
0.380408
0.379882
0.37937
0.378874
0.378392
0.377924
0.37747
0.377029
0.376601
0.376185
0.375781
0.375389
0.375007
0.374635
0.374273
0.37392
0.373575
0.373238
0.372908
0.372584
0.372266
0.371954
0.371645
0.371341
0.37104
0.370741
0.370444
0.370147
0.44448
0.424066
0.414105
0.412737
0.411866
0.4109
0.409891
0.408865
0.407838
0.406816
0.4058
0.404793
0.403794
0.402805
0.401826
0.400858
0.399901
0.398956
0.398024
0.397105
0.396201
0.395311
0.394436
0.393576
0.392732
0.391904
0.391092
0.390297
0.389519
0.388757
0.388013
0.387286
0.386575
0.385883
0.385207
0.384548
0.383907
0.383282
0.382675
0.382084
0.381509
0.380951
0.380408
0.379882
0.37937
0.378874
0.378392
0.377924
0.37747
0.377029
0.376601
0.376185
0.375781
0.375389
0.375007
0.374635
0.374273
0.37392
0.373575
0.373238
0.372908
0.372584
0.372266
0.371954
0.371645
0.371341
0.37104
0.370741
0.370444
0.370147
0.44448
0.424066
0.414105
0.412737
0.411866
0.4109
0.409891
0.408865
0.407838
0.406816
0.4058
0.404793
0.403794
0.402805
0.401826
0.400858
0.399901
0.398956
0.398024
0.397105
0.396201
0.395311
0.394436
0.393576
0.392732
0.391904
0.391092
0.390297
0.389519
0.388757
0.388013
0.387286
0.386575
0.385883
0.385207
0.384548
0.383907
0.383282
0.382675
0.382084
0.381509
0.380951
0.380408
0.379882
0.37937
0.378874
0.378392
0.377924
0.37747
0.377029
0.376601
0.376185
0.375781
0.375389
0.375007
0.374635
0.374273
0.37392
0.373575
0.373238
0.372908
0.372584
0.372266
0.371954
0.371645
0.371341
0.37104
0.370741
0.370444
0.370147
0.44448
0.424066
0.414105
0.412737
0.411866
0.4109
0.409891
0.408865
0.407838
0.406816
0.4058
0.404793
0.403794
0.402805