/*--------------------------------*- C++ -*----------------------------------*\
  =========                 |
  \\      /  F ield         | OpenFOAM: The Open Source CFD Toolbox
   \\    /   O peration     | Website:  https://openfoam.org
    \\  /    A nd           | Version:  13
     \\/     M anipulation  |
\*---------------------------------------------------------------------------*/
FoamFile
{
    format      ascii;
    class       volScalarField;
    location    "470";
    object      k;
}
// * * * * * * * * * * * * * * * * * * * * * * * * * * * * * * * * * * * * * //

dimensions      [0 2 -2 0 0 0 0];

internalField   nonuniform List<scalar> 
78750
(
2.22045e-16
2.22045e-16
2.22045e-16
2.22045e-16
2.22045e-16
2.22045e-16
2.22045e-16
2.22045e-16
2.22045e-16
2.22045e-16
2.22045e-16
2.22045e-16
2.22045e-16
2.22045e-16
2.22045e-16
2.22045e-16
2.22045e-16
2.22045e-16
2.22045e-16
2.22045e-16
2.22045e-16
2.22045e-16
2.22045e-16
2.22045e-16
2.22045e-16
2.22045e-16
2.22045e-16
2.22045e-16
2.22045e-16
2.22045e-16
2.22045e-16
2.22045e-16
2.22045e-16
2.22045e-16
2.22045e-16
2.22045e-16
2.22045e-16
2.22045e-16
2.22045e-16
2.22045e-16
2.22045e-16
2.22045e-16
2.22045e-16
2.22045e-16
2.22045e-16
2.22045e-16
2.22045e-16
2.22045e-16
2.22045e-16
2.22045e-16
2.22045e-16
2.22045e-16
2.22045e-16
2.22045e-16
2.22045e-16
2.22045e-16
2.22045e-16
2.22045e-16
2.22045e-16
2.22045e-16
2.22045e-16
2.22045e-16
2.22045e-16
2.22045e-16
2.22045e-16
2.22045e-16
2.22045e-16
2.22045e-16
2.22045e-16
2.22045e-16
2.22045e-16
2.22045e-16
2.22045e-16
2.22045e-16
2.22045e-16
2.22045e-16
2.22045e-16
2.22045e-16
2.22045e-16
2.22045e-16
2.22045e-16
2.22045e-16
2.22045e-16
2.22045e-16
2.22045e-16
2.22045e-16
2.22045e-16
2.22045e-16
2.22045e-16
2.22045e-16
2.22045e-16
2.22045e-16
2.22045e-16
2.22045e-16
2.22045e-16
2.22045e-16
2.22045e-16
2.22045e-16
2.22045e-16
2.22045e-16
2.22045e-16
2.22045e-16
2.22045e-16
2.22045e-16
2.22045e-16
2.22045e-16
2.22045e-16
2.22045e-16
2.22045e-16
2.22045e-16
2.22045e-16
2.22045e-16
2.22045e-16
2.22045e-16
2.22045e-16
2.22045e-16
2.25922e-16
2.41028e-16
2.56274e-16
2.69834e-16
2.80438e-16
2.87226e-16
2.89694e-16
2.87663e-16
2.81279e-16
2.71018e-16
2.57701e-16
2.42553e-16
2.27328e-16
2.22045e-16
2.22045e-16
2.22045e-16
2.22045e-16
2.22045e-16
2.22045e-16
2.22045e-16
2.22045e-16
2.22045e-16
2.22045e-16
2.22045e-16
2.22045e-16
2.22045e-16
2.22045e-16
2.22045e-16
2.22045e-16
2.22045e-16
2.22045e-16
2.22045e-16
2.31245e-16
2.57e-16
2.86991e-16
3.18583e-16
3.49508e-16
3.77793e-16
4.01748e-16
4.19993e-16
4.31494e-16
4.35605e-16
4.32097e-16
4.21164e-16
4.0342e-16
3.79869e-16
3.51871e-16
3.21101e-16
2.8953e-16
2.59354e-16
2.33085e-16
2.22045e-16
2.22045e-16
2.22045e-16
2.22045e-16
2.22045e-16
2.22045e-16
2.22045e-16
2.22045e-16
2.22045e-16
2.22045e-16
2.22045e-16
2.22045e-16
2.22045e-16
2.22045e-16
2.22045e-16
2.49899e-16
2.8645e-16
3.28573e-16
3.73563e-16
4.18908e-16
4.62225e-16
5.01287e-16
5.34089e-16
5.5894e-16
5.74548e-16
5.80097e-16
5.75296e-16
5.60394e-16
5.3617e-16
5.0388e-16
4.65192e-16
4.22092e-16
3.76798e-16
3.31689e-16
2.89285e-16
2.52294e-16
2.23702e-16
2.22045e-16
2.22045e-16
2.22045e-16
2.22045e-16
2.22045e-16
2.22045e-16
2.22045e-16
2.22045e-16
2.22045e-16
2.22045e-16
2.22045e-16
2.22045e-16
2.50827e-16
2.92794e-16
3.4249e-16
3.97224e-16
4.54346e-16
5.11186e-16
5.65082e-16
6.13465e-16
6.53979e-16
6.84613e-16
7.03825e-16
7.10633e-16
7.04689e-16
6.86295e-16
6.56387e-16
6.16472e-16
5.68531e-16
5.149e-16
4.58141e-16
4.00917e-16
3.45908e-16
2.95778e-16
2.53247e-16
2.22045e-16
2.22045e-16
2.22045e-16
2.22045e-16
2.22045e-16
2.22045e-16
2.22045e-16
2.22045e-16
2.22045e-16
2.22045e-16
2.22045e-16
2.37711e-16
2.79858e-16
3.32312e-16
3.92352e-16
4.57336e-16
5.24511e-16
5.90989e-16
6.53816e-16
7.10099e-16
7.57166e-16
7.92721e-16
8.14999e-16
8.22877e-16
8.15955e-16
7.94582e-16
7.59832e-16
7.1343e-16
6.57639e-16
5.95114e-16
5.28737e-16
4.61465e-16
3.96195e-16
3.35691e-16
2.82604e-16
2.39648e-16
2.22045e-16
2.22045e-16
2.22045e-16
2.22045e-16
2.22045e-16
2.22045e-16
2.22045e-16
2.22045e-16
2.22045e-16
2.22045e-16
2.54519e-16
3.05142e-16
3.65784e-16
4.3402e-16
5.07234e-16
5.82553e-16
6.56879e-16
7.27001e-16
7.89751e-16
8.42185e-16
8.81773e-16
9.06564e-16
9.15316e-16
9.07589e-16
8.8377e-16
8.45046e-16
7.93326e-16
7.31107e-16
6.61312e-16
5.87101e-16
5.11689e-16
4.3819e-16
3.69498e-16
3.08261e-16
2.56939e-16
2.22045e-16
2.22045e-16
2.22045e-16
2.22045e-16
2.22045e-16
2.22045e-16
2.22045e-16
2.22045e-16
2.22045e-16
2.25264e-16
2.69243e-16
3.25814e-16
3.92593e-16
4.67138e-16
5.46761e-16
6.28453e-16
7.08939e-16
7.84795e-16
8.5263e-16
9.09289e-16
9.5205e-16
9.78817e-16
9.88256e-16
9.79893e-16
9.54145e-16
9.12291e-16
8.56383e-16
7.89106e-16
7.13595e-16
6.33232e-16
5.51446e-16
4.71527e-16
3.96507e-16
3.29103e-16
2.71784e-16
2.2696e-16
2.22045e-16
2.22045e-16
2.22045e-16
2.22045e-16
2.22045e-16
2.22045e-16
2.22045e-16
2.22045e-16
2.32165e-16
2.8053e-16
3.41579e-16
4.12965e-16
4.92248e-16
5.76687e-16
6.63176e-16
7.48302e-16
8.2848e-16
9.0015e-16
9.59994e-16
1.00515e-15
1.03341e-15
1.04336e-15
1.03452e-15
1.00731e-15
9.63094e-16
9.04026e-16
8.32933e-16
7.53113e-16
6.68117e-16
5.81534e-16
4.96794e-16
4.17026e-16
3.44998e-16
2.83174e-16
2.33926e-16
2.22045e-16
2.22045e-16
2.22045e-16
2.22045e-16
2.22045e-16
2.22045e-16
2.22045e-16
2.22045e-16
2.37207e-16
2.88753e-16
3.53035e-16
4.27741e-16
5.10437e-16
5.98349e-16
6.88298e-16
7.76773e-16
8.60072e-16
9.34512e-16
9.96656e-16
1.04354e-15
1.07287e-15
1.0832e-15
1.07401e-15
1.04575e-15
9.9982e-16
9.38467e-16
8.64618e-16
7.81686e-16
6.93346e-16
6.03305e-16
5.15091e-16
4.31907e-16
3.56553e-16
2.91486e-16
2.39028e-16
2.22045e-16
2.22045e-16
2.22045e-16
2.22045e-16
2.22045e-16
2.22045e-16
2.22045e-16
2.22045e-16
2.40756e-16
2.94511e-16
3.61017e-16
4.38004e-16
5.23048e-16
6.13351e-16
7.05688e-16
7.96475e-16
8.81929e-16
9.58283e-16
1.02202e-15
1.07009e-15
1.10017e-15
1.11075e-15
1.10132e-15
1.07233e-15
1.02522e-15
9.62287e-16
8.86532e-16
8.01449e-16
7.10799e-16
6.18369e-16
5.2776e-16
4.42222e-16
3.64578e-16
2.97273e-16
2.4259e-16
2.22045e-16
2.22045e-16
2.22045e-16
2.22045e-16
2.22045e-16
2.22045e-16
2.22045e-16
2.22045e-16
2.43111e-16
2.98329e-16
3.66308e-16
4.44803e-16
5.31399e-16
6.23284e-16
7.172e-16
8.09517e-16
8.96397e-16
9.74017e-16
1.0388e-15
1.08767e-15
1.11824e-15
1.12899e-15
1.11939e-15
1.08992e-15
1.04203e-15
9.7805e-16
9.01033e-16
8.14526e-16
7.22347e-16
6.28338e-16
5.36144e-16
4.49049e-16
3.69891e-16
3.01105e-16
2.4495e-16
2.22045e-16
2.22045e-16
2.22045e-16
2.22045e-16
2.22045e-16
2.22045e-16
2.22045e-16
2.22045e-16
2.44603e-16
3.00748e-16
3.6966e-16
4.49111e-16
5.36691e-16
6.29579e-16
7.24495e-16
8.17781e-16
9.05565e-16
9.83987e-16
1.04944e-15
1.09881e-15
1.12968e-15
1.14054e-15
1.13084e-15
1.10106e-15
1.05268e-15
9.88035e-16
9.10218e-16
8.2281e-16
7.29662e-16
6.34652e-16
5.41455e-16
4.53375e-16
3.73259e-16
3.03537e-16
2.4645e-16
2.22045e-16
2.22045e-16
2.22045e-16
2.22045e-16
2.22045e-16
2.22045e-16
2.22045e-16
2.22045e-16
2.4551e-16
3.02218e-16
3.71696e-16
4.51727e-16
5.39904e-16
6.334e-16
7.28924e-16
8.22798e-16
9.1113e-16
9.90039e-16
1.05589e-15
1.10557e-15
1.13663e-15
1.14756e-15
1.13779e-15
1.10783e-15
1.05914e-15
9.94095e-16
9.15793e-16
8.27837e-16
7.34102e-16
6.38486e-16
5.44683e-16
4.56009e-16
3.75318e-16
3.05036e-16
2.47384e-16
2.22045e-16
2.22045e-16
2.22045e-16
2.22045e-16
2.22045e-16
2.22045e-16
2.22045e-16
2.22045e-16
2.46037e-16
3.03073e-16
3.72881e-16
4.53249e-16
5.41774e-16
6.35625e-16
7.31502e-16
8.25718e-16
9.1437e-16
9.93562e-16
1.05965e-15
1.1095e-15
1.14068e-15
1.15164e-15
1.14184e-15
1.11176e-15
1.0629e-15
9.97622e-16
9.19037e-16
8.30762e-16
7.36686e-16
6.40717e-16
5.46561e-16
4.57542e-16
3.76517e-16
3.05908e-16
2.47929e-16
2.22045e-16
2.22045e-16
2.22045e-16
2.22045e-16
2.22045e-16
2.22045e-16
2.22045e-16
2.22045e-16
2.46332e-16
3.0355e-16
3.73542e-16
4.541e-16
5.42818e-16
6.36867e-16
7.32942e-16
8.27349e-16
9.16179e-16
9.95529e-16
1.06175e-15
1.1117e-15
1.14293e-15
1.15392e-15
1.1441e-15
1.11396e-15
1.065e-15
9.99591e-16
9.20848e-16
8.32396e-16
7.38128e-16
6.41962e-16
5.47609e-16
4.58398e-16
3.77187e-16
3.06396e-16
2.48233e-16
2.22045e-16
2.22045e-16
2.22045e-16
2.22045e-16
2.22045e-16
2.22045e-16
2.22045e-16
2.22045e-16
2.4649e-16
3.03807e-16
3.73898e-16
4.54556e-16
5.43379e-16
6.37534e-16
7.33714e-16
8.28224e-16
9.1715e-16
9.96585e-16
1.06288e-15
1.11288e-15
1.14415e-15
1.15514e-15
1.14531e-15
1.11514e-15
1.06613e-15
1.00065e-15
9.2182e-16
8.33272e-16
7.38902e-16
6.4263e-16
5.48171e-16
4.58857e-16
3.77546e-16
3.06657e-16
2.48396e-16
2.22045e-16
2.22045e-16
2.22045e-16
2.22045e-16
2.22045e-16
2.22045e-16
2.22045e-16
2.22045e-16
2.46574e-16
3.0394e-16
3.74082e-16
4.54792e-16
5.43669e-16
6.37878e-16
7.34113e-16
8.28676e-16
9.17651e-16
9.9713e-16
1.06346e-15
1.11349e-15
1.14477e-15
1.15577e-15
1.14594e-15
1.11575e-15
1.06671e-15
1.00119e-15
9.22322e-16
8.33724e-16
7.39301e-16
6.42975e-16
5.48462e-16
4.59094e-16
3.77731e-16
3.06792e-16
2.4848e-16
2.22045e-16
2.22045e-16
2.22045e-16
2.22045e-16
2.22045e-16
2.22045e-16
2.22045e-16
2.22045e-16
2.46615e-16
3.04007e-16
3.74174e-16
4.5491e-16
5.43812e-16
6.38049e-16
7.34311e-16
8.28901e-16
9.179e-16
9.97401e-16
1.06375e-15
1.11379e-15
1.14508e-15
1.15609e-15
1.14625e-15
1.11605e-15
1.067e-15
1.00146e-15
9.22571e-16
8.33949e-16
7.395e-16
6.43146e-16
5.48606e-16
4.59212e-16
3.77823e-16
3.06859e-16
2.48522e-16
2.22045e-16
2.22045e-16
2.22045e-16
2.22045e-16
2.22045e-16
2.22045e-16
2.22045e-16
2.22045e-16
2.46635e-16
3.04039e-16
3.74218e-16
4.54966e-16
5.43881e-16
6.38131e-16
7.34406e-16
8.29008e-16
9.1802e-16
9.97531e-16
1.06389e-15
1.11393e-15
1.14523e-15
1.15624e-15
1.1464e-15
1.1162e-15
1.06714e-15
1.00159e-15
9.2269e-16
8.34056e-16
7.39595e-16
6.43228e-16
5.48675e-16
4.59268e-16
3.77867e-16
3.06891e-16
2.48542e-16
2.22045e-16
2.22045e-16
2.22045e-16
2.22045e-16
2.22045e-16
2.22045e-16
2.22045e-16
2.22045e-16
2.46645e-16
3.04054e-16
3.74238e-16
4.54992e-16
5.43913e-16
6.38169e-16
7.3445e-16
8.29058e-16
9.18075e-16
9.9759e-16
1.06395e-15
1.114e-15
1.1453e-15
1.15631e-15
1.14646e-15
1.11627e-15
1.0672e-15
1.00165e-15
9.22745e-16
8.34106e-16
7.39638e-16
6.43266e-16
5.48706e-16
4.59294e-16
3.77887e-16
3.06906e-16
2.48551e-16
2.22045e-16
2.22045e-16
2.22045e-16
2.22045e-16
2.22045e-16
2.22045e-16
2.22045e-16
2.22045e-16
2.46649e-16
3.04061e-16
3.74247e-16
4.55004e-16
5.43927e-16
6.38186e-16
7.34469e-16
8.2908e-16
9.18099e-16
9.97617e-16
1.06398e-15
1.11403e-15
1.14533e-15
1.15634e-15
1.1465e-15
1.1163e-15
1.06723e-15
1.00168e-15
9.22769e-16
8.34128e-16
7.39658e-16
6.43283e-16
5.48721e-16
4.59305e-16
3.77896e-16
3.06912e-16
2.48555e-16
2.22045e-16
2.22045e-16
2.22045e-16
2.22045e-16
2.22045e-16
2.22045e-16
2.22045e-16
2.22045e-16
2.46651e-16
3.04064e-16
3.74251e-16
4.55009e-16
5.43934e-16
6.38193e-16
7.34478e-16
8.29089e-16
9.1811e-16
9.97629e-16
1.06399e-15
1.11404e-15
1.14534e-15
1.15635e-15
1.14651e-15
1.11631e-15
1.06724e-15
1.00169e-15
9.2278e-16
8.34138e-16
7.39666e-16
6.4329e-16
5.48727e-16
4.5931e-16
3.779e-16
3.06915e-16
2.48557e-16
2.22045e-16
2.22045e-16
2.22045e-16
2.22045e-16
2.22045e-16
2.22045e-16
2.22045e-16
2.22045e-16
2.46651e-16
3.04065e-16
3.74253e-16
4.55011e-16
5.43936e-16
6.38196e-16
7.34481e-16
8.29093e-16
9.18114e-16
9.97633e-16
1.064e-15
1.11405e-15
1.14535e-15
1.15636e-15
1.14651e-15
1.11631e-15
1.06725e-15
1.0017e-15
9.22784e-16
8.34142e-16
7.3967e-16
6.43293e-16
5.48729e-16
4.59312e-16
3.77902e-16
3.06916e-16
2.48558e-16
2.22045e-16
2.22045e-16
2.22045e-16
2.22045e-16
2.22045e-16
2.22045e-16
2.22045e-16
2.22045e-16
2.46652e-16
3.04065e-16
3.74253e-16
4.55012e-16
5.43937e-16
6.38197e-16
7.34483e-16
8.29095e-16
9.18116e-16
9.97635e-16
1.064e-15
1.11405e-15
1.14535e-15
1.15636e-15
1.14652e-15
1.11632e-15
1.06725e-15
1.0017e-15
9.22786e-16
8.34143e-16
7.39671e-16
6.43295e-16
5.4873e-16
4.59313e-16
3.77902e-16
3.06917e-16
2.48558e-16
2.22045e-16
2.22045e-16
2.22045e-16
2.22045e-16
2.22045e-16
2.22045e-16
2.22045e-16
2.22045e-16
2.46652e-16
3.04066e-16
3.74253e-16
4.55012e-16
5.43938e-16
6.38198e-16
7.34483e-16
8.29096e-16
9.18117e-16
9.97636e-16
1.064e-15
1.11405e-15
1.14535e-15
1.15636e-15
1.14652e-15
1.11632e-15
1.06725e-15
1.0017e-15
9.22787e-16
8.34144e-16
7.39672e-16
6.43295e-16
5.48731e-16
4.59314e-16
3.77903e-16
3.06917e-16
2.48558e-16
2.22045e-16
2.22045e-16
2.22045e-16
2.22045e-16
2.22045e-16
2.22045e-16
2.22045e-16
2.22045e-16
2.46652e-16
3.04066e-16
3.74254e-16
4.55012e-16
5.43938e-16
6.38198e-16
7.34484e-16
8.29096e-16
9.18117e-16
9.97636e-16
1.064e-15
1.11405e-15
1.14535e-15
1.15636e-15
1.14652e-15
1.11632e-15
1.06725e-15
1.0017e-15
9.22787e-16
8.34144e-16
7.39672e-16
6.43295e-16
5.48731e-16
4.59314e-16
3.77903e-16
3.06917e-16
2.48558e-16
2.22045e-16
2.22045e-16
2.22045e-16
2.22045e-16
2.22045e-16
2.22045e-16
2.22045e-16
2.22045e-16
2.46652e-16
3.04066e-16
3.74254e-16
4.55012e-16
5.43938e-16
6.38198e-16
7.34484e-16
8.29096e-16
9.18117e-16
9.97637e-16
1.064e-15
1.11405e-15
1.14535e-15
1.15636e-15
1.14652e-15
1.11632e-15
1.06725e-15
1.0017e-15
9.22787e-16
8.34144e-16
7.39672e-16
6.43295e-16
5.48731e-16
4.59314e-16
3.77903e-16
3.06917e-16
2.48558e-16
2.22045e-16
2.22045e-16
2.22045e-16
2.22045e-16
2.22045e-16
2.22045e-16
2.22045e-16
2.22045e-16
2.46652e-16
3.04066e-16
3.74254e-16
4.55012e-16
5.43938e-16
6.38198e-16
7.34484e-16
8.29096e-16
9.18117e-16
9.97637e-16
1.064e-15
1.11405e-15
1.14535e-15
1.15636e-15
1.14652e-15
1.11632e-15
1.06725e-15
1.0017e-15
9.22787e-16
8.34144e-16
7.39672e-16
6.43295e-16
5.48731e-16
4.59314e-16
3.77903e-16
3.06917e-16
2.48558e-16
2.22045e-16
2.22045e-16
2.22045e-16
2.22045e-16
2.22045e-16
2.22045e-16
2.22045e-16
2.22045e-16
2.46652e-16
3.04066e-16
3.74254e-16
4.55012e-16
5.43938e-16
6.38198e-16
7.34484e-16
8.29096e-16
9.18117e-16
9.97637e-16
1.064e-15
1.11405e-15
1.14535e-15
1.15636e-15
1.14652e-15
1.11632e-15
1.06725e-15
1.0017e-15
9.22787e-16
8.34144e-16
7.39672e-16
6.43295e-16
5.48731e-16
4.59314e-16
3.77903e-16
3.06917e-16
2.48558e-16
2.22045e-16
2.22045e-16
2.22045e-16
2.22045e-16
2.22045e-16
2.22045e-16
2.22045e-16
2.22045e-16
2.46652e-16
3.04066e-16
3.74254e-16
4.55012e-16
5.43938e-16
6.38198e-16
7.34484e-16
8.29096e-16
9.18117e-16
9.97637e-16
1.064e-15
1.11405e-15
1.14535e-15
1.15636e-15
1.14652e-15
1.11632e-15
1.06725e-15
1.0017e-15
9.22787e-16
8.34144e-16
7.39672e-16
6.43295e-16
5.48731e-16
4.59314e-16
3.77903e-16
3.06917e-16
2.48558e-16
2.22045e-16
2.22045e-16
2.22045e-16
2.22045e-16
2.22045e-16
2.22045e-16
2.22045e-16
2.22045e-16
2.46652e-16
3.04066e-16
3.74254e-16
4.55012e-16
5.43938e-16
6.38198e-16
7.34484e-16
8.29096e-16
9.18117e-16
9.97637e-16
1.064e-15
1.11405e-15
1.14535e-15
1.15636e-15
1.14652e-15
1.11632e-15
1.06725e-15
1.0017e-15
9.22787e-16
8.34144e-16
7.39672e-16
6.43295e-16
5.48731e-16
4.59314e-16
3.77903e-16
3.06917e-16
2.48558e-16
2.22045e-16
2.22045e-16
2.22045e-16
2.22045e-16
2.22045e-16
2.22045e-16
2.22045e-16
2.22045e-16
2.46652e-16
3.04066e-16
3.74254e-16
4.55012e-16
5.43938e-16
6.38198e-16
7.34484e-16
8.29096e-16
9.18117e-16
9.97637e-16
1.064e-15
1.11405e-15
1.14535e-15
1.15636e-15
1.14652e-15
1.11632e-15
1.06725e-15
1.0017e-15
9.22787e-16
8.34144e-16
7.39672e-16
6.43295e-16
5.48731e-16
4.59314e-16
3.77903e-16
3.06917e-16
2.48558e-16
2.22045e-16
2.22045e-16
2.22045e-16
2.22045e-16
2.22045e-16
2.22045e-16
2.22045e-16
2.22045e-16
2.46652e-16
3.04066e-16
3.74254e-16
4.55012e-16
5.43938e-16
6.38198e-16
7.34484e-16
8.29096e-16
9.18117e-16
9.97637e-16
1.064e-15
1.11405e-15
1.14535e-15
1.15636e-15
1.14652e-15
1.11632e-15
1.06725e-15
1.0017e-15
9.22787e-16
8.34144e-16
7.39672e-16
6.43295e-16
5.48731e-16
4.59314e-16
3.77903e-16
3.06917e-16
2.48558e-16
2.22045e-16
2.22045e-16
2.22045e-16
2.22045e-16
2.22045e-16
2.22045e-16
2.22045e-16
2.22045e-16
2.46652e-16
3.04066e-16
3.74254e-16
4.55012e-16
5.43938e-16
6.38198e-16
7.34484e-16
8.29096e-16
9.18117e-16
9.97637e-16
1.064e-15
1.11405e-15
1.14535e-15
1.15636e-15
1.14652e-15
1.11632e-15
1.06725e-15
1.0017e-15
9.22787e-16
8.34144e-16
7.39672e-16
6.43295e-16
5.48731e-16
4.59314e-16
3.77903e-16
3.06917e-16
2.48558e-16
2.22045e-16
2.22045e-16
2.22045e-16
2.22045e-16
2.22045e-16
2.22045e-16
2.22045e-16
2.22045e-16
2.46652e-16
3.04066e-16
3.74254e-16
4.55012e-16
5.43938e-16
6.38198e-16
7.34484e-16
8.29096e-16
9.18117e-16
9.97637e-16
1.064e-15
1.11405e-15
1.14535e-15
1.15636e-15
1.14652e-15
1.11632e-15
1.06725e-15
1.0017e-15
9.22787e-16
8.34144e-16
7.39672e-16
6.43295e-16
5.48731e-16
4.59314e-16
3.77903e-16
3.06917e-16
2.48558e-16
2.22045e-16
2.22045e-16
2.22045e-16
2.22045e-16
2.22045e-16
2.22045e-16
2.22045e-16
2.22045e-16
2.46652e-16
3.04066e-16
3.74254e-16
4.55012e-16
5.43938e-16
6.38198e-16
7.34484e-16
8.29096e-16
9.18117e-16
9.97637e-16
1.064e-15
1.11405e-15
1.14535e-15
1.15636e-15
1.14652e-15
1.11632e-15
1.06725e-15
1.0017e-15
9.22787e-16
8.34144e-16
7.39672e-16
6.43295e-16
5.48731e-16
4.59314e-16
3.77903e-16
3.06917e-16
2.48558e-16
2.22045e-16
2.22045e-16
2.22045e-16
2.22045e-16
2.22045e-16
2.22045e-16
2.22045e-16
2.22045e-16
2.46652e-16
3.04066e-16
3.74254e-16
4.55012e-16
5.43938e-16
6.38198e-16
7.34484e-16
8.29096e-16
9.18117e-16
9.97637e-16
1.064e-15
1.11405e-15
1.14535e-15
1.15636e-15
1.14652e-15
1.11632e-15
1.06725e-15
1.0017e-15
9.22787e-16
8.34144e-16
7.39672e-16
6.43295e-16
5.48731e-16
4.59314e-16
3.77903e-16
3.06917e-16
2.48558e-16
2.22045e-16
2.22045e-16
2.22045e-16
2.22045e-16
2.22045e-16
2.22045e-16
2.22045e-16
2.22045e-16
2.46652e-16
3.04066e-16
3.74254e-16
4.55012e-16
5.43938e-16
6.38198e-16
7.34484e-16
8.29096e-16
9.18117e-16
9.97637e-16
1.064e-15
1.11405e-15
1.14535e-15
1.15636e-15
1.14652e-15
1.11632e-15
1.06725e-15
1.0017e-15
9.22787e-16
8.34144e-16
7.39672e-16
6.43295e-16
5.48731e-16
4.59314e-16
3.77903e-16
3.06917e-16
2.48558e-16
2.22045e-16
2.22045e-16
2.22045e-16
2.22045e-16
2.22045e-16
2.22045e-16
2.22045e-16
2.22045e-16
2.46652e-16
3.04066e-16
3.74254e-16
4.55012e-16
5.43938e-16
6.38198e-16
7.34484e-16
8.29096e-16
9.18117e-16
9.97637e-16
1.064e-15
1.11405e-15
1.14535e-15
1.15636e-15
1.14652e-15
1.11632e-15
1.06725e-15
1.0017e-15
9.22787e-16
8.34144e-16
7.39672e-16
6.43295e-16
5.48731e-16
4.59314e-16
3.77903e-16
3.06917e-16
2.48558e-16
2.22045e-16
2.22045e-16
2.22045e-16
2.22045e-16
2.22045e-16
2.22045e-16
2.22045e-16
2.22045e-16
2.46652e-16
3.04066e-16
3.74254e-16
4.55012e-16
5.43938e-16
6.38198e-16
7.34484e-16
8.29096e-16
9.18117e-16
9.97637e-16
1.064e-15
1.11405e-15
1.14535e-15
1.15636e-15
1.14652e-15
1.11632e-15
1.06725e-15
1.0017e-15
9.22787e-16
8.34144e-16
7.39672e-16
6.43295e-16
5.48731e-16
4.59314e-16
3.77903e-16
3.06917e-16
2.48558e-16
2.22045e-16
2.22045e-16
2.22045e-16
2.22045e-16
2.22045e-16
2.22045e-16
2.22045e-16
2.22045e-16
2.46652e-16
3.04066e-16
3.74254e-16
4.55012e-16
5.43938e-16
6.38198e-16
7.34484e-16
8.29096e-16
9.18117e-16
9.97637e-16
1.064e-15
1.11405e-15
1.14535e-15
1.15636e-15
1.14652e-15
1.11632e-15
1.06725e-15
1.0017e-15
9.22787e-16
8.34144e-16
7.39672e-16
6.43295e-16
5.48731e-16
4.59314e-16
3.77903e-16
3.06917e-16
2.48558e-16
2.22045e-16
2.22045e-16
2.22045e-16
2.22045e-16
2.22045e-16
2.22045e-16
2.22045e-16
2.22045e-16
2.46652e-16
3.04066e-16
3.74254e-16
4.55012e-16
5.43938e-16
6.38198e-16
7.34484e-16
8.29096e-16
9.18117e-16
9.97637e-16
1.064e-15
1.11405e-15
1.14535e-15
1.15636e-15
1.14652e-15
1.11632e-15
1.06725e-15
1.0017e-15
9.22787e-16
8.34144e-16
7.39672e-16
6.43295e-16
5.48731e-16
4.59314e-16
3.77903e-16
3.06917e-16
2.48558e-16
2.22045e-16
2.22045e-16
2.22045e-16
2.22045e-16
2.22045e-16
2.22045e-16
2.22045e-16
2.22045e-16
2.46652e-16
3.04066e-16
3.74254e-16
4.55012e-16
5.43938e-16
6.38198e-16
7.34484e-16
8.29096e-16
9.18117e-16
9.97637e-16
1.064e-15
1.11405e-15
1.14535e-15
1.15636e-15
1.14652e-15
1.11632e-15
1.06725e-15
1.0017e-15
9.22787e-16
8.34144e-16
7.39672e-16
6.43295e-16
5.48731e-16
4.59314e-16
3.77903e-16
3.06917e-16
2.48558e-16
2.22045e-16
2.22045e-16
2.22045e-16
2.22045e-16
2.22045e-16
2.22045e-16
2.22045e-16
2.22045e-16
2.46652e-16
3.04066e-16
3.74254e-16
4.55012e-16
5.43938e-16
6.38198e-16
7.34484e-16
8.29096e-16
9.18117e-16
9.97637e-16
1.064e-15
1.11405e-15
1.14535e-15
1.15636e-15
1.14652e-15
1.11632e-15
1.06725e-15
1.0017e-15
9.22787e-16
8.34144e-16
7.39672e-16
6.43295e-16
5.48731e-16
4.59314e-16
3.77903e-16
3.06917e-16
2.48558e-16
2.22045e-16
2.22045e-16
2.22045e-16
2.22045e-16
2.22045e-16
2.22045e-16
2.22045e-16
2.22045e-16
2.46652e-16
3.04066e-16
3.74254e-16
4.55012e-16
5.43938e-16
6.38198e-16
7.34484e-16
8.29096e-16
9.18117e-16
9.97637e-16
1.064e-15
1.11405e-15
1.14535e-15
1.15636e-15
1.14652e-15
1.11632e-15
1.06725e-15
1.0017e-15
9.22787e-16
8.34144e-16
7.39672e-16
6.43295e-16
5.48731e-16
4.59314e-16
3.77903e-16
3.06917e-16
2.48558e-16
2.22045e-16
2.22045e-16
2.22045e-16
2.22045e-16
2.22045e-16
2.22045e-16
2.22045e-16
2.22045e-16
2.46652e-16
3.04066e-16
3.74254e-16
4.55012e-16
5.43938e-16
6.38198e-16
7.34484e-16
8.29096e-16
9.18117e-16
9.97637e-16
1.064e-15
1.11405e-15
1.14535e-15
1.15636e-15
1.14652e-15
1.11632e-15
1.06725e-15
1.0017e-15
9.22787e-16
8.34144e-16
7.39672e-16
6.43295e-16
5.48731e-16
4.59314e-16
3.77903e-16
3.06917e-16
2.48558e-16
2.22045e-16
2.22045e-16
2.22045e-16
2.22045e-16
2.22045e-16
2.22045e-16
2.22045e-16
2.22045e-16
2.46652e-16
3.04066e-16
3.74254e-16
4.55012e-16
5.43938e-16
6.38198e-16
7.34484e-16
8.29096e-16
9.18117e-16
9.97637e-16
1.064e-15
1.11405e-15
1.14535e-15
1.15636e-15
1.14652e-15
1.11632e-15
1.06725e-15
1.0017e-15
9.22787e-16
8.34144e-16
7.39672e-16
6.43295e-16
5.48731e-16
4.59314e-16
3.77903e-16
3.06917e-16
2.48558e-16
2.22045e-16
2.22045e-16
2.22045e-16
2.22045e-16
2.22045e-16
2.22045e-16
2.22045e-16
2.22045e-16
2.46652e-16
3.04066e-16
3.74254e-16
4.55012e-16
5.43938e-16
6.38198e-16
7.34484e-16
8.29096e-16
9.18117e-16
9.97637e-16
1.064e-15
1.11405e-15
1.14535e-15
1.15636e-15
1.14652e-15
1.11632e-15
1.06725e-15
1.0017e-15
9.22787e-16
8.34144e-16
7.39672e-16
6.43295e-16
5.48731e-16
4.59314e-16
3.77903e-16
3.06917e-16
2.48558e-16
2.22045e-16
2.22045e-16
2.22045e-16
2.22045e-16
2.22045e-16
2.22045e-16
2.22045e-16
2.22045e-16
2.46652e-16
3.04066e-16
3.74254e-16
4.55012e-16
5.43938e-16
6.38198e-16
7.34484e-16
8.29096e-16
9.18117e-16
9.97637e-16
1.064e-15
1.11405e-15
1.14535e-15
1.15636e-15
1.14652e-15
1.11632e-15
1.06725e-15
1.0017e-15
9.22787e-16
8.34144e-16
7.39672e-16
6.43295e-16
5.48731e-16
4.59314e-16
3.77903e-16
3.06917e-16
2.48558e-16
2.22045e-16
2.22045e-16
2.22045e-16
2.22045e-16
2.22045e-16
2.22045e-16
2.22045e-16
2.22045e-16
2.46652e-16
3.04066e-16
3.74254e-16
4.55012e-16
5.43938e-16
6.38198e-16
7.34484e-16
8.29096e-16
9.18117e-16
9.97637e-16
1.064e-15
1.11405e-15
1.14535e-15
1.15636e-15
1.14652e-15
1.11632e-15
1.06725e-15
1.0017e-15
9.22787e-16
8.34144e-16
7.39672e-16
6.43295e-16
5.48731e-16
4.59314e-16
3.77903e-16
3.06917e-16
2.48558e-16
2.22045e-16
2.22045e-16
2.22045e-16
2.22045e-16
2.22045e-16
2.22045e-16
2.22045e-16
2.22045e-16
2.46652e-16
3.04066e-16
3.74254e-16
4.55012e-16
5.43938e-16
6.38198e-16
7.34484e-16
8.29096e-16
9.18117e-16
9.97637e-16
1.064e-15
1.11405e-15
1.14535e-15
1.15636e-15
1.14652e-15
1.11632e-15
1.06725e-15
1.0017e-15
9.22787e-16
8.34144e-16
7.39672e-16
6.43295e-16
5.48731e-16
4.59314e-16
3.77903e-16
3.06917e-16
2.48558e-16
2.22045e-16
2.22045e-16
2.22045e-16
2.22045e-16
2.22045e-16
2.22045e-16
2.22045e-16
2.22045e-16
2.46652e-16
3.04066e-16
3.74254e-16
4.55012e-16
5.43938e-16
6.38198e-16
7.34484e-16
8.29096e-16
9.18117e-16
9.97637e-16
1.064e-15
1.11405e-15
1.14535e-15
1.15636e-15
1.14652e-15
1.11632e-15
1.06725e-15
1.0017e-15
9.22787e-16
8.34144e-16
7.39672e-16
6.43295e-16
5.48731e-16
4.59314e-16
3.77903e-16
3.06917e-16
2.48558e-16
2.22045e-16
2.22045e-16
2.22045e-16
2.22045e-16
2.22045e-16
2.22045e-16
2.22045e-16
2.22045e-16
2.46652e-16
3.04066e-16
3.74254e-16
4.55012e-16
5.43938e-16
6.38198e-16
7.34484e-16
8.29096e-16
9.18117e-16
9.97637e-16
1.064e-15
1.11405e-15
1.14535e-15
1.15636e-15
1.14652e-15
1.11632e-15
1.06725e-15
1.0017e-15
9.22787e-16
8.34144e-16
7.39672e-16
6.43295e-16
5.48731e-16
4.59314e-16
3.77903e-16
3.06917e-16
2.48558e-16
2.22045e-16
2.22045e-16
2.22045e-16
2.22045e-16
2.22045e-16
2.22045e-16
2.22045e-16
2.22045e-16
2.46652e-16
3.04066e-16
3.74254e-16
4.55012e-16
5.43938e-16
6.38198e-16
7.34484e-16
8.29096e-16
9.18117e-16
9.97637e-16
1.064e-15
1.11405e-15
1.14535e-15
1.15636e-15
1.14652e-15
1.11632e-15
1.06725e-15
1.0017e-15
9.22787e-16
8.34144e-16
7.39672e-16
6.43295e-16
5.48731e-16
4.59314e-16
3.77903e-16
3.06917e-16
2.48558e-16
2.22045e-16
2.22045e-16
2.22045e-16
2.22045e-16
2.22045e-16
2.22045e-16
2.22045e-16
2.22045e-16
2.46652e-16
3.04066e-16
3.74254e-16
4.55012e-16
5.43938e-16
6.38198e-16
7.34484e-16
8.29096e-16
9.18117e-16
9.97637e-16
1.064e-15
1.11405e-15
1.14535e-15
1.15636e-15
1.14652e-15
1.11632e-15
1.06725e-15
1.0017e-15
9.22787e-16
8.34144e-16
7.39672e-16
6.43295e-16
5.48731e-16
4.59314e-16
3.77903e-16
3.06917e-16
2.48558e-16
2.22045e-16
2.22045e-16
2.22045e-16
2.22045e-16
2.22045e-16
2.22045e-16
2.22045e-16
2.22045e-16
2.46652e-16
3.04066e-16
3.74254e-16
4.55012e-16
5.43938e-16
6.38198e-16
7.34484e-16
8.29096e-16
9.18117e-16
9.97637e-16
1.064e-15
1.11405e-15
1.14535e-15
1.15636e-15
1.14652e-15
1.11632e-15
1.06725e-15
1.0017e-15
9.22787e-16
8.34144e-16
7.39672e-16
6.43295e-16
5.48731e-16
4.59314e-16
3.77903e-16
3.06917e-16
2.48558e-16
2.22045e-16
2.22045e-16
2.22045e-16
2.22045e-16
2.22045e-16
2.22045e-16
2.22045e-16
2.22045e-16
2.46652e-16
3.04066e-16
3.74254e-16
4.55012e-16
5.43938e-16
6.38198e-16
7.34484e-16
8.29096e-16
9.18117e-16
9.97637e-16
1.064e-15
1.11405e-15
1.14535e-15
1.15636e-15
1.14652e-15
1.11632e-15
1.06725e-15
1.0017e-15
9.22787e-16
8.34144e-16
7.39672e-16
6.43295e-16
5.48731e-16
4.59314e-16
3.77903e-16
3.06917e-16
2.48558e-16
2.22045e-16
2.22045e-16
2.22045e-16
2.22045e-16
2.22045e-16
2.22045e-16
2.22045e-16
2.22045e-16
2.46652e-16
3.04066e-16
3.74254e-16
4.55012e-16
5.43938e-16
6.38198e-16
7.34484e-16
8.29096e-16
9.18117e-16
9.97637e-16
1.064e-15
1.11405e-15
1.14535e-15
1.15636e-15
1.14652e-15
1.11632e-15
1.06725e-15
1.0017e-15
9.22787e-16
8.34144e-16
7.39672e-16
6.43295e-16
5.48731e-16
4.59314e-16
3.77903e-16
3.06917e-16
2.48558e-16
2.22045e-16
2.22045e-16
2.22045e-16
2.22045e-16
2.22045e-16
2.22045e-16
2.22045e-16
2.22045e-16
2.46652e-16
3.04066e-16
3.74254e-16
4.55012e-16
5.43938e-16
6.38198e-16
7.34484e-16
8.29096e-16
9.18117e-16
9.97637e-16
1.064e-15
1.11405e-15
1.14535e-15
1.15636e-15
1.14652e-15
1.11632e-15
1.06725e-15
1.0017e-15
9.22787e-16
8.34144e-16
7.39672e-16
6.43295e-16
5.48731e-16
4.59314e-16
3.77903e-16
3.06917e-16
2.48558e-16
2.22045e-16
2.22045e-16
2.22045e-16
2.22045e-16
2.22045e-16
2.22045e-16
2.22045e-16
2.22045e-16
2.46652e-16
3.04066e-16
3.74254e-16
4.55012e-16
5.43938e-16
6.38198e-16
7.34484e-16
8.29096e-16
9.18117e-16
9.97637e-16
1.064e-15
1.11405e-15
1.14535e-15
1.15636e-15
1.14652e-15
1.11632e-15
1.06725e-15
1.0017e-15
9.22787e-16
8.34144e-16
7.39672e-16
6.43295e-16
5.48731e-16
4.59314e-16
3.77903e-16
3.06917e-16
2.48558e-16
2.22045e-16
2.22045e-16
2.22045e-16
2.22045e-16
2.22045e-16
2.22045e-16
2.22045e-16
2.22045e-16
2.46652e-16
3.04066e-16
3.74254e-16
4.55012e-16
5.43938e-16
6.38198e-16
7.34484e-16
8.29096e-16
9.18117e-16
9.97637e-16
1.064e-15
1.11405e-15
1.14535e-15
1.15636e-15
1.14652e-15
1.11632e-15
1.06725e-15
1.0017e-15
9.22787e-16
8.34144e-16
7.39672e-16
6.43295e-16
5.48731e-16
4.59314e-16
3.77903e-16
3.06917e-16
2.48558e-16
2.22045e-16
2.22045e-16
2.22045e-16
2.22045e-16
2.22045e-16
2.22045e-16
2.22045e-16
2.22045e-16
2.46652e-16
3.04066e-16
3.74254e-16
4.55012e-16
5.43938e-16
6.38198e-16
7.34484e-16
8.29096e-16
9.18117e-16
9.97637e-16
1.064e-15
1.11405e-15
1.14535e-15
1.15636e-15
1.14652e-15
1.11632e-15
1.06725e-15
1.0017e-15
9.22787e-16
8.34144e-16
7.39672e-16
6.43295e-16
5.48731e-16
4.59314e-16
3.77903e-16
3.06917e-16
2.48558e-16
2.22045e-16
2.22045e-16
2.22045e-16
2.22045e-16
2.22045e-16
2.22045e-16
2.22045e-16
2.22045e-16
2.46652e-16
3.04066e-16
3.74254e-16
4.55012e-16
5.43938e-16
6.38198e-16
7.34484e-16
8.29096e-16
9.18117e-16
9.97637e-16
1.064e-15
1.11405e-15
1.14535e-15
1.15636e-15
1.14652e-15
1.11632e-15
1.06725e-15
1.0017e-15
9.22787e-16
8.34144e-16
7.39672e-16
6.43295e-16
5.48731e-16
4.59314e-16
3.77903e-16
3.06917e-16
2.48558e-16
2.22045e-16
2.22045e-16
2.22045e-16
2.22045e-16
2.22045e-16
2.22045e-16
2.22045e-16
2.22045e-16
2.46652e-16
3.04066e-16
3.74254e-16
4.55012e-16
5.43938e-16
6.38198e-16
7.34484e-16
8.29096e-16
9.18117e-16
9.97637e-16
1.064e-15
1.11405e-15
1.14535e-15
1.15636e-15
1.14652e-15
1.11632e-15
1.06725e-15
1.0017e-15
9.22787e-16
8.34144e-16
7.39672e-16
6.43295e-16
5.48731e-16
4.59314e-16
3.77903e-16
3.06917e-16
2.48558e-16
2.22045e-16
2.22045e-16
2.22045e-16
2.22045e-16
2.22045e-16
2.22045e-16
2.22045e-16
2.22045e-16
2.46652e-16
3.04066e-16
3.74254e-16
4.55012e-16
5.43938e-16
6.38198e-16
7.34484e-16
8.29096e-16
9.18117e-16
9.97637e-16
1.064e-15
1.11405e-15
1.14535e-15
1.15636e-15
1.14652e-15
1.11632e-15
1.06725e-15
1.0017e-15
9.22787e-16
8.34144e-16
7.39672e-16
6.43295e-16
5.48731e-16
4.59314e-16
3.77903e-16
3.06917e-16
2.48558e-16
2.22045e-16
2.22045e-16
2.22045e-16
2.22045e-16
2.22045e-16
2.22045e-16
2.22045e-16
2.22045e-16
2.46652e-16
3.04066e-16
3.74254e-16
4.55012e-16
5.43938e-16
6.38198e-16
7.34484e-16
8.29096e-16
9.18117e-16
9.97637e-16
1.064e-15
1.11405e-15
1.14535e-15
1.15636e-15
1.14652e-15
1.11632e-15
1.06725e-15
1.0017e-15
9.22787e-16
8.34144e-16
7.39672e-16
6.43295e-16
5.48731e-16
4.59314e-16
3.77903e-16
3.06917e-16
2.48558e-16
2.22045e-16
2.22045e-16
2.22045e-16
2.22045e-16
2.22045e-16
2.22045e-16
2.22045e-16
2.22045e-16
2.46652e-16
3.04066e-16
3.74254e-16
4.55012e-16
5.43938e-16
6.38198e-16
7.34484e-16
8.29096e-16
9.18117e-16
9.97637e-16
1.064e-15
1.11405e-15
1.14535e-15
1.15636e-15
1.14652e-15
1.11632e-15
1.06725e-15
1.0017e-15
9.22787e-16
8.34144e-16
7.39672e-16
6.43295e-16
5.48731e-16
4.59314e-16
3.77903e-16
3.06917e-16
2.48558e-16
2.22045e-16
2.22045e-16
2.22045e-16
2.22045e-16
2.22045e-16
2.22045e-16
2.22045e-16
2.22045e-16
2.46652e-16
3.04066e-16
3.74254e-16
4.55012e-16
5.43938e-16
6.38198e-16
7.34484e-16
8.29096e-16