/*--------------------------------*- C++ -*----------------------------------*\
  =========                 |
  \\      /  F ield         | OpenFOAM: The Open Source CFD Toolbox
   \\    /   O peration     | Website:  https://openfoam.org
    \\  /    A nd           | Version:  13
     \\/     M anipulation  |
\*---------------------------------------------------------------------------*/
FoamFile
{
    format      ascii;
    class       volScalarField;
    location    "10";
    object      nut;
}
// * * * * * * * * * * * * * * * * * * * * * * * * * * * * * * * * * * * * * //

dimensions      [0 2 -1 0 0 0 0];

internalField   nonuniform List<scalar> 
78750
(
1.50697e-09
2.79241e-07
3.06553e-06
4.19338e-06
4.66176e-06
5.07801e-06
5.54361e-06
5.84711e-06
5.65297e-06
5.95509e-06
6.52752e-06
6.62004e-06
6.46171e-06
7.38378e-06
9.11152e-06
9.56376e-06
9.70921e-06
1.01168e-05
1.0647e-05
1.05953e-05
1.00979e-05
9.79131e-06
9.9808e-06
1.05137e-05
1.1024e-05
1.14261e-05
1.14817e-05
1.09224e-05
1.05077e-05
9.55977e-06
8.51436e-06
7.77626e-06
6.97424e-06
1.77124e-06
1.31901e-08
8.60734e-10
2.23477e-07
2.53924e-06
5.56259e-06
8.05701e-06
8.96545e-06
8.87451e-06
1.08315e-05
1.36488e-05
1.54113e-05
1.52141e-05
1.60547e-05
1.78844e-05
1.8979e-05
1.69517e-05
2.76576e-05
4.54671e-05
3.83892e-05
2.73747e-05
2.38063e-05
2.33359e-05
2.41213e-05
2.52444e-05
2.61893e-05
2.7506e-05
3.09048e-05
3.66e-05
2.42263e-05
1.5563e-05
1.11785e-05
8.52135e-06
6.86142e-06
5.83199e-06
1.3161e-06
8.08936e-09
2.42881e-09
6.19295e-07
6.11848e-06
1.41347e-05
1.4587e-05
1.27791e-05
1.17524e-05
1.12026e-05
1.13348e-05
1.12729e-05
1.1139e-05
1.07301e-05
1.12955e-05
1.72329e-05
4.73686e-05
4.71527e-05
4.49033e-05
3.62726e-05
3.32408e-05
3.24569e-05
3.27447e-05
3.34658e-05
3.50405e-05
3.56672e-05
3.20013e-05
2.34456e-05
1.54881e-05
1.21832e-05
9.33095e-06
6.82102e-06
5.40881e-06
4.75621e-06
5.01614e-06
9.22863e-07
4.89635e-09
2.7919e-09
6.99792e-07
8.31575e-06
1.57535e-05
1.40399e-05
1.14982e-05
9.90749e-06
9.34039e-06
9.1508e-06
9.11883e-06
8.99061e-06
9.06674e-06
1.02998e-05
1.47543e-05
2.56949e-05
4.40848e-05
5.10852e-05
4.91446e-05
4.80228e-05
4.6809e-05
4.49824e-05
4.1226e-05
3.48375e-05
2.64806e-05
1.93932e-05
1.43062e-05
1.11295e-05
8.47236e-06
6.61658e-06
5.55179e-06
4.79483e-06
4.36907e-06
4.48808e-06
7.8383e-07
3.98563e-09
3.20169e-09
8.02275e-07
9.04804e-06
1.43941e-05
1.14496e-05
9.84046e-06
9.28034e-06
9.07478e-06
8.9583e-06
8.92984e-06
9.19888e-06
9.95168e-06
1.20067e-05
1.76152e-05
2.73729e-05
3.97761e-05
4.7512e-05
5.09185e-05
5.09915e-05
4.97784e-05
4.90435e-05
4.53054e-05
3.69585e-05
2.64339e-05
1.84539e-05
1.26608e-05
9.15196e-06
6.89765e-06
5.66964e-06
4.8216e-06
3.87178e-06
3.33575e-06
3.72557e-06
7.1233e-07
3.38392e-09
3.21277e-09
8.00135e-07
9.08454e-06
1.49302e-05
1.21705e-05
1.02767e-05
9.36985e-06
9.01936e-06
8.95678e-06
9.03973e-06
9.30227e-06
9.9806e-06
1.18671e-05
1.66341e-05
2.73262e-05
4.3486e-05
5.46003e-05
5.4204e-05
5.38314e-05
5.37187e-05
5.39693e-05
4.93001e-05
3.48345e-05
2.33124e-05
1.85792e-05
1.20303e-05
7.7093e-06
6.10163e-06
4.76146e-06
3.70595e-06
3.19596e-06
3.25237e-06
4.43692e-06
6.70108e-07
2.97428e-09
3.45176e-09
8.59123e-07
9.78951e-06
1.41852e-05
1.1458e-05
9.93919e-06
9.34563e-06
9.19097e-06
9.24467e-06
9.44812e-06
9.86733e-06
1.07956e-05
1.30111e-05
1.8192e-05
2.83317e-05
4.32176e-05
5.49273e-05
5.45116e-05
5.42326e-05
5.42808e-05
5.46694e-05
4.78955e-05
3.16055e-05
1.93083e-05
1.57982e-05
1.0798e-05
7.03422e-06
5.38517e-06
4.38034e-06
3.77764e-06
3.50029e-06
3.57035e-06
4.61782e-06
6.74368e-07
3.15024e-09
3.46627e-09
8.61922e-07
9.567e-06
1.45833e-05
1.18579e-05
1.0258e-05
9.5971e-06
9.4112e-06
9.45683e-06
9.65221e-06
1.00476e-05
1.08877e-05
1.28798e-05
1.76059e-05
2.74317e-05
4.27377e-05
5.5013e-05
5.4639e-05
5.44689e-05
5.45998e-05
5.47918e-05
4.3905e-05
2.866e-05
1.66713e-05
1.33022e-05
9.82481e-06
6.94783e-06
5.5221e-06
4.53663e-06
3.93359e-06
3.53516e-06
3.37687e-06
4.25964e-06
7.13082e-07
3.39358e-09
3.57897e-09
8.88742e-07
9.90687e-06
1.43188e-05
1.16681e-05
1.01902e-05
9.62797e-06
9.53552e-06
9.68666e-06
1.00042e-05
1.05417e-05
1.15275e-05
1.36012e-05
1.8234e-05
2.79164e-05
4.26259e-05
5.51961e-05
5.49878e-05
5.49051e-05
5.50855e-05
5.55295e-05
4.68309e-05
3.23723e-05
1.79924e-05
1.16426e-05
9.81348e-06
7.13268e-06
5.24635e-06
4.43073e-06
3.81322e-06
3.35069e-06
3.29101e-06
4.54189e-06
7.49656e-07
3.41731e-09
3.64713e-09
9.04222e-07
9.81809e-06
1.45467e-05
1.1955e-05
1.0456e-05
9.84102e-06
9.69796e-06
9.81221e-06
1.01018e-05
1.06276e-05
1.16247e-05
1.36833e-05
1.81621e-05
2.74816e-05
4.26439e-05
5.55587e-05
5.53956e-05
5.53432e-05
5.53943e-05
4.71252e-05
4.72983e-05
3.53304e-05
1.95239e-05
1.14112e-05
9.6352e-06
7.27527e-06
5.09075e-06
4.17253e-06
3.61263e-06
3.35973e-06
3.58682e-06
5.38171e-06
8.55847e-07
3.8154e-09
3.68389e-09
9.12985e-07
9.76167e-06
1.45495e-05
1.19409e-05
1.04492e-05
9.85307e-06
9.71667e-06
9.85366e-06
1.01981e-05
1.08089e-05
1.19444e-05
1.41789e-05
1.8827e-05
2.80593e-05
4.19601e-05
4.68384e-05
4.69076e-05
5.53048e-05
5.54432e-05
4.74246e-05
4.77916e-05
3.48442e-05
1.9491e-05
1.15988e-05
9.48071e-06
7.09884e-06
5.02908e-06
4.22174e-06
3.7618e-06
3.53943e-06
3.84332e-06
6.04918e-06
8.92468e-07
4.01958e-09
3.7741e-09
9.34669e-07
9.90159e-06
1.45073e-05
1.18759e-05
1.04625e-05
9.94644e-06
9.81483e-06
9.92714e-06
1.0274e-05
1.08931e-05
1.20648e-05
1.43208e-05
1.88893e-05
2.78153e-05
4.00805e-05
4.7128e-05
4.6988e-05
4.70252e-05
4.72187e-05
4.76509e-05
4.4198e-05
2.90809e-05
1.70837e-05
1.11331e-05
9.4257e-06
7.27501e-06
5.27042e-06
4.37979e-06
4.07496e-06
3.94109e-06
4.22155e-06
6.55677e-06
1.06877e-06
5.17506e-09
3.80801e-09
9.42233e-07
9.95732e-06
1.44315e-05
1.18137e-05
1.03746e-05
9.86909e-06
9.81659e-06
1.00119e-05
1.04044e-05
1.11065e-05
1.22914e-05
1.44818e-05
1.88301e-05
2.68442e-05
3.79848e-05
4.69049e-05
4.69572e-05
4.70774e-05
4.73933e-05
4.79233e-05
3.92811e-05
2.65136e-05
1.65684e-05
1.14683e-05
1.05996e-05
8.49864e-06
6.10141e-06
4.9118e-06
4.13976e-06
3.8931e-06
4.16846e-06
5.98648e-06
1.09441e-06
5.40937e-09
3.85426e-09
9.5296e-07
9.97857e-06
1.45412e-05
1.19971e-05
1.04666e-05
9.86969e-06
9.82934e-06
1.00073e-05
1.02832e-05
1.09424e-05
1.21507e-05
1.44194e-05
1.88548e-05
2.73581e-05
3.85515e-05
4.83663e-05
5.34875e-05
5.44152e-05
4.78233e-05
4.82233e-05
3.93733e-05
2.65301e-05
1.63713e-05
1.12839e-05
1.07568e-05
9.04498e-06
6.77866e-06
5.61176e-06
4.59155e-06
3.88962e-06
3.98787e-06
6.59642e-06
1.28021e-06
6.1455e-09
3.90384e-09
9.64378e-07
1.00792e-05
1.4466e-05
1.1995e-05
1.02275e-05
9.61732e-06
9.75325e-06
9.93211e-06
1.01825e-05
1.09831e-05
1.23472e-05
1.46766e-05
1.8923e-05
2.65163e-05
3.71759e-05
4.68525e-05
4.70562e-05
4.73382e-05
4.77568e-05
4.84866e-05
4.07981e-05
2.78584e-05
1.71518e-05
1.15835e-05
1.09271e-05
9.25156e-06
7.02678e-06
5.84667e-06
4.79156e-06
4.11044e-06
4.30719e-06
7.14253e-06
1.3776e-06
6.62435e-09
3.98871e-09
9.83284e-07
1.00749e-05
1.44407e-05
1.17294e-05
1.03678e-05
9.93374e-06
9.55071e-06
9.30858e-06
9.81191e-06
1.09266e-05
1.25083e-05
1.50414e-05
1.93799e-05
2.71834e-05
3.79658e-05
4.71266e-05
4.72328e-05
4.75184e-05
4.79524e-05
4.87316e-05
4.3726e-05
2.94265e-05
1.72287e-05
1.13353e-05
1.05806e-05
8.83092e-06
6.76616e-06
5.79893e-06
5.02078e-06
4.60471e-06
5.02233e-06
8.54875e-06
1.4719e-06
7.7346e-09
3.99778e-09
9.84708e-07
1.01227e-05
1.44603e-05
1.17101e-05
1.03892e-05
9.73877e-06
9.43361e-06
9.67549e-06
1.02399e-05
1.08251e-05
1.20496e-05
1.4335e-05
1.868e-05
2.642e-05
3.72581e-05
4.70558e-05
4.71933e-05
4.75289e-05
4.80135e-05
4.88393e-05
4.38383e-05
2.86806e-05
1.63506e-05
1.06955e-05
9.78623e-06
8.40743e-06
6.85143e-06
6.1478e-06
5.44619e-06
5.00251e-06
5.5524e-06
1.02474e-05
1.60739e-06
8.76422e-09
4.04939e-09
9.96303e-07
1.01902e-05
1.48534e-05
1.22497e-05
1.028e-05
9.37754e-06
9.16493e-06
9.37618e-06
9.82037e-06
1.06611e-05
1.2045e-05
1.47162e-05
1.96966e-05
2.74193e-05
3.75874e-05
4.68391e-05
4.71665e-05
4.74902e-05
4.7971e-05
4.87964e-05
4.48436e-05
2.9204e-05
1.60731e-05
1.03953e-05
9.51786e-06
8.08867e-06
6.48492e-06
5.79058e-06
5.30692e-06
5.17611e-06
6.46073e-06
1.34736e-05
1.78925e-06
1.02806e-08
4.06313e-09
9.99416e-07
1.02707e-05
1.46357e-05
1.20645e-05
1.01101e-05
9.39787e-06
9.31179e-06
9.77717e-06
1.0172e-05
1.0655e-05
1.20629e-05
1.43652e-05
1.86098e-05
2.65622e-05
3.73768e-05
4.71381e-05
4.71896e-05
4.74824e-05
4.79644e-05
4.87883e-05
4.72868e-05
2.84473e-05
1.47735e-05
9.44704e-06
8.25997e-06
7.2902e-06
6.45273e-06
6.18999e-06
5.82691e-06
6.00055e-06
7.87032e-06
1.47838e-05
2.02124e-06
1.15958e-08
4.11452e-09
1.01124e-06
1.03501e-05
1.4205e-05
1.15846e-05
1.05259e-05
9.83941e-06
9.29909e-06
9.17874e-06
9.60399e-06
1.06568e-05
1.19517e-05
1.47634e-05
1.95767e-05
2.70624e-05
3.8229e-05
4.71731e-05
4.72301e-05
4.74256e-05
4.79271e-05
4.87036e-05
4.5899e-05
2.66797e-05
1.34816e-05
9.29834e-06
7.93643e-06
6.94767e-06
6.31449e-06
5.94451e-06
6.10642e-06
6.63138e-06
8.39851e-06
1.57392e-05
2.21765e-06
1.28007e-08
4.14033e-09
1.01767e-06
1.03064e-05
1.45381e-05
1.21046e-05
9.99655e-06
9.1822e-06
9.22851e-06
9.29151e-06
9.65967e-06
1.04231e-05
1.2113e-05
1.48371e-05
2.02853e-05
2.84167e-05
3.71344e-05
4.57522e-05
4.71581e-05
4.73397e-05
4.77957e-05
4.85353e-05
4.52778e-05
2.47681e-05
1.24795e-05
8.58382e-06
7.20896e-06
6.56516e-06
6.4676e-06
6.65062e-06
6.493e-06
6.85719e-06
9.32098e-06
1.64512e-05
2.37004e-06
1.37041e-08
4.18044e-09
1.02949e-06
1.04316e-05
1.40775e-05
1.1288e-05
9.94755e-06
9.33411e-06
9.13369e-06
9.34716e-06
9.99539e-06
1.06979e-05
1.17286e-05
1.44062e-05
1.8977e-05
2.59968e-05
3.6422e-05
4.54831e-05
4.70354e-05
4.72692e-05
4.76923e-05
4.83721e-05
4.04593e-05
2.18339e-05
1.15277e-05
7.98386e-06
6.89975e-06
6.71281e-06
6.6672e-06
6.50556e-06
6.7279e-06
7.22976e-06
9.07279e-06
1.65854e-05
2.52564e-06
1.479e-08
4.14447e-09
1.02095e-06
1.04741e-05
1.4322e-05
1.16781e-05
1.03171e-05
9.62956e-06
9.08815e-06
9.06631e-06
9.35005e-06
1.02647e-05
1.20016e-05
1.45741e-05
1.90962e-05
2.62503e-05
3.55678e-05
4.41779e-05
4.70312e-05
4.7218e-05
4.76743e-05
4.83197e-05
3.7743e-05
2.0528e-05
1.11336e-05
8.01671e-06
6.86154e-06
6.40687e-06
6.37572e-06
6.46652e-06
6.66466e-06
7.05667e-06
9.27991e-06
1.69445e-05
2.65262e-06
1.5534e-08
4.15436e-09
1.02033e-06
1.04108e-05
1.43885e-05
1.17048e-05
9.75559e-06
9.06464e-06
8.92e-06
9.23022e-06
9.67767e-06
1.04413e-05
1.24623e-05
1.4828e-05
1.88772e-05
2.65608e-05
3.5231e-05
4.40324e-05
4.7016e-05
4.72234e-05
4.76244e-05
4.82583e-05
3.76381e-05
2.01177e-05
1.09117e-05
7.91702e-06
6.82863e-06
6.3322e-06
6.19141e-06
6.34525e-06
6.679e-06
7.13283e-06
9.66094e-06
1.7667e-05
2.74856e-06
1.59716e-08
4.1944e-09
1.03031e-06
1.05236e-05
1.40483e-05
1.14177e-05
9.82409e-06
9.1778e-06
8.98761e-06
9.09212e-06
9.66915e-06
1.07571e-05
1.20444e-05
1.46847e-05
1.93709e-05
2.62343e-05
3.61879e-05
4.42651e-05
4.70925e-05
5.14519e-05
4.76718e-05
4.81942e-05
3.71689e-05
1.96691e-05
1.06036e-05
7.50185e-06
6.48587e-06
6.2212e-06
6.42319e-06
6.62054e-06
6.6911e-06
7.26714e-06
9.62764e-06
1.77996e-05
2.78403e-06
1.61689e-08
4.13532e-09
1.01887e-06
1.03421e-05
1.4048e-05
1.16117e-05
1.01785e-05
9.25597e-06
8.91205e-06
9.02334e-06
9.56466e-06
1.03963e-05
1.19506e-05
1.47718e-05
1.96216e-05
2.70601e-05
3.6469e-05
4.45024e-05
4.70878e-05
4.71509e-05
4.75391e-05
4.79866e-05
3.6429e-05
1.94276e-05
1.0617e-05
7.63412e-06
6.59158e-06
6.26372e-06
6.24329e-06
6.3944e-06
6.72024e-06
7.28936e-06
9.41482e-06
1.77205e-05
2.82587e-06
1.66796e-08
4.13418e-09
1.0166e-06
1.01431e-05
1.40561e-05
1.13687e-05
9.81097e-06
9.15723e-06
8.92388e-06
9.02302e-06
9.47053e-06
1.03063e-05
1.17578e-05
1.46614e-05
2.04134e-05
2.77996e-05
3.59887e-05
4.39354e-05
4.69343e-05
4.70855e-05
4.74953e-05
4.79827e-05
3.6291e-05
1.92283e-05
1.0474e-05
7.58665e-06
6.61257e-06
6.15598e-06
6.05799e-06
6.32245e-06
6.61177e-06
7.43184e-06
9.99416e-06
1.79117e-05
2.90288e-06
1.7061e-08
4.1606e-09
1.02325e-06
1.04359e-05
1.4018e-05
1.13605e-05
9.78441e-06
9.15565e-06
9.25611e-06
9.37807e-06
9.45579e-06
1.0203e-05
1.16931e-05
1.43324e-05
1.88759e-05
2.63247e-05
3.56856e-05
4.40669e-05
4.69428e-05
4.70988e-05
4.74956e-05
4.76118e-05
3.5394e-05
1.85603e-05
1.02053e-05
7.38685e-06
6.50889e-06
6.27344e-06
6.27185e-06
6.3846e-06
6.76001e-06
7.5326e-06
9.75895e-06
1.81668e-05
2.94576e-06
1.71594e-08
4.12229e-09
1.01506e-06
1.04329e-05
1.43485e-05
1.17468e-05
9.8586e-06
9.21978e-06
8.65978e-06
8.69858e-06
9.56068e-06
1.05598e-05
1.21197e-05
1.48364e-05
1.96517e-05
2.65012e-05
3.62749e-05
4.47122e-05
4.94214e-05
5.11858e-05
4.77056e-05
4.80461e-05
3.60456e-05
1.89696e-05
1.03196e-05
7.47597e-06
6.49621e-06
6.18083e-06
6.30184e-06
6.48429e-06
6.63577e-06
7.27678e-06
9.74991e-06
1.85053e-05
2.91438e-06
1.72383e-08
4.12303e-09
1.01278e-06
1.02433e-05
1.38788e-05
1.13563e-05
9.84167e-06
9.03322e-06
8.84603e-06
9.00902e-06
9.44568e-06
1.04551e-05
1.21271e-05
1.47811e-05
1.92862e-05
2.7226e-05
3.68701e-05
4.41344e-05
4.71072e-05
4.71479e-05
4.75345e-05
4.7577e-05
3.56443e-05
1.87339e-05
1.02147e-05
7.34758e-06
6.34011e-06
6.11373e-06
6.17224e-06
6.3866e-06
6.70555e-06
7.5303e-06
1.01529e-05
1.88037e-05
3.04062e-06
1.80209e-08
4.17542e-09
1.02304e-06
1.06353e-05
1.39577e-05
1.12145e-05
9.67685e-06
9.13231e-06
9.21879e-06
9.16555e-06
9.35309e-06
1.04513e-05
1.20668e-05
1.46778e-05
1.90725e-05
2.64075e-05
3.51723e-05
4.35153e-05
4.69194e-05
4.70894e-05
4.75115e-05
4.71803e-05
3.50571e-05
1.84487e-05
1.01733e-05
7.43371e-06
6.46942e-06
6.16741e-06
6.18367e-06
6.40418e-06
6.6892e-06
7.50053e-06
1.00418e-05
1.86506e-05
3.07853e-06
1.83508e-08
4.1181e-09
1.01187e-06
1.01546e-05
1.41714e-05
1.14335e-05
9.57848e-06
8.97825e-06
8.8136e-06
8.90832e-06
9.61367e-06
1.03346e-05
1.18884e-05
1.47388e-05
1.94022e-05
2.69806e-05
3.63513e-05
4.43517e-05
4.69269e-05
4.71272e-05
4.75475e-05
4.77731e-05
3.52751e-05
1.84439e-05
1.01814e-05
7.45268e-06
6.49577e-06
6.10531e-06
6.12397e-06
6.40487e-06
6.85363e-06
7.63419e-06
1.05064e-05
1.95612e-05
3.1808e-06
1.86463e-08
4.11966e-09
1.01368e-06
1.03369e-05
1.41334e-05
1.11089e-05
9.80622e-06
9.22615e-06
8.86599e-06
9.15395e-06
9.59235e-06
1.02278e-05
1.15126e-05
1.43136e-05
1.98165e-05
2.7302e-05
3.70685e-05
4.45877e-05
4.70099e-05
4.71415e-05
4.75614e-05
4.79638e-05
3.51381e-05
1.78617e-05
9.81643e-06
7.2105e-06
6.46995e-06
6.31499e-06
6.46235e-06
6.61554e-06
6.96223e-06
7.84389e-06
1.04904e-05
1.91707e-05
3.19705e-06
1.86825e-08
4.16284e-09
1.02236e-06
1.06163e-05
1.38557e-05
1.14606e-05
9.82676e-06
8.99058e-06
8.87958e-06
9.04658e-06
9.3883e-06
1.02727e-05
1.20503e-05
1.50486e-05
2.00276e-05
2.69526e-05
3.51865e-05
4.32309e-05
4.69416e-05
4.71248e-05
4.75411e-05
4.68093e-05
3.43743e-05
1.80573e-05
9.96617e-06
7.27533e-06
6.46184e-06
6.25506e-06
6.33849e-06
6.48183e-06
6.78809e-06
7.76962e-06
1.04917e-05
1.94201e-05
3.17884e-06
1.8953e-08
4.12947e-09
1.01409e-06
1.03364e-05
1.43764e-05
1.11081e-05
9.49803e-06
9.30625e-06
8.96867e-06
8.67834e-06
9.23731e-06
1.03489e-05
1.20241e-05
1.49677e-05
2.04193e-05
2.78918e-05
3.63893e-05
4.42934e-05
4.69195e-05
4.70956e-05
4.75239e-05
4.73233e-05
3.47664e-05
1.79933e-05
9.96661e-06
7.33232e-06
6.45416e-06
6.20442e-06
6.18291e-06
6.43694e-06
7.0496e-06
8.18676e-06
1.09401e-05
1.95098e-05
3.21135e-06
1.91428e-08
4.12254e-09
1.01451e-06
1.018e-05
1.3991e-05
1.15008e-05
9.9145e-06
8.67774e-06
8.68167e-06
9.07128e-06
9.63865e-06
1.05128e-05
1.17443e-05
1.44947e-05
1.90806e-05
2.68704e-05
3.64393e-05
4.45959e-05
4.69405e-05
4.70936e-05
4.75229e-05
4.78419e-05
3.50034e-05
1.7833e-05
9.73779e-06
7.12661e-06
6.3527e-06
6.21585e-06
6.42078e-06
6.70072e-06
7.05765e-06
8.0079e-06
1.0665e-05
1.9766e-05
3.26359e-06
1.93325e-08
4.16275e-09
1.02125e-06
1.06408e-05
1.39279e-05
1.13438e-05
9.66215e-06
8.95197e-06
8.83787e-06
9.06092e-06
9.48651e-06
1.04092e-05
1.2071e-05
1.48675e-05
2.01092e-05
2.71195e-05
3.6238e-05
4.40535e-05
4.6899e-05
4.70954e-05
4.75275e-05
4.68671e-05
3.38788e-05
1.75204e-05
9.76088e-06
7.1773e-06
6.37816e-06
6.18913e-06
6.34927e-06
6.54771e-06
7.04383e-06
7.94948e-06
1.07063e-05
1.997e-05
3.29347e-06
1.9558e-08
4.17883e-09
1.02608e-06
1.02904e-05
1.40579e-05
1.10446e-05
9.45838e-06
9.06028e-06
8.9203e-06
8.99351e-06
9.34227e-06
1.02793e-05
1.21376e-05
1.51923e-05
2.04235e-05
2.7746e-05
3.67003e-05
4.4037e-05
4.71431e-05
4.71708e-05
4.75586e-05
4.76275e-05
3.47539e-05
1.77767e-05
9.81791e-06
7.20551e-06
6.43611e-06
6.23849e-06
6.11256e-06
6.46405e-06
6.99917e-06
8.16822e-06
1.12515e-05
1.99504e-05
3.29404e-06
1.96277e-08
4.12697e-09
1.01526e-06
1.02122e-05
1.37749e-05
1.13699e-05
1.00153e-05
8.91766e-06
8.58607e-06
8.9095e-06
9.63798e-06
1.06409e-05
1.21075e-05
1.47732e-05
1.95793e-05
2.63585e-05
3.49474e-05
4.36957e-05
4.69508e-05
4.71351e-05
4.7552e-05
4.74366e-05
3.39573e-05
1.70992e-05
9.51785e-06
7.04926e-06
6.31451e-06
6.20442e-06
6.44188e-06
6.73412e-06
7.1113e-06
8.05967e-06
1.09378e-05
2.00167e-05
3.32917e-06
1.95969e-08
4.16116e-09
1.02222e-06
1.06723e-05
1.38077e-05
1.1267e-05
9.6134e-06
9.16691e-06
9.07447e-06
8.86642e-06
9.18573e-06
1.01368e-05
1.19715e-05
1.50904e-05
2.00312e-05
2.74037e-05
3.63615e-05
4.37147e-05
4.69403e-05
4.70996e-05
4.7549e-05
4.69404e-05
3.3639e-05
1.71618e-05
9.6659e-06
7.15827e-06
6.43127e-06
6.2646e-06
6.35014e-06
6.60269e-06
6.99996e-06
7.93348e-06
1.07003e-05
2.01578e-05
3.30889e-06
1.96465e-08
4.14469e-09
1.01744e-06
1.0147e-05
1.4304e-05
1.07839e-05
9.43258e-06
9.10984e-06
8.81184e-06
9.00104e-06
9.42168e-06
1.01382e-05
1.19481e-05
1.51332e-05
1.9876e-05
2.69986e-05
3.64835e-05
4.40362e-05
4.88737e-05
4.72375e-05
4.75415e-05
4.69122e-05
3.33842e-05
1.6974e-05
9.60085e-06
7.20015e-06
6.41838e-06
6.24328e-06
6.26921e-06
6.46972e-06
7.15033e-06
8.47403e-06
1.15466e-05
2.02852e-05
3.35192e-06
1.99352e-08
4.13637e-09
1.01806e-06
1.03699e-05
1.3725e-05
1.12225e-05
9.91997e-06
9.02105e-06
8.63923e-06
8.8836e-06
9.60583e-06
1.06581e-05
1.17539e-05
1.41885e-05
1.92127e-05
2.68871e-05
3.60666e-05
4.4505e-05
4.96033e-05
5.1353e-05
4.76718e-05
4.71127e-05
3.34151e-05
1.68622e-05
9.50917e-06
7.06698e-06
6.41203e-06
6.29999e-06
6.38632e-06
6.7399e-06
7.15906e-06
8.26772e-06
1.13011e-05
2.03319e-05
3.37843e-06
2.00483e-08
4.1514e-09
1.02149e-06
1.04068e-05
1.3796e-05
1.11485e-05
9.58359e-06
9.18743e-06
9.08741e-06
8.91121e-06
9.11061e-06
1.00267e-05
1.19518e-05
1.50985e-05
1.99865e-05
2.74422e-05
3.66256e-05
4.41381e-05
4.68894e-05
4.71013e-05
4.75363e-05
4.79459e-05
3.38407e-05
1.69364e-05
9.50578e-06
6.98042e-06
6.27634e-06
6.3334e-06
6.53368e-06
6.64364e-06
7.21835e-06
8.14795e-06
1.10439e-05
2.05941e-05
3.39653e-06
2.03426e-08
4.12915e-09
1.01534e-06
1.03567e-05
1.39143e-05
1.11214e-05
9.39748e-06
9.00023e-06
8.92182e-06
8.86941e-06
9.22516e-06
1.02142e-05
1.22295e-05
1.51767e-05
1.98321e-05
2.72881e-05
3.61949e-05
4.39659e-05
4.68793e-05
4.70677e-05
4.74946e-05
4.66847e-05
3.296e-05
1.66018e-05
9.475e-06
7.09868e-06
6.38777e-06
6.25963e-06
6.39886e-06
6.68167e-06
7.15903e-06
8.46327e-06
1.17751e-05
2.0586e-05
3.50847e-06
2.05533e-08
4.09134e-09
1.00519e-06
1.04281e-05
1.38465e-05
1.14596e-05
9.67899e-06
8.8058e-06
8.68707e-06
8.90372e-06
9.43869e-06
1.04622e-05
1.21625e-05
1.53818e-05
2.04515e-05
2.76449e-05
3.59961e-05
4.36031e-05
4.68985e-05
4.7069e-05
4.75123e-05
4.59638e-05
3.32269e-05
1.69983e-05
9.55003e-06
7.05072e-06
6.34738e-06
6.32565e-06
6.47435e-06
6.67874e-06
7.24476e-06
8.38553e-06
1.15619e-05
2.12621e-05
3.50321e-06
2.0478e-08
4.08614e-09
1.00572e-06
1.04887e-05
1.39807e-05
1.1145e-05
9.70537e-06
9.23885e-06
9.03399e-06
8.75072e-06
9.13212e-06
1.03029e-05
1.20434e-05
1.49342e-05
1.98839e-05
2.78197e-05
3.65465e-05
4.42981e-05
4.69482e-05
4.71378e-05
4.75462e-05
4.78402e-05
3.38239e-05
1.70021e-05
9.57517e-06
7.12157e-06
6.35779e-06
6.20727e-06
6.43549e-06
7.00769e-06
7.54091e-06
8.3985e-06
1.16752e-05
2.14246e-05
3.48242e-06
2.0498e-08
4.09246e-09
1.00341e-06
1.03054e-05
1.38933e-05
1.12837e-05
9.79323e-06
8.86754e-06
8.66726e-06
9.00186e-06
9.5114e-06
1.03336e-05
1.20473e-05
1.50183e-05
2.00501e-05
2.74719e-05
3.62602e-05
4.39287e-05
4.70578e-05
5.0432e-05
4.76508e-05
4.6568e-05
3.26306e-05
1.64874e-05
9.4402e-06
7.05532e-06
6.43934e-06
6.41536e-06
6.5267e-06
6.82183e-06
7.32612e-06
8.5001e-06
1.16645e-05
2.08832e-05
3.48928e-06
2.05701e-08
4.12114e-09
1.01116e-06
1.04078e-05
1.39386e-05
1.11051e-05
9.60856e-06
8.9502e-06
8.69231e-06
9.19036e-06
9.57482e-06
1.01228e-05
1.20096e-05
1.51492e-05
2.03587e-05
2.76202e-05
3.60767e-05
4.37669e-05
4.87107e-05
5.04105e-05
4.77087e-05
4.59407e-05
3.26154e-05
1.68304e-05
9.58916e-06
7.15246e-06
6.42765e-06
6.31805e-06
6.54519e-06
6.91302e-06
7.41447e-06
8.59319e-06
1.19762e-05
2.11743e-05
3.5327e-06
2.08393e-08
4.09694e-09
1.00905e-06
1.02621e-05
1.37008e-05
1.14166e-05
1.003e-05
9.01282e-06
8.51755e-06
8.56847e-06
9.37499e-06
1.05267e-05
1.20244e-05
1.49124e-05
1.9906e-05
2.80449e-05
3.71077e-05
4.48683e-05
4.69453e-05
4.71682e-05
4.75712e-05
4.75069e-05
3.32005e-05
1.66241e-05
9.49599e-06
7.14246e-06
6.4316e-06
6.32009e-06
6.45427e-06
7.02124e-06
7.66698e-06
8.61926e-06
1.16564e-05
2.1328e-05
3.58172e-06
2.08538e-08
4.09588e-09
1.00654e-06
1.05106e-05
1.41011e-05
1.13985e-05
9.45283e-06
8.81059e-06
8.81019e-06
8.96187e-06
9.5767e-06
1.05493e-05
1.18179e-05
1.45578e-05
1.94156e-05
2.74024e-05
3.67263e-05
4.46414e-05
4.90017e-05
5.05152e-05
4.77547e-05
4.59451e-05
3.17961e-05
1.63347e-05
9.51815e-06
7.22796e-06
6.52101e-06
6.38048e-06
6.57032e-06
6.73814e-06
7.21145e-06
8.48362e-06
1.1824e-05
2.16437e-05
3.59819e-06
2.09235e-08
4.11672e-09
1.01427e-06
1.03668e-05
1.37534e-05
1.10966e-05
9.571e-06
9.06475e-06
9.08346e-06
9.1204e-06
9.00653e-06
9.90495e-06
1.19818e-05
1.50741e-05
2.03093e-05
2.8345e-05
3.69906e-05
4.4024e-05
4.6919e-05
4.7135e-05
4.76176e-05
4.6291e-05
3.28402e-05
1.68758e-05
9.64894e-06
7.22324e-06
6.5169e-06
6.35683e-06
6.43872e-06
6.78362e-06
7.3384e-06
8.58825e-06
1.21116e-05
2.17023e-05
3.55248e-06
2.10588e-08
4.08537e-09
1.00306e-06
1.03319e-05
1.39021e-05
1.1532e-05
1.00431e-05
8.9287e-06
8.37475e-06
8.59881e-06
9.44939e-06
1.02634e-05
1.20323e-05
1.52362e-05
2.04979e-05
2.8524e-05
3.79079e-05
4.51563e-05
4.6864e-05
4.71434e-05
4.76213e-05
4.68029e-05
3.26776e-05
1.66791e-05
9.62257e-06
7.29004e-06
6.46999e-06
6.3364e-06
6.55445e-06
6.92403e-06
7.45005e-06
8.55505e-06
1.19629e-05
2.1847e-05
3.65875e-06
2.13376e-08
4.09627e-09
1.00832e-06
1.01253e-05
1.40508e-05
1.07928e-05
9.29944e-06
8.90802e-06
8.73722e-06
8.81665e-06
9.35809e-06
1.06341e-05
1.23802e-05
1.51291e-05
1.98807e-05
2.69371e-05
3.63819e-05
4.44717e-05
4.69619e-05
4.721e-05
4.76557e-05
4.64307e-05
3.20675e-05
1.63385e-05
9.51383e-06
7.23341e-06
6.68079e-06
6.584e-06
6.62107e-06
6.89336e-06
7.43585e-06
8.568e-06
1.18321e-05
2.17162e-05
3.61568e-06
2.1277e-08
4.10812e-09
1.00875e-06
1.04607e-05
1.38104e-05
1.11945e-05
9.61873e-06
8.91762e-06
8.87763e-06
9.0912e-06
9.30684e-06
1.00496e-05
1.17103e-05
1.48071e-05
2.01215e-05
2.81211e-05
3.69425e-05
4.50669e-05
4.69532e-05
4.71825e-05
4.76947e-05
4.71005e-05
3.29432e-05
1.68e-05
9.7595e-06
7.36077e-06
6.59968e-06
6.53761e-06
6.67209e-06
6.73392e-06
7.27481e-06
8.766e-06
1.25609e-05
2.19348e-05
3.64645e-06
2.12837e-08
4.13493e-09
1.01306e-06
1.03777e-05
1.38929e-05
1.13938e-05
9.76316e-06
8.86662e-06
8.44419e-06
8.62803e-06
9.33544e-06
1.03183e-05
1.20266e-05
1.52644e-05
2.03891e-05
2.79052e-05
3.72008e-05
4.49762e-05
4.68705e-05
4.71804e-05
4.76893e-05
4.72179e-05
3.24761e-05
1.63949e-05
9.64238e-06
7.38005e-06
6.68547e-06
6.5271e-06
6.70856e-06
7.26006e-06
7.83588e-06
8.88833e-06
1.2337e-05
2.17265e-05
3.63072e-06
2.13567e-08
4.14907e-09
1.02143e-06
1.02327e-05
1.39592e-05
1.10019e-05
9.24333e-06
8.72118e-06
8.51387e-06
8.70253e-06
9.40794e-06
1.06835e-05
1.25177e-05
1.50296e-05
1.98327e-05
2.72202e-05
3.62904e-05
4.3803e-05
4.70311e-05
4.72605e-05
4.77539e-05
4.59175e-05
3.1304e-05
1.61062e-05
9.66949e-06
7.47916e-06
6.81363e-06
6.71766e-06
6.8654e-06
7.09035e-06
7.71794e-06
8.95284e-06
1.22423e-05
2.18287e-05
3.63993e-06
2.16116e-08
4.10241e-09
1.00802e-06
1.03539e-05
1.35628e-05
1.08814e-05
9.52242e-06
8.83972e-06
8.97155e-06
9.11472e-06
9.30518e-06
1.00714e-05
1.1607e-05
1.51206e-05
2.06306e-05
2.81691e-05
3.71538e-05
4.46702e-05
4.6988e-05
4.7227e-05
4.77615e-05
4.58499e-05
3.17025e-05
1.63717e-05
9.72381e-06
7.48408e-06
6.81872e-06
6.77303e-06
6.91408e-06
7.11398e-06
7.63575e-06
9.07506e-06
1.27217e-05
2.23084e-05
3.76558e-06
2.25144e-08
4.1331e-09
1.0154e-06
1.04855e-05
1.37967e-05
1.12708e-05
9.84839e-06
8.92915e-06
8.24955e-06
8.57339e-06
9.38647e-06
1.03927e-05
1.2295e-05
1.51686e-05
2.0444e-05
2.80521e-05
3.70325e-05
4.44769e-05
4.69441e-05
4.72478e-05
4.77587e-05
4.5595e-05
3.13923e-05
1.6376e-05
9.71257e-06
7.54689e-06
6.92208e-06
6.74232e-06
6.87022e-06
7.31692e-06
7.86204e-06
9.02083e-06
1.24955e-05
2.23312e-05
3.82771e-06
2.27216e-08
4.16613e-09
1.02515e-06
1.02996e-05
1.34428e-05
1.05695e-05
9.28627e-06
8.77019e-06
8.79209e-06
8.83831e-06
9.33803e-06
1.05397e-05
1.26743e-05
1.60431e-05
2.0441e-05
2.73452e-05
3.61787e-05
4.39114e-05
4.69835e-05
4.73121e-05
4.78301e-05
4.55553e-05
3.12714e-05
1.62312e-05
9.68518e-06
7.6166e-06
7.01067e-06
6.82235e-06
6.98684e-06
7.2601e-06
7.72573e-06
9.16495e-06
1.27574e-05
2.25519e-05
3.84146e-06
2.27733e-08
4.11145e-09
1.00986e-06
1.05422e-05
1.37577e-05
1.10361e-05
9.37651e-06
8.80623e-06
8.71207e-06
9.12057e-06
9.82716e-06
1.0443e-05
1.17544e-05
1.48491e-05
2.10937e-05
2.87326e-05
3.75872e-05
4.49238e-05
4.70354e-05
4.72927e-05
4.78708e-05
4.66645e-05
3.19767e-05
1.62524e-05
9.68069e-06
7.55211e-06
6.9516e-06
6.90779e-06
7.04771e-06
7.2515e-06
7.85182e-06
9.19241e-06
1.33404e-05
2.31033e-05
3.86505e-06
2.28341e-08
4.12363e-09
1.01387e-06
1.03922e-05
1.38333e-05
1.11308e-05
9.51109e-06
8.91297e-06
8.63821e-06
8.68333e-06
9.27957e-06
1.03526e-05
1.23907e-05
1.55736e-05
2.14195e-05
2.89148e-05
3.76551e-05
4.49865e-05
4.70458e-05
4.73007e-05
4.78492e-05
4.63355e-05
3.13974e-05
1.59929e-05
9.64747e-06
7.5839e-06
7.03695e-06
7.00205e-06
7.09373e-06
7.45719e-06
8.12792e-06
9.46103e-06
1.31626e-05
2.29491e-05
3.88818e-06
2.30478e-08
4.16487e-09
1.0218e-06
1.07325e-05
1.36132e-05
1.08931e-05
9.36467e-06
8.79684e-06
8.66774e-06
8.93559e-06
9.37018e-06
1.04585e-05
1.22766e-05
1.56642e-05
2.11545e-05
2.88554e-05
3.7162e-05
4.44985e-05
4.69402e-05
4.7276e-05
4.78248e-05
4.60929e-05
3.10751e-05
1.5932e-05
9.60246e-06
7.51073e-06
6.88024e-06
6.91308e-06
7.29199e-06
7.73772e-06
8.27345e-06
9.59761e-06
1.33792e-05
2.31434e-05
3.89915e-06
2.30883e-08
4.11857e-09
1.0143e-06
1.03242e-05
1.36632e-05
1.0815e-05
9.34999e-06
8.81486e-06
9.045e-06
9.1853e-06
9.38329e-06
1.01608e-05
1.20395e-05
1.5721e-05
2.06762e-05
2.7437e-05
3.69123e-05
4.48709e-05
4.694e-05
4.72771e-05
4.78434e-05
4.69171e-05
3.11848e-05
1.56857e-05
9.60467e-06
7.58254e-06
7.0399e-06
7.1009e-06
7.40539e-06
7.60562e-06
8.13031e-06
9.72741e-06
1.37237e-05
2.37393e-05
3.92792e-06
2.32952e-08
4.12403e-09
1.01414e-06
1.03781e-05
1.40081e-05
1.1116e-05
9.2859e-06
8.70295e-06
8.55438e-06
8.56403e-06
9.31874e-06
1.05364e-05
1.24083e-05
1.55868e-05
2.11588e-05
2.90464e-05
3.77959e-05
4.46364e-05
4.69965e-05
4.73081e-05
4.7856e-05
4.60114e-05
3.05489e-05
1.53761e-05
9.52441e-06
7.54956e-06
7.15391e-06
7.32424e-06
7.52575e-06
7.86228e-06
8.33001e-06
9.64313e-06
1.32535e-05
2.35439e-05
3.94608e-06
2.34579e-08
4.15042e-09
1.01655e-06
1.05991e-05
1.3658e-05
1.08528e-05
9.5045e-06
8.94258e-06
8.63229e-06
8.73025e-06
9.25981e-06
1.04145e-05
1.23001e-05
1.52418e-05
2.02306e-05
2.84023e-05
3.75707e-05
4.51443e-05
4.6937e-05
4.72661e-05
4.78216e-05
4.48717e-05
2.98092e-05
1.54435e-05
9.63129e-06
7.67251e-06
7.15947e-06
7.23547e-06
7.36181e-06
7.66983e-06
8.29166e-06
9.65368e-06
1.3787e-05
2.40078e-05
4.01309e-06
2.3668e-08
4.16059e-09
1.02112e-06
1.02628e-05
1.32971e-05
1.06266e-05
9.6435e-06
8.75615e-06
8.37882e-06
9.03621e-06
9.62703e-06
1.02461e-05
1.19564e-05
1.52986e-05
2.11643e-05
2.87253e-05
3.77473e-05
4.51957e-05
4.70169e-05
4.73489e-05
4.78926e-05
4.55002e-05
3.00733e-05
1.55511e-05
9.66569e-06
7.7059e-06
7.19297e-06
7.16485e-06
7.30116e-06
7.61456e-06
8.23475e-06
9.95089e-06
1.38626e-05
2.36031e-05
3.99631e-06
2.37114e-08
4.12195e-09
1.01374e-06
1.05193e-05
1.36736e-05
1.10363e-05
9.33673e-06
8.75655e-06
8.81875e-06
8.61015e-06
8.9461e-06
1.04154e-05
1.27766e-05
1.68774e-05
2.1758e-05
2.86104e-05
3.70868e-05
4.42631e-05
4.70365e-05
4.73332e-05
4.79505e-05
4.56184e-05
3.04686e-05
1.5767e-05
9.75107e-06
7.72319e-06
7.16585e-06
7.13488e-06
7.50559e-06
8.02607e-06
8.51806e-06
9.79637e-06
1.35181e-05
2.39677e-05
4.06901e-06
2.39577e-08
4.16095e-09
1.01993e-06
1.04475e-05
1.37398e-05
1.08584e-05
9.29207e-06
8.74736e-06
8.46228e-06
8.58256e-06
9.27487e-06
1.04902e-05
1.23639e-05
1.51859e-05
2.04898e-05
2.86456e-05
3.78036e-05
4.49746e-05
4.70245e-05
4.7317e-05
4.79288e-05
4.52342e-05
2.99751e-05
1.54757e-05
9.54819e-06
7.59754e-06
7.11041e-06
7.29375e-06
7.5798e-06
7.8442e-06
8.53549e-06
9.79179e-06
1.34548e-05
2.36713e-05
4.08519e-06
2.38245e-08
4.13899e-09
1.01538e-06
1.04297e-05
1.35876e-05
1.09937e-05
9.33557e-06
8.3641e-06
8.26051e-06
8.77798e-06
9.33391e-06
1.0314e-05
1.22565e-05
1.57972e-05
2.12772e-05
2.90147e-05
3.80308e-05
4.5769e-05
4.70346e-05
4.73265e-05
4.79497e-05
4.5188e-05
2.98166e-05
1.55691e-05
9.77111e-06
7.79813e-06
7.23547e-06
7.30335e-06
7.47144e-06
7.77126e-06
8.37071e-06
9.93774e-06
1.41942e-05
2.45191e-05
4.07796e-06
2.39516e-08
4.10676e-09
1.01059e-06
1.02645e-05
1.3743e-05
1.06571e-05
9.14052e-06
8.79848e-06
8.68928e-06
8.47405e-06
8.8887e-06
1.03777e-05
1.26164e-05
1.61795e-05
2.17104e-05
2.90876e-05
3.69506e-05
4.35832e-05
4.69594e-05
4.73543e-05
4.79563e-05
4.57328e-05
2.98014e-05
1.53341e-05
9.69204e-06
7.8385e-06
7.30929e-06
7.20907e-06
7.54364e-06
8.17546e-06
8.74467e-06
9.9972e-06
1.38139e-05
2.39188e-05
4.07933e-06
2.39653e-08
4.14561e-09
1.01536e-06
1.04068e-05
1.35078e-05
1.08825e-05
9.32998e-06
8.65569e-06
8.38413e-06
8.63151e-06
9.44196e-06
1.03794e-05
1.23103e-05
1.56602e-05
2.16921e-05
2.9939e-05
3.86692e-05
4.51581e-05
4.69807e-05
4.73506e-05