/*--------------------------------*- C++ -*----------------------------------*\
  =========                 |
  \\      /  F ield         | OpenFOAM: The Open Source CFD Toolbox
   \\    /   O peration     | Website:  https://openfoam.org
    \\  /    A nd           | Version:  13
     \\/     M anipulation  |
\*---------------------------------------------------------------------------*/
FoamFile
{
    format      ascii;
    class       volScalarField;
    location    "10";
    object      p;
}
// * * * * * * * * * * * * * * * * * * * * * * * * * * * * * * * * * * * * * //

dimensions      [0 2 -2 0 0 0 0];

internalField   nonuniform List<scalar> 
78750
(
0
0.000129197
0.000216131
0.000248008
0.000165172
-4.93756e-05
-0.000383792
-0.000831123
-0.00142762
-0.00202086
-0.00255652
-0.00308159
-0.00358448
-0.0039508
-0.00427165
-0.00465749
-0.00491006
-0.00513117
-0.00529827
-0.00543588
-0.00554817
-0.00564182
-0.00571531
-0.00576955
-0.0057985
-0.00580311
-0.00578074
-0.00572338
-0.0056363
-0.00548234
-0.00525875
-0.00501734
-0.00476325
-0.00451645
-0.00436581
-0.148756
-0.148745
-0.148778
-0.148919
-0.149093
-0.149379
-0.149791
-0.15018
-0.150627
-0.151048
-0.151442
-0.151746
-0.15199
-0.152166
-0.152257
-0.152332
-0.152421
-0.152432
-0.152422
-0.152406
-0.152387
-0.15236
-0.152314
-0.152248
-0.152172
-0.152103
-0.152029
-0.151907
-0.151766
-0.151635
-0.151483
-0.151309
-0.151122
-0.150958
-0.150865
-0.296414
-0.296424
-0.296504
-0.296654
-0.296875
-0.297129
-0.297401
-0.297574
-0.297637
-0.297739
-0.29787
-0.297975
-0.298036
-0.298073
-0.29809
-0.298065
-0.298052
-0.298033
-0.298014
-0.297997
-0.297984
-0.297974
-0.297965
-0.297957
-0.297951
-0.29794
-0.297913
-0.29788
-0.297812
-0.29771
-0.297613
-0.297505
-0.29739
-0.29729
-0.297235
-0.443137
-0.443156
-0.443213
-0.443294
-0.443405
-0.443521
-0.443624
-0.443717
-0.44379
-0.443822
-0.443838
-0.443851
-0.443857
-0.443856
-0.443849
-0.443836
-0.443824
-0.443819
-0.443812
-0.443806
-0.443803
-0.443801
-0.443802
-0.443806
-0.443809
-0.443807
-0.443795
-0.443766
-0.443731
-0.443685
-0.44362
-0.443552
-0.443479
-0.443415
-0.443375
-0.589183
-0.589192
-0.589213
-0.589247
-0.589294
-0.58934
-0.589383
-0.589418
-0.589444
-0.589465
-0.58948
-0.589489
-0.589494
-0.589493
-0.589489
-0.589483
-0.589482
-0.589482
-0.589489
-0.589501
-0.589513
-0.589529
-0.58955
-0.589575
-0.589595
-0.589606
-0.589617
-0.589615
-0.589601
-0.589583
-0.589545
-0.5895
-0.589448
-0.589403
-0.589376
-0.735037
-0.735041
-0.735048
-0.735061
-0.735079
-0.735098
-0.735114
-0.735129
-0.73514
-0.73515
-0.735157
-0.735162
-0.735166
-0.735168
-0.735168
-0.735167
-0.735172
-0.735184
-0.7352
-0.735218
-0.735239
-0.735264
-0.735293
-0.735323
-0.73535
-0.735369
-0.735386
-0.735397
-0.735394
-0.735376
-0.735356
-0.735328
-0.735296
-0.735268
-0.735254
-0.880544
-0.880544
-0.880544
-0.880549
-0.880557
-0.880566
-0.880573
-0.880579
-0.880584
-0.880588
-0.880591
-0.880593
-0.880593
-0.880592
-0.880587
-0.88058
-0.880576
-0.880576
-0.880577
-0.880578
-0.880579
-0.880583
-0.880591
-0.880599
-0.880605
-0.880605
-0.880602
-0.88059
-0.880573
-0.880555
-0.880532
-0.880508
-0.880491
-0.880477
-0.880471
-1.0261
-1.0261
-1.0261
-1.0261
-1.0261
-1.02611
-1.02611
-1.02611
-1.02612
-1.02612
-1.02612
-1.02612
-1.02612
-1.02612
-1.02611
-1.02611
-1.0261
-1.0261
-1.0261
-1.02609
-1.02609
-1.02609
-1.02609
-1.02609
-1.02608
-1.02608
-1.02607
-1.02606
-1.02604
-1.02602
-1.026
-1.02599
-1.02597
-1.02596
-1.02594
-1.1715
-1.1715
-1.1715
-1.1715
-1.17151
-1.17151
-1.17152
-1.17152
-1.17153
-1.17153
-1.17154
-1.17154
-1.17154
-1.17155
-1.17155
-1.17156
-1.17156
-1.17158
-1.17159
-1.17161
-1.17163
-1.17165
-1.17167
-1.17169
-1.1717
-1.17172
-1.17173
-1.17174
-1.17174
-1.17174
-1.17173
-1.17171
-1.17169
-1.17167
-1.17165
-1.31691
-1.31691
-1.31691
-1.31691
-1.31691
-1.31692
-1.31692
-1.31692
-1.31693
-1.31693
-1.31694
-1.31694
-1.31695
-1.31695
-1.31696
-1.31697
-1.31698
-1.317
-1.31702
-1.31704
-1.31707
-1.3171
-1.31714
-1.31717
-1.31719
-1.31721
-1.31724
-1.31725
-1.31726
-1.31726
-1.31725
-1.31724
-1.31721
-1.3172
-1.31719
-1.46225
-1.46225
-1.46225
-1.46225
-1.46225
-1.46225
-1.46226
-1.46226
-1.46227
-1.46227
-1.46227
-1.46228
-1.46228
-1.46228
-1.46228
-1.46229
-1.46229
-1.46231
-1.46232
-1.46233
-1.46235
-1.46237
-1.46239
-1.46241
-1.46243
-1.46244
-1.46245
-1.46245
-1.46245
-1.46245
-1.46243
-1.46241
-1.4624
-1.46239
-1.4624
-1.60754
-1.60754
-1.60753
-1.60753
-1.60753
-1.60753
-1.60753
-1.60753
-1.60752
-1.60752
-1.60752
-1.60751
-1.60751
-1.6075
-1.60749
-1.60748
-1.60746
-1.60745
-1.60743
-1.60742
-1.6074
-1.60739
-1.60738
-1.60737
-1.60736
-1.60735
-1.60733
-1.60732
-1.6073
-1.60728
-1.60726
-1.60726
-1.60725
-1.60724
-1.60724
-1.75283
-1.75283
-1.75283
-1.75282
-1.75282
-1.75281
-1.75281
-1.75281
-1.7528
-1.7528
-1.75279
-1.75279
-1.75278
-1.75277
-1.75276
-1.75274
-1.75272
-1.7527
-1.75267
-1.75264
-1.75262
-1.75259
-1.75256
-1.75254
-1.75252
-1.75249
-1.75246
-1.75244
-1.75242
-1.75241
-1.75242
-1.75242
-1.75243
-1.75243
-1.75243
-1.89813
-1.89813
-1.89812
-1.89812
-1.89812
-1.89812
-1.89811
-1.89811
-1.89811
-1.8981
-1.8981
-1.8981
-1.8981
-1.89809
-1.89809
-1.89808
-1.89807
-1.89806
-1.89805
-1.89804
-1.89803
-1.89802
-1.89801
-1.898
-1.89799
-1.89799
-1.89798
-1.89797
-1.89796
-1.89795
-1.89793
-1.89792
-1.89792
-1.89791
-1.89791
-2.04343
-2.04343
-2.04342
-2.04342
-2.04342
-2.04342
-2.04342
-2.04342
-2.04343
-2.04343
-2.04343
-2.04343
-2.04343
-2.04343
-2.04343
-2.04344
-2.04344
-2.04344
-2.04345
-2.04346
-2.04347
-2.04348
-2.04349
-2.04351
-2.04352
-2.04353
-2.04354
-2.04356
-2.04357
-2.04358
-2.04358
-2.04358
-2.04356
-2.04355
-2.04354
-2.18871
-2.18871
-2.1887
-2.18871
-2.18871
-2.18872
-2.18872
-2.18872
-2.18873
-2.18873
-2.18874
-2.18875
-2.18875
-2.18876
-2.18877
-2.18878
-2.1888
-2.18882
-2.18884
-2.18886
-2.18888
-2.18891
-2.18894
-2.18896
-2.18898
-2.189
-2.18901
-2.18902
-2.18903
-2.18903
-2.18903
-2.18902
-2.18901
-2.189
-2.189
-2.33396
-2.33396
-2.33396
-2.33396
-2.33396
-2.33397
-2.33398
-2.33398
-2.33399
-2.33399
-2.334
-2.33401
-2.33402
-2.33403
-2.33404
-2.33405
-2.33407
-2.33409
-2.33411
-2.33414
-2.33416
-2.33419
-2.33422
-2.33424
-2.33426
-2.33427
-2.33429
-2.3343
-2.33431
-2.33431
-2.33431
-2.33431
-2.3343
-2.33429
-2.3343
-2.47917
-2.47917
-2.47917
-2.47918
-2.47918
-2.47918
-2.4792
-2.47921
-2.47922
-2.47923
-2.47924
-2.47925
-2.47927
-2.47928
-2.4793
-2.47932
-2.47935
-2.47938
-2.47942
-2.47945
-2.47949
-2.47953
-2.47957
-2.47961
-2.47964
-2.47966
-2.47968
-2.4797
-2.4797
-2.4797
-2.4797
-2.47968
-2.47966
-2.47965
-2.47966
-2.62433
-2.62433
-2.62434
-2.62434
-2.62435
-2.62436
-2.62436
-2.62437
-2.62438
-2.62439
-2.6244
-2.62441
-2.62442
-2.62444
-2.62446
-2.62448
-2.62451
-2.62455
-2.62459
-2.62463
-2.62468
-2.62473
-2.62477
-2.62481
-2.62483
-2.62485
-2.62488
-2.62489
-2.62489
-2.62489
-2.62488
-2.62486
-2.62484
-2.62483
-2.62483
-2.76945
-2.76945
-2.76945
-2.76946
-2.76947
-2.76947
-2.76948
-2.76949
-2.7695
-2.76951
-2.76953
-2.76954
-2.76955
-2.76956
-2.76957
-2.76959
-2.76962
-2.76965
-2.76968
-2.76972
-2.76976
-2.7698
-2.76984
-2.76987
-2.76989
-2.76991
-2.76992
-2.76993
-2.76993
-2.76993
-2.76993
-2.76992
-2.76991
-2.76991
-2.76991
-2.91449
-2.9145
-2.9145
-2.91451
-2.91452
-2.91453
-2.91454
-2.91455
-2.91456
-2.91456
-2.91457
-2.91458
-2.91459
-2.9146
-2.91462
-2.91463
-2.91465
-2.91468
-2.91471
-2.91473
-2.91476
-2.91479
-2.91482
-2.91485
-2.91486
-2.91488
-2.91488
-2.91488
-2.91488
-2.91487
-2.91486
-2.91484
-2.91484
-2.91484
-2.91485
-3.05953
-3.05953
-3.05953
-3.05954
-3.05954
-3.05955
-3.05955
-3.05955
-3.05956
-3.05956
-3.05956
-3.05956
-3.05957
-3.05957
-3.05958
-3.05958
-3.05959
-3.0596
-3.05961
-3.05962
-3.05963
-3.05963
-3.05964
-3.05964
-3.05965
-3.05965
-3.05964
-3.05964
-3.05963
-3.05964
-3.05964
-3.05965
-3.05966
-3.05966
-3.05966
-3.2046
-3.2046
-3.2046
-3.2046
-3.20459
-3.20459
-3.20459
-3.20459
-3.20459
-3.20459
-3.20459
-3.2046
-3.20459
-3.20459
-3.20459
-3.20459
-3.20459
-3.20459
-3.20459
-3.20459
-3.20458
-3.20458
-3.20458
-3.20457
-3.20457
-3.20456
-3.20456
-3.20456
-3.20456
-3.20457
-3.20458
-3.20459
-3.20458
-3.20459
-3.20459
-3.34958
-3.34958
-3.34958
-3.34959
-3.34959
-3.3496
-3.34961
-3.34961
-3.34961
-3.34961
-3.34961
-3.34962
-3.34962
-3.34962
-3.34962
-3.34962
-3.34963
-3.34963
-3.34964
-3.34964
-3.34965
-3.34966
-3.34966
-3.34966
-3.34967
-3.34967
-3.34967
-3.34966
-3.34965
-3.34964
-3.34962
-3.34961
-3.3496
-3.34959
-3.3496
-3.4946
-3.4946
-3.4946
-3.4946
-3.4946
-3.4946
-3.4946
-3.4946
-3.4946
-3.49461
-3.49461
-3.49461
-3.49462
-3.49462
-3.49462
-3.49463
-3.49463
-3.49464
-3.49464
-3.49465
-3.49465
-3.49466
-3.49467
-3.49467
-3.49467
-3.49468
-3.49468
-3.49468
-3.49468
-3.49469
-3.49469
-3.49469
-3.4947
-3.49468
-3.49468
-3.63964
-3.63964
-3.63964
-3.63963
-3.63963
-3.63963
-3.63963
-3.63963
-3.63963
-3.63964
-3.63964
-3.63964
-3.63964
-3.63965
-3.63965
-3.63965
-3.63965
-3.63965
-3.63966
-3.63966
-3.63966
-3.63966
-3.63966
-3.63966
-3.63966
-3.63966
-3.63966
-3.63966
-3.63968
-3.63968
-3.63969
-3.63968
-3.63969
-3.63969
-3.6397
-3.78466
-3.78466
-3.78466
-3.78466
-3.78467
-3.78467
-3.78467
-3.78467
-3.78466
-3.78466
-3.78466
-3.78466
-3.78467
-3.78467
-3.78467
-3.78467
-3.78467
-3.78467
-3.78468
-3.78468
-3.78468
-3.78469
-3.78469
-3.78469
-3.78469
-3.78469
-3.78469
-3.78468
-3.78468
-3.78467
-3.78467
-3.78466
-3.78465
-3.78465
-3.78466
-3.9297
-3.9297
-3.92971
-3.92971
-3.92971
-3.92971
-3.92971
-3.92971
-3.92972
-3.92971
-3.92971
-3.92971
-3.92971
-3.92971
-3.92971
-3.92971
-3.92971
-3.92971
-3.92971
-3.9297
-3.9297
-3.9297
-3.9297
-3.9297
-3.9297
-3.9297
-3.9297
-3.9297
-3.9297
-3.9297
-3.92971
-3.92972
-3.92972
-3.92971
-3.92971
-4.07476
-4.07477
-4.07476
-4.07476
-4.07476
-4.07476
-4.07476
-4.07476
-4.07477
-4.07477
-4.07477
-4.07477
-4.07477
-4.07477
-4.07477
-4.07477
-4.07477
-4.07477
-4.07477
-4.07477
-4.07477
-4.07477
-4.07477
-4.07478
-4.07478
-4.07478
-4.07478
-4.07478
-4.07479
-4.07479
-4.07479
-4.07478
-4.07478
-4.07478
-4.07479
-4.21977
-4.21978
-4.21978
-4.21978
-4.21978
-4.21978
-4.21977
-4.21977
-4.21976
-4.21976
-4.21976
-4.21976
-4.21976
-4.21976
-4.21976
-4.21976
-4.21976
-4.21976
-4.21976
-4.21976
-4.21977
-4.21977
-4.21977
-4.21977
-4.21977
-4.21977
-4.21977
-4.21976
-4.21976
-4.21976
-4.21976
-4.21974
-4.21974
-4.21974
-4.21975
-4.36477
-4.36477
-4.36477
-4.36477
-4.36477
-4.36477
-4.36477
-4.36477
-4.36477
-4.36477
-4.36478
-4.36478
-4.36478
-4.36478
-4.36478
-4.36478
-4.36478
-4.36478
-4.36478
-4.36478
-4.36478
-4.36478
-4.36478
-4.36478
-4.36477
-4.36477
-4.36477
-4.36477
-4.36476
-4.36477
-4.36477
-4.36478
-4.36478
-4.36477
-4.36478
-4.50983
-4.50983
-4.50982
-4.50982
-4.50982
-4.50982
-4.50982
-4.50982
-4.50983
-4.50983
-4.50984
-4.50984
-4.50984
-4.50985
-4.50985
-4.50985
-4.50985
-4.50986
-4.50986
-4.50987
-4.50987
-4.50988
-4.50988
-4.50988
-4.50989
-4.50989
-4.50989
-4.50989
-4.50988
-4.50988
-4.50986
-4.50986
-4.50986
-4.50986
-4.50986
-4.65486
-4.65487
-4.65487
-4.65487
-4.65487
-4.65487
-4.65487
-4.65487
-4.65487
-4.65487
-4.65487
-4.65487
-4.65487
-4.65487
-4.65487
-4.65487
-4.65487
-4.65487
-4.65487
-4.65488
-4.65488
-4.65489
-4.65489
-4.6549
-4.6549
-4.6549
-4.6549
-4.6549
-4.65491
-4.65491
-4.65492
-4.65491
-4.65492
-4.65492
-4.65493
-4.79986
-4.79987
-4.79987
-4.79987
-4.79987
-4.79988
-4.79988
-4.79988
-4.79988
-4.79989
-4.79989
-4.79989
-4.79988
-4.79988
-4.79988
-4.79988
-4.79989
-4.79989
-4.79989
-4.79989
-4.79989
-4.79989
-4.79989
-4.79989
-4.79989
-4.79989
-4.79989
-4.7999
-4.79991
-4.79991
-4.79992
-4.79991
-4.79991
-4.7999
-4.79991
-4.9449
-4.9449
-4.9449
-4.94489
-4.94489
-4.94489
-4.94489
-4.9449
-4.9449
-4.9449
-4.94491
-4.94491
-4.94491
-4.94492
-4.94492
-4.94493
-4.94493
-4.94494
-4.94494
-4.94495
-4.94495
-4.94495
-4.94496
-4.94496
-4.94496
-4.94496
-4.94496
-4.94496
-4.94495
-4.94494
-4.94493
-4.94493
-4.94493
-4.94492
-4.94492
-5.08995
-5.08995
-5.08995
-5.08995
-5.08995
-5.08995
-5.08995
-5.08995
-5.08995
-5.08995
-5.08995
-5.08994
-5.08994
-5.08995
-5.08995
-5.08995
-5.08995
-5.08995
-5.08996
-5.08996
-5.08997
-5.08998
-5.08998
-5.08998
-5.08998
-5.08998
-5.08999
-5.08999
-5.08999
-5.09
-5.09001
-5.09003
-5.09003
-5.09003
-5.09004
-5.23494
-5.23494
-5.23494
-5.23494
-5.23495
-5.23496
-5.23496
-5.23496
-5.23496
-5.23497
-5.23497
-5.23497
-5.23497
-5.23497
-5.23497
-5.23497
-5.23497
-5.23497
-5.23498
-5.23498
-5.23499
-5.23499
-5.23499
-5.23499
-5.23499
-5.23499
-5.235
-5.235
-5.23502
-5.23502
-5.23502
-5.23501
-5.23501
-5.23501
-5.23502
-5.37994
-5.37995
-5.37995
-5.37994
-5.37994
-5.37994
-5.37994
-5.37995
-5.37995
-5.37995
-5.37996
-5.37996
-5.37996
-5.37997
-5.37997
-5.37997
-5.37998
-5.37998
-5.37999
-5.37999
-5.38
-5.38
-5.38001
-5.38001
-5.38001
-5.38001
-5.38002
-5.38002
-5.38001
-5.38
-5.38
-5.37999
-5.37998
-5.37997
-5.37997
-5.52497
-5.52497
-5.52497
-5.52497
-5.52497
-5.52496
-5.52496
-5.52496
-5.52496
-5.52496
-5.52496
-5.52496
-5.52496
-5.52497
-5.52497
-5.52497
-5.52497
-5.52497
-5.52498
-5.52498
-5.52499
-5.52499
-5.52499
-5.52499
-5.52499
-5.52499
-5.52499
-5.52498
-5.52498
-5.52498
-5.52498
-5.525
-5.52501
-5.52501
-5.52503
-5.66998
-5.66998
-5.66999
-5.66998
-5.66998
-5.66999
-5.66999
-5.66999
-5.66999
-5.66999
-5.66999
-5.67
-5.67
-5.67
-5.67
-5.67
-5.67
-5.67
-5.67
-5.67
-5.67001
-5.67001
-5.67001
-5.67001
-5.67001
-5.67001
-5.67001
-5.67002
-5.67003
-5.67003
-5.67002
-5.67
-5.67
-5.66999
-5.67001
-5.81501
-5.81501
-5.815
-5.815
-5.815
-5.815
-5.815
-5.815
-5.815
-5.815
-5.815
-5.815
-5.815
-5.815
-5.815
-5.815
-5.81501
-5.81501
-5.81501
-5.81501
-5.81502
-5.81502
-5.81503
-5.81503
-5.81503
-5.81503
-5.81503
-5.81503
-5.81502
-5.81502
-5.81502
-5.81501
-5.815
-5.81499
-5.815
-5.95999
-5.95999
-5.95999
-5.95999
-5.95999
-5.95999
-5.95998
-5.95998
-5.95998
-5.95999
-5.95999
-5.95999
-5.95999
-5.95999
-5.95999
-5.96
-5.96
-5.96
-5.96001
-5.96001
-5.96001
-5.96001
-5.96002
-5.96002
-5.96002
-5.96002
-5.96002
-5.96002
-5.96002
-5.96002
-5.96003
-5.96004
-5.96003
-5.96002
-5.96003
-6.10496
-6.10497
-6.10496
-6.10496
-6.10496
-6.10497
-6.10497
-6.10497
-6.10498
-6.10498
-6.10499
-6.10499
-6.10499
-6.10499
-6.105
-6.105
-6.105
-6.105
-6.105
-6.10501
-6.10501
-6.10501
-6.10502
-6.10502
-6.10502
-6.10502
-6.10502
-6.10503
-6.10504
-6.10504
-6.10504
-6.10504
-6.10504
-6.10503
-6.10503
-6.24996
-6.24996
-6.24996
-6.24996
-6.24996
-6.24996
-6.24997
-6.24998
-6.24998
-6.24997
-6.24997
-6.24997
-6.24997
-6.24997
-6.24997
-6.24996
-6.24996
-6.24996
-6.24996
-6.24996
-6.24996
-6.24996
-6.24996
-6.24996
-6.24995
-6.24995
-6.24995
-6.24995
-6.24995
-6.24995
-6.24995
-6.24995
-6.24993
-6.24994
-6.24996
-6.39496
-6.39497
-6.39497
-6.39497
-6.39497
-6.39497
-6.39497
-6.39497
-6.39497
-6.39497
-6.39497
-6.39497
-6.39497
-6.39497
-6.39497
-6.39497
-6.39497
-6.39497
-6.39497
-6.39497
-6.39497
-6.39497
-6.39497
-6.39497
-6.39496
-6.39496
-6.39496
-6.39496
-6.39496
-6.39495
-6.39495
-6.39496
-6.39496
-6.39494
-6.39495
-6.53996
-6.53997
-6.53997
-6.53997
-6.53997
-6.53997
-6.53996
-6.53996
-6.53996
-6.53996
-6.53997
-6.53997
-6.53997
-6.53997
-6.53997
-6.53997
-6.53998
-6.53998
-6.53998
-6.53998
-6.53998
-6.53998
-6.53998
-6.53998
-6.53998
-6.53998
-6.53998
-6.53998
-6.53997
-6.53997
-6.53997
-6.53997
-6.53998
-6.53998
-6.53999
-6.68495
-6.68495
-6.68495
-6.68495
-6.68495
-6.68495
-6.68495
-6.68496
-6.68496
-6.68496
-6.68496
-6.68496
-6.68496
-6.68495
-6.68495
-6.68495
-6.68495
-6.68495
-6.68495
-6.68495
-6.68495
-6.68495
-6.68495
-6.68495
-6.68495
-6.68495
-6.68495
-6.68495
-6.68495
-6.68495
-6.68495
-6.68495
-6.68495
-6.68496
-6.68498
-6.82995
-6.82995
-6.82995
-6.82995
-6.82995
-6.82995
-6.82995
-6.82995
-6.82996
-6.82996
-6.82997
-6.82997
-6.82997
-6.82997
-6.82998
-6.82998
-6.82998
-6.82998
-6.82999
-6.82999
-6.82999
-6.82999
-6.82999
-6.82999
-6.82999
-6.82999
-6.83
-6.83
-6.83
-6.83
-6.82999
-6.82998
-6.82998
-6.82995
-6.82996
-6.97497
-6.97498
-6.97497
-6.97498
-6.97497
-6.97497
-6.97497
-6.97497
-6.97497
-6.97497
-6.97497
-6.97497
-6.97498
-6.97498
-6.97498
-6.97498
-6.97499
-6.97499
-6.97499
-6.97499
-6.975
-6.975
-6.975
-6.97501
-6.97501
-6.975
-6.975
-6.975
-6.97501
-6.97501
-6.97502
-6.975
-6.975
-6.97498
-6.97499
-7.11999
-7.11999
-7.11999
-7.11999
-7.11999
-7.12
-7.12
-7.12
-7.11999
-7.11999
-7.11999
-7.11999
-7.11999
-7.11999
-7.11999
-7.11999
-7.11999
-7.11999
-7.11999
-7.11999
-7.11999
-7.11999
-7.11999
-7.11999
-7.11999
-7.11999
-7.11999
-7.12
-7.12001
-7.12002
-7.12003
-7.12004
-7.12004
-7.12003
-7.12003
-7.265
-7.26501
-7.26501
-7.26501
-7.26501
-7.26501
-7.26501
-7.26501
-7.26501
-7.26502
-7.26502
-7.26503
-7.26503
-7.26503
-7.26503
-7.26503
-7.26503
-7.26503
-7.26504
-7.26504
-7.26504
-7.26504
-7.26504
-7.26504
-7.26504
-7.26504
-7.26504
-7.26505
-7.26504
-7.26504
-7.26503
-7.26503
-7.26502
-7.26502
-7.26504
-7.41002
-7.41002
-7.41002
-7.41002
-7.41002
-7.41002
-7.41002
-7.41003
-7.41003
-7.41003
-7.41003
-7.41003
-7.41003
-7.41003
-7.41003
-7.41004
-7.41004
-7.41004
-7.41004
-7.41005
-7.41005
-7.41006
-7.41006
-7.41006
-7.41006
-7.41006
-7.41005
-7.41005
-7.41004
-7.41003
-7.41003
-7.41003
-7.41003
-7.41
-7.41
-7.55504
-7.55504
-7.55504
-7.55504
-7.55505
-7.55505
-7.55505
-7.55505
-7.55505
-7.55504
-7.55504
-7.55504
-7.55504
-7.55504
-7.55504
-7.55505
-7.55505
-7.55505
-7.55506
-7.55506
-7.55506
-7.55507
-7.55507
-7.55507
-7.55507
-7.55507
-7.55507
-7.55508
-7.55509
-7.55511
-7.55511
-7.55511
-7.55511
-7.55512
-7.55512
-7.70006
-7.70007
-7.70007
-7.70007
-7.70006
-7.70006
-7.70005
-7.70005
-7.70005
-7.70006
-7.70006
-7.70007
-7.70007
-7.70007
-7.70007
-7.70008
-7.70008
-7.70008
-7.70009
-7.70009
-7.7001
-7.7001
-7.70011
-7.70011
-7.70011
-7.70011
-7.70011
-7.70012
-7.70012
-7.70011
-7.70011
-7.7001
-7.7001
-7.7001
-7.70011
-7.84505
-7.84506
-7.84505
-7.84504
-7.84504
-7.84505
-7.84505
-7.84506
-7.84506
-7.84507
-7.84507
-7.84507
-7.84507
-7.84507
-7.84507
-7.84507
-7.84507
-7.84508
-7.84508
-7.84508
-7.84508
-7.84509
-7.84509
-7.84509
-7.84509
-7.84509
-7.84509
-7.84508
-7.84508
-7.84508
-7.84508
-7.84508
-7.84508
-7.84506
-7.84507
-7.99008
-7.99008
-7.99008
-7.99008
-7.99009
-7.99009
-7.99009
-7.99009
-7.99008
-7.99008
-7.99008
-7.99008
-7.99008
-7.99008
-7.99008
-7.99008
-7.99008
-7.99008
-7.99008
-7.99008
-7.99008
-7.99008
-7.99007
-7.99007
-7.99007
-7.99007
-7.99007
-7.99007
-7.99007
-7.99009
-7.9901
-7.9901
-7.99011
-7.99012
-7.99014
-8.13512
-8.13513
-8.13513
-8.13513
-8.13513
-8.13512
-8.13511
-8.13511
-8.13511
-8.13511
-8.13511
-8.13511
-8.13511
-8.13511
-8.13511
-8.13511
-8.13511
-8.1351
-8.1351
-8.1351
-8.1351
-8.13509
-8.13509
-8.13509
-8.13509
-8.13509
-8.13509
-8.13509
-8.13509
-8.13508
-8.13508
-8.13508
-8.13507
-8.13505
-8.13507
-8.28011
-8.28012
-8.28011
-8.28011
-8.28011
-8.28011
-8.28012
-8.28012
-8.28013
-8.28013
-8.28013
-8.28013
-8.28012
-8.28012
-8.28012
-8.28011
-8.28011
-8.28011
-8.2801
-8.2801
-8.2801
-8.28009
-8.28009
-8.28008
-8.28008
-8.28007
-8.28007
-8.28007
-8.28006
-8.28006
-8.28006
-8.28005
-8.28005
-8.28003
-8.28004
-8.42515
-8.42515
-8.42515
-8.42516
-8.42516
-8.42517
-8.42517
-8.42517
-8.42517
-8.42517
-8.42517
-8.42517
-8.42517
-8.42517
-8.42517
-8.42517
-8.42517
-8.42518
-8.42518
-8.42518
-8.42519
-8.42519
-8.4252
-8.4252
-8.42519
-8.42519
-8.4252
-8.4252
-8.4252
-8.42521
-8.42522
-8.42523
-8.42521
-8.42519
-8.42519
-8.57018
-8.57019
-8.57019
-8.57019
-8.57018
-8.57017
-8.57017
-8.57017
-8.57018
-8.57018
-8.57019
-8.57019
-8.5702
-8.5702
-8.57021
-8.57021
-8.57022
-8.57023
-8.57023
-8.57024
-8.57025
-8.57026
-8.57027
-8.57027
-8.57027
-8.57028
-8.57028
-8.57029
-8.57029
-8.57028
-8.57027
-8.57027
-8.57027
-8.57028
-8.57031
-8.7152
-8.71521
-8.7152
-8.71521
-8.71521
-8.71521
-8.71521
-8.71522
-8.71522
-8.71523
-8.71523
-8.71523
-8.71523
-8.71523
-8.71523
-8.71524
-8.71524
-8.71525
-8.71525
-8.71526
-8.71527
-8.71527
-8.71528
-8.71528
-8.71528
-8.71528
-8.71529
-8.71529
-8.7153
-8.7153
-8.71529
-8.71526
-8.71525
-8.71524
-8.71526
-8.86024
-8.86025
-8.86025
-8.86025
-8.86026
-8.86026
-8.86026
-8.86026
-8.86025
-8.86025
-8.86025
-8.86026
-8.86026
-8.86026
-8.86026
-8.86027
-8.86027
-8.86028
-8.86029
-8.86029
-8.8603
-8.86031
-8.86031
-8.86031
-8.86031
-8.86031
-8.86031
-8.86031
-8.86031
-8.86032
-8.86032
-8.86032
-8.86032
-8.8603
-8.86031
-9.00527
-9.00527
-9.00526
-9.00526
-9.00525
-9.00526
-9.00526
-9.00526
-9.00527
-9.00527
-9.00527
-9.00527
-9.00528
-9.00528
-9.00529
-9.00529
-9.0053
-9.0053
-9.00531
-9.00532
-9.00532
-9.00533
-9.00533
-9.00534
-9.00534
-9.00533
-9.00533
-9.00533
-9.00532
-9.00532
-9.00532
-9.00533
-9.00534
-9.00534
-9.00534
-9.15029
-9.1503
-9.1503
-9.1503
-9.1503
-9.15031
-9.1503
-9.15031
-9.15031
-9.15032
-9.15032
-9.15032
-9.15032
-9.15032
-9.15032
-9.15032
-9.15032
-9.15032
-9.15032
-9.15032
-9.15032
-9.15033
-9.15033
-9.15033
-9.15032
-9.15032
-9.15032
-9.15033
-9.15034
-9.15035
-9.15035
-9.15034
-9.15033
-9.15033
-9.15035
-9.29531
-9.29532
-9.29531
-9.29532
-9.29532
-9.29532
-9.29532
-9.29532
-9.29532
-9.29531
-9.29531
-9.29532
-9.29532
-9.29532
-9.29532
-9.29532
-9.29532
-9.29532
-9.29532
-9.29532
-9.29532
-9.29532
-9.29532
-9.29532
-9.29532
-9.29531
-9.29532
-9.29532
-9.29533
-9.29534
-9.29535
-9.29536
-9.29536
-9.29532
-9.29534
-9.44033
-9.44033
-9.44033
-9.44034
-9.44033
-9.44033
-9.44034
-9.44034
-9.44034
-9.44034
-9.44034
-9.44034
-9.44035
-9.44035
-9.44035
-9.44035
-9.44035
-9.44036
-9.44036
-9.44036
-9.44036
-9.44037
-9.44037
-9.44037
-9.44036
-9.44036
-9.44037
-9.44037
-9.44036
-9.44035
-9.44034
-9.44034
-9.44036
-9.44037
-9.44039
-9.58539
-9.58541
-9.58541
-9.5854
-9.5854
-9.5854
-9.5854
-9.58539
-9.5854
-9.5854
-9.5854
-9.5854
-9.5854
-9.5854
-9.5854
-9.5854
-9.5854
-9.5854
-9.58541
-9.58541
-9.58541
-9.58541
-9.58541
-9.58541
-9.58541
-9.58541
-9.58541
-9.58541
-9.58542
-9.58541
-9.58541
-9.5854
-9.58539
-9.58538
-9.58539
-9.73039
-9.7304
-9.73039
-9.7304
-9.7304
-9.7304
-9.73041
-9.73042
-9.73042
-9.73042
-9.73043
-9.73043
-9.73043
-9.73043
-9.73043
-9.73043
-9.73043
-9.73044
-9.73044
-9.73044
-9.73044
-9.73044
-9.73044
-9.73044
-9.73044
-9.73044
-9.73044
-9.73044
-9.73046
-9.73047
-9.73048
-9.73046
-9.73045
-9.73043
-9.73045
-9.87545
-9.87546
-9.87546
-9.87546
-9.87546
-9.87546
-9.87546
-9.87546
-9.87547
-9.87547
-9.87547
-9.87548
-9.87548
-9.87548
-9.87548
-9.87548
-9.87549
-9.87549
-9.87549
-9.8755
-9.8755
-9.87551
-9.87551
-9.87551
-9.87551
-9.8755
-9.87551
-9.87551
-9.87551
-9.8755
-9.87551
-9.87551
-9.87552
-9.87551
-9.8755
-10.0206
-10.0206
-10.0206
-10.0206
-10.0206
-10.0206
-10.0206
-10.0205
-10.0205
-10.0205
-10.0205
-10.0205
-10.0205
-10.0205
-10.0205
-10.0205
-10.0205
-10.0206
-10.0206
-10.0206
-10.0206
-10.0206
-10.0206
-10.0206
-10.0206
-10.0206
-10.0206
-10.0206
-10.0206
-10.0206
-10.0206
-10.0206
-10.0206
-10.0206
-10.0206
-10.1655
-10.1656
-10.1656
-10.1656
-10.1656
-10.1656
-10.1656
-10.1656
-10.1656
-10.1656
-10.1656
-10.1656
-10.1656
-10.1656
-10.1656
-10.1656
-10.1656
-10.1656
-10.1656
-10.1656
-10.1656
-10.1656
-10.1656
-10.1656
-10.1656
-10.1656
-10.1656
-10.1656
-10.1656
-10.1656
-10.1656
-10.1656
-10.1656
-10.1656
-10.1656
-10.3106
-10.3106
-10.3106
-10.3106
-10.3106
-10.3106
-10.3106
-10.3106
-10.3106
-10.3106
-10.3106
-10.3106
-10.3106
-10.3106
-10.3106
-10.3107
-10.3107
-10.3107
-10.3107
-10.3107
-10.3107
-10.3107
-10.3107
-10.3107
-10.3107
-10.3107
-10.3107
-10.3107
-10.3107
-10.3107
-10.3107
-10.3107
-10.3107
-10.3107
-10.3107
-10.4557
-10.4557
-10.4557
-10.4557
-10.4557
-10.4557
-10.4557
-10.4557
-10.4557
-10.4557
-10.4557
-10.4557
-10.4557
-10.4557
-10.4557
-10.4557
-10.4557
-10.4557
-10.4557
-10.4557
-10.4557
-10.4558
-10.4558
-10.4558
-10.4558
-10.4558
-10.4558
-10.4558
-10.4557
-10.4557
-10.4557
-10.4557
-10.4557
-10.4557
-10.4558
-10.6007
-10.6007
-10.6007
-10.6007
-10.6007
-10.6008
-10.6008
-10.6008
-10.6008
-10.6008
-10.6008
-10.6008
-10.6008
-10.6008
-10.6008
-10.6008
-10.6008
-10.6008
-10.6008
-10.6008
-10.6008
-10.6008
-10.6008
-10.6008
-10.6008
-10.6008
-10.6008
-10.6008
-10.6008
-10.6008
-10.6008
-10.6008
-10.6008
-10.6008
-10.6008
-10.7458
-10.7458
-10.7458
-10.7458
-10.7458
-10.7458
-10.7458
-10.7458
-10.7458
-10.7458
-10.7458
-10.7458
-10.7458
-10.7458
-10.7458
-10.7458
-10.7458
-10.7458
-10.7458
-10.7458
-10.7459
-10.7459
-10.7459
-10.7459
-10.7459
-10.7459
-10.7459
-10.7459
-10.7459
-10.7459
-10.7459
-10.7459
-10.7459
-10.7459
-10.7459
-10.8909
-10.8909
-10.8909
-10.8909
-10.8909
-10.8909
-10.8909
-10.8909
-10.8909
-10.8909
-10.8909
-10.8909
-10.8909
-10.8909
-10.8909
-10.8909
-10.8909
-10.8909
-10.8909
-10.8909
-10.8909
-10.8909
-10.8909
-10.8909
-10.8909
-10.8909
-10.8909
-10.8909
-10.8909
-10.8909
-10.8909
-10.8909
-10.8909
-10.8909
-10.8909
-11.0359
-11.036
-11.0359
-11.0359
-11.0359
-11.036
-11.036
-11.036
-11.036
-11.036
-11.036
-11.036
-11.036
-11.036
-11.036
-11.036
-11.036
-11.036
-11.036
-11.036
-11.036
-11.036
-11.036
-11.036
-11.036
-11.036
-11.036
-11.036
-11.036
-11.036
-11.036
-11.036
-11.036
-11.0359
-11.036
-11.181
-11.181
-11.181
-11.181
-11.181
-11.181
-11.181
-11.181
-11.181
-11.181
-11.181
-11.181
-11.181
-11.181
-11.181
-11.181
-11.181
-11.181
-11.181
-11.181
-11.181
-11.1811
-11.1811
-11.1811
-11.1811
-11.1811
-11.1811
-11.1811
-11.1811
-11.1811
-11.1811
-11.1811
-11.181
-11.181
-11.1811
-11.3261
-11.3261
-11.3261
-11.3261
-11.3261
-11.3261
-11.3261
-11.3261
-11.3261
-11.3261
-11.3261
-11.3261
-11.3261
-11.3261
-11.3261
-11.3261
-11.3261
-11.3261
-11.3261
-11.3261
-11.3261
-11.3261
-11.3261
-11.3261
-11.3261
-11.3261
-11.3261
-11.3261
-11.3261
-11.3261
-11.3261
-11.3261
-11.3261
-11.3261
-11.3261
-11.4711
-11.4711
-11.4711
-11.4711
-11.4711
-11.4711
-11.4711
-11.4712
-11.4712
-11.4712
-11.4712
-11.4712
-11.4712
-11.4712
-11.4712
-11.4712
-11.4712
-11.4712
-11.4712
-11.4712
-11.4712
-11.4712
-11.4712
-11.4712
-11.4712
-11.4712
-11.4712
-11.4712
-11.4712
-11.4712
-11.4712
-11.4712
-11.4712
-11.4712
-11.4712
-11.6162
-11.6162
-11.6162
-11.6162
-11.6162
-11.6162
-11.6162
-11.6162
-11.6162
-11.6162
-11.6162
-11.6162
-11.6162
-11.6162
-11.6162
-11.6162
-11.6162
-11.6163
-11.6163
-11.6163
-11.6163
-11.6163
-11.6163
-11.6163
-11.6163
-11.6163
-11.6163
-11.6163
-11.6163
-11.6163
-11.6163
-11.6163
-11.6163
-11.6162
-11.6163
-11.7614
-11.7614
-11.7614
-11.7613
-11.7613
-11.7613
-11.7613
-11.7613
-11.7613
-11.7613
-11.7613
-11.7613
-11.7613
-11.7613
-11.7613
-11.7614
-11.7614
-11.7614
-11.7614
-11.7614
-11.7614
-11.7614
-11.7614
-11.7614
-11.7614
-11.7614
-11.7614
-11.7614
-11.7614
-11.7614
-11.7614
-11.7614
-11.7614
-11.7613
-11.7614
-11.9064
-11.9064
-11.9064
-11.9064
-11.9064
-11.9064
-11.9064
-11.9064
-11.9064
-11.9064
-11.9064
-11.9064
-11.9064
-11.9064
-11.9064
-11.9064
-11.9064
-11.9065
-11.9065
-11.9065
-11.9065
-11.9065
-11.9065
-11.9065
-11.9065
-11.9065
-11.9065
-11.9065
-11.9065
-11.9065
-11.9065
-11.9065
-11.9065
-11.9065
-11.9065
-12.0515
-12.0515
-12.0515
-12.0515
-12.0515
-12.0515
-12.0515
-12.0515
-12.0515
-12.0515
-12.0515
-12.0515
-12.0515
-12.0515
-12.0515
-12.0515
-12.0515
-12.0515
-12.0515
-12.0515
-12.0515
-12.0515
-12.0515
-12.0515
-12.0515
-12.0515
-12.0515
-12.0515
-12.0515
-12.0515
-12.0515
-12.0515
-12.0515
-12.0515
-12.0516
-12.1966
-12.1966
-12.1966
-12.1966
-12.1966
-12.1966
-12.1966
-12.1966
-12.1966
-12.1966
-12.1966
-12.1966
-12.1966
-12.1966
-12.1966
-12.1966
-12.1966
-12.1966
-12.1966
-12.1967
-12.1967
-12.1967
-12.1967
-12.1967
-12.1967
-12.1967
-12.1967
-12.1967
-12.1967
-12.1967
-12.1967
-12.1967
-12.1967
-12.1966
-12.1966
-12.3417
-12.3417
-12.3417
-12.3417
-12.3417
-12.3417
-12.3417
-12.3417
-12.3417
-12.3417
-12.3417
-12.3417
-12.3417
-12.3417
-12.3417
-12.3417
-12.3417
-12.3417
-12.3417
-12.3417
-12.3417
-12.3417
-12.3417
-12.3417
-12.3417
-12.3417
-12.3417
-12.3417
-12.3417
-12.3418
-12.3418
-12.3418
-12.3418
-12.3418
-12.3418
-12.4868
-12.4868
-12.4868
-12.4868
-12.4868
-12.4868
-12.4868
-12.4868
-12.4868
-12.4868
-12.4868
-12.4868
-12.4868
-12.4868
-12.4868
-12.4868
-12.4868
-12.4868
-12.4868
-12.4868
-12.4868
-12.4868
-12.4868
-12.4868
-12.4868
-12.4868
-12.4868
-12.4868
-12.4868
-12.4868
-12.4868
-12.4868
-12.4868
-12.4868
-12.4868
-12.6319
-12.6319
-12.6319
-12.6319
-12.6319
-12.6319
-12.6319
-12.6319
-12.6319
-12.6319
-12.6319
-12.6319
-12.6319
-12.6319
-12.6319
-12.6319
-12.6319
-12.6319
-12.6319
-12.6319
-12.6319
-12.6319
-12.6319
-12.6319
-12.6319
-12.6319
-12.6319
-12.6319
-12.6319
-12.6319
-12.6319
-12.6319
-12.6319
-12.6319
-12.6319
-12.777
-12.777
-12.777
-12.777
-12.777
-12.777
-12.777
-12.777
-12.777
-12.777
-12.777
-12.777
-12.777
-12.777
-12.777
-12.777
-12.777
-12.777
-12.777
-12.777
-12.777
-12.777
-12.777
-12.777
-12.777
-12.777
-12.777
-12.777
-12.777
-12.777
-12.777
-12.777
-12.777
-12.777
-12.777
-12.9221
-12.9221
-12.9221
-12.9221
-12.9221
-12.9221
-12.9221
-12.9221
-12.9221
-12.9221
-12.9221
-12.9221
-12.9221
-12.9221
-12.9221
-12.9221
-12.9221
-12.9221
-12.9221
-12.9221
-12.9221
-12.9221
-12.9221
-12.9221
-12.9221
-12.9221
-12.9221
-12.9221
-12.9221
-12.9221
-12.9222
-12.9221
-12.9221
-12.9221
-12.9222
-13.0672
-13.0672
-13.0672
-13.0672
-13.0672
-13.0672
-13.0672
-13.0672
-13.0672
-13.0672
-13.0672
-13.0672
-13.0672
-13.0672
-13.0672
-13.0672
-13.0672
-13.0672
-13.0672
-13.0673
-13.0673
-13.0673
-13.0673
-13.0673
-13.0673
-13.0673
-13.0673
-13.0673
-13.0673
-13.0673
-13.0673
-13.0673
-13.0673
-13.0673
-13.0673
-13.2123
-13.2123
-13.2123
-13.2123
-13.2123
-13.2123
-13.2123
-13.2123
-13.2123
-13.2123
-13.2123
-13.2123
-13.2123
-13.2123
-13.2124
-13.2124
-13.2124
-13.2124
-13.2124
-13.2124
-13.2124
-13.2124
-13.2124
-13.2124
-13.2124
-13.2124
-13.2124
-13.2124
-13.2124
-13.2124
-13.2124
-13.2124
-13.2124
-13.2124
-13.2124
-13.3574
-13.3574
-13.3574
-13.3575
-13.3575
-13.3575
-13.3575
-13.3575
-13.3575
-13.3575
-13.3575
-13.3575
-13.3575
-13.3575
-13.3575
-13.3575
-13.3575
-13.3575
-13.3575
-13.3575
-13.3575
-13.3575
-13.3575
-13.3575
-13.3575
-13.3575
-13.3575
-13.3575
-13.3575
-13.3575
-13.3575
-13.3575
-13.3575
-13.3575
-13.3575
-13.5026
-13.5026
-13.5026
-13.5026
-13.5026
-13.5026
-13.5026
-13.5026
-13.5026
-13.5026
-13.5026
-13.5026
-13.5026
-13.5026
-13.5026
-13.5026
-13.5026