/*--------------------------------*- C++ -*----------------------------------*\
  =========                 |
  \\      /  F ield         | OpenFOAM: The Open Source CFD Toolbox
   \\    /   O peration     | Website:  https://openfoam.org
    \\  /    A nd           | Version:  13
     \\/     M anipulation  |
\*---------------------------------------------------------------------------*/
FoamFile
{
    format      ascii;
    class       volScalarField;
    location    "60";
    object      nut;
}
// * * * * * * * * * * * * * * * * * * * * * * * * * * * * * * * * * * * * * //

dimensions      [0 2 -1 0 0 0 0];

internalField   nonuniform List<scalar> 
315000
(
8.71699e-14
2.28158e-11
5.20201e-10
9.32104e-10
1.34831e-09
1.7689e-09
2.19425e-09
2.62464e-09
3.06011e-09
3.50038e-09
3.9448e-09
4.39243e-09
4.84202e-09
5.29208e-09
5.74092e-09
6.18666e-09
6.62735e-09
7.06092e-09
7.48527e-09
7.89827e-09
8.29779e-09
8.68173e-09
9.04803e-09
9.3947e-09
9.71984e-09
1.00216e-08
1.02984e-08
1.05486e-08
1.07707e-08
1.09636e-08
1.11261e-08
1.12573e-08
1.13564e-08
1.14229e-08
1.14563e-08
1.14566e-08
1.14236e-08
1.13576e-08
1.1259e-08
1.11283e-08
1.09662e-08
1.07738e-08
1.05521e-08
1.03024e-08
1.00261e-08
9.72468e-09
9.39994e-09
9.05365e-09
8.68771e-09
8.30411e-09
7.9049e-09
7.49218e-09
7.06807e-09
6.6347e-09
6.19418e-09
5.74855e-09
5.29978e-09
4.84973e-09
4.4001e-09
3.95236e-09
3.50777e-09
3.06727e-09
2.63148e-09
2.20068e-09
1.7748e-09
1.35352e-09
9.36386e-10
5.23144e-10
2.29793e-11
8.78716e-14
2.18295e-12
5.80978e-10
1.31627e-07
2.36543e-07
3.41242e-07
4.46025e-07
5.51114e-07
6.56638e-07
7.62625e-07
8.69008e-07
9.7563e-07
1.08226e-06
1.18859e-06
1.29428e-06
1.39895e-06
1.50218e-06
1.60354e-06
1.70261e-06
1.79895e-06
1.89213e-06
1.98174e-06
2.06736e-06
2.14861e-06
2.22512e-06
2.29653e-06
2.36253e-06
2.42282e-06
2.47711e-06
2.52517e-06
2.56677e-06
2.60174e-06
2.62991e-06
2.65115e-06
2.66538e-06
2.67253e-06
2.67257e-06
2.6655e-06
2.65134e-06
2.63017e-06
2.60208e-06
2.56719e-06
2.52566e-06
2.47767e-06
2.42345e-06
2.36324e-06
2.29731e-06
2.22596e-06
2.14952e-06
2.06833e-06
1.98276e-06
1.89321e-06
1.80008e-06
1.70379e-06
1.60475e-06
1.50342e-06
1.40021e-06
1.29556e-06
1.18987e-06
1.08353e-06
9.7688e-07
8.70224e-07
7.63791e-07
6.57736e-07
5.52125e-07
4.46926e-07
3.42004e-07
2.37131e-07
1.31995e-07
5.82798e-10
2.19012e-12
8.85122e-12
2.35923e-09
1.31137e-06
2.27588e-06
3.19102e-06
4.06939e-06
4.91949e-06
5.74691e-06
6.5551e-06
7.34595e-06
8.12018e-06
8.87769e-06
9.61778e-06
1.03394e-05
1.10412e-05
1.17218e-05
1.23796e-05
1.30131e-05
1.36208e-05
1.42012e-05
1.47529e-05
1.52744e-05
1.57644e-05
1.62218e-05
1.66453e-05
1.70338e-05
1.73863e-05
1.7702e-05
1.798e-05
1.82196e-05
1.84203e-05
1.85814e-05
1.87027e-05
1.87837e-05
1.88244e-05
1.88245e-05
1.87841e-05
1.87034e-05
1.85824e-05
1.84216e-05
1.82212e-05
1.79819e-05
1.77042e-05
1.73888e-05
1.70365e-05
1.66483e-05
1.62251e-05
1.57681e-05
1.52783e-05
1.47571e-05
1.42057e-05
1.36255e-05
1.30181e-05
1.23848e-05
1.17272e-05
1.10467e-05
1.03451e-05
9.62353e-06
8.88348e-06
8.12596e-06
7.35165e-06
6.56065e-06
5.75223e-06
4.92447e-06
4.07391e-06
3.19491e-06
2.27895e-06
1.31336e-06
2.36326e-09
8.86686e-12
1.52847e-11
4.07531e-09
2.20308e-06
3.73823e-06
5.15657e-06
6.49182e-06
7.76501e-06
8.98946e-06
1.01735e-05
1.1322e-05
1.24377e-05
1.35216e-05
1.4574e-05
1.55942e-05
1.65813e-05
1.75342e-05
1.84516e-05
1.9332e-05
2.0174e-05
2.09761e-05
2.17369e-05
2.24548e-05
2.31284e-05
2.37562e-05
2.43369e-05
2.48692e-05
2.53517e-05
2.57834e-05
2.61634e-05
2.64907e-05
2.67646e-05
2.69845e-05
2.71498e-05
2.72603e-05
2.73156e-05
2.73158e-05
2.72606e-05
2.71504e-05
2.69852e-05
2.67656e-05
2.64919e-05
2.61649e-05
2.57852e-05
2.53537e-05
2.48714e-05
2.43394e-05
2.37589e-05
2.31313e-05
2.2458e-05
2.17403e-05
2.09798e-05
2.01779e-05
1.93361e-05
1.84559e-05
1.75388e-05
1.6586e-05
1.5599e-05
1.45789e-05
1.35266e-05
1.24427e-05
1.13269e-05
1.01783e-05
8.99412e-06
7.76939e-06
6.49582e-06
5.16007e-06
3.74104e-06
2.20496e-06
4.07937e-09
1.53005e-11
2.12134e-11
5.6581e-09
2.98819e-06
4.98614e-06
6.80179e-06
8.49277e-06
1.0093e-05
1.16233e-05
1.30963e-05
1.45197e-05
1.5898e-05
1.72335e-05
1.8527e-05
1.97787e-05
2.09882e-05
2.21546e-05
2.3277e-05
2.43542e-05
2.53847e-05
2.63668e-05
2.72988e-05
2.81784e-05
2.90037e-05
2.97729e-05
3.04841e-05
3.11357e-05
3.17262e-05
3.22544e-05
3.2719e-05
3.31191e-05
3.34539e-05
3.37225e-05
3.39245e-05
3.40594e-05
3.4127e-05
3.4127e-05
3.40596e-05
3.39249e-05
3.3723e-05
3.34545e-05
3.312e-05
3.272e-05
3.22555e-05
3.17275e-05
3.11372e-05
3.04858e-05
2.97748e-05
2.90058e-05
2.81806e-05
2.73012e-05
2.63695e-05
2.53875e-05
2.43572e-05
2.32802e-05
2.21579e-05
2.09917e-05
1.97823e-05
1.85307e-05
1.72372e-05
1.59018e-05
1.45235e-05
1.31e-05
1.16268e-05
1.00964e-05
8.49587e-06
6.80451e-06
4.98836e-06
2.98972e-06
5.66161e-09
2.12272e-11
2.61229e-11
6.96997e-09
3.61555e-06
5.96169e-06
8.07175e-06
1.00246e-05
1.18648e-05
1.36191e-05
1.53039e-05
1.69288e-05
1.84999e-05
2.00203e-05
2.14916e-05
2.29146e-05
2.42892e-05
2.5615e-05
2.68913e-05
2.81167e-05
2.92895e-05
3.04074e-05
3.1468e-05
3.24689e-05
3.34079e-05
3.42828e-05
3.50917e-05
3.58328e-05
3.65043e-05
3.7105e-05
3.76333e-05
3.80883e-05
3.84689e-05
3.87744e-05
3.9004e-05
3.91574e-05
3.92342e-05
3.92342e-05
3.91575e-05
3.90042e-05
3.87746e-05
3.84693e-05
3.80888e-05
3.76339e-05
3.71056e-05
3.65051e-05
3.58337e-05
3.50927e-05
3.4284e-05
3.34092e-05
3.24704e-05
3.14696e-05
3.04092e-05
2.92914e-05
2.81188e-05
2.68935e-05
2.56173e-05
2.42916e-05
2.29171e-05
2.14942e-05
2.00229e-05
1.85026e-05
1.69315e-05
1.53065e-05
1.36217e-05
1.18672e-05
1.00268e-05
8.07377e-06
5.96335e-06
3.61671e-06
6.97281e-09
2.61342e-11
2.97625e-11
7.94343e-09
4.06898e-06
6.65668e-06
8.96937e-06
1.11018e-05
1.31065e-05
1.50145e-05
1.68444e-05
1.86077e-05
2.03111e-05
2.19586e-05
2.35525e-05
2.50937e-05
2.65826e-05
2.80191e-05
2.94023e-05
3.07307e-05
3.20021e-05
3.32139e-05
3.43634e-05
3.54482e-05
3.64658e-05
3.7414e-05
3.82906e-05
3.90937e-05
3.98215e-05
4.04724e-05
4.1045e-05
4.15381e-05
4.19506e-05
4.22816e-05
4.25305e-05
4.26967e-05
4.27799e-05
4.278e-05
4.26968e-05
4.25306e-05
4.22818e-05
4.19508e-05
4.15384e-05
4.10453e-05
4.04728e-05
3.9822e-05
3.90943e-05
3.82913e-05
3.74148e-05
3.64667e-05
3.54492e-05
3.43646e-05
3.32151e-05
3.20035e-05
3.07322e-05
2.94039e-05
2.80208e-05
2.65844e-05
2.50956e-05
2.35545e-05
2.19607e-05
2.03132e-05
1.86097e-05
1.68465e-05
1.50165e-05
1.31085e-05
1.11036e-05
8.97094e-06
6.65798e-06
4.06991e-06
7.94579e-09
2.9772e-11
3.21968e-11
8.59516e-09
4.36736e-06
7.10995e-06
9.55209e-06
1.17992e-05
1.39089e-05
1.5915e-05
1.78377e-05
1.96894e-05
2.14776e-05
2.32066e-05
2.48791e-05
2.64962e-05
2.80587e-05
2.95664e-05
3.10185e-05
3.24131e-05
3.37477e-05
3.50197e-05
3.62263e-05
3.73648e-05
3.84328e-05
3.94279e-05
4.03478e-05
4.11906e-05
4.19544e-05
4.26374e-05
4.32383e-05
4.37557e-05
4.41886e-05
4.45359e-05
4.47971e-05
4.49715e-05
4.50588e-05
4.50588e-05
4.49716e-05
4.47972e-05
4.45361e-05
4.41888e-05
4.3756e-05
4.32386e-05
4.26378e-05
4.19548e-05
4.11912e-05
4.03485e-05
3.94286e-05
3.84336e-05
3.73658e-05
3.62273e-05
3.50208e-05
3.3749e-05
3.24144e-05
3.10199e-05
2.9568e-05
2.80603e-05
2.6498e-05
2.48808e-05
2.32084e-05
2.14794e-05
1.96912e-05
1.78395e-05
1.59168e-05
1.39106e-05
1.18008e-05
9.55347e-06
7.1111e-06
4.36818e-06
8.59731e-09
3.22056e-11
3.36797e-11
8.99255e-09
4.54744e-06
7.38213e-06
9.90113e-06
1.22164e-05
1.43886e-05
1.6453e-05
1.8431e-05
2.03355e-05
2.21742e-05
2.3952e-05
2.56715e-05
2.73341e-05
2.89406e-05
3.0491e-05
3.19843e-05
3.34185e-05
3.47909e-05
3.60988e-05
3.73394e-05
3.85099e-05
3.96079e-05
4.06308e-05
4.15764e-05
4.24427e-05
4.32277e-05
4.39297e-05
4.45473e-05
4.5079e-05
4.55238e-05
4.58808e-05
4.61492e-05
4.63284e-05
4.64181e-05
4.64181e-05
4.63285e-05
4.61493e-05
4.5881e-05
4.55241e-05
4.50793e-05
4.45477e-05
4.39302e-05
4.32283e-05
4.24434e-05
4.15772e-05
4.06316e-05
3.96088e-05
3.8511e-05
3.73405e-05
3.61e-05
3.47923e-05
3.34199e-05
3.19858e-05
3.04926e-05
2.89423e-05
2.73359e-05
2.56733e-05
2.39539e-05
2.21761e-05
2.03373e-05
1.84328e-05
1.64548e-05
1.43902e-05
1.22179e-05
9.9025e-06
7.38326e-06
4.54825e-06
8.9947e-09
3.36884e-11
3.45088e-11
9.21498e-09
4.64768e-06
7.53326e-06
1.00948e-05
1.24477e-05
1.46545e-05
1.67514e-05
1.87601e-05
2.06939e-05
2.25609e-05
2.43659e-05
2.61116e-05
2.77997e-05
2.94308e-05
3.10051e-05
3.25214e-05
3.39777e-05
3.53712e-05
3.66991e-05
3.79586e-05
3.91469e-05
4.02615e-05
4.12998e-05
4.22597e-05
4.31389e-05
4.39356e-05
4.4648e-05
4.52747e-05
4.58143e-05
4.62656e-05
4.66278e-05
4.69001e-05
4.70819e-05
4.7173e-05
4.7173e-05
4.70821e-05
4.69003e-05
4.66281e-05
4.6266e-05
4.58147e-05
4.52752e-05
4.46486e-05
4.39363e-05
4.31397e-05
4.22606e-05
4.13008e-05
4.02626e-05
3.91481e-05
3.79599e-05
3.67005e-05
3.53727e-05
3.39793e-05
3.25231e-05
3.10069e-05
2.94327e-05
2.78016e-05
2.61136e-05
2.43679e-05
2.25629e-05
2.06959e-05
1.8762e-05
1.67532e-05
1.46563e-05
1.24493e-05
1.00962e-05
7.53445e-06
4.64853e-06
9.21721e-09
3.45179e-11
3.49368e-11
9.32991e-09
4.69936e-06
7.61111e-06
1.01945e-05
1.25669e-05
1.47915e-05
1.69052e-05
1.89299e-05
2.0879e-05
2.27607e-05
2.45798e-05
2.63393e-05
2.80406e-05
2.96847e-05
3.12715e-05
3.27998e-05
3.42677e-05
3.56722e-05
3.70105e-05
3.82799e-05
3.94775e-05
4.06007e-05
4.16471e-05
4.26143e-05
4.35002e-05
4.43029e-05
4.50207e-05
4.56521e-05
4.61957e-05
4.66503e-05
4.70152e-05
4.72895e-05
4.74727e-05
4.75644e-05
4.75644e-05
4.74728e-05
4.72897e-05
4.70155e-05
4.66508e-05
4.61962e-05
4.56527e-05
4.50214e-05
4.43037e-05
4.35011e-05
4.26153e-05
4.16482e-05
4.0602e-05
3.94789e-05
3.82814e-05
3.70121e-05
3.56739e-05
3.42695e-05
3.28017e-05
3.12734e-05
2.96867e-05
2.80427e-05
2.63414e-05
2.4582e-05
2.27629e-05
2.08811e-05
1.8932e-05
1.69072e-05
1.47934e-05
1.25686e-05
1.0196e-05
7.61236e-06
4.70026e-06
9.33225e-09
3.49463e-11
3.51419e-11
9.38505e-09
4.72415e-06
7.64844e-06
1.02423e-05
1.26241e-05
1.48574e-05
1.69792e-05
1.90116e-05
2.09682e-05
2.2857e-05
2.4683e-05
2.64492e-05
2.8157e-05
2.98074e-05
3.14003e-05
3.29346e-05
3.44081e-05
3.5818e-05
3.71614e-05
3.84356e-05
3.96377e-05
4.07651e-05
4.18154e-05
4.27862e-05
4.36754e-05
4.4481e-05
4.52014e-05
4.5835e-05
4.63805e-05
4.68369e-05
4.7203e-05
4.74783e-05
4.76621e-05
4.77541e-05
4.77542e-05
4.76623e-05
4.74785e-05
4.72034e-05
4.68373e-05
4.63811e-05
4.58357e-05
4.52022e-05
4.44819e-05
4.36764e-05
4.27873e-05
4.18167e-05
4.07665e-05
3.96392e-05
3.84372e-05
3.71632e-05
3.58198e-05
3.441e-05
3.29366e-05
3.14024e-05
2.98095e-05
2.81592e-05
2.64514e-05
2.46853e-05
2.28593e-05
2.09704e-05
1.90138e-05
1.69813e-05
1.48594e-05
1.26259e-05
1.02439e-05
7.64975e-06
4.72508e-06
9.38749e-09
3.51517e-11
3.52336e-11
9.40971e-09
4.73524e-06
7.66515e-06
1.02637e-05
1.26497e-05
1.48869e-05
1.70124e-05
1.90484e-05
2.10083e-05
2.29004e-05
2.47296e-05
2.64988e-05
2.82096e-05
2.98628e-05
3.14586e-05
3.29956e-05
3.44716e-05
3.5884e-05
3.72298e-05
3.85062e-05
3.97104e-05
4.08398e-05
4.18918e-05
4.28643e-05
4.37549e-05
4.45619e-05
4.52835e-05
4.59182e-05
4.64646e-05
4.69216e-05
4.72884e-05
4.75641e-05
4.77482e-05
4.78404e-05
4.78404e-05
4.77484e-05
4.75644e-05
4.72888e-05
4.69221e-05
4.64652e-05
4.59189e-05
4.52844e-05
4.45629e-05
4.3756e-05
4.28655e-05
4.18932e-05
4.08413e-05
3.9712e-05
3.85079e-05
3.72317e-05
3.58859e-05
3.44737e-05
3.29977e-05
3.14607e-05
2.98651e-05
2.82119e-05
2.65011e-05
2.47319e-05
2.29027e-05
2.10106e-05
1.90506e-05
1.70146e-05
1.4889e-05
1.26516e-05
1.02654e-05
7.66651e-06
4.7362e-06
9.41222e-09
3.52436e-11
3.5272e-11
9.42007e-09
4.7399e-06
7.67218e-06
1.02728e-05
1.26605e-05
1.48994e-05
1.70265e-05
1.90639e-05
2.10253e-05
2.29188e-05
2.47493e-05
2.65198e-05
2.82319e-05
2.98864e-05
3.14833e-05
3.30215e-05
3.44987e-05
3.59121e-05
3.7259e-05
3.85363e-05
3.97414e-05
4.08716e-05
4.19244e-05
4.28975e-05
4.37888e-05
4.45964e-05
4.53184e-05
4.59535e-05
4.65003e-05
4.69577e-05
4.73247e-05
4.76005e-05
4.77848e-05
4.7877e-05
4.78771e-05
4.7785e-05
4.76008e-05
4.73251e-05
4.69582e-05
4.6501e-05
4.59543e-05
4.53193e-05
4.45974e-05
4.37899e-05
4.28988e-05
4.19258e-05
4.08731e-05
3.9743e-05
3.85381e-05
3.72608e-05
3.59141e-05
3.45008e-05
3.30236e-05
3.14855e-05
2.98887e-05
2.82342e-05
2.65222e-05
2.47517e-05
2.29211e-05
2.10276e-05
1.90662e-05
1.70287e-05
1.49015e-05
1.26624e-05
1.02744e-05
7.67356e-06
4.74088e-06
9.42262e-09
3.52822e-11
3.52872e-11
9.42418e-09
4.74175e-06
7.67497e-06
1.02764e-05
1.26648e-05
1.49044e-05
1.7032e-05
1.90701e-05
2.1032e-05
2.29261e-05
2.47572e-05
2.65282e-05
2.82408e-05
2.98958e-05
3.14932e-05
3.30318e-05
3.45095e-05
3.59233e-05
3.72705e-05
3.85482e-05
3.97536e-05
4.08841e-05
4.19372e-05
4.29105e-05
4.3802e-05
4.46098e-05
4.5332e-05
4.59673e-05
4.65141e-05
4.69716e-05
4.73386e-05
4.76146e-05
4.77988e-05
4.78911e-05
4.78912e-05
4.7799e-05
4.76149e-05
4.73391e-05
4.69721e-05
4.65148e-05
4.5968e-05
4.53329e-05
4.46108e-05
4.38032e-05
4.29118e-05
4.19386e-05
4.08856e-05
3.97553e-05
3.855e-05
3.72724e-05
3.59253e-05
3.45115e-05
3.3034e-05
3.14954e-05
2.98981e-05
2.82432e-05
2.65306e-05
2.47596e-05
2.29285e-05
2.10344e-05
1.90724e-05
1.70343e-05
1.49065e-05
1.26667e-05
1.0278e-05
7.67637e-06
4.74274e-06
9.42674e-09
3.52975e-11
3.52929e-11
9.42572e-09
4.74245e-06
7.67603e-06
1.02777e-05
1.26664e-05
1.49062e-05
1.70342e-05
1.90724e-05
2.10346e-05
2.29289e-05
2.47602e-05
2.65314e-05
2.82442e-05
2.98994e-05
3.14969e-05
3.30357e-05
3.45135e-05
3.59275e-05
3.72749e-05
3.85527e-05
3.97582e-05
4.08888e-05
4.1942e-05
4.29154e-05
4.38069e-05
4.46147e-05
4.5337e-05
4.59723e-05
4.65192e-05
4.69766e-05
4.73437e-05
4.76197e-05
4.78039e-05
4.78962e-05
4.78963e-05
4.78041e-05
4.762e-05
4.73441e-05
4.69772e-05
4.65199e-05
4.59731e-05
4.53379e-05
4.46158e-05
4.38081e-05
4.29167e-05
4.19434e-05
4.08903e-05
3.97599e-05
3.85545e-05
3.72768e-05
3.59295e-05
3.45156e-05
3.30379e-05
3.14992e-05
2.99017e-05
2.82465e-05
2.65338e-05
2.47626e-05
2.29313e-05
2.1037e-05
1.90748e-05
1.70364e-05
1.49083e-05
1.26684e-05
1.02794e-05
7.67742e-06
4.74345e-06
9.4283e-09
3.53032e-11
3.5295e-11
9.42627e-09
4.7427e-06
7.6764e-06
1.02782e-05
1.2667e-05
1.49069e-05
1.70349e-05
1.90733e-05
2.10355e-05
2.29299e-05
2.47612e-05
2.65325e-05
2.82454e-05
2.99007e-05
3.14983e-05
3.30372e-05
3.4515e-05
3.59291e-05
3.72765e-05
3.85543e-05
3.97599e-05
4.08905e-05
4.19437e-05
4.29171e-05
4.38087e-05
4.46165e-05
4.53388e-05
4.59741e-05
4.6521e-05
4.69785e-05
4.73456e-05
4.76215e-05
4.78058e-05
4.78981e-05
4.78981e-05
4.7806e-05
4.76218e-05
4.7346e-05
4.6979e-05
4.65217e-05
4.59749e-05
4.53398e-05
4.46176e-05
4.38099e-05
4.29184e-05
4.19451e-05
4.0892e-05
3.97615e-05
3.85561e-05
3.72784e-05
3.59311e-05
3.45171e-05
3.30393e-05
3.15006e-05
2.9903e-05
2.82478e-05
2.65349e-05
2.47637e-05
2.29323e-05
2.10379e-05
1.90756e-05
1.70372e-05
1.4909e-05
1.2669e-05
1.02799e-05
7.6778e-06
4.7437e-06
9.42885e-09
3.53053e-11
3.52957e-11
9.42646e-09
4.74278e-06
7.67653e-06
1.02783e-05
1.26672e-05
1.49071e-05
1.70352e-05
1.90736e-05
2.10358e-05
2.29302e-05
2.47616e-05
2.65329e-05
2.82458e-05
2.99011e-05
3.14988e-05
3.30376e-05
3.45155e-05
3.59296e-05
3.7277e-05
3.85549e-05
3.97605e-05
4.08911e-05
4.19443e-05
4.29178e-05
4.38094e-05
4.46172e-05
4.53395e-05
4.59748e-05
4.65217e-05
4.69792e-05
4.73462e-05
4.76222e-05
4.78065e-05
4.78987e-05
4.78988e-05
4.78067e-05
4.76225e-05
4.73467e-05
4.69797e-05
4.65224e-05
4.59756e-05
4.53404e-05
4.46182e-05
4.38106e-05
4.29191e-05
4.19457e-05
4.08927e-05
3.97621e-05
3.85567e-05
3.72789e-05
3.59316e-05
3.45176e-05
3.30398e-05
3.1501e-05
2.99034e-05
2.82482e-05
2.65353e-05
2.4764e-05
2.29326e-05
2.10382e-05
1.90759e-05
1.70374e-05
1.49093e-05
1.26692e-05
1.02801e-05
7.67793e-06
4.74378e-06
9.42904e-09
3.5306e-11
3.52959e-11
9.42652e-09
4.74281e-06
7.67657e-06
1.02784e-05
1.26673e-05
1.49072e-05
1.70353e-05
1.90737e-05
2.10359e-05
2.29303e-05
2.47617e-05
2.65331e-05
2.8246e-05
2.99012e-05
3.14989e-05
3.30378e-05
3.45157e-05
3.59298e-05
3.72772e-05
3.85551e-05
3.97607e-05
4.08913e-05
4.19445e-05
4.2918e-05
4.38096e-05
4.46174e-05
4.53397e-05
4.5975e-05
4.65219e-05
4.69794e-05
4.73465e-05
4.76224e-05
4.78067e-05
4.7899e-05
4.7899e-05
4.78069e-05
4.76227e-05
4.73469e-05
4.69799e-05
4.65226e-05
4.59758e-05
4.53406e-05
4.46185e-05
4.38108e-05
4.29193e-05
4.19459e-05
4.08929e-05
3.97623e-05
3.85569e-05
3.72791e-05
3.59318e-05
3.45178e-05
3.304e-05
3.15012e-05
2.99036e-05
2.82483e-05
2.65355e-05
2.47642e-05
2.29327e-05
2.10383e-05
1.9076e-05
1.70375e-05
1.49093e-05
1.26692e-05
1.02801e-05
7.67797e-06
4.74381e-06
9.4291e-09
3.53062e-11
3.52959e-11
9.42654e-09
4.74282e-06
7.67658e-06
1.02784e-05
1.26673e-05
1.49072e-05
1.70353e-05
1.90737e-05
2.1036e-05
2.29304e-05
2.47618e-05
2.65331e-05
2.8246e-05
2.99013e-05
3.1499e-05
3.30379e-05
3.45157e-05
3.59298e-05
3.72773e-05
3.85551e-05
3.97607e-05
4.08914e-05
4.19446e-05
4.29181e-05
4.38097e-05
4.46175e-05
4.53398e-05
4.59751e-05
4.6522e-05
4.69795e-05
4.73465e-05
4.76225e-05
4.78068e-05
4.78991e-05
4.78991e-05
4.7807e-05
4.76228e-05
4.7347e-05
4.698e-05
4.65227e-05
4.59759e-05
4.53407e-05
4.46185e-05
4.38108e-05
4.29194e-05
4.1946e-05
4.08929e-05
3.97624e-05
3.85569e-05
3.72792e-05
3.59318e-05
3.45178e-05
3.30401e-05
3.15012e-05
2.99036e-05
2.82484e-05
2.65355e-05
2.47642e-05
2.29328e-05
2.10384e-05
1.9076e-05
1.70375e-05
1.49094e-05
1.26692e-05
1.02801e-05
7.67799e-06
4.74382e-06
9.42912e-09
3.53063e-11
3.5296e-11
9.42654e-09
4.74282e-06
7.67658e-06
1.02784e-05
1.26673e-05
1.49072e-05
1.70353e-05
1.90737e-05
2.1036e-05
2.29304e-05
2.47618e-05
2.65331e-05
2.8246e-05
2.99013e-05
3.1499e-05
3.30379e-05
3.45158e-05
3.59299e-05
3.72773e-05
3.85552e-05
3.97607e-05
4.08914e-05
4.19446e-05
4.29181e-05
4.38097e-05
4.46175e-05
4.53398e-05
4.59751e-05
4.6522e-05
4.69795e-05
4.73466e-05
4.76225e-05
4.78068e-05
4.78991e-05
4.78991e-05
4.7807e-05
4.76228e-05
4.7347e-05
4.698e-05
4.65227e-05
4.59759e-05
4.53407e-05
4.46186e-05
4.38109e-05
4.29194e-05
4.1946e-05
4.08929e-05
3.97624e-05
3.8557e-05
3.72792e-05
3.59319e-05
3.45179e-05
3.30401e-05
3.15012e-05
2.99036e-05
2.82484e-05
2.65355e-05
2.47642e-05
2.29328e-05
2.10384e-05
1.9076e-05
1.70375e-05
1.49094e-05
1.26692e-05
1.02801e-05
7.67799e-06
4.74382e-06
9.42912e-09
3.53063e-11
3.5296e-11
9.42654e-09
4.74282e-06
7.67659e-06
1.02784e-05
1.26673e-05
1.49072e-05
1.70353e-05
1.90737e-05
2.1036e-05
2.29304e-05
2.47618e-05
2.65331e-05
2.8246e-05
2.99013e-05
3.1499e-05
3.30379e-05
3.45158e-05
3.59299e-05
3.72773e-05
3.85552e-05
3.97608e-05
4.08914e-05
4.19446e-05
4.29181e-05
4.38097e-05
4.46175e-05
4.53398e-05
4.59751e-05
4.6522e-05
4.69795e-05
4.73466e-05
4.76225e-05
4.78068e-05
4.78991e-05
4.78991e-05
4.7807e-05
4.76228e-05
4.7347e-05
4.69801e-05
4.65227e-05
4.59759e-05
4.53408e-05
4.46186e-05
4.38109e-05
4.29194e-05
4.1946e-05
4.08929e-05
3.97624e-05
3.8557e-05
3.72792e-05
3.59319e-05
3.45179e-05
3.30401e-05
3.15012e-05
2.99036e-05
2.82484e-05
2.65355e-05
2.47642e-05
2.29328e-05
2.10384e-05
1.9076e-05
1.70375e-05
1.49094e-05
1.26693e-05
1.02801e-05
7.67799e-06
4.74382e-06
9.42912e-09
3.53063e-11
3.5296e-11
9.42654e-09
4.74282e-06
7.67659e-06
1.02784e-05
1.26673e-05
1.49072e-05
1.70353e-05
1.90737e-05
2.1036e-05
2.29304e-05
2.47618e-05
2.65331e-05
2.8246e-05
2.99013e-05
3.1499e-05
3.30379e-05
3.45158e-05
3.59299e-05
3.72773e-05
3.85552e-05
3.97608e-05
4.08914e-05
4.19446e-05
4.29181e-05
4.38097e-05
4.46175e-05
4.53398e-05
4.59751e-05
4.6522e-05
4.69795e-05
4.73466e-05
4.76225e-05
4.78068e-05
4.78991e-05
4.78992e-05
4.7807e-05
4.76228e-05
4.7347e-05
4.69801e-05
4.65227e-05
4.59759e-05
4.53408e-05
4.46186e-05
4.38109e-05
4.29194e-05
4.1946e-05
4.08929e-05
3.97624e-05
3.8557e-05
3.72792e-05
3.59319e-05
3.45179e-05
3.30401e-05
3.15012e-05
2.99036e-05
2.82484e-05
2.65355e-05
2.47642e-05
2.29328e-05
2.10384e-05
1.9076e-05
1.70375e-05
1.49094e-05
1.26693e-05
1.02801e-05
7.67799e-06
4.74382e-06
9.42912e-09
3.53063e-11
3.5296e-11
9.42654e-09
4.74282e-06
7.67659e-06
1.02784e-05
1.26673e-05
1.49072e-05
1.70353e-05
1.90737e-05
2.1036e-05
2.29304e-05
2.47618e-05
2.65331e-05
2.8246e-05
2.99013e-05
3.1499e-05
3.30379e-05
3.45158e-05
3.59299e-05
3.72773e-05
3.85552e-05
3.97608e-05
4.08914e-05
4.19446e-05
4.29181e-05
4.38097e-05
4.46175e-05
4.53398e-05
4.59751e-05
4.6522e-05
4.69795e-05
4.73466e-05
4.76225e-05
4.78068e-05
4.78991e-05
4.78992e-05
4.7807e-05
4.76228e-05
4.7347e-05
4.69801e-05
4.65227e-05
4.59759e-05
4.53408e-05
4.46186e-05
4.38109e-05
4.29194e-05
4.1946e-05
4.08929e-05
3.97624e-05
3.8557e-05
3.72792e-05
3.59319e-05
3.45179e-05
3.30401e-05
3.15012e-05
2.99036e-05
2.82484e-05
2.65355e-05
2.47642e-05
2.29328e-05
2.10384e-05
1.9076e-05
1.70375e-05
1.49094e-05
1.26693e-05
1.02801e-05
7.67799e-06
4.74382e-06
9.42912e-09
3.53063e-11
3.5296e-11
9.42654e-09
4.74282e-06
7.67659e-06
1.02784e-05
1.26673e-05
1.49072e-05
1.70353e-05
1.90737e-05
2.1036e-05
2.29304e-05
2.47618e-05
2.65331e-05
2.8246e-05
2.99013e-05
3.1499e-05
3.30379e-05
3.45158e-05
3.59299e-05
3.72773e-05
3.85552e-05
3.97608e-05
4.08914e-05
4.19446e-05
4.29181e-05
4.38097e-05
4.46175e-05
4.53398e-05
4.59751e-05
4.6522e-05
4.69795e-05
4.73466e-05
4.76225e-05
4.78068e-05
4.78991e-05
4.78992e-05
4.7807e-05
4.76228e-05
4.7347e-05
4.69801e-05
4.65227e-05
4.59759e-05
4.53408e-05
4.46186e-05
4.38109e-05
4.29194e-05
4.1946e-05
4.08929e-05
3.97624e-05
3.8557e-05
3.72792e-05
3.59319e-05
3.45179e-05
3.30401e-05
3.15012e-05
2.99036e-05
2.82484e-05
2.65355e-05
2.47642e-05
2.29328e-05
2.10384e-05
1.9076e-05
1.70375e-05
1.49094e-05
1.26693e-05
1.02801e-05
7.67799e-06
4.74382e-06
9.42912e-09
3.53063e-11
3.5296e-11
9.42654e-09
4.74282e-06
7.67659e-06
1.02784e-05
1.26673e-05
1.49072e-05
1.70353e-05
1.90737e-05
2.1036e-05
2.29304e-05
2.47618e-05
2.65331e-05
2.8246e-05
2.99013e-05
3.1499e-05
3.30379e-05
3.45158e-05
3.59299e-05
3.72773e-05
3.85552e-05
3.97608e-05
4.08914e-05
4.19446e-05
4.29181e-05
4.38097e-05
4.46175e-05
4.53398e-05
4.59751e-05
4.6522e-05
4.69795e-05
4.73466e-05
4.76225e-05
4.78068e-05
4.78991e-05
4.78992e-05
4.7807e-05
4.76228e-05
4.7347e-05
4.69801e-05
4.65227e-05
4.59759e-05
4.53408e-05
4.46186e-05
4.38109e-05
4.29194e-05
4.1946e-05
4.08929e-05
3.97624e-05
3.8557e-05
3.72792e-05
3.59319e-05
3.45179e-05
3.30401e-05
3.15012e-05
2.99036e-05
2.82484e-05
2.65355e-05
2.47642e-05
2.29328e-05
2.10384e-05
1.9076e-05
1.70375e-05
1.49094e-05
1.26693e-05
1.02801e-05
7.67799e-06
4.74382e-06
9.42912e-09
3.53063e-11
3.5296e-11
9.42654e-09
4.74282e-06
7.67659e-06
1.02784e-05
1.26673e-05
1.49072e-05
1.70353e-05
1.90737e-05
2.1036e-05
2.29304e-05
2.47618e-05
2.65331e-05
2.8246e-05
2.99013e-05
3.1499e-05
3.30379e-05
3.45158e-05
3.59299e-05
3.72773e-05
3.85552e-05
3.97608e-05
4.08914e-05
4.19446e-05
4.29181e-05
4.38097e-05
4.46175e-05
4.53398e-05
4.59751e-05
4.6522e-05
4.69795e-05
4.73466e-05
4.76225e-05
4.78068e-05
4.78991e-05
4.78992e-05
4.7807e-05
4.76228e-05
4.7347e-05
4.69801e-05
4.65227e-05
4.59759e-05
4.53408e-05
4.46186e-05
4.38109e-05
4.29194e-05
4.1946e-05
4.08929e-05
3.97624e-05
3.8557e-05
3.72792e-05
3.59319e-05
3.45179e-05
3.30401e-05
3.15012e-05
2.99036e-05
2.82484e-05
2.65355e-05
2.47642e-05
2.29328e-05
2.10384e-05
1.9076e-05
1.70375e-05
1.49094e-05
1.26693e-05
1.02801e-05
7.67799e-06
4.74382e-06
9.42912e-09
3.53063e-11
3.5296e-11
9.42654e-09
4.74282e-06
7.67659e-06
1.02784e-05
1.26673e-05
1.49072e-05
1.70353e-05
1.90737e-05
2.1036e-05
2.29304e-05
2.47618e-05
2.65331e-05
2.8246e-05
2.99013e-05
3.1499e-05
3.30379e-05
3.45158e-05
3.59299e-05
3.72773e-05
3.85552e-05
3.97608e-05
4.08914e-05
4.19446e-05
4.29181e-05
4.38097e-05
4.46175e-05
4.53398e-05
4.59751e-05
4.6522e-05
4.69795e-05
4.73466e-05
4.76225e-05
4.78068e-05
4.78991e-05
4.78992e-05
4.7807e-05
4.76228e-05
4.7347e-05
4.69801e-05
4.65227e-05
4.59759e-05
4.53408e-05
4.46186e-05
4.38109e-05
4.29194e-05
4.1946e-05
4.08929e-05
3.97624e-05
3.8557e-05
3.72792e-05
3.59319e-05
3.45179e-05
3.30401e-05
3.15012e-05
2.99036e-05
2.82484e-05
2.65355e-05
2.47642e-05
2.29328e-05
2.10384e-05
1.9076e-05
1.70375e-05
1.49094e-05
1.26693e-05
1.02801e-05
7.67799e-06
4.74382e-06
9.42912e-09
3.53063e-11
3.5296e-11
9.42654e-09
4.74282e-06
7.67659e-06
1.02784e-05
1.26673e-05
1.49072e-05
1.70353e-05
1.90737e-05
2.1036e-05
2.29304e-05
2.47618e-05
2.65331e-05
2.8246e-05
2.99013e-05
3.1499e-05
3.30379e-05
3.45158e-05
3.59299e-05
3.72773e-05
3.85552e-05
3.97608e-05
4.08914e-05
4.19446e-05
4.29181e-05
4.38097e-05
4.46175e-05
4.53398e-05
4.59751e-05
4.6522e-05
4.69795e-05
4.73466e-05
4.76225e-05
4.78068e-05
4.78991e-05
4.78992e-05
4.7807e-05
4.76228e-05
4.7347e-05
4.69801e-05
4.65227e-05
4.59759e-05
4.53408e-05
4.46186e-05
4.38109e-05
4.29194e-05
4.1946e-05
4.08929e-05
3.97624e-05
3.8557e-05
3.72792e-05
3.59319e-05
3.45179e-05
3.30401e-05
3.15012e-05
2.99036e-05
2.82484e-05
2.65355e-05
2.47642e-05
2.29328e-05
2.10384e-05
1.9076e-05
1.70375e-05
1.49094e-05
1.26693e-05
1.02801e-05
7.67799e-06
4.74382e-06
9.42912e-09
3.53063e-11
3.5296e-11
9.42654e-09
4.74282e-06
7.67659e-06
1.02784e-05
1.26673e-05
1.49072e-05
1.70353e-05
1.90737e-05
2.1036e-05
2.29304e-05
2.47618e-05
2.65331e-05
2.8246e-05
2.99013e-05
3.1499e-05
3.30379e-05
3.45158e-05
3.59299e-05
3.72773e-05
3.85552e-05
3.97608e-05
4.08914e-05
4.19446e-05
4.29181e-05
4.38097e-05
4.46175e-05
4.53398e-05
4.59751e-05
4.6522e-05
4.69795e-05
4.73466e-05
4.76225e-05
4.78068e-05
4.78991e-05
4.78992e-05
4.7807e-05
4.76228e-05
4.7347e-05
4.69801e-05
4.65227e-05
4.59759e-05
4.53408e-05
4.46186e-05
4.38109e-05
4.29194e-05
4.1946e-05
4.08929e-05
3.97624e-05
3.8557e-05
3.72792e-05
3.59319e-05
3.45179e-05
3.30401e-05
3.15012e-05
2.99036e-05
2.82484e-05
2.65355e-05
2.47642e-05
2.29328e-05
2.10384e-05
1.9076e-05
1.70375e-05
1.49094e-05
1.26693e-05
1.02801e-05
7.67799e-06
4.74382e-06
9.42912e-09
3.53063e-11
3.5296e-11
9.42654e-09
4.74282e-06
7.67659e-06
1.02784e-05
1.26673e-05
1.49072e-05
1.70353e-05
1.90737e-05
2.1036e-05
2.29304e-05
2.47618e-05
2.65331e-05
2.8246e-05
2.99013e-05
3.1499e-05
3.30379e-05
3.45158e-05
3.59299e-05
3.72773e-05
3.85552e-05
3.97608e-05
4.08914e-05
4.19446e-05
4.29181e-05
4.38097e-05
4.46175e-05
4.53398e-05
4.59751e-05
4.6522e-05
4.69795e-05
4.73466e-05
4.76225e-05
4.78068e-05
4.78991e-05
4.78992e-05
4.7807e-05
4.76228e-05
4.7347e-05
4.69801e-05
4.65227e-05
4.59759e-05
4.53408e-05
4.46186e-05
4.38109e-05
4.29194e-05
4.1946e-05
4.08929e-05
3.97624e-05
3.8557e-05
3.72792e-05
3.59319e-05
3.45179e-05
3.30401e-05
3.15012e-05
2.99036e-05
2.82484e-05
2.65355e-05
2.47642e-05
2.29328e-05
2.10384e-05
1.9076e-05
1.70375e-05
1.49094e-05
1.26693e-05
1.02801e-05
7.67799e-06
4.74382e-06
9.42912e-09
3.53063e-11
3.5296e-11
9.42654e-09
4.74282e-06
7.67659e-06
1.02784e-05
1.26673e-05
1.49072e-05
1.70353e-05
1.90737e-05
2.1036e-05
2.29304e-05
2.47618e-05
2.65331e-05
2.8246e-05
2.99013e-05
3.1499e-05
3.30379e-05
3.45158e-05
3.59299e-05
3.72773e-05
3.85552e-05
3.97608e-05
4.08914e-05
4.19446e-05
4.29181e-05
4.38097e-05
4.46175e-05
4.53398e-05
4.59751e-05
4.6522e-05
4.69795e-05
4.73466e-05
4.76225e-05
4.78068e-05
4.78991e-05
4.78992e-05
4.7807e-05
4.76228e-05
4.7347e-05
4.69801e-05
4.65227e-05
4.59759e-05
4.53408e-05
4.46186e-05
4.38109e-05
4.29194e-05
4.1946e-05
4.08929e-05
3.97624e-05
3.8557e-05
3.72792e-05
3.59319e-05
3.45179e-05
3.30401e-05
3.15012e-05
2.99036e-05
2.82484e-05
2.65355e-05
2.47642e-05
2.29328e-05
2.10384e-05
1.9076e-05
1.70375e-05
1.49094e-05
1.26693e-05
1.02801e-05
7.67799e-06
4.74382e-06
9.42912e-09
3.53063e-11
3.5296e-11
9.42654e-09
4.74282e-06
7.67659e-06
1.02784e-05
1.26673e-05
1.49072e-05
1.70353e-05
1.90737e-05
2.1036e-05
2.29304e-05
2.47618e-05
2.65331e-05
2.8246e-05
2.99013e-05
3.1499e-05
3.30379e-05
3.45158e-05
3.59299e-05
3.72773e-05
3.85552e-05
3.97608e-05
4.08914e-05
4.19446e-05
4.29181e-05
4.38097e-05
4.46175e-05
4.53398e-05
4.59751e-05
4.6522e-05
4.69795e-05
4.73466e-05
4.76225e-05
4.78068e-05
4.78991e-05
4.78992e-05
4.7807e-05
4.76228e-05
4.7347e-05
4.69801e-05
4.65227e-05
4.59759e-05
4.53408e-05
4.46186e-05
4.38109e-05
4.29194e-05
4.1946e-05
4.08929e-05
3.97624e-05
3.8557e-05
3.72792e-05
3.59319e-05
3.45179e-05
3.30401e-05
3.15012e-05
2.99036e-05
2.82484e-05
2.65355e-05
2.47642e-05
2.29328e-05
2.10384e-05
1.9076e-05
1.70375e-05
1.49094e-05
1.26693e-05
1.02801e-05
7.67799e-06
4.74382e-06
9.42912e-09
3.53063e-11
3.5296e-11
9.42654e-09
4.74282e-06
7.67659e-06
1.02784e-05
1.26673e-05
1.49072e-05
1.70353e-05
1.90737e-05
2.1036e-05
2.29304e-05
2.47618e-05
2.65331e-05
2.8246e-05
2.99013e-05
3.1499e-05
3.30379e-05
3.45158e-05
3.59299e-05
3.72773e-05
3.85552e-05
3.97608e-05
4.08914e-05
4.19446e-05
4.29181e-05
4.38097e-05
4.46175e-05
4.53398e-05
4.59751e-05
4.6522e-05
4.69795e-05
4.73466e-05
4.76225e-05
4.78068e-05
4.78991e-05
4.78992e-05
4.7807e-05
4.76228e-05
4.7347e-05
4.69801e-05
4.65227e-05
4.59759e-05
4.53408e-05
4.46186e-05
4.38109e-05
4.29194e-05
4.1946e-05
4.08929e-05
3.97624e-05
3.8557e-05
3.72792e-05
3.59319e-05
3.45179e-05
3.30401e-05
3.15012e-05
2.99036e-05
2.82484e-05
2.65355e-05
2.47642e-05
2.29328e-05
2.10384e-05
1.9076e-05
1.70375e-05
1.49094e-05
1.26693e-05
1.02801e-05
7.67799e-06
4.74382e-06
9.42912e-09
3.53063e-11
3.5296e-11
9.42654e-09
4.74282e-06
7.67659e-06
1.02784e-05
1.26673e-05
1.49072e-05
1.70353e-05
1.90737e-05
2.1036e-05
2.29304e-05
2.47618e-05
2.65331e-05
2.8246e-05
2.99013e-05
3.1499e-05
3.30379e-05
3.45158e-05
3.59299e-05
3.72773e-05
3.85552e-05
3.97608e-05
4.08914e-05
4.19446e-05
4.29181e-05
4.38097e-05
4.46175e-05
4.53398e-05
4.59751e-05
4.6522e-05
4.69795e-05
4.73466e-05
4.76225e-05
4.78068e-05
4.78991e-05
4.78992e-05
4.7807e-05
4.76228e-05
4.7347e-05
4.69801e-05
4.65227e-05
4.59759e-05
4.53408e-05
4.46186e-05
4.38109e-05
4.29194e-05
4.1946e-05
4.08929e-05
3.97624e-05
3.8557e-05
3.72792e-05
3.59319e-05
3.45179e-05
3.30401e-05
3.15012e-05
2.99036e-05
2.82484e-05
2.65355e-05
2.47642e-05
2.29328e-05
2.10384e-05
1.9076e-05
1.70375e-05
1.49094e-05
1.26693e-05
1.02801e-05
7.67799e-06
4.74382e-06
9.42912e-09
3.53063e-11
3.5296e-11
9.42654e-09
4.74282e-06
7.67659e-06
1.02784e-05
1.26673e-05
1.49072e-05
1.70353e-05
1.90737e-05
2.1036e-05
2.29304e-05
2.47618e-05
2.65331e-05
2.8246e-05
2.99013e-05
3.1499e-05
3.30379e-05
3.45158e-05
3.59299e-05