/*--------------------------------*- C++ -*----------------------------------*\
  =========                 |
  \\      /  F ield         | OpenFOAM: The Open Source CFD Toolbox
   \\    /   O peration     | Website:  https://openfoam.org
    \\  /    A nd           | Version:  13
     \\/     M anipulation  |
\*---------------------------------------------------------------------------*/
FoamFile
{
    format      ascii;
    class       volScalarField;
    location    "60";
    object      rhok;
}
// * * * * * * * * * * * * * * * * * * * * * * * * * * * * * * * * * * * * * //

dimensions      [];

internalField   nonuniform List<scalar> 
315000
(
0.444406
0.420336
0.415566
0.413698
0.412267
0.411038
0.409901
0.408806
0.407733
0.406675
0.405629
0.404595
0.403571
0.40256
0.401561
0.400575
0.399602
0.398642
0.397698
0.396767
0.395852
0.394953
0.394069
0.393202
0.392351
0.391517
0.390701
0.389902
0.38912
0.388356
0.38761
0.386882
0.386173
0.385481
0.384807
0.384151
0.383513
0.382893
0.38229
0.381705
0.381137
0.380586
0.380051
0.379533
0.37903
0.378543
0.378071
0.377613
0.37717
0.376741
0.376324
0.375921
0.375529
0.375149
0.374781
0.374422
0.374074
0.373734
0.373403
0.37308
0.372765
0.372456
0.372153
0.371855
0.371562
0.371272
0.370986
0.370703
0.370421
0.37014
0.444496
0.424721
0.413716
0.412418
0.411605
0.410692
0.409717
0.408706
0.407677
0.406641
0.405607
0.404578
0.403557
0.402547
0.401548
0.400562
0.399589
0.398629
0.397684
0.396754
0.395838
0.394938
0.394054
0.393187
0.392336
0.391502
0.390685
0.389886
0.389104
0.38834
0.387594
0.386866
0.386156
0.385464
0.384791
0.384135
0.383497
0.382877
0.382275
0.38169
0.381122
0.380571
0.380036
0.379518
0.379016
0.378529
0.378057
0.3776
0.377158
0.376729
0.376313
0.37591
0.375519
0.375139
0.374771
0.374413
0.374065
0.373726
0.373396
0.373074
0.372759
0.372451
0.372148
0.371851
0.371558
0.37127
0.370984
0.370701
0.37042
0.37014
0.444434
0.422183
0.41454
0.41305
0.412035
0.410958
0.409871
0.40879
0.40772
0.406661
0.405614
0.404578
0.403554
0.402542
0.401542
0.400555
0.399582
0.398622
0.397676
0.396745
0.39583
0.39493
0.394045
0.393178
0.392326
0.391492
0.390675
0.389876
0.389094
0.38833
0.387584
0.386856
0.386146
0.385454
0.38478
0.384124
0.383487
0.382867
0.382264
0.381679
0.381111
0.380561
0.380026
0.379508
0.379006
0.37852
0.378048
0.377591
0.377149
0.37672
0.376305
0.375902
0.375511
0.375132
0.374764
0.374407
0.374059
0.373721
0.373391
0.373069
0.372755
0.372447
0.372145
0.371848
0.371556
0.371268
0.370982
0.3707
0.370419
0.370139
0.444406
0.420325
0.415552
0.413682
0.412254
0.411026
0.409888
0.408792
0.407718
0.406659
0.405612
0.404576
0.403552
0.40254
0.40154
0.400552
0.399579
0.398618
0.397673
0.396742
0.395826
0.394925
0.394041
0.393173
0.392322
0.391487
0.39067
0.38987
0.389088
0.388324
0.387578
0.38685
0.38614
0.385448
0.384774
0.384118
0.383481
0.382861
0.382258
0.381673
0.381105
0.380554
0.38002
0.379502
0.379
0.378514
0.378042
0.377586
0.377143
0.376715
0.376299
0.375897
0.375506
0.375128
0.37476
0.374403
0.374055
0.373717
0.373388
0.373066
0.372752
0.372444
0.372142
0.371846
0.371554
0.371266
0.370981
0.370699
0.370419
0.370139
0.444496
0.424721
0.413714
0.412416
0.411603
0.41069
0.409714
0.408702
0.407672
0.406636
0.4056
0.404571
0.403549
0.402539
0.401539
0.400552
0.399578
0.398618
0.397672
0.396741
0.395825
0.394925
0.39404
0.393172
0.392321
0.391486
0.390669
0.389869
0.389087
0.388323
0.387576
0.386848
0.386138
0.385446
0.384772
0.384116
0.383478
0.382858
0.382255
0.38167
0.381102
0.380552
0.380017
0.379499
0.378997
0.378511
0.378039
0.377583
0.37714
0.376712
0.376297
0.375894
0.375504
0.375125
0.374757
0.3744
0.374053
0.373715
0.373386
0.373064
0.37275
0.372443
0.372141
0.371845
0.371553
0.371265
0.370981
0.370699
0.370418
0.370139
0.444435
0.422207
0.414542
0.413056
0.41205
0.410972
0.409882
0.408798
0.407725
0.406665
0.405616
0.40458
0.403555
0.402542
0.401542
0.400554
0.39958
0.39862
0.397674
0.396743
0.395827
0.394926
0.394042
0.393174
0.392322
0.391487
0.39067
0.38987
0.389088
0.388323
0.387577
0.386849
0.386138
0.385446
0.384772
0.384116
0.383478
0.382858
0.382255
0.38167
0.381102
0.380551
0.380017
0.379498
0.378996
0.37851
0.378038
0.377582
0.377139
0.376711
0.376295
0.375893
0.375503
0.375124
0.374756
0.374399
0.374052
0.373714
0.373385
0.373063
0.372749
0.372442
0.37214
0.371844
0.371553
0.371265
0.37098
0.370698
0.370418
0.370139
0.444468
0.423606
0.413989
0.412662
0.4118
0.410831
0.409807
0.40876
0.407706
0.406655
0.405611
0.404577
0.403554
0.402542
0.401542
0.400555
0.399582
0.398622
0.397676
0.396745
0.395829
0.394929
0.394044
0.393176
0.392325
0.39149
0.390673
0.389873
0.38909
0.388326
0.387579
0.386851
0.38614
0.385448
0.384774
0.384118
0.38348
0.382859
0.382256
0.381671
0.381103
0.380552
0.380017
0.379499
0.378997
0.37851
0.378039
0.377582
0.377139
0.376711
0.376295
0.375893
0.375502
0.375124
0.374756
0.374399
0.374052
0.373714
0.373384
0.373063
0.372749
0.372441
0.37214
0.371844
0.371552
0.371265
0.37098
0.370698
0.370418
0.370139
0.444468
0.42361
0.413978
0.412648
0.411788
0.410823
0.409802
0.408756
0.407704
0.406654
0.405611
0.404578
0.403555
0.402543
0.401544
0.400557
0.399584
0.398624
0.397679
0.396748
0.395832
0.394932
0.394048
0.393179
0.392328
0.391493
0.390676
0.389876
0.389093
0.388329
0.387582
0.386854
0.386143
0.385451
0.384776
0.38412
0.383482
0.382861
0.382258
0.381673
0.381105
0.380553
0.380019
0.3795
0.378998
0.378511
0.37804
0.377583
0.37714
0.376712
0.376296
0.375893
0.375503
0.375124
0.374756
0.374399
0.374052
0.373714
0.373384
0.373063
0.372749
0.372442
0.37214
0.371844
0.371552
0.371265
0.37098
0.370698
0.370418
0.370139
0.444468
0.423606
0.413992
0.412664
0.411801
0.410831
0.409807
0.40876
0.407707
0.406657
0.405614
0.404581
0.403558
0.402546
0.401547
0.40056
0.399587
0.398627
0.397682
0.396751
0.395835
0.394935
0.394051
0.393183
0.392331
0.391496
0.390679
0.389879
0.389097
0.388332
0.387585
0.386857
0.386146
0.385454
0.384779
0.384123
0.383484
0.382864
0.382261
0.381675
0.381107
0.380555
0.380021
0.379502
0.379
0.378513
0.378041
0.377584
0.377141
0.376713
0.376297
0.375894
0.375504
0.375125
0.374757
0.3744
0.374052
0.373714
0.373385
0.373063
0.372749
0.372442
0.37214
0.371844
0.371552
0.371265
0.37098
0.370698
0.370418
0.370139
0.444435
0.422202
0.414553
0.413072
0.412063
0.41098
0.409887
0.408801
0.407728
0.406668
0.40562
0.404584
0.40356
0.402548
0.401549
0.400562
0.399589
0.39863
0.397684
0.396753
0.395838
0.394938
0.394053
0.393185
0.392334
0.391499
0.390682
0.389882
0.389099
0.388335
0.387588
0.386859
0.386149
0.385456
0.384782
0.384125
0.383487
0.382866
0.382263
0.381677
0.381109
0.380557
0.380022
0.379504
0.379001
0.378514
0.378042
0.377585
0.377143
0.376714
0.376298
0.375895
0.375504
0.375126
0.374758
0.3744
0.374053
0.373715
0.373385
0.373064
0.37275
0.372442
0.372141
0.371844
0.371553
0.371265
0.37098
0.370698
0.370418
0.370139
0.444434
0.422183
0.414542
0.413069
0.41206
0.410977
0.409883
0.408798
0.407725
0.406665
0.405618
0.404583
0.403559
0.402548
0.401549
0.400563
0.39959
0.398631
0.397685
0.396755
0.395839
0.394939
0.394055
0.393187
0.392336
0.391501
0.390684
0.389884
0.389101
0.388337
0.38759
0.386861
0.386151
0.385458
0.384784
0.384127
0.383488
0.382868
0.382265
0.381679
0.38111
0.380559
0.380024
0.379505
0.379002
0.378515
0.378044
0.377586
0.377144
0.376715
0.376299
0.375896
0.375505
0.375126
0.374758
0.374401
0.374053
0.373715
0.373386
0.373064
0.37275
0.372442
0.372141
0.371845
0.371553
0.371265
0.370981
0.370698
0.370418
0.370139
0.444434
0.422182
0.414541
0.413067
0.412059
0.410976
0.409882
0.408797
0.407725
0.406665
0.405618
0.404583
0.40356
0.402549
0.40155
0.400564
0.399591
0.398632
0.397687
0.396756
0.395841
0.394941
0.394057
0.393189
0.392337
0.391503
0.390685
0.389885
0.389103
0.388338
0.387592
0.386863
0.386152
0.38546
0.384785
0.384129
0.38349
0.382869
0.382266
0.38168
0.381112
0.38056
0.380025
0.379506
0.379004
0.378516
0.378044
0.377587
0.377144
0.376715
0.3763
0.375897
0.375506
0.375127
0.374759
0.374401
0.374054
0.373716
0.373386
0.373064
0.37275
0.372443
0.372141
0.371845
0.371553
0.371265
0.370981
0.370699
0.370418
0.370139
0.444434
0.422187
0.414547
0.413074
0.412065
0.410982
0.409888
0.408802
0.40773
0.40667
0.405622
0.404587
0.403563
0.402552
0.401553
0.400566
0.399593
0.398634
0.397689
0.396758
0.395843
0.394943
0.394058
0.39319
0.392339
0.391504
0.390687
0.389887
0.389104
0.38834
0.387593
0.386864
0.386153
0.385461
0.384786
0.38413
0.383491
0.38287
0.382267
0.381681
0.381112
0.380561
0.380026
0.379507
0.379004
0.378517
0.378045
0.377588
0.377145
0.376716
0.3763
0.375897
0.375506
0.375127
0.374759
0.374402
0.374054
0.373716
0.373386
0.373065
0.37275
0.372443
0.372141
0.371845
0.371553
0.371265
0.370981
0.370699
0.370418
0.370139
0.444435
0.422208
0.414564
0.413087
0.412078
0.410996
0.409902
0.408815
0.40774
0.406679
0.40563
0.404593
0.403569
0.402556
0.401557
0.40057
0.399596
0.398636
0.397691
0.39676
0.395844
0.394944
0.39406
0.393192
0.39234
0.391505
0.390688
0.389888
0.389105
0.38834
0.387594
0.386865
0.386154
0.385461
0.384787
0.38413
0.383492
0.382871
0.382267
0.381682
0.381113
0.380561
0.380026
0.379507
0.379005
0.378517
0.378045
0.377588
0.377145
0.376716
0.3763
0.375897
0.375507
0.375127
0.374759
0.374402
0.374054
0.373716
0.373386
0.373065
0.372751
0.372443
0.372141
0.371845
0.371553
0.371265
0.370981
0.370699
0.370418
0.370139
0.444468
0.423623
0.414037
0.412697
0.411821
0.410849
0.409824
0.408777
0.407723
0.406672
0.405627
0.404593
0.403569
0.402557
0.401557
0.400571
0.399597
0.398637
0.397692
0.396761
0.395845
0.394945
0.39406
0.393192
0.39234
0.391506
0.390688
0.389888
0.389106
0.388341
0.387594
0.386865
0.386154
0.385462
0.384787
0.38413
0.383492
0.382871
0.382268
0.381682
0.381113
0.380561
0.380026
0.379508
0.379005
0.378518
0.378046
0.377588
0.377145
0.376716
0.3763
0.375897
0.375507
0.375128
0.37476
0.374402
0.374054
0.373716
0.373387
0.373065
0.372751
0.372443
0.372141
0.371845
0.371553
0.371265
0.370981
0.370699
0.370418
0.370139
0.444406
0.420321
0.415558
0.413682
0.412252
0.411026
0.409891
0.408797
0.407726
0.406668
0.405623
0.404588
0.403565
0.402554
0.401555
0.400568
0.399595
0.398636
0.39769
0.39676
0.395844
0.394944
0.39406
0.393191
0.39234
0.391505
0.390688
0.389888
0.389105
0.388341
0.387594
0.386865
0.386154
0.385462
0.384787
0.38413
0.383492
0.382871
0.382268
0.381682
0.381113
0.380561
0.380026
0.379508
0.379005
0.378518
0.378046
0.377588
0.377146
0.376716
0.376301
0.375898
0.375507
0.375128
0.37476
0.374402
0.374055
0.373716
0.373387
0.373065
0.372751
0.372443
0.372141
0.371845
0.371553
0.371265
0.370981
0.370699
0.370418
0.370139
0.444406
0.420314
0.415553
0.413681
0.412249
0.411021
0.409885
0.408791
0.40772
0.406663
0.405618
0.404584
0.403562
0.402551
0.401552
0.400566
0.399593
0.398634
0.397689
0.396758
0.395843
0.394943
0.394059
0.393191
0.392339
0.391505
0.390687
0.389887
0.389105
0.38834
0.387594
0.386865
0.386154
0.385461
0.384787
0.38413
0.383492
0.382871
0.382268
0.381682
0.381113
0.380561
0.380026
0.379508
0.379005
0.378518
0.378046
0.377588
0.377146
0.376716
0.376301
0.375898
0.375507
0.375128
0.37476
0.374402
0.374055
0.373716
0.373387
0.373065
0.372751
0.372443
0.372141
0.371845
0.371553
0.371265
0.370981
0.370699
0.370418
0.370139
0.444406
0.420312
0.41555
0.413678
0.412246
0.411018
0.409882
0.408788
0.407717
0.406661
0.405616
0.404582
0.40356
0.402549
0.401551
0.400565
0.399592
0.398633
0.397688
0.396758
0.395842
0.394942
0.394058
0.39319
0.392339
0.391504
0.390687
0.389887
0.389105
0.38834
0.387593
0.386865
0.386154
0.385461
0.384787
0.38413
0.383492
0.382871
0.382267
0.381682
0.381113
0.380561
0.380026
0.379508
0.379005
0.378518
0.378046
0.377588
0.377146
0.376716
0.376301
0.375898
0.375507
0.375128
0.37476
0.374402
0.374055
0.373716
0.373387
0.373065
0.372751
0.372443
0.372141
0.371845
0.371553
0.371265
0.370981
0.370699
0.370418
0.370139
0.444406
0.420311
0.415549
0.413677
0.412245
0.411017
0.409881
0.408787
0.407716
0.40666
0.405615
0.404581
0.403559
0.402548
0.40155
0.400564
0.399591
0.398632
0.397687
0.396757
0.395842
0.394942
0.394058
0.39319
0.392339
0.391504
0.390687
0.389887
0.389104
0.38834
0.387593
0.386864
0.386154
0.385461
0.384787
0.38413
0.383491
0.382871
0.382267
0.381682
0.381113
0.380561
0.380026
0.379508
0.379005
0.378518
0.378046
0.377588
0.377146
0.376716
0.376301
0.375898
0.375507
0.375128
0.37476
0.374402
0.374055
0.373716
0.373387
0.373065
0.372751
0.372443
0.372141
0.371845
0.371553
0.371265
0.370981
0.370699
0.370418
0.370139
0.444406
0.420311
0.415549
0.413677
0.412245
0.411017
0.40988
0.408787
0.407716
0.406659
0.405615
0.404581
0.403559
0.402548
0.401549
0.400564
0.399591
0.398632
0.397687
0.396757
0.395841
0.394942
0.394058
0.39319
0.392338
0.391504
0.390687
0.389887
0.389104
0.38834
0.387593
0.386864
0.386154
0.385461
0.384786
0.38413
0.383491
0.38287
0.382267
0.381681
0.381113
0.380561
0.380026
0.379508
0.379005
0.378518
0.378046
0.377588
0.377145
0.376716
0.376301
0.375898
0.375507
0.375128
0.37476
0.374402
0.374055
0.373716
0.373387
0.373065
0.372751
0.372443
0.372141
0.371845
0.371553
0.371265
0.370981
0.370699
0.370418
0.370139
0.444406
0.420311
0.415549
0.413677
0.412245
0.411016
0.40988
0.408787
0.407716
0.406659
0.405614
0.404581
0.403558
0.402548
0.401549
0.400564
0.399591
0.398632
0.397687
0.396757
0.395841
0.394941
0.394057
0.39319
0.392338
0.391504
0.390686
0.389887
0.389104
0.38834
0.387593
0.386864
0.386154
0.385461
0.384786
0.38413
0.383491
0.38287
0.382267
0.381681
0.381113
0.380561
0.380026
0.379508
0.379005
0.378518
0.378046
0.377588
0.377145
0.376716
0.376301
0.375898
0.375507
0.375128
0.37476
0.374402
0.374055
0.373716
0.373387
0.373065
0.372751
0.372443
0.372141
0.371845
0.371553
0.371265
0.370981
0.370699
0.370418
0.370139
0.444406
0.420311
0.415549
0.413677
0.412245
0.411016
0.40988
0.408787
0.407716
0.406659
0.405614
0.404581
0.403558
0.402548
0.401549
0.400563
0.399591
0.398632
0.397687
0.396757
0.395841
0.394941
0.394057
0.393189
0.392338
0.391504
0.390686
0.389886
0.389104
0.38834
0.387593
0.386864
0.386153
0.385461
0.384786
0.38413
0.383491
0.38287
0.382267
0.381681
0.381113
0.380561
0.380026
0.379507
0.379005
0.378518
0.378046
0.377588
0.377145
0.376716
0.376301
0.375898
0.375507
0.375128
0.37476
0.374402
0.374055
0.373716
0.373387
0.373065
0.372751
0.372443
0.372141
0.371845
0.371553
0.371265
0.370981
0.370699
0.370418
0.370139
0.444406
0.42031
0.415549
0.413677
0.412245
0.411016
0.40988
0.408786
0.407715
0.406659
0.405614
0.404581
0.403558
0.402548
0.401549
0.400563
0.399591
0.398632
0.397687
0.396757
0.395841
0.394941
0.394057
0.393189
0.392338
0.391504
0.390686
0.389886
0.389104
0.38834
0.387593
0.386864
0.386153
0.385461
0.384786
0.38413
0.383491
0.38287
0.382267
0.381681
0.381113
0.380561
0.380026
0.379507
0.379005
0.378518
0.378046
0.377588
0.377145
0.376716
0.376301
0.375898
0.375507
0.375128
0.37476
0.374402
0.374055
0.373716
0.373387
0.373065
0.372751
0.372443
0.372141
0.371845
0.371553
0.371265
0.370981
0.370699
0.370418
0.370139
0.444406
0.42031
0.415549
0.413677
0.412245
0.411016
0.40988
0.408786
0.407715
0.406659
0.405614
0.404581
0.403558
0.402548
0.401549
0.400563
0.399591
0.398632
0.397687
0.396757
0.395841
0.394941
0.394057
0.393189
0.392338
0.391504
0.390686
0.389886
0.389104
0.38834
0.387593
0.386864
0.386153
0.385461
0.384786
0.38413
0.383491
0.38287
0.382267
0.381681
0.381113
0.380561
0.380026
0.379507
0.379005
0.378518
0.378046
0.377588
0.377145
0.376716
0.376301
0.375898
0.375507
0.375128
0.37476
0.374402
0.374055
0.373716
0.373387
0.373065
0.372751
0.372443
0.372141
0.371845
0.371553
0.371265
0.370981
0.370699
0.370418
0.370139
0.444406
0.42031
0.415549
0.413677
0.412245
0.411016
0.40988
0.408786
0.407715
0.406659
0.405614
0.404581
0.403558
0.402548
0.401549
0.400563
0.399591
0.398632
0.397687
0.396757
0.395841
0.394941
0.394057
0.393189
0.392338
0.391504
0.390686
0.389886
0.389104
0.38834
0.387593
0.386864
0.386153
0.385461
0.384786
0.38413
0.383491
0.38287
0.382267
0.381681
0.381113
0.380561
0.380026
0.379507
0.379005
0.378518
0.378046
0.377588
0.377145
0.376716
0.376301
0.375898
0.375507
0.375128
0.37476
0.374402
0.374055
0.373716
0.373387
0.373065
0.372751
0.372443
0.372141
0.371845
0.371553
0.371265
0.370981
0.370699
0.370418
0.370139
0.444406
0.42031
0.415549
0.413677
0.412245
0.411016
0.40988
0.408786
0.407715
0.406659
0.405614
0.404581
0.403558
0.402548
0.401549
0.400563
0.399591
0.398632
0.397687
0.396757
0.395841
0.394941
0.394057
0.393189
0.392338
0.391504
0.390686
0.389886
0.389104
0.38834
0.387593
0.386864
0.386153
0.385461
0.384786
0.38413
0.383491
0.38287
0.382267
0.381681
0.381113
0.380561
0.380026
0.379507
0.379005
0.378518
0.378046
0.377588
0.377145
0.376716
0.376301
0.375898
0.375507
0.375128
0.37476
0.374402
0.374055
0.373716
0.373387
0.373065
0.372751
0.372443
0.372141
0.371845
0.371553
0.371265
0.370981
0.370699
0.370418
0.370139
0.444406
0.42031
0.415549
0.413677
0.412245
0.411016
0.40988
0.408786
0.407715
0.406659
0.405614
0.404581
0.403558
0.402548
0.401549
0.400563
0.399591
0.398632
0.397687
0.396757
0.395841
0.394941
0.394057
0.393189
0.392338
0.391504
0.390686
0.389886
0.389104
0.38834
0.387593
0.386864
0.386153
0.385461
0.384786
0.38413
0.383491
0.38287
0.382267
0.381681
0.381113
0.380561
0.380026
0.379507
0.379005
0.378518
0.378046
0.377588
0.377145
0.376716
0.376301
0.375898
0.375507
0.375128
0.37476
0.374402
0.374055
0.373716
0.373387
0.373065
0.372751
0.372443
0.372141
0.371845
0.371553
0.371265
0.370981
0.370699
0.370418
0.370139
0.444406
0.42031
0.415549
0.413677
0.412245
0.411016
0.40988
0.408786
0.407715
0.406659
0.405614
0.404581
0.403558
0.402548
0.401549
0.400563
0.399591
0.398632
0.397687
0.396757
0.395841
0.394941
0.394057
0.393189
0.392338
0.391504
0.390686
0.389886
0.389104
0.38834
0.387593
0.386864
0.386153
0.385461
0.384786
0.38413
0.383491
0.38287
0.382267
0.381681
0.381113
0.380561
0.380026
0.379507
0.379005
0.378518
0.378046
0.377588
0.377145
0.376716
0.376301
0.375898
0.375507
0.375128
0.37476
0.374402
0.374055
0.373716
0.373387
0.373065
0.372751
0.372443
0.372141
0.371845
0.371553
0.371265
0.370981
0.370699
0.370418
0.370139
0.444406
0.42031
0.415549
0.413677
0.412245
0.411016
0.40988
0.408786
0.407715
0.406659
0.405614
0.404581
0.403558
0.402548
0.401549
0.400563
0.399591
0.398632
0.397687
0.396757
0.395841
0.394941
0.394057
0.393189
0.392338
0.391504
0.390686
0.389886
0.389104
0.38834
0.387593
0.386864
0.386153
0.385461
0.384786
0.38413
0.383491
0.38287
0.382267
0.381681
0.381113
0.380561
0.380026
0.379507
0.379005
0.378518
0.378046
0.377588
0.377145
0.376716
0.376301
0.375898
0.375507
0.375128
0.37476
0.374402
0.374055
0.373716
0.373387
0.373065
0.372751
0.372443
0.372141
0.371845
0.371553
0.371265
0.370981
0.370699
0.370418
0.370139
0.444406
0.42031
0.415549
0.413677
0.412245
0.411016
0.40988
0.408786
0.407715
0.406659
0.405614
0.404581
0.403558
0.402548
0.401549
0.400563
0.399591
0.398632
0.397687
0.396757
0.395841
0.394941
0.394057
0.393189
0.392338
0.391504
0.390686
0.389886
0.389104
0.38834
0.387593
0.386864
0.386153
0.385461
0.384786
0.38413
0.383491
0.38287
0.382267
0.381681
0.381113
0.380561
0.380026
0.379507
0.379005
0.378518
0.378046
0.377588
0.377145
0.376716
0.376301
0.375898
0.375507
0.375128
0.37476
0.374402
0.374055
0.373716
0.373387
0.373065
0.372751
0.372443
0.372141
0.371845
0.371553
0.371265
0.370981
0.370699
0.370418
0.370139
0.444406
0.42031
0.415549
0.413677
0.412245
0.411016
0.40988
0.408786
0.407715
0.406659
0.405614
0.404581
0.403558
0.402548
0.401549
0.400563
0.399591
0.398632
0.397687
0.396757
0.395841
0.394941
0.394057
0.393189
0.392338
0.391504
0.390686
0.389886
0.389104
0.38834
0.387593
0.386864
0.386153
0.385461
0.384786
0.38413
0.383491
0.38287
0.382267
0.381681
0.381113
0.380561
0.380026
0.379507
0.379005
0.378518
0.378046
0.377588
0.377145
0.376716
0.376301
0.375898
0.375507
0.375128
0.37476
0.374402
0.374055
0.373716
0.373387
0.373065
0.372751
0.372443
0.372141
0.371845
0.371553
0.371265
0.370981
0.370699
0.370418
0.370139
0.444406
0.42031
0.415549
0.413677
0.412245
0.411016
0.40988
0.408786
0.407715
0.406659
0.405614
0.404581
0.403558
0.402548
0.401549
0.400563
0.399591
0.398632
0.397687
0.396757
0.395841
0.394941
0.394057
0.393189
0.392338
0.391504
0.390686
0.389886
0.389104
0.38834
0.387593
0.386864
0.386153
0.385461
0.384786
0.38413
0.383491
0.38287
0.382267
0.381681
0.381113
0.380561
0.380026
0.379507
0.379005
0.378518
0.378046
0.377588
0.377145
0.376716
0.376301
0.375898
0.375507
0.375128
0.37476
0.374402
0.374055
0.373716
0.373387
0.373065
0.372751
0.372443
0.372141
0.371845
0.371553
0.371265
0.370981
0.370699
0.370418
0.370139
0.444406
0.42031
0.415549
0.413677
0.412245
0.411016
0.40988
0.408786
0.407715
0.406659
0.405614
0.404581
0.403558
0.402548
0.401549
0.400563
0.399591
0.398632
0.397687
0.396757
0.395841
0.394941
0.394057
0.393189
0.392338
0.391504
0.390686
0.389886
0.389104
0.38834
0.387593
0.386864
0.386153
0.385461
0.384786
0.38413
0.383491
0.38287
0.382267
0.381681
0.381113
0.380561
0.380026
0.379507
0.379005
0.378518
0.378046
0.377588
0.377145
0.376716
0.376301
0.375898
0.375507
0.375128
0.37476
0.374402
0.374055
0.373716
0.373387
0.373065
0.372751
0.372443
0.372141
0.371845
0.371553
0.371265
0.370981
0.370699
0.370418
0.370139
0.444406
0.42031
0.415549
0.413677
0.412245
0.411016
0.40988
0.408786
0.407715
0.406659
0.405614
0.404581
0.403558
0.402548
0.401549
0.400563
0.399591
0.398632
0.397687
0.396757
0.395841
0.394941
0.394057
0.393189
0.392338
0.391504
0.390686
0.389886
0.389104
0.38834
0.387593
0.386864
0.386153
0.385461
0.384786
0.38413
0.383491
0.38287
0.382267
0.381681
0.381113
0.380561
0.380026
0.379507
0.379005
0.378518
0.378046
0.377588
0.377145
0.376716
0.376301
0.375898
0.375507
0.375128
0.37476
0.374402
0.374055
0.373716
0.373387
0.373065
0.372751
0.372443
0.372141
0.371845
0.371553
0.371265
0.370981
0.370699
0.370418
0.370139
0.444406
0.42031
0.415549
0.413677
0.412245
0.411016
0.40988
0.408786
0.407715
0.406659
0.405614
0.404581
0.403558
0.402548
0.401549
0.400563
0.399591
0.398632
0.397687
0.396757
0.395841
0.394941
0.394057
0.393189
0.392338
0.391504
0.390686
0.389886
0.389104
0.38834
0.387593
0.386864
0.386153
0.385461
0.384786
0.38413
0.383491
0.38287
0.382267
0.381681
0.381113
0.380561
0.380026
0.379507
0.379005
0.378518
0.378046
0.377588
0.377145
0.376716
0.376301
0.375898
0.375507
0.375128
0.37476
0.374402
0.374055
0.373716
0.373387
0.373065
0.372751
0.372443
0.372141
0.371845
0.371553
0.371265
0.370981
0.370699
0.370418
0.370139
0.444406
0.42031
0.415549
0.413677
0.412245
0.411016
0.40988
0.408786
0.407715
0.406659
0.405614
0.404581
0.403558
0.402548
0.401549
0.400563
0.399591
0.398632
0.397687
0.396757
0.395841
0.394941
0.394057
0.393189
0.392338
0.391504
0.390686
0.389886
0.389104
0.38834
0.387593
0.386864
0.386153
0.385461
0.384786
0.38413
0.383491
0.38287
0.382267
0.381681
0.381113
0.380561
0.380026
0.379507
0.379005
0.378518
0.378046
0.377588
0.377145
0.376716
0.376301
0.375898
0.375507
0.375128
0.37476
0.374402
0.374055
0.373716
0.373387
0.373065
0.372751
0.372443
0.372141
0.371845
0.371553
0.371265
0.370981
0.370699
0.370418
0.370139
0.444406
0.42031
0.415549
0.413677
0.412245
0.411016
0.40988
0.408786
0.407715
0.406659
0.405614
0.404581
0.403558
0.402548
0.401549
0.400563
0.399591
0.398632
0.397687
0.396757
0.395841
0.394941
0.394057
0.393189
0.392338
0.391504
0.390686
0.389886
0.389104
0.38834
0.387593
0.386864
0.386153
0.385461
0.384786
0.38413
0.383491
0.38287
0.382267
0.381681
0.381113
0.380561
0.380026
0.379507
0.379005
0.378518
0.378046
0.377588
0.377145
0.376716
0.376301
0.375898
0.375507
0.375128
0.37476
0.374402
0.374055
0.373716
0.373387
0.373065
0.372751
0.372443
0.372141
0.371845
0.371553
0.371265
0.370981
0.370699
0.370418
0.370139
0.444406
0.42031
0.415549
0.413677
0.412245
0.411016
0.40988
0.408786
0.407715
0.406659
0.405614
0.404581
0.403558
0.402548
0.401549
0.400563
0.399591
0.398632
0.397687
0.396757
0.395841
0.394941
0.394057
0.393189
0.392338
0.391504
0.390686
0.389886
0.389104
0.38834
0.387593
0.386864
0.386153
0.385461
0.384786
0.38413
0.383491
0.38287
0.382267
0.381681
0.381113
0.380561
0.380026
0.379507
0.379005
0.378518
0.378046
0.377588
0.377145
0.376716
0.376301
0.375898
0.375507
0.375128
0.37476
0.374402
0.374055
0.373716
0.373387
0.373065
0.372751
0.372443
0.372141
0.371845
0.371553
0.371265
0.370981
0.370699
0.370418
0.370139
0.444406
0.42031
0.415549
0.413677
0.412245
0.411016
0.40988
0.408786
0.407715
0.406659
0.405614
0.404581
0.403558
0.402548
0.401549
0.400563
0.399591
0.398632
0.397687
0.396757
0.395841
0.394941
0.394057
0.393189
0.392338
0.391504
0.390686
0.389886
0.389104
0.38834
0.387593
0.386864
0.386153
0.385461
0.384786
0.38413
0.383491
0.38287
0.382267
0.381681
0.381113
0.380561
0.380026
0.379507
0.379005
0.378518
0.378046
0.377588
0.377145
0.376716
0.376301
0.375898
0.375507
0.375128
0.37476
0.374402
0.374055
0.373716
0.373387
0.373065
0.372751
0.372443
0.372141
0.371845
0.371553
0.371265
0.370981
0.370699
0.370418
0.370139
0.444406
0.42031
0.415549
0.413677
0.412245
0.411016
0.40988
0.408786
0.407715
0.406659
0.405614
0.404581
0.403558
0.402548
0.401549
0.400563
0.399591
0.398632
0.397687
0.396757
0.395841
0.394941
0.394057
0.393189
0.392338
0.391504
0.390686
0.389886
0.389104
0.38834
0.387593
0.386864
0.386153
0.385461
0.384786
0.38413
0.383491
0.38287
0.382267
0.381681
0.381113
0.380561
0.380026
0.379507
0.379005
0.378518
0.378046
0.377588
0.377145
0.376716
0.376301
0.375898
0.375507
0.375128
0.37476
0.374402
0.374055
0.373716
0.373387
0.373065
0.372751
0.372443
0.372141
0.371845
0.371553
0.371265
0.370981
0.370699
0.370418
0.370139
0.444406
0.42031
0.415549
0.413677
0.412245
0.411016
0.40988
0.408786
0.407715
0.406659
0.405614
0.404581
0.403558
0.402548
0.401549
0.400563
0.399591
0.398632
0.397687
0.396757
0.395841
0.394941
0.394057
0.393189
0.392338
0.391504
0.390686
0.389886
0.389104
0.38834
0.387593
0.386864
0.386153
0.385461
0.384786
0.38413
0.383491
0.38287
0.382267
0.381681
0.381113
0.380561
0.380026
0.379507
0.379005
0.378518
0.378046
0.377588
0.377145
0.376716
0.376301
0.375898
0.375507
0.375128
0.37476
0.374402
0.374055
0.373716
0.373387
0.373065
0.372751
0.372443
0.372141
0.371845
0.371553
0.371265
0.370981
0.370699
0.370418
0.370139
0.444406
0.42031
0.415549
0.413677
0.412245
0.411016
0.40988
0.408786
0.407715
0.406659
0.405614
0.404581
0.403558
0.402548
0.401549
0.400563
0.399591
0.398632
0.397687
0.396757
0.395841
0.394941
0.394057
0.393189
0.392338
0.391504
0.390686
0.389886
0.389104
0.38834
0.387593
0.386864
0.386153
0.385461
0.384786
0.38413
0.383491
0.38287
0.382267
0.381681
0.381113
0.380561
0.380026
0.379507
0.379005
0.378518
0.378046
0.377588
0.377145
0.376716
0.376301
0.375898
0.375507
0.375128
0.37476
0.374402
0.374055
0.373716
0.373387
0.373065
0.372751
0.372443
0.372141
0.371845
0.371553
0.371265
0.370981
0.370699
0.370418
0.370139
0.444406
0.42031
0.415549
0.413677
0.412245
0.411016
0.40988
0.408786
0.407715
0.406659
0.405614
0.404581
0.403558
0.402548
0.401549
0.400563
0.399591
0.398632
0.397687
0.396757
0.395841
0.394941
0.394057
0.393189
0.392338
0.391504
0.390686
0.389886
0.389104
0.38834
0.387593
0.386864
0.386153
0.385461
0.384786
0.38413
0.383491
0.38287
0.382267
0.381681
0.381113
0.380561
0.380026
0.379507
0.379005
0.378518
0.378046
0.377588
0.377145
0.376716
0.376301
0.375898
0.375507
0.375128
0.37476
0.374402
0.374055
0.373716
0.373387
0.373065
0.372751
0.372443
0.372141
0.371845
0.371553
0.371265
0.370981
0.370699
0.370418
0.370139
0.444406
0.42031
0.415549
0.413677
0.412245
0.411016
0.40988
0.408786
0.407715
0.406659
0.405614
0.404581
0.403558
0.402548
0.401549
0.400563
0.399591
0.398632
0.397687
0.396757
0.395841
0.394941
0.394057
0.393189
0.392338
0.391504
0.390686
0.389886
0.389104
0.38834
0.387593
0.386864
0.386153
0.385461
0.384786
0.38413
0.383491
0.38287
0.382267
0.381681
0.381113
0.380561
0.380026
0.379507
0.379005
0.378518
0.378046
0.377588
0.377145
0.376716
0.376301
0.375898
0.375507
0.375128
0.37476
0.374402
0.374055
0.373716
0.373387
0.373065
0.372751
0.372443
0.372141
0.371845
0.371553
0.371265
0.370981
0.370699
0.370418
0.370139
0.444406
0.42031
0.415549
0.413677
0.412245
0.411016
0.40988
0.408786
0.407715
0.406659
0.405614
0.404581
0.403558
0.402548
0.401549
0.400563
0.399591
0.398632
0.397687
0.396757
0.395841
0.394941
0.394057
0.393189
0.392338
0.391504
0.390686
0.389886
0.389104
0.38834
0.387593
0.386864
0.386153
0.385461
0.384786
0.38413
0.383491
0.38287
0.382267
0.381681
0.381113
0.380561
0.380026
0.379507
0.379005
0.378518
0.378046
0.377588
0.377145
0.376716
0.376301
0.375898
0.375507
0.375128
0.37476
0.374402
0.374055
0.373716
0.373387
0.373065
0.372751
0.372443
0.372141
0.371845
0.371553
0.371265
0.370981
0.370699
0.370418
0.370139
0.444406
0.42031
0.415549
0.413677
0.412245
0.411016
0.40988
0.408786
0.407715
0.406659
0.405614
0.404581
0.403558
0.402548
0.401549
0.400563
0.399591
0.398632
0.397687
0.396757
0.395841
0.394941
0.394057
0.393189
0.392338
0.391504
0.390686
0.389886
0.389104
0.38834
0.387593
0.386864
0.386153
0.385461
0.384786
0.38413
0.383491
0.38287
0.382267
0.381681
0.381113
0.380561
0.380026
0.379507
0.379005
0.378518
0.378046
0.377588
0.377145
0.376716
0.376301
0.375898
0.375507
0.375128
0.37476
0.374402
0.374055
0.373716
0.373387
0.373065
0.372751
0.372443
0.372141
0.371845
0.371553
0.371265
0.370981
0.370699
0.370418
0.370139
0.444406
0.42031
0.415549
0.413677
0.412245
0.411016
0.40988
0.408786
0.407715
0.406659
0.405614
0.404581
0.403558
0.402548
0.401549
0.400563
0.399591
0.398632
0.397687
0.396757
0.395841
0.394941
0.394057
0.393189
0.392338
0.391504
0.390686
0.389886
0.389104
0.38834
0.387593
0.386864
0.386153
0.385461
0.384786
0.38413
0.383491
0.38287
0.382267
0.381681
0.381113
0.380561
0.380026
0.379507
0.379005
0.378518
0.378046
0.377588
0.377145
0.376716
0.376301
0.375898
0.375507
0.375128
0.37476
0.374402
0.374055
0.373716
0.373387
0.373065
0.372751
0.372443
0.372141
0.371845
0.371553
0.371265
0.370981
0.370699
0.370418
0.370139
0.444406
0.42031
0.415549
0.413677
0.412245
0.411016