/*--------------------------------*- C++ -*----------------------------------*\
  =========                 |
  \\      /  F ield         | OpenFOAM: The Open Source CFD Toolbox
   \\    /   O peration     | Website:  https://openfoam.org
    \\  /    A nd           | Version:  13
     \\/     M anipulation  |
\*---------------------------------------------------------------------------*/
FoamFile
{
    format      ascii;
    class       volScalarField;
    location    "13";
    object      k;
}
// * * * * * * * * * * * * * * * * * * * * * * * * * * * * * * * * * * * * * //

dimensions      [0 2 -2 0 0 0 0];

internalField   nonuniform List<scalar> 
78750
(
1.72611e-11
4.93154e-10
2.24372e-09
4.08411e-09
6.04489e-09
8.14633e-09
1.03914e-08
1.27627e-08
1.52221e-08
1.77145e-08
2.01715e-08
2.25167e-08
2.46718e-08
2.65607e-08
2.81147e-08
2.92758e-08
3.00004e-08
3.02607e-08
3.0047e-08
2.93673e-08
2.82475e-08
2.673e-08
2.48711e-08
2.27387e-08
2.04079e-08
1.79569e-08
1.54618e-08
1.29916e-08
1.06023e-08
8.33297e-09
6.20191e-09
4.20607e-09
2.32266e-09
5.14049e-10
1.80582e-11
3.80413e-10
1.10405e-08
5.52792e-08
1.01369e-07
1.50461e-07
2.03242e-07
2.59849e-07
3.19836e-07
3.82204e-07
4.45492e-07
5.07909e-07
5.67483e-07
6.22195e-07
6.70107e-07
7.09471e-07
7.38828e-07
7.57074e-07
7.63523e-07
7.57929e-07
7.40504e-07
7.11906e-07
6.73206e-07
6.25841e-07
5.71537e-07
5.12215e-07
4.49885e-07
3.86518e-07
3.23911e-07
2.63539e-07
2.06423e-07
1.53032e-07
1.03248e-07
5.63854e-08
1.12773e-08
3.88768e-10
1.13617e-09
3.29923e-08
1.65457e-07
3.05452e-07
4.58104e-07
6.26633e-07
8.12017e-07
1.01277e-06
1.22501e-06
1.44294e-06
1.65961e-06
1.86764e-06
2.05953e-06
2.22808e-06
2.36679e-06
2.47023e-06
2.53437e-06
2.5567e-06
2.53634e-06
2.4741e-06
2.3724e-06
2.23523e-06
2.06794e-06
1.87699e-06
1.66955e-06
1.45309e-06
1.23501e-06
1.02222e-06
8.20554e-07
6.33952e-07
4.63963e-07
3.09676e-07
1.67908e-07
3.35121e-08
1.15443e-09
2.17514e-09
6.3199e-08
3.16748e-07
5.85201e-07
8.79314e-07
1.20551e-06
1.5653e-06
1.95488e-06
2.36557e-06
2.78543e-06
3.20116e-06
3.59902e-06
3.9651e-06
4.28594e-06
4.54941e-06
4.74549e-06
4.86674e-06
4.90859e-06
4.86947e-06
4.75085e-06
4.55721e-06
4.29588e-06
3.97682e-06
3.61208e-06
3.21508e-06
2.79972e-06
2.37971e-06
1.96835e-06
1.57757e-06
1.2161e-06
8.87828e-07
5.91345e-07
3.20307e-07
6.39547e-08
2.20166e-09
3.19372e-09
9.28444e-08
4.64751e-07
8.57659e-07
1.28756e-06
1.76335e-06
2.28619e-06
2.84914e-06
3.43836e-06
4.03626e-06
4.62407e-06
5.18296e-06
5.69434e-06
6.1405e-06
6.50557e-06
6.7765e-06
6.94362e-06
7.001e-06
6.94663e-06
6.78241e-06
6.51417e-06
6.15148e-06
5.70732e-06
5.19746e-06
4.6396e-06
4.0523e-06
3.45434e-06
2.86445e-06
2.30024e-06
1.77554e-06
1.29741e-06
8.64785e-07
4.6888e-07
9.37242e-08
3.22457e-09
3.96747e-09
1.154e-07
5.77088e-07
1.06365e-06
1.59491e-06
2.18126e-06
2.82323e-06
3.51115e-06
4.22734e-06
4.95023e-06
5.65737e-06
6.32665e-06
6.93663e-06
7.4671e-06
7.9001e-06
8.22083e-06
8.41835e-06
8.48596e-06
8.42136e-06
8.22673e-06
7.9087e-06
7.4781e-06
6.94965e-06
6.34124e-06
5.67304e-06
4.96647e-06
4.24359e-06
3.52679e-06
2.83764e-06
2.19382e-06
1.60508e-06
1.07102e-06
5.81354e-07
1.16312e-07
3.99946e-09
4.44486e-09
1.29344e-07
6.46463e-07
1.19053e-06
1.78367e-06
2.43711e-06
3.15082e-06
3.91342e-06
4.70493e-06
5.50146e-06
6.27847e-06
7.01203e-06
7.67916e-06
8.25831e-06
8.73039e-06
9.07972e-06
9.29467e-06
9.3681e-06
9.29759e-06
9.08547e-06
8.73877e-06
8.26902e-06
7.69185e-06
7.02627e-06
6.29379e-06
5.51737e-06
4.72089e-06
3.92882e-06
3.16504e-06
2.44952e-06
1.79373e-06
1.19782e-06
6.50681e-07
1.30248e-07
4.47657e-09
4.69227e-09
1.36587e-07
6.82506e-07
1.25636e-06
1.88145e-06
2.5694e-06
3.31989e-06
4.12062e-06
4.95044e-06
5.78431e-06
6.59666e-06
7.36267e-06
8.05857e-06
8.66219e-06
9.15391e-06
9.51759e-06
9.74126e-06
9.81761e-06
9.74412e-06
9.5232e-06
9.16209e-06
8.67266e-06
8.07097e-06
7.3766e-06
6.61167e-06
5.79991e-06
4.9661e-06
4.13575e-06
3.33387e-06
2.58162e-06
1.89135e-06
1.26353e-06
6.86653e-07
1.37477e-07
4.72351e-09
4.80285e-09
1.39833e-07
6.98672e-07
1.28586e-06
1.92525e-06
2.62862e-06
3.39552e-06
4.21322e-06
5.06008e-06
5.91054e-06
6.73857e-06
7.51895e-06
8.2276e-06
8.84206e-06
9.34247e-06
9.71249e-06
9.94003e-06
1.00177e-05
9.94285e-06
9.71804e-06
9.35055e-06
8.8524e-06
8.23986e-06
7.53272e-06
6.75341e-06
5.92597e-06
5.07558e-06
4.2282e-06
3.40936e-06
2.64072e-06
1.93506e-06
1.29296e-06
7.02776e-07
1.40714e-07
4.8338e-09
4.84635e-09
1.41113e-07
7.05057e-07
1.29752e-06
1.94255e-06
2.65201e-06
3.42538e-06
4.24978e-06
5.10336e-06
5.96035e-06
6.79456e-06
7.58062e-06
8.2943e-06
8.91303e-06
9.41687e-06
9.78939e-06
1.00184e-05
1.00966e-05
1.00213e-05
9.7949e-06
9.4249e-06
8.92332e-06
8.30649e-06
7.59433e-06
6.80934e-06
5.97572e-06
5.11879e-06
4.2647e-06
3.43916e-06
2.66406e-06
1.95232e-06
1.30459e-06
7.09143e-07
1.41991e-07
4.87717e-09
4.86166e-09
1.41565e-07
7.07314e-07
1.30164e-06
1.94866e-06
2.66028e-06
3.43594e-06
4.26271e-06
5.11867e-06
5.97798e-06
6.81438e-06
7.60245e-06
8.31791e-06
8.93816e-06
9.44321e-06
9.81662e-06
1.00462e-05
1.01245e-05
1.0049e-05
9.82213e-06
9.45124e-06
8.94844e-06
8.33009e-06
7.61614e-06
6.82914e-06
5.99333e-06
5.13408e-06
4.27761e-06
3.44971e-06
2.67231e-06
1.95842e-06
1.3087e-06
7.11393e-07
1.42441e-07
4.89244e-09
4.86654e-09
1.41709e-07
7.08036e-07
1.30296e-06
1.95062e-06
2.66293e-06
3.43933e-06
4.26686e-06
5.12358e-06
5.98364e-06
6.82075e-06
7.60946e-06
8.32549e-06
8.94623e-06
9.45167e-06
9.82537e-06
1.00551e-05
1.01335e-05
1.00579e-05
9.83088e-06
9.4597e-06
8.9565e-06
8.33767e-06
7.62314e-06
6.8355e-06
5.99898e-06
5.13899e-06
4.28175e-06
3.45309e-06
2.67496e-06
1.96038e-06
1.31002e-06
7.12114e-07
1.42585e-07
4.8973e-09
4.86796e-09
1.41751e-07
7.08247e-07
1.30334e-06
1.9512e-06
2.66371e-06
3.44032e-06
4.26808e-06
5.12502e-06
5.9853e-06
6.82261e-06
7.61152e-06
8.32772e-06
8.9486e-06
9.45416e-06
9.82795e-06
1.00578e-05
1.01362e-05
1.00606e-05
9.83345e-06
9.46219e-06
8.95888e-06
8.3399e-06
7.6252e-06
6.83736e-06
6.00064e-06
5.14043e-06
4.28297e-06
3.45408e-06
2.67574e-06
1.96095e-06
1.3104e-06
7.12325e-07
1.42627e-07
4.89872e-09
4.86834e-09
1.41762e-07
7.08304e-07
1.30345e-06
1.95135e-06
2.66392e-06
3.44059e-06
4.26841e-06
5.12541e-06
5.98575e-06
6.82312e-06
7.61208e-06
8.32832e-06
8.94925e-06
9.45484e-06
9.82864e-06
1.00585e-05
1.01369e-05
1.00613e-05
9.83415e-06
9.46286e-06
8.95952e-06
8.3405e-06
7.62576e-06
6.83787e-06
6.00109e-06
5.14082e-06
4.2833e-06
3.45435e-06
2.67595e-06
1.96111e-06
1.31051e-06
7.12382e-07
1.42638e-07
4.8991e-09
4.86843e-09
1.41765e-07
7.08318e-07
1.30347e-06
1.95139e-06
2.66397e-06
3.44065e-06
4.26849e-06
5.12551e-06
5.98586e-06
6.82325e-06
7.61222e-06
8.32848e-06
8.94941e-06
9.45501e-06
9.82882e-06
1.00587e-05
1.01371e-05
1.00615e-05
9.83432e-06
9.46303e-06
8.95968e-06
8.34065e-06
7.6259e-06
6.838e-06
6.0012e-06
5.14092e-06
4.28338e-06
3.45442e-06
2.676e-06
1.96115e-06
1.31053e-06
7.12397e-07
1.42641e-07
4.8992e-09
4.86845e-09
1.41766e-07
7.08322e-07
1.30348e-06
1.9514e-06
2.66398e-06
3.44067e-06
4.26851e-06
5.12554e-06
5.98589e-06
6.82328e-06
7.61225e-06
8.32851e-06
8.94945e-06
9.45505e-06
9.82886e-06
1.00587e-05
1.01371e-05
1.00615e-05
9.83436e-06
9.46307e-06
8.95972e-06
8.34069e-06
7.62593e-06
6.83803e-06
6.00123e-06
5.14094e-06
4.2834e-06
3.45443e-06
2.67601e-06
1.96116e-06
1.31054e-06
7.124e-07
1.42642e-07
4.89922e-09
4.86846e-09
1.41766e-07
7.08322e-07
1.30348e-06
1.9514e-06
2.66398e-06
3.44067e-06
4.26851e-06
5.12554e-06
5.98589e-06
6.82328e-06
7.61226e-06
8.32852e-06
8.94945e-06
9.45505e-06
9.82887e-06
1.00587e-05
1.01371e-05
1.00615e-05
9.83437e-06
9.46308e-06
8.95973e-06
8.3407e-06
7.62594e-06
6.83803e-06
6.00124e-06
5.14095e-06
4.28341e-06
3.45444e-06
2.67601e-06
1.96116e-06
1.31054e-06
7.12401e-07
1.42642e-07
4.89923e-09
4.86846e-09
1.41766e-07
7.08323e-07
1.30348e-06
1.9514e-06
2.66398e-06
3.44067e-06
4.26851e-06
5.12554e-06
5.9859e-06
6.82328e-06
7.61226e-06
8.32852e-06
8.94946e-06
9.45506e-06
9.82887e-06
1.00587e-05
1.01371e-05
1.00615e-05
9.83438e-06
9.46308e-06
8.95973e-06
8.3407e-06
7.62594e-06
6.83804e-06
6.00124e-06
5.14095e-06
4.28341e-06
3.45444e-06
2.67602e-06
1.96116e-06
1.31054e-06
7.12401e-07
1.42642e-07
4.89923e-09
4.86846e-09
1.41766e-07
7.08323e-07
1.30348e-06
1.9514e-06
2.66398e-06
3.44067e-06
4.26851e-06
5.12554e-06
5.9859e-06
6.82328e-06
7.61226e-06
8.32852e-06
8.94946e-06
9.45506e-06
9.82887e-06
1.00587e-05
1.01371e-05
1.00615e-05
9.83438e-06
9.46308e-06
8.95973e-06
8.3407e-06
7.62594e-06
6.83804e-06
6.00124e-06
5.14095e-06
4.28341e-06
3.45444e-06
2.67602e-06
1.96116e-06
1.31054e-06
7.12401e-07
1.42642e-07
4.89923e-09
4.86846e-09
1.41766e-07
7.08323e-07
1.30348e-06
1.9514e-06
2.66398e-06
3.44067e-06
4.26851e-06
5.12554e-06
5.9859e-06
6.82328e-06
7.61226e-06
8.32852e-06
8.94946e-06
9.45506e-06
9.82887e-06
1.00587e-05
1.01371e-05
1.00615e-05
9.83438e-06
9.46308e-06
8.95973e-06
8.3407e-06
7.62594e-06
6.83804e-06
6.00124e-06
5.14095e-06
4.28341e-06
3.45444e-06
2.67602e-06
1.96116e-06
1.31054e-06
7.12401e-07
1.42642e-07
4.89923e-09
4.86846e-09
1.41766e-07
7.08323e-07
1.30348e-06
1.9514e-06
2.66398e-06
3.44067e-06
4.26851e-06
5.12554e-06
5.9859e-06
6.82328e-06
7.61226e-06
8.32852e-06
8.94946e-06
9.45506e-06
9.82887e-06
1.00587e-05
1.01371e-05
1.00615e-05
9.83438e-06
9.46308e-06
8.95973e-06
8.3407e-06
7.62594e-06
6.83804e-06
6.00124e-06
5.14095e-06
4.28341e-06
3.45444e-06
2.67602e-06
1.96116e-06
1.31054e-06
7.12401e-07
1.42642e-07
4.89923e-09
4.86846e-09
1.41766e-07
7.08323e-07
1.30348e-06
1.9514e-06
2.66398e-06
3.44067e-06
4.26851e-06
5.12554e-06
5.9859e-06
6.82328e-06
7.61226e-06
8.32852e-06
8.94946e-06
9.45506e-06
9.82887e-06
1.00587e-05
1.01371e-05
1.00615e-05
9.83438e-06
9.46308e-06
8.95973e-06
8.3407e-06
7.62594e-06
6.83804e-06
6.00124e-06
5.14095e-06
4.28341e-06
3.45444e-06
2.67602e-06
1.96116e-06
1.31054e-06
7.12401e-07
1.42642e-07
4.89923e-09
4.86846e-09
1.41766e-07
7.08323e-07
1.30348e-06
1.9514e-06
2.66398e-06
3.44067e-06
4.26851e-06
5.12554e-06
5.9859e-06
6.82328e-06
7.61226e-06
8.32852e-06
8.94946e-06
9.45506e-06
9.82887e-06
1.00587e-05
1.01371e-05
1.00615e-05
9.83438e-06
9.46308e-06
8.95973e-06
8.3407e-06
7.62594e-06
6.83804e-06
6.00124e-06
5.14095e-06
4.28341e-06
3.45444e-06
2.67602e-06
1.96116e-06
1.31054e-06
7.12401e-07
1.42642e-07
4.89923e-09
4.86846e-09
1.41766e-07
7.08323e-07
1.30348e-06
1.9514e-06
2.66398e-06
3.44067e-06
4.26851e-06
5.12554e-06
5.9859e-06
6.82328e-06
7.61226e-06
8.32852e-06
8.94946e-06
9.45506e-06
9.82887e-06
1.00587e-05
1.01371e-05
1.00615e-05
9.83438e-06
9.46308e-06
8.95973e-06
8.3407e-06
7.62594e-06
6.83804e-06
6.00124e-06
5.14095e-06
4.28341e-06
3.45444e-06
2.67602e-06
1.96116e-06
1.31054e-06
7.12401e-07
1.42642e-07
4.89923e-09
4.86846e-09
1.41766e-07
7.08323e-07
1.30348e-06
1.9514e-06
2.66398e-06
3.44067e-06
4.26851e-06
5.12554e-06
5.9859e-06
6.82328e-06
7.61226e-06
8.32852e-06
8.94946e-06
9.45506e-06
9.82887e-06
1.00587e-05
1.01371e-05
1.00615e-05
9.83438e-06
9.46308e-06
8.95973e-06
8.3407e-06
7.62594e-06
6.83804e-06
6.00124e-06
5.14095e-06
4.28341e-06
3.45444e-06
2.67602e-06
1.96116e-06
1.31054e-06
7.12401e-07
1.42642e-07
4.89923e-09
4.86846e-09
1.41766e-07
7.08323e-07
1.30348e-06
1.9514e-06
2.66398e-06
3.44067e-06
4.26851e-06
5.12554e-06
5.9859e-06
6.82328e-06
7.61226e-06
8.32852e-06
8.94946e-06
9.45506e-06
9.82887e-06
1.00587e-05
1.01371e-05
1.00615e-05
9.83438e-06
9.46308e-06
8.95973e-06
8.3407e-06
7.62594e-06
6.83804e-06
6.00124e-06
5.14095e-06
4.28341e-06
3.45444e-06
2.67602e-06
1.96116e-06
1.31054e-06
7.12401e-07
1.42642e-07
4.89923e-09
4.86846e-09
1.41766e-07
7.08323e-07
1.30348e-06
1.9514e-06
2.66398e-06
3.44067e-06
4.26851e-06
5.12554e-06
5.9859e-06
6.82328e-06
7.61226e-06
8.32852e-06
8.94946e-06
9.45506e-06
9.82887e-06
1.00587e-05
1.01371e-05
1.00615e-05
9.83438e-06
9.46308e-06
8.95973e-06
8.3407e-06
7.62594e-06
6.83804e-06
6.00124e-06
5.14095e-06
4.28341e-06
3.45444e-06
2.67602e-06
1.96116e-06
1.31054e-06
7.12401e-07
1.42642e-07
4.89923e-09
4.86846e-09
1.41766e-07
7.08323e-07
1.30348e-06
1.9514e-06
2.66398e-06
3.44067e-06
4.26851e-06
5.12554e-06
5.9859e-06
6.82328e-06
7.61226e-06
8.32852e-06
8.94946e-06
9.45506e-06
9.82887e-06
1.00587e-05
1.01371e-05
1.00615e-05
9.83438e-06
9.46308e-06
8.95973e-06
8.3407e-06
7.62594e-06
6.83804e-06
6.00124e-06
5.14095e-06
4.28341e-06
3.45444e-06
2.67602e-06
1.96116e-06
1.31054e-06
7.12401e-07
1.42642e-07
4.89923e-09
4.86846e-09
1.41766e-07
7.08323e-07
1.30348e-06
1.9514e-06
2.66398e-06
3.44067e-06
4.26851e-06
5.12554e-06
5.9859e-06
6.82328e-06
7.61226e-06
8.32852e-06
8.94946e-06
9.45506e-06
9.82887e-06
1.00587e-05
1.01371e-05
1.00615e-05
9.83438e-06
9.46308e-06
8.95973e-06
8.3407e-06
7.62594e-06
6.83804e-06
6.00124e-06
5.14095e-06
4.28341e-06
3.45444e-06
2.67602e-06
1.96116e-06
1.31054e-06
7.12401e-07
1.42642e-07
4.89923e-09
4.86846e-09
1.41766e-07
7.08323e-07
1.30348e-06
1.9514e-06
2.66398e-06
3.44067e-06
4.26851e-06
5.12554e-06
5.9859e-06
6.82328e-06
7.61226e-06
8.32852e-06
8.94946e-06
9.45506e-06
9.82887e-06
1.00587e-05
1.01371e-05
1.00615e-05
9.83438e-06
9.46308e-06
8.95973e-06
8.3407e-06
7.62594e-06
6.83804e-06
6.00124e-06
5.14095e-06
4.28341e-06
3.45444e-06
2.67602e-06
1.96116e-06
1.31054e-06
7.12401e-07
1.42642e-07
4.89923e-09
4.86846e-09
1.41766e-07
7.08323e-07
1.30348e-06
1.9514e-06
2.66398e-06
3.44067e-06
4.26851e-06
5.12554e-06
5.9859e-06
6.82328e-06
7.61226e-06
8.32852e-06
8.94946e-06
9.45506e-06
9.82887e-06
1.00587e-05
1.01371e-05
1.00615e-05
9.83438e-06
9.46308e-06
8.95973e-06
8.3407e-06
7.62594e-06
6.83804e-06
6.00124e-06
5.14095e-06
4.28341e-06
3.45444e-06
2.67602e-06
1.96116e-06
1.31054e-06
7.12401e-07
1.42642e-07
4.89923e-09
4.86846e-09
1.41766e-07
7.08323e-07
1.30348e-06
1.9514e-06
2.66398e-06
3.44067e-06
4.26851e-06
5.12554e-06
5.9859e-06
6.82328e-06
7.61226e-06
8.32852e-06
8.94946e-06
9.45506e-06
9.82887e-06
1.00587e-05
1.01371e-05
1.00615e-05
9.83438e-06
9.46308e-06
8.95973e-06
8.3407e-06
7.62594e-06
6.83804e-06
6.00124e-06
5.14095e-06
4.28341e-06
3.45444e-06
2.67602e-06
1.96116e-06
1.31054e-06
7.12401e-07
1.42642e-07
4.89923e-09
4.86846e-09
1.41766e-07
7.08323e-07
1.30348e-06
1.9514e-06
2.66398e-06
3.44067e-06
4.26851e-06
5.12554e-06
5.9859e-06
6.82328e-06
7.61226e-06
8.32852e-06
8.94946e-06
9.45506e-06
9.82887e-06
1.00587e-05
1.01371e-05
1.00615e-05
9.83438e-06
9.46308e-06
8.95973e-06
8.3407e-06
7.62594e-06
6.83804e-06
6.00124e-06
5.14095e-06
4.28341e-06
3.45444e-06
2.67602e-06
1.96116e-06
1.31054e-06
7.12401e-07
1.42642e-07
4.89923e-09
4.86846e-09
1.41766e-07
7.08323e-07
1.30348e-06
1.9514e-06
2.66398e-06
3.44067e-06
4.26851e-06
5.12554e-06
5.9859e-06
6.82328e-06
7.61226e-06
8.32852e-06
8.94946e-06
9.45506e-06
9.82887e-06
1.00587e-05
1.01371e-05
1.00615e-05
9.83438e-06
9.46308e-06
8.95973e-06
8.3407e-06
7.62594e-06
6.83804e-06
6.00124e-06
5.14095e-06
4.28341e-06
3.45444e-06
2.67602e-06
1.96116e-06
1.31054e-06
7.12401e-07
1.42642e-07
4.89923e-09
4.86846e-09
1.41766e-07
7.08323e-07
1.30348e-06
1.9514e-06
2.66398e-06
3.44067e-06
4.26851e-06
5.12554e-06
5.9859e-06
6.82328e-06
7.61226e-06
8.32852e-06
8.94946e-06
9.45506e-06
9.82887e-06
1.00587e-05
1.01371e-05
1.00615e-05
9.83438e-06
9.46308e-06
8.95973e-06
8.3407e-06
7.62594e-06
6.83804e-06
6.00124e-06
5.14095e-06
4.28341e-06
3.45444e-06
2.67602e-06
1.96116e-06
1.31054e-06
7.12401e-07
1.42642e-07
4.89923e-09
4.86846e-09
1.41766e-07
7.08323e-07
1.30348e-06
1.9514e-06
2.66398e-06
3.44067e-06
4.26851e-06
5.12554e-06
5.9859e-06
6.82328e-06
7.61226e-06
8.32852e-06
8.94946e-06
9.45506e-06
9.82887e-06
1.00587e-05
1.01371e-05
1.00615e-05
9.83438e-06
9.46308e-06
8.95973e-06
8.3407e-06
7.62594e-06
6.83804e-06
6.00124e-06
5.14095e-06
4.28341e-06
3.45444e-06
2.67602e-06
1.96116e-06
1.31054e-06
7.12401e-07
1.42642e-07
4.89923e-09
4.86846e-09
1.41766e-07
7.08323e-07
1.30348e-06
1.9514e-06
2.66398e-06
3.44067e-06
4.26851e-06
5.12554e-06
5.9859e-06
6.82328e-06
7.61226e-06
8.32852e-06
8.94946e-06
9.45506e-06
9.82887e-06
1.00587e-05
1.01371e-05
1.00615e-05
9.83438e-06
9.46308e-06
8.95973e-06
8.3407e-06
7.62594e-06
6.83804e-06
6.00124e-06
5.14095e-06
4.28341e-06
3.45444e-06
2.67602e-06
1.96116e-06
1.31054e-06
7.12401e-07
1.42642e-07
4.89923e-09
4.86846e-09
1.41766e-07
7.08323e-07
1.30348e-06
1.9514e-06
2.66398e-06
3.44067e-06
4.26851e-06
5.12554e-06
5.9859e-06
6.82328e-06
7.61226e-06
8.32852e-06
8.94946e-06
9.45506e-06
9.82887e-06
1.00587e-05
1.01371e-05
1.00615e-05
9.83438e-06
9.46308e-06
8.95973e-06
8.3407e-06
7.62594e-06
6.83804e-06
6.00124e-06
5.14095e-06
4.28341e-06
3.45444e-06
2.67602e-06
1.96116e-06
1.31054e-06
7.12401e-07
1.42642e-07
4.89923e-09
4.86846e-09
1.41766e-07
7.08323e-07
1.30348e-06
1.9514e-06
2.66398e-06
3.44067e-06
4.26851e-06
5.12554e-06
5.9859e-06
6.82328e-06
7.61226e-06
8.32852e-06
8.94946e-06
9.45506e-06
9.82887e-06
1.00587e-05
1.01371e-05
1.00615e-05
9.83438e-06
9.46308e-06
8.95973e-06
8.3407e-06
7.62594e-06
6.83804e-06
6.00124e-06
5.14095e-06
4.28341e-06
3.45444e-06
2.67602e-06
1.96116e-06
1.31054e-06
7.12401e-07
1.42642e-07
4.89923e-09
4.86846e-09
1.41766e-07
7.08323e-07
1.30348e-06
1.9514e-06
2.66398e-06
3.44067e-06
4.26851e-06
5.12554e-06
5.9859e-06
6.82328e-06
7.61226e-06
8.32852e-06
8.94946e-06
9.45506e-06
9.82887e-06
1.00587e-05
1.01371e-05
1.00615e-05
9.83438e-06
9.46308e-06
8.95973e-06
8.3407e-06
7.62594e-06
6.83804e-06
6.00124e-06
5.14095e-06
4.28341e-06
3.45444e-06
2.67602e-06
1.96116e-06
1.31054e-06
7.12401e-07
1.42642e-07
4.89923e-09
4.86846e-09
1.41766e-07
7.08323e-07
1.30348e-06
1.9514e-06
2.66398e-06
3.44067e-06
4.26851e-06
5.12554e-06
5.9859e-06
6.82328e-06
7.61226e-06
8.32852e-06
8.94946e-06
9.45506e-06
9.82887e-06
1.00587e-05
1.01371e-05
1.00615e-05
9.83438e-06
9.46308e-06
8.95973e-06
8.3407e-06
7.62594e-06
6.83804e-06
6.00124e-06
5.14095e-06
4.28341e-06
3.45444e-06
2.67602e-06
1.96116e-06
1.31054e-06
7.12401e-07
1.42642e-07
4.89923e-09
4.86846e-09
1.41766e-07
7.08323e-07
1.30348e-06
1.9514e-06
2.66398e-06
3.44067e-06
4.26851e-06
5.12554e-06
5.9859e-06
6.82328e-06
7.61226e-06
8.32852e-06
8.94946e-06
9.45506e-06
9.82887e-06
1.00587e-05
1.01371e-05
1.00615e-05
9.83438e-06
9.46308e-06
8.95973e-06
8.3407e-06
7.62594e-06
6.83804e-06
6.00124e-06
5.14095e-06
4.28341e-06
3.45444e-06
2.67602e-06
1.96116e-06
1.31054e-06
7.12401e-07
1.42642e-07
4.89923e-09
4.86846e-09
1.41766e-07
7.08323e-07
1.30348e-06
1.9514e-06
2.66398e-06
3.44067e-06
4.26851e-06
5.12554e-06
5.9859e-06
6.82328e-06
7.61226e-06
8.32852e-06
8.94946e-06
9.45506e-06
9.82887e-06
1.00587e-05
1.01371e-05
1.00615e-05
9.83438e-06
9.46308e-06
8.95973e-06
8.3407e-06
7.62594e-06
6.83804e-06
6.00124e-06
5.14095e-06
4.28341e-06
3.45444e-06
2.67602e-06
1.96116e-06
1.31054e-06
7.12401e-07
1.42642e-07
4.89923e-09
4.86846e-09
1.41766e-07
7.08323e-07
1.30348e-06
1.9514e-06
2.66398e-06
3.44067e-06
4.26851e-06
5.12554e-06
5.9859e-06
6.82328e-06
7.61226e-06
8.32852e-06
8.94946e-06
9.45506e-06
9.82887e-06
1.00587e-05
1.01371e-05
1.00615e-05
9.83438e-06
9.46308e-06
8.95973e-06
8.3407e-06
7.62594e-06
6.83804e-06
6.00124e-06
5.14095e-06
4.28341e-06
3.45444e-06
2.67602e-06
1.96116e-06
1.31054e-06
7.12401e-07
1.42642e-07
4.89923e-09
4.86846e-09
1.41766e-07
7.08323e-07
1.30348e-06
1.9514e-06
2.66398e-06
3.44067e-06
4.26851e-06
5.12554e-06
5.9859e-06
6.82328e-06
7.61226e-06
8.32852e-06
8.94946e-06
9.45506e-06
9.82887e-06
1.00587e-05
1.01371e-05
1.00615e-05
9.83438e-06
9.46308e-06
8.95973e-06
8.3407e-06
7.62594e-06
6.83804e-06
6.00124e-06
5.14095e-06
4.28341e-06
3.45444e-06
2.67602e-06
1.96116e-06
1.31054e-06
7.12401e-07
1.42642e-07
4.89923e-09
4.86846e-09
1.41766e-07
7.08323e-07
1.30348e-06
1.9514e-06
2.66398e-06
3.44067e-06
4.26851e-06
5.12554e-06
5.9859e-06
6.82328e-06
7.61226e-06
8.32852e-06
8.94946e-06
9.45506e-06
9.82887e-06
1.00587e-05
1.01371e-05
1.00615e-05
9.83438e-06
9.46308e-06
8.95973e-06
8.3407e-06
7.62594e-06
6.83804e-06
6.00124e-06
5.14095e-06
4.28341e-06
3.45444e-06
2.67602e-06
1.96116e-06
1.31054e-06
7.12401e-07
1.42642e-07
4.89923e-09
4.86846e-09
1.41766e-07
7.08323e-07
1.30348e-06
1.9514e-06
2.66398e-06
3.44067e-06
4.26851e-06
5.12554e-06
5.9859e-06
6.82328e-06
7.61226e-06
8.32852e-06
8.94946e-06
9.45506e-06
9.82887e-06
1.00587e-05
1.01371e-05
1.00615e-05
9.83438e-06
9.46308e-06
8.95973e-06
8.3407e-06
7.62594e-06
6.83804e-06
6.00124e-06
5.14095e-06
4.28341e-06
3.45444e-06
2.67602e-06
1.96116e-06
1.31054e-06
7.12401e-07
1.42642e-07
4.89923e-09
4.86846e-09
1.41766e-07
7.08323e-07
1.30348e-06
1.9514e-06
2.66398e-06
3.44067e-06
4.26851e-06
5.12554e-06
5.9859e-06
6.82328e-06
7.61226e-06
8.32852e-06
8.94946e-06
9.45506e-06
9.82887e-06
1.00587e-05
1.01371e-05
1.00615e-05
9.83438e-06
9.46308e-06
8.95973e-06
8.3407e-06
7.62594e-06
6.83804e-06
6.00124e-06
5.14095e-06
4.28341e-06
3.45444e-06
2.67602e-06
1.96116e-06
1.31054e-06
7.12401e-07
1.42642e-07
4.89923e-09
4.86846e-09
1.41766e-07
7.08323e-07
1.30348e-06
1.9514e-06
2.66398e-06
3.44067e-06
4.26851e-06
5.12554e-06
5.9859e-06
6.82328e-06
7.61226e-06
8.32852e-06
8.94946e-06
9.45506e-06
9.82887e-06
1.00587e-05
1.01371e-05
1.00615e-05
9.83438e-06
9.46308e-06
8.95973e-06
8.3407e-06
7.62594e-06
6.83804e-06
6.00124e-06
5.14095e-06
4.28341e-06
3.45444e-06
2.67602e-06
1.96116e-06
1.31054e-06
7.12401e-07
1.42642e-07
4.89923e-09
4.86846e-09
1.41766e-07
7.08323e-07
1.30348e-06
1.9514e-06
2.66398e-06
3.44067e-06
4.26851e-06
5.12554e-06
5.9859e-06
6.82328e-06
7.61226e-06
8.32852e-06
8.94946e-06
9.45506e-06
9.82887e-06
1.00587e-05
1.01371e-05
1.00615e-05
9.83438e-06
9.46308e-06
8.95973e-06
8.3407e-06
7.62594e-06
6.83804e-06
6.00124e-06
5.14095e-06
4.28341e-06
3.45444e-06
2.67602e-06
1.96116e-06
1.31054e-06
7.12401e-07
1.42642e-07
4.89923e-09
4.86846e-09
1.41766e-07
7.08323e-07
1.30348e-06
1.9514e-06
2.66398e-06
3.44067e-06
4.26851e-06
5.12554e-06
5.9859e-06
6.82328e-06
7.61226e-06
8.32852e-06
8.94946e-06
9.45506e-06
9.82887e-06
1.00587e-05
1.01371e-05
1.00615e-05
9.83438e-06
9.46308e-06
8.95973e-06
8.3407e-06
7.62594e-06
6.83804e-06
6.00124e-06
5.14095e-06
4.28341e-06
3.45444e-06
2.67602e-06
1.96116e-06
1.31054e-06
7.12401e-07
1.42642e-07
4.89923e-09
4.86846e-09
1.41766e-07
7.08323e-07
1.30348e-06
1.9514e-06
2.66398e-06
3.44067e-06
4.26851e-06
5.12554e-06
5.9859e-06
6.82328e-06
7.61226e-06
8.32852e-06
8.94946e-06
9.45506e-06
9.82887e-06
1.00587e-05
1.01371e-05
1.00615e-05
9.83438e-06
9.46308e-06
8.95973e-06
8.3407e-06
7.62594e-06
6.83804e-06
6.00124e-06
5.14095e-06
4.28341e-06
3.45444e-06
2.67602e-06
1.96116e-06
1.31054e-06
7.12401e-07
1.42642e-07
4.89923e-09
4.86846e-09
1.41766e-07
7.08323e-07
1.30348e-06
1.9514e-06
2.66398e-06
3.44067e-06
4.26851e-06
5.12554e-06
5.9859e-06
6.82328e-06
7.61226e-06
8.32852e-06
8.94946e-06
9.45506e-06
9.82887e-06
1.00587e-05
1.01371e-05
1.00615e-05
9.83438e-06
9.46308e-06
8.95973e-06
8.3407e-06
7.62594e-06
6.83804e-06
6.00124e-06
5.14095e-06
4.28341e-06
3.45444e-06
2.67602e-06
1.96116e-06
1.31054e-06
7.12401e-07
1.42642e-07
4.89923e-09
4.86846e-09
1.41766e-07
7.08323e-07
1.30348e-06
1.9514e-06
2.66398e-06
3.44067e-06
4.26851e-06
5.12554e-06
5.9859e-06
6.82328e-06
7.61226e-06
8.32852e-06
8.94946e-06
9.45506e-06
9.82887e-06
1.00587e-05
1.01371e-05
1.00615e-05
9.83438e-06
9.46308e-06
8.95973e-06
8.3407e-06
7.62594e-06
6.83804e-06
6.00124e-06
5.14095e-06
4.28341e-06
3.45444e-06
2.67602e-06
1.96116e-06
1.31054e-06
7.12401e-07
1.42642e-07
4.89923e-09
4.86846e-09
1.41766e-07
7.08323e-07
1.30348e-06
1.9514e-06
2.66398e-06
3.44067e-06
4.26851e-06
5.12554e-06
5.9859e-06
6.82328e-06
7.61226e-06
8.32852e-06
8.94946e-06
9.45506e-06
9.82887e-06
1.00587e-05
1.01371e-05
1.00615e-05
9.83438e-06
9.46308e-06
8.95973e-06
8.3407e-06
7.62594e-06
6.83804e-06
6.00124e-06
5.14095e-06
4.28341e-06
3.45444e-06
2.67602e-06
1.96116e-06
1.31054e-06
7.12401e-07
1.42642e-07
4.89923e-09
4.86846e-09
1.41766e-07
7.08323e-07
1.30348e-06
1.9514e-06
2.66398e-06
3.44067e-06
4.26851e-06
5.12554e-06
5.9859e-06
6.82328e-06
7.61226e-06
8.32852e-06
8.94946e-06
9.45506e-06
9.82887e-06
1.00587e-05
1.01371e-05
1.00615e-05
9.83438e-06
9.46308e-06
8.95973e-06
8.3407e-06
7.62594e-06
6.83804e-06
6.00124e-06
5.14095e-06
4.28341e-06
3.45444e-06
2.67602e-06
1.96116e-06
1.31054e-06
7.12401e-07
1.42642e-07
4.89923e-09
4.86846e-09
1.41766e-07
7.08323e-07
1.30348e-06
1.9514e-06
2.66398e-06
3.44067e-06
4.26851e-06
5.12554e-06
5.9859e-06
6.82328e-06
7.61226e-06
8.32852e-06
8.94946e-06
9.45506e-06
9.82887e-06
1.00587e-05
1.01371e-05
1.00615e-05
9.83438e-06
9.46308e-06
8.95973e-06
8.3407e-06
7.62594e-06
6.83804e-06
6.00124e-06
5.14095e-06
4.28341e-06
3.45444e-06
2.67602e-06
1.96116e-06
1.31054e-06
7.12401e-07
1.42642e-07
4.89923e-09
4.86846e-09
1.41766e-07
7.08323e-07
1.30348e-06
1.9514e-06
2.66398e-06
3.44067e-06
4.26851e-06
5.12554e-06
5.9859e-06
6.82328e-06
7.61226e-06
8.32852e-06
8.94946e-06
9.45506e-06
9.82887e-06
1.00587e-05
1.01371e-05
1.00615e-05
9.83438e-06
9.46308e-06
8.95973e-06
8.3407e-06
7.62594e-06
6.83804e-06
6.00124e-06
5.14095e-06
4.28341e-06
3.45444e-06
2.67602e-06
1.96116e-06
1.31054e-06
7.12401e-07
1.42642e-07
4.89923e-09
4.86846e-09
1.41766e-07
7.08323e-07
1.30348e-06
1.9514e-06
2.66398e-06
3.44067e-06
4.26851e-06
5.12554e-06
5.9859e-06
6.82328e-06
7.61226e-06
8.32852e-06
8.94946e-06
9.45506e-06
9.82887e-06
1.00587e-05
1.01371e-05
1.00615e-05
9.83438e-06
9.46308e-06
8.95973e-06
8.3407e-06
7.62594e-06
6.83804e-06
6.00124e-06
5.14095e-06
4.28341e-06
3.45444e-06
2.67602e-06
1.96116e-06
1.31054e-06
7.12401e-07
1.42642e-07
4.89923e-09
4.86846e-09
1.41766e-07
7.08323e-07
1.30348e-06
1.9514e-06
2.66398e-06
3.44067e-06
4.26851e-06
5.12554e-06
5.9859e-06
6.82328e-06
7.61226e-06
8.32852e-06
8.94946e-06
9.45506e-06
9.82887e-06
1.00587e-05
1.01371e-05
1.00615e-05
9.83438e-06
9.46308e-06
8.95973e-06
8.3407e-06
7.62594e-06
6.83804e-06
6.00124e-06
5.14095e-06
4.28341e-06
3.45444e-06
2.67602e-06
1.96116e-06
1.31054e-06
7.12401e-07
1.42642e-07
4.89923e-09
4.86846e-09
1.41766e-07
7.08323e-07
1.30348e-06
1.9514e-06
2.66398e-06
3.44067e-06
4.26851e-06
5.12554e-06
5.9859e-06
6.82328e-06
7.61226e-06
8.32852e-06
8.94946e-06
9.45506e-06
9.82887e-06
1.00587e-05
1.01371e-05
1.00615e-05
9.83438e-06
9.46308e-06
8.95973e-06
8.3407e-06
7.62594e-06
6.83804e-06
6.00124e-06
5.14095e-06
4.28341e-06
3.45444e-06
2.67602e-06
1.96116e-06
1.31054e-06
7.12401e-07
1.42642e-07
4.89923e-09
4.86846e-09
1.41766e-07
7.08323e-07
1.30348e-06
1.9514e-06
2.66398e-06
3.44067e-06
4.26851e-06
5.12554e-06
5.9859e-06
6.82328e-06
7.61226e-06
8.32852e-06
8.94946e-06
9.45506e-06
9.82887e-06
1.00587e-05
1.01371e-05
1.00615e-05
9.83438e-06
9.46308e-06
8.95973e-06
8.3407e-06
7.62594e-06
6.83804e-06
6.00124e-06
5.14095e-06
4.28341e-06
3.45444e-06
2.67602e-06
1.96116e-06
1.31054e-06
7.12401e-07
1.42642e-07
4.89923e-09
4.86846e-09
1.41766e-07
7.08323e-07
1.30348e-06
1.9514e-06
2.66398e-06
3.44067e-06
4.26851e-06
5.12554e-06
5.9859e-06
6.82328e-06
7.61226e-06
8.32852e-06
8.94946e-06
9.45506e-06
9.82887e-06
1.00587e-05
1.01371e-05
1.00615e-05
9.83438e-06
9.46308e-06
8.95973e-06
8.3407e-06
7.62594e-06
6.83804e-06
6.00124e-06
5.14095e-06
4.28341e-06
3.45444e-06
2.67602e-06
1.96116e-06
1.31054e-06
7.12401e-07
1.42642e-07
4.89923e-09
4.86846e-09
1.41766e-07
7.08323e-07
1.30348e-06
1.9514e-06
2.66398e-06
3.44067e-06
4.26851e-06
5.12554e-06
5.9859e-06
6.82328e-06
7.61226e-06
8.32852e-06
8.94946e-06
9.45506e-06
9.82887e-06
1.00587e-05
1.01371e-05
1.00615e-05
9.83438e-06
9.46308e-06
8.95973e-06
8.3407e-06
7.62594e-06
6.83804e-06
6.00124e-06
5.14095e-06
4.28341e-06
3.45444e-06
2.67602e-06
1.96116e-06
1.31054e-06
7.12401e-07
1.42642e-07
4.89923e-09
4.86846e-09
1.41766e-07
7.08323e-07
1.30348e-06
1.9514e-06
2.66398e-06
3.44067e-06
4.26851e-06
5.12554e-06
5.9859e-06
6.82328e-06
7.61226e-06
8.32852e-06
8.94946e-06
9.45506e-06
9.82887e-06
1.00587e-05
1.01371e-05
1.00615e-05
9.83438e-06
9.46308e-06
8.95973e-06
8.3407e-06
7.62594e-06
6.83804e-06
6.00124e-06
5.14095e-06
4.28341e-06
3.45444e-06
2.67602e-06
1.96116e-06
1.31054e-06
7.12401e-07
1.42642e-07
4.89923e-09
4.86846e-09
1.41766e-07
7.08323e-07
1.30348e-06
1.9514e-06
2.66398e-06
3.44067e-06
4.26851e-06
5.12554e-06
5.9859e-06
6.82328e-06
7.61226e-06
8.32852e-06
8.94946e-06
9.45506e-06
9.82887e-06
1.00587e-05
1.01371e-05
1.00615e-05
9.83438e-06
9.46308e-06
8.95973e-06
8.3407e-06
7.62594e-06
6.83804e-06
6.00124e-06
5.14095e-06
4.28341e-06
3.45444e-06
2.67602e-06
1.96116e-06
1.31054e-06
7.12401e-07
1.42642e-07
4.89923e-09
4.86846e-09
1.41766e-07
7.08323e-07
1.30348e-06
1.9514e-06
2.66398e-06
3.44067e-06
4.26851e-06
5.12554e-06
5.9859e-06
6.82328e-06
7.61226e-06
8.32852e-06
8.94946e-06
9.45506e-06
9.82887e-06
1.00587e-05
1.01371e-05
1.00615e-05
9.83438e-06
9.46308e-06
8.95973e-06
8.3407e-06
7.62594e-06
6.83804e-06
6.00124e-06
5.14095e-06
4.28341e-06
3.45444e-06
2.67602e-06
1.96116e-06
1.31054e-06
7.12401e-07
1.42642e-07
4.89923e-09
4.86846e-09
1.41766e-07
7.08323e-07
1.30348e-06
1.9514e-06
2.66398e-06
3.44067e-06
4.26851e-06
5.12554e-06
5.9859e-06
6.82328e-06
7.61226e-06
8.32852e-06
8.94946e-06
9.45506e-06
9.82887e-06
1.00587e-05
1.01371e-05
1.00615e-05
9.83438e-06
9.46308e-06
8.95973e-06
8.3407e-06
7.62594e-06
6.83804e-06
6.00124e-06
5.14095e-06
4.28341e-06
3.45444e-06
2.67602e-06
1.96116e-06
1.31054e-06
7.12401e-07
1.42642e-07
4.89923e-09
4.86846e-09
1.41766e-07
7.08323e-07
1.30348e-06
1.9514e-06
2.66398e-06
3.44067e-06
4.26851e-06
5.12554e-06
5.9859e-06
6.82328e-06
7.61226e-06
8.32852e-06
8.94946e-06
9.45506e-06
9.82887e-06
1.00587e-05
1.01371e-05
1.00615e-05
9.83438e-06
9.46308e-06
8.95973e-06
8.3407e-06
7.62594e-06
6.83804e-06
6.00124e-06
5.14095e-06
4.28341e-06
3.45444e-06
2.67602e-06
1.96116e-06
1.31054e-06
7.12401e-07
1.42642e-07
4.89923e-09
4.86846e-09
1.41766e-07
7.08323e-07
1.30348e-06
1.9514e-06
2.66398e-06
3.44067e-06
4.26851e-06
5.12554e-06
5.9859e-06
6.82328e-06
7.61226e-06
8.32852e-06
8.94946e-06
9.45506e-06
9.82887e-06
1.00587e-05
1.01371e-05
1.00615e-05
9.83438e-06
9.46308e-06
8.95973e-06
8.3407e-06
7.62594e-06
6.83804e-06
6.00124e-06
5.14095e-06
4.28341e-06
3.45444e-06
2.67602e-06
1.96116e-06
1.31054e-06
7.12401e-07
1.42642e-07
4.89923e-09
4.86846e-09
1.41766e-07
7.08323e-07
1.30348e-06
1.9514e-06
2.66398e-06
3.44067e-06
4.26851e-06
5.12554e-06
5.9859e-06
6.82328e-06
7.61226e-06
8.32852e-06