/*--------------------------------*- C++ -*----------------------------------*\
  =========                 |
  \\      /  F ield         | OpenFOAM: The Open Source CFD Toolbox
   \\    /   O peration     | Website:  https://openfoam.org
    \\  /    A nd           | Version:  13
     \\/     M anipulation  |
\*---------------------------------------------------------------------------*/
FoamFile
{
    format      ascii;
    class       volScalarField;
    location    "120";
    object      rhok;
}
// * * * * * * * * * * * * * * * * * * * * * * * * * * * * * * * * * * * * * //

dimensions      [];

internalField   nonuniform List<scalar> 
315000
(
0.444618
0.429456
0.414268
0.412815
0.412054
0.411295
0.410539
0.409785
0.409034
0.408285
0.407539
0.406796
0.406056
0.405318
0.404584
0.403853
0.403125
0.4024
0.401679
0.400961
0.400247
0.399537
0.39883
0.398128
0.397429
0.396735
0.396044
0.395358
0.394677
0.393999
0.393327
0.392658
0.391995
0.391336
0.390681
0.390031
0.389386
0.388746
0.38811
0.387479
0.386852
0.38623
0.385613
0.385
0.384392
0.383788
0.383188
0.382593
0.382002
0.381414
0.380831
0.380251
0.379675
0.379103
0.378533
0.377967
0.377404
0.376844
0.376286
0.375731
0.375178
0.374627
0.374079
0.373531
0.372985
0.372441
0.371897
0.371354
0.370812
0.37027
0.444618
0.429454
0.414265
0.412812
0.412051
0.411292
0.410535
0.409782
0.40903
0.408281
0.407535
0.406792
0.406052
0.405314
0.40458
0.403848
0.40312
0.402395
0.401674
0.400956
0.400242
0.399532
0.398825
0.398123
0.397424
0.39673
0.396039
0.395353
0.394671
0.393994
0.393321
0.392653
0.391989
0.39133
0.390676
0.390026
0.389381
0.38874
0.388105
0.387474
0.386847
0.386225
0.385608
0.384995
0.384387
0.383783
0.383184
0.382588
0.381997
0.38141
0.380827
0.380247
0.379671
0.379099
0.37853
0.377964
0.377401
0.376841
0.376284
0.375729
0.375176
0.374626
0.374077
0.37353
0.372984
0.37244
0.371896
0.371354
0.370812
0.37027
0.444618
0.429453
0.414262
0.412808
0.412047
0.411288
0.410532
0.409778
0.409026
0.408277
0.407531
0.406788
0.406047
0.40531
0.404575
0.403844
0.403116
0.402391
0.40167
0.400952
0.400238
0.399527
0.398821
0.398118
0.397419
0.396725
0.396035
0.395348
0.394667
0.393989
0.393317
0.392648
0.391985
0.391326
0.390671
0.390021
0.389376
0.388736
0.3881
0.387469
0.386843
0.386221
0.385604
0.384991
0.384383
0.383779
0.38318
0.382585
0.381994
0.381407
0.380823
0.380244
0.379668
0.379096
0.378527
0.377962
0.377399
0.376839
0.376282
0.375727
0.375174
0.374624
0.374076
0.373529
0.372983
0.372439
0.371896
0.371353
0.370811
0.37027
0.444618
0.429451
0.414259
0.412805
0.412044
0.411285
0.410528
0.409774
0.409023
0.408274
0.407528
0.406784
0.406044
0.405306
0.404572
0.40384
0.403112
0.402387
0.401666
0.400948
0.400234
0.399523
0.398817
0.398114
0.397415
0.396721
0.39603
0.395344
0.394663
0.393985
0.393313
0.392644
0.391981
0.391322
0.390667
0.390017
0.389372
0.388732
0.388096
0.387465
0.386839
0.386217
0.3856
0.384988
0.38438
0.383776
0.383177
0.382582
0.381991
0.381404
0.380821
0.380241
0.379666
0.379094
0.378525
0.377959
0.377397
0.376837
0.37628
0.375725
0.375173
0.374623
0.374074
0.373528
0.372982
0.372438
0.371895
0.371353
0.370811
0.37027
0.444618
0.42945
0.414256
0.412803
0.412041
0.411282
0.410526
0.409772
0.40902
0.408271
0.407525
0.406782
0.406041
0.405303
0.404569
0.403837
0.403109
0.402384
0.401663
0.400945
0.400231
0.39952
0.398814
0.398111
0.397412
0.396718
0.396027
0.395341
0.39466
0.393982
0.393309
0.392641
0.391977
0.391318
0.390664
0.390014
0.389369
0.388729
0.388093
0.387462
0.386836
0.386215
0.385597
0.384985
0.384377
0.383773
0.383174
0.382579
0.381988
0.381401
0.380818
0.380239
0.379664
0.379092
0.378523
0.377958
0.377395
0.376835
0.376279
0.375724
0.375172
0.374622
0.374073
0.373527
0.372982
0.372438
0.371895
0.371353
0.370811
0.37027
0.444618
0.429449
0.414255
0.412801
0.41204
0.411281
0.410524
0.40977
0.409019
0.40827
0.407523
0.40678
0.406039
0.405302
0.404567
0.403835
0.403107
0.402382
0.401661
0.400943
0.400229
0.399518
0.398811
0.398109
0.39741
0.396715
0.396025
0.395339
0.394657
0.39398
0.393307
0.392639
0.391975
0.391316
0.390662
0.390012
0.389367
0.388727
0.388091
0.38746
0.386834
0.386212
0.385595
0.384983
0.384375
0.383771
0.383172
0.382577
0.381986
0.3814
0.380817
0.380238
0.379662
0.37909
0.378522
0.377956
0.377394
0.376834
0.376277
0.375723
0.375171
0.374621
0.374073
0.373526
0.372981
0.372437
0.371894
0.371352
0.370811
0.37027
0.444618
0.429449
0.414254
0.412801
0.412039
0.41128
0.410524
0.40977
0.409018
0.408269
0.407523
0.406779
0.406038
0.405301
0.404566
0.403834
0.403106
0.402381
0.40166
0.400942
0.400227
0.399517
0.39881
0.398107
0.397409
0.396714
0.396024
0.395338
0.394656
0.393979
0.393306
0.392637
0.391974
0.391315
0.39066
0.390011
0.389366
0.388725
0.38809
0.387459
0.386832
0.386211
0.385594
0.384981
0.384374
0.38377
0.383171
0.382576
0.381985
0.381398
0.380816
0.380236
0.379661
0.379089
0.378521
0.377955
0.377393
0.376833
0.376277
0.375722
0.37517
0.37462
0.374072
0.373526
0.372981
0.372437
0.371894
0.371352
0.370811
0.37027
0.444618
0.429449
0.414255
0.412801
0.41204
0.411281
0.410524
0.40977
0.409018
0.408269
0.407523
0.406779
0.406038
0.405301
0.404566
0.403834
0.403106
0.402381
0.401659
0.400942
0.400227
0.399517
0.39881
0.398107
0.397408
0.396714
0.396023
0.395337
0.394655
0.393978
0.393305
0.392637
0.391973
0.391314
0.390659
0.39001
0.389365
0.388724
0.388089
0.387458
0.386832
0.38621
0.385593
0.384981
0.384373
0.383769
0.38317
0.382575
0.381984
0.381398
0.380815
0.380236
0.37966
0.379088
0.37852
0.377955
0.377392
0.376833
0.376276
0.375722
0.37517
0.37462
0.374072
0.373525
0.37298
0.372437
0.371894
0.371352
0.370811
0.37027
0.444618
0.42945
0.414255
0.412802
0.41204
0.411281
0.410525
0.409771
0.409019
0.40827
0.407523
0.40678
0.406039
0.405301
0.404567
0.403835
0.403107
0.402382
0.40166
0.400942
0.400228
0.399517
0.39881
0.398107
0.397408
0.396714
0.396023
0.395337
0.394655
0.393978
0.393305
0.392637
0.391973
0.391314
0.390659
0.390009
0.389364
0.388724
0.388088
0.387457
0.386831
0.38621
0.385593
0.38498
0.384372
0.383769
0.38317
0.382575
0.381984
0.381397
0.380814
0.380235
0.37966
0.379088
0.37852
0.377954
0.377392
0.376833
0.376276
0.375722
0.37517
0.37462
0.374072
0.373525
0.37298
0.372437
0.371894
0.371352
0.370811
0.37027
0.444618
0.42945
0.414257
0.412803
0.412042
0.411283
0.410526
0.409772
0.40902
0.408271
0.407525
0.406781
0.40604
0.405302
0.404568
0.403836
0.403107
0.402382
0.401661
0.400943
0.400228
0.399518
0.398811
0.398108
0.397409
0.396714
0.396024
0.395337
0.394656
0.393978
0.393305
0.392637
0.391973
0.391314
0.390659
0.390009
0.389364
0.388724
0.388088
0.387457
0.386831
0.386209
0.385592
0.38498
0.384372
0.383769
0.383169
0.382574
0.381984
0.381397
0.380814
0.380235
0.37966
0.379088
0.378519
0.377954
0.377392
0.376832
0.376276
0.375721
0.375169
0.374619
0.374071
0.373525
0.37298
0.372436
0.371894
0.371352
0.370811
0.37027
0.444618
0.429451
0.414258
0.412804
0.412043
0.411284
0.410527
0.409773
0.409021
0.408272
0.407526
0.406782
0.406041
0.405304
0.404569
0.403837
0.403109
0.402383
0.401662
0.400944
0.400229
0.399519
0.398812
0.398109
0.39741
0.396715
0.396024
0.395338
0.394656
0.393979
0.393306
0.392637
0.391973
0.391314
0.39066
0.39001
0.389365
0.388724
0.388089
0.387458
0.386831
0.38621
0.385593
0.38498
0.384372
0.383769
0.383169
0.382574
0.381984
0.381397
0.380814
0.380235
0.37966
0.379088
0.378519
0.377954
0.377392
0.376832
0.376276
0.375721
0.375169
0.374619
0.374071
0.373525
0.37298
0.372436
0.371894
0.371352
0.370811
0.37027
0.444618
0.429451
0.414259
0.412805
0.412044
0.411285
0.410528
0.409774
0.409022
0.408273
0.407527
0.406783
0.406042
0.405304
0.40457
0.403838
0.403109
0.402384
0.401663
0.400944
0.40023
0.399519
0.398812
0.398109
0.39741
0.396716
0.396025
0.395339
0.394657
0.393979
0.393306
0.392638
0.391974
0.391315
0.39066
0.39001
0.389365
0.388725
0.388089
0.387458
0.386832
0.38621
0.385593
0.38498
0.384372
0.383769
0.38317
0.382575
0.381984
0.381397
0.380814
0.380235
0.37966
0.379088
0.378519
0.377954
0.377392
0.376832
0.376276
0.375721
0.375169
0.374619
0.374071
0.373525
0.37298
0.372436
0.371894
0.371352
0.370811
0.37027
0.444618
0.429452
0.414259
0.412805
0.412044
0.411285
0.410528
0.409774
0.409022
0.408273
0.407527
0.406783
0.406043
0.405305
0.40457
0.403838
0.40311
0.402385
0.401663
0.400945
0.40023
0.39952
0.398813
0.39811
0.397411
0.396716
0.396025
0.395339
0.394657
0.393979
0.393306
0.392638
0.391974
0.391315
0.39066
0.39001
0.389365
0.388725
0.388089
0.387458
0.386832
0.38621
0.385593
0.384981
0.384373
0.383769
0.38317
0.382575
0.381984
0.381397
0.380814
0.380235
0.37966
0.379088
0.37852
0.377954
0.377392
0.376833
0.376276
0.375721
0.375169
0.37462
0.374072
0.373525
0.37298
0.372437
0.371894
0.371352
0.370811
0.37027
0.444618
0.429451
0.414259
0.412805
0.412043
0.411285
0.410528
0.409774
0.409022
0.408273
0.407527
0.406783
0.406042
0.405304
0.40457
0.403838
0.403109
0.402384
0.401663
0.400945
0.40023
0.399519
0.398812
0.39811
0.397411
0.396716
0.396025
0.395339
0.394657
0.393979
0.393306
0.392638
0.391974
0.391315
0.39066
0.39001
0.389365
0.388725
0.388089
0.387458
0.386832
0.38621
0.385593
0.384981
0.384373
0.383769
0.38317
0.382575
0.381984
0.381397
0.380815
0.380235
0.37966
0.379088
0.37852
0.377954
0.377392
0.376833
0.376276
0.375722
0.37517
0.37462
0.374072
0.373525
0.37298
0.372437
0.371894
0.371352
0.370811
0.37027
0.444618
0.429451
0.414258
0.412804
0.412043
0.411284
0.410527
0.409773
0.409021
0.408272
0.407526
0.406782
0.406041
0.405304
0.404569
0.403837
0.403109
0.402384
0.401662
0.400944
0.40023
0.399519
0.398812
0.398109
0.39741
0.396716
0.396025
0.395339
0.394657
0.393979
0.393306
0.392638
0.391974
0.391315
0.39066
0.39001
0.389365
0.388725
0.388089
0.387458
0.386832
0.38621
0.385593
0.384981
0.384373
0.383769
0.38317
0.382575
0.381984
0.381398
0.380815
0.380236
0.37966
0.379088
0.37852
0.377955
0.377392
0.376833
0.376276
0.375722
0.37517
0.37462
0.374072
0.373525
0.37298
0.372437
0.371894
0.371352
0.370811
0.37027
0.444618
0.42945
0.414257
0.412803
0.412042
0.411283
0.410526
0.409772
0.409021
0.408271
0.407525
0.406781
0.406041
0.405303
0.404568
0.403837
0.403108
0.402383
0.401662
0.400944
0.400229
0.399518
0.398812
0.398109
0.39741
0.396715
0.396025
0.395338
0.394657
0.393979
0.393306
0.392638
0.391974
0.391315
0.39066
0.39001
0.389365
0.388725
0.388089
0.387458
0.386832
0.38621
0.385593
0.384981
0.384373
0.383769
0.38317
0.382575
0.381984
0.381398
0.380815
0.380236
0.37966
0.379088
0.37852
0.377955
0.377392
0.376833
0.376276
0.375722
0.37517
0.37462
0.374072
0.373525
0.37298
0.372437
0.371894
0.371352
0.370811
0.37027
0.444618
0.42945
0.414257
0.412803
0.412042
0.411283
0.410526
0.409772
0.40902
0.408271
0.407525
0.406781
0.406041
0.405303
0.404568
0.403836
0.403108
0.402383
0.401662
0.400943
0.400229
0.399518
0.398812
0.398109
0.39741
0.396715
0.396025
0.395339
0.394657
0.393979
0.393306
0.392638
0.391974
0.391315
0.39066
0.390011
0.389366
0.388725
0.38809
0.387459
0.386832
0.386211
0.385594
0.384981
0.384373
0.38377
0.38317
0.382575
0.381985
0.381398
0.380815
0.380236
0.379661
0.379089
0.37852
0.377955
0.377392
0.376833
0.376276
0.375722
0.37517
0.37462
0.374072
0.373525
0.37298
0.372437
0.371894
0.371352
0.370811
0.37027
0.444618
0.42945
0.414257
0.412803
0.412042
0.411283
0.410527
0.409772
0.409021
0.408272
0.407525
0.406782
0.406041
0.405303
0.404569
0.403837
0.403109
0.402384
0.401662
0.400944
0.40023
0.399519
0.398812
0.398109
0.397411
0.396716
0.396025
0.395339
0.394657
0.39398
0.393307
0.392638
0.391975
0.391315
0.390661
0.390011
0.389366
0.388726
0.38809
0.387459
0.386833
0.386211
0.385594
0.384982
0.384374
0.38377
0.383171
0.382576
0.381985
0.381398
0.380815
0.380236
0.379661
0.379089
0.37852
0.377955
0.377393
0.376833
0.376276
0.375722
0.37517
0.37462
0.374072
0.373525
0.372981
0.372437
0.371894
0.371352
0.370811
0.37027
0.444618
0.429451
0.414258
0.412805
0.412043
0.411284
0.410528
0.409774
0.409022
0.408273
0.407527
0.406783
0.406042
0.405305
0.40457
0.403838
0.40311
0.402385
0.401663
0.400945
0.400231
0.39952
0.398813
0.39811
0.397412
0.396717
0.396026
0.39534
0.394658
0.393981
0.393308
0.392639
0.391975
0.391316
0.390662
0.390012
0.389367
0.388726
0.388091
0.38746
0.386833
0.386212
0.385595
0.384982
0.384374
0.38377
0.383171
0.382576
0.381985
0.381399
0.380816
0.380237
0.379661
0.379089
0.378521
0.377955
0.377393
0.376833
0.376277
0.375722
0.37517
0.37462
0.374072
0.373526
0.372981
0.372437
0.371894
0.371352
0.370811
0.37027
0.444618
0.429452
0.41426
0.412806
0.412045
0.411286
0.41053
0.409775
0.409024
0.408275
0.407528
0.406785
0.406044
0.405306
0.404571
0.40384
0.403111
0.402386
0.401665
0.400947
0.400232
0.399522
0.398815
0.398112
0.397413
0.396718
0.396028
0.395341
0.394659
0.393982
0.393309
0.39264
0.391976
0.391317
0.390663
0.390013
0.389368
0.388727
0.388091
0.38746
0.386834
0.386212
0.385595
0.384983
0.384375
0.383771
0.383172
0.382577
0.381986
0.381399
0.380816
0.380237
0.379661
0.379089
0.378521
0.377956
0.377393
0.376834
0.376277
0.375722
0.37517
0.37462
0.374072
0.373526
0.372981
0.372437
0.371894
0.371352
0.370811
0.37027
0.444618
0.429453
0.414261
0.412808
0.412047
0.411288
0.410531
0.409777
0.409025
0.408276
0.40753
0.406786
0.406046
0.405308
0.404573
0.403841
0.403113
0.402388
0.401666
0.400948
0.400234
0.399523
0.398816
0.398113
0.397414
0.396719
0.396029
0.395342
0.39466
0.393983
0.39331
0.392641
0.391977
0.391318
0.390663
0.390014
0.389368
0.388728
0.388092
0.387461
0.386835
0.386213
0.385596
0.384983
0.384375
0.383771
0.383172
0.382577
0.381986
0.381399
0.380816
0.380237
0.379662
0.37909
0.378521
0.377956
0.377393
0.376834
0.376277
0.375723
0.37517
0.37462
0.374072
0.373526
0.372981
0.372437
0.371894
0.371352
0.370811
0.37027
0.444618
0.429453
0.414262
0.412809
0.412048
0.411289
0.410532
0.409778
0.409027
0.408278
0.407531
0.406788
0.406047
0.405309
0.404574
0.403843
0.403114
0.402389
0.401667
0.400949
0.400235
0.399524
0.398817
0.398114
0.397415
0.39672
0.39603
0.395343
0.394661
0.393984
0.393311
0.392642
0.391978
0.391319
0.390664
0.390014
0.389369
0.388729
0.388093
0.387462
0.386835
0.386214
0.385596
0.384984
0.384376
0.383772
0.383173
0.382578
0.381987
0.3814
0.380817
0.380238
0.379662
0.37909
0.378521
0.377956
0.377394
0.376834
0.376277
0.375723
0.375171
0.374621
0.374072
0.373526
0.372981
0.372437
0.371894
0.371352
0.370811
0.37027
0.444618
0.429454
0.414263
0.41281
0.412049
0.41129
0.410533
0.409779
0.409028
0.408279
0.407532
0.406789
0.406048
0.40531
0.404575
0.403844
0.403115
0.40239
0.401669
0.40095
0.400236
0.399525
0.398818
0.398115
0.397416
0.396721
0.396031
0.395344
0.394662
0.393985
0.393312
0.392643
0.391979
0.39132
0.390665
0.390015
0.38937
0.388729
0.388093
0.387462
0.386836
0.386214
0.385597
0.384984
0.384376
0.383772
0.383173
0.382578
0.381987
0.3814
0.380817
0.380238
0.379662
0.37909
0.378522
0.377956
0.377394
0.376834
0.376277
0.375723
0.375171
0.374621
0.374073
0.373526
0.372981
0.372437
0.371894
0.371352
0.370811
0.37027
0.444618
0.429454
0.414264
0.412811
0.41205
0.411291
0.410534
0.40978
0.409029
0.40828
0.407533
0.40679
0.406049
0.405311
0.404576
0.403845
0.403116
0.402391
0.40167
0.400951
0.400237
0.399526
0.398819
0.398116
0.397417
0.396722
0.396032
0.395345
0.394663
0.393986
0.393312
0.392644
0.39198
0.391321
0.390666
0.390016
0.389371
0.38873
0.388094
0.387463
0.386836
0.386215
0.385597
0.384985
0.384377
0.383773
0.383174
0.382578
0.381987
0.381401
0.380818
0.380238
0.379663
0.379091
0.378522
0.377957
0.377394
0.376835
0.376278
0.375723
0.375171
0.374621
0.374073
0.373526
0.372981
0.372437
0.371894
0.371352
0.370811
0.37027
0.444618
0.429455
0.414265
0.412812
0.412051
0.411292
0.410535
0.409781
0.40903
0.408281
0.407535
0.406791
0.40605
0.405312
0.404578
0.403846
0.403118
0.402392
0.401671
0.400953
0.400238
0.399527
0.39882
0.398117
0.397418
0.396723
0.396033
0.395346
0.394664
0.393987
0.393313
0.392645
0.391981
0.391321
0.390667
0.390017
0.389371
0.388731
0.388095
0.387464
0.386837
0.386215
0.385598
0.384985
0.384377
0.383773
0.383174
0.382579
0.381988
0.381401
0.380818
0.380239
0.379663
0.379091
0.378522
0.377957
0.377394
0.376835
0.376278
0.375723
0.375171
0.374621
0.374073
0.373526
0.372981
0.372437
0.371894
0.371352
0.370811
0.37027
0.444618
0.429455
0.414266
0.412813
0.412052
0.411293
0.410537
0.409783
0.409031
0.408282
0.407536
0.406792
0.406052
0.405314
0.404579
0.403847
0.403119
0.402394
0.401672
0.400954
0.400239
0.399529
0.398822
0.398119
0.39742
0.396725
0.396034
0.395347
0.394665
0.393988
0.393314
0.392646
0.391982
0.391322
0.390668
0.390018
0.389372
0.388732
0.388096
0.387464
0.386838
0.386216
0.385599
0.384986
0.384378
0.383774
0.383175
0.382579
0.381988
0.381401
0.380818
0.380239
0.379663
0.379091
0.378523
0.377957
0.377395
0.376835
0.376278
0.375724
0.375171
0.374621
0.374073
0.373526
0.372981
0.372437
0.371895
0.371352
0.370811
0.37027
0.444618
0.429456
0.414268
0.412814
0.412053
0.411295
0.410538
0.409784
0.409033
0.408284
0.407537
0.406794
0.406053
0.405315
0.40458
0.403849
0.40312
0.402395
0.401673
0.400955
0.400241
0.39953
0.398823
0.39812
0.397421
0.396726
0.396035
0.395349
0.394667
0.393989
0.393316
0.392647
0.391983
0.391323
0.390669
0.390019
0.389373
0.388732
0.388097
0.387465
0.386839
0.386217
0.385599
0.384987
0.384378
0.383775
0.383175
0.38258
0.381989
0.381402
0.380819
0.38024
0.379664
0.379092
0.378523
0.377957
0.377395
0.376835
0.376278
0.375724
0.375172
0.374621
0.374073
0.373527
0.372981
0.372437
0.371895
0.371352
0.370811
0.37027
0.444618
0.429457
0.414269
0.412816
0.412055
0.411296
0.41054
0.409786
0.409034
0.408285
0.407539
0.406795
0.406055
0.405317
0.404582
0.40385
0.403122
0.402397
0.401675
0.400957
0.400242
0.399531
0.398824
0.398121
0.397422
0.396727
0.396036
0.39535
0.394668
0.39399
0.393317
0.392648
0.391984
0.391324
0.39067
0.39002
0.389374
0.388733
0.388097
0.387466
0.386839
0.386218
0.3856
0.384987
0.384379
0.383775
0.383176
0.382581
0.381989
0.381402
0.380819
0.38024
0.379664
0.379092
0.378523
0.377958
0.377395
0.376836
0.376279
0.375724
0.375172
0.374622
0.374073
0.373527
0.372981
0.372438
0.371895
0.371353
0.370811
0.37027
0.444618
0.429457
0.41427
0.412817
0.412056
0.411297
0.410541
0.409787
0.409036
0.408287
0.40754
0.406797
0.406056
0.405318
0.404583
0.403852
0.403123
0.402398
0.401676
0.400958
0.400244
0.399533
0.398826
0.398123
0.397424
0.396729
0.396038
0.395351
0.394669
0.393991
0.393318
0.392649
0.391985
0.391326
0.390671
0.39002
0.389375
0.388734
0.388098
0.387467
0.38684
0.386218
0.385601
0.384988
0.38438
0.383776
0.383176
0.382581
0.38199
0.381403
0.38082
0.38024
0.379665
0.379092
0.378524
0.377958
0.377395
0.376836
0.376279
0.375724
0.375172
0.374622
0.374073
0.373527
0.372982
0.372438
0.371895
0.371353
0.370811
0.37027
0.444618
0.429458
0.414272
0.412818
0.412057
0.411299
0.410542
0.409788
0.409037
0.408288
0.407542
0.406798
0.406057
0.40532
0.404585
0.403853
0.403125
0.402399
0.401678
0.40096
0.400245
0.399534
0.398827
0.398124
0.397425
0.39673
0.396039
0.395352
0.39467
0.393992
0.393319
0.39265
0.391986
0.391326
0.390672
0.390021
0.389376
0.388735
0.388099
0.387468
0.386841
0.386219
0.385602
0.384989
0.38438
0.383776
0.383177
0.382581
0.38199
0.381403
0.38082
0.380241
0.379665
0.379093
0.378524
0.377958
0.377396
0.376836
0.376279
0.375724
0.375172
0.374622
0.374074
0.373527
0.372982
0.372438
0.371895
0.371353
0.370811
0.37027
0.444618
0.429459
0.414273
0.41282
0.412059
0.4113
0.410544
0.40979
0.409038
0.408289
0.407543
0.406799
0.406059
0.405321
0.404586
0.403854
0.403126
0.402401
0.401679
0.400961
0.400246
0.399535
0.398828
0.398125
0.397426
0.396731
0.39604
0.395353
0.394671
0.393993
0.39332
0.392651
0.391987
0.391327
0.390672
0.390022
0.389377
0.388736
0.3881
0.387468
0.386842
0.386219
0.385602
0.384989
0.384381
0.383777
0.383177
0.382582
0.381991
0.381404
0.38082
0.380241
0.379665
0.379093
0.378524
0.377959
0.377396
0.376836
0.376279
0.375724
0.375172
0.374622
0.374074
0.373527
0.372982
0.372438
0.371895
0.371353
0.370811
0.37027
0.444618
0.429459
0.414274
0.412821
0.41206
0.411301
0.410545
0.409791
0.409039
0.40829
0.407544
0.4068
0.40606
0.405322
0.404587
0.403855
0.403127
0.402402
0.40168
0.400962
0.400247
0.399536
0.398829
0.398126
0.397427
0.396732
0.396041
0.395354
0.394672
0.393994
0.393321
0.392652
0.391988
0.391328
0.390673
0.390023
0.389377
0.388736
0.3881
0.387469
0.386842
0.38622
0.385602
0.38499
0.384381
0.383777
0.383178
0.382582
0.381991
0.381404
0.380821
0.380241
0.379665
0.379093
0.378524
0.377959
0.377396
0.376836
0.376279
0.375725
0.375172
0.374622
0.374074
0.373527
0.372982
0.372438
0.371895
0.371353
0.370811
0.37027
0.444618
0.429459
0.414274
0.412821
0.41206
0.411302
0.410545
0.409791
0.40904
0.408291
0.407545
0.406801
0.40606
0.405323
0.404588
0.403856
0.403128
0.402402
0.401681
0.400962
0.400248
0.399537
0.39883
0.398127
0.397427
0.396732
0.396041
0.395355
0.394672
0.393995
0.393321
0.392652
0.391988
0.391328
0.390673
0.390023
0.389378
0.388737
0.388101
0.387469
0.386842
0.38622
0.385603
0.38499
0.384381
0.383777
0.383178
0.382582
0.381991
0.381404
0.380821
0.380241
0.379666
0.379093
0.378524
0.377959
0.377396
0.376836
0.376279
0.375725
0.375172
0.374622
0.374074
0.373527
0.372982
0.372438
0.371895
0.371353
0.370811
0.37027
0.444618
0.42946
0.414275
0.412822
0.412061
0.411302
0.410546
0.409792
0.40904
0.408291
0.407545
0.406802
0.406061
0.405323
0.404588
0.403857
0.403128
0.402403
0.401681
0.400963
0.400248
0.399537
0.39883
0.398127
0.397428
0.396733
0.396042
0.395355
0.394673
0.393995
0.393321
0.392653
0.391988
0.391329
0.390674
0.390023
0.389378
0.388737
0.388101
0.387469
0.386843
0.38622
0.385603
0.38499
0.384382
0.383778
0.383178
0.382583
0.381991
0.381404
0.380821
0.380241
0.379666
0.379093
0.378525
0.377959
0.377396
0.376836
0.376279
0.375725
0.375172
0.374622
0.374074
0.373527
0.372982
0.372438
0.371895
0.371353
0.370811
0.37027
0.444618
0.42946
0.414275
0.412822
0.412061
0.411302
0.410546
0.409792
0.409041
0.408292
0.407546
0.406802
0.406061
0.405323
0.404589
0.403857
0.403128
0.402403
0.401681
0.400963
0.400249
0.399538
0.39883
0.398127
0.397428
0.396733
0.396042
0.395355
0.394673
0.393995
0.393322
0.392653
0.391989
0.391329
0.390674
0.390024
0.389378
0.388737
0.388101
0.387469
0.386843
0.386221
0.385603
0.38499
0.384382
0.383778
0.383178
0.382583
0.381991
0.381404
0.380821
0.380241
0.379666
0.379093
0.378525
0.377959
0.377396
0.376836
0.376279
0.375725
0.375172
0.374622
0.374074
0.373527
0.372982
0.372438
0.371895
0.371353
0.370811
0.37027
0.444618
0.42946
0.414275
0.412822
0.412061
0.411303
0.410546
0.409792
0.409041
0.408292
0.407546
0.406802
0.406061
0.405324
0.404589
0.403857
0.403129
0.402403
0.401682
0.400963
0.400249
0.399538
0.398831
0.398127
0.397428
0.396733
0.396042
0.395355
0.394673
0.393995
0.393322
0.392653
0.391989
0.391329
0.390674
0.390024
0.389378
0.388737
0.388101
0.38747
0.386843
0.386221
0.385603
0.38499
0.384382
0.383778
0.383178
0.382583
0.381991
0.381404
0.380821
0.380242
0.379666
0.379093
0.378525
0.377959
0.377396
0.376836
0.376279
0.375725
0.375172
0.374622
0.374074
0.373527
0.372982
0.372438
0.371895
0.371353
0.370811
0.37027
0.444618
0.42946
0.414275
0.412822
0.412061
0.411303
0.410546
0.409792
0.409041
0.408292
0.407546
0.406802
0.406062
0.405324
0.404589
0.403857
0.403129
0.402404
0.401682
0.400963
0.400249
0.399538
0.398831
0.398127
0.397428
0.396733
0.396042
0.395356
0.394673
0.393995
0.393322
0.392653
0.391989
0.391329
0.390674
0.390024
0.389378
0.388737
0.388101
0.38747
0.386843
0.386221
0.385603
0.38499
0.384382
0.383778
0.383178
0.382583
0.381991
0.381404
0.380821
0.380242
0.379666
0.379093
0.378525
0.377959
0.377396
0.376836
0.376279
0.375725
0.375172
0.374622
0.374074
0.373527
0.372982
0.372438
0.371895
0.371353
0.370811
0.37027
0.444618
0.42946
0.414275
0.412822
0.412061
0.411303
0.410546
0.409792
0.409041
0.408292
0.407546
0.406802
0.406062
0.405324
0.404589
0.403857
0.403129
0.402404
0.401682
0.400963
0.400249
0.399538
0.398831
0.398128
0.397428
0.396733
0.396042
0.395356
0.394673
0.393995
0.393322
0.392653
0.391989
0.391329
0.390674
0.390024
0.389378
0.388737
0.388101
0.38747
0.386843
0.386221
0.385603
0.38499
0.384382
0.383778
0.383178
0.382583
0.381991
0.381404
0.380821
0.380242
0.379666
0.379094
0.378525
0.377959
0.377396
0.376836
0.376279
0.375725
0.375172
0.374622
0.374074
0.373527
0.372982
0.372438
0.371895
0.371353
0.370811
0.37027
0.444618
0.42946
0.414275
0.412822
0.412061
0.411303
0.410546
0.409793
0.409041
0.408292
0.407546
0.406802
0.406062
0.405324
0.404589
0.403857
0.403129
0.402404
0.401682
0.400964
0.400249
0.399538
0.398831
0.398128
0.397428
0.396733
0.396042
0.395356
0.394673
0.393995
0.393322
0.392653
0.391989
0.391329
0.390674
0.390024
0.389378
0.388737
0.388101
0.38747
0.386843
0.386221
0.385603
0.38499
0.384382
0.383778
0.383178
0.382583
0.381991
0.381404
0.380821
0.380242
0.379666
0.379094
0.378525
0.377959
0.377396
0.376836
0.376279
0.375725
0.375172
0.374622
0.374074
0.373527
0.372982
0.372438
0.371895
0.371353
0.370811
0.37027
0.444618
0.42946
0.414275
0.412822
0.412061
0.411303
0.410546
0.409793
0.409041
0.408292
0.407546
0.406802
0.406062
0.405324
0.404589
0.403857
0.403129
0.402404
0.401682
0.400964
0.400249
0.399538
0.398831
0.398128
0.397428
0.396733
0.396042
0.395356
0.394673
0.393995
0.393322
0.392653
0.391989
0.391329
0.390674
0.390024
0.389378
0.388737
0.388101
0.38747
0.386843
0.386221
0.385603
0.38499
0.384382
0.383778
0.383178
0.382583
0.381991
0.381404
0.380821
0.380242
0.379666
0.379094
0.378525
0.377959
0.377396
0.376836
0.376279
0.375725
0.375172
0.374622
0.374074
0.373527
0.372982
0.372438
0.371895
0.371353
0.370811
0.37027
0.444618
0.42946
0.414275
0.412822
0.412061
0.411303
0.410546
0.409793
0.409041
0.408292
0.407546
0.406802
0.406062
0.405324
0.404589
0.403857
0.403129
0.402404
0.401682
0.400964
0.400249
0.399538
0.398831
0.398128
0.397428
0.396733
0.396042
0.395356
0.394673
0.393995
0.393322
0.392653
0.391989
0.391329
0.390674
0.390024
0.389378
0.388737
0.388101
0.38747
0.386843
0.386221
0.385603
0.38499
0.384382
0.383778
0.383178
0.382583
0.381991
0.381404
0.380821
0.380242
0.379666
0.379094
0.378525
0.377959
0.377396
0.376836
0.376279
0.375725
0.375172
0.374622
0.374074
0.373527
0.372982
0.372438
0.371895
0.371353
0.370811
0.37027
0.444618
0.42946
0.414275
0.412822
0.412061
0.411303
0.410546
0.409793
0.409041
0.408292
0.407546
0.406802
0.406062
0.405324
0.404589
0.403857
0.403129
0.402404
0.401682
0.400964
0.400249
0.399538
0.398831
0.398128
0.397428
0.396733
0.396042
0.395356
0.394673
0.393995
0.393322
0.392653
0.391989
0.391329
0.390674
0.390024
0.389378
0.388737
0.388101
0.38747
0.386843
0.386221
0.385603
0.38499
0.384382
0.383778
0.383178
0.382583
0.381991
0.381404
0.380821
0.380242
0.379666
0.379094
0.378525
0.377959
0.377396
0.376836
0.376279
0.375725
0.375172
0.374622
0.374074
0.373527
0.372982
0.372438
0.371895
0.371353
0.370811
0.37027
0.444618
0.42946
0.414275
0.412822
0.412061
0.411303
0.410546
0.409793
0.409041
0.408292
0.407546
0.406802
0.406062
0.405324
0.404589
0.403857
0.403129
0.402404
0.401682
0.400964
0.400249
0.399538
0.398831
0.398128
0.397428
0.396733
0.396042
0.395356
0.394673
0.393995
0.393322
0.392653
0.391989
0.391329
0.390674
0.390024
0.389378
0.388737
0.388101
0.38747
0.386843
0.386221
0.385603
0.38499
0.384382
0.383778
0.383178
0.382583
0.381991
0.381404
0.380821
0.380242
0.379666
0.379094
0.378525
0.377959
0.377396
0.376836
0.376279
0.375725
0.375172
0.374622
0.374074
0.373527
0.372982
0.372438
0.371895
0.371353
0.370811
0.37027
0.444618
0.42946
0.414275
0.412822
0.412061
0.411303
0.410546
0.409793
0.409041
0.408292
0.407546
0.406802
0.406062
0.405324
0.404589
0.403857
0.403129
0.402404
0.401682
0.400964
0.400249
0.399538
0.398831
0.398128
0.397428
0.396733
0.396042
0.395356
0.394673
0.393995
0.393322
0.392653
0.391989
0.391329
0.390674
0.390024
0.389378
0.388737
0.388101
0.38747
0.386843
0.386221
0.385603
0.38499
0.384382
0.383778
0.383178
0.382583
0.381991
0.381404
0.380821
0.380242
0.379666
0.379094
0.378525
0.377959
0.377396
0.376836
0.376279
0.375725
0.375172
0.374622
0.374074
0.373527
0.372982
0.372438
0.371895
0.371353
0.370811
0.37027
0.444618
0.42946
0.414275
0.412822
0.412061
0.411303
0.410546
0.409793
0.409041
0.408292
0.407546
0.406802
0.406062
0.405324
0.404589
0.403857
0.403129
0.402404
0.401682
0.400964
0.400249
0.399538
0.398831
0.398128
0.397428
0.396733
0.396042
0.395356
0.394673
0.393995
0.393322
0.392653
0.391989
0.391329
0.390674
0.390024
0.389378
0.388737
0.388101
0.38747
0.386843
0.386221
0.385603
0.38499
0.384382
0.383778
0.383178
0.382583
0.381991
0.381404
0.380821
0.380242
0.379666
0.379094
0.378525
0.377959
0.377396
0.376836
0.376279
0.375725
0.375172
0.374622
0.374074
0.373527
0.372982
0.372438
0.371895
0.371353
0.370811
0.37027
0.444618
0.42946
0.414275
0.412822
0.412061
0.411303
0.410546
0.409793
0.409041
0.408292
0.407546
0.406802
0.406062
0.405324
0.404589
0.403857
0.403129
0.402404
0.401682
0.400964
0.400249
0.399538
0.398831
0.398128
0.397428
0.396733
0.396042
0.395356
0.394673
0.393995
0.393322
0.392653
0.391989
0.391329
0.390674
0.390024
0.389378
0.388737
0.388101
0.38747
0.386843
0.386221
0.385603
0.38499
0.384382
0.383778
0.383178
0.382583
0.381991
0.381404
0.380821
0.380242
0.379666
0.379094
0.378525
0.377959
0.377396
0.376836
0.376279
0.375725
0.375172
0.374622
0.374074
0.373527
0.372982
0.372438
0.371895
0.371353
0.370811
0.37027
0.444618
0.42946
0.414275
0.412822
0.412061
0.411303
0.410546
0.409793
0.409041
0.408292
0.407546
0.406802
0.406062
0.405324
0.404589
0.403857
0.403129
0.402404
0.401682
0.400964
0.400249
0.399538
0.398831
0.398128
0.397428
0.396733
0.396042
0.395356
0.394673
0.393995
0.393322
0.392653
0.391989
0.391329
0.390674
0.390024
0.389378
0.388737
0.388101
0.38747
0.386843
0.386221
0.385603
0.38499
0.384382
0.383778
0.383178
0.382583
0.381991
0.381404
0.380821
0.380242
0.379666
0.379094
0.378525
0.377959
0.377396
0.376836
0.376279
0.375725
0.375172
0.374622
0.374074
0.373527
0.372982
0.372438
0.371895
0.371353
0.370811
0.37027
0.444618
0.42946
0.414275
0.412822
0.412061
0.411303
0.410546
0.409793
0.409041
0.408292