/*--------------------------------*- C++ -*----------------------------------*\
  =========                 |
  \\      /  F ield         | OpenFOAM: The Open Source CFD Toolbox
   \\    /   O peration     | Website:  https://openfoam.org
    \\  /    A nd           | Version:  13
     \\/     M anipulation  |
\*---------------------------------------------------------------------------*/
FoamFile
{
    format      ascii;
    class       volScalarField;
    location    "112.5";
    object      nut;
}
// * * * * * * * * * * * * * * * * * * * * * * * * * * * * * * * * * * * * * //

dimensions      [0 2 -1 0 0 0 0];

internalField   nonuniform List<scalar> 
315000
(
5.80613e-15
1.52056e-12
3.46977e-11
6.22821e-11
9.03166e-11
1.1886e-10
1.47984e-10
1.77754e-10
2.08213e-10
2.39377e-10
2.71233e-10
3.03739e-10
3.36822e-10
3.70381e-10
4.04292e-10
4.38405e-10
4.72553e-10
5.06553e-10
5.40209e-10
5.73318e-10
6.05669e-10
6.37051e-10
6.67252e-10
6.96066e-10
7.23289e-10
7.48728e-10
7.72199e-10
7.93531e-10
8.12567e-10
8.29164e-10
8.43198e-10
8.54564e-10
8.63176e-10
8.68968e-10
8.71895e-10
8.71936e-10
8.69091e-10
8.6338e-10
8.54847e-10
8.43558e-10
8.29598e-10
8.13071e-10
7.94102e-10
7.72832e-10
7.49418e-10
7.2403e-10
6.96853e-10
6.68079e-10
6.37911e-10
6.06556e-10
5.74225e-10
5.4113e-10
5.07481e-10
4.73481e-10
4.39326e-10
4.05199e-10
3.71269e-10
3.37683e-10
3.04569e-10
2.72025e-10
2.40126e-10
2.08913e-10
1.78399e-10
1.48568e-10
1.19374e-10
9.07527e-11
6.26249e-11
3.49226e-11
1.5325e-12
5.85641e-15
1.45303e-13
3.86946e-11
8.81137e-09
1.59365e-08
2.31456e-08
3.04708e-08
3.79391e-08
4.55707e-08
5.33785e-08
6.13676e-08
6.95349e-08
7.78692e-08
8.63516e-08
9.4956e-08
1.03649e-07
1.12393e-07
1.21144e-07
1.29854e-07
1.38473e-07
1.46948e-07
1.55226e-07
1.63252e-07
1.70974e-07
1.78337e-07
1.85291e-07
1.91786e-07
1.97776e-07
2.03219e-07
2.08073e-07
2.12305e-07
2.15882e-07
2.18777e-07
2.20971e-07
2.22445e-07
2.23189e-07
2.23198e-07
2.2247e-07
2.21013e-07
2.18836e-07
2.15956e-07
2.12395e-07
2.08178e-07
2.03337e-07
1.97908e-07
1.91929e-07
1.85445e-07
1.785e-07
1.71145e-07
1.63431e-07
1.5541e-07
1.47136e-07
1.38663e-07
1.30045e-07
1.21335e-07
1.12582e-07
1.03835e-07
9.51373e-08
8.65268e-08
7.80369e-08
6.96937e-08
6.15163e-08
5.35158e-08
4.56951e-08
3.80493e-08
3.05651e-08
2.32222e-08
1.59931e-08
8.84514e-09
3.88546e-11
1.45924e-13
5.84517e-13
1.55885e-10
9.02771e-08
1.63022e-07
2.36407e-07
3.1083e-07
3.86621e-07
4.64025e-07
5.432e-07
6.24205e-07
7.07004e-07
7.91464e-07
8.77364e-07
9.64399e-07
1.0522e-06
1.14032e-06
1.2283e-06
1.31563e-06
1.40179e-06
1.48624e-06
1.56845e-06
1.6479e-06
1.72407e-06
1.79647e-06
1.86464e-06
1.92813e-06
1.98652e-06
2.03943e-06
2.08653e-06
2.12749e-06
2.16205e-06
2.19e-06
2.21113e-06
2.22532e-06
2.23247e-06
2.23253e-06
2.22551e-06
2.21145e-06
2.19044e-06
2.16262e-06
2.12817e-06
2.08732e-06
2.04033e-06
1.98751e-06
1.92921e-06
1.86581e-06
1.79771e-06
1.72537e-06
1.64925e-06
1.56985e-06
1.48767e-06
1.40324e-06
1.31709e-06
1.22976e-06
1.14177e-06
1.05361e-06
9.65779e-07
8.78695e-07
7.92735e-07
7.08203e-07
6.25322e-07
5.44224e-07
4.64947e-07
3.87428e-07
3.11513e-07
2.36954e-07
1.6342e-07
9.05099e-08
1.56309e-10
5.86146e-13
1.09425e-12
2.91853e-10
1.68616e-07
3.0383e-07
4.39917e-07
5.77756e-07
7.18061e-07
8.61356e-07
1.00796e-06
1.158e-06
1.31136e-06
1.46776e-06
1.62669e-06
1.78752e-06
1.94943e-06
2.11157e-06
2.27298e-06
2.43269e-06
2.58974e-06
2.74317e-06
2.89203e-06
3.03543e-06
3.1725e-06
3.30241e-06
3.4244e-06
3.53772e-06
3.64172e-06
3.73577e-06
3.81933e-06
3.89189e-06
3.95304e-06
4.00241e-06
4.03972e-06
4.06475e-06
4.07734e-06
4.07743e-06
4.06501e-06
4.04016e-06
4.00303e-06
3.95382e-06
3.89283e-06
3.82042e-06
3.73702e-06
3.6431e-06
3.53923e-06
3.42602e-06
3.30414e-06
3.17432e-06
3.03733e-06
2.89399e-06
2.74518e-06
2.59178e-06
2.43475e-06
2.27503e-06
2.11361e-06
1.95144e-06
1.78947e-06
1.62858e-06
1.46956e-06
1.31306e-06
1.15958e-06
1.00941e-06
8.62658e-07
7.192e-07
5.78717e-07
4.40684e-07
3.04387e-07
1.68941e-07
2.92449e-10
1.09654e-12
1.67184e-12
4.45945e-10
2.56929e-07
4.61749e-07
6.67198e-07
8.74774e-07
1.08566e-06
1.30069e-06
1.52037e-06
1.74483e-06
1.97386e-06
2.20693e-06
2.44321e-06
2.68163e-06
2.92096e-06
3.15986e-06
3.39695e-06
3.63085e-06
3.8602e-06
4.08367e-06
4.29999e-06
4.50793e-06
4.70633e-06
4.89407e-06
5.07012e-06
5.23347e-06
5.38323e-06
5.51853e-06
5.63862e-06
5.74282e-06
5.83056e-06
5.90137e-06
5.95485e-06
5.99071e-06
6.00874e-06
6.00884e-06
5.99101e-06
5.95536e-06
5.90207e-06
5.83146e-06
5.74391e-06
5.63989e-06
5.51996e-06
5.38482e-06
5.23522e-06
5.072e-06
4.89608e-06
4.70844e-06
4.51013e-06
4.30227e-06
4.08601e-06
3.86258e-06
3.63325e-06
3.39935e-06
3.16224e-06
2.92331e-06
2.68392e-06
2.44543e-06
2.20905e-06
1.97587e-06
1.7467e-06
1.52208e-06
1.30223e-06
1.08701e-06
8.75914e-07
6.6811e-07
4.62411e-07
2.57317e-07
4.46663e-10
1.6746e-12
2.28373e-12
6.09217e-10
3.49958e-07
6.27125e-07
9.04021e-07
1.18285e-06
1.46532e-06
1.75259e-06
2.04533e-06
2.34367e-06
2.64726e-06
2.95532e-06
3.26668e-06
3.57988e-06
3.89331e-06
4.20526e-06
4.51399e-06
4.8178e-06
5.11501e-06
5.40402e-06
5.6833e-06
5.95136e-06
6.20682e-06
6.44842e-06
6.67495e-06
6.88521e-06
7.07806e-06
7.25241e-06
7.40726e-06
7.54173e-06
7.65502e-06
7.74648e-06
7.81557e-06
7.8619e-06
7.88518e-06
7.88528e-06
7.86221e-06
7.8161e-06
7.74722e-06
7.65596e-06
7.54286e-06
7.40858e-06
7.2539e-06
7.07972e-06
6.88703e-06
6.67691e-06
6.45051e-06
6.20902e-06
5.95366e-06
5.68568e-06
5.40647e-06
5.1175e-06
4.82031e-06
4.51652e-06
4.20777e-06
3.8958e-06
3.58231e-06
3.26903e-06
2.95758e-06
2.6494e-06
2.34567e-06
2.04716e-06
1.75425e-06
1.46677e-06
1.18408e-06
9.05006e-07
6.27842e-07
3.5038e-07
6.10006e-10
2.28677e-12
2.88387e-12
7.69389e-10
4.40684e-07
7.87458e-07
1.13247e-06
1.47869e-06
1.82834e-06
2.18294e-06
2.5433e-06
2.90955e-06
3.28122e-06
3.65728e-06
4.03628e-06
4.41647e-06
4.79593e-06
5.17265e-06
5.54466e-06
5.91e-06
6.26677e-06
6.61323e-06
6.94778e-06
7.26885e-06
7.57493e-06
7.86449e-06
8.13602e-06
8.38804e-06
8.61915e-06
8.82804e-06
9.01351e-06
9.17449e-06
9.31006e-06
9.41947e-06
9.50209e-06
9.55747e-06
9.58528e-06
9.58538e-06
9.55777e-06
9.5026e-06
9.42018e-06
9.31097e-06
9.17558e-06
9.01478e-06
8.82949e-06
8.62077e-06
8.38981e-06
8.13792e-06
7.86652e-06
7.57708e-06
7.2711e-06
6.9501e-06
6.61562e-06
6.26921e-06
5.91247e-06
5.54715e-06
5.17514e-06
4.79838e-06
4.41888e-06
4.03862e-06
3.65953e-06
3.28335e-06
2.91155e-06
2.54514e-06
2.1846e-06
1.8298e-06
1.47993e-06
1.13346e-06
7.88184e-07
4.41114e-07
7.702e-10
2.887e-12
3.42897e-12
9.14909e-10
5.22664e-07
9.31554e-07
1.33686e-06
1.7423e-06
2.15063e-06
2.56367e-06
2.98239e-06
3.40693e-06
3.83671e-06
4.27052e-06
4.7067e-06
5.14327e-06
5.5781e-06
6.00898e-06
6.43374e-06
6.85031e-06
7.25676e-06
7.65128e-06
8.03212e-06
8.39756e-06
8.74585e-06
9.07526e-06
9.38404e-06
9.67051e-06
9.93306e-06
1.01702e-05
1.03807e-05
1.05633e-05
1.0717e-05
1.0841e-05
1.09346e-05
1.09973e-05
1.10288e-05
1.10289e-05
1.09976e-05
1.09351e-05
1.08416e-05
1.07178e-05
1.05643e-05
1.03819e-05
1.01716e-05
9.93457e-06
9.67216e-06
9.38583e-06
9.07717e-06
8.74787e-06
8.39967e-06
8.03432e-06
7.65354e-06
7.25907e-06
6.85265e-06
6.4361e-06
6.01133e-06
5.58043e-06
5.14557e-06
4.70894e-06
4.27267e-06
3.83875e-06
3.40885e-06
2.98416e-06
2.56527e-06
2.15204e-06
1.7435e-06
1.33782e-06
9.32257e-07
5.23082e-07
9.15705e-10
3.43205e-12
3.88889e-12
1.03773e-09
5.91536e-07
1.05206e-06
1.50716e-06
1.96123e-06
2.4175e-06
2.87808e-06
3.34408e-06
3.81564e-06
4.29213e-06
4.7722e-06
5.25403e-06
5.73549e-06
6.2143e-06
6.68813e-06
7.15472e-06
7.61195e-06
8.05783e-06
8.49043e-06
8.9079e-06
9.30837e-06
9.68993e-06
1.00507e-05
1.03886e-05
1.07021e-05
1.09891e-05
1.12484e-05
1.14783e-05
1.16777e-05
1.18455e-05
1.19808e-05
1.20829e-05
1.21513e-05
1.21856e-05
1.21857e-05
1.21516e-05
1.20833e-05
1.19814e-05
1.18462e-05
1.16786e-05
1.14794e-05
1.12496e-05
1.09905e-05
1.07036e-05
1.03903e-05
1.00524e-05
9.6918e-06
9.31033e-06
8.90993e-06
8.49253e-06
8.05997e-06
7.61413e-06
7.15692e-06
6.69033e-06
6.21649e-06
5.73764e-06
5.25612e-06
4.77421e-06
4.29405e-06
3.81744e-06
3.34574e-06
2.87959e-06
2.41882e-06
1.96235e-06
1.50806e-06
1.05272e-06
5.91931e-07
1.03849e-09
3.89185e-12
4.25078e-12
1.13441e-09
6.4555e-07
1.14624e-06
1.63986e-06
2.13142e-06
2.62453e-06
3.12152e-06
3.62363e-06
4.13103e-06
4.64301e-06
5.15817e-06
5.67456e-06
6.18996e-06
6.70198e-06
7.20823e-06
7.7064e-06
8.19431e-06
8.66991e-06
9.13121e-06
9.57625e-06
1.00031e-05
1.04096e-05
1.07938e-05
1.11537e-05
1.14872e-05
1.17926e-05
1.20683e-05
1.23127e-05
1.25246e-05
1.27029e-05
1.28466e-05
1.29551e-05
1.30277e-05
1.30642e-05
1.30643e-05
1.3028e-05
1.29555e-05
1.28472e-05
1.27036e-05
1.25255e-05
1.23137e-05
1.20694e-05
1.17939e-05
1.14886e-05
1.11552e-05
1.07955e-05
1.04113e-05
1.00049e-05
9.57815e-06
9.13316e-06
8.67191e-06
8.19634e-06
7.70845e-06
7.21028e-06
6.70402e-06
6.19197e-06
5.67652e-06
5.16006e-06
4.64481e-06
4.13272e-06
3.62519e-06
3.12294e-06
2.62577e-06
2.13248e-06
1.64071e-06
1.14686e-06
6.45922e-07
1.13513e-09
4.2536e-12
4.51743e-12
1.20567e-09
6.85259e-07
1.21529e-06
1.73698e-06
2.25578e-06
2.77558e-06
3.29893e-06
3.82714e-06
4.3604e-06
4.89798e-06
5.4384e-06
5.97967e-06
6.51947e-06
7.05537e-06
7.58492e-06
8.10579e-06
8.61576e-06
9.11272e-06
9.59463e-06
1.00595e-05
1.05052e-05
1.09297e-05
1.13307e-05
1.17062e-05
1.20541e-05
1.23726e-05
1.26601e-05
1.29149e-05
1.31357e-05
1.33215e-05
1.34713e-05
1.35843e-05
1.36599e-05
1.36979e-05
1.3698e-05
1.36602e-05
1.35846e-05
1.34718e-05
1.33222e-05
1.31365e-05
1.29158e-05
1.26612e-05
1.23739e-05
1.20555e-05
1.17076e-05
1.13322e-05
1.09313e-05
1.05069e-05
1.00613e-05
9.59648e-06
9.1146e-06
8.61768e-06
8.10773e-06
7.58686e-06
7.0573e-06
6.52138e-06
5.98152e-06
5.44019e-06
4.89968e-06
4.362e-06
3.82862e-06
3.30028e-06
2.77676e-06
2.25678e-06
1.73779e-06
1.21588e-06
6.85612e-07
1.20636e-09
4.52013e-12
4.70216e-12
1.25506e-09
7.12732e-07
1.26299e-06
1.80398e-06
2.34147e-06
2.8796e-06
3.42103e-06
3.96712e-06
4.5181e-06
5.07322e-06
5.63095e-06
6.18925e-06
6.74577e-06
7.29802e-06
7.84355e-06
8.37998e-06
8.90507e-06
9.41668e-06
9.91274e-06
1.03912e-05
1.08499e-05
1.12866e-05
1.16992e-05
1.20854e-05
1.24432e-05
1.27707e-05
1.30661e-05
1.3328e-05
1.3555e-05
1.37459e-05
1.38998e-05
1.40159e-05
1.40937e-05
1.41327e-05
1.41327e-05
1.40939e-05
1.40163e-05
1.39003e-05
1.37466e-05
1.35558e-05
1.33289e-05
1.30672e-05
1.27718e-05
1.24445e-05
1.20868e-05
1.17007e-05
1.12882e-05
1.08515e-05
1.03929e-05
9.91452e-06
9.4185e-06
8.90692e-06
8.38185e-06
7.84542e-06
7.29988e-06
6.7476e-06
6.19104e-06
5.63267e-06
5.07486e-06
4.51965e-06
3.96855e-06
3.42232e-06
2.88074e-06
2.34244e-06
1.80475e-06
1.26356e-06
7.13071e-07
1.25573e-09
4.70477e-12
4.82294e-12
1.28737e-09
7.30684e-07
1.29412e-06
1.84768e-06
2.39736e-06
2.94741e-06
3.50061e-06
4.05836e-06
4.62089e-06
5.18744e-06
5.75646e-06
6.32588e-06
6.89331e-06
7.45626e-06
8.01223e-06
8.55884e-06
9.09383e-06
9.61503e-06
1.01204e-05
1.06077e-05
1.10749e-05
1.15197e-05
1.19398e-05
1.2333e-05
1.26973e-05
1.30307e-05
1.33314e-05
1.35979e-05
1.38289e-05
1.40232e-05
1.41798e-05
1.4298e-05
1.43771e-05
1.44168e-05
1.44168e-05
1.43773e-05
1.42983e-05
1.41803e-05
1.40239e-05
1.38297e-05
1.35988e-05
1.33324e-05
1.30318e-05
1.26985e-05
1.23344e-05
1.19412e-05
1.15212e-05
1.10765e-05
1.06094e-05
1.01221e-05
9.61681e-06
9.09564e-06
8.56067e-06
8.01406e-06
7.45808e-06
6.89511e-06
6.32763e-06
5.75815e-06
5.18905e-06
4.62241e-06
4.05976e-06
3.50188e-06
2.94853e-06
2.3983e-06
1.84844e-06
1.29468e-06
7.31016e-07
1.28802e-09
4.8255e-12
4.89773e-12
1.30738e-09
7.41801e-07
1.31339e-06
1.87473e-06
2.43193e-06
2.98938e-06
3.54987e-06
4.11485e-06
4.68455e-06
5.25821e-06
5.83425e-06
6.41059e-06
6.98483e-06
7.55444e-06
8.11693e-06
8.6699e-06
9.21108e-06
9.73828e-06
1.02494e-05
1.07423e-05
1.12148e-05
1.16647e-05
1.20895e-05
1.24871e-05
1.28555e-05
1.31925e-05
1.34966e-05
1.37661e-05
1.39996e-05
1.4196e-05
1.43543e-05
1.44737e-05
1.45536e-05
1.45938e-05
1.45938e-05
1.45539e-05
1.4474e-05
1.43548e-05
1.41966e-05
1.40003e-05
1.3767e-05
1.34976e-05
1.31937e-05
1.28567e-05
1.24885e-05
1.2091e-05
1.16662e-05
1.12164e-05
1.0744e-05
1.02511e-05
9.74005e-06
9.21287e-06
8.67171e-06
8.11875e-06
7.55624e-06
6.98661e-06
6.41233e-06
5.83593e-06
5.25981e-06
4.68606e-06
4.11624e-06
3.55113e-06
2.99049e-06
2.43287e-06
1.87548e-06
1.31394e-06
7.4213e-07
1.30803e-09
4.90028e-12
4.94174e-12
1.31917e-09
7.48345e-07
1.32474e-06
1.89065e-06
2.45229e-06
3.0141e-06
3.5789e-06
4.14816e-06
4.72211e-06
5.29998e-06
5.88019e-06
6.46065e-06
7.03893e-06
7.61252e-06
8.1789e-06
8.73567e-06
9.28054e-06
9.81134e-06
1.03259e-05
1.08222e-05
1.12979e-05
1.17507e-05
1.21784e-05
1.25787e-05
1.29495e-05
1.32888e-05
1.35948e-05
1.3866e-05
1.41011e-05
1.42987e-05
1.4458e-05
1.45782e-05
1.46587e-05
1.46991e-05
1.46991e-05
1.46589e-05
1.45786e-05
1.44585e-05
1.42993e-05
1.41018e-05
1.38669e-05
1.35958e-05
1.32899e-05
1.29507e-05
1.25801e-05
1.21799e-05
1.17523e-05
1.12995e-05
1.08239e-05
1.03277e-05
9.8131e-06
9.28233e-06
8.73748e-06
8.18071e-06
7.61432e-06
7.04071e-06
6.46238e-06
5.88187e-06
5.30157e-06
4.72361e-06
4.14954e-06
3.58015e-06
3.0152e-06
2.45323e-06
1.8914e-06
1.32529e-06
7.48674e-07
1.31982e-09
4.94429e-12
4.96642e-12
1.32578e-09
7.52018e-07
1.3311e-06
1.89958e-06
2.46373e-06
3.02798e-06
3.59522e-06
4.16689e-06
4.74325e-06
5.32351e-06
5.90609e-06
6.48889e-06
7.06948e-06
7.64533e-06
8.21393e-06
8.77287e-06
9.31985e-06
9.85271e-06
1.03693e-05
1.08675e-05
1.1345e-05
1.17996e-05
1.22289e-05
1.26307e-05
1.30029e-05
1.33434e-05
1.36506e-05
1.39228e-05
1.41588e-05
1.43571e-05
1.45171e-05
1.46377e-05
1.47185e-05
1.4759e-05
1.47591e-05
1.47187e-05
1.4638e-05
1.45176e-05
1.43578e-05
1.41595e-05
1.39237e-05
1.36516e-05
1.33446e-05
1.30041e-05
1.26321e-05
1.22304e-05
1.18011e-05
1.13466e-05
1.08691e-05
1.0371e-05
9.85447e-06
9.32165e-06
8.77468e-06
8.21575e-06
7.64713e-06
7.07126e-06
6.49063e-06
5.90777e-06
5.32511e-06
4.74475e-06
4.16828e-06
3.59648e-06
3.02909e-06
2.46466e-06
1.90034e-06
1.33165e-06
7.52347e-07
1.32643e-09
4.96897e-12
4.97964e-12
1.32932e-09
7.53987e-07
1.33452e-06
1.90438e-06
2.46986e-06
3.03544e-06
3.60399e-06
4.17697e-06
4.75463e-06
5.33619e-06
5.92006e-06
6.50413e-06
7.08598e-06
7.66306e-06
8.23288e-06
8.79301e-06
9.34115e-06
9.87513e-06
1.03928e-05
1.0892e-05
1.13706e-05
1.18261e-05
1.22563e-05
1.2659e-05
1.30319e-05
1.33732e-05
1.3681e-05
1.39538e-05
1.41902e-05
1.4389e-05
1.45492e-05
1.46701e-05
1.4751e-05
1.47916e-05
1.47917e-05
1.47512e-05
1.46704e-05
1.45497e-05
1.43896e-05
1.41909e-05
1.39547e-05
1.3682e-05
1.33743e-05
1.30332e-05
1.26603e-05
1.22578e-05
1.18277e-05
1.13722e-05
1.08937e-05
1.03945e-05
9.8769e-06
9.34295e-06
8.79482e-06
8.2347e-06
7.66488e-06
7.08777e-06
6.50588e-06
5.92174e-06
5.33779e-06
4.75614e-06
4.17837e-06
3.60525e-06
3.03655e-06
2.4708e-06
1.90513e-06
1.33507e-06
7.54316e-07
1.32997e-09
4.98219e-12
4.98642e-12
1.33114e-09
7.54997e-07
1.33627e-06
1.90684e-06
2.47302e-06
3.03928e-06
3.60851e-06
4.18217e-06
4.76051e-06
5.34274e-06
5.92728e-06
6.51202e-06
7.09452e-06
7.67225e-06
8.24271e-06
8.80346e-06
9.35221e-06
9.88679e-06
1.0405e-05
1.09048e-05
1.13839e-05
1.18399e-05
1.22706e-05
1.26737e-05
1.30471e-05
1.33887e-05
1.36968e-05
1.39699e-05
1.42066e-05
1.44056e-05
1.4566e-05
1.4687e-05
1.4768e-05
1.48087e-05
1.48087e-05
1.47682e-05
1.46874e-05
1.45665e-05
1.44062e-05
1.42073e-05
1.39708e-05
1.36979e-05
1.33898e-05
1.30483e-05
1.26751e-05
1.22721e-05
1.18415e-05
1.13855e-05
1.09065e-05
1.04068e-05
9.88856e-06
9.35402e-06
8.80528e-06
8.24453e-06
7.67407e-06
7.09631e-06
6.51377e-06
5.92897e-06
5.34435e-06
4.76202e-06
4.18357e-06
3.60977e-06
3.0404e-06
2.47396e-06
1.9076e-06
1.33682e-06
7.55328e-07
1.33179e-09
4.98898e-12
4.98976e-12
1.33204e-09
7.55495e-07
1.33713e-06
1.90806e-06
2.47458e-06
3.04118e-06
3.61074e-06
4.18474e-06
4.76341e-06
5.34598e-06
5.93086e-06
6.51593e-06
7.09877e-06
7.67683e-06
8.2476e-06
8.80866e-06
9.35773e-06
9.8926e-06
1.04112e-05
1.09112e-05
1.13906e-05
1.18469e-05
1.22778e-05
1.26811e-05
1.30546e-05
1.33965e-05
1.37048e-05
1.3978e-05
1.42148e-05
1.44139e-05
1.45744e-05
1.46955e-05
1.47766e-05
1.48172e-05
1.48173e-05
1.47768e-05
1.46958e-05
1.45749e-05
1.44146e-05
1.42156e-05
1.39789e-05
1.37058e-05
1.33976e-05
1.30559e-05
1.26825e-05
1.22792e-05
1.18484e-05
1.13922e-05
1.09129e-05
1.04129e-05
9.89438e-06
9.35953e-06
8.81049e-06
8.24943e-06
7.67865e-06
7.10056e-06
6.51768e-06
5.93255e-06
5.3476e-06
4.76493e-06
4.18614e-06
3.61201e-06
3.04229e-06
2.47552e-06
1.90881e-06
1.33769e-06
7.55826e-07
1.33269e-09
4.99232e-12
4.99133e-12
1.33246e-09
7.55731e-07
1.33754e-06
1.90863e-06
2.47532e-06
3.04208e-06
3.6118e-06
4.18596e-06
4.7648e-06
5.34753e-06
5.93257e-06
6.5178e-06
7.1008e-06
7.67901e-06
8.24994e-06
8.81116e-06
9.36037e-06
9.89539e-06
1.04141e-05
1.09143e-05
1.13938e-05
1.18502e-05
1.22812e-05
1.26846e-05
1.30583e-05
1.34002e-05
1.37086e-05
1.39819e-05
1.42188e-05
1.44179e-05
1.45785e-05
1.46996e-05
1.47807e-05
1.48213e-05
1.48214e-05
1.47809e-05
1.46999e-05
1.4579e-05
1.44186e-05
1.42195e-05
1.39828e-05
1.37096e-05
1.34014e-05
1.30596e-05
1.2686e-05
1.22827e-05
1.18517e-05
1.13954e-05
1.0916e-05
1.04158e-05
9.89717e-06
9.36218e-06
8.81299e-06
8.25177e-06
7.68084e-06
7.10259e-06
6.51956e-06
5.93426e-06
5.34914e-06
4.76632e-06
4.18736e-06
3.61307e-06
3.04319e-06
2.47626e-06
1.90939e-06
1.3381e-06
7.56063e-07
1.33312e-09
4.9939e-12
4.99205e-12
1.33265e-09
7.55838e-07
1.33773e-06
1.90889e-06
2.47565e-06
3.04249e-06
3.61229e-06
4.18652e-06
4.76543e-06
5.34824e-06
5.93335e-06
6.51866e-06
7.10173e-06
7.68002e-06
8.25102e-06
8.81231e-06
9.36159e-06
9.89668e-06
1.04154e-05
1.09157e-05
1.13952e-05
1.18517e-05
1.22828e-05
1.26863e-05
1.306e-05
1.3402e-05
1.37104e-05
1.39837e-05
1.42206e-05
1.44198e-05
1.45804e-05
1.47015e-05
1.47826e-05
1.48233e-05
1.48233e-05
1.47828e-05
1.47018e-05
1.45809e-05
1.44204e-05
1.42214e-05
1.39846e-05
1.37114e-05
1.34031e-05
1.30613e-05
1.26877e-05
1.22843e-05
1.18533e-05
1.13969e-05
1.09174e-05
1.04172e-05
9.89846e-06
9.3634e-06
8.81414e-06
8.25285e-06
7.68184e-06
7.10353e-06
6.52042e-06
5.93505e-06
5.34985e-06
4.76695e-06
4.18792e-06
3.61356e-06
3.04361e-06
2.4766e-06
1.90965e-06
1.33828e-06
7.5617e-07
1.33331e-09
4.99462e-12
4.99237e-12
1.33274e-09
7.55886e-07
1.33781e-06
1.90901e-06
2.4758e-06
3.04267e-06
3.6125e-06
4.18677e-06
4.76571e-06
5.34855e-06
5.9337e-06
6.51904e-06
7.10215e-06
7.68047e-06
8.2515e-06
8.81282e-06
9.36213e-06
9.89725e-06
1.0416e-05
1.09163e-05
1.13959e-05
1.18524e-05
1.22835e-05
1.2687e-05
1.30608e-05
1.34027e-05
1.37112e-05
1.39846e-05
1.42214e-05
1.44206e-05
1.45812e-05
1.47023e-05
1.47834e-05
1.48241e-05
1.48242e-05
1.47837e-05
1.47027e-05
1.45817e-05
1.44213e-05
1.42222e-05
1.39855e-05
1.37122e-05
1.34039e-05
1.3062e-05
1.26884e-05
1.2285e-05
1.1854e-05
1.13975e-05
1.0918e-05
1.04178e-05
9.89904e-06
9.36395e-06
8.81465e-06
8.25333e-06
7.68229e-06
7.10394e-06
6.5208e-06
5.9354e-06
5.35017e-06
4.76723e-06
4.18817e-06
3.61377e-06
3.04379e-06
2.47675e-06
1.90977e-06
1.33837e-06
7.56218e-07
1.33339e-09
4.99494e-12
4.9925e-12
1.33277e-09
7.55906e-07
1.33785e-06
1.90906e-06
2.47586e-06
3.04275e-06
3.61259e-06
4.18687e-06
4.76583e-06
5.34869e-06
5.93385e-06
6.51921e-06
7.10232e-06
7.68066e-06
8.25171e-06
8.81304e-06
9.36237e-06
9.8975e-06
1.04163e-05
1.09166e-05
1.13962e-05
1.18527e-05
1.22839e-05
1.26874e-05
1.30611e-05
1.34031e-05
1.37115e-05
1.39849e-05
1.42218e-05
1.4421e-05
1.45816e-05
1.47027e-05
1.47838e-05
1.48245e-05
1.48246e-05
1.4784e-05
1.47031e-05
1.45821e-05
1.44216e-05
1.42226e-05
1.39858e-05
1.37126e-05
1.34042e-05
1.30623e-05
1.26887e-05
1.22853e-05
1.18543e-05
1.13978e-05
1.09183e-05
1.0418e-05
9.89929e-06
9.36418e-06
8.81487e-06
8.25354e-06
7.68249e-06
7.10412e-06
6.52096e-06
5.93555e-06
5.3503e-06
4.76735e-06
4.18828e-06
3.61386e-06
3.04387e-06
2.47681e-06
1.90982e-06
1.3384e-06
7.56238e-07
1.33343e-09
4.99507e-12
4.99256e-12
1.33279e-09
7.55914e-07
1.33786e-06
1.90908e-06
2.47589e-06
3.04278e-06
3.61263e-06
4.18692e-06
4.76588e-06
5.34874e-06
5.93391e-06
6.51927e-06
7.1024e-06
7.68074e-06
8.25179e-06
8.81313e-06
9.36247e-06
9.8976e-06
1.04164e-05
1.09167e-05
1.13963e-05
1.18528e-05
1.2284e-05
1.26875e-05
1.30612e-05
1.34032e-05
1.37117e-05
1.3985e-05
1.42219e-05
1.44212e-05
1.45817e-05
1.47029e-05
1.4784e-05
1.48247e-05
1.48247e-05
1.47842e-05
1.47032e-05
1.45822e-05
1.44218e-05
1.42227e-05
1.3986e-05
1.37127e-05
1.34044e-05
1.30625e-05
1.26889e-05
1.22854e-05
1.18544e-05
1.13979e-05
1.09184e-05
1.04182e-05
9.89939e-06
9.36428e-06
8.81496e-06
8.25363e-06
7.68256e-06
7.1042e-06
6.52103e-06
5.93561e-06
5.35036e-06
4.7674e-06
4.18832e-06
3.6139e-06
3.0439e-06
2.47684e-06
1.90984e-06
1.33841e-06
7.56246e-07
1.33344e-09
4.99513e-12
4.99258e-12
1.3328e-09
7.55917e-07
1.33786e-06
1.90909e-06
2.4759e-06
3.04279e-06
3.61265e-06
4.18693e-06
4.7659e-06
5.34876e-06
5.93394e-06
6.5193e-06
7.10243e-06
7.68077e-06
8.25183e-06
8.81317e-06
9.3625e-06
9.89765e-06
1.04165e-05
1.09168e-05
1.13964e-05
1.18529e-05
1.2284e-05
1.26875e-05
1.30613e-05
1.34033e-05
1.37117e-05
1.39851e-05
1.4222e-05
1.44212e-05
1.45818e-05
1.47029e-05
1.4784e-05
1.48247e-05
1.48248e-05
1.47842e-05
1.47033e-05
1.45823e-05
1.44219e-05
1.42228e-05
1.3986e-05
1.37128e-05
1.34044e-05
1.30625e-05
1.26889e-05
1.22855e-05
1.18544e-05
1.1398e-05
1.09185e-05
1.04182e-05
9.89943e-06
9.36432e-06
8.815e-06
8.25366e-06
7.6826e-06
7.10423e-06
6.52106e-06
5.93563e-06
5.35038e-06
4.76742e-06
4.18834e-06
3.61392e-06
3.04391e-06
2.47685e-06
1.90985e-06
1.33842e-06
7.56249e-07
1.33345e-09
4.99515e-12
4.99259e-12
1.3328e-09
7.55918e-07
1.33787e-06
1.90909e-06
2.4759e-06
3.0428e-06
3.61265e-06
4.18694e-06
4.76591e-06
5.34877e-06
5.93395e-06
6.51931e-06
7.10244e-06
7.68078e-06
8.25184e-06
8.81318e-06
9.36252e-06
9.89766e-06
1.04165e-05
1.09168e-05
1.13964e-05
1.18529e-05
1.22841e-05
1.26876e-05
1.30613e-05
1.34033e-05
1.37118e-05
1.39851e-05
1.4222e-05
1.44212e-05
1.45818e-05
1.47029e-05
1.47841e-05
1.48247e-05
1.48248e-05
1.47843e-05
1.47033e-05
1.45823e-05
1.44219e-05
1.42228e-05
1.3986e-05
1.37128e-05
1.34044e-05
1.30626e-05
1.26889e-05
1.22855e-05
1.18545e-05
1.1398e-05
1.09185e-05
1.04182e-05
9.89945e-06
9.36433e-06
8.81501e-06
8.25367e-06
7.68261e-06
7.10424e-06
6.52107e-06
5.93564e-06
5.35039e-06
4.76743e-06
4.18834e-06
3.61392e-06
3.04391e-06
2.47685e-06
1.90985e-06
1.33842e-06
7.56251e-07
1.33345e-09
4.99516e-12
4.99259e-12
1.3328e-09
7.55919e-07
1.33787e-06
1.90909e-06
2.47591e-06
3.0428e-06
3.61265e-06
4.18694e-06
4.76591e-06
5.34878e-06
5.93395e-06
6.51932e-06
7.10244e-06
7.68079e-06
8.25184e-06
8.81319e-06
9.36253e-06
9.89767e-06
1.04165e-05
1.09168e-05
1.13964e-05
1.18529e-05
1.22841e-05
1.26876e-05
1.30613e-05
1.34033e-05
1.37118e-05
1.39851e-05
1.4222e-05
1.44213e-05
1.45818e-05
1.4703e-05
1.47841e-05
1.48248e-05
1.48248e-05
1.47843e-05
1.47033e-05
1.45823e-05
1.44219e-05
1.42228e-05
1.3986e-05
1.37128e-05
1.34044e-05
1.30626e-05
1.26889e-05
1.22855e-05
1.18545e-05
1.1398e-05
1.09185e-05
1.04182e-05
9.89945e-06
9.36434e-06
8.81502e-06
8.25368e-06
7.68261e-06
7.10424e-06
6.52107e-06
5.93565e-06
5.35039e-06
4.76743e-06
4.18835e-06
3.61392e-06
3.04392e-06
2.47685e-06
1.90985e-06
1.33842e-06
7.56251e-07
1.33345e-09
4.99516e-12
4.99259e-12
1.3328e-09
7.55919e-07
1.33787e-06
1.90909e-06
2.47591e-06
3.0428e-06
3.61265e-06
4.18694e-06
4.76591e-06
5.34878e-06
5.93395e-06
6.51932e-06
7.10244e-06
7.68079e-06
8.25185e-06
8.81319e-06
9.36253e-06
9.89767e-06
1.04165e-05
1.09168e-05
1.13964e-05
1.18529e-05
1.22841e-05
1.26876e-05
1.30613e-05
1.34033e-05
1.37118e-05
1.39851e-05
1.4222e-05
1.44213e-05
1.45818e-05
1.4703e-05
1.47841e-05
1.48248e-05
1.48248e-05
1.47843e-05
1.47033e-05
1.45823e-05
1.44219e-05
1.42228e-05
1.3986e-05
1.37128e-05
1.34044e-05
1.30626e-05
1.26889e-05
1.22855e-05
1.18545e-05
1.1398e-05
1.09185e-05
1.04182e-05
9.89945e-06
9.36434e-06
8.81502e-06
8.25368e-06
7.68262e-06
7.10424e-06
6.52107e-06
5.93565e-06
5.35039e-06
4.76743e-06
4.18835e-06
3.61392e-06
3.04392e-06
2.47685e-06
1.90985e-06
1.33842e-06
7.56251e-07
1.33345e-09
4.99516e-12
4.99259e-12
1.3328e-09
7.55919e-07
1.33787e-06
1.90909e-06
2.47591e-06
3.0428e-06
3.61266e-06
4.18694e-06
4.76591e-06
5.34878e-06
5.93395e-06
6.51932e-06
7.10244e-06
7.68079e-06
8.25185e-06
8.81319e-06
9.36253e-06
9.89767e-06
1.04165e-05
1.09168e-05
1.13964e-05
1.18529e-05
1.22841e-05
1.26876e-05
1.30613e-05
1.34033e-05
1.37118e-05
1.39851e-05
1.4222e-05
1.44213e-05
1.45818e-05
1.4703e-05
1.47841e-05
1.48248e-05
1.48248e-05
1.47843e-05
1.47033e-05
1.45823e-05
1.44219e-05
1.42228e-05
1.39861e-05
1.37128e-05
1.34044e-05
1.30626e-05
1.26889e-05
1.22855e-05
1.18545e-05
1.1398e-05
1.09185e-05
1.04182e-05
9.89945e-06
9.36434e-06
8.81502e-06
8.25368e-06
7.68262e-06
7.10424e-06
6.52107e-06
5.93565e-06
5.35039e-06
4.76743e-06
4.18835e-06
3.61392e-06
3.04392e-06
2.47685e-06
1.90985e-06
1.33842e-06
7.56251e-07
1.33345e-09
4.99516e-12
4.99259e-12
1.3328e-09
7.55919e-07
1.33787e-06
1.90909e-06
2.47591e-06
3.0428e-06
3.61266e-06
4.18694e-06
4.76591e-06
5.34878e-06
5.93395e-06
6.51932e-06
7.10244e-06
7.68079e-06
8.25185e-06
8.81319e-06
9.36253e-06
9.89767e-06
1.04165e-05
1.09168e-05
1.13964e-05
1.18529e-05
1.22841e-05
1.26876e-05
1.30613e-05
1.34033e-05
1.37118e-05
1.39851e-05
1.4222e-05
1.44213e-05
1.45818e-05
1.4703e-05
1.47841e-05
1.48248e-05
1.48248e-05
1.47843e-05
1.47033e-05
1.45823e-05
1.44219e-05
1.42228e-05
1.39861e-05
1.37128e-05
1.34044e-05
1.30626e-05
1.26889e-05
1.22855e-05
1.18545e-05
1.1398e-05
1.09185e-05
1.04182e-05
9.89946e-06
9.36434e-06
8.81502e-06
8.25368e-06
7.68262e-06
7.10424e-06
6.52107e-06
5.93565e-06
5.35039e-06
4.76743e-06
4.18835e-06
3.61393e-06
3.04392e-06
2.47685e-06
1.90985e-06
1.33842e-06
7.56251e-07
1.33345e-09
4.99516e-12
4.99259e-12
1.3328e-09
7.55919e-07
1.33787e-06
1.90909e-06
2.47591e-06
3.0428e-06
3.61266e-06
4.18694e-06
4.76591e-06
5.34878e-06
5.93395e-06
6.51932e-06
7.10244e-06
7.68079e-06
8.25185e-06
8.81319e-06
9.36253e-06
9.89767e-06
1.04165e-05
1.09168e-05
1.13964e-05
1.18529e-05
1.22841e-05
1.26876e-05
1.30613e-05
1.34033e-05
1.37118e-05
1.39851e-05
1.4222e-05
1.44213e-05
1.45818e-05
1.4703e-05
1.47841e-05
1.48248e-05
1.48248e-05
1.47843e-05
1.47033e-05
1.45823e-05
1.44219e-05
1.42228e-05
1.39861e-05
1.37128e-05
1.34044e-05
1.30626e-05
1.26889e-05
1.22855e-05
1.18545e-05
1.1398e-05
1.09185e-05
1.04182e-05
9.89946e-06
9.36434e-06
8.81502e-06
8.25368e-06
7.68262e-06
7.10424e-06
6.52107e-06
5.93565e-06
5.35039e-06
4.76743e-06
4.18835e-06
3.61393e-06
3.04392e-06
2.47685e-06
1.90985e-06
1.33842e-06
7.56251e-07
1.33345e-09
4.99516e-12
4.99259e-12
1.3328e-09
7.55919e-07
1.33787e-06
1.90909e-06
2.47591e-06
3.0428e-06
3.61266e-06
4.18694e-06
4.76591e-06
5.34878e-06
5.93395e-06
6.51932e-06
7.10244e-06
7.68079e-06
8.25185e-06
8.81319e-06
9.36253e-06
9.89767e-06
1.04165e-05
1.09168e-05
1.13964e-05
1.18529e-05
1.22841e-05
1.26876e-05
1.30613e-05
1.34033e-05
1.37118e-05
1.39851e-05
1.4222e-05
1.44213e-05
1.45818e-05
1.4703e-05
1.47841e-05
1.48248e-05
1.48248e-05
1.47843e-05
1.47033e-05
1.45823e-05
1.44219e-05
1.42228e-05
1.39861e-05
1.37128e-05
1.34044e-05
1.30626e-05
1.26889e-05
1.22855e-05
1.18545e-05
1.1398e-05
1.09185e-05
1.04182e-05
9.89946e-06
9.36434e-06
8.81502e-06
8.25368e-06
7.68262e-06
7.10424e-06
6.52107e-06
5.93565e-06
5.35039e-06
4.76743e-06
4.18835e-06
3.61393e-06
3.04392e-06
2.47685e-06
1.90985e-06
1.33842e-06
7.56251e-07
1.33345e-09
4.99516e-12
4.99259e-12
1.3328e-09
7.55919e-07
1.33787e-06
1.90909e-06
2.47591e-06
3.0428e-06
3.61266e-06
4.18694e-06
4.76591e-06
5.34878e-06
5.93395e-06
6.51932e-06
7.10244e-06
7.68079e-06
8.25185e-06
8.81319e-06
9.36253e-06
9.89767e-06
1.04165e-05
1.09168e-05
1.13964e-05
1.18529e-05
1.22841e-05
1.26876e-05
1.30613e-05
1.34033e-05
1.37118e-05
1.39851e-05
1.4222e-05
1.44213e-05
1.45818e-05
1.4703e-05
1.47841e-05
1.48248e-05
1.48248e-05
1.47843e-05
1.47033e-05
1.45823e-05
1.44219e-05
1.42228e-05
1.39861e-05
1.37128e-05
1.34044e-05
1.30626e-05
1.26889e-05
1.22855e-05
1.18545e-05
1.1398e-05
1.09185e-05
1.04182e-05
9.89946e-06
9.36434e-06
8.81502e-06
8.25368e-06
7.68262e-06
7.10424e-06
6.52107e-06
5.93565e-06
5.35039e-06
4.76743e-06
4.18835e-06
3.61393e-06
3.04392e-06
2.47685e-06
1.90985e-06
1.33842e-06
7.56251e-07
1.33345e-09
4.99516e-12
4.99259e-12
1.3328e-09
7.55919e-07
1.33787e-06
1.90909e-06
2.47591e-06
3.0428e-06
3.61266e-06
4.18694e-06
4.76591e-06
5.34878e-06
5.93395e-06
6.51932e-06
7.10244e-06
7.68079e-06
8.25185e-06
8.81319e-06
9.36253e-06
9.89767e-06
1.04165e-05
1.09168e-05
1.13964e-05
1.18529e-05
1.22841e-05
1.26876e-05
1.30613e-05
1.34033e-05
1.37118e-05
1.39851e-05
1.4222e-05
1.44213e-05
1.45818e-05
1.4703e-05
1.47841e-05
1.48248e-05
1.48248e-05
1.47843e-05
1.47033e-05
1.45823e-05
1.44219e-05
1.42228e-05
1.39861e-05
1.37128e-05
1.34044e-05
1.30626e-05
1.26889e-05
1.22855e-05
1.18545e-05
1.1398e-05
1.09185e-05
1.04182e-05
9.89946e-06
9.36434e-06
8.81502e-06
8.25368e-06
7.68262e-06
7.10424e-06
6.52107e-06
5.93565e-06
5.35039e-06
4.76743e-06
4.18835e-06
3.61393e-06
3.04392e-06
2.47685e-06
1.90985e-06
1.33842e-06
7.56251e-07
1.33345e-09
4.99516e-12
4.99259e-12
1.3328e-09
7.55919e-07
1.33787e-06
1.90909e-06
2.47591e-06
3.0428e-06
3.61266e-06
4.18694e-06
4.76591e-06
5.34878e-06
5.93395e-06
6.51932e-06
7.10244e-06
7.68079e-06
8.25185e-06
8.81319e-06
9.36253e-06
9.89767e-06
1.04165e-05
1.09168e-05
1.13964e-05
1.18529e-05
1.22841e-05
1.26876e-05
1.30613e-05
1.34033e-05
1.37118e-05
1.39851e-05
1.4222e-05
1.44213e-05
1.45818e-05
1.4703e-05
1.47841e-05
1.48248e-05
1.48248e-05
1.47843e-05
1.47033e-05
1.45823e-05
1.44219e-05
1.42228e-05
1.39861e-05
1.37128e-05
1.34044e-05
1.30626e-05
1.26889e-05
1.22855e-05
1.18545e-05
1.1398e-05
1.09185e-05
1.04182e-05
9.89946e-06
9.36434e-06
8.81502e-06
8.25368e-06
7.68262e-06
7.10424e-06
6.52107e-06
5.93565e-06
5.35039e-06
4.76743e-06
4.18835e-06
3.61393e-06
3.04392e-06
2.47685e-06
1.90985e-06
1.33842e-06
7.56251e-07
1.33345e-09
4.99516e-12
4.99259e-12
1.3328e-09
7.55919e-07
1.33787e-06
1.90909e-06
2.47591e-06
3.0428e-06
3.61266e-06
4.18694e-06
4.76591e-06
5.34878e-06
5.93395e-06
6.51932e-06
7.10244e-06