/*--------------------------------*- C++ -*----------------------------------*\
  =========                 |
  \\      /  F ield         | OpenFOAM: The Open Source CFD Toolbox
   \\    /   O peration     | Website:  https://openfoam.org
    \\  /    A nd           | Version:  13
     \\/     M anipulation  |
\*---------------------------------------------------------------------------*/
FoamFile
{
    format      ascii;
    class       volScalarField;
    location    "120";
    object      nut;
}
// * * * * * * * * * * * * * * * * * * * * * * * * * * * * * * * * * * * * * //

dimensions      [0 2 -1 0 0 0 0];

internalField   nonuniform List<scalar> 
315000
(
4.00248e-15
1.04825e-12
2.39216e-11
4.29434e-11
6.22827e-11
8.19823e-11
1.02095e-10
1.22668e-10
1.43731e-10
1.653e-10
1.87365e-10
2.099e-10
2.32854e-10
2.56159e-10
2.79728e-10
3.03458e-10
3.27232e-10
3.50921e-10
3.74388e-10
3.97489e-10
4.20076e-10
4.41999e-10
4.63109e-10
4.83257e-10
5.02301e-10
5.20103e-10
5.36533e-10
5.51469e-10
5.648e-10
5.76426e-10
5.86258e-10
5.94222e-10
6.00256e-10
6.04315e-10
6.06368e-10
6.06398e-10
6.04405e-10
6.00404e-10
5.94427e-10
5.86519e-10
5.76741e-10
5.65167e-10
5.51884e-10
5.36992e-10
5.20603e-10
5.02838e-10
4.83827e-10
4.63708e-10
4.42622e-10
4.20718e-10
3.98145e-10
3.75053e-10
3.5159e-10
3.279e-10
3.0412e-10
2.8038e-10
2.56795e-10
2.33471e-10
2.10492e-10
1.8793e-10
1.65832e-10
1.44228e-10
1.23124e-10
1.02507e-10
8.23448e-11
6.25888e-11
4.31833e-11
2.40784e-11
1.05655e-12
4.03736e-15
1.00168e-13
2.66762e-11
6.07553e-09
1.09907e-08
1.59665e-08
2.10258e-08
2.61878e-08
3.14673e-08
3.68736e-08
4.24107e-08
4.80771e-08
5.38654e-08
5.97628e-08
6.57513e-08
7.18083e-08
7.79068e-08
8.40164e-08
9.01037e-08
9.6133e-08
1.02067e-07
1.07868e-07
1.13497e-07
1.18916e-07
1.24086e-07
1.28972e-07
1.33538e-07
1.37751e-07
1.4158e-07
1.44996e-07
1.47975e-07
1.50493e-07
1.52533e-07
1.54078e-07
1.55116e-07
1.55641e-07
1.55647e-07
1.55135e-07
1.54109e-07
1.52576e-07
1.50548e-07
1.48041e-07
1.45073e-07
1.41667e-07
1.37847e-07
1.33643e-07
1.29085e-07
1.24206e-07
1.19041e-07
1.13628e-07
1.08003e-07
1.02205e-07
9.62721e-08
9.02434e-08
8.41556e-08
7.80445e-08
7.19433e-08
6.58827e-08
5.98895e-08
5.39864e-08
4.81915e-08
4.25176e-08
3.6972e-08
3.15563e-08
2.62665e-08
2.1093e-08
1.60209e-08
1.10308e-08
6.0994e-09
2.6789e-11
1.00605e-13
4.02938e-13
1.07465e-10
6.22983e-08
1.12622e-07
1.6349e-07
2.15187e-07
2.67949e-07
3.21955e-07
3.77325e-07
4.34111e-07
4.92297e-07
5.51801e-07
6.12474e-07
6.74108e-07
7.36442e-07
7.9917e-07
8.61951e-07
9.24418e-07
9.86189e-07
1.04687e-06
1.10606e-06
1.16337e-06
1.21842e-06
1.27083e-06
1.32025e-06
1.36633e-06
1.40877e-06
1.44727e-06
1.48156e-06
1.51141e-06
1.53662e-06
1.55701e-06
1.57244e-06
1.5828e-06
1.58802e-06
1.58807e-06
1.58295e-06
1.57268e-06
1.55735e-06
1.53705e-06
1.51193e-06
1.48216e-06
1.44795e-06
1.40953e-06
1.36716e-06
1.32113e-06
1.27177e-06
1.21941e-06
1.1644e-06
1.10712e-06
1.04795e-06
9.87281e-07
9.25516e-07
8.63044e-07
8.00249e-07
7.37499e-07
6.75135e-07
6.13462e-07
5.52741e-07
4.93181e-07
4.34932e-07
3.78075e-07
3.22627e-07
2.68536e-07
2.15683e-07
1.63886e-07
1.12908e-07
6.24652e-08
1.07768e-10
4.041e-13
7.56856e-13
2.01872e-10
1.16843e-07
2.10955e-07
3.06012e-07
4.0264e-07
5.0136e-07
6.02563e-07
7.06507e-07
8.13302e-07
9.2291e-07
1.03514e-06
1.14968e-06
1.26605e-06
1.38371e-06
1.50199e-06
1.6202e-06
1.73759e-06
1.85341e-06
1.96691e-06
2.07736e-06
2.18403e-06
2.28624e-06
2.38333e-06
2.47467e-06
2.55968e-06
2.63781e-06
2.70856e-06
2.7715e-06
2.82621e-06
2.87236e-06
2.90965e-06
2.93784e-06
2.95676e-06
2.96628e-06
2.96635e-06
2.95697e-06
2.93819e-06
2.91014e-06
2.87298e-06
2.82696e-06
2.77237e-06
2.70955e-06
2.6389e-06
2.56087e-06
2.47595e-06
2.38469e-06
2.28768e-06
2.18552e-06
2.0789e-06
1.96848e-06
1.855e-06
1.73919e-06
1.62179e-06
1.50357e-06
1.38525e-06
1.26755e-06
1.15112e-06
1.03652e-06
9.242e-07
8.14498e-07
7.07598e-07
6.03538e-07
5.02208e-07
4.03353e-07
3.06578e-07
2.11363e-07
1.1708e-07
2.02305e-10
7.58513e-13
1.16109e-12
3.09717e-10
1.78923e-07
3.22486e-07
4.67219e-07
6.14183e-07
7.64239e-07
9.18027e-07
1.07595e-06
1.23814e-06
1.40452e-06
1.57474e-06
1.74822e-06
1.92418e-06
2.10172e-06
2.27978e-06
2.45729e-06
2.63315e-06
2.80624e-06
2.97549e-06
3.13985e-06
3.29831e-06
3.4499e-06
3.59369e-06
3.72881e-06
3.85443e-06
3.96979e-06
4.07418e-06
4.16697e-06
4.2476e-06
4.31557e-06
4.37047e-06
4.41197e-06
4.4398e-06
4.4538e-06
4.45388e-06
4.44005e-06
4.41238e-06
4.37105e-06
4.31631e-06
4.24849e-06
4.16801e-06
4.07536e-06
3.97109e-06
3.85585e-06
3.73034e-06
3.59532e-06
3.45161e-06
3.3001e-06
3.14169e-06
2.97737e-06
2.80815e-06
2.63507e-06
2.45921e-06
2.28168e-06
2.10358e-06
1.926e-06
1.74996e-06
1.5764e-06
1.40609e-06
1.2396e-06
1.07727e-06
9.19211e-07
7.6527e-07
6.15048e-07
4.67907e-07
3.22982e-07
1.79212e-07
3.10246e-10
1.16312e-12
1.5937e-12
4.25146e-10
2.45096e-07
4.40869e-07
6.3771e-07
8.37162e-07
1.04045e-06
1.24847e-06
1.46174e-06
1.68043e-06
1.90433e-06
2.13292e-06
2.36533e-06
2.60048e-06
2.83708e-06
3.07377e-06
3.30911e-06
3.54169e-06
3.77012e-06
3.99305e-06
4.20917e-06
4.41722e-06
4.616e-06
4.80438e-06
4.98124e-06
5.14557e-06
5.29639e-06
5.4328e-06
5.554e-06
5.6593e-06
5.74806e-06
5.81975e-06
5.87393e-06
5.91028e-06
5.92855e-06
5.92864e-06
5.91055e-06
5.87438e-06
5.82037e-06
5.74885e-06
5.66025e-06
5.55512e-06
5.43407e-06
5.29779e-06
5.1471e-06
4.98289e-06
4.80613e-06
4.61785e-06
4.41914e-06
4.21115e-06
3.99508e-06
3.77219e-06
3.54377e-06
3.31119e-06
3.07583e-06
2.83911e-06
2.60246e-06
2.36724e-06
2.13474e-06
1.90605e-06
1.68202e-06
1.4632e-06
1.24978e-06
1.04159e-06
8.38117e-07
6.38469e-07
4.41418e-07
2.45416e-07
4.25739e-10
1.59597e-12
2.02373e-12
5.39908e-10
3.10607e-07
5.57557e-07
8.05118e-07
1.05534e-06
1.3098e-06
1.56964e-06
1.83549e-06
2.1075e-06
2.38537e-06
2.66836e-06
2.95536e-06
3.24497e-06
3.53564e-06
3.82569e-06
4.11344e-06
4.39722e-06
4.6754e-06
4.94643e-06
5.20878e-06
5.46103e-06
5.70178e-06
5.92978e-06
6.14382e-06
6.34273e-06
6.52538e-06
6.69068e-06
6.83762e-06
6.96531e-06
7.07296e-06
7.1599e-06
7.22561e-06
7.26966e-06
7.29181e-06
7.2919e-06
7.26993e-06
7.22605e-06
7.16052e-06
7.07375e-06
6.96627e-06
6.83873e-06
6.69194e-06
6.52679e-06
6.34427e-06
6.14547e-06
5.93154e-06
5.70364e-06
5.46297e-06
5.21078e-06
4.94848e-06
4.67749e-06
4.39933e-06
4.11555e-06
3.82779e-06
3.5377e-06
3.24699e-06
2.9573e-06
2.67022e-06
2.38712e-06
2.10913e-06
1.83698e-06
1.57098e-06
1.31097e-06
1.05632e-06
8.05902e-07
5.58124e-07
3.1094e-07
5.40528e-10
2.02612e-12
2.42109e-12
6.45974e-10
3.70912e-07
6.64529e-07
9.58044e-07
1.25398e-06
1.55429e-06
1.86029e-06
2.17272e-06
2.49174e-06
2.81692e-06
3.14735e-06
3.4817e-06
3.81834e-06
4.15548e-06
4.49123e-06
4.82369e-06
5.15101e-06
5.47139e-06
5.7831e-06
6.08453e-06
6.37422e-06
6.65075e-06
6.91268e-06
7.15862e-06
7.38716e-06
7.59697e-06
7.78679e-06
7.95548e-06
8.10201e-06
8.2255e-06
8.32521e-06
8.40053e-06
8.45103e-06
8.47639e-06
8.47648e-06
8.45128e-06
8.40096e-06
8.3258e-06
8.22626e-06
8.10293e-06
7.95654e-06
7.788e-06
7.59831e-06
7.38863e-06
7.1602e-06
6.91438e-06
6.65253e-06
6.37609e-06
6.08646e-06
5.78508e-06
5.47341e-06
5.15305e-06
4.82574e-06
4.49326e-06
4.15749e-06
3.82031e-06
3.4836e-06
3.14916e-06
2.81863e-06
2.49334e-06
2.17419e-06
1.86161e-06
1.55544e-06
1.25495e-06
9.58817e-07
6.6509e-07
3.71241e-07
6.46592e-10
2.42349e-12
2.76347e-12
7.37385e-10
4.22703e-07
7.56074e-07
1.08852e-06
1.423e-06
1.76178e-06
2.10636e-06
2.45757e-06
2.81553e-06
3.17977e-06
3.5492e-06
3.92235e-06
4.29739e-06
4.67236e-06
5.0452e-06
5.41389e-06
5.77642e-06
6.13086e-06
6.4755e-06
6.8087e-06
7.12889e-06
7.43449e-06
7.72392e-06
7.99559e-06
8.24796e-06
8.47956e-06
8.689e-06
8.87505e-06
9.0366e-06
9.17269e-06
9.28254e-06
9.3655e-06
9.4211e-06
9.44902e-06
9.4491e-06
9.42134e-06
9.3659e-06
9.2831e-06
9.1734e-06
9.03745e-06
8.87605e-06
8.69014e-06
8.48082e-06
8.24935e-06
7.99708e-06
7.72551e-06
7.43617e-06
7.13065e-06
6.81052e-06
6.47737e-06
6.13276e-06
5.77834e-06
5.41582e-06
5.04713e-06
4.67426e-06
4.29926e-06
3.92415e-06
3.55094e-06
3.18141e-06
2.81706e-06
2.45897e-06
2.10762e-06
1.76288e-06
1.42393e-06
1.08926e-06
7.56611e-07
4.23019e-07
7.37984e-10
2.76579e-12
3.03952e-12
8.1111e-10
4.64357e-07
8.29489e-07
1.19291e-06
1.55795e-06
1.92711e-06
2.30209e-06
2.68375e-06
3.07223e-06
3.46697e-06
3.8668e-06
4.27009e-06
4.67492e-06
5.07918e-06
5.48071e-06
5.87736e-06
6.26705e-06
6.64786e-06
7.01803e-06
7.37583e-06
7.71959e-06
8.04762e-06
8.3582e-06
8.64965e-06
8.9203e-06
9.16858e-06
9.39302e-06
9.59233e-06
9.76533e-06
9.91103e-06
1.00286e-05
1.01174e-05
1.01769e-05
1.02067e-05
1.02068e-05
1.01771e-05
1.01178e-05
1.00291e-05
9.91169e-06
9.76613e-06
9.59326e-06
9.39409e-06
9.16976e-06
8.9216e-06
8.65105e-06
8.3597e-06
8.04919e-06
7.72123e-06
7.37754e-06
7.01978e-06
6.64965e-06
6.26886e-06
5.87919e-06
5.48253e-06
5.08098e-06
4.67668e-06
4.2718e-06
3.86844e-06
3.46852e-06
3.07368e-06
2.68508e-06
2.30328e-06
1.92816e-06
1.55883e-06
1.19361e-06
8.29997e-07
4.64657e-07
8.11682e-10
3.04175e-12
3.24854e-12
8.66954e-10
4.95842e-07
8.84863e-07
1.27151e-06
1.6594e-06
2.05126e-06
2.44888e-06
2.8532e-06
3.26434e-06
3.68171e-06
4.10404e-06
4.52964e-06
4.95647e-06
5.38234e-06
5.80503e-06
6.2223e-06
6.63205e-06
7.03235e-06
7.42136e-06
7.79732e-06
8.15845e-06
8.503e-06
8.82916e-06
9.13514e-06
9.41921e-06
9.67971e-06
9.91515e-06
1.01242e-05
1.03056e-05
1.04583e-05
1.05815e-05
1.06746e-05
1.07369e-05
1.07682e-05
1.07683e-05
1.07371e-05
1.06749e-05
1.0582e-05
1.04589e-05
1.03063e-05
1.01251e-05
9.91616e-06
9.68083e-06
9.42043e-06
9.13646e-06
8.83057e-06
8.50449e-06
8.16001e-06
7.79893e-06
7.42302e-06
7.03405e-06
6.63377e-06
6.22402e-06
5.80675e-06
5.38405e-06
4.95814e-06
4.53126e-06
4.1056e-06
3.68318e-06
3.26572e-06
2.85447e-06
2.45002e-06
2.05226e-06
1.66024e-06
1.27217e-06
8.85345e-07
4.96126e-07
8.67501e-10
3.25068e-12
3.39771e-12
9.06822e-10
5.18287e-07
9.24281e-07
1.32739e-06
1.73148e-06
2.13939e-06
2.55302e-06
2.97334e-06
3.40049e-06
3.83381e-06
4.27201e-06
4.71332e-06
5.15565e-06
5.59676e-06
6.03435e-06
6.46615e-06
6.89005e-06
7.3041e-06
7.7064e-06
8.09515e-06
8.46854e-06
8.82472e-06
9.16185e-06
9.47806e-06
9.77156e-06
1.00407e-05
1.02838e-05
1.04997e-05
1.0687e-05
1.08446e-05
1.09718e-05
1.10679e-05
1.11322e-05
1.11645e-05
1.11646e-05
1.11324e-05
1.10682e-05
1.09723e-05
1.08452e-05
1.06877e-05
1.05005e-05
1.02848e-05
1.00417e-05
9.77274e-06
9.47933e-06
9.1632e-06
8.82615e-06
8.47003e-06
8.0967e-06
7.708e-06
7.30573e-06
6.8917e-06
6.4678e-06
6.036e-06
5.5984e-06
5.15726e-06
4.71488e-06
4.27351e-06
3.83523e-06
3.40181e-06
2.97456e-06
2.55411e-06
2.14035e-06
1.73228e-06
1.32803e-06
9.24743e-07
5.1856e-07
9.07349e-10
3.39977e-12
3.49838e-12
9.33738e-10
5.33428e-07
9.50847e-07
1.36504e-06
1.78e-06
2.19871e-06
2.62309e-06
3.05417e-06
3.49207e-06
3.93612e-06
4.38499e-06
4.83687e-06
5.28963e-06
5.74098e-06
6.1886e-06
6.63019e-06
7.06364e-06
7.48695e-06
7.89822e-06
8.2956e-06
8.67725e-06
9.04129e-06
9.38581e-06
9.70892e-06
1.00088e-05
1.02837e-05
1.05321e-05
1.07525e-05
1.09438e-05
1.11048e-05
1.12347e-05
1.13327e-05
1.13984e-05
1.14313e-05
1.14314e-05
1.13986e-05
1.1333e-05
1.12351e-05
1.11054e-05
1.09445e-05
1.07533e-05
1.0533e-05
1.02847e-05
1.00099e-05
9.71015e-06
9.38712e-06
9.04268e-06
8.6787e-06
8.29711e-06
7.89977e-06
7.48853e-06
7.06525e-06
6.6318e-06
6.19021e-06
5.74258e-06
5.2912e-06
4.8384e-06
4.38645e-06
3.9375e-06
3.49336e-06
3.05536e-06
2.62416e-06
2.19964e-06
1.78079e-06
1.36566e-06
9.51296e-07
5.33694e-07
9.34252e-10
3.5004e-12
3.56284e-12
9.5098e-10
5.43123e-07
9.67848e-07
1.38912e-06
1.81105e-06
2.23665e-06
2.66793e-06
3.1059e-06
3.55069e-06
4.00162e-06
4.45735e-06
4.91602e-06
5.37548e-06
5.83342e-06
6.28749e-06
6.73539e-06
7.175e-06
7.60428e-06
8.02134e-06
8.42429e-06
8.81128e-06
9.18039e-06
9.52969e-06
9.85725e-06
1.01612e-05
1.04399e-05
1.06916e-05
1.0915e-05
1.11089e-05
1.1272e-05
1.14036e-05
1.1503e-05
1.15696e-05
1.16029e-05
1.1603e-05
1.15697e-05
1.15033e-05
1.14041e-05
1.12726e-05
1.11096e-05
1.09159e-05
1.06926e-05
1.04409e-05
1.01624e-05
9.85846e-06
9.53098e-06
9.18175e-06
8.81271e-06
8.42578e-06
8.02286e-06
7.60584e-06
7.17658e-06
6.73699e-06
6.28908e-06
5.835e-06
5.37703e-06
4.91752e-06
4.45879e-06
4.00299e-06
3.55197e-06
3.10707e-06
2.66898e-06
2.23757e-06
1.81182e-06
1.38973e-06
9.68291e-07
5.43384e-07
9.51486e-10
3.56482e-12
3.60211e-12
9.61489e-10
5.49031e-07
9.78208e-07
1.4038e-06
1.82997e-06
2.25979e-06
2.69527e-06
3.13746e-06
3.58647e-06
4.04163e-06
4.50156e-06
4.9644e-06
5.42799e-06
5.88998e-06
6.34803e-06
6.79982e-06
7.24322e-06
7.6762e-06
8.09683e-06
8.50323e-06
8.89352e-06
9.26577e-06
9.61803e-06
9.94835e-06
1.02549e-05
1.05359e-05
1.07897e-05
1.10149e-05
1.12104e-05
1.13749e-05
1.15076e-05
1.16077e-05
1.16748e-05
1.17085e-05
1.17085e-05
1.1675e-05
1.1608e-05
1.1508e-05
1.13754e-05
1.12111e-05
1.10157e-05
1.07906e-05
1.05369e-05
1.0256e-05
9.94956e-06
9.61931e-06
9.26713e-06
8.89494e-06
8.5047e-06
8.09835e-06
7.67775e-06
7.24479e-06
6.80141e-06
6.34961e-06
5.89155e-06
5.42952e-06
4.9659e-06
4.50299e-06
4.04299e-06
3.58774e-06
3.13862e-06
2.69632e-06
2.2607e-06
1.83073e-06
1.40441e-06
9.78648e-07
5.4929e-07
9.61992e-10
3.60408e-12
3.62494e-12
9.67601e-10
5.52468e-07
9.84235e-07
1.41234e-06
1.84098e-06
2.27326e-06
2.7112e-06
3.15586e-06
3.60735e-06
4.06498e-06
4.52738e-06
4.99268e-06
5.45869e-06
5.92308e-06
6.38347e-06
6.83757e-06
7.28321e-06
7.71837e-06
8.14112e-06
8.54957e-06
8.94181e-06
9.31593e-06
9.66994e-06
1.00019e-05
1.03099e-05
1.05923e-05
1.08474e-05
1.10737e-05
1.12701e-05
1.14354e-05
1.15687e-05
1.16694e-05
1.17368e-05
1.17706e-05
1.17707e-05
1.1737e-05
1.16697e-05
1.15692e-05
1.1436e-05
1.12708e-05
1.10745e-05
1.08483e-05
1.05933e-05
1.03111e-05
1.00031e-05
9.67122e-06
9.31728e-06
8.94323e-06
8.55104e-06
8.14264e-06
7.71992e-06
7.28478e-06
6.83915e-06
6.38505e-06
5.92465e-06
5.46023e-06
4.99417e-06
4.52881e-06
4.06634e-06
3.60861e-06
3.15702e-06
2.71225e-06
2.27417e-06
1.84174e-06
1.41294e-06
9.84674e-07
5.52727e-07
9.68104e-10
3.62691e-12
3.63763e-12
9.71001e-10
5.5438e-07
9.87589e-07
1.41709e-06
1.84712e-06
2.28077e-06
2.72009e-06
3.16613e-06
3.61901e-06
4.07803e-06
4.54183e-06
5.00851e-06
5.47589e-06
5.94164e-06
6.40335e-06
6.85875e-06
7.30567e-06
7.74207e-06
8.16602e-06
8.57563e-06
8.969e-06
9.34417e-06
9.69919e-06
1.00321e-05
1.0341e-05
1.06241e-05
1.08799e-05
1.11069e-05
1.13038e-05
1.14696e-05
1.16032e-05
1.17042e-05
1.17718e-05
1.18057e-05
1.18058e-05
1.1772e-05
1.17045e-05
1.16037e-05
1.14701e-05
1.13045e-05
1.11077e-05
1.08808e-05
1.06252e-05
1.03421e-05
1.00333e-05
9.70047e-06
9.34553e-06
8.97042e-06
8.57711e-06
8.16754e-06
7.74362e-06
7.30724e-06
6.86033e-06
6.40494e-06
5.9432e-06
5.47743e-06
5.01e-06
4.54326e-06
4.07939e-06
3.62027e-06
3.16729e-06
2.72113e-06
2.28168e-06
1.84788e-06
1.4177e-06
9.88028e-07
5.54639e-07
9.71504e-10
3.6396e-12
3.6444e-12
9.72814e-10
5.554e-07
9.89378e-07
1.41963e-06
1.85039e-06
2.28478e-06
2.72484e-06
3.17162e-06
3.62525e-06
4.08503e-06
4.54958e-06
5.01701e-06
5.48514e-06
5.95162e-06
6.41406e-06
6.87016e-06
7.31778e-06
7.75486e-06
8.17947e-06
8.58971e-06
8.98368e-06
9.35944e-06
9.715e-06
1.00484e-05
1.03578e-05
1.06414e-05
1.08975e-05
1.11249e-05
1.13221e-05
1.14881e-05
1.1622e-05
1.1723e-05
1.17907e-05
1.18247e-05
1.18248e-05
1.17909e-05
1.17234e-05
1.16224e-05
1.14886e-05
1.13228e-05
1.11257e-05
1.08985e-05
1.06424e-05
1.03589e-05
1.00496e-05
9.71629e-06
9.3608e-06
8.98511e-06
8.59119e-06
8.18099e-06
7.75641e-06
7.31935e-06
6.87175e-06
6.41564e-06
5.95319e-06
5.48668e-06
5.01851e-06
4.55101e-06
4.08639e-06
3.62652e-06
3.17279e-06
2.72589e-06
2.28569e-06
1.85116e-06
1.42024e-06
9.89818e-07
5.5566e-07
9.73318e-10
3.64637e-12
3.64786e-12
9.73742e-10
5.55923e-07
9.90296e-07
1.42093e-06
1.85207e-06
2.28684e-06
2.72728e-06
3.17445e-06
3.62847e-06
4.08864e-06
4.55357e-06
5.0214e-06
5.48992e-06
5.95678e-06
6.4196e-06
6.87607e-06
7.32405e-06
7.76148e-06
8.18644e-06
8.59702e-06
8.99131e-06
9.36737e-06
9.72322e-06
1.00569e-05
1.03665e-05
1.06503e-05
1.09067e-05
1.11342e-05
1.13316e-05
1.14977e-05
1.16317e-05
1.17329e-05
1.18006e-05
1.18346e-05
1.18347e-05
1.18008e-05
1.17332e-05
1.16322e-05
1.14983e-05
1.13323e-05
1.1135e-05
1.09076e-05
1.06514e-05
1.03677e-05
1.00581e-05
9.72452e-06
9.36874e-06
8.99274e-06
8.5985e-06
8.18796e-06
7.76304e-06
7.32563e-06
6.87766e-06
6.42118e-06
5.95835e-06
5.49146e-06
5.0229e-06
4.55501e-06
4.09e-06
3.62974e-06
3.17562e-06
2.72833e-06
2.28775e-06
1.85284e-06
1.42154e-06
9.90736e-07
5.56183e-07
9.74247e-10
3.64984e-12
3.64956e-12
9.742e-10
5.5618e-07
9.90748e-07
1.42157e-06
1.8529e-06
2.28786e-06
2.72849e-06
3.17585e-06
3.63006e-06
4.09042e-06
4.55556e-06
5.02358e-06
5.49229e-06
5.95934e-06
6.42235e-06
6.87902e-06
7.32718e-06
7.76479e-06
8.18992e-06
8.60067e-06
8.99512e-06
9.37134e-06
9.72734e-06
1.00612e-05
1.03709e-05
1.06548e-05
1.09113e-05
1.11389e-05
1.13364e-05
1.15026e-05
1.16366e-05
1.17378e-05
1.18056e-05
1.18396e-05
1.18397e-05
1.18058e-05
1.17381e-05
1.16371e-05
1.15031e-05
1.13371e-05
1.11397e-05
1.09122e-05
1.06559e-05
1.0372e-05
1.00624e-05
9.72863e-06
9.37271e-06
8.99655e-06
8.60215e-06
8.19145e-06
7.76635e-06
7.32876e-06
6.88061e-06
6.42394e-06
5.96092e-06
5.49383e-06
5.02508e-06
4.557e-06
4.09179e-06
3.63133e-06
3.17702e-06
2.72954e-06
2.28877e-06
1.85367e-06
1.42218e-06
9.91189e-07
5.5644e-07
9.74704e-10
3.65154e-12
3.65037e-12
9.74417e-10
5.56303e-07
9.90963e-07
1.42188e-06
1.8533e-06
2.28834e-06
2.72907e-06
3.17652e-06
3.63082e-06
4.09128e-06
4.55651e-06
5.02462e-06
5.49343e-06
5.96058e-06
6.42368e-06
6.88043e-06
7.32868e-06
7.76639e-06
8.1916e-06
8.60243e-06
8.99696e-06
9.37326e-06
9.72933e-06
1.00632e-05
1.0373e-05
1.0657e-05
1.09135e-05
1.11412e-05
1.13387e-05
1.15049e-05
1.1639e-05
1.17402e-05
1.1808e-05
1.1842e-05
1.18421e-05
1.18082e-05
1.17405e-05
1.16394e-05
1.15055e-05
1.13394e-05
1.1142e-05
1.09145e-05
1.0658e-05
1.03742e-05
1.00644e-05
9.73062e-06
9.37462e-06
8.99839e-06
8.60391e-06
8.19312e-06
7.76794e-06
7.33026e-06
6.88203e-06
6.42527e-06
5.96215e-06
5.49497e-06
5.02612e-06
4.55795e-06
4.09264e-06
3.63209e-06
3.17768e-06
2.73011e-06
2.28926e-06
1.85406e-06
1.42249e-06
9.91404e-07
5.56563e-07
9.74922e-10
3.65235e-12
3.65074e-12
9.74516e-10
5.56359e-07
9.91061e-07
1.42202e-06
1.85348e-06
2.28857e-06
2.72933e-06
3.17682e-06
3.63117e-06
4.09167e-06
4.55695e-06
5.0251e-06
5.49395e-06
5.96115e-06
6.42429e-06
6.88109e-06
7.32938e-06
7.76712e-06
8.19238e-06
8.60325e-06
8.99782e-06
9.37415e-06
9.73025e-06
1.00642e-05
1.0374e-05
1.0658e-05
1.09146e-05
1.11422e-05
1.13397e-05
1.1506e-05
1.16401e-05
1.17413e-05
1.18091e-05
1.18431e-05
1.18432e-05
1.18093e-05
1.17416e-05
1.16405e-05
1.15066e-05
1.13404e-05
1.11431e-05
1.09155e-05
1.06591e-05
1.03751e-05
1.00654e-05
9.73155e-06
9.37552e-06
8.99925e-06
8.60473e-06
8.1939e-06
7.76868e-06
7.33096e-06
6.88268e-06
6.42588e-06
5.96272e-06
5.4955e-06
5.02661e-06
4.55839e-06
4.09304e-06
3.63245e-06
3.17799e-06
2.73038e-06
2.28948e-06
1.85425e-06
1.42263e-06
9.91503e-07
5.56619e-07
9.75022e-10
3.65272e-12
3.65091e-12
9.7456e-10
5.56384e-07
9.91105e-07
1.42208e-06
1.85356e-06
2.28866e-06
2.72945e-06
3.17696e-06
3.63133e-06
4.09185e-06
4.55714e-06
5.02532e-06
5.49419e-06
5.9614e-06
6.42457e-06
6.88138e-06
7.32969e-06
7.76746e-06
8.19273e-06
8.60361e-06
8.9982e-06
9.37455e-06
9.73067e-06
1.00646e-05
1.03745e-05
1.06585e-05
1.09151e-05
1.11427e-05
1.13402e-05
1.15065e-05
1.16406e-05
1.17418e-05
1.18096e-05
1.18436e-05
1.18437e-05
1.18098e-05
1.17421e-05
1.1641e-05
1.15071e-05
1.13409e-05
1.11435e-05
1.0916e-05
1.06595e-05
1.03756e-05
1.00658e-05
9.73196e-06
9.37592e-06
8.99963e-06
8.6051e-06
8.19426e-06
7.76902e-06
7.33128e-06
6.88298e-06
6.42616e-06
5.96298e-06
5.49573e-06
5.02682e-06
4.55858e-06
4.09321e-06
3.6326e-06
3.17813e-06
2.7305e-06
2.28958e-06
1.85433e-06
1.42269e-06
9.91546e-07
5.56644e-07
9.75066e-10
3.65289e-12
3.65098e-12
9.74579e-10
5.56394e-07
9.91123e-07
1.42211e-06
1.85359e-06
2.28871e-06
2.7295e-06
3.17702e-06
3.63139e-06
4.09192e-06
4.55723e-06
5.02541e-06
5.49429e-06
5.96151e-06
6.42469e-06
6.88151e-06
7.32983e-06
7.7676e-06
8.19288e-06
8.60377e-06
8.99837e-06
9.37472e-06
9.73085e-06
1.00648e-05
1.03747e-05
1.06587e-05
1.09153e-05
1.11429e-05
1.13404e-05
1.15067e-05
1.16408e-05
1.1742e-05
1.18098e-05
1.18439e-05
1.18439e-05
1.181e-05
1.17423e-05
1.16413e-05
1.15073e-05
1.13411e-05
1.11437e-05
1.09162e-05
1.06597e-05
1.03758e-05
1.0066e-05
9.73215e-06
9.37609e-06
8.9998e-06
8.60526e-06
8.19441e-06
7.76916e-06
7.33141e-06
6.8831e-06
6.42628e-06
5.96309e-06
5.49584e-06
5.02691e-06
4.55867e-06
4.09329e-06
3.63267e-06
3.17819e-06
2.73055e-06
2.28962e-06
1.85436e-06
1.42272e-06
9.91565e-07
5.56655e-07
9.75084e-10
3.65296e-12
3.65101e-12
9.74587e-10
5.56399e-07
9.91131e-07
1.42212e-06
1.85361e-06
2.28872e-06
2.72952e-06
3.17704e-06
3.63142e-06
4.09196e-06
4.55726e-06
5.02545e-06
5.49433e-06
5.96156e-06
6.42474e-06
6.88157e-06
7.32989e-06
7.76766e-06
8.19294e-06
8.60384e-06
8.99844e-06
9.3748e-06
9.73093e-06
1.00649e-05
1.03747e-05
1.06588e-05
1.09153e-05
1.1143e-05
1.13405e-05
1.15068e-05
1.16409e-05
1.17421e-05
1.18099e-05
1.18439e-05
1.1844e-05
1.18101e-05
1.17424e-05
1.16413e-05
1.15074e-05
1.13412e-05
1.11438e-05
1.09163e-05
1.06598e-05
1.03759e-05
1.00661e-05
9.73222e-06
9.37616e-06
8.99987e-06
8.60532e-06
8.19447e-06
7.76922e-06
7.33147e-06
6.88316e-06
6.42633e-06
5.96313e-06
5.49588e-06
5.02695e-06
4.5587e-06
4.09332e-06
3.6327e-06
3.17821e-06
2.73057e-06
2.28964e-06
1.85438e-06
1.42273e-06
9.91573e-07
5.56659e-07
9.75092e-10
3.65299e-12
3.65102e-12
9.7459e-10
5.564e-07
9.91134e-07
1.42212e-06
1.85361e-06
2.28873e-06
2.72953e-06
3.17705e-06
3.63143e-06
4.09197e-06
4.55728e-06
5.02547e-06
5.49435e-06
5.96158e-06
6.42476e-06
6.88159e-06
7.32991e-06
7.76769e-06
8.19297e-06
8.60387e-06
8.99847e-06
9.37483e-06
9.73096e-06
1.00649e-05
1.03748e-05
1.06588e-05
1.09154e-05
1.11431e-05
1.13406e-05
1.15068e-05
1.16409e-05
1.17422e-05
1.181e-05
1.1844e-05
1.18441e-05
1.18102e-05
1.17425e-05
1.16414e-05
1.15074e-05
1.13413e-05
1.11439e-05
1.09163e-05
1.06598e-05
1.03759e-05
1.00661e-05
9.73225e-06
9.37619e-06
8.9999e-06
8.60535e-06
8.1945e-06
7.76925e-06
7.33149e-06
6.88318e-06
6.42635e-06
5.96315e-06
5.4959e-06
5.02697e-06
4.55872e-06
4.09333e-06
3.63271e-06
3.17822e-06
2.73058e-06
2.28965e-06
1.85438e-06
1.42273e-06
9.91576e-07
5.56661e-07
9.75095e-10
3.653e-12
3.65102e-12
9.74591e-10
5.56401e-07
9.91136e-07
1.42212e-06
1.85362e-06
2.28873e-06
2.72953e-06
3.17706e-06
3.63144e-06
4.09197e-06
4.55728e-06
5.02547e-06
5.49436e-06
5.96158e-06
6.42476e-06
6.8816e-06
7.32992e-06
7.76769e-06
8.19298e-06
8.60388e-06
8.99848e-06
9.37484e-06
9.73097e-06
1.00649e-05
1.03748e-05
1.06588e-05
1.09154e-05
1.11431e-05
1.13406e-05
1.15068e-05
1.16409e-05
1.17422e-05
1.181e-05
1.1844e-05
1.18441e-05
1.18102e-05
1.17425e-05
1.16414e-05
1.15074e-05
1.13413e-05
1.11439e-05
1.09163e-05
1.06598e-05
1.03759e-05
1.00661e-05
9.73227e-06
9.37621e-06
8.99991e-06
8.60536e-06
8.19451e-06
7.76926e-06
7.3315e-06
6.88319e-06
6.42635e-06
5.96316e-06
5.4959e-06
5.02698e-06
4.55872e-06
4.09334e-06
3.63271e-06
3.17823e-06
2.73058e-06
2.28965e-06
1.85438e-06
1.42273e-06
9.91577e-07
5.56662e-07
9.75097e-10
3.653e-12
3.65102e-12
9.74592e-10
5.56401e-07
9.91136e-07
1.42212e-06
1.85362e-06
2.28873e-06
2.72953e-06
3.17706e-06
3.63144e-06
4.09198e-06
4.55728e-06
5.02548e-06
5.49436e-06
5.96159e-06
6.42477e-06
6.8816e-06
7.32992e-06
7.7677e-06
8.19298e-06
8.60388e-06
8.99849e-06
9.37484e-06
9.73098e-06
1.00649e-05
1.03748e-05
1.06588e-05
1.09154e-05
1.11431e-05
1.13406e-05
1.15068e-05
1.1641e-05
1.17422e-05
1.181e-05
1.1844e-05
1.18441e-05
1.18102e-05
1.17425e-05
1.16414e-05
1.15074e-05
1.13413e-05
1.11439e-05
1.09163e-05
1.06598e-05
1.03759e-05
1.00661e-05
9.73227e-06
9.37621e-06
8.99992e-06
8.60537e-06
8.19451e-06
7.76926e-06
7.33151e-06
6.88319e-06
6.42636e-06
5.96316e-06
5.49591e-06
5.02698e-06
4.55872e-06
4.09334e-06
3.63271e-06
3.17823e-06
2.73058e-06
2.28965e-06
1.85438e-06
1.42273e-06
9.91578e-07
5.56662e-07
9.75097e-10
3.653e-12
3.65102e-12
9.74592e-10
5.56401e-07
9.91136e-07
1.42212e-06
1.85362e-06
2.28874e-06
2.72953e-06
3.17706e-06
3.63144e-06
4.09198e-06
4.55728e-06
5.02548e-06
5.49436e-06
5.96159e-06
6.42477e-06
6.8816e-06
7.32992e-06
7.7677e-06
8.19299e-06
8.60388e-06
8.99849e-06
9.37485e-06
9.73098e-06
1.00649e-05
1.03748e-05
1.06588e-05
1.09154e-05
1.11431e-05
1.13406e-05
1.15069e-05
1.1641e-05
1.17422e-05
1.181e-05
1.1844e-05
1.18441e-05
1.18102e-05
1.17425e-05
1.16414e-05
1.15074e-05
1.13413e-05
1.11439e-05
1.09163e-05
1.06598e-05
1.03759e-05
1.00661e-05
9.73227e-06
9.37621e-06
8.99992e-06
8.60537e-06
8.19451e-06
7.76926e-06
7.33151e-06
6.88319e-06
6.42636e-06
5.96316e-06
5.49591e-06
5.02698e-06
4.55873e-06
4.09334e-06
3.63272e-06
3.17823e-06
2.73058e-06
2.28965e-06
1.85439e-06
1.42273e-06
9.91578e-07
5.56662e-07
9.75097e-10
3.65301e-12
3.65102e-12
9.74592e-10
5.56401e-07
9.91136e-07
1.42212e-06
1.85362e-06
2.28874e-06
2.72953e-06
3.17706e-06
3.63144e-06
4.09198e-06
4.55728e-06
5.02548e-06
5.49436e-06
5.96159e-06
6.42477e-06
6.8816e-06
7.32992e-06
7.7677e-06
8.19299e-06
8.60389e-06
8.99849e-06
9.37485e-06
9.73098e-06
1.00649e-05
1.03748e-05
1.06588e-05
1.09154e-05
1.11431e-05
1.13406e-05
1.15069e-05
1.1641e-05
1.17422e-05
1.181e-05
1.1844e-05
1.18441e-05
1.18102e-05
1.17425e-05
1.16414e-05
1.15074e-05
1.13413e-05
1.11439e-05
1.09163e-05
1.06598e-05
1.03759e-05
1.00661e-05
9.73227e-06
9.37621e-06
8.99992e-06
8.60537e-06
8.19451e-06
7.76926e-06
7.33151e-06
6.88319e-06
6.42636e-06
5.96316e-06
5.49591e-06
5.02698e-06
4.55873e-06
4.09334e-06
3.63272e-06
3.17823e-06
2.73058e-06
2.28965e-06
1.85439e-06
1.42273e-06
9.91578e-07
5.56662e-07
9.75097e-10
3.65301e-12
3.65102e-12
9.74592e-10
5.56401e-07
9.91136e-07
1.42212e-06
1.85362e-06
2.28874e-06
2.72953e-06
3.17706e-06
3.63144e-06
4.09198e-06
4.55728e-06
5.02548e-06
5.49436e-06
5.96159e-06
6.42477e-06
6.8816e-06
7.32992e-06
7.7677e-06
8.19299e-06
8.60389e-06
8.99849e-06
9.37485e-06
9.73098e-06
1.00649e-05
1.03748e-05
1.06588e-05
1.09154e-05
1.11431e-05
1.13406e-05
1.15069e-05
1.1641e-05
1.17422e-05
1.181e-05
1.1844e-05
1.18441e-05
1.18102e-05
1.17425e-05
1.16414e-05
1.15074e-05
1.13413e-05
1.11439e-05
1.09163e-05
1.06598e-05
1.03759e-05
1.00661e-05
9.73227e-06
9.37621e-06
8.99992e-06
8.60537e-06
8.19451e-06
7.76926e-06
7.33151e-06
6.88319e-06
6.42636e-06
5.96316e-06
5.49591e-06
5.02698e-06
4.55873e-06
4.09334e-06
3.63272e-06
3.17823e-06
2.73058e-06
2.28965e-06
1.85439e-06
1.42273e-06
9.91578e-07
5.56662e-07
9.75097e-10
3.65301e-12
3.65102e-12
9.74592e-10
5.56401e-07
9.91136e-07
1.42212e-06
1.85362e-06
2.28874e-06
2.72953e-06
3.17706e-06
3.63144e-06
4.09198e-06
4.55728e-06
5.02548e-06
5.49436e-06
5.96159e-06
6.42477e-06
6.8816e-06
7.32992e-06
7.7677e-06
8.19299e-06
8.60389e-06
8.99849e-06
9.37485e-06
9.73098e-06
1.00649e-05
1.03748e-05
1.06588e-05
1.09154e-05
1.11431e-05
1.13406e-05
1.15069e-05
1.1641e-05
1.17422e-05
1.181e-05
1.1844e-05
1.18441e-05
1.18102e-05
1.17425e-05
1.16414e-05
1.15074e-05
1.13413e-05
1.11439e-05
1.09163e-05
1.06598e-05
1.03759e-05
1.00661e-05
9.73227e-06
9.37621e-06
8.99992e-06
8.60537e-06
8.19451e-06
7.76926e-06
7.33151e-06
6.88319e-06
6.42636e-06
5.96316e-06
5.49591e-06
5.02698e-06
4.55873e-06
4.09334e-06
3.63272e-06
3.17823e-06
2.73058e-06
2.28965e-06
1.85439e-06
1.42273e-06
9.91578e-07
5.56662e-07
9.75097e-10
3.65301e-12
3.65102e-12
9.74592e-10
5.56401e-07
9.91136e-07
1.42212e-06
1.85362e-06
2.28874e-06
2.72953e-06
3.17706e-06
3.63144e-06
4.09198e-06
4.55728e-06
5.02548e-06
5.49436e-06
5.96159e-06
6.42477e-06
6.8816e-06
7.32992e-06
7.7677e-06
8.19299e-06
8.60389e-06
8.99849e-06
9.37485e-06
9.73098e-06
1.00649e-05
1.03748e-05
1.06588e-05
1.09154e-05
1.11431e-05
1.13406e-05
1.15069e-05
1.1641e-05
1.17422e-05
1.181e-05
1.1844e-05
1.18441e-05
1.18102e-05
1.17425e-05
1.16414e-05
1.15074e-05
1.13413e-05
1.11439e-05
1.09163e-05
1.06598e-05
1.03759e-05
1.00661e-05
9.73227e-06
9.37621e-06
8.99992e-06
8.60537e-06
8.19451e-06
7.76926e-06
7.33151e-06
6.88319e-06
6.42636e-06
5.96316e-06
5.49591e-06
5.02698e-06
4.55873e-06
4.09334e-06
3.63272e-06
3.17823e-06
2.73058e-06
2.28965e-06
1.85439e-06
1.42273e-06
9.91578e-07
5.56662e-07
9.75097e-10
3.65301e-12
3.65102e-12
9.74592e-10
5.56401e-07
9.91136e-07
1.42212e-06
1.85362e-06
2.28874e-06
2.72953e-06
3.17706e-06
3.63144e-06
4.09198e-06
4.55728e-06
5.02548e-06
5.49436e-06
5.96159e-06
6.42477e-06
6.8816e-06
7.32992e-06
7.7677e-06
8.19299e-06
8.60389e-06
8.99849e-06
9.37485e-06
9.73098e-06
1.00649e-05
1.03748e-05
1.06588e-05
1.09154e-05
1.11431e-05
1.13406e-05
1.15069e-05
1.1641e-05
1.17422e-05
1.181e-05
1.1844e-05
1.18441e-05
1.18102e-05
1.17425e-05
1.16414e-05
1.15074e-05
1.13413e-05
1.11439e-05
1.09163e-05
1.06598e-05
1.03759e-05
1.00661e-05
9.73227e-06
9.37621e-06
8.99992e-06
8.60537e-06
8.19451e-06
7.76926e-06
7.33151e-06
6.88319e-06
6.42636e-06
5.96316e-06
5.49591e-06
5.02698e-06
4.55873e-06
4.09334e-06
3.63272e-06
3.17823e-06
2.73058e-06
2.28965e-06
1.85439e-06
1.42273e-06
9.91578e-07
5.56662e-07
9.75097e-10
3.65301e-12
3.65102e-12
9.74592e-10
5.56401e-07
9.91136e-07
1.42212e-06
1.85362e-06
2.28874e-06
2.72953e-06
3.17706e-06
3.63144e-06
4.09198e-06
4.55728e-06
5.02548e-06
5.49436e-06
5.96159e-06
6.42477e-06
6.8816e-06
7.32992e-06
7.7677e-06
8.19299e-06
8.60389e-06
8.99849e-06
9.37485e-06
9.73098e-06
1.00649e-05
1.03748e-05
1.06588e-05
1.09154e-05
1.11431e-05
1.13406e-05
1.15069e-05
1.1641e-05
1.17422e-05
1.181e-05
1.1844e-05
1.18441e-05
1.18102e-05
1.17425e-05
1.16414e-05
1.15074e-05
1.13413e-05
1.11439e-05
1.09163e-05
1.06598e-05
1.03759e-05
1.00661e-05
9.73227e-06
9.37621e-06
8.99992e-06
8.60537e-06
8.19451e-06
7.76926e-06
7.33151e-06
6.88319e-06
6.42636e-06
5.96316e-06
5.49591e-06
5.02698e-06
4.55873e-06
4.09334e-06
3.63272e-06
3.17823e-06
2.73058e-06
2.28965e-06
1.85439e-06
1.42273e-06
9.91578e-07
5.56662e-07
9.75097e-10
3.65301e-12
3.65102e-12
9.74592e-10
5.56401e-07
9.91136e-07
1.42212e-06
1.85362e-06
2.28874e-06
2.72953e-06
3.17706e-06
3.63144e-06
4.09198e-06
4.55728e-06
5.02548e-06
5.49436e-06
5.96159e-06
6.42477e-06
6.8816e-06
7.32992e-06