/*--------------------------------*- C++ -*----------------------------------*\
  =========                 |
  \\      /  F ield         | OpenFOAM: The Open Source CFD Toolbox
   \\    /   O peration     | Website:  https://openfoam.org
    \\  /    A nd           | Version:  13
     \\/     M anipulation  |
\*---------------------------------------------------------------------------*/
FoamFile
{
    format      ascii;
    class       volScalarField;
    location    "0s";
    object      p;
}
// * * * * * * * * * * * * * * * * * * * * * * * * * * * * * * * * * * * * * //

dimensions      [0 2 -2 0 0 0 0];

internalField   nonuniform List<scalar> 
78750
(
0
-0.0050676
-0.00952049
-0.0121875
-0.0135126
-0.0157785
-0.0146694
-0.0132332
-0.00940395
-0.00586148
-0.00162069
0.00241055
0.00644221
0.00949988
0.0121164
0.0137625
0.0143657
0.0145108
0.0141582
0.0126023
0.0096574
0.00670619
0.00316923
-0.000944772
-0.00473317
-0.00892973
-0.0124682
-0.015418
-0.0168393
-0.0164529
-0.0143878
-0.0115057
-0.00874832
-0.00420302
0.00140609
-0.306315
-0.309077
-0.311918
-0.314092
-0.315551
-0.316167
-0.314143
-0.311633
-0.308487
-0.305297
-0.301293
-0.297563
-0.294276
-0.291375
-0.28931
-0.287727
-0.286936
-0.286968
-0.287677
-0.288942
-0.290774
-0.29308
-0.296016
-0.29873
-0.302055
-0.304771
-0.306613
-0.307959
-0.309385
-0.308386
-0.305687
-0.302476
-0.298591
-0.294409
-0.290839
-0.589169
-0.590569
-0.59211
-0.593446
-0.594169
-0.59425
-0.593468
-0.592209
-0.590182
-0.588142
-0.586369
-0.584427
-0.582965
-0.5817
-0.58086
-0.580412
-0.580377
-0.580818
-0.581737
-0.583104
-0.584901
-0.587022
-0.589564
-0.592261
-0.595253
-0.598067
-0.601018
-0.604656
-0.606614
-0.607098
-0.607712
-0.607195
-0.605582
-0.603737
-0.602112
-0.852596
-0.853605
-0.855321
-0.856734
-0.858426
-0.859671
-0.860117
-0.860881
-0.861189
-0.861295
-0.861511
-0.861559
-0.861766
-0.862014
-0.862403
-0.862915
-0.863656
-0.864593
-0.865776
-0.867228
-0.868876
-0.870825
-0.873018
-0.875423
-0.877979
-0.880618
-0.883287
-0.885347
-0.886526
-0.887818
-0.888724
-0.888866
-0.888518
-0.887178
-0.885925
-1.13273
-1.13452
-1.13522
-1.1357
-1.13727
-1.13855
-1.13891
-1.13979
-1.1407
-1.14094
-1.14143
-1.14161
-1.14172
-1.14178
-1.1418
-1.14176
-1.14176
-1.14183
-1.14191
-1.14206
-1.14229
-1.14257
-1.1429
-1.14328
-1.14372
-1.14406
-1.14428
-1.14416
-1.14423
-1.14413
-1.14348
-1.14257
-1.14137
-1.13985
-1.13849
-1.44674
-1.44788
-1.44868
-1.44868
-1.44795
-1.44762
-1.44671
-1.44432
-1.44262
-1.4402
-1.43779
-1.43549
-1.43318
-1.43104
-1.42897
-1.42696
-1.42504
-1.4232
-1.42139
-1.41962
-1.41783
-1.41599
-1.41406
-1.41208
-1.40995
-1.40782
-1.40586
-1.40348
-1.40197
-1.40045
-1.39836
-1.39621
-1.39444
-1.39413
-1.39345
-1.73532
-1.73597
-1.73734
-1.73843
-1.73849
-1.73743
-1.73568
-1.73168
-1.7283
-1.72497
-1.72161
-1.71838
-1.71549
-1.7128
-1.71041
-1.70822
-1.70623
-1.70451
-1.70293
-1.70144
-1.70005
-1.69871
-1.69743
-1.69618
-1.69489
-1.69371
-1.69243
-1.69144
-1.69067
-1.68974
-1.68886
-1.68876
-1.68819
-1.68731
-1.68735
-1.97875
-1.97845
-1.97938
-1.97997
-1.98042
-1.9804
-1.9802
-1.97968
-1.97872
-1.97779
-1.97713
-1.97649
-1.97604
-1.97573
-1.97556
-1.97555
-1.97563
-1.9759
-1.97631
-1.97683
-1.97751
-1.97837
-1.97938
-1.98054
-1.98188
-1.9834
-1.98492
-1.98668
-1.98787
-1.98916
-1.99034
-1.99058
-1.99107
-1.99032
-1.99013
-2.22574
-2.22584
-2.22571
-2.22555
-2.22642
-2.2273
-2.2279
-2.22907
-2.23116
-2.23238
-2.23398
-2.23538
-2.23668
-2.23786
-2.23893
-2.23988
-2.24069
-2.24146
-2.24215
-2.24273
-2.24326
-2.24378
-2.24422
-2.24475
-2.24522
-2.24563
-2.24625
-2.24671
-2.24729
-2.24771
-2.24843
-2.24824
-2.24701
-2.2456
-2.24594
-2.49918
-2.4988
-2.49998
-2.50036
-2.50082
-2.50094
-2.50199
-2.5027
-2.50423
-2.50609
-2.50768
-2.50923
-2.51075
-2.51211
-2.51347
-2.51466
-2.51575
-2.51678
-2.51768
-2.51838
-2.51893
-2.51929
-2.51945
-2.51934
-2.51904
-2.51857
-2.51769
-2.51705
-2.51534
-2.51474
-2.51298
-2.51214
-2.51322
-2.51347
-2.51229
-2.7623
-2.76194
-2.76261
-2.76329
-2.76353
-2.76324
-2.76402
-2.76485
-2.76786
-2.77093
-2.77417
-2.77746
-2.78102
-2.78453
-2.7881
-2.79158
-2.79514
-2.79881
-2.80256
-2.80631
-2.81012
-2.81401
-2.81804
-2.82211
-2.82613
-2.83031
-2.83391
-2.83551
-2.83505
-2.83555
-2.83484
-2.83362
-2.83254
-2.83175
-2.83154
-3.03021
-3.03179
-3.02989
-3.02735
-3.02783
-3.02933
-3.03066
-3.03263
-3.03588
-3.04043
-3.04577
-3.04974
-3.05427
-3.05888
-3.06331
-3.06764
-3.07216
-3.07678
-3.08142
-3.08608
-3.09093
-3.09599
-3.1013
-3.10683
-3.11298
-3.11771
-3.12172
-3.12292
-3.12367
-3.12368
-3.12325
-3.12268
-3.12208
-3.12009
-3.11847
-3.3736
-3.37349
-3.37462
-3.37725
-3.37893
-3.3793
-3.37815
-3.37933
-3.37798
-3.3757
-3.37242
-3.36891
-3.36566
-3.36307
-3.36038
-3.35842
-3.35734
-3.3565
-3.35633
-3.35657
-3.3574
-3.35885
-3.36079
-3.36314
-3.36579
-3.36823
-3.36912
-3.36911
-3.36931
-3.36873
-3.36796
-3.36707
-3.3657
-3.3647
-3.36417
-3.69707
-3.69984
-3.70449
-3.70807
-3.70973
-3.71083
-3.71197
-3.71024
-3.70442
-3.68816
-3.67583
-3.668
-3.65896
-3.65065
-3.64271
-3.63578
-3.63008
-3.62495
-3.62064
-3.61708
-3.61426
-3.6121
-3.61051
-3.60946
-3.60888
-3.60883
-3.60887
-3.60895
-3.60923
-3.60921
-3.60928
-3.60851
-3.60749
-3.60696
-3.60738
-3.90491
-3.90432
-3.90844
-3.91418
-3.91727
-3.91907
-3.91923
-3.91703
-3.91503
-3.91034
-3.90145
-3.89015
-3.88032
-3.87138
-3.86339
-3.85634
-3.85002
-3.8447
-3.8404
-3.83697
-3.83442
-3.8326
-3.8316
-3.83129
-3.83145
-3.83202
-3.83302
-3.8342
-3.83473
-3.83433
-3.83379
-3.83293
-3.83081
-3.82835
-3.82936
-4.06674
-4.06475
-4.06508
-4.06743
-4.06763
-4.06856
-4.07037
-4.07094
-4.0706
-4.07014
-4.06866
-4.06613
-4.06307
-4.0599
-4.05682
-4.05364
-4.05031
-4.04746
-4.04466
-4.04219
-4.03999
-4.03814
-4.03668
-4.03561
-4.03483
-4.03456
-4.03415
-4.03415
-4.03395
-4.0333
-4.03163
-4.02977
-4.02809
-4.02796
-4.02921
-4.24114
-4.24138
-4.24105
-4.24063
-4.24038
-4.24074
-4.24076
-4.24107
-4.24151
-4.24225
-4.24215
-4.24188
-4.24131
-4.24009
-4.23849
-4.23611
-4.23349
-4.23041
-4.22691
-4.22327
-4.21929
-4.21503
-4.21066
-4.20545
-4.20046
-4.19646
-4.19264
-4.19144
-4.19027
-4.18952
-4.18905
-4.18878
-4.1906
-4.19155
-4.19099
-4.42166
-4.42253
-4.42137
-4.42013
-4.41993
-4.42033
-4.42064
-4.42184
-4.42518
-4.42876
-4.43075
-4.4323
-4.43362
-4.43471
-4.43513
-4.43477
-4.4337
-4.43182
-4.42913
-4.4257
-4.42158
-4.41685
-4.41155
-4.40724
-4.40329
-4.39959
-4.39431
-4.39169
-4.38998
-4.38853
-4.38838
-4.38814
-4.38977
-4.39238
-4.3916
-4.66434
-4.66571
-4.66462
-4.6639
-4.6643
-4.66412
-4.6645
-4.66591
-4.67047
-4.67611
-4.6821
-4.68788
-4.6923
-4.69553
-4.69818
-4.70003
-4.70132
-4.70211
-4.70196
-4.70122
-4.69974
-4.69733
-4.69423
-4.68963
-4.68257
-4.6742
-4.66904
-4.66655
-4.66346
-4.66174
-4.66172
-4.66342
-4.66554
-4.66689
-4.66459
-4.95112
-4.9514
-4.95115
-4.94942
-4.94818
-4.94653
-4.94628
-4.94774
-4.95124
-4.95485
-4.95891
-4.9631
-4.96735
-4.97146
-4.97559
-4.97965
-4.98353
-4.98773
-4.99183
-4.99572
-4.99986
-5.00341
-5.00786
-5.01425
-5.01971
-5.02314
-5.02746
-5.02952
-5.03282
-5.03775
-5.03951
-5.03975
-5.0395
-5.0381
-5.03681
-5.23256
-5.23311
-5.23353
-5.23177
-5.23065
-5.22958
-5.2291
-5.22986
-5.23248
-5.23665
-5.24029
-5.24489
-5.24983
-5.25483
-5.26018
-5.26582
-5.27187
-5.27822
-5.28457
-5.2923
-5.30264
-5.31485
-5.32523
-5.33146
-5.33839
-5.34517
-5.34928
-5.35249
-5.35638
-5.358
-5.3589
-5.35895
-5.35441
-5.3506
-5.34875
-5.52004
-5.52039
-5.5204
-5.52182
-5.51986
-5.51843
-5.51787
-5.51815
-5.51859
-5.52044
-5.52319
-5.52637
-5.52975
-5.53332
-5.53781
-5.54335
-5.54987
-5.55674
-5.56567
-5.571
-5.57433
-5.57796
-5.58247
-5.58892
-5.59474
-5.59805
-5.59985
-5.60069
-5.60134
-5.60103
-5.59909
-5.59586
-5.59134
-5.58894
-5.58978
-5.81435
-5.8148
-5.81645
-5.81902
-5.81861
-5.81761
-5.81631
-5.81474
-5.81191
-5.80922
-5.80665
-5.80513
-5.80375
-5.80311
-5.80316
-5.80343
-5.80395
-5.80452
-5.80513
-5.80685
-5.80989
-5.81272
-5.81547
-5.81776
-5.81935
-5.81964
-5.81991
-5.81943
-5.81789
-5.81604
-5.81442
-5.81337
-5.81225
-5.81142
-5.81254
-6.07498
-6.07491
-6.07733
-6.08103
-6.0833
-6.08267
-6.0817
-6.08056
-6.07609
-6.07142
-6.06561
-6.05976
-6.05658
-6.05314
-6.05029
-6.04741
-6.04451
-6.04244
-6.04118
-6.03986
-6.0386
-6.03762
-6.03676
-6.03597
-6.03499
-6.03441
-6.03394
-6.03322
-6.03266
-6.03239
-6.03284
-6.03336
-6.03317
-6.03317
-6.03379
-6.304
-6.30379
-6.3048
-6.30634
-6.30806
-6.30942
-6.30973
-6.30904
-6.30719
-6.30232
-6.29802
-6.29417
-6.28959
-6.28598
-6.28209
-6.27911
-6.27669
-6.27421
-6.27131
-6.26873
-6.26639
-6.26425
-6.26228
-6.26064
-6.25945
-6.25888
-6.25844
-6.25831
-6.25837
-6.25849
-6.25899
-6.25927
-6.25955
-6.25991
-6.26019
-6.5218
-6.52143
-6.52133
-6.52146
-6.52096
-6.52127
-6.52199
-6.52177
-6.52141
-6.5202
-6.51822
-6.51646
-6.51457
-6.5125
-6.51048
-6.50864
-6.50689
-6.50505
-6.50341
-6.50183
-6.50037
-6.49899
-6.49774
-6.4967
-6.49626
-6.49607
-6.49585
-6.49585
-6.49593
-6.49573
-6.49548
-6.49548
-6.49548
-6.49573
-6.49569
-6.73971
-6.73927
-6.73911
-6.73883
-6.73848
-6.73787
-6.73803
-6.73816
-6.73825
-6.73848
-6.73872
-6.73859
-6.73828
-6.73798
-6.73778
-6.73748
-6.73712
-6.73684
-6.73657
-6.7364
-6.73629
-6.73625
-6.73628
-6.73638
-6.73652
-6.73653
-6.73649
-6.73644
-6.73633
-6.73607
-6.73562
-6.73515
-6.73489
-6.73481
-6.7347
-6.96416
-6.96422
-6.96365
-6.96331
-6.96301
-6.96275
-6.96229
-6.96235
-6.96254
-6.96328
-6.96409
-6.96517
-6.96603
-6.9665
-6.96702
-6.96749
-6.96802
-6.96841
-6.96872
-6.96904
-6.9693
-6.96953
-6.96972
-6.9699
-6.97006
-6.97011
-6.97008
-6.96994
-6.96961
-6.96934
-6.96944
-6.96933
-6.96914
-6.96923
-6.96946
-7.20042
-7.19979
-7.19931
-7.19878
-7.19823
-7.19801
-7.19762
-7.19769
-7.19793
-7.19885
-7.19956
-7.20031
-7.20108
-7.2017
-7.20217
-7.20265
-7.20307
-7.20352
-7.20377
-7.20388
-7.20399
-7.20405
-7.204
-7.2039
-7.20385
-7.20381
-7.20368
-7.20358
-7.20352
-7.20357
-7.20351
-7.20356
-7.20321
-7.20312
-7.2036
-7.44231
-7.44149
-7.44178
-7.44119
-7.44093
-7.44068
-7.44038
-7.44045
-7.44057
-7.44079
-7.4412
-7.44149
-7.44191
-7.44233
-7.4425
-7.4425
-7.44257
-7.44252
-7.44248
-7.44229
-7.44216
-7.44202
-7.44195
-7.44185
-7.44182
-7.4418
-7.44168
-7.44168
-7.44183
-7.44207
-7.44226
-7.4426
-7.44328
-7.44322
-7.44402
-7.68761
-7.68756
-7.68768
-7.68705
-7.6869
-7.68661
-7.6865
-7.68643
-7.68644
-7.68618
-7.68602
-7.68584
-7.68575
-7.68579
-7.68583
-7.68589
-7.68581
-7.68561
-7.68545
-7.68541
-7.68543
-7.68533
-7.68525
-7.68511
-7.68505
-7.68496
-7.68489
-7.68505
-7.68521
-7.68546
-7.686
-7.68606
-7.68639
-7.68638
-7.68678
-7.93087
-7.93108
-7.93104
-7.93109
-7.93079
-7.93086
-7.93085
-7.93057
-7.9305
-7.93023
-7.92989
-7.92971
-7.92934
-7.92915
-7.92903
-7.92913
-7.92908
-7.92908
-7.92913
-7.92923
-7.92935
-7.92948
-7.92964
-7.92985
-7.93
-7.92998
-7.92996
-7.92996
-7.9298
-7.92959
-7.92937
-7.92925
-7.9285
-7.92865
-7.92869
-8.17034
-8.17032
-8.17086
-8.17123
-8.17139
-8.17161
-8.17163
-8.1715
-8.17142
-8.17112
-8.17093
-8.17079
-8.17069
-8.17066
-8.17067
-8.17073
-8.17095
-8.17119
-8.17147
-8.17177
-8.17198
-8.1722
-8.17242
-8.17266
-8.17276
-8.17279
-8.17279
-8.17269
-8.17244
-8.1721
-8.17159
-8.17144
-8.17131
-8.17109
-8.17067
-8.40975
-8.40982
-8.40969
-8.40983
-8.41002
-8.41011
-8.41021
-8.41022
-8.41031
-8.41044
-8.4106
-8.4109
-8.41108
-8.41116
-8.41147
-8.41159
-8.41212
-8.41262
-8.41306
-8.4135
-8.41411
-8.41472
-8.41514
-8.41543
-8.41536
-8.41534
-8.41528
-8.41519
-8.41514
-8.41509
-8.41493
-8.41463
-8.41447
-8.41443
-8.41401
-8.6464
-8.64737
-8.64727
-8.64729
-8.6473
-8.64732
-8.64738
-8.64747
-8.64767
-8.64824
-8.64872
-8.6495
-8.65036
-8.65089
-8.65154
-8.65217
-8.65282
-8.65374
-8.65457
-8.65526
-8.6559
-8.65647
-8.65713
-8.65798
-8.65798
-8.65803
-8.65791
-8.65765
-8.65731
-8.65699
-8.65678
-8.65653
-8.6562
-8.65602
-8.65629
-8.88408
-8.88403
-8.88392
-8.88379
-8.88363
-8.88336
-8.88331
-8.88332
-8.88349
-8.884
-8.8847
-8.88582
-8.88728
-8.88872
-8.88996
-8.8912
-8.89215
-8.8931
-8.89424
-8.89541
-8.89613
-8.89677
-8.89713
-8.89723
-8.89724
-8.89721
-8.89702
-8.89679
-8.8966
-8.89642
-8.89635
-8.89626
-8.89607
-8.89603
-8.89662
-9.12201
-9.12146
-9.12126
-9.12104
-9.121
-9.12067
-9.12055
-9.12075
-9.12111
-9.12243
-9.12346
-9.12438
-9.12532
-9.12647
-9.12787
-9.1292
-9.13032
-9.13121
-9.13193
-9.13282
-9.1337
-9.13451
-9.13501
-9.13522
-9.13547
-9.13536
-9.13536
-9.13544
-9.13571
-9.13596
-9.13608
-9.13632
-9.1364
-9.1362
-9.13661
-9.36384
-9.36375
-9.36307
-9.36182
-9.36141
-9.36101
-9.36084
-9.36133
-9.36198
-9.36331
-9.36473
-9.36597
-9.36742
-9.36859
-9.3697
-9.37083
-9.37186
-9.37282
-9.37347
-9.37416
-9.37481
-9.37537
-9.37579
-9.37606
-9.37658
-9.37661
-9.37675
-9.37695
-9.37722
-9.37735
-9.3775
-9.37769
-9.37796
-9.37798
-9.37793
-9.61487
-9.61495
-9.6144
-9.61395
-9.61313
-9.61254
-9.61227
-9.61267
-9.61331
-9.61417
-9.61501
-9.61584
-9.61659
-9.61732
-9.61794
-9.61858
-9.61923
-9.61973
-9.62014
-9.62045
-9.62076
-9.62104
-9.62131
-9.62159
-9.6219
-9.62188
-9.62184
-9.62174
-9.62157
-9.6213
-9.62112
-9.62097
-9.62072
-9.62077
-9.62093
-9.87166
-9.87159
-9.87226
-9.87249
-9.87249
-9.87293
-9.87219
-9.87211
-9.87192
-9.8715
-9.87117
-9.87083
-9.87052
-9.87006
-9.86948
-9.86887
-9.86818
-9.8674
-9.86677
-9.86617
-9.86561
-9.8651
-9.86468
-9.86433
-9.86404
-9.86382
-9.86361
-9.86321
-9.86279
-9.86237
-9.86198
-9.86174
-9.86115
-9.86068
-9.86045
-10.1294
-10.1295
-10.1293
-10.1289
-10.1288
-10.129
-10.1285
-10.128
-10.1274
-10.1259
-10.1247
-10.1234
-10.1219
-10.1203
-10.1189
-10.1173
-10.1156
-10.114
-10.1125
-10.111
-10.1095
-10.108
-10.1066
-10.1054
-10.1045
-10.1042
-10.104
-10.1039
-10.1041
-10.1044
-10.1045
-10.1045
-10.1046
-10.1044
-10.1043
-10.3816
-10.3816
-10.3819
-10.3823
-10.3828
-10.3828
-10.3827
-10.3825
-10.3819
-10.3801
-10.3787
-10.3769
-10.3748
-10.3726
-10.3704
-10.3679
-10.3655
-10.3632
-10.3609
-10.3587
-10.3565
-10.3544
-10.3525
-10.3507
-10.3497
-10.3494
-10.3492
-10.3492
-10.3494
-10.3496
-10.3499
-10.3503
-10.3506
-10.3504
-10.3503
-10.6377
-10.6386
-10.6394
-10.6401
-10.6411
-10.6413
-10.6415
-10.6414
-10.6411
-10.6391
-10.6376
-10.6343
-10.6303
-10.6264
-10.6224
-10.6183
-10.6147
-10.6116
-10.6091
-10.6067
-10.6043
-10.6022
-10.6003
-10.5989
-10.5982
-10.5979
-10.5978
-10.5978
-10.5978
-10.598
-10.5983
-10.5986
-10.5991
-10.5993
-10.5993
-10.8911
-10.8912
-10.8918
-10.8929
-10.8937
-10.8941
-10.8945
-10.8941
-10.8939
-10.8922
-10.8864
-10.8811
-10.8765
-10.8732
-10.8702
-10.8667
-10.8639
-10.8611
-10.8578
-10.8551
-10.8532
-10.8507
-10.8479
-10.8465
-10.8461
-10.846
-10.8459
-10.8459
-10.846
-10.8461
-10.846
-10.8461
-10.8459
-10.8456
-10.8456
-11.1274
-11.1273
-11.1293
-11.1313
-11.1332
-11.1353
-11.1367
-11.1364
-11.1355
-11.132
-11.1291
-11.1261
-11.121
-11.1172
-11.1133
-11.1098
-11.1069
-11.1034
-11.0993
-11.0952
-11.091
-11.0888
-11.0875
-11.0863
-11.0854
-11.0854
-11.0854
-11.0858
-11.0856
-11.0856
-11.0855
-11.0855
-11.0852
-11.0849
-11.085
-11.3455
-11.3458
-11.3462
-11.3475
-11.3498
-11.3514
-11.3528
-11.353
-11.3521
-11.3512
-11.3495
-11.3475
-11.3467
-11.3449
-11.3427
-11.3413
-11.3387
-11.337
-11.3364
-11.3357
-11.3349
-11.3339
-11.3326
-11.3309
-11.3303
-11.3301
-11.3298
-11.3301
-11.3312
-11.3323
-11.3331
-11.3341
-11.3355
-11.3365
-11.3366
-11.4961
-11.4962
-11.4958
-11.494
-11.4934
-11.4979
-11.5008
-11.5035
-11.5072
-11.5127
-11.5201
-11.5292
-11.5368
-11.5431
-11.5482
-11.5538
-11.5602
-11.5657
-11.5705
-11.5759
-11.5807
-11.5851
-11.5901
-11.5929
-11.5942
-11.5946
-11.595
-11.5962
-11.597
-11.5975
-11.5978
-11.5979
-11.5977
-11.5976
-11.5973
-11.6889
-11.6882
-11.684
-11.6797
-11.6768
-11.676
-11.6757
-11.6796
-11.6947
-11.7038
-11.7108
-11.7184
-11.7268
-11.7401
-11.7569
-11.7692
-11.7774
-11.7882
-11.8012
-11.8102
-11.8201
-11.8298
-11.8388
-11.8475
-11.8513
-11.8528
-11.8532
-11.8535
-11.853
-11.852
-11.8505
-11.8492
-11.8483
-11.8473
-11.8474
-11.9745
-11.9742
-11.9704
-11.9665
-11.9626
-11.9606
-11.9624
-11.9649
-11.9718
-11.9844
-11.9956
-12.0063
-12.0148
-12.0201
-12.0236
-12.0277
-12.0329
-12.0368
-12.0397
-12.0439
-12.0495
-12.0541
-12.0576
-12.0601
-12.0613
-12.0627
-12.0646
-12.0641
-12.063
-12.0622
-12.0618
-12.0623
-12.0632
-12.0639
-12.0642
-12.3262
-12.328
-12.3306
-12.3336
-12.3349
-12.3327
-12.3305
-12.329
-12.3235
-12.3183
-12.3119
-12.306
-12.301
-12.2959
-12.2908
-12.2865
-12.2822
-12.2779
-12.2742
-12.2702
-12.2656
-12.2609
-12.2556
-12.2514
-12.2479
-12.247
-12.2469
-12.2462
-12.2462
-12.2473
-12.2485
-12.2492
-12.2497
-12.2504
-12.2502
-12.6216
-12.6233
-12.6268
-12.6297
-12.6319
-12.6313
-12.6302
-12.6285
-12.6215
-12.6099
-12.5995
-12.5886
-12.5785
-12.5681
-12.5579
-12.5484
-12.5392
-12.5298
-12.5203
-12.5109
-12.503
-12.4964
-12.4899
-12.4829
-12.478
-12.477
-12.4764
-12.476
-12.4759
-12.4771
-12.4782
-12.4794
-12.4801
-12.4793
-12.4777
-12.8744
-12.8747
-12.8765
-12.8798
-12.8833
-12.8858
-12.8867
-12.8855
-12.883
-12.8759
-12.867
-12.8586
-12.8504
-12.8409
-12.8318
-12.8235
-12.8147
-12.8058
-12.7995
-12.7935
-12.7862
-12.7795
-12.7725
-12.7692
-12.7674
-12.7663
-12.7661
-12.7661
-12.7647
-12.765
-12.7651
-12.7648
-12.765
-12.7647
-12.7652
-13.0937
-13.0927
-13.0951
-13.0981
-13.0997
-13.1011
-13.1023
-13.1028
-13.1018
-13.0991
-13.0944
-13.0881
-13.0821
-13.0797
-13.0784
-13.0771
-13.0767
-13.0765
-13.0769
-13.0783
-13.0798
-13.0816
-13.0838
-13.0861
-13.0881
-13.089
-13.0892
-13.0883
-13.0864
-13.0845
-13.0827
-13.08
-13.0765
-13.0743
-13.0735
-13.2858
-13.2854
-13.2862
-13.2875
-13.289
-13.2911
-13.2915
-13.2934
-13.2939
-13.2949
-13.2958
-13.2971
-13.2985
-13.3001
-13.3026
-13.3062
-13.3092
-13.314
-13.3184
-13.3226
-13.3285
-13.3353
-13.3425
-13.3486
-13.3509
-13.352
-13.3524
-13.3519
-13.3511
-13.349
-13.3464
-13.344
-13.3413
-13.3391
-13.3388
-13.4657
-13.4659
-13.4658
-13.4646
-13.4647
-13.4668
-13.4672
-13.4689
-13.4742
-13.4787
-13.4825
-13.4872
-13.4923
-13.4985
-13.5038
-13.509
-13.5166
-13.5233
-13.5308
-13.5387
-13.5462
-13.5539
-13.5605
-13.5656
-13.5683
-13.5683
-13.5672
-13.5651
-13.563
-13.5602
-13.5576
-13.5537
-13.5501
-13.5481
-13.5481
-13.6275
-13.6256
-13.6233
-13.6202
-13.6177
-13.6179
-13.62
-13.6233
-13.6339
-13.6454
-13.6581
-13.6674
-13.6767
-13.6862
-13.696
-13.7053
-13.7138
-13.7223
-13.7304
-13.7384
-13.7465
-13.754
-13.7603
-13.7657
-13.7677
-13.7684
-13.7676
-13.7648
-13.7629
-13.7599
-13.7561
-13.7535
-13.7522
-13.7515
-13.7528
-13.8536
-13.8538
-13.8497
-13.8463
-13.8435
-13.8424
-13.8438
-13.8462
-13.8539
-13.8597
-13.865
-13.876
-13.886
-13.8939
-13.9006
-13.9066
-13.9115
-13.9152
-13.9182
-13.9202
-13.9215
-13.9223
-13.9227
-13.9212
-13.9201
-13.9184
-13.9151
-13.9117
-13.9093
-13.9053
-13.9028
-13.9034
-13.9037
-13.9027
-13.9024
-14.1495
-14.15
-14.1491
-14.1479
-14.1456
-14.1434
-14.1435
-14.1438
-14.1431
-14.1435
-14.1432
-14.1411
-14.1388
-14.1357
-14.1324
-14.129
-14.1243
-14.1185
-14.1112
-14.1019
-14.0934
-14.0868
-14.0811
-14.0728
-14.0665
-14.0615
-14.0585
-14.0528
-14.0496
-14.0513
-14.0554
-14.0593
-14.0635
-14.0689
-14.0699
-14.4552
-14.4579
-14.4591
-14.4606
-14.4611
-14.4601
-14.459
-14.4568
-14.4506
-14.4439
-14.4362
-14.429
-14.4207
-14.412
-14.4035
-14.3943
-14.3868
-14.3799
-14.3739
-14.3685
-14.3615
-14.3513
-14.3393
-14.3296
-14.3236
-14.3188
-14.3162
-14.3184
-14.3177
-14.3163
-14.3187
-14.323
-14.3261
-14.3283
-14.3269
-14.7314
-14.7312
-14.7314
-14.7327
-14.7334
-14.7334
-14.733
-14.732
-14.7283
-14.7227
-14.7172
-14.7127
-14.7083
-14.704
-14.7001
-14.6968
-14.6937
-14.6912
-14.6888
-14.6865
-14.6844
-14.6822
-14.6803
-14.679
-14.6765
-14.6781
-14.6808
-14.6852
-14.6942
-14.7015
-14.706
-14.7076
-14.707
-14.7063
-14.7062
-14.985
-14.9847
-14.9849
-14.9858
-14.9862
-14.9862
-14.986
-14.9859
-14.9848
-14.984
-14.9837
-14.9831
-14.9831
-14.9831
-14.9838
-14.9862
-14.9895
-14.9939
-14.9993
-15.0035
-15.0077
-15.0128
-15.0189
-15.0234
-15.0258
-15.0305
-15.0337
-15.0386
-15.0439
-15.0445
-15.042
-15.0378
-15.0317
-15.0264
-15.0238
-15.2408
-15.2411
-15.2427
-15.2429
-15.2441
-15.2445
-15.2439
-15.2438
-15.2436
-15.2427
-15.2421
-15.2413
-15.2403
-15.2414
-15.2424
-15.2426
-15.2431
-15.2438
-15.2448
-15.2478
-15.2542
-15.2622
-15.2692
-15.2752
-15.2802
-15.2836
-15.2857
-15.288
-15.2893
-15.288
-15.2849
-15.2801
-15.2767
-15.2753
-15.2756
-15.5017
-15.5022
-15.5037
-15.5065
-15.5084
-15.5088
-15.5091
-15.5086
-15.5077
-15.5023
-15.4972
-15.494
-15.4895
-15.4837
-15.4801
-15.4778
-15.4758
-15.4743
-15.4731
-15.472
-15.4713
-15.4711
-15.4711
-15.4716
-15.4732
-15.4743
-15.4756
-15.4758
-15.4746
-15.4728
-15.4712
-15.4706
-15.4701
-15.4692
-15.4691
-15.7423
-15.7418
-15.7435
-15.7451
-15.7467
-15.7485
-15.7489
-15.7481
-15.7464
-15.7435
-15.7373
-15.7237
-15.7177
-15.7135
-15.708
-15.7008
-15.6942
-15.688
-15.6822
-15.677
-15.6719
-15.6669
-15.6626
-15.6593
-15.6572
-15.6561
-15.6558
-15.6557
-15.6562
-15.6566
-15.6577
-15.6589
-15.6603
-15.6614
-15.662
-15.9458
-15.9458
-15.9476
-15.9506
-15.9532
-15.9555
-15.9559
-15.9568
-15.9547
-15.9488
-15.9415
-15.9363
-15.9305
-15.9242
-15.918
-15.912
-15.9064
-15.901
-15.896
-15.8913
-15.8867
-15.8823
-15.8785
-15.8753
-15.8734
-15.8729
-15.8725
-15.8723
-15.8728
-15.8741
-15.8754
-15.8774
-15.8774
-15.8776
-15.877
-16.1304
-16.13
-16.1325
-16.1374
-16.1398
-16.1449
-16.146
-16.148
-16.1469
-16.1442
-16.1431
-16.1424
-16.1409
-16.1389
-16.1373
-16.1358
-16.1346
-16.1338
-16.1332
-16.1328
-16.1326
-16.1323
-16.1325
-16.1321
-16.1324
-16.1324
-16.1329
-16.1344
-16.1337
-16.1339
-16.1339
-16.1329
-16.1335
-16.1339
-16.1346
-16.3054
-16.3045
-16.305
-16.3084
-16.3107
-16.3134
-16.3144
-16.3167
-16.3202
-16.3222
-16.3244
-16.3267
-16.3293
-16.3326
-16.3367
-16.3409
-16.3454
-16.3504
-16.3557
-16.3614
-16.3675
-16.3729
-16.3791
-16.3836
-16.3868
-16.3887
-16.3892
-16.3886
-16.3867
-16.3827
-16.3796
-16.3773
-16.3714
-16.3679
-16.3673
-16.3642
-16.3642
-16.3607
-16.3563
-16.3592
-16.3617
-16.366
-16.3752
-16.3887
-16.4048
-16.4211
-16.4369
-16.453
-16.4698
-16.4873
-16.5031
-16.5172
-16.5298
-16.5409
-16.5511
-16.5603
-16.5702
-16.5771
-16.5824
-16.5857
-16.5891
-16.5903
-16.5899
-16.5885
-16.586
-16.5817
-16.5768
-16.572
-16.5704
-16.5721
-16.5579
-16.5615
-16.5604
-16.5619
-16.5635
-16.5639
-16.5727
-16.5901
-16.6002
-16.612
-16.624
-16.6355
-16.6464
-16.6572
-16.6679
-16.6794
-16.6933
-16.7073
-16.7222
-16.7356
-16.7466
-16.7543
-16.7607
-16.7666
-16.7676
-16.7687
-16.7684
-16.7669
-16.7643
-16.7617
-16.7597
-16.7583
-16.7604
-16.7608
-16.7611
-16.8973
-16.899
-16.898
-16.8931
-16.8876
-16.8878
-16.8901
-16.8952
-16.906
-16.9149
-16.9241
-16.9312
-16.938
-16.9427
-16.9471
-16.9487
-16.948
-16.9467
-16.9445
-16.9423
-16.9392
-16.9356
-16.9315
-16.9267
-16.9252
-16.9221
-16.9184
-16.9143
-16.9086
-16.9043
-16.9041
-16.9073
-16.9115
-16.9128
-16.913
-17.3463
-17.3482
-17.3527
-17.3539
-17.3514
-17.3464
-17.3415
-17.3296
-17.3162
-17.2936
-17.2774
-17.2656
-17.2519
-17.2411
-17.2303
-17.2182
-17.2071
-17.196
-17.1851
-17.174
-17.1642
-17.1549
-17.1454
-17.1347
-17.1279
-17.1238
-17.1232
-17.1232
-17.1238
-17.1249
-17.1247
-17.1258
-17.1287
-17.1315
-17.1282
-17.6672
-17.6708
-17.6761
-17.6807
-17.6792
-17.6772
-17.6744
-17.6645
-17.6483
-17.6383
-17.6246
-17.6016
-17.5808
-17.5644
-17.5494
-17.5344
-17.5217
-17.5093
-17.4987
-17.4894
-17.4804
-17.4722
-17.4649
-17.4582
-17.4516
-17.4483
-17.4481
-17.4486
-17.4533
-17.4587
-17.4653
-17.47
-17.4707
-17.4729
-17.4728
-17.8715
-17.8705
-17.874
-17.8795
-17.8825
-17.8839
-17.8817
-17.8796
-17.8747
-17.8587
-17.8488
-17.8439
-17.8384
-17.8329
-17.8283
-17.8244
-17.8213
-17.8191
-17.817
-17.8148
-17.8139
-17.8144
-17.8168
-17.8208
-17.8245
-17.8284
-17.8311
-17.8365
-17.8424
-17.8431
-17.8415
-17.8389
-17.8346
-17.8313
-17.8287
-18.0567
-18.0565
-18.0571
-18.0568
-18.0571
-18.0597
-18.0602
-18.0604
-18.0605
-18.0603
-18.0585
-18.056
-18.0539
-18.0523
-18.0514
-18.0509
-18.0514
-18.0527
-18.0547
-18.0571
-18.0598
-18.0627
-18.0661
-18.0703
-18.0759
-18.0815
-18.0841
-18.0868
-18.0894
-18.0902
-18.0879
-18.0842
-18.0792
-18.0756
-18.0757
-18.2578
-18.2569
-18.2557
-18.2544
-18.2534
-18.2525
-18.2527
-18.2533
-18.2553
-18.2569
-18.2582
-18.2599
-18.2617
-18.2632
-18.2647
-18.2663
-18.2678
-18.2693
-18.271
-18.2727
-18.2744
-18.2762
-18.2781
-18.2799
-18.2814
-18.2821
-18.2827
-18.2825
-18.2813
-18.2796
-18.2778
-18.2763
-18.2748
-18.2739
-18.2748
-18.4817
-18.4813
-18.481
-18.4809
-18.4811
-18.4806
-18.4809
-18.4813
-18.4822
-18.4829
-18.4834
-18.4841
-18.4849
-18.4856
-18.4862
-18.4868
-18.4872
-18.4874
-18.4875
-18.4876
-18.4876
-18.4875
-18.4873
-18.487
-18.4868
-18.4864
-18.4862
-18.4857
-18.4854
-18.4854
-18.4858
-18.4863
-18.4866
-18.4864
-18.4866
-18.7122
-18.7123
-18.7126
-18.7128
-18.7129
-18.7124
-18.7127
-18.7126
-18.7122
-18.7122
-18.7124
-18.7123
-18.7122
-18.7121
-18.712
-18.712
-18.7119
-18.7118
-18.7115
-18.7113
-18.711
-18.7105
-18.71
-18.7095
-18.7092
-18.709
-18.7087
-18.7087
-18.7088
-18.709
-18.7094
-18.7098
-18.7101
-18.7103
-18.7097
-18.9306
-18.9311
-18.9319
-18.9313
-18.9327
-18.9325
-18.9327
-18.933
-18.9333
-18.9338
-18.9345
-18.9353
-18.9359
-18.9368
-18.9374
-18.9379
-18.9384
-18.939
-18.9395
-18.9399
-18.9402
-18.9404
-18.9405
-18.9405
-18.9406
-18.9406
-18.9405
-18.9405
-18.9409
-18.9412
-18.9414
-18.9416
-18.9417
-18.9424
-18.9428
-19.143
-19.1433
-19.1421
-19.1411
-19.1417
-19.142
-19.1426
-19.145
-19.1475
-19.1503
-19.1535
-19.1563
-19.1587
-19.1611
-19.1636
-19.1658
-19.1675
-19.1693
-19.171
-19.1724
-19.174
-19.1754
-19.1768
-19.1776
-19.1781
-19.1783
-19.1784
-19.1786
-19.1786
-19.1786
-19.1785
-19.1785
-19.1784
-19.1783
-19.1781
-19.3749
-19.3754
-19.3746
-19.3741
-19.3734
-19.3736
-19.3744
-19.3775
-19.3802
-19.3827
-19.3854
-19.3885
-19.392
-19.3947
-19.397
-19.3994
-19.4019
-19.4039
-19.4061
-19.4082
-19.4101
-19.4118
-19.4137
-19.4156
-19.4168
-19.4171
-19.4171
-19.4171
-19.417
-19.4168
-19.4167
-19.4166
-19.4166
-19.4166
-19.4159
-19.6229
-19.6231
-19.6225
-19.6221
-19.6216
-19.6215
-19.622
-19.6238
-19.626
-19.6277
-19.6294
-19.6314
-19.6337
-19.6359
-19.6379
-19.6397
-19.6416
-19.6432
-19.6446
-19.646
-19.6473
-19.6485
-19.6494
-19.6499
-19.6501
-19.6502
-19.6502
-19.6503
-19.6504
-19.6504
-19.6505
-19.6507
-19.6509
-19.6509
-19.651
-19.8684
-19.8686
-19.8681
-19.8679
-19.8676
-19.8676
-19.868
-19.8693
-19.8712
-19.8727
-19.8744
-19.8757
-19.877
-19.8784
-19.8799
-19.8811
-19.8821
-19.8832
-19.8841
-19.8846
-19.885
-19.8853
-19.8854
-19.8855
-19.8855
-19.8854
-19.8852
-19.885
-19.8849
-19.8847
-19.8847
-19.8848
-19.8847
-19.8845
-19.885
-20.1249
-20.1243
-20.1242
-20.1234
-20.1231
-20.1233
-20.1233
-20.1233
-20.1236
-20.1239
-20.1242
-20.1243
-20.1245
-20.1244
-20.1244
-20.1242
-20.1237
-20.1232
-20.1228
-20.1224
-20.1219
-20.1214
-20.1208
-20.1202
-20.1197
-20.1195
-20.1192
-20.119
-20.119
-20.119
-20.1191
-20.1191
-20.119
-20.1187
-20.1186
-20.3953
-20.3952
-20.3955
-20.3976
-20.3975
-20.397
-20.3963
-20.3935
-20.3913
-20.3891
-20.3846
-20.3803
-20.3768
-20.3731
-20.3697
-20.3665
-20.3651
-20.3636
-20.362
-20.3604
-20.3587
-20.3573
-20.3561
-20.3552
-20.3546
-20.3543
-20.3541
-20.3541
-20.3543
-20.3544
-20.3546
-20.3547
-20.3547
-20.3543
-20.3538
-20.6512
-20.6511
-20.6564
-20.6579
-20.6595
-20.6583
-20.6571
-20.6507
-20.6447
-20.6389
-20.6343
-20.6303
-20.6261
-20.6219
-20.6182
-20.615
-20.611
-20.6073
-20.6035
-20.5999
-20.5979
-20.5959
-20.5942
-20.5929
-20.592
-20.5916
-20.5913
-20.5913
-20.5914
-20.5914
-20.5915
-20.5914
-20.5912
-20.5914
-20.5915
-20.8696
-20.8693
-20.8703
-20.8728
-20.8753
-20.8741
-20.8734
-20.8715
-20.8671
-20.8631
-20.8587
-20.8541
-20.8501
-20.8464
-20.843
-20.8399
-20.8372
-20.8345
-20.8327
-20.8316
-20.8295
-20.8278
-20.8263
-20.8252
-20.8246
-20.8243
-20.8241
-20.8241
-20.8243
-20.8243
-20.8245
-20.8249
-20.8252
-20.8255
-20.8252
-21.0227
-21.0227
-21.0214
-21.0213
-21.0233
-21.024
-21.0251
-21.0269
-21.0287
-21.0317
-21.035
-21.0384
-21.0414
-21.044
-21.0464
-21.0489
-21.0509
-21.0531
-21.055
-21.0567
-21.0588
-21.0604
-21.0617
-21.0626
-21.0632
-21.0632
-21.0633
-21.0636
-21.0638
-21.0642
-21.0643
-21.064
-21.0639
-21.0635
-21.0634
-21.2223
-21.2239
-21.2221
-21.2215
-21.2214
-21.2235
-21.2306
-21.2369
-21.2415
-21.2462
-21.251
-21.2558
-21.2607
-21.2668
-21.272
-21.2767
-21.2817
-21.2854
-21.2883
-21.2913
-21.2943
-21.2974
-21.3004
-21.3027
-21.3038
-21.3039
-21.304
-21.304
-21.3041
-21.304
-21.3041
-21.3042
-21.3039
-21.3037
-21.3041
-21.4891
-21.4895
-21.4874
-21.4854
-21.4848
-21.4854
-21.4874
-21.4926
-21.4984
-21.5047
-21.5112
-21.5167
-21.5205
-21.5234
-21.5263
-21.5289
-21.5312
-21.5339
-21.5372
-21.5394
-21.5408
-21.5421
-21.5431
-21.5437
-21.5442
-21.5444
-21.5444
-21.5444
-21.5441
-21.5439
-21.5433
-21.5431
-21.5431
-21.5431
-21.5434
-21.7711
-21.7712
-21.773
-21.7732
-21.773
-21.7728
-21.772
-21.7715
-21.7713
-21.7713
-21.7714
-21.7718
-21.7725
-21.7734
-21.7744
-21.7754
-21.7762
-21.777
-21.7778
-21.7785
-21.7792
-21.7797
-21.7801
-21.7804
-21.7804
-21.7804
-21.7803
-21.7801
-21.78
-21.7801
-21.78
-21.7801
-21.7796
-21.7789
-21.7779
-22.0206
-22.0215
-22.0226
-22.0221
-22.0221
-22.0219
-22.021
-22.0201
-22.0192
-22.0185
-22.0182
-22.0177
-22.0176
-22.0178
-22.018
-22.0182
-22.0184
-22.0186
-22.0188
-22.019
-22.0191
-22.0192
-22.0193
-22.0192
-22.0192
-22.019
-22.0189
-22.0187
-22.0186
-22.0185
-22.0184
-22.018
-22.0178
-22.0179
-22.018
-22.2588
-22.2586
-22.2581
-22.2578
-22.2578
-22.2581
-22.258
-22.2581
-22.2581
-22.2582
-22.2581
-22.2582
-22.2583
-22.2585
-22.2585
-22.2585
-22.2587
-22.2588
-22.2589
-22.2589
-22.2589
-22.2588
-22.2587
-22.2585
-22.2584
-22.2582
-22.2581
-22.2579
-22.2579
-22.2578
-22.258
-22.2583
-22.2584
-22.2584
-22.2583
-22.5008
-22.5005
-22.501
-22.5014
-22.5011
-22.5012
-22.5013
-22.5014
-22.5015
-22.5016
-22.5016
-22.5017
-22.5016
-22.5014
-22.5012
-22.501
-22.501
-22.5008
-22.5007
-22.5006
-22.5004
-22.5002
-22.5
-22.4999
-22.4997
-22.4995
-22.4995
-22.4995
-22.4995
-22.4997
-22.4999
-22.5001
-22.5002
-22.5
-22.5002
-22.7464
-22.7472
-22.747
-22.7475
-22.7471
-22.7471
-22.7469
-22.7466
-22.7463
-22.7459
-22.7455
-22.7451
-22.7448
-22.7445
-22.7441
-22.7436
-22.7431
-22.743
-22.7428
-22.7426
-22.7424