/*--------------------------------*- C++ -*----------------------------------*\
  =========                 |
  \\      /  F ield         | OpenFOAM: The Open Source CFD Toolbox
   \\    /   O peration     | Website:  https://openfoam.org
    \\  /    A nd           | Version:  13
     \\/     M anipulation  |
\*---------------------------------------------------------------------------*/
FoamFile
{
    format      ascii;
    class       volVectorField;
    location    "0s";
    object      U;
}
// * * * * * * * * * * * * * * * * * * * * * * * * * * * * * * * * * * * * * //

dimensions      [0 1 -1 0 0 0 0];

internalField   nonuniform List<vector> 
78750
(
(-0.0359067 0.143727 0.119351)
(-0.0854431 0.122028 0.117275)
(-0.125899 0.0983917 0.107694)
(-0.153481 0.0577428 0.102104)
(-0.178592 0.0140107 0.0994739)
(-0.190468 -0.0152338 0.0975695)
(-0.191603 -0.0512134 0.0933272)
(-0.189027 -0.0641044 0.0958609)
(-0.180963 -0.0937959 0.0926375)
(-0.167844 -0.100622 0.09968)
(-0.150071 -0.115413 0.103454)
(-0.130371 -0.122935 0.103119)
(-0.108353 -0.137016 0.104439)
(-0.0856157 -0.141505 0.104691)
(-0.05809 -0.152418 0.103502)
(-0.0340995 -0.153625 0.105544)
(-0.00803478 -0.155548 0.107299)
(0.014705 -0.155121 0.106067)
(0.0420294 -0.150862 0.105093)
(0.0637938 -0.146249 0.103728)
(0.0916371 -0.144624 0.101918)
(0.115049 -0.13029 0.102731)
(0.135104 -0.130928 0.100218)
(0.157079 -0.107451 0.102265)
(0.170946 -0.105879 0.0994936)
(0.188828 -0.0805752 0.0985013)
(0.193098 -0.0853678 0.090688)
(0.205374 -0.0486038 0.0932127)
(0.204704 -0.0375722 0.0913273)
(0.193777 -0.00967608 0.0943207)
(0.183723 0.018607 0.093595)
(0.160288 0.0680298 0.101554)
(0.12216 0.121037 0.110025)
(0.0859839 0.145409 0.112919)
(0.0376937 0.137858 0.115371)
(-0.0188305 0.528244 0.096111)
(-0.0600915 0.41832 0.0955336)
(-0.0975879 0.262643 0.0643875)
(-0.114499 0.167624 0.0557965)
(-0.129716 0.0843954 0.0517625)
(-0.137452 0.0422395 0.0468948)
(-0.134915 -0.081688 0.0363639)
(-0.134822 -0.0852544 0.0413776)
(-0.12608 -0.171764 0.0328908)
(-0.114577 -0.186626 0.02488)
(-0.101931 -0.241131 0.0144632)
(-0.0880954 -0.249848 0.018288)
(-0.0711701 -0.278972 0.0114981)
(-0.0550105 -0.292508 0.0105534)
(-0.0381918 -0.304001 0.00874852)
(-0.0192832 -0.31061 0.00778983)
(-0.00326136 -0.312202 0.00745725)
(0.017233 -0.31153 0.00675175)
(0.0330783 -0.306899 0.00679634)
(0.0529272 -0.298349 0.00694801)
(0.0670917 -0.285681 0.00764309)
(0.0854174 -0.266338 0.0106523)
(0.0972497 -0.253825 0.00876403)
(0.114935 -0.219362 0.0161588)
(0.122145 -0.211955 0.0129313)
(0.137971 -0.156062 0.0231958)
(0.143191 -0.123013 0.0266172)
(0.148104 -0.110702 0.0316434)
(0.151002 0.0188054 0.0416013)
(0.144451 0.0627951 0.0428789)
(0.135088 0.116711 0.0492711)
(0.118191 0.208282 0.0524542)
(0.102028 0.27992 0.0532033)
(0.0741978 0.382229 0.080881)
(0.0294841 0.475364 0.0957583)
(-0.00545509 0.61741 0.0896384)
(-0.0201403 0.616357 0.0874725)
(-0.0461433 0.432933 0.063371)
(-0.0655266 0.24529 0.0586376)
(-0.0749114 0.113306 0.0472922)
(-0.0805477 0.0481679 0.0425943)
(-0.0791402 -0.119747 0.02876)
(-0.0768261 -0.137689 0.0303618)
(-0.0710361 -0.253375 0.0215309)
(-0.0652332 -0.268841 0.0257)
(-0.0550379 -0.317436 0.0233277)
(-0.047567 -0.349273 0.0199751)
(-0.0364207 -0.369207 0.0209108)
(-0.0271216 -0.38641 0.0203808)
(-0.0165772 -0.396919 0.0205548)
(-0.00672815 -0.400675 0.0201513)
(0.00368103 -0.401509 0.0194579)
(0.013555 -0.401191 0.0185532)
(0.024152 -0.398495 0.017433)
(0.0341646 -0.390717 0.016316)
(0.044381 -0.376714 0.0154066)
(0.0545642 -0.35893 0.0143036)
(0.06395 -0.333193 0.0157457)
(0.0734508 -0.308771 0.013964)
(0.0819794 -0.273582 0.0158544)
(0.0880418 -0.23935 0.0184589)
(0.0989357 -0.17602 0.0199683)
(0.0949574 -0.157646 0.0177077)
(0.106132 -0.00297131 0.0254175)
(0.101932 0.0495589 0.0320933)
(0.0994058 0.150487 0.0368219)
(0.0932328 0.252917 0.0378641)
(0.0800205 0.379625 0.0405922)
(0.0468367 0.589662 0.0660168)
(0.0120917 0.737003 0.0672226)
(-0.0145842 0.620314 0.0973686)
(-0.0281821 0.641028 0.0858281)
(-0.0335829 0.530777 0.0644659)
(-0.0436042 0.338641 0.0548274)
(-0.0557871 0.153319 0.041041)
(-0.0557372 0.077617 0.0370555)
(-0.0607954 -0.124753 0.0150488)
(-0.0548734 -0.143459 0.0183594)
(-0.053235 -0.263797 0.00525499)
(-0.0503127 -0.309814 0.0040696)
(-0.0418987 -0.355626 0.000457732)
(-0.0367612 -0.389966 -0.000974889)
(-0.0292543 -0.415908 -0.00343463)
(-0.0222172 -0.433441 -0.00546713)
(-0.0150419 -0.445928 -0.00772299)
(-0.00731905 -0.451774 -0.00921835)
(-0.000167322 -0.454969 -0.0100676)
(0.008353 -0.454804 -0.0107073)
(0.0154776 -0.449797 -0.0110372)
(0.0235444 -0.439588 -0.0111348)
(0.0307229 -0.424191 -0.0109082)
(0.0378654 -0.404362 -0.0102828)
(0.0448541 -0.381613 -0.00981113)
(0.0518199 -0.35037 -0.00746828)
(0.0575874 -0.309054 -0.00486468)
(0.0635873 -0.275344 -0.0067448)
(0.0664561 -0.202838 0.00433134)
(0.0692181 -0.160635 0.00869163)
(0.0743147 -0.00518809 0.0234544)
(0.0675697 0.0546914 0.0286952)
(0.0692363 0.16292 0.0395235)
(0.0561872 0.31668 0.0582696)
(0.0384696 0.556778 0.0604351)
(0.0136932 0.795457 0.0746671)
(0.00133802 0.816364 0.0671419)
(-0.0189052 0.819809 0.0733222)
(-0.0528701 0.671744 0.0571962)
(-0.0599592 0.509108 0.044384)
(-0.0636886 0.350371 0.0305313)
(-0.0694092 0.170721 0.0127437)
(-0.0671426 0.0878411 0.0138348)
(-0.0692857 -0.161407 -0.00146371)
(-0.063677 -0.181396 0.00368367)
(-0.0559144 -0.287425 -0.000590339)
(-0.0533353 -0.351873 -0.00136761)
(-0.0458673 -0.402691 -0.00187651)
(-0.0398097 -0.438195 -0.00305147)
(-0.0336272 -0.463331 -0.00410361)
(-0.0273513 -0.481302 -0.00523215)
(-0.0212879 -0.492899 -0.00571036)
(-0.0149652 -0.498765 -0.00593585)
(-0.00917209 -0.500998 -0.00621978)
(-0.0031935 -0.500888 -0.00652074)
(0.00281469 -0.495239 -0.00688776)
(0.00838645 -0.483499 -0.00715362)
(0.0140488 -0.466532 -0.00730161)
(0.019138 -0.444505 -0.00736269)
(0.0242013 -0.417538 -0.00699624)
(0.0283208 -0.384306 -0.00650383)
(0.0321027 -0.342399 -0.00428082)
(0.0361706 -0.294209 -0.00169374)
(0.0361552 -0.206307 0.0065621)
(0.04036 -0.179666 -0.0011637)
(0.0387307 -0.00665477 0.0210865)
(0.037779 0.0756688 0.0268067)
(0.0331868 0.231564 0.0411145)
(0.023484 0.429179 0.0578099)
(0.0162039 0.648987 0.0681272)
(0.0118837 0.801269 0.0815016)
(0.00701251 0.784779 0.0781767)
(-0.00452451 1.01204 0.0439357)
(-0.0277102 0.903597 0.0284738)
(-0.0577377 0.573508 0.022335)
(-0.0706979 0.34388 0.0150318)
(-0.0742947 0.16399 -0.00162894)
(-0.0800966 0.0764179 -0.00809851)
(-0.0734606 -0.185306 -0.0159062)
(-0.0705482 -0.243473 -0.0156204)
(-0.0619899 -0.330026 -0.0187927)
(-0.0549118 -0.399801 -0.0185123)
(-0.0489212 -0.446536 -0.0194907)
(-0.0411723 -0.481369 -0.0200807)
(-0.0347112 -0.505117 -0.0207121)
(-0.027814 -0.521229 -0.0212643)
(-0.0211264 -0.531699 -0.0220304)
(-0.0145443 -0.536251 -0.0225678)
(-0.00825646 -0.537026 -0.0231066)
(-0.00217437 -0.534963 -0.0234881)
(0.00386184 -0.528266 -0.0238524)
(0.00960944 -0.514822 -0.0241507)
(0.0153359 -0.49531 -0.0244398)
(0.0206463 -0.470339 -0.0246958)
(0.0257235 -0.439914 -0.0247936)
(0.029557 -0.402514 -0.0246091)
(0.0340402 -0.357899 -0.0240514)
(0.036505 -0.300921 -0.0222577)
(0.0373669 -0.217632 -0.0166423)
(0.0454535 -0.185538 -0.0191218)
(0.0355743 0.0213007 0.0034019)
(0.0400624 0.101539 0.00539547)
(0.0347315 0.24762 0.0184549)
(0.0394656 0.408368 0.0361676)
(0.0395216 0.607763 0.0515077)
(0.0356776 0.812531 0.0671128)
(0.0177689 0.849115 0.078956)
(0.00315428 1.00721 0.0317463)
(-0.0034506 1.03041 0.0328913)
(-0.0155451 0.786513 0.0269437)
(-0.0338649 0.469421 0.0197584)
(-0.0438553 0.20948 0.00762744)
(-0.0537281 0.0835001 -0.00801254)
(-0.0423345 -0.184671 -0.0187584)
(-0.0436673 -0.285032 -0.0192449)
(-0.0371299 -0.361417 -0.0189541)
(-0.0320059 -0.436179 -0.0171744)
(-0.025642 -0.486145 -0.0171325)
(-0.0212368 -0.521396 -0.0167086)
(-0.0151665 -0.546282 -0.0165331)
(-0.00936508 -0.562315 -0.0168624)
(-0.00387004 -0.571849 -0.0176349)
(0.0021771 -0.575489 -0.0184315)
(0.00770683 -0.575138 -0.0193776)
(0.0133253 -0.573171 -0.0204415)
(0.0192761 -0.566989 -0.0218293)
(0.0250071 -0.553768 -0.0228887)
(0.0308945 -0.53403 -0.0238556)
(0.0368729 -0.507859 -0.0250936)
(0.0425233 -0.474523 -0.0265608)
(0.0480631 -0.43415 -0.0283744)
(0.0532531 -0.385685 -0.0306503)
(0.0572752 -0.328115 -0.0330586)
(0.0631144 -0.247057 -0.0339699)
(0.0656681 -0.200905 -0.0363236)
(0.0673093 0.00602923 -0.0278611)
(0.0727832 0.074804 -0.0267807)
(0.0722213 0.215679 -0.0158092)
(0.0707538 0.385503 0.00595862)
(0.0609808 0.612613 0.0273291)
(0.0354074 0.924635 0.037175)
(0.0102016 1.07696 0.0497893)
(0.000199499 1.00013 0.0443367)
(-0.00367411 1.01446 0.0504896)
(-0.0042648 0.799261 0.0511128)
(-0.00777815 0.549892 0.038656)
(-0.0109768 0.315533 0.0261154)
(-0.0168646 0.120431 0.0107462)
(-0.0194285 -0.171945 -0.0160353)
(-0.0153481 -0.300602 -0.0201075)
(-0.0134044 -0.373723 -0.0223106)
(-0.0120076 -0.452775 -0.0225373)
(-0.00872153 -0.502156 -0.024426)
(-0.00568041 -0.540638 -0.0251533)
(-0.00210047 -0.568481 -0.0263571)
(0.00220699 -0.586246 -0.0278236)
(0.00603365 -0.596429 -0.0297503)
(0.0105191 -0.601639 -0.0313419)
(0.0151456 -0.602256 -0.032541)
(0.0196226 -0.600472 -0.0337558)
(0.0246819 -0.594927 -0.0358303)
(0.0292762 -0.582356 -0.0371902)
(0.0343109 -0.563669 -0.0380432)
(0.039233 -0.53824 -0.0386945)
(0.0449025 -0.505063 -0.0394097)
(0.050133 -0.461955 -0.0403994)
(0.0556493 -0.409958 -0.0413755)
(0.0595021 -0.347407 -0.0421661)
(0.0653083 -0.26423 -0.0431289)
(0.0668181 -0.212965 -0.0472328)
(0.0744937 -0.0166271 -0.040801)
(0.070147 0.0767285 -0.0326874)
(0.0682554 0.239928 -0.0157114)
(0.0531865 0.486952 0.0109903)
(0.0302855 0.832712 0.0192559)
(0.010056 1.12215 0.023273)
(-0.00432128 1.13467 0.0277689)
(-0.00456058 0.998356 0.0615798)
(-0.0173412 1.01994 0.0517959)
(-0.0207436 0.790095 0.0388701)
(-0.0204142 0.486475 0.022392)
(-0.0151724 0.273624 0.00697593)
(-0.01344 0.126767 -0.00168075)
(-0.0169212 -0.1677 -0.021495)
(-0.0270638 -0.3169 -0.0288059)
(-0.0165328 -0.385987 -0.0289829)
(-0.0180209 -0.470896 -0.0287506)
(-0.0137446 -0.520856 -0.0287888)
(-0.0103011 -0.563905 -0.0279365)
(-0.00622449 -0.59204 -0.028429)
(-0.00215587 -0.608726 -0.0292251)
(0.00182787 -0.617745 -0.0308686)
(0.00596605 -0.622616 -0.032001)
(0.01025 -0.623656 -0.0331773)
(0.0146551 -0.620999 -0.0340878)
(0.0192432 -0.613047 -0.0355406)
(0.0234998 -0.598757 -0.0372394)
(0.0276951 -0.579667 -0.0391034)
(0.0319769 -0.555295 -0.0407894)
(0.0367388 -0.522607 -0.0423981)
(0.0406883 -0.478673 -0.0443825)
(0.046149 -0.421103 -0.0468111)
(0.0500744 -0.357144 -0.0472148)
(0.0540218 -0.267423 -0.0481732)
(0.0554396 -0.195379 -0.055757)
(0.0499721 0.0269955 -0.0431922)
(0.042859 0.150238 -0.0297165)
(0.0296381 0.375521 0.000724723)
(0.0237546 0.630436 0.00547369)
(0.0113818 0.928647 0.023226)
(0.00773136 1.15104 0.0323078)
(-2.00746e-05 1.1205 0.0323318)
(-0.0032669 1.11127 0.0246778)
(-0.0168907 1.08605 0.0192731)
(-0.0227328 0.788466 0.0206778)
(-0.0294842 0.471892 0.00553953)
(-0.0321301 0.251109 -0.00937266)
(-0.0290913 0.133237 -0.0167574)
(-0.0312958 -0.139076 -0.0334173)
(-0.0333735 -0.325796 -0.0299675)
(-0.0318651 -0.406339 -0.0332068)
(-0.0267386 -0.500225 -0.0342662)
(-0.0211803 -0.549696 -0.0324554)
(-0.0175501 -0.594012 -0.0314513)
(-0.0114635 -0.620864 -0.0320521)
(-0.00723628 -0.636869 -0.0325483)
(-0.00179579 -0.644301 -0.034039)
(0.00336441 -0.649279 -0.0349351)
(0.0089628 -0.652259 -0.0359191)
(0.0146036 -0.650183 -0.0366854)
(0.0207566 -0.64147 -0.0381155)
(0.0267759 -0.626736 -0.0402061)
(0.0329017 -0.606864 -0.0426468)
(0.039155 -0.58169 -0.0449685)
(0.045228 -0.54934 -0.0471784)
(0.0518755 -0.506264 -0.0498843)
(0.0580991 -0.449019 -0.052864)
(0.0646416 -0.385272 -0.0561837)
(0.0692082 -0.273714 -0.0601073)
(0.0669231 -0.162618 -0.0729237)
(0.0493798 0.107475 -0.071285)
(0.0491671 0.211714 -0.0730899)
(0.0406861 0.391945 -0.0568055)
(0.0363147 0.634845 -0.0300854)
(0.0287758 0.92235 0.00131165)
(0.0244725 1.15234 0.0315206)
(0.00805496 1.15782 0.0424438)
(-0.0026246 1.12267 0.0195129)
(-0.0124953 1.11625 0.0171488)
(-0.0182951 0.882047 0.0155608)
(-0.0276352 0.534681 0.00401059)
(-0.0260272 0.300433 0.0135939)
(-0.0328519 0.0998164 -0.0264051)
(-0.0305458 -0.0687766 -0.0286606)
(-0.0453823 -0.322795 -0.0329578)
(-0.0390803 -0.410718 -0.0335347)
(-0.0380886 -0.513538 -0.0330348)
(-0.0308194 -0.566022 -0.0299018)
(-0.0285955 -0.613018 -0.028869)
(-0.022148 -0.641453 -0.028255)
(-0.0181341 -0.659961 -0.0277118)
(-0.0118113 -0.669776 -0.0282919)
(-0.00616127 -0.678631 -0.0287243)
(0.000319729 -0.684006 -0.0292115)
(0.00646381 -0.684625 -0.0296824)
(0.0138253 -0.678775 -0.0308921)
(0.0210694 -0.666466 -0.0329936)
(0.0289734 -0.648425 -0.0354084)
(0.0370783 -0.624674 -0.038036)
(0.0452139 -0.593151 -0.0409428)
(0.0538574 -0.551454 -0.0439252)
(0.0627051 -0.495584 -0.0477442)
(0.0698478 -0.409313 -0.053785)
(0.0718897 -0.290766 -0.0659828)
(0.0680852 -0.0232664 -0.103974)
(0.0599408 0.0961502 -0.113183)
(0.0598663 0.267264 -0.124225)
(0.0480913 0.4582 -0.116716)
(0.0384509 0.678749 -0.0785093)
(0.0228267 1.00863 -0.0405341)
(0.0121857 1.28223 -0.0121191)
(0.00488082 1.28587 0.0036229)
(-0.011307 1.19964 0.0456055)
(-0.0325043 1.16161 0.0290045)
(-0.043352 0.882171 -0.0183637)
(-0.0554111 0.533437 -0.0667517)
(-0.0548204 0.319447 -0.075481)
(-0.0519334 0.152976 -0.0633696)
(-0.0548043 0.0253463 -0.054755)
(-0.0786153 -0.288054 -0.0402347)
(-0.0717653 -0.404983 -0.033243)
(-0.0788575 -0.533128 -0.0334142)
(-0.0666883 -0.587699 -0.0311263)
(-0.0649587 -0.635906 -0.029211)
(-0.0579804 -0.667866 -0.0269409)
(-0.0522789 -0.689567 -0.0259683)
(-0.0447057 -0.703146 -0.0257593)
(-0.0384266 -0.713287 -0.0263644)
(-0.0314918 -0.717414 -0.0262128)
(-0.0254603 -0.721753 -0.0265715)
(-0.0181511 -0.71795 -0.0274878)
(-0.0117537 -0.707126 -0.0292377)
(-0.00513093 -0.6909 -0.0308536)
(0.0016029 -0.667478 -0.0325043)
(0.00812937 -0.634691 -0.0344184)
(0.0153759 -0.590132 -0.0356806)
(0.016569 -0.527077 -0.0373769)
(0.0301614 -0.419094 -0.0498079)
(0.0209341 -0.218836 -0.0743417)
(0.0336625 0.0321417 -0.136885)
(0.0298436 0.166161 -0.141205)
(0.024635 0.392498 -0.14066)
(0.015803 0.604214 -0.125746)
(0.00794342 0.851111 -0.0976369)
(-0.00536372 1.13287 -0.0631857)
(-0.00342198 1.2948 -0.0338809)
(-0.00214646 1.28301 -0.0171243)
(-0.0078847 1.33891 -0.0113814)
(-0.0120133 1.33953 -0.0313692)
(-0.0328031 1.03275 -0.0622891)
(-0.0591234 0.580055 -0.151781)
(-0.0793727 0.293366 -0.206558)
(-0.0898807 0.128822 -0.158458)
(-0.0892103 0.0752721 -0.127304)
(-0.0943676 -0.216827 -0.06481)
(-0.104409 -0.41275 -0.0336302)
(-0.102464 -0.545124 -0.0383297)
(-0.0960565 -0.62817 -0.0281897)
(-0.0895309 -0.6838 -0.0251028)
(-0.0817389 -0.719541 -0.0229342)
(-0.0757251 -0.740889 -0.0211758)
(-0.0664486 -0.754393 -0.019792)
(-0.0617797 -0.759873 -0.0207949)
(-0.0537439 -0.759612 -0.0206622)
(-0.0486461 -0.760989 -0.0201972)
(-0.0426074 -0.75467 -0.0203165)
(-0.0375104 -0.738856 -0.0207898)
(-0.0332004 -0.719035 -0.0217622)
(-0.0292615 -0.69211 -0.0226974)
(-0.0258344 -0.65548 -0.0232472)
(-0.0224853 -0.609997 -0.0227238)
(-0.0193492 -0.549794 -0.0204906)
(-0.0184806 -0.434492 -0.0176621)
(-0.0104505 -0.180193 -0.0557085)
(-0.00672996 0.0276925 -0.110953)
(-0.00108275 0.25634 -0.130226)
(-0.0019505 0.449071 -0.125917)
(-0.00151996 0.641084 -0.109989)
(-0.00147843 0.872051 -0.0937491)
(-0.00572762 1.14251 -0.060747)
(-0.00575895 1.28345 -0.0414637)
(-6.38804e-05 1.25499 -0.0273209)
(0.0049418 1.33932 -0.0473019)
(0.0205754 1.34918 -0.0723656)
(0.0327031 1.22807 -0.0992882)
(0.017193 0.936999 -0.15984)
(-0.0140119 0.633743 -0.222647)
(-0.0379846 0.328791 -0.2601)
(-0.0582269 0.0367345 -0.205601)
(-0.0632992 -0.101155 -0.131144)
(-0.069392 -0.338411 -0.0208595)
(-0.0660192 -0.552233 0.00341802)
(-0.0872693 -0.665832 -0.0191575)
(-0.0711373 -0.717916 -0.0205214)
(-0.0691143 -0.753901 -0.0197739)
(-0.0667194 -0.77624 -0.0185328)
(-0.0592204 -0.7887 -0.0166157)
(-0.0584513 -0.795899 -0.0184019)
(-0.0519945 -0.795715 -0.0182495)
(-0.0485393 -0.795097 -0.0176698)
(-0.0448211 -0.785636 -0.0170808)
(-0.0415584 -0.768017 -0.0167487)
(-0.0384815 -0.744592 -0.0167682)
(-0.0361086 -0.715286 -0.0167058)
(-0.0339466 -0.679076 -0.0169741)
(-0.0315751 -0.634527 -0.0181386)
(-0.0285397 -0.569113 -0.0167103)
(-0.0280671 -0.456118 -0.00253201)
(-0.0238976 -0.24012 0.00102088)
(-0.0152015 -0.0452338 -0.0521109)
(-0.0025111 0.236336 -0.112338)
(-0.00431924 0.441016 -0.106135)
(-0.00233231 0.644304 -0.104732)
(-0.00836206 0.926665 -0.0796349)
(-0.0134168 1.18606 -0.0548221)
(-0.00828734 1.2817 -0.044666)
(-0.00318252 1.25078 -0.0364947)
(0.015198 1.22302 -0.0982997)
(0.0460639 1.21979 -0.110305)
(0.0652945 1.16432 -0.11497)
(0.0795054 1.00937 -0.128452)
(0.0704637 0.80107 -0.149499)
(0.063955 0.570564 -0.178112)
(0.0415334 0.389569 -0.182526)
(0.0273658 -0.000933015 -0.0981394)
(0.0323555 -0.205473 0.00190318)
(0.0244902 -0.499025 0.02465)
(0.0314745 -0.623203 0.019425)
(0.019745 -0.693263 0.0137834)
(0.0188508 -0.739474 0.012215)
(0.0143096 -0.768137 0.0101644)
(0.0133913 -0.784204 0.00969809)
(0.00956036 -0.788515 0.00690149)
(0.00662086 -0.787222 0.00515208)
(0.00197019 -0.785864 0.00434874)
(-0.00121087 -0.776155 0.00363757)
(-0.00554488 -0.759886 0.00220866)
(-0.00877991 -0.734637 0.00236902)
(-0.0124325 -0.704391 0.00198973)
(-0.0164212 -0.67121 -0.000143368)
(-0.0207411 -0.628616 -0.000296865)
(-0.0251727 -0.567497 0.00489401)
(-0.0281953 -0.463282 0.0145139)
(-0.0297969 -0.266296 0.0452313)
(-0.0276559 -0.0969517 0.0373748)
(-0.0204407 0.248999 -0.055813)
(-0.0208242 0.478394 -0.0685705)
(-0.0246968 0.728006 -0.0685021)
(-0.0291508 0.983591 -0.0577198)
(-0.0258572 1.17074 -0.0528484)
(-0.0179557 1.24122 -0.0489615)
(-0.00870023 1.20759 -0.0457164)
(0.0167108 1.01256 -0.0784399)
(0.035466 1.05237 -0.0546773)
(0.052875 1.04314 -0.0503472)
(0.0651852 0.988641 -0.0712931)
(0.0699422 0.794514 -0.0847712)
(0.070474 0.593723 -0.0731212)
(0.0636601 0.425622 -0.027961)
(0.0664032 -0.0505802 0.0859097)
(0.0665747 -0.275683 0.0929651)
(0.0659997 -0.50617 0.0407279)
(0.06025 -0.6181 0.0233289)
(0.0554856 -0.677111 0.0199642)
(0.0476428 -0.717776 0.0168062)
(0.0426708 -0.746668 0.0150189)
(0.0346907 -0.764261 0.0120843)
(0.0305216 -0.756677 0.00978887)
(0.0224857 -0.758414 0.00641633)
(0.0176329 -0.755387 0.00420356)
(0.0102192 -0.747304 0.00179975)
(0.004101 -0.732462 2.80964e-05)
(-0.0029508 -0.711857 -0.00169872)
(-0.00926682 -0.680297 -0.00152893)
(-0.0163026 -0.638538 0.000966637)
(-0.0233616 -0.59092 0.0037836)
(-0.0309817 -0.534984 0.00649465)
(-0.0392842 -0.447747 0.0178084)
(-0.0422993 -0.288678 0.0656821)
(-0.0468504 -0.121676 0.0869773)
(-0.0480918 0.238516 0.0483185)
(-0.0439706 0.475782 -0.00981014)
(-0.0408017 0.725915 -0.0233323)
(-0.0349005 0.972814 -0.0210821)
(-0.0265151 1.12595 -0.00706745)
(-0.0149189 1.15641 -0.00668807)
(-0.00773938 1.10425 -0.0170517)
(0.00243237 0.912191 0.0213782)
(0.00616436 0.957307 0.0549835)
(0.0166173 0.95127 0.0840429)
(0.0343655 0.9231 0.0954986)
(0.0525095 0.760542 0.116137)
(0.0515073 0.590565 0.0920999)
(0.0578083 0.406662 0.149704)
(0.0610431 -0.078923 0.141221)
(0.0657862 -0.304305 0.0688885)
(0.0687018 -0.492232 0.0298119)
(0.0639627 -0.578879 0.0208336)
(0.0595052 -0.634667 0.0151338)
(0.0549815 -0.67432 0.0120215)
(0.0498271 -0.698569 0.00905726)
(0.0434526 -0.712848 0.00630144)
(0.039511 -0.709802 0.00389145)
(0.0329062 -0.711267 0.00131378)
(0.0283363 -0.700861 -0.000956495)
(0.0214319 -0.688315 -0.00319376)
(0.0149347 -0.66725 -0.00515153)
(0.00754696 -0.640704 -0.00685315)
(-0.000396338 -0.609204 -0.00773229)
(-0.00937676 -0.571812 -0.00771837)
(-0.0126678 -0.52001 -0.00800242)
(-0.0214423 -0.462525 -0.00575967)
(-0.0302337 -0.374251 0.00176626)
(-0.0344742 -0.239107 0.0458819)
(-0.0510001 -0.0512585 0.123495)
(-0.0543869 0.234611 0.144156)
(-0.0527027 0.4517 0.132932)
(-0.042487 0.67349 0.115647)
(-0.0235388 0.899101 0.0992863)
(-0.00121029 1.02874 0.0730377)
(0.0097956 1.10019 0.051822)
(0.00414939 1.06771 0.0409673)
(-0.0159798 0.912322 0.0764599)
(-0.032734 0.929241 0.0975415)
(-0.0344004 0.799689 0.121762)
(-0.00796083 0.705376 0.157083)
(0.01541 0.620889 0.189014)
(0.0289094 0.52746 0.171272)
(0.0515841 0.296392 0.198963)
(0.0562652 -0.154609 0.0744824)
(0.0608057 -0.368318 0.0173507)
(0.0681628 -0.491768 0.013916)
(0.0632007 -0.566079 0.0116644)
(0.0594243 -0.620547 0.0104198)
(0.0536122 -0.652794 0.00552241)
(0.0511849 -0.677632 0.00390677)
(0.0468856 -0.691106 0.00100659)
(0.0439428 -0.693527 -0.00203379)
(0.0402756 -0.685757 -0.0053662)
(0.0373022 -0.67891 -0.00719698)
(0.0335067 -0.661865 -0.00928205)
(0.0295045 -0.637134 -0.0107699)
(0.0251338 -0.607648 -0.0127488)
(0.0199679 -0.574147 -0.0149071)
(0.0167684 -0.534516 -0.0168142)
(0.00475716 -0.496764 -0.0111473)
(0.00012187 -0.429082 -0.0119362)
(-0.0151973 -0.333229 -0.0103664)
(1.44481e-05 -0.221147 -0.0165345)
(-0.0349841 -0.00882536 0.0505196)
(-0.0235791 0.172135 0.0757053)
(-0.0173269 0.337892 0.0869923)
(-0.00317184 0.487967 0.0827313)
(0.0289055 0.609544 0.0590015)
(0.0533305 0.872442 0.0580438)
(0.0400733 1.09338 0.0657561)
(0.0178084 1.11174 0.0707187)
(-0.0217284 1.13195 0.0926482)
(-0.0519656 1.01816 0.0825664)
(-0.0704519 0.706451 0.0510622)
(-0.0602297 0.485175 0.0337936)
(-0.0377933 0.400488 0.0622669)
(-0.0110779 0.288661 0.0801299)
(0.0166051 0.167417 0.0938259)
(0.0184414 -0.247087 0.000153728)
(0.0294303 -0.40667 -0.0047526)
(0.0352345 -0.507562 -0.00801412)
(0.0392282 -0.571889 -0.0103973)
(0.0424999 -0.616726 -0.0128767)
(0.0485658 -0.645272 -0.0124728)
(0.0491792 -0.664662 -0.0149273)
(0.0487574 -0.675858 -0.0179543)
(0.0512709 -0.677103 -0.0221652)
(0.0507748 -0.675038 -0.025223)
(0.0539642 -0.664175 -0.0290892)
(0.056424 -0.646158 -0.0331629)
(0.0588865 -0.620383 -0.0357141)
(0.062595 -0.587585 -0.0391171)
(0.0656097 -0.554348 -0.0437971)
(0.068049 -0.517215 -0.0490472)
(0.0760481 -0.475863 -0.0598951)
(0.08086 -0.414327 -0.0687207)
(0.086857 -0.306742 -0.073182)
(0.0807598 -0.232727 -0.0706546)
(0.0791244 0.00876887 -0.0752063)
(0.0854673 0.103189 -0.0865771)
(0.094744 0.233626 -0.0881937)
(0.10951 0.348556 -0.0954091)
(0.114534 0.475089 -0.0754587)
(0.0890591 0.881123 0.00732908)
(0.0506838 1.31338 0.0438657)
(0.0238127 1.37521 0.0596255)
(-0.0102142 1.30058 0.0624148)
(-0.0337196 1.22827 0.0435327)
(-0.0641217 0.802695 0.00340166)
(-0.0762482 0.4448 -0.0388716)
(-0.0549076 0.293574 -0.0262091)
(-0.0426115 0.124529 -0.0201631)
(-0.0204039 0.0312961 -0.00969506)
(-0.0142211 -0.342259 -0.0334578)
(0.00133042 -0.458676 -0.0245403)
(0.00677338 -0.551353 -0.0249234)
(0.0159943 -0.607127 -0.0240469)
(0.0211163 -0.646839 -0.0246518)
(0.0289418 -0.669569 -0.02573)
(0.0336779 -0.683075 -0.0259604)
(0.0398721 -0.692394 -0.0283004)
(0.0448148 -0.695012 -0.0307852)
(0.0521512 -0.694093 -0.0342122)
(0.0553199 -0.69079 -0.036641)
(0.0648488 -0.677424 -0.0401001)
(0.0698445 -0.658077 -0.0431996)
(0.0792186 -0.624739 -0.0464947)
(0.0896974 -0.590869 -0.0521876)
(0.0976352 -0.555141 -0.0595498)
(0.103535 -0.499791 -0.0680086)
(0.112069 -0.419043 -0.0763928)
(0.117557 -0.30549 -0.0964802)
(0.112311 -0.186173 -0.129239)
(0.119473 0.0414495 -0.155008)
(0.120353 0.104511 -0.168316)
(0.12482 0.1988 -0.179234)
(0.114419 0.374789 -0.165205)
(0.0767282 0.754016 -0.109957)
(0.0257176 1.28825 -0.0419633)
(0.0076108 1.52194 -0.0146818)
(0.00653938 1.50535 0.00528192)
(-0.00463677 1.37219 0.0227144)
(-0.0118737 1.36472 0.00576656)
(-0.0364679 1.0101 -0.0255094)
(-0.0719842 0.441407 -0.0660602)
(-0.0576702 0.235142 -0.0653638)
(-0.0481319 0.0855851 -0.0571865)
(-0.0403572 -0.0460462 -0.051846)
(-0.0322732 -0.358358 -0.0405928)
(-0.0323992 -0.492591 -0.036056)
(-0.0199044 -0.586344 -0.0346468)
(-0.0147817 -0.641088 -0.031499)
(-0.00839778 -0.680746 -0.0307059)
(0.000923126 -0.702042 -0.031495)
(0.00754689 -0.715413 -0.0295562)
(0.0153439 -0.724906 -0.03002)
(0.0224157 -0.726786 -0.0316914)
(0.0294796 -0.724823 -0.0339598)
(0.0361318 -0.718265 -0.0356407)
(0.0443629 -0.70485 -0.0382982)
(0.0482163 -0.691616 -0.0422672)
(0.0563218 -0.668541 -0.0450557)
(0.0602809 -0.634113 -0.0512149)
(0.0702493 -0.587342 -0.0607371)
(0.0840656 -0.527404 -0.071343)
(0.0790367 -0.412353 -0.0910292)
(0.0785976 -0.272431 -0.128378)
(0.075593 -0.0983885 -0.171539)
(0.0753088 0.0517095 -0.192299)
(0.0708334 0.155197 -0.203491)
(0.0547098 0.430531 -0.2012)
(0.0164043 0.794681 -0.162032)
(-0.0205697 1.15205 -0.112113)
(-0.0309482 1.40631 -0.0717329)
(-0.0208505 1.50045 -0.0499869)
(-0.00453522 1.47261 -0.0274659)
(-0.00195772 1.37698 -0.00529331)
(0.000551555 1.44641 -0.0275895)
(-0.00751193 1.25877 -0.0458851)
(-0.0529844 0.59951 -0.0852621)
(-0.0777018 0.188405 -0.108636)
(-0.0677173 0.0610478 -0.103143)
(-0.0627826 -0.0664104 -0.0916712)
(-0.0591537 -0.363813 -0.0535772)
(-0.0579068 -0.507517 -0.0384868)
(-0.0522042 -0.606549 -0.0355014)
(-0.0431575 -0.667392 -0.0337199)
(-0.0368681 -0.710885 -0.0319308)
(-0.0291107 -0.736646 -0.0297077)
(-0.0206322 -0.749529 -0.0282749)
(-0.0148984 -0.757668 -0.0300646)
(-0.00921386 -0.758993 -0.0309148)
(-0.00439912 -0.754129 -0.0318315)
(0.00390145 -0.744816 -0.0330578)
(0.000641325 -0.732728 -0.0355346)
(0.0189663 -0.711265 -0.043998)
(0.0155936 -0.68797 -0.0469612)
(0.0244289 -0.657147 -0.0496516)
(0.0273882 -0.601925 -0.0501037)
(0.0212745 -0.497217 -0.062378)
(0.016679 -0.313541 -0.102624)
(0.00816214 -0.137747 -0.15274)
(0.00929136 -0.0183946 -0.183148)
(0.005355 0.17499 -0.192168)
(-0.0136368 0.434881 -0.186191)
(-0.0315116 0.70525 -0.16677)
(-0.048719 0.975775 -0.138598)
(-0.0501681 1.21641 -0.105931)
(-0.0398335 1.35302 -0.0838004)
(-0.0270493 1.40288 -0.0784747)
(-0.00961369 1.36616 -0.0630944)
(0.00247084 1.37552 -0.0339055)
(0.010849 1.43899 -0.047861)
(0.0196423 1.37347 -0.0639932)
(0.00389071 1.00574 -0.0940132)
(-0.0517285 0.369276 -0.130882)
(-0.0698609 0.0519171 -0.14483)
(-0.0719098 -0.0697805 -0.119463)
(-0.0676478 -0.336181 -0.0627398)
(-0.0736897 -0.51813 -0.0380529)
(-0.0636338 -0.642288 -0.0304457)
(-0.0580601 -0.700568 -0.0338082)
(-0.0513698 -0.737803 -0.0309892)
(-0.0451114 -0.772455 -0.0270479)
(-0.041117 -0.778538 -0.0285637)
(-0.0349096 -0.774358 -0.030903)
(-0.031966 -0.773419 -0.0326534)
(-0.028197 -0.767041 -0.0332177)
(-0.0262608 -0.758749 -0.0345944)
(-0.0224759 -0.741658 -0.0336735)
(-0.0277057 -0.701211 -0.0235209)
(-0.0242566 -0.668161 -0.0255191)
(-0.0270987 -0.628357 -0.0300382)
(-0.0274496 -0.558583 -0.0372257)
(-0.0304979 -0.418689 -0.0522293)
(-0.035055 -0.211372 -0.0825764)
(-0.0343212 -0.114922 -0.106798)
(-0.0336701 0.0876047 -0.142466)
(-0.0387074 0.301955 -0.150759)
(-0.0430778 0.529834 -0.146971)
(-0.0414064 0.781597 -0.131777)
(-0.0398615 1.01063 -0.114187)
(-0.034848 1.18828 -0.0952726)
(-0.0246715 1.30273 -0.0823071)
(-0.0153699 1.34863 -0.078405)
(-0.00814918 1.29081 -0.0718514)
(0.005959 1.32099 -0.0579317)
(0.0204985 1.38399 -0.0678368)
(0.0300771 1.34583 -0.0713051)
(0.0385471 1.1863 -0.0922372)
(0.0163539 0.76196 -0.125625)
(-0.0255067 0.297758 -0.153241)
(-0.0424141 0.00504865 -0.146716)
(-0.0451668 -0.276207 -0.0810282)
(-0.0506596 -0.498484 -0.0390956)
(-0.0646903 -0.664577 -0.0323484)
(-0.0432069 -0.71716 -0.0217293)
(-0.0554891 -0.755983 -0.0284541)
(-0.0441609 -0.775706 -0.0257992)
(-0.0480148 -0.787808 -0.0265881)
(-0.0452848 -0.784133 -0.0247191)
(-0.0416793 -0.772891 -0.0244001)
(-0.0392547 -0.759727 -0.0253607)
(-0.0408677 -0.741206 -0.0255465)
(-0.0407571 -0.717388 -0.0261926)
(-0.0401443 -0.69832 -0.0301788)
(-0.0399472 -0.665243 -0.0281436)
(-0.0405746 -0.618589 -0.0267195)
(-0.0407694 -0.543558 -0.0287455)
(-0.042364 -0.403567 -0.0375266)
(-0.0387317 -0.210547 -0.0557337)
(-0.0385618 -0.105384 -0.0727177)
(-0.0368797 0.137171 -0.101146)
(-0.0358069 0.349282 -0.107107)
(-0.0338539 0.546658 -0.109882)
(-0.0279454 0.770718 -0.106915)
(-0.0224987 0.996213 -0.0938293)
(-0.0156891 1.18278 -0.0773696)
(-0.0113582 1.29331 -0.0681669)
(-0.00624335 1.34205 -0.0652951)
(-0.00310556 1.27213 -0.0615412)
(0.00632071 1.25404 -0.0674472)
(0.0166725 1.32856 -0.0708898)
(0.0244667 1.29749 -0.0733534)
(0.0351293 1.18112 -0.084916)
(0.0348453 0.915384 -0.107555)
(0.0219097 0.529559 -0.13835)
(0.00106697 0.164443 -0.143098)
(-0.00742356 -0.129797 -0.0874531)
(-0.0146877 -0.392356 -0.0253031)
(-0.0152667 -0.61899 -0.00941183)
(-0.0279123 -0.718515 -0.0142926)
(-0.0194606 -0.742382 -0.0113597)
(-0.0288868 -0.753644 -0.00888782)
(-0.0256683 -0.76536 -0.0100694)
(-0.0279313 -0.779799 -0.0161816)
(-0.0299641 -0.780933 -0.0197878)
(-0.0308181 -0.766197 -0.0219818)
(-0.0281758 -0.741258 -0.0238633)
(-0.0297632 -0.716511 -0.0246204)
(-0.030478 -0.682188 -0.0231447)
(-0.0320903 -0.646719 -0.0239002)
(-0.0327678 -0.599948 -0.024181)
(-0.0336273 -0.525928 -0.0257121)
(-0.0336618 -0.394179 -0.0322871)
(-0.0316053 -0.208875 -0.0468016)
(-0.0301867 -0.0833726 -0.0563111)
(-0.0284004 0.147678 -0.0752865)
(-0.0239459 0.348397 -0.0817457)
(-0.0190901 0.552845 -0.0809347)
(-0.0160489 0.774236 -0.081768)
(-0.0127167 0.997942 -0.0738775)
(-0.00934664 1.18288 -0.0629895)
(-0.00576632 1.29592 -0.0557896)
(-0.0027808 1.34298 -0.0535214)
(-1.10219e-05 1.274 -0.0502394)
(0.00346184 1.21946 -0.0579995)
(0.00757923 1.31374 -0.0574844)
(0.0117245 1.2789 -0.060112)
(0.0167772 1.16206 -0.071933)
(0.024126 0.917437 -0.0919584)
(0.0233493 0.614298 -0.107697)
(0.0168094 0.282528 -0.115957)
(0.013398 -0.0940011 -0.0476611)
(0.0106773 -0.362927 -0.013719)
(0.0109932 -0.583987 0.00170553)
(0.00514029 -0.675171 0.00682677)
(0.00149328 -0.720939 0.00611823)
(0.000785826 -0.748662 0.000131988)
(-0.00127635 -0.753504 -0.00191736)
(-0.00366098 -0.758684 -0.00130495)
(-0.00709121 -0.755957 -0.0029559)
(-0.00869833 -0.7409 -0.00627626)
(-0.0109924 -0.718817 -0.0100675)
(-0.0132889 -0.696295 -0.014571)
(-0.0153388 -0.67137 -0.0181261)
(-0.0168069 -0.637609 -0.0200932)
(-0.0179694 -0.59382 -0.0214091)
(-0.0186329 -0.523233 -0.0229316)
(-0.018269 -0.396733 -0.0279941)
(-0.0203 -0.217788 -0.0426624)