/*--------------------------------*- C++ -*----------------------------------*\
  =========                 |
  \\      /  F ield         | OpenFOAM: The Open Source CFD Toolbox
   \\    /   O peration     | Website:  https://openfoam.org
    \\  /    A nd           | Version:  13
     \\/     M anipulation  |
\*---------------------------------------------------------------------------*/
FoamFile
{
    format      ascii;
    class       volScalarField;
    location    "4";
    object      k;
}
// * * * * * * * * * * * * * * * * * * * * * * * * * * * * * * * * * * * * * //

dimensions      [0 2 -2 0 0 0 0];

internalField   nonuniform List<scalar> 
78750
(
5.13655e-07
1.04062e-05
5.20886e-05
8.49162e-05
0.000103922
0.00011775
0.000125051
0.000123325
0.000112104
9.91198e-05
8.60246e-05
7.37186e-05
6.28054e-05
5.34493e-05
4.56549e-05
3.93552e-05
3.46243e-05
3.13339e-05
2.90784e-05
2.75021e-05
2.64668e-05
2.58178e-05
2.56649e-05
2.55518e-05
2.57452e-05
2.57223e-05
2.5505e-05
2.52761e-05
2.50016e-05
2.45321e-05
2.47848e-05
2.68586e-05
2.73015e-05
1.6986e-05
1.06065e-06
7.53129e-07
2.15893e-05
0.000102198
0.000133654
0.000145168
0.000146266
0.000148922
0.000143598
0.000140267
0.000138527
0.000137698
0.000137431
0.000137661
0.000138461
0.000139723
0.000141264
0.000142783
0.000144071
0.000145033
0.00014561
0.000146046
0.000146465
0.000146644
0.000146388
0.000145328
0.000143651
0.000141758
0.000140714
0.000141243
0.000144218
0.000137174
0.000138147
0.000124327
4.71412e-05
2.18081e-06
9.36213e-07
2.69597e-05
0.000112515
0.000159564
0.000156448
0.000154365
0.000157638
0.000151576
0.000146892
0.00014404
0.00014263
0.000142301
0.000142601
0.0001433
0.000144129
0.000144868
0.000145403
0.00014596
0.000145989
0.000146426
0.000146895
0.000147231
0.000147161
0.000146658
0.000146055
0.000145837
0.000146029
0.000148334
0.000152724
0.000162302
0.000182202
0.000180834
0.000154684
4.61092e-05
1.95792e-06
9.53055e-07
2.75234e-05
0.000113892
0.000162348
0.000164927
0.000162758
0.000155853
0.00014916
0.000146678
0.000145635
0.000144836
0.000144748
0.000145286
0.000146323
0.000148162
0.000150304
0.000152407
0.000154233
0.000155627
0.0001565
0.000156825
0.000156391
0.000155088
0.000153274
0.000151162
0.000149034
0.000147139
0.000145584
0.000144731
0.000146077
0.000149558
0.000152954
0.000154615
4.50506e-05
1.75278e-06
9.73939e-07
2.80996e-05
0.000115906
0.00016537
0.000181991
0.000179321
0.000167211
0.000152408
0.00014889
0.000146578
0.000145852
0.000146246
0.000147479
0.000149606
0.00015208
0.000154516
0.000156641
0.000158268
0.00015928
0.000159628
0.000159166
0.000157836
0.000155972
0.000153738
0.000151391
0.00014929
0.000147795
0.000147066
0.000146902
0.000147555
0.000147497
0.000147566
0.000141771
4.08397e-05
1.55562e-06
9.99213e-07
2.87549e-05
0.000115393
0.000153612
0.000146402
0.000146887
0.000157419
0.000153327
0.000149475
0.000147227
0.000146441
0.000146871
0.000148584
0.00015093
0.000153464
0.000155854
0.000157852
0.000159288
0.000160069
0.000159984
0.000158951
0.000157276
0.000155095
0.00015261
0.000150096
0.000147883
0.000146271
0.000145264
0.000145367
0.000148695
0.000152883
0.000152705
0.000132248
3.69201e-05
1.38636e-06
1.01186e-06
2.89486e-05
0.000114568
0.00014184
0.000146931
0.000146854
0.000146394
0.000150095
0.000147838
0.000146324
0.000146245
0.000147225
0.000149248
0.000151733
0.000154278
0.000156586
0.000158429
0.000159654
0.000160181
0.000159793
0.000158536
0.000156672
0.000154369
0.000151868
0.000149485
0.000147566
0.00014634
0.000145687
0.000145649
0.000148372
0.000154563
0.000153195
0.000139219
3.49875e-05
1.29621e-06
1.03863e-06
2.97045e-05
0.000115975
0.000142908
0.000148386
0.000149031
0.000147674
0.000146453
0.000147248
0.000146413
0.000146329
0.000147682
0.000149856
0.000152376
0.000154876
0.000157077
0.000158763
0.00015979
0.000160085
0.000159516
0.000158122
0.000156093
0.000153656
0.000151113
0.000148821
0.00014719
0.00014653
0.000146822
0.000148753
0.00015262
0.0001561
0.000154137
0.000136629
3.29626e-05
1.22179e-06
1.05375e-06
3.02157e-05
0.000117969
0.000148198
0.000150695
0.000150839
0.000148918
0.000147243
0.000146375
0.000146526
0.000146687
0.000148113
0.000150315
0.000152837
0.000155308
0.000157443
0.000159034
0.000159939
0.000160084
0.000159436
0.000157945
0.000155829
0.000153335
0.000150738
0.000148343
0.000146456
0.000145222
0.000144416
0.000144188
0.000146106
0.000151154
0.000152506
0.000143771
3.3236e-05
1.23299e-06
1.07807e-06
3.09638e-05
0.00012093
0.000162816
0.000157383
0.000153711
0.000150811
0.000148092
0.000146742
0.000146321
0.000146941
0.000148552
0.000150813
0.000153335
0.000155767
0.000157837
0.000159343
0.000160149
0.000160189
0.000159439
0.000157896
0.000155758
0.000153265
0.000150757
0.000148595
0.000147228
0.000147037
0.000148503
0.000155706
0.000183169
0.000158673
0.000151196
0.000142292
3.26867e-05
1.20494e-06
1.08179e-06
3.0976e-05
0.000119282
0.000145654
0.000161865
0.000161578
0.000154278
0.000149284
0.000147167
0.000146564
0.000147172
0.000148842
0.000151162
0.000153718
0.000156155
0.000158202
0.000159668
0.00016043
0.00016041
0.00015959
0.000158006
0.000155825
0.000153363
0.000151002
0.000149246
0.000148862
0.00015043
0.000154388
0.000161996
0.000168053
0.000157685
0.000152375
0.000149247
3.29076e-05
1.19621e-06
1.09283e-06
3.13021e-05
0.000120627
0.000151144
0.000164354
0.000162744
0.000153694
0.000148504
0.00014686
0.000147052
0.000147446
0.00014916
0.000151577
0.000154216
0.000156704
0.000158766
0.000160198
0.00016087
0.000160716
0.000159762
0.00015806
0.000155792
0.000153301
0.000150914
0.000149171
0.00014884
0.000150499
0.000154602
0.000162555
0.00016754
0.000159211
0.00015313
0.000148901
3.3046e-05
1.2107e-06
1.09365e-06
3.14335e-05
0.000121708
0.000155792
0.000166144
0.000160611
0.000151251
0.000148976
0.000147704
0.000147146
0.000147852
0.000149693
0.000152163
0.000154788
0.000157217
0.000159186
0.000160508
0.000161075
0.000160834
0.000159797
0.000158028
0.000155741
0.000153203
0.000150742
0.000148805
0.000147836
0.000148066
0.000149486
0.000152322
0.000157267
0.0001566
0.000152772
0.000149613
3.33707e-05
1.21756e-06
1.08856e-06
3.12831e-05
0.00012219
0.000169035
0.000184045
0.000174439
0.000154156
0.000148454
0.000146767
0.000146664
0.00014771
0.000149731
0.000152268
0.000154905
0.000157322
0.000159269
0.000160569
0.00016112
0.000160859
0.000159793
0.000158009
0.000155685
0.000153052
0.00015047
0.000148533
0.000148172
0.000151378
0.000160075
0.000174941
0.000154773
0.000151821
0.00015019
0.000145329
3.24751e-05
1.18153e-06
1.08315e-06
3.10132e-05
0.000120036
0.000157889
0.000167891
0.000153265
0.000152839
0.000149884
0.000148017
0.000147277
0.000147963
0.000149787
0.000152221
0.000154815
0.000157215
0.000159157
0.000160453
0.000160987
0.000160699
0.000159604
0.000157814
0.000155498
0.000152916
0.000150447
0.00014868
0.000148638
0.000152474
0.000163024
0.000186787
0.000197385
0.000161872
0.000151462
0.000144035
3.23314e-05
1.18002e-06
1.08148e-06
3.08673e-05
0.00011772
0.000142313
0.000145102
0.000148636
0.000159504
0.000154638
0.000150291
0.000147843
0.000148329
0.000150204
0.000152675
0.000155288
0.000157717
0.000159698
0.000161004
0.000161505
0.000161166
0.000160011
0.000158152
0.000155746
0.000153029
0.000150312
0.000147986
0.000146577
0.000146731
0.000144988
0.000145399
0.000150547
0.000153689
0.000157754
0.000146621
3.24723e-05
1.18477e-06
1.08342e-06
3.08846e-05
0.000117395
0.000146547
0.000148401
0.000146632
0.000145974
0.000145814
0.000145851
0.000146557
0.000148072
0.000150268
0.000152832
0.000155467
0.000157895
0.000159872
0.000161158
0.00016163
0.000161264
0.000160083
0.0001582
0.000155792
0.000153112
0.000150508
0.000148411
0.000147121
0.000146593
0.000146287
0.000145598
0.00014577
0.000152341
0.000161561
0.000152501
3.33596e-05
1.20505e-06
1.08161e-06
3.08177e-05
0.000117286
0.000145053
0.000148815
0.000148762
0.000149379
0.000153041
0.000150109
0.000147909
0.000148503
0.00015047
0.000153012
0.000155643
0.000158018
0.000159891
0.000161062
0.000161458
0.000161041
0.000159834
0.000157953
0.00015558
0.000152975
0.000150553
0.000148762
0.000148017
0.000148445
0.000149868
0.000152254
0.000154667
0.000156065
0.000158867
0.000136431
3.24238e-05
1.18774e-06
1.07354e-06
3.04607e-05
0.00011512
0.000139765
0.000152364
0.000161595
0.000158953
0.000152671
0.000149004
0.000148026
0.000148742
0.00015063
0.000153113
0.000155708
0.000158052
0.000159895
0.000161062
0.000161455
0.000161035
0.000159827
0.000157946
0.000155574
0.000152983
0.000150559
0.000148779
0.000148142
0.000148876
0.000151003
0.000154931
0.000159362
0.00016124
0.000160541
0.00014037
3.21683e-05
1.18086e-06
1.08295e-06
3.07529e-05
0.000115192
0.000139436
0.000149751
0.000157436
0.000157173
0.000152255
0.000149383
0.00014822
0.00014875
0.000150514
0.0001529
0.000155424
0.000157738
0.000159568
0.000160731
0.000161116
0.000160684
0.000159467
0.000157584
0.000155231
0.000152682
0.000150325
0.000148714
0.000148536
0.000150185
0.000153556
0.000158024
0.000156275
0.000156639
0.000154239
0.000143954
3.20049e-05
1.17538e-06
1.09295e-06
3.10717e-05
0.000116818
0.000138163
0.000146323
0.000150864
0.000162302
0.000156409
0.000151317
0.000148446
0.000148714
0.000150482
0.000152896
0.000155455
0.000157806
0.000159697
0.000160954
0.000161426
0.000161047
0.000159863
0.000157993
0.000155621
0.000153038
0.000150579
0.000148714
0.000147899
0.000148256
0.000149865
0.00015332
0.000157323
0.000158045
0.000153167
0.000134385
3.16539e-05
1.1667e-06
1.09529e-06
3.11595e-05
0.000116779
0.000142416
0.000150383
0.000150946
0.000148045
0.000146399
0.000146255
0.000146927
0.000148383
0.000150526
0.000153034
0.0001556
0.000157943
0.000159818
0.000161067
0.000161515
0.000161108
0.000159899
0.000158006
0.00015561
0.000152958
0.000150356
0.000148182
0.00014675
0.000146139
0.000146339
0.000148824
0.000155689
0.00015978
0.000155866
0.000145372
3.24241e-05
1.1804e-06
1.10625e-06
3.15463e-05
0.000119628
0.00014713
0.000153979
0.00015188
0.000149145
0.000147644
0.000147193
0.000147512
0.000148783
0.000150855
0.000153369
0.000155922
0.000158189
0.000159927
0.000161007
0.000161327
0.000160856
0.000159629
0.000157757
0.00015539
0.000152748
0.000150148
0.000147912
0.000146281
0.000145313
0.000144707
0.000144849
0.000150012
0.000157562
0.000155464
0.000140463
3.22361e-05
1.18023e-06
1.10802e-06
3.15248e-05
0.000119028
0.000147743
0.000154806
0.000149397
0.000147264
0.000146913
0.00014836
0.000147549
0.000148706
0.00015087
0.00015346
0.00015606
0.000158366
0.000160154
0.000161288
0.000161643
0.000161156
0.000159901
0.000157987
0.000155555
0.000152909
0.000150467
0.000148725
0.000148687
0.000152441
0.000161926
0.000177559
0.000153388
0.000152342
0.000152201
0.000137217
3.13284e-05
1.15178e-06
1.09639e-06
3.12286e-05
0.000118504
0.000148959
0.000151191
0.000147554
0.000148898
0.000153048
0.000150391
0.000148307
0.000148939
0.000150877
0.000153381
0.000155963
0.000158282
0.000160089
0.000161249
0.000161617
0.000161166
0.000159917
0.000157983
0.000155562
0.000152943
0.000150514
0.000148875
0.000149053
0.000153314
0.00016487
0.000190761
0.000198327
0.000162497
0.000153422
0.000139302
3.16592e-05
1.15284e-06
1.1e-06
3.13755e-05
0.000119386
0.000159897
0.000171712
0.0001551
0.000153072
0.000149736
0.000147831
0.000147833
0.000149079
0.000151194
0.000153707
0.000156235
0.000158473
0.000160184
0.000161185
0.00016141
0.000160842
0.00015948
0.000157483
0.000155042
0.000152441
0.000150085
0.00014853
0.000148438
0.000150204
0.000153741
0.000158348
0.000157401
0.000154085
0.000150883
0.000129438
3.11524e-05
1.15476e-06
1.09513e-06
3.11991e-05
0.000117382
0.000144361
0.00014938
0.000153734
0.000162518
0.000155342
0.000148985
0.000148133
0.000149223
0.000151278
0.000153762
0.000156272
0.000158498
0.000160201
0.000161202
0.00016146
0.000160921
0.000159604
0.000157612
0.000155177
0.000152606
0.00015025
0.000148632
0.000148422
0.000149993
0.000153013
0.000155571
0.000150102
0.00014921
0.000149324
0.000128485
3.06919e-05
1.13624e-06
1.09673e-06
3.12431e-05
0.000118513
0.00015709
0.000156854
0.00017474
0.000168901
0.000158586
0.000152346
0.00014929
0.000149536
0.000151259
0.00015361
0.000156069
0.00015829
0.00016003
0.000161131
0.000161481
0.000160998
0.000159734
0.000157808
0.000155417
0.000152853
0.000150532
0.000149082
0.000149329
0.000151923
0.000157654
0.000168402
0.000174319
0.000169195
0.000154841
0.00012962
3.09315e-05
1.14847e-06
1.09107e-06
3.094e-05
0.000115975
0.00014006
0.000145564
0.000143761
0.000144895
0.000150331
0.000147364
0.000147572
0.000149006
0.000151152
0.000153637
0.00015612
0.00015832
0.000160022
0.000161075
0.000161369
0.000160878
0.000159641
0.000157756
0.000155357
0.000152665
0.000150053
0.000147902
0.000146559
0.000146282
0.000147447
0.000152818
0.00016532
0.000170449
0.000159185
0.000143801
3.19388e-05
1.171e-06
1.09822e-06
3.12096e-05
0.000117092
0.000142462
0.000148363
0.000147966
0.000146273
0.00014558
0.000146294
0.0001475
0.00014926
0.000151495
0.000153994
0.000156455
0.000158614
0.000160267
0.000161261
0.000161501
0.000160951
0.000159647
0.000157707
0.000155317
0.000152702
0.000150201
0.000148221
0.000147094
0.000146919
0.000147677
0.000150765
0.000159054
0.000166202
0.000160509
0.000151317
3.31692e-05
1.18691e-06
1.10944e-06
3.17031e-05
0.000119458
0.000148911
0.000149463
0.000149934
0.000147853
0.000146531
0.000146853
0.000147854
0.000149508
0.000151737
0.000154303
0.000156827
0.000159034
0.000160695
0.000161663
0.000161841
0.00016124
0.000159871
0.000157861
0.000155383
0.000152742
0.000150308
0.000148568
0.000148323
0.000151059
0.000156042
0.000150453
0.000152583
0.000159418
0.000156451
0.000138629
3.23426e-05
1.18662e-06
1.11607e-06
3.18266e-05
0.000120456
0.000159823
0.000152012
0.000149956
0.000147923
0.000146612
0.000146849
0.000147836
0.000149511
0.000151763
0.000154326
0.000156843
0.000159039
0.000160698
0.000161668
0.000161859
0.000161249
0.000159883
0.000157865
0.000155364
0.000152691
0.000150228
0.000148519
0.00014856
0.000152453
0.000162537
0.000180636
0.000158878
0.000155294
0.000154452
0.000140664
3.14531e-05
1.14949e-06
1.11232e-06
3.15654e-05
0.000117851
0.000140243
0.000148165
0.000149373
0.000147468
0.000146505
0.000146808
0.000147782
0.000149403
0.000151556
0.000154017
0.000156475
0.00015864
0.000160289
0.000161268
0.000161487
0.000160925
0.000159631
0.000157718
0.000155327
0.000152757
0.000150416
0.000148737
0.000148133
0.000148741
0.000150521
0.000153676
0.00015631
0.000155976
0.000153067
0.000144488
3.14842e-05
1.14209e-06
1.11682e-06
3.17601e-05
0.000118904
0.000145034
0.000149258
0.00014867
0.000147161
0.000146213
0.000146541
0.000147631
0.000149396
0.000151675
0.000154185
0.000156632
0.000158773
0.000160399
0.000161368
0.000161588
0.000161034
0.000159732
0.000157773
0.00015534
0.0001527
0.000150184
0.000148152
0.000146894
0.00014647
0.000146852
0.000149339
0.000155127
0.000158204
0.000153371
0.000131519
3.13295e-05
1.16433e-06
1.10928e-06
3.15775e-05
0.000118199
0.000146325
0.000151668
0.000153786
0.000150807
0.000148072
0.000147533
0.00014822
0.000149776
0.000151962
0.000154473
0.000156982
0.000159137
0.000160738
0.000161637
0.000161782
0.000161134
0.000159738
0.000157744
0.000155296
0.000152636
0.000150074
0.000147928
0.000146478
0.000145739
0.000145528
0.000146935
0.000152283
0.000157238
0.000155514
0.00013693
3.13986e-05
1.15885e-06
1.11082e-06
3.164e-05
0.000119443
0.000151904
0.000152532
0.000155575
0.000153238
0.000149237
0.000147969
0.000148346
0.000149849
0.000152039
0.000154545
0.000157012
0.000159155
0.000160758
0.000161674
0.000161816
0.000161166
0.000159783
0.000157775
0.000155326
0.000152702
0.000150253
0.000148401
0.000147511
0.000147634
0.000148461
0.000149488
0.000151137
0.000155643
0.000155575
0.000142734
3.1277e-05
1.14169e-06
1.12046e-06
3.20023e-05
0.000121158
0.000164087
0.000156906
0.000160905
0.000158252
0.000152996
0.000149806
0.000149165
0.000150095
0.000152013
0.000154405
0.000156827
0.00015895
0.000160543
0.000161457
0.000161604
0.000160961
0.000159583
0.000157591
0.000155164
0.000152575
0.0001502
0.0001485
0.000147897
0.000148527
0.000150363
0.000153636
0.000156552
0.000157337
0.000155753
0.000134411
3.11734e-05
1.14797e-06
1.11137e-06
3.17288e-05
0.000119304
0.000156627
0.000153803
0.000159896
0.000157548
0.000152643
0.00014978
0.000149375
0.000150496
0.000152512
0.000154933
0.000157353
0.000159461
0.000161033
0.000161928
0.000162045
0.000161367
0.000159954
0.000157927
0.000155456
0.000152809
0.000150245
0.00014815
0.000146881
0.000146525
0.00014689
0.000147879
0.000149707
0.000153225
0.000153235
0.000141149
3.158e-05
1.15808e-06
1.11905e-06
3.18696e-05
0.000119195
0.000144388
0.000151214
0.000157779
0.000156887
0.000151932
0.000149222
0.000149124
0.000150405
0.0001525
0.000154965
0.0001574
0.000159509
0.000161077
0.000161959
0.000162071
0.000161397
0.000159993
0.000157975
0.00015553
0.000152932
0.000150604
0.000149125
0.000149188
0.000151483
0.000157332
0.000166756
0.000169135
0.000159302
0.000154266
0.000144793
3.21246e-05
1.17149e-06
1.12687e-06
3.21403e-05
0.000120203
0.000149462
0.00015043
0.000152523
0.000162876
0.000155991
0.000149495
0.000148808
0.000150073
0.000152207
0.000154679
0.000157119
0.000159229
0.000160789
0.000161662
0.000161765
0.000161087
0.000159687
0.000157681
0.000155263
0.0001527
0.000150373
0.000148719
0.000148167
0.000148899
0.000150948
0.000154973
0.000161119
0.000159219
0.00015358
0.000141572
3.14904e-05
1.14928e-06
1.12572e-06
3.20693e-05
0.000120986
0.000159492
0.00015804
0.000156508
0.000150948
0.000148232
0.000148003
0.000148761
0.000150304
0.00015243
0.000154878
0.000157269
0.000159325
0.000160841
0.000161693
0.00016178
0.000161088
0.000159669
0.000157637
0.000155171
0.000152524
0.000150049
0.000148208
0.000147743
0.000150119
0.000154806
0.000148777
0.000150233
0.000152062
0.000150238
0.000139441
3.08074e-05
1.12544e-06
1.12859e-06
3.20347e-05
0.000118651
0.000144181
0.00015473
0.00015664
0.0001526
0.000149388
0.000148618
0.00014908
0.000150427
0.000152465
0.00015487
0.000157249
0.000159315
0.000160852
0.000161713
0.000161807
0.00016112
0.000159707
0.000157678
0.00015521
0.000152564
0.000150085
0.000148223
0.000147533
0.000148855
0.000155254
0.000148977
0.000148481
0.000152294
0.000152828
0.000146217
3.164e-05
1.14497e-06
1.12629e-06
3.21134e-05
0.000120688
0.000150073
0.000157581
0.000159455
0.000155397
0.000151255
0.000149414
0.000149293
0.000150357
0.00015221
0.000154489
0.000156799
0.000158832
0.000160361
0.000161233
0.000161358
0.000160723
0.000159379
0.000157434
0.000155062
0.000152499
0.000150109
0.000148533
0.000148816
0.000153132
0.00016389
0.000182185
0.000159283
0.000154497
0.00015247
0.000132965
3.18165e-05
1.17633e-06
1.12931e-06
3.23062e-05
0.000122579
0.000165112
0.000159916
0.000162398
0.000157061
0.000151738
0.000149136
0.000149061
0.000150313
0.000152321
0.000154686
0.000157034
0.000159067
0.000160578
0.000161437
0.000161554
0.000160892
0.000159526
0.000157553
0.00015517
0.000152646
0.000150356
0.00014888
0.000148895
0.000150742
0.000154261
0.000157844
0.000153414
0.000153929
0.000154071
0.000139509
3.15953e-05
1.16252e-06
1.12544e-06
3.22119e-05
0.000121637
0.000165456
0.000180837
0.000184295
0.000171615
0.000158039
0.000150009
0.000149081
0.000150334
0.000152509
0.000155012
0.000157422
0.000159469
0.000160963
0.000161758
0.000161797
0.000161081
0.000159662
0.000157654
0.000155236
0.000152714
0.000150519
0.000149253
0.000149722
0.000152548
0.000158447
0.000168539
0.000171499
0.000161495
0.000154002
0.00014042
3.08443e-05
1.1343e-06
1.12002e-06
3.19537e-05
0.00011918
0.000149197
0.000152764
0.000168066
0.000164232
0.000155794
0.000149514
0.000149014
0.000150368
0.000152538
0.000155025
0.000157427
0.000159475
0.000160971
0.000161775
0.000161815
0.000161086
0.000159651
0.000157625
0.000155189
0.000152586
0.00015012
0.00014815
0.000146974
0.00014664
0.000147202
0.000150569
0.000158306
0.000160243
0.000157276
0.000136979
3.13079e-05
1.14863e-06
1.12329e-06
3.19702e-05
0.000119676
0.000156974
0.000150664
0.000148585
0.000146777
0.000146105
0.000146862
0.000148205
0.000150064
0.000152319
0.00015479
0.000157191
0.000159264
0.000160761
0.000161543
0.00016157
0.000160847
0.000159425
0.000157401
0.00015496
0.000152363
0.000149919
0.000147925
0.000146644
0.000146135
0.000146223
0.000147882
0.000154794
0.000161852
0.000161392
0.000140883
3.16476e-05
1.16734e-06
1.12523e-06
3.19703e-05
0.000118714
0.000146698
0.000151359
0.000157222
0.0001543
0.00015012
0.000148811
0.000149215
0.000150683
0.000152793
0.000155203
0.000157558
0.000159574
0.000161054
0.000161878
0.00016192
0.000161172
0.000159728
0.000157667
0.000155206
0.000152543
0.000150039
0.000148235
0.000147935
0.000150651
0.000155797
0.00014985
0.000152549
0.0001598
0.000157286
0.000131164
3.11243e-05
1.15632e-06
1.12791e-06
3.21834e-05
0.000121204
0.000162948
0.000156686
0.00016247
0.000158066
0.000152585
0.000149799
0.00014964
0.000150862
0.000152871
0.000155214
0.000157514
0.000159521
0.000161037
0.000161875
0.000161927
0.000161195
0.000159745
0.000157685
0.000155214
0.000152626
0.000150316
0.000148788
0.000148581
0.000150228
0.000154348
0.000158623
0.000154552
0.000156197
0.000155754
0.000130705
3.10292e-05
1.14507e-06
1.12531e-06
3.19677e-05
0.000118638
0.000142724
0.000152645
0.000170502
0.000165256
0.000156132
0.000149787
0.00014931
0.000150615
0.000152711
0.00015513
0.000157461
0.000159414
0.000160815
0.000161546
0.000161561
0.00016083
0.000159412
0.00015743
0.000155099
0.000152626
0.000150425
0.000149113
0.000149447
0.000152129
0.000158585
0.000168801
0.000172182
0.000161082
0.000155544
0.000131206
3.10556e-05
1.15073e-06
1.12775e-06
3.20814e-05
0.000118861
0.000145506
0.000148698
0.000147551
0.000146151
0.000146162
0.000147243
0.000148699
0.000150543
0.000152684
0.000155028
0.000157334
0.000159337
0.000160835
0.000161687
0.000161765
0.000161023
0.000159552
0.000157496
0.000155062
0.000152543
0.000150352
0.000149099
0.000149622
0.000152498
0.000158628
0.000169619
0.000174671
0.000164642
0.000157179
0.000141143
3.16948e-05
1.15815e-06
1.134e-06
3.22434e-05
0.000119838
0.000150203
0.00014878
0.000148132
0.000147001
0.00014636
0.000147291
0.00014875
0.000150651
0.000152883
0.000155285
0.000157594
0.000159561
0.000161006
0.000161783
0.000161796
0.000161029
0.00015955
0.000157479
0.000154997
0.000152348
0.000149833
0.000147773
0.000146432
0.000145848
0.000146003
0.000148977
0.000156495
0.000158483
0.000155091
0.000142445
3.12895e-05
1.13983e-06
1.14494e-06
3.2626e-05
0.000121851
0.000163504
0.000153814
0.000156462
0.000162765
0.000155417
0.000149611
0.000149378
0.00015083
0.000152983
0.000155383
0.000157678
0.000159624
0.000161014
0.000161676
0.000161596
0.000160805
0.000159333
0.000157278
0.000154845
0.000152282
0.00014984
0.000147805
0.000146446
0.000145706
0.000145298
0.000145818
0.000149616
0.000154676
0.000152632
0.000140631
3.0929e-05
1.12636e-06
1.1446e-06
3.2503e-05
0.000120379
0.000158216
0.000158794
0.000178383
0.000169867
0.00015787
0.000150547
0.000149773
0.000151002
0.000153031
0.000155377
0.000157662
0.000159612
0.000161031
0.000161776
0.000161775
0.000161007
0.00015958
0.000157592
0.000155181
0.000152663
0.000150356
0.000148909
0.00014941
0.000154236
0.000165859
0.000185423
0.000160038
0.000156821
0.000155553
0.000146456
3.16954e-05
1.14652e-06
1.13992e-06
3.24036e-05
0.000119692
0.000144824
0.000153039
0.000168955
0.000164942
0.000156076
0.000149981
0.000149572
0.000150892
0.000152939
0.000155299
0.000157604
0.000159587
0.000161039
0.000161786
0.000161779
0.00016103
0.0001596
0.000157603
0.000155211
0.000152682
0.000150396
0.000148934
0.000149464
0.000154472
0.000166591
0.000187036
0.000161477
0.000158072
0.000155992
0.000141348
3.19354e-05
1.1592e-06
1.14343e-06
3.23808e-05
0.000119092
0.000146654
0.000149877
0.000148574
0.000158528
0.00015404
0.000149366
0.000149352
0.000150805
0.00015289
0.000155251
0.000157538
0.000159484
0.00016093
0.000161658
0.000161579
0.000160753
0.000159279
0.00015729
0.000154938
0.000152476
0.000150308
0.000149098
0.000150026
0.000155655
0.000168328
0.00018959
0.000162673
0.000157148
0.000155065
0.000131266
3.08829e-05
1.14024e-06
1.13737e-06
3.23321e-05
0.000119348
0.00014622
0.000149442
0.0001481
0.000148449
0.00014687
0.000147254
0.000148609
0.000150521
0.000152802
0.00015525
0.000157574
0.000159538
0.000160958
0.000161679
0.000161635
0.000160881
0.000159471
0.000157492
0.000155114
0.000152565
0.00015019
0.000148382
0.00014736
0.000147052
0.000147224
0.000148651
0.000152471
0.000155269
0.000155323
0.000141153
3.15873e-05
1.17255e-06
1.12996e-06
3.22131e-05
0.000119761
0.000153317
0.000150893
0.00015204
0.000162098
0.000155223
0.000149749
0.000149439
0.000150714
0.000152703
0.000155
0.000157255
0.000159207
0.000160663
0.000161487
0.000161577
0.000160868
0.000159437
0.00015745
0.000155021
0.000152494
0.000150248
0.000148722
0.000148344
0.000149216
0.000151351
0.000155075
0.000158195
0.000158407
0.000156205
0.000144542
3.19822e-05
1.16187e-06
1.13692e-06
3.23147e-05
0.000120371
0.000162399
0.000152257
0.000149435
0.000145932
0.000145912
0.000147128
0.000148708
0.000150632
0.000152812
0.000155145
0.000157381
0.000159296
0.000160716
0.000161514
0.000161593
0.000160895
0.00015947
0.000157444
0.000154994
0.000152354
0.000149848
0.000147893
0.000146924
0.000147132
0.000148261
0.000146953
0.000150694
0.000155139
0.000154087
0.000145023
3.18772e-05
1.15705e-06
1.13455e-06
3.23913e-05
0.000120174
0.000157024
0.000151107
0.000149962
0.000147251
0.000146474
0.00014736
0.000148823
0.000150788
0.000153034
0.000155388
0.000157614
0.000159496
0.000160849
0.000161528
0.000161481
0.000160705
0.000159255
0.000157274
0.000154906
0.000152382
0.00015013
0.000148855
0.000149857
0.000154426
0.000166337
0.000186614
0.000161383
0.000156807
0.000157022
0.000152197
3.35147e-05
1.20711e-06
1.13713e-06
3.24189e-05
0.000121184
0.000162343
0.000151963
0.000149021
0.000146611
0.000146179
0.000147277
0.000148863
0.000150887
0.000153199
0.000155631
0.000157913
0.000159831
0.000161208
0.000161893
0.000161835
0.000161037
0.000159557
0.000157509
0.000155099
0.000152618
0.000150401
0.000148772
0.000148089
0.000148503
0.000150219
0.000154425
0.00015789
0.000157328
0.000154969
0.000135721
3.18647e-05
1.17244e-06
1.13224e-06
3.22358e-05
0.000119394
0.000159203
0.000151174
0.000149296
0.000146218
0.000145731
0.000146944
0.000148645
0.000150761
0.000153141
0.000155603
0.000157871
0.000159763
0.000161127
0.000161801
0.000161735
0.000160932
0.00015945
0.000157418
0.000155035
0.000152554
0.000150297
0.000148613
0.000147739
0.000147548
0.000147905
0.000149786
0.000153903
0.000156398
0.00015537
0.000139833
3.1056e-05
1.13544e-06
1.13528e-06
3.22394e-05
0.000117947
0.000140823
0.000148383
0.000148526
0.000147216
0.000146591
0.000147424
0.000148891
0.000150891
0.000153183
0.000155591
0.000157837
0.00015972
0.000161082
0.000161759
0.000161698
0.000160902
0.000159426
0.000157401
0.000155022
0.000152541
0.000150259
0.000148521
0.000147646
0.00014768
0.000148633
0.000151721
0.00015784
0.000163444
0.000162487
0.000148424
3.25226e-05
1.1819e-06
1.1606e-06
3.29905e-05
0.000120126
0.000147799
0.000155042
0.000157842
0.000154501
0.000150471
0.000149385
0.000149831
0.000151277
0.000153321
0.000155632
0.000157862
0.000159749
0.000161103
0.000161766
0.000161686
0.000160861
0.00015933
0.00015723
0.000154775
0.000152204
0.000149893
0.000148387
0.000148676
0.000152736
0.000159622
0.000153002
0.000157589
0.000164308
0.000161678
0.00013543
3.14379e-05
1.16017e-06
1.15646e-06
3.28395e-05
0.00011959
0.000147788
0.000153987
0.000158951
0.000157177
0.000152063
0.000150056
0.000150053
0.000151251
0.000153134
0.000155345
0.000157507
0.000159349
0.000160673
0.000161324
0.000161258
0.000160486
0.000159079
0.000157144
0.000154816
0.00015237
0.000150238
0.000149173
0.000150661
0.000156423
0.000170295
0.000190898
0.000164604
0.000163337
0.000162614
0.000145877
3.19793e-05
1.16066e-06
1.15501e-06
3.28016e-05
0.000120397
0.000151595
0.0001505
0.000151197
0.000159409
0.000149671
0.000148602
0.000149566
0.000151359
0.000153513
0.000155791
0.000157931
0.000159714
0.000160965
0.000161531
0.000161373
0.000160505
0.00015899
0.000156939
0.000154541
0.000152068
0.000149944
0.000148884
0.000150331
0.000155913
0.000169788
0.000190284
0.000164632
0.000161657
0.000162124
0.000153093
3.29264e-05
1.194e-06
1.15391e-06
3.29271e-05
0.000121433
0.000162444
0.00015349
0.000151051
0.000148263
0.000147685
0.000148482
0.000149835
0.000151695
0.000153881
0.000156214
0.000158396
0.000160191
0.000161407
0.000161914
0.000161711
0.000160827
0.000159304
0.000157255
0.000154858
0.000152335
0.000149956
0.000148082
0.000146908
0.000146409
0.000146686
0.00014953
0.000154995
0.000158398
0.000158221
0.000141405
3.24806e-05
1.18239e-06
1.14623e-06
3.25998e-05
0.000118976
0.000143046
0.000149152
0.000150303
0.000150202
0.000148333
0.000148796
0.000149986
0.000151773
0.00015393
0.000156246
0.000158427
0.000160221
0.000161418
0.000161952
0.000161765
0.000160884
0.000159366
0.000157324
0.000154927
0.000152389
0.000149968
0.00014795
0.000146469
0.000145471
0.000145111
0.000147043
0.000153884
0.0001606
0.000160294
0.000145231
3.21772e-05
1.17053e-06
1.14765e-06
3.26714e-05
0.00011954
0.000148486
0.000148402
0.000148799
0.000158087
0.000149156
0.000148442
0.000149602
0.000151522
0.00015376
0.000156112
0.000158326
0.000160175
0.000161475
0.000162102
0.000162019
0.000161224
0.000159765
0.000157755
0.000155388
0.000152906
0.000150616
0.000148951
0.000148558
0.000150755
0.000160496
0.000152887
0.000156219
0.000162742
0.000162084
0.000144032
3.22774e-05
1.17133e-06
1.15645e-06
3.29373e-05
0.000121198
0.000161598
0.0001507
0.000146131
0.000145125
0.000145969
0.000147502
0.000149371
0.00015156
0.000153914
0.000156315
0.000158527
0.000160396
0.000161781
0.000162467
0.000162418
0.000161642
0.000160189
0.000158156
0.000155706
0.000153127
0.000150815
0.000149276
0.000149489
0.000153878
0.000161271
0.00015304
0.000155903
0.000162793
0.000162619
0.000149062
3.28667e-05
1.19549e-06
1.15128e-06
3.28081e-05
0.000119928
0.000148022
0.000150059
0.000148996
0.000149844
0.000148248
0.000148423
0.000149633
0.000151549
0.000153833
0.00015626
0.000158528
0.000160401
0.000161736