/*--------------------------------*- C++ -*----------------------------------*\
  =========                 |
  \\      /  F ield         | OpenFOAM: The Open Source CFD Toolbox
   \\    /   O peration     | Website:  https://openfoam.org
    \\  /    A nd           | Version:  13
     \\/     M anipulation  |
\*---------------------------------------------------------------------------*/
FoamFile
{
    format      ascii;
    class       volScalarField;
    location    "4";
    object      nut;
}
// * * * * * * * * * * * * * * * * * * * * * * * * * * * * * * * * * * * * * //

dimensions      [0 2 -1 0 0 0 0];

internalField   nonuniform List<scalar> 
78750
(
7.56855e-10
1.37999e-07
2.33334e-06
4.18079e-06
5.1143e-06
6.20128e-06
7.14133e-06
8.14011e-06
7.39948e-06
6.54246e-06
5.6781e-06
4.86584e-06
4.14551e-06
3.52795e-06
3.01347e-06
2.59766e-06
2.2854e-06
2.06821e-06
1.91933e-06
1.81529e-06
1.74696e-06
1.70412e-06
1.69403e-06
1.68656e-06
1.69932e-06
1.69782e-06
1.68347e-06
1.66836e-06
1.65025e-06
1.61925e-06
1.63593e-06
1.46765e-06
1.26003e-06
2.25255e-07
1.56284e-09
1.10971e-09
2.863e-07
8.14542e-06
6.66282e-06
7.25224e-06
9.93575e-06
2.12117e-05
5.39289e-05
5.26779e-05
5.20245e-05
5.00139e-05
4.45583e-05
4.17126e-05
4.02264e-05
3.94546e-05
3.944e-05
4.00532e-05
4.0744e-05
4.1176e-05
4.15709e-05
4.20747e-05
4.26067e-05
4.31521e-05
4.45351e-05
4.87145e-05
5.3949e-05
5.32381e-05
5.28461e-05
3.39278e-05
1.60655e-05
7.9311e-06
5.08619e-06
3.59153e-06
6.2515e-07
3.21335e-09
1.37948e-09
3.57519e-07
8.06659e-06
7.65703e-06
7.37422e-06
9.23508e-06
1.64386e-05
3.69437e-05
5.5166e-05
5.40951e-05
5.35656e-05
5.34419e-05
5.35547e-05
5.3817e-05
5.41286e-05
5.4406e-05
5.46069e-05
5.48162e-05
4.6711e-05
4.67011e-05
4.67419e-05
4.67881e-05
4.67846e-05
4.6728e-05
4.6689e-05
5.47699e-05
5.4842e-05
4.42547e-05
2.21562e-05
1.20316e-05
6.97754e-06
4.43373e-06
3.38355e-06
6.11465e-07
2.88493e-09
1.4043e-09
3.64994e-07
8.40599e-06
7.82626e-06
7.65063e-06
9.17608e-06
1.37992e-05
2.71495e-05
4.68562e-05
5.46939e-05
5.43939e-05
5.43609e-05
5.4563e-05
4.67582e-05
4.69644e-05
4.72521e-05
4.75551e-05
4.78276e-05
4.80412e-05
4.81807e-05
4.82486e-05
4.82047e-05
4.80256e-05
4.77686e-05
4.74682e-05
4.7165e-05
4.68851e-05
3.29672e-05
1.61611e-05
8.40363e-06
4.60691e-06
3.30018e-06
3.30771e-06
5.97426e-07
2.58266e-09
1.43507e-09
3.72635e-07
8.14846e-06
7.80877e-06
8.46391e-06
1.03061e-05
1.5207e-05
2.8174e-05
5.59164e-05
5.50483e-05
5.47754e-05
5.49235e-05
4.69545e-05
4.7205e-05
4.75446e-05
4.78975e-05
4.82135e-05
4.84603e-05
4.86186e-05
4.86822e-05
4.86246e-05
4.84376e-05
4.81714e-05
4.78521e-05
4.75196e-05
4.7217e-05
4.69682e-05
2.99359e-05
1.34009e-05
6.9922e-06
3.96292e-06
2.86576e-06
2.88263e-06
5.41584e-07
2.29216e-09
1.47231e-09
3.81326e-07
8.22768e-06
7.25314e-06
6.73644e-06
8.23203e-06
1.35028e-05
2.56988e-05
5.35376e-05
5.52919e-05
5.49968e-05
4.69254e-05
4.70934e-05
4.74018e-05
4.77613e-05
4.81114e-05
4.84094e-05
4.86274e-05
4.87502e-05
4.87449e-05
4.85981e-05
4.83559e-05
4.80381e-05
4.76755e-05
4.73088e-05
4.69836e-05
4.67252e-05
2.60347e-05
1.16272e-05
6.18735e-06
3.83183e-06
2.97522e-06
2.75616e-06
4.89606e-07
2.04275e-09
1.49094e-09
3.83894e-07
8.11812e-06
6.72371e-06
6.81584e-06
8.26142e-06
1.24337e-05
2.43894e-05
5.06687e-05
5.49528e-05
5.49231e-05
4.69462e-05
4.71815e-05
4.75221e-05
4.78885e-05
4.8228e-05
4.85028e-05
4.86883e-05
4.87723e-05
4.87199e-05
4.85381e-05
4.82671e-05
4.79315e-05
4.75674e-05
4.72189e-05
4.69255e-05
4.66913e-05
2.66534e-05
1.08764e-05
5.72654e-06
3.6114e-06
2.6481e-06
2.72883e-06
4.63977e-07
1.90992e-09
1.5304e-09
3.93918e-07
8.15729e-06
6.73148e-06
6.83572e-06
8.32539e-06
1.23081e-05
2.28153e-05
4.78856e-05
5.49863e-05
4.68755e-05
4.69891e-05
4.72689e-05
4.76225e-05
4.79846e-05
4.83081e-05
4.85586e-05
4.87131e-05
4.87605e-05
4.86828e-05
4.84827e-05
4.81843e-05
4.78253e-05
4.74563e-05
4.71286e-05
4.68899e-05
4.67362e-05
2.41079e-05
9.71638e-06
4.96235e-06
3.32377e-06
2.96881e-06
3.15446e-06
4.37125e-07
1.80028e-09
1.55267e-09
4.00697e-07
8.31223e-06
7.02045e-06
6.98575e-06
8.43212e-06
1.22379e-05
2.22959e-05
4.64334e-05
5.50288e-05
4.6908e-05
4.70589e-05
4.73471e-05
4.77004e-05
4.80569e-05
4.83693e-05
4.86039e-05
4.87379e-05
4.87603e-05
4.8669e-05
4.84512e-05
4.81373e-05
4.77709e-05
4.73938e-05
4.70446e-05
4.67504e-05
4.64962e-05
2.18274e-05
9.07314e-06
4.86223e-06
3.36111e-06
2.85099e-06
3.22059e-06
4.4075e-07
1.81677e-09
1.5885e-09
4.10618e-07
8.49261e-06
7.67679e-06
7.25936e-06
8.51803e-06
1.2189e-05
2.18609e-05
4.51446e-05
4.68302e-05
4.69102e-05
4.71141e-05
4.74208e-05
4.77783e-05
4.81307e-05
4.84335e-05
4.86548e-05
4.87733e-05
4.8778e-05
4.86637e-05
4.84351e-05
4.81251e-05
4.77689e-05
4.74215e-05
4.71337e-05
4.69633e-05
4.69425e-05
2.16428e-05
9.51578e-06
6.08358e-06
3.53815e-06
2.77651e-06
3.02639e-06
4.33466e-07
1.77545e-09
1.59399e-09
4.10779e-07
8.30594e-06
6.8452e-06
7.50234e-06
9.04596e-06
1.2537e-05
2.18543e-05
4.41123e-05
4.69009e-05
4.69563e-05
4.71611e-05
4.74756e-05
4.78388e-05
4.81926e-05
4.84929e-05
4.87092e-05
4.8823e-05
4.88225e-05
4.87e-05
4.84663e-05
4.81513e-05
4.78045e-05
4.74947e-05
4.73076e-05
4.7345e-05
4.74978e-05
2.19195e-05
9.5394e-06
5.42647e-06
3.49484e-06
2.86358e-06
3.3487e-06
4.36395e-07
1.76257e-09
1.61025e-09
4.15104e-07
8.45476e-06
7.16281e-06
7.57153e-06
9.00851e-06
1.23238e-05
2.14017e-05
4.33322e-05
5.52262e-05
4.70544e-05
4.72266e-05
4.75432e-05
4.79145e-05
4.82731e-05
4.85713e-05
4.87792e-05
4.88784e-05
4.88578e-05
4.87216e-05
4.84727e-05
4.81432e-05
4.77946e-05
4.74823e-05
4.72976e-05
4.73422e-05
4.74997e-05
2.13561e-05
9.12535e-06
5.08202e-06
3.43949e-06
2.99178e-06
3.45534e-06
4.3823e-07
1.78393e-09
1.61145e-09
4.16847e-07
8.49901e-06
7.34218e-06
7.68792e-06
8.91656e-06
1.21171e-05
2.13493e-05
4.30563e-05
4.69904e-05
4.70704e-05
4.72979e-05
4.76353e-05
4.80086e-05
4.83603e-05
4.86473e-05
4.88424e-05
4.89271e-05
4.88912e-05
4.8736e-05
4.84673e-05
4.81282e-05
4.77639e-05
4.74204e-05
4.7162e-05
4.70291e-05
4.69833e-05
2.03234e-05
8.59364e-06
4.87608e-06
3.44017e-06
2.95527e-06
3.3391e-06
4.42537e-07
1.79404e-09
1.60395e-09
4.14852e-07
8.71271e-06
7.92762e-06
8.47436e-06
9.6345e-06
1.2302e-05
2.11101e-05
4.22254e-05
4.69258e-05
4.70238e-05
4.72862e-05
4.76425e-05
4.80235e-05
4.83773e-05
4.86643e-05
4.88574e-05
4.89375e-05
4.88963e-05
4.87332e-05
4.84648e-05
4.8122e-05
4.77449e-05
4.74019e-05
4.72265e-05
4.74745e-05
5.22376e-05
2.07923e-05
9.56828e-06
4.79899e-06
3.33348e-06
2.90946e-06
3.37157e-06
4.30659e-07
1.74095e-09
1.59599e-09
4.11272e-07
8.47827e-06
7.35491e-06
7.69015e-06
8.51849e-06
1.21683e-05
2.1271e-05
4.2515e-05
4.7013e-05
4.70847e-05
4.73082e-05
4.76395e-05
4.80088e-05
4.83571e-05
4.86411e-05
4.88305e-05
4.89073e-05
4.88628e-05
4.86991e-05
4.84338e-05
4.8094e-05
4.77246e-05
4.73996e-05
4.72551e-05
4.75783e-05
5.21708e-05
2.11545e-05
1.01181e-05
6.03976e-06
3.60216e-06
2.91459e-06
3.20692e-06
4.28754e-07
1.73872e-09
1.59353e-09
4.09338e-07
8.23052e-06
6.7577e-06
6.64586e-06
8.19622e-06
1.26713e-05
2.18553e-05
4.29925e-05
4.73603e-05
4.71947e-05
4.73822e-05
4.7709e-05
4.80768e-05
4.84272e-05
4.87193e-05
4.89145e-05
4.8989e-05
4.89382e-05
4.8766e-05
4.84896e-05
4.81339e-05
4.77359e-05
4.73464e-05
4.70327e-05
4.68934e-05
5.04688e-05
1.87877e-05
7.85909e-06
4.54874e-06
3.34008e-06
2.99029e-06
3.37146e-06
4.30623e-07
1.74572e-09
1.59639e-09
4.09568e-07
8.24644e-06
6.82717e-06
6.77287e-06
8.13153e-06
1.16505e-05
2.06634e-05
4.16421e-05
4.68131e-05
4.70351e-05
4.73532e-05
4.77198e-05
4.80997e-05
4.84528e-05
4.87442e-05
4.89359e-05
4.9006e-05
4.895e-05
4.87742e-05
4.84963e-05
4.81429e-05
4.77529e-05
4.73794e-05
4.70817e-05
4.68657e-05
4.66467e-05
1.83978e-05
7.51063e-06
4.25957e-06
3.29692e-06
3.2142e-06
3.64685e-06
4.42389e-07
1.77561e-09
1.59372e-09
4.08681e-07
8.21021e-06
6.70867e-06
6.81795e-06
8.21278e-06
1.19059e-05
2.16701e-05
4.27296e-05
4.73595e-05
4.72189e-05
4.74201e-05
4.77599e-05
4.81345e-05
4.84796e-05
4.87544e-05
4.89311e-05
4.89897e-05
4.89264e-05
4.87479e-05
4.84707e-05
4.81227e-05
4.7741e-05
4.74016e-05
4.7162e-05
4.70459e-05
4.69782e-05
1.8871e-05
8.11269e-06
4.67197e-06
3.40749e-06
3.12962e-06
3.10699e-06
4.29979e-07
1.7501e-09
1.58183e-09
4.03946e-07
8.12835e-06
6.46585e-06
6.87061e-06
8.96915e-06
1.28712e-05
2.16838e-05
4.24423e-05
4.72228e-05
4.72191e-05
4.74318e-05
4.77695e-05
4.81422e-05
4.84835e-05
4.87533e-05
4.89253e-05
4.89823e-05
4.89184e-05
4.87387e-05
4.84612e-05
4.81153e-05
4.77449e-05
4.74136e-05
4.7189e-05
4.71123e-05
4.71191e-05
1.91839e-05
8.16942e-06
4.80424e-06
3.49459e-06
2.97382e-06
3.13772e-06
4.26591e-07
1.73996e-09
1.59569e-09
4.07821e-07
8.18223e-06
6.43345e-06
6.81375e-06
8.71232e-06
1.25585e-05
2.14753e-05
4.23559e-05
4.71941e-05
4.72249e-05
4.74293e-05
4.77463e-05
4.80993e-05
4.84323e-05
4.86989e-05
4.88687e-05
4.89243e-05
4.88596e-05
4.86797e-05
4.84042e-05
4.80664e-05
4.77117e-05
4.74042e-05
4.72332e-05
4.72666e-05
4.73292e-05
1.85813e-05
7.97969e-06
4.59318e-06
3.47129e-06
3.01105e-06
3.30485e-06
4.24424e-07
1.73188e-09
1.61043e-09
4.12048e-07
8.11889e-06
6.30332e-06
6.71018e-06
8.34494e-06
1.2992e-05
2.20965e-05
4.28541e-05
4.74901e-05
4.72674e-05
4.7424e-05
4.77397e-05
4.81016e-05
4.84421e-05
4.87182e-05
4.89043e-05
4.8976e-05
4.8921e-05
4.87462e-05
4.84699e-05
4.81215e-05
4.77501e-05
4.74038e-05
4.71495e-05
4.70208e-05
4.69325e-05
1.84066e-05
7.95281e-06
4.6786e-06
3.45436e-06
2.97672e-06
3.03575e-06
4.19769e-07
1.7191e-09
1.61387e-09
4.13213e-07
8.2001e-06
6.61698e-06
6.82202e-06
8.25744e-06
1.17351e-05
2.06269e-05
4.152e-05
4.69016e-05
4.71052e-05
4.7405e-05
4.7759e-05
4.81258e-05
4.84648e-05
4.87386e-05
4.89203e-05
4.89869e-05
4.8927e-05
4.87479e-05
4.84682e-05
4.81147e-05
4.77244e-05
4.73401e-05
4.70145e-05
4.67746e-05
4.65956e-05
1.81127e-05
7.6301e-06
4.61919e-06
3.36575e-06
2.897e-06
3.39681e-06
4.29983e-07
1.73929e-09
1.63002e-09
4.18342e-07
8.53542e-06
6.76119e-06
6.92444e-06
8.37704e-06
1.18912e-05
2.09532e-05
4.1876e-05
4.69762e-05
4.71596e-05
4.7447e-05
4.7808e-05
4.81809e-05
4.85106e-05
4.87592e-05
4.89131e-05
4.89595e-05
4.88911e-05
4.87106e-05
4.84348e-05
4.80845e-05
4.76916e-05
4.7308e-05
4.69795e-05
4.67331e-05
4.65635e-05
1.72458e-05
7.17207e-06
4.34039e-06
3.48829e-06
3.06864e-06
3.24383e-06
4.2749e-07
1.73903e-09
1.63263e-09
4.18057e-07
8.3355e-06
6.84465e-06
7.06857e-06
8.18407e-06
1.15733e-05
2.07318e-05
4.20284e-05
4.71513e-05
4.71933e-05
4.74587e-05
4.78208e-05
4.81979e-05
4.8537e-05
4.87965e-05
4.89587e-05
4.90088e-05
4.89315e-05
4.8746e-05
4.84647e-05
4.81074e-05
4.77301e-05
4.74146e-05
4.72727e-05
4.75928e-05
4.83466e-05
1.90861e-05
8.97103e-06
4.55282e-06
3.34454e-06
2.98327e-06
3.13602e-06
4.15453e-07
1.69711e-09
1.6155e-09
4.1413e-07
8.29194e-06
6.94256e-06
6.81017e-06
8.00547e-06
1.18859e-05
2.16761e-05
4.25729e-05
4.74133e-05
4.72874e-05
4.74802e-05
4.78123e-05
4.81783e-05
4.85131e-05
4.87705e-05
4.89403e-05
4.89951e-05
4.89307e-05
4.87476e-05
4.8463e-05
4.81104e-05
4.77399e-05
4.74277e-05
4.73162e-05
4.7699e-05
5.01408e-05
1.98262e-05
9.49148e-06
5.82512e-06
3.44749e-06
2.88322e-06
3.37094e-06
4.1984e-07
1.69867e-09
1.62082e-09
4.16078e-07
8.53307e-06
7.45617e-06
7.71999e-06
8.47e-06
1.21475e-05
2.12473e-05
4.20154e-05
4.709e-05
4.72335e-05
4.75131e-05
4.78654e-05
4.8229e-05
4.85532e-05
4.87991e-05
4.89386e-05
4.89676e-05
4.88856e-05
4.86831e-05
4.83891e-05
4.80347e-05
4.76688e-05
4.7362e-05
4.72059e-05
4.72624e-05
4.73554e-05
1.83293e-05
7.83485e-06
4.48631e-06
3.40302e-06
3.01102e-06
2.92633e-06
4.13119e-07
1.70151e-09
1.61363e-09
4.13738e-07
8.25423e-06
6.72293e-06
6.79616e-06
8.35401e-06
1.28444e-05
2.19333e-05
4.22091e-05
4.72349e-05
4.72708e-05
4.75238e-05
4.78701e-05
4.82318e-05
4.85556e-05
4.88028e-05
4.89459e-05
4.8985e-05
4.8906e-05
4.87108e-05
4.84159e-05
4.80606e-05
4.77017e-05
4.73964e-05
4.72303e-05
4.72744e-05
4.73407e-05
1.7953e-05
7.77054e-06
4.42399e-06
3.23414e-06
2.85348e-06
3.00247e-06
4.07012e-07
1.67422e-09
1.61599e-09
4.14322e-07
8.43465e-06
7.27089e-06
7.09574e-06
9.58665e-06
1.33986e-05
2.24246e-05
4.30638e-05
4.76359e-05
4.73985e-05
4.75463e-05
4.78521e-05
4.8199e-05
4.85202e-05
4.87745e-05
4.89365e-05
4.89884e-05
4.8916e-05
4.87296e-05
4.8445e-05
4.80978e-05
4.77401e-05
4.74446e-05
4.73169e-05
4.74538e-05
4.77125e-05
1.84436e-05
8.32781e-06
5.06903e-06
3.63662e-06
3.0158e-06
3.06301e-06
4.1019e-07
1.69223e-09
1.60765e-09
4.10302e-07
8.27915e-06
6.53379e-06
6.53864e-06
7.79943e-06
1.14383e-05
2.1117e-05
4.14015e-05
4.70513e-05
4.72e-05
4.7487e-05
4.78402e-05
4.82e-05
4.85214e-05
4.87705e-05
4.89238e-05
4.89648e-05
4.88896e-05
4.87031e-05
4.84261e-05
4.80762e-05
4.76821e-05
4.73127e-05
4.70209e-05
4.68488e-05
4.68125e-05
1.74081e-05
7.48307e-06
4.84879e-06
3.73994e-06
3.09831e-06
3.40108e-06
4.23547e-07
1.72544e-09
1.61819e-09
4.13877e-07
8.41221e-06
6.6883e-06
6.67376e-06
7.98714e-06
1.1555e-05
2.04532e-05
4.11921e-05
4.69657e-05
4.72217e-05
4.75379e-05
4.78988e-05
4.82554e-05
4.85681e-05
4.88085e-05
4.89521e-05
4.89847e-05
4.88998e-05
4.8705e-05
4.84208e-05
4.8074e-05
4.76937e-05
4.73328e-05
4.70547e-05
4.68873e-05
4.68068e-05
1.74827e-05
7.35123e-06
4.49954e-06
3.57665e-06
3.16753e-06
3.55583e-06
4.39864e-07
1.74888e-09
1.63473e-09
4.20422e-07
8.44615e-06
6.81251e-06
6.76645e-06
8.14755e-06
1.16593e-05
2.05401e-05
4.12106e-05
4.7023e-05
4.72597e-05
4.7572e-05
4.79401e-05
4.83102e-05
4.86364e-05
4.88803e-05
4.902e-05
4.90414e-05
4.89548e-05
4.87547e-05
4.84566e-05
4.80908e-05
4.77147e-05
4.73912e-05
4.72242e-05
4.74212e-05
4.71065e-05
1.80902e-05
7.46512e-06
4.47634e-06
3.52549e-06
3.0616e-06
3.1315e-06
4.28902e-07
1.74845e-09
1.64449e-09
4.22059e-07
8.69407e-06
7.31731e-06
6.72582e-06
8.17542e-06
1.1769e-05
2.04544e-05
4.09793e-05
4.70302e-05
4.72642e-05
4.75771e-05
4.79445e-05
4.83099e-05
4.86309e-05
4.88739e-05
4.90157e-05
4.90431e-05
4.89531e-05
4.87511e-05
4.84531e-05
4.80877e-05
4.77112e-05
4.73963e-05
4.72681e-05
4.75962e-05
4.85098e-05
1.90017e-05
8.87226e-06
4.68211e-06
3.35428e-06
2.96568e-06
3.32928e-06
4.17107e-07
1.69374e-09
1.63898e-09
4.18596e-07
8.40919e-06
6.49519e-06
6.70662e-06
8.20809e-06
1.14954e-05
2.02606e-05
4.07337e-05
4.70092e-05
4.7248e-05
4.75492e-05
4.78978e-05
4.82525e-05
4.85678e-05
4.88087e-05
4.89514e-05
4.89823e-05
4.88984e-05
4.8706e-05
4.84267e-05
4.80805e-05
4.77118e-05
4.73856e-05
4.71621e-05
4.70666e-05
4.70206e-05
1.75653e-05
7.44689e-06
4.36379e-06
3.3298e-06
3.08901e-06
3.4359e-06
4.17519e-07
1.68283e-09
1.6456e-09
4.21178e-07
8.48812e-06
6.71292e-06
6.68396e-06
7.9985e-06
1.15246e-05
2.03461e-05
4.08324e-05
4.70096e-05
4.72516e-05
4.75689e-05
4.79261e-05
4.82777e-05
4.8588e-05
4.88263e-05
4.89706e-05
4.90044e-05
4.89238e-05
4.87304e-05
4.84414e-05
4.80861e-05
4.77027e-05
4.73382e-05
4.70391e-05
4.68288e-05
4.53173e-05
1.70196e-05
7.41368e-06
4.5972e-06
3.45453e-06
2.91905e-06
3.07095e-06
4.15467e-07
1.71561e-09
1.6345e-09
4.18757e-07
8.54448e-06
6.69735e-06
6.7771e-06
8.34121e-06
1.18371e-05
2.05071e-05
4.08498e-05
4.71115e-05
4.73112e-05
4.76046e-05
4.79628e-05
4.83337e-05
4.86507e-05
4.88849e-05
4.90108e-05
4.90306e-05
4.89325e-05
4.87241e-05
4.84345e-05
4.80821e-05
4.76934e-05
4.73186e-05
4.69987e-05
4.67612e-05
4.61934e-05
1.70125e-05
7.23391e-06
4.37884e-06
3.40194e-06
3.01933e-06
3.14078e-06
4.16384e-07
1.70752e-09
1.63676e-09
4.19585e-07
8.63775e-06
7.09513e-06
6.78498e-06
8.31122e-06
1.19438e-05
2.08289e-05
4.0947e-05
4.71763e-05
4.7341e-05
4.76292e-05
4.79814e-05
4.83378e-05
4.86507e-05
4.88856e-05
4.90195e-05
4.90393e-05
4.89424e-05
4.87381e-05
4.84428e-05
4.80853e-05
4.77087e-05
4.73681e-05
4.71212e-05
4.6985e-05
4.66332e-05
1.73641e-05
7.31807e-06
4.39923e-06
3.37637e-06
3.01041e-06
3.30998e-06
4.14771e-07
1.68225e-09
1.65096e-09
4.2439e-07
8.56023e-06
7.49265e-06
7.05367e-06
8.74494e-06
1.23084e-05
2.10913e-05
4.13679e-05
4.73791e-05
4.74257e-05
4.76482e-05
4.79713e-05
4.83158e-05
4.86241e-05
4.88572e-05
4.89928e-05
4.90146e-05
4.89183e-05
4.8713e-05
4.84176e-05
4.80616e-05
4.76894e-05
4.73622e-05
4.7144e-05
4.70546e-05
4.70119e-05
1.75604e-05
7.39949e-06
4.34685e-06
3.3923e-06
3.12087e-06
3.16439e-06
4.13397e-07
1.6915e-09
1.63757e-09
4.20763e-07
8.67034e-06
7.1938e-06
6.85049e-06
8.59162e-06
1.22085e-05
2.10377e-05
4.14973e-05
4.73879e-05
4.74711e-05
4.77137e-05
4.80415e-05
4.8386e-05
4.86922e-05
4.89226e-05
4.90534e-05
4.90698e-05
4.89688e-05
4.87592e-05
4.84591e-05
4.80964e-05
4.77172e-05
4.73555e-05
4.70692e-05
4.69047e-05
4.68238e-05
1.73527e-05
7.2421e-06
4.28653e-06
3.31748e-06
2.92148e-06
3.33985e-06
4.18789e-07
1.7064e-09
1.64889e-09
4.22631e-07
8.55844e-06
6.67958e-06
6.74646e-06
8.52641e-06
1.22153e-05
2.09187e-05
4.09577e-05
4.73043e-05
4.74362e-05
4.77028e-05
4.80446e-05
4.83945e-05
4.87016e-05
4.89308e-05
4.90595e-05
4.90748e-05
4.89747e-05
4.87673e-05
4.84707e-05
4.81154e-05
4.77485e-05
4.7446e-05
4.73101e-05
4.74311e-05
4.67583e-05
1.80464e-05
8.13885e-06
4.84698e-06
3.38389e-06
3.01545e-06
3.38476e-06
4.26012e-07
1.72615e-09
1.66041e-09
4.26219e-07
8.56749e-06
6.91344e-06
6.73819e-06
8.18151e-06
1.25969e-05
2.14002e-05
4.10021e-05
4.73789e-05
4.74098e-05
4.76597e-05
4.79972e-05
4.83522e-05
4.86656e-05
4.88955e-05
4.90233e-05
4.90376e-05
4.89369e-05
4.87299e-05
4.8435e-05
4.80815e-05
4.77098e-05
4.73876e-05
4.71792e-05
4.71084e-05
4.65668e-05
1.75535e-05
7.59629e-06
4.70873e-06
3.45918e-06
3.00874e-06
3.30438e-06
4.17602e-07
1.69343e-09
1.65871e-09
4.25279e-07
8.59296e-06
7.41281e-06
7.08877e-06
8.39291e-06
1.18067e-05
2.02483e-05
4.02683e-05
4.71757e-05
4.73896e-05
4.76839e-05
4.80342e-05
4.83753e-05
4.86679e-05
4.88845e-05
4.9007e-05
4.90188e-05
4.89164e-05
4.8707e-05
4.84074e-05
4.80467e-05
4.76688e-05
4.734e-05
4.71599e-05
4.73185e-05
4.75362e-05
1.79356e-05
7.24705e-06
4.26388e-06
3.25892e-06
2.85665e-06
3.30222e-06
4.08544e-07
1.65831e-09
1.66294e-09
4.24819e-07
8.38508e-06
6.62701e-06
6.9495e-06
8.4525e-06
1.18255e-05
2.03608e-05
4.04305e-05
4.7263e-05
4.74253e-05
4.76924e-05
4.8028e-05
4.83689e-05
4.86683e-05
4.88923e-05
4.90176e-05
4.90308e-05
4.89294e-05
4.87215e-05
4.84237e-05
4.80656e-05
4.76868e-05
4.73433e-05
4.71242e-05
4.71581e-05
4.52666e-05
1.73421e-05
7.00338e-06
4.19937e-06
3.36952e-06
3.04361e-06
3.48019e-06
4.19585e-07
1.68707e-09
1.65956e-09
4.25863e-07
8.66289e-06
6.84487e-06
7.03286e-06
8.61523e-06
1.20073e-05
2.06417e-05
4.05356e-05
4.73186e-05
4.74282e-05
4.76616e-05
4.79744e-05
4.83025e-05
4.85961e-05
4.88183e-05
4.89448e-05
4.89619e-05
4.88668e-05
4.86666e-05
4.83783e-05
4.80392e-05
4.76834e-05
4.73796e-05
4.72807e-05
4.76827e-05
4.79335e-05
1.89012e-05
8.86358e-06
4.60814e-06
3.30369e-06
2.90577e-06
3.10678e-06
4.21925e-07
1.73329e-09
1.66401e-09
4.2842e-07
8.75415e-06
7.5665e-06
7.15114e-06
8.79563e-06
1.21567e-05
2.07221e-05
4.06316e-05
4.72892e-05
4.74226e-05
4.76752e-05
4.79987e-05
4.83334e-05
4.86291e-05
4.88509e-05
4.89763e-05
4.89929e-05
4.88947e-05
4.86949e-05
4.84036e-05
4.80587e-05
4.77096e-05
4.7419e-05
4.7291e-05
4.73918e-05
4.75276e-05
1.80034e-05
7.67438e-06
4.45624e-06
3.31618e-06
2.95497e-06
3.17908e-06
4.18993e-07
1.71293e-09
1.6583e-09
4.27169e-07
8.77789e-06
7.62191e-06
8.01153e-06
9.78314e-06
1.31916e-05
2.16093e-05
4.09373e-05
4.74351e-05
4.74431e-05
4.77008e-05
4.80495e-05
4.8398e-05
4.86982e-05
4.89163e-05
4.90285e-05
4.90315e-05
4.89282e-05
4.87194e-05
4.84278e-05
4.80802e-05
4.77316e-05
4.74605e-05
4.73668e-05
4.75449e-05
4.61928e-05
1.73912e-05
7.84503e-06
4.75042e-06
3.59793e-06
3.12141e-06
3.22158e-06
4.09033e-07
1.67136e-09
1.65032e-09
4.23746e-07
8.64593e-06
6.79493e-06
6.76916e-06
9.0281e-06
1.26731e-05
2.12491e-05
4.06842e-05
4.73814e-05
4.74349e-05
4.7697e-05
4.80446e-05
4.8392e-05
4.8692e-05
4.89117e-05
4.90296e-05
4.90351e-05
4.89275e-05
4.87158e-05
4.84171e-05
4.80592e-05
4.76792e-05
4.73205e-05
4.70327e-05
4.68377e-05
4.53425e-05
1.68721e-05
7.33588e-06
4.57876e-06
3.42475e-06
3.05548e-06
3.25929e-06
4.15181e-07
1.69248e-09
1.65513e-09
4.23964e-07
8.57549e-06
7.23336e-06
6.69117e-06
7.91917e-06
1.135e-05
2.00641e-05
3.99288e-05
4.70609e-05
4.73269e-05
4.76476e-05
4.80044e-05
4.8352e-05
4.86571e-05
4.88786e-05
4.89916e-05
4.89942e-05
4.889e-05
4.86838e-05
4.83833e-05
4.80203e-05
4.764e-05
4.72912e-05
4.70108e-05
4.68237e-05
4.62186e-05
1.68378e-05
7.17171e-06
4.48261e-06
3.40154e-06
2.95918e-06
3.22531e-06
4.19686e-07
1.72004e-09
1.658e-09
4.23965e-07
8.50669e-06
6.69384e-06
6.69697e-06
8.45407e-06
1.19719e-05
2.05049e-05
4.04918e-05
4.73244e-05
4.74762e-05
4.77483e-05
4.80838e-05
4.84202e-05
4.87081e-05
4.89213e-05
4.90428e-05
4.90474e-05
4.89328e-05
4.87181e-05
4.84145e-05
4.80603e-05
4.76819e-05
4.73452e-05
4.71748e-05
4.73822e-05
4.60049e-05
1.71056e-05
6.83968e-06
4.16736e-06
3.51523e-06
3.20293e-06
3.08431e-06
4.12746e-07
1.70381e-09
1.66194e-09
4.26791e-07
8.81085e-06
7.44217e-06
6.908e-06
8.66288e-06
1.22254e-05
2.10053e-05
4.08807e-05
4.73847e-05
4.75067e-05
4.77546e-05
4.80719e-05
4.83994e-05
4.86912e-05
4.89131e-05
4.90372e-05
4.90448e-05
4.89364e-05
4.87217e-05
4.84163e-05
4.8055e-05
4.7693e-05
4.7398e-05
4.72534e-05
4.73144e-05
4.49233e-05
1.71027e-05
7.57764e-06
4.40875e-06
3.34012e-06
2.97821e-06
3.11979e-06
4.11486e-07
1.68723e-09
1.65811e-09
4.23931e-07
8.53459e-06
6.58064e-06
6.73405e-06
9.08021e-06
1.28145e-05
2.12959e-05
4.10529e-05
4.74302e-05
4.7471e-05
4.77185e-05
4.80545e-05
4.83937e-05
4.86825e-05
4.88841e-05
4.89883e-05
4.89865e-05
4.88759e-05
4.86664e-05
4.83778e-05
4.80493e-05
4.77078e-05
4.74297e-05
4.73305e-05
4.75176e-05
4.66754e-05
1.77855e-05
8.08066e-06
4.93493e-06
3.45204e-06
2.9479e-06
2.97153e-06
4.11836e-07
1.69556e-09
1.66171e-09
4.25439e-07
8.50893e-06
6.61361e-06
6.60603e-06
7.89359e-06
1.12911e-05
2.02446e-05
4.06882e-05
4.71199e-05
4.73999e-05
4.77068e-05
4.80414e-05
4.83735e-05
4.86637e-05
4.88809e-05
4.90091e-05
4.9021e-05
4.89145e-05
4.87013e-05
4.84011e-05
4.80506e-05
4.76998e-05
4.7427e-05
4.73372e-05
4.75359e-05
4.64447e-05
1.74006e-05
7.92932e-06
4.77595e-06
3.47764e-06
3.1557e-06
3.44355e-06
4.20312e-07
1.7065e-09
1.67092e-09
4.27588e-07
8.61519e-06
6.90265e-06
6.55567e-06
7.85959e-06
1.14073e-05
2.0356e-05
4.06492e-05
4.71251e-05
4.74102e-05
4.77391e-05
4.80891e-05
4.84236e-05
4.87112e-05
4.89202e-05
4.90275e-05
4.90243e-05
4.89095e-05
4.86907e-05
4.83854e-05
4.80215e-05
4.76366e-05
4.72742e-05
4.6969e-05
4.67371e-05
4.25663e-05
1.55203e-05
6.83028e-06
4.49937e-06
3.47428e-06
3.0735e-06
3.33525e-06
4.14937e-07
1.67951e-09
1.68704e-09
4.3266e-07
8.77102e-06
7.43141e-06
6.81746e-06
8.37055e-06
1.25501e-05
2.15887e-05
4.16995e-05
4.73921e-05
4.74815e-05
4.77529e-05
4.80944e-05
4.84288e-05
4.87108e-05
4.89112e-05
4.90051e-05
4.89904e-05
4.88746e-05
4.86602e-05
4.8357e-05
4.80002e-05
4.76307e-05
4.72778e-05
4.69793e-05
4.67687e-05
4.17005e-05
1.53454e-05
6.81664e-06
4.23137e-06
3.42327e-06
2.91163e-06
3.28181e-06
4.10156e-07
1.65965e-09
1.68653e-09
4.31029e-07
8.87401e-06
7.24067e-06
6.90183e-06
9.37466e-06
1.32027e-05
2.2232e-05
4.24117e-05
4.75107e-05
4.75346e-05
4.77752e-05
4.80995e-05
4.8428e-05
4.87125e-05
4.8921e-05
4.90291e-05
4.90254e-05
4.89062e-05
4.86942e-05
4.84052e-05
4.80502e-05
4.76961e-05
4.74097e-05
4.73524e-05
4.78384e-05
4.53688e-05
1.76772e-05
8.56336e-06
4.46352e-06
3.30024e-06
3.08527e-06
3.55591e-06
4.2032e-07
1.68937e-09
1.67964e-09
4.29712e-07
8.65503e-06
6.61223e-06
6.72246e-06
8.97152e-06
1.29043e-05
2.19622e-05
4.22211e-05
4.74402e-05
4.74988e-05
4.77464e-05
4.80718e-05
4.84025e-05
4.86953e-05
4.8913e-05
4.90248e-05
4.90235e-05
4.89117e-05
4.86986e-05
4.84037e-05
4.80558e-05
4.7702e-05
4.74227e-05
4.73626e-05
4.78646e-05
4.49245e-05
1.75383e-05
8.51388e-06
4.55123e-06
3.48393e-06
3.13283e-06
3.36338e-06
4.23503e-07
1.70805e-09
1.68481e-09
4.29409e-07
8.52358e-06
6.67526e-06
6.59782e-06
7.91628e-06
1.23534e-05
2.17917e-05
4.23674e-05
4.73762e-05
4.74754e-05
4.77348e-05
4.80629e-05
4.839e-05
4.86729e-05
4.88901e-05
4.89986e-05
4.8984e-05
4.88603e-05
4.86449e-05
4.83597e-05
4.80244e-05
4.76811e-05
4.74221e-05
4.74125e-05
4.79806e-05
4.2359e-05
1.67429e-05
8.43401e-06
4.5569e-06
3.482e-06
3.03262e-06
3.03298e-06
4.09544e-07
1.68011e-09
1.67588e-09
4.28764e-07
8.72723e-06
6.59844e-06
6.52377e-06
7.8602e-06
1.16676e-05
2.10049e-05
4.19311e-05
4.71276e-05
4.73973e-05
4.77159e-05
4.80652e-05
4.84027e-05
4.86898e-05
4.88975e-05
4.90028e-05
4.89963e-05
4.88876e-05
4.86791e-05
4.8385e-05
4.80351e-05
4.76635e-05
4.73279e-05
4.70861e-05
4.69322e-05
4.18496e-05
1.53688e-05
6.86647e-06
4.38273e-06
3.33894e-06
3.04997e-06
3.40128e-06
4.18886e-07
1.72772e-09
1.66496e-09
4.27186e-07
8.70961e-06
7.02838e-06
6.63982e-06
8.05021e-06
1.26324e-05
2.21184e-05
4.29701e-05
4.74084e-05
4.74682e-05
4.77113e-05
4.80297e-05
4.83537e-05
4.86374e-05
4.88486e-05
4.89645e-05
4.89762e-05
4.88707e-05
4.86593e-05
4.83738e-05
4.80206e-05
4.76625e-05
4.73595e-05
4.71701e-05
4.71194e-05
4.26205e-05
1.57869e-05
7.1876e-06
4.39725e-06
3.31682e-06
3.06887e-06
3.57436e-06
4.24123e-07
1.71199e-09
1.67521e-09
4.28532e-07
8.84037e-06
7.35069e-06
6.61133e-06
7.98534e-06
1.14615e-05
2.09985e-05
4.24462e-05
4.71114e-05
4.73932e-05
4.77054e-05
4.80436e-05
4.83699e-05
4.86501e-05
4.88566e-05
4.89688e-05
4.89801e-05
4.88791e-05
4.8669e-05
4.83702e-05
4.80122e-05
4.76342e-05
4.72908e-05
4.70492e-05
4.69583e-05
3.83559e-05
1.40947e-05
6.33484e-06
4.14589e-06
3.44922e-06
3.16024e-06
3.50515e-06
4.22731e-07
1.70487e-09
1.67173e-09
4.29549e-07
8.74598e-06
7.13912e-06
6.59836e-06
7.94459e-06
1.16519e-05
2.11781e-05
4.28315e-05
4.71406e-05
4.74236e-05
4.77477e-05
4.80816e-05
4.84e-05
4.86738e-05
4.88711e-05
4.89695e-05
4.89616e-05
4.88463e-05
4.86349e-05
4.835e-05
4.80093e-05
4.76559e-05
4.73893e-05
4.73898e-05
5.62795e-05
4.21407e-05
1.64147e-05
8.43491e-06
4.57803e-06
3.45237e-06
3.12785e-06
3.62984e-06
4.44446e-07
1.77865e-09
1.67553e-09
4.29914e-07
8.78644e-06
7.33445e-06
6.65565e-06
7.95922e-06
1.15935e-05
2.13451e-05
4.3289e-05
4.71532e-05
4.74382e-05
4.77657e-05
4.81215e-05
4.84559e-05
4.87359e-05
4.89362e-05
4.90356e-05
4.90259e-05
4.89079e-05
4.86888e-05
4.83791e-05
4.80263e-05
4.76771e-05
4.73823e-05
4.71738e-05
4.70787e-05
4.10199e-05
1.50775e-05
6.93362e-06
4.38733e-06
3.27006e-06
2.93312e-06
3.1779e-06
4.22565e-07
1.72755e-09
1.66833e-09
4.27486e-07
8.76494e-06
7.15398e-06
6.58834e-06
7.93902e-06
1.1466e-05
2.12588e-05
4.35854e-05
4.71008e-05
4.74015e-05
4.77472e-05
4.81074e-05
4.84347e-05
4.8707e-05
4.89044e-05
4.90015e-05
4.89899e-05
4.887e-05
4.86519e-05
4.83546e-05
4.80088e-05
4.76531e-05
4.73353e-05
4.70967e-05
4.69403e-05
3.75638e-05
1.38596e-05
6.49921e-06
4.32116e-06
3.43132e-06
3.11062e-06
3.3701e-06
4.1184e-07
1.67304e-09
1.67279e-09
4.27534e-07
8.65798e-06
6.39766e-06
6.37825e-06
7.77204e-06
1.18316e-05
2.20759e-05
4.44086e-05
4.71662e-05
4.74419e-05
4.77652e-05
4.81099e-05
4.84302e-05
4.86995e-05
4.88956e-05
4.89928e-05
4.8982e-05
4.88635e-05
4.86472e-05
4.83514e-05
4.80061e-05
4.76515e-05
4.73338e-05
4.71021e-05
4.69804e-05
3.81501e-05
1.41172e-05
6.63171e-06
4.34271e-06
3.56668e-06
3.30592e-06
3.66601e-06
4.31289e-07
1.7415e-09
1.71011e-09
4.37494e-07
8.95612e-06
6.63622e-06
6.62383e-06
8.37652e-06
1.24635e-05
2.27421e-05
4.54174e-05
4.73967e-05
4.75419e-05
4.78021e-05
4.81215e-05
4.84395e-05
4.87121e-05
4.89077e-05
4.90025e-05
4.89876e-05
4.88623e-05
4.86317e-05
4.832e-05
4.79623e-05
4.75968e-05
4.73095e-05
4.72383e-05
4.76479e-05
3.87324e-05
1.49091e-05
6.79382e-06
4.48068e-06
3.61047e-06
3.06649e-06
3.01085e-06
4.16904e-07
1.70947e-09
1.70401e-09
4.35492e-07
8.72156e-06
6.64889e-06
6.69869e-06
8.45899e-06
1.2594e-05
2.29518e-05
4.57296e-05
4.74351e-05
4.75494e-05
4.77783e-05
4.80783e-05
4.83847e-05
4.865e-05
4.88415e-05
4.89352e-05
4.89236e-05
4.88091e-05
4.86034e-05
4.83181e-05
4.79826e-05
4.76512e-05
4.74216e-05
4.74924e-05
5.65814e-05
3.82651e-05
1.54207e-05
8.24908e-06
4.66277e-06
3.57661e-06
3.27374e-06
3.51655e-06
4.24085e-07
1.71019e-09
1.70187e-09
4.34989e-07
8.84218e-06
6.7635e-06
6.4766e-06
8.01203e-06
1.2908e-05
2.30702e-05
4.61034e-05
4.7308e-05
4.75116e-05
4.78037e-05
4.81305e-05
4.84413e-05
4.86998e-05
4.88804e-05
4.89615e-05
4.89362e-05
4.88067e-05
4.85825e-05
4.82807e-05
4.79351e-05
4.75984e-05
4.73651e-05
4.74191e-05
5.64578e-05
3.71018e-05
1.48248e-05
7.88054e-06
4.48921e-06
3.627e-06
3.33639e-06
3.69008e-06
4.36645e-07
1.75933e-09
1.70025e-09
4.36654e-07
9.06632e-06
7.24411e-06
6.51147e-06
8.03586e-06
1.21705e-05
2.29756e-05
4.62904e-05
4.73177e-05
4.75711e-05
4.78759e-05
4.82036e-05
4.8518e-05
4.87756e-05
4.89471e-05
4.90185e-05
4.89868e-05
4.88528e-05
4.86267e-05
4.83241e-05
4.79721e-05
4.76041e-05
4.72592e-05
4.69946e-05
4.68043e-05
3.41671e-05
1.28556e-05
6.39483e-06
4.35903e-06
3.56472e-06
3.12018e-06
3.36384e-06
4.30733e-07
1.74221e-09
1.68894e-09
4.32313e-07
8.75178e-06
6.38635e-06
6.39977e-06
8.01259e-06
1.23673e-05
2.33382e-05
4.68362e-05
4.73273e-05
4.75776e-05
4.78773e-05
4.82056e-05
4.85179e-05
4.87739e-05
4.8938e-05
4.90171e-05
4.89914e-05
4.88613e-05
4.86364e-05
4.8334e-05
4.79804e-05
4.76084e-05
4.72572e-05
4.69699e-05
4.67521e-05
3.32716e-05
1.25083e-05
6.32818e-06
4.41651e-06
3.5551e-06
3.19486e-06
3.51415e-06
4.26709e-07
1.72475e-09
1.69103e-09
4.33263e-07
8.74305e-06
6.59149e-06
6.40039e-06
7.95646e-06
1.29265e-05
2.35801e-05
4.72553e-05
4.73005e-05
4.75397e-05
4.7852e-05
4.81924e-05
4.85119e-05
4.87731e-05
4.89543e-05
4.90426e-05
4.90276e-05
4.89082e-05
4.86922e-05
4.83985e-05
4.80539e-05
4.76981e-05
4.73919e-05
4.72329e-05
4.73909e-05
3.47185e-05
1.36221e-05
6.31503e-06
4.22669e-06
3.54137e-06
3.40779e-06
3.64729e-06
4.28038e-07
1.72592e-09
1.70399e-09
4.36789e-07
8.95331e-06
7.13627e-06
6.41737e-06
7.77177e-06
1.20681e-05
2.35678e-05
4.69371e-05
4.72002e-05
4.75155e-05
4.78572e-05
4.82072e-05
4.85285e-05
4.87992e-05
4.90066e-05
4.91063e-05
4.90968e-05
4.89803e-05
4.87622e-05
4.84598e-05
4.8101e-05
4.77374e-05
4.74467e-05
4.73536e-05
4.77361e-05
3.42113e-05
1.36268e-05
6.39506e-06
4.39385e-06
3.70945e-06
3.29739e-06
3.64094e-06
4.35853e-07
1.76152e-09
1.69638e-09
4.35075e-07
9.03014e-06
6.62129e-06
6.33688e-06
7.83689e-06
1.25276e-05
2.42961e-05
4.71773e-05
4.72972e-05
4.75329e-05
4.7846e-05
4.81975e-05
4.85285e-05
4.87986e-05