/*--------------------------------*- C++ -*----------------------------------*\
  =========                 |
  \\      /  F ield         | OpenFOAM: The Open Source CFD Toolbox
   \\    /   O peration     | Website:  https://openfoam.org
    \\  /    A nd           | Version:  13
     \\/     M anipulation  |
\*---------------------------------------------------------------------------*/
FoamFile
{
    format      ascii;
    class       volScalarField;
    location    "4";
    object      omega;
}
// * * * * * * * * * * * * * * * * * * * * * * * * * * * * * * * * * * * * * //

dimensions      [0 0 -1 0 0 0 0];

internalField   nonuniform List<scalar> 
78750
(
678.67
75.4078
15.1502
15.1502
15.1502
15.1502
15.1502
15.1502
15.1502
15.1502
15.1502
15.1502
15.1502
15.1502
15.1502
15.1502
15.1502
15.1502
15.1502
15.1502
15.1502
15.1502
15.1502
15.1502
15.1502
15.1502
15.1502
15.1502
15.1502
15.1502
15.1502
15.1502
15.1502
75.4078
678.67
678.67
75.4078
2.66272
3.15302
3.18899
3.15429
2.66272
2.66272
2.66272
2.66272
2.66272
2.66272
2.66272
2.66272
2.66272
2.66272
2.66272
2.66272
2.66272
2.66272
2.66272
2.66272
2.66272
2.66272
2.66272
2.66272
2.66272
2.66272
2.66272
2.66272
3.1795
2.66272
2.66272
75.4078
678.67
678.67
75.4078
2.66272
2.66272
3.23707
3.17067
2.66272
2.66272
2.66272
2.66272
2.66272
2.66272
2.66272
2.66272
2.66272
2.66272
2.66272
2.66272
3.12537
3.13539
3.14267
3.14677
3.14551
3.13854
3.12825
2.66272
2.66272
2.66272
2.66272
2.66272
2.66272
2.66272
2.66272
75.4078
678.67
678.67
75.4078
2.66272
2.66272
3.37536
3.41593
3.29537
3.16515
3.13039
2.66272
2.66272
2.66272
2.66272
3.12937
3.15477
3.18089
3.20485
3.22476
3.23944
3.2482
3.25034
3.24431
3.22928
3.20868
3.1845
3.15984
3.13828
3.12294
3.12055
3.1527
3.14187
3.14169
2.66272
75.4078
678.67
678.67
75.4078
2.66272
2.66272
2.66272
2.66272
2.66272
3.13557
2.66272
2.66272
2.66272
2.66272
3.14088
3.16927
3.19868
3.22597
3.2489
3.26592
3.27611
3.27899
3.27336
3.25855
3.23785
3.21277
3.18585
3.16179
3.1467
3.14736
3.17476
3.21418
3.17411
3.15568
3.17255
75.4078
678.67
678.67
75.4078
2.66272
2.66272
3.12344
3.12369
2.66272
2.66272
2.66272
2.66272
2.66272
3.12987
3.15508
3.18407
3.21315
3.23944
3.26077
3.27569
3.28346
3.28207
3.27073
3.25248
3.22858
3.20103
3.17269
3.14755
3.13045
3.12584
3.14858
3.26069
3.31954
3.2343
3.18951
75.4078
678.67
678.67
75.4078
2.66272
3.23841
3.15454
3.14584
3.12575
2.66272
2.66272
2.66272
2.66272
3.13604
3.16327
3.1929
3.22161
3.24679
3.2664
3.27911
3.28426
3.27983
3.26623
3.24595
3.22062
3.1927
3.16579
3.14468
3.13421
3.13613
3.15684
3.21554
3.28572
3.23753
3.17772
75.4078
678.67
678.67
75.4078
2.66272
3.20175
3.15605
3.17388
3.15583
3.12769
2.66272
2.66272
3.12165
3.1429
3.17028
3.19966
3.22762
3.25156
3.26952
3.28022
3.28307
3.27664
3.26142
3.23951
3.21286
3.18427
3.15776
3.13907
3.13525
3.15488
3.22281
3.29927
3.26828
3.21
3.15105
75.4078
678.67
678.67
75.4078
2.66272
3.22449
3.19115
3.21522
3.1912
3.15311
3.12958
2.66272
3.12713
3.1474
3.17475
3.20411
3.23175
3.25502
3.27205
3.28162
3.28308
3.27592
3.25988
3.23717
3.20981
3.18055
3.15325
3.13272
3.12331
3.12575
3.14653
3.19506
3.21306
3.1751
2.66272
75.4078
678.67
678.67
75.4078
2.66272
2.66272
3.21077
3.20672
3.19138
3.15654
3.13337
3.12451
3.13238
3.15302
3.18031
3.2093
3.23634
3.25884
3.27496
3.28354
3.28405
3.27634
3.25994
3.23652
3.20846
3.17908
3.15263
3.13497
3.13228
3.14573
3.15738
2.66272
3.12849
3.14702
2.66272
75.4078
678.67
678.67
75.4078
2.66272
3.17956
3.34506
3.31331
3.22614
3.1692
3.13443
3.12498
3.13423
3.15603
3.184
3.21325
3.24022
3.26239
3.27799
3.28596
3.28557
3.277
3.26011
3.23615
3.20812
3.17933
3.15481
3.1442
3.1671
3.24648
3.42733
3.53911
3.23065
3.16393
2.66272
75.4078
678.67
678.67
75.4078
2.66272
3.19956
3.45948
3.42618
3.2159
3.15013
3.12187
2.66272
3.13352
3.1584
3.18821
3.21856
3.2462
3.26873
3.28414
3.29122
3.28946
3.27908
3.26081
3.23602
3.2075
3.17832
3.15389
3.14393
3.16843
3.25284
3.45108
3.58673
3.27339
3.15771
2.66272
75.4078
678.67
678.67
75.4078
2.66272
3.29422
3.37553
3.32346
3.18552
3.18491
3.15062
3.13141
3.14109
3.1649
3.19433
3.22417
3.25095
3.27224
3.28624
3.29214
3.28963
3.27883
3.2605
3.23596
3.20751
3.17884
3.1552
3.14349
3.15147
3.19032
3.2679
3.33466
3.23964
3.1652
2.66272
75.4078
678.67
678.67
75.4078
2.66272
2.66272
2.66272
2.66272
3.15596
3.13833
3.12373
3.12544
3.14117
3.16649
3.19606
3.22561
3.25197
3.2728
3.28649
3.29237
3.28981
3.27892
3.26028
3.23522
3.20562
3.17435
3.14511
3.12109
2.66272
2.66272
2.66272
3.17491
3.19115
3.13716
2.66272
75.4078
678.67
678.67
75.4078
2.66272
2.66272
2.66272
3.13856
3.24646
3.19492
3.1527
3.13269
3.14248
3.16619
3.19528
3.22472
3.25111
3.27206
3.28592
3.29167
3.28878
3.27734
3.25834
3.23322
3.20413
3.17401
3.14633
3.12406
2.66272
2.66272
2.66272
2.66272
3.14153
3.12337
2.66272
75.4078
678.67
678.67
75.4078
2.66272
3.2464
3.14331
3.12529
2.66272
2.66272
2.66272
3.12165
3.14291
3.17006
3.20013
3.22999
3.25678
3.27792
3.29155
3.29676
3.29326
3.28121
3.26155
3.23569
3.20575
3.17472
3.14645
3.12574
2.66272
3.12309
3.15055
3.12715
3.17686
3.39047
2.66272
75.4078
678.67
678.67
75.4078
2.66272
3.22573
3.15079
3.14115
3.14149
3.12717
3.12355
3.13068
3.14811
3.17334
3.20269
3.23219
3.25873
3.27982
3.29324
3.29817
3.29446
3.28212
3.26211
3.23603
3.20633
3.17666
3.15219
3.1392
3.14262
3.16511
3.18506
3.13736
3.16388
3.3213
2.66272
75.4078
678.67
678.67
75.4078
2.66272
3.21823
3.15623
3.13914
3.13555
2.66272
2.66272
3.12312
3.14498
3.17312
3.20378
3.23351
3.25948
3.27951
3.29162
3.29574
3.2915
3.27878
3.25873
3.23299
3.20427
3.17613
3.15427
3.14623
3.15986
3.20544
3.2837
3.32506
3.26129
3.3074
3.19006
75.4078
678.67
678.67
75.4078
2.66272
3.1257
3.19438
3.36147
3.29764
3.20292
3.14061
3.13463
3.15003
3.17572
3.20525
3.23434
3.25992
3.27968
3.292
3.29619
3.29191
3.27927
3.25923
3.23337
3.20418
3.17544
3.15284
3.14445
3.15957
3.2115
3.31068
3.39941
3.37931
3.27981
2.66272
75.4078
678.67
678.67
75.4078
2.66272
3.15638
3.20246
3.38581
3.32188
3.21982
3.16415
3.14064
3.14983
3.17345
3.20234
3.23131
3.25687
3.27663
3.28903
3.29316
3.28868
3.27584
3.25558
3.22951
3.2001
3.17112
3.14849
3.1425
3.1732
3.26095
3.41954
3.26629
3.24455
3.17821
2.66272
75.4078
678.67
678.67
75.4078
2.66272
3.12013
3.15195
3.13666
2.66272
2.66272
2.66272
3.12584
3.14624
3.17311
3.2027
3.23181
3.25762
3.27797
3.2912
3.29602
3.29199
3.27951
3.25961
3.23392
3.20497
3.17652
3.15409
3.14539
3.15892
3.20723
3.29853
3.36907
3.34078
3.21639
3.12196
75.4078
678.67
678.67
75.4078
2.66272
3.12157
3.18431
3.19962
3.1714
3.13679
3.1269
3.13267
3.15004
3.17533
3.20429
3.2332
3.25893
3.2791
3.29243
3.29711
3.29283
3.28011
3.26
3.23415
3.20503
3.17609
3.15184
3.1374
3.13633
3.15295
3.20601
3.301
3.33735
3.22955
2.66272
75.4078
678.67
678.67
75.4078
2.66272
3.18128
3.21835
3.2183
3.19716
3.16081
3.14001
3.14013
3.15489
3.17945
3.20803
3.23619
3.26091
3.27994
3.2917
3.29512
3.29009
3.2771
3.2571
3.23161
3.20283
3.17384
3.14844
3.13015
3.12076
3.12007
3.14169
3.21267
3.27658
3.21586
3.13608
75.4078
678.67
678.67
75.4078
2.66272
3.32515
3.36925
3.17534
3.15406
3.12054
2.66272
3.12925
3.15099
3.17897
3.20905
3.23789
3.26279
3.28207
3.29438
3.29825
3.2935
3.28029
3.25983
3.2335
3.20363
3.17343
3.14612
3.12414
2.66272
2.66272
2.66272
3.12892
3.19295
3.18503
3.14646
75.4078
678.67
678.67
75.4078
2.66272
3.20424
3.1354
3.12784
3.15176
2.66272
2.66272
3.12796
3.14966
3.17768
3.20799
3.23721
3.26266
3.2825
3.29481
3.29864
3.29376
3.28051
3.25987
3.23344
3.20367
3.17354
3.14638
3.12487
2.66272
2.66272
2.66272
2.66272
3.13977
3.17466
3.14938
75.4078
678.67
678.67
75.4078
2.66272
2.66272
2.66272
3.14262
3.24478
3.1921
3.14083
3.13938
3.15621
3.18215
3.21123
3.23945
3.26391
3.28252
3.29361
3.29625
3.29017
3.27588
3.25451
3.22771
3.19793
3.16888
3.14644
3.14072
3.17185
3.25894
3.40945
3.20389
3.16586
3.17875
3.16123
75.4078
678.67
678.67
75.4078
2.66272
3.13216
3.14058
3.12559
2.66272
2.66272
3.12233
3.1361
3.15677
3.18321
3.21207
3.24001
3.26425
3.28262
3.29348
3.29611
3.29042
3.27656
3.25537
3.22879
3.19918
3.17007
3.14695
3.13958
3.16837
3.25146
3.38677
3.15341
3.12189
3.16892
3.14154
75.4078
678.67
678.67
75.4078
2.66272
2.66272
3.1283
2.66272
2.66272
2.66272
2.66272
3.13398
3.15487
3.18129
3.2101
3.23803
3.26235
3.28101
3.29266
3.29631
3.29132
3.27797
3.25746
3.23126
3.20177
3.17279
3.15071
3.14682
3.18414
3.29413
3.53766
3.69751
3.62151
3.23196
3.16588
75.4078
678.67
678.67
75.4078
2.66272
3.15086
3.1437
3.13411
3.12094
2.66272
3.12284
3.1364
3.15691
3.18301
3.21147
3.23899
3.26288
3.28112
3.29236
3.29561
3.29064
3.27783
3.25766
3.23148
3.20172
3.17153
3.14545
3.12835
3.12486
3.14324
3.2206
3.39542
3.44778
3.25317
2.66272
75.4078
678.67
678.67
75.4078
2.66272
3.14848
3.15059
3.15335
3.13763
3.12562
3.12848
3.14059
3.16082
3.18683
3.21498
3.24222
3.2658
3.28358
3.29426
3.29697
3.29144
3.27784
3.257
3.23078
3.20172
3.17329
3.14998
3.13718
3.13884
3.15939
3.2179
3.32054
3.37619
3.24712
2.66272
75.4078
678.67
678.67
75.4078
2.66272
3.25726
3.18968
3.19126
3.16043
3.13741
3.13473
3.14429
3.16353
3.18964
3.21867
3.24625
3.26986
3.28751
3.2979
3.30009
3.29366
3.2791
3.25778
3.23103
3.20115
3.17165
3.14601
3.12777
2.66272
2.66272
3.14325
3.2191
3.29049
3.22939
3.14492
75.4078
678.67
678.67
75.4078
2.66272
2.66272
3.1819
3.19885
3.1645
3.13726
3.13367
3.14344
3.1633
3.18984
3.21884
3.2466
3.27032
3.28801
3.29829
3.30035
3.29394
3.27957
3.2581
3.23084
3.20033
3.16961
3.14206
3.12125
2.66272
2.66272
2.66272
3.13346
3.19816
3.19856
2.66272
75.4078
678.67
678.67
75.4078
2.66272
3.14172
3.19522
3.19595
3.16702
3.1395
3.13505
3.14367
3.16209
3.18735
3.21554
3.24283
3.26636
3.28402
3.29446
3.29684
3.291
3.27745
3.25685
3.23056
3.20166
3.1743
3.15374
3.14731
3.16331
3.21259
3.29662
3.33169
3.24803
3.18307
2.66272
75.4078
678.67
678.67
75.4078
2.66272
3.15907
3.15339
3.17484
3.15527
3.12939
3.1281
3.14044
3.16172
3.18853
3.21713
3.2444
3.26773
3.28509
3.2952
3.29742
3.29153
3.27788
3.257
3.23045
3.20108
3.17258
3.14954
3.13683
3.1379
3.15676
3.21045
3.29199
3.30065
3.27327
3.14885
75.4078
678.67
678.67
75.4078
2.66272
3.29186
3.20607
3.2425
3.20693
3.15124
3.13827
3.14615
3.16576
3.19217
3.22069
3.24788
3.271
3.2881
3.29799
3.29961
3.29298
3.27841
3.25686
3.22981
3.20036
3.17157
3.1475
3.13246
3.12829
3.13554
3.16669
3.24346
3.31636
3.25439
2.66272
75.4078
678.67
678.67
75.4078
2.66272
3.22034
3.18572
3.25062
3.20949
3.14662
3.13442
3.14449
3.16532
3.19214
3.22093
3.24822
3.27137
3.28845
3.29817
3.29972
3.29297
3.27839
3.25694
3.23023
3.20072
3.17203
3.14934
3.13953
3.14909
3.1834
3.22603
3.21176
3.25164
3.25499
2.66272
75.4078
678.67
678.67
75.4078
2.66272
2.66272
3.19351
3.40094
3.3314
3.22136
3.15292
3.14833
3.16484
3.19032
3.2187
3.24587
3.26896
3.28596
3.29554
3.29706
3.29041
3.27599
3.25482
3.22844
3.19934
3.1713
3.14992
3.1431
3.15936
3.21017
3.29824
3.34433
3.27561
3.24266
3.13113
75.4078
678.67
678.67
75.4078
2.66272
2.66272
3.18356
3.35211
3.30016
3.21147
3.15311
3.15218
3.17026
3.19639
3.22498
3.25205
3.27488
3.2916
3.30106
3.30234
3.2953
3.2805
3.25897
3.23217
3.20238
3.17271
3.1475
3.13148
3.12928
3.14691
3.18919
3.16924
3.19379
3.18809
2.66272
75.4078
678.67
678.67
75.4078
2.66272
3.15773
3.17797
3.33196
3.28983
3.20931
3.15277
3.15243
3.17069
3.19688
3.22543
3.25244
3.27523
3.29193
3.30129
3.30252
3.29551
3.28075
3.25919
3.23244
3.20285
3.17421
3.15207
3.14536
3.17172
3.29221
3.5257
3.6229
3.28625
3.20287
2.66272
75.4078
678.67
678.67
75.4078
2.66272
3.26123
3.17125
3.12488
2.66272
2.66272
3.12158
3.14081
3.16543
3.19362
3.22267
3.24946
3.2719
3.28841
3.29765
3.2988
3.29173
3.27697
3.25551
3.22916
3.2006
3.17325
3.15222
3.14523
3.16046
3.21003
3.30045
3.36267
3.26021
3.176
2.66272
75.4078
678.67
678.67
75.4078
2.66272
2.66272
3.23618
3.24926
3.194
3.15416
3.1457
3.15333
3.17166
3.19668
3.22433
3.25102
3.27371
3.29023
3.29938
3.30038
3.29312
3.27816
3.25647
3.22957
3.19967
3.1696
3.14266
3.12231
2.66272
2.66272
3.1285
3.19197
3.19378
3.14508
2.66272
75.4078
678.67
678.67
75.4078
2.66272
3.18487
3.29872
3.28153
3.21129
3.16174
3.14872
3.15427
3.17188
3.19684
3.22457
3.25104
3.27348
3.28992
3.29908
3.30011
3.2929
3.27796
3.2562
3.22912
3.1993
3.17015
3.14538
3.12848
3.12054
2.66272
3.13475
3.17938
3.21831
3.20298
2.66272
75.4078
678.67
678.67
75.4078
2.66272
3.16486
3.28329
3.30534
3.24159
3.18179
3.15475
3.15506
3.17019
3.19356
3.22023
3.24619
3.26842
3.28485
3.29417
3.29559
3.289
3.27492
3.25423
3.22782
3.19816
3.16822
3.14152
3.12097
2.66272
2.66272
2.66272
3.14097
3.20718
3.24083
3.16514
75.4078
678.67
678.67
75.4078
2.66272
2.66272
3.1634
3.33249
3.29695
3.2149
3.1537
3.15211
3.16966
3.19498
3.22271
3.24897
3.27102
3.28711
3.29622
3.29749
3.29058
3.27602
3.25498
3.22875
3.19949
3.1708
3.14817
3.14179
3.17168
3.25838
3.40578
3.2
3.20925
3.19535
2.66272
75.4078
678.67
678.67
75.4078
2.66272
2.66272
2.66272
2.66272
2.66272
2.66272
3.12047
3.14284
3.16871
3.1972
3.22609
3.25265
3.27465
3.29057
3.29927
3.29986
3.29219
3.27718
3.25543
3.22869
3.19944
3.17147
3.151
3.14906
3.18916
3.30328
3.5459
3.63349
3.29184
3.19832
2.66272
75.4078
678.67
678.67
75.4078
2.66272
3.26558
3.16051
2.66272
2.66272
2.66272
3.12492
3.14499
3.16999
3.19805
3.22669
3.25316
3.27518
3.29105
3.29954
3.29998
3.29234
3.2772
3.25557
3.22912
3.20027
3.17241
3.14993
3.13794
3.13982
3.1592
3.21255
3.29941
3.3179
3.26964
3.12385
75.4078
678.67
678.67
75.4078
2.66272
2.66272
3.14712
3.17044
3.1549
3.13335
3.13516
3.14922
3.17081
3.19678
3.2245
3.25098
3.2732
3.28898
3.29735
3.29774
3.28997
3.27471
3.2532
3.22697
3.19821
3.17012
3.14662
3.13183
3.12749
3.13434
3.16781
3.25227
3.30896
3.29263
3.15634
75.4078
678.67
678.67
75.4078
2.66272
3.12322
3.20022
3.27142
3.21796
3.155
3.14276
3.15303
3.17386
3.19997
3.22777
3.25398
3.27613
3.29211
3.30074
3.30129
3.29375
3.27861
3.25661
3.2294
3.19919
3.16905
3.14226
3.12216
2.66272
2.66272
3.12102
3.19459
3.30288
3.29883
3.15899
75.4078
678.67
678.67
75.4078
2.66272
2.66272
3.18891
3.38616
3.32529
3.22456
3.16041
3.15798
3.17559
3.20118
3.22879
3.25446
3.27618
3.2923
3.30106
3.30161
3.29396
3.27873
3.25686
3.22992
3.20017
3.17135
3.14873
3.14029
3.16162
3.26649
3.42254
3.20579
3.20681
3.21818
3.12478
75.4078
678.67
678.67
75.4078
2.66272
3.15186
3.13927
2.66272
2.66272
2.66272
3.12696
3.14799
3.17277
3.20024
3.22821
3.25374
3.27457
3.28971
3.29765
3.29806
3.29058
3.27562
3.25418
3.22791
3.19918
3.17153
3.15047
3.14509
3.17315
3.29722
3.5347
3.6042
3.27729
3.21844
3.17144
75.4078
678.67
678.67
75.4078
2.66272
3.29239
3.2013
3.17426
3.14585
3.13506
3.14163
3.15575
3.17603
3.20046
3.22697
3.25248
3.27425
3.29034
3.29913
3.29992
3.29192
3.27615
3.25397
3.22706
3.19797
3.17018
3.14972
3.14756
3.18621
3.30001
3.54192
3.65469
3.30553
3.20093
2.66272
75.4078
678.67
678.67
75.4078
2.66272
3.19816
3.1617
3.15199
3.13413
3.13025
3.14068
3.1565
3.17762
3.20246
3.22912
3.25448
3.27566
3.2912
3.29984
3.30032
3.29238
3.27681
3.25468
3.22767
3.19813
3.16945
3.14618
3.13309
3.13187
3.14519
3.18597
3.24836
3.22994
3.17621
2.66272
75.4078
678.67
678.67
75.4078
2.66272
2.66272
3.13198
3.13552
2.66272
2.66272
3.13136
3.15197
3.17661
3.20363
3.23079
3.25587
3.27697
3.29196
3.29917
3.29851
3.29016
3.27441
3.25243
3.22593
3.19714
3.16936
3.14617
3.13128
3.12499
3.12606
3.14469
3.19577
3.22321
3.18235
2.66272
75.4078
678.67
678.67
75.4078
2.66272
2.66272
3.12803
2.66272
2.66272
2.66272
3.13112
3.15241
3.17667
3.20314
3.23032
3.25559
3.27662
3.29166
3.2996
3.29983
3.29215
3.27718
3.25568
3.22957
3.20074
3.17142
3.14471
3.12323
2.66272
2.66272
2.66272
3.15643
3.21108
3.2051
2.66272
75.4078
678.67
678.67
75.4078
2.66272
3.17135
3.14339
2.66272
2.66272
2.66272
3.13229
3.15285
3.17675
3.20315
3.23057
3.25611
3.27727
3.29235
3.30009
3.30003
3.29227
3.2773
3.256
3.2298
3.20076
3.17139
3.14456
3.12265
2.66272
2.66272
2.66272
3.15041
3.22739
3.2251
3.14269
75.4078
678.67
678.67
75.4078
2.66272
3.28722
3.15759
3.1265
2.66272
2.66272
3.13292
3.15247
3.17649
3.2029
3.23016
3.2556
3.27664
3.29167
3.29922
3.29861
3.29005
3.27431
3.25249
3.22623
3.19783
3.16957
3.14469
3.12681
2.66272
2.66272
2.66272
3.13589
3.18784
3.21291
3.15085
75.4078
678.67
678.67
75.4078
2.66272
3.28892
3.16454
3.14436
3.1507
3.13318
3.13806
3.15334
3.17574
3.20234
3.22999
3.25549
3.27663
3.29174
3.29938
3.29891
3.29083
3.27597
3.25498
3.22918
3.20087
3.1734
3.1513
3.13985
3.14162
3.1572
3.18706
3.20735
3.21091
3.19495
2.66272
75.4078
678.67
678.67
75.4078
2.66272
3.26178
3.18695
3.14495
2.66272
2.66272
3.13295
3.15216
3.17505
3.20057
3.22718
3.25218
3.27334
3.289
3.29805
3.2991
3.29171
3.2766
3.25486
3.22823
3.19946
3.1725
3.15289
3.14826
3.16713
3.22154
3.3096
3.35206
3.26536
3.20529
2.66272
75.4078
678.67
678.67
75.4078
2.66272
2.66272
3.18411
3.17566
3.13945
3.12981
3.13961
3.15651
3.17835
3.20323
3.22925
3.25369
3.27433
3.28955
3.2983
3.29916
3.2917
3.27663
3.25498
3.22821
3.19841
3.16866
3.14337
3.12882
3.13534
3.19453
3.14239
3.17789
3.20121
3.17273
2.66272
75.4078
678.67
678.67
75.4078
2.66272
2.66272
3.19381
3.19513
3.14479
3.12992
3.13959
3.15701
3.1796
3.20506
3.23175
3.25648
3.27683
3.29129
3.29854
3.29812
3.29001
3.27451
3.25282
3.22657
3.19754
3.16802
3.14107
2.66272
2.66272
2.66272
2.66272
3.12051
3.16074
3.17205
2.66272
75.4078
678.67
678.67
75.4078
2.66272
2.66272
3.18406
3.19957
3.15022
3.13024
3.13922
3.157
3.1807
3.2073
3.23414
3.2589
3.27953
3.29425
3.30155
3.301
3.29265
3.27708
3.25573
3.22947
3.20107
3.1742
3.15371
3.14556
3.15568
3.19581
3.2934
3.3224
3.23491
3.19901
3.16739
75.4078
678.67
678.67
75.4078
2.66272
2.66272
3.14965
3.18555
3.13792
3.12366
3.13604
3.15589
3.18051
3.20733
3.2345
3.25946
3.28008
3.29473
3.30196
3.30139
3.29307
3.27737
3.2555
3.22931
3.20134
3.17516
3.1555
3.14738
3.15273
3.17175
3.20825
3.24314
3.21829
3.17961
2.66272
75.4078
678.67
678.67
75.4078
2.66272
3.14033
3.17247
3.17344
3.14358
3.12954
3.13857
3.15673
3.18054
3.20701
3.23409
3.25906
3.27971
3.2944
3.30169
3.30118
3.29288
3.27719
3.25536
3.22922
3.20119
3.17445
3.15318
3.14271
3.1469
3.17143
3.2352
3.31204
3.34067
3.31449
2.66272
75.4078
678.67
678.67
75.4078
2.66272
3.18251
3.21145
3.27624
3.21965
3.15994
3.15039
3.16121
3.18198
3.20742
3.23415
3.25895
3.27946
3.29403
3.30118
3.30055
3.29214
3.27625
3.25394
3.22702
3.19777
3.16834
3.14124
3.1203
2.66272
2.66272
3.14391
3.25647
3.35607
3.33383
3.13781
75.4078
678.67
678.67
75.4078
2.66272
3.31177
3.24855
3.40439
3.32475
3.21787
3.16332
3.16333
3.18092
3.2051
3.23108
3.25531
3.27541
3.28969
3.29669
3.29611
3.28804
3.273
3.25227
3.22651
3.19762
3.16813
3.14098
2.66272
2.66272
2.66272
2.66272
3.17351
3.25294
3.2648
2.66272
75.4078
678.67
678.67
75.4078
2.66272
3.23126
3.17881
3.13827
2.66272
3.12345
3.14083
3.16154
3.18574
3.21132
3.23684
3.26025
3.27957
3.29303
3.29914
3.29762
3.28859
3.27259
3.25055
3.22395
3.1948
3.1657
3.13976
2.66272
2.66272
2.66272
2.66272
3.13414
3.19889
3.21585
2.66272
75.4078
678.67
678.67
75.4078
2.66272
2.66272
3.18684
3.19192
3.16016
3.14342
3.15013
3.16657
3.18881
3.21415
3.24072
3.26468
3.28425
3.29758
3.30312
3.30112
3.29207
3.27605
3.25418
3.22809
3.20003
3.17305
3.15104
3.13878
3.13772
3.14982
3.18517
3.21687
3.22888
3.2176
3.1579
75.4078
678.67
678.67
75.4078
2.66272
3.15924
3.18578
3.2282
3.20051
3.16096
3.15729
3.16913
3.19
3.2151
3.24124
3.26533
3.28498
3.29842
3.30398
3.3019
3.29267
3.27669
3.25493
3.22896
3.20089
3.17344
3.14988
3.13289
3.12376
3.12215
3.15135
3.22881
3.27932
3.25267
2.66272
75.4078
678.67
678.67
75.4078
2.66272
3.23527
3.16595
3.12875
2.66272
3.12156
3.14128
3.16279
3.18728
3.21324
3.23934
3.26366
3.28409
3.29848
3.30534
3.30465
3.29647
3.28112
3.25951
3.23362
3.2057
3.17811
3.15355
3.13474
3.12343
2.66272
3.14357
3.22354
3.29372
3.28602
2.66272
75.4078
678.67
678.67
75.4078
2.66272
2.66272
3.12909
3.12469
3.12453
3.12322
3.14254
3.16462
3.1897
3.2161
3.24256
3.26668
3.28685
3.30122
3.30847
3.30812
3.30016
3.28511
3.26366
3.23706
3.20769
3.17861
3.15237
3.13157
2.66272
2.66272
3.13039
3.20582
3.29926
3.27374
2.66272
75.4078
678.67
678.67
75.4078
2.66272
3.26717
3.17386
3.15678
3.23704
3.14661
3.14607
3.16367
3.18829
3.21517
3.24208
3.2667
3.28701
3.30153
3.30889
3.30865
3.3008
3.28573
3.26419
3.23748
3.20809
3.17885
3.15362
3.13772
3.13633
3.15981
3.23202
3.23818
3.28637
3.2797
2.66272
75.4078
678.67
678.67
75.4078
2.66272
3.30123
3.17923
3.16007
3.23477
3.14989
3.14818
3.16498
3.18908
3.2158
3.2425
3.26671
3.28672
3.3011
3.30837
3.30811
3.30029
3.28534
3.2641
3.2379
3.20866
3.17872
3.15094
3.12804
2.66272
2.66272
2.66272
3.16671
3.23947
3.2593
2.66272
75.4078
678.67
678.67
75.4078
2.66272
3.208
3.17695
3.15138
3.12435
3.12948
3.14622
3.16653
3.19053
3.21631
3.2423
3.26641
3.28653
3.30091
3.30829
3.30804
3.30011
3.28516
3.26406
3.23833
3.21015
3.18273
3.16085
3.15129
3.16119
3.20844
3.32625
3.36083
3.2981
3.26103
3.14844
75.4078
678.67
678.67
75.4078
2.66272
2.66272
3.13237
3.13978
3.13027
3.13556
3.15062
3.16916
3.19173
3.21663
3.24223
3.26577
3.28492
3.29827
3.30433
3.3031
3.29483
3.27973
3.25867
3.23318
3.20546
3.1786
3.15682
3.14488
3.14579
3.16608
3.23623
3.31889
3.31033
3.25438
2.66272
75.4078
678.67
678.67
75.4078
2.66272
2.66272
3.15766
3.15027
3.13059
3.13274
3.14799
3.16742
3.1909
3.21644
3.24219
3.26561
3.28476
3.29817
3.3044
3.30358
3.29583
3.28136
3.26091
3.23577
3.20772
3.17902
3.15248
3.13034
2.66272
2.66272
2.66272
3.17942
3.2385
3.21986
2.66272
75.4078
678.67
678.67
75.4078
2.66272
3.26567
3.17858
3.15004
3.13416
3.1293
3.14499
3.16503
3.18844
3.21381
3.23941
3.26311
3.28283
3.29706
3.30458
3.30479
3.29752
3.28346
3.2634
3.2387
3.21115
3.183
3.15678
3.13477
2.66272
2.66272
2.66272
3.1754
3.2411
3.24198
2.66272
75.4078
678.67
678.67
75.4078
2.66272
3.21764
3.14899
3.1479
3.22099
3.14849
3.1488
3.16541
3.1888
3.2146
3.24068
3.26463
3.28454
3.29897
3.30687
3.30736
3.30035
3.28649
3.26652
3.2417
3.21364
3.18442
3.15656
3.13206
2.66272
2.66272
2.66272
3.17447
3.25164
3.25667
2.66272
75.4078
678.67
678.67
75.4078
2.66272
2.66272
2.66272
2.66272
2.66272
3.12753
3.14791
3.16965
3.19345
3.21844
3.24376
3.26718
3.28674
3.30093
3.30864
3.30897
3.3018
3.28779
3.26766
3.24264
3.21438
3.18494
3.15687
3.13253
2.66272
2.66272
2.66272
3.17324
3.25976
3.28324
3.17302
75.4078
678.67
678.67
75.4078
2.66272
3.25802
3.16209
3.13304
3.12674
3.12999
3.14961
3.17197
3.1965
3.22242
3.24829
3.27185
3.2912
3.30508
3.31252
3.3127
3.30549
3.29152
3.27159
3.24704
3.21983
3.19283
3.17025
3.15709
3.15868
3.18642
3.25449
3.23648
3.26726
3.26903
2.66272
75.4078
678.67
678.67
75.4078
2.66272
3.25886
3.15448
3.13905
3.21492
3.14994
3.15398
3.17329
3.19848
3.22535
3.252
3.27636
3.29642
3.31091
3.31801
3.31755
3.30969
3.29487
3.27444
3.24998
3.22337
3.19738
3.17582
3.1632
3.16226
3.17965
3.23513
3.28431
3.30231
3.28777
2.66272
75.4078
678.67
678.67
75.4078
2.66272
2.66272
3.1253
2.66272
2.66272
3.1255
3.1477
3.17137
3.19778
3.22518
3.25217
3.27672
3.29704
3.31173
3.31958
3.31983
3.31243
3.29803
3.2778
3.25292
3.22468
3.19492
3.16611
3.14067
3.12021
2.66272
3.12447
3.20715
3.27774
3.27296
2.66272
75.4078
678.67
678.67
75.4078
2.66272
3.16544
3.16675
3.16493
3.12862
3.12766
3.14701
3.16969
3.19498
3.22154
3.24823
3.27279
3.29333
3.3084
3.31696
3.31804
3.31155
3.29817
3.27882
3.25459
3.22721
3.19903
3.17247
3.15046
3.13543
3.13033
3.16091
3.23171
3.28637
3.28197
2.66272
75.4078
678.67
678.67
75.4078
2.66272
3.30022
3.25158
3.39676
3.29206
3.17326
3.16093
3.17456
3.1974
3.22335
3.24978
3.27421
3.29478
3.31004
3.31901
3.32067
3.31492
3.30235
3.28363
3.25992
3.2329
3.20485
3.17827
3.15603
3.14026
3.13295
3.15228
3.22629
3.28335
3.2758
2.66272
75.4078
678.67
678.67
75.4078
2.66272
2.66272
3.21001
3.16531
3.13551
3.14044
3.15791
3.17953
3.20439
3.23038
3.25593
3.27937
3.29908
3.31363
3.32205
3.32329
3.31719
3.30434
3.28532
3.26124
3.23374
3.20521
3.17921
3.16128
3.16269
3.2245
3.49598
3.28791
3.28044
3.28294
3.18444
75.4078
678.67
678.67
75.4078
2.66272
3.19486
3.28419
3.21518
3.1607
3.15196
3.16364
3.1827
3.20665
3.23275
3.25911
3.28319
3.30321
3.31742
3.32549
3.32672
3.32082
3.30831
3.28975
3.26627
3.23958
3.21216
3.18777
3.17168
3.17026
3.19858
3.27905
3.26252
3.27556
3.25958
2.66272
75.4078
678.67
678.67
75.4078
2.66272
3.24135
3.32843
3.2281
3.15261
3.14037
3.15662
3.17923
3.20536
3.23264
3.25959
3.28391
3.30394
3.31819
3.32646
3.32787
3.32212
3.3097
3.29112
3.26733
3.23971
3.20995
3.18025
3.15263
3.12848
2.66272
2.66272
3.18693
3.25845
3.26745
2.66272
75.4078
678.67
678.67
75.4078
2.66272
3.36682
3.52925
3.46258
3.30441
3.17916
3.16523
3.17897
3.20251
3.22939
3.2567
3.28178
3.30278
3.31825
3.32775
3.33009
3.32512
3.31335
3.29527
3.2718
3.24427
3.21428
3.1838
3.15491
3.12848
2.66272
2.66272
3.16874
3.24448
3.25141
2.66272
75.4078
678.67
678.67
75.4078
2.66272
2.66272
3.16128
3.14404
3.12876
3.13819
3.1565
3.1783
3.20322
3.22981
3.25675
3.28173
3.30292
3.31899
3.32891
3.33153
3.32676
3.31515
3.29721
3.27387
3.24644
3.21651
3.18609
3.15735
3.13135
2.66272
2.66272
3.18088
3.26136
3.27014
3.12405
75.4078
678.67
678.67
75.4078
2.66272
3.18026
3.27252
3.2072
3.15774
3.15106
3.1628
3.18169
3.20541
3.23152
3.25822
3.28321
3.30458
3.32089
3.33109
3.33399
3.32954
3.31827
3.30068
3.2777
3.25062
3.22096
3.19069
3.16196
3.13584
2.66272
2.66272
3.18676
3.27232
3.28954
3.16178
75.4078
678.67
678.67
75.4078
2.66272
3.22641
3.31305
3.21814
3.15033
3.1416
3.15812
3.18041
3.20591
3.23287
3.25999
3.28514
3.30655
3.32284
3.33301
3.33589
3.33147
3.32038
3.30321
3.28108
3.25508
3.22632
3.19657
3.16799
3.14164
2.66272
3.12773
3.19934
3.28864
3.29099
2.66272
75.4078
678.67
678.67
75.4078
2.66272
3.3496
3.50776
3.44221
3.29323
3.17988
3.16926
3.18399
3.20766
3.2344
3.26158
3.28685
3.30841
3.32486
3.3352
3.33825
3.33398
3.32296
3.30577
3.28347
3.25739
3.22845
3.19823
3.1689
3.14164
2.66272
3.12665
3.1976
3.28874
3.29711
2.66272
75.4078
678.67
678.67
75.4078
2.66272
2.66272
3.13153
2.66272
2.66272
3.12955
3.15503
3.18098
3.2084
3.23631
3.2638
3.28909
3.31057
3.3269
3.33709
3.33993
3.33535
3.32393
3.30621
3.28318
3.25635
3.2268
3.19673
3.16822
3.14231
3.12137
3.13276
3.20425
3.28846
3.30436
2.66272
75.4078
678.67
678.67
75.4078
2.66272
2.66272
3.16592
3.1392
3.12318
3.13693
3.1589
3.18357
3.21053
3.23835
3.26584
3.29119
3.31276
3.32921
3.33952
3.34244
3.33789
3.3264
3.30842
3.28486
3.25706
3.22672
3.19604
3.16692
3.14047
2.66272
3.13285
3.2081
3.29734
3.32328
2.66272
75.4078
678.67
678.67
75.4078
2.66272
2.66272
3.16573
3.14014
3.12652
3.1399
3.16163
3.18623
3.21313
3.24087
3.26831
3.2936
3.31514
3.33159
3.34195
3.3449
3.34036
3.32888
3.31086
3.28716
3.25908
3.22826
3.19673
3.16676
3.13931
2.66272
3.13038
3.20664
3.29642
3.32257
3.13464
75.4078
678.67
678.67
75.4078
2.66272
2.66272
3.18179
3.14681
3.12912
3.14241
3.164
3.18834
3.21517
3.24296
3.27049
3.29593
3.31766
3.33437
3.34504
3.34837
3.34428
3.3333
3.31583
3.2927
3.26518
3.23485
3.20367
3.17378
3.14588
3.12309
3.13515
3.21147
3.3076
3.33767
3.20242
75.4078
678.67
678.67
75.4078
2.66272
2.66272
3.17174
3.14056
3.12872
3.1428
3.16508
3.18997
3.21712
3.24513
3.27279
3.29833
3.32016
3.33698
3.34779
3.35129
3.34741
3.3367
3.31955
3.29678
3.26965
3.23972
3.20891
3.17925
3.1514
3.12847
3.1405
3.21753
3.31949
3.32791
2.66272
75.4078
678.67
678.67
75.4078
2.66272
3.17049
3.25284
3.19302
3.15039
3.15085
3.16897
3.19243
3.21913
3.24714
3.27495
3.3007
3.32277
3.33986
3.35101
3.35486
3.3514
3.34113
3.3245
3.30233
3.27587
3.24661
3.21644
3.1874
3.16013
3.13836
3.15201
3.22891
3.32269
3.32637
2.66272
75.4078
678.67
678.67
75.4078
2.66272
3.18897
3.302
3.26275
3.18607
3.16865
3.17802
3.19775
3.22277
3.25002
3.27751
3.30313
3.32519
3.34235
3.35365
3.35775
3.35468
3.34507
3.32947
3.3089
3.28402
3.25589
3.22621
3.19687
3.16837
3.14467
3.157
3.23352
3.32831
3.34329
3.21157
75.4078
678.67
678.67
75.4078
2.66272
3.19241
3.26492
3.20208
3.15317
3.15566
3.17394
3.19729
3.22373
3.25161
3.2794
3.3052
3.32743
3.3448
3.35636
3.3608
3.35818
3.34905
3.33402
3.31419
3.28986
3.26209
3.23257
3.20361
3.17558
3.1513
3.15972
3.23133
3.32638
3.34312
2.66272
75.4078
678.67
678.67
75.4078
2.66272
3.33647
3.42008
3.18997
3.14153
3.15038
3.17253
3.19834
3.22599
3.25433
3.2823
3.30814
3.33031
3.34755
3.35891
3.36304
3.35995
3.35023
3.33442
3.3136
3.28847
3.26054
3.23187
3.20495
3.1794
3.16011
3.17528
3.2499
3.33652
3.36394
3.12567
75.4078
678.67
678.67
75.4078
2.66272
3.18315
3.22192
3.20632
3.15467
3.15882
3.17762
3.20165
3.22844
3.25651
3.2845
3.31048
3.33285
3.35029
3.36183
3.36606
3.36295
3.35298
3.3366
3.31471
3.28868
3.26025
3.23165
3.2043
3.1789
3.16177
3.18578
3.27024
3.35137
3.35938
2.66272
75.4078
678.67
678.67
75.4078
2.66272
3.33871
3.46907
3.37143
3.18216
3.16159
3.1769
3.20131
3.22907
3.25794
3.28637
3.31261
3.33517
3.3528
3.36454
3.36897
3.36602
3.35618
3.33988
3.318
3.29183
3.263
3.23357
3.20567
3.1799
3.16216
3.18454
3.26859
3.3538
3.36461
3.14568
75.4078
678.67
678.67
75.4078
2.66272
2.66272
2.66272
2.66272
2.66272
3.14525
3.17339
3.20152
3.23054
3.25986
3.2885
3.31492
3.33767
3.35553
3.36755
3.3723
3.36973
3.36027
3.34436
3.32284
3.29698
3.2684
3.23912
3.2113
3.18561
3.16941
3.19671
3.28836
3.38243
3.37441
2.66272
75.4078
678.67
678.67
75.4078
2.66272
3.14751
3.20823
3.15995
3.1448
3.15937
3.18121
3.20657
3.23424
3.26291
3.29122
3.31746
3.34013
3.35797
3.37005
3.3749
3.37248
3.36326
3.34767
3.32652
3.30105
3.27281
3.24364
3.21544
3.18836
3.16988
3.19458
3.28296
3.37564
3.36578
2.66272
75.4078
678.67
678.67
75.4078
2.66272
3.1755
3.19737
3.14744
3.14165
3.16045
3.18422
3.21033
3.23805
3.26629
3.2942
3.32025
3.34286
3.36077
3.37308
3.37836
3.37646
3.36779
3.35286
3.33251
3.30797
3.28072
3.25256
3.22528
3.19893
3.17988
3.19868
3.28249
3.37821
3.37489
3.14968
75.4078
678.67
678.67
75.4078
2.66272
3.27268
3.14322
2.66272
3.13512
3.16105
3.18716
3.21461
3.24354
3.27281
3.30115
3.32684
3.34844
3.36536
3.377
3.3818
3.3796
3.37078
3.35571
3.3352
3.31048
3.28308
3.25486
3.22766
3.20163
3.18381
3.20591
3.2875
3.38164
3.37589
2.66272
75.4078
678.67
678.67
75.4078
2.66272
3.22141
3.14579
3.12758
3.13848
3.16211
3.18755
3.21494
3.24399
3.27357
3.30259
3.32897
3.35085
3.36822
3.38045
3.38598
3.38453
3.37635
3.36192
3.34205
3.31793
3.29102
3.26315
3.2361