/*--------------------------------*- C++ -*----------------------------------*\
  =========                 |
  \\      /  F ield         | OpenFOAM: The Open Source CFD Toolbox
   \\    /   O peration     | Website:  https://openfoam.org
    \\  /    A nd           | Version:  13
     \\/     M anipulation  |
\*---------------------------------------------------------------------------*/
FoamFile
{
    format      ascii;
    class       volScalarField;
    location    "4";
    object      p;
}
// * * * * * * * * * * * * * * * * * * * * * * * * * * * * * * * * * * * * * //

dimensions      [0 2 -2 0 0 0 0];

internalField   nonuniform List<scalar> 
78750
(
0
7.65784e-05
5.4321e-05
-6.53964e-05
-0.000294491
-0.000513013
-0.000696636
-0.000841122
-0.000985095
-0.00114364
-0.00127505
-0.00138879
-0.00149891
-0.00160509
-0.00170681
-0.00180538
-0.00190131
-0.00199561
-0.00208797
-0.00217858
-0.00226728
-0.0023544
-0.00244009
-0.00252333
-0.00260587
-0.00267838
-0.002752
-0.00283604
-0.00290709
-0.00295247
-0.0029488
-0.00293039
-0.00285464
-0.00273059
-0.0026097
-0.147164
-0.147153
-0.147177
-0.147255
-0.147314
-0.147347
-0.147376
-0.1474
-0.147435
-0.147475
-0.147514
-0.147555
-0.147599
-0.147647
-0.147699
-0.147756
-0.147818
-0.147884
-0.147955
-0.14803
-0.148107
-0.148187
-0.148269
-0.148355
-0.148446
-0.148542
-0.148646
-0.148747
-0.148832
-0.148875
-0.148875
-0.148847
-0.148786
-0.148701
-0.148633
-0.292951
-0.29296
-0.292979
-0.293005
-0.29303
-0.293048
-0.293062
-0.293079
-0.293106
-0.293144
-0.293187
-0.293231
-0.293277
-0.293326
-0.293378
-0.293432
-0.293486
-0.29354
-0.293595
-0.293652
-0.293712
-0.293775
-0.293841
-0.293908
-0.293976
-0.294048
-0.294126
-0.294198
-0.294257
-0.294298
-0.294316
-0.294315
-0.294287
-0.294239
-0.294209
-0.438738
-0.438739
-0.438739
-0.438745
-0.438754
-0.438762
-0.438771
-0.438782
-0.438801
-0.438834
-0.438871
-0.438909
-0.438949
-0.43899
-0.43903
-0.439074
-0.43912
-0.439168
-0.439219
-0.439272
-0.439327
-0.439383
-0.43944
-0.439498
-0.439559
-0.439624
-0.439688
-0.439742
-0.439785
-0.439813
-0.439822
-0.439822
-0.439811
-0.439787
-0.439774
-0.584367
-0.584369
-0.584369
-0.584374
-0.58438
-0.584387
-0.584393
-0.5844
-0.584414
-0.584436
-0.584462
-0.584488
-0.584517
-0.584548
-0.584579
-0.584613
-0.584649
-0.584687
-0.584726
-0.584768
-0.584811
-0.584856
-0.584902
-0.584949
-0.584997
-0.585048
-0.585098
-0.585143
-0.585175
-0.585194
-0.585201
-0.585199
-0.585191
-0.585177
-0.585169
-0.729884
-0.729887
-0.729886
-0.729889
-0.729894
-0.729899
-0.729903
-0.729909
-0.72992
-0.72994
-0.729963
-0.729986
-0.73001
-0.730037
-0.730067
-0.730098
-0.73013
-0.730164
-0.7302
-0.730238
-0.730278
-0.730319
-0.730361
-0.730406
-0.730453
-0.7305
-0.730547
-0.730588
-0.730616
-0.730634
-0.730644
-0.730649
-0.730653
-0.730645
-0.730636
-0.875333
-0.875336
-0.875335
-0.875338
-0.875343
-0.875347
-0.87535
-0.875354
-0.875362
-0.875376
-0.875393
-0.875411
-0.875431
-0.875453
-0.875477
-0.875503
-0.875531
-0.87556
-0.875591
-0.875624
-0.875659
-0.875696
-0.875734
-0.875775
-0.875819
-0.875866
-0.875912
-0.875952
-0.87598
-0.876001
-0.876015
-0.876021
-0.876016
-0.876013
-0.876012
-1.02069
-1.02069
-1.02069
-1.02069
-1.02069
-1.0207
-1.0207
-1.0207
-1.02071
-1.02072
-1.02073
-1.02075
-1.02076
-1.02078
-1.0208
-1.02081
-1.02083
-1.02086
-1.02088
-1.0209
-1.02093
-1.02095
-1.02098
-1.02101
-1.02104
-1.02106
-1.02109
-1.02112
-1.02114
-1.02114
-1.02115
-1.02115
-1.02114
-1.02112
-1.02112
-1.166
-1.16601
-1.16601
-1.16601
-1.16601
-1.16602
-1.16602
-1.16602
-1.16602
-1.16603
-1.16604
-1.16605
-1.16606
-1.16607
-1.16609
-1.1661
-1.16611
-1.16613
-1.16614
-1.16616
-1.16618
-1.16619
-1.16621
-1.16623
-1.16624
-1.16626
-1.16628
-1.16629
-1.16629
-1.16629
-1.16629
-1.16629
-1.16631
-1.16631
-1.16631
-1.31127
-1.31127
-1.31127
-1.31127
-1.31127
-1.31128
-1.31128
-1.31128
-1.31128
-1.31129
-1.31129
-1.3113
-1.31131
-1.31132
-1.31133
-1.31134
-1.31135
-1.31136
-1.31137
-1.31139
-1.3114
-1.31141
-1.31142
-1.31144
-1.31145
-1.31147
-1.31148
-1.31149
-1.31149
-1.3115
-1.3115
-1.3115
-1.31149
-1.31149
-1.3115
-1.4565
-1.45651
-1.45651
-1.45651
-1.45651
-1.45651
-1.45651
-1.45651
-1.45651
-1.45652
-1.45652
-1.45653
-1.45653
-1.45654
-1.45655
-1.45655
-1.45656
-1.45657
-1.45658
-1.45659
-1.4566
-1.45661
-1.45662
-1.45663
-1.45664
-1.45666
-1.45667
-1.45668
-1.45669
-1.45669
-1.4567
-1.4567
-1.45669
-1.45667
-1.45667
-1.60169
-1.6017
-1.60169
-1.60169
-1.6017
-1.6017
-1.6017
-1.6017
-1.6017
-1.60171
-1.60171
-1.60172
-1.60172
-1.60173
-1.60173
-1.60174
-1.60174
-1.60175
-1.60176
-1.60176
-1.60177
-1.60178
-1.60179
-1.60179
-1.6018
-1.60181
-1.60182
-1.60183
-1.60184
-1.60184
-1.60184
-1.60184
-1.60185
-1.60185
-1.60186
-1.74687
-1.74687
-1.74686
-1.74687
-1.74687
-1.74687
-1.74687
-1.74687
-1.74688
-1.74688
-1.74688
-1.74689
-1.74689
-1.7469
-1.7469
-1.74691
-1.74691
-1.74692
-1.74692
-1.74692
-1.74693
-1.74693
-1.74694
-1.74694
-1.74695
-1.74695
-1.74695
-1.74695
-1.74695
-1.74695
-1.74694
-1.74694
-1.74694
-1.74694
-1.74696
-1.89202
-1.89202
-1.89202
-1.89202
-1.89202
-1.89203
-1.89203
-1.89203
-1.89203
-1.89203
-1.89204
-1.89204
-1.89205
-1.89205
-1.89206
-1.89206
-1.89207
-1.89207
-1.89208
-1.89209
-1.89209
-1.8921
-1.8921
-1.89211
-1.89212
-1.89212
-1.89213
-1.89214
-1.89214
-1.89214
-1.89214
-1.89214
-1.89214
-1.89212
-1.89211
-2.03717
-2.03717
-2.03717
-2.03718
-2.03718
-2.03718
-2.03718
-2.03718
-2.03718
-2.03719
-2.03719
-2.03719
-2.0372
-2.0372
-2.03721
-2.03721
-2.03721
-2.03722
-2.03722
-2.03723
-2.03724
-2.03724
-2.03725
-2.03725
-2.03726
-2.03727
-2.03728
-2.03729
-2.03729
-2.03729
-2.0373
-2.03731
-2.03731
-2.03731
-2.03733
-2.1823
-2.18231
-2.18231
-2.18231
-2.18231
-2.18232
-2.18232
-2.18232
-2.18232
-2.18232
-2.18233
-2.18233
-2.18233
-2.18234
-2.18234
-2.18235
-2.18235
-2.18236
-2.18236
-2.18237
-2.18238
-2.18238
-2.18239
-2.1824
-2.1824
-2.18241
-2.18242
-2.18242
-2.18242
-2.18242
-2.18242
-2.18242
-2.18242
-2.18242
-2.18243
-2.32743
-2.32744
-2.32744
-2.32744
-2.32744
-2.32745
-2.32745
-2.32745
-2.32745
-2.32746
-2.32746
-2.32746
-2.32747
-2.32747
-2.32747
-2.32748
-2.32748
-2.32748
-2.32749
-2.32749
-2.32749
-2.3275
-2.3275
-2.3275
-2.3275
-2.3275
-2.32751
-2.32751
-2.3275
-2.3275
-2.32749
-2.32749
-2.3275
-2.32749
-2.32751
-2.47259
-2.47259
-2.47259
-2.47259
-2.47259
-2.47259
-2.47259
-2.47259
-2.4726
-2.4726
-2.4726
-2.4726
-2.47261
-2.47261
-2.47262
-2.47262
-2.47262
-2.47263
-2.47263
-2.47263
-2.47264
-2.47264
-2.47265
-2.47265
-2.47265
-2.47266
-2.47266
-2.47266
-2.47266
-2.47266
-2.47266
-2.47266
-2.47268
-2.47267
-2.4727
-2.61775
-2.61775
-2.61774
-2.61774
-2.61774
-2.61774
-2.61774
-2.61774
-2.61775
-2.61775
-2.61775
-2.61775
-2.61776
-2.61776
-2.61777
-2.61777
-2.61777
-2.61778
-2.61778
-2.61779
-2.61779
-2.6178
-2.61781
-2.61781
-2.61782
-2.61783
-2.61784
-2.61785
-2.61785
-2.61785
-2.61786
-2.61786
-2.61786
-2.61784
-2.61784
-2.76289
-2.76289
-2.76288
-2.76288
-2.76289
-2.76289
-2.76289
-2.76289
-2.7629
-2.7629
-2.76291
-2.76291
-2.76292
-2.76292
-2.76292
-2.76293
-2.76293
-2.76294
-2.76294
-2.76295
-2.76295
-2.76296
-2.76296
-2.76297
-2.76297
-2.76298
-2.76299
-2.763
-2.763
-2.763
-2.76299
-2.763
-2.763
-2.76298
-2.76299
-2.90806
-2.90806
-2.90806
-2.90806
-2.90807
-2.90807
-2.90807
-2.90807
-2.90807
-2.90808
-2.90808
-2.90809
-2.9081
-2.9081
-2.90811
-2.90811
-2.90812
-2.90813
-2.90813
-2.90814
-2.90815
-2.90815
-2.90816
-2.90817
-2.90818
-2.90819
-2.9082
-2.90821
-2.90821
-2.90821
-2.90821
-2.90823
-2.90823
-2.90823
-2.90827
-3.05325
-3.05326
-3.05326
-3.05326
-3.05326
-3.05327
-3.05327
-3.05327
-3.05327
-3.05327
-3.05328
-3.05328
-3.05329
-3.05329
-3.0533
-3.05331
-3.05331
-3.05332
-3.05332
-3.05333
-3.05334
-3.05334
-3.05335
-3.05336
-3.05337
-3.05338
-3.05339
-3.0534
-3.0534
-3.05339
-3.0534
-3.0534
-3.0534
-3.05339
-3.05339
-3.19847
-3.19847
-3.19846
-3.19847
-3.19847
-3.19847
-3.19847
-3.19847
-3.19848
-3.19848
-3.19849
-3.19849
-3.1985
-3.19851
-3.19851
-3.19852
-3.19852
-3.19853
-3.19853
-3.19854
-3.19854
-3.19855
-3.19855
-3.19856
-3.19857
-3.19857
-3.19858
-3.19858
-3.19858
-3.19857
-3.19856
-3.19856
-3.19856
-3.19854
-3.19856
-3.34369
-3.3437
-3.34369
-3.3437
-3.3437
-3.3437
-3.3437
-3.34371
-3.34371
-3.34372
-3.34373
-3.34373
-3.34374
-3.34374
-3.34375
-3.34376
-3.34376
-3.34377
-3.34378
-3.34378
-3.34379
-3.3438
-3.34381
-3.34382
-3.34383
-3.34384
-3.34385
-3.34386
-3.34385
-3.34385
-3.34386
-3.34387
-3.34388
-3.34386
-3.34388
-3.48897
-3.48899
-3.48898
-3.48898
-3.48899
-3.48899
-3.48899
-3.48899
-3.48899
-3.48899
-3.489
-3.489
-3.489
-3.48901
-3.48901
-3.48902
-3.48902
-3.48903
-3.48904
-3.48904
-3.48905
-3.48906
-3.48907
-3.48907
-3.48908
-3.48909
-3.4891
-3.48911
-3.48911
-3.4891
-3.4891
-3.48911
-3.48912
-3.48911
-3.48911
-3.63426
-3.63427
-3.63426
-3.63426
-3.63426
-3.63427
-3.63426
-3.63426
-3.63427
-3.63427
-3.63427
-3.63427
-3.63428
-3.63428
-3.63428
-3.63429
-3.63429
-3.63429
-3.6343
-3.6343
-3.6343
-3.63431
-3.63431
-3.63432
-3.63432
-3.63433
-3.63433
-3.63434
-3.63434
-3.63434
-3.63434
-3.63434
-3.63434
-3.63431
-3.63431
-3.77955
-3.77956
-3.77955
-3.77955
-3.77956
-3.77956
-3.77956
-3.77956
-3.77956
-3.77956
-3.77957
-3.77957
-3.77957
-3.77958
-3.77958
-3.77958
-3.77959
-3.77959
-3.77959
-3.7796
-3.7796
-3.77961
-3.77961
-3.77961
-3.77962
-3.77962
-3.77963
-3.77964
-3.77964
-3.77963
-3.77963
-3.77964
-3.77965
-3.77964
-3.77965
-3.92486
-3.92487
-3.92486
-3.92486
-3.92487
-3.92487
-3.92487
-3.92487
-3.92487
-3.92488
-3.92488
-3.92489
-3.92489
-3.92489
-3.9249
-3.9249
-3.92491
-3.92491
-3.92491
-3.92492
-3.92492
-3.92492
-3.92493
-3.92493
-3.92493
-3.92494
-3.92494
-3.92495
-3.92495
-3.92494
-3.92494
-3.92494
-3.92494
-3.92492
-3.92494
-4.0702
-4.07022
-4.07021
-4.07021
-4.07021
-4.07022
-4.07022
-4.07022
-4.07022
-4.07022
-4.07023
-4.07023
-4.07024
-4.07024
-4.07024
-4.07025
-4.07025
-4.07026
-4.07026
-4.07027
-4.07027
-4.07028
-4.07028
-4.07029
-4.0703
-4.0703
-4.07032
-4.07032
-4.07032
-4.07031
-4.07032
-4.07033
-4.07034
-4.07033
-4.07034
-4.21556
-4.21557
-4.21557
-4.21557
-4.21557
-4.21557
-4.21557
-4.21557
-4.21557
-4.21558
-4.21558
-4.21558
-4.21559
-4.21559
-4.2156
-4.2156
-4.21561
-4.21561
-4.21562
-4.21563
-4.21563
-4.21564
-4.21565
-4.21566
-4.21567
-4.21568
-4.2157
-4.21571
-4.2157
-4.2157
-4.2157
-4.21571
-4.21572
-4.21573
-4.21577
-4.36093
-4.36094
-4.36093
-4.36093
-4.36093
-4.36094
-4.36094
-4.36094
-4.36094
-4.36094
-4.36095
-4.36095
-4.36095
-4.36096
-4.36096
-4.36097
-4.36097
-4.36098
-4.36098
-4.36099
-4.36099
-4.361
-4.36101
-4.36101
-4.36102
-4.36103
-4.36104
-4.36105
-4.36104
-4.36104
-4.36104
-4.36106
-4.36106
-4.36103
-4.36104
-4.5063
-4.50632
-4.50631
-4.50632
-4.50632
-4.50632
-4.50632
-4.50632
-4.50632
-4.50632
-4.50633
-4.50633
-4.50633
-4.50634
-4.50634
-4.50635
-4.50635
-4.50636
-4.50636
-4.50637
-4.50638
-4.50638
-4.50639
-4.5064
-4.50641
-4.50642
-4.50643
-4.50644
-4.50644
-4.50643
-4.50643
-4.50644
-4.50644
-4.50641
-4.50645
-4.65168
-4.6517
-4.65169
-4.65169
-4.65169
-4.6517
-4.6517
-4.65169
-4.6517
-4.6517
-4.6517
-4.65171
-4.65171
-4.65171
-4.65171
-4.65172
-4.65172
-4.65172
-4.65173
-4.65173
-4.65174
-4.65174
-4.65174
-4.65175
-4.65175
-4.65176
-4.65176
-4.65177
-4.65176
-4.65176
-4.65176
-4.65176
-4.65177
-4.65173
-4.65177
-4.79706
-4.79708
-4.79707
-4.79707
-4.79708
-4.79708
-4.79708
-4.79708
-4.79708
-4.79709
-4.79709
-4.7971
-4.7971
-4.7971
-4.79711
-4.79711
-4.79711
-4.79712
-4.79712
-4.79713
-4.79713
-4.79713
-4.79714
-4.79714
-4.79715
-4.79715
-4.79716
-4.79716
-4.79715
-4.79714
-4.79714
-4.79714
-4.79716
-4.79716
-4.79718
-4.94247
-4.94248
-4.94248
-4.94248
-4.94248
-4.94249
-4.94249
-4.94249
-4.94249
-4.9425
-4.9425
-4.9425
-4.94251
-4.94251
-4.94252
-4.94252
-4.94253
-4.94253
-4.94254
-4.94254
-4.94255
-4.94256
-4.94256
-4.94257
-4.94258
-4.94259
-4.9426
-4.9426
-4.94259
-4.94258
-4.94258
-4.94259
-4.94259
-4.94256
-4.9426
-5.08789
-5.0879
-5.08789
-5.08789
-5.0879
-5.0879
-5.0879
-5.0879
-5.0879
-5.08791
-5.08791
-5.08792
-5.08792
-5.08793
-5.08793
-5.08794
-5.08794
-5.08795
-5.08795
-5.08796
-5.08797
-5.08797
-5.08798
-5.08799
-5.088
-5.08801
-5.08802
-5.08803
-5.08802
-5.08801
-5.08802
-5.08803
-5.08803
-5.08801
-5.08803
-5.2333
-5.23332
-5.23332
-5.23332
-5.23332
-5.23332
-5.23332
-5.23333
-5.23333
-5.23334
-5.23334
-5.23334
-5.23335
-5.23335
-5.23336
-5.23336
-5.23337
-5.23337
-5.23338
-5.23339
-5.23339
-5.2334
-5.23341
-5.23342
-5.23343
-5.23344
-5.23345
-5.23346
-5.23346
-5.23346
-5.23346
-5.23347
-5.23348
-5.23344
-5.23346
-5.37874
-5.37874
-5.37874
-5.37874
-5.37874
-5.37874
-5.37874
-5.37875
-5.37875
-5.37875
-5.37876
-5.37876
-5.37877
-5.37877
-5.37878
-5.37878
-5.37879
-5.37879
-5.3788
-5.3788
-5.37881
-5.37882
-5.37883
-5.37884
-5.37885
-5.37886
-5.37887
-5.37888
-5.37888
-5.37887
-5.37888
-5.37889
-5.3789
-5.37887
-5.37888
-5.52417
-5.52418
-5.52417
-5.52417
-5.52418
-5.52418
-5.52418
-5.52418
-5.52419
-5.52419
-5.52419
-5.5242
-5.5242
-5.5242
-5.52421
-5.52421
-5.52422
-5.52422
-5.52423
-5.52423
-5.52424
-5.52424
-5.52425
-5.52425
-5.52426
-5.52426
-5.52427
-5.52428
-5.52428
-5.52427
-5.52427
-5.52428
-5.52428
-5.52429
-5.52436
-5.66959
-5.66962
-5.66962
-5.66962
-5.66962
-5.66962
-5.66962
-5.66962
-5.66962
-5.66962
-5.66963
-5.66963
-5.66963
-5.66964
-5.66964
-5.66965
-5.66965
-5.66965
-5.66966
-5.66966
-5.66967
-5.66968
-5.66968
-5.66969
-5.6697
-5.66971
-5.66972
-5.66973
-5.66973
-5.66972
-5.66973
-5.66975
-5.66976
-5.66972
-5.66976
-5.81506
-5.81507
-5.81505
-5.81506
-5.81506
-5.81506
-5.81506
-5.81506
-5.81506
-5.81507
-5.81507
-5.81508
-5.81508
-5.81509
-5.81509
-5.8151
-5.8151
-5.81511
-5.81512
-5.81512
-5.81513
-5.81514
-5.81515
-5.81516
-5.81517
-5.81518
-5.8152
-5.81521
-5.8152
-5.81519
-5.81519
-5.81519
-5.8152
-5.8152
-5.81525
-5.96049
-5.96051
-5.9605
-5.9605
-5.9605
-5.96051
-5.96051
-5.96051
-5.96051
-5.96051
-5.96052
-5.96052
-5.96053
-5.96053
-5.96053
-5.96054
-5.96054
-5.96055
-5.96055
-5.96056
-5.96056
-5.96057
-5.96058
-5.96059
-5.9606
-5.96061
-5.96062
-5.96063
-5.96062
-5.9606
-5.96061
-5.96062
-5.96063
-5.96058
-5.96059
-6.10595
-6.10597
-6.10597
-6.10597
-6.10597
-6.10597
-6.10597
-6.10597
-6.10597
-6.10598
-6.10598
-6.10598
-6.10599
-6.10599
-6.10599
-6.106
-6.106
-6.10601
-6.10601
-6.10602
-6.10602
-6.10603
-6.10603
-6.10604
-6.10605
-6.10605
-6.10606
-6.10607
-6.10606
-6.10604
-6.10605
-6.10606
-6.10609
-6.10611
-6.10617
-6.25142
-6.25144
-6.25142
-6.25142
-6.25142
-6.25143
-6.25143
-6.25143
-6.25144
-6.25144
-6.25145
-6.25145
-6.25146
-6.25146
-6.25146
-6.25147
-6.25147
-6.25148
-6.25148
-6.25149
-6.25149
-6.2515
-6.25151
-6.25151
-6.25152
-6.25152
-6.25154
-6.25155
-6.25155
-6.25154
-6.25155
-6.25155
-6.25155
-6.25151
-6.25155
-6.3969
-6.39692
-6.39691
-6.39692
-6.39692
-6.39692
-6.39692
-6.39692
-6.39692
-6.39693
-6.39693
-6.39694
-6.39694
-6.39695
-6.39695
-6.39695
-6.39696
-6.39696
-6.39697
-6.39697
-6.39698
-6.39698
-6.39699
-6.39699
-6.397
-6.397
-6.39702
-6.39703
-6.39703
-6.39702
-6.39702
-6.39702
-6.39703
-6.39699
-6.397
-6.54241
-6.54242
-6.54241
-6.54242
-6.54242
-6.54242
-6.54242
-6.54242
-6.54242
-6.54243
-6.54243
-6.54244
-6.54244
-6.54245
-6.54245
-6.54246
-6.54247
-6.54247
-6.54248
-6.54249
-6.5425
-6.54251
-6.54252
-6.54253
-6.54254
-6.54256
-6.54258
-6.54259
-6.54258
-6.54257
-6.54258
-6.5426
-6.54263
-6.54256
-6.54255
-6.6879
-6.68793
-6.68792
-6.68792
-6.68792
-6.68793
-6.68793
-6.68793
-6.68793
-6.68794
-6.68794
-6.68795
-6.68796
-6.68796
-6.68797
-6.68797
-6.68798
-6.68799
-6.688
-6.68801
-6.68802
-6.68803
-6.68804
-6.68806
-6.68807
-6.68809
-6.68811
-6.68812
-6.68811
-6.6881
-6.68811
-6.68812
-6.68813
-6.68812
-6.68815
-6.8334
-6.83344
-6.83344
-6.83344
-6.83344
-6.83344
-6.83345
-6.83345
-6.83345
-6.83345
-6.83346
-6.83346
-6.83347
-6.83347
-6.83348
-6.83349
-6.83349
-6.8335
-6.83351
-6.83351
-6.83352
-6.83353
-6.83354
-6.83355
-6.83356
-6.83358
-6.83359
-6.8336
-6.83359
-6.83358
-6.83357
-6.83358
-6.8336
-6.83355
-6.83359
-6.97895
-6.97898
-6.97897
-6.97897
-6.97897
-6.97898
-6.97898
-6.97898
-6.97899
-6.97899
-6.979
-6.979
-6.97901
-6.97901
-6.97902
-6.97902
-6.97903
-6.97903
-6.97904
-6.97905
-6.97905
-6.97906
-6.97907
-6.97908
-6.97909
-6.9791
-6.97912
-6.97913
-6.97913
-6.97912
-6.97913
-6.97915
-6.97918
-6.97916
-6.97919
-7.12451
-7.12454
-7.12453
-7.12453
-7.12453
-7.12453
-7.12453
-7.12453
-7.12453
-7.12454
-7.12454
-7.12454
-7.12455
-7.12455
-7.12456
-7.12456
-7.12457
-7.12457
-7.12458
-7.12458
-7.12459
-7.1246
-7.12461
-7.12461
-7.12462
-7.12463
-7.12465
-7.12466
-7.12466
-7.12466
-7.12468
-7.12469
-7.12468
-7.12466
-7.12469
-7.27007
-7.2701
-7.27009
-7.27009
-7.2701
-7.2701
-7.2701
-7.2701
-7.2701
-7.27011
-7.27011
-7.27012
-7.27012
-7.27012
-7.27013
-7.27013
-7.27014
-7.27014
-7.27015
-7.27015
-7.27016
-7.27016
-7.27017
-7.27017
-7.27018
-7.27019
-7.27021
-7.27022
-7.27022
-7.27021
-7.27021
-7.27022
-7.27022
-7.27017
-7.27019
-7.41565
-7.41569
-7.41569
-7.41569
-7.41569
-7.41569
-7.41569
-7.41569
-7.41569
-7.4157
-7.4157
-7.41571
-7.41571
-7.41572
-7.41572
-7.41572
-7.41573
-7.41574
-7.41574
-7.41575
-7.41576
-7.41576
-7.41577
-7.41578
-7.4158
-7.41581
-7.41583
-7.41584
-7.41583
-7.41582
-7.41583
-7.41585
-7.41587
-7.4158
-7.41583
-7.56127
-7.56131
-7.5613
-7.5613
-7.5613
-7.56131
-7.5613
-7.56131
-7.56131
-7.56132
-7.56132
-7.56133
-7.56133
-7.56134
-7.56134
-7.56135
-7.56135
-7.56136
-7.56137
-7.56138
-7.56138
-7.56139
-7.56141
-7.56142
-7.56143
-7.56145
-7.56147
-7.56148
-7.56147
-7.56146
-7.56146
-7.56148
-7.56149
-7.56149
-7.56155
-7.70692
-7.70695
-7.70694
-7.70695
-7.70695
-7.70695
-7.70695
-7.70695
-7.70695
-7.70696
-7.70696
-7.70697
-7.70697
-7.70697
-7.70698
-7.70698
-7.70699
-7.70699
-7.707
-7.707
-7.70701
-7.70701
-7.70702
-7.70703
-7.70703
-7.70704
-7.70705
-7.70706
-7.70704
-7.70702
-7.70703
-7.70703
-7.70704
-7.707
-7.70707
-7.85259
-7.85263
-7.85262
-7.85262
-7.85262
-7.85262
-7.85262
-7.85262
-7.85262
-7.85263
-7.85263
-7.85264
-7.85264
-7.85264
-7.85265
-7.85265
-7.85266
-7.85266
-7.85267
-7.85268
-7.85268
-7.85269
-7.8527
-7.85271
-7.85272
-7.85273
-7.85275
-7.85275
-7.85274
-7.85272
-7.85273
-7.85275
-7.85277
-7.8527
-7.85272
-7.99826
-7.9983
-7.99829
-7.99829
-7.9983
-7.9983
-7.9983
-7.9983
-7.99831
-7.99831
-7.99831
-7.99832
-7.99832
-7.99832
-7.99833
-7.99833
-7.99833
-7.99834
-7.99834
-7.99835
-7.99835
-7.99836
-7.99836
-7.99837
-7.99838
-7.99838
-7.9984
-7.9984
-7.99838
-7.99836
-7.99837
-7.99839
-7.99841
-7.99844
-7.99856
-8.14399
-8.14402
-8.144
-8.14401
-8.14401
-8.14401
-8.14401
-8.14401
-8.14402
-8.14402
-8.14403
-8.14403
-8.14404
-8.14404
-8.14405
-8.14405
-8.14405
-8.14406
-8.14406
-8.14407
-8.14407
-8.14408
-8.14408
-8.14409
-8.14409
-8.1441
-8.14411
-8.14411
-8.14409
-8.14407
-8.14408
-8.14409
-8.1441
-8.14406
-8.14412
-8.28972
-8.28976
-8.28974
-8.28975
-8.28975
-8.28975
-8.28975
-8.28975
-8.28975
-8.28976
-8.28976
-8.28977
-8.28978
-8.28978
-8.28979
-8.28979
-8.2898
-8.28981
-8.28981
-8.28982
-8.28983
-8.28984
-8.28985
-8.28986
-8.28987
-8.28988
-8.2899
-8.28992
-8.28991
-8.28989
-8.28989
-8.28989
-8.28991
-8.28985
-8.28991
-8.43547
-8.43552
-8.43551
-8.43552
-8.43552
-8.43552
-8.43552
-8.43552
-8.43552
-8.43553
-8.43553
-8.43554
-8.43554
-8.43555
-8.43555
-8.43556
-8.43557
-8.43557
-8.43558
-8.43559
-8.43559
-8.4356
-8.43561
-8.43562
-8.43563
-8.43564
-8.43566
-8.43566
-8.43565
-8.43563
-8.43564
-8.43565
-8.43567
-8.43564
-8.43568
-8.58127
-8.58131
-8.58129
-8.58129
-8.58129
-8.58129
-8.5813
-8.5813
-8.5813
-8.58131
-8.58131
-8.58132
-8.58133
-8.58134
-8.58134
-8.58135
-8.58136
-8.58137
-8.58138
-8.58139
-8.5814
-8.58142
-8.58143
-8.58145
-8.58146
-8.58149
-8.58151
-8.58153
-8.58152
-8.58151
-8.58154
-8.58158
-8.58159
-8.58149
-8.5815
-8.72705
-8.72709
-8.72708
-8.72708
-8.72709
-8.72709
-8.7271
-8.7271
-8.7271
-8.72711
-8.72712
-8.72712
-8.72713
-8.72714
-8.72714
-8.72715
-8.72716
-8.72717
-8.72718
-8.72719
-8.7272
-8.72721
-8.72722
-8.72724
-8.72725
-8.72727
-8.72729
-8.7273
-8.72729
-8.72727
-8.72727
-8.72728
-8.72729
-8.72729
-8.72738
-8.87286
-8.8729
-8.8729
-8.8729
-8.87291
-8.87291
-8.87291
-8.87291
-8.87291
-8.87292
-8.87293
-8.87293
-8.87294
-8.87294
-8.87295
-8.87295
-8.87296
-8.87297
-8.87297
-8.87298
-8.87299
-8.87299
-8.873
-8.87301
-8.87301
-8.87302
-8.87303
-8.87303
-8.87301
-8.87298
-8.87298
-8.87298
-8.87298
-8.87293
-8.87296
-9.01872
-9.01875
-9.01873
-9.01873
-9.01874
-9.01874
-9.01874
-9.01874
-9.01875
-9.01876
-9.01876
-9.01877
-9.01878
-9.01879
-9.01879
-9.0188
-9.01881
-9.01882
-9.01883
-9.01884
-9.01885
-9.01887
-9.01888
-9.0189
-9.01891
-9.01893
-9.01895
-9.01897
-9.01895
-9.01894
-9.01896
-9.01899
-9.01902
-9.01892
-9.01893
-9.16455
-9.16459
-9.16457
-9.16457
-9.16458
-9.16458
-9.16458
-9.16458
-9.16459
-9.1646
-9.1646
-9.16461
-9.16462
-9.16462
-9.16463
-9.16464
-9.16465
-9.16466
-9.16467
-9.16468
-9.16469
-9.1647
-9.16472
-9.16473
-9.16475
-9.16476
-9.16478
-9.16479
-9.16478
-9.16476
-9.16478
-9.16479
-9.1648
-9.1648
-9.16489
-9.31041
-9.31045
-9.31043
-9.31043
-9.31044
-9.31044
-9.31044
-9.31045
-9.31046
-9.31047
-9.31047
-9.31048
-9.31048
-9.31049
-9.3105
-9.31051
-9.31051
-9.31052
-9.31053
-9.31054
-9.31055
-9.31056
-9.31057
-9.31059
-9.3106
-9.31061
-9.31063
-9.31064
-9.31062
-9.3106
-9.31061
-9.31062
-9.31061
-9.31052
-9.31054
-9.45628
-9.45632
-9.4563
-9.45631
-9.45631
-9.45632
-9.45632
-9.45632
-9.45632
-9.45633
-9.45634
-9.45634
-9.45635
-9.45636
-9.45636
-9.45637
-9.45638
-9.45638
-9.45639
-9.4564
-9.45641
-9.45642
-9.45643
-9.45645
-9.45646
-9.45647
-9.45649
-9.45649
-9.45647
-9.45645
-9.45645
-9.45647
-9.45649
-9.45645
-9.45651
-9.60218
-9.60222
-9.6022
-9.6022
-9.6022
-9.60221
-9.60221
-9.60221
-9.60221
-9.60222
-9.60223
-9.60223
-9.60224
-9.60224
-9.60225
-9.60225
-9.60226
-9.60227
-9.60227
-9.60228
-9.60229
-9.6023
-9.6023
-9.60231
-9.60232
-9.60233
-9.60234
-9.60234
-9.60231
-9.60229
-9.60229
-9.60232
-9.60234
-9.60233
-9.60241
-9.74808
-9.74812
-9.7481
-9.7481
-9.7481
-9.74811
-9.7481
-9.74811
-9.74811
-9.74812
-9.74813
-9.74813
-9.74814
-9.74814
-9.74815
-9.74816
-9.74817
-9.74817
-9.74818
-9.74819
-9.7482
-9.74821
-9.74822
-9.74824
-9.74825
-9.74826
-9.74828
-9.74828
-9.74826
-9.74825
-9.74827
-9.74828
-9.74829
-9.74824
-9.74826
-9.89398
-9.89402
-9.894
-9.894
-9.89401
-9.89401
-9.89402
-9.89402
-9.89402
-9.89403
-9.89404
-9.89405
-9.89405
-9.89406
-9.89407
-9.89407
-9.89408
-9.89409
-9.8941
-9.89411
-9.89412
-9.89413
-9.89415
-9.89416
-9.89417
-9.89419
-9.8942
-9.89421
-9.89419
-9.89417
-9.89417
-9.89418
-9.89421
-9.89417
-9.89425
-10.0399
-10.0399
-10.0399
-10.0399
-10.0399
-10.0399
-10.0399
-10.0399
-10.0399
-10.0399
-10.04
-10.04
-10.04
-10.04
-10.04
-10.04
-10.04
-10.04
-10.04
-10.04
-10.04
-10.0401
-10.0401
-10.0401
-10.0401
-10.0401
-10.0401
-10.0401
-10.0401
-10.0401
-10.0401
-10.0401
-10.0402
-10.0401
-10.0401
-10.1858
-10.1859
-10.1858
-10.1858
-10.1858
-10.1859
-10.1859
-10.1859
-10.1859
-10.1859
-10.1859
-10.1859
-10.1859
-10.1859
-10.1859
-10.1859
-10.1859
-10.1859
-10.1859
-10.186
-10.186
-10.186
-10.186
-10.186
-10.186
-10.186
-10.1861
-10.1861
-10.1861
-10.186
-10.1861
-10.1861
-10.1861
-10.1861
-10.1862
-10.3317
-10.3318
-10.3318
-10.3318
-10.3318
-10.3318
-10.3318
-10.3318
-10.3318
-10.3318
-10.3318
-10.3318
-10.3318
-10.3318
-10.3318
-10.3318
-10.3318
-10.3318
-10.3319
-10.3319
-10.3319
-10.3319
-10.3319
-10.3319
-10.3319
-10.3319
-10.332
-10.332
-10.3319
-10.3319
-10.3319
-10.3319
-10.3319
-10.3318
-10.3319
-10.4777
-10.4777
-10.4777
-10.4777
-10.4777
-10.4777
-10.4777
-10.4777
-10.4777
-10.4777
-10.4777
-10.4777
-10.4777
-10.4777
-10.4777
-10.4777
-10.4778
-10.4778
-10.4778
-10.4778
-10.4778
-10.4778
-10.4778
-10.4778
-10.4778
-10.4778
-10.4778
-10.4778
-10.4778
-10.4778
-10.4778
-10.4778
-10.4779
-10.4778
-10.4778
-10.6236
-10.6236
-10.6236
-10.6236
-10.6236
-10.6236
-10.6236
-10.6236
-10.6236
-10.6236
-10.6236
-10.6236
-10.6237
-10.6237
-10.6237
-10.6237
-10.6237
-10.6237
-10.6237
-10.6237
-10.6237
-10.6237
-10.6237
-10.6238
-10.6238
-10.6238
-10.6238
-10.6238
-10.6238
-10.6238
-10.6238
-10.6238
-10.6238
-10.6238
-10.6239
-10.7695
-10.7695
-10.7695
-10.7695
-10.7695
-10.7695
-10.7695
-10.7695
-10.7696
-10.7696
-10.7696
-10.7696
-10.7696
-10.7696
-10.7696
-10.7696
-10.7696
-10.7696
-10.7696
-10.7696
-10.7697
-10.7697
-10.7697
-10.7697
-10.7697
-10.7697
-10.7697
-10.7697
-10.7697
-10.7697
-10.7697
-10.7697
-10.7697
-10.7697
-10.7697
-10.9154
-10.9155
-10.9154
-10.9154
-10.9155
-10.9155
-10.9155
-10.9155
-10.9155
-10.9155
-10.9155
-10.9155
-10.9155
-10.9155
-10.9155
-10.9155
-10.9155
-10.9155
-10.9155
-10.9156
-10.9156
-10.9156
-10.9156
-10.9156
-10.9156
-10.9156
-10.9156
-10.9156
-10.9156
-10.9156
-10.9156
-10.9156
-10.9157
-10.9156
-10.9157
-11.0613
-11.0614
-11.0614
-11.0614
-11.0614
-11.0614
-11.0614
-11.0614
-11.0614
-11.0614
-11.0614
-11.0614
-11.0614
-11.0614
-11.0614
-11.0614
-11.0615
-11.0615
-11.0615
-11.0615
-11.0615
-11.0615
-11.0615
-11.0616
-11.0616
-11.0616
-11.0616
-11.0616
-11.0616
-11.0616
-11.0616
-11.0616
-11.0616
-11.0615
-11.0616
-11.2073
-11.2073
-11.2073
-11.2073
-11.2073
-11.2073
-11.2073
-11.2073
-11.2073
-11.2073
-11.2073
-11.2073
-11.2073
-11.2073
-11.2073
-11.2074
-11.2074
-11.2074
-11.2074
-11.2074
-11.2074
-11.2074
-11.2074
-11.2075
-11.2075
-11.2075
-11.2075
-11.2075
-11.2075
-11.2075
-11.2075
-11.2075
-11.2075
-11.2075
-11.2075
-11.3532
-11.3532
-11.3532
-11.3532
-11.3532
-11.3532
-11.3532
-11.3532
-11.3532
-11.3532
-11.3532
-11.3532
-11.3532
-11.3532
-11.3533
-11.3533
-11.3533
-11.3533
-11.3533
-11.3533
-11.3533
-11.3533
-11.3533
-11.3533
-11.3534
-11.3534
-11.3534
-11.3534
-11.3534
-11.3533
-11.3534
-11.3534
-11.3534
-11.3533
-11.3535
-11.4991
-11.4991
-11.4991
-11.4991
-11.4991
-11.4991
-11.4991
-11.4991
-11.4991
-11.4991
-11.4991
-11.4991
-11.4991
-11.4992
-11.4992
-11.4992
-11.4992
-11.4992
-11.4992
-11.4992
-11.4992
-11.4992
-11.4993
-11.4993
-11.4993
-11.4993
-11.4993
-11.4993
-11.4993
-11.4993
-11.4993
-11.4993
-11.4993
-11.4993
-11.4994
-11.645
-11.645
-11.645
-11.645
-11.645
-11.645
-11.645
-11.645
-11.645
-11.645
-11.645
-11.6451
-11.6451
-11.6451
-11.6451
-11.6451
-11.6451
-11.6451
-11.6451
-11.6451
-11.6451
-11.6452
-11.6452
-11.6452
-11.6452
-11.6452
-11.6453
-11.6453
-11.6452
-11.6452
-11.6452
-11.6452
-11.6452
-11.6452
-11.6453
-11.7909
-11.7909
-11.7909
-11.7909
-11.7909
-11.7909
-11.7909
-11.7909
-11.7909
-11.7909
-11.7909
-11.7909
-11.791
-11.791
-11.791
-11.791
-11.791
-11.791
-11.791
-11.791
-11.791
-11.7911
-11.7911
-11.7911
-11.7911
-11.7911
-11.7912
-11.7912
-11.7911
-11.7911
-11.7912
-11.7912
-11.7912
-11.7911
-11.7911
-11.9368
-11.9368
-11.9368
-11.9368
-11.9368
-11.9368
-11.9368
-11.9368
-11.9368
-11.9368
-11.9368
-11.9368
-11.9368
-11.9368
-11.9369
-11.9369
-11.9369
-11.9369
-11.9369
-11.9369
-11.9369
-11.9369
-11.9369
-11.937
-11.937
-11.937
-11.937
-11.937
-11.937
-11.937
-11.937
-11.937
-11.937
-11.9371
-11.9372
-12.0826
-12.0827
-12.0827
-12.0827
-12.0827
-12.0827
-12.0827
-12.0827
-12.0827
-12.0827
-12.0827
-12.0827
-12.0827
-12.0827
-12.0827
-12.0827
-12.0828
-12.0828
-12.0828
-12.0828
-12.0828
-12.0828
-12.0828
-12.0828
-12.0829
-12.0829
-12.0829
-12.0829
-12.0829
-12.0829
-12.0829
-12.0829
-12.0829
-12.0828
-12.0829
-12.2285
-12.2286
-12.2285
-12.2286
-12.2286
-12.2286
-12.2286
-12.2286
-12.2286
-12.2286
-12.2286
-12.2286
-12.2286
-12.2286
-12.2286
-12.2286
-12.2286
-12.2287
-12.2287
-12.2287
-12.2287
-12.2287
-12.2287
-12.2287
-12.2287
-12.2288
-12.2288
-12.2288
-12.2288
-12.2287
-12.2288
-12.2288
-12.2288
-12.2288
-12.2288
-12.3744
-12.3744
-12.3744
-12.3744
-12.3744
-12.3744
-12.3744
-12.3744
-12.3744
-12.3744
-12.3745
-12.3745
-12.3745
-12.3745
-12.3745
-12.3745
-12.3745
-12.3745
-12.3745
-12.3746
-12.3746
-12.3746
-12.3746
-12.3746
-12.3747
-12.3747
-12.3747
-12.3747
-12.3747
-12.3747
-12.3747
-12.3747
-12.3748
-12.3747
-12.3747
-12.5202
-12.5203
-12.5203
-12.5203
-12.5203
-12.5203
-12.5203
-12.5203
-12.5203
-12.5203
-12.5203
-12.5203
-12.5203
-12.5203
-12.5204
-12.5204
-12.5204
-12.5204
-12.5204
-12.5204
-12.5204
-12.5205
-12.5205
-12.5205
-12.5205
-12.5205
-12.5206
-12.5206
-12.5206
-12.5205
-12.5206
-12.5206
-12.5206
-12.5206
-12.5206
-12.6661
-12.6661
-12.6661
-12.6661
-12.6661
-12.6661
-12.6661
-12.6661
-12.6661
-12.6662
-12.6662
-12.6662
-12.6662
-12.6662
-12.6662
-12.6662
-12.6662
-12.6662
-12.6663
-12.6663
-12.6663
-12.6663
-12.6663
-12.6663
-12.6664
-12.6664
-12.6664
-12.6664
-12.6664
-12.6663
-12.6664
-12.6664
-12.6664
-12.6663
-12.6664
-12.8119
-12.812
-12.812
-12.812
-12.812
-12.812
-12.812
-12.812
-12.812
-12.812
-12.812
-12.812
-12.812
-12.812
-12.8121
-12.8121
-12.8121
-12.8121
-12.8121
-12.8121
-12.8121
-12.8122
-12.8122
-12.8122
-12.8122
-12.8122
-12.8123
-12.8122
-12.8122
-12.8122
-12.8122
-12.8122
-12.8123
-12.8122
-12.8123
-12.9578
-12.9578
-12.9578
-12.9578
-12.9578
-12.9578
-12.9578
-12.9578
-12.9578
-12.9578
-12.9579
-12.9579
-12.9579
-12.9579
-12.9579
-12.9579
-12.9579
-12.9579
-12.9579
-12.958
-12.958
-12.958
-12.958
-12.958
-12.958
-12.9581
-12.9581
-12.9581
-12.9581
-12.9581
-12.9581
-12.9581
-12.9582
-12.958
-12.9581
-13.1036
-13.1037
-13.1036
-13.1036
-13.1036
-13.1037
-13.1037
-13.1037
-13.1037
-13.1037
-13.1037
-13.1037
-13.1037
-13.1037
-13.1037
-13.1037
-13.1037
-13.1038
-13.1038
-13.1038
-13.1038
-13.1038
-13.1038
-13.1039
-13.1039
-13.1039
-13.1039
-13.1039
-13.1039
-13.1038
-13.1039
-13.1039
-13.1039
-13.1039
-13.104
-13.2494
-13.2495
-13.2495
-13.2495
-13.2495
-13.2495
-13.2495
-13.2495
-13.2495
-13.2495
-13.2495
-13.2495
-13.2495
-13.2496
-13.2496
-13.2496
-13.2496
-13.2496
-13.2496
-13.2496
-13.2497
-13.2497
-13.2497
-13.2497
-13.2498
-13.2498
-13.2498
-13.2498
-13.2498
-13.2498
-13.2498
-13.2499
-13.2498
-13.2498
-13.2499
-13.3953
-13.3953
-13.3953
-13.3953
-13.3953
-13.3953
-13.3953
-13.3953
-13.3953
-13.3953
-13.3953
-13.3953
-13.3954
-13.3954
-13.3954
-13.3954
-13.3954
-13.3954
-13.3954
-13.3954
-13.3955
-13.3955
-13.3955
-13.3955
-13.3956
-13.3956
-13.3956
-13.3956
-13.3956
-13.3956
-13.3956
-13.3956
-13.3956
-13.3956
-13.3956
-13.5411
-13.5411
-13.5411
-13.5411
-13.5411
-13.5411
-13.5411
-13.5411
-13.5411
-13.5411