/*--------------------------------*- C++ -*----------------------------------*\
  =========                 |
  \\      /  F ield         | OpenFOAM: The Open Source CFD Toolbox
   \\    /   O peration     | Website:  https://openfoam.org
    \\  /    A nd           | Version:  13
     \\/     M anipulation  |
\*---------------------------------------------------------------------------*/
FoamFile
{
    format      ascii;
    class       surfaceScalarField;
    location    "4";
    object      phi;
}
// * * * * * * * * * * * * * * * * * * * * * * * * * * * * * * * * * * * * * //

dimensions      [0 3 -1 0 0 0 0];

internalField   nonuniform List<scalar> 
228225
(
-1.26126e-06
-1.99633e-06
-2.45347e-08
2.47067e-06
-3.70865e-06
-2.33766e-08
6.13186e-06
-3.60294e-06
-5.83899e-08
9.22928e-06
-3.02007e-06
-7.75775e-08
1.15008e-05
-2.18853e-06
-8.32934e-08
1.29658e-05
-1.36167e-06
-1.03758e-07
1.38124e-05
-7.05972e-07
-1.40951e-07
1.42541e-05
-2.74176e-07
-1.67843e-07
1.45241e-05
-9.11121e-08
-1.79246e-07
1.46723e-05
1.48955e-08
-1.63584e-07
1.47441e-05
7.05378e-08
-1.42808e-07
1.47843e-05
8.54138e-08
-1.26285e-07
1.48192e-05
8.26427e-08
-1.18128e-07
1.48596e-05
7.13857e-08
-1.12535e-07
1.49142e-05
4.8969e-08
-1.04239e-07
1.49811e-05
1.80067e-08
-8.56221e-08
1.50679e-05
-1.57174e-08
-7.17658e-08
1.51695e-05
-4.42748e-08
-5.80263e-08
1.52777e-05
-6.73517e-08
-4.15257e-08
1.53916e-05
-9.00583e-08
-2.45153e-08
1.55078e-05
-1.10157e-07
-6.68458e-09
1.56197e-05
-1.25845e-07
1.32711e-08
1.57238e-05
-1.37708e-07
3.30464e-08
1.58153e-05
-1.43954e-07
5.19059e-08
1.58887e-05
-1.41986e-07
6.79017e-08
1.5911e-05
-1.09094e-07
8.62592e-08
1.58821e-05
-6.96906e-08
9.82576e-08
1.57296e-05
3.83511e-08
1.13837e-07
1.54193e-05
1.8432e-07
1.25541e-07
1.47773e-05
5.05493e-07
1.36035e-07
1.363e-05
1.00365e-06
1.43091e-07
1.15532e-05
1.92859e-06
1.47722e-07
8.451e-06
2.94713e-06
1.5437e-07
4.15936e-06
4.13067e-06
1.60039e-07
4.04431e-06
1.15e-07
8.04558e-07
-2.83407e-06
3.43886e-08
1.95787e-06
-4.89351e-06
3.25213e-08
2.95457e-06
-4.6205e-06
2.18335e-08
3.59678e-06
-3.67468e-06
1.35362e-08
3.90987e-06
-2.52257e-06
2.21612e-08
3.97541e-06
-1.46367e-06
3.74369e-08
3.98483e-06
-7.54787e-07
4.00206e-08
4.11982e-06
-4.42868e-07
3.41552e-08
4.30488e-06
-3.02207e-07
2.64053e-08
4.53664e-06
-2.36569e-07
2.00631e-08
4.79374e-06
-2.04027e-07
1.77967e-08
5.05422e-06
-1.92382e-07
1.76183e-08
5.31236e-06
-1.94025e-07
1.87851e-08
5.56563e-06
-2.0339e-07
2.17181e-08
5.80745e-06
-2.18785e-07
2.6103e-08
6.03315e-06
-2.38961e-07
3.13834e-08
6.24269e-06
-2.62326e-07
3.71362e-08
6.44244e-06
-2.8721e-07
4.32036e-08
6.638e-06
-3.12579e-07
4.96315e-08
6.83026e-06
-3.38811e-07
5.64156e-08
7.02154e-06
-3.64965e-07
6.33942e-08
7.21495e-06
-3.89913e-07
7.04829e-08
7.41197e-06
-4.12631e-07
7.76693e-08
7.61331e-06
-4.30531e-07
8.49653e-08
7.81569e-06
-4.36789e-07
9.21245e-08
8.02589e-06
-4.18494e-07
9.88922e-08
8.21189e-06
-3.61739e-07
1.0572e-07
8.37076e-06
-2.33639e-07
1.12724e-07
8.41797e-06
1.62561e-08
1.20248e-07
8.33138e-06
4.59962e-07
1.31168e-07
7.89514e-06
1.29249e-06
1.46125e-07
6.87188e-06
2.78759e-06
1.62933e-07
4.83039e-06
4.81245e-06
1.7467e-07
1.98571e-06
6.80666e-06
1.67078e-07
5.92104e-06
1.0895e-07
2.30848e-07
-3.09682e-06
3.1275e-08
5.12306e-07
-5.19014e-06
1.46495e-08
7.5397e-07
-4.87009e-06
7.36662e-09
9.9628e-07
-3.92968e-06
1.20306e-08
1.25213e-06
-2.79379e-06
1.46262e-08
1.53119e-06
-1.75926e-06
1.58492e-08
1.79643e-06
-1.03451e-06
1.39721e-08
2.0307e-06
-6.88096e-07
1.05592e-08
2.26631e-06
-5.45764e-07
7.58394e-09
2.5007e-06
-4.77241e-07
5.89656e-09
2.73465e-06
-4.44073e-07
5.67029e-09
2.96572e-06
-4.30772e-07
6.86446e-09
3.19133e-06
-4.29232e-07
9.12352e-09
3.40912e-06
-4.33918e-07
1.22621e-08
3.61656e-06
-4.42825e-07
1.61333e-08
3.81107e-06
-4.54553e-07
2.05998e-08
3.99163e-06
-4.6903e-07
2.56491e-08
4.15858e-06
-4.85734e-07
3.1089e-08
4.3129e-06
-5.04074e-07
3.66993e-08
4.45536e-06
-5.24236e-07
4.25102e-08
4.58752e-06
-5.46099e-07
4.85249e-08
4.71117e-06
-5.68789e-07
5.47875e-08
4.82695e-06
-5.90203e-07
6.13742e-08
4.93418e-06
-6.06609e-07
6.84299e-08
5.03202e-06
-6.11163e-07
7.61666e-08
5.12247e-06
-5.9402e-07
8.47466e-08
5.20299e-06
-5.37642e-07
9.50453e-08
5.26232e-06
-4.01641e-07
1.08282e-07
5.24227e-06
-8.96691e-08
1.25467e-07
5.08618e-06
4.68433e-07
1.4683e-07
4.66365e-06
1.54342e-06
1.70604e-07
3.76479e-06
3.49424e-06
1.91329e-07
2.38773e-06
5.98522e-06
2.03391e-07
8.62644e-07
8.14098e-06
1.89694e-07
6.67433e-06
1.09305e-07
1.50799e-07
-3.26439e-06
1.60814e-08
4.05039e-07
-5.44459e-06
-3.96633e-10
6.71834e-07
-5.13128e-06
-6.27383e-09
9.39132e-07
-4.19212e-06
-5.6629e-09
1.2085e-06
-3.06375e-06
-3.74646e-10
1.47898e-06
-2.0348e-06
4.02694e-09
1.73075e-06
-1.29226e-06
5.14543e-09
1.94636e-06
-9.07853e-07
3.58815e-09
2.14335e-06
-7.44667e-07
1.4815e-09
2.33069e-06
-6.65141e-07
1.79775e-10
2.50912e-06
-6.23003e-07
1.30273e-10
2.67957e-06
-6.02699e-07
1.10678e-09
2.84261e-06
-5.95639e-07
2.98081e-09
2.99748e-06
-5.95091e-07
5.89428e-09
3.14349e-06
-5.98587e-07
9.33976e-09
3.28038e-06
-6.05175e-07
1.33202e-08
3.40769e-06
-6.1451e-07
1.77633e-08
3.52534e-06
-6.26414e-07
2.26114e-08
3.6338e-06
-6.40728e-07
2.7778e-08
3.73279e-06
-6.56863e-07
3.32213e-08
3.8219e-06
-6.74545e-07
3.89048e-08
3.90076e-06
-6.92895e-07
4.48146e-08
3.96893e-06
-7.09831e-07
5.10031e-08
4.02531e-06
-7.21041e-07
5.76033e-08
4.06794e-06
-7.1899e-07
6.47717e-08
4.09537e-06
-6.95101e-07
7.32297e-08
4.10062e-06
-6.2761e-07
8.42294e-08
4.08289e-06
-4.83027e-07
9.84855e-08
3.99968e-06
-1.25471e-07
1.18096e-07
3.76396e-06
5.59642e-07
1.4324e-07
3.27715e-06
1.85606e-06
1.7269e-07
2.45423e-06
4.11333e-06
2.02542e-07
1.40374e-06
6.81276e-06
2.21635e-07
4.17685e-07
8.91558e-06
2.09934e-07
6.97557e-06
1.16402e-07
1.31322e-07
-3.40311e-06
5.02024e-09
3.42822e-07
-5.64515e-06
-1.2761e-08
5.55694e-07
-5.32394e-06
-2.19788e-08
7.53897e-07
-4.37155e-06
-2.07448e-08
9.39652e-07
-3.23613e-06
-1.56073e-08
1.11957e-06
-2.20649e-06
-1.04364e-08
1.29211e-06
-1.45919e-06
-7.29806e-09
1.44866e-06
-1.0593e-06
-6.20571e-09
1.59332e-06
-8.84094e-07
-6.03602e-09
1.73165e-06
-7.98367e-07
-5.80783e-09
1.86577e-06
-7.52805e-07
-5.0028e-09
1.99539e-06
-7.29424e-07
-3.57084e-09
2.11933e-06
-7.18655e-07
-1.58595e-09
2.23701e-06
-7.14488e-07
1.05943e-09
2.34855e-06
-7.14975e-07
4.22013e-09
2.45415e-06
-7.19193e-07
7.81151e-09
2.55354e-06
-7.26261e-07
1.17715e-08
2.64649e-06
-7.35977e-07
1.60476e-08
2.7329e-06
-7.48272e-07
2.05792e-08
2.81309e-06
-7.62915e-07
2.53203e-08
2.8871e-06
-7.79328e-07
3.02415e-08
2.95466e-06
-7.96313e-07
3.5345e-08
3.01504e-06
-8.11408e-07
4.06847e-08
3.06684e-06
-8.19728e-07
4.63991e-08
3.1089e-06
-8.1421e-07
5.27112e-08
3.13821e-06
-7.85065e-07
6.02317e-08
3.15258e-06
-7.12401e-07
6.99692e-08
3.14431e-06
-5.57925e-07
8.25724e-08
3.07164e-06
-1.54764e-07
1.011e-07
2.8433e-06
6.61982e-07
1.24786e-07
2.38417e-06
2.16004e-06
1.53836e-07
1.72729e-06
4.58427e-06
1.84823e-07
9.72967e-07
7.35797e-06
2.07886e-07
2.46472e-07
9.43844e-06
2.02258e-07
7.1159e-06
1.06095e-07
9.91052e-08
-3.50367e-06
-2.76181e-09
2.5954e-07
-5.79132e-06
-1.73283e-08
4.34972e-07
-5.47704e-06
-2.522e-08
6.1472e-07
-4.52946e-06
-2.49352e-08
7.91611e-07
-3.39566e-06
-2.0778e-08
9.60983e-07
-2.36315e-06
-1.60343e-08
1.11378e-06
-1.6021e-06
-1.24392e-08
1.24302e-06
-1.17983e-06
-1.03735e-08
1.3586e-06
-9.91536e-07
-9.36155e-09
1.46799e-06
-9.00268e-07
-8.59797e-09
1.57323e-06
-8.51707e-07
-7.45728e-09
1.67441e-06
-8.2585e-07
-5.84489e-09
1.77039e-06
-8.11856e-07
-3.80269e-09
1.86054e-06
-8.04274e-07
-1.33677e-09
1.94472e-06
-8.01473e-07
1.38429e-09
2.02319e-06
-8.0318e-07
4.59605e-09
2.09639e-06
-8.08443e-07
8.09843e-09
2.16409e-06
-8.16366e-07
1.18343e-08
2.22613e-06
-8.26889e-07
1.57607e-08
2.28246e-06
-8.39871e-07
1.98319e-08
2.33309e-06
-8.54749e-07
2.4022e-08
2.37795e-06
-8.70247e-07
2.83264e-08
2.4168e-06
-8.83745e-07
3.27838e-08
2.44894e-06
-8.90007e-07
3.74847e-08
2.47439e-06
-8.82912e-07
4.26347e-08
2.49086e-06
-8.51014e-07
4.89134e-08
2.49755e-06
-7.76626e-07
5.69193e-08
2.48938e-06
-6.18161e-07
6.7575e-08
2.44084e-06
-1.9107e-07
8.36706e-08
2.27027e-06
7.26254e-07
1.04766e-07
1.92903e-06
2.36861e-06
1.31109e-07
1.42267e-06
4.93097e-06
1.58368e-07
7.09079e-07
7.89193e-06
1.78215e-07
9.12545e-08
9.88056e-06
1.74305e-07
7.11671e-06
9.03967e-08
8.99061e-08
-3.59193e-06
-6.83457e-09
2.21279e-07
-5.90471e-06
-2.16761e-08
3.54451e-07
-5.58432e-06
-2.93275e-08
4.85418e-07
-4.63529e-06
-2.87967e-08
6.1299e-07
-3.50261e-06
-2.46148e-08
7.37961e-07
-2.4723e-06
-1.96808e-08
8.55587e-07
-1.70723e-06
-1.55123e-08
9.58218e-07
-1.27187e-06
-1.2671e-08
1.04951e-06
-1.07345e-06
-1.09664e-08
1.13474e-06
-9.77211e-07
-9.71931e-09
1.21629e-06
-9.26252e-07
-8.36764e-09
1.29459e-06
-8.98697e-07
-6.75765e-09
1.36958e-06
-8.83245e-07
-4.86136e-09
1.44117e-06
-8.74392e-07
-2.67163e-09
1.5083e-06
-8.69539e-07
-2.00869e-10
1.57019e-06
-8.68578e-07
2.40577e-09
1.62749e-06
-8.72141e-07
5.32877e-09
1.68092e-06
-8.79257e-07
8.42585e-09
1.73041e-06
-8.89024e-07
1.16542e-08
1.77588e-06
-9.01281e-07
1.49805e-08
1.81734e-06
-9.15521e-07
1.83848e-08
1.85479e-06
-9.30465e-07
2.18662e-08
1.88809e-06
-9.43366e-07
2.54618e-08
1.91675e-06
-9.4872e-07
2.92661e-08
1.94033e-06
-9.40639e-07
3.34043e-08
1.9583e-06
-9.08202e-07
3.85275e-08
1.96983e-06
-8.34032e-07
4.51363e-08
1.97196e-06
-6.75166e-07
5.38067e-08
1.94347e-06
-2.30781e-07
6.66336e-08
1.78185e-06
8.01499e-07
8.44317e-08
1.37904e-06
2.66298e-06
1.0659e-07
8.14791e-07
5.36305e-06
1.30411e-07
3.48544e-07
8.20838e-06
1.47504e-07
2.94397e-08
1.00569e-05
1.40829e-07
7.07426e-06
7.18625e-08
5.65414e-08
-3.64597e-06
-7.77972e-09
1.52453e-07
-5.98442e-06
-1.9933e-08
2.55714e-07
-5.66399e-06
-2.70611e-08
3.59444e-07
-4.71581e-06
-2.6888e-08
4.60515e-07
-3.58421e-06
-2.3462e-08
5.58074e-07
-2.55447e-06
-1.92514e-08
6.49467e-07
-1.78622e-06
-1.54604e-08
7.26129e-07
-1.33807e-06
-1.25877e-08
7.95274e-07
-1.13351e-06
-1.07111e-08
8.60204e-07
-1.0343e-06
-9.2981e-09
9.21386e-07
-9.80938e-07
-7.88745e-09
9.78854e-07
-9.51169e-07
-6.33171e-09
1.03247e-06
-9.33561e-07
-4.58078e-09
1.08213e-06
-9.22673e-07
-2.61941e-09
1.12789e-06
-9.16022e-07
-4.53178e-10
1.16873e-06
-9.12444e-07
1.90318e-09
1.20361e-06
-9.12447e-07
4.34213e-09
1.23316e-06
-9.16842e-07
6.99323e-09
1.25804e-06
-9.24662e-07
9.75838e-09
1.278e-06
-9.34799e-07
1.26102e-08
1.29276e-06
-9.4673e-07
1.55416e-08
1.30204e-06
-9.59178e-07
1.85657e-08
1.30548e-06
-9.69346e-07
2.17329e-08
1.30272e-06
-9.71848e-07
2.51541e-08
1.29284e-06
-9.60425e-07
2.90102e-08
1.27396e-06
-9.23781e-07
3.38838e-08
1.24468e-06
-8.45635e-07
4.02658e-08
1.19525e-06
-6.75664e-07
4.90826e-08
1.09245e-06
-1.91622e-07
6.24501e-08
8.91895e-07
9.19878e-07
8.06483e-08
5.49348e-07
2.90305e-06
1.00824e-07
2.1115e-07
5.58001e-06
1.20047e-07
6.8404e-08
8.21549e-06
1.34615e-07
5.23085e-08
9.94035e-06
1.3147e-07
7.06055e-06
6.59727e-08
4.88488e-08
-3.69137e-06
-8.59991e-09
1.26842e-07
-6.04632e-06
-1.9706e-08
2.13655e-07
-5.72759e-06
-2.65652e-08
3.00128e-07
-4.77979e-06
-2.60356e-08
3.85416e-07
-3.65093e-06
-2.23828e-08
4.6707e-07
-2.62167e-06
-1.8169e-08
5.3956e-07
-1.84713e-06
-1.4544e-08
5.98515e-07
-1.3873e-06
-1.17856e-08
6.50751e-07
-1.17735e-06
-9.97537e-09
6.99492e-07
-1.07581e-06
-8.65255e-09
7.45376e-07
-1.02081e-06
-7.36704e-09
7.88436e-07
-9.89547e-07
-5.99397e-09
8.28539e-07
-9.70443e-07
-4.48652e-09
8.6552e-07
-9.58052e-07
-2.82856e-09
8.99297e-07
-9.4996e-07
-1.02485e-09
9.29876e-07
-9.45071e-07
9.10215e-10
9.56251e-07
-9.42871e-07
2.96233e-09
9.78164e-07
-9.44865e-07
5.05282e-09
9.96264e-07
-9.51063e-07
7.27464e-09
1.01036e-06
-9.59444e-07
9.56127e-09
1.02025e-06
-9.69482e-07
1.19038e-08
1.0257e-06
-9.79874e-07
1.43181e-08
1.02645e-06
-9.87825e-07
1.68562e-08
1.02223e-06
-9.88086e-07
1.96377e-08
1.01243e-06
-9.74258e-07
2.28853e-08
9.94821e-07
-9.33833e-07
2.69647e-08
9.67072e-07
-8.51037e-07
3.23645e-08
9.21223e-07
-6.70962e-07
3.99344e-08
8.37181e-07
-1.60841e-07
5.13889e-08
7.12849e-07
9.74501e-07
6.75809e-08
6.32471e-07
2.8938e-06
8.77592e-08
5.85855e-07
5.51801e-06
1.06807e-07
3.50427e-07
8.32969e-06
1.19474e-07
1.07161e-07
1.00654e-05
1.16757e-07
7.10949e-06
5.82125e-08
3.5837e-08
-3.72417e-06
-7.68644e-09
9.94e-08
-6.09706e-06
-1.60783e-08
1.6808e-07
-5.77649e-06
-2.27929e-08
2.31802e-07
-4.82363e-06
-2.30568e-08
2.8993e-07
-3.69229e-06
-2.01687e-08
3.47908e-07
-2.66644e-06
-1.651e-08
4.02997e-07
-1.89162e-06
-1.3232e-08
4.51977e-07
-1.42749e-06
-1.06313e-08
4.94869e-07
-1.21278e-06
-8.86372e-09
5.34043e-07
-1.10864e-06
-7.61285e-09
5.70703e-07
-1.05225e-06
-6.43377e-09
6.05047e-07
-1.01985e-06
-5.20636e-09
6.3701e-07
-9.99632e-07
-3.89103e-09
6.66483e-07
-9.86132e-07
-2.47061e-09
6.93386e-07
-9.7695e-07
-9.45955e-10
7.17693e-07
-9.71033e-07
6.7301e-10
7.39416e-07
-9.67899e-07
2.37731e-09
7.58398e-07
-9.68845e-07
4.11115e-09
7.74414e-07
-9.73852e-07
5.93111e-09
7.87592e-07
-9.81211e-07
7.79928e-09
7.98014e-07
-9.90348e-07
9.70917e-09
8.05701e-07
-9.99915e-07
1.16757e-08
8.10645e-07
-1.00712e-06
1.37435e-08
8.128e-07
-1.00678e-06
1.60087e-08
8.11698e-07
-9.92237e-07
1.8631e-08
8.05554e-07
-9.50042e-07
2.19802e-08
7.93318e-07
-8.65587e-07
2.64203e-08
7.72261e-07
-6.83028e-07
3.26373e-08
7.22891e-07
-1.54061e-07
4.19512e-08
6.23619e-07
1.01804e-06
5.51064e-08
4.97563e-07
2.9472e-06
7.22142e-08
3.56392e-07
5.56985e-06
8.90205e-08
2.1159e-07
8.37347e-06
1.00678e-07
6.10799e-08
1.01176e-05
9.78774e-08
7.12312e-06
4.74267e-08
2.60392e-08
-3.74771e-06
-6.48551e-09
7.46037e-08
-6.13406e-06
-1.43717e-08
1.21773e-07
-5.80589e-06
-2.03868e-08
1.76586e-07
-4.86066e-06
-2.05016e-08
2.27971e-07
-3.7287e-06
-1.78804e-08
2.76543e-07
-2.70314e-06
-1.46944e-08
3.22321e-07
-1.92783e-06
-1.18519e-08
3.6287e-07
-1.46008e-06
-9.54935e-09
3.98437e-07
-1.24164e-06
-7.92686e-09
4.30856e-07
-1.13539e-06
-6.77281e-09
4.61074e-07
-1.07782e-06
-5.71089e-09
4.89247e-07
-1.04443e-06
-4.61954e-09
5.15352e-07
-1.02327e-06
-3.46416e-09
5.39334e-07
-1.00885e-06
-2.22783e-09
5.61165e-07
-9.98807e-07
-9.08959e-10
5.80886e-07
-9.92137e-07
4.8499e-10
5.98635e-07
-9.88453e-07
1.94652e-09
6.13849e-07
-9.88324e-07
3.43218e-09
6.26378e-07
-9.92163e-07
4.98189e-09
6.36809e-07
-9.98982e-07
6.57247e-09
6.45089e-07
-1.00755e-06
8.19556e-09
6.51193e-07
-1.01658e-06
9.85955e-09
6.55138e-07
-1.02332e-06
1.15976e-08
6.56909e-07
-1.02266e-06
1.34857e-08
6.5615e-07
-1.00767e-06
1.56526e-08
6.51609e-07
-9.64385e-07
1.84172e-08
6.43153e-07
-8.79678e-07
2.20294e-08
6.29836e-07
-6.97604e-07
2.70766e-08
5.91949e-07
-1.52172e-07
3.48063e-08
4.88982e-07
1.07372e-06
4.59995e-08
2.81896e-07
3.09309e-06
6.00073e-08
8.00681e-08
5.69718e-06
7.34964e-08
2.15115e-08
8.3467e-06
8.449e-08
1.52065e-08
1.00391e-05
8.40451e-08
7.09936e-06
3.89806e-08
1.04789e-08
-3.75681e-06
-4.1271e-09
4.47042e-08
-6.1607e-06
-9.80693e-09
8.80518e-08
-5.83556e-06
-1.57348e-08
1.34654e-07
-4.8929e-06
-1.64936e-08
1.81386e-07
-3.76319e-06
-1.44944e-08
2.22857e-07
-2.73489e-06
-1.1927e-08
2.58892e-07
-1.95601e-06
-9.64913e-09
2.8982e-07
-1.48452e-06
-7.75361e-09
3.17604e-07
-1.26399e-06
-6.39824e-09
3.43279e-07
-1.15649e-06
-5.44102e-09
3.67223e-07
-1.09802e-06
-4.57038e-09
3.89525e-07
-1.06385e-06
-3.67141e-09
4.10199e-07
-1.04198e-06
-2.71936e-09
4.29222e-07
-1.0269e-06
-1.70255e-09
4.46598e-07
-1.01625e-06
-6.20622e-10
4.624e-07
-1.00911e-06
5.18435e-10
4.76809e-07
-1.00517e-06
1.70433e-09
4.89282e-07
-1.00429e-06
2.93147e-09
4.99696e-07
-1.00726e-06
4.17284e-09
5.08549e-07
-1.01375e-06
5.45304e-09
5.1581e-07
-1.02197e-06
6.75455e-09
5.21474e-07
-1.03066e-06
8.08234e-09
5.25562e-07
-1.03714e-06
9.46638e-09
5.28059e-07
-1.03632e-06
1.09749e-08
5.28593e-07
-1.02105e-06
1.27305e-08
5.27107e-07
-9.77937e-07
1.50049e-08
5.22301e-07
-8.92897e-07
1.80655e-08
5.09089e-07
-7.06616e-07
2.24032e-08
4.82365e-07
-1.54318e-07
2.92748e-08
4.21147e-07
1.09639e-06
3.91899e-08
3.12721e-07
3.15119e-06
5.10918e-08
2.10394e-07
5.73752e-06
6.25989e-08
1.62556e-07
8.32474e-06
7.05071e-08
4.58293e-08
1.00865e-05
7.00134e-08
7.11202e-06
3.3169e-08
5.86013e-09
-3.76089e-06
-3.59644e-09
2.01785e-08
-6.16722e-06
-9.43273e-09
6.77429e-08
-5.87023e-06
-1.44128e-08
1.03959e-07
-4.91594e-06
-1.47634e-08
1.3945e-07
-3.78749e-06
-1.29069e-08
1.72483e-07
-2.75897e-06
-1.06367e-08
2.03507e-07
-1.97978e-06
-8.60656e-09
2.31467e-07
-1.50657e-06
-6.86226e-09
2.56274e-07
-1.2839e-06
-5.61948e-09
2.79051e-07
-1.17516e-06
-4.77277e-09
3.00197e-07
-1.11578e-06
-4.01744e-09
3.19798e-07
-1.08083e-06
-3.23769e-09
3.37884e-07
-1.05825e-06
-2.41419e-09
3.54443e-07
-1.0425e-06
-1.53778e-09
3.69467e-07
-1.03122e-06
-6.08062e-10
3.82973e-07
-1.02352e-06
3.68158e-10
3.94993e-07
-1.01908e-06
1.38178e-09
4.05494e-07
-1.0177e-06
2.42738e-09
4.14325e-07
-1.02003e-06
3.48144e-09
4.21358e-07
-1.02577e-06
4.56172e-09
4.26675e-07
-1.03334e-06
5.65978e-09
4.3028e-07
-1.0414e-06
6.78297e-09
4.32132e-07
-1.04726e-06
7.96413e-09
4.32129e-07
-1.04585e-06
9.27536e-09
4.29769e-07
-1.02973e-06
1.08462e-08
4.24773e-07
-9.86025e-07
1.29318e-08
4.14734e-07
-8.98846e-07
1.5843e-08
3.90981e-07
-7.03078e-07
2.00338e-08
3.40913e-07
-1.30959e-07
2.65233e-08
2.70277e-07
1.13119e-06
3.57011e-08
2.34358e-07
3.14053e-06
4.65376e-08
1.83271e-07
5.73255e-06
5.60672e-08
1.09484e-07
8.3349e-06
6.37806e-08
5.15357e-08
1.00821e-05
6.25953e-08
7.13307e-06
3.0523e-08
1.08199e-08
-3.7699e-06
-2.95057e-09
3.63049e-08
-6.18636e-06
-7.33376e-09
7.454e-08
-5.89771e-06
-1.1802e-08
1.14868e-07
-4.94557e-06
-1.1799e-08
1.39058e-07
-3.80268e-06
-1.0172e-08
1.64616e-07
-2.77743e-06
-8.22992e-09
1.86719e-07
-1.99618e-06
-6.60469e-09
2.06196e-07
-1.52144e-06
-5.22586e-09
2.23508e-07
-1.29743e-06
-4.25947e-09
2.39618e-07
-1.18807e-06
-3.62594e-09
2.54765e-07
-1.12828e-06
-3.0546e-09
2.68999e-07
-1.09302e-06
-2.43813e-09
2.82332e-07
-1.07018e-06
-1.76848e-09
2.94735e-07
-1.05421e-06
-1.04355e-09
3.0618e-07
-1.04273e-06
-2.66004e-10
3.16646e-07
-1.03485e-06
5.55934e-10
3.26152e-07
-1.03027e-06
1.41202e-09
3.3473e-07
-1.02881e-06
2.29491e-09
3.42309e-07
-1.03099e-06
3.18325e-09
3.48794e-07
-1.03649e-06
4.08477e-09
3.54261e-07
-1.04389e-06
4.9904e-09
3.58759e-07
-1.05184e-06
5.90215e-09
3.6231e-07
-1.05763e-06
6.84323e-09
3.64865e-07
-1.05618e-06
7.86908e-09
3.66089e-07
-1.03988e-06
9.08307e-09
3.65413e-07
-9.95817e-07
1.06931e-08
3.62162e-07
-9.08169e-07
1.2945e-08
3.53869e-07
-7.10329e-07
1.62943e-08
3.28917e-07
-1.26528e-07
2.17523e-08
2.74842e-07
1.15688e-06
2.97836e-08
2.13382e-07
3.1646e-06
3.87298e-08
1.70943e-07
5.72891e-06
4.71766e-08
7.69717e-08
8.37638e-06
5.35585e-08
1.72031e-08
1.00891e-05
5.39561e-08
7.12464e-06
2.56605e-08
1.52858e-08
-3.78248e-06
-3.52925e-09
5.70336e-08
-6.22313e-06
-5.66543e-09
6.77957e-08
-5.8992e-06
-9.9094e-09
9.88211e-08
-4.96704e-06
-1.01944e-08
1.22499e-07
-3.81833e-06
-8.70959e-09
1.44735e-07
-2.7931e-06
-7.2763e-09
1.64149e-07
-2.01032e-06
-5.82605e-09
1.80546e-07
-1.53365e-06
-4.57899e-09
1.95321e-07
-1.3088e-06
-3.70456e-09
2.09163e-07
-1.19903e-06
-3.16279e-09
2.22263e-07
-1.13896e-06
-2.69234e-09
2.34617e-07
-1.10346e-06
-2.17951e-09
2.46213e-07
-1.08042e-06
-1.62084e-09
2.57011e-07
-1.06425e-06
-1.01667e-09
2.66988e-07
-1.05258e-06
-3.70054e-10
2.7614e-07
-1.04455e-06
3.10695e-10
2.84501e-07
-1.03987e-06
1.01487e-09
2.92123e-07
-1.03838e-06
1.73402e-09
2.98976e-07
-1.04047e-06
2.44704e-09
3.05014e-07
-1.04584e-06
3.155e-09
3.10351e-07
-1.0532e-06
3.84963e-09
3.15093e-07
-1.06119e-06
4.52906e-09
3.19354e-07
-1.06713e-06
5.21004e-09
3.23231e-07
-1.06598e-06
5.93679e-09
3.26622e-07
-1.05e-06
6.7909e-09
3.29247e-07
-1.00627e-06
7.93551e-09
3.30764e-07
-9.19041e-07
9.54179e-09
3.30711e-07
-7.21787e-07
1.19038e-08
3.28561e-07
-1.3947e-07
1.58178e-08
3.11111e-07
1.15291e-06
2.23549e-08
2.53461e-07
3.19256e-06
3.04737e-08
1.96446e-07
5.74892e-06
3.7644e-08
7.01588e-08
8.46175e-06
4.19442e-08
-1.66524e-09
1.01217e-05
4.02704e-08
7.10334e-06
1.96628e-08
5.52026e-09
-3.78621e-06
-2.43949e-09
2.63445e-08
-6.23939e-06
-4.98867e-09
4.68817e-08
-5.91177e-06
-8.30346e-09
6.82401e-08
-4.9801e-06
-8.67408e-09
8.81285e-08
-3.83133e-06
-7.302e-09
1.0277e-07
-2.80231e-06
-5.8419e-09
1.1817e-07
-2.02148e-06
-4.57672e-09
1.32637e-07
-1.54488e-06
-3.4773e-09
1.46271e-07
-1.31989e-06
-2.72623e-09
1.59232e-07
-1.20985e-06
-2.30876e-09
1.71568e-07
-1.14949e-06
-1.97005e-09
1.83268e-07
-1.11374e-06
-1.59065e-09
1.94336e-07
-1.09048e-06
-1.16928e-09
2.04758e-07
-1.07412e-06
-7.08552e-10
2.14544e-07
-1.06231e-06
-2.12733e-10
2.23721e-07
-1.05418e-06
3.08887e-10
2.32357e-07
-1.04948e-06
8.44332e-10
2.40533e-07
-1.04804e-06
1.38292e-09
2.4825e-07
-1.05017e-06
1.90399e-09
2.55496e-07
-1.05554e-06
2.40181e-09
2.6239e-07
-1.06297e-06
2.8681e-09
2.69038e-07
-1.0711e-06
3.29914e-09
2.75547e-07
-1.07726e-06
3.70827e-09
2.81983e-07
-1.0764e-06
4.13352e-09
2.88192e-07
-1.06065e-06
4.64636e-09
2.93822e-07
-1.01703e-06
5.38549e-09
2.98545e-07
-9.2985e-07
6.4833e-09
3.00885e-07
-7.3154e-07
8.14903e-09
2.9278e-07
-1.41277e-07
1.10904e-08
2.43637e-07
1.18702e-06
1.64612e-08
1.43848e-07
3.27019e-06
2.36348e-08
1.4319e-08
5.84963e-06
3.02383e-08
-7.31006e-09
8.44944e-06
3.5323e-08
1.81138e-08
1.00618e-05
3.5613e-08
7.10498e-06
1.65052e-08
-4.03546e-09
-3.78049e-06
-2.19725e-09
2.66493e-09
-6.24276e-06
-3.70392e-09
4.37707e-08
-5.94639e-06
-6.83212e-09
5.56472e-08
-4.98522e-06
-7.14153e-09
6.74294e-08
-3.83746e-06
-6.07977e-09
7.85202e-08
-2.80889e-06
-4.95013e-09
9.05416e-08
-2.02996e-06
-3.9063e-09
1.03324e-07
-1.55498e-06
-2.94478e-09
1.15898e-07
-1.33039e-06
-2.28624e-09
1.2804e-07
-1.22025e-06
-1.93657e-09
1.39501e-07
-1.15949e-06
-1.65733e-09
1.50194e-07
-1.1233e-06
-1.33244e-09
1.60107e-07
-1.09963e-06
-9.61779e-10
1.69218e-07
-1.08289e-06
-5.48097e-10
1.77513e-07
-1.0707e-06
-9.50686e-11
1.84975e-07
-1.06223e-06
3.88757e-10
1.91611e-07
-1.05719e-06
8.919e-10
1.97442e-07
-1.05545e-06
1.40333e-09
2.02427e-07
-1.05721e-06
1.90481e-09
2.06514e-07
-1.06215e-06
2.38957e-09
2.09756e-07
-1.06915e-06
2.84957e-09
2.12177e-07
-1.07687e-06
3.28389e-09
2.13785e-07
-1.08258e-06
3.70875e-09
2.14544e-07
-1.08128e-06
4.16603e-09
2.14194e-07
-1.06495e-06
4.73984e-09
2.12248e-07
-1.02053e-06
5.58286e-09
2.07499e-07
-9.31744e-07
6.89607e-09
1.96312e-07
-7.28881e-07
9.0497e-09
1.70793e-07
-1.27669e-07
1.28464e-08
1.32795e-07
1.20746e-06
1.86909e-08
9.69383e-08
3.28199e-06
2.50978e-08
6.39148e-08
5.85302e-06
3.04871e-08
1.22851e-07
8.35699e-06
3.43727e-08
6.57154e-08
1.00863e-05
3.35676e-08
7.15383e-06
1.68796e-08
-6.66185e-09
-3.77115e-06
-3.23723e-09
5.25751e-09
-6.25212e-06
-3.11238e-09
2.72696e-08
-5.96346e-06
-5.48811e-09
4.76909e-08
-5.00076e-06
-5.42217e-09
6.10499e-08
-3.847e-06
-4.42782e-09
6.55284e-08
-2.81059e-06
-3.41785e-09
7.73195e-08
-2.03972e-06
-2.58241e-09
8.89632e-08
-1.56519e-06
-1.83477e-09
9.99546e-08
-1.34034e-06
-1.34895e-09
1.10443e-07
-1.22988e-06
-1.14361e-09
1.20437e-07
-1.16877e-06
-9.95647e-10
1.29988e-07
-1.13235e-06
-7.91481e-10
1.39159e-07
-1.10856e-06
-5.36604e-10
1.47967e-07
-1.09176e-06
-2.37735e-10
1.56427e-07
-1.07956e-06
9.94263e-11
1.64551e-07
-1.07111e-06
4.64881e-10
1.72376e-07
-1.06615e-06
8.45561e-10
1.79961e-07
-1.06454e-06
1.22834e-09
1.87335e-07
-1.06643e-06
1.59318e-09
1.94527e-07
-1.0715e-06
1.92876e-09
2.01653e-07
-1.07871e-06
2.22553e-09
2.08811e-07
-1.08667e-06
2.47972e-09
2.16092e-07
-1.09269e-06
2.70404e-09
2.23556e-07
-1.09175e-06
2.93455e-09
2.31167e-07
-1.07581e-06
3.2401e-09
2.38695e-07
-1.03174e-06
3.73544e-09
2.45564e-07
-9.43002e-07
4.5369e-09
2.51272e-07
-7.40111e-07
5.85761e-09
2.55331e-07
-1.39589e-07
8.42679e-09
2.70385e-07
1.1798e-06
1.327e-08
3.11584e-07
3.22186e-06
1.9508e-08
3.14843e-07
5.82578e-06
2.44243e-08
1.54866e-07
8.49002e-06
2.74911e-08
8.68948e-09
1.02074e-05
2.57042e-08
7.15202e-06
1.05127e-08
-3.08652e-11
-3.7696e-06
-2.53288e-09
4.66448e-09
-6.25686e-06
-8.17514e-10
1.99376e-08
-5.97613e-06
-3.46452e-09
4.01289e-08
-5.01819e-06
-3.7868e-09
5.2352e-08
-3.85725e-06
-3.04409e-09
6.28627e-08
-2.81999e-06
-2.19381e-09
7.53025e-08
-2.05136e-06
-1.76735e-09
8.54242e-08
-1.5748e-06
-1.22735e-09
9.43479e-08
-1.34892e-06
-8.91704e-10
1.02689e-07
-1.23793e-06
-7.9167e-10
1.10602e-07
-1.17645e-06
-7.31437e-10
1.18175e-07
-1.13981e-06
-6.05599e-10
1.25456e-07
-1.11591e-06
-4.25064e-10
1.32442e-07
-1.09903e-06
-1.99918e-10
1.3913e-07
-1.0868e-06
6.20735e-11
1.45522e-07
-1.07834e-06
3.49251e-10
1.51661e-07
-1.0734e-06
6.46623e-10
1.57634e-07
-1.07191e-06
9.38608e-10
1.6349e-07
-1.07393e-06
1.20363e-09
1.69285e-07
-1.07913e-06
1.42649e-09
1.75196e-07
-1.08659e-06
1.59536e-09
1.81379e-07
-1.09489e-06
1.70408e-09
1.88009e-07
-1.10135e-06
1.76233e-09
1.95275e-07
-1.10104e-06
1.80155e-09
2.03224e-07
-1.08579e-06
1.88383e-09
2.11184e-07
-1.04189e-06
2.12244e-09
2.19016e-07
-9.53403e-07
2.59439e-09
2.27076e-07
-7.51423e-07
3.4048e-09
2.23791e-07
-1.41e-07
4.99496e-09
1.82775e-07
1.21228e-06
8.88117e-09
1.28228e-07
3.26228e-06
1.44797e-08
1.09972e-07
5.82495e-06
1.94865e-08
1.8151e-08
8.55965e-06
2.26152e-08
5.55131e-09
1.01976e-05
2.27445e-08
7.14796e-06
9.58976e-09
1.99272e-09
-3.77164e-06
-1.43143e-09
6.02996e-09
-6.26205e-06
-2.58499e-10
3.20481e-08
-6.00134e-06
-2.34776e-09
2.46251e-08
-5.01005e-06
-2.38545e-09
3.30935e-08
-3.86606e-06
-1.47009e-09
4.44607e-08
-2.83245e-06
-7.52079e-10
5.04703e-08
-2.05848e-06
-4.45534e-10
5.62024e-08
-1.58148e-06
-1.87778e-10
6.20257e-08
-1.35557e-06
-5.36088e-11
6.78292e-08
-1.24445e-06
-9.48027e-11
7.3445e-08
-1.1827e-06
-1.49028e-10
7.88371e-08
-1.14586e-06
-1.23475e-10
8.39675e-08
-1.12178e-06
-3.49842e-11
8.87665e-08
-1.10472e-06
1.02143e-10
9.31756e-08
-1.09226e-06
2.78054e-10
9.71401e-08
-1.08356e-06
4.80058e-10
1.00643e-07
-1.07837e-06
6.92346e-10
1.03688e-07
-1.07662e-06
8.97786e-10
1.06256e-07
-1.07832e-06
1.07607e-09
1.08318e-07
-1.08313e-06
1.21044e-09
1.09921e-07
-1.09018e-06
1.28917e-09
1.11077e-07
-1.09802e-06
1.30904e-09
1.11787e-07
-1.10398e-06
1.28376e-09
1.12025e-07
-1.10311e-06
1.2505e-09
1.11657e-07
-1.08719e-06
1.28284e-09
1.10539e-07
-1.04266e-06
1.50264e-09
1.07762e-07
-9.53035e-07
2.03854e-09
9.94279e-08
-7.46655e-07
3.00374e-09
7.76331e-08
-1.25039e-07
4.94538e-09
4.47566e-08
1.23513e-06
8.89234e-09
-1.01436e-08
3.30195e-06
1.42392e-08
-3.06436e-08
5.82529e-06
1.94529e-08
4.43152e-08
8.46106e-06
2.28331e-08
5.25915e-08
1.0165e-05
2.34881e-08
7.18861e-06
1.19117e-08
-4.15874e-09
-3.7683e-06
-1.47885e-09
1.50837e-08
-6.28381e-06
-9.27961e-11
2.15775e-08
-6.00855e-06
-1.6638e-09
3.44226e-08
-5.02402e-06
-1.1289e-09
4.94265e-08
-3.88305e-06
-6.89144e-10
5.77643e-08
-2.84338e-06
-1.63696e-10
6.17766e-08
-2.06485e-06
1.35001e-11
6.56777e-08
-1.58725e-06
2.00172e-10
7.02482e-08
-1.3617e-06
2.80302e-10
7.52126e-08
-1.25075e-06
1.84982e-10
8.03977e-08
-1.18907e-06
7.59231e-11
8.5752e-08
-1.15236e-06
4.91463e-11
9.12383e-08
-1.12844e-06
8.97387e-11
9.68067e-08
-1.11155e-06
1.8401e-10
1.02435e-07
-1.09928e-06
3.22109e-10
1.08115e-07
-1.09079e-06
4.90628e-10
1.13883e-07
-1.08585e-06
6.72125e-10
1.19805e-07
-1.08441e-06
8.46907e-10
1.25947e-07
-1.08644e-06
9.91099e-10
1.3238e-07
-1.09161e-06
1.08373e-09
1.39256e-07
-1.09908e-06
1.10844e-09
1.46726e-07
-1.10742e-06
1.05613e-09
1.54971e-07
-1.11397e-06
9.3283e-10
1.64183e-07
-1.11383e-06
7.64922e-10
1.74554e-07
-1.0988e-06
6.08293e-10
1.86661e-07
-1.05582e-06
5.5626e-10
2.00009e-07
-9.67559e-07
6.95672e-10
2.14225e-07
-7.62656e-07
1.08783e-09
2.34311e-07
-1.48469e-07
2.32008e-09
2.5654e-07
1.20611e-06
5.65026e-09
2.81312e-07
3.26614e-06
1.01447e-08
1.7287e-07
5.9189e-06
1.42581e-08
5.43573e-08
8.56077e-06
1.78642e-08
-1.56044e-08
1.02167e-05
1.70324e-08
7.16738e-06
5.54482e-09
-5.96374e-09
-3.76395e-06
-2.01549e-09
-8.39581e-10
-6.29188e-06
-5.87812e-10
-3.02238e-09
-6.00793e-06
-1.4455e-09
2.58264e-08
-5.0553e-06
-8.43572e-10
2.97179e-08
-3.89065e-06
7.52631e-11
3.37723e-08
-2.85194e-06
7.87837e-10
3.42818e-08
-2.06951e-06
1.02516e-09
3.59998e-08
-1.59233e-06
1.12267e-09
3.88161e-08
-1.36732e-06
1.09411e-09
4.20599e-08
-1.25644e-06
9.00798e-10
4.54322e-08
-1.19465e-06
6.94106e-10
4.88562e-08
-1.15785e-06
5.73218e-10
5.22965e-08
-1.13388e-06
5.21235e-10
5.57128e-08
-1.11697e-06
5.22686e-10
5.90904e-08
-1.1047e-06
5.66737e-10
6.2424e-08
-1.09624e-06
6.39392e-10
6.57474e-08
-1.09136e-06
7.2248e-10
6.91215e-08
-1.09003e-06
7.9473e-10
7.25879e-08
-1.09218e-06
8.32486e-10
7.61864e-08
-1.09746e-06
8.13572e-10
8.00442e-08
-1.10506e-06
7.21464e-10
8.42749e-08
-1.11359e-06
5.49668e-10
8.90152e-08
-1.12036e-06
3.08173e-10
9.44306e-08
-1.12057e-06
2.95961e-11
1.00648e-07
-1.10598e-06
-2.21536e-10
1.077e-07
-1.06359e-06
-3.36787e-10
1.14911e-07
-9.7578e-07
-1.94102e-10
1.20178e-07
-7.70263e-07
2.74137e-10
1.16124e-07
-1.48982e-07
1.54049e-09
7.55851e-08
1.23879e-06
4.87675e-09
2.11808e-08
3.30784e-06
9.68993e-09
2.77834e-09
5.9209e-06
1.31521e-08
-2.03688e-08
8.56457e-06
1.61136e-08
-9.77112e-10
1.01781e-05
1.65645e-08
7.15948e-06
6.8523e-09
4.47758e-09
-3.76982e-06
-2.69044e-09
8.293e-09
-6.29887e-06
-4.50678e-10
1.32066e-08
-6.01552e-06
-1.67613e-09
1.44245e-08
-5.05978e-06
-1.36756e-09
1.40249e-08
-3.89494e-06
-2.06572e-11
2.0517e-08
-2.86389e-06
6.68337e-10
2.1101e-08
-2.07502e-06
9.90315e-10
2.32952e-08
-1.59849e-06
1.14677e-09
2.63701e-08
-1.37367e-06
1.1229e-09
2.96614e-08
-1.2626e-06
9.19763e-10
3.28304e-08
-1.2004e-06
6.99863e-10
3.58107e-08
-1.16325e-06
5.6084e-10
3.85703e-08
-1.13897e-06
4.89847e-10
4.10594e-08
-1.12176e-06
4.73505e-10
4.32468e-08
-1.1092e-06
5.01544e-10
4.51016e-08
-1.10045e-06
5.59755e-10
4.66163e-08
-1.09528e-06
6.29243e-10
4.77941e-08
-1.09366e-06
6.87568e-10
4.86314e-08
-1.09546e-06
7.10351e-10
4.90941e-08
-1.10029e-06
6.74586e-10
4.91841e-08
-1.10737e-06
5.63508e-10
4.8872e-08
-1.11525e-06
3.7232e-10
4.81135e-08
-1.12126e-06
1.14565e-10
4.68369e-08
-1.12059e-06
-1.71032e-10
4.49317e-08
-1.10497e-06
-4.10773e-10
4.19888e-08
-1.0613e-06
-4.85511e-10
3.62127e-08
-9.71054e-07
-2.26981e-10
2.13099e-08
-7.57947e-07
5.48151e-10
-1.43164e-08
-1.189e-07
2.38366e-09
-5.84379e-08
1.27293e-06
6.09787e-09
-1.05812e-07
3.34113e-06
1.07367e-08
-5.51158e-08
5.85285e-06
1.49824e-08
4.20086e-08