/*--------------------------------*- C++ -*----------------------------------*\
  =========                 |
  \\      /  F ield         | OpenFOAM: The Open Source CFD Toolbox
   \\    /   O peration     | Website:  https://openfoam.org
    \\  /    A nd           | Version:  13
     \\/     M anipulation  |
\*---------------------------------------------------------------------------*/
FoamFile
{
    format      ascii;
    class       volVectorField;
    location    "4";
    object      U;
}
// * * * * * * * * * * * * * * * * * * * * * * * * * * * * * * * * * * * * * //

dimensions      [0 1 -1 0 0 0 0];

internalField   nonuniform List<vector> 
78750
(
(-0.00279623 -0.0217036 -0.00140783)
(0.000402215 -0.0386971 -0.00142279)
(0.00957882 -0.0385973 -0.00235054)
(0.015079 -0.0359153 -0.00277481)
(0.0210724 -0.0293647 -0.00246606)
(0.0247457 -0.0209885 -0.00205579)
(0.0269462 -0.0120756 -0.00145759)
(0.0283305 -0.00417756 -0.000935885)
(0.0285584 -0.000998782 -0.000876425)
(0.0291444 0.000829351 -0.00100601)
(0.0293864 0.00185138 -0.00121751)
(0.0294066 0.00211581 -0.00139436)
(0.0294644 0.00211595 -0.00135076)
(0.0295366 0.00202407 -0.00118957)
(0.0296247 0.00174301 -0.00106803)
(0.0297401 0.00131444 -0.000959484)
(0.0298867 0.000836798 -0.000839718)
(0.0300681 0.000483055 -0.000555068)
(0.0302834 0.000253361 -0.00015361)
(0.0304902 1.48243e-05 0.000176868)
(0.030727 -0.000190447 0.000511717)
(0.030944 -0.000327104 0.000877082)
(0.0311581 -0.000409236 0.00120323)
(0.0313625 -0.000417064 0.00153444)
(0.0314508 -0.000378787 0.00188816)
(0.0317671 2.6051e-05 0.00238977)
(0.0314951 0.000198364 0.0026145)
(0.0314603 0.00118806 0.00301282)
(0.0309547 0.00189834 0.00324982)
(0.0301592 0.00450802 0.00360717)
(0.0287409 0.00755838 0.00383376)
(0.0251156 0.0152802 0.0041257)
(0.0209938 0.02051 0.00426587)
(0.0129839 0.0269707 0.00438259)
(0.0045907 0.0276809 0.00312322)
(0.000539096 -0.0324926 0.00114279)
(0.00306948 -0.0611385 0.00111767)
(0.00482868 -0.0587942 0.000714061)
(0.00646984 -0.0462726 0.000466064)
(0.0078048 -0.0308417 0.000360425)
(0.00793499 -0.0168739 0.000690025)
(0.00788218 -0.00789895 0.000856071)
(0.00802823 -0.00400594 0.00071624)
(0.00836313 -0.00206336 0.000537416)
(0.00878106 -0.00116628 0.000454737)
(0.00930205 -0.000646618 0.000439236)
(0.00980985 -0.000452949 0.000489505)
(0.0103327 -0.00046558 0.000610482)
(0.0108437 -0.000611167 0.000781086)
(0.011335 -0.000870444 0.000984442)
(0.0117965 -0.00121815 0.00120579)
(0.0122253 -0.00160043 0.00143117)
(0.0126257 -0.00197836 0.00165499)
(0.0130154 -0.00234355 0.00187978)
(0.0133967 -0.00269824 0.00210608)
(0.0137749 -0.00302315 0.00232926)
(0.0141547 -0.0033053 0.00254235)
(0.014536 -0.00354805 0.00274276)
(0.0149287 -0.00372782 0.00292708)
(0.0153232 -0.00374953 0.0030732)
(0.0157261 -0.00340584 0.0031523)
(0.0161085 -0.0024998 0.00318293)
(0.0164512 -0.000746526 0.00316132)
(0.0166686 0.00224345 0.00309967)
(0.016672 0.0074601 0.00313745)
(0.0163959 0.0170012 0.00336913)
(0.0149393 0.0330678 0.00363281)
(0.0125337 0.0547962 0.00393246)
(0.00713748 0.0784023 0.00402583)
(0.00151073 0.0717353 0.00266189)
(0.000281116 -0.0401023 0.000675069)
(0.000820591 -0.0669639 0.000301121)
(0.00128128 -0.0623115 0.000195146)
(0.00170168 -0.0495535 0.00027506)
(0.00220036 -0.0342857 0.000387182)
(0.00275884 -0.0205449 0.000405655)
(0.00333182 -0.0112826 0.000287408)
(0.00380693 -0.00723138 0.000137682)
(0.00425829 -0.00557106 4.81458e-05)
(0.00473492 -0.00477667 3.94477e-05)
(0.00519787 -0.00445027 9.32527e-05)
(0.00567615 -0.00435973 0.000199736)
(0.00612558 -0.0044165 0.000340349)
(0.00656535 -0.00455169 0.00051082)
(0.00698457 -0.00473392 0.000709051)
(0.00738087 -0.00495064 0.000929568)
(0.00776094 -0.0052093 0.0011732)
(0.00811108 -0.00550358 0.00142912)
(0.00842741 -0.00581651 0.0016833)
(0.00871892 -0.00615904 0.00193523)
(0.00898852 -0.0065272 0.00217972)
(0.00923971 -0.00690546 0.00241211)
(0.00947506 -0.00726285 0.00262542)
(0.00969079 -0.00755388 0.00281149)
(0.00989973 -0.00769176 0.00296049)
(0.0100642 -0.00753871 0.00305984)
(0.0102014 -0.0069187 0.00312526)
(0.0103678 -0.00523327 0.0031969)
(0.0103919 -0.00150822 0.00335076)
(0.0102605 0.00518208 0.00365295)
(0.00977895 0.0178461 0.00407875)
(0.00867782 0.0414604 0.00456198)
(0.00653398 0.0734706 0.00487641)
(0.0034784 0.102785 0.00453489)
(0.000561103 0.0860784 0.00253039)
(0.000163135 -0.0421579 0.000316826)
(0.000689221 -0.0708717 -0.000112495)
(0.00110199 -0.0669918 -0.000322246)
(0.00159817 -0.0547719 -0.000294051)
(0.00210395 -0.0398571 -0.000135912)
(0.00262991 -0.0261173 -1.39606e-05)
(0.00317647 -0.0161553 -1.65167e-05)
(0.00365719 -0.0110238 -0.000102991)
(0.00405115 -0.00891141 -0.000176698)
(0.00442862 -0.00789014 -0.000191306)
(0.0048074 -0.00733709 -0.000145731)
(0.00515241 -0.00707478 -6.28184e-05)
(0.00547918 -0.00698134 5.14031e-05)
(0.00581387 -0.00697115 0.000211426)
(0.00610595 -0.00702117 0.000391368)
(0.00638694 -0.0071118 0.000594288)
(0.00664862 -0.00723655 0.000816745)
(0.00689099 -0.00739181 0.00105431)
(0.00711411 -0.00757625 0.00130078)
(0.00731932 -0.00777965 0.00155075)
(0.00750421 -0.00800167 0.00179616)
(0.00766769 -0.00823466 0.00202837)
(0.00780863 -0.00845454 0.00223816)
(0.00793465 -0.00860824 0.00241492)
(0.00801175 -0.00860175 0.00254585)
(0.00807111 -0.00831326 0.00263318)
(0.00808496 -0.00745077 0.00270875)
(0.00806181 -0.00555245 0.00279724)
(0.00794812 -0.00103199 0.00301782)
(0.00766829 0.00704872 0.00340383)
(0.00711182 0.0229021 0.00401852)
(0.00586886 0.0511558 0.00478371)
(0.00407244 0.0853707 0.00518952)
(0.00203003 0.113368 0.00470821)
(0.000315028 0.0910813 0.00255779)
(0.000204447 -0.0442312 0.000105107)
(0.00063685 -0.0735612 -0.000310555)
(0.000946971 -0.0691533 -0.000512557)
(0.00131109 -0.0564297 -0.000521894)
(0.00164635 -0.04137 -0.000433792)
(0.00197926 -0.0277887 -0.00035657)
(0.00235251 -0.0180573 -0.000344263)
(0.00270227 -0.0130184 -0.000375987)
(0.00299543 -0.0108192 -0.000399253)
(0.00327761 -0.00973234 -0.000386235)
(0.00355775 -0.0091645 -0.000332864)
(0.00382761 -0.00888643 -0.000249121)
(0.00408024 -0.00878541 -0.000141571)
(0.00432725 -0.00877518 -2.33514e-06)
(0.00455336 -0.00881911 0.000161062)
(0.00476889 -0.00890373 0.000344604)
(0.00497273 -0.00902584 0.000544695)
(0.0051636 -0.00918395 0.000757093)
(0.00534103 -0.00937599 0.000976777)
(0.00550509 -0.00959788 0.00119812)
(0.00565611 -0.00984198 0.00141485)
(0.00579349 -0.0100932 0.00162002)
(0.00591527 -0.0103203 0.00180588)
(0.00602439 -0.0104614 0.00196414)
(0.00609984 -0.0104148 0.0020867)
(0.00615562 -0.010065 0.0021725)
(0.00618127 -0.0091252 0.00224552)
(0.00615191 -0.00716263 0.00232524)
(0.00606406 -0.00215262 0.00253934)
(0.00578271 0.00801075 0.0029379)
(0.00523334 0.0266299 0.00352305)
(0.00419994 0.058339 0.00426759)
(0.00290755 0.0958346 0.00467065)
(0.00150396 0.123708 0.0041958)
(0.000249662 0.0945746 0.00208698)
(0.000221655 -0.0459151 -0.000113747)
(0.000550505 -0.0762417 -0.00054196)
(0.000742676 -0.0721277 -0.000718977)
(0.00104741 -0.0595371 -0.000706854)
(0.0013573 -0.0444132 -0.00060653)
(0.00167366 -0.03064 -0.000516351)
(0.00200964 -0.0205567 -0.00047573)
(0.00231208 -0.0150267 -0.000474882)
(0.00255035 -0.0126017 -0.000481813)
(0.00277297 -0.0114234 -0.000466692)
(0.00300133 -0.0107851 -0.000414575)
(0.00321396 -0.0104451 -0.00033364)
(0.00341241 -0.010263 -0.000229989)
(0.00359867 -0.010166 -0.000104176)
(0.00376873 -0.0101415 3.37537e-05)
(0.00393632 -0.0101753 0.000198083)
(0.00408429 -0.0102461 0.00037572)
(0.00422387 -0.0103517 0.000562856)
(0.00435192 -0.010492 0.000755224)
(0.00446798 -0.010665 0.000948017)
(0.00457183 -0.0108628 0.00113596)
(0.00466277 -0.0110687 0.00131305)
(0.00474218 -0.0112488 0.0014727)
(0.00479911 -0.0113352 0.00160843)
(0.0048434 -0.0112436 0.00171052)
(0.00487264 -0.0108263 0.00179311)
(0.00485706 -0.0098457 0.00185978)
(0.00482029 -0.00772732 0.0019448)
(0.00472921 -0.00206757 0.00216321)
(0.00452372 0.00941796 0.00256313)
(0.0041355 0.0305584 0.00315979)
(0.00348437 0.0632713 0.00381183)
(0.00239764 0.0994873 0.00409573)
(0.00103323 0.126921 0.00367194)
(0.000198616 0.0943662 0.0017768)
(0.000253084 -0.0470661 -0.0001654)
(0.000544262 -0.0775503 -0.000566913)
(0.000636844 -0.0733176 -0.000765685)
(0.000841989 -0.0607288 -0.000780925)
(0.00104014 -0.045725 -0.000697834)
(0.00125753 -0.0320706 -0.000607646)
(0.00151193 -0.0219506 -0.000549072)
(0.0017564 -0.0162844 -0.000524183)
(0.00195253 -0.0137193 -0.000512917)
(0.00213486 -0.0124733 -0.000488508)
(0.00231286 -0.011817 -0.000437528)
(0.00247608 -0.0114689 -0.000363957)
(0.00263149 -0.0112806 -0.00027129)
(0.00277997 -0.0111786 -0.000161208)
(0.00291842 -0.0111283 -3.54778e-05)
(0.00304441 -0.01114 9.67345e-05)
(0.00316586 -0.0112119 0.000245786)
(0.00327314 -0.0113188 0.000401777)
(0.00337401 -0.0114606 0.000561076)
(0.00346622 -0.0116357 0.00071992)
(0.00354919 -0.0118371 0.000874124)
(0.00362226 -0.0120477 0.00101896)
(0.00368693 -0.012232 0.00114944)
(0.00373722 -0.0123185 0.00126098)
(0.00376527 -0.0122302 0.0013448)
(0.00378632 -0.0118145 0.00141701)
(0.0037806 -0.0108379 0.00147713)
(0.00374109 -0.00878204 0.00153773)
(0.00366493 -0.00316966 0.00168549)
(0.00349078 0.00963077 0.00202325)
(0.0030857 0.0320804 0.00251619)
(0.00228026 0.0674884 0.00308784)
(0.0013917 0.10992 0.00331673)
(0.000893837 0.135318 0.00290545)
(0.000366065 0.094544 0.00137332)
(0.000257449 -0.0481569 -0.000159607)
(0.000468662 -0.0791913 -0.000466174)
(0.000477084 -0.0749222 -0.000640874)
(0.000620268 -0.0622908 -0.000670023)
(0.000755884 -0.0471887 -0.00061922)
(0.000915013 -0.0334705 -0.000560789)
(0.00111232 -0.0232897 -0.000520267)
(0.00130762 -0.0174274 -0.000496481)
(0.0014656 -0.0147428 -0.000482284)
(0.0016064 -0.0134385 -0.000454968)
(0.00174401 -0.0127426 -0.000404791)
(0.00186711 -0.0123597 -0.000336096)
(0.00198099 -0.0121381 -0.000251661)
(0.00208553 -0.0120056 -0.000153354)
(0.00218187 -0.0119284 -4.29253e-05)
(0.00226784 -0.0118907 7.78123e-05)
(0.00234158 -0.0119119 0.000201745)
(0.00240619 -0.0119938 0.000335996)
(0.00245758 -0.0121103 0.000473034)
(0.00249975 -0.0122594 0.000609746)
(0.0025305 -0.0124344 0.000742963)
(0.00254847 -0.0126185 0.00086913)
(0.00255322 -0.0127744 0.000984462)
(0.00253802 -0.0128291 0.0010854)
(0.00250897 -0.0126994 0.00116621)
(0.00245504 -0.0122461 0.00123902)
(0.00236024 -0.0112441 0.00130577)
(0.00222052 -0.00905631 0.00140365)
(0.00198116 -0.00281466 0.00163258)
(0.00166286 0.0118586 0.00205765)
(0.00123317 0.0388833 0.00255216)
(0.000763386 0.0751933 0.00298141)
(0.000460458 0.108418 0.00318352)
(0.000640017 0.132202 0.00275378)
(0.000465081 0.0936718 0.0012771)
(0.000286986 -0.0486655 -0.000188801)
(0.000469194 -0.0797697 -0.000492786)
(0.000422331 -0.0755229 -0.00064592)
(0.000521445 -0.0629582 -0.000652513)
(0.000616507 -0.047991 -0.000588473)
(0.000735444 -0.0343536 -0.000524503)
(0.000898306 -0.0241344 -0.000485295)
(0.00106244 -0.0181025 -0.000461267)
(0.00118967 -0.0153595 -0.000446835)
(0.00129975 -0.0140307 -0.00042262)
(0.00140631 -0.0133098 -0.000378179)
(0.00150049 -0.0129024 -0.0003184)
(0.00158728 -0.0126566 -0.000246047)
(0.0016663 -0.0125001 -0.000162989)
(0.00173766 -0.0124008 -7.09955e-05)
(0.00180227 -0.0123439 2.81618e-05)
(0.00185831 -0.0123221 0.000132892)
(0.00190459 -0.0123564 0.000237764)
(0.00194368 -0.0124477 0.000347427)
(0.0019727 -0.0125676 0.000456184)
(0.00199262 -0.0127089 0.000561278)
(0.00200164 -0.0128547 0.000659958)
(0.00199862 -0.0129681 0.000749515)
(0.00197877 -0.0129789 0.000828306)
(0.00194724 -0.0128044 0.000895357)
(0.00188916 -0.0122829 0.000952234)
(0.00179863 -0.0112051 0.00100328)
(0.00165097 -0.00886584 0.00107754)
(0.00138869 -0.00222876 0.00125582)
(0.00112282 0.0126382 0.00162817)
(0.00111776 0.0382963 0.00217835)
(0.0012998 0.0730778 0.00264814)
(0.00127573 0.109833 0.00275559)
(0.00109226 0.131826 0.00243155)
(0.000539618 0.0938858 0.00116938)
(0.000305133 -0.0493193 -0.000156788)
(0.000462215 -0.0808097 -0.000393123)
(0.000363666 -0.0765902 -0.000540517)
(0.000415029 -0.0639706 -0.000557463)
(0.000449321 -0.0489407 -0.000509563)
(0.000506581 -0.0352332 -0.000459984)
(0.000624761 -0.0248857 -0.000429891)
(0.000770406 -0.0187186 -0.000408543)
(0.000883514 -0.0158948 -0.000392643)
(0.000978224 -0.0145299 -0.000370419)
(0.00106568 -0.0137908 -0.000330464)
(0.0011428 -0.0133686 -0.000277209)
(0.00121333 -0.013108 -0.000213826)
(0.00127709 -0.0129363 -0.000142195)
(0.00133434 -0.0128216 -6.38972e-05)
(0.00138554 -0.0127498 1.9568e-05)
(0.00143058 -0.0127146 0.000106945)
(0.00146961 -0.0127345 0.000194285)
(0.00150319 -0.012809 0.000284253)
(0.00152896 -0.0129136 0.000373065)
(0.00154784 -0.0130411 0.000458471)
(0.00155863 -0.0131739 0.000538238)
(0.00156031 -0.0132751 0.000610114)
(0.00155019 -0.0132754 0.000672269)
(0.00152865 -0.0130883 0.000722204)
(0.00148763 -0.0125431 0.000765176)
(0.00141959 -0.0114318 0.000802085)
(0.00129282 -0.00901135 0.000855993)
(0.00107572 -0.00214709 0.000988384)
(0.000892878 0.0130985 0.00127074)
(0.000862029 0.0384259 0.00173457)
(0.000948523 0.0734097 0.00214464)
(0.000934743 0.11143 0.00227283)
(0.00112458 0.135593 0.00196843)
(0.0006595 0.0949825 0.000880648)
(0.000325205 -0.0496484 -0.000118916)
(0.000459347 -0.0811889 -0.00031044)
(0.000299306 -0.076886 -0.000449942)
(0.000317616 -0.0641842 -0.000469858)
(0.000328588 -0.0491535 -0.000428927)
(0.000370374 -0.0356059 -0.000393059)
(0.000463656 -0.0253705 -0.000376064)
(0.000592129 -0.0192092 -0.000363093)
(0.000693948 -0.0163298 -0.000349811)
(0.000777198 -0.0149287 -0.00032957)
(0.0008519 -0.0141702 -0.000293826)
(0.000917395 -0.013732 -0.000246157)
(0.00097644 -0.0134559 -0.0001898)
(0.00102915 -0.0132691 -0.000126569)
(0.00107598 -0.01314 -5.78421e-05)
(0.00111745 -0.0130548 1.50958e-05)
(0.00115404 -0.013007 9.11601e-05)
(0.00118538 -0.0130128 0.000167281)
(0.00121107 -0.013072 0.000245271)
(0.00123028 -0.0131637 0.000322541)
(0.00124373 -0.0132799 0.000397138)
(0.00124985 -0.0134026 0.000467091)
(0.00124735 -0.0134947 0.000530488)
(0.00123387 -0.0134879 0.000585885)
(0.00121058 -0.0132918 0.000631459)
(0.00116887 -0.0127207 0.000672952)
(0.00110161 -0.0115992 0.000708759)
(0.000976801 -0.00920024 0.000760532)
(0.000753789 -0.00208102 0.000889572)
(0.000582223 0.013742 0.00115195)
(0.000466286 0.0396607 0.00152567)
(0.000376269 0.0743859 0.00183273)
(0.000407061 0.110878 0.00195658)
(0.000799613 0.133118 0.00176138)
(0.000555698 0.0942424 0.000788798)
(0.000320853 -0.049885 -6.66413e-05)
(0.000425208 -0.0817518 -0.000195354)
(0.000245294 -0.077335 -0.000313434)
(0.000249984 -0.0649209 -0.000338791)
(0.000231954 -0.0498753 -0.000311404)
(0.000256022 -0.0361804 -0.000291536)
(0.000335214 -0.0258269 -0.000291216)
(0.000447276 -0.0195706 -0.000289914)
(0.000536078 -0.0166514 -0.000283168)
(0.000606746 -0.0152316 -0.00026764)
(0.000669594 -0.0144614 -0.000238239)
(0.000723823 -0.0140132 -0.00019828)
(0.000772184 -0.0137277 -0.000151033)
(0.000814906 -0.0135319 -9.8318e-05)
(0.000852558 -0.0133943 -4.14031e-05)
(0.000885678 -0.0133025 1.85202e-05)
(0.000915145 -0.0132527 8.03512e-05)
(0.000940551 -0.0132434 0.000143312)
(0.000960781 -0.0132864 0.000205273)
(0.000976437 -0.0133762 0.000266883)
(0.000986757 -0.0134879 0.000325717)
(0.000990718 -0.0136052 0.000379999)
(0.000986675 -0.0136929 0.000428202)
(0.000972536 -0.0136831 0.000469272)
(0.000948815 -0.0134827 0.00050231)
(0.000910064 -0.0129058 0.000532103)
(0.000839758 -0.0117814 0.000560929)
(0.000709087 -0.00935502 0.000604876)
(0.000458934 -0.00201065 0.000727776)
(0.00028173 0.0147033 0.000968101)
(0.000383148 0.0424241 0.00128323)
(0.000619663 0.0768888 0.00156009)
(0.000683375 0.110792 0.00169136)
(0.00110302 0.133475 0.00152555)
(0.000708866 0.0942034 0.00072823)
(0.000336403 -0.0499532 -6.8338e-05)
(0.000425825 -0.0819405 -0.000185118)
(0.00022145 -0.0777061 -0.000280734)
(0.000204891 -0.0650714 -0.000295032)
(0.000145308 -0.050104 -0.000269973)
(0.000143106 -0.0364837 -0.000254567)
(0.00021667 -0.0261472 -0.000256889)
(0.000325182 -0.0198775 -0.000255682)
(0.000411444 -0.0169379 -0.000249198)
(0.000478744 -0.0155024 -0.00023592)
(0.000536901 -0.0147198 -0.000210535)
(0.000586533 -0.0142606 -0.000175656)
(0.000630292 -0.0139649 -0.000134463)
(0.000668457 -0.0137597 -8.8722e-05)
(0.000701643 -0.0136137 -3.96017e-05)
(0.00073043 -0.0135151 1.18335e-05)
(0.000755294 -0.0134595 6.45945e-05)
(0.000776419 -0.013444 0.000117911)
(0.000793374 -0.0134787 0.000169911)
(0.000805675 -0.0135598 0.000220882)
(0.000812163 -0.0136648 0.00026897)
(0.00081183 -0.0137762 0.000312593)
(0.000802802 -0.0138584 0.000350457)
(0.000782891 -0.0138438 0.000381775)
(0.000750803 -0.0136358 0.000406158)
(0.000702427 -0.0130635 0.000427237)
(0.000618817 -0.0119202 0.000450184)
(0.000460273 -0.00937833 0.000489604)
(0.000167701 -0.00201363 0.000599818)
(-1.93835e-05 0.0145356 0.000826402)
(0.000179066 0.0414234 0.00112184)
(0.000578102 0.0756782 0.00135032)
(0.000722408 0.110529 0.00143577)
(0.00129029 0.134697 0.00126495)
(0.000924586 0.0949279 0.000555613)
(0.000334853 -0.0499745 -5.41576e-05)
(0.000446722 -0.0819045 -0.000139192)
(0.000239493 -0.0782423 -0.000229469)
(0.000221304 -0.0655217 -0.00022641)
(0.000145896 -0.050509 -0.000193799)
(0.000120178 -0.0368029 -0.000180392)
(0.00017791 -0.0264412 -0.00018915)
(0.000272238 -0.0201436 -0.000194287)
(0.000347075 -0.0171708 -0.000192502)
(0.000402977 -0.0157189 -0.000183607)
(0.000449597 -0.0149256 -0.000163481)
(0.000488843 -0.0144579 -0.000134307)
(0.000523137 -0.014155 -9.92499e-05)
(0.000552773 -0.0139432 -6.00449e-05)
(0.000578405 -0.0137911 -1.77783e-05)
(0.000600615 -0.0136868 2.65854e-05)
(0.000619826 -0.0136264 7.21366e-05)
(0.000636212 -0.0136072 0.000118134)
(0.000649677 -0.0136368 0.000163003)
(0.000659689 -0.0137112 0.00020664)
(0.000665037 -0.0138107 0.000247477)
(0.000664645 -0.0139175 0.00028412)
(0.000656597 -0.0139959 0.000315489)
(0.000638479 -0.0139785 0.000341069)
(0.000609202 -0.0137654 0.000361019)
(0.000562714 -0.0131855 0.000379108)
(0.000480962 -0.0120301 0.000399802)
(0.000314708 -0.00941736 0.000440137)
(3.29067e-05 -0.00168118 0.000550296)
(-8.45134e-05 0.0152237 0.000766157)
(0.000126968 0.0417203 0.00102002)
(0.000529839 0.0763675 0.00118262)
(0.00058713 0.110717 0.00125038)
(0.000993235 0.133014 0.00113003)
(0.000739187 0.0945514 0.000538389)
(0.000393832 -0.0501705 -5.14105e-05)
(0.000520361 -0.0824528 -9.23373e-05)
(0.000254988 -0.0784565 -0.000169461)
(0.000205412 -0.0658786 -0.000177135)
(0.000113139 -0.0505233 -0.000145996)
(8.00417e-05 -0.0369954 -0.00014394)
(0.000120495 -0.0266032 -0.000154207)
(0.000215798 -0.0202889 -0.000161172)
(0.000289344 -0.0173091 -0.000161093)
(0.000342266 -0.0158549 -0.000155401)
(0.000385347 -0.0150596 -0.000140001)
(0.000421473 -0.0145899 -0.000116232)
(0.000452751 -0.0142852 -8.71551e-05)
(0.00047941 -0.0140716 -5.44803e-05)
(0.000502136 -0.0139176 -1.92539e-05)
(0.000521573 -0.0138114 1.75977e-05)
(0.000538189 -0.0137492 5.5182e-05)
(0.000552212 -0.0137285 9.27447e-05)
(0.000563563 -0.0137556 0.000128823)
(0.000571705 -0.0138267 0.000163051)
(0.000575509 -0.0139233 0.000194127)
(0.000573783 -0.0140276 0.000220807)
(0.00056456 -0.0141036 0.000242226)
(0.000545434 -0.0140842 0.000258145)
(0.000515477 -0.0138674 0.00026894)
(0.000468478 -0.0132819 0.000277646)
(0.00038418 -0.0121183 0.000286778)
(0.000213982 -0.0094978 0.000306023)
(-6.94561e-05 -0.00177403 0.000376081)
(-0.000166364 0.0153731 0.000559365)
(0.000122301 0.0422095 0.000802767)
(0.000552086 0.0757076 0.000985382)
(0.000767394 0.111699 0.00101592)
(0.00126862 0.13482 0.000877283)
(0.000875264 0.0944914 0.000408978)
(0.000447215 -0.0502876 -2.7479e-05)
(0.000557077 -0.0828709 -5.39579e-05)
(0.000224768 -0.0782589 -0.000103748)
(0.000160505 -0.0660643 -0.000119636)
(4.51628e-05 -0.0508989 -9.90471e-05)
(-1.40895e-05 -0.0371842 -9.43679e-05)
(1.69934e-05 -0.0267859 -0.000107234)
(0.000111147 -0.0204439 -0.000115662)
(0.000186728 -0.0174549 -0.000116787)
(0.000240787 -0.0159948 -0.000113569)
(0.000284074 -0.0151956 -0.000102465)
(0.000319962 -0.0147232 -8.41505e-05)
(0.000350916 -0.0144166 -6.13936e-05)
(0.000377301 -0.0142013 -3.57509e-05)
(0.000399945 -0.014046 -8.17394e-06)
(0.00041963 -0.0139395 2.04627e-05)
(0.000436946 -0.013878 4.92712e-05)
(0.00045219 -0.0138594 7.7433e-05)
(0.000465384 -0.0138883 0.000103586)
(0.000476062 -0.0139604 0.000127039)
(0.000483089 -0.0140595 0.000146642)
(0.000485225 -0.0141677 0.000161268)
(0.000480403 -0.0142492 0.000170227)
(0.000466095 -0.0142374 0.000173517)
(0.000441462 -0.0140287 0.00017189)
(0.000400634 -0.0134512 0.000168192)
(0.000321726 -0.0122951 0.000164216)
(0.000154933 -0.00967115 0.000163951)
(-0.000131757 -0.00191745 0.000199777)
(-0.00024453 0.0152817 0.000334923)
(-1.47351e-05 0.0426633 0.000553418)
(0.000316981 0.0770979 0.000728936)
(0.000587595 0.113206 0.000798442)
(0.00126501 0.134248 0.000730247)
(0.000888479 0.0943992 0.000307895)
(0.00045962 -0.0503058 -1.13385e-05)
(0.000561991 -0.0828757 4.76788e-06)
(0.000221177 -0.0787648 -5.45783e-05)
(0.000140055 -0.0662047 -6.61057e-05)
(4.85539e-06 -0.0508503 -5.1306e-05)
(-6.52888e-05 -0.0372273 -5.8996e-05)
(-3.72326e-05 -0.0268886 -7.90722e-05)
(5.19478e-05 -0.0205793 -9.1758e-05)
(0.000126128 -0.0175976 -9.5547e-05)
(0.000179566 -0.016136 -9.44052e-05)
(0.000222114 -0.0153315 -8.5648e-05)
(0.000256815 -0.0148532 -6.99216e-05)
(0.000286165 -0.0145409 -4.98333e-05)
(0.000310481 -0.0143201 -2.6815e-05)
(0.000330605 -0.0141596 -1.72198e-06)
(0.000347293 -0.0140482 2.46397e-05)
(0.000361052 -0.0139823 5.14158e-05)
(0.000372098 -0.01396 7.77663e-05)
(0.000380313 -0.0139846 0.000102434)
(0.000385088 -0.0140517 0.000124631)
(0.000385241 -0.0141463 0.000143203)
(0.000379198 -0.0142503 0.00015709)
(0.000364552 -0.014328 0.000165653)
(0.000338522 -0.014313 0.000168934)
(0.00030014 -0.0140993 0.000168072)
(0.000244364 -0.0135142 0.000166695)
(0.000147378 -0.0123437 0.000170327)
(-5.36227e-05 -0.00966731 0.000191444)
(-0.000420625 -0.00167914 0.000268045)
(-0.000586967 0.0164441 0.00043177)
(-0.000236646 0.0443676 0.000626535)
(0.000359212 0.0784324 0.000760854)
(0.000630784 0.111408 0.000819346)
(0.00135399 0.133191 0.000744796)
(0.000987239 0.0945661 0.000360217)
(0.000490616 -0.0501454 -7.262e-06)
(0.000602207 -0.082973 1.90656e-05)
(0.00023708 -0.0792191 -3.03741e-05)
(0.000140291 -0.0662371 -1.9494e-05)
(-1.38421e-05 -0.0510903 -4.69937e-06)
(-9.19246e-05 -0.0373836 -6.70842e-06)
(-7.02534e-05 -0.0270274 -2.8069e-05)
(2.18752e-05 -0.0207216 -4.49035e-05)
(9.58156e-05 -0.017739 -5.2336e-05)
(0.000147248 -0.0162747 -5.47994e-05)
(0.000187008 -0.0154643 -5.04593e-05)
(0.000219305 -0.0149805 -3.97044e-05)
(0.00024684 -0.0146638 -2.49684e-05)
(0.000270035 -0.0144396 -7.57874e-06)
(0.000289834 -0.0142764 1.16737e-05)
(0.00030708 -0.0141629 3.20074e-05)
(0.000322358 -0.0140954 5.25452e-05)
(0.00033593 -0.0140721 7.23744e-05)
(0.000347762 -0.0140952 9.01977e-05)
(0.000357376 -0.0141603 0.000105033)
(0.000363633 -0.0142533 0.000115739)
(0.000364984 -0.014356 0.000121281)
(0.000359015 -0.0144323 0.000121122)
(0.000343017 -0.0144156 0.000115484)
(0.00031655 -0.014199 0.000105649)
(0.000275579 -0.0136092 9.47515e-05)
(0.000195258 -0.0124295 8.6644e-05)
(1.55993e-05 -0.00973591 8.82422e-05)
(-0.000296416 -0.00179071 0.000134398)
(-0.000346281 0.0155198 0.000283865)
(0.000117901 0.0427246 0.000491602)
(0.000855214 0.0769716 0.000631698)
(0.00106172 0.110518 0.000676461)
(0.00163419 0.134673 0.000580159)
(0.00114446 0.0952665 0.000220335)
(0.000472937 -0.0499955 7.45025e-06)
(0.000561857 -0.083093 3.13601e-05)
(0.000210156 -0.0791605 4.7294e-06)
(0.000121776 -0.0665564 5.89682e-06)
(-2.75889e-05 -0.0510442 2.54618e-05)
(-9.85182e-05 -0.0372198 2.34284e-05)
(-7.60316e-05 -0.0271062 -3.74743e-06)
(1.1843e-05 -0.0208232 -2.23952e-05)
(8.32693e-05 -0.0178437 -3.22886e-05)
(0.000131189 -0.0163769 -3.73604e-05)
(0.000167133 -0.0155644 -3.61929e-05)
(0.000195789 -0.0150809 -2.89419e-05)
(0.000219711 -0.014766 -1.79188e-05)
(0.000239246 -0.0145444 -4.40856e-06)
(0.00025533 -0.0143842 1.08008e-05)
(0.000268809 -0.0142741 2.69021e-05)
(0.00028027 -0.0142107 4.29544e-05)
(0.000290005 -0.0141926 5.79431e-05)
(0.000298023 -0.0142215 7.05306e-05)
(0.000303797 -0.0142931 7.95663e-05)
(0.000306217 -0.0143943 8.38752e-05)
(0.000303693 -0.0145068 8.24423e-05)
(0.000293746 -0.014595 7.48095e-05)
(0.000273432 -0.0145931 6.13456e-05)
(0.00024224 -0.0143943 4.36453e-05)
(0.000195907 -0.0138231 2.55839e-05)
(0.000110741 -0.0126597 1.0537e-05)
(-7.50684e-05 -0.00999742 4.47377e-06)
(-0.000389358 -0.0020681 2.9667e-05)
(-0.000505094 0.0155991 0.000155947)
(-0.000187449 0.042642 0.000364213)
(0.000425627 0.0776185 0.000521408)
(0.00085842 0.114917 0.000562713)
(0.00161252 0.136505 0.000491014)
(0.00110714 0.0949024 0.000192542)
(0.000490933 -0.0499963 -4.35147e-08)
(0.000627393 -0.0829846 2.73049e-05)
(0.000217001 -0.0794548 1.06966e-05)
(9.992e-05 -0.0666006 3.51469e-05)
(-8.2709e-05 -0.0512632 6.03419e-05)
(-0.000172209 -0.0375448 5.87573e-05)
(-0.000150094 -0.027259 3.26667e-05)
(-6.15163e-05 -0.0209259 1.07285e-05)
(8.76332e-06 -0.0179333 -1.10339e-06)
(5.47922e-05 -0.016462 -8.24106e-06)
(8.82496e-05 -0.0156444 -9.97686e-06)
(0.000114182 -0.015157 -6.21445e-06)
(0.000135151 -0.0148386 9.41885e-07)
(0.000151382 -0.0146134 1.02982e-05)
(0.000163766 -0.0144493 2.11305e-05)
(0.000173119 -0.014335 3.26744e-05)
(0.000179963 -0.0142673 4.40004e-05)
(0.000184502 -0.0142452 5.4047e-05)
(0.000186604 -0.014269 6.1529e-05)
(0.000185557 -0.0143344 6.51998e-05)
(0.000180068 -0.0144293 6.38941e-05)
(0.000168167 -0.0145351 5.67099e-05)
(0.000146939 -0.0146158 4.33415e-05)
(0.000113134 -0.014606 2.43596e-05)
(6.71964e-05 -0.014396 1.77346e-06)
(3.80121e-06 -0.0137993 -1.98633e-05)
(-0.000104915 -0.0126073 -3.2705e-05)
(-0.000335858 -0.00987857 -3.12733e-05)
(-0.000778526 -0.0015397 1.45238e-05)
(-0.000963596 0.0167845 0.000156973)
(-0.000524639 0.0442266 0.000359482)
(0.000106971 0.0772993 0.000535293)
(0.000473485 0.112618 0.000615021)
(0.0015025 0.134491 0.00057084)
(0.00116318 0.0950828 0.000276283)
(0.000552823 -0.0500576 -1.4344e-05)
(0.000673084 -0.0832619 2.17121e-05)
(0.000245447 -0.0798793 1.19743e-05)
(9.82609e-05 -0.0664214 5.83157e-05)
(-6.68952e-05 -0.0513492 8.40909e-05)
(-0.00015973 -0.0376078 8.7576e-05)
(-0.000143819 -0.0273396 6.03633e-05)
(-5.51268e-05 -0.0210243 3.62319e-05)
(1.71222e-05 -0.0180333 2.23191e-05)
(6.42338e-05 -0.016559 1.25277e-05)
(9.81056e-05 -0.0157382 7.59635e-06)
(0.000124636 -0.0152488 8.09881e-06)
(0.000146626 -0.0149294 1.22242e-05)
(0.00016443 -0.0147032 1.89078e-05)
(0.000179075 -0.0145384 2.74647e-05)
(0.00019151 -0.0144234 3.71119e-05)
(0.000202395 -0.0143551 4.68462e-05)
(0.000212035 -0.0143326 5.54855e-05)
(0.000220446 -0.0143561 6.15797e-05)
(0.000227094 -0.0144211 6.37047e-05)
(0.000230756 -0.0145158 6.05358e-05)
(0.000229602 -0.0146214 5.10243e-05)
(0.000220875 -0.0147024 3.477e-05)
(0.00020144 -0.0146933 1.23322e-05)
(0.000171359 -0.0144857 -1.42315e-05)
(0.000125846 -0.0139047 -4.06619e-05)
(3.36101e-05 -0.0127203 -6.0205e-05)
(-0.000166218 -0.00997384 -7.02223e-05)
(-0.000505424 -0.00181206 -4.07798e-05)
(-0.00053084 0.0159771 8.49363e-05)
(-9.39138e-06 0.0434064 0.000267953)
(0.000663532 0.0773646 0.000421613)
(0.000890407 0.112119 0.000507244)
(0.00183882 0.135504 0.000457395)
(0.00138847 0.0957184 0.00016704)
(0.00056295 -0.0499589 -2.16695e-05)
(0.000699745 -0.0836015 -4.85993e-06)
(0.000238732 -0.0796877 7.29025e-06)
(8.75056e-05 -0.0669814 5.23956e-05)
(-9.93526e-05 -0.0517245 9.72133e-05)
(-0.000208507 -0.0378421 0.000115961)
(-0.000198511 -0.0274363 9.96334e-05)
(-0.000115342 -0.0210863 7.66542e-05)
(-4.59115e-05 -0.0181004 6.12902e-05)
(-1.60942e-06 -0.0166313 4.9015e-05)
(2.91602e-05 -0.0158132 4.0201e-05)
(5.24338e-05 -0.0153266 3.61579e-05)
(7.08011e-05 -0.0150099 3.5354e-05)
(8.45965e-05 -0.0147867 3.6824e-05)
(9.4905e-05 -0.0146251 3.99312e-05)
(0.000102724 -0.0145139 4.39121e-05)
(0.000108718 -0.0144504 4.77476e-05)
(0.000113216 -0.0144341 5.01846e-05)
(0.000116153 -0.0144641 4.97625e-05)
(0.000116873 -0.0145361 4.49789e-05)
(0.000114088 -0.0146395 3.45005e-05)
(0.000105729 -0.0147554 1.73824e-05)
(8.87346e-05 -0.0148488 -6.61058e-06)
(5.96894e-05 -0.0148553 -3.66992e-05)
(1.73583e-05 -0.0146658 -7.05392e-05)
(-4.15401e-05 -0.0141083 -0.000103033)
(-0.000148639 -0.0129488 -0.000126042)
(-0.00037968 -0.0102453 -0.000134282)
(-0.000791042 -0.00208145 -0.000101658)
(-0.000911623 0.0160927 3.39685e-05)
(-0.00051034 0.0433708 0.000241616)
(0.000278439 0.079921 0.000390696)
(0.00086197 0.115342 0.000478633)
(0.00186152 0.136061 0.000443725)
(0.0013408 0.0950313 0.000192201)
(0.000539559 -0.049986 -1.21807e-05)
(0.000676761 -0.0834662 1.07948e-05)
(0.00023958 -0.0798116 -1.25085e-06)
(0.000103872 -0.0671998 3.05948e-05)
(-0.00012463 -0.051515 8.64172e-05)
(-0.000247812 -0.0377946 0.000101553)
(-0.000236599 -0.0274323 8.95051e-05)
(-0.000147353 -0.0211398 7.30793e-05)
(-7.5247e-05 -0.0181707 6.04112e-05)
(-2.91405e-05 -0.0167017 4.87931e-05)
(2.46195e-06 -0.0158794 3.97139e-05)
(2.57827e-05 -0.0153893 3.47653e-05)
(4.35515e-05 -0.0150697 3.28091e-05)
(5.60786e-05 -0.0148438 3.30891e-05)
(6.44738e-05 -0.0146794 3.50473e-05)
(6.97469e-05 -0.0145655 3.79224e-05)
(7.25315e-05 -0.0144989 4.06488e-05)
(7.30881e-05 -0.0144792 4.1889e-05)
(7.12406e-05 -0.0145052 4.01033e-05)
(6.62007e-05 -0.0145718 3.37041e-05)
(5.64677e-05 -0.0146688 2.1293e-05)
(3.96256e-05 -0.0147771 1.93159e-06)
(1.21751e-05 -0.0148613 -2.45562e-05)
(-2.98391e-05 -0.0148575 -5.72687e-05)
(-8.79054e-05 -0.0146563 -9.36898e-05)
(-0.000168601 -0.0140843 -0.000128371)
(-0.00030565 -0.0128995 -0.000151031)
(-0.00059219 -0.0101004 -0.000153284)
(-0.00110695 -0.00167367 -0.00010656)
(-0.00131666 0.0170947 3.77969e-05)
(-0.000790563 0.0448254 0.000236479)
(8.19624e-05 0.0776528 0.000415129)
(0.000567915 0.112445 0.000515925)
(0.00178538 0.134518 0.000477948)
(0.00137971 0.0952967 0.000238987)
(0.000647185 -0.0499769 -1.54615e-05)