/*--------------------------------*- C++ -*----------------------------------*\
  =========                 |
  \\      /  F ield         | OpenFOAM: The Open Source CFD Toolbox
   \\    /   O peration     | Website:  https://openfoam.org
    \\  /    A nd           | Version:  13
     \\/     M anipulation  |
\*---------------------------------------------------------------------------*/
FoamFile
{
    format      ascii;
    class       volScalarField;
    location    "400";
    object      k;
}
// * * * * * * * * * * * * * * * * * * * * * * * * * * * * * * * * * * * * * //

dimensions      [0 2 -2 0 0 0 0];

internalField   nonuniform List<scalar> 
78750
(
2.22045e-16
2.22045e-16
2.22045e-16
2.22045e-16
2.22045e-16
2.22045e-16
2.22045e-16
2.22045e-16
2.22045e-16
2.22045e-16
2.22045e-16
2.22045e-16
2.28925e-16
2.44666e-16
2.58265e-16
2.68669e-16
2.75282e-16
2.77778e-16
2.7604e-16
2.70147e-16
2.60381e-16
2.47286e-16
2.31822e-16
2.22045e-16
2.22045e-16
2.22045e-16
2.22045e-16
2.22045e-16
2.22045e-16
2.22045e-16
2.22045e-16
2.22045e-16
2.22045e-16
2.22045e-16
2.22045e-16
2.22045e-16
2.22045e-16
5.57241e-16
9.81467e-16
1.43109e-15
1.9101e-15
2.41879e-15
2.95335e-15
3.50595e-15
4.06512e-15
4.61652e-15
5.14381e-15
5.62968e-15
6.05698e-15
6.40987e-15
6.67478e-15
6.8413e-15
6.90274e-15
6.85658e-15
6.70462e-15
6.45286e-15
6.11113e-15
5.69255e-15
5.21266e-15
4.68845e-15
4.13725e-15
3.57553e-15
3.01797e-15
2.47639e-15
1.95904e-15
1.47007e-15
1.00942e-15
5.73079e-16
2.22045e-16
2.22045e-16
2.22045e-16
3.03607e-16
1.45493e-15
2.66203e-15
3.95924e-15
5.36932e-15
6.90082e-15
8.54653e-15
1.02833e-14
1.20734e-14
1.38668e-14
1.56048e-14
1.72239e-14
1.86602e-14
1.98539e-14
2.07532e-14
2.13181e-14
2.1523e-14
2.13584e-14
2.08318e-14
1.99668e-14
1.88017e-14
1.7387e-14
1.57819e-14
1.40499e-14
1.22548e-14
1.04561e-14
8.70469e-15
7.03967e-15
5.48545e-15
4.05041e-15
2.72681e-15
1.49218e-15
3.11455e-16
2.22045e-16
2.22045e-16
5.60928e-16
2.7457e-15
5.04636e-15
7.53617e-15
1.02654e-14
1.32556e-14
1.64962e-14
1.99433e-14
2.35222e-14
2.71313e-14
3.06491e-14
3.39424e-14
3.68755e-14
3.93203e-14
4.11651e-14
4.23233e-14
4.27392e-14
4.23927e-14
4.13002e-14
3.95139e-14
3.71177e-14
3.42208e-14
3.09504e-14
2.74417e-14
2.38285e-14
2.02337e-14
1.67606e-14
1.34864e-14
1.04572e-14
7.6856e-15
5.15159e-15
2.80542e-15
5.73439e-16
2.22045e-16
2.22045e-16
8.47674e-16
4.18308e-15
7.69928e-15
1.1512e-14
1.57011e-14
2.03021e-14
2.53002e-14
3.06285e-14
3.61715e-14
4.17713e-14
4.7238e-14
5.23625e-14
5.69312e-14
6.07417e-14
6.36175e-14
6.54212e-14
6.60649e-14
6.55168e-14
6.38035e-14
6.10082e-14
5.72644e-14
5.27454e-14
4.7652e-14
4.21974e-14
3.65915e-14
3.1026e-14
2.56615e-14
2.06168e-14
1.59619e-14
1.17145e-14
7.84134e-15
4.26337e-15
8.6444e-16
2.22045e-16
2.22045e-16
1.12762e-15
5.58609e-15
1.02872e-14
1.53869e-14
2.09933e-14
2.71547e-14
3.38514e-14
4.09944e-14
4.84285e-14
5.59417e-14
6.32787e-14
7.0158e-14
7.6292e-14
8.1408e-14
8.52682e-14
8.76873e-14
8.8547e-14
8.78047e-14
8.54967e-14
8.17355e-14
7.67013e-14
7.06284e-14
6.37873e-14
5.6465e-14
4.8944e-14
4.1482e-14
3.42943e-14
2.75399e-14
2.1312e-14
1.56338e-14
1.04599e-14
5.68346e-15
1.14792e-15
2.22045e-16
2.22045e-16
1.37983e-15
6.84999e-15
1.26177e-14
1.88748e-14
2.57543e-14
3.33154e-14
4.15345e-14
5.03019e-14
5.94274e-14
6.86503e-14
7.7657e-14
8.61017e-14
9.36312e-14
9.99103e-14
1.04647e-13
1.07613e-13
1.08664e-13
1.07748e-13
1.04909e-13
1.00287e-13
9.41019e-14
8.66426e-14
7.82417e-14
6.92519e-14
6.00199e-14
5.08622e-14
4.2043e-14
3.37574e-14
2.61194e-14
1.91572e-14
1.28149e-14
6.96088e-15
1.40293e-15
2.22045e-16
2.22045e-16
1.59369e-15
7.92173e-15
1.45936e-14
2.18313e-14
2.97889e-14
3.85349e-14
4.80419e-14
5.81831e-14
6.87382e-14
7.94057e-14
8.98228e-14
9.95893e-14
1.08297e-13
1.15557e-13
1.21033e-13
1.2446e-13
1.25673e-13
1.24609e-13
1.21322e-13
1.15971e-13
1.08815e-13
1.00184e-13
9.04661e-14
8.00675e-14
6.93899e-14
5.87991e-14
4.86007e-14
3.90202e-14
3.01895e-14
2.21408e-14
1.48093e-14
8.04281e-15
1.6189e-15
2.22045e-16
2.22045e-16
1.76537e-15
8.78214e-15
1.61797e-14
2.42045e-14
3.30271e-14
4.27237e-14
5.32636e-14
6.45065e-14
7.62078e-14
8.80335e-14
9.9581e-14
1.10407e-13
1.20058e-13
1.28104e-13
1.34172e-13
1.37969e-13
1.3931e-13
1.38127e-13
1.3448e-13
1.28546e-13
1.2061e-13
1.11041e-13
1.00267e-13
8.87391e-14
7.69026e-14
6.5163e-14
5.3859e-14
4.32404e-14
3.34532e-14
2.45333e-14
1.64086e-14
8.91044e-15
1.79206e-15
2.22045e-16
2.22045e-16
1.89596e-15
9.43677e-15
1.73866e-14
2.601e-14
3.54907e-14
4.59103e-14
5.72358e-14
6.93165e-14
8.18895e-14
9.45958e-14
1.07003e-13
1.18634e-13
1.29002e-13
1.37646e-13
1.44164e-13
1.48241e-13
1.49679e-13
1.48406e-13
1.44485e-13
1.38107e-13
1.29578e-13
1.19295e-13
1.07718e-13
9.53312e-14
8.26135e-14
7.00005e-14
5.78559e-14
4.64482e-14
3.5934e-14
2.63518e-14
1.76242e-14
9.56985e-15
1.92364e-15
2.22045e-16
2.22045e-16
1.9901e-15
9.90879e-15
1.82567e-14
2.73119e-14
3.7267e-14
4.82078e-14
6.00998e-14
7.27844e-14
8.59858e-14
9.93269e-14
1.12353e-13
1.24565e-13
1.3545e-13
1.44525e-13
1.51366e-13
1.55646e-13
1.57153e-13
1.55815e-13
1.51696e-13
1.44997e-13
1.36041e-13
1.25244e-13
1.13087e-13
1.00081e-13
8.67284e-14
7.34859e-14
6.07356e-14
4.87591e-14
3.77211e-14
2.76618e-14
1.84998e-14
1.00448e-14
2.01838e-15
2.22045e-16
2.22045e-16
2.05442e-15
1.02314e-14
1.88514e-14
2.82016e-14
3.84809e-14
4.9778e-14
6.20571e-14
7.51545e-14
8.87853e-14
1.0256e-13
1.1601e-13
1.28618e-13
1.39857e-13
1.49226e-13
1.56288e-13
1.60705e-13
1.6226e-13
1.60877e-13
1.56623e-13
1.49705e-13
1.40456e-13
1.29307e-13
1.16754e-13
1.03326e-13
8.9539e-14
7.58663e-14
6.27021e-14
5.03371e-14
3.89413e-14
2.85562e-14
1.90976e-14
1.0369e-14
2.08304e-15
2.22045e-16
2.22045e-16
2.0961e-15
1.04404e-14
1.92368e-14
2.87783e-14
3.92678e-14
5.07957e-14
6.33257e-14
7.66907e-14
9.05999e-14
1.04656e-13
1.1838e-13
1.31245e-13
1.42713e-13
1.52272e-13
1.59478e-13
1.63984e-13
1.6557e-13
1.64158e-13
1.59815e-13
1.52756e-13
1.43317e-13
1.3194e-13
1.19131e-13
1.05428e-13
9.13596e-14
7.74082e-14
6.39758e-14
5.13592e-14
3.97316e-14
2.91353e-14
1.94847e-14
1.05789e-14
2.12489e-15
2.22045e-16
2.22045e-16
2.12174e-15
1.05691e-14
1.9474e-14
2.91331e-14
3.9752e-14
5.1422e-14
6.41064e-14
7.76361e-14
9.17166e-14
1.05946e-13
1.19839e-13
1.32862e-13
1.44471e-13
1.54147e-13
1.61441e-13
1.66002e-13
1.67607e-13
1.66176e-13
1.6178e-13
1.54632e-13
1.45077e-13
1.33559e-13
1.20592e-13
1.06721e-13
9.24793e-14
7.83564e-14
6.4759e-14
5.19876e-14
4.02174e-14
2.94914e-14
1.97226e-14
1.0708e-14
2.1506e-15
2.22045e-16
2.22045e-16
2.13672e-15
1.06443e-14
1.96128e-14
2.93407e-14
4.00352e-14
5.17884e-14
6.45631e-14
7.81891e-14
9.23698e-14
1.067e-13
1.20692e-13
1.33808e-13
1.45499e-13
1.55244e-13
1.62589e-13
1.67182e-13
1.68798e-13
1.67357e-13
1.62929e-13
1.5573e-13
1.46107e-13
1.34506e-13
1.21447e-13
1.07477e-13
9.3134e-14
7.89107e-14
6.52169e-14
5.23549e-14
4.05014e-14
2.96995e-14
1.98617e-14
1.07834e-14
2.16562e-15
2.22045e-16
2.22045e-16
2.14507e-15
1.06862e-14
1.969e-14
2.94563e-14
4.01929e-14
5.19924e-14
6.48174e-14
7.8497e-14
9.27336e-14
1.0712e-13
1.21167e-13
1.34335e-13
1.46071e-13
1.55855e-13
1.63229e-13
1.6784e-13
1.69462e-13
1.68014e-13
1.63568e-13
1.56341e-13
1.4668e-13
1.35034e-13
1.21923e-13
1.07897e-13
9.34984e-14
7.92192e-14
6.54717e-14
5.25593e-14
4.06594e-14
2.98152e-14
1.9939e-14
1.08253e-14
2.17397e-15
2.22045e-16
2.22045e-16
2.14949e-15
1.07085e-14
1.9731e-14
2.95177e-14
4.02766e-14
5.21007e-14
6.49525e-14
7.86606e-14
9.29267e-14
1.07343e-13
1.21419e-13
1.34614e-13
1.46375e-13
1.56179e-13
1.63568e-13
1.68189e-13
1.69814e-13
1.68363e-13
1.63908e-13
1.56666e-13
1.46984e-13
1.35314e-13
1.22175e-13
1.08121e-13
9.36918e-14
7.93829e-14
6.56069e-14
5.26677e-14
4.07432e-14
2.98767e-14
1.998e-14
1.08476e-14
2.1784e-15
2.22045e-16
2.22045e-16
2.15174e-15
1.07198e-14
1.97518e-14
2.95488e-14
4.03191e-14
5.21556e-14
6.50209e-14
7.87435e-14
9.30247e-14
1.07456e-13
1.21547e-13
1.34756e-13
1.4653e-13
1.56343e-13
1.6374e-13
1.68366e-13
1.69992e-13
1.6854e-13
1.6408e-13
1.5683e-13
1.47138e-13
1.35455e-13
1.22303e-13
1.08234e-13
9.37898e-14
7.94659e-14
6.56754e-14
5.27227e-14
4.07857e-14
2.99078e-14
2.00008e-14
1.08588e-14
2.18064e-15
2.22045e-16
2.22045e-16
2.15283e-15
1.07252e-14
1.97619e-14
2.95639e-14
4.03397e-14
5.21823e-14
6.50542e-14
7.87837e-14
9.30722e-14
1.07511e-13
1.21609e-13
1.34825e-13
1.46604e-13
1.56423e-13
1.63824e-13
1.68452e-13
1.70079e-13
1.68626e-13
1.64164e-13
1.5691e-13
1.47213e-13
1.35524e-13
1.22365e-13
1.08289e-13
9.38373e-14
7.95061e-14
6.57086e-14
5.27493e-14
4.08063e-14
2.99229e-14
2.00109e-14
1.08643e-14
2.18173e-15
2.22045e-16
2.22045e-16
2.15333e-15
1.07278e-14
1.97666e-14
2.95709e-14
4.03492e-14
5.21946e-14
6.50696e-14
7.88024e-14
9.30943e-14
1.07537e-13
1.21638e-13
1.34857e-13
1.46639e-13
1.5646e-13
1.63863e-13
1.68491e-13
1.70119e-13
1.68666e-13
1.64203e-13
1.56947e-13
1.47248e-13
1.35556e-13
1.22394e-13
1.08314e-13
9.38594e-14
7.95248e-14
6.5724e-14
5.27617e-14
4.08158e-14
2.99299e-14
2.00156e-14
1.08668e-14
2.18223e-15
2.22045e-16
2.22045e-16
2.15356e-15
1.07289e-14
1.97687e-14
2.9574e-14
4.03535e-14
5.22002e-14
6.50765e-14
7.88107e-14
9.31041e-14
1.07548e-13
1.21651e-13
1.34871e-13
1.46655e-13
1.56477e-13
1.6388e-13
1.68509e-13
1.70137e-13
1.68684e-13
1.6422e-13
1.56964e-13
1.47263e-13
1.3557e-13
1.22407e-13
1.08326e-13
9.38692e-14
7.95332e-14
6.57309e-14
5.27672e-14
4.08201e-14
2.9933e-14
2.00177e-14
1.08679e-14
2.18246e-15
2.22045e-16
2.22045e-16
2.15365e-15
1.07294e-14
1.97696e-14
2.95753e-14
4.03553e-14
5.22025e-14
6.50794e-14
7.88143e-14
9.31084e-14
1.07553e-13
1.21657e-13
1.34877e-13
1.46661e-13
1.56484e-13
1.63887e-13
1.68517e-13
1.70145e-13
1.68691e-13
1.64227e-13
1.56971e-13
1.4727e-13
1.35577e-13
1.22413e-13
1.0833e-13
9.38734e-14
7.95367e-14
6.57338e-14
5.27695e-14
4.08219e-14
2.99343e-14
2.00186e-14
1.08684e-14
2.18255e-15
2.22045e-16
2.22045e-16
2.15369e-15
1.07296e-14
1.97699e-14
2.95759e-14
4.03561e-14
5.22035e-14
6.50806e-14
7.88158e-14
9.31101e-14
1.07555e-13
1.21659e-13
1.3488e-13
1.46664e-13
1.56487e-13
1.63891e-13
1.6852e-13
1.70148e-13
1.68695e-13
1.6423e-13
1.56974e-13
1.47273e-13
1.35579e-13
1.22415e-13
1.08332e-13
9.38752e-14
7.95382e-14
6.5735e-14
5.27705e-14
4.08227e-14
2.99349e-14
2.00189e-14
1.08686e-14
2.18259e-15
2.22045e-16
2.22045e-16
2.15371e-15
1.07297e-14
1.97701e-14
2.95761e-14
4.03564e-14
5.22039e-14
6.50811e-14
7.88164e-14
9.31108e-14
1.07556e-13
1.2166e-13
1.34881e-13
1.46665e-13
1.56488e-13
1.63892e-13
1.68521e-13
1.70149e-13
1.68696e-13
1.64232e-13
1.56975e-13
1.47274e-13
1.3558e-13
1.22416e-13
1.08333e-13
9.38758e-14
7.95388e-14
6.57355e-14
5.27709e-14
4.0823e-14
2.99351e-14
2.00191e-14
1.08687e-14
2.18261e-15
2.22045e-16
2.22045e-16
2.15371e-15
1.07297e-14
1.97701e-14
2.95762e-14
4.03565e-14
5.2204e-14
6.50813e-14
7.88166e-14
9.3111e-14
1.07556e-13
1.2166e-13
1.34881e-13
1.46665e-13
1.56488e-13
1.63892e-13
1.68522e-13
1.7015e-13
1.68696e-13
1.64232e-13
1.56975e-13
1.47274e-13
1.3558e-13
1.22416e-13
1.08334e-13
9.38761e-14
7.9539e-14
6.57357e-14
5.27711e-14
4.08231e-14
2.99352e-14
2.00191e-14
1.08687e-14
2.18261e-15
2.22045e-16
2.22045e-16
2.15372e-15
1.07297e-14
1.97702e-14
2.95762e-14
4.03565e-14
5.22041e-14
6.50814e-14
7.88167e-14
9.31111e-14
1.07556e-13
1.2166e-13
1.34881e-13
1.46666e-13
1.56488e-13
1.63892e-13
1.68522e-13
1.7015e-13
1.68696e-13
1.64232e-13
1.56975e-13
1.47274e-13
1.35581e-13
1.22416e-13
1.08334e-13
9.38762e-14
7.95391e-14
6.57358e-14
5.27711e-14
4.08231e-14
2.99352e-14
2.00191e-14
1.08687e-14
2.18261e-15
2.22045e-16
2.22045e-16
2.15372e-15
1.07297e-14
1.97702e-14
2.95762e-14
4.03566e-14
5.22041e-14
6.50814e-14
7.88167e-14
9.31112e-14
1.07556e-13
1.2166e-13
1.34881e-13
1.46666e-13
1.56489e-13
1.63892e-13
1.68522e-13
1.7015e-13
1.68696e-13
1.64232e-13
1.56975e-13
1.47274e-13
1.35581e-13
1.22416e-13
1.08334e-13
9.38762e-14
7.95391e-14
6.57358e-14
5.27711e-14
4.08231e-14
2.99352e-14
2.00191e-14
1.08688e-14
2.18262e-15
2.22045e-16
2.22045e-16
2.15372e-15
1.07297e-14
1.97702e-14
2.95762e-14
4.03566e-14
5.22041e-14
6.50814e-14
7.88167e-14
9.31112e-14
1.07556e-13
1.2166e-13
1.34881e-13
1.46666e-13
1.56489e-13
1.63892e-13
1.68522e-13
1.7015e-13
1.68697e-13
1.64232e-13
1.56975e-13
1.47274e-13
1.35581e-13
1.22416e-13
1.08334e-13
9.38762e-14
7.95391e-14
6.57358e-14
5.27711e-14
4.08231e-14
2.99352e-14
2.00191e-14
1.08688e-14
2.18262e-15
2.22045e-16
2.22045e-16
2.15372e-15
1.07297e-14
1.97702e-14
2.95762e-14
4.03566e-14
5.22041e-14
6.50814e-14
7.88167e-14
9.31112e-14
1.07556e-13
1.2166e-13
1.34881e-13
1.46666e-13
1.56489e-13
1.63892e-13
1.68522e-13
1.7015e-13
1.68697e-13
1.64232e-13
1.56975e-13
1.47274e-13
1.35581e-13
1.22416e-13
1.08334e-13
9.38763e-14
7.95391e-14
6.57358e-14
5.27711e-14
4.08231e-14
2.99352e-14
2.00192e-14
1.08688e-14
2.18262e-15
2.22045e-16
2.22045e-16
2.15372e-15
1.07297e-14
1.97702e-14
2.95762e-14
4.03566e-14
5.22041e-14
6.50814e-14
7.88167e-14
9.31112e-14
1.07556e-13
1.2166e-13
1.34881e-13
1.46666e-13
1.56489e-13
1.63892e-13
1.68522e-13
1.7015e-13
1.68697e-13
1.64232e-13
1.56975e-13
1.47274e-13
1.35581e-13
1.22416e-13
1.08334e-13
9.38763e-14
7.95391e-14
6.57358e-14
5.27711e-14
4.08231e-14
2.99352e-14
2.00192e-14
1.08688e-14
2.18262e-15
2.22045e-16
2.22045e-16
2.15372e-15
1.07297e-14
1.97702e-14
2.95762e-14
4.03566e-14
5.22041e-14
6.50814e-14
7.88167e-14
9.31112e-14
1.07556e-13
1.2166e-13
1.34881e-13
1.46666e-13
1.56489e-13
1.63892e-13
1.68522e-13
1.7015e-13
1.68697e-13
1.64232e-13
1.56975e-13
1.47274e-13
1.35581e-13
1.22416e-13
1.08334e-13
9.38763e-14
7.95391e-14
6.57358e-14
5.27711e-14
4.08231e-14
2.99352e-14
2.00192e-14
1.08688e-14
2.18262e-15
2.22045e-16
2.22045e-16
2.15372e-15
1.07297e-14
1.97702e-14
2.95762e-14
4.03566e-14
5.22041e-14
6.50814e-14
7.88167e-14
9.31112e-14
1.07556e-13
1.2166e-13
1.34881e-13
1.46666e-13
1.56489e-13
1.63892e-13
1.68522e-13
1.7015e-13
1.68697e-13
1.64232e-13
1.56975e-13
1.47274e-13
1.35581e-13
1.22416e-13
1.08334e-13
9.38763e-14
7.95391e-14
6.57358e-14
5.27711e-14
4.08231e-14
2.99352e-14
2.00192e-14
1.08688e-14
2.18262e-15
2.22045e-16
2.22045e-16
2.15372e-15
1.07297e-14
1.97702e-14
2.95762e-14
4.03566e-14
5.22041e-14
6.50814e-14
7.88167e-14
9.31112e-14
1.07556e-13
1.2166e-13
1.34881e-13
1.46666e-13
1.56489e-13
1.63892e-13
1.68522e-13
1.7015e-13
1.68697e-13
1.64232e-13
1.56975e-13
1.47274e-13
1.35581e-13
1.22416e-13
1.08334e-13
9.38763e-14
7.95391e-14
6.57358e-14
5.27711e-14
4.08231e-14
2.99352e-14
2.00192e-14
1.08688e-14
2.18262e-15
2.22045e-16
2.22045e-16
2.15372e-15
1.07297e-14
1.97702e-14
2.95762e-14
4.03566e-14
5.22041e-14
6.50814e-14
7.88167e-14
9.31112e-14
1.07556e-13
1.2166e-13
1.34881e-13
1.46666e-13
1.56489e-13
1.63892e-13
1.68522e-13
1.7015e-13
1.68697e-13
1.64232e-13
1.56975e-13
1.47274e-13
1.35581e-13
1.22416e-13
1.08334e-13
9.38763e-14
7.95391e-14
6.57358e-14
5.27711e-14
4.08231e-14
2.99352e-14
2.00192e-14
1.08688e-14
2.18262e-15
2.22045e-16
2.22045e-16
2.15372e-15
1.07297e-14
1.97702e-14
2.95762e-14
4.03566e-14
5.22041e-14
6.50814e-14
7.88167e-14
9.31112e-14
1.07556e-13
1.2166e-13
1.34881e-13
1.46666e-13
1.56489e-13
1.63892e-13
1.68522e-13
1.7015e-13
1.68697e-13
1.64232e-13
1.56975e-13
1.47274e-13
1.35581e-13
1.22416e-13
1.08334e-13
9.38763e-14
7.95391e-14
6.57358e-14
5.27711e-14
4.08231e-14
2.99352e-14
2.00192e-14
1.08688e-14
2.18262e-15
2.22045e-16
2.22045e-16
2.15372e-15
1.07297e-14
1.97702e-14
2.95762e-14
4.03566e-14
5.22041e-14
6.50814e-14
7.88167e-14
9.31112e-14
1.07556e-13
1.2166e-13
1.34881e-13
1.46666e-13
1.56489e-13
1.63892e-13
1.68522e-13
1.7015e-13
1.68697e-13
1.64232e-13
1.56975e-13
1.47274e-13
1.35581e-13
1.22416e-13
1.08334e-13
9.38763e-14
7.95391e-14
6.57358e-14
5.27711e-14
4.08231e-14
2.99352e-14
2.00192e-14
1.08688e-14
2.18262e-15
2.22045e-16
2.22045e-16
2.15372e-15
1.07297e-14
1.97702e-14
2.95762e-14
4.03566e-14
5.22041e-14
6.50814e-14
7.88167e-14
9.31112e-14
1.07556e-13
1.2166e-13
1.34881e-13
1.46666e-13
1.56489e-13
1.63892e-13
1.68522e-13
1.7015e-13
1.68697e-13
1.64232e-13
1.56975e-13
1.47274e-13
1.35581e-13
1.22416e-13
1.08334e-13
9.38763e-14
7.95391e-14
6.57358e-14
5.27711e-14
4.08231e-14
2.99352e-14
2.00192e-14
1.08688e-14
2.18262e-15
2.22045e-16
2.22045e-16
2.15372e-15
1.07297e-14
1.97702e-14
2.95762e-14
4.03566e-14
5.22041e-14
6.50814e-14
7.88167e-14
9.31112e-14
1.07556e-13
1.2166e-13
1.34881e-13
1.46666e-13
1.56489e-13
1.63892e-13
1.68522e-13
1.7015e-13
1.68697e-13
1.64232e-13
1.56975e-13
1.47274e-13
1.35581e-13
1.22416e-13
1.08334e-13
9.38763e-14
7.95391e-14
6.57358e-14
5.27711e-14
4.08231e-14
2.99352e-14
2.00192e-14
1.08688e-14
2.18262e-15
2.22045e-16
2.22045e-16
2.15372e-15
1.07297e-14
1.97702e-14
2.95762e-14
4.03566e-14
5.22041e-14
6.50814e-14
7.88167e-14
9.31112e-14
1.07556e-13
1.2166e-13
1.34881e-13
1.46666e-13
1.56489e-13
1.63892e-13
1.68522e-13
1.7015e-13
1.68697e-13
1.64232e-13
1.56975e-13
1.47274e-13
1.35581e-13
1.22416e-13
1.08334e-13
9.38763e-14
7.95391e-14
6.57358e-14
5.27711e-14
4.08231e-14
2.99352e-14
2.00192e-14
1.08688e-14
2.18262e-15
2.22045e-16
2.22045e-16
2.15372e-15
1.07297e-14
1.97702e-14
2.95762e-14
4.03566e-14
5.22041e-14
6.50814e-14
7.88167e-14
9.31112e-14
1.07556e-13
1.2166e-13
1.34881e-13
1.46666e-13
1.56489e-13
1.63892e-13
1.68522e-13
1.7015e-13
1.68697e-13
1.64232e-13
1.56975e-13
1.47274e-13
1.35581e-13
1.22416e-13
1.08334e-13
9.38763e-14
7.95391e-14
6.57358e-14
5.27711e-14
4.08231e-14
2.99352e-14
2.00192e-14
1.08688e-14
2.18262e-15
2.22045e-16
2.22045e-16
2.15372e-15
1.07297e-14
1.97702e-14
2.95762e-14
4.03566e-14
5.22041e-14
6.50814e-14
7.88167e-14
9.31112e-14
1.07556e-13
1.2166e-13
1.34881e-13
1.46666e-13
1.56489e-13
1.63892e-13
1.68522e-13
1.7015e-13
1.68697e-13
1.64232e-13
1.56975e-13
1.47274e-13
1.35581e-13
1.22416e-13
1.08334e-13
9.38763e-14
7.95391e-14
6.57358e-14
5.27711e-14
4.08231e-14
2.99352e-14
2.00192e-14
1.08688e-14
2.18262e-15
2.22045e-16
2.22045e-16
2.15372e-15
1.07297e-14
1.97702e-14
2.95762e-14
4.03566e-14
5.22041e-14
6.50814e-14
7.88167e-14
9.31112e-14
1.07556e-13
1.2166e-13
1.34881e-13
1.46666e-13
1.56489e-13
1.63892e-13
1.68522e-13
1.7015e-13
1.68697e-13
1.64232e-13
1.56975e-13
1.47274e-13
1.35581e-13
1.22416e-13
1.08334e-13
9.38763e-14
7.95391e-14
6.57358e-14
5.27711e-14
4.08231e-14
2.99352e-14
2.00192e-14
1.08688e-14
2.18262e-15
2.22045e-16
2.22045e-16
2.15372e-15
1.07297e-14
1.97702e-14
2.95762e-14
4.03566e-14
5.22041e-14
6.50814e-14
7.88167e-14
9.31112e-14
1.07556e-13
1.2166e-13
1.34881e-13
1.46666e-13
1.56489e-13
1.63892e-13
1.68522e-13
1.7015e-13
1.68697e-13
1.64232e-13
1.56975e-13
1.47274e-13
1.35581e-13
1.22416e-13
1.08334e-13
9.38763e-14
7.95391e-14
6.57358e-14
5.27711e-14
4.08231e-14
2.99352e-14
2.00192e-14
1.08688e-14
2.18262e-15
2.22045e-16
2.22045e-16
2.15372e-15
1.07297e-14
1.97702e-14
2.95762e-14
4.03566e-14
5.22041e-14
6.50814e-14
7.88167e-14
9.31112e-14
1.07556e-13
1.2166e-13
1.34881e-13
1.46666e-13
1.56489e-13
1.63892e-13
1.68522e-13
1.7015e-13
1.68697e-13
1.64232e-13
1.56975e-13
1.47274e-13
1.35581e-13
1.22416e-13
1.08334e-13
9.38763e-14
7.95391e-14
6.57358e-14
5.27711e-14
4.08231e-14
2.99352e-14
2.00192e-14
1.08688e-14
2.18262e-15
2.22045e-16
2.22045e-16
2.15372e-15
1.07297e-14
1.97702e-14
2.95762e-14
4.03566e-14
5.22041e-14
6.50814e-14
7.88167e-14
9.31112e-14
1.07556e-13
1.2166e-13
1.34881e-13
1.46666e-13
1.56489e-13
1.63892e-13
1.68522e-13
1.7015e-13
1.68697e-13
1.64232e-13
1.56975e-13
1.47274e-13
1.35581e-13
1.22416e-13
1.08334e-13
9.38763e-14
7.95391e-14
6.57358e-14
5.27711e-14
4.08231e-14
2.99352e-14
2.00192e-14
1.08688e-14
2.18262e-15
2.22045e-16
2.22045e-16
2.15372e-15
1.07297e-14
1.97702e-14
2.95762e-14
4.03566e-14
5.22041e-14
6.50814e-14
7.88167e-14
9.31112e-14
1.07556e-13
1.2166e-13
1.34881e-13
1.46666e-13
1.56489e-13
1.63892e-13
1.68522e-13
1.7015e-13
1.68697e-13
1.64232e-13
1.56975e-13
1.47274e-13
1.35581e-13
1.22416e-13
1.08334e-13
9.38763e-14
7.95391e-14
6.57358e-14
5.27711e-14
4.08231e-14
2.99352e-14
2.00192e-14
1.08688e-14
2.18262e-15
2.22045e-16
2.22045e-16
2.15372e-15
1.07297e-14
1.97702e-14
2.95762e-14
4.03566e-14
5.22041e-14
6.50814e-14
7.88167e-14
9.31112e-14
1.07556e-13
1.2166e-13
1.34881e-13
1.46666e-13
1.56489e-13
1.63892e-13
1.68522e-13
1.7015e-13
1.68697e-13
1.64232e-13
1.56975e-13
1.47274e-13
1.35581e-13
1.22416e-13
1.08334e-13
9.38763e-14
7.95391e-14
6.57358e-14
5.27711e-14
4.08231e-14
2.99352e-14
2.00192e-14
1.08688e-14
2.18262e-15
2.22045e-16
2.22045e-16
2.15372e-15
1.07297e-14
1.97702e-14
2.95762e-14
4.03566e-14
5.22041e-14
6.50814e-14
7.88167e-14
9.31112e-14
1.07556e-13
1.2166e-13
1.34881e-13
1.46666e-13
1.56489e-13
1.63892e-13
1.68522e-13
1.7015e-13
1.68697e-13
1.64232e-13
1.56975e-13
1.47274e-13
1.35581e-13
1.22416e-13
1.08334e-13
9.38763e-14
7.95391e-14
6.57358e-14
5.27711e-14
4.08231e-14
2.99352e-14
2.00192e-14
1.08688e-14
2.18262e-15
2.22045e-16
2.22045e-16
2.15372e-15
1.07297e-14
1.97702e-14
2.95762e-14
4.03566e-14
5.22041e-14
6.50814e-14
7.88167e-14
9.31112e-14
1.07556e-13
1.2166e-13
1.34881e-13
1.46666e-13
1.56489e-13
1.63892e-13
1.68522e-13
1.7015e-13
1.68697e-13
1.64232e-13
1.56975e-13
1.47274e-13
1.35581e-13
1.22416e-13
1.08334e-13
9.38763e-14
7.95391e-14
6.57358e-14
5.27711e-14
4.08231e-14
2.99352e-14
2.00192e-14
1.08688e-14
2.18262e-15
2.22045e-16
2.22045e-16
2.15372e-15
1.07297e-14
1.97702e-14
2.95762e-14
4.03566e-14
5.22041e-14
6.50814e-14
7.88167e-14
9.31112e-14
1.07556e-13
1.2166e-13
1.34881e-13
1.46666e-13
1.56489e-13
1.63892e-13
1.68522e-13
1.7015e-13
1.68697e-13
1.64232e-13
1.56975e-13
1.47274e-13
1.35581e-13
1.22416e-13
1.08334e-13
9.38763e-14
7.95391e-14
6.57358e-14
5.27711e-14
4.08231e-14
2.99352e-14
2.00192e-14
1.08688e-14
2.18262e-15
2.22045e-16
2.22045e-16
2.15372e-15
1.07297e-14
1.97702e-14
2.95762e-14
4.03566e-14
5.22041e-14
6.50814e-14
7.88167e-14
9.31112e-14
1.07556e-13
1.2166e-13
1.34881e-13
1.46666e-13
1.56489e-13
1.63892e-13
1.68522e-13
1.7015e-13
1.68697e-13
1.64232e-13
1.56975e-13
1.47274e-13
1.35581e-13
1.22416e-13
1.08334e-13
9.38763e-14
7.95391e-14
6.57358e-14
5.27711e-14
4.08231e-14
2.99352e-14
2.00192e-14
1.08688e-14
2.18262e-15
2.22045e-16
2.22045e-16
2.15372e-15
1.07297e-14
1.97702e-14
2.95762e-14
4.03566e-14
5.22041e-14
6.50814e-14
7.88167e-14
9.31112e-14
1.07556e-13
1.2166e-13
1.34881e-13
1.46666e-13
1.56489e-13
1.63892e-13
1.68522e-13
1.7015e-13
1.68697e-13
1.64232e-13
1.56975e-13
1.47274e-13
1.35581e-13
1.22416e-13
1.08334e-13
9.38763e-14
7.95391e-14
6.57358e-14
5.27711e-14
4.08231e-14
2.99352e-14
2.00192e-14
1.08688e-14
2.18262e-15
2.22045e-16
2.22045e-16
2.15372e-15
1.07297e-14
1.97702e-14
2.95762e-14
4.03566e-14
5.22041e-14
6.50814e-14
7.88167e-14
9.31112e-14
1.07556e-13
1.2166e-13
1.34881e-13
1.46666e-13
1.56489e-13
1.63892e-13
1.68522e-13
1.7015e-13
1.68697e-13
1.64232e-13
1.56975e-13
1.47274e-13
1.35581e-13
1.22416e-13
1.08334e-13
9.38763e-14
7.95391e-14
6.57358e-14
5.27711e-14
4.08231e-14
2.99352e-14
2.00192e-14
1.08688e-14
2.18262e-15
2.22045e-16
2.22045e-16
2.15372e-15
1.07297e-14
1.97702e-14
2.95762e-14
4.03566e-14
5.22041e-14
6.50814e-14
7.88167e-14
9.31112e-14
1.07556e-13
1.2166e-13
1.34881e-13
1.46666e-13
1.56489e-13
1.63892e-13
1.68522e-13
1.7015e-13
1.68697e-13
1.64232e-13
1.56975e-13
1.47274e-13
1.35581e-13
1.22416e-13
1.08334e-13
9.38763e-14
7.95391e-14
6.57358e-14
5.27711e-14
4.08231e-14
2.99352e-14
2.00192e-14
1.08688e-14
2.18262e-15
2.22045e-16
2.22045e-16
2.15372e-15
1.07297e-14
1.97702e-14
2.95762e-14
4.03566e-14
5.22041e-14
6.50814e-14
7.88167e-14
9.31112e-14
1.07556e-13
1.2166e-13
1.34881e-13
1.46666e-13
1.56489e-13
1.63892e-13
1.68522e-13
1.7015e-13
1.68697e-13
1.64232e-13
1.56975e-13
1.47274e-13
1.35581e-13
1.22416e-13
1.08334e-13
9.38763e-14
7.95391e-14
6.57358e-14
5.27711e-14
4.08231e-14
2.99352e-14
2.00192e-14
1.08688e-14
2.18262e-15
2.22045e-16
2.22045e-16
2.15372e-15
1.07297e-14
1.97702e-14
2.95762e-14
4.03566e-14
5.22041e-14
6.50814e-14
7.88167e-14
9.31112e-14
1.07556e-13
1.2166e-13
1.34881e-13
1.46666e-13
1.56489e-13
1.63892e-13
1.68522e-13
1.7015e-13
1.68697e-13
1.64232e-13
1.56975e-13
1.47274e-13
1.35581e-13
1.22416e-13
1.08334e-13
9.38763e-14
7.95391e-14
6.57358e-14
5.27711e-14
4.08231e-14
2.99352e-14
2.00192e-14
1.08688e-14
2.18262e-15
2.22045e-16
2.22045e-16
2.15372e-15
1.07297e-14
1.97702e-14
2.95762e-14
4.03566e-14
5.22041e-14
6.50814e-14
7.88167e-14
9.31112e-14
1.07556e-13
1.2166e-13
1.34881e-13
1.46666e-13
1.56489e-13
1.63892e-13
1.68522e-13
1.7015e-13
1.68697e-13
1.64232e-13
1.56975e-13
1.47274e-13
1.35581e-13
1.22416e-13
1.08334e-13
9.38763e-14
7.95391e-14
6.57358e-14
5.27711e-14
4.08231e-14
2.99352e-14
2.00192e-14
1.08688e-14
2.18262e-15
2.22045e-16
2.22045e-16
2.15372e-15
1.07297e-14
1.97702e-14
2.95762e-14
4.03566e-14
5.22041e-14
6.50814e-14
7.88167e-14
9.31112e-14
1.07556e-13
1.2166e-13
1.34881e-13
1.46666e-13
1.56489e-13
1.63892e-13
1.68522e-13
1.7015e-13
1.68697e-13
1.64232e-13
1.56975e-13
1.47274e-13
1.35581e-13
1.22416e-13
1.08334e-13
9.38763e-14
7.95391e-14
6.57358e-14
5.27711e-14
4.08231e-14
2.99352e-14
2.00192e-14
1.08688e-14
2.18262e-15
2.22045e-16
2.22045e-16
2.15372e-15
1.07297e-14
1.97702e-14
2.95762e-14
4.03566e-14
5.22041e-14
6.50814e-14
7.88167e-14
9.31112e-14
1.07556e-13
1.2166e-13
1.34881e-13
1.46666e-13
1.56489e-13
1.63892e-13
1.68522e-13
1.7015e-13
1.68697e-13
1.64232e-13
1.56975e-13
1.47274e-13
1.35581e-13
1.22416e-13
1.08334e-13
9.38763e-14
7.95391e-14
6.57358e-14
5.27711e-14
4.08231e-14
2.99352e-14
2.00192e-14
1.08688e-14
2.18262e-15
2.22045e-16
2.22045e-16
2.15372e-15
1.07297e-14
1.97702e-14
2.95762e-14
4.03566e-14
5.22041e-14
6.50814e-14
7.88167e-14
9.31112e-14
1.07556e-13
1.2166e-13
1.34881e-13
1.46666e-13
1.56489e-13
1.63892e-13
1.68522e-13
1.7015e-13
1.68697e-13
1.64232e-13
1.56975e-13
1.47274e-13
1.35581e-13
1.22416e-13
1.08334e-13
9.38763e-14
7.95391e-14
6.57358e-14
5.27711e-14
4.08231e-14
2.99352e-14
2.00192e-14
1.08688e-14
2.18262e-15
2.22045e-16
2.22045e-16
2.15372e-15
1.07297e-14
1.97702e-14
2.95762e-14
4.03566e-14
5.22041e-14
6.50814e-14
7.88167e-14
9.31112e-14
1.07556e-13
1.2166e-13
1.34881e-13
1.46666e-13
1.56489e-13
1.63892e-13
1.68522e-13
1.7015e-13
1.68697e-13
1.64232e-13
1.56975e-13
1.47274e-13
1.35581e-13
1.22416e-13
1.08334e-13
9.38763e-14
7.95391e-14
6.57358e-14
5.27711e-14
4.08231e-14
2.99352e-14
2.00192e-14
1.08688e-14
2.18262e-15
2.22045e-16
2.22045e-16
2.15372e-15
1.07297e-14
1.97702e-14
2.95762e-14
4.03566e-14
5.22041e-14
6.50814e-14
7.88167e-14
9.31112e-14
1.07556e-13
1.2166e-13
1.34881e-13
1.46666e-13
1.56489e-13
1.63892e-13
1.68522e-13
1.7015e-13
1.68697e-13
1.64232e-13
1.56975e-13
1.47274e-13
1.35581e-13
1.22416e-13
1.08334e-13
9.38763e-14
7.95391e-14
6.57358e-14
5.27711e-14
4.08231e-14
2.99352e-14
2.00192e-14
1.08688e-14
2.18262e-15
2.22045e-16
2.22045e-16
2.15372e-15
1.07297e-14
1.97702e-14
2.95762e-14
4.03566e-14
5.22041e-14
6.50814e-14
7.88167e-14
9.31112e-14
1.07556e-13
1.2166e-13
1.34881e-13
1.46666e-13
1.56489e-13
1.63892e-13
1.68522e-13
1.7015e-13
1.68697e-13
1.64232e-13
1.56975e-13
1.47274e-13
1.35581e-13
1.22416e-13
1.08334e-13
9.38763e-14
7.95391e-14
6.57358e-14
5.27711e-14
4.08231e-14
2.99352e-14
2.00192e-14
1.08688e-14
2.18262e-15
2.22045e-16
2.22045e-16
2.15372e-15
1.07297e-14
1.97702e-14
2.95762e-14
4.03566e-14
5.22041e-14
6.50814e-14
7.88167e-14
9.31112e-14
1.07556e-13
1.2166e-13
1.34881e-13
1.46666e-13
1.56489e-13
1.63892e-13
1.68522e-13
1.7015e-13
1.68697e-13
1.64232e-13
1.56975e-13
1.47274e-13
1.35581e-13
1.22416e-13
1.08334e-13
9.38763e-14
7.95391e-14
6.57358e-14
5.27711e-14
4.08231e-14
2.99352e-14
2.00192e-14
1.08688e-14
2.18262e-15
2.22045e-16
2.22045e-16
2.15372e-15
1.07297e-14
1.97702e-14
2.95762e-14
4.03566e-14
5.22041e-14
6.50814e-14
7.88167e-14
9.31112e-14
1.07556e-13
1.2166e-13
1.34881e-13
1.46666e-13
1.56489e-13
1.63892e-13
1.68522e-13
1.7015e-13
1.68697e-13
1.64232e-13
1.56975e-13
1.47274e-13
1.35581e-13
1.22416e-13
1.08334e-13
9.38763e-14
7.95391e-14
6.57358e-14
5.27711e-14
4.08231e-14
2.99352e-14
2.00192e-14
1.08688e-14
2.18262e-15
2.22045e-16
2.22045e-16
2.15372e-15
1.07297e-14
1.97702e-14
2.95762e-14
4.03566e-14
5.22041e-14
6.50814e-14
7.88167e-14
9.31112e-14
1.07556e-13
1.2166e-13
1.34881e-13
1.46666e-13
1.56489e-13
1.63892e-13
1.68522e-13
1.7015e-13
1.68697e-13
1.64232e-13
1.56975e-13
1.47274e-13
1.35581e-13
1.22416e-13
1.08334e-13
9.38763e-14
7.95391e-14
6.57358e-14
5.27711e-14
4.08231e-14
2.99352e-14
2.00192e-14
1.08688e-14
2.18262e-15
2.22045e-16
2.22045e-16
2.15372e-15
1.07297e-14
1.97702e-14
2.95762e-14
4.03566e-14
5.22041e-14
6.50814e-14
7.88167e-14
9.31112e-14
1.07556e-13
1.2166e-13
1.34881e-13
1.46666e-13
1.56489e-13
1.63892e-13
1.68522e-13
1.7015e-13
1.68697e-13
1.64232e-13
1.56975e-13
1.47274e-13
1.35581e-13
1.22416e-13
1.08334e-13
9.38763e-14
7.95391e-14
6.57358e-14
5.27711e-14
4.08231e-14
2.99352e-14
2.00192e-14
1.08688e-14
2.18262e-15
2.22045e-16
2.22045e-16
2.15372e-15
1.07297e-14
1.97702e-14
2.95762e-14
4.03566e-14
5.22041e-14
6.50814e-14
7.88167e-14
9.31112e-14
1.07556e-13
1.2166e-13
1.34881e-13
1.46666e-13
1.56489e-13
1.63892e-13
1.68522e-13
1.7015e-13
1.68697e-13
1.64232e-13
1.56975e-13
1.47274e-13
1.35581e-13
1.22416e-13
1.08334e-13
9.38763e-14
7.95391e-14
6.57358e-14
5.27711e-14
4.08231e-14
2.99352e-14
2.00192e-14
1.08688e-14
2.18262e-15
2.22045e-16
2.22045e-16
2.15372e-15
1.07297e-14
1.97702e-14
2.95762e-14
4.03566e-14
5.22041e-14
6.50814e-14
7.88167e-14
9.31112e-14
1.07556e-13
1.2166e-13
1.34881e-13
1.46666e-13
1.56489e-13
1.63892e-13
1.68522e-13
1.7015e-13
1.68697e-13
1.64232e-13
1.56975e-13
1.47274e-13
1.35581e-13
1.22416e-13
1.08334e-13
9.38763e-14
7.95391e-14
6.57358e-14
5.27711e-14
4.08231e-14
2.99352e-14
2.00192e-14
1.08688e-14
2.18262e-15
2.22045e-16
2.22045e-16
2.15372e-15
1.07297e-14
1.97702e-14
2.95762e-14
4.03566e-14
5.22041e-14
6.50814e-14
7.88167e-14
9.31112e-14
1.07556e-13
1.2166e-13
1.34881e-13
1.46666e-13
1.56489e-13
1.63892e-13
1.68522e-13
1.7015e-13
1.68697e-13
1.64232e-13
1.56975e-13
1.47274e-13
1.35581e-13
1.22416e-13
1.08334e-13
9.38763e-14
7.95391e-14
6.57358e-14
5.27711e-14
4.08231e-14
2.99352e-14
2.00192e-14
1.08688e-14
2.18262e-15
2.22045e-16
2.22045e-16
2.15372e-15
1.07297e-14
1.97702e-14
2.95762e-14
4.03566e-14
5.22041e-14
6.50814e-14
7.88167e-14