/*--------------------------------*- C++ -*----------------------------------*\
  =========                 |
  \\      /  F ield         | OpenFOAM: The Open Source CFD Toolbox
   \\    /   O peration     | Website:  https://openfoam.org
    \\  /    A nd           | Version:  13
     \\/     M anipulation  |
\*---------------------------------------------------------------------------*/
FoamFile
{
    format      ascii;
    class       volScalarField;
    location    "90";
    object      rhok;
}
// * * * * * * * * * * * * * * * * * * * * * * * * * * * * * * * * * * * * * //

dimensions      [];

internalField   nonuniform List<scalar> 
315000
(
0.444605
0.428937
0.414023
0.412577
0.411807
0.411026
0.410234
0.409432
0.408622
0.407807
0.406987
0.406165
0.405342
0.40452
0.403701
0.402885
0.402074
0.401267
0.400466
0.399671
0.398883
0.398101
0.397327
0.39656
0.395801
0.39505
0.394307
0.393572
0.392846
0.39213
0.391422
0.390723
0.390033
0.389353
0.388682
0.388021
0.387369
0.386727
0.386094
0.385471
0.384857
0.384252
0.383657
0.383071
0.382494
0.381925
0.381366
0.380814
0.380271
0.379736
0.379209
0.378689
0.378176
0.37767
0.377171
0.376678
0.376191
0.375709
0.375233
0.374761
0.374294
0.373831
0.373372
0.372916
0.372462
0.372011
0.371562
0.371114
0.370668
0.370222
0.444611
0.429162
0.414013
0.412552
0.411776
0.410991
0.410198
0.409396
0.408588
0.407775
0.406957
0.406138
0.405318
0.4045
0.403683
0.402869
0.402059
0.401254
0.400454
0.39966
0.398872
0.398091
0.397317
0.39655
0.395791
0.39504
0.394297
0.393563
0.392837
0.39212
0.391412
0.390713
0.390023
0.389343
0.388672
0.388011
0.387359
0.386717
0.386084
0.385461
0.384847
0.384243
0.383648
0.383062
0.382485
0.381917
0.381357
0.380806
0.380263
0.379728
0.379201
0.378682
0.378169
0.377664
0.377165
0.376672
0.376186
0.375704
0.375228
0.374757
0.374291
0.373828
0.373369
0.372913
0.37246
0.372009
0.371561
0.371113
0.370667
0.370222
0.444602
0.428812
0.414043
0.412613
0.411843
0.411055
0.410253
0.409441
0.408621
0.407797
0.406971
0.406145
0.40532
0.404497
0.403678
0.402862
0.402051
0.401246
0.400446
0.399651
0.398864
0.398083
0.397309
0.396542
0.395783
0.395032
0.394289
0.393555
0.392829
0.392112
0.391404
0.390705
0.390016
0.389335
0.388665
0.388003
0.387352
0.386709
0.386077
0.385454
0.38484
0.384236
0.383641
0.383055
0.382478
0.38191
0.381351
0.3808
0.380257
0.379723
0.379196
0.378676
0.378164
0.377659
0.37716
0.376668
0.376181
0.375701
0.375225
0.374754
0.374288
0.373825
0.373366
0.372911
0.372458
0.372008
0.371559
0.371113
0.370667
0.370222
0.444561
0.427237
0.414514
0.413039
0.412205
0.41134
0.410464
0.409589
0.40872
0.407858
0.407006
0.406161
0.405324
0.404495
0.403671
0.402854
0.402042
0.401237
0.400437
0.399643
0.398856
0.398076
0.397302
0.396536
0.395777
0.395026
0.394283
0.393549
0.392823
0.392106
0.391398
0.390699
0.39001
0.38933
0.388659
0.387998
0.387346
0.386704
0.386071
0.385448
0.384835
0.38423
0.383635
0.38305
0.382473
0.381905
0.381346
0.380795
0.380253
0.379718
0.379191
0.378672
0.37816
0.377655
0.377157
0.376665
0.376178
0.375698
0.375222
0.374751
0.374285
0.373823
0.373365
0.372909
0.372457
0.372007
0.371559
0.371112
0.370666
0.370222
0.444559
0.427176
0.414505
0.413038
0.412206
0.411344
0.410471
0.409597
0.408728
0.407866
0.407013
0.406167
0.405329
0.404498
0.403673
0.402854
0.402042
0.401236
0.400435
0.399641
0.398853
0.398073
0.397299
0.396532
0.395773
0.395022
0.394279
0.393545
0.392819
0.392102
0.391394
0.390695
0.390006
0.389326
0.388655
0.387994
0.387342
0.3867
0.386067
0.385444
0.384831
0.384227
0.383632
0.383046
0.382469
0.381902
0.381342
0.380792
0.380249
0.379715
0.379188
0.378669
0.378158
0.377653
0.377154
0.376662
0.376176
0.375696
0.37522
0.37475
0.374284
0.373822
0.373363
0.372908
0.372456
0.372006
0.371558
0.371112
0.370666
0.370222
0.444598
0.428668
0.414098
0.412658
0.411871
0.411075
0.410268
0.409451
0.408627
0.407799
0.406969
0.40614
0.405313
0.404488
0.403668
0.402851
0.40204
0.401234
0.400433
0.399639
0.398851
0.39807
0.397296
0.39653
0.395771
0.39502
0.394277
0.393543
0.392817
0.3921
0.391392
0.390693
0.390003
0.389323
0.388652
0.387991
0.38734
0.386697
0.386065
0.385442
0.384828
0.384224
0.383629
0.383044
0.382467
0.381899
0.38134
0.38079
0.380247
0.379713
0.379186
0.378667
0.378156
0.377651
0.377153
0.376661
0.376175
0.375694
0.375219
0.374748
0.374283
0.373821
0.373362
0.372907
0.372455
0.372005
0.371558
0.371111
0.370666
0.370222
0.444488
0.423186
0.416622
0.414259
0.412649
0.411428
0.410406
0.409485
0.408615
0.407769
0.406937
0.40611
0.405288
0.404469
0.403653
0.40284
0.402032
0.401228
0.400429
0.399636
0.398849
0.398069
0.397295
0.396529
0.39577
0.395019
0.394276
0.393541
0.392816
0.392099
0.391391
0.390692
0.390002
0.389322
0.388651
0.38799
0.387338
0.386696
0.386064
0.385441
0.384827
0.384223
0.383628
0.383042
0.382466
0.381898
0.381339
0.380788
0.380246
0.379712
0.379185
0.378666
0.378155
0.37765
0.377152
0.37666
0.376174
0.375693
0.375218
0.374748
0.374282
0.37382
0.373362
0.372907
0.372455
0.372005
0.371557
0.371111
0.370666
0.370221
0.444603
0.428881
0.414034
0.412594
0.411808
0.411009
0.410202
0.409389
0.408572
0.407753
0.406933
0.406112
0.405292
0.404473
0.403657
0.402844
0.402035
0.401231
0.400431
0.399638
0.39885
0.39807
0.397296
0.396529
0.39577
0.395019
0.394276
0.393541
0.392815
0.392098
0.39139
0.390691
0.390002
0.389321
0.388651
0.387989
0.387338
0.386696
0.386063
0.38544
0.384827
0.384222
0.383628
0.383042
0.382465
0.381898
0.381338
0.380788
0.380246
0.379711
0.379185
0.378666
0.378154
0.377649
0.377151
0.376659
0.376173
0.375693
0.375218
0.374747
0.374282
0.37382
0.373362
0.372907
0.372455
0.372005
0.371557
0.371111
0.370666
0.370221
0.444525
0.425848
0.415495
0.413325
0.412269
0.411316
0.410407
0.409523
0.408655
0.407801
0.406958
0.406123
0.405295
0.404472
0.403654
0.402841
0.402032
0.401228
0.400429
0.399636
0.398849
0.398069
0.397295
0.396529
0.39577
0.395019
0.394276
0.393541
0.392816
0.392098
0.39139
0.390691
0.390002
0.389322
0.388651
0.38799
0.387338
0.386696
0.386063
0.38544
0.384827
0.384222
0.383628
0.383042
0.382465
0.381897
0.381338
0.380788
0.380246
0.379711
0.379185
0.378666
0.378154
0.377649
0.377151
0.376659
0.376173
0.375693
0.375218
0.374747
0.374282
0.37382
0.373362
0.372907
0.372455
0.372005
0.371557
0.371111
0.370666
0.370221
0.444607
0.429032
0.414036
0.412594
0.411816
0.411021
0.410214
0.409399
0.40858
0.407757
0.406934
0.406112
0.405291
0.404472
0.403655
0.402843
0.402034
0.40123
0.400431
0.399638
0.398851
0.39807
0.397296
0.39653
0.395771
0.395019
0.394277
0.393542
0.392816
0.392099
0.391391
0.390692
0.390002
0.389322
0.388651
0.38799
0.387338
0.386696
0.386063
0.38544
0.384827
0.384223
0.383628
0.383042
0.382465
0.381898
0.381339
0.380788
0.380246
0.379711
0.379185
0.378666
0.378154
0.377649
0.377151
0.376659
0.376173
0.375693
0.375218
0.374748
0.374282
0.37382
0.373362
0.372907
0.372455
0.372005
0.371557
0.371111
0.370666
0.370221
0.444572
0.427689
0.41431
0.412886
0.412091
0.411263
0.410416
0.409561
0.408704
0.407851
0.407003
0.406161
0.405325
0.404495
0.403672
0.402854
0.402042
0.401235
0.400435
0.399641
0.398853
0.398072
0.397298
0.396531
0.395772
0.395021
0.394278
0.393543
0.392817
0.3921
0.391392
0.390693
0.390003
0.389323
0.388652
0.38799
0.387339
0.386697
0.386064
0.385441
0.384827
0.384223
0.383628
0.383043
0.382466
0.381898
0.381339
0.380788
0.380246
0.379712
0.379185
0.378666
0.378155
0.37765
0.377152
0.37666
0.376174
0.375693
0.375218
0.374748
0.374282
0.37382
0.373362
0.372907
0.372455
0.372005
0.371557
0.371111
0.370666
0.370221
0.444571
0.427643
0.414295
0.412875
0.412082
0.411257
0.410413
0.409561
0.408708
0.407857
0.40701
0.406169
0.405334
0.404505
0.403681
0.402862
0.40205
0.401243
0.400442
0.399647
0.398858
0.398076
0.397302
0.396534
0.395775
0.395023
0.39428
0.393545
0.392818
0.392101
0.391393
0.390694
0.390004
0.389323
0.388652
0.387991
0.387339
0.386697
0.386065
0.385441
0.384828
0.384224
0.383629
0.383043
0.382466
0.381899
0.381339
0.380789
0.380246
0.379712
0.379186
0.378667
0.378155
0.37765
0.377152
0.37666
0.376174
0.375693
0.375218
0.374748
0.374282
0.37382
0.373362
0.372907
0.372455
0.372005
0.371557
0.371111
0.370666
0.370221
0.444612
0.429205
0.414014
0.412553
0.411774
0.410984
0.410186
0.40938
0.408569
0.407754
0.406937
0.406119
0.405301
0.404484
0.403669
0.402857
0.402048
0.401243
0.400444
0.399649
0.398861
0.398079
0.397304
0.396537
0.395777
0.395025
0.394281
0.393546
0.39282
0.392102
0.391394
0.390695
0.390005
0.389324
0.388653
0.387992
0.38734
0.386698
0.386065
0.385442
0.384828
0.384224
0.383629
0.383044
0.382467
0.381899
0.38134
0.380789
0.380247
0.379713
0.379186
0.378667
0.378155
0.37765
0.377152
0.37666
0.376174
0.375694
0.375218
0.374748
0.374282
0.37382
0.373362
0.372907
0.372455
0.372005
0.371557
0.371111
0.370666
0.370221
0.444612
0.429205
0.414011
0.412549
0.411771
0.410981
0.410182
0.409377
0.408566
0.407751
0.406935
0.406117
0.4053
0.404483
0.403669
0.402857
0.402048
0.401244
0.400444
0.39965
0.398862
0.39808
0.397305
0.396538
0.395778
0.395026
0.394282
0.393547
0.39282
0.392103
0.391394
0.390695
0.390005
0.389325
0.388654
0.387992
0.38734
0.386698
0.386066
0.385442
0.384829
0.384225
0.38363
0.383044
0.382467
0.381899
0.38134
0.38079
0.380247
0.379713
0.379186
0.378667
0.378156
0.377651
0.377152
0.37666
0.376174
0.375694
0.375219
0.374748
0.374282
0.37382
0.373362
0.372907
0.372455
0.372005
0.371557
0.371111
0.370666
0.370222
0.444571
0.427646
0.41424
0.412813
0.41202
0.411199
0.410362
0.409518
0.408673
0.40783
0.40699
0.406155
0.405324
0.404498
0.403677
0.402861
0.402049
0.401243
0.400443
0.399648
0.39886
0.398078
0.397304
0.396537
0.395777
0.395025
0.394282
0.393547
0.39282
0.392103
0.391395
0.390695
0.390006
0.389325
0.388654
0.387993
0.387341
0.386699
0.386066
0.385443
0.384829
0.384225
0.38363
0.383044
0.382468
0.3819
0.381341
0.38079
0.380248
0.379713
0.379187
0.378668
0.378156
0.377651
0.377153
0.376661
0.376175
0.375694
0.375219
0.374748
0.374282
0.373821
0.373362
0.372907
0.372455
0.372005
0.371558
0.371111
0.370666
0.370222
0.444613
0.429255
0.41406
0.412598
0.411808
0.411007
0.410198
0.409383
0.408565
0.407745
0.406924
0.406105
0.405286
0.404469
0.403655
0.402844
0.402036
0.401233
0.400435
0.399642
0.398855
0.398075
0.397301
0.396534
0.395775
0.395024
0.394281
0.393546
0.39282
0.392103
0.391395
0.390695
0.390006
0.389325
0.388654
0.387993
0.387341
0.386699
0.386066
0.385443
0.38483
0.384225
0.38363
0.383045
0.382468
0.3819
0.381341
0.38079
0.380248
0.379713
0.379187
0.378668
0.378156
0.377651
0.377153
0.376661
0.376175
0.375694
0.375219
0.374749
0.374283
0.373821
0.373362
0.372907
0.372455
0.372005
0.371558
0.371111
0.370666
0.370222
0.44452
0.425667
0.415471
0.413342
0.412294
0.411345
0.410436
0.40955
0.40868
0.407823
0.406977
0.40614
0.405309
0.404485
0.403665
0.40285
0.40204
0.401236
0.400436
0.399643
0.398856
0.398075
0.397301
0.396534
0.395775
0.395024
0.394281
0.393546
0.39282
0.392103
0.391395
0.390696
0.390006
0.389326
0.388655
0.387994
0.387342
0.386699
0.386067
0.385444
0.38483
0.384226
0.383631
0.383045
0.382468
0.3819
0.381341
0.38079
0.380248
0.379714
0.379187
0.378668
0.378156
0.377651
0.377153
0.376661
0.376175
0.375694
0.375219
0.374749
0.374283
0.373821
0.373362
0.372907
0.372455
0.372005
0.371558
0.371111
0.370666
0.370222
0.444525
0.425843
0.41554
0.413381
0.412323
0.411365
0.410449
0.409557
0.408682
0.407823
0.406975
0.406137
0.405306
0.404481
0.403662
0.402847
0.402038
0.401233
0.400435
0.399642
0.398855
0.398074
0.3973
0.396534
0.395775
0.395024
0.394281
0.393547
0.392821
0.392104
0.391395
0.390696
0.390007
0.389326
0.388655
0.387994
0.387342
0.3867
0.386067
0.385444
0.38483
0.384226
0.383631
0.383045
0.382469
0.381901
0.381341
0.380791
0.380248
0.379714
0.379187
0.378668
0.378156
0.377651
0.377153
0.376661
0.376175
0.375694
0.375219
0.374749
0.374283
0.373821
0.373363
0.372908
0.372455
0.372005
0.371558
0.371111
0.370666
0.370222
0.444604
0.428904
0.414063
0.412629
0.411855
0.411064
0.410259
0.409444
0.408622
0.407797
0.40697
0.406142
0.405317
0.404493
0.403673
0.402857
0.402046
0.40124
0.40044
0.399646
0.398858
0.398077
0.397303
0.396536
0.395777
0.395026
0.394282
0.393548
0.392822
0.392105
0.391396
0.390697
0.390007
0.389327
0.388656
0.387995
0.387343
0.386701
0.386068
0.385445
0.384831
0.384227
0.383632
0.383046
0.382469
0.381901
0.381342
0.380791
0.380249
0.379714
0.379187
0.378668
0.378156
0.377652
0.377153
0.376661
0.376175
0.375695
0.375219
0.374749
0.374283
0.373821
0.373363
0.372908
0.372455
0.372005
0.371558
0.371111
0.370666
0.370222
0.444588
0.428279
0.414133
0.412724
0.411957
0.411165
0.410354
0.409528
0.408694
0.407855
0.407016
0.406178
0.405343
0.404513
0.403688
0.402868
0.402054
0.401246
0.400444
0.399649
0.398861
0.398079
0.397305
0.396538
0.395778
0.395027
0.394284
0.393549
0.392823
0.392106
0.391397
0.390698
0.390008
0.389328
0.388657
0.387995
0.387343
0.386701
0.386068
0.385445
0.384831
0.384227
0.383632
0.383046
0.382469
0.381901
0.381342
0.380791
0.380249
0.379714
0.379188
0.378668
0.378157
0.377652
0.377153
0.376661
0.376175
0.375695
0.375219
0.374749
0.374283
0.373821
0.373363
0.372908
0.372455
0.372006
0.371558
0.371111
0.370666
0.370222
0.444589
0.428326
0.41413
0.412714
0.411944
0.41115
0.410338
0.409513
0.40868
0.407843
0.407005
0.406169
0.405337
0.404508
0.403684
0.402866
0.402053
0.401245
0.400444
0.399649
0.398861
0.39808
0.397306
0.396539
0.395779
0.395028
0.394285
0.39355
0.392824
0.392106
0.391398
0.390699
0.390009
0.389328
0.388657
0.387996
0.387344
0.386702
0.386069
0.385445
0.384832
0.384227
0.383632
0.383046
0.382469
0.381901
0.381342
0.380791
0.380249
0.379714
0.379188
0.378669
0.378157
0.377652
0.377153
0.376661
0.376175
0.375695
0.375219
0.374749
0.374283
0.373821
0.373363
0.372908
0.372455
0.372006
0.371558
0.371111
0.370666
0.370222
0.44461
0.429151
0.413995
0.412536
0.41176
0.410974
0.410179
0.409376
0.408567
0.407754
0.406938
0.40612
0.405302
0.404485
0.40367
0.402858
0.402049
0.401245
0.400446
0.399652
0.398864
0.398083
0.397309
0.396541
0.395782
0.39503
0.394287
0.393552
0.392825
0.392108
0.391399
0.3907
0.39001
0.389329
0.388658
0.387996
0.387344
0.386702
0.386069
0.385446
0.384832
0.384227
0.383632
0.383046
0.38247
0.381902
0.381342
0.380791
0.380249
0.379714
0.379188
0.378669
0.378157
0.377652
0.377153
0.376661
0.376175
0.375695
0.375219
0.374749
0.374283
0.373821
0.373363
0.372908
0.372455
0.372006
0.371558
0.371111
0.370666
0.370222
0.444612
0.429224
0.414013
0.412551
0.411772
0.41098
0.41018
0.409373
0.408562
0.407749
0.406933
0.406116
0.4053
0.404485
0.403671
0.40286
0.402052
0.401249
0.40045
0.399656
0.398868
0.398087
0.397312
0.396544
0.395785
0.395033
0.394289
0.393553
0.392827
0.392109
0.3914
0.390701
0.390011
0.38933
0.388659
0.387997
0.387345
0.386702
0.386069
0.385446
0.384832
0.384228
0.383632
0.383047
0.38247
0.381902
0.381342
0.380792
0.380249
0.379715
0.379188
0.378669
0.378157
0.377652
0.377153
0.376661
0.376175
0.375695
0.375219
0.374749
0.374283
0.373821
0.373363
0.372908
0.372455
0.372006
0.371558
0.371111
0.370666
0.370222
0.44456
0.427219
0.414447
0.412964
0.412132
0.411275
0.410411
0.409549
0.408693
0.407843
0.407001
0.406165
0.405334
0.404509
0.403689
0.402873
0.402062
0.401256
0.400456
0.399661
0.398872
0.39809
0.397315
0.396547
0.395787
0.395034
0.39429
0.393555
0.392828
0.39211
0.391401
0.390701
0.390011
0.38933
0.388659
0.387997
0.387345
0.386702
0.38607
0.385446
0.384832
0.384228
0.383633
0.383047
0.38247
0.381902
0.381342
0.380792
0.380249
0.379715
0.379188
0.378669
0.378157
0.377652
0.377153
0.376661
0.376175
0.375695
0.375219
0.374749
0.374283
0.373821
0.373363
0.372908
0.372455
0.372006
0.371558
0.371111
0.370666
0.370222
0.444612
0.429216
0.41407
0.412617
0.411834
0.411034
0.410224
0.409409
0.40859
0.40777
0.40695
0.40613
0.405311
0.404494
0.403679
0.402868
0.402059
0.401255
0.400456
0.399661
0.398873
0.398091
0.397316
0.396548
0.395788
0.395035
0.394291
0.393555
0.392828
0.39211
0.391401
0.390702
0.390011
0.38933
0.388659
0.387997
0.387345
0.386703
0.38607
0.385446
0.384832
0.384228
0.383633
0.383047
0.38247
0.381902
0.381342
0.380792
0.380249
0.379715
0.379188
0.378669
0.378157
0.377652
0.377153
0.376661
0.376175
0.375695
0.375219
0.374749
0.374283
0.373821
0.373363
0.372908
0.372455
0.372006
0.371558
0.371111
0.370666
0.370222
0.444545
0.42662
0.414846
0.413206
0.412291
0.411375
0.410472
0.409585
0.408713
0.407854
0.407006
0.406167
0.405335
0.40451
0.40369
0.402874
0.402064
0.401258
0.400458
0.399663
0.398874
0.398092
0.397316
0.396548
0.395788
0.395036
0.394291
0.393556
0.392829
0.392111
0.391402
0.390702
0.390011
0.389331
0.388659
0.387997
0.387345
0.386703
0.38607
0.385446
0.384832
0.384228
0.383633
0.383047
0.38247
0.381902
0.381342
0.380792
0.380249
0.379715
0.379188
0.378669
0.378157
0.377652
0.377153
0.376661
0.376175
0.375695
0.375219
0.374749
0.374283
0.373821
0.373363
0.372908
0.372455
0.372006
0.371558
0.371111
0.370666
0.370222
0.444544
0.426612
0.414892
0.413263
0.412346
0.411423
0.410512
0.409617
0.408737
0.407872
0.407019
0.406176
0.405342
0.404514
0.403693
0.402876
0.402065
0.401259
0.400458
0.399663
0.398874
0.398092
0.397317
0.396549
0.395788
0.395036
0.394291
0.393556
0.392829
0.392111
0.391402
0.390702
0.390012
0.389331
0.388659
0.387997
0.387345
0.386703
0.38607
0.385446
0.384832
0.384228
0.383633
0.383047
0.38247
0.381902
0.381342
0.380792
0.380249
0.379715
0.379188
0.378669
0.378157
0.377652
0.377153
0.376661
0.376175
0.375695
0.375219
0.374749
0.374283
0.373821
0.373363
0.372908
0.372455
0.372006
0.371558
0.371111
0.370666
0.370222
0.444544
0.426613
0.414895
0.413267
0.41235
0.411427
0.410515
0.40962
0.40874
0.407874
0.407021
0.406177
0.405343
0.404515
0.403693
0.402877
0.402065
0.401259
0.400458
0.399663
0.398875
0.398092
0.397317
0.396549
0.395788
0.395036
0.394291
0.393556
0.392829
0.392111
0.391402
0.390702
0.390012
0.389331
0.388659
0.387997
0.387345
0.386703
0.38607
0.385446
0.384832
0.384228
0.383633
0.383047
0.38247
0.381902
0.381342
0.380792
0.380249
0.379715
0.379188
0.378669
0.378157
0.377652
0.377153
0.376661
0.376175
0.375695
0.375219
0.374749
0.374283
0.373821
0.373363
0.372908
0.372455
0.372006
0.371558
0.371111
0.370666
0.370222
0.444544
0.426613
0.414895
0.413267
0.41235
0.411427
0.410516
0.40962
0.40874
0.407874
0.407021
0.406178
0.405343
0.404515
0.403693
0.402877
0.402065
0.401259
0.400458
0.399663
0.398875
0.398092
0.397317
0.396549
0.395788
0.395036
0.394291
0.393556
0.392829
0.392111
0.391402
0.390702
0.390012
0.389331
0.388659
0.387997
0.387345
0.386703
0.38607
0.385446
0.384832
0.384228
0.383633
0.383047
0.38247
0.381902
0.381342
0.380792
0.380249
0.379715
0.379188
0.378669
0.378157
0.377652
0.377153
0.376661
0.376175
0.375695
0.375219
0.374749
0.374283
0.373821
0.373363
0.372908
0.372455
0.372006
0.371558
0.371111
0.370666
0.370222
0.444544
0.426613
0.414895
0.413267
0.41235
0.411427
0.410516
0.40962
0.40874
0.407874
0.407021
0.406178
0.405343
0.404515
0.403693
0.402877
0.402065
0.401259
0.400458
0.399663
0.398875
0.398092
0.397317
0.396549
0.395788
0.395036
0.394291
0.393556
0.392829
0.392111
0.391402
0.390702
0.390012
0.389331
0.388659
0.387997
0.387345
0.386703
0.38607
0.385446
0.384832
0.384228
0.383633
0.383047
0.38247
0.381902
0.381342
0.380792
0.380249
0.379715
0.379188
0.378669
0.378157
0.377652
0.377153
0.376661
0.376175
0.375695
0.375219
0.374749
0.374283
0.373821
0.373363
0.372908
0.372455
0.372006
0.371558
0.371111
0.370666
0.370222
0.444544
0.426613
0.414895
0.413267
0.41235
0.411427
0.410516
0.40962
0.40874
0.407874
0.407021
0.406178
0.405343
0.404515
0.403693
0.402877
0.402065
0.401259
0.400458
0.399663
0.398875
0.398092
0.397317
0.396549
0.395788
0.395036
0.394291
0.393556
0.392829
0.392111
0.391402
0.390702
0.390012
0.389331
0.388659
0.387997
0.387345
0.386703
0.38607
0.385446
0.384832
0.384228
0.383633
0.383047
0.38247
0.381902
0.381342
0.380792
0.380249
0.379715
0.379188
0.378669
0.378157
0.377652
0.377153
0.376661
0.376175
0.375695
0.375219
0.374749
0.374283
0.373821
0.373363
0.372908
0.372455
0.372006
0.371558
0.371111
0.370666
0.370222
0.444544
0.426613
0.414895
0.413267
0.41235
0.411427
0.410516
0.40962
0.40874
0.407874
0.407021
0.406178
0.405343
0.404515
0.403693
0.402877
0.402065
0.401259
0.400458
0.399663
0.398875
0.398092
0.397317
0.396549
0.395788
0.395036
0.394291
0.393556
0.392829
0.392111
0.391402
0.390702
0.390012
0.389331
0.388659
0.387997
0.387345
0.386703
0.38607
0.385446
0.384832
0.384228
0.383633
0.383047
0.38247
0.381902
0.381342
0.380792
0.380249
0.379715
0.379188
0.378669
0.378157
0.377652
0.377153
0.376661
0.376175
0.375695
0.375219
0.374749
0.374283
0.373821
0.373363
0.372908
0.372455
0.372006
0.371558
0.371111
0.370666
0.370222
0.444544
0.426613
0.414895
0.413267
0.41235
0.411427
0.410516
0.40962
0.40874
0.407874
0.407021
0.406178
0.405343
0.404515
0.403693
0.402877
0.402065
0.401259
0.400458
0.399663
0.398875
0.398092
0.397317
0.396549
0.395788
0.395036
0.394291
0.393556
0.392829
0.392111
0.391402
0.390702
0.390012
0.389331
0.388659
0.387997
0.387345
0.386703
0.38607
0.385446
0.384832
0.384228
0.383633
0.383047
0.38247
0.381902
0.381342
0.380792
0.380249
0.379715
0.379188
0.378669
0.378157
0.377652
0.377153
0.376661
0.376175
0.375695
0.375219
0.374749
0.374283
0.373821
0.373363
0.372908
0.372455
0.372006
0.371558
0.371111
0.370666
0.370222
0.444544
0.426613
0.414895
0.413267
0.41235
0.411427
0.410516
0.40962
0.40874
0.407874
0.407021
0.406178
0.405343
0.404515
0.403693
0.402877
0.402065
0.401259
0.400458
0.399663
0.398875
0.398092
0.397317
0.396549
0.395788
0.395036
0.394291
0.393556
0.392829
0.392111
0.391402
0.390702
0.390012
0.389331
0.388659
0.387997
0.387345
0.386703
0.38607
0.385446
0.384832
0.384228
0.383633
0.383047
0.38247
0.381902
0.381342
0.380792
0.380249
0.379715
0.379188
0.378669
0.378157
0.377652
0.377153
0.376661
0.376175
0.375695
0.375219
0.374749
0.374283
0.373821
0.373363
0.372908
0.372455
0.372006
0.371558
0.371111
0.370666
0.370222
0.444544
0.426613
0.414895
0.413267
0.41235
0.411427
0.410516
0.40962
0.40874
0.407874
0.407021
0.406178
0.405343
0.404515
0.403693
0.402877
0.402065
0.401259
0.400458
0.399663
0.398875
0.398092
0.397317
0.396549
0.395788
0.395036
0.394291
0.393556
0.392829
0.392111
0.391402
0.390702
0.390012
0.389331
0.388659
0.387997
0.387345
0.386703
0.38607
0.385446
0.384832
0.384228
0.383633
0.383047
0.38247
0.381902
0.381342
0.380792
0.380249
0.379715
0.379188
0.378669
0.378157
0.377652
0.377153
0.376661
0.376175
0.375695
0.375219
0.374749
0.374283
0.373821
0.373363
0.372908
0.372455
0.372006
0.371558
0.371111
0.370666
0.370222
0.444544
0.426613
0.414895
0.413267
0.41235
0.411427
0.410516
0.40962
0.40874
0.407874
0.407021
0.406178
0.405343
0.404515
0.403693
0.402877
0.402065
0.401259
0.400458
0.399663
0.398875
0.398092
0.397317
0.396549
0.395788
0.395036
0.394291
0.393556
0.392829
0.392111
0.391402
0.390702
0.390012
0.389331
0.388659
0.387997
0.387345
0.386703
0.38607
0.385446
0.384832
0.384228
0.383633
0.383047
0.38247
0.381902
0.381342
0.380792
0.380249
0.379715
0.379188
0.378669
0.378157
0.377652
0.377153
0.376661
0.376175
0.375695
0.375219
0.374749
0.374283
0.373821
0.373363
0.372908
0.372455
0.372006
0.371558
0.371111
0.370666
0.370222
0.444544
0.426613
0.414895
0.413267
0.41235
0.411427
0.410516
0.40962
0.40874
0.407874
0.407021
0.406178
0.405343
0.404515
0.403693
0.402877
0.402065
0.401259
0.400458
0.399663
0.398875
0.398092
0.397317
0.396549
0.395788
0.395036
0.394291
0.393556
0.392829
0.392111
0.391402
0.390702
0.390012
0.389331
0.388659
0.387997
0.387345
0.386703
0.38607
0.385446
0.384832
0.384228
0.383633
0.383047
0.38247
0.381902
0.381342
0.380792
0.380249
0.379715
0.379188
0.378669
0.378157
0.377652
0.377153
0.376661
0.376175
0.375695
0.375219
0.374749
0.374283
0.373821
0.373363
0.372908
0.372455
0.372006
0.371558
0.371111
0.370666
0.370222
0.444544
0.426613
0.414895
0.413267
0.41235
0.411427
0.410516
0.40962
0.40874
0.407874
0.407021
0.406178
0.405343
0.404515
0.403693
0.402877
0.402065
0.401259
0.400458
0.399663
0.398875
0.398092
0.397317
0.396549
0.395788
0.395036
0.394291
0.393556
0.392829
0.392111
0.391402
0.390702
0.390012
0.389331
0.388659
0.387997
0.387345
0.386703
0.38607
0.385446
0.384832
0.384228
0.383633
0.383047
0.38247
0.381902
0.381342
0.380792
0.380249
0.379715
0.379188
0.378669
0.378157
0.377652
0.377153
0.376661
0.376175
0.375695
0.375219
0.374749
0.374283
0.373821
0.373363
0.372908
0.372455
0.372006
0.371558
0.371111
0.370666
0.370222
0.444544
0.426613
0.414895
0.413267
0.41235
0.411427
0.410516
0.40962
0.40874
0.407874
0.407021
0.406178
0.405343
0.404515
0.403693
0.402877
0.402065
0.401259
0.400458
0.399663
0.398875
0.398092
0.397317
0.396549
0.395788
0.395036
0.394291
0.393556
0.392829
0.392111
0.391402
0.390702
0.390012
0.389331
0.388659
0.387997
0.387345
0.386703
0.38607
0.385446
0.384832
0.384228
0.383633
0.383047
0.38247
0.381902
0.381342
0.380792
0.380249
0.379715
0.379188
0.378669
0.378157
0.377652
0.377153
0.376661
0.376175
0.375695
0.375219
0.374749
0.374283
0.373821
0.373363
0.372908
0.372455
0.372006
0.371558
0.371111
0.370666
0.370222
0.444544
0.426613
0.414895
0.413267
0.41235
0.411427
0.410516
0.40962
0.40874
0.407874
0.407021
0.406178
0.405343
0.404515
0.403693
0.402877
0.402065
0.401259
0.400458
0.399663
0.398875
0.398092
0.397317
0.396549
0.395788
0.395036
0.394291
0.393556
0.392829
0.392111
0.391402
0.390702
0.390012
0.389331
0.388659
0.387997
0.387345
0.386703
0.38607
0.385446
0.384832
0.384228
0.383633
0.383047
0.38247
0.381902
0.381342
0.380792
0.380249
0.379715
0.379188
0.378669
0.378157
0.377652
0.377153
0.376661
0.376175
0.375695
0.375219
0.374749
0.374283
0.373821
0.373363
0.372908
0.372455
0.372006
0.371558
0.371111
0.370666
0.370222
0.444544
0.426613
0.414895
0.413267
0.41235
0.411427
0.410516
0.40962
0.40874
0.407874
0.407021
0.406178
0.405343
0.404515
0.403693
0.402877
0.402065
0.401259
0.400458
0.399663
0.398875
0.398092
0.397317
0.396549
0.395788
0.395036
0.394291
0.393556
0.392829
0.392111
0.391402
0.390702
0.390012
0.389331
0.388659
0.387997
0.387345
0.386703
0.38607
0.385446
0.384832
0.384228
0.383633
0.383047
0.38247
0.381902
0.381342
0.380792
0.380249
0.379715
0.379188
0.378669
0.378157
0.377652
0.377153
0.376661
0.376175
0.375695
0.375219
0.374749
0.374283
0.373821
0.373363
0.372908
0.372455
0.372006
0.371558
0.371111
0.370666
0.370222
0.444544
0.426613
0.414895
0.413267
0.41235
0.411427
0.410516
0.40962
0.40874
0.407874
0.407021
0.406178
0.405343
0.404515
0.403693
0.402877
0.402065
0.401259
0.400458
0.399663
0.398875
0.398092
0.397317
0.396549
0.395788
0.395036
0.394291
0.393556
0.392829
0.392111
0.391402
0.390702
0.390012
0.389331
0.388659
0.387997
0.387345
0.386703
0.38607
0.385446
0.384832
0.384228
0.383633
0.383047
0.38247
0.381902
0.381342
0.380792
0.380249
0.379715
0.379188
0.378669
0.378157
0.377652
0.377153
0.376661
0.376175
0.375695
0.375219
0.374749
0.374283
0.373821
0.373363
0.372908
0.372455
0.372006
0.371558
0.371111
0.370666
0.370222
0.444544
0.426613
0.414895
0.413267
0.41235
0.411427
0.410516
0.40962
0.40874
0.407874
0.407021
0.406178
0.405343
0.404515
0.403693
0.402877
0.402065
0.401259
0.400458
0.399663
0.398875
0.398092
0.397317
0.396549
0.395788
0.395036
0.394291
0.393556
0.392829
0.392111
0.391402
0.390702
0.390012
0.389331
0.388659
0.387997
0.387345
0.386703
0.38607
0.385446
0.384832
0.384228
0.383633
0.383047
0.38247
0.381902
0.381342
0.380792
0.380249
0.379715
0.379188
0.378669
0.378157
0.377652
0.377153
0.376661
0.376175
0.375695
0.375219
0.374749
0.374283
0.373821
0.373363
0.372908
0.372455
0.372006
0.371558
0.371111
0.370666
0.370222
0.444544
0.426613
0.414895
0.413267
0.41235
0.411427
0.410516
0.40962
0.40874
0.407874
0.407021
0.406178
0.405343
0.404515
0.403693
0.402877
0.402065
0.401259
0.400458
0.399663
0.398875
0.398092
0.397317
0.396549
0.395788
0.395036
0.394291
0.393556
0.392829
0.392111
0.391402
0.390702
0.390012
0.389331
0.388659
0.387997
0.387345
0.386703
0.38607
0.385446
0.384832
0.384228
0.383633
0.383047
0.38247
0.381902
0.381342
0.380792
0.380249
0.379715
0.379188
0.378669
0.378157
0.377652
0.377153
0.376661
0.376175
0.375695
0.375219
0.374749
0.374283
0.373821
0.373363
0.372908
0.372455
0.372006
0.371558
0.371111
0.370666
0.370222
0.444544
0.426613
0.414895
0.413267
0.41235
0.411427
0.410516
0.40962
0.40874
0.407874
0.407021
0.406178
0.405343
0.404515
0.403693
0.402877
0.402065
0.401259
0.400458
0.399663
0.398875
0.398092
0.397317
0.396549
0.395788
0.395036
0.394291
0.393556
0.392829
0.392111
0.391402
0.390702
0.390012
0.389331
0.388659
0.387997
0.387345
0.386703
0.38607
0.385446
0.384832
0.384228
0.383633
0.383047
0.38247
0.381902
0.381342
0.380792
0.380249
0.379715
0.379188
0.378669
0.378157
0.377652
0.377153
0.376661
0.376175
0.375695
0.375219
0.374749
0.374283
0.373821
0.373363
0.372908
0.372455
0.372006
0.371558
0.371111
0.370666
0.370222
0.444544
0.426613
0.414895
0.413267
0.41235
0.411427
0.410516
0.40962
0.40874
0.407874
0.407021
0.406178
0.405343
0.404515
0.403693
0.402877
0.402065
0.401259
0.400458
0.399663
0.398875
0.398092
0.397317
0.396549
0.395788
0.395036
0.394291
0.393556
0.392829
0.392111
0.391402
0.390702
0.390012
0.389331
0.388659
0.387997
0.387345
0.386703
0.38607
0.385446
0.384832
0.384228
0.383633
0.383047
0.38247
0.381902
0.381342
0.380792
0.380249
0.379715
0.379188
0.378669
0.378157
0.377652
0.377153
0.376661
0.376175
0.375695
0.375219
0.374749
0.374283
0.373821
0.373363
0.372908
0.372455
0.372006
0.371558
0.371111
0.370666
0.370222
0.444544
0.426613
0.414895
0.413267
0.41235
0.411427
0.410516
0.40962
0.40874
0.407874
0.407021
0.406178
0.405343
0.404515
0.403693
0.402877
0.402065
0.401259
0.400458
0.399663
0.398875
0.398092
0.397317
0.396549
0.395788
0.395036
0.394291
0.393556
0.392829
0.392111
0.391402
0.390702
0.390012
0.389331
0.388659
0.387997
0.387345
0.386703
0.38607
0.385446
0.384832
0.384228
0.383633
0.383047
0.38247
0.381902
0.381342
0.380792
0.380249
0.379715
0.379188
0.378669
0.378157
0.377652
0.377153
0.376661
0.376175
0.375695
0.375219
0.374749
0.374283
0.373821
0.373363
0.372908
0.372455
0.372006
0.371558
0.371111
0.370666
0.370222
0.444544