/*--------------------------------*- C++ -*----------------------------------*\
  =========                 |
  \\      /  F ield         | OpenFOAM: The Open Source CFD Toolbox
   \\    /   O peration     | Website:  https://openfoam.org
    \\  /    A nd           | Version:  13
     \\/     M anipulation  |
\*---------------------------------------------------------------------------*/
FoamFile
{
    format      ascii;
    class       volScalarField;
    location    "127.5";
    object      nut;
}
// * * * * * * * * * * * * * * * * * * * * * * * * * * * * * * * * * * * * * //

dimensions      [0 2 -1 0 0 0 0];

internalField   nonuniform List<scalar> 
315000
(
2.76814e-15
7.25012e-13
1.6546e-11
2.97057e-11
4.30892e-11
5.67279e-11
7.066e-11
8.4919e-11
9.95281e-11
1.14498e-10
1.29823e-10
1.45487e-10
1.61454e-10
1.77679e-10
1.941e-10
2.10646e-10
2.27235e-10
2.43778e-10
2.60177e-10
2.76332e-10
2.92137e-10
3.07486e-10
3.22274e-10
3.36395e-10
3.49748e-10
3.62235e-10
3.73763e-10
3.84247e-10
3.93606e-10
4.0177e-10
4.08675e-10
4.14269e-10
4.18509e-10
4.21361e-10
4.22804e-10
4.22825e-10
4.21426e-10
4.18616e-10
4.14418e-10
4.08864e-10
4.01998e-10
3.93871e-10
3.84547e-10
3.74095e-10
3.62597e-10
3.50136e-10
3.36807e-10
3.22706e-10
3.07935e-10
2.92599e-10
2.76804e-10
2.60656e-10
2.44259e-10
2.27715e-10
2.11121e-10
1.94566e-10
1.78134e-10
1.61894e-10
1.45909e-10
1.30225e-10
1.14876e-10
9.98798e-11
8.52417e-11
7.09508e-11
5.69831e-11
4.33042e-11
2.98737e-11
1.66555e-11
7.30788e-13
2.79238e-15
6.92811e-14
1.84515e-11
4.20286e-09
7.60426e-09
1.10491e-08
1.45538e-08
1.81319e-08
2.1794e-08
2.5547e-08
2.9394e-08
3.33343e-08
3.73629e-08
4.14712e-08
4.56469e-08
4.98743e-08
5.41346e-08
5.84067e-08
6.26669e-08
6.68903e-08
7.10504e-08
7.51202e-08
7.90723e-08
8.28792e-08
8.6514e-08
8.99506e-08
9.31637e-08
9.61297e-08
9.88264e-08
1.01233e-07
1.03333e-07
1.05108e-07
1.06546e-07
1.07635e-07
1.08368e-07
1.08738e-07
1.08743e-07
1.08382e-07
1.07658e-07
1.06578e-07
1.05148e-07
1.03381e-07
1.0129e-07
9.88901e-08
9.62003e-08
9.32406e-08
9.0033e-08
8.66014e-08
8.29709e-08
7.91674e-08
7.52181e-08
7.11502e-08
6.69913e-08
6.27682e-08
5.85075e-08
5.42342e-08
4.99718e-08
4.57417e-08
4.15624e-08
3.74499e-08
3.34164e-08
2.94706e-08
2.56174e-08
2.18575e-08
1.81879e-08
1.46015e-08
1.10877e-08
7.63264e-09
4.21971e-09
1.85309e-11
6.95887e-14
2.78748e-13
7.43463e-11
4.31298e-08
7.80297e-08
1.1336e-07
1.49321e-07
1.86084e-07
2.23778e-07
2.62494e-07
3.02274e-07
3.43114e-07
3.84961e-07
4.27718e-07
4.71243e-07
5.15353e-07
5.59836e-07
6.0445e-07
6.4893e-07
6.93001e-07
7.36374e-07
7.78761e-07
8.1987e-07
8.59416e-07
8.97122e-07
9.32721e-07
9.6596e-07
9.966e-07
1.02442e-06
1.04923e-06
1.07084e-06
1.0891e-06
1.10387e-06
1.11506e-06
1.12257e-06
1.12636e-06
1.1264e-06
1.12268e-06
1.11524e-06
1.10413e-06
1.08942e-06
1.07123e-06
1.04968e-06
1.02494e-06
9.97169e-07
9.66579e-07
9.33386e-07
8.97827e-07
8.60155e-07
8.20637e-07
7.7955e-07
7.37179e-07
6.93814e-07
6.49745e-07
6.0526e-07
5.60635e-07
5.16134e-07
4.71999e-07
4.28444e-07
3.8565e-07
3.4376e-07
3.02872e-07
2.63039e-07
2.24266e-07
1.86508e-07
1.49679e-07
1.13644e-07
7.8235e-08
4.3249e-08
7.45626e-11
2.79575e-13
5.25052e-13
1.40051e-10
8.11638e-08
1.46743e-07
2.13154e-07
2.80844e-07
3.50192e-07
4.21492e-07
4.94945e-07
5.70649e-07
6.48598e-07
7.28682e-07
8.10686e-07
8.943e-07
9.79129e-07
1.06471e-06
1.15052e-06
1.23602e-06
1.32064e-06
1.40381e-06
1.48496e-06
1.56353e-06
1.63899e-06
1.71081e-06
1.77851e-06
1.84162e-06
1.89972e-06
1.95241e-06
1.99932e-06
2.04015e-06
2.07461e-06
2.10247e-06
2.12355e-06
2.1377e-06
2.14482e-06
2.14488e-06
2.13786e-06
2.12382e-06
2.10285e-06
2.07509e-06
2.04073e-06
2e-06
1.95317e-06
1.90057e-06
1.84255e-06
1.7795e-06
1.71186e-06
1.64009e-06
1.56468e-06
1.48614e-06
1.40502e-06
1.32186e-06
1.23725e-06
1.15174e-06
1.06591e-06
9.803e-07
8.95433e-07
8.11772e-07
7.29711e-07
6.49562e-07
5.71539e-07
4.95754e-07
4.22213e-07
3.50817e-07
2.81367e-07
2.13568e-07
1.47041e-07
8.13359e-08
1.40363e-10
5.26248e-13
8.0817e-13
2.15585e-10
1.24779e-07
2.25364e-07
3.27147e-07
4.30892e-07
5.37234e-07
6.46656e-07
7.59482e-07
8.7586e-07
9.95762e-07
1.11898e-06
1.24513e-06
1.37368e-06
1.50397e-06
1.63522e-06
1.76663e-06
1.89732e-06
2.02644e-06
2.15314e-06
2.27657e-06
2.39592e-06
2.51041e-06
2.61928e-06
2.72181e-06
2.81733e-06
2.90519e-06
2.98482e-06
3.05569e-06
3.11734e-06
3.16936e-06
3.2114e-06
3.24319e-06
3.26452e-06
3.27526e-06
3.27533e-06
3.26473e-06
3.24352e-06
3.21186e-06
3.16995e-06
3.11805e-06
3.05652e-06
2.98576e-06
2.90623e-06
2.81846e-06
2.72303e-06
2.62058e-06
2.51177e-06
2.39733e-06
2.27802e-06
2.15462e-06
2.02794e-06
1.89882e-06
1.76812e-06
1.6367e-06
1.50541e-06
1.37508e-06
1.24647e-06
1.12025e-06
9.96957e-07
8.76965e-07
7.60485e-07
6.47549e-07
5.38007e-07
4.31539e-07
3.27659e-07
2.25731e-07
1.24992e-07
2.15972e-10
8.09655e-13
1.11351e-12
2.97056e-10
1.71687e-07
3.09668e-07
4.4907e-07
5.91002e-07
7.36368e-07
8.85849e-07
1.03988e-06
1.19863e-06
1.36203e-06
1.52972e-06
1.70115e-06
1.8755e-06
2.05184e-06
2.2291e-06
2.40616e-06
2.5819e-06
2.75519e-06
2.92492e-06
3.09002e-06
3.24946e-06
3.40223e-06
3.54735e-06
3.68392e-06
3.81106e-06
3.92796e-06
4.03385e-06
4.12806e-06
4.20999e-06
4.2791e-06
4.33494e-06
4.37716e-06
4.40548e-06
4.41973e-06
4.4198e-06
4.40571e-06
4.37753e-06
4.33545e-06
4.27975e-06
4.21078e-06
4.12898e-06
4.03489e-06
3.92911e-06
3.81232e-06
3.68527e-06
3.54878e-06
3.40373e-06
3.25102e-06
3.09163e-06
2.92656e-06
2.75685e-06
2.58357e-06
2.40783e-06
2.23074e-06
2.05345e-06
1.87706e-06
1.70265e-06
1.53115e-06
1.36337e-06
1.19987e-06
1.041e-06
8.86852e-07
7.37238e-07
5.91729e-07
4.49646e-07
3.10081e-07
1.71927e-07
2.97496e-10
1.1152e-12
1.42017e-12
3.78892e-10
2.18662e-07
3.93824e-07
5.70436e-07
7.49955e-07
9.33554e-07
1.12209e-06
1.3161e-06
1.51575e-06
1.7209e-06
1.93106e-06
2.14544e-06
2.363e-06
2.58252e-06
2.80269e-06
3.02214e-06
3.23949e-06
3.4534e-06
3.66257e-06
3.86571e-06
4.06162e-06
4.24911e-06
4.42705e-06
4.59436e-06
4.75e-06
4.89303e-06
5.02254e-06
5.13771e-06
5.23783e-06
5.32227e-06
5.39049e-06
5.44206e-06
5.47666e-06
5.49405e-06
5.49413e-06
5.47689e-06
5.44244e-06
5.39102e-06
5.32294e-06
5.23864e-06
5.13865e-06
5.0236e-06
4.89421e-06
4.75129e-06
4.59574e-06
4.42852e-06
4.25066e-06
4.06323e-06
3.86737e-06
3.66426e-06
3.45513e-06
3.24122e-06
3.02387e-06
2.8044e-06
2.5842e-06
2.36463e-06
2.14701e-06
1.93255e-06
1.7223e-06
1.51705e-06
1.31728e-06
1.12315e-06
9.34468e-07
7.50719e-07
5.7104e-07
3.94259e-07
2.18915e-07
3.79358e-10
1.42197e-12
1.70738e-12
4.55548e-10
2.62536e-07
4.72184e-07
6.83136e-07
8.97183e-07
1.11574e-06
1.33984e-06
1.57006e-06
1.8066e-06
2.04923e-06
2.2973e-06
2.54983e-06
2.80558e-06
3.06311e-06
3.32088e-06
3.57731e-06
3.83084e-06
4.07996e-06
4.32319e-06
4.55911e-06
4.78635e-06
5.00361e-06
5.20962e-06
5.40318e-06
5.58318e-06
5.74859e-06
5.8984e-06
6.03168e-06
6.14756e-06
6.24532e-06
6.32431e-06
6.38403e-06
6.42408e-06
6.4442e-06
6.44428e-06
6.4243e-06
6.3844e-06
6.32483e-06
6.24598e-06
6.14836e-06
6.0326e-06
5.89945e-06
5.74975e-06
5.58444e-06
5.40454e-06
5.21107e-06
5.00513e-06
4.78793e-06
4.56074e-06
4.32486e-06
4.08166e-06
3.83255e-06
3.57902e-06
3.32257e-06
3.06478e-06
2.80721e-06
2.5514e-06
2.29878e-06
2.05063e-06
1.8079e-06
1.57124e-06
1.34089e-06
1.11666e-06
8.97949e-07
6.83742e-07
4.7262e-07
2.6279e-07
4.5602e-10
1.70921e-12
1.95904e-12
5.22729e-10
3.00888e-07
5.40495e-07
7.81151e-07
1.02494e-06
1.27351e-06
1.528e-06
1.78908e-06
2.05691e-06
2.3312e-06
2.61119e-06
2.89572e-06
3.18338e-06
3.47254e-06
3.76151e-06
4.04855e-06
4.33195e-06
4.61006e-06
4.88128e-06
5.14408e-06
5.39698e-06
5.6386e-06
5.86768e-06
6.08297e-06
6.28323e-06
6.46727e-06
6.63393e-06
6.78218e-06
6.91106e-06
7.01975e-06
7.10755e-06
7.17391e-06
7.21842e-06
7.24077e-06
7.24084e-06
7.21863e-06
7.17427e-06
7.10804e-06
7.02037e-06
6.91181e-06
6.78306e-06
6.63493e-06
6.46837e-06
6.28444e-06
6.08427e-06
5.86906e-06
5.64005e-06
5.3985e-06
5.14565e-06
4.88289e-06
4.61169e-06
4.3336e-06
4.05019e-06
3.76314e-06
3.47415e-06
3.18494e-06
2.89723e-06
2.61263e-06
2.33256e-06
2.05817e-06
1.79022e-06
1.52902e-06
1.2744e-06
1.02569e-06
7.8174e-07
5.40919e-07
3.01135e-07
5.23192e-10
1.96083e-12
2.16606e-12
5.78008e-10
3.32378e-07
5.9646e-07
8.61296e-07
1.12923e-06
1.40207e-06
1.68109e-06
1.96699e-06
2.25994e-06
2.55957e-06
2.86502e-06
3.17502e-06
3.488e-06
3.80222e-06
4.11585e-06
4.42703e-06
4.73396e-06
5.03488e-06
5.32809e-06
5.61198e-06
5.88509e-06
6.14604e-06
6.39347e-06
6.62599e-06
6.84226e-06
7.04096e-06
7.22087e-06
7.38085e-06
7.51989e-06
7.63712e-06
7.7318e-06
7.80335e-06
7.85132e-06
7.87541e-06
7.87547e-06
7.85152e-06
7.80368e-06
7.73226e-06
7.6377e-06
7.5206e-06
7.38167e-06
7.22181e-06
7.04201e-06
6.8434e-06
6.62722e-06
6.39478e-06
6.14742e-06
5.88653e-06
5.61347e-06
5.32962e-06
5.03643e-06
4.73553e-06
4.4286e-06
4.1174e-06
3.80375e-06
3.48949e-06
3.17646e-06
2.8664e-06
2.56087e-06
2.26115e-06
1.96809e-06
1.68207e-06
1.40292e-06
1.12994e-06
8.61859e-07
5.96865e-07
3.32614e-07
5.78453e-10
2.16779e-12
2.32647e-12
6.20853e-10
3.56746e-07
6.39692e-07
9.2312e-07
1.20957e-06
1.501e-06
1.79877e-06
2.10362e-06
2.4157e-06
2.73459e-06
3.05937e-06
3.38866e-06
3.7208e-06
4.05395e-06
4.38619e-06
4.71559e-06
5.04024e-06
5.35833e-06
5.66809e-06
5.96793e-06
6.25639e-06
6.53199e-06
6.79329e-06
7.03882e-06
7.26715e-06
7.47688e-06
7.66673e-06
7.83551e-06
7.98217e-06
8.1058e-06
8.20563e-06
8.28106e-06
8.33162e-06
8.35701e-06
8.35707e-06
8.33181e-06
8.28137e-06
8.20607e-06
8.10636e-06
7.98284e-06
7.8363e-06
7.66762e-06
7.47787e-06
7.26823e-06
7.03999e-06
6.79453e-06
6.5333e-06
6.25775e-06
5.96935e-06
5.66954e-06
5.3598e-06
5.04173e-06
4.71708e-06
4.38768e-06
4.05542e-06
3.72223e-06
3.39003e-06
3.06068e-06
2.73583e-06
2.41685e-06
2.10467e-06
1.79971e-06
1.50182e-06
1.21025e-06
9.23656e-07
6.40078e-07
3.56971e-07
6.21279e-10
2.32813e-12
2.44391e-12
6.52231e-10
3.74572e-07
6.71281e-07
9.6825e-07
1.26817e-06
1.57311e-06
1.88449e-06
2.20308e-06
2.52902e-06
2.86187e-06
3.20063e-06
3.54387e-06
3.88986e-06
4.23668e-06
4.58235e-06
4.92488e-06
5.26232e-06
5.59279e-06
5.91453e-06
6.22594e-06
6.52551e-06
6.81171e-06
7.08304e-06
7.33796e-06
7.57499e-06
7.79268e-06
7.98969e-06
8.16481e-06
8.31696e-06
8.44519e-06
8.54873e-06
8.62694e-06
8.67937e-06
8.70569e-06
8.70575e-06
8.67955e-06
8.62724e-06
8.54914e-06
8.44572e-06
8.3176e-06
8.16556e-06
7.99054e-06
7.79363e-06
7.57602e-06
7.33908e-06
7.08423e-06
6.81297e-06
6.52681e-06
6.22729e-06
5.91591e-06
5.59421e-06
5.26375e-06
4.92632e-06
4.58378e-06
4.23808e-06
3.89123e-06
3.54519e-06
3.20189e-06
2.86306e-06
2.53013e-06
2.20409e-06
1.88539e-06
1.5739e-06
1.26883e-06
9.68764e-07
6.7165e-07
3.74788e-07
6.52641e-10
2.44551e-12
2.52539e-12
6.7401e-10
3.86937e-07
6.93175e-07
9.99512e-07
1.30875e-06
1.62303e-06
1.94381e-06
2.2719e-06
2.60742e-06
2.94991e-06
3.29832e-06
3.6512e-06
4.00675e-06
4.36302e-06
4.71797e-06
5.06958e-06
5.41586e-06
5.75488e-06
6.08492e-06
6.40435e-06
6.71162e-06
7.00517e-06
7.28345e-06
7.54487e-06
7.78792e-06
8.01111e-06
8.21308e-06
8.39258e-06
8.54851e-06
8.67993e-06
8.78603e-06
8.86617e-06
8.91989e-06
8.94686e-06
8.94691e-06
8.92006e-06
8.86646e-06
8.78643e-06
8.68044e-06
8.54914e-06
8.39331e-06
8.2139e-06
8.01203e-06
7.78892e-06
7.54595e-06
7.2846e-06
7.00639e-06
6.71289e-06
6.40566e-06
6.08626e-06
5.75625e-06
5.41724e-06
5.07097e-06
4.71936e-06
4.36438e-06
4.00808e-06
3.65249e-06
3.29955e-06
2.95107e-06
2.6085e-06
2.27288e-06
1.94469e-06
1.62379e-06
1.30938e-06
1.00001e-06
6.93533e-07
3.87146e-07
6.74409e-10
2.52695e-12
2.57913e-12
6.88379e-10
3.95092e-07
7.07608e-07
1.02012e-06
1.33549e-06
1.65592e-06
1.98291e-06
2.31726e-06
2.6591e-06
3.00795e-06
3.36275e-06
3.72199e-06
4.08387e-06
4.44638e-06
4.80747e-06
5.16508e-06
5.51721e-06
5.86191e-06
6.19746e-06
6.52222e-06
6.8346e-06
7.13303e-06
7.41592e-06
7.68166e-06
7.92871e-06
8.15555e-06
8.36081e-06
8.54322e-06
8.70167e-06
8.8352e-06
8.943e-06
9.02442e-06
9.07899e-06
9.10639e-06
9.10645e-06
9.07917e-06
9.02471e-06
8.94339e-06
8.8357e-06
8.70228e-06
8.54393e-06
8.36162e-06
8.15645e-06
7.92969e-06
7.68272e-06
7.41705e-06
7.13422e-06
6.83584e-06
6.5235e-06
6.19878e-06
5.86326e-06
5.51857e-06
5.16645e-06
4.80883e-06
4.44772e-06
4.08517e-06
3.72326e-06
3.36396e-06
3.00909e-06
2.66016e-06
2.31822e-06
1.98377e-06
1.65667e-06
1.33611e-06
1.0206e-06
7.07958e-07
3.95296e-07
6.8877e-10
2.58066e-12
2.6129e-12
6.97413e-10
4.00218e-07
7.16681e-07
1.03307e-06
1.3523e-06
1.67661e-06
2.0075e-06
2.3458e-06
2.69163e-06
3.0445e-06
3.40334e-06
3.76661e-06
4.13248e-06
4.49895e-06
4.86394e-06
5.22536e-06
5.58121e-06
5.92952e-06
6.26857e-06
6.59672e-06
6.91236e-06
7.2139e-06
7.49972e-06
7.76822e-06
8.01781e-06
8.24699e-06
8.45434e-06
8.63861e-06
8.79866e-06
8.93354e-06
9.04242e-06
9.12466e-06
9.17978e-06
9.20745e-06
9.20751e-06
9.17995e-06
9.12495e-06
9.04281e-06
8.93404e-06
8.79927e-06
8.63931e-06
8.45514e-06
8.24788e-06
8.01879e-06
7.76927e-06
7.50084e-06
7.21508e-06
6.91359e-06
6.59799e-06
6.26988e-06
5.93085e-06
5.58255e-06
5.22672e-06
4.86528e-06
4.50028e-06
4.13378e-06
3.76786e-06
3.40453e-06
3.04563e-06
2.69268e-06
2.34675e-06
2.00835e-06
1.67734e-06
1.35292e-06
1.03355e-06
7.17027e-07
4.0042e-07
6.978e-10
2.61442e-12
2.63319e-12
7.0284e-10
4.03299e-07
7.22132e-07
1.04085e-06
1.36241e-06
1.68905e-06
2.0223e-06
2.36298e-06
2.71123e-06
3.06653e-06
3.42781e-06
3.79353e-06
4.16183e-06
4.53071e-06
4.89806e-06
5.2618e-06
5.61991e-06
5.97043e-06
6.31162e-06
6.64184e-06
6.95947e-06
7.26291e-06
7.55054e-06
7.82072e-06
8.07187e-06
8.30247e-06
8.51111e-06
8.69652e-06
8.85755e-06
8.99325e-06
9.1028e-06
9.18554e-06
9.241e-06
9.26883e-06
9.26889e-06
9.24117e-06
9.18583e-06
9.10319e-06
8.99375e-06
8.85816e-06
8.69722e-06
8.51191e-06
8.30336e-06
8.07284e-06
7.82176e-06
7.55165e-06
7.26409e-06
6.9607e-06
6.64311e-06
6.31292e-06
5.97175e-06
5.62125e-06
5.26315e-06
4.8994e-06
4.53203e-06
4.16312e-06
3.79477e-06
3.429e-06
3.06765e-06
2.71227e-06
2.36393e-06
2.02314e-06
1.68978e-06
1.36302e-06
1.04133e-06
7.22477e-07
4.035e-07
7.03226e-10
2.63469e-12
2.64485e-12
7.05963e-10
4.05071e-07
7.25269e-07
1.04533e-06
1.36823e-06
1.69622e-06
2.03083e-06
2.37289e-06
2.72254e-06
3.07926e-06
3.44196e-06
3.8091e-06
4.17882e-06
4.5491e-06
4.91784e-06
5.28294e-06
5.64237e-06
5.99418e-06
6.33663e-06
6.66806e-06
6.98687e-06
7.29143e-06
7.58011e-06
7.85128e-06
8.10335e-06
8.33479e-06
8.54419e-06
8.73026e-06
8.89188e-06
9.02806e-06
9.138e-06
9.22104e-06
9.27669e-06
9.30463e-06
9.30468e-06
9.27686e-06
9.22132e-06
9.13839e-06
9.02856e-06
8.89248e-06
8.73096e-06
8.54498e-06
8.33567e-06
8.10432e-06
7.85232e-06
7.58122e-06
7.2926e-06
6.98809e-06
6.66933e-06
6.33793e-06
5.9955e-06
5.64371e-06
5.28429e-06
4.91918e-06
4.55042e-06
4.18011e-06
3.81035e-06
3.44315e-06
3.08038e-06
2.72358e-06
2.37384e-06
2.03167e-06
1.69695e-06
1.36884e-06
1.04581e-06
7.25613e-07
4.05272e-07
7.06347e-10
2.64635e-12
2.65128e-12
7.07686e-10
4.0605e-07
7.27002e-07
1.04781e-06
1.37145e-06
1.70018e-06
2.03555e-06
2.37838e-06
2.72881e-06
3.08632e-06
3.44982e-06
3.81775e-06
4.18827e-06
4.55934e-06
4.92885e-06
5.29472e-06
5.65489e-06
6.00743e-06
6.35059e-06
6.68271e-06
7.00218e-06
7.30737e-06
7.59665e-06
7.86838e-06
8.12097e-06
8.35288e-06
8.56271e-06
8.74916e-06
8.91111e-06
9.04757e-06
9.15773e-06
9.24094e-06
9.2967e-06
9.32469e-06
9.32475e-06
9.29687e-06
9.24122e-06
9.15813e-06
9.04807e-06
8.91171e-06
8.74987e-06
8.56351e-06
8.35377e-06
8.12194e-06
7.86942e-06
7.59776e-06
7.30854e-06
7.0034e-06
6.68398e-06
6.35189e-06
6.00876e-06
5.65623e-06
5.29607e-06
4.93019e-06
4.56066e-06
4.18956e-06
3.819e-06
3.45101e-06
3.08744e-06
2.72985e-06
2.37933e-06
2.0364e-06
1.70091e-06
1.37206e-06
1.04829e-06
7.27346e-07
4.0625e-07
7.08071e-10
2.65279e-12
2.6547e-12
7.08601e-10
4.06569e-07
7.27922e-07
1.04912e-06
1.37316e-06
1.70229e-06
2.03807e-06
2.38131e-06
2.73215e-06
3.09009e-06
3.45401e-06
3.82238e-06
4.19333e-06
4.56482e-06
4.93476e-06
5.30104e-06
5.66161e-06
6.01454e-06
6.35809e-06
6.69059e-06
7.01041e-06
7.31594e-06
7.60555e-06
7.87759e-06
8.13046e-06
8.36264e-06
8.5727e-06
8.75936e-06
8.92148e-06
9.0581e-06
9.16838e-06
9.25168e-06
9.3075e-06
9.33552e-06
9.33558e-06
9.30767e-06
9.25196e-06
9.16877e-06
9.0586e-06
8.92209e-06
8.76006e-06
8.57349e-06
8.36352e-06
8.13143e-06
7.87863e-06
7.60666e-06
7.31712e-06
7.01164e-06
6.69185e-06
6.35939e-06
6.01587e-06
5.66296e-06
5.30238e-06
4.9361e-06
4.56614e-06
4.19462e-06
3.82363e-06
3.45521e-06
3.09121e-06
2.7332e-06
2.38226e-06
2.03891e-06
1.70302e-06
1.37377e-06
1.0496e-06
7.28267e-07
4.0677e-07
7.08986e-10
2.6562e-12
2.65644e-12
7.09068e-10
4.06835e-07
7.28393e-07
1.0498e-06
1.37403e-06
1.70337e-06
2.03935e-06
2.38281e-06
2.73387e-06
3.09203e-06
3.45617e-06
3.82476e-06
4.19594e-06
4.56765e-06
4.9378e-06
5.3043e-06
5.66509e-06
6.01823e-06
6.36197e-06
6.69466e-06
7.01468e-06
7.32039e-06
7.61017e-06
7.88237e-06
8.13539e-06
8.3677e-06
8.57788e-06
8.76465e-06
8.92688e-06
9.06357e-06
9.17391e-06
9.25726e-06
9.31312e-06
9.34116e-06
9.34121e-06
9.31329e-06
9.25754e-06
9.17431e-06
9.06407e-06
8.92748e-06
8.76536e-06
8.57868e-06
8.36859e-06
8.13636e-06
7.88341e-06
7.61128e-06
7.32157e-06
7.0159e-06
6.69593e-06
6.36328e-06
6.01955e-06
5.66643e-06
5.30565e-06
4.93915e-06
4.56897e-06
4.19723e-06
3.82601e-06
3.45737e-06
3.09315e-06
2.73492e-06
2.38376e-06
2.0402e-06
1.7041e-06
1.37464e-06
1.05028e-06
7.28738e-07
4.07036e-07
7.09454e-10
2.65795e-12
2.6573e-12
7.09299e-10
4.06966e-07
7.28625e-07
1.05013e-06
1.37446e-06
1.7039e-06
2.03999e-06
2.38355e-06
2.73472e-06
3.09299e-06
3.45725e-06
3.82595e-06
4.19723e-06
4.56906e-06
4.93932e-06
5.30593e-06
5.66682e-06
6.02006e-06
6.36391e-06
6.6967e-06
7.01681e-06
7.32262e-06
7.61248e-06
7.88476e-06
8.13786e-06
8.37024e-06
8.58049e-06
8.76731e-06
8.92958e-06
9.06631e-06
9.17669e-06
9.26006e-06
9.31594e-06
9.34398e-06
9.34404e-06
9.31611e-06
9.26035e-06
9.17708e-06
9.06681e-06
8.93018e-06
8.76801e-06
8.58128e-06
8.37113e-06
8.13883e-06
7.88581e-06
7.61359e-06
7.32379e-06
7.01804e-06
6.69797e-06
6.36522e-06
6.02139e-06
5.66817e-06
5.30727e-06
4.94066e-06
4.57038e-06
4.19853e-06
3.8272e-06
3.45844e-06
3.09411e-06
2.73577e-06
2.3845e-06
2.04084e-06
1.70464e-06
1.37508e-06
1.05061e-06
7.2897e-07
4.07167e-07
7.09684e-10
2.65881e-12
2.65771e-12
7.09408e-10
4.07028e-07
7.28735e-07
1.05029e-06
1.37467e-06
1.70416e-06
2.0403e-06
2.38391e-06
2.73513e-06
3.09345e-06
3.45776e-06
3.82652e-06
4.19785e-06
4.56973e-06
4.94005e-06
5.30671e-06
5.66766e-06
6.02095e-06
6.36485e-06
6.69769e-06
7.01784e-06
7.32369e-06
7.6136e-06
7.88592e-06
8.13905e-06
8.37147e-06
8.58175e-06
8.7686e-06
8.93089e-06
9.06764e-06
9.17804e-06
9.26142e-06
9.3173e-06
9.34535e-06
9.34541e-06
9.31747e-06
9.2617e-06
9.17843e-06
9.06814e-06
8.93149e-06
8.7693e-06
8.58254e-06
8.37236e-06
8.14002e-06
7.88697e-06
7.61471e-06
7.32487e-06
7.01907e-06
6.69896e-06
6.36615e-06
6.02228e-06
5.669e-06
5.30806e-06
4.9414e-06
4.57106e-06
4.19915e-06
3.82777e-06
3.45895e-06
3.09457e-06
2.73618e-06
2.38486e-06
2.04114e-06
1.70489e-06
1.37528e-06
1.05077e-06
7.29081e-07
4.0723e-07
7.09794e-10
2.65922e-12
2.65789e-12
7.09459e-10
4.07057e-07
7.28786e-07
1.05036e-06
1.37477e-06
1.70428e-06
2.04044e-06
2.38407e-06
2.73532e-06
3.09366e-06
3.458e-06
3.82678e-06
4.19814e-06
4.57005e-06
4.94039e-06
5.30707e-06
5.66805e-06
6.02136e-06
6.36528e-06
6.69815e-06
7.01832e-06
7.32419e-06
7.61412e-06
7.88646e-06
8.13961e-06
8.37204e-06
8.58234e-06
8.7692e-06
8.93151e-06
9.06827e-06
9.17867e-06
9.26206e-06
9.31794e-06
9.346e-06
9.34605e-06
9.31811e-06
9.26234e-06
9.17906e-06
9.06877e-06
8.93211e-06
8.76991e-06
8.58313e-06
8.37293e-06
8.14058e-06
7.88751e-06
7.61524e-06
7.32537e-06
7.01955e-06
6.69942e-06
6.36659e-06
6.02269e-06
5.66939e-06
5.30842e-06
4.94174e-06
4.57137e-06
4.19944e-06
3.82803e-06
3.45919e-06
3.09479e-06
2.73636e-06
2.38503e-06
2.04129e-06
1.70501e-06
1.37538e-06
1.05084e-06
7.29132e-07
4.07258e-07
7.09845e-10
2.6594e-12
2.65798e-12
7.09481e-10
4.0707e-07
7.28809e-07
1.05039e-06
1.37481e-06
1.70433e-06
2.0405e-06
2.38415e-06
2.7354e-06
3.09376e-06
3.45811e-06
3.8269e-06
4.19827e-06
4.57019e-06
4.94055e-06
5.30724e-06
5.66822e-06
6.02155e-06
6.36548e-06
6.69835e-06
7.01854e-06
7.32442e-06
7.61436e-06
7.88671e-06
8.13987e-06
8.3723e-06
8.5826e-06
8.76948e-06
8.93178e-06
9.06855e-06
9.17896e-06
9.26235e-06
9.31823e-06
9.34629e-06
9.34634e-06
9.3184e-06
9.26263e-06
9.17935e-06
9.06905e-06
8.93239e-06
8.77018e-06
8.5834e-06
8.37319e-06
8.14084e-06
7.88775e-06
7.61547e-06
7.3256e-06
7.01977e-06
6.69963e-06
6.36679e-06
6.02288e-06
5.66957e-06
5.30859e-06
4.94189e-06
4.57152e-06
4.19957e-06
3.82815e-06
3.4593e-06
3.09488e-06
2.73645e-06
2.3851e-06
2.04135e-06
1.70506e-06
1.37542e-06
1.05087e-06
7.29154e-07
4.07271e-07
7.09867e-10
2.65949e-12
2.65801e-12
7.09491e-10
4.07075e-07
7.28819e-07
1.05041e-06
1.37483e-06
1.70435e-06
2.04053e-06
2.38418e-06
2.73544e-06
3.0938e-06
3.45815e-06
3.82695e-06
4.19833e-06
4.57025e-06
4.94061e-06
5.30731e-06
5.6683e-06
6.02163e-06
6.36557e-06
6.69844e-06
7.01864e-06
7.32452e-06
7.61446e-06
7.88681e-06
8.13998e-06
8.37242e-06
8.58272e-06
8.7696e-06
8.93191e-06
9.06867e-06
9.17908e-06
9.26248e-06
9.31836e-06
9.34642e-06
9.34647e-06
9.31853e-06
9.26276e-06
9.17948e-06
9.06917e-06
8.93251e-06
8.7703e-06
8.58352e-06
8.37331e-06
8.14095e-06
7.88786e-06
7.61558e-06
7.3257e-06
7.01987e-06
6.69972e-06
6.36687e-06
6.02296e-06
5.66964e-06
5.30866e-06
4.94196e-06
4.57158e-06
4.19962e-06
3.8282e-06
3.45935e-06
3.09492e-06
2.73649e-06
2.38513e-06
2.04138e-06
1.70509e-06
1.37544e-06
1.05089e-06
7.29164e-07
4.07277e-07
7.09877e-10
2.65952e-12
2.65803e-12
7.09495e-10
4.07078e-07
7.28823e-07
1.05041e-06
1.37483e-06
1.70436e-06
2.04054e-06
2.38419e-06
2.73546e-06
3.09381e-06
3.45817e-06
3.82697e-06
4.19835e-06
4.57028e-06
4.94064e-06
5.30734e-06
5.66833e-06
6.02167e-06
6.3656e-06
6.69848e-06
7.01868e-06
7.32456e-06
7.61451e-06
7.88686e-06
8.14002e-06
8.37247e-06
8.58277e-06
8.76965e-06
8.93196e-06
9.06873e-06
9.17914e-06
9.26253e-06
9.31842e-06
9.34647e-06
9.34653e-06
9.31859e-06
9.26281e-06
9.17953e-06
9.06923e-06
8.93256e-06
8.77035e-06
8.58357e-06
8.37336e-06
8.141e-06
7.88791e-06
7.61562e-06
7.32574e-06
7.01991e-06
6.69975e-06
6.36691e-06
6.023e-06
5.66968e-06
5.30869e-06
4.94198e-06
4.5716e-06
4.19965e-06
3.82822e-06
3.45937e-06
3.09494e-06
2.7365e-06
2.38514e-06
2.04139e-06
1.7051e-06
1.37545e-06
1.05089e-06
7.29168e-07
4.07279e-07
7.09881e-10
2.65954e-12
2.65804e-12
7.09497e-10
4.07079e-07
7.28825e-07
1.05041e-06
1.37484e-06
1.70437e-06
2.04054e-06
2.3842e-06
2.73546e-06
3.09382e-06
3.45818e-06
3.82698e-06
4.19836e-06
4.57029e-06
4.94065e-06
5.30735e-06
5.66834e-06
6.02168e-06
6.36562e-06
6.6985e-06
7.01869e-06
7.32458e-06
7.61452e-06
7.88688e-06
8.14004e-06
8.37249e-06
8.58279e-06
8.76967e-06
8.93198e-06
9.06875e-06
9.17916e-06
9.26255e-06
9.31844e-06
9.34649e-06
9.34655e-06
9.31861e-06
9.26283e-06
9.17955e-06
9.06925e-06
8.93258e-06
8.77037e-06
8.58359e-06
8.37338e-06
8.14102e-06
7.88793e-06
7.61564e-06
7.32576e-06
7.01992e-06
6.69977e-06
6.36693e-06
6.02301e-06
5.66969e-06
5.3087e-06
4.942e-06
4.57161e-06
4.19966e-06
3.82823e-06
3.45937e-06
3.09495e-06
2.73651e-06
2.38515e-06
2.04139e-06
1.7051e-06
1.37545e-06
1.0509e-06
7.2917e-07
4.0728e-07
7.09883e-10
2.65955e-12
2.65804e-12
7.09497e-10
4.07079e-07
7.28825e-07
1.05041e-06
1.37484e-06
1.70437e-06
2.04055e-06
2.3842e-06
2.73547e-06
3.09382e-06
3.45818e-06
3.82699e-06
4.19837e-06
4.57029e-06
4.94066e-06
5.30736e-06
5.66835e-06
6.02169e-06
6.36563e-06
6.69851e-06
7.0187e-06
7.32459e-06
7.61453e-06
7.88689e-06
8.14005e-06
8.3725e-06
8.5828e-06
8.76968e-06
8.93199e-06
9.06876e-06
9.17917e-06
9.26256e-06
9.31845e-06
9.3465e-06
9.34656e-06
9.31862e-06
9.26284e-06
9.17956e-06
9.06926e-06
8.93259e-06
8.77038e-06
8.5836e-06
8.37339e-06
8.14102e-06
7.88794e-06
7.61565e-06
7.32577e-06
7.01993e-06
6.69978e-06
6.36693e-06
6.02302e-06
5.66969e-06
5.30871e-06
4.942e-06
4.57162e-06
4.19966e-06
3.82824e-06
3.45938e-06
3.09495e-06
2.73651e-06
2.38515e-06
2.04139e-06
1.7051e-06
1.37545e-06
1.0509e-06
7.29171e-07
4.0728e-07
7.09883e-10
2.65955e-12
2.65804e-12
7.09497e-10
4.07079e-07
7.28825e-07
1.05042e-06
1.37484e-06
1.70437e-06
2.04055e-06
2.3842e-06
2.73547e-06
3.09383e-06
3.45818e-06
3.82699e-06
4.19837e-06
4.5703e-06
4.94066e-06
5.30736e-06
5.66835e-06
6.02169e-06
6.36563e-06
6.69851e-06
7.0187e-06
7.32459e-06
7.61453e-06
7.88689e-06
8.14006e-06
8.3725e-06
8.5828e-06
8.76968e-06
8.93199e-06
9.06876e-06
9.17917e-06
9.26257e-06
9.31845e-06
9.34651e-06
9.34656e-06
9.31862e-06
9.26285e-06
9.17956e-06
9.06926e-06
8.9326e-06
8.77038e-06
8.5836e-06
8.37339e-06
8.14103e-06
7.88794e-06
7.61565e-06
7.32577e-06
7.01993e-06
6.69978e-06
6.36693e-06
6.02302e-06
5.6697e-06
5.30871e-06
4.942e-06
4.57162e-06
4.19966e-06
3.82824e-06
3.45938e-06
3.09495e-06
2.73651e-06
2.38515e-06
2.04139e-06
1.7051e-06
1.37545e-06
1.0509e-06
7.29171e-07
4.0728e-07
7.09883e-10
2.65955e-12
2.65804e-12
7.09498e-10
4.07079e-07
7.28826e-07
1.05042e-06
1.37484e-06
1.70437e-06
2.04055e-06
2.3842e-06
2.73547e-06
3.09383e-06
3.45818e-06
3.82699e-06
4.19837e-06
4.5703e-06
4.94066e-06
5.30736e-06
5.66835e-06
6.02169e-06
6.36563e-06
6.69851e-06
7.0187e-06
7.32459e-06
7.61453e-06
7.88689e-06
8.14006e-06
8.3725e-06
8.5828e-06
8.76968e-06
8.93199e-06
9.06876e-06
9.17917e-06
9.26257e-06
9.31845e-06
9.34651e-06
9.34656e-06
9.31862e-06
9.26285e-06
9.17957e-06
9.06926e-06
8.9326e-06
8.77039e-06
8.5836e-06
8.37339e-06
8.14103e-06
7.88794e-06
7.61565e-06
7.32577e-06
7.01993e-06
6.69978e-06
6.36693e-06
6.02302e-06
5.6697e-06
5.30871e-06
4.942e-06
4.57162e-06
4.19966e-06
3.82824e-06
3.45938e-06
3.09495e-06
2.73651e-06
2.38515e-06
2.04139e-06
1.7051e-06
1.37545e-06
1.0509e-06
7.29171e-07
4.07281e-07
7.09884e-10
2.65955e-12
2.65804e-12
7.09498e-10
4.07079e-07
7.28826e-07
1.05042e-06
1.37484e-06
1.70437e-06
2.04055e-06
2.3842e-06
2.73547e-06
3.09383e-06
3.45818e-06
3.82699e-06
4.19837e-06
4.5703e-06
4.94066e-06
5.30736e-06
5.66835e-06
6.02169e-06
6.36563e-06
6.69851e-06
7.01871e-06
7.32459e-06
7.61454e-06
7.88689e-06
8.14006e-06
8.3725e-06
8.58281e-06
8.76968e-06
8.93199e-06
9.06876e-06
9.17917e-06
9.26257e-06
9.31845e-06
9.34651e-06
9.34657e-06
9.31862e-06
9.26285e-06
9.17957e-06
9.06926e-06
8.9326e-06
8.77039e-06
8.5836e-06
8.37339e-06
8.14103e-06
7.88794e-06
7.61565e-06
7.32577e-06
7.01993e-06
6.69978e-06
6.36694e-06
6.02302e-06
5.6697e-06
5.30871e-06
4.942e-06
4.57162e-06
4.19966e-06
3.82824e-06
3.45938e-06
3.09495e-06
2.73651e-06
2.38515e-06
2.04139e-06
1.7051e-06
1.37545e-06
1.0509e-06
7.29171e-07
4.07281e-07
7.09884e-10
2.65955e-12
2.65804e-12
7.09498e-10
4.07079e-07
7.28826e-07
1.05042e-06
1.37484e-06
1.70437e-06
2.04055e-06
2.3842e-06
2.73547e-06
3.09383e-06
3.45818e-06
3.82699e-06
4.19837e-06
4.5703e-06
4.94066e-06
5.30736e-06
5.66835e-06
6.02169e-06
6.36563e-06
6.69851e-06
7.01871e-06
7.32459e-06
7.61454e-06
7.88689e-06
8.14006e-06
8.3725e-06
8.58281e-06
8.76968e-06
8.93199e-06
9.06876e-06
9.17917e-06
9.26257e-06
9.31845e-06
9.34651e-06
9.34657e-06
9.31862e-06
9.26285e-06
9.17957e-06
9.06926e-06
8.9326e-06
8.77039e-06
8.5836e-06
8.37339e-06
8.14103e-06
7.88794e-06
7.61565e-06
7.32577e-06
7.01993e-06
6.69978e-06
6.36694e-06
6.02302e-06
5.6697e-06
5.30871e-06
4.942e-06
4.57162e-06
4.19966e-06
3.82824e-06
3.45938e-06
3.09495e-06
2.73651e-06
2.38515e-06
2.04139e-06
1.7051e-06
1.37545e-06
1.0509e-06
7.29171e-07
4.07281e-07
7.09884e-10
2.65955e-12
2.65804e-12
7.09498e-10
4.07079e-07
7.28826e-07
1.05042e-06
1.37484e-06
1.70437e-06
2.04055e-06
2.3842e-06
2.73547e-06
3.09383e-06
3.45818e-06
3.82699e-06
4.19837e-06
4.5703e-06
4.94066e-06
5.30736e-06
5.66835e-06
6.02169e-06
6.36563e-06
6.69851e-06
7.01871e-06
7.32459e-06
7.61454e-06
7.88689e-06
8.14006e-06
8.3725e-06
8.58281e-06
8.76968e-06
8.93199e-06
9.06876e-06
9.17917e-06
9.26257e-06
9.31845e-06
9.34651e-06
9.34657e-06
9.31862e-06
9.26285e-06
9.17957e-06
9.06926e-06
8.9326e-06
8.77039e-06
8.5836e-06
8.37339e-06
8.14103e-06
7.88794e-06
7.61565e-06
7.32577e-06
7.01993e-06
6.69978e-06
6.36694e-06
6.02302e-06
5.6697e-06
5.30871e-06
4.942e-06
4.57162e-06
4.19966e-06
3.82824e-06
3.45938e-06
3.09495e-06
2.73651e-06
2.38515e-06
2.04139e-06
1.7051e-06
1.37545e-06
1.0509e-06
7.29171e-07
4.07281e-07
7.09884e-10
2.65955e-12
2.65804e-12
7.09498e-10
4.07079e-07
7.28826e-07
1.05042e-06
1.37484e-06
1.70437e-06
2.04055e-06
2.3842e-06
2.73547e-06
3.09383e-06
3.45818e-06
3.82699e-06
4.19837e-06
4.5703e-06
4.94066e-06
5.30736e-06
5.66835e-06
6.02169e-06
6.36563e-06
6.69851e-06
7.01871e-06
7.32459e-06
7.61454e-06
7.88689e-06
8.14006e-06
8.3725e-06
8.58281e-06
8.76968e-06
8.93199e-06
9.06876e-06
9.17917e-06
9.26257e-06
9.31845e-06
9.34651e-06
9.34657e-06
9.31862e-06
9.26285e-06
9.17957e-06
9.06926e-06
8.9326e-06
8.77039e-06
8.5836e-06
8.37339e-06
8.14103e-06
7.88794e-06
7.61565e-06
7.32577e-06
7.01993e-06
6.69978e-06
6.36694e-06
6.02302e-06
5.6697e-06
5.30871e-06
4.942e-06
4.57162e-06
4.19966e-06
3.82824e-06
3.45938e-06
3.09495e-06
2.73651e-06
2.38515e-06
2.04139e-06
1.7051e-06
1.37545e-06
1.0509e-06
7.29171e-07
4.07281e-07
7.09884e-10
2.65955e-12
2.65804e-12
7.09498e-10
4.07079e-07
7.28826e-07
1.05042e-06
1.37484e-06
1.70437e-06
2.04055e-06
2.3842e-06
2.73547e-06
3.09383e-06
3.45818e-06
3.82699e-06
4.19837e-06
4.5703e-06
4.94066e-06
5.30736e-06
5.66835e-06
6.02169e-06
6.36563e-06
6.69851e-06
7.01871e-06
7.32459e-06
7.61454e-06
7.88689e-06
8.14006e-06
8.3725e-06
8.58281e-06
8.76968e-06
8.93199e-06
9.06876e-06
9.17917e-06
9.26257e-06
9.31845e-06
9.34651e-06
9.34657e-06
9.31862e-06
9.26285e-06
9.17957e-06
9.06926e-06
8.9326e-06
8.77039e-06
8.5836e-06
8.37339e-06
8.14103e-06
7.88794e-06
7.61565e-06
7.32577e-06
7.01993e-06
6.69978e-06
6.36694e-06
6.02302e-06
5.6697e-06
5.30871e-06
4.942e-06
4.57162e-06
4.19966e-06
3.82824e-06
3.45938e-06
3.09495e-06
2.73651e-06
2.38515e-06
2.04139e-06
1.7051e-06
1.37545e-06
1.0509e-06
7.29171e-07
4.07281e-07
7.09884e-10
2.65955e-12
2.65804e-12
7.09498e-10
4.07079e-07
7.28826e-07
1.05042e-06
1.37484e-06
1.70437e-06
2.04055e-06
2.3842e-06
2.73547e-06
3.09383e-06
3.45818e-06
3.82699e-06
4.19837e-06
4.5703e-06
4.94066e-06
5.30736e-06
5.66835e-06
6.02169e-06
6.36563e-06