/*--------------------------------*- C++ -*----------------------------------*\
  =========                 |
  \\      /  F ield         | OpenFOAM: The Open Source CFD Toolbox
   \\    /   O peration     | Website:  https://openfoam.org
    \\  /    A nd           | Version:  13
     \\/     M anipulation  |
\*---------------------------------------------------------------------------*/
FoamFile
{
    format      ascii;
    class       volScalarField;
    location    "97.5";
    object      rhok;
}
// * * * * * * * * * * * * * * * * * * * * * * * * * * * * * * * * * * * * * //

dimensions      [];

internalField   nonuniform List<scalar> 
315000
(
0.444502
0.42482
0.417167
0.413276
0.412135
0.411321
0.410453
0.409588
0.408743
0.407916
0.407104
0.406302
0.405508
0.40472
0.403935
0.403154
0.402377
0.401604
0.400834
0.400068
0.399307
0.398551
0.397801
0.397055
0.396316
0.395584
0.394857
0.394138
0.393426
0.39272
0.392023
0.391333
0.39065
0.389976
0.389309
0.38865
0.387999
0.387357
0.386722
0.386095
0.385477
0.384866
0.384263
0.383668
0.38308
0.3825
0.381928
0.381362
0.380804
0.380252
0.379707
0.379168
0.378636
0.378109
0.377588
0.377072
0.376562
0.376056
0.375555
0.375057
0.374564
0.374074
0.373587
0.373103
0.372621
0.372142
0.371664
0.371187
0.370712
0.370237
0.444614
0.42931
0.414064
0.412595
0.411815
0.411029
0.410239
0.409449
0.408658
0.407868
0.407078
0.406289
0.405501
0.404716
0.403932
0.403151
0.402373
0.401598
0.400827
0.400061
0.399299
0.398543
0.397792
0.397046
0.396307
0.395574
0.394848
0.394129
0.393416
0.392711
0.392014
0.391324
0.390641
0.389967
0.3893
0.388641
0.387991
0.387348
0.386714
0.386087
0.385468
0.384858
0.384255
0.38366
0.383073
0.382493
0.38192
0.381355
0.380797
0.380245
0.3797
0.379162
0.37863
0.378103
0.377583
0.377067
0.376557
0.376052
0.375551
0.375054
0.374561
0.374071
0.373585
0.373101
0.37262
0.37214
0.371663
0.371187
0.370711
0.370237
0.444607
0.42903
0.414012
0.412566
0.411801
0.411029
0.410251
0.409468
0.408681
0.407891
0.4071
0.406308
0.405517
0.404727
0.40394
0.403155
0.402374
0.401597
0.400824
0.400057
0.399294
0.398536
0.397785
0.397039
0.3963
0.395567
0.39484
0.394121
0.393409
0.392704
0.392006
0.391316
0.390634
0.389959
0.389293
0.388634
0.387984
0.387341
0.386707
0.38608
0.385462
0.384851
0.384249
0.383654
0.383067
0.382487
0.381914
0.381349
0.380791
0.38024
0.379695
0.379157
0.378625
0.378099
0.377578
0.377063
0.376553
0.376048
0.375547
0.375051
0.374558
0.374069
0.373582
0.373099
0.372618
0.372139
0.371662
0.371186
0.370711
0.370236
0.444615
0.429338
0.414081
0.412614
0.411838
0.411057
0.410271
0.409481
0.408688
0.407893
0.407098
0.406303
0.40551
0.40472
0.403932
0.403147
0.402366
0.40159
0.400817
0.40005
0.399287
0.39853
0.397779
0.397033
0.396294
0.395561
0.394834
0.394115
0.393403
0.392698
0.392
0.39131
0.390628
0.389954
0.389287
0.388629
0.387978
0.387336
0.386701
0.386075
0.385457
0.384846
0.384244
0.383649
0.383062
0.382482
0.38191
0.381345
0.380787
0.380236
0.379691
0.379153
0.378621
0.378096
0.377575
0.37706
0.37655
0.376045
0.375545
0.375048
0.374556
0.374067
0.373581
0.373098
0.372617
0.372138
0.371661
0.371185
0.370711
0.370236
0.444589
0.428321
0.414128
0.412719
0.411957
0.411176
0.410382
0.409578
0.408769
0.407959
0.40715
0.406343
0.40554
0.404741
0.403947
0.403158
0.402373
0.401594
0.40082
0.40005
0.399287
0.398529
0.397777
0.397031
0.396291
0.395558
0.394831
0.394112
0.393399
0.392694
0.391997
0.391307
0.390624
0.38995
0.389283
0.388625
0.387974
0.387332
0.386698
0.386071
0.385453
0.384843
0.38424
0.383645
0.383058
0.382479
0.381907
0.381342
0.380784
0.380233
0.379689
0.379151
0.378619
0.378093
0.377573
0.377058
0.376548
0.376043
0.375543
0.375047
0.374554
0.374065
0.373579
0.373096
0.372616
0.372137
0.37166
0.371185
0.37071
0.370236
0.444615
0.429339
0.414123
0.41266
0.411884
0.4111
0.410308
0.409511
0.408711
0.407911
0.407111
0.406312
0.405516
0.404723
0.403933
0.403147
0.402365
0.401587
0.400814
0.400046
0.399283
0.398525
0.397774
0.397028
0.396288
0.395555
0.394828
0.394109
0.393396
0.392691
0.391994
0.391304
0.390621
0.389947
0.389281
0.388622
0.387972
0.387329
0.386695
0.386069
0.38545
0.38484
0.384238
0.383643
0.383056
0.382476
0.381904
0.38134
0.380782
0.380231
0.379687
0.379149
0.378617
0.378091
0.377571
0.377056
0.376547
0.376042
0.375542
0.375046
0.374553
0.374064
0.373579
0.373096
0.372615
0.372137
0.37166
0.371185
0.37071
0.370236
0.444581
0.428038
0.414193
0.412786
0.412017
0.411225
0.410418
0.409603
0.408785
0.407968
0.407154
0.406344
0.405539
0.404739
0.403944
0.403155
0.40237
0.40159
0.400816
0.400047
0.399283
0.398525
0.397773
0.397026
0.396287
0.395553
0.394827
0.394107
0.393395
0.392689
0.391992
0.391302
0.39062
0.389945
0.389279
0.38862
0.38797
0.387328
0.386693
0.386067
0.385449
0.384838
0.384236
0.383641
0.383054
0.382475
0.381903
0.381338
0.38078
0.38023
0.379685
0.379147
0.378616
0.37809
0.37757
0.377056
0.376546
0.376041
0.375541
0.375045
0.374553
0.374064
0.373578
0.373095
0.372615
0.372136
0.37166
0.371184
0.37071
0.370236
0.444615
0.429324
0.414118
0.412661
0.411881
0.41109
0.410293
0.409492
0.408692
0.407891
0.407093
0.406296
0.405503
0.404712
0.403924
0.40314
0.402359
0.401583
0.40081
0.400043
0.39928
0.398522
0.397771
0.397025
0.396285
0.395552
0.394825
0.394106
0.393393
0.392688
0.391991
0.391301
0.390619
0.389944
0.389278
0.388619
0.387969
0.387327
0.386692
0.386066
0.385448
0.384838
0.384235
0.383641
0.383054
0.382474
0.381902
0.381337
0.38078
0.380229
0.379685
0.379147
0.378615
0.37809
0.37757
0.377055
0.376545
0.376041
0.37554
0.375044
0.374552
0.374063
0.373578
0.373095
0.372615
0.372136
0.37166
0.371184
0.37071
0.370236
0.444546
0.426666
0.414832
0.413185
0.412278
0.411377
0.410494
0.40963
0.408784
0.407951
0.407131
0.406321
0.405518
0.404721
0.40393
0.403144
0.402362
0.401585
0.400812
0.400045
0.399282
0.398524
0.397772
0.397026
0.396286
0.395553
0.394826
0.394106
0.393394
0.392689
0.391991
0.391301
0.390619
0.389944
0.389278
0.388619
0.387969
0.387327
0.386692
0.386066
0.385448
0.384837
0.384235
0.38364
0.383053
0.382474
0.381902
0.381337
0.380779
0.380229
0.379684
0.379147
0.378615
0.378089
0.377569
0.377055
0.376545
0.376041
0.37554
0.375044
0.374552
0.374063
0.373578
0.373095
0.372614
0.372136
0.37166
0.371184
0.37071
0.370236
0.444614
0.42928
0.41405
0.412591
0.411814
0.411029
0.41024
0.409449
0.408657
0.407865
0.407073
0.406283
0.405493
0.404706
0.403921
0.403139
0.402359
0.401584
0.400812
0.400044
0.399282
0.398524
0.397773
0.397026
0.396287
0.395553
0.394827
0.394107
0.393394
0.392689
0.391991
0.391301
0.390619
0.389945
0.389278
0.38862
0.387969
0.387327
0.386692
0.386066
0.385448
0.384838
0.384235
0.38364
0.383053
0.382474
0.381902
0.381337
0.380779
0.380229
0.379684
0.379147
0.378615
0.378089
0.377569
0.377055
0.376545
0.376041
0.37554
0.375044
0.374552
0.374063
0.373578
0.373095
0.372614
0.372136
0.37166
0.371184
0.37071
0.370236
0.444615
0.429341
0.41404
0.412568
0.411792
0.411013
0.41023
0.409444
0.408657
0.407867
0.407077
0.406287
0.405498
0.40471
0.403925
0.403141
0.402361
0.401585
0.400813
0.400045
0.399282
0.398525
0.397773
0.397027
0.396287
0.395554
0.394827
0.394107
0.393395
0.39269
0.391992
0.391302
0.39062
0.389945
0.389279
0.38862
0.38797
0.387327
0.386693
0.386067
0.385448
0.384838
0.384236
0.383641
0.383054
0.382474
0.381902
0.381338
0.38078
0.380229
0.379685
0.379147
0.378615
0.37809
0.37757
0.377055
0.376545
0.376041
0.37554
0.375044
0.374552
0.374063
0.373578
0.373095
0.372615
0.372136
0.37166
0.371184
0.37071
0.370236
0.444605
0.428931
0.414015
0.412576
0.411813
0.411042
0.410264
0.409481
0.408692
0.4079
0.407107
0.406313
0.405519
0.404727
0.403938
0.403152
0.402369
0.401591
0.400817
0.400048
0.399284
0.398526
0.397774
0.397028
0.396288
0.395554
0.394828
0.394108
0.393396
0.392691
0.391993
0.391303
0.39062
0.389946
0.389279
0.388621
0.38797
0.387328
0.386694
0.386067
0.385449
0.384839
0.384236
0.383641
0.383054
0.382475
0.381903
0.381338
0.38078
0.380229
0.379685
0.379147
0.378615
0.37809
0.37757
0.377055
0.376546
0.376041
0.375541
0.375045
0.374552
0.374063
0.373578
0.373095
0.372615
0.372136
0.37166
0.371184
0.37071
0.370236
0.444615
0.429342
0.414091
0.412625
0.411849
0.411068
0.41028
0.409488
0.408693
0.407897
0.4071
0.406304
0.405509
0.404717
0.403928
0.403143
0.402362
0.401584
0.400812
0.400044
0.399281
0.398524
0.397772
0.397026
0.396287
0.395554
0.394827
0.394108
0.393396
0.392691
0.391993
0.391303
0.390621
0.389946
0.38928
0.388621
0.387971
0.387328
0.386694
0.386068
0.385449
0.384839
0.384236
0.383642
0.383055
0.382475
0.381903
0.381338
0.38078
0.38023
0.379685
0.379147
0.378616
0.37809
0.37757
0.377055
0.376546
0.376041
0.375541
0.375045
0.374552
0.374064
0.373578
0.373095
0.372615
0.372136
0.37166
0.371184
0.37071
0.370236
0.44459
0.428353
0.414187
0.412779
0.412016
0.411231
0.410431
0.40962
0.408804
0.407987
0.407171
0.406358
0.40555
0.404748
0.40395
0.403159
0.402373
0.401592
0.400817
0.400047
0.399284
0.398526
0.397773
0.397027
0.396288
0.395554
0.394828
0.394109
0.393396
0.392691
0.391994
0.391304
0.390621
0.389947
0.38928
0.388622
0.387971
0.387329
0.386695
0.386068
0.38545
0.384839
0.384237
0.383642
0.383055
0.382476
0.381903
0.381339
0.380781
0.38023
0.379686
0.379148
0.378616
0.37809
0.37757
0.377056
0.376546
0.376041
0.375541
0.375045
0.374553
0.374064
0.373578
0.373095
0.372615
0.372136
0.37166
0.371184
0.37071
0.370236
0.444589
0.428325
0.414182
0.412778
0.412016
0.411232
0.410433
0.409624
0.408809
0.407992
0.407176
0.406364
0.405556
0.404753
0.403955
0.403163
0.402377
0.401595
0.40082
0.40005
0.399286
0.398527
0.397775
0.397029
0.396289
0.395555
0.394829
0.394109
0.393397
0.392692
0.391994
0.391304
0.390622
0.389947
0.389281
0.388622
0.387972
0.387329
0.386695
0.386068
0.38545
0.38484
0.384237
0.383642
0.383055
0.382476
0.381904
0.381339
0.380781
0.38023
0.379686
0.379148
0.378616
0.378091
0.37757
0.377056
0.376546
0.376041
0.375541
0.375045
0.374553
0.374064
0.373578
0.373095
0.372615
0.372136
0.37166
0.371184
0.37071
0.370236
0.444615
0.429346
0.414124
0.41266
0.411884
0.411101
0.41031
0.409515
0.408717
0.407917
0.407117
0.406318
0.405521
0.404727
0.403936
0.40315
0.402367
0.401589
0.400815
0.400047
0.399284
0.398526
0.397774
0.397028
0.396288
0.395555
0.394829
0.394109
0.393397
0.392692
0.391994
0.391304
0.390622
0.389948
0.389281
0.388623
0.387972
0.38733
0.386695
0.386069
0.38545
0.38484
0.384238
0.383643
0.383056
0.382476
0.381904
0.381339
0.380781
0.38023
0.379686
0.379148
0.378617
0.378091
0.377571
0.377056
0.376546
0.376042
0.375541
0.375045
0.374553
0.374064
0.373578
0.373095
0.372615
0.372137
0.37166
0.371184
0.37071
0.370236
0.444594
0.428524
0.414073
0.412657
0.411898
0.411124
0.410337
0.409543
0.408742
0.407939
0.407136
0.406333
0.405533
0.404737
0.403944
0.403155
0.402371
0.401592
0.400818
0.400049
0.399285
0.398527
0.397775
0.397029
0.396289
0.395556
0.39483
0.39411
0.393398
0.392693
0.391995
0.391305
0.390623
0.389948
0.389282
0.388623
0.387972
0.38733
0.386696
0.386069
0.385451
0.38484
0.384238
0.383643
0.383056
0.382476
0.381904
0.381339
0.380782
0.380231
0.379686
0.379148
0.378617
0.378091
0.377571
0.377056
0.376547
0.376042
0.375541
0.375045
0.374553
0.374064
0.373578
0.373095
0.372615
0.372137
0.37166
0.371184
0.37071
0.370236
0.444615
0.429327
0.414038
0.412569
0.411793
0.411013
0.410229
0.409442
0.408653
0.407862
0.407071
0.40628
0.40549
0.404703
0.403917
0.403135
0.402356
0.40158
0.400809
0.400042
0.399281
0.398524
0.397773
0.397028
0.396288
0.395556
0.394829
0.39411
0.393398
0.392693
0.391995
0.391305
0.390623
0.389949
0.389282
0.388624
0.387973
0.38733
0.386696
0.38607
0.385451
0.384841
0.384238
0.383643
0.383056
0.382477
0.381905
0.38134
0.380782
0.380231
0.379687
0.379149
0.378617
0.378091
0.377571
0.377056
0.376547
0.376042
0.375542
0.375045
0.374553
0.374064
0.373578
0.373096
0.372615
0.372137
0.37166
0.371185
0.37071
0.370236
0.444615
0.429333
0.414026
0.412554
0.411779
0.411
0.410217
0.409432
0.408645
0.407857
0.407067
0.406278
0.40549
0.404703
0.403918
0.403136
0.402357
0.401582
0.40081
0.400044
0.399282
0.398525
0.397774
0.397029
0.39629
0.395557
0.39483
0.394111
0.393399
0.392694
0.391996
0.391306
0.390624
0.389949
0.389283
0.388624
0.387974
0.387331
0.386697
0.38607
0.385452
0.384841
0.384239
0.383644
0.383057
0.382477
0.381905
0.38134
0.380782
0.380231
0.379687
0.379149
0.378617
0.378091
0.377571
0.377056
0.376547
0.376042
0.375542
0.375045
0.374553
0.374064
0.373579
0.373096
0.372615
0.372137
0.37166
0.371185
0.37071
0.370236
0.444605
0.428931
0.41401
0.41257
0.411806
0.411036
0.410259
0.409476
0.408689
0.407898
0.407106
0.406313
0.40552
0.404729
0.403941
0.403155
0.402373
0.401595
0.400821
0.400053
0.399289
0.398531
0.397779
0.397033
0.396293
0.395559
0.394833
0.394113
0.3934
0.392695
0.391997
0.391307
0.390625
0.38995
0.389284
0.388625
0.387974
0.387332
0.386697
0.386071
0.385452
0.384842
0.384239
0.383644
0.383057
0.382478
0.381905
0.38134
0.380782
0.380231
0.379687
0.379149
0.378617
0.378092
0.377571
0.377057
0.376547
0.376042
0.375542
0.375046
0.374553
0.374064
0.373579
0.373096
0.372615
0.372137
0.37166
0.371185
0.37071
0.370236
0.444615
0.429346
0.414046
0.412573
0.411797
0.411018
0.410235
0.409451
0.408664
0.407875
0.407086
0.406296
0.405507
0.404719
0.403933
0.40315
0.402369
0.401593
0.40082
0.400053
0.39929
0.398532
0.39778
0.397034
0.396294
0.395561
0.394834
0.394114
0.393402
0.392696
0.391998
0.391308
0.390626
0.389951
0.389284
0.388626
0.387975
0.387332
0.386698
0.386071
0.385453
0.384842
0.38424
0.383645
0.383057
0.382478
0.381906
0.381341
0.380783
0.380232
0.379687
0.379149
0.378618
0.378092
0.377572
0.377057
0.376547
0.376042
0.375542
0.375046
0.374553
0.374064
0.373579
0.373096
0.372615
0.372137
0.37166
0.371185
0.37071
0.370236
0.444612
0.429231
0.413998
0.412536
0.411765
0.41099
0.410213
0.409432
0.408648
0.407863
0.407076
0.406289
0.405502
0.404716
0.403931
0.403149
0.402369
0.401593
0.400821
0.400054
0.399291
0.398533
0.397781
0.397035
0.396295
0.395562
0.394835
0.394115
0.393402
0.392697
0.391999
0.391309
0.390626
0.389952
0.389285
0.388626
0.387976
0.387333
0.386698
0.386072
0.385453
0.384843
0.38424
0.383645
0.383058
0.382478
0.381906
0.381341
0.380783
0.380232
0.379687
0.379149
0.378618
0.378092
0.377572
0.377057
0.376547
0.376042
0.375542
0.375046
0.374553
0.374064
0.373579
0.373096
0.372615
0.372137
0.37166
0.371185
0.37071
0.370236
0.444615
0.429348
0.414049
0.412576
0.4118
0.411021
0.410239
0.409454
0.408667
0.407878
0.407089
0.406299
0.405509
0.404721
0.403935
0.403152
0.402371
0.401595
0.400822
0.400054
0.399291
0.398534
0.397782
0.397035
0.396296
0.395562
0.394836
0.394116
0.393403
0.392698
0.392
0.39131
0.390627
0.389952
0.389286
0.388627
0.387976
0.387333
0.386699
0.386072
0.385454
0.384843
0.38424
0.383645
0.383058
0.382478
0.381906
0.381341
0.380783
0.380232
0.379688
0.37915
0.378618
0.378092
0.377572
0.377057
0.376547
0.376042
0.375542
0.375046
0.374553
0.374064
0.373579
0.373096
0.372615
0.372137
0.37166
0.371185
0.37071
0.370236
0.444605
0.428935
0.414021
0.412581
0.411818
0.411048
0.41027
0.409488
0.4087
0.407909
0.407117
0.406323
0.40553
0.404739
0.403949
0.403163
0.402381
0.401602
0.400828
0.400059
0.399295
0.398537
0.397784
0.397038
0.396298
0.395564
0.394837
0.394117
0.393404
0.392699
0.392001
0.391311
0.390628
0.389953
0.389286
0.388628
0.387977
0.387334
0.386699
0.386073
0.385454
0.384843
0.384241
0.383646
0.383058
0.382479
0.381906
0.381341
0.380783
0.380232
0.379688
0.37915
0.378618
0.378092
0.377572
0.377057
0.376547
0.376042
0.375542
0.375046
0.374553
0.374065
0.373579
0.373096
0.372615
0.372137
0.37166
0.371185
0.37071
0.370236
0.444615
0.429347
0.41405
0.412577
0.411801
0.411022
0.410239
0.409454
0.408667
0.407879
0.407089
0.4063
0.40551
0.404723
0.403937
0.403154
0.402374
0.401597
0.400825
0.400057
0.399294
0.398537
0.397784
0.397038
0.396298
0.395565
0.394838
0.394118
0.393406
0.3927
0.392002
0.391312
0.390629
0.389954
0.389287
0.388628
0.387977
0.387335
0.3867
0.386073
0.385455
0.384844
0.384241
0.383646
0.383059
0.382479
0.381907
0.381341
0.380783
0.380232
0.379688
0.37915
0.378618
0.378092
0.377572
0.377057
0.376547
0.376042
0.375542
0.375046
0.374553
0.374065
0.373579
0.373096
0.372615
0.372137
0.37166
0.371185
0.37071
0.370236
0.444612
0.429234
0.414
0.412538
0.411767
0.410992
0.410214
0.409434
0.40865
0.407865
0.407079
0.406292
0.405505
0.404719
0.403935
0.403153
0.402374
0.401598
0.400826
0.400059
0.399296
0.398539
0.397787
0.397041
0.396301
0.395567
0.39484
0.39412
0.393407
0.392702
0.392003
0.391313
0.39063
0.389955
0.389288
0.388629
0.387978
0.387335
0.3867
0.386074
0.385455
0.384844
0.384241
0.383646
0.383059
0.382479
0.381907
0.381342
0.380784
0.380232
0.379688
0.37915
0.378618
0.378092
0.377572
0.377057
0.376547
0.376043
0.375542
0.375046
0.374553
0.374065
0.373579
0.373096
0.372615
0.372137
0.37166
0.371185
0.37071
0.370236
0.444615
0.429345
0.414059
0.412589
0.411814
0.411035
0.410253
0.409467
0.408679
0.407889
0.407098
0.406307
0.405517
0.404728
0.403942
0.403158
0.402378
0.401601
0.400829
0.400061
0.399298
0.39854
0.397788
0.397042
0.396302
0.395569
0.394842
0.394122
0.393409
0.392703
0.392005
0.391314
0.390631
0.389956
0.389289
0.38863
0.387979
0.387336
0.386701
0.386074
0.385455
0.384844
0.384241
0.383646
0.383059
0.382479
0.381907
0.381342
0.380784
0.380232
0.379688
0.37915
0.378618
0.378092
0.377572
0.377057
0.376547
0.376043
0.375542
0.375046
0.374553
0.374065
0.373579
0.373096
0.372615
0.372137
0.37166
0.371185
0.37071
0.370236
0.444603
0.428869
0.414099
0.412668
0.411906
0.411134
0.410352
0.409562
0.408766
0.407967
0.407165
0.406363
0.405563
0.404765
0.403971
0.403181
0.402395
0.401614
0.400839
0.400069
0.399304
0.398545
0.397792
0.397045
0.396304
0.39557
0.394843
0.394123
0.39341
0.392704
0.392005
0.391315
0.390632
0.389957
0.389289
0.38863
0.387979
0.387336
0.386701
0.386074
0.385455
0.384845
0.384242
0.383647
0.383059
0.382479
0.381907
0.381342
0.380784
0.380233
0.379688
0.37915
0.378618
0.378092
0.377572
0.377057
0.376547
0.376043
0.375542
0.375046
0.374553
0.374065
0.373579
0.373096
0.372615
0.372137
0.37166
0.371185
0.37071
0.370236
0.444603
0.42888
0.41415
0.412721
0.41196
0.411186
0.410402
0.409609
0.408809
0.408004
0.407197
0.406391
0.405586
0.404784
0.403986
0.403193
0.402405
0.401622
0.400845
0.400073
0.399307
0.398548
0.397794
0.397047
0.396306
0.395572
0.394844
0.394124
0.39341
0.392704
0.392006
0.391315
0.390632
0.389957
0.38929
0.38863
0.387979
0.387336
0.386701
0.386074
0.385455
0.384845
0.384242
0.383647
0.383059
0.382479
0.381907
0.381342
0.380784
0.380233
0.379688
0.37915
0.378618
0.378092
0.377572
0.377057
0.376547
0.376043
0.375542
0.375046
0.374553
0.374065
0.373579
0.373096
0.372615
0.372137
0.37166
0.371185
0.37071
0.370236
0.444603
0.428884
0.414161
0.412734
0.411972
0.411199
0.410414
0.40962
0.408819
0.408013
0.407206
0.406398
0.405592
0.404789
0.40399
0.403196
0.402408
0.401624
0.400846
0.400075
0.399309
0.398549
0.397795
0.397047
0.396306
0.395572
0.394845
0.394124
0.393411
0.392705
0.392006
0.391315
0.390632
0.389957
0.38929
0.388631
0.387979
0.387336
0.386701
0.386074
0.385456
0.384845
0.384242
0.383647
0.383059
0.382479
0.381907
0.381342
0.380784
0.380233
0.379688
0.37915
0.378618
0.378092
0.377572
0.377057
0.376547
0.376043
0.375542
0.375046
0.374553
0.374065
0.373579
0.373096
0.372615
0.372137
0.37166
0.371185
0.37071
0.370236
0.444603
0.428885
0.414163
0.412736
0.411974
0.411201
0.410416
0.409622
0.408821
0.408015
0.407207
0.406399
0.405593
0.40479
0.403991
0.403197
0.402408
0.401625
0.400847
0.400075
0.399309
0.398549
0.397795
0.397048
0.396307
0.395572
0.394845
0.394124
0.393411
0.392705
0.392006
0.391315
0.390632
0.389957
0.38929
0.388631
0.387979
0.387336
0.386701
0.386074
0.385456
0.384845
0.384242
0.383647
0.383059
0.382479
0.381907
0.381342
0.380784
0.380233
0.379688
0.37915
0.378618
0.378092
0.377572
0.377057
0.376547
0.376043
0.375542
0.375046
0.374553
0.374065
0.373579
0.373096
0.372615
0.372137
0.37166
0.371185
0.37071
0.370236
0.444603
0.428885
0.414163
0.412736
0.411975
0.411201
0.410417
0.409623
0.408821
0.408016
0.407208
0.4064
0.405594
0.404791
0.403992
0.403197
0.402408
0.401625
0.400847
0.400075
0.399309
0.398549
0.397795
0.397048
0.396307
0.395572
0.394845
0.394124
0.393411
0.392705
0.392006
0.391315
0.390632
0.389957
0.38929
0.388631
0.387979
0.387336
0.386701
0.386074
0.385456
0.384845
0.384242
0.383647
0.383059
0.382479
0.381907
0.381342
0.380784
0.380233
0.379688
0.37915
0.378618
0.378092
0.377572
0.377057
0.376547
0.376043
0.375542
0.375046
0.374553
0.374065
0.373579
0.373096
0.372615
0.372137
0.37166
0.371185
0.37071
0.370236
0.444603
0.428885
0.414163
0.412736
0.411975
0.411201
0.410417
0.409623
0.408821
0.408016
0.407208
0.4064
0.405594
0.404791
0.403992
0.403197
0.402408
0.401625
0.400847
0.400075
0.399309
0.398549
0.397795
0.397048
0.396307
0.395572
0.394845
0.394124
0.393411
0.392705
0.392006
0.391315
0.390632
0.389957
0.38929
0.388631
0.387979
0.387336
0.386701
0.386074
0.385456
0.384845
0.384242
0.383647
0.383059
0.382479
0.381907
0.381342
0.380784
0.380233
0.379688
0.37915
0.378618
0.378092
0.377572
0.377057
0.376547
0.376043
0.375542
0.375046
0.374553
0.374065
0.373579
0.373096
0.372615
0.372137
0.37166
0.371185
0.37071
0.370236
0.444603
0.428885
0.414163
0.412736
0.411975
0.411201
0.410417
0.409623
0.408821
0.408016
0.407208
0.4064
0.405594
0.404791
0.403992
0.403197
0.402408
0.401625
0.400847
0.400075
0.399309
0.398549
0.397795
0.397048
0.396307
0.395572
0.394845
0.394124
0.393411
0.392705
0.392006
0.391315
0.390632
0.389957
0.38929
0.388631
0.387979
0.387336
0.386701
0.386074
0.385456
0.384845
0.384242
0.383647
0.383059
0.382479
0.381907
0.381342
0.380784
0.380233
0.379688
0.37915
0.378618
0.378092
0.377572
0.377057
0.376547
0.376043
0.375542
0.375046
0.374553
0.374065
0.373579
0.373096
0.372615
0.372137
0.37166
0.371185
0.37071
0.370236
0.444603
0.428885
0.414163
0.412736
0.411975
0.411201
0.410417
0.409623
0.408821
0.408016
0.407208
0.4064
0.405594
0.404791
0.403992
0.403197
0.402408
0.401625
0.400847
0.400075
0.399309
0.398549
0.397795
0.397048
0.396307
0.395572
0.394845
0.394124
0.393411
0.392705
0.392006
0.391315
0.390632
0.389957
0.38929
0.388631
0.387979
0.387336
0.386701
0.386074
0.385456
0.384845
0.384242
0.383647
0.383059
0.382479
0.381907
0.381342
0.380784
0.380233
0.379688
0.37915
0.378618
0.378092
0.377572
0.377057
0.376547
0.376043
0.375542
0.375046
0.374553
0.374065
0.373579
0.373096
0.372615
0.372137
0.37166
0.371185
0.37071
0.370236
0.444603
0.428885
0.414163
0.412736
0.411975
0.411201
0.410417
0.409623
0.408821
0.408016
0.407208
0.4064
0.405594
0.404791
0.403992
0.403197
0.402408
0.401625
0.400847
0.400075
0.399309
0.398549
0.397795
0.397048
0.396307
0.395572
0.394845
0.394124
0.393411
0.392705
0.392006
0.391315
0.390632
0.389957
0.38929
0.388631
0.387979
0.387336
0.386701
0.386074
0.385456
0.384845
0.384242
0.383647
0.383059
0.382479
0.381907
0.381342
0.380784
0.380233
0.379688
0.37915
0.378618
0.378092
0.377572
0.377057
0.376547
0.376043
0.375542
0.375046
0.374553
0.374065
0.373579
0.373096
0.372615
0.372137
0.37166
0.371185
0.37071
0.370236
0.444603
0.428885
0.414163
0.412736
0.411975
0.411201
0.410417
0.409623
0.408821
0.408016
0.407208
0.4064
0.405594
0.404791
0.403992
0.403197
0.402408
0.401625
0.400847
0.400075
0.399309
0.398549
0.397795
0.397048
0.396307
0.395572
0.394845
0.394124
0.393411
0.392705
0.392006
0.391315
0.390632
0.389957
0.38929
0.388631
0.387979
0.387336
0.386701
0.386074
0.385456
0.384845
0.384242
0.383647
0.383059
0.382479
0.381907
0.381342
0.380784
0.380233
0.379688
0.37915
0.378618
0.378092
0.377572
0.377057
0.376547
0.376043
0.375542
0.375046
0.374553
0.374065
0.373579
0.373096
0.372615
0.372137
0.37166
0.371185
0.37071
0.370236
0.444603
0.428885
0.414163
0.412736
0.411975
0.411201
0.410417
0.409623
0.408821
0.408016
0.407208
0.4064
0.405594
0.404791
0.403992
0.403197
0.402408
0.401625
0.400847
0.400075
0.399309
0.398549
0.397795
0.397048
0.396307
0.395572
0.394845
0.394124
0.393411
0.392705
0.392006
0.391315
0.390632
0.389957
0.38929
0.388631
0.387979
0.387336
0.386701
0.386074
0.385456
0.384845
0.384242
0.383647
0.383059
0.382479
0.381907
0.381342
0.380784
0.380233
0.379688
0.37915
0.378618
0.378092
0.377572
0.377057
0.376547
0.376043
0.375542
0.375046
0.374553
0.374065
0.373579
0.373096
0.372615
0.372137
0.37166
0.371185
0.37071
0.370236
0.444603
0.428885
0.414163
0.412736
0.411975
0.411201
0.410417
0.409623
0.408821
0.408016
0.407208
0.4064
0.405594
0.404791
0.403992
0.403197
0.402408
0.401625
0.400847
0.400075
0.399309
0.398549
0.397795
0.397048
0.396307
0.395572
0.394845
0.394124
0.393411
0.392705
0.392006
0.391315
0.390632
0.389957
0.38929
0.388631
0.387979
0.387336
0.386701
0.386074
0.385456
0.384845
0.384242
0.383647
0.383059
0.382479
0.381907
0.381342
0.380784
0.380233
0.379688
0.37915
0.378618
0.378092
0.377572
0.377057
0.376547
0.376043
0.375542
0.375046
0.374553
0.374065
0.373579
0.373096
0.372615
0.372137
0.37166
0.371185
0.37071
0.370236
0.444603
0.428885
0.414163
0.412736
0.411975
0.411201
0.410417
0.409623
0.408821
0.408016
0.407208
0.4064
0.405594
0.404791
0.403992
0.403197
0.402408
0.401625
0.400847
0.400075
0.399309
0.398549
0.397795
0.397048
0.396307
0.395572
0.394845
0.394124
0.393411
0.392705
0.392006
0.391315
0.390632
0.389957
0.38929
0.388631
0.387979
0.387336
0.386701
0.386074
0.385456
0.384845
0.384242
0.383647
0.383059
0.382479
0.381907
0.381342
0.380784
0.380233
0.379688
0.37915
0.378618
0.378092
0.377572
0.377057
0.376547
0.376043
0.375542
0.375046
0.374553
0.374065
0.373579
0.373096
0.372615
0.372137
0.37166
0.371185
0.37071
0.370236
0.444603
0.428885
0.414163
0.412736
0.411975
0.411201
0.410417
0.409623
0.408821
0.408016
0.407208
0.4064
0.405594
0.404791
0.403992
0.403197
0.402408
0.401625
0.400847
0.400075
0.399309
0.398549
0.397795
0.397048
0.396307
0.395572
0.394845
0.394124
0.393411
0.392705
0.392006
0.391315
0.390632
0.389957
0.38929
0.388631
0.387979
0.387336
0.386701
0.386074
0.385456
0.384845
0.384242
0.383647
0.383059
0.382479
0.381907
0.381342
0.380784
0.380233
0.379688
0.37915
0.378618
0.378092
0.377572
0.377057
0.376547
0.376043
0.375542
0.375046
0.374553
0.374065
0.373579
0.373096
0.372615
0.372137
0.37166
0.371185
0.37071
0.370236
0.444603
0.428885
0.414163
0.412736
0.411975
0.411201
0.410417
0.409623
0.408821
0.408016
0.407208
0.4064
0.405594
0.404791
0.403992
0.403197
0.402408
0.401625
0.400847
0.400075
0.399309
0.398549
0.397795
0.397048
0.396307
0.395572
0.394845
0.394124
0.393411
0.392705
0.392006
0.391315
0.390632
0.389957
0.38929
0.388631
0.387979
0.387336
0.386701
0.386074
0.385456
0.384845
0.384242
0.383647
0.383059
0.382479
0.381907
0.381342
0.380784
0.380233
0.379688
0.37915
0.378618
0.378092
0.377572
0.377057
0.376547
0.376043
0.375542
0.375046
0.374553
0.374065
0.373579
0.373096
0.372615
0.372137
0.37166
0.371185
0.37071
0.370236
0.444603
0.428885
0.414163
0.412736
0.411975
0.411201
0.410417
0.409623
0.408821
0.408016
0.407208
0.4064
0.405594
0.404791
0.403992
0.403197
0.402408
0.401625
0.400847
0.400075
0.399309
0.398549
0.397795
0.397048
0.396307
0.395572
0.394845
0.394124
0.393411
0.392705
0.392006
0.391315
0.390632
0.389957
0.38929
0.388631
0.387979
0.387336
0.386701
0.386074
0.385456
0.384845
0.384242
0.383647
0.383059
0.382479
0.381907
0.381342
0.380784
0.380233
0.379688
0.37915
0.378618
0.378092
0.377572
0.377057
0.376547
0.376043
0.375542
0.375046
0.374553
0.374065
0.373579
0.373096
0.372615
0.372137
0.37166
0.371185
0.37071
0.370236
0.444603
0.428885
0.414163
0.412736
0.411975
0.411201
0.410417
0.409623
0.408821
0.408016
0.407208
0.4064
0.405594
0.404791
0.403992
0.403197
0.402408
0.401625
0.400847
0.400075
0.399309
0.398549
0.397795
0.397048
0.396307
0.395572
0.394845
0.394124
0.393411
0.392705
0.392006
0.391315
0.390632
0.389957
0.38929
0.388631
0.387979
0.387336
0.386701
0.386074
0.385456
0.384845
0.384242
0.383647
0.383059
0.382479
0.381907
0.381342
0.380784
0.380233
0.379688
0.37915
0.378618
0.378092
0.377572
0.377057
0.376547
0.376043
0.375542
0.375046
0.374553
0.374065
0.373579
0.373096
0.372615
0.372137
0.37166
0.371185
0.37071
0.370236
0.444603
0.428885
0.414163
0.412736
0.411975
0.411201
0.410417
0.409623
0.408821
0.408016
0.407208
0.4064
0.405594
0.404791
0.403992
0.403197
0.402408
0.401625
0.400847
0.400075
0.399309
0.398549
0.397795
0.397048
0.396307
0.395572
0.394845
0.394124
0.393411
0.392705
0.392006
0.391315
0.390632
0.389957
0.38929
0.388631
0.387979
0.387336
0.386701
0.386074
0.385456
0.384845
0.384242
0.383647
0.383059
0.382479
0.381907
0.381342
0.380784
0.380233
0.379688
0.37915
0.378618
0.378092
0.377572
0.377057
0.376547
0.376043
0.375542
0.375046
0.374553
0.374065
0.373579
0.373096
0.372615
0.372137
0.37166
0.371185
0.37071
0.370236
0.444603
0.428885
0.414163
0.412736
0.411975
0.411201
0.410417
0.409623
0.408821
0.408016
0.407208
0.4064
0.405594
0.404791
0.403992
0.403197
0.402408
0.401625
0.400847
0.400075
0.399309
0.398549
0.397795
0.397048
0.396307
0.395572
0.394845
0.394124
0.393411
0.392705
0.392006
0.391315
0.390632
0.389957
0.38929
0.388631
0.387979
0.387336
0.386701
0.386074
0.385456
0.384845
0.384242
0.383647
0.383059
0.382479
0.381907
0.381342
0.380784
0.380233
0.379688
0.37915
0.378618
0.378092
0.377572
0.377057
0.376547
0.376043
0.375542
0.375046
0.374553
0.374065
0.373579
0.373096
0.372615
0.372137
0.37166
0.371185
0.37071
0.370236
0.444603
0.428885
0.414163
0.412736
0.411975
0.411201
0.410417
0.409623
0.408821
0.408016
0.407208
0.4064
0.405594
0.404791
0.403992
0.403197
0.402408
0.401625
0.400847
0.400075
0.399309
0.398549
0.397795
0.397048
0.396307
0.395572
0.394845
0.394124
0.393411
0.392705
0.392006
0.391315
0.390632
0.389957
0.38929
0.388631
0.387979
0.387336
0.386701
0.386074
0.385456
0.384845
0.384242
0.383647
0.383059
0.382479
0.381907
0.381342
0.380784
0.380233
0.379688
0.37915
0.378618
0.378092
0.377572
0.377057
0.376547
0.376043
0.375542
0.375046
0.374553
0.374065
0.373579
0.373096
0.372615
0.372137
0.37166
0.371185
0.37071
0.370236
0.444603
0.428885
0.414163
0.412736
0.411975
0.411201
0.410417
0.409623
0.408821
0.408016