/*--------------------------------*- C++ -*----------------------------------*\
  =========                 |
  \\      /  F ield         | OpenFOAM: The Open Source CFD Toolbox
   \\    /   O peration     | Website:  https://openfoam.org
    \\  /    A nd           | Version:  13
     \\/     M anipulation  |
\*---------------------------------------------------------------------------*/
FoamFile
{
    format      ascii;
    class       volScalarField;
    location    "82.5";
    object      rhok;
}
// * * * * * * * * * * * * * * * * * * * * * * * * * * * * * * * * * * * * * //

dimensions      [];

internalField   nonuniform List<scalar> 
315000
(
0.444578
0.427917
0.414136
0.412726
0.411946
0.411132
0.410292
0.409435
0.408567
0.407694
0.406819
0.405946
0.405077
0.404212
0.403353
0.4025
0.401654
0.400815
0.399984
0.39916
0.398344
0.397537
0.396739
0.39595
0.39517
0.394399
0.393639
0.392889
0.392149
0.39142
0.390701
0.389994
0.389297
0.388612
0.387937
0.387274
0.386622
0.385982
0.385352
0.384734
0.384127
0.383531
0.382945
0.38237
0.381806
0.381252
0.380708
0.380174
0.37965
0.379135
0.378628
0.378131
0.377642
0.37716
0.376687
0.37622
0.375761
0.375307
0.37486
0.374419
0.373982
0.37355
0.373123
0.372699
0.372278
0.37186
0.371444
0.37103
0.370617
0.370205
0.444596
0.428589
0.414001
0.412576
0.411803
0.411005
0.410186
0.40935
0.408501
0.407643
0.406781
0.405918
0.405055
0.404195
0.403339
0.402488
0.401643
0.400805
0.399974
0.39915
0.398335
0.397527
0.396729
0.395939
0.395159
0.394389
0.393628
0.392878
0.392138
0.391409
0.39069
0.389982
0.389286
0.3886
0.387926
0.387263
0.386611
0.385971
0.385341
0.384723
0.384116
0.38352
0.382935
0.38236
0.381796
0.381242
0.380699
0.380165
0.379641
0.379126
0.37862
0.378123
0.377634
0.377153
0.37668
0.376214
0.375755
0.375302
0.374855
0.374414
0.373978
0.373546
0.373119
0.372696
0.372275
0.371858
0.371442
0.371029
0.370617
0.370205
0.444585
0.428184
0.414058
0.41265
0.411873
0.411064
0.410231
0.409381
0.408521
0.407655
0.406786
0.405918
0.405052
0.40419
0.403333
0.402482
0.401636
0.400798
0.399966
0.399143
0.398327
0.39752
0.396721
0.395932
0.395151
0.394381
0.39362
0.39287
0.39213
0.3914
0.390682
0.389974
0.389277
0.388592
0.387918
0.387254
0.386603
0.385962
0.385333
0.384715
0.384108
0.383512
0.382927
0.382352
0.381788
0.381235
0.380691
0.380158
0.379634
0.379119
0.378614
0.378117
0.377628
0.377148
0.376675
0.376209
0.37575
0.375298
0.374851
0.37441
0.373974
0.373543
0.373116
0.372693
0.372273
0.371856
0.371441
0.371028
0.370616
0.370205
0.44454
0.426453
0.414768
0.413123
0.412197
0.411274
0.41036
0.409456
0.40856
0.407672
0.40679
0.405915
0.405046
0.404183
0.403325
0.402474
0.401629
0.400791
0.39996
0.399137
0.398321
0.397514
0.396716
0.395926
0.395146
0.394375
0.393615
0.392864
0.392124
0.391395
0.390676
0.389968
0.389271
0.388586
0.387911
0.387248
0.386597
0.385956
0.385327
0.384709
0.384102
0.383506
0.382921
0.382347
0.381783
0.38123
0.380686
0.380153
0.379629
0.379114
0.378609
0.378112
0.377624
0.377143
0.376671
0.376205
0.375747
0.375294
0.374848
0.374408
0.373972
0.373541
0.373114
0.372692
0.372272
0.371855
0.37144
0.371027
0.370616
0.370205
0.444479
0.422873
0.41653
0.414232
0.412647
0.411425
0.410385
0.409435
0.408528
0.407643
0.406769
0.4059
0.405036
0.404177
0.403322
0.402472
0.401627
0.400789
0.399958
0.399135
0.398319
0.397512
0.396713
0.395923
0.395143
0.394372
0.393611
0.392861
0.392121
0.391391
0.390672
0.389964
0.389268
0.388582
0.387908
0.387245
0.386593
0.385952
0.385323
0.384705
0.384098
0.383502
0.382917
0.382343
0.381779
0.381226
0.380683
0.380149
0.379626
0.379111
0.378606
0.378109
0.377621
0.377141
0.376668
0.376203
0.375744
0.375292
0.374846
0.374406
0.37397
0.37354
0.373113
0.37269
0.372271
0.371854
0.37144
0.371027
0.370615
0.370205
0.444585
0.428167
0.414079
0.41267
0.411881
0.411062
0.410223
0.40937
0.408508
0.407642
0.406774
0.405907
0.405042
0.404181
0.403325
0.402474
0.401628
0.40079
0.399958
0.399134
0.398319
0.397511
0.396712
0.395922
0.395142
0.394371
0.39361
0.392859
0.392119
0.391389
0.39067
0.389962
0.389266
0.38858
0.387906
0.387242
0.386591
0.38595
0.385321
0.384703
0.384096
0.3835
0.382915
0.382341
0.381777
0.381224
0.380681
0.380147
0.379624
0.379109
0.378604
0.378107
0.377619
0.377139
0.376666
0.376201
0.375743
0.375291
0.374845
0.374404
0.373969
0.373539
0.373112
0.37269
0.37227
0.371854
0.371439
0.371027
0.370615
0.370205
0.444521
0.425678
0.415443
0.413303
0.412251
0.411291
0.410364
0.409453
0.408553
0.407663
0.406781
0.405906
0.405038
0.404176
0.40332
0.40247
0.401626
0.400788
0.399957
0.399134
0.398318
0.39751
0.396712
0.395922
0.395141
0.39437
0.393609
0.392859
0.392118
0.391389
0.39067
0.389962
0.389265
0.388579
0.387905
0.387242
0.38659
0.385949
0.38532
0.384702
0.384095
0.383499
0.382914
0.38234
0.381776
0.381223
0.38068
0.380146
0.379623
0.379108
0.378603
0.378107
0.377618
0.377138
0.376666
0.3762
0.375742
0.37529
0.374844
0.374404
0.373969
0.373538
0.373112
0.372689
0.37227
0.371853
0.371439
0.371026
0.370615
0.370205
0.444577
0.427867
0.41414
0.412743
0.411957
0.41113
0.410278
0.409412
0.408538
0.407662
0.406787
0.405915
0.405046
0.404183
0.403326
0.402474
0.401629
0.40079
0.399959
0.399135
0.398319
0.397511
0.396712
0.395922
0.395142
0.394371
0.39361
0.392859
0.392119
0.391389
0.39067
0.389962
0.389265
0.388579
0.387905
0.387242
0.38659
0.385949
0.38532
0.384702
0.384095
0.383499
0.382914
0.38234
0.381776
0.381223
0.380679
0.380146
0.379622
0.379108
0.378603
0.378106
0.377618
0.377138
0.376665
0.3762
0.375742
0.37529
0.374844
0.374404
0.373969
0.373538
0.373112
0.372689
0.37227
0.371853
0.371439
0.371026
0.370615
0.370205
0.444541
0.426465
0.414746
0.413113
0.412201
0.411282
0.410369
0.409464
0.408566
0.407676
0.406792
0.405916
0.405046
0.404182
0.403325
0.402473
0.401628
0.40079
0.399959
0.399135
0.398319
0.397512
0.396713
0.395923
0.395142
0.394371
0.39361
0.39286
0.392119
0.39139
0.390671
0.389963
0.389266
0.38858
0.387905
0.387242
0.38659
0.38595
0.38532
0.384702
0.384095
0.383499
0.382914
0.38234
0.381776
0.381223
0.38068
0.380146
0.379623
0.379108
0.378603
0.378106
0.377618
0.377138
0.376666
0.3762
0.375742
0.37529
0.374844
0.374404
0.373969
0.373538
0.373112
0.372689
0.37227
0.371853
0.371439
0.371026
0.370615
0.370205
0.444595
0.428571
0.414009
0.412591
0.411814
0.411007
0.410179
0.409336
0.408482
0.407623
0.40676
0.405897
0.405036
0.404177
0.403322
0.402472
0.401628
0.40079
0.399959
0.399135
0.39832
0.397512
0.396713
0.395923
0.395143
0.394372
0.393611
0.39286
0.39212
0.39139
0.390671
0.389963
0.389266
0.38858
0.387906
0.387243
0.386591
0.38595
0.385321
0.384703
0.384096
0.3835
0.382915
0.38234
0.381777
0.381223
0.38068
0.380147
0.379623
0.379109
0.378603
0.378107
0.377619
0.377138
0.376666
0.376201
0.375742
0.37529
0.374844
0.374404
0.373969
0.373538
0.373112
0.372689
0.37227
0.371853
0.371439
0.371026
0.370615
0.370205
0.444556
0.427067
0.414411
0.412936
0.412097
0.411225
0.410335
0.409443
0.408553
0.407667
0.406787
0.405913
0.405044
0.404181
0.403324
0.402472
0.401628
0.40079
0.399959
0.399135
0.398319
0.397512
0.396713
0.395924
0.395143
0.394372
0.393611
0.392861
0.39212
0.391391
0.390672
0.389964
0.389267
0.388581
0.387907
0.387243
0.386591
0.385951
0.385321
0.384703
0.384096
0.3835
0.382915
0.382341
0.381777
0.381224
0.380681
0.380147
0.379624
0.379109
0.378604
0.378107
0.377619
0.377139
0.376666
0.376201
0.375743
0.375291
0.374845
0.374404
0.373969
0.373538
0.373112
0.372689
0.37227
0.371853
0.371439
0.371026
0.370615
0.370205
0.444494
0.4245
0.416991
0.41319
0.412061
0.41124
0.410349
0.409445
0.408547
0.407659
0.406779
0.405906
0.405039
0.404178
0.403322
0.402472
0.401628
0.40079
0.399959
0.399136
0.39832
0.397513
0.396714
0.395924
0.395144
0.394373
0.393612
0.392861
0.392121
0.391391
0.390672
0.389964
0.389267
0.388582
0.387907
0.387244
0.386592
0.385951
0.385322
0.384704
0.384097
0.383501
0.382916
0.382342
0.381778
0.381224
0.380681
0.380148
0.379624
0.37911
0.378604
0.378108
0.377619
0.377139
0.376667
0.376201
0.375743
0.375291
0.374845
0.374404
0.373969
0.373539
0.373112
0.37269
0.37227
0.371854
0.371439
0.371027
0.370615
0.370205
0.444585
0.428174
0.414065
0.412654
0.411875
0.411065
0.410231
0.409381
0.40852
0.407653
0.406784
0.405916
0.405049
0.404187
0.40333
0.402478
0.401632
0.400793
0.399962
0.399138
0.398322
0.397514
0.396715
0.395925
0.395144
0.394374
0.393613
0.392862
0.392122
0.391392
0.390673
0.389965
0.389268
0.388582
0.387908
0.387245
0.386593
0.385952
0.385323
0.384705
0.384098
0.383502
0.382916
0.382342
0.381778
0.381225
0.380682
0.380148
0.379625
0.37911
0.378605
0.378108
0.37762
0.37714
0.376667
0.376202
0.375743
0.375291
0.374845
0.374405
0.373969
0.373539
0.373112
0.37269
0.37227
0.371854
0.371439
0.371027
0.370615
0.370205
0.444585
0.428182
0.41407
0.41264
0.41185
0.41104
0.410211
0.409366
0.40851
0.407647
0.40678
0.405914
0.405049
0.404187
0.40333
0.402478
0.401633
0.400794
0.399962
0.399138
0.398322
0.397515
0.396716
0.395926
0.395145
0.394374
0.393613
0.392863
0.392122
0.391392
0.390674
0.389966
0.389269
0.388583
0.387908
0.387245
0.386593
0.385953
0.385323
0.384705
0.384098
0.383502
0.382917
0.382343
0.381779
0.381225
0.380682
0.380149
0.379625
0.37911
0.378605
0.378108
0.37762
0.37714
0.376667
0.376202
0.375743
0.375291
0.374845
0.374405
0.37397
0.373539
0.373113
0.37269
0.37227
0.371854
0.371439
0.371027
0.370615
0.370205
0.444481
0.422938
0.416539
0.414227
0.412636
0.411411
0.41037
0.409421
0.408517
0.407634
0.406762
0.405895
0.405033
0.404175
0.403321
0.402472
0.401629
0.400792
0.399961
0.399138
0.398322
0.397515
0.396716
0.395926
0.395146
0.394375
0.393614
0.392863
0.392123
0.391393
0.390674
0.389966
0.389269
0.388583
0.387909
0.387246
0.386594
0.385953
0.385324
0.384705
0.384098
0.383502
0.382917
0.382343
0.381779
0.381226
0.380682
0.380149
0.379625
0.379111
0.378605
0.378109
0.37762
0.37714
0.376668
0.376202
0.375744
0.375292
0.374846
0.374405
0.37397
0.373539
0.373113
0.37269
0.372271
0.371854
0.371439
0.371027
0.370615
0.370205
0.444557
0.427071
0.414425
0.412955
0.412112
0.411236
0.410346
0.409453
0.408562
0.407675
0.406794
0.405918
0.405049
0.404185
0.403328
0.402476
0.401631
0.400793
0.399962
0.399138
0.398323
0.397515
0.396717
0.395927
0.395146
0.394375
0.393614
0.392864
0.392123
0.391394
0.390675
0.389967
0.38927
0.388584
0.387909
0.387246
0.386594
0.385953
0.385324
0.384706
0.384099
0.383503
0.382918
0.382343
0.381779
0.381226
0.380683
0.380149
0.379625
0.379111
0.378606
0.378109
0.377621
0.37714
0.376668
0.376202
0.375744
0.375292
0.374846
0.374405
0.37397
0.373539
0.373113
0.37269
0.372271
0.371854
0.371439
0.371027
0.370615
0.370205
0.444585
0.428168
0.414078
0.412677
0.411901
0.411089
0.410251
0.409396
0.40853
0.40766
0.406789
0.405918
0.405051
0.404189
0.403331
0.40248
0.401634
0.400796
0.399964
0.39914
0.398325
0.397517
0.396718
0.395928
0.395147
0.394376
0.393615
0.392865
0.392124
0.391394
0.390675
0.389967
0.38927
0.388584
0.38791
0.387246
0.386594
0.385954
0.385324
0.384706
0.384099
0.383503
0.382918
0.382343
0.38178
0.381226
0.380683
0.380149
0.379626
0.379111
0.378606
0.378109
0.377621
0.37714
0.376668
0.376202
0.375744
0.375292
0.374846
0.374405
0.37397
0.373539
0.373113
0.37269
0.372271
0.371854
0.371439
0.371027
0.370615
0.370205
0.444557
0.42709
0.414409
0.412936
0.412101
0.411232
0.410349
0.40946
0.408571
0.407685
0.406803
0.405927
0.405057
0.404192
0.403334
0.402482
0.401636
0.400797
0.399966
0.399142
0.398326
0.397518
0.396719
0.395929
0.395149
0.394378
0.393617
0.392866
0.392125
0.391395
0.390676
0.389968
0.389271
0.388585
0.38791
0.387247
0.386595
0.385954
0.385325
0.384706
0.384099
0.383503
0.382918
0.382344
0.38178
0.381226
0.380683
0.38015
0.379626
0.379111
0.378606
0.378109
0.377621
0.37714
0.376668
0.376202
0.375744
0.375292
0.374846
0.374405
0.37397
0.373539
0.373113
0.37269
0.372271
0.371854
0.371439
0.371027
0.370615
0.370205
0.444595
0.428577
0.414034
0.412593
0.411803
0.410997
0.410174
0.409336
0.408488
0.407632
0.406771
0.405909
0.405048
0.404189
0.403334
0.402484
0.401639
0.4008
0.399969
0.399145
0.398329
0.397521
0.396721
0.395931
0.39515
0.394379
0.393618
0.392867
0.392126
0.391396
0.390677
0.389969
0.389272
0.388586
0.387911
0.387247
0.386595
0.385954
0.385325
0.384707
0.3841
0.383503
0.382918
0.382344
0.38178
0.381226
0.380683
0.38015
0.379626
0.379111
0.378606
0.378109
0.377621
0.377141
0.376668
0.376202
0.375744
0.375292
0.374846
0.374405
0.37397
0.373539
0.373113
0.37269
0.372271
0.371854
0.371439
0.371027
0.370615
0.370205
0.444476
0.422789
0.416486
0.414201
0.412628
0.411417
0.410387
0.409444
0.408543
0.407661
0.406788
0.40592
0.405055
0.404195
0.403339
0.402487
0.401642
0.400803
0.399972
0.399147
0.398331
0.397523
0.396723
0.395933
0.395152
0.394381
0.393619
0.392868
0.392127
0.391397
0.390678
0.389969
0.389272
0.388586
0.387911
0.387248
0.386596
0.385955
0.385325
0.384707
0.3841
0.383504
0.382918
0.382344
0.38178
0.381227
0.380683
0.38015
0.379626
0.379111
0.378606
0.378109
0.377621
0.377141
0.376668
0.376202
0.375744
0.375292
0.374846
0.374405
0.37397
0.373539
0.373113
0.37269
0.372271
0.371854
0.371439
0.371027
0.370615
0.370205
0.444596
0.428584
0.414
0.412569
0.411788
0.410985
0.410165
0.409331
0.408485
0.407632
0.406774
0.405914
0.405053
0.404195
0.40334
0.402489
0.401644
0.400805
0.399973
0.399149
0.398332
0.397524
0.396725
0.395934
0.395153
0.394382
0.39362
0.392869
0.392128
0.391398
0.390678
0.38997
0.389273
0.388587
0.387912
0.387248
0.386596
0.385955
0.385325
0.384707
0.3841
0.383504
0.382918
0.382344
0.38178
0.381227
0.380683
0.38015
0.379626
0.379111
0.378606
0.378109
0.377621
0.377141
0.376668
0.376202
0.375744
0.375292
0.374846
0.374405
0.37397
0.373539
0.373113
0.37269
0.372271
0.371854
0.371439
0.371027
0.370615
0.370205
0.444596
0.428597
0.413963
0.412531
0.411759
0.410966
0.410153
0.409324
0.408482
0.407631
0.406774
0.405914
0.405054
0.404196
0.403341
0.40249
0.401645
0.400806
0.399974
0.39915
0.398333
0.397525
0.396725
0.395935
0.395154
0.394382
0.393621
0.392869
0.392128
0.391398
0.390679
0.38997
0.389273
0.388587
0.387912
0.387248
0.386596
0.385955
0.385326
0.384707
0.3841
0.383504
0.382919
0.382344
0.38178
0.381227
0.380683
0.38015
0.379626
0.379111
0.378606
0.378109
0.377621
0.377141
0.376668
0.376202
0.375744
0.375292
0.374846
0.374405
0.37397
0.373539
0.373113
0.37269
0.372271
0.371854
0.371439
0.371027
0.370615
0.370205
0.444596
0.428597
0.413963
0.412531
0.411759
0.410966
0.410153
0.409324
0.408482
0.407631
0.406774
0.405915
0.405055
0.404196
0.403341
0.402491
0.401646
0.400807
0.399975
0.39915
0.398334
0.397525
0.396726
0.395935
0.395154
0.394383
0.393621
0.39287
0.392129
0.391398
0.390679
0.38997
0.389273
0.388587
0.387912
0.387248
0.386596
0.385955
0.385326
0.384707
0.3841
0.383504
0.382919
0.382344
0.38178
0.381227
0.380683
0.38015
0.379626
0.379111
0.378606
0.378109
0.377621
0.377141
0.376668
0.376202
0.375744
0.375292
0.374846
0.374405
0.37397
0.373539
0.373113
0.37269
0.372271
0.371854
0.371439
0.371027
0.370615
0.370205
0.444596
0.428598
0.413964
0.412532
0.411759
0.410966
0.410153
0.409324
0.408483
0.407632
0.406775
0.405915
0.405055
0.404197
0.403341
0.402491
0.401646
0.400807
0.399975
0.39915
0.398334
0.397526
0.396726
0.395935
0.395154
0.394383
0.393621
0.39287
0.392129
0.391398
0.390679
0.389971
0.389273
0.388587
0.387912
0.387248
0.386596
0.385955
0.385326
0.384707
0.3841
0.383504
0.382919
0.382344
0.38178
0.381227
0.380683
0.38015
0.379626
0.379111
0.378606
0.378109
0.377621
0.377141
0.376668
0.376202
0.375744
0.375292
0.374846
0.374405
0.37397
0.373539
0.373113
0.37269
0.372271
0.371854
0.371439
0.371027
0.370615
0.370205
0.444596
0.428598
0.413964
0.412532
0.411759
0.410966
0.410153
0.409324
0.408483
0.407632
0.406775
0.405915
0.405055
0.404197
0.403342
0.402491
0.401646
0.400807
0.399975
0.399151
0.398334
0.397526
0.396726
0.395935
0.395154
0.394383
0.393621
0.39287
0.392129
0.391399
0.390679
0.389971
0.389273
0.388587
0.387912
0.387248
0.386596
0.385955
0.385326
0.384707
0.3841
0.383504
0.382919
0.382344
0.38178
0.381227
0.380683
0.38015
0.379626
0.379111
0.378606
0.378109
0.377621
0.37714
0.376668
0.376202
0.375744
0.375292
0.374846
0.374405
0.37397
0.373539
0.373113
0.37269
0.372271
0.371854
0.371439
0.371027
0.370615
0.370205
0.444596
0.428598
0.413964
0.412532
0.411759
0.410966
0.410153
0.409324
0.408483
0.407632
0.406775
0.405915
0.405055
0.404197
0.403342
0.402491
0.401646
0.400807
0.399975
0.399151
0.398334
0.397526
0.396726
0.395935
0.395154
0.394383
0.393621
0.39287
0.392129
0.391399
0.390679
0.389971
0.389273
0.388587
0.387912
0.387248
0.386596
0.385955
0.385326
0.384707
0.3841
0.383504
0.382919
0.382344
0.38178
0.381227
0.380683
0.38015
0.379626
0.379111
0.378606
0.378109
0.377621
0.37714
0.376668
0.376202
0.375744
0.375292
0.374846
0.374405
0.37397
0.373539
0.373113
0.37269
0.372271
0.371854
0.371439
0.371027
0.370615
0.370205
0.444596
0.428598
0.413964
0.412532
0.411759
0.410966
0.410153
0.409324
0.408483
0.407632
0.406775
0.405915
0.405055
0.404197
0.403342
0.402491
0.401646
0.400807
0.399975
0.399151
0.398334
0.397526
0.396726
0.395935
0.395154
0.394383
0.393621
0.39287
0.392129
0.391399
0.390679
0.389971
0.389273
0.388587
0.387912
0.387248
0.386596
0.385955
0.385326
0.384707
0.3841
0.383504
0.382919
0.382344
0.38178
0.381227
0.380683
0.38015
0.379626
0.379111
0.378606
0.378109
0.377621
0.37714
0.376668
0.376202
0.375744
0.375292
0.374846
0.374405
0.37397
0.373539
0.373113
0.37269
0.372271
0.371854
0.371439
0.371027
0.370615
0.370205
0.444596
0.428598
0.413964
0.412532
0.411759
0.410966
0.410153
0.409324
0.408483
0.407632
0.406775
0.405915
0.405055
0.404197
0.403342
0.402491
0.401646
0.400807
0.399975
0.399151
0.398334
0.397526
0.396726
0.395935
0.395154
0.394383
0.393621
0.39287
0.392129
0.391399
0.390679
0.389971
0.389273
0.388587
0.387912
0.387248
0.386596
0.385955
0.385326
0.384707
0.3841
0.383504
0.382919
0.382344
0.38178
0.381227
0.380683
0.38015
0.379626
0.379111
0.378606
0.378109
0.377621
0.37714
0.376668
0.376202
0.375744
0.375292
0.374846
0.374405
0.37397
0.373539
0.373113
0.37269
0.372271
0.371854
0.371439
0.371027
0.370615
0.370205
0.444596
0.428598
0.413964
0.412532
0.411759
0.410966
0.410153
0.409324
0.408483
0.407632
0.406775
0.405915
0.405055
0.404197
0.403342
0.402491
0.401646
0.400807
0.399975
0.399151
0.398334
0.397526
0.396726
0.395935
0.395154
0.394383
0.393621
0.39287
0.392129
0.391399
0.390679
0.389971
0.389273
0.388587
0.387912
0.387248
0.386596
0.385955
0.385326
0.384707
0.3841
0.383504
0.382919
0.382344
0.38178
0.381227
0.380683
0.38015
0.379626
0.379111
0.378606
0.378109
0.377621
0.37714
0.376668
0.376202
0.375744
0.375292
0.374846
0.374405
0.37397
0.373539
0.373113
0.37269
0.372271
0.371854
0.371439
0.371027
0.370615
0.370205
0.444596
0.428598
0.413964
0.412532
0.411759
0.410966
0.410153
0.409324
0.408483
0.407632
0.406775
0.405915
0.405055
0.404197
0.403342
0.402491
0.401646
0.400807
0.399975
0.399151
0.398334
0.397526
0.396726
0.395935
0.395154
0.394383
0.393621
0.39287
0.392129
0.391399
0.390679
0.389971
0.389273
0.388587
0.387912
0.387248
0.386596
0.385955
0.385326
0.384707
0.3841
0.383504
0.382919
0.382344
0.38178
0.381227
0.380683
0.38015
0.379626
0.379111
0.378606
0.378109
0.377621
0.37714
0.376668
0.376202
0.375744
0.375292
0.374846
0.374405
0.37397
0.373539
0.373113
0.37269
0.372271
0.371854
0.371439
0.371027
0.370615
0.370205
0.444596
0.428598
0.413964
0.412532
0.411759
0.410966
0.410153
0.409324
0.408483
0.407632
0.406775
0.405915
0.405055
0.404197
0.403342
0.402491
0.401646
0.400807
0.399975
0.399151
0.398334
0.397526
0.396726
0.395935
0.395154
0.394383
0.393621
0.39287
0.392129
0.391399
0.390679
0.389971
0.389273
0.388587
0.387912
0.387248
0.386596
0.385955
0.385326
0.384707
0.3841
0.383504
0.382919
0.382344
0.38178
0.381227
0.380683
0.38015
0.379626
0.379111
0.378606
0.378109
0.377621
0.37714
0.376668
0.376202
0.375744
0.375292
0.374846
0.374405
0.37397
0.373539
0.373113
0.37269
0.372271
0.371854
0.371439
0.371027
0.370615
0.370205
0.444596
0.428598
0.413964
0.412532
0.411759
0.410966
0.410153
0.409324
0.408483
0.407632
0.406775
0.405915
0.405055
0.404197
0.403342
0.402491
0.401646
0.400807
0.399975
0.399151
0.398334
0.397526
0.396726
0.395935
0.395154
0.394383
0.393621
0.39287
0.392129
0.391399
0.390679
0.389971
0.389273
0.388587
0.387912
0.387248
0.386596
0.385955
0.385326
0.384707
0.3841
0.383504
0.382919
0.382344
0.38178
0.381227
0.380683
0.38015
0.379626
0.379111
0.378606
0.378109
0.377621
0.37714
0.376668
0.376202
0.375744
0.375292
0.374846
0.374405
0.37397
0.373539
0.373113
0.37269
0.372271
0.371854
0.371439
0.371027
0.370615
0.370205
0.444596
0.428598
0.413964
0.412532
0.411759
0.410966
0.410153
0.409324
0.408483
0.407632
0.406775
0.405915
0.405055
0.404197
0.403342
0.402491
0.401646
0.400807
0.399975
0.399151
0.398334
0.397526
0.396726
0.395935
0.395154
0.394383
0.393621
0.39287
0.392129
0.391399
0.390679
0.389971
0.389273
0.388587
0.387912
0.387248
0.386596
0.385955
0.385326
0.384707
0.3841
0.383504
0.382919
0.382344
0.38178
0.381227
0.380683
0.38015
0.379626
0.379111
0.378606
0.378109
0.377621
0.37714
0.376668
0.376202
0.375744
0.375292
0.374846
0.374405
0.37397
0.373539
0.373113
0.37269
0.372271
0.371854
0.371439
0.371027
0.370615
0.370205
0.444596
0.428598
0.413964
0.412532
0.411759
0.410966
0.410153
0.409324
0.408483
0.407632
0.406775
0.405915
0.405055
0.404197
0.403342
0.402491
0.401646
0.400807
0.399975
0.399151
0.398334
0.397526
0.396726
0.395935
0.395154
0.394383
0.393621
0.39287
0.392129
0.391399
0.390679
0.389971
0.389273
0.388587
0.387912
0.387248
0.386596
0.385955
0.385326
0.384707
0.3841
0.383504
0.382919
0.382344
0.38178
0.381227
0.380683
0.38015
0.379626
0.379111
0.378606
0.378109
0.377621
0.37714
0.376668
0.376202
0.375744
0.375292
0.374846
0.374405
0.37397
0.373539
0.373113
0.37269
0.372271
0.371854
0.371439
0.371027
0.370615
0.370205
0.444596
0.428598
0.413964
0.412532
0.411759
0.410966
0.410153
0.409324
0.408483
0.407632
0.406775
0.405915
0.405055
0.404197
0.403342
0.402491
0.401646
0.400807
0.399975
0.399151
0.398334
0.397526
0.396726
0.395935
0.395154
0.394383
0.393621
0.39287
0.392129
0.391399
0.390679
0.389971
0.389273
0.388587
0.387912
0.387248
0.386596
0.385955
0.385326
0.384707
0.3841
0.383504
0.382919
0.382344
0.38178
0.381227
0.380683
0.38015
0.379626
0.379111
0.378606
0.378109
0.377621
0.37714
0.376668
0.376202
0.375744
0.375292
0.374846
0.374405
0.37397
0.373539
0.373113
0.37269
0.372271
0.371854
0.371439
0.371027
0.370615
0.370205
0.444596
0.428598
0.413964
0.412532
0.411759
0.410966
0.410153
0.409324
0.408483
0.407632
0.406775
0.405915
0.405055
0.404197
0.403342
0.402491
0.401646
0.400807
0.399975
0.399151
0.398334
0.397526
0.396726
0.395935
0.395154
0.394383
0.393621
0.39287
0.392129
0.391399
0.390679
0.389971
0.389273
0.388587
0.387912
0.387248
0.386596
0.385955
0.385326
0.384707
0.3841
0.383504
0.382919
0.382344
0.38178
0.381227
0.380683
0.38015
0.379626
0.379111
0.378606
0.378109
0.377621
0.37714
0.376668
0.376202
0.375744
0.375292
0.374846
0.374405
0.37397
0.373539
0.373113
0.37269
0.372271
0.371854
0.371439
0.371027
0.370615
0.370205
0.444596
0.428598
0.413964
0.412532
0.411759
0.410966
0.410153
0.409324
0.408483
0.407632
0.406775
0.405915
0.405055
0.404197
0.403342
0.402491
0.401646
0.400807
0.399975
0.399151
0.398334
0.397526
0.396726
0.395935
0.395154
0.394383
0.393621
0.39287
0.392129
0.391399
0.390679
0.389971
0.389273
0.388587
0.387912
0.387248
0.386596
0.385955
0.385326
0.384707
0.3841
0.383504
0.382919
0.382344
0.38178
0.381227
0.380683
0.38015
0.379626
0.379111
0.378606
0.378109
0.377621
0.37714
0.376668
0.376202
0.375744
0.375292
0.374846
0.374405
0.37397
0.373539
0.373113
0.37269
0.372271
0.371854
0.371439
0.371027
0.370615
0.370205
0.444596
0.428598
0.413964
0.412532
0.411759
0.410966
0.410153
0.409324
0.408483
0.407632
0.406775
0.405915
0.405055
0.404197
0.403342
0.402491
0.401646
0.400807
0.399975
0.399151
0.398334
0.397526
0.396726
0.395935
0.395154
0.394383
0.393621
0.39287
0.392129
0.391399
0.390679
0.389971
0.389273
0.388587
0.387912
0.387248
0.386596
0.385955
0.385326
0.384707
0.3841
0.383504
0.382919
0.382344
0.38178
0.381227
0.380683
0.38015
0.379626
0.379111
0.378606
0.378109
0.377621
0.37714
0.376668
0.376202
0.375744
0.375292
0.374846
0.374405
0.37397
0.373539
0.373113
0.37269
0.372271
0.371854
0.371439
0.371027
0.370615
0.370205
0.444596
0.428598
0.413964
0.412532
0.411759
0.410966
0.410153
0.409324
0.408483
0.407632
0.406775
0.405915
0.405055
0.404197
0.403342
0.402491
0.401646
0.400807
0.399975
0.399151
0.398334
0.397526
0.396726
0.395935
0.395154
0.394383
0.393621
0.39287
0.392129
0.391399
0.390679
0.389971
0.389273
0.388587
0.387912
0.387248
0.386596
0.385955
0.385326
0.384707
0.3841
0.383504
0.382919
0.382344
0.38178
0.381227
0.380683
0.38015
0.379626
0.379111
0.378606
0.378109
0.377621
0.37714
0.376668
0.376202
0.375744
0.375292
0.374846
0.374405
0.37397
0.373539
0.373113
0.37269
0.372271
0.371854
0.371439
0.371027
0.370615
0.370205
0.444596
0.428598
0.413964
0.412532
0.411759
0.410966
0.410153
0.409324
0.408483
0.407632
0.406775
0.405915
0.405055
0.404197
0.403342
0.402491
0.401646
0.400807
0.399975
0.399151
0.398334
0.397526
0.396726
0.395935
0.395154
0.394383
0.393621
0.39287
0.392129
0.391399
0.390679
0.389971
0.389273
0.388587
0.387912
0.387248
0.386596
0.385955
0.385326
0.384707
0.3841
0.383504
0.382919
0.382344
0.38178
0.381227
0.380683
0.38015
0.379626
0.379111
0.378606
0.378109
0.377621
0.37714
0.376668
0.376202
0.375744
0.375292
0.374846
0.374405
0.37397
0.373539
0.373113
0.37269
0.372271
0.371854
0.371439
0.371027
0.370615
0.370205
0.444596
0.428598
0.413964
0.412532
0.411759
0.410966
0.410153
0.409324
0.408483
0.407632
0.406775
0.405915
0.405055
0.404197
0.403342
0.402491
0.401646
0.400807
0.399975
0.399151
0.398334
0.397526
0.396726
0.395935
0.395154
0.394383
0.393621
0.39287
0.392129
0.391399
0.390679
0.389971
0.389273
0.388587
0.387912
0.387248
0.386596
0.385955
0.385326
0.384707
0.3841
0.383504
0.382919
0.382344
0.38178
0.381227
0.380683
0.38015
0.379626
0.379111
0.378606
0.378109
0.377621
0.37714
0.376668
0.376202
0.375744
0.375292
0.374846
0.374405
0.37397
0.373539
0.373113
0.37269
0.372271
0.371854
0.371439
0.371027
0.370615
0.370205
0.444596
0.428598
0.413964
0.412532
0.411759
0.410966
0.410153
0.409324
0.408483
0.407632
0.406775
0.405915
0.405055
0.404197
0.403342
0.402491
0.401646
0.400807
0.399975
0.399151
0.398334
0.397526
0.396726
0.395935
0.395154
0.394383
0.393621
0.39287
0.392129
0.391399
0.390679
0.389971
0.389273
0.388587
0.387912
0.387248
0.386596
0.385955
0.385326
0.384707
0.3841
0.383504
0.382919
0.382344
0.38178
0.381227
0.380683
0.38015
0.379626
0.379111
0.378606
0.378109
0.377621
0.37714
0.376668
0.376202
0.375744
0.375292
0.374846
0.374405
0.37397
0.373539
0.373113
0.37269
0.372271
0.371854
0.371439
0.371027
0.370615
0.370205
0.444596
0.428598
0.413964
0.412532
0.411759
0.410966
0.410153
0.409324
0.408483
0.407632
0.406775
0.405915
0.405055
0.404197
0.403342
0.402491
0.401646
0.400807
0.399975
0.399151
0.398334
0.397526
0.396726
0.395935
0.395154
0.394383
0.393621
0.39287
0.392129
0.391399
0.390679
0.389971
0.389273
0.388587
0.387912
0.387248
0.386596
0.385955
0.385326
0.384707
0.3841
0.383504
0.382919
0.382344
0.38178
0.381227
0.380683
0.38015
0.379626
0.379111
0.378606
0.378109
0.377621
0.37714
0.376668
0.376202
0.375744
0.375292
0.374846
0.374405
0.37397
0.373539
0.373113
0.37269
0.372271
0.371854
0.371439
0.371027
0.370615
0.370205
0.444596
0.428598
0.413964
0.412532
0.411759
0.410966
0.410153
0.409324
0.408483
0.407632
0.406775
0.405915
0.405055
0.404197
0.403342
0.402491
0.401646
0.400807
0.399975
0.399151
0.398334
0.397526
0.396726
0.395935
0.395154
0.394383
0.393621
0.39287
0.392129
0.391399
0.390679
0.389971
0.389273
0.388587
0.387912
0.387248
0.386596
0.385955
0.385326
0.384707
0.3841
0.383504
0.382919
0.382344
0.38178
0.381227
0.380683
0.38015
0.379626
0.379111
0.378606
0.378109
0.377621
0.37714
0.376668
0.376202
0.375744
0.375292
0.374846
0.374405
0.37397
0.373539
0.373113
0.37269
0.372271
0.371854
0.371439
0.371027
0.370615
0.370205
0.444596
0.428598
0.413964
0.412532
0.411759
0.410966
0.410153
0.409324
0.408483
0.407632
0.406775
0.405915
0.405055
0.404197
0.403342
0.402491
0.401646
0.400807
0.399975
0.399151
0.398334
0.397526
0.396726
0.395935
0.395154
0.394383
0.393621
0.39287
0.392129
0.391399
0.390679
0.389971
0.389273
0.388587
0.387912
0.387248
0.386596
0.385955
0.385326
0.384707
0.3841
0.383504
0.382919
0.382344
0.38178
0.381227
0.380683
0.38015
0.379626
0.379111
0.378606
0.378109
0.377621
0.37714
0.376668
0.376202
0.375744
0.375292
0.374846
0.374405
0.37397
0.373539
0.373113
0.37269
0.372271
0.371854
0.371439
0.371027
0.370615
0.370205
0.444596
0.428598
0.413964
0.412532
0.411759
0.410966
0.410153
0.409324
0.408483
0.407632
0.406775
0.405915
0.405055
0.404197
0.403342
0.402491
0.401646
0.400807
0.399975
0.399151
0.398334
0.397526
0.396726
0.395935
0.395154
0.394383
0.393621
0.39287
0.392129
0.391399
0.390679
0.389971
0.389273
0.388587
0.387912
0.387248
0.386596
0.385955
0.385326
0.384707
0.3841
0.383504
0.382919
0.382344
0.38178
0.381227
0.380683
0.38015
0.379626
0.379111
0.378606
0.378109
0.377621
0.37714
0.376668
0.376202
0.375744
0.375292
0.374846
0.374405
0.37397
0.373539
0.373113
0.37269
0.372271
0.371854
0.371439
0.371027
0.370615
0.370205
0.444596
0.428598
0.413964
0.412532
0.411759
0.410966
0.410153
0.409324
0.408483
0.407632
0.406775
0.405915
0.405055
0.404197
0.403342
0.402491
0.401646
0.400807
0.399975
0.399151
0.398334
0.397526
0.396726
0.395935
0.395154
0.394383
0.393621
0.39287
0.392129
0.391399
0.390679
0.389971
0.389273
0.388587
0.387912
0.387248
0.386596
0.385955
0.385326
0.384707
0.3841
0.383504
0.382919
0.382344
0.38178
0.381227
0.380683
0.38015
0.379626
0.379111
0.378606
0.378109
0.377621
0.37714
0.376668
0.376202
0.375744
0.375292
0.374846
0.374405
0.37397
0.373539
0.373113
0.37269
0.372271
0.371854
0.371439
0.371027
0.370615
0.370205
0.444596
0.428598
0.413964
0.412532
0.411759
0.410966
0.410153
0.409324
0.408483
0.407632
0.406775
0.405915
0.405055
0.404197
0.403342