/*--------------------------------*- C++ -*----------------------------------*\
  =========                 |
  \\      /  F ield         | OpenFOAM: The Open Source CFD Toolbox
   \\    /   O peration     | Website:  https://openfoam.org
    \\  /    A nd           | Version:  13
     \\/     M anipulation  |
\*---------------------------------------------------------------------------*/
FoamFile
{
    format      ascii;
    class       volScalarField;
    location    "3";
    object      k;
}
// * * * * * * * * * * * * * * * * * * * * * * * * * * * * * * * * * * * * * //

dimensions      [0 2 -2 0 0 0 0];

internalField   nonuniform List<scalar> 
78750
(
1.71559e-07
4.14867e-06
2.49062e-05
4.69845e-05
5.78351e-05
5.58453e-05
5.29228e-05
4.81455e-05
4.34716e-05
3.89817e-05
3.51031e-05
3.16748e-05
2.91598e-05
2.72751e-05
2.57668e-05
2.54556e-05
2.53363e-05
2.54539e-05
2.58765e-05
2.64786e-05
2.70506e-05
2.77219e-05
2.8411e-05
2.9045e-05
2.96266e-05
2.9779e-05
3.01504e-05
3.00505e-05
2.98896e-05
2.96349e-05
2.95704e-05
3.12757e-05
3.12403e-05
1.92234e-05
1.20716e-06
9.28915e-07
2.73271e-05
0.000113754
0.000135475
0.000140862
0.000140795
0.000139635
0.000138225
0.000138253
0.000139025
0.000140238
0.000141651
0.00014323
0.000144619
0.000145608
0.000145995
0.000146328
0.000145866
0.000146594
0.000147756
0.000148966
0.000150021
0.000150789
0.000151233
0.00015102
0.000149964
0.000148404
0.000146384
0.000144209
0.000142117
0.000137828
0.000131754
0.000131755
4.44242e-05
2.06201e-06
1.02713e-06
2.97826e-05
0.000129712
0.000165066
0.000150248
0.000146665
0.000146382
0.000147377
0.00014943
0.000152325
0.000155814
0.000159634
0.000163549
0.000167365
0.000170906
0.00017404
0.000176666
0.000178714
0.000180153
0.000180972
0.000180972
0.00018014
0.000178688
0.000176669
0.000174095
0.000171005
0.000167555
0.000163959
0.000160457
0.000156494
0.000151846
0.000149992
0.000152774
4.3654e-05
1.79749e-06
1.07299e-06
3.06871e-05
0.000124263
0.000139349
0.00014408
0.000146471
0.00014944
0.000152601
0.000156428
0.000160842
0.00016566
0.000170645
0.000175556
0.000180168
0.000184291
0.000187769
0.000190489
0.000192386
0.00019344
0.000193505
0.000192513
0.000190541
0.000187752
0.000184228
0.000180124
0.000175659
0.000171076
0.000166642
0.000162449
0.000157708
0.000152405
0.000149544
0.000150518
4.02305e-05
1.5057e-06
1.08498e-06
3.14125e-05
0.0001295
0.000147455
0.000148785
0.000149731
0.000152332
0.000155516
0.000159551
0.000164254
0.000169358
0.000174581
0.000179653
0.000184335
0.000188431
0.000191781
0.000194266
0.000195813
0.000196391
0.000195926
0.00019435
0.000191854
0.000188541
0.000184527
0.000179957
0.000175075
0.00017014
0.00016542
0.000160904
0.000155531
0.000148604
0.000141542
0.000129649
3.56716e-05
1.34185e-06
1.10631e-06
3.18781e-05
0.00013052
0.0001478
0.000149052
0.000149937
0.000152844
0.000156294
0.000160424
0.000165208
0.000170378
0.000175644
0.00018073
0.000185392
0.000189434
0.000192704
0.00019509
0.000196481
0.000196815
0.00019604
0.00019411
0.000191276
0.000187634
0.000183327
0.000178542
0.000173508
0.000168498
0.000163811
0.000159467
0.000155063
0.000153861
0.000171483
0.00014757
3.37667e-05
1.216e-06
1.12297e-06
3.23903e-05
0.000131744
0.00015002
0.000150737
0.000151349
0.000153953
0.000157261
0.000161255
0.000165963
0.000171089
0.00017632
0.000181365
0.000185974
0.000189944
0.000193129
0.000195431
0.000196694
0.00019684
0.000195855
0.000193809
0.000190854
0.000187104
0.000182715
0.000177884
0.000172847
0.000167885
0.000163298
0.000159127
0.000155347
0.000156997
0.000183733
0.000150072
3.31245e-05
1.16591e-06
1.13531e-06
3.27305e-05
0.000134228
0.000156223
0.000150775
0.000151227
0.000154181
0.000157671
0.000161706
0.000166439
0.000171568
0.000176781
0.000181789
0.000186339
0.000190226
0.000193301
0.000195466
0.000196593
0.000196576
0.000195474
0.000193312
0.000190232
0.000186355
0.000181842
0.000176896
0.000171763
0.000166737
0.000162077
0.000157796
0.000153706
0.00015303
0.000162984
0.000154057
3.34562e-05
1.1781e-06
1.13037e-06
3.26214e-05
0.00013518
0.000167247
0.00015153
0.000150849
0.00015398
0.00015769
0.000161853
0.000166659
0.000171823
0.000177045
0.000182041
0.000186564
0.00019041
0.000193427
0.000195511
0.000196597
0.000196526
0.000195366
0.000193172
0.000190062
0.000186162
0.000181638
0.000176694
0.000171574
0.000166551
0.000161886
0.000157424
0.000152463
0.000148444
0.000148285
0.000147183
3.32618e-05
1.17957e-06
1.13697e-06
3.27939e-05
0.00013523
0.000168404
0.000152574
0.000151456
0.000154495
0.000158196
0.000162312
0.000167083
0.000172213
0.000177394
0.000182341
0.000186806
0.000190588
0.000193534
0.000195542
0.000196557
0.000196461
0.000195259
0.000192992
0.000189784
0.000185795
0.000181193
0.000176184
0.000171009
0.000165951
0.000161302
0.000157078
0.000152979
0.000152023
0.000172051
0.000151946
3.22796e-05
1.13271e-06
1.1335e-06
3.26878e-05
0.000134578
0.000166558
0.000153324
0.000151956
0.000154866
0.000158572
0.000162686
0.000167446
0.000172553
0.000177702
0.00018261
0.000187033
0.000190769
0.000193666
0.000195618
0.000196575
0.000196436
0.00019519
0.000192879
0.000189652
0.000185646
0.00018104
0.000176057
0.000170983
0.000166201
0.000162287
0.000160231
0.000164174
0.000196987
0.000194354
0.000152692
3.16868e-05
1.1088e-06
1.14841e-06
3.28447e-05
0.000132031
0.000142631
0.000147216
0.000150397
0.000154522
0.000158602
0.000162849
0.000167666
0.000172797
0.000177949
0.000182851
0.000187267
0.000191007
0.000193929
0.000195882
0.000196765
0.000196542
0.000195216
0.000192833
0.000189495
0.000185381
0.000180671
0.000175577
0.000170352
0.000165273
0.000160644
0.000156592
0.000153208
0.000155066
0.000162301
0.000129192
3.05723e-05
1.09841e-06
1.1622e-06
3.33458e-05
0.000135522
0.000150707
0.00015115
0.000151962
0.000155267
0.000159093
0.000163212
0.00016793
0.000172995
0.000178116
0.000183005
0.00018742
0.000191174
0.000194133
0.000196074
0.000196912
0.000196635
0.000195248
0.000192794
0.000189433
0.000185314
0.000180602
0.000175504
0.000170268
0.000165188
0.000160585
0.000156512
0.000152754
0.000152212
0.000157951
0.000145366
3.13629e-05
1.10961e-06
1.16113e-06
3.32922e-05
0.000135672
0.000154475
0.000150602
0.000151434
0.000155091
0.000159123
0.000163317
0.000168051
0.000173117
0.000178227
0.000183091
0.000187465
0.000191158
0.000194033
0.0001959
0.000196713
0.000196438
0.000195081
0.000192691
0.000189377
0.000185261
0.000180498
0.000175308
0.000169959
0.000164747
0.000159956
0.000155596
0.000151153
0.000149034
0.000152831
0.000148251
3.16439e-05
1.1114e-06
1.15098e-06
3.29952e-05
0.000135763
0.000165884
0.000151871
0.000151261
0.000154831
0.000158947
0.000163238
0.000168076
0.000173219
0.000178366
0.000183241
0.000187602
0.000191255
0.000194054
0.000195912
0.000196707
0.00019642
0.000195051
0.000192659
0.000189338
0.000185219
0.000180471
0.000175311
0.000169978
0.000164753
0.000159921
0.000155424
0.000150343
0.000145295
0.000141935
0.000128484
3.04427e-05
1.09261e-06
1.15189e-06
3.28989e-05
0.000132818
0.000143057
0.000147564
0.000150543
0.000154892
0.000159197
0.000163535
0.000168406
0.000173566
0.000178741
0.000183674
0.000188109
0.000191807
0.000194601
0.000196384
0.000197095
0.000196714
0.00019526
0.000192796
0.000189421
0.000185276
0.000180547
0.000175383
0.000170044
0.000164807
0.000159946
0.000155588
0.000151363
0.000150253
0.000169683
0.000141867
3.06447e-05
1.08975e-06
1.15773e-06
3.31595e-05
0.000134719
0.000150195
0.000150343
0.000151224
0.000155259
0.000159495
0.000163822
0.000168673
0.000173813
0.000178983
0.000183927
0.00018837
0.000192087
0.000194887
0.000196654
0.00019735
0.000196958
0.0001955
0.000193034
0.000189652
0.000185489
0.000180722
0.00017558
0.00017035
0.000165419
0.000161363
0.000159213
0.000162742
0.000195044
0.000192341
0.000154218
3.15711e-05
1.09214e-06
1.16614e-06
3.34425e-05
0.000136636
0.000156629
0.000154027
0.000151597
0.000155184
0.000159481
0.00016386
0.00016872
0.000173853
0.000178992
0.000183876
0.000188287
0.000191993
0.000194737
0.000196458
0.000197116
0.000196692
0.000195204
0.000192704
0.000189286
0.000185092
0.000180316
0.000175214
0.000170111
0.000165446
0.000161814
0.000159895
0.000161191
0.000171135
0.000172847
0.000157046
3.24817e-05
1.1208e-06
1.15065e-06
3.3183e-05
0.000137354
0.000174528
0.000176731
0.000158005
0.000156882
0.00015997
0.000164
0.000168767
0.000173882
0.000179009
0.000183877
0.000188272
0.000191927
0.000194671
0.000196403
0.000197072
0.000196674
0.000195202
0.000192699
0.000189277
0.000185084
0.000180312
0.000175218
0.000170125
0.000165462
0.000161698
0.000159101
0.000157821
0.000160628
0.000160152
0.000128861
2.99507e-05
1.06957e-06
1.15187e-06
3.28791e-05
0.000134033
0.000158451
0.000148262
0.000150442
0.000155057
0.000159528
0.000163949
0.000168848
0.000173985
0.000179089
0.000183908
0.000188222
0.00019185
0.000194577
0.000196278
0.000196936
0.000196506
0.00019496
0.000192412
0.000188957
0.000184724
0.000179881
0.000174634
0.000169235
0.000163909
0.000158999
0.000154549
0.000149769
0.00014569
0.000143777
0.000128949
3.0079e-05
1.09107e-06
1.14926e-06
3.26998e-05
0.000131314
0.000142469
0.00014639
0.000150286
0.000155355
0.000159918
0.000164309
0.000169144
0.000174217
0.000179265
0.00018403
0.000188292
0.000191881
0.000194563
0.000196287
0.000196982
0.000196527
0.000195005
0.000192474
0.000189028
0.000184799
0.000179955
0.000174697
0.000169254
0.000163912
0.000159052
0.000154771
0.000150754
0.000149499
0.000153982
0.000142337
3.05766e-05
1.09191e-06
1.15007e-06
3.28143e-05
0.000133066
0.000148896
0.000147872
0.000150667
0.000155433
0.000160042
0.000164454
0.000169305
0.000174379
0.000179408
0.000184141
0.00018836
0.000191888
0.000194602
0.000196359
0.000197086
0.000196691
0.0001952
0.000192676
0.000189219
0.000184962
0.000180074
0.000174757
0.000169254
0.000163898
0.000158985
0.000154614
0.000150295
0.000148598
0.000152566
0.000146955
3.07674e-05
1.08761e-06
1.15906e-06
3.31846e-05
0.000136624
0.00016817
0.000151686
0.000151122
0.000155367
0.000159953
0.000164439
0.000169356
0.000174467
0.000179513
0.000184248
0.000188454
0.000191954
0.000194624
0.000196295
0.000196917
0.00019645
0.000194911
0.000192363
0.000188905
0.000184671
0.000179831
0.000174591
0.000169193
0.000163911
0.000159062
0.000154595
0.000149255
0.000142279
0.000138273
0.000121359
2.92909e-05
1.0691e-06
1.1576e-06
3.32158e-05
0.000135512
0.000162578
0.000149849
0.000151087
0.000155595
0.000160136
0.000164616
0.000169549
0.000174692
0.000179781
0.000184575
0.000188868
0.000192429
0.000195074
0.000196702
0.000197253
0.000196716
0.000195123
0.000192539
0.000189066
0.000184841
0.000180041
0.000174884
0.000169646
0.000164698
0.000160585
0.000158225
0.000161476
0.000193077
0.000184785
0.000136155
2.93945e-05
1.05578e-06
1.16305e-06
3.33504e-05
0.000136848
0.000168969
0.000152135
0.000151843
0.000156071
0.000160505
0.000164923
0.000169812
0.000174927
0.000180004
0.000184807
0.000189143
0.00019273
0.000195396
0.000197041
0.000197601
0.000197066
0.000195468
0.000192873
0.00018938
0.000185124
0.000180274
0.000175045
0.000169693
0.000164512
0.000159792
0.000155583
0.000151607
0.000151139
0.000155144
0.000147208
3.06803e-05
1.07483e-06
1.15516e-06
3.30262e-05
0.000135431
0.000164924
0.000151573
0.000151894
0.000156333
0.000160839
0.000165234
0.000170067
0.000175121
0.000180128
0.000184843
0.000189065
0.000192546
0.000195131
0.0001967
0.000197194
0.000196606
0.000194969
0.000192343
0.000188829
0.00018456
0.000179716
0.000174484
0.00016909
0.000163798
0.000158887
0.000154303
0.000149172
0.000144536
0.000141833
0.000120649
2.8629e-05
1.04717e-06
1.15478e-06
3.2832e-05
0.000131259
0.000141738
0.000146874
0.000150821
0.000156081
0.000160852
0.000165321
0.000170174
0.000175224
0.00018021
0.000184889
0.00018905
0.000192509
0.000195114
0.000196721
0.000197235
0.000196657
0.000195022
0.000192395
0.000188874
0.000184594
0.000179726
0.000174479
0.000169123
0.000163899
0.000159127
0.000154832
0.000150657
0.000149653
0.000168253
0.000136663
2.91197e-05
1.0432e-06
1.16192e-06
3.31366e-05
0.000133772
0.000148071
0.000149085
0.000151274
0.000156094
0.000160854
0.000165394
0.000170314
0.000175389
0.000180375
0.000185041
0.000189189
0.00019266
0.000195335
0.00019698
0.000197503
0.000196908
0.000195221
0.00019254
0.000188959
0.000184607
0.000179681
0.000174494
0.000169245
0.000164314
0.000160315
0.000158241
0.000162318
0.000196048
0.000193923
0.000153575
3.14707e-05
1.12017e-06
1.1599e-06
3.31609e-05
0.000133863
0.000149848
0.000149938
0.000152132
0.000156884
0.00016153
0.000166022
0.000170907
0.000175927
0.000180827
0.000185387
0.000189417
0.000192761
0.000195303
0.000196868
0.000197367
0.000196754
0.000195042
0.000192388
0.00018883
0.000184549
0.000179719
0.000174592
0.000169443
0.00016473
0.000161036
0.000159004
0.000160324
0.000169821
0.000167492
0.000128204
2.96961e-05
1.07269e-06
1.16663e-06
3.32492e-05
0.000134988
0.000154468
0.000150227
0.000152024
0.000156926
0.000161694
0.000166249
0.000171171
0.000176223
0.000181166
0.000185791
0.000189851
0.000193147
0.00019556
0.000197013
0.000197425
0.000196781
0.000195079
0.000192399
0.000188837
0.000184497
0.000179616
0.00017437
0.00016901
0.000163865
0.000159213
0.000155093
0.000151404
0.000152291
0.000156918
0.000143353
3.0775e-05
1.0841e-06
1.15258e-06
3.2925e-05
0.000133914
0.000162971
0.000151179
0.000152225
0.000157063
0.000161877
0.000166464
0.0001714
0.000176456
0.000181384
0.000185951
0.000189928
0.000193178
0.000195554
0.000196936
0.000197362
0.000196734
0.000195033
0.000192344
0.000188788
0.00018451
0.000179707
0.000174513
0.000169216
0.000164041
0.000159224
0.000154669
0.000149295
0.00014333
0.000143992
0.000148637
3.17241e-05
1.11061e-06
1.15599e-06
3.29357e-05
0.000132745
0.000147944
0.000147725
0.00015144
0.000156923
0.000161891
0.000166534
0.000171498
0.000176562
0.000181469
0.000185972
0.000189935
0.000193175
0.000195556
0.000196971
0.000197387
0.000196724
0.000194991
0.000192314
0.000188779
0.000184554
0.000179733
0.000174616
0.000169404
0.000164471
0.000160405
0.000158158
0.00016186
0.000194408
0.000185373
0.000130647
2.97594e-05
1.0674e-06
1.16342e-06
3.32397e-05
0.000134939
0.00016658
0.000152785
0.000152874
0.00015732
0.000161967
0.000166457
0.000171345
0.000176385
0.000181313
0.000185885
0.000189889
0.000193148
0.000195522
0.000196915
0.000197261
0.000196549
0.000194812
0.000192112
0.000188553
0.000184276
0.000179462
0.000174329
0.000169067
0.00016392
0.000159189
0.000154976
0.000151444
0.000153326
0.000161918
0.000137483
2.9402e-05
1.05566e-06
1.16538e-06
3.30908e-05
0.00013212
0.000143595
0.000148273
0.000152201
0.000157522
0.000162392
0.000166949
0.000171841
0.000176851
0.000181736
0.000186263
0.000190223
0.000193439
0.000195773
0.000197127
0.000197436
0.00019669
0.000194924
0.000192201
0.000188626
0.000184339
0.000179519
0.000174376
0.000169103
0.000163978
0.000159244
0.000154919
0.000150813
0.000149903
0.000154629
0.000141724
3.0413e-05
1.07455e-06
1.16598e-06
3.32564e-05
0.000133433
0.000149298
0.000150002
0.000152675
0.000157667
0.000162438
0.000166966
0.000171854
0.000176871
0.000181771
0.000186319
0.000190313
0.000193567
0.000195921
0.000197275
0.000197556
0.000196782
0.000195002
0.000192267
0.000188675
0.000184368
0.000179535
0.000174349
0.000169072
0.000163999
0.000159391
0.000155247
0.000151375
0.000150218
0.000154211
0.000141416
2.96807e-05
1.04189e-06
1.17774e-06
3.36315e-05
0.00013644
0.00015341
0.000149931
0.000152505
0.000157537
0.000162339
0.000166902
0.000171812
0.000176835
0.000181732
0.000186271
0.000190248
0.000193463
0.000195783
0.000197149
0.00019744
0.000196685
0.000194914
0.000192188
0.00018861
0.000184323
0.000179524
0.000174425
0.000169418
0.00016491
0.000161405
0.000159337
0.000159843
0.000166238
0.000161139
0.000144361
3.02139e-05
1.06726e-06
1.17016e-06
3.34909e-05
0.000136407
0.000167886
0.000152167
0.000152912
0.000157697
0.000162422
0.000166914
0.00017177
0.000176782
0.000181682
0.000186224
0.000190185
0.000193371
0.000195707
0.0001971
0.000197415
0.000196663
0.00019489
0.000192163
0.000188588
0.000184317
0.000179547
0.000174588
0.000169701
0.000165229
0.000161574
0.000158855
0.000157144
0.000159231
0.000159636
0.000150774
3.12615e-05
1.07852e-06
1.17623e-06
3.35258e-05
0.000136333
0.000166694
0.000153275
0.000153173
0.000157717
0.000162436
0.000166956
0.000171843
0.000176872
0.000181808
0.000186431
0.000190467
0.000193712
0.000196047
0.000197389
0.000197679
0.000196914
0.000195137
0.000192415
0.000188851
0.000184586
0.000179804
0.000174737
0.000169673
0.000164981
0.000160907
0.000157248
0.000153072
0.000147691
0.000143038
0.00012273
2.87556e-05
1.04335e-06
1.17453e-06
3.33833e-05
0.000133078
0.000143414
0.000148499
0.000152767
0.000158342
0.000163213
0.000167746
0.000172611
0.000177601
0.000182473
0.000187002
0.000190948
0.000194142
0.000196442
0.000197758
0.000198027
0.000197241
0.000195441
0.000192688
0.000189078
0.00018474
0.000179838
0.000174578
0.000169291
0.000164372
0.000160431
0.00015839
0.000162705
0.000196294
0.000187466
0.000137128
2.9071e-05
1.03446e-06
1.183e-06
3.36128e-05
0.000134611
0.000150556
0.000151455
0.000153599
0.000158572
0.000163436
0.000167996
0.000172855
0.000177803
0.000182585
0.000186955
0.000190757
0.000193833
0.000196047
0.000197303
0.00019753
0.000196717
0.000194902
0.000192148
0.000188551
0.000184247
0.000179409
0.000174252
0.000168981
0.000163885
0.000159326
0.000155436
0.000152681
0.000156633
0.000168516
0.000149357
3.0777e-05
1.07289e-06
1.18556e-06
3.38637e-05
0.000136475
0.000155076
0.000151319
0.000153419
0.000158447
0.000163314
0.000167882
0.000172763
0.000177743
0.000182563
0.000186973
0.000190811
0.000193907
0.000196133
0.000197395
0.000197624
0.000196811
0.000194998
0.000192245
0.000188651
0.000184344
0.00017949
0.000174297
0.000168976
0.000163845
0.000159198
0.000155016
0.000151111
0.000150019
0.000152131
0.0001251
2.91844e-05
1.06342e-06
1.1866e-06
3.3913e-05
0.000137807
0.00016907
0.000154756
0.000154098
0.000158552
0.000163333
0.000167886
0.000172763
0.000177756
0.000182613
0.000187097
0.000190995
0.000194136
0.000196387
0.000197659
0.000197883
0.000197054
0.000195216
0.000192431
0.000188794
0.000184429
0.00017949
0.000174159
0.000168724
0.000163479
0.000158662
0.000154047
0.000148866
0.000143636
0.000142638
0.000131607
2.85939e-05
1.03078e-06
1.18312e-06
3.37087e-05
0.000135075
0.000148092
0.000150802
0.000153425
0.000158379
0.000163134
0.000167617
0.000172437
0.000177385
0.000182206
0.000186662
0.000190544
0.000193678
0.000195927
0.000197201
0.000197434
0.000196622
0.000194811
0.00019207
0.000188505
0.000184266
0.000179499
0.000174392
0.000169258
0.000164472
0.000160592
0.000158566
0.00016279
0.000197555
0.000190924
0.000143308
3.00788e-05
1.06145e-06
1.18359e-06
3.36361e-05
0.000134563
0.000151641
0.000151673
0.000153808
0.000158603
0.000163287
0.000167735
0.000172519
0.000177429
0.000182221
0.000186669
0.000190575
0.000193758
0.000196036
0.000197315
0.000197542
0.000196724
0.000194912
0.000192179
0.000188625
0.000184387
0.000179591
0.000174466
0.000169291
0.000164324
0.000159807
0.000155728
0.000151891
0.000151281
0.000155305
0.000142474
3.00722e-05
1.05506e-06
1.17189e-06
3.33525e-05
0.000133985
0.000154967
0.000151485
0.000153693
0.00015898
0.000163863
0.000168398
0.000173225
0.000178138
0.00018289
0.000187255
0.000191032
0.000194065
0.00019621
0.000197418
0.000197608
0.000196764
0.00019493
0.000192169
0.000188579
0.00018429
0.000179458
0.000174336
0.000169189
0.000164373
0.000160393
0.000158136
0.00016196
0.000194242
0.000186738
0.000153828
3.10159e-05
1.0729e-06
1.16719e-06
3.31721e-05
0.000134226
0.000165525
0.000153577
0.000154254
0.000159162
0.000164042
0.000168553
0.000173358
0.000178268
0.000183019
0.000187365
0.000191103
0.000194066
0.000196192
0.000197378
0.000197545
0.000196683
0.00019484
0.000192083
0.000188509
0.000184247
0.000179461
0.000174345
0.000169132
0.000164095
0.000159474
0.000155201
0.000151091
0.000150517
0.000152332
0.000125352
2.93029e-05
1.05838e-06
1.16142e-06
3.27825e-05
0.00012967
0.000140257
0.000146967
0.000152588
0.000158633
0.000163773
0.000168364
0.000173185
0.000178077
0.000182803
0.00018715
0.000190925
0.000193959
0.000196123
0.000197327
0.0001975
0.000196638
0.000194792
0.000192029
0.000188445
0.000184168
0.000179359
0.000174215
0.000168971
0.000163895
0.000159233
0.000154795
0.000149936
0.000146386
0.000146379
0.000131678
2.86159e-05
1.02654e-06
1.16331e-06
3.29824e-05
0.000131296
0.000144584
0.000149305
0.000153528
0.000159081
0.000163995
0.000168493
0.000173268
0.000178156
0.000182944
0.000187363
0.000191182
0.000194243
0.000196424
0.000197639
0.000197821
0.000196965
0.000195122
0.00019236
0.000188776
0.000184498
0.000179683
0.000174518
0.000169228
0.000164063
0.000159246
0.000154531
0.000149054
0.000144134
0.000143252
0.000141259
2.98952e-05
1.06257e-06
1.15671e-06
3.27482e-05
0.000130874
0.00014495
0.000149892
0.000153925
0.000159609
0.000164588
0.000169115
0.000173881
0.000178727
0.000183421
0.000187724
0.000191474
0.000194548
0.000196763
0.000197995
0.000198184
0.00019733
0.000195485
0.000192717
0.000189128
0.00018485
0.000180042
0.0001749
0.000169662
0.000164605
0.000159993
0.000155739
0.000151554
0.000150237
0.000166584
0.000142275
2.99747e-05
1.06729e-06
1.16201e-06
3.30321e-05
0.000131934
0.000143839
0.000148905
0.000153528
0.000159436
0.000164554
0.000169135
0.000173922
0.000178759
0.000183412
0.000187656
0.00019135
0.000194318
0.000196401
0.000197552
0.000197692
0.00019681
0.000194952
0.000192186
0.000188623
0.000184413
0.000179682
0.000174616
0.000169503
0.00016473
0.000160865
0.000158842
0.000163196
0.000197381
0.0001903
0.000140798
2.9709e-05
1.0442e-06
1.15952e-06
3.2836e-05
0.00013193
0.000144984
0.000149531
0.000153471
0.000159131
0.000164192
0.000168768
0.000173571
0.000178445
0.000183166
0.000187519
0.000191313
0.000194327
0.000196461
0.000197637
0.000197791
0.000196916
0.000195063
0.000192297
0.00018872
0.000184454
0.000179654
0.000174555
0.000169386
0.000164437
0.000160037
0.000156241
0.000153445
0.000156414
0.000164838
0.000146161
3.02833e-05
1.06615e-06
1.17326e-06
3.32342e-05
0.000131517
0.000143874
0.000148588
0.000153357
0.000159309
0.00016434
0.000168865
0.00017362
0.000178464
0.000183177
0.000187549
0.000191407
0.000194492
0.000196663
0.000197851
0.000197995
0.000197095
0.000195208
0.000192404
0.000188784
0.000184471
0.000179665
0.000174546
0.000169337
0.000164299
0.000159728
0.000155593
0.000151769
0.000151742
0.00015766
0.000152493
3.1723e-05
1.09886e-06
1.18253e-06
3.37123e-05
0.000134882
0.000150926
0.000151935
0.000154448
0.000159886
0.000164824
0.000169341
0.000174101
0.000178902
0.000183512
0.000187732
0.000191381
0.00019429
0.000196368
0.000197514
0.000197649
0.00019676
0.000194894
0.000192115
0.000188522
0.00018424
0.00017943
0.000174286
0.000169037
0.000163948
0.000159219
0.000154546
0.000148887
0.000142192
0.000139066
0.000122786
2.9082e-05
1.06066e-06
1.18805e-06
3.38715e-05
0.000136263
0.000156175
0.000152509
0.000154649
0.000159946
0.000164941
0.000169445
0.000174207
0.000178988
0.00018355
0.000187745
0.00019142
0.00019441
0.000196542
0.000197734
0.00019791
0.000197062
0.00019523
0.00019247
0.000188866
0.00018452
0.000179642
0.000174481
0.000169306
0.000164485
0.000160567
0.000158361
0.000161979
0.000193444
0.000183232
0.000135406
2.8673e-05
1.02623e-06
1.18967e-06
3.38661e-05
0.00013703
0.000169019
0.000155511
0.000155426
0.000160369
0.000165171
0.000169557
0.000174183
0.000178928
0.000183528
0.000187783
0.000191533
0.00019455
0.000196696
0.000197872
0.000198031
0.00019719
0.000195395
0.000192678
0.000189116
0.00018483
0.000180068
0.000175083
0.000170163
0.000165712
0.000162253
0.00016038
0.000161782
0.000170326
0.000165743
0.000134656
2.85596e-05
1.02376e-06
1.19886e-06
3.39697e-05
0.000134711
0.000149142
0.000151487
0.000154581
0.00016004
0.000165038
0.000169542
0.000174238
0.00017898
0.000183545
0.000187766
0.000191461
0.000194441
0.000196561
0.000197712
0.000197878
0.00019704
0.000195243
0.00019253
0.000189025
0.000184843
0.000180211
0.000175332
0.000170442
0.000165726
0.00016141
0.000157456
0.000153954
0.000154329
0.000157914
0.000147915
3.0455e-05
1.05682e-06
1.19368e-06
3.40906e-05
0.000136678
0.000156618
0.000152723
0.000154913
0.000160189
0.00016513
0.000169609
0.000174277
0.000179
0.000183571
0.000187792
0.000191479
0.00019445
0.000196558
0.000197691
0.000197826
0.000196983
0.000195184
0.000192519
0.000189079
0.000185004
0.000180474
0.000175683
0.000170849
0.000166139
0.000161727
0.000157428
0.000152428
0.0001473
0.000142893
0.000122163
2.87626e-05
1.05517e-06
1.20441e-06
3.43503e-05
0.000138807
0.000171442
0.000156611
0.000155753
0.000160169
0.000164945
0.000169387
0.000174055
0.000178796
0.000183383
0.000187615
0.000191308
0.0001943
0.000196469
0.000197729
0.00019801
0.000197253
0.000195524
0.000192895
0.000189474
0.000185389
0.000180792
0.000175859
0.000170797
0.000165807
0.000161183
0.000156964
0.000153382
0.000156162
0.000179355
0.000137523
2.95558e-05
1.05317e-06
1.21231e-06
3.42715e-05
0.000135955
0.000150661
0.000152852
0.000155831
0.000160984
0.000165718
0.000170037
0.000174562
0.000179167
0.000183638
0.000187784
0.000191417
0.000194384
0.000196569
0.000197902
0.000198182
0.000197379
0.000195604
0.000192955
0.000189528
0.000185451
0.000180876
0.000175983
0.000170957
0.000166083
0.000161618
0.000157429
0.000153195
0.000151157
0.000158097
0.00013796
2.87254e-05
1.01925e-06
1.21394e-06
3.4513e-05
0.000138602
0.000157558
0.000153102
0.000155636
0.000161134
0.000166139
0.000170609
0.00017522
0.000179843
0.000184256
0.000188271
0.000191767
0.000194598
0.000196652
0.000197853
0.000198051
0.000197252
0.000195516
0.000192873
0.000189439
0.00018535
0.000180767
0.000175903
0.000171051
0.000166607
0.000163092
0.00016107
0.000162185
0.000169686
0.000164703
0.000144101
3.02266e-05
1.06554e-06
1.19296e-06
3.40815e-05
0.00013821
0.000169882
0.000154964
0.00015571
0.000161097
0.000166164
0.000170668
0.000175274
0.000179921
0.000184345
0.000188373
0.000191873
0.000194693
0.000196716
0.000197857
0.000198032
0.000197227
0.000195454
0.00019279
0.000189339
0.000185232
0.000180623
0.000175701
0.000170683
0.000165826
0.000161394
0.000157309
0.000153533
0.000153402
0.000155996
0.000145523
3.0218e-05
1.06755e-06
1.19391e-06
3.39416e-05
0.000136684
0.000162304
0.000153026
0.000155348
0.00016076
0.000165864
0.000170446
0.000175188
0.000179985
0.00018456
0.000188744
0.000192357
0.00019525
0.000197308
0.000198453
0.000198607
0.000197765
0.000195982
0.000193319
0.000189866
0.000185742
0.000181085
0.000176081
0.000170988
0.000166053
0.000161477
0.000157077
0.000152421
0.000149746
0.000151345
0.000146946
3.10512e-05
1.09e-06
1.19124e-06
3.36125e-05
0.000133157
0.000142217
0.000149095
0.000154638
0.000160768
0.000165917
0.000170473
0.000175176
0.000179979
0.000184607
0.000188798
0.000192385
0.000195255
0.00019731
0.000198465
0.000198635
0.000197817
0.000196065
0.000193445
0.000190062
0.000185993
0.00018135
0.000176396
0.000171378
0.000166502
0.000161932
0.00015738
0.000152225
0.000148484
0.000149865
0.000150565
3.15057e-05
1.09708e-06
1.19593e-06
3.3739e-05
0.000134076
0.000145914
0.000150983
0.000155429
0.000161094
0.000166095
0.000170562
0.000175172
0.000179873
0.000184416
0.000188597
0.000192237
0.00019517
0.000197258
0.00019843
0.000198608
0.00019779
0.000196033
0.000193396
0.000189966
0.000185875
0.000181316
0.000176487
0.00017157
0.000166764
0.000162278
0.000157694
0.00015202
0.000146015
0.00014259
0.000136154
2.98764e-05
1.04907e-06
1.20573e-06
3.39682e-05
0.000133906
0.000145046
0.000150335
0.000155428
0.000161241
0.000166299
0.000170774
0.000175339
0.000179967
0.000184449
0.000188594
0.000192196
0.000195096
0.000197173
0.000198342
0.000198521
0.000197707
0.000195958
0.000193339
0.000189944
0.000185942
0.000181456
0.000176644
0.00017171
0.000166887
0.00016236
0.000157852
0.000152285
0.000145607
0.000139343
0.000125866
2.7641e-05
9.83013e-07
1.20632e-06
3.4026e-05
0.000133922
0.000145458
0.000150542
0.000155537
0.000161431
0.00016653
0.00017103
0.000175612
0.000180247
0.000184716
0.000188823
0.000192395
0.000195283
0.00019737
0.000198569
0.000198783
0.000197997
0.000196238
0.000193603
0.000190222
0.000186217
0.000181717
0.000176886
0.000171933
0.000167112
0.00016268
0.000158513
0.000154561
0.000155295
0.00017204
0.000136078
2.76733e-05
9.87779e-07
1.24865e-06
3.53452e-05
0.000140236
0.000153615
0.000154486
0.000156929
0.000162061
0.000167
0.00017152
0.000176196
0.000180929
0.000185456
0.000189592
0.000193166
0.000196033
0.000198076
0.000199208
0.00019933
0.000198414
0.000196595
0.000193961
0.000190594
0.000186595
0.000182088
0.000177224
0.000172203
0.000167271
0.000162665
0.000158168
0.000153201
0.000149817
0.000152982
0.00014663
2.9972e-05
1.04581e-06
1.25548e-06
3.55834e-05
0.000142017
0.000160185
0.000155584
0.000157296
0.000162425
0.00016732
0.000171791
0.000176416
0.000181123
0.00018564
0.00018977
0.000193337
0.00019619
0.000198213
0.000199321
0.00019942
0.000198483
0.000196674
0.000194078
0.000190752
0.000186788
0.000182296
0.000177421
0.000172351
0.000167318
0.000162533
0.000157722
0.000151984
0.00014573
0.000140339
0.000119152
2.80098e-05
1.01997e-06
1.24742e-06
3.53759e-05
0.000141909
0.000171328
0.000157789
0.000157883
0.000162683
0.000167484
0.000171847
0.000176331
0.000180921
0.000185375
0.000189479
0.000193045
0.00019592
0.000197987
0.000199165
0.00019937
0.000198601
0.000196972
0.000194526
0.000191338
0.000187514
0.000183173
0.000178462
0.000173569
0.000168726
0.000164178
0.00015988
0.000155925
0.000157072
0.00017556
0.000136231
2.88038e-05
1.02871e-06
1.2547e-06
3.52871e-05
0.000139139
0.000146983
0.000152366
0.000157011
0.000162807
0.000167914
0.000172383
0.000176899
0.000181499
0.000185959
0.000190089
0.000193682
0.000196574
0.000198663
0.000199867
0.000200099
0.000199354
0.000197688
0.000195159
0.000191856
0.000187943
0.000183555
0.000178813
0.000173894
0.000169034
0.000164506
0.000160376
0.000156977
0.000160415
0.000185876
0.000151427
3.1076e-05
1.09587e-06
1.25293e-06
3.52292e-05
0.000138459
0.000151478
0.000153713
0.000157136
0.000162751
0.000168
0.000172576
0.000177124
0.000181709
0.000186134
0.000190208
0.000193782
0.000196746
0.000198916