/*--------------------------------*- C++ -*----------------------------------*\
  =========                 |
  \\      /  F ield         | OpenFOAM: The Open Source CFD Toolbox
   \\    /   O peration     | Website:  https://openfoam.org
    \\  /    A nd           | Version:  13
     \\/     M anipulation  |
\*---------------------------------------------------------------------------*/
FoamFile
{
    format      ascii;
    class       volScalarField;
    location    "3";
    object      p_rgh;
}
// * * * * * * * * * * * * * * * * * * * * * * * * * * * * * * * * * * * * * //

dimensions      [0 2 -2 0 0 0 0];

internalField   nonuniform List<scalar> 
78750
(
0.0736933
0.073687
0.0740793
0.0745639
0.0748991
0.0752747
0.0757028
0.0760098
0.0762866
0.0765777
0.0768576
0.0771268
0.0773244
0.0775106
0.0776998
0.0778786
0.0780345
0.0781394
0.0782219
0.0783329
0.0784526
0.0785262
0.0785851
0.07864
0.078683
0.0787035
0.0787013
0.0786721
0.0786068
0.078473
0.0782594
0.0779537
0.0775242
0.0770596
0.076472
0.078302
0.0775905
0.0769805
0.0765408
0.0762723
0.0761859
0.0762628
0.0764251
0.0766207
0.0768281
0.0770399
0.0772462
0.0774431
0.0776255
0.0777906
0.0779387
0.07807
0.0781871
0.07829
0.0783795
0.0784542
0.0785133
0.0785568
0.0785816
0.0785829
0.0785531
0.0784726
0.0783111
0.0780224
0.077552
0.0768199
0.0757702
0.0743423
0.0725337
0.0704291
0.0822321
0.0810585
0.080053
0.0792572
0.0786961
0.078343
0.0781568
0.0780863
0.0780878
0.0781308
0.0781955
0.0782718
0.078353
0.0784356
0.0785172
0.0785967
0.0786735
0.078747
0.0788162
0.0788809
0.0789401
0.0789918
0.0790336
0.0790613
0.0790663
0.079032
0.0789276
0.0786993
0.0782643
0.0775093
0.0763034
0.0745229
0.0720821
0.0690046
0.0654181
0.0848284
0.0831791
0.0817636
0.0806497
0.0798497
0.0793293
0.079035
0.0788949
0.078846
0.0788511
0.0788842
0.078929
0.0789784
0.0790295
0.0790795
0.0791273
0.079172
0.0792133
0.0792505
0.0792836
0.0793121
0.0793344
0.0793475
0.0793455
0.0793166
0.079237
0.0790635
0.0787225
0.0781006
0.0770413
0.0753546
0.0728538
0.0694167
0.0650714
0.0600399
0.0870594
0.0849336
0.0831031
0.081655
0.0806078
0.0799161
0.0795033
0.0792829
0.0791819
0.0791511
0.0791591
0.0791874
0.0792246
0.0792656
0.0793081
0.0793504
0.0793914
0.0794303
0.0794667
0.0794998
0.0795288
0.0795517
0.0795649
0.0795605
0.0795232
0.0794225
0.0792028
0.0787696
0.0779755
0.0766185
0.0744519
0.0712332
0.0668117
0.0612181
0.0547401
0.0891373
0.0865377
0.0842988
0.0825269
0.0812422
0.080387
0.0798669
0.0795799
0.0794388
0.0793826
0.0793729
0.0793873
0.0794135
0.0794455
0.0794798
0.0795139
0.0795472
0.0795794
0.07961
0.079638
0.0796626
0.0796816
0.0796905
0.0796802
0.0796314
0.0795074
0.0792401
0.078714
0.0777495
0.0760978
0.0734546
0.0695212
0.0641072
0.0572829
0.0493627
0.0910281
0.0879534
0.0853051
0.0832089
0.0816883
0.080674
0.0800533
0.0797076
0.0795348
0.0794622
0.0794446
0.0794556
0.0794808
0.0795124
0.0795472
0.0795832
0.0796187
0.0796533
0.0796867
0.0797182
0.0797465
0.0797693
0.0797814
0.079772
0.0797184
0.0795772
0.0792682
0.0786546
0.0775229
0.0755773
0.0724581
0.0678125
0.0614219
0.0533441
0.0439786
0.0929254
0.0893769
0.0863195
0.083899
0.0821421
0.0809687
0.0802473
0.0798423
0.0796368
0.079547
0.0795207
0.0795274
0.0795505
0.0795813
0.0796155
0.0796512
0.0796875
0.079723
0.0797575
0.0797904
0.0798203
0.0798447
0.0798577
0.0798468
0.0797861
0.0796254
0.0792722
0.0785685
0.0772678
0.0750273
0.0714312
0.0660739
0.0586963
0.0493748
0.0385852
0.0948213
0.0907982
0.0873312
0.0845868
0.0825951
0.0812631
0.0804415
0.0799771
0.0797388
0.0796317
0.0795965
0.0795988
0.0796195
0.079649
0.0796823
0.0797173
0.0797528
0.0797883
0.0798228
0.0798555
0.0798852
0.0799088
0.0799197
0.0799036
0.0798313
0.0796455
0.0792411
0.0784389
0.0769596
0.0744155
0.0703356
0.0642546
0.0558811
0.0453047
0.0330648
0.0967752
0.0922776
0.0884014
0.0853329
0.0831059
0.0816151
0.0806936
0.08017
0.0798987
0.0797739
0.0797292
0.0797263
0.0797438
0.0797711
0.0798027
0.079836
0.0798699
0.0799037
0.0799366
0.0799676
0.0799955
0.0800169
0.0800243
0.0800019
0.0799171
0.0797058
0.0792506
0.0783514
0.0766958
0.073851
0.0692913
0.0624995
0.0531516
0.0413423
0.0276632
0.0988003
0.0938283
0.0895434
0.0861513
0.0836883
0.0820383
0.0810166
0.0804331
0.0801276
0.0799841
0.0799291
0.0799201
0.0799338
0.0799582
0.0799873
0.0800185
0.0800503
0.0800821
0.0801133
0.0801428
0.080169
0.0801884
0.0801928
0.0801647
0.080068
0.0798319
0.0793269
0.0783315
0.0765004
0.0733553
0.0683163
0.0608099
0.0504734
0.037431
0.0223126
0.100923
0.0954782
0.0907848
0.0870678
0.0843677
0.0825579
0.0814348
0.08079
0.0804491
0.0802855
0.0802191
0.0802031
0.080212
0.0802326
0.0802586
0.080287
0.0803162
0.0803456
0.0803746
0.080402
0.0804261
0.080443
0.0804438
0.0804093
0.0803
0.0800382
0.079482
0.0783886
0.0763799
0.0729322
0.06741
0.0591837
0.0478605
0.0335601
0.0170006
0.103096
0.0971745
0.0920703
0.0880299
0.0850953
0.0831274
0.0819047
0.0812007
0.080826
0.0806437
0.0805668
0.0805444
0.0805489
0.0805661
0.0805891
0.0806145
0.080641
0.0806677
0.080694
0.080719
0.0807406
0.0807548
0.080752
0.0807113
0.0805899
0.0803035
0.079698
0.0785097
0.0763273
0.0725815
0.0665824
0.0576447
0.0453439
0.0297956
0.011785
0.105354
0.0989588
0.0934489
0.0890824
0.08591
0.0837816
0.0824575
0.0816921
0.0812817
0.0810792
0.0809904
0.0809607
0.08096
0.0809731
0.0809925
0.0810147
0.081038
0.0810618
0.0810853
0.0811074
0.0811263
0.0811372
0.0811299
0.081082
0.0809468
0.0806335
0.0799753
0.0786876
0.0763262
0.0722772
0.0657947
0.0561388
0.0428499
0.0260852
0.00667264
0.107658
0.100793
0.0948733
0.0901812
0.0867695
0.0844802
0.083054
0.0822268
0.0817802
0.081557
0.0814561
0.0814187
0.0814125
0.081421
0.0814362
0.0814544
0.0814738
0.0814936
0.0815131
0.0815312
0.0815458
0.081552
0.0815386
0.0814816
0.081331
0.0809892
0.0802771
0.0788889
0.0763481
0.0719962
0.0650321
0.0546587
0.0403831
0.0223468
0.00145609
0.109987
0.102646
0.0963107
0.0912976
0.0876541
0.0852082
0.0836841
0.0827993
0.0823207
0.0820802
0.08197
0.0819271
0.0819172
0.0819228
0.0819353
0.0819508
0.0819675
0.0819846
0.0820012
0.0820163
0.0820277
0.0820301
0.0820117
0.0819467
0.0817818
0.0814125
0.0806475
0.0791599
0.0764405
0.0717857
0.0643406
0.0532547
0.037997
0.0187412
-0.00358277
0.112361
0.104548
0.0978072
0.0924672
0.0885877
0.0859829
0.0843588
0.0834144
0.0829015
0.082642
0.0825211
0.082472
0.0824579
0.0824603
0.0824701
0.0824831
0.0824974
0.0825122
0.0825266
0.0825396
0.0825488
0.0825486
0.0825264
0.0824549
0.0822771
0.081882
0.0810656
0.0794801
0.0765833
0.071627
0.0637017
0.0518957
0.0356472
0.0151455
-0.00861916
0.114783
0.106492
0.0993422
0.0936786
0.0895596
0.0867948
0.08507
0.0840654
0.0835182
0.0832399
0.0831089
0.0830539
0.0830361
0.0830359
0.0830435
0.0830546
0.0830671
0.0830801
0.0830929
0.0831044
0.0831119
0.0831097
0.0830845
0.0830073
0.0828179
0.0823985
0.081533
0.0798523
0.0767813
0.0715251
0.0631175
0.0506019
0.0333727
0.0116009
-0.0136219
0.117204
0.108437
0.100875
0.0948899
0.0905387
0.0876171
0.0857939
0.084731
0.0841511
0.083855
0.0837144
0.083654
0.0836327
0.0836299
0.0836352
0.0836442
0.0836548
0.0836659
0.0836768
0.0836863
0.0836919
0.0836874
0.0836588
0.0835754
0.0833737
0.0829291
0.0820132
0.0802359
0.0769889
0.0714323
0.0625445
0.0493114
0.031102
0.00810961
-0.0185338
0.119652
0.110413
0.102444
0.096133
0.0915468
0.0884644
0.0865408
0.0854187
0.0848056
0.0844917
0.0843418
0.0842764
0.0842524
0.0842477
0.0842516
0.0842594
0.0842687
0.0842786
0.0842882
0.0842963
0.0843002
0.0842933
0.0842608
0.0841703
0.0839548
0.0834829
0.0825138
0.0806363
0.0772096
0.0713498
0.0619798
0.0480283
0.0288317
0.00460153
-0.0234707
0.122117
0.112397
0.104014
0.0973817
0.0925597
0.0893201
0.0872973
0.0861166
0.0854705
0.0851388
0.0849792
0.0849083
0.0848807
0.0848732
0.0848748
0.0848803
0.0848874
0.084895
0.0849023
0.084908
0.0849094
0.0848994
0.0848627
0.0847651
0.0845363
0.0840381
0.0830175
0.0810421
0.0774387
0.071278
0.0614282
0.0467629
0.026583
0.00110502
-0.0284159
0.124585
0.114399
0.105617
0.0986585
0.0935988
0.0902004
0.0880774
0.0868368
0.0861566
0.0858062
0.0856365
0.0855599
0.0855287
0.0855188
0.0855184
0.085522
0.0855273
0.0855333
0.0855389
0.0855429
0.0855422
0.0855297
0.0854891
0.0853848
0.0851427
0.0846181
0.0835455
0.0814715
0.0776904
0.0712279
0.0608966
0.0455136
0.0243446
-0.00237185
-0.033292
0.127057
0.116396
0.107197
0.0999161
0.0946229
0.0910656
0.0888444
0.0875466
0.0868348
0.0864678
0.0862895
0.0862083
0.0861745
0.0861626
0.0861604
0.0861624
0.0861661
0.0861703
0.0861741
0.0861762
0.0861734
0.0861583
0.0861139
0.0860028
0.0857477
0.0851972
0.0840735
0.0819021
0.0779445
0.0711814
0.0603703
0.0442729
0.0221184
-0.00586867
-0.038291
0.12953
0.118411
0.108814
0.101208
0.0956766
0.0919612
0.0896397
0.0882819
0.087536
0.0871503
0.0869618
0.0868749
0.0868374
0.086823
0.0868187
0.0868187
0.0868205
0.0868228
0.0868247
0.0868247
0.0868195
0.0868013
0.0867524
0.0866337
0.0863643
0.0857861
0.0846087
0.0823365
0.0781987
0.0711316
0.0598372
0.0430225
0.0198794
-0.00932656
-0.0431542
0.132049
0.120447
0.11043
0.102501
0.0967344
0.0928583
0.0904365
0.0890191
0.0882394
0.0878353
0.087637
0.0875446
0.0875039
0.0874872
0.0874812
0.0874797
0.0874802
0.0874813
0.0874821
0.0874811
0.0874749
0.0874554
0.0874041
0.0872804
0.0870001
0.0863982
0.0851723
0.0828058
0.0784947
0.071129
0.0593575
0.0418321
0.0177141
-0.012766
-0.0480712
0.134528
0.122445
0.112023
0.103769
0.0977706
0.0937404
0.0912207
0.0897468
0.0889364
0.0885166
0.0883105
0.0882143
0.0881717
0.088154
0.0881471
0.0881449
0.0881446
0.0881448
0.0881447
0.0881426
0.088135
0.0881134
0.0880587
0.0879284
0.087635
0.0870067
0.0857287
0.083263
0.0787735
0.0711052
0.0588514
0.0406039
0.0154968
-0.0161802
-0.0529198
0.137037
0.12448
0.113649
0.105069
0.0988289
0.0946368
0.0920179
0.0904851
0.0896415
0.0892038
0.0889883
0.0888871
0.0888416
0.0888219
0.0888137
0.0888102
0.0888088
0.088808
0.0888068
0.0888037
0.088795
0.0887719
0.0887143
0.0885785
0.0882732
0.0876201
0.0862918
0.0837296
0.0790644
0.0710962
0.058363
0.0394073
0.0133148
-0.0196569
-0.0578522
0.139534
0.126511
0.115273
0.106371
0.0998994
0.0955479
0.0928277
0.0912349
0.0903574
0.0899012
0.089676
0.0895695
0.089521
0.0894993
0.0894896
0.0894851
0.0894827
0.0894811
0.0894793
0.0894757
0.0894663
0.0894423
0.0893829
0.0892424
0.0889265
0.0882501
0.0868735
0.0842169
0.0793786
0.0711131
0.0579027
0.0382314
0.011157
-0.0230444
-0.0626501
0.142023
0.128526
0.116876
0.107651
0.100944
0.0964365
0.0936187
0.0919686
0.0910594
0.0905866
0.0903527
0.0902417
0.0901906
0.0901672
0.0901561
0.0901502
0.0901465
0.0901435
0.0901402
0.0901349
0.0901236
0.0900971
0.0900338
0.0898865
0.0895573
0.0888544
0.0874259
0.0846704
0.0796529
0.0710816
0.0573821
0.0369881
0.00893197
-0.0264949
-0.0675398
0.144524
0.130553
0.118501
0.108951
0.102007
0.097341
0.0944224
0.0927126
0.0917697
0.0912788
0.0910356
0.0909197
0.090866
0.0908411
0.090829
0.0908225
0.0908182
0.0908147
0.090811
0.0908052
0.0907934
0.0907657
0.0906999
0.0905472
0.090206
0.0894778
0.0879982
0.085145
0.0799513
0.0710807
0.0569029
0.0357992
0.00675242
-0.0299193
-0.0723674
0.147015
0.132575
0.120106
0.110233
0.103056
0.09823
0.0952132
0.0934456
0.0924706
0.0919625
0.0917102
0.0915894
0.0915327
0.0915057
0.0914918
0.0914835
0.0914776
0.0914725
0.0914671
0.0914597
0.091446
0.091416
0.0913467
0.0911877
0.090834
0.0900806
0.0885507
0.0856012
0.0802326
0.0710636
0.056409
0.0345894
0.00455284
-0.0333713
-0.0772923
0.149497
0.134587
0.121716
0.111519
0.104103
0.09912
0.0960046
0.0941781
0.0931703
0.0926448
0.0923835
0.092258
0.0921986
0.0921698
0.0921545
0.0921449
0.0921375
0.0921309
0.0921238
0.0921144
0.0920983
0.0920652
0.0919912
0.0918241
0.0914557
0.0906739
0.0890898
0.0860392
0.0804902
0.0710152
0.055876
0.0333321
0.00231668
-0.0368364
-0.0821945
0.15199
0.136604
0.123319
0.112796
0.105147
0.100005
0.0967884
0.0949034
0.093863
0.0933203
0.0930502
0.0929203
0.0928585
0.0928283
0.0928121
0.0928017
0.0927937
0.0927863
0.0927785
0.0927684
0.0927513
0.0927166
0.0926398
0.0924669
0.0920863
0.0912792
0.0896441
0.0864961
0.0807702
0.070994
0.055375
0.0321276
0.000121635
-0.0402785
-0.0870472
0.154485
0.138627
0.124929
0.114085
0.106197
0.100895
0.0975796
0.0956361
0.0945632
0.0940033
0.0937244
0.0935899
0.0935257
0.093494
0.0934767
0.0934654
0.0934566
0.0934484
0.0934398
0.0934287
0.0934104
0.093374
0.093294
0.093115
0.0927217
0.0918887
0.090202
0.0869553
0.0810517
0.0709749
0.0548738
0.0309021
-0.00209243
-0.0437333
-0.0919209
0.156962
0.140621
0.126516
0.115347
0.107227
0.101769
0.0983561
0.0963553
0.0952512
0.0946754
0.0943888
0.0942509
0.0941853
0.0941532
0.0941359
0.0941248
0.0941163
0.0941085
0.0941004
0.0940899
0.0940721
0.0940358
0.0939549
0.0937724
0.0933696
0.0925143
0.0907805
0.0874407
0.081365
0.0709906
0.05441
0.0297258
-0.00424205
-0.0471527
-0.096863
0.159454
0.142625
0.128112
0.11662
0.108263
0.102649
0.0991371
0.0970787
0.0959431
0.095351
0.0950566
0.0949152
0.0948483
0.0948159
0.0947987
0.094788
0.0947799
0.0947727
0.094765
0.0947549
0.0947373
0.0947006
0.094618
0.0944307
0.0940166
0.0931368
0.0913528
0.0879158
0.0816629
0.0709851
0.0539233
0.02852
-0.00643333
-0.050539
-0.101627
0.161912
0.14462
0.12971
0.117895
0.109302
0.103527
0.0999155
0.0977988
0.096631
0.0960222
0.0957196
0.0955744
0.0955059
0.0954729
0.0954557
0.0954451
0.0954372
0.0954302
0.0954228
0.0954129
0.0953954
0.0953582
0.0952739
0.0950821
0.0946571
0.0937533
0.0919199
0.0883872
0.0819594
0.0709826
0.053439
0.0273239
-0.00861327
-0.0540031
-0.106576
0.164399
0.14662
0.131284
0.119146
0.110323
0.104392
0.100684
0.0985118
0.097314
0.0966902
0.0963807
0.0962328
0.0961635
0.0961306
0.0961136
0.0961035
0.096096
0.0960893
0.0960823
0.0960726
0.096055
0.0960172
0.0959309
0.095734
0.0952976
0.0943692
0.0924857
0.0888568
0.0822546
0.0709801
0.052959
0.0261253
-0.0107979
-0.0574279
-0.111425
0.166859
0.148622
0.132895
0.120432
0.111369
0.105278
0.101469
0.0992372
0.098006
0.0973644
0.0970459
0.0968934
0.0968218
0.0967876
0.0967699
0.0967593
0.0967514
0.0967444
0.0967368
0.0967265
0.0967081
0.0966688
0.0965797
0.0963769
0.0959282
0.0949743
0.0930396
0.0893125
0.0825326
0.0709564
0.0524579
0.0249195
-0.0129884
-0.060838
-0.116264
0.169323
0.150617
0.134468
0.121683
0.112389
0.106142
0.102236
0.0999475
0.0986862
0.0980298
0.0977045
0.0975494
0.097477
0.0974428
0.0974256
0.0974153
0.0974079
0.0974014
0.0973942
0.0973842
0.0973658
0.097326
0.0972351
0.0970276
0.0965677
0.0955897
0.0936061
0.0897839
0.082829
0.0709512
0.051969
0.0237079
-0.0151877
-0.0643073
-0.121191
0.1718
0.152628
0.136085
0.122971
0.113435
0.107029
0.103023
0.100675
0.0993805
0.0987061
0.0983714
0.0982115
0.0981366
0.0981012
0.0980832
0.0980726
0.098065
0.0980584
0.0980514
0.0980414
0.0980228
0.0979823
0.0978893
0.0976768
0.097205
0.0962013
0.0941658
0.0902441
0.0831092
0.0709267
0.0514625
0.0224832
-0.0173879
-0.0677283
-0.126032
0.174278
0.154634
0.137673
0.124241
0.114471
0.107905
0.103799
0.101393
0.100067
0.0993759
0.0990334
0.0988702
0.0987942
0.0987586
0.098741
0.098731
0.0987241
0.0987184
0.0987122
0.0987031
0.0986853
0.0986453
0.0985517
0.0983359
0.0978553
0.0968305
0.0947491
0.0907363
0.0834334
0.0709593
0.0510202
0.0213344
-0.0195269
-0.0711144
-0.130913
0.176748
0.15662
0.139251
0.125492
0.115489
0.108767
0.104564
0.102101
0.100743
0.100036
0.0996858
0.0995188
0.0994409
0.0994043
0.0993859
0.0993752
0.0993675
0.0993607
0.0993532
0.0993423
0.0993222
0.0992789
0.09918
0.0989552
0.0984581
0.0974029
0.0952645
0.091147
0.0836582
0.0708731
0.0504446
0.0200257
-0.021829
-0.0746155
-0.135782
0.17923
0.158629
0.140851
0.12677
0.116527
0.109644
0.105341
0.10282
0.10143
0.100706
0.100348
0.100178
0.100099
0.100062
0.100045
0.100035
0.100029
0.100024
0.100018
0.100009
0.0999906
0.0999488
0.0998506
0.0996237
0.0991181
0.0980413
0.0958561
0.0916451
0.0839827
0.0708978
0.049995
0.0188779
-0.023942
-0.0780576
-0.140708
0.181693
0.160611
0.142414
0.128007
0.117536
0.110498
0.106099
0.103521
0.102101
0.101363
0.100998
0.100825
0.100745
0.100709
0.100692
0.100683
0.100678
0.100674
0.10067
0.100662
0.100645
0.100605
0.100507
0.100278
0.099765
0.0986683
0.0964388
0.0921381
0.0843092
0.0709351
0.0495559
0.017726
-0.0260867
-0.0814057
-0.145465
0.184163
0.162598
0.144005
0.129276
0.118565
0.111367
0.106868
0.104232
0.10278
0.102025
0.101652
0.101475
0.101394
0.101357
0.10134
0.101331
0.101326
0.101322
0.101317
0.101309
0.101291
0.101248
0.101147
0.100911
0.100384
0.0992595
0.0969761
0.092574
0.0845631
0.0708817
0.0490147
0.0164539
-0.0283486
-0.0848949
-0.150424
0.186624
0.164586
0.145567
0.130517
0.119574
0.11222
0.107623
0.104931
0.103448
0.102678
0.102298
0.102118
0.102036
0.102
0.101983
0.101975
0.10197
0.101966
0.101962
0.101954
0.101936
0.101892
0.101789
0.101547
0.101008
0.0998587
0.0975237
0.0930231
0.0848337
0.0708488
0.0485044
0.0152424
-0.0305337
-0.0883356
-0.155258
0.18905
0.166572
0.147153
0.131777
0.120598
0.113086
0.10839
0.10564
0.104126
0.10334
0.102952
0.10277
0.102687
0.10265
0.102634
0.102627
0.102624
0.102621
0.102618
0.102612
0.102596
0.102554
0.102451
0.102207
0.10166
0.10049
0.0981106
0.0935197
0.0851619
0.0708829
0.0480582
0.0140749
-0.0326935
-0.0917429
-0.160131
0.191534
0.168558
0.148735
0.133038
0.121622
0.113949
0.109154
0.106347
0.104801
0.103999
0.103603
0.103417
0.103333
0.103296
0.10328
0.103273
0.10327
0.103267
0.103265
0.103259
0.103242
0.1032
0.103095
0.102847
0.102288
0.101094
0.0986634
0.093975
0.0854402
0.0708598
0.0475558
0.0128585
-0.0348939
-0.0952108
-0.165047
0.194011
0.170566
0.150331
0.134306
0.122657
0.114828
0.109933
0.107067
0.105488
0.104668
0.104264
0.104073
0.103986
0.103947
0.10393
0.103923
0.103919
0.103916
0.103913
0.103906
0.103889
0.103846
0.103738
0.103484
0.102914
0.101695
0.0992146
0.0944298
0.0857197
0.0708396
0.0470561
0.0116449
-0.0370909
-0.0986129
-0.169885
0.196481
0.172572
0.151928
0.135578
0.12369
0.115703
0.110708
0.107782
0.106169
0.10533
0.104916
0.10472
0.104631
0.104591
0.104573
0.104564
0.104559
0.104556
0.104553
0.104545
0.104527
0.104482
0.104371
0.104112
0.103529
0.102284
0.0997518
0.0948687
0.0859809
0.0707947
0.0465259
0.0103956
-0.0393244
-0.102103
-0.174787
0.198974
0.174562
0.153499
0.13683
0.124705
0.116555
0.111463
0.10848
0.106837
0.105984
0.105563
0.105364
0.105273
0.105233
0.105215
0.105207
0.105202
0.105199
0.105195
0.105187
0.105168
0.105121
0.105007
0.10474
0.104144
0.102872
0.100286
0.0953029
0.0862348
0.0707442
0.0459936
0.00914351
-0.0415646
-0.105551
-0.179658
0.201393
0.176508
0.155043
0.138051
0.125702
0.117399
0.112209
0.109171
0.107498
0.10663
0.106203
0.106002
0.105911
0.105872
0.105855
0.105848
0.105845
0.105842
0.10584
0.105833
0.105815
0.105768
0.105653
0.105383
0.104777
0.103482
0.100849
0.0957717
0.0865313
0.0707479
0.0455211
0.00795723
-0.0437385
-0.109017
-0.184666
0.203848
0.178496
0.156646
0.139326
0.126736
0.118276
0.112988
0.10989
0.108185
0.1073
0.106865
0.10666
0.106567
0.106527
0.10651
0.106503
0.1065
0.106498
0.106496
0.10649
0.106472
0.106426
0.106309
0.106035
0.105419
0.104101
0.101419
0.0962467
0.0868315
0.0707453
0.045038
0.00676047
-0.0459085
-0.112452
-0.189494
0.206342
0.180511
0.158236
0.140594
0.127766
0.119147
0.113759
0.110604
0.108867
0.107966
0.107523
0.107315
0.107221
0.107181
0.107165
0.107159
0.107156
0.107156
0.107155
0.10715
0.107133
0.107087
0.106971
0.106693
0.106068
0.104728
0.101998
0.0967312
0.0871404
0.0707505
0.0445558
0.00557084
-0.0480808
-0.115806
-0.194323
0.208833
0.182517
0.159822
0.14186
0.128798
0.120018
0.114534
0.111323
0.109556
0.108641
0.108191
0.10798
0.107886
0.107846
0.107831
0.107825
0.107824
0.107824
0.107824
0.107819
0.107803
0.107756
0.107638
0.107355
0.106718
0.105353
0.102573
0.0972076
0.0874414
0.0707567
0.04409
0.00438357
-0.0502635
-0.119263
-0.199223
0.211301
0.18453
0.161441
0.143151
0.129856
0.120921
0.115335
0.112064
0.110264
0.10933
0.108871
0.108655
0.108558
0.108517
0.108499
0.108493
0.108491
0.10849
0.108489
0.108483
0.108466
0.108418
0.108296
0.108008
0.107359
0.10597
0.103141
0.0976815
0.087741
0.0707549
0.0436059
0.00318709
-0.0524461
-0.122745
-0.204167
0.213797
0.18656
0.163061
0.144448
0.130914
0.121823
0.116139
0.112811
0.110979
0.110029
0.109562
0.109343
0.109245
0.109203
0.109187
0.109181
0.109179
0.109179
0.109179
0.109174
0.109157
0.109108
0.108985
0.108691
0.108029
0.106613
0.103732
0.0981711
0.0880482
0.0707548
0.0431223
0.00197614
-0.0546254
-0.126077
-0.208862
0.216316
0.188591
0.164689
0.145754
0.131983
0.122729
0.116946
0.113559
0.111696
0.110729
0.110254
0.110032
0.109933
0.109891
0.109875
0.10987
0.109869
0.10987
0.10987
0.109865
0.109849
0.1098
0.109676
0.109379
0.108707
0.107269
0.104339
0.0986845
0.0883909
0.0708038
0.0426964
0.000854866
-0.0567431
-0.129467
-0.213661
0.218834
0.190628
0.166296
0.147039
0.133041
0.123633
0.117753
0.114312
0.112419
0.111438
0.110957
0.110733
0.110634
0.110593
0.110577
0.110573
0.110573
0.110574
0.110575
0.110571
0.110554
0.110505
0.110378
0.110075
0.109392
0.107927
0.104945
0.0991913
0.0887176
0.070822
0.0422219
-0.000355736
-0.0589465
-0.13289
-0.21853
0.221339
0.192674
0.167963
0.148379
0.134137
0.124568
0.118588
0.115088
0.113162
0.112165
0.111675
0.111447
0.111346
0.111305
0.11129
0.111286
0.111287
0.11129
0.111292
0.11129
0.111274
0.111226
0.1111
0.110794
0.110102
0.108615
0.105586
0.0997391
0.0890947
0.0709052
0.0418323
-0.00144822
-0.0610014
-0.136245
-0.223432
0.223876
0.194734
0.169606
0.1497
0.135224
0.125496
0.119417
0.115859
0.113902
0.112889
0.112393
0.112162
0.112061
0.112021
0.112007
0.112005
0.112008
0.112012
0.112015
0.112014
0.112
0.111952
0.111824
0.111514
0.11081
0.109298
0.106219
0.100275
0.0894545
0.0709642
0.0414098
-0.00259037
-0.0631429
-0.13957
-0.228036
0.226405
0.196776
0.171219
0.150989
0.136286
0.126405
0.120231
0.11662
0.114635
0.113609
0.113108
0.112876
0.112776
0.112737
0.112725
0.112724
0.112729
0.112735
0.11274
0.11274
0.112727
0.11268
0.112552
0.112238
0.111526
0.109992
0.106865
0.100827
0.0898326
0.0710435
0.0410127
-0.00369792
-0.0652299
-0.142975
-0.233045
0.228912
0.198831
0.172905
0.152349
0.137404
0.127361
0.121085
0.117415
0.115397
0.114354
0.113845
0.11361
0.113509
0.11347
0.113459
0.11346
0.113466
0.113474
0.113481
0.113483
0.113471
0.113425
0.113296
0.112979
0.112255
0.110698
0.107522
0.101388
0.0902187
0.0711291
0.0406171
-0.00480998
-0.0673317
-0.146263
-0.23771
0.231469
0.2009
0.17454
0.153665
0.138488
0.12829
0.121918
0.118191
0.116144
0.115087
0.114571
0.114334
0.114232
0.114194
0.114184
0.114186
0.114193
0.114201
0.114209
0.114212
0.114201
0.114155
0.114025
0.113704
0.11297
0.111389
0.108164
0.101934
0.0905881
0.0711969
0.0402049
-0.0059367
-0.0694456
-0.149648
-0.242532
0.234012
0.202977
0.17622
0.155015
0.139601
0.129244
0.122773
0.118989
0.11691
0.115836
0.115312
0.115072
0.114969
0.11493
0.114921
0.114923
0.114931
0.11494
0.114949
0.114953
0.114943
0.114896
0.114765
0.11444
0.113695
0.112091
0.108817
0.102492
0.0909721
0.0712816
0.0398093
-0.00704786
-0.071535
-0.152975
-0.247371
0.236568
0.205062
0.177896
0.156367
0.140715
0.130197
0.123626
0.119782
0.11767
0.116579
0.116046
0.115801
0.115696
0.115657
0.115647
0.11565
0.115657
0.115667
0.115676
0.115679
0.115669
0.115622
0.115489
0.115159
0.114403
0.112775
0.109451
0.10303
0.0913372
0.0713483
0.039398
-0.008171
-0.0736469
-0.15634
-0.252133
0.239109
0.207124
0.179535
0.157685
0.141801
0.131128
0.12446
0.120561
0.118419
0.117313
0.116773
0.116525
0.116419
0.11638
0.11637
0.116372
0.11638
0.11639
0.116399
0.116403
0.116392
0.116345
0.116209
0.115874
0.115107
0.113453
0.110079
0.103561
0.0916918
0.0714013
0.0389685
-0.00931757
-0.0757769
-0.159706
-0.256858
0.241615
0.20916
0.181186
0.159011
0.142891
0.132058
0.12529
0.121332
0.119156
0.118032
0.117483
0.117231
0.117123
0.117082
0.117071
0.117073
0.117081
0.11709
0.117098
0.117102
0.11709
0.117041
0.116903
0.116562
0.115783
0.114105
0.11068
0.104064
0.0920168
0.0714242
0.0385131
-0.010486
-0.0779425
-0.163122
-0.261717
0.244132
0.211204
0.182812
0.160316
0.14396
0.132969
0.126103
0.122086
0.11988
0.118739
0.118182
0.117925
0.117815
0.117773
0.117761
0.117762
0.117769
0.117778
0.117785
0.117788
0.117775
0.117725
0.117583
0.117236
0.116445
0.11474
0.111264
0.10455
0.0923227
0.071426
0.0380296
-0.0116905
-0.0801157
-0.166516
-0.266559
0.246624
0.213231
0.18443
0.161606
0.145015
0.133866
0.126901
0.122827
0.120587
0.119429
0.118862
0.1186
0.118487
0.118443
0.118429
0.118429
0.118434
0.118441
0.118446
0.118447
0.118432
0.118378
0.118232
0.117878
0.117072
0.11534
0.111812
0.104999
0.0925899
0.0713896
0.0375173
-0.0129145
-0.082335
-0.169934
-0.271489
0.249115
0.21524
0.18604
0.162891
0.14606
0.13475
0.127684
0.12355
0.121277
0.1201
0.119525
0.119259
0.119143
0.119098
0.119084
0.119083
0.119088
0.119094
0.1191
0.1191
0.119085
0.11903
0.118882
0.118522
0.117705
0.115949
0.112369
0.105458
0.0928741
0.0713723
0.0370135
-0.0141351
-0.0845279
-0.173388
-0.276348
0.251577
0.217227
0.187579
0.164109
0.147047
0.135581
0.128417
0.124228
0.121925
0.120733
0.12015
0.119881
0.119764
0.119718
0.119704
0.119703
0.119708
0.119714
0.11972
0.11972
0.119704
0.119648
0.119498
0.119133
0.118304
0.116521
0.11289
0.105882
0.0931229
0.0713203
0.03648
-0.015397
-0.0867839
-0.176851
-0.281113
0.25398
0.219179
0.18913
0.165335
0.148034
0.13641
0.129147
0.1249
0.122565
0.121357
0.120767
0.120494
0.120376
0.12033
0.120316
0.120316
0.120321
0.120329
0.120335
0.120336
0.120321
0.120266
0.120116
0.119748
0.11891
0.117107
0.113431
0.106333
0.0934057
0.0713093
0.0359972
-0.0165733
-0.0889413
-0.180402
-0.286302
0.256361
0.221088
0.190645
0.166527
0.148992
0.137208
0.129846
0.12554
0.123172
0.121947
0.121348
0.121071
0.120951
0.120904
0.120889
0.120889
0.120894
0.120901
0.120908
0.120908
0.120893
0.120837
0.120684
0.12031
0.11946
0.117631
0.113902
0.106703
0.093596
0.0711957
0.0354003
-0.0178895
-0.091229
-0.183836
-0.29113
0.258699
0.222971
0.192126
0.167683
0.149913
0.137966
0.130506
0.126142
0.123743
0.122502
0.121896
0.121616
0.121496
0.12145
0.121437
0.121438
0.121445
0.121455
0.121463
0.121466
0.121453
0.121399
0.121247
0.120872
0.120013
0.118163
0.114388
0.107096
0.0938175
0.071121
0.034848
-0.0191556
-0.0934887
-0.187337
-0.296142
0.261025
0.224807
0.193545
0.168779
0.150774
0.138674
0.131114
0.126693
0.124263
0.123006
0.122392
0.122108
0.121986
0.121939
0.121926
0.121927
0.121934
0.121943
0.121951
0.121953
0.12194
0.121884
0.12173
0.121349
0.120478
0.118604
0.114778
0.10739
0.0939366
0.0709401
0.0341876
-0.0205229
-0.0958325
-0.190938
-0.301191
0.26332
0.226609
0.194932
0.169845
0.15161
0.139349
0.131688
0.127209
0.124748
0.123475
0.122854
0.122567
0.122444
0.122397
0.122384
0.122385
0.122393
0.122403
0.122412
0.122415
0.122402
0.122347
0.122192
0.121807
0.120927
0.119028
0.115153
0.10767
0.0940417
0.0707462
0.0335135
-0.0219195
-0.0982164
-0.194535
-0.306158
0.265539
0.228363
0.196286
0.170872
0.152394
0.139974
0.132214
0.127676
0.125181
0.12389
0.123258
0.122966
0.12284
0.122791
0.122776
0.122776
0.122782
0.122791
0.122798
0.1228
0.122786
0.122728
0.122569
0.122178
0.121284
0.11936
0.115434
0.107853
0.094048
0.0704507
0.0327351
-0.0234178
-0.100707
-0.198324
-0.311354
0.267711
0.230069
0.19759
0.171855
0.153136
0.140559
0.132698
0.128099
0.125571
0.124262
0.123622
0.123326
0.123198
0.123148
0.123133
0.123133
0.123139
0.123148
0.123156
0.123158
0.123143
0.123084
0.122923
0.122525
0.121619
0.11967
0.115694
0.108014
0.0940311
0.0701314
0.0319358
-0.0249268
-0.103182
-0.201984
-0.316446
0.269817
0.231697
0.198786
0.172726
0.153783
0.141057
0.133105
0.128451
0.125891
0.124567
0.123919
0.123619
0.123489
0.123438
0.123423
0.123422
0.123428
0.123435
0.123441
0.123441
0.123424
0.123363
0.123196
0.122792
0.121872
0.119894
0.115865
0.108086
0.0939204
0.0697174
0.0310432
-0.0265477
-0.105804
-0.205798
-0.321576
0.271875
0.233279
0.199974
0.173589
0.154411
0.141513
0.133456
0.128747
0.126161
0.124824
0.124172
0.123871
0.123743
0.123693
0.12368
0.123681
0.123688
0.123697
0.123704
0.123704
0.123687
0.123624
0.123455
0.123045
0.122113
0.120111
0.116029
0.108151
0.0938105
0.0693084
0.0301565
-0.0281313
-0.108375
-0.209715
-0.32697
0.273901
0.234822
0.201122
0.174409
0.154994
0.141945
0.133791
0.129022
0.126401
0.125047
0.124385
0.124079
0.123948
0.123898
0.123884
0.123885
0.123892
0.1239
0.123907
0.123907
0.12389
0.123827
0.123657
0.123242
0.122299
0.120272
0.116141
0.108167
0.0936524
0.0688493
0.0292111
-0.0298021
-0.111027
-0.21353
-0.332164
0.275935
0.236344
0.202199
0.175167
0.155517
0.14232
0.134074
0.12925
0.126599
0.125228
0.12456
0.124252
0.124121
0.124072
0.12406
0.124063
0.124072
0.124083
0.124093
0.124096
0.124081
0.12402
0.123851
0.123434
0.122483
0.120436
0.11626
0.108197
0.093512
0.0684133
0.0282977
-0.031439
-0.113643
-0.217466
-0.337766
0.277853
0.237798
0.203251
0.175899
0.156012
0.142641
0.134289
0.129408
0.126727
0.125342
0.124668
0.124358
0.124227
0.124178
0.124166
0.12417
0.124181
0.124193
0.124204
0.124209
0.124195
0.124136
0.123967
0.123548
0.122589
0.120521
0.116299
0.108142
0.093285
0.0678852
0.0272892
-0.03314
-0.116325
-0.221407
-0.343177
0.27971
0.239195
0.204255
0.176577
0.156457
0.142934
0.134485
0.129546
0.126831
0.125429
0.124746
0.124432
0.124299
0.12425
0.124238
0.124242
0.124253
0.124266
0.124278
0.124283
0.12427
0.12421
0.124039
0.123615
0.122644
0.12055
0.116277
0.108022
0.0929843
0.0672831
0.0262079
-0.034952
-0.119132
-0.225342
-0.3484
0.281535
0.240539
0.205199
0.177195
0.15684
0.14316
0.134612
0.129614
0.126868
0.125449
0.124758
0.12444
0.124304
0.124254
0.124241
0.124245
0.124256
0.124269
0.124281
0.124286
0.124273
0.124213
0.124041
0.123613
0.122631
0.120514
0.116194
0.107846
0.092639
0.066648
0.0250982
-0.0367733
-0.12194
-0.229515
-0.354121
0.28335
0.241861
0.206084
0.17776
0.15717
0.143337
0.134696
0.12964
0.126862
0.125427
0.124727
0.124406
0.12427
0.12422
0.124209
0.124214
0.124226
0.12424
0.124253
0.12426
0.124248
0.124188
0.124014
0.123582
0.12259
0.120449
0.116078
0.107634
0.0922524
0.0659612
0.0239299
-0.0386534
-0.124788
-0.233546
-0.359619
0.285064
0.243117
0.206935
0.178286
0.157464
0.143473
0.134727
0.129614
0.126804
0.125353
0.124647
0.124322
0.124184
0.124133