/*--------------------------------*- C++ -*----------------------------------*\
  =========                 |
  \\      /  F ield         | OpenFOAM: The Open Source CFD Toolbox
   \\    /   O peration     | Website:  https://openfoam.org
    \\  /    A nd           | Version:  13
     \\/     M anipulation  |
\*---------------------------------------------------------------------------*/
FoamFile
{
    format      ascii;
    class       surfaceScalarField;
    location    "3";
    object      phi;
}
// * * * * * * * * * * * * * * * * * * * * * * * * * * * * * * * * * * * * * //

dimensions      [0 3 -1 0 0 0 0];

internalField   nonuniform List<scalar> 
228225
(
9.80393e-07
-2.05628e-06
-1.04011e-07
4.29217e-06
-3.18756e-06
-1.2984e-07
7.01475e-06
-2.66829e-06
-5.83051e-08
8.95932e-06
-1.82272e-06
-1.25575e-07
1.00822e-05
-9.26126e-07
-1.99818e-07
1.0616e-05
-3.52075e-07
-1.83727e-07
1.08813e-05
-1.03331e-07
-1.63708e-07
1.10596e-05
-5.09494e-08
-1.28731e-07
1.11903e-05
-1.13994e-08
-1.19903e-07
1.13038e-05
-5.47036e-09
-1.08144e-07
1.14088e-05
9.08046e-10
-1.05586e-07
1.15263e-05
-3.49496e-09
-1.13211e-07
1.16411e-05
-9.03947e-09
-1.04794e-07
1.17522e-05
-3.00339e-08
-7.98871e-08
1.18654e-05
-5.36301e-08
-5.82202e-08
1.19966e-05
-7.26067e-08
-5.64221e-08
1.21525e-05
-9.4941e-08
-5.76922e-08
1.22997e-05
-1.14702e-07
-2.93852e-08
1.2448e-05
-1.32423e-07
-1.30017e-08
1.25877e-05
-1.43488e-07
6.82429e-09
1.27161e-05
-1.52907e-07
2.78643e-08
1.28447e-05
-1.67147e-07
4.19234e-08
1.29685e-05
-1.75125e-07
5.58128e-08
1.30892e-05
-1.84674e-07
6.99949e-08
1.32054e-05
-1.91876e-07
8.21136e-08
1.33086e-05
-1.89274e-07
9.34883e-08
1.33875e-05
-1.75815e-07
1.05506e-07
1.33952e-05
-1.15959e-07
1.15298e-07
1.33327e-05
-3.79105e-08
1.07537e-07
1.30272e-05
2.00518e-07
1.14877e-07
1.23583e-05
5.57717e-07
1.23702e-07
1.08831e-05
1.34651e-06
1.41879e-07
8.16431e-06
2.57468e-06
1.62925e-07
4.197e-06
3.81327e-06
1.78627e-07
4.04384e-06
1.5332e-07
5.82008e-07
-2.63856e-06
-1.87961e-08
1.21282e-06
-3.80932e-06
-2.59873e-08
1.82425e-06
-3.2614e-06
-3.57182e-08
2.28873e-06
-2.27386e-06
-3.01874e-08
2.56251e-06
-1.2227e-06
1.08969e-08
2.78933e-06
-6.09146e-07
2.33792e-08
3.00338e-06
-3.46737e-07
2.51252e-08
3.17103e-06
-2.43024e-07
2.13964e-08
3.33981e-06
-1.97501e-07
1.52533e-08
3.50113e-06
-1.78876e-07
1.10808e-08
3.66731e-06
-1.75208e-07
9.63928e-09
3.82694e-06
-1.74094e-07
1.12244e-08
3.98202e-06
-1.78116e-07
1.47013e-08
4.12238e-06
-1.8824e-07
1.89757e-08
4.25099e-06
-2.04e-07
2.35123e-08
4.37599e-06
-2.23438e-07
2.81535e-08
4.49302e-06
-2.42216e-07
3.27029e-08
4.6048e-06
-2.61157e-07
3.71634e-08
4.71555e-06
-2.8247e-07
4.17716e-08
4.83121e-06
-3.03347e-07
4.67029e-08
4.95277e-06
-3.23535e-07
5.15705e-08
5.07772e-06
-3.45764e-07
5.63363e-08
5.2126e-06
-3.68377e-07
6.11874e-08
5.35456e-06
-3.90044e-07
6.62786e-08
5.50288e-06
-4.09088e-07
7.17753e-08
5.66002e-06
-4.21284e-07
7.77613e-08
5.81914e-06
-4.16641e-07
8.41753e-08
5.98468e-06
-3.71518e-07
9.19379e-08
6.09847e-06
-2.51932e-07
1.02056e-07
6.17702e-06
8.19022e-09
1.16332e-07
6.03569e-06
5.64124e-07
1.38507e-07
5.40389e-06
1.81191e-06
1.70219e-07
3.9407e-06
3.85422e-06
1.87255e-07
1.57281e-06
6.01334e-06
1.72664e-07
5.48159e-06
1.35565e-07
1.13162e-07
-2.80841e-06
2.39496e-08
4.33115e-07
-4.14494e-06
-1.27878e-08
6.60905e-07
-3.49284e-06
-2.54661e-08
7.5919e-07
-2.3936e-06
-8.64922e-09
8.54611e-07
-1.34429e-06
2.23358e-09
9.55632e-07
-7.30022e-07
4.5096e-09
1.08827e-06
-4.93942e-07
3.55033e-09
1.23166e-06
-3.97754e-07
2.26831e-09
1.37661e-06
-3.51969e-07
1.69838e-09
1.52149e-06
-3.32586e-07
1.90954e-09
1.66731e-06
-3.30176e-07
2.94975e-09
1.81766e-06
-3.34699e-07
4.80098e-09
1.96851e-06
-3.41038e-07
7.31056e-09
2.11509e-06
-3.4919e-07
1.02808e-08
2.2533e-06
-3.59222e-07
1.35754e-08
2.38076e-06
-3.7083e-07
1.71125e-08
2.49918e-06
-3.83679e-07
2.0842e-08
2.60952e-06
-3.97827e-07
2.47316e-08
2.71064e-06
-4.13319e-07
2.87526e-08
2.80407e-06
-4.30023e-07
3.28928e-08
2.89163e-06
-4.47935e-07
3.71494e-08
2.97269e-06
-4.67422e-07
4.15729e-08
3.04733e-06
-4.87592e-07
4.62299e-08
3.11592e-06
-5.07517e-07
5.1234e-08
3.17814e-06
-5.251e-07
5.68471e-08
3.23195e-06
-5.35057e-07
6.34552e-08
3.27507e-06
-5.27545e-07
7.15297e-08
3.30924e-06
-4.83752e-07
8.25965e-08
3.33016e-06
-3.64305e-07
9.83419e-08
3.28135e-06
-5.20999e-08
1.20984e-07
3.04102e-06
6.72065e-07
1.50428e-07
2.50185e-06
2.18958e-06
1.80792e-07
1.64623e-06
4.53192e-06
1.96814e-07
7.03723e-07
6.78896e-06
1.86155e-07
6.03609e-06
1.48931e-07
-5.30094e-08
-2.8448e-06
3.15892e-08
9.66141e-08
-4.33713e-06
-5.97092e-09
2.87622e-07
-3.71206e-06
-2.05194e-08
4.988e-07
-2.64447e-06
-1.18545e-08
7.17897e-07
-1.60614e-06
-8.81531e-10
8.93944e-07
-9.36752e-07
2.37499e-09
1.05133e-06
-6.71957e-07
1.22161e-09
1.19754e-06
-5.59993e-07
-3.1573e-10
1.33424e-06
-5.02199e-07
-1.12324e-09
1.4627e-06
-4.72984e-07
-1.28238e-09
1.58181e-06
-4.60854e-07
-8.06225e-10
1.69235e-06
-4.57353e-07
4.23696e-10
1.79505e-06
-4.5693e-07
2.2515e-09
1.88947e-06
-4.58433e-07
4.55951e-09
1.97578e-06
-4.62367e-07
7.2048e-09
2.05458e-06
-4.68789e-07
1.00962e-08
2.1266e-06
-4.77443e-07
1.32231e-08
2.19226e-06
-4.88115e-07
1.6594e-08
2.25175e-06
-5.00566e-07
2.01574e-08
2.3052e-06
-5.14529e-07
2.38815e-08
2.35258e-06
-5.29829e-07
2.77548e-08
2.39353e-06
-5.46565e-07
3.17746e-08
2.42788e-06
-5.64031e-07
3.59818e-08
2.45516e-06
-5.8109e-07
4.04541e-08
2.47457e-06
-5.95253e-07
4.53614e-08
2.48445e-06
-6.00742e-07
5.10161e-08
2.48185e-06
-5.87623e-07
5.8511e-08
2.46099e-06
-5.35787e-07
6.91134e-08
2.41769e-06
-4.09721e-07
8.42692e-08
2.32061e-06
-6.87268e-08
1.07043e-07
2.06961e-06
7.77023e-07
1.37397e-07
1.62217e-06
2.46235e-06
1.66294e-07
1.00099e-06
4.95947e-06
1.83035e-07
2.72189e-07
7.33256e-06
1.74034e-07
6.18121e-06
1.26854e-07
-6.96579e-09
-2.93945e-06
2.27587e-08
1.31249e-07
-4.51453e-06
-2.62347e-08
2.58661e-07
-3.86548e-06
-3.92213e-08
3.61517e-07
-2.78681e-06
-2.92066e-08
4.68276e-07
-1.7547e-06
-1.72007e-08
5.76845e-07
-1.07338e-06
-1.13503e-08
6.75784e-07
-7.89213e-07
-9.26992e-09
7.66459e-07
-6.65879e-07
-8.19714e-09
8.5286e-07
-6.02882e-07
-7.23398e-09
9.37745e-07
-5.71358e-07
-6.28749e-09
1.01985e-06
-5.56061e-07
-5.15513e-09
1.09806e-06
-5.49102e-07
-3.69779e-09
1.17297e-06
-5.46319e-07
-1.82542e-09
1.24463e-06
-5.45704e-07
3.32805e-10
1.31258e-06
-5.47398e-07
2.73592e-09
1.37618e-06
-5.51173e-07
5.3278e-09
1.43492e-06
-5.56889e-07
8.10295e-09
1.4889e-06
-5.64923e-07
1.10541e-08
1.53828e-06
-5.7509e-07
1.41597e-08
1.58311e-06
-5.86982e-07
1.74048e-08
1.62341e-06
-6.00363e-07
2.07835e-08
1.6589e-06
-6.15049e-07
2.42969e-08
1.68953e-06
-6.30565e-07
2.79665e-08
1.71506e-06
-6.45661e-07
3.1863e-08
1.73502e-06
-6.57576e-07
3.61403e-08
1.74871e-06
-6.60629e-07
4.11038e-08
1.75434e-06
-6.44658e-07
4.75795e-08
1.74905e-06
-5.89817e-07
5.6647e-08
1.72651e-06
-4.59054e-07
6.97127e-08
1.66051e-06
-9.48679e-08
8.96886e-08
1.44549e-06
8.72018e-07
1.16981e-07
1.05907e-06
2.70367e-06
1.42408e-07
6.21842e-07
5.23239e-06
1.58662e-07
1.33081e-07
7.65828e-06
1.56158e-07
6.21195e-06
1.01611e-07
-2.73515e-08
-3.02782e-06
1.85928e-08
9.41136e-08
-4.68581e-06
-2.91424e-08
2.23969e-07
-4.03331e-06
-3.99874e-08
3.35101e-07
-2.94842e-06
-3.13265e-08
4.31357e-07
-1.9031e-06
-2.05559e-08
5.13961e-07
-1.19218e-06
-1.46754e-08
5.8381e-07
-8.8234e-07
-1.21213e-08
6.47707e-07
-7.4846e-07
-1.04572e-08
7.08537e-07
-6.81242e-07
-9.03025e-09
7.67015e-07
-6.46954e-07
-7.75808e-09
8.23e-07
-6.29145e-07
-6.44772e-09
8.7563e-07
-6.19206e-07
-4.9599e-09
9.24829e-07
-6.13462e-07
-3.26335e-09
9.70928e-07
-6.1044e-07
-1.39797e-09
1.01332e-06
-6.09681e-07
6.3164e-10
1.05161e-06
-6.10932e-07
2.88419e-09
1.08574e-06
-6.14075e-07
5.24262e-09
1.11557e-06
-6.19595e-07
7.72988e-09
1.14129e-06
-6.27594e-07
1.03396e-08
1.1629e-06
-6.37491e-07
1.30622e-08
1.18026e-06
-6.48866e-07
1.5895e-08
1.19318e-06
-6.615e-07
1.88414e-08
1.20145e-06
-6.74908e-07
2.19209e-08
1.20477e-06
-6.87791e-07
2.51979e-08
1.20287e-06
-6.97279e-07
2.88214e-08
1.19522e-06
-6.97658e-07
3.30753e-08
1.18076e-06
-6.78974e-07
3.86381e-08
1.15681e-06
-6.2206e-07
4.65153e-08
1.11511e-06
-4.88274e-07
5.80897e-08
1.03451e-06
-1.10674e-07
7.59818e-08
8.45496e-07
9.34433e-07
1.00197e-07
5.41336e-07
2.86116e-06
1.21081e-07
1.41798e-07
5.4708e-06
1.33374e-07
5.39372e-08
7.58533e-06
1.34128e-07
6.17816e-06
8.7017e-08
-1.60819e-08
-3.13361e-06
1.06451e-08
7.20765e-08
-4.82834e-06
-3.41872e-08
1.69134e-07
-4.17277e-06
-4.41365e-08
2.51367e-07
-3.08497e-06
-3.63943e-08
3.19438e-07
-2.0281e-06
-2.53288e-08
3.79006e-07
-1.29237e-06
-1.82846e-08
4.27934e-07
-9.57243e-07
-1.46957e-08
4.72154e-07
-8.13263e-07
-1.22507e-08
5.14329e-07
-7.42888e-07
-1.02829e-08
5.54974e-07
-7.06829e-07
-8.66501e-09
5.94053e-07
-6.87375e-07
-7.19758e-09
6.31164e-07
-6.75663e-07
-5.69811e-09
6.65919e-07
-6.68014e-07
-4.10258e-09
6.98227e-07
-6.63046e-07
-2.40246e-09
7.27859e-07
-6.60231e-07
-6.29276e-10
7.54424e-07
-6.59439e-07
1.21656e-09
7.77986e-07
-6.60797e-07
3.18965e-09
7.9859e-07
-6.64586e-07
5.23501e-09
8.1605e-07
-6.70791e-07
7.37084e-09
8.30243e-07
-6.7888e-07
9.58367e-09
8.411e-07
-6.88467e-07
1.18784e-08
8.48537e-07
-6.99319e-07
1.42667e-08
8.52402e-07
-7.10892e-07
1.67694e-08
8.52419e-07
-7.21772e-07
1.94407e-08
8.48248e-07
-7.28925e-07
2.24069e-08
8.39447e-07
-7.26682e-07
2.59167e-08
8.24909e-07
-7.05107e-07
3.05019e-08
8.0239e-07
-6.45902e-07
3.69924e-08
7.65082e-07
-5.09454e-07
4.65938e-08
6.97309e-07
-1.22573e-07
6.16532e-08
5.45634e-07
9.80745e-07
8.26878e-08
2.95659e-07
2.98635e-06
1.01439e-07
9.95233e-08
5.52759e-06
1.14249e-07
2.98906e-08
7.52139e-06
1.07139e-07
6.13672e-06
7.00707e-08
-3.0998e-08
-3.22418e-06
5.78123e-09
3.02563e-08
-4.94596e-06
-3.48253e-08
8.88944e-08
-4.27712e-06
-4.31552e-08
1.37644e-07
-3.18978e-06
-3.69974e-08
1.81706e-07
-2.13091e-06
-2.71184e-08
2.29065e-07
-1.38276e-06
-1.9883e-08
2.69574e-07
-1.02525e-06
-1.57445e-08
3.06057e-07
-8.7117e-07
-1.28575e-08
3.39894e-07
-7.97067e-07
-1.0577e-08
3.71526e-07
-7.58805e-07
-8.7581e-09
4.01166e-07
-7.37443e-07
-7.21364e-09
4.28628e-07
-7.23812e-07
-5.74307e-09
4.53735e-07
-7.14234e-07
-4.2623e-09
4.7633e-07
-7.07353e-07
-2.74586e-09
4.96432e-07
-7.02654e-07
-1.19048e-09
5.13886e-07
-6.9991e-07
3.86613e-10
5.28352e-07
-6.99262e-07
1.99115e-09
5.39816e-07
-7.0119e-07
3.67259e-09
5.48423e-07
-7.05699e-07
5.40851e-09
5.54165e-07
-7.12184e-07
7.20142e-09
5.57032e-07
-7.20231e-07
9.05497e-09
5.56952e-07
-7.29566e-07
1.09818e-08
5.53841e-07
-7.39612e-07
1.3003e-08
5.47654e-07
-7.48881e-07
1.5169e-08
5.38149e-07
-7.54202e-07
1.75857e-08
5.24904e-07
-7.49847e-07
2.048e-08
5.07039e-07
-7.25701e-07
2.42856e-08
4.81773e-07
-6.64217e-07
2.96417e-08
4.40993e-07
-5.25298e-07
3.76419e-08
3.69469e-07
-1.32449e-07
5.04792e-08
2.55649e-07
9.82613e-07
6.87186e-08
1.76306e-07
2.94418e-06
8.55879e-08
1.86666e-07
5.38989e-06
9.57442e-08
2.51239e-08
7.55452e-06
9.13804e-08
6.10451e-06
5.64114e-08
-3.24216e-08
-3.30682e-06
1.05512e-09
1.71888e-08
-5.04486e-06
-4.02329e-08
7.19049e-08
-4.37458e-06
-4.54717e-08
1.18164e-07
-3.29092e-06
-3.76292e-08
1.59791e-07
-2.23049e-06
-2.76397e-08
1.98165e-07
-1.4642e-06
-2.02312e-08
2.28339e-07
-1.08282e-06
-1.58787e-08
2.54913e-07
-9.18656e-07
-1.28919e-08
2.7928e-07
-8.41191e-07
-1.05694e-08
3.02044e-07
-8.01389e-07
-8.74078e-09
3.23526e-07
-7.78837e-07
-7.24159e-09
3.43619e-07
-7.64029e-07
-5.87266e-09
3.62186e-07
-7.53257e-07
-4.54359e-09
3.79099e-07
-7.45176e-07
-3.22157e-09
3.94278e-07
-7.39292e-07
-1.89829e-09
4.07775e-07
-7.3539e-07
-5.7551e-10
4.19456e-07
-7.33481e-07
7.37031e-10
4.29105e-07
-7.34166e-07
2.0567e-09
4.36867e-07
-7.37663e-07
3.42835e-09
4.42941e-07
-7.43303e-07
4.81368e-09
4.47369e-07
-7.50569e-07
6.22989e-09
4.50152e-07
-7.59155e-07
7.6836e-09
4.51354e-07
-7.68504e-07
9.18765e-09
4.5114e-07
-7.77136e-07
1.07776e-08
4.49551e-07
-7.81814e-07
1.25331e-08
4.46576e-07
-7.76763e-07
1.46191e-08
4.42104e-07
-7.51908e-07
1.73411e-08
4.34245e-07
-6.90297e-07
2.11246e-08
4.18063e-07
-5.53507e-07
2.67339e-08
3.90346e-07
-1.68265e-07
3.57345e-08
3.58256e-07
9.35305e-07
4.87401e-08
3.50039e-07
2.86287e-06
6.18006e-08
2.19788e-07
5.41009e-06
7.24872e-08
3.36241e-08
7.6316e-06
7.15706e-08
6.09533e-06
4.17785e-08
-3.04137e-08
-3.38436e-06
9.8195e-11
8.57879e-09
-5.13163e-06
-3.6255e-08
4.95302e-08
-4.45434e-06
-4.36156e-08
7.68859e-08
-3.36816e-06
-3.6521e-08
1.04755e-07
-2.31237e-06
-2.70345e-08
1.29889e-07
-1.53023e-06
-1.9851e-08
1.51399e-07
-1.13015e-06
-1.55071e-08
1.71319e-07
-9.58007e-07
-1.24819e-08
1.89546e-07
-8.77846e-07
-1.0141e-08
2.06452e-07
-8.36954e-07
-8.32154e-09
2.22347e-07
-8.13608e-07
-6.87313e-09
2.37169e-07
-7.98021e-07
-5.59803e-09
2.50824e-07
-7.8646e-07
-4.40127e-09
2.63213e-07
-7.77594e-07
-3.24444e-09
2.7431e-07
-7.70956e-07
-2.114e-09
2.84206e-07
-7.66377e-07
-1.00663e-09
2.9293e-07
-7.6385e-07
7.4476e-11
3.00218e-07
-7.6382e-07
1.14205e-09
3.06133e-07
-7.66729e-07
2.22881e-09
3.1098e-07
-7.72066e-07
3.31839e-09
3.14775e-07
-7.79055e-07
4.42194e-09
3.17561e-07
-7.87419e-07
5.5449e-09
3.19465e-07
-7.9663e-07
6.69847e-09
3.20695e-07
-8.05224e-07
7.91191e-09
3.21424e-07
-8.09932e-07
9.25089e-09
3.219e-07
-8.04978e-07
1.08468e-08
3.22366e-07
-7.80323e-07
1.29315e-08
3.21113e-07
-7.19504e-07
1.58389e-08
3.14131e-07
-5.86486e-07
2.01883e-08
2.99009e-07
-2.11262e-07
2.72282e-08
2.54192e-07
9.0139e-07
3.75217e-08
1.58483e-07
2.86677e-06
4.86255e-08
7.93861e-08
5.38874e-06
5.8338e-08
3.34002e-08
7.58234e-06
5.72243e-08
6.09366e-06
3.4078e-08
-2.08769e-08
-3.45938e-06
-2.99945e-09
9.95445e-09
-5.20213e-06
-3.68993e-08
4.19554e-08
-4.5194e-06
-4.20449e-08
6.14074e-08
-3.43101e-06
-3.52608e-08
7.75364e-08
-2.37615e-06
-2.64784e-08
9.68495e-08
-1.5859e-06
-1.96496e-08
1.15718e-07
-1.17179e-06
-1.53165e-08
1.33371e-07
-9.92671e-07
-1.22512e-08
1.49369e-07
-9.10079e-07
-9.90734e-09
1.64098e-07
-8.68267e-07
-8.1168e-09
1.77838e-07
-8.44221e-07
-6.7216e-09
1.90553e-07
-8.27947e-07
-5.5224e-09
2.02182e-07
-8.157e-07
-4.42049e-09
2.12669e-07
-8.06163e-07
-3.37378e-09
2.22006e-07
-7.98897e-07
-2.36552e-09
2.30225e-07
-7.93778e-07
-1.38886e-09
2.37456e-07
-7.9081e-07
-4.40757e-10
2.43488e-07
-7.9014e-07
4.80179e-10
2.482e-07
-7.92403e-07
1.38865e-09
2.51823e-07
-7.97362e-07
2.31247e-09
2.54461e-07
-8.04011e-07
3.23341e-09
2.5617e-07
-8.12065e-07
4.15935e-09
2.57066e-07
-8.21005e-07
5.0985e-09
2.57351e-07
-8.29381e-07
6.07285e-09
2.57245e-07
-8.33936e-07
7.134e-09
2.57092e-07
-8.28908e-07
8.38533e-09
2.57231e-07
-8.04241e-07
1.00068e-08
2.56223e-07
-7.43839e-07
1.22542e-08
2.49783e-07
-6.13458e-07
1.56252e-08
2.30673e-07
-2.4359e-07
2.12334e-08
1.78113e-07
8.85552e-07
2.9803e-08
1.21129e-07
2.85369e-06
3.86029e-08
3.51841e-09
5.42917e-06
4.59716e-08
1.44285e-08
7.49171e-06
4.57529e-08
6.08009e-06
2.71311e-08
-3.2272e-08
-3.51202e-06
-2.49908e-09
-2.4615e-09
-5.26438e-06
-3.36498e-08
2.21537e-08
-4.57357e-06
-3.75261e-08
4.1069e-08
-3.48742e-06
-3.26363e-08
4.92552e-08
-2.42641e-06
-2.44804e-08
6.20279e-08
-1.63141e-06
-1.7935e-08
7.57623e-08
-1.206e-06
-1.39031e-08
8.88906e-08
-1.02095e-06
-1.109e-08
1.00673e-07
-9.36325e-07
-8.93226e-09
1.11397e-07
-8.93823e-07
-7.29275e-09
1.21365e-07
-8.69324e-07
-6.03843e-09
1.30565e-07
-8.52619e-07
-4.98484e-09
1.38945e-07
-8.39941e-07
-4.03867e-09
1.46454e-07
-8.2998e-07
-3.15965e-09
1.53081e-07
-8.22323e-07
-2.3316e-09
1.58853e-07
-8.16872e-07
-1.54746e-09
1.63858e-07
-8.1363e-07
-8.03123e-10
1.68093e-07
-8.12696e-07
-9.5631e-11
1.71514e-07
-8.14717e-07
5.84515e-10
1.74194e-07
-8.19508e-07
1.25452e-09
1.76311e-07
-8.26088e-07
1.90386e-09
1.78024e-07
-8.34167e-07
2.53659e-09
1.7954e-07
-8.43217e-07
3.15793e-09
1.81144e-07
-8.51798e-07
3.785e-09
1.83166e-07
-8.56668e-07
4.45902e-09
1.8611e-07
-8.52097e-07
5.25689e-09
1.9058e-07
-8.2809e-07
6.30404e-09
1.95512e-07
-7.68882e-07
7.76769e-09
1.97912e-07
-6.42494e-07
9.95856e-09
1.97249e-07
-2.82576e-07
1.3637e-08
1.79446e-07
8.52929e-07
1.95481e-08
1.5019e-07
2.8265e-06
2.65537e-08
9.02725e-08
5.42765e-06
3.34785e-08
-3.05439e-08
7.55021e-06
3.32072e-08
6.03171e-06
1.69462e-08
-2.95732e-08
-3.56146e-06
-2.34346e-09
-1.90959e-08
-5.30813e-06
-2.99883e-08
-9.85098e-09
-4.60685e-06
-3.4334e-08
4.97441e-10
-3.52899e-06
-3.02255e-08
1.55547e-08
-2.47761e-06
-2.28484e-08
3.28646e-08
-1.67722e-06
-1.68589e-08
4.89278e-08
-1.23985e-06
-1.3049e-08
6.32665e-08
-1.04837e-06
-1.03705e-08
7.56927e-08
-9.61295e-07
-8.33569e-09
8.67468e-08
-9.17818e-07
-6.80826e-09
9.68326e-08
-8.92668e-07
-5.65857e-09
1.06029e-07
-8.75413e-07
-4.71186e-09
1.1435e-07
-8.62248e-07
-3.87761e-09
1.21799e-07
-8.51856e-07
-3.11576e-09
1.28394e-07
-8.43828e-07
-2.4099e-09
1.34167e-07
-8.38071e-07
-1.75305e-09
1.39214e-07
-8.34591e-07
-1.14163e-09
1.43593e-07
-8.33487e-07
-5.73512e-10
1.47314e-07
-8.3539e-07
-4.32326e-11
1.50452e-07
-8.40126e-07
4.60614e-10
1.53187e-07
-8.46732e-07
9.29897e-10
1.55671e-07
-8.54904e-07
1.36613e-09
1.58107e-07
-8.64102e-07
1.77306e-09
1.60754e-07
-8.72878e-07
2.16598e-09
1.63888e-07
-8.7797e-07
2.58173e-09
1.67862e-07
-8.73584e-07
3.08497e-09
1.73245e-07
-8.49834e-07
3.77242e-09
1.79044e-07
-7.91201e-07
4.7571e-09
1.81212e-07
-6.66686e-07
6.23661e-09
1.74179e-07
-3.10191e-07
8.80694e-09
1.44441e-07
8.3915e-07
1.32575e-08
7.53295e-08
2.85111e-06
1.93335e-08
4.36211e-08
5.40287e-06
2.64077e-08
-3.34755e-08
7.56939e-06
2.62746e-08
5.9853e-06
1.23314e-08
-3.24876e-08
-3.6002e-06
-1.98533e-09
-2.50331e-08
-5.33762e-06
-2.82549e-08
5.8061e-09
-4.65319e-06
-3.20727e-08
1.25662e-08
-3.56357e-06
-2.60932e-08
2.13153e-08
-2.51884e-06
-1.97708e-08
2.94008e-08
-1.7113e-06
-1.4557e-08
3.78751e-08
-1.26458e-06
-1.12594e-08
4.60975e-08
-1.06845e-06
-8.92941e-09
5.32111e-08
-9.79702e-07
-7.14654e-09
5.94189e-08
-9.35631e-07
-5.81034e-09
6.50073e-08
-9.10113e-07
-4.81627e-09
7.00049e-08
-8.92552e-07
-4.00908e-09
7.43937e-08
-8.79113e-07
-3.30701e-09
7.81456e-08
-8.68478e-07
-2.67355e-09
8.12513e-08
-8.60238e-07
-2.09379e-09
8.37163e-08
-8.54305e-07
-1.56173e-09
8.55906e-08
-8.50682e-07
-1.07472e-09
8.69054e-08
-8.49461e-07
-6.31647e-10
8.76335e-08
-8.51231e-07
-2.2975e-10
8.78244e-08
-8.55838e-07
1.3668e-10
8.7674e-08
-8.62397e-07
4.6063e-10
8.73639e-08
-8.70579e-07
7.40916e-10
8.71258e-08
-8.79826e-07
9.7967e-10
8.72296e-08
-8.8868e-07
1.18952e-09
8.79846e-08
-8.93858e-07
1.40048e-09
8.97952e-08
-8.89516e-07
1.66343e-09
9.32627e-08
-8.65882e-07
2.04963e-09
9.78497e-08
-8.07822e-07
2.63558e-09
1.00648e-07
-6.84988e-07
3.55381e-09
9.83381e-08
-3.31712e-07
5.30261e-09
8.92381e-08
8.17466e-07
8.62993e-09
6.59139e-08
2.84103e-06
1.35854e-08
2.79778e-08
5.40357e-06
1.89316e-08
2.90366e-08
7.53218e-06
1.9264e-08
6.0048e-06
9.06981e-09
-3.6712e-08
-3.6214e-06
-1.42285e-09
-7.96361e-09
-5.3866e-06
-2.3879e-08
3.00573e-08
-4.70802e-06
-2.75421e-08
4.44714e-08
-3.60083e-06
-2.3949e-08
4.17292e-08
-2.54629e-06
-1.7706e-08
4.08894e-08
-1.73428e-06
-1.297e-08
4.3214e-08
-1.28165e-06
-1.00355e-08
4.67711e-08
-1.08264e-06
-7.97214e-09
5.02188e-08
-9.93196e-07
-6.38625e-09
5.34784e-08
-9.49189e-07
-5.19969e-09
5.66273e-08
-9.23783e-07
-4.32518e-09
5.95613e-08
-9.0628e-07
-3.62183e-09
6.21585e-08
-8.92847e-07
-3.01399e-09
6.43057e-08
-8.82176e-07
-2.46749e-09
6.59289e-08
-8.73882e-07
-1.96859e-09
6.69955e-08
-8.67904e-07
-1.51256e-09
6.7535e-08
-8.64261e-07
-1.09846e-09
6.75663e-08
-8.63039e-07
-7.27119e-10
6.70394e-08
-8.64759e-07
-3.99306e-10
6.59708e-08
-8.69285e-07
-1.13643e-10
6.45282e-08
-8.75813e-07
1.22018e-10
6.28829e-08
-8.83996e-07
3.03664e-10
6.12499e-08
-8.93252e-07
4.31184e-10
5.98969e-08
-9.02122e-07
5.1464e-10
5.91955e-08
-9.07354e-07
5.80419e-10
5.9673e-08
-9.03098e-07
6.71418e-10
6.18575e-08
-8.79489e-07
8.49659e-10
6.50635e-08
-8.21722e-07
1.16778e-09
6.69664e-08
-7.0096e-07
1.67261e-09
6.79389e-08
-3.5475e-07
2.74777e-09
7.68211e-08
7.82493e-07
5.39536e-09
7.47983e-08
2.81595e-06
1.01783e-08
5.6978e-08
5.38555e-06
1.47675e-08
-6.85558e-09
7.56251e-06
1.25193e-08
5.99829e-06
-7.13833e-10
-2.58988e-08
-3.63806e-06
-3.36431e-09
-1.14158e-08
-5.42276e-06
-2.31201e-08
-1.05444e-08
-4.72894e-06
-2.48753e-08
1.01109e-08
-3.64353e-06
-2.14152e-08
9.58715e-09
-2.57262e-06
-1.56403e-08
9.75615e-09
-1.75605e-06
-1.12968e-08
1.2137e-08
-1.29753e-06
-8.6608e-09
1.55459e-08
-1.0958e-06
-6.80477e-09
1.86771e-08
-1.00551e-06
-5.39158e-09
2.14333e-08
-9.61301e-07
-4.35097e-09
2.39108e-08
-9.35764e-07
-3.60122e-09
2.60586e-08
-9.18131e-07
-3.01433e-09
2.77986e-08
-9.04559e-07
-2.51999e-09
2.9054e-08
-8.93746e-07
-2.08585e-09
2.97832e-08
-8.85323e-07
-1.6987e-09
2.99829e-08
-8.79251e-07
-1.35458e-09
2.971e-08
-8.75569e-07
-1.05404e-09
2.90342e-08
-8.74369e-07
-7.99952e-10
2.79576e-08
-8.76087e-07
-5.95713e-10
2.65254e-08
-8.80581e-07
-4.44435e-10
2.4933e-08
-8.87134e-07
-3.54114e-10
2.34004e-08
-8.95389e-07
-3.29458e-10
2.22006e-08
-9.04748e-07
-3.69705e-10
2.16764e-08
-9.13773e-07
-4.62822e-10
2.23353e-08
-9.19303e-07
-5.80641e-10
2.47895e-08
-9.15465e-07
-6.7946e-10
2.95001e-08
-8.92185e-07
-7.04401e-10
3.59069e-08
-8.34812e-07
-6.16678e-10
4.24648e-08
-7.15458e-07
-3.83541e-10
4.78912e-08
-3.72693e-07
3.71109e-10
4.10297e-08
7.71512e-07
2.92476e-09
2.38187e-08
2.81265e-06
8.25476e-09
-9.88783e-09
5.39537e-06
1.36357e-08
4.03445e-09
7.52378e-06
1.24097e-08
6.00299e-06
-1.14792e-09
-2.17344e-08
-3.65751e-06
-3.20538e-09
-1.69192e-08
-5.44054e-06
-2.17335e-08
-1.83619e-08
-4.7411e-06
-2.3243e-08
-2.89536e-08
-3.65557e-06
-1.93135e-08
-3.09488e-08
-2.59381e-06
-1.46833e-08
-2.94419e-08
-1.77627e-06
-1.06407e-08
-2.35308e-08
-1.3151e-06
-8.08659e-09
-1.65497e-08
-1.11121e-06
-6.2971e-09
-1.03095e-08
-1.01974e-06
-4.9631e-09
-4.91427e-09
-9.74898e-07
-3.99828e-09
-1.70783e-10
-9.48897e-07
-3.31237e-09
3.94024e-09
-9.30877e-07
-2.78282e-09
7.38269e-09
-9.16958e-07
-2.34124e-09
1.01047e-08
-9.05827e-07
-1.95531e-09
1.20724e-08
-8.9712e-07
-1.61139e-09
1.32761e-08
-8.90806e-07
-1.30564e-09
1.37533e-08
-8.86929e-07
-1.03968e-09
1.35556e-08
-8.85583e-07
-8.18141e-10
1.26816e-08
-8.87129e-07
-6.46656e-10
1.11835e-08
-8.91429e-07
-5.31006e-10
9.26432e-09
-8.97849e-07
-4.80062e-10
7.15685e-09
-9.06026e-07
-4.98727e-10
5.1508e-09
-9.15348e-07
-5.84981e-10
3.59378e-09
-9.24386e-07
-7.24277e-10
2.96747e-09
-9.30026e-07
-8.85605e-10
3.90231e-09
-9.26403e-07
-1.02117e-09
6.95751e-09
-9.03311e-07
-1.07281e-09
1.16202e-08
-8.46284e-07
-1.00336e-09
1.51551e-08
-7.27805e-07
-7.71691e-10
1.19359e-08
-3.84625e-07
1.19561e-12
4.05476e-10
7.63814e-07
2.51747e-09
-2.81846e-08
2.82091e-06
7.41216e-09
-2.81808e-08
5.37062e-06
1.29823e-08
-3.98564e-08
7.50834e-06
1.33313e-08
5.95974e-06
3.23097e-09
-3.96249e-08
-3.6602e-06
-2.75207e-09
-5.56525e-08
-5.44019e-06
-1.93941e-08
-3.66951e-08
-4.77072e-06
-2.11684e-08
-4.25653e-08
-3.66582e-06
-1.73534e-08
-5.13681e-08
-2.60692e-06
-1.26206e-08
-4.99395e-08
-1.79542e-06
-8.98308e-09
-4.42452e-08
-1.33192e-06
-6.71316e-09
-3.83204e-08
-1.12517e-06
-5.16191e-09
-3.32584e-08
-1.0323e-06
-4.01886e-09
-2.89574e-08
-9.86774e-07
-3.20442e-09
-2.51818e-08
-9.60335e-07
-2.63674e-09
-2.19273e-08
-9.41956e-07
-2.20712e-09
-1.92456e-08
-9.27717e-07
-1.85409e-09
-1.71993e-08
-9.16295e-07
-1.54806e-09
-1.58311e-08
-9.07328e-07
-1.27668e-09
-1.51546e-08
-9.00792e-07
-1.03731e-09
-1.51387e-08
-8.96738e-07
-8.3335e-10
-1.57345e-08
-8.95254e-07
-6.71681e-10
-1.69068e-08
-8.96654e-07
-5.60574e-10
-1.85607e-08
-9.00809e-07
-5.09177e-10
-2.04792e-08
-9.07142e-07
-5.28064e-10
-2.2412e-08
-9.15276e-07
-6.23357e-10
-2.40611e-08
-9.24572e-07
-7.92699e-10
-2.50919e-08
-9.33589e-07
-1.02014e-09
-2.50845e-08
-9.39218e-07
-1.27407e-09
-2.35186e-08
-9.35584e-07
-1.50834e-09
-1.99171e-08
-9.12448e-07
-1.66987e-09
-1.47562e-08
-8.55411e-07
-1.72031e-09
-9.61122e-09
-7.37095e-07
-1.5777e-09
-6.8089e-09
-3.93452e-07
-7.44099e-10
-4.34461e-10
7.48796e-07
1.89046e-09
-1.49966e-08
2.82398e-06
6.83263e-09
-2.36704e-08
5.36415e-06
1.15223e-08
-7.13093e-08
7.54089e-06
1.03297e-08
5.88848e-06
-3.42253e-10
-2.49891e-08
-3.67315e-06
-1.76336e-09
-3.0493e-08
-5.45342e-06
-1.4913e-08
-3.60238e-08
-4.78146e-06
-1.71827e-08
-1.277e-08
-3.70621e-06
-1.48529e-08
-2.08681e-08
-2.61911e-06
-1.07759e-08
-1.69546e-08
-1.81579e-06
-7.541e-09
-1.40435e-08
-1.34529e-06
-5.59476e-09
-1.17641e-08
-1.13498e-06
-4.31726e-09
-9.91872e-09
-1.0411e-06
-3.38892e-09
-8.29956e-09
-9.9536e-07
-2.73217e-09
-6.77631e-09
-9.68883e-07
-2.28151e-09
-5.39612e-09
-9.50516e-07
-1.94506e-09
-4.25008e-09
-9.36307e-07
-1.66993e-09
-3.44113e-09
-9.2492e-07
-1.43099e-09
-3.06051e-09
-9.15984e-07
-1.21873e-09
-3.17455e-09
-9.0948e-07
-1.03307e-09
-3.79223e-09
-9.05472e-07
-8.80148e-10
-4.87575e-09
-9.04069e-07
-7.70086e-10
-6.37721e-09
-9.05562e-07
-7.14815e-10
-8.18355e-09
-9.09829e-07
-7.27505e-10
-1.00709e-08
-9.16329e-07
-8.21637e-10
-1.17879e-08
-9.24666e-07
-1.00508e-09
-1.30339e-08
-9.34173e-07
-1.27589e-09
-1.34579e-08
-9.43405e-07
-1.6173e-09
-1.25862e-08
-9.49288e-07
-1.99676e-09
-9.76179e-09
-9.46008e-07
-2.36927e-09
-4.203e-09
-9.23404e-07
-2.69042e-09
3.78443e-09
-8.67113e-07
-2.94753e-09
1.24933e-08
-7.5014e-07
-3.10851e-09
2.04006e-08
-4.08974e-07
-2.74176e-09
1.66784e-08
7.42121e-07
-7.10325e-10
1.70244e-08
2.81126e-06
3.41811e-09
-2.39356e-08
5.38875e-06
8.16758e-09
-1.45641e-08
7.5146e-06
8.77406e-09
5.87375e-06
2.4799e-10
-2.46039e-08
-3.68771e-06
4.25799e-10
2.67518e-09
-5.49445e-06
-1.31613e-08
-1.49054e-09
-4.79047e-06
-1.53243e-08
-1.47794e-08
-3.71096e-06
-1.23894e-08
-1.37986e-08
-2.63833e-06
-8.66794e-09
-1.92666e-08
-1.82645e-06
-5.78697e-09
-2.26951e-08
-1.35219e-06
-4.23242e-09
-2.39453e-08
-1.14115e-06
-3.21763e-09
-2.45709e-08
-1.0472e-06
-2.48285e-09
-2.49683e-08
-1.00158e-06
-1.97553e-09
-2.52069e-08
-9.75207e-07
-1.64389e-09
-2.54096e-08
-9.56933e-07
-1.41015e-09
-2.57079e-08
-9.42803e-07
-1.22848e-09
-2.62268e-08
-9.31479e-07
-1.07706e-09
-2.70718e-08
-9.22588e-07
-9.48138e-10
-2.8321e-08
-9.16111e-07
-8.43407e-10
-2.99899e-08
-9.12133e-07
-7.71053e-10
-3.2019e-08
-9.10803e-07
-7.43667e-10
-3.43444e-08
-9.12369e-07
-7.76083e-10
-3.68408e-08
-9.1671e-07
-8.84867e-10
-3.92402e-08
-9.23353e-07
-1.08566e-09
-4.12289e-08
-9.31887e-07
-1.38763e-09
-4.24338e-08
-9.41624e-07
-1.78799e-09
-4.24255e-08
-9.51127e-07
-2.26718e-09
-4.06294e-08
-9.57378e-07
-2.78982e-09
-3.63222e-08
-9.54637e-07
-3.31155e-09
-2.87488e-08
-9.32794e-07
-3.79822e-09
-1.78166e-08
-8.7756e-07
-4.25393e-09
-3.85372e-09
-7.62041e-07
-4.64692e-09
1.29535e-08
-4.22249e-07
-4.55821e-09
1.73805e-08
7.41882e-07
-2.83991e-09
1.78602e-09
2.82856e-06
1.03985e-09
-1.09085e-08
5.40042e-06
5.68601e-09
8.47185e-09
7.49249e-06
7.02526e-09
5.88253e-06
-3.32123e-10
-2.64362e-08
-3.69824e-06
-2.32113e-10
-3.53496e-08
-5.50369e-06
-1.19448e-08
-2.35002e-08
-4.813e-06
-1.29462e-08
-2.86689e-08
-3.72084e-06
-9.99621e-09
-1.8593e-08
-2.66749e-06
-6.91189e-09
-2.56833e-08
-1.83507e-06
-4.52597e-09
-2.8692e-08
-1.35934e-06
-3.24872e-09
-2.9329e-08
-1.14787e-06
-2.43072e-09
-2.93378e-08
-1.0538e-06
-1.8447e-09
-2.9194e-08
-1.00814e-06
-1.45242e-09
-2.89946e-08
-9.81729e-07
-1.21076e-09
-2.88685e-08
-9.63424e-07
-1.04992e-09
-2.89526e-08
-9.49266e-07
-9.27783e-10
-2.93765e-08
-9.37917e-07
-8.238e-10
-3.02431e-08
-9.29006e-07
-7.3079e-10
-3.16213e-08
-9.2252e-07
-6.51274e-10
-3.35317e-08
-9.18552e-07
-5.94897e-10
-3.59393e-08
-9.17266e-07
-5.76169e-10
-3.88278e-08
-9.18842e-07
-6.12103e-10
-4.21414e-08
-9.23134e-07
-7.21826e-10
-4.56816e-08
-9.29735e-07
-9.23195e-10
-4.9188e-08
-9.3823e-07
-1.22645e-09
-5.23274e-08
-9.47925e-07
-1.62805e-09
-5.47134e-08
-9.57386e-07
-2.10547e-09
-5.58272e-08
-9.63636e-07
-2.61825e-09
-5.49834e-08
-9.61009e-07
-3.11379e-09
-5.15084e-08
-9.39398e-07
-3.5448e-09
-4.56132e-08
-8.84592e-07
-3.88464e-09
-3.886e-08
-7.69511e-07
-4.02022e-09
-3.31043e-08
-4.29615e-07
-3.40177e-09
-2.83716e-08
7.34536e-07
-1.09179e-09
-2.05904e-08
2.81687e-06
2.20002e-09
-1.20454e-08
5.38603e-06
5.91601e-09
-1.31559e-08
7.4871e-06
6.97881e-09
5.86737e-06
2.2157e-09
-2.03854e-08
-3.70988e-06
8.9153e-10
-4.96381e-09
-5.53302e-06
-8.20916e-09
-1.09474e-08
-4.82082e-06
-9.71255e-09
-2.56419e-09
-3.7481e-06
-7.41818e-09
-2.40607e-08
-2.66749e-06
-4.10153e-09
-3.4612e-08
-1.84099e-06
-2.24948e-09
-4.07038e-08
-1.36411e-06
-1.50315e-09
-4.37937e-08
-1.15266e-06
-1.06473e-09
-4.58446e-08
-1.05867e-06
-7.43171e-10
-4.74604e-08
-1.01306e-06
-5.46689e-10
-4.8763e-08
-9.86719e-07
-4.57409e-10
-4.99254e-08
-9.68462e-07
-4.24231e-10
-5.11254e-08
-9.54329e-07
-4.15031e-10
-5.2523e-08
-9.42985e-07
-4.14119e-10
-5.42375e-08
-9.34072e-07
-4.16834e-10
-5.63401e-08
-9.27595e-07
-4.27711e-10
-5.88479e-08
-9.23654e-07
-4.58938e-10
-6.17136e-08
-9.22429e-07
-5.27844e-10
-6.48796e-08
-9.24053e-07
-6.55038e-10
-6.82474e-08
-9.28352e-07
-8.6307e-10
-7.15904e-08
-9.34965e-07
-1.17196e-09
-7.46077e-08
-9.4348e-07
-1.59271e-09
-7.69134e-08
-9.53203e-07
-2.12024e-09
-7.80615e-08
-9.62715e-07
-2.72885e-09
-7.74796e-08
-9.69075e-07
-3.37488e-09
-7.44635e-08
-9.66692e-07
-4.00554e-09
-6.83195e-08
-9.455e-07
-4.5824e-09
-5.89407e-08
-8.91298e-07
-5.09605e-09
-4.64069e-08
-7.76812e-07
-5.44942e-09
-3.08959e-08
-4.36715e-07
-5.0975e-09
-1.38211e-08
7.27477e-07
-2.94522e-09
-4.18264e-10
2.81113e-06
3.28823e-10
1.79919e-08
5.37294e-06
3.62479e-09
4.75037e-10
7.50908e-06
3.51827e-09
5.86595e-06
2.02493e-09
-3.16878e-08
-3.70661e-06
1.78451e-09
-4.26708e-08
-5.53735e-06
-9.47159e-09
-3.60972e-08
-4.84096e-06
-1.03915e-08
-4.63817e-08
-3.75454e-06
-7.70221e-09
-5.44703e-08
-2.6767e-06
-4.52356e-09
-5.69649e-08
-1.85378e-06
-2.48722e-09
-5.71099e-08
-1.37411e-06
-1.52947e-09
-5.61204e-08
-1.16106e-06
-9.96574e-10
-5.50688e-08
-1.06622e-06
-6.73175e-10
-5.40825e-08
-1.02016e-06
-5.0217e-10
-5.31682e-08
-9.93501e-07
-4.3792e-10
-5.24242e-08
-9.74998e-07
-4.27574e-10
-5.19779e-08
-9.60658e-07
-4.38202e-10
-5.19505e-08
-9.49141e-07
-4.53499e-10
-5.24253e-08
-9.401e-07
-4.68533e-10
-5.34385e-08
-9.33552e-07
-4.88339e-10
-5.49814e-08
-9.29593e-07
-5.26622e-10
-5.69787e-08
-9.28421e-07
-6.03057e-10
-5.93504e-08
-9.3011e-07
-7.41135e-10
-6.19967e-08
-9.34434e-07
-9.66498e-10
-6.46965e-08
-9.41066e-07
-1.30173e-09
-6.71506e-08
-9.49599e-07
-1.7593e-09