/*--------------------------------*- C++ -*----------------------------------*\
  =========                 |
  \\      /  F ield         | OpenFOAM: The Open Source CFD Toolbox
   \\    /   O peration     | Website:  https://openfoam.org
    \\  /    A nd           | Version:  13
     \\/     M anipulation  |
\*---------------------------------------------------------------------------*/
FoamFile
{
    format      ascii;
    class       volScalarField;
    location    "25";
    object      nut;
}
// * * * * * * * * * * * * * * * * * * * * * * * * * * * * * * * * * * * * * //

dimensions      [0 2 -1 0 0 0 0];

internalField   nonuniform List<scalar> 
315000
(
8.13791e-13
2.12362e-10
4.82537e-09
8.58663e-09
1.23111e-08
1.59811e-08
1.95832e-08
2.31042e-08
2.65306e-08
2.98482e-08
3.30428e-08
3.61007e-08
3.90093e-08
4.17576e-08
4.43365e-08
4.6739e-08
4.89605e-08
5.09988e-08
5.28539e-08
5.45291e-08
5.60307e-08
5.73679e-08
5.85517e-08
5.95944e-08
6.05122e-08
6.133e-08
6.20717e-08
6.2751e-08
6.33523e-08
6.38677e-08
6.42946e-08
6.46334e-08
6.48854e-08
6.50521e-08
6.51348e-08
6.51343e-08
6.50505e-08
6.48829e-08
6.46304e-08
6.42915e-08
6.38654e-08
6.33523e-08
6.27554e-08
6.20825e-08
6.13433e-08
6.05247e-08
5.96091e-08
5.85698e-08
5.7388e-08
5.60504e-08
5.45469e-08
5.28697e-08
5.10137e-08
4.8976e-08
4.67563e-08
4.43567e-08
4.17814e-08
3.9037e-08
3.61324e-08
3.30783e-08
2.98872e-08
2.65726e-08
2.31485e-08
1.96288e-08
1.60267e-08
1.23549e-08
8.62582e-09
4.85473e-09
2.1412e-10
8.21603e-13
2.02051e-11
5.36071e-09
1.16876e-06
2.01781e-06
2.80804e-06
3.54753e-06
4.24179e-06
4.89446e-06
5.50794e-06
6.08382e-06
6.62316e-06
7.12676e-06
7.59528e-06
8.02939e-06
8.42978e-06
8.79727e-06
9.13282e-06
9.43743e-06
9.71211e-06
9.95801e-06
1.01764e-05
1.03686e-05
1.05358e-05
1.0679e-05
1.07999e-05
1.0901e-05
1.09842e-05
1.10698e-05
1.1149e-05
1.12181e-05
1.12759e-05
1.1322e-05
1.13563e-05
1.1379e-05
1.13903e-05
1.13902e-05
1.13788e-05
1.13559e-05
1.13215e-05
1.12754e-05
1.12176e-05
1.11486e-05
1.10695e-05
1.09842e-05
1.09014e-05
1.08009e-05
1.06808e-05
1.05382e-05
1.03714e-05
1.01794e-05
9.96078e-06
9.71456e-06
9.43959e-06
9.13481e-06
8.79924e-06
8.43187e-06
8.03172e-06
7.59794e-06
7.12978e-06
6.62656e-06
6.08758e-06
5.51202e-06
4.89878e-06
4.24623e-06
3.55194e-06
2.81218e-06
2.02139e-06
1.17131e-06
5.37503e-09
2.02632e-11
7.97571e-11
2.11941e-08
9.42277e-06
1.43256e-05
1.84504e-05
2.20744e-05
2.5332e-05
2.8298e-05
3.10183e-05
3.35228e-05
3.58326e-05
3.79632e-05
3.99268e-05
4.17338e-05
4.33934e-05
4.49147e-05
4.63072e-05
4.75863e-05
4.87539e-05
4.98139e-05
5.07706e-05
5.16287e-05
5.23927e-05
5.30679e-05
5.36611e-05
5.41783e-05
5.46433e-05
4.69253e-05
4.70771e-05
4.72087e-05
4.73183e-05
4.74054e-05
4.74703e-05
4.75132e-05
4.75346e-05
4.75344e-05
4.75129e-05
4.74698e-05
4.74047e-05
4.73174e-05
4.72077e-05
4.7076e-05
4.69242e-05
5.46407e-05
5.41764e-05
5.36606e-05
5.3069e-05
5.23955e-05
5.16331e-05
5.07761e-05
4.98198e-05
4.87596e-05
4.75915e-05
4.63119e-05
4.49191e-05
4.33974e-05
4.17376e-05
3.99309e-05
3.79678e-05
3.58378e-05
3.35287e-05
3.10248e-05
2.83052e-05
2.53397e-05
2.20825e-05
1.84585e-05
1.43332e-05
9.42919e-06
2.12144e-08
7.98378e-11
1.11223e-10
2.95749e-08
1.23522e-05
1.8318e-05
2.3281e-05
2.76087e-05
3.14749e-05
3.49756e-05
3.81695e-05
4.10949e-05
4.37787e-05
4.62405e-05
4.8496e-05
5.05592e-05
5.24519e-05
5.41997e-05
4.72651e-05
4.79598e-05
4.85883e-05
4.9159e-05
4.96768e-05
5.01454e-05
5.05682e-05
5.0948e-05
5.12875e-05
5.15891e-05
5.18587e-05
5.20899e-05
5.22867e-05
5.24517e-05
5.25867e-05
5.26931e-05
5.2772e-05
5.28242e-05
5.28501e-05
5.285e-05
5.28239e-05
5.27715e-05
5.26924e-05
5.25858e-05
5.24506e-05
5.22854e-05
5.20885e-05
5.18572e-05
5.15875e-05
5.12858e-05
5.09463e-05
5.05666e-05
5.01439e-05
4.96754e-05
4.91577e-05
4.85872e-05
4.79589e-05
4.72643e-05
5.4198e-05
5.24508e-05
5.05585e-05
4.84956e-05
4.62406e-05
4.37791e-05
4.10956e-05
3.81704e-05
3.49769e-05
3.14765e-05
2.76105e-05
2.3283e-05
1.83201e-05
1.23542e-05
2.95832e-08
1.11258e-10
1.27764e-10
3.39932e-08
1.38059e-05
2.02702e-05
2.56337e-05
3.03035e-05
3.44705e-05
3.82393e-05
4.16737e-05
4.48149e-05
4.76902e-05
5.03171e-05
5.27056e-05
4.69234e-05
4.78931e-05
4.87884e-05
4.96155e-05
5.03745e-05
5.10697e-05
5.17049e-05
5.22837e-05
5.28095e-05
5.32852e-05
5.37136e-05
5.40973e-05
5.44386e-05
5.47395e-05
5.50021e-05
5.52279e-05
5.54185e-05
5.55753e-05
5.56994e-05
5.57916e-05
5.58527e-05
5.58831e-05
5.5883e-05
5.58525e-05
5.57912e-05
5.56989e-05
5.55747e-05
5.54177e-05
5.5227e-05
5.50011e-05
5.47385e-05
5.44374e-05
5.4096e-05
5.37123e-05
5.32838e-05
5.28081e-05
5.22823e-05
5.17035e-05
5.10684e-05
5.03733e-05
4.96142e-05
4.87871e-05
4.78922e-05
4.69227e-05
5.2704e-05
5.03159e-05
4.76893e-05
4.48143e-05
4.16733e-05
3.82391e-05
3.44704e-05
3.03036e-05
2.5634e-05
2.02707e-05
1.38065e-05
3.39974e-08
1.27784e-10
1.35437e-10
3.60485e-08
1.44659e-05
2.11522e-05
2.66964e-05
3.1523e-05
3.58298e-05
3.97249e-05
4.32732e-05
4.65153e-05
4.94777e-05
5.2178e-05
5.4801e-05
4.79448e-05
4.89607e-05
4.99022e-05
5.0772e-05
5.15736e-05
5.23106e-05
5.29867e-05
5.36053e-05
5.41693e-05
5.46818e-05
5.51451e-05
5.55616e-05
5.59335e-05
5.62626e-05
5.65507e-05
5.67994e-05
5.70099e-05
5.71835e-05
5.73211e-05
5.74236e-05
5.74916e-05
5.75254e-05
5.75254e-05
5.74914e-05
5.74233e-05
5.73207e-05
5.7183e-05
5.70093e-05
5.67988e-05
5.65501e-05
5.62619e-05
5.59327e-05
5.55608e-05
5.51442e-05
5.46808e-05
5.41684e-05
5.36043e-05
5.29858e-05
5.23097e-05
5.15727e-05
5.07712e-05
4.99015e-05
4.896e-05
4.79443e-05
5.47998e-05
5.21771e-05
4.94772e-05
4.6515e-05
4.32731e-05
3.9725e-05
3.583e-05
3.15233e-05
2.66969e-05
2.11528e-05
1.44666e-05
3.60531e-08
1.35457e-10
1.38598e-10
3.68977e-08
1.47364e-05
2.15134e-05
2.71321e-05
3.20243e-05
3.63912e-05
4.03436e-05
4.39482e-05
4.72479e-05
5.02695e-05
5.30285e-05
4.72433e-05
4.83732e-05
4.94203e-05
5.03889e-05
5.12836e-05
5.21089e-05
5.28689e-05
5.35675e-05
5.4208e-05
5.47934e-05
5.53264e-05
5.58094e-05
5.62446e-05
5.6634e-05
5.69792e-05
5.72819e-05
5.75435e-05
5.77654e-05
5.79485e-05
5.80939e-05
5.82022e-05
5.82741e-05
5.83099e-05
5.83099e-05
5.8274e-05
5.8202e-05
5.80936e-05
5.79482e-05
5.7765e-05
5.75431e-05
5.72814e-05
5.69787e-05
5.66335e-05
5.62441e-05
5.58089e-05
5.53259e-05
5.47929e-05
5.42075e-05
5.3567e-05
5.28685e-05
5.21085e-05
5.12832e-05
5.03886e-05
4.942e-05
4.83731e-05
4.72432e-05
5.30288e-05
5.027e-05
4.72484e-05
4.39489e-05
4.03444e-05
3.63922e-05
3.20254e-05
2.71333e-05
2.15146e-05
1.47376e-05
3.69039e-08
1.38625e-10
1.39736e-10
3.72047e-08
1.48342e-05
2.16441e-05
2.729e-05
3.2206e-05
3.65947e-05
4.05676e-05
4.41931e-05
4.75155e-05
5.05633e-05
5.33517e-05
4.73984e-05
4.85409e-05
4.95998e-05
5.05795e-05
5.14848e-05
5.23204e-05
5.30905e-05
5.37991e-05
5.44494e-05
5.50444e-05
5.55867e-05
5.60786e-05
5.65222e-05
5.69194e-05
5.72719e-05
5.75812e-05
5.78487e-05
5.80756e-05
5.82631e-05
5.84119e-05
5.85229e-05
5.85965e-05
5.86332e-05
5.86332e-05
5.85964e-05
5.85227e-05
5.84117e-05
5.82629e-05
5.80754e-05
5.78484e-05
5.75809e-05
5.72716e-05
5.69191e-05
5.65219e-05
5.60783e-05
5.55864e-05
5.50442e-05
5.44492e-05
5.3799e-05
5.30904e-05
5.23203e-05
5.14848e-05
5.05796e-05
4.96e-05
4.85411e-05
4.73987e-05
5.33526e-05
5.05645e-05
4.75168e-05
4.41945e-05
4.05692e-05
3.65964e-05
3.22078e-05
2.72918e-05
2.16459e-05
1.48358e-05
3.72122e-08
1.39768e-10
1.40066e-10
3.72942e-08
1.4863e-05
2.1683e-05
2.73375e-05
3.22616e-05
3.66582e-05
4.06392e-05
4.42732e-05
4.76047e-05
5.06621e-05
5.34604e-05
4.7451e-05
4.85979e-05
4.96611e-05
5.0645e-05
5.15543e-05
5.23938e-05
5.31678e-05
5.38802e-05
5.45342e-05
5.51328e-05
5.56786e-05
5.61738e-05
5.66206e-05
5.70207e-05
5.7376e-05
5.76877e-05
5.79574e-05
5.81863e-05
5.83753e-05
5.85255e-05
5.86374e-05
5.87118e-05
5.87488e-05
5.87488e-05
5.87117e-05
5.86374e-05
5.85254e-05
5.83752e-05
5.81862e-05
5.79573e-05
5.76876e-05
5.73758e-05
5.70206e-05
5.66205e-05
5.61737e-05
5.56785e-05
5.51327e-05
5.45342e-05
5.38802e-05
5.31679e-05
5.2394e-05
5.15545e-05
5.06453e-05
4.96615e-05
4.85983e-05
4.74515e-05
5.34617e-05
5.06638e-05
4.76065e-05
4.42752e-05
4.06413e-05
3.66604e-05
3.22638e-05
2.73396e-05
2.1685e-05
1.48649e-05
3.73024e-08
1.401e-10
1.40167e-10
3.73218e-08
1.48719e-05
2.16949e-05
2.73521e-05
3.22788e-05
3.66779e-05
4.06614e-05
4.4298e-05
4.76323e-05
5.06925e-05
5.34936e-05
4.74671e-05
4.86153e-05
4.96798e-05
5.0665e-05
5.15756e-05
5.24164e-05
5.31917e-05
5.39052e-05
5.45605e-05
5.51603e-05
5.57072e-05
5.62035e-05
5.66513e-05
5.70524e-05
5.74085e-05
5.77211e-05
5.79916e-05
5.8221e-05
5.84106e-05
5.85612e-05
5.86734e-05
5.8748e-05
5.87852e-05
5.87851e-05
5.87479e-05
5.86734e-05
5.85611e-05
5.84105e-05
5.82209e-05
5.79914e-05
5.7721e-05
5.74084e-05
5.70523e-05
5.66512e-05
5.62035e-05
5.57072e-05
5.51603e-05
5.45605e-05
5.39054e-05
5.31918e-05
5.24166e-05
5.15759e-05
5.06654e-05
4.96803e-05
4.86158e-05
4.74677e-05
5.34951e-05
5.06943e-05
4.76343e-05
4.43002e-05
4.06637e-05
3.66802e-05
3.22811e-05
2.73545e-05
2.16971e-05
1.48739e-05
3.73303e-08
1.40203e-10
1.40196e-10
3.73296e-08
1.48744e-05
2.16983e-05
2.73563e-05
3.22836e-05
3.66834e-05
4.06677e-05
4.4305e-05
4.76399e-05
5.07008e-05
5.35027e-05
4.74716e-05
4.86201e-05
4.9685e-05
5.06705e-05
5.15815e-05
5.24226e-05
5.31982e-05
5.39122e-05
5.45678e-05
5.51679e-05
5.57151e-05
5.62118e-05
5.66599e-05
5.70613e-05
5.74176e-05
5.77305e-05
5.80011e-05
5.82308e-05
5.84205e-05
5.85712e-05
5.86835e-05
5.87581e-05
5.87953e-05
5.87953e-05
5.87581e-05
5.86835e-05
5.85711e-05
5.84204e-05
5.82307e-05
5.8001e-05
5.77304e-05
5.74176e-05
5.70612e-05
5.66598e-05
5.62118e-05
5.57151e-05
5.51679e-05
5.45678e-05
5.39123e-05
5.31984e-05
5.24229e-05
5.15818e-05
5.06709e-05
4.96855e-05
4.86206e-05
4.74722e-05
5.35043e-05
5.07027e-05
4.7642e-05
4.43072e-05
4.067e-05
3.66859e-05
3.22861e-05
2.73587e-05
2.17006e-05
1.48764e-05
3.73382e-08
1.40232e-10
1.40203e-10
3.73315e-08
1.4875e-05
2.16992e-05
2.73573e-05
3.22848e-05
3.66848e-05
4.06692e-05
4.43067e-05
4.76418e-05
5.07029e-05
5.35049e-05
4.74727e-05
4.86213e-05
4.96863e-05
5.06719e-05
5.15829e-05
5.24242e-05
5.31999e-05
5.39139e-05
5.45696e-05
5.51698e-05
5.57171e-05
5.62139e-05
5.66621e-05
5.70635e-05
5.74199e-05
5.77328e-05
5.80035e-05
5.82332e-05
5.8423e-05
5.85737e-05
5.86861e-05
5.87607e-05
5.87979e-05
5.87979e-05
5.87607e-05
5.8686e-05
5.85736e-05
5.84229e-05
5.82331e-05
5.80034e-05
5.77327e-05
5.74199e-05
5.70634e-05
5.6662e-05
5.62138e-05
5.57171e-05
5.51699e-05
5.45697e-05
5.39141e-05
5.32001e-05
5.24244e-05
5.15833e-05
5.06723e-05
4.96868e-05
4.86218e-05
4.74733e-05
5.35065e-05
5.07048e-05
4.76439e-05
4.4309e-05
4.06716e-05
3.66873e-05
3.22873e-05
2.73597e-05
2.17015e-05
1.48771e-05
3.73402e-08
1.40239e-10
1.40204e-10
3.73319e-08
1.48752e-05
2.16994e-05
2.73575e-05
3.22851e-05
3.66851e-05
4.06696e-05
4.43071e-05
4.76422e-05
5.07034e-05
5.35054e-05
4.74729e-05
4.86215e-05
4.96865e-05
5.06722e-05
5.15833e-05
5.24245e-05
5.32002e-05
5.39143e-05
5.457e-05
5.51702e-05
5.57176e-05
5.62143e-05
5.66625e-05
5.7064e-05
5.74205e-05
5.77334e-05
5.80041e-05
5.82338e-05
5.84236e-05
5.85743e-05
5.86867e-05
5.87613e-05
5.87985e-05
5.87985e-05
5.87613e-05
5.86866e-05
5.85742e-05
5.84235e-05
5.82337e-05
5.8004e-05
5.77333e-05
5.74204e-05
5.7064e-05
5.66625e-05
5.62143e-05
5.57176e-05
5.51703e-05
5.45701e-05
5.39145e-05
5.32005e-05
5.24248e-05
5.15836e-05
5.06726e-05
4.96871e-05
4.86221e-05
4.74735e-05
5.3507e-05
5.07053e-05
4.76444e-05
4.43094e-05
4.0672e-05
3.66876e-05
3.22876e-05
2.736e-05
2.17017e-05
1.48772e-05
3.73406e-08
1.40241e-10
1.40205e-10
3.7332e-08
1.48752e-05
2.16994e-05
2.73576e-05
3.22852e-05
3.66852e-05
4.06697e-05
4.43072e-05
4.76423e-05
5.07035e-05
5.35055e-05
4.7473e-05
4.86216e-05
4.96866e-05
5.06723e-05
5.15833e-05
5.24246e-05
5.32003e-05
5.39144e-05
5.45701e-05
5.51703e-05
5.57177e-05
5.62144e-05
5.66626e-05
5.70641e-05
5.74206e-05
5.77335e-05
5.80042e-05
5.82339e-05
5.84237e-05
5.85744e-05
5.86868e-05
5.87614e-05
5.87986e-05
5.87986e-05
5.87614e-05
5.86867e-05
5.85743e-05
5.84236e-05
5.82338e-05
5.80041e-05
5.77334e-05
5.74205e-05
5.70641e-05
5.66626e-05
5.62144e-05
5.57177e-05
5.51704e-05
5.45702e-05
5.39145e-05
5.32005e-05
5.24249e-05
5.15837e-05
5.06727e-05
4.96871e-05
4.86222e-05
4.74736e-05
5.35071e-05
5.07054e-05
4.76444e-05
4.43095e-05
4.06721e-05
3.66876e-05
3.22876e-05
2.736e-05
2.17017e-05
1.48772e-05
3.73407e-08
1.40241e-10
1.40205e-10
3.7332e-08
1.48752e-05
2.16994e-05
2.73576e-05
3.22852e-05
3.66852e-05
4.06697e-05
4.43072e-05
4.76423e-05
5.07035e-05
5.35055e-05
4.7473e-05
4.86216e-05
4.96866e-05
5.06723e-05
5.15834e-05
5.24246e-05
5.32003e-05
5.39144e-05
5.45701e-05
5.51703e-05
5.57177e-05
5.62145e-05
5.66627e-05
5.70642e-05
5.74206e-05
5.77335e-05
5.80042e-05
5.82339e-05
5.84237e-05
5.85744e-05
5.86868e-05
5.87614e-05
5.87986e-05
5.87986e-05
5.87614e-05
5.86868e-05
5.85744e-05
5.84236e-05
5.82338e-05
5.80041e-05
5.77334e-05
5.74205e-05
5.70641e-05
5.66626e-05
5.62144e-05
5.57177e-05
5.51704e-05
5.45702e-05
5.39146e-05
5.32006e-05
5.24249e-05
5.15837e-05
5.06727e-05
4.96871e-05
4.86222e-05
4.74736e-05
5.35072e-05
5.07054e-05
4.76445e-05
4.43095e-05
4.06721e-05
3.66877e-05
3.22877e-05
2.736e-05
2.17017e-05
1.48772e-05
3.73407e-08
1.40241e-10
1.40205e-10
3.7332e-08
1.48752e-05
2.16994e-05
2.73576e-05
3.22852e-05
3.66852e-05
4.06697e-05
4.43072e-05
4.76423e-05
5.07035e-05
5.35055e-05
4.7473e-05
4.86216e-05
4.96866e-05
5.06723e-05
5.15834e-05
5.24246e-05
5.32003e-05
5.39144e-05
5.45701e-05
5.51703e-05
5.57177e-05
5.62145e-05
5.66627e-05
5.70642e-05
5.74206e-05
5.77335e-05
5.80042e-05
5.82339e-05
5.84237e-05
5.85744e-05
5.86868e-05
5.87614e-05
5.87987e-05
5.87986e-05
5.87614e-05
5.86868e-05
5.85744e-05
5.84236e-05
5.82338e-05
5.80041e-05
5.77334e-05
5.74205e-05
5.70641e-05
5.66626e-05
5.62145e-05
5.57177e-05
5.51704e-05
5.45702e-05
5.39146e-05
5.32006e-05
5.24249e-05
5.15837e-05
5.06727e-05
4.96871e-05
4.86222e-05
4.74736e-05
5.35072e-05
5.07054e-05
4.76445e-05
4.43095e-05
4.06721e-05
3.66877e-05
3.22877e-05
2.736e-05
2.17017e-05
1.48772e-05
3.73408e-08
1.40241e-10
1.40205e-10
3.7332e-08
1.48752e-05
2.16994e-05
2.73576e-05
3.22852e-05
3.66852e-05
4.06697e-05
4.43072e-05
4.76423e-05
5.07035e-05
5.35055e-05
4.7473e-05
4.86216e-05
4.96866e-05
5.06723e-05
5.15834e-05
5.24246e-05
5.32003e-05
5.39144e-05
5.45701e-05
5.51703e-05
5.57177e-05
5.62145e-05
5.66627e-05
5.70642e-05
5.74206e-05
5.77335e-05
5.80042e-05
5.82339e-05
5.84237e-05
5.85744e-05
5.86868e-05
5.87614e-05
5.87987e-05
5.87986e-05
5.87614e-05
5.86868e-05
5.85744e-05
5.84236e-05
5.82338e-05
5.80041e-05
5.77334e-05
5.74205e-05
5.70641e-05
5.66626e-05
5.62145e-05
5.57177e-05
5.51704e-05
5.45702e-05
5.39146e-05
5.32006e-05
5.24249e-05
5.15837e-05
5.06727e-05
4.96871e-05
4.86222e-05
4.74736e-05
5.35072e-05
5.07054e-05
4.76445e-05
4.43095e-05
4.06721e-05
3.66877e-05
3.22877e-05
2.736e-05
2.17017e-05
1.48772e-05
3.73408e-08
1.40241e-10
1.40205e-10
3.7332e-08
1.48752e-05
2.16994e-05
2.73576e-05
3.22852e-05
3.66852e-05
4.06697e-05
4.43072e-05
4.76423e-05
5.07035e-05
5.35055e-05
4.7473e-05
4.86216e-05
4.96866e-05
5.06723e-05
5.15834e-05
5.24246e-05
5.32003e-05
5.39144e-05
5.45701e-05
5.51703e-05
5.57177e-05
5.62145e-05
5.66627e-05
5.70642e-05
5.74206e-05
5.77335e-05
5.80042e-05
5.82339e-05
5.84237e-05
5.85744e-05
5.86868e-05
5.87614e-05
5.87987e-05
5.87986e-05
5.87614e-05
5.86868e-05
5.85744e-05
5.84236e-05
5.82338e-05
5.80041e-05
5.77334e-05
5.74205e-05
5.70641e-05
5.66626e-05
5.62145e-05
5.57177e-05
5.51704e-05
5.45702e-05
5.39146e-05
5.32006e-05
5.24249e-05
5.15837e-05
5.06727e-05
4.96871e-05
4.86222e-05
4.74736e-05
5.35072e-05
5.07054e-05
4.76445e-05
4.43095e-05
4.06721e-05
3.66877e-05
3.22877e-05
2.736e-05
2.17017e-05
1.48772e-05
3.73408e-08
1.40241e-10
1.40205e-10
3.7332e-08
1.48752e-05
2.16994e-05
2.73576e-05
3.22852e-05
3.66852e-05
4.06697e-05
4.43072e-05
4.76423e-05
5.07035e-05
5.35055e-05
4.7473e-05
4.86216e-05
4.96866e-05
5.06723e-05
5.15834e-05
5.24246e-05
5.32003e-05
5.39144e-05
5.45701e-05
5.51703e-05
5.57177e-05
5.62145e-05
5.66627e-05
5.70642e-05
5.74206e-05
5.77335e-05
5.80042e-05
5.82339e-05
5.84237e-05
5.85744e-05
5.86868e-05
5.87614e-05
5.87987e-05
5.87986e-05
5.87614e-05
5.86868e-05
5.85744e-05
5.84236e-05
5.82338e-05
5.80041e-05
5.77334e-05
5.74205e-05
5.70641e-05
5.66626e-05
5.62145e-05
5.57177e-05
5.51704e-05
5.45702e-05
5.39146e-05
5.32006e-05
5.24249e-05
5.15837e-05
5.06727e-05
4.96871e-05
4.86222e-05
4.74736e-05
5.35072e-05
5.07054e-05
4.76445e-05
4.43095e-05
4.06721e-05
3.66877e-05
3.22877e-05
2.736e-05
2.17017e-05
1.48772e-05
3.73408e-08
1.40241e-10
1.40205e-10
3.7332e-08
1.48752e-05
2.16994e-05
2.73576e-05
3.22852e-05
3.66852e-05
4.06697e-05
4.43072e-05
4.76423e-05
5.07035e-05
5.35055e-05
4.7473e-05
4.86216e-05
4.96866e-05
5.06723e-05
5.15834e-05
5.24246e-05
5.32003e-05
5.39144e-05
5.45701e-05
5.51703e-05
5.57177e-05
5.62145e-05
5.66627e-05
5.70642e-05
5.74206e-05
5.77335e-05
5.80042e-05
5.82339e-05
5.84237e-05
5.85744e-05
5.86868e-05
5.87614e-05
5.87987e-05
5.87986e-05
5.87614e-05
5.86868e-05
5.85744e-05
5.84236e-05
5.82338e-05
5.80041e-05
5.77334e-05
5.74205e-05
5.70641e-05
5.66626e-05
5.62145e-05
5.57177e-05
5.51704e-05
5.45702e-05
5.39146e-05
5.32006e-05
5.24249e-05
5.15837e-05
5.06727e-05
4.96871e-05
4.86222e-05
4.74736e-05
5.35072e-05
5.07054e-05
4.76445e-05
4.43095e-05
4.06721e-05
3.66877e-05
3.22877e-05
2.736e-05
2.17017e-05
1.48772e-05
3.73408e-08
1.40241e-10
1.40205e-10
3.7332e-08
1.48752e-05
2.16994e-05
2.73576e-05
3.22852e-05
3.66852e-05
4.06697e-05
4.43072e-05
4.76423e-05
5.07035e-05
5.35055e-05
4.7473e-05
4.86216e-05
4.96866e-05
5.06723e-05
5.15834e-05
5.24246e-05
5.32003e-05
5.39144e-05
5.45701e-05
5.51703e-05
5.57177e-05
5.62145e-05
5.66627e-05
5.70642e-05
5.74206e-05
5.77335e-05
5.80042e-05
5.82339e-05
5.84237e-05
5.85744e-05
5.86868e-05
5.87614e-05
5.87987e-05
5.87986e-05
5.87614e-05
5.86868e-05
5.85744e-05
5.84236e-05
5.82338e-05
5.80041e-05
5.77334e-05
5.74205e-05
5.70641e-05
5.66626e-05
5.62145e-05
5.57177e-05
5.51704e-05
5.45702e-05
5.39146e-05
5.32006e-05
5.24249e-05
5.15837e-05
5.06727e-05
4.96871e-05
4.86222e-05
4.74736e-05
5.35072e-05
5.07054e-05
4.76445e-05
4.43095e-05
4.06721e-05
3.66877e-05
3.22877e-05
2.736e-05
2.17017e-05
1.48772e-05
3.73408e-08
1.40241e-10
1.40205e-10
3.7332e-08
1.48752e-05
2.16994e-05
2.73576e-05
3.22852e-05
3.66852e-05
4.06697e-05
4.43072e-05
4.76423e-05
5.07035e-05
5.35055e-05
4.7473e-05
4.86216e-05
4.96866e-05
5.06723e-05
5.15834e-05
5.24246e-05
5.32003e-05
5.39144e-05
5.45701e-05
5.51703e-05
5.57177e-05
5.62145e-05
5.66627e-05
5.70642e-05
5.74206e-05
5.77335e-05
5.80042e-05
5.82339e-05
5.84237e-05
5.85744e-05
5.86868e-05
5.87614e-05
5.87987e-05
5.87986e-05
5.87614e-05
5.86868e-05
5.85744e-05
5.84236e-05
5.82338e-05
5.80041e-05
5.77334e-05
5.74205e-05
5.70641e-05
5.66626e-05
5.62145e-05
5.57177e-05
5.51704e-05
5.45702e-05
5.39146e-05
5.32006e-05
5.24249e-05
5.15837e-05
5.06727e-05
4.96871e-05
4.86222e-05
4.74736e-05
5.35072e-05
5.07054e-05
4.76445e-05
4.43095e-05
4.06721e-05
3.66877e-05
3.22877e-05
2.736e-05
2.17017e-05
1.48772e-05
3.73408e-08
1.40241e-10
1.40205e-10
3.7332e-08
1.48752e-05
2.16994e-05
2.73576e-05
3.22852e-05
3.66852e-05
4.06697e-05
4.43072e-05
4.76423e-05
5.07035e-05
5.35055e-05
4.7473e-05
4.86216e-05
4.96866e-05
5.06723e-05
5.15834e-05
5.24246e-05
5.32003e-05
5.39144e-05
5.45701e-05
5.51703e-05
5.57177e-05
5.62145e-05
5.66627e-05
5.70642e-05
5.74206e-05
5.77335e-05
5.80042e-05
5.82339e-05
5.84237e-05
5.85744e-05
5.86868e-05
5.87614e-05
5.87987e-05
5.87986e-05
5.87614e-05
5.86868e-05
5.85744e-05
5.84236e-05
5.82338e-05
5.80041e-05
5.77334e-05
5.74205e-05
5.70641e-05
5.66626e-05
5.62145e-05
5.57177e-05
5.51704e-05
5.45702e-05
5.39146e-05
5.32006e-05
5.24249e-05
5.15837e-05
5.06727e-05
4.96871e-05
4.86222e-05
4.74736e-05
5.35072e-05
5.07054e-05
4.76445e-05
4.43095e-05
4.06721e-05
3.66877e-05
3.22877e-05
2.736e-05
2.17017e-05
1.48772e-05
3.73408e-08
1.40241e-10
1.40205e-10
3.7332e-08
1.48752e-05
2.16994e-05
2.73576e-05
3.22852e-05
3.66852e-05
4.06697e-05
4.43072e-05
4.76423e-05
5.07035e-05
5.35055e-05
4.7473e-05
4.86216e-05
4.96866e-05
5.06723e-05
5.15834e-05
5.24246e-05
5.32003e-05
5.39144e-05
5.45701e-05
5.51703e-05
5.57177e-05
5.62145e-05
5.66627e-05
5.70642e-05
5.74206e-05
5.77335e-05
5.80042e-05
5.82339e-05
5.84237e-05
5.85744e-05
5.86868e-05
5.87614e-05
5.87987e-05
5.87986e-05
5.87614e-05
5.86868e-05
5.85744e-05
5.84236e-05
5.82338e-05
5.80041e-05
5.77334e-05
5.74205e-05
5.70641e-05
5.66626e-05
5.62145e-05
5.57177e-05
5.51704e-05
5.45702e-05
5.39146e-05
5.32006e-05
5.24249e-05
5.15837e-05
5.06727e-05
4.96871e-05
4.86222e-05
4.74736e-05
5.35072e-05
5.07054e-05
4.76445e-05
4.43095e-05
4.06721e-05
3.66877e-05
3.22877e-05
2.736e-05
2.17017e-05
1.48772e-05
3.73408e-08
1.40241e-10
1.40205e-10
3.7332e-08
1.48752e-05
2.16994e-05
2.73576e-05
3.22852e-05
3.66852e-05
4.06697e-05
4.43072e-05
4.76423e-05
5.07035e-05
5.35055e-05
4.7473e-05
4.86216e-05
4.96866e-05
5.06723e-05
5.15834e-05
5.24246e-05
5.32003e-05
5.39144e-05
5.45701e-05
5.51703e-05
5.57177e-05
5.62145e-05
5.66627e-05
5.70642e-05
5.74206e-05
5.77335e-05
5.80042e-05
5.82339e-05
5.84237e-05
5.85744e-05
5.86868e-05
5.87614e-05
5.87987e-05
5.87986e-05
5.87614e-05
5.86868e-05
5.85744e-05
5.84236e-05
5.82338e-05
5.80041e-05
5.77334e-05
5.74205e-05
5.70641e-05
5.66626e-05
5.62145e-05
5.57177e-05
5.51704e-05
5.45702e-05
5.39146e-05
5.32006e-05
5.24249e-05
5.15837e-05
5.06727e-05
4.96871e-05
4.86222e-05
4.74736e-05
5.35072e-05
5.07054e-05
4.76445e-05
4.43095e-05
4.06721e-05
3.66877e-05
3.22877e-05
2.736e-05
2.17017e-05
1.48772e-05
3.73408e-08
1.40241e-10
1.40205e-10
3.7332e-08
1.48752e-05
2.16994e-05
2.73576e-05
3.22852e-05
3.66852e-05
4.06697e-05
4.43072e-05
4.76423e-05
5.07035e-05
5.35055e-05
4.7473e-05
4.86216e-05
4.96866e-05
5.06723e-05
5.15834e-05
5.24246e-05
5.32003e-05
5.39144e-05
5.45701e-05
5.51703e-05
5.57177e-05
5.62145e-05
5.66627e-05
5.70642e-05
5.74206e-05
5.77335e-05
5.80042e-05
5.82339e-05
5.84237e-05
5.85744e-05
5.86868e-05
5.87614e-05
5.87987e-05
5.87986e-05
5.87614e-05
5.86868e-05
5.85744e-05
5.84236e-05
5.82338e-05
5.80041e-05
5.77334e-05
5.74205e-05
5.70641e-05
5.66626e-05
5.62145e-05
5.57177e-05
5.51704e-05
5.45702e-05
5.39146e-05
5.32006e-05
5.24249e-05
5.15837e-05
5.06727e-05
4.96871e-05
4.86222e-05
4.74736e-05
5.35072e-05
5.07054e-05
4.76445e-05
4.43095e-05
4.06721e-05
3.66877e-05
3.22877e-05
2.736e-05
2.17017e-05
1.48772e-05
3.73408e-08
1.40241e-10
1.40205e-10
3.7332e-08
1.48752e-05
2.16994e-05
2.73576e-05
3.22852e-05
3.66852e-05
4.06697e-05
4.43072e-05
4.76423e-05
5.07035e-05
5.35055e-05
4.7473e-05
4.86216e-05
4.96866e-05
5.06723e-05
5.15834e-05
5.24246e-05
5.32003e-05
5.39144e-05
5.45701e-05
5.51703e-05
5.57177e-05
5.62145e-05
5.66627e-05
5.70642e-05
5.74206e-05
5.77335e-05
5.80042e-05
5.82339e-05
5.84237e-05
5.85744e-05
5.86868e-05
5.87614e-05
5.87987e-05
5.87986e-05
5.87614e-05
5.86868e-05
5.85744e-05
5.84236e-05
5.82338e-05
5.80041e-05
5.77334e-05
5.74205e-05
5.70641e-05
5.66626e-05
5.62145e-05
5.57177e-05
5.51704e-05
5.45702e-05
5.39146e-05
5.32006e-05
5.24249e-05
5.15837e-05
5.06727e-05
4.96871e-05
4.86222e-05
4.74736e-05
5.35072e-05
5.07054e-05
4.76445e-05
4.43095e-05
4.06721e-05
3.66877e-05
3.22877e-05
2.736e-05
2.17017e-05
1.48772e-05
3.73408e-08
1.40241e-10
1.40205e-10
3.7332e-08
1.48752e-05
2.16994e-05
2.73576e-05
3.22852e-05
3.66852e-05
4.06697e-05
4.43072e-05
4.76423e-05
5.07035e-05
5.35055e-05
4.7473e-05
4.86216e-05
4.96866e-05
5.06723e-05
5.15834e-05
5.24246e-05
5.32003e-05
5.39144e-05
5.45701e-05
5.51703e-05
5.57177e-05
5.62145e-05
5.66627e-05
5.70642e-05
5.74206e-05
5.77335e-05
5.80042e-05
5.82339e-05
5.84237e-05
5.85744e-05
5.86868e-05
5.87614e-05
5.87987e-05
5.87986e-05
5.87614e-05
5.86868e-05
5.85744e-05
5.84236e-05
5.82338e-05
5.80041e-05
5.77334e-05
5.74205e-05
5.70641e-05
5.66626e-05
5.62145e-05
5.57177e-05
5.51704e-05
5.45702e-05
5.39146e-05
5.32006e-05
5.24249e-05
5.15837e-05
5.06727e-05
4.96871e-05
4.86222e-05
4.74736e-05
5.35072e-05
5.07054e-05
4.76445e-05
4.43095e-05
4.06721e-05
3.66877e-05
3.22877e-05
2.736e-05
2.17017e-05
1.48772e-05
3.73408e-08
1.40241e-10
1.40205e-10
3.7332e-08
1.48752e-05
2.16994e-05
2.73576e-05
3.22852e-05
3.66852e-05
4.06697e-05
4.43072e-05
4.76423e-05
5.07035e-05
5.35055e-05
4.7473e-05
4.86216e-05
4.96866e-05
5.06723e-05
5.15834e-05
5.24246e-05
5.32003e-05
5.39144e-05
5.45701e-05
5.51703e-05
5.57177e-05
5.62145e-05
5.66627e-05
5.70642e-05
5.74206e-05
5.77335e-05
5.80042e-05
5.82339e-05
5.84237e-05
5.85744e-05
5.86868e-05
5.87614e-05
5.87987e-05
5.87986e-05
5.87614e-05
5.86868e-05
5.85744e-05
5.84236e-05
5.82338e-05
5.80041e-05
5.77334e-05
5.74205e-05
5.70641e-05
5.66626e-05
5.62145e-05
5.57177e-05
5.51704e-05
5.45702e-05
5.39146e-05
5.32006e-05
5.24249e-05
5.15837e-05
5.06727e-05
4.96871e-05
4.86222e-05
4.74736e-05
5.35072e-05
5.07054e-05
4.76445e-05
4.43095e-05
4.06721e-05
3.66877e-05
3.22877e-05
2.736e-05
2.17017e-05
1.48772e-05
3.73408e-08
1.40241e-10
1.40205e-10
3.7332e-08
1.48752e-05
2.16994e-05
2.73576e-05
3.22852e-05
3.66852e-05
4.06697e-05
4.43072e-05
4.76423e-05
5.07035e-05
5.35055e-05
4.7473e-05
4.86216e-05
4.96866e-05
5.06723e-05
5.15834e-05
5.24246e-05
5.32003e-05
5.39144e-05
5.45701e-05
5.51703e-05
5.57177e-05
5.62145e-05
5.66627e-05
5.70642e-05
5.74206e-05
5.77335e-05
5.80042e-05
5.82339e-05
5.84237e-05
5.85744e-05
5.86868e-05
5.87614e-05
5.87987e-05
5.87986e-05
5.87614e-05
5.86868e-05
5.85744e-05
5.84236e-05
5.82338e-05
5.80041e-05
5.77334e-05
5.74205e-05
5.70641e-05
5.66626e-05
5.62145e-05
5.57177e-05
5.51704e-05
5.45702e-05
5.39146e-05
5.32006e-05
5.24249e-05
5.15837e-05
5.06727e-05
4.96871e-05
4.86222e-05
4.74736e-05
5.35072e-05
5.07054e-05
4.76445e-05
4.43095e-05
4.06721e-05
3.66877e-05
3.22877e-05
2.736e-05
2.17017e-05
1.48772e-05
3.73408e-08
1.40241e-10
1.40205e-10
3.7332e-08
1.48752e-05
2.16994e-05
2.73576e-05
3.22852e-05
3.66852e-05
4.06697e-05
4.43072e-05
4.76423e-05
5.07035e-05
5.35055e-05
4.7473e-05
4.86216e-05
4.96866e-05
5.06723e-05
5.15834e-05
5.24246e-05
5.32003e-05
5.39144e-05
5.45701e-05
5.51703e-05
5.57177e-05
5.62145e-05
5.66627e-05
5.70642e-05
5.74206e-05
5.77335e-05
5.80042e-05
5.82339e-05
5.84237e-05
5.85744e-05
5.86868e-05
5.87614e-05
5.87987e-05
5.87986e-05
5.87614e-05
5.86868e-05
5.85744e-05
5.84236e-05
5.82338e-05
5.80041e-05
5.77334e-05
5.74205e-05
5.70641e-05
5.66626e-05
5.62145e-05
5.57177e-05
5.51704e-05
5.45702e-05
5.39146e-05
5.32006e-05
5.24249e-05
5.15837e-05
5.06727e-05
4.96871e-05
4.86222e-05
4.74736e-05
5.35072e-05
5.07054e-05
4.76445e-05
4.43095e-05
4.06721e-05
3.66877e-05
3.22877e-05
2.736e-05
2.17017e-05
1.48772e-05
3.73408e-08
1.40241e-10
1.40205e-10
3.7332e-08
1.48752e-05
2.16994e-05
2.73576e-05
3.22852e-05
3.66852e-05
4.06697e-05
4.43072e-05
4.76423e-05
5.07035e-05
5.35055e-05
4.7473e-05
4.86216e-05
4.96866e-05
5.06723e-05
5.15834e-05
5.24246e-05
5.32003e-05
5.39144e-05
5.45701e-05
5.51703e-05
5.57177e-05
5.62145e-05
5.66627e-05
5.70642e-05
5.74206e-05
5.77335e-05
5.80042e-05
5.82339e-05
5.84237e-05
5.85744e-05
5.86868e-05
5.87614e-05
5.87987e-05
5.87986e-05
5.87614e-05
5.86868e-05
5.85744e-05
5.84236e-05
5.82338e-05
5.80041e-05
5.77334e-05
5.74205e-05
5.70641e-05
5.66626e-05
5.62145e-05
5.57177e-05
5.51704e-05
5.45702e-05
5.39146e-05
5.32006e-05
5.24249e-05
5.15837e-05
5.06727e-05
4.96871e-05
4.86222e-05
4.74736e-05
5.35072e-05
5.07054e-05
4.76445e-05
4.43095e-05
4.06721e-05
3.66877e-05
3.22877e-05
2.736e-05
2.17017e-05
1.48772e-05
3.73408e-08
1.40241e-10
1.40205e-10
3.7332e-08
1.48752e-05
2.16994e-05
2.73576e-05
3.22852e-05
3.66852e-05
4.06697e-05
4.43072e-05
4.76423e-05
5.07035e-05
5.35055e-05
4.7473e-05
4.86216e-05
4.96866e-05
5.06723e-05
5.15834e-05
5.24246e-05
5.32003e-05
5.39144e-05
5.45701e-05
5.51703e-05
5.57177e-05
5.62145e-05
5.66627e-05
5.70642e-05
5.74206e-05
5.77335e-05
5.80042e-05
5.82339e-05
5.84237e-05
5.85744e-05
5.86868e-05
5.87614e-05
5.87987e-05
5.87986e-05
5.87614e-05
5.86868e-05
5.85744e-05
5.84236e-05
5.82338e-05
5.80041e-05
5.77334e-05
5.74205e-05
5.70641e-05
5.66626e-05
5.62145e-05
5.57177e-05
5.51704e-05
5.45702e-05
5.39146e-05
5.32006e-05
5.24249e-05
5.15837e-05
5.06727e-05
4.96871e-05
4.86222e-05
4.74736e-05
5.35072e-05
5.07054e-05
4.76445e-05
4.43095e-05
4.06721e-05
3.66877e-05
3.22877e-05
2.736e-05
2.17017e-05
1.48772e-05
3.73408e-08
1.40241e-10
1.40205e-10
3.7332e-08
1.48752e-05
2.16994e-05
2.73576e-05
3.22852e-05
3.66852e-05
4.06697e-05
4.43072e-05
4.76423e-05
5.07035e-05
5.35055e-05
4.7473e-05
4.86216e-05
4.96866e-05
5.06723e-05
5.15834e-05
5.24246e-05
5.32003e-05
5.39144e-05
5.45701e-05
5.51703e-05
5.57177e-05
5.62145e-05
5.66627e-05
5.70642e-05
5.74206e-05
5.77335e-05
5.80042e-05
5.82339e-05
5.84237e-05
5.85744e-05
5.86868e-05
5.87614e-05
5.87987e-05
5.87986e-05
5.87614e-05
5.86868e-05
5.85744e-05
5.84236e-05
5.82338e-05
5.80041e-05
5.77334e-05
5.74205e-05
5.70641e-05
5.66626e-05
5.62145e-05
5.57177e-05
5.51704e-05
5.45702e-05
5.39146e-05
5.32006e-05
5.24249e-05
5.15837e-05
5.06727e-05
4.96871e-05
4.86222e-05
4.74736e-05
5.35072e-05
5.07054e-05
4.76445e-05
4.43095e-05
4.06721e-05
3.66877e-05
3.22877e-05
2.736e-05
2.17017e-05
1.48772e-05
3.73408e-08
1.40241e-10
1.40205e-10
3.7332e-08
1.48752e-05
2.16994e-05
2.73576e-05
3.22852e-05
3.66852e-05
4.06697e-05
4.43072e-05
4.76423e-05
5.07035e-05
5.35055e-05
4.7473e-05
4.86216e-05
4.96866e-05
5.06723e-05
5.15834e-05
5.24246e-05
5.32003e-05
5.39144e-05
5.45701e-05
5.51703e-05
5.57177e-05
5.62145e-05
5.66627e-05
5.70642e-05
5.74206e-05
5.77335e-05
5.80042e-05
5.82339e-05
5.84237e-05
5.85744e-05
5.86868e-05
5.87614e-05
5.87987e-05
5.87986e-05
5.87614e-05
5.86868e-05
5.85744e-05
5.84236e-05
5.82338e-05
5.80041e-05
5.77334e-05
5.74205e-05
5.70641e-05
5.66626e-05
5.62145e-05
5.57177e-05
5.51704e-05
5.45702e-05
5.39146e-05
5.32006e-05
5.24249e-05
5.15837e-05
5.06727e-05
4.96871e-05
4.86222e-05
4.74736e-05
5.35072e-05
5.07054e-05
4.76445e-05
4.43095e-05
4.06721e-05
3.66877e-05
3.22877e-05
2.736e-05
2.17017e-05
1.48772e-05
3.73408e-08
1.40241e-10
1.40205e-10
3.7332e-08
1.48752e-05
2.16994e-05
2.73576e-05
3.22852e-05
3.66852e-05
4.06697e-05
4.43072e-05