/*--------------------------------*- C++ -*----------------------------------*\
  =========                 |
  \\      /  F ield         | OpenFOAM: The Open Source CFD Toolbox
   \\    /   O peration     | Website:  https://openfoam.org
    \\  /    A nd           | Version:  13
     \\/     M anipulation  |
\*---------------------------------------------------------------------------*/
FoamFile
{
    format      ascii;
    class       volScalarField;
    location    "182.5";
    object      nut;
}
// * * * * * * * * * * * * * * * * * * * * * * * * * * * * * * * * * * * * * //

dimensions      [0 2 -1 0 0 0 0];

internalField   nonuniform List<scalar> 
315000
(
2.02737e-16
5.31138e-14
1.21249e-12
2.17755e-12
3.16023e-12
4.16335e-12
5.19021e-12
6.2438e-12
7.32632e-12
8.43902e-12
9.58206e-12
1.07545e-11
1.19543e-11
1.31784e-11
1.44225e-11
1.56816e-11
1.69497e-11
1.82199e-11
1.94849e-11
2.07366e-11
2.19668e-11
2.31667e-11
2.43275e-11
2.54404e-11
2.64968e-11
2.74881e-11
2.84063e-11
2.92436e-11
2.99931e-11
3.06484e-11
3.12038e-11
3.16545e-11
3.19965e-11
3.22269e-11
3.23436e-11
3.23456e-11
3.22329e-11
3.20064e-11
3.16682e-11
3.12213e-11
3.06695e-11
3.00175e-11
2.92712e-11
2.84367e-11
2.75211e-11
2.65321e-11
2.54777e-11
2.43664e-11
2.32069e-11
2.2008e-11
2.07784e-11
1.95269e-11
1.82619e-11
1.69913e-11
1.57225e-11
1.44624e-11
1.32169e-11
1.19913e-11
1.07897e-11
9.61524e-12
8.46997e-12
7.35487e-12
6.26974e-12
5.21334e-12
4.18343e-12
3.17695e-12
2.19046e-12
1.22078e-12
5.35452e-14
2.04536e-16
5.07902e-15
1.35305e-12
3.08324e-10
5.58129e-10
8.11504e-10
1.06978e-09
1.3341e-09
1.60538e-09
1.88425e-09
2.17109e-09
2.46595e-09
2.76861e-09
3.07856e-09
3.39497e-09
3.71676e-09
4.04261e-09
4.37095e-09
4.7e-09
5.02783e-09
5.35236e-09
5.67138e-09
5.98266e-09
6.28387e-09
6.57272e-09
6.84693e-09
7.1043e-09
7.3427e-09
7.56015e-09
7.75479e-09
7.92497e-09
8.0692e-09
8.18623e-09
8.27504e-09
8.33483e-09
8.36508e-09
8.36553e-09
8.33616e-09
8.27724e-09
8.18929e-09
8.07308e-09
7.92964e-09
7.7602e-09
7.56625e-09
7.34943e-09
7.1116e-09
6.85473e-09
6.58095e-09
6.29246e-09
5.99152e-09
5.68045e-09
5.36154e-09
5.03706e-09
4.70919e-09
4.38003e-09
4.05151e-09
3.72541e-09
3.4033e-09
3.08651e-09
2.77614e-09
2.47299e-09
2.1776e-09
1.89018e-09
1.61069e-09
1.33874e-09
1.0737e-09
8.1464e-10
5.60415e-10
3.09668e-10
1.35933e-12
5.10324e-15
2.0533e-14
5.47798e-12
3.18308e-09
5.76913e-09
8.39682e-09
1.10826e-08
1.38409e-08
1.66834e-08
1.96188e-08
2.26525e-08
2.57864e-08
2.90188e-08
3.23444e-08
3.57546e-08
3.92371e-08
4.27769e-08
4.6356e-08
4.9954e-08
5.35486e-08
5.71157e-08
6.06299e-08
6.40651e-08
6.73948e-08
7.05925e-08
7.36318e-08
7.64874e-08
7.9135e-08
8.15517e-08
8.37163e-08
8.56096e-08
8.72149e-08
8.85178e-08
8.95064e-08
9.01718e-08
9.05081e-08
9.05121e-08
9.01838e-08
8.95262e-08
8.85453e-08
8.72498e-08
8.56516e-08
8.37648e-08
8.16064e-08
7.91953e-08
7.65527e-08
7.37015e-08
7.06659e-08
6.74713e-08
6.41439e-08
6.07102e-08
5.71968e-08
5.36299e-08
5.00347e-08
4.64354e-08
4.28543e-08
3.9312e-08
3.58263e-08
3.24125e-08
2.90827e-08
2.58457e-08
2.27068e-08
1.96678e-08
1.67268e-08
1.38783e-08
1.11138e-08
8.42135e-09
5.78666e-09
3.19316e-09
5.49607e-12
2.06021e-14
3.92672e-14
1.04768e-11
6.08907e-09
1.10444e-08
1.60947e-08
2.12788e-08
2.66305e-08
3.21786e-08
3.79452e-08
4.39453e-08
5.01863e-08
5.66674e-08
6.33797e-08
7.03064e-08
7.74227e-08
8.46967e-08
9.20897e-08
9.95572e-08
1.0705e-07
1.14514e-07
1.21894e-07
1.29131e-07
1.36165e-07
1.42938e-07
1.49389e-07
1.55463e-07
1.61103e-07
1.66259e-07
1.70883e-07
1.74932e-07
1.78367e-07
1.81156e-07
1.83274e-07
1.84699e-07
1.85418e-07
1.85425e-07
1.84719e-07
1.83308e-07
1.81203e-07
1.78427e-07
1.75003e-07
1.70966e-07
1.66353e-07
1.61206e-07
1.55574e-07
1.49508e-07
1.43063e-07
1.36295e-07
1.29264e-07
1.2203e-07
1.14651e-07
1.07186e-07
9.96924e-08
9.22223e-08
8.48255e-08
7.75468e-08
7.04248e-08
6.34915e-08
5.67718e-08
5.02827e-08
4.40331e-08
3.80239e-08
3.22477e-08
2.66897e-08
2.13276e-08
1.6133e-08
1.10715e-08
6.10456e-09
1.05046e-11
3.9373e-14
6.15448e-14
1.64218e-11
9.54543e-09
1.73226e-08
2.52667e-08
3.34463e-08
4.19228e-08
5.07482e-08
5.99636e-08
6.95983e-08
7.96684e-08
9.01759e-08
1.01109e-07
1.12442e-07
1.24136e-07
1.36137e-07
1.48381e-07
1.60793e-07
1.7329e-07
1.8578e-07
1.98168e-07
2.10354e-07
2.22234e-07
2.33705e-07
2.44661e-07
2.54999e-07
2.64621e-07
2.73432e-07
2.81347e-07
2.88285e-07
2.94178e-07
2.98968e-07
3.02605e-07
3.05053e-07
3.06288e-07
3.06298e-07
3.05082e-07
3.02652e-07
2.99033e-07
2.94261e-07
2.88385e-07
2.81462e-07
2.73562e-07
2.64763e-07
2.55153e-07
2.44824e-07
2.33877e-07
2.22413e-07
2.10537e-07
1.98354e-07
1.85967e-07
1.73476e-07
1.60977e-07
1.48561e-07
1.36312e-07
1.24304e-07
1.12603e-07
1.0126e-07
9.03167e-08
7.9798e-08
6.9716e-08
6.00687e-08
5.08402e-08
4.20013e-08
3.3511e-08
2.5317e-08
1.73582e-08
9.56569e-09
1.64581e-11
6.16833e-14
8.63608e-14
2.30446e-11
1.33954e-08
2.43161e-08
3.54854e-08
4.70071e-08
5.89736e-08
7.14641e-08
8.45417e-08
9.82518e-08
1.1262e-07
1.27653e-07
1.43335e-07
1.59629e-07
1.7648e-07
1.93811e-07
2.11529e-07
2.29525e-07
2.47677e-07
2.65854e-07
2.83917e-07
3.01718e-07
3.19106e-07
3.35922e-07
3.52009e-07
3.67209e-07
3.81372e-07
3.94354e-07
4.06023e-07
4.1626e-07
4.2496e-07
4.32032e-07
4.37404e-07
4.4102e-07
4.42844e-07
4.42855e-07
4.41055e-07
4.37462e-07
4.32112e-07
4.25061e-07
4.16382e-07
4.06164e-07
3.94512e-07
3.81545e-07
3.67397e-07
3.52209e-07
3.36132e-07
3.19323e-07
3.01941e-07
2.84143e-07
2.66082e-07
2.47904e-07
2.29749e-07
2.11749e-07
1.94024e-07
1.76685e-07
1.59824e-07
1.43518e-07
1.27824e-07
1.12777e-07
9.83941e-08
8.46686e-08
7.1575e-08
5.9068e-08
4.70846e-08
3.55457e-08
2.43586e-08
1.34196e-08
2.30879e-11
8.65264e-14
1.12192e-13
2.99386e-11
1.74022e-08
3.15924e-08
4.61151e-08
6.11101e-08
7.67024e-08
9.29986e-08
1.10084e-07
1.2802e-07
1.46842e-07
1.66559e-07
1.87149e-07
2.08565e-07
2.30731e-07
2.53547e-07
2.76886e-07
3.00604e-07
3.24541e-07
3.48523e-07
3.72366e-07
3.95877e-07
4.18853e-07
4.41084e-07
4.62356e-07
4.82462e-07
5.01199e-07
5.18376e-07
5.33817e-07
5.47364e-07
5.58877e-07
5.68236e-07
5.75344e-07
5.80129e-07
5.8254e-07
5.82553e-07
5.80168e-07
5.75409e-07
5.68326e-07
5.58991e-07
5.47502e-07
5.33976e-07
5.18554e-07
5.01395e-07
4.82674e-07
4.62582e-07
4.4132e-07
4.19099e-07
3.96129e-07
3.72622e-07
3.4878e-07
3.24798e-07
3.00858e-07
2.77134e-07
2.53788e-07
2.30963e-07
2.08785e-07
1.87356e-07
1.66752e-07
1.4702e-07
1.28181e-07
1.10227e-07
9.31236e-08
7.68087e-08
6.11973e-08
4.61828e-08
3.16401e-08
1.74292e-08
2.99872e-11
1.12378e-13
1.37536e-13
3.67028e-11
2.13325e-08
3.87276e-08
5.65351e-08
7.49298e-08
9.40679e-08
1.14082e-07
1.35079e-07
1.57135e-07
1.80291e-07
2.04558e-07
2.2991e-07
2.56284e-07
2.83585e-07
3.11684e-07
3.40426e-07
3.69628e-07
3.99092e-07
4.28605e-07
4.5794e-07
4.8686e-07
5.15115e-07
5.42445e-07
5.6859e-07
5.93294e-07
6.16309e-07
6.37403e-07
6.56359e-07
6.72986e-07
6.87112e-07
6.98592e-07
7.07311e-07
7.13178e-07
7.16133e-07
7.16147e-07
7.1322e-07
7.0738e-07
6.98689e-07
6.87234e-07
6.73132e-07
6.56529e-07
6.37593e-07
6.16519e-07
5.93521e-07
5.68832e-07
5.42698e-07
5.15378e-07
4.8713e-07
4.58215e-07
4.28881e-07
3.99368e-07
3.69901e-07
3.40693e-07
3.11944e-07
2.83834e-07
2.56521e-07
2.30133e-07
2.04767e-07
1.80483e-07
1.57308e-07
1.35234e-07
1.14217e-07
9.41822e-08
7.50234e-08
5.66076e-08
3.87786e-08
2.13614e-08
3.67549e-11
1.37735e-13
1.61161e-13
4.30088e-11
2.49957e-08
4.53758e-08
6.62408e-08
8.77978e-08
1.10231e-07
1.33698e-07
1.58324e-07
1.84195e-07
2.11362e-07
2.39834e-07
2.69577e-07
3.00515e-07
3.32533e-07
3.65476e-07
3.99157e-07
4.33361e-07
4.67852e-07
5.02382e-07
5.36685e-07
5.70484e-07
6.03488e-07
6.35395e-07
6.65904e-07
6.94717e-07
7.21547e-07
7.46126e-07
7.68207e-07
7.87566e-07
8.04008e-07
8.17368e-07
8.27511e-07
8.34335e-07
8.37771e-07
8.37786e-07
8.34378e-07
8.27583e-07
8.17468e-07
8.04135e-07
7.87717e-07
7.68382e-07
7.46323e-07
7.21764e-07
6.94951e-07
6.66154e-07
6.35658e-07
6.0376e-07
5.70764e-07
5.3697e-07
5.02669e-07
4.68139e-07
4.33644e-07
3.99435e-07
3.65746e-07
3.32793e-07
3.00763e-07
2.6981e-07
2.40051e-07
2.11562e-07
1.84376e-07
1.58484e-07
1.33838e-07
1.1035e-07
8.78948e-08
6.63158e-08
4.54286e-08
2.50256e-08
4.30628e-11
1.61368e-13
1.82197e-13
4.86239e-11
2.8257e-08
5.1293e-08
7.48771e-08
9.92449e-08
1.24606e-07
1.51138e-07
1.78982e-07
2.08236e-07
2.38954e-07
2.71145e-07
3.04766e-07
3.39729e-07
3.759e-07
4.13099e-07
4.51112e-07
4.89692e-07
5.28574e-07
5.67475e-07
6.06097e-07
6.44129e-07
6.81243e-07
7.17105e-07
7.51376e-07
7.83726e-07
8.13835e-07
8.41406e-07
8.66165e-07
8.87864e-07
9.06288e-07
9.21255e-07
9.32614e-07
9.40256e-07
9.44102e-07
9.44117e-07
9.40299e-07
9.32687e-07
9.21355e-07
9.06416e-07
8.88017e-07
8.66342e-07
8.41606e-07
8.14055e-07
7.83963e-07
7.51629e-07
7.17371e-07
6.81519e-07
6.44412e-07
6.06386e-07
5.67766e-07
5.28865e-07
4.8998e-07
4.51394e-07
4.13373e-07
3.76164e-07
3.39981e-07
3.05003e-07
2.71365e-07
2.39157e-07
2.08419e-07
1.79145e-07
1.5128e-07
1.24726e-07
9.93431e-08
7.49529e-08
5.13463e-08
2.82871e-08
4.86785e-11
1.82406e-13
2.00143e-13
5.34148e-11
3.10392e-08
5.634e-08
8.2242e-08
1.09005e-07
1.3686e-07
1.66003e-07
1.96586e-07
2.28718e-07
2.62455e-07
2.97804e-07
3.34717e-07
3.73093e-07
4.1278e-07
4.53579e-07
4.95248e-07
5.37518e-07
5.80095e-07
6.22668e-07
6.64912e-07
7.06488e-07
7.47039e-07
7.86202e-07
8.23609e-07
8.58903e-07
8.9174e-07
9.21796e-07
9.48778e-07
9.72418e-07
9.92485e-07
1.00878e-06
1.02115e-06
1.02947e-06
1.03365e-06
1.03367e-06
1.02951e-06
1.02122e-06
1.00888e-06
9.92612e-07
9.72571e-07
9.48954e-07
9.21995e-07
8.91958e-07
8.5914e-07
8.23861e-07
7.86467e-07
7.47314e-07
7.06771e-07
6.652e-07
6.22958e-07
5.80385e-07
5.37806e-07
4.9553e-07
4.53853e-07
4.13044e-07
3.73345e-07
3.34955e-07
2.98025e-07
2.62658e-07
2.28901e-07
1.96749e-07
1.66145e-07
1.3698e-07
1.09103e-07
8.23175e-08
5.63929e-08
3.10691e-08
5.34691e-11
2.00352e-13
2.14842e-13
5.73395e-11
3.33183e-08
6.04738e-08
8.82737e-08
1.16998e-07
1.46895e-07
1.78174e-07
2.10999e-07
2.45485e-07
2.81692e-07
3.19624e-07
3.59226e-07
4.00389e-07
4.42945e-07
4.86676e-07
5.31324e-07
5.76594e-07
6.22172e-07
6.67725e-07
7.12904e-07
7.57348e-07
8.00678e-07
8.42506e-07
8.82444e-07
9.20112e-07
9.55145e-07
9.87203e-07
1.01597e-06
1.04117e-06
1.06256e-06
1.07993e-06
1.0931e-06
1.10196e-06
1.10642e-06
1.10644e-06
1.10201e-06
1.09317e-06
1.08002e-06
1.06269e-06
1.04132e-06
1.01615e-06
9.87399e-07
9.55361e-07
9.20346e-07
8.82694e-07
8.42768e-07
8.0095e-07
7.57628e-07
7.13189e-07
6.68012e-07
6.22459e-07
5.76879e-07
5.31603e-07
4.86948e-07
4.43206e-07
4.00638e-07
3.59462e-07
3.19843e-07
2.81893e-07
2.45667e-07
2.1116e-07
1.78314e-07
1.47013e-07
1.17094e-07
8.83479e-08
6.05257e-08
3.33477e-08
5.7393e-11
2.15048e-13
2.2642e-13
6.04312e-11
3.51135e-08
6.37299e-08
9.30246e-08
1.23294e-07
1.54799e-07
1.87761e-07
2.22353e-07
2.58694e-07
2.96846e-07
3.36813e-07
3.78534e-07
4.2189e-07
4.66703e-07
5.12742e-07
5.5973e-07
6.07357e-07
6.5529e-07
7.03179e-07
7.50659e-07
7.97348e-07
8.42851e-07
8.86764e-07
9.28679e-07
9.682e-07
1.00495e-06
1.03857e-06
1.06873e-06
1.09515e-06
1.11756e-06
1.13576e-06
1.14957e-06
1.15885e-06
1.16352e-06
1.16354e-06
1.15889e-06
1.14964e-06
1.13586e-06
1.11769e-06
1.0953e-06
1.0689e-06
1.03876e-06
1.00516e-06
9.6843e-07
9.28924e-07
8.87022e-07
8.4312e-07
7.97624e-07
7.50939e-07
7.03462e-07
6.55573e-07
6.07637e-07
5.60005e-07
5.1301e-07
4.66961e-07
4.22136e-07
3.78766e-07
3.37028e-07
2.97044e-07
2.58873e-07
2.22512e-07
1.87899e-07
1.54915e-07
1.23388e-07
9.30973e-08
6.37807e-08
3.51423e-08
6.04836e-11
2.26622e-13
2.352e-13
6.27762e-11
3.64753e-08
6.61995e-08
9.66282e-08
1.28069e-07
1.60795e-07
1.95035e-07
2.30969e-07
2.68719e-07
3.0835e-07
3.49862e-07
3.93193e-07
4.38216e-07
4.84744e-07
5.32535e-07
5.813e-07
6.30715e-07
6.80435e-07
7.30096e-07
7.79319e-07
8.2771e-07
8.74859e-07
9.20349e-07
9.6376e-07
1.00468e-06
1.04273e-06
1.07753e-06
1.10874e-06
1.13608e-06
1.15927e-06
1.1781e-06
1.19238e-06
1.20198e-06
1.20682e-06
1.20683e-06
1.20203e-06
1.19245e-06
1.17819e-06
1.15939e-06
1.13622e-06
1.10891e-06
1.07771e-06
1.04294e-06
1.00491e-06
9.64001e-07
9.20603e-07
8.75123e-07
8.27981e-07
7.79595e-07
7.30375e-07
6.80714e-07
6.30991e-07
5.81571e-07
5.32799e-07
4.84998e-07
4.38458e-07
3.93421e-07
3.50074e-07
3.08545e-07
2.68895e-07
2.31125e-07
1.95171e-07
1.60909e-07
1.28162e-07
9.66994e-08
6.62493e-08
3.65034e-08
6.28275e-11
2.35398e-13
2.41618e-13
6.44907e-11
3.7471e-08
6.80055e-08
9.92636e-08
1.31562e-07
1.65182e-07
2.00358e-07
2.37274e-07
2.76058e-07
3.16773e-07
3.59419e-07
4.03931e-07
4.50178e-07
4.97965e-07
5.47042e-07
5.97111e-07
6.47839e-07
6.9887e-07
7.49831e-07
8.00332e-07
8.49971e-07
8.98327e-07
9.44973e-07
9.89481e-07
1.03143e-06
1.07042e-06
1.10609e-06
1.13808e-06
1.16609e-06
1.18985e-06
1.20914e-06
1.22377e-06
1.2336e-06
1.23855e-06
1.23857e-06
1.23365e-06
1.22384e-06
1.20923e-06
1.18997e-06
1.16623e-06
1.13824e-06
1.10627e-06
1.07063e-06
1.03165e-06
9.89719e-07
9.45223e-07
8.98587e-07
8.50238e-07
8.00605e-07
7.50105e-07
6.99145e-07
6.48111e-07
5.97378e-07
5.47302e-07
4.98216e-07
4.50417e-07
4.04156e-07
3.59628e-07
3.16965e-07
2.76231e-07
2.37428e-07
2.00491e-07
1.65294e-07
1.31653e-07
9.93335e-08
6.80543e-08
3.74985e-08
6.45411e-11
2.41813e-13
2.46146e-13
6.57007e-11
3.81738e-08
6.92802e-08
1.01124e-07
1.34029e-07
1.6828e-07
2.04118e-07
2.4173e-07
2.81245e-07
3.22728e-07
3.66179e-07
4.11529e-07
4.58644e-07
5.07325e-07
5.57315e-07
6.0831e-07
6.5997e-07
7.11933e-07
7.63816e-07
8.15226e-07
8.6575e-07
9.14964e-07
9.62431e-07
1.00772e-06
1.0504e-06
1.09007e-06
1.12634e-06
1.15888e-06
1.18737e-06
1.21153e-06
1.23115e-06
1.24603e-06
1.25603e-06
1.26106e-06
1.26107e-06
1.25607e-06
1.24609e-06
1.23124e-06
1.21165e-06
1.18751e-06
1.15904e-06
1.12653e-06
1.09027e-06
1.05062e-06
1.00795e-06
9.62678e-07
9.15221e-07
8.66014e-07
8.15495e-07
7.64088e-07
7.12204e-07
6.60239e-07
6.08574e-07
5.57572e-07
5.07573e-07
4.5888e-07
4.11752e-07
3.66386e-07
3.22918e-07
2.81417e-07
2.41882e-07
2.04249e-07
1.68391e-07
1.34118e-07
1.01193e-07
6.93282e-08
3.82009e-08
6.57503e-11
2.46338e-13
2.49233e-13
6.65258e-11
3.86531e-08
7.01497e-08
1.02393e-07
1.35711e-07
1.70394e-07
2.06685e-07
2.44774e-07
2.8479e-07
3.268e-07
3.70802e-07
4.16727e-07
4.64438e-07
5.13733e-07
5.6435e-07
6.15982e-07
6.68283e-07
7.20886e-07
7.73405e-07
8.25439e-07
8.76573e-07
9.26376e-07
9.74409e-07
1.02023e-06
1.06341e-06
1.10355e-06
1.14025e-06
1.17316e-06
1.20198e-06
1.22642e-06
1.24626e-06
1.26131e-06
1.27143e-06
1.27652e-06
1.27653e-06
1.27147e-06
1.26138e-06
1.24636e-06
1.22654e-06
1.20212e-06
1.17332e-06
1.14043e-06
1.10375e-06
1.06363e-06
1.02046e-06
9.74654e-07
9.26631e-07
8.76835e-07
8.25706e-07
7.73674e-07
7.21155e-07
6.6855e-07
6.16244e-07
5.64605e-07
5.13978e-07
4.64672e-07
4.16948e-07
3.71007e-07
3.26988e-07
2.8496e-07
2.44924e-07
2.06815e-07
1.70504e-07
1.358e-07
1.02461e-07
7.01971e-08
3.86798e-08
6.65748e-11
2.49423e-13
2.51269e-13
6.707e-11
3.89693e-08
7.07234e-08
1.03231e-07
1.36822e-07
1.71791e-07
2.08381e-07
2.46785e-07
2.87134e-07
3.29493e-07
3.73861e-07
4.20168e-07
4.68276e-07
5.17979e-07
5.69014e-07
6.2107e-07
6.73799e-07
7.26828e-07
7.7977e-07
8.32221e-07
8.83762e-07
9.33959e-07
9.82369e-07
1.02855e-06
1.07207e-06
1.11251e-06
1.14949e-06
1.18266e-06
1.2117e-06
1.23633e-06
1.25632e-06
1.27148e-06
1.28167e-06
1.2868e-06
1.28681e-06
1.28171e-06
1.27155e-06
1.25641e-06
1.23644e-06
1.21184e-06
1.18282e-06
1.14967e-06
1.11271e-06
1.07228e-06
1.02878e-06
9.82613e-07
9.34212e-07
8.84023e-07
8.32486e-07
7.80037e-07
7.27095e-07
6.74064e-07
6.2133e-07
5.69268e-07
5.18223e-07
4.68509e-07
4.20388e-07
3.74065e-07
3.2968e-07
2.87302e-07
2.46935e-07
2.08511e-07
1.719e-07
1.36911e-07
1.03298e-07
7.07705e-08
3.89958e-08
6.71187e-11
2.51458e-13
2.5257e-13
6.74177e-11
3.91713e-08
7.109e-08
1.03766e-07
1.37533e-07
1.72684e-07
2.09467e-07
2.48073e-07
2.88635e-07
3.31218e-07
3.75823e-07
4.22376e-07
4.70739e-07
5.20706e-07
5.72011e-07
6.2434e-07
6.77344e-07
7.3065e-07
7.83866e-07
8.36586e-07
8.88391e-07
9.38843e-07
9.87497e-07
1.03391e-06
1.07764e-06
1.11829e-06
1.15545e-06
1.18878e-06
1.21796e-06
1.24271e-06
1.2628e-06
1.27804e-06
1.28828e-06
1.29344e-06
1.29345e-06
1.28832e-06
1.27811e-06
1.26289e-06
1.24283e-06
1.2181e-06
1.18894e-06
1.15563e-06
1.11849e-06
1.07786e-06
1.03414e-06
9.8774e-07
9.39095e-07
8.8865e-07
8.3685e-07
7.84132e-07
7.30916e-07
6.77608e-07
6.24599e-07
5.72263e-07
5.20949e-07
4.70971e-07
4.22595e-07
3.76026e-07
3.31405e-07
2.88803e-07
2.48222e-07
2.09595e-07
1.72792e-07
1.37621e-07
1.03833e-07
7.11368e-08
3.91977e-08
6.74661e-11
2.52757e-13
2.53375e-13
6.7633e-11
3.92965e-08
7.13171e-08
1.04098e-07
1.37973e-07
1.73238e-07
2.1014e-07
2.48872e-07
2.89567e-07
3.32291e-07
3.77042e-07
4.23749e-07
4.72272e-07
5.22404e-07
5.73877e-07
6.26378e-07
6.79556e-07
7.33034e-07
7.86422e-07
8.39312e-07
8.91282e-07
9.41894e-07
9.90702e-07
1.03726e-06
1.08113e-06
1.1219e-06
1.15918e-06
1.19262e-06
1.22188e-06
1.24671e-06
1.26686e-06
1.28215e-06
1.29242e-06
1.29759e-06
1.2976e-06
1.29246e-06
1.28221e-06
1.26695e-06
1.24683e-06
1.22202e-06
1.19278e-06
1.15936e-06
1.1221e-06
1.08135e-06
1.03749e-06
9.90944e-07
9.42145e-07
8.9154e-07
8.39575e-07
7.86688e-07
7.333e-07
6.79819e-07
6.26637e-07
5.74129e-07
5.22646e-07
4.72503e-07
4.23967e-07
3.77245e-07
3.32477e-07
2.89735e-07
2.49021e-07
2.10268e-07
1.73346e-07
1.38061e-07
1.04165e-07
7.13638e-08
3.93228e-08
6.76813e-11
2.53562e-13
2.53858e-13
6.77623e-11
3.93717e-08
7.14536e-08
1.04297e-07
1.38238e-07
1.73571e-07
2.10545e-07
2.49354e-07
2.90129e-07
3.32937e-07
3.77778e-07
4.24578e-07
4.73198e-07
5.2343e-07
5.75006e-07
6.27612e-07
6.80894e-07
7.34478e-07
7.87971e-07
8.40964e-07
8.93035e-07
9.43744e-07
9.92646e-07
1.03929e-06
1.08325e-06
1.1241e-06
1.16145e-06
1.19494e-06
1.22427e-06
1.24914e-06
1.26933e-06
1.28464e-06
1.29494e-06
1.30011e-06
1.30013e-06
1.29497e-06
1.28471e-06
1.26942e-06
1.24926e-06
1.22441e-06
1.1951e-06
1.16163e-06
1.1243e-06
1.08346e-06
1.03952e-06
9.92888e-07
9.43996e-07
8.93293e-07
8.41227e-07
7.88236e-07
7.34744e-07
6.81157e-07
6.2787e-07
5.75258e-07
5.23672e-07
4.73429e-07
4.24796e-07
3.7798e-07
3.33123e-07
2.90296e-07
2.49502e-07
2.10673e-07
1.73679e-07
1.38325e-07
1.04364e-07
7.15002e-08
3.93979e-08
6.78105e-11
2.54045e-13
2.5414e-13
6.78378e-11
3.94156e-08
7.15333e-08
1.04414e-07
1.38393e-07
1.73766e-07
2.10782e-07
2.49635e-07
2.90458e-07
3.33316e-07
3.78209e-07
4.25064e-07
4.73741e-07
5.24032e-07
5.75669e-07
6.28336e-07
6.81681e-07
7.35328e-07
7.88882e-07
8.41937e-07
8.94067e-07
9.44835e-07
9.93793e-07
1.04049e-06
1.0845e-06
1.12539e-06
1.16278e-06
1.19632e-06
1.22568e-06
1.25058e-06
1.27079e-06
1.28612e-06
1.29642e-06
1.3016e-06
1.30162e-06
1.29646e-06
1.28618e-06
1.27088e-06
1.25069e-06
1.22581e-06
1.19648e-06
1.16296e-06
1.12559e-06
1.08471e-06
1.04072e-06
9.94034e-07
9.45086e-07
8.94326e-07
8.422e-07
7.89148e-07
7.35593e-07
6.81944e-07
6.28595e-07
5.75921e-07
5.24274e-07
4.73972e-07
4.25282e-07
3.78411e-07
3.33502e-07
2.90625e-07
2.49783e-07
2.1091e-07
1.73874e-07
1.3848e-07
1.04481e-07
7.15799e-08
3.94418e-08
6.7886e-11
2.54327e-13
2.543e-13
6.78806e-11
3.94405e-08
7.15786e-08
1.0448e-07
1.3848e-07
1.73876e-07
2.10917e-07
2.49795e-07
2.90645e-07
3.33532e-07
3.78455e-07
4.25342e-07
4.74051e-07
5.24376e-07
5.76048e-07
6.28751e-07
6.82132e-07
7.35814e-07
7.89404e-07
8.42494e-07
8.94659e-07
9.4546e-07
9.9445e-07
1.04118e-06
1.08521e-06
1.12613e-06
1.16355e-06
1.19711e-06
1.22648e-06
1.2514e-06
1.27162e-06
1.28696e-06
1.29727e-06
1.30246e-06
1.30247e-06
1.29731e-06
1.28703e-06
1.27171e-06
1.25152e-06
1.22662e-06
1.19727e-06
1.16373e-06
1.12633e-06
1.08543e-06
1.04141e-06
9.94692e-07
9.45711e-07
8.94917e-07
8.42757e-07
7.89669e-07
7.36079e-07
6.82394e-07
6.29009e-07
5.76299e-07
5.24618e-07
4.74282e-07
4.25559e-07
3.78657e-07
3.33717e-07
2.90812e-07
2.49943e-07
2.11045e-07
1.73984e-07
1.38568e-07
1.04547e-07
7.16251e-08
3.94667e-08
6.79287e-11
2.54487e-13
2.54388e-13
6.79042e-11
3.94542e-08
7.16035e-08
1.04516e-07
1.38529e-07
1.73938e-07
2.10991e-07
2.49884e-07
2.90748e-07
3.33651e-07
3.78591e-07
4.25495e-07
4.74223e-07
5.24567e-07
5.76258e-07
6.28981e-07
6.82382e-07
7.36085e-07
7.89695e-07
8.42804e-07
8.94989e-07
9.45809e-07
9.94817e-07
1.04156e-06
1.08561e-06
1.12655e-06
1.16398e-06
1.19755e-06
1.22693e-06
1.25186e-06
1.27209e-06
1.28744e-06
1.29775e-06
1.30294e-06
1.30295e-06
1.29779e-06
1.2875e-06
1.27218e-06
1.25198e-06
1.22707e-06
1.19771e-06
1.16416e-06
1.12675e-06
1.08583e-06
1.04179e-06
9.95058e-07
9.4606e-07
8.95247e-07
8.43067e-07
7.8996e-07
7.3635e-07
6.82645e-07
6.29239e-07
5.7651e-07
5.24809e-07
4.74454e-07
4.25713e-07
3.78793e-07
3.33836e-07
2.90916e-07
2.50032e-07
2.11119e-07
1.74045e-07
1.38616e-07
1.04583e-07
7.165e-08
3.94804e-08
6.79523e-11
2.54575e-13
2.54436e-13
6.79169e-11
3.94616e-08
7.16169e-08
1.04536e-07
1.38555e-07
1.7397e-07
2.11031e-07
2.49932e-07
2.90804e-07
3.33715e-07
3.78664e-07
4.25578e-07
4.74316e-07
5.2467e-07
5.76372e-07
6.29106e-07
6.82518e-07
7.36231e-07
7.89852e-07
8.42973e-07
8.95168e-07
9.45998e-07
9.95016e-07
1.04177e-06
1.08583e-06
1.12677e-06
1.16421e-06
1.19779e-06
1.22718e-06
1.25211e-06
1.27235e-06
1.28769e-06
1.29801e-06
1.3032e-06
1.30321e-06
1.29805e-06
1.28776e-06
1.27244e-06
1.25223e-06
1.22732e-06
1.19795e-06
1.16439e-06
1.12697e-06
1.08605e-06
1.042e-06
9.95257e-07
9.46249e-07
8.95426e-07
8.43236e-07
7.90118e-07
7.36496e-07
6.8278e-07
6.29364e-07
5.76624e-07
5.24912e-07
4.74547e-07
4.25796e-07
3.78866e-07
3.33901e-07
2.90971e-07
2.5008e-07
2.11159e-07
1.74078e-07
1.38642e-07
1.04603e-07
7.16634e-08
3.94878e-08
6.7965e-11
2.54622e-13
2.5446e-13
6.79235e-11
3.94654e-08
7.16239e-08
1.04546e-07
1.38569e-07
1.73988e-07
2.11052e-07
2.49957e-07
2.90833e-07
3.33749e-07
3.78703e-07
4.25622e-07
4.74365e-07
5.24725e-07
5.76432e-07
6.29171e-07
6.82589e-07
7.36309e-07
7.89936e-07
8.43062e-07
8.95262e-07
9.46098e-07
9.95121e-07
1.04188e-06
1.08595e-06
1.12689e-06
1.16434e-06
1.19791e-06
1.22731e-06
1.25224e-06
1.27248e-06
1.28783e-06
1.29815e-06
1.30334e-06
1.30335e-06
1.29819e-06
1.2879e-06
1.27257e-06
1.25236e-06
1.22745e-06
1.19807e-06
1.16452e-06
1.12709e-06
1.08616e-06
1.04211e-06
9.95363e-07
9.46349e-07
8.95521e-07
8.43325e-07
7.90201e-07
7.36574e-07
6.82852e-07
6.2943e-07
5.76684e-07
5.24967e-07
4.74596e-07
4.25839e-07
3.78905e-07
3.33935e-07
2.91001e-07
2.50105e-07
2.1118e-07
1.74095e-07
1.38656e-07
1.04613e-07
7.16704e-08
3.94917e-08
6.79717e-11
2.54647e-13
2.54473e-13
6.79269e-11
3.94674e-08
7.16275e-08
1.04552e-07
1.38576e-07
1.73996e-07
2.11063e-07
2.49969e-07
2.90848e-07
3.33767e-07
3.78723e-07
4.25644e-07
4.7439e-07
5.24753e-07
5.76463e-07
6.29205e-07
6.82626e-07
7.36348e-07
7.89979e-07
8.43108e-07
8.95311e-07
9.4615e-07
9.95176e-07
1.04194e-06
1.08601e-06
1.12696e-06
1.1644e-06
1.19798e-06
1.22738e-06
1.25231e-06
1.27255e-06
1.2879e-06
1.29822e-06
1.30341e-06
1.30342e-06
1.29826e-06
1.28797e-06
1.27264e-06
1.25243e-06
1.22752e-06
1.19814e-06
1.16458e-06
1.12716e-06
1.08622e-06
1.04217e-06
9.95417e-07
9.46401e-07
8.95569e-07
8.4337e-07
7.90244e-07
7.36614e-07
6.82889e-07
6.29463e-07
5.76714e-07
5.24995e-07
4.74621e-07
4.25862e-07
3.78925e-07
3.33952e-07
2.91016e-07
2.50118e-07
2.11191e-07
1.74104e-07
1.38663e-07
1.04618e-07
7.1674e-08
3.94936e-08
6.7975e-11
2.54659e-13
2.54479e-13
6.79286e-11
3.94684e-08
7.16293e-08
1.04554e-07
1.38579e-07
1.74001e-07
2.11068e-07
2.49976e-07
2.90856e-07
3.33775e-07
3.78732e-07
4.25655e-07
4.74403e-07
5.24767e-07
5.76479e-07
6.29222e-07
6.82644e-07
7.36368e-07
7.9e-07
8.43131e-07
8.95336e-07
9.46176e-07
9.95203e-07
1.04197e-06
1.08604e-06
1.12699e-06
1.16443e-06
1.19801e-06
1.22741e-06
1.25235e-06
1.27259e-06
1.28794e-06
1.29826e-06
1.30345e-06
1.30346e-06
1.29829e-06
1.288e-06
1.27268e-06
1.25246e-06
1.22755e-06
1.19817e-06
1.16461e-06
1.12719e-06
1.08625e-06
1.0422e-06
9.95444e-07
9.46427e-07
8.95594e-07
8.43394e-07
7.90265e-07
7.36633e-07
6.82907e-07
6.2948e-07
5.7673e-07
5.25009e-07
4.74634e-07
4.25873e-07
3.78935e-07
3.33961e-07
2.91023e-07
2.50124e-07
2.11197e-07
1.74109e-07
1.38666e-07
1.04621e-07
7.16758e-08
3.94946e-08
6.79767e-11
2.54666e-13
2.54482e-13
6.79294e-11
3.94689e-08
7.16301e-08
1.04555e-07
1.38581e-07
1.74003e-07
2.11071e-07
2.49979e-07
2.90859e-07
3.33779e-07
3.78737e-07
4.25661e-07
4.74409e-07
5.24773e-07
5.76486e-07
6.2923e-07
6.82653e-07
7.36378e-07
7.90011e-07
8.43142e-07
8.95348e-07
9.46189e-07
9.95216e-07
1.04198e-06
1.08605e-06
1.127e-06
1.16445e-06
1.19803e-06
1.22743e-06
1.25236e-06
1.2726e-06
1.28795e-06
1.29827e-06
1.30346e-06
1.30348e-06
1.29831e-06
1.28802e-06
1.27269e-06
1.25248e-06
1.22757e-06
1.19819e-06
1.16463e-06
1.1272e-06
1.08627e-06
1.04221e-06
9.95458e-07
9.4644e-07
8.95606e-07
8.43405e-07
7.90276e-07
7.36643e-07
6.82916e-07
6.29489e-07
5.76737e-07
5.25015e-07
4.7464e-07
4.25878e-07
3.78939e-07
3.33965e-07
2.91027e-07
2.50127e-07
2.11199e-07
1.74111e-07
1.38668e-07
1.04622e-07
7.16767e-08
3.94951e-08
6.79775e-11
2.54669e-13
2.54484e-13
6.79298e-11
3.94691e-08
7.16305e-08
1.04556e-07
1.38582e-07
1.74004e-07
2.11072e-07
2.4998e-07
2.90861e-07
3.33781e-07
3.7874e-07
4.25664e-07
4.74412e-07
5.24777e-07
5.7649e-07
6.29234e-07
6.82658e-07
7.36383e-07
7.90016e-07
8.43147e-07
8.95353e-07
9.46195e-07
9.95223e-07
1.04199e-06
1.08606e-06
1.12701e-06
1.16446e-06
1.19804e-06
1.22744e-06
1.25237e-06
1.27261e-06
1.28796e-06
1.29828e-06
1.30347e-06
1.30348e-06
1.29832e-06
1.28803e-06
1.2727e-06
1.25249e-06
1.22757e-06
1.1982e-06
1.16464e-06
1.12721e-06
1.08627e-06
1.04222e-06
9.95464e-07
9.46446e-07
8.95612e-07
8.4341e-07
7.90281e-07
7.36648e-07
6.82921e-07
6.29493e-07
5.76741e-07
5.25019e-07
4.74643e-07
4.25881e-07
3.78942e-07
3.33967e-07
2.91028e-07
2.50128e-07
2.112e-07
1.74112e-07
1.38669e-07
1.04623e-07
7.16771e-08
3.94953e-08
6.79779e-11
2.5467e-13
2.54484e-13
6.793e-11
3.94692e-08
7.16307e-08
1.04556e-07
1.38582e-07
1.74004e-07
2.11073e-07
2.49981e-07
2.90862e-07
3.33782e-07
3.78741e-07
4.25665e-07
4.74413e-07
5.24778e-07
5.76491e-07
6.29236e-07
6.8266e-07
7.36385e-07
7.90018e-07
8.4315e-07
8.95356e-07
9.46198e-07
9.95226e-07
1.04199e-06
1.08606e-06
1.12701e-06
1.16446e-06
1.19804e-06
1.22744e-06
1.25238e-06
1.27262e-06
1.28797e-06
1.29829e-06
1.30348e-06
1.30349e-06
1.29833e-06
1.28803e-06
1.27271e-06
1.25249e-06
1.22758e-06
1.1982e-06
1.16464e-06
1.12721e-06
1.08628e-06
1.04222e-06
9.95467e-07
9.46449e-07
8.95614e-07
8.43413e-07
7.90283e-07
7.3665e-07
6.82923e-07
6.29494e-07
5.76743e-07
5.2502e-07
4.74644e-07
4.25882e-07
3.78943e-07
3.33968e-07
2.91029e-07
2.50129e-07
2.11201e-07
1.74112e-07
1.38669e-07
1.04623e-07
7.16773e-08
3.94954e-08
6.79781e-11
2.54671e-13
2.54485e-13
6.79301e-11
3.94692e-08
7.16308e-08
1.04556e-07
1.38582e-07
1.74005e-07
2.11073e-07
2.49981e-07
2.90862e-07
3.33783e-07
3.78741e-07
4.25665e-07
4.74414e-07
5.24779e-07
5.76492e-07
6.29237e-07
6.82661e-07
7.36386e-07
7.90019e-07
8.43151e-07
8.95357e-07
9.46199e-07
9.95227e-07
1.04199e-06
1.08606e-06
1.12701e-06
1.16446e-06
1.19804e-06
1.22744e-06
1.25238e-06
1.27262e-06
1.28797e-06
1.29829e-06
1.30348e-06
1.30349e-06
1.29833e-06
1.28803e-06
1.27271e-06
1.25249e-06
1.22758e-06
1.1982e-06
1.16464e-06
1.12721e-06
1.08628e-06
1.04222e-06
9.95469e-07
9.4645e-07
8.95616e-07
8.43414e-07
7.90284e-07
7.36651e-07
6.82923e-07
6.29495e-07
5.76743e-07
5.25021e-07
4.74645e-07
4.25883e-07
3.78943e-07
3.33968e-07
2.9103e-07
2.50129e-07
2.11201e-07
1.74112e-07
1.38669e-07
1.04623e-07
7.16774e-08
3.94955e-08
6.79782e-11
2.54671e-13
2.54485e-13
6.79301e-11
3.94692e-08
7.16309e-08
1.04556e-07
1.38582e-07
1.74005e-07
2.11073e-07
2.49982e-07
2.90863e-07
3.33783e-07
3.78741e-07
4.25666e-07
4.74414e-07
5.24779e-07
5.76493e-07
6.29237e-07
6.82661e-07
7.36386e-07
7.9002e-07
8.43152e-07
8.95358e-07
9.46199e-07
9.95228e-07
1.04199e-06
1.08606e-06
1.12702e-06
1.16446e-06
1.19804e-06
1.22744e-06
1.25238e-06
1.27262e-06
1.28797e-06
1.29829e-06
1.30348e-06
1.30349e-06
1.29833e-06
1.28803e-06
1.27271e-06
1.25249e-06
1.22758e-06
1.1982e-06
1.16464e-06
1.12721e-06
1.08628e-06
1.04222e-06
9.95469e-07
9.46451e-07
8.95616e-07
8.43414e-07
7.90285e-07
7.36652e-07
6.82924e-07
6.29496e-07
5.76744e-07
5.25021e-07
4.74645e-07
4.25883e-07
3.78944e-07
3.33968e-07
2.9103e-07
2.5013e-07
2.11201e-07
1.74112e-07
1.38669e-07
1.04623e-07
7.16774e-08
3.94955e-08
6.79782e-11
2.54671e-13
2.54485e-13
6.79301e-11
3.94693e-08
7.16309e-08
1.04557e-07
1.38582e-07
1.74005e-07
2.11073e-07
2.49982e-07
2.90863e-07
3.33783e-07
3.78741e-07
4.25666e-07
4.74414e-07
5.24779e-07
5.76493e-07
6.29238e-07
6.82661e-07
7.36387e-07
7.9002e-07
8.43152e-07
8.95358e-07
9.462e-07
9.95228e-07
1.042e-06
1.08606e-06
1.12702e-06
1.16446e-06
1.19804e-06
1.22744e-06
1.25238e-06
1.27262e-06
1.28797e-06
1.29829e-06
1.30348e-06
1.30349e-06
1.29833e-06
1.28804e-06
1.27271e-06
1.25249e-06
1.22758e-06
1.1982e-06
1.16464e-06
1.12721e-06
1.08628e-06
1.04222e-06
9.9547e-07
9.46451e-07
8.95616e-07
8.43415e-07
7.90285e-07
7.36652e-07
6.82924e-07
6.29496e-07
5.76744e-07
5.25021e-07
4.74645e-07
4.25883e-07
3.78944e-07
3.33968e-07
2.9103e-07
2.5013e-07
2.11201e-07
1.74113e-07
1.38669e-07
1.04623e-07
7.16774e-08
3.94955e-08
6.79782e-11
2.54671e-13
2.54485e-13
6.79301e-11
3.94693e-08
7.16309e-08
1.04557e-07
1.38582e-07
1.74005e-07
2.11073e-07
2.49982e-07
2.90863e-07
3.33783e-07
3.78741e-07
4.25666e-07
4.74414e-07
5.24779e-07
5.76493e-07
6.29238e-07
6.82661e-07
7.36387e-07
7.9002e-07
8.43152e-07
8.95358e-07
9.462e-07
9.95228e-07
1.042e-06
1.08606e-06
1.12702e-06
1.16446e-06
1.19804e-06
1.22744e-06
1.25238e-06
1.27262e-06
1.28797e-06
1.29829e-06
1.30348e-06
1.30349e-06
1.29833e-06
1.28804e-06
1.27271e-06
1.25249e-06
1.22758e-06
1.1982e-06
1.16464e-06
1.12721e-06
1.08628e-06
1.04222e-06
9.9547e-07
9.46451e-07
8.95616e-07
8.43415e-07
7.90285e-07
7.36652e-07
6.82924e-07
6.29496e-07
5.76744e-07
5.25021e-07
4.74645e-07
4.25883e-07
3.78944e-07
3.33969e-07
2.9103e-07
2.5013e-07
2.11201e-07
1.74113e-07
1.3867e-07
1.04623e-07
7.16774e-08
3.94955e-08
6.79782e-11
2.54671e-13
2.54485e-13
6.79301e-11
3.94693e-08
7.16309e-08
1.04557e-07
1.38582e-07
1.74005e-07
2.11073e-07
2.49982e-07
2.90863e-07
3.33783e-07
3.78741e-07
4.25666e-07
4.74414e-07