/*--------------------------------*- C++ -*----------------------------------*\
  =========                 |
  \\      /  F ield         | OpenFOAM: The Open Source CFD Toolbox
   \\    /   O peration     | Website:  https://openfoam.org
    \\  /    A nd           | Version:  13
     \\/     M anipulation  |
\*---------------------------------------------------------------------------*/
FoamFile
{
    format      ascii;
    class       volScalarField;
    location    "130";
    object      rhok;
}
// * * * * * * * * * * * * * * * * * * * * * * * * * * * * * * * * * * * * * //

dimensions      [];

internalField   nonuniform List<scalar> 
315000
(
0.444621
0.429572
0.4145
0.413058
0.412303
0.411551
0.410802
0.410055
0.409311
0.408569
0.407831
0.407095
0.406362
0.405633
0.404906
0.404183
0.403463
0.402746
0.402033
0.401323
0.400616
0.399913
0.399214
0.398518
0.397826
0.397138
0.396453
0.395772
0.395095
0.394422
0.393753
0.393087
0.392426
0.391769
0.391115
0.390465
0.38982
0.389178
0.38854
0.387906
0.387276
0.386649
0.386027
0.385408
0.384792
0.384181
0.383572
0.382967
0.382366
0.381768
0.381172
0.38058
0.379991
0.379404
0.37882
0.378239
0.37766
0.377083
0.376508
0.375936
0.375365
0.374796
0.374228
0.373661
0.373096
0.372532
0.371968
0.371405
0.370842
0.37028
0.444621
0.42957
0.414497
0.413055
0.4123
0.411548
0.410798
0.410051
0.409307
0.408566
0.407827
0.407091
0.406359
0.405629
0.404903
0.404179
0.403459
0.402742
0.402029
0.401319
0.400612
0.399909
0.39921
0.398514
0.397822
0.397133
0.396449
0.395768
0.395091
0.394418
0.393748
0.393083
0.392422
0.391764
0.391111
0.390461
0.389815
0.389174
0.388536
0.387902
0.387272
0.386645
0.386023
0.385404
0.384789
0.384177
0.383569
0.382964
0.382362
0.381764
0.381169
0.380577
0.379988
0.379401
0.378818
0.378236
0.377658
0.377081
0.376506
0.375934
0.375363
0.374794
0.374226
0.37366
0.373095
0.372531
0.371967
0.371405
0.370842
0.37028
0.444621
0.429569
0.414494
0.413052
0.412297
0.411545
0.410795
0.410048
0.409304
0.408563
0.407824
0.407088
0.406355
0.405626
0.404899
0.404176
0.403455
0.402739
0.402025
0.401315
0.400608
0.399905
0.399206
0.39851
0.397818
0.397129
0.396445
0.395764
0.395087
0.394414
0.393744
0.393079
0.392418
0.39176
0.391107
0.390457
0.389812
0.38917
0.388532
0.387898
0.387268
0.386642
0.386019
0.3854
0.384785
0.384174
0.383566
0.382961
0.382359
0.381761
0.381166
0.380574
0.379985
0.379399
0.378815
0.378234
0.377655
0.377079
0.376505
0.375932
0.375362
0.374793
0.374225
0.373659
0.373094
0.37253
0.371967
0.371404
0.370842
0.37028
0.444621
0.429568
0.414492
0.41305
0.412295
0.411542
0.410793
0.410046
0.409301
0.40856
0.407821
0.407085
0.406352
0.405623
0.404896
0.404173
0.403452
0.402735
0.402022
0.401312
0.400605
0.399902
0.399202
0.398507
0.397814
0.397126
0.396441
0.39576
0.395083
0.39441
0.393741
0.393076
0.392414
0.391757
0.391103
0.390454
0.389808
0.389167
0.388529
0.387895
0.387265
0.386639
0.386016
0.385398
0.384782
0.384171
0.383563
0.382958
0.382357
0.381759
0.381164
0.380572
0.379983
0.379397
0.378813
0.378232
0.377654
0.377077
0.376503
0.375931
0.37536
0.374792
0.374224
0.373658
0.373093
0.372529
0.371966
0.371404
0.370842
0.37028
0.444621
0.429566
0.41449
0.413048
0.412293
0.41154
0.41079
0.410043
0.409299
0.408557
0.407819
0.407083
0.40635
0.40562
0.404893
0.40417
0.40345
0.402733
0.402019
0.401309
0.400602
0.399899
0.3992
0.398504
0.397812
0.397123
0.396438
0.395758
0.395081
0.394407
0.393738
0.393073
0.392412
0.391754
0.391101
0.390451
0.389806
0.389164
0.388526
0.387892
0.387262
0.386636
0.386014
0.385395
0.38478
0.384169
0.383561
0.382956
0.382355
0.381757
0.381162
0.38057
0.379981
0.379395
0.378812
0.378231
0.377652
0.377076
0.376502
0.37593
0.375359
0.374791
0.374223
0.373658
0.373093
0.372529
0.371966
0.371404
0.370842
0.37028
0.444621
0.429566
0.414488
0.413046
0.412291
0.411539
0.410789
0.410042
0.409297
0.408556
0.407817
0.407081
0.406348
0.405618
0.404892
0.404168
0.403448
0.402731
0.402017
0.401307
0.4006
0.399897
0.399198
0.398502
0.39781
0.397121
0.396436
0.395755
0.395078
0.394405
0.393736
0.393071
0.392409
0.391752
0.391099
0.390449
0.389804
0.389162
0.388524
0.38789
0.387261
0.386634
0.386012
0.385393
0.384778
0.384167
0.383559
0.382954
0.382353
0.381755
0.381161
0.380569
0.37998
0.379394
0.378811
0.37823
0.377651
0.377075
0.376501
0.375929
0.375359
0.37479
0.374223
0.373657
0.373092
0.372529
0.371966
0.371403
0.370842
0.37028
0.444621
0.429565
0.414487
0.413045
0.41229
0.411538
0.410788
0.410041
0.409296
0.408554
0.407816
0.40708
0.406347
0.405617
0.40489
0.404167
0.403447
0.40273
0.402016
0.401306
0.400599
0.399896
0.399196
0.3985
0.397808
0.39712
0.396435
0.395754
0.395077
0.394404
0.393735
0.393069
0.392408
0.391751
0.391097
0.390448
0.389802
0.389161
0.388523
0.387889
0.387259
0.386633
0.386011
0.385392
0.384777
0.384166
0.383558
0.382953
0.382352
0.381754
0.381159
0.380568
0.379979
0.379393
0.37881
0.378229
0.37765
0.377074
0.3765
0.375928
0.375358
0.374789
0.374222
0.373657
0.373092
0.372528
0.371965
0.371403
0.370841
0.37028
0.444621
0.429565
0.414487
0.413045
0.41229
0.411537
0.410787
0.41004
0.409296
0.408554
0.407815
0.407079
0.406346
0.405616
0.40489
0.404166
0.403446
0.402729
0.402015
0.401305
0.400598
0.399895
0.399195
0.3985
0.397807
0.397119
0.396434
0.395753
0.395076
0.394403
0.393734
0.393068
0.392407
0.39175
0.391096
0.390447
0.389801
0.38916
0.388522
0.387888
0.387258
0.386632
0.38601
0.385391
0.384776
0.384165
0.383557
0.382952
0.382351
0.381753
0.381159
0.380567
0.379978
0.379392
0.378809
0.378228
0.37765
0.377074
0.3765
0.375928
0.375358
0.374789
0.374222
0.373656
0.373092
0.372528
0.371965
0.371403
0.370841
0.37028
0.444621
0.429565
0.414487
0.413045
0.41229
0.411537
0.410787
0.41004
0.409296
0.408554
0.407815
0.407079
0.406346
0.405616
0.40489
0.404166
0.403446
0.402729
0.402015
0.401305
0.400598
0.399895
0.399195
0.398499
0.397807
0.397118
0.396434
0.395753
0.395076
0.394403
0.393733
0.393068
0.392407
0.391749
0.391096
0.390446
0.389801
0.389159
0.388521
0.387888
0.387258
0.386632
0.386009
0.385391
0.384776
0.384164
0.383556
0.382952
0.382351
0.381753
0.381158
0.380567
0.379978
0.379392
0.378809
0.378228
0.37765
0.377073
0.3765
0.375928
0.375357
0.374789
0.374222
0.373656
0.373092
0.372528
0.371965
0.371403
0.370841
0.37028
0.444621
0.429565
0.414487
0.413045
0.41229
0.411537
0.410788
0.41004
0.409296
0.408554
0.407815
0.407079
0.406346
0.405617
0.40489
0.404166
0.403446
0.402729
0.402015
0.401305
0.400598
0.399895
0.399195
0.398499
0.397807
0.397118
0.396434
0.395753
0.395076
0.394403
0.393733
0.393068
0.392407
0.391749
0.391096
0.390446
0.389801
0.389159
0.388521
0.387887
0.387258
0.386631
0.386009
0.38539
0.384775
0.384164
0.383556
0.382952
0.382351
0.381753
0.381158
0.380566
0.379978
0.379392
0.378808
0.378228
0.377649
0.377073
0.376499
0.375927
0.375357
0.374789
0.374222
0.373656
0.373091
0.372528
0.371965
0.371403
0.370841
0.37028
0.444621
0.429566
0.414488
0.413045
0.41229
0.411538
0.410788
0.410041
0.409296
0.408555
0.407816
0.40708
0.406347
0.405617
0.40489
0.404167
0.403446
0.402729
0.402015
0.401305
0.400598
0.399895
0.399196
0.3985
0.397807
0.397119
0.396434
0.395753
0.395076
0.394403
0.393733
0.393068
0.392407
0.391749
0.391096
0.390446
0.389801
0.389159
0.388521
0.387887
0.387258
0.386631
0.386009
0.38539
0.384775
0.384164
0.383556
0.382952
0.382351
0.381753
0.381158
0.380566
0.379978
0.379392
0.378808
0.378228
0.377649
0.377073
0.376499
0.375927
0.375357
0.374789
0.374222
0.373656
0.373091
0.372528
0.371965
0.371403
0.370841
0.37028
0.444621
0.429566
0.414488
0.413046
0.412291
0.411538
0.410788
0.410041
0.409297
0.408555
0.407816
0.40708
0.406347
0.405617
0.404891
0.404167
0.403447
0.40273
0.402016
0.401306
0.400599
0.399895
0.399196
0.3985
0.397808
0.397119
0.396434
0.395753
0.395076
0.394403
0.393734
0.393068
0.392407
0.391749
0.391096
0.390446
0.389801
0.389159
0.388521
0.387888
0.387258
0.386631
0.386009
0.38539
0.384775
0.384164
0.383556
0.382952
0.382351
0.381753
0.381158
0.380566
0.379978
0.379392
0.378808
0.378228
0.377649
0.377073
0.376499
0.375927
0.375357
0.374789
0.374222
0.373656
0.373091
0.372528
0.371965
0.371403
0.370841
0.37028
0.444621
0.429566
0.414488
0.413046
0.412291
0.411538
0.410789
0.410041
0.409297
0.408555
0.407816
0.40708
0.406347
0.405618
0.404891
0.404167
0.403447
0.40273
0.402016
0.401306
0.400599
0.399896
0.399196
0.3985
0.397808
0.397119
0.396434
0.395753
0.395076
0.394403
0.393734
0.393068
0.392407
0.39175
0.391096
0.390447
0.389801
0.389159
0.388522
0.387888
0.387258
0.386632
0.386009
0.385391
0.384776
0.384164
0.383556
0.382952
0.382351
0.381753
0.381158
0.380566
0.379978
0.379392
0.378808
0.378228
0.377649
0.377073
0.376499
0.375927
0.375357
0.374789
0.374222
0.373656
0.373091
0.372528
0.371965
0.371403
0.370841
0.37028
0.444621
0.429566
0.414488
0.413046
0.412291
0.411538
0.410789
0.410041
0.409297
0.408555
0.407816
0.40708
0.406348
0.405618
0.404891
0.404167
0.403447
0.40273
0.402016
0.401306
0.400599
0.399896
0.399196
0.3985
0.397808
0.397119
0.396435
0.395754
0.395076
0.394403
0.393734
0.393069
0.392407
0.39175
0.391096
0.390447
0.389801
0.389159
0.388522
0.387888
0.387258
0.386632
0.386009
0.385391
0.384776
0.384164
0.383556
0.382952
0.382351
0.381753
0.381158
0.380567
0.379978
0.379392
0.378808
0.378228
0.377649
0.377073
0.376499
0.375927
0.375357
0.374789
0.374222
0.373656
0.373092
0.372528
0.371965
0.371403
0.370841
0.37028
0.444621
0.429566
0.414488
0.413046
0.412291
0.411538
0.410789
0.410041
0.409297
0.408555
0.407816
0.40708
0.406348
0.405618
0.404891
0.404167
0.403447
0.40273
0.402016
0.401306
0.400599
0.399896
0.399196
0.3985
0.397808
0.397119
0.396435
0.395754
0.395077
0.394403
0.393734
0.393069
0.392407
0.39175
0.391096
0.390447
0.389801
0.38916
0.388522
0.387888
0.387258
0.386632
0.38601
0.385391
0.384776
0.384164
0.383557
0.382952
0.382351
0.381753
0.381158
0.380567
0.379978
0.379392
0.378809
0.378228
0.37765
0.377073
0.3765
0.375928
0.375357
0.374789
0.374222
0.373656
0.373092
0.372528
0.371965
0.371403
0.370841
0.37028
0.444621
0.429566
0.414488
0.413046
0.412291
0.411538
0.410789
0.410041
0.409297
0.408555
0.407816
0.407081
0.406348
0.405618
0.404891
0.404167
0.403447
0.40273
0.402016
0.401306
0.400599
0.399896
0.399196
0.3985
0.397808
0.39712
0.396435
0.395754
0.395077
0.394404
0.393734
0.393069
0.392407
0.39175
0.391097
0.390447
0.389801
0.38916
0.388522
0.387888
0.387258
0.386632
0.38601
0.385391
0.384776
0.384165
0.383557
0.382952
0.382351
0.381753
0.381158
0.380567
0.379978
0.379392
0.378809
0.378228
0.37765
0.377074
0.3765
0.375928
0.375357
0.374789
0.374222
0.373656
0.373092
0.372528
0.371965
0.371403
0.370841
0.37028
0.444621
0.429566
0.414488
0.413046
0.412291
0.411539
0.410789
0.410042
0.409297
0.408556
0.407817
0.407081
0.406348
0.405618
0.404891
0.404168
0.403447
0.40273
0.402017
0.401306
0.4006
0.399896
0.399197
0.398501
0.397808
0.39712
0.396435
0.395754
0.395077
0.394404
0.393735
0.393069
0.392408
0.39175
0.391097
0.390447
0.389802
0.38916
0.388522
0.387889
0.387259
0.386632
0.38601
0.385391
0.384776
0.384165
0.383557
0.382952
0.382351
0.381753
0.381159
0.380567
0.379978
0.379392
0.378809
0.378228
0.37765
0.377074
0.3765
0.375928
0.375358
0.374789
0.374222
0.373656
0.373092
0.372528
0.371965
0.371403
0.370841
0.37028
0.444621
0.429566
0.414489
0.413047
0.412292
0.411539
0.410789
0.410042
0.409298
0.408556
0.407817
0.407081
0.406348
0.405619
0.404892
0.404168
0.403448
0.402731
0.402017
0.401307
0.4006
0.399897
0.399197
0.398501
0.397809
0.39712
0.396436
0.395755
0.395078
0.394404
0.393735
0.39307
0.392408
0.391751
0.391097
0.390448
0.389802
0.38916
0.388523
0.387889
0.387259
0.386633
0.38601
0.385392
0.384777
0.384165
0.383557
0.382953
0.382352
0.381754
0.381159
0.380567
0.379978
0.379392
0.378809
0.378228
0.37765
0.377074
0.3765
0.375928
0.375358
0.374789
0.374222
0.373656
0.373092
0.372528
0.371965
0.371403
0.370841
0.37028
0.444621
0.429566
0.41449
0.413047
0.412292
0.41154
0.41079
0.410043
0.409298
0.408557
0.407818
0.407082
0.406349
0.405619
0.404893
0.404169
0.403449
0.402732
0.402018
0.401308
0.400601
0.399898
0.399198
0.398502
0.39781
0.397121
0.396436
0.395755
0.395078
0.394405
0.393736
0.39307
0.392409
0.391751
0.391098
0.390448
0.389803
0.389161
0.388523
0.387889
0.387259
0.386633
0.386011
0.385392
0.384777
0.384166
0.383558
0.382953
0.382352
0.381754
0.381159
0.380568
0.379979
0.379393
0.378809
0.378229
0.37765
0.377074
0.3765
0.375928
0.375358
0.374789
0.374222
0.373656
0.373092
0.372528
0.371965
0.371403
0.370841
0.37028
0.444621
0.429567
0.41449
0.413048
0.412293
0.411541
0.410791
0.410044
0.409299
0.408558
0.407819
0.407083
0.40635
0.40562
0.404894
0.40417
0.40345
0.402733
0.402019
0.401309
0.400602
0.399899
0.399199
0.398503
0.397811
0.397122
0.396437
0.395756
0.395079
0.394406
0.393736
0.393071
0.39241
0.391752
0.391099
0.390449
0.389803
0.389162
0.388524
0.38789
0.38726
0.386634
0.386011
0.385393
0.384778
0.384166
0.383558
0.382954
0.382352
0.381754
0.38116
0.380568
0.379979
0.379393
0.37881
0.378229
0.37765
0.377074
0.3765
0.375928
0.375358
0.374789
0.374222
0.373657
0.373092
0.372528
0.371965
0.371403
0.370841
0.37028
0.444621
0.429567
0.414491
0.413049
0.412294
0.411542
0.410792
0.410045
0.4093
0.408559
0.40782
0.407084
0.406351
0.405621
0.404895
0.404171
0.403451
0.402734
0.40202
0.40131
0.400603
0.3999
0.3992
0.398504
0.397812
0.397123
0.396438
0.395757
0.39508
0.394407
0.393737
0.393072
0.39241
0.391753
0.391099
0.39045
0.389804
0.389162
0.388525
0.387891
0.387261
0.386634
0.386012
0.385393
0.384778
0.384167
0.383559
0.382954
0.382353
0.381755
0.38116
0.380568
0.379979
0.379393
0.37881
0.378229
0.377651
0.377075
0.376501
0.375928
0.375358
0.37479
0.374222
0.373657
0.373092
0.372528
0.371965
0.371403
0.370841
0.37028
0.444621
0.429568
0.414492
0.41305
0.412295
0.411543
0.410793
0.410046
0.409301
0.40856
0.407821
0.407085
0.406352
0.405622
0.404896
0.404172
0.403452
0.402735
0.402021
0.401311
0.400604
0.399901
0.399201
0.398505
0.397813
0.397124
0.396439
0.395758
0.395081
0.394408
0.393738
0.393073
0.392411
0.391754
0.3911
0.390451
0.389805
0.389163
0.388525
0.387891
0.387261
0.386635
0.386013
0.385394
0.384779
0.384167
0.383559
0.382955
0.382353
0.381755
0.381161
0.380569
0.37998
0.379394
0.37881
0.378229
0.377651
0.377075
0.376501
0.375929
0.375358
0.37479
0.374223
0.373657
0.373092
0.372528
0.371966
0.371403
0.370841
0.37028
0.444621
0.429568
0.414493
0.413051
0.412296
0.411544
0.410794
0.410047
0.409303
0.408561
0.407822
0.407086
0.406353
0.405624
0.404897
0.404173
0.403453
0.402736
0.402022
0.401312
0.400605
0.399902
0.399202
0.398506
0.397814
0.397125
0.39644
0.395759
0.395082
0.394409
0.393739
0.393074
0.392412
0.391755
0.391101
0.390451
0.389806
0.389164
0.388526
0.387892
0.387262
0.386636
0.386013
0.385394
0.384779
0.384168
0.38356
0.382955
0.382354
0.381756
0.381161
0.380569
0.37998
0.379394
0.378811
0.37823
0.377651
0.377075
0.376501
0.375929
0.375359
0.37479
0.374223
0.373657
0.373092
0.372529
0.371966
0.371403
0.370842
0.37028
0.444621
0.429569
0.414494
0.413052
0.412297
0.411545
0.410795
0.410048
0.409304
0.408562
0.407823
0.407087
0.406354
0.405625
0.404898
0.404174
0.403454
0.402737
0.402023
0.401313
0.400606
0.399903
0.399203
0.398507
0.397815
0.397126
0.396441
0.39576
0.395083
0.394409
0.39374
0.393075
0.392413
0.391755
0.391102
0.390452
0.389806
0.389165
0.388527
0.387893
0.387263
0.386636
0.386014
0.385395
0.38478
0.384168
0.38356
0.382956
0.382354
0.381756
0.381161
0.380569
0.379981
0.379394
0.378811
0.37823
0.377652
0.377075
0.376501
0.375929
0.375359
0.37479
0.374223
0.373657
0.373092
0.372529
0.371966
0.371403
0.370842
0.37028
0.444621
0.429569
0.414495
0.413053
0.412298
0.411546
0.410796
0.410049
0.409305
0.408563
0.407824
0.407088
0.406355
0.405626
0.404899
0.404175
0.403455
0.402738
0.402024
0.401314
0.400607
0.399904
0.399204
0.398508
0.397815
0.397127
0.396442
0.395761
0.395084
0.39441
0.393741
0.393075
0.392414
0.391756
0.391103
0.390453
0.389807
0.389165
0.388527
0.387893
0.387263
0.386637
0.386014
0.385396
0.38478
0.384169
0.383561
0.382956
0.382355
0.381757
0.381162
0.38057
0.379981
0.379395
0.378811
0.37823
0.377652
0.377076
0.376502
0.375929
0.375359
0.37479
0.374223
0.373657
0.373092
0.372529
0.371966
0.371403
0.370842
0.37028
0.444621
0.42957
0.414496
0.413054
0.412299
0.411547
0.410797
0.41005
0.409306
0.408564
0.407825
0.407089
0.406356
0.405627
0.4049
0.404176
0.403456
0.402739
0.402025
0.401315
0.400608
0.399905
0.399205
0.398509
0.397816
0.397128
0.396443
0.395762
0.395085
0.394411
0.393742
0.393076
0.392415
0.391757
0.391103
0.390454
0.389808
0.389166
0.388528
0.387894
0.387264
0.386638
0.386015
0.385396
0.384781
0.384169
0.383561
0.382957
0.382355
0.381757
0.381162
0.38057
0.379981
0.379395
0.378812
0.378231
0.377652
0.377076
0.376502
0.37593
0.375359
0.374791
0.374223
0.373657
0.373093
0.372529
0.371966
0.371403
0.370842
0.37028
0.444621
0.42957
0.414497
0.413055
0.4123
0.411548
0.410798
0.410051
0.409307
0.408565
0.407826
0.40709
0.406358
0.405628
0.404901
0.404177
0.403457
0.40274
0.402026
0.401316
0.400609
0.399906
0.399206
0.39851
0.397817
0.397129
0.396444
0.395763
0.395086
0.394412
0.393743
0.393077
0.392416
0.391758
0.391104
0.390454
0.389809
0.389167
0.388529
0.387895
0.387265
0.386638
0.386016
0.385397
0.384782
0.38417
0.383562
0.382957
0.382356
0.381758
0.381163
0.380571
0.379982
0.379396
0.378812
0.378231
0.377652
0.377076
0.376502
0.37593
0.375359
0.374791
0.374223
0.373658
0.373093
0.372529
0.371966
0.371404
0.370842
0.37028
0.444621
0.429571
0.414498
0.413056
0.412301
0.411549
0.410799
0.410052
0.409308
0.408566
0.407827
0.407091
0.406359
0.405629
0.404902
0.404178
0.403458
0.402741
0.402027
0.401317
0.40061
0.399907
0.399207
0.398511
0.397818
0.39713
0.396445
0.395764
0.395086
0.394413
0.393744
0.393078
0.392416
0.391759
0.391105
0.390455
0.389809
0.389168
0.38853
0.387896
0.387265
0.386639
0.386016
0.385397
0.384782
0.38417
0.383562
0.382958
0.382356
0.381758
0.381163
0.380571
0.379982
0.379396
0.378812
0.378231
0.377653
0.377076
0.376502
0.37593
0.37536
0.374791
0.374224
0.373658
0.373093
0.372529
0.371966
0.371404
0.370842
0.37028
0.444621
0.429571
0.414498
0.413057
0.412302
0.41155
0.4108
0.410053
0.409308
0.408567
0.407828
0.407092
0.40636
0.40563
0.404903
0.404179
0.403459
0.402742
0.402028
0.401318
0.400611
0.399908
0.399208
0.398512
0.397819
0.397131
0.396446
0.395765
0.395087
0.394414
0.393744
0.393079
0.392417
0.391759
0.391106
0.390456
0.38981
0.389168
0.38853
0.387896
0.387266
0.38664
0.386017
0.385398
0.384783
0.384171
0.383563
0.382958
0.382357
0.381758
0.381163
0.380571
0.379982
0.379396
0.378813
0.378232
0.377653
0.377077
0.376502
0.37593
0.37536
0.374791
0.374224
0.373658
0.373093
0.372529
0.371966
0.371404
0.370842
0.37028
0.444621
0.429572
0.414499
0.413057
0.412303
0.41155
0.410801
0.410054
0.409309
0.408568
0.407829
0.407093
0.40636
0.405631
0.404904
0.40418
0.40346
0.402743
0.402029
0.401319
0.400612
0.399909
0.399209
0.398513
0.39782
0.397131
0.396447
0.395765
0.395088
0.394415
0.393745
0.39308
0.392418
0.39176
0.391106
0.390457
0.389811
0.389169
0.388531
0.387897
0.387266
0.38664
0.386017
0.385398
0.384783
0.384171
0.383563
0.382958
0.382357
0.381759
0.381164
0.380572
0.379983
0.379396
0.378813
0.378232
0.377653
0.377077
0.376503
0.37593
0.37536
0.374791
0.374224
0.373658
0.373093
0.372529
0.371966
0.371404
0.370842
0.37028
0.444621
0.429572
0.4145
0.413058
0.412303
0.411551
0.410802
0.410054
0.40931
0.408569
0.40783
0.407094
0.406361
0.405631
0.404905
0.404181
0.403461
0.402744
0.40203
0.40132
0.400613
0.399909
0.39921
0.398513
0.397821
0.397132
0.396447
0.395766
0.395089
0.394415
0.393746
0.39308
0.392419
0.391761
0.391107
0.390457
0.389811
0.389169
0.388531
0.387897
0.387267
0.386641
0.386018
0.385399
0.384784
0.384172
0.383564
0.382959
0.382357
0.381759
0.381164
0.380572
0.379983
0.379397
0.378813
0.378232
0.377653
0.377077
0.376503
0.375931
0.37536
0.374791
0.374224
0.373658
0.373093
0.372529
0.371966
0.371404
0.370842
0.37028
0.444621
0.429572
0.414501
0.413059
0.412304
0.411552
0.410802
0.410055
0.409311
0.408569
0.407831
0.407095
0.406362
0.405632
0.404905
0.404182
0.403461
0.402744
0.402031
0.40132
0.400613
0.39991
0.39921
0.398514
0.397822
0.397133
0.396448
0.395767
0.395089
0.394416
0.393746
0.393081
0.392419
0.391761
0.391108
0.390458
0.389812
0.38917
0.388532
0.387898
0.387267
0.386641
0.386018
0.385399
0.384784
0.384172
0.383564
0.382959
0.382358
0.381759
0.381164
0.380572
0.379983
0.379397
0.378813
0.378232
0.377654
0.377077
0.376503
0.375931
0.37536
0.374791
0.374224
0.373658
0.373093
0.372529
0.371966
0.371404
0.370842
0.37028
0.444621
0.429572
0.414501
0.413059
0.412305
0.411552
0.410803
0.410056
0.409311
0.40857
0.407831
0.407095
0.406362
0.405633
0.404906
0.404182
0.403462
0.402745
0.402031
0.401321
0.400614
0.399911
0.399211
0.398515
0.397822
0.397133
0.396448
0.395767
0.39509
0.394416
0.393747
0.393081
0.392419
0.391762
0.391108
0.390458
0.389812
0.38917
0.388532
0.387898
0.387268
0.386641
0.386019
0.3854
0.384784
0.384172
0.383564
0.382959
0.382358
0.38176
0.381165
0.380573
0.379983
0.379397
0.378813
0.378232
0.377654
0.377077
0.376503
0.375931
0.37536
0.374791
0.374224
0.373658
0.373093
0.372529
0.371966
0.371404
0.370842
0.37028
0.444621
0.429573
0.414501
0.41306
0.412305
0.411553
0.410803
0.410056
0.409312
0.40857
0.407832
0.407096
0.406363
0.405633
0.404906
0.404183
0.403462
0.402745
0.402032
0.401321
0.400614
0.399911
0.399211
0.398515
0.397822
0.397134
0.396449
0.395768
0.39509
0.394417
0.393747
0.393082
0.39242
0.391762
0.391108
0.390458
0.389812
0.389171
0.388532
0.387898
0.387268
0.386641
0.386019
0.3854
0.384784
0.384173
0.383564
0.38296
0.382358
0.38176
0.381165
0.380573
0.379984
0.379397
0.378814
0.378233
0.377654
0.377077
0.376503
0.375931
0.37536
0.374792
0.374224
0.373658
0.373093
0.372529
0.371966
0.371404
0.370842
0.37028
0.444621
0.429573
0.414502
0.41306
0.412305
0.411553
0.410803
0.410056
0.409312
0.408571
0.407832
0.407096
0.406363
0.405633
0.404907
0.404183
0.403463
0.402746
0.402032
0.401321
0.400615
0.399911
0.399211
0.398515
0.397823
0.397134
0.396449
0.395768
0.39509
0.394417
0.393747
0.393082
0.39242
0.391762
0.391108
0.390459
0.389813
0.389171
0.388533
0.387898
0.387268
0.386642
0.386019
0.3854
0.384785
0.384173
0.383564
0.38296
0.382358
0.38176
0.381165
0.380573
0.379984
0.379397
0.378814
0.378233
0.377654
0.377078
0.376503
0.375931
0.37536
0.374792
0.374224
0.373658
0.373093
0.372529
0.371966
0.371404
0.370842
0.37028
0.444621
0.429573
0.414502
0.41306
0.412305
0.411553
0.410804
0.410057
0.409312
0.408571
0.407832
0.407096
0.406363
0.405634
0.404907
0.404183
0.403463
0.402746
0.402032
0.401322
0.400615
0.399911
0.399212
0.398515
0.397823
0.397134
0.396449
0.395768
0.395091
0.394417
0.393748
0.393082
0.39242
0.391762
0.391109
0.390459
0.389813
0.389171
0.388533
0.387899
0.387268
0.386642
0.386019
0.3854
0.384785
0.384173
0.383565
0.38296
0.382358
0.38176
0.381165
0.380573
0.379984
0.379397
0.378814
0.378233
0.377654
0.377078
0.376503
0.375931
0.37536
0.374792
0.374224
0.373658
0.373093
0.372529
0.371966
0.371404
0.370842
0.37028
0.444621
0.429573
0.414502
0.41306
0.412306
0.411553
0.410804
0.410057
0.409312
0.408571
0.407832
0.407096
0.406364
0.405634
0.404907
0.404183
0.403463
0.402746
0.402032
0.401322
0.400615
0.399912
0.399212
0.398516
0.397823
0.397134
0.396449
0.395768
0.395091
0.394417
0.393748
0.393082
0.39242
0.391763
0.391109
0.390459
0.389813
0.389171
0.388533
0.387899
0.387268
0.386642
0.386019
0.3854
0.384785
0.384173
0.383565
0.38296
0.382358
0.38176
0.381165
0.380573
0.379984
0.379397
0.378814
0.378233
0.377654
0.377078
0.376503
0.375931
0.37536
0.374792
0.374224
0.373658
0.373093
0.372529
0.371966
0.371404
0.370842
0.37028
0.444621
0.429573
0.414502
0.41306
0.412306
0.411553
0.410804
0.410057
0.409312
0.408571
0.407832
0.407096
0.406364
0.405634
0.404907
0.404183
0.403463
0.402746
0.402032
0.401322
0.400615
0.399912
0.399212
0.398516
0.397823
0.397134
0.396449
0.395768
0.395091
0.394417
0.393748
0.393082
0.39242
0.391763
0.391109
0.390459
0.389813
0.389171
0.388533
0.387899
0.387268
0.386642
0.386019
0.3854
0.384785
0.384173
0.383565
0.38296
0.382358
0.38176
0.381165
0.380573
0.379984
0.379397
0.378814
0.378233
0.377654
0.377078
0.376503
0.375931
0.37536
0.374792
0.374224
0.373658
0.373093
0.372529
0.371966
0.371404
0.370842
0.37028
0.444621
0.429573
0.414502
0.41306
0.412306
0.411553
0.410804
0.410057
0.409313
0.408571
0.407832
0.407096
0.406364
0.405634
0.404907
0.404183
0.403463
0.402746
0.402032
0.401322
0.400615
0.399912
0.399212
0.398516
0.397823
0.397134
0.396449
0.395768
0.395091
0.394417
0.393748
0.393082
0.39242
0.391763
0.391109
0.390459
0.389813
0.389171
0.388533
0.387899
0.387268
0.386642
0.386019
0.3854
0.384785
0.384173
0.383565
0.38296
0.382358
0.38176
0.381165
0.380573
0.379984
0.379397
0.378814
0.378233
0.377654
0.377078
0.376503
0.375931
0.37536
0.374792
0.374224
0.373658
0.373093
0.372529
0.371966
0.371404
0.370842
0.37028
0.444621
0.429573
0.414502
0.41306
0.412306
0.411553
0.410804
0.410057
0.409313
0.408571
0.407832
0.407097
0.406364
0.405634
0.404907
0.404183
0.403463
0.402746
0.402032
0.401322
0.400615
0.399912
0.399212
0.398516
0.397823
0.397134
0.396449
0.395768
0.395091
0.394417
0.393748
0.393082
0.39242
0.391763
0.391109
0.390459
0.389813
0.389171
0.388533
0.387899
0.387268
0.386642
0.386019
0.3854
0.384785
0.384173
0.383565
0.38296
0.382358
0.38176
0.381165
0.380573
0.379984
0.379397
0.378814
0.378233
0.377654
0.377078
0.376503
0.375931
0.37536
0.374792
0.374224
0.373658
0.373093
0.372529
0.371966
0.371404
0.370842
0.37028
0.444621
0.429573
0.414502
0.41306
0.412306
0.411553
0.410804
0.410057
0.409313
0.408571
0.407832
0.407097
0.406364
0.405634
0.404907
0.404184
0.403463
0.402746
0.402032
0.401322
0.400615
0.399912
0.399212
0.398516
0.397823
0.397134
0.396449
0.395768
0.395091
0.394417
0.393748
0.393082
0.39242
0.391763
0.391109
0.390459
0.389813
0.389171
0.388533
0.387899
0.387268
0.386642
0.386019
0.3854
0.384785
0.384173
0.383565
0.38296
0.382358
0.38176
0.381165
0.380573
0.379984
0.379397
0.378814
0.378233
0.377654
0.377078
0.376503
0.375931
0.37536
0.374792
0.374224
0.373658
0.373093
0.372529
0.371966
0.371404
0.370842
0.37028
0.444621
0.429573
0.414502
0.41306
0.412306
0.411553
0.410804
0.410057
0.409313
0.408571
0.407832
0.407097
0.406364
0.405634
0.404907
0.404184
0.403463
0.402746
0.402032
0.401322
0.400615
0.399912
0.399212
0.398516
0.397823
0.397134
0.396449
0.395768
0.395091
0.394417
0.393748
0.393082
0.39242
0.391763
0.391109
0.390459
0.389813
0.389171
0.388533
0.387899
0.387268
0.386642
0.386019
0.3854
0.384785
0.384173
0.383565
0.38296
0.382358
0.38176
0.381165
0.380573
0.379984
0.379397
0.378814
0.378233
0.377654
0.377078
0.376503
0.375931
0.37536
0.374792
0.374224
0.373658
0.373093
0.372529
0.371966
0.371404
0.370842
0.37028
0.444621
0.429573
0.414502
0.41306
0.412306
0.411553
0.410804
0.410057
0.409313
0.408571
0.407832
0.407097
0.406364
0.405634
0.404907
0.404184
0.403463
0.402746
0.402032
0.401322
0.400615
0.399912
0.399212
0.398516
0.397823
0.397134
0.396449
0.395768
0.395091
0.394417
0.393748
0.393082
0.39242
0.391763
0.391109
0.390459
0.389813
0.389171
0.388533
0.387899
0.387268
0.386642
0.386019
0.3854
0.384785
0.384173
0.383565
0.38296
0.382358
0.38176
0.381165
0.380573
0.379984
0.379397
0.378814
0.378233
0.377654
0.377078
0.376503
0.375931
0.37536
0.374792
0.374224
0.373658
0.373093
0.372529
0.371966
0.371404
0.370842
0.37028
0.444621
0.429573
0.414502
0.41306
0.412306
0.411553
0.410804
0.410057
0.409313
0.408571
0.407832
0.407097
0.406364
0.405634
0.404907
0.404184
0.403463
0.402746
0.402032
0.401322
0.400615
0.399912
0.399212
0.398516
0.397823
0.397134
0.396449
0.395768
0.395091
0.394417
0.393748
0.393082
0.39242
0.391763
0.391109
0.390459
0.389813
0.389171
0.388533
0.387899
0.387268
0.386642
0.386019
0.3854
0.384785
0.384173
0.383565
0.38296
0.382358
0.38176
0.381165
0.380573
0.379984
0.379397
0.378814
0.378233
0.377654
0.377078
0.376503
0.375931
0.37536
0.374792
0.374224
0.373658
0.373093
0.372529
0.371966
0.371404
0.370842
0.37028
0.444621
0.429573
0.414502
0.41306
0.412306
0.411553
0.410804
0.410057
0.409313
0.408571
0.407832
0.407097
0.406364
0.405634
0.404907
0.404184
0.403463
0.402746
0.402032
0.401322
0.400615
0.399912
0.399212
0.398516
0.397823
0.397134
0.396449
0.395768
0.395091
0.394417
0.393748
0.393082
0.39242
0.391763
0.391109
0.390459
0.389813
0.389171
0.388533
0.387899
0.387268
0.386642
0.386019
0.3854
0.384785
0.384173
0.383565
0.38296
0.382358
0.38176
0.381165
0.380573
0.379984
0.379397
0.378814
0.378233
0.377654
0.377078
0.376503
0.375931
0.37536
0.374792
0.374224
0.373658
0.373093
0.372529
0.371966
0.371404
0.370842
0.37028
0.444621
0.429573
0.414502
0.41306
0.412306
0.411553
0.410804
0.410057
0.409313
0.408571
0.407832
0.407097
0.406364
0.405634
0.404907
0.404184
0.403463
0.402746
0.402032
0.401322
0.400615
0.399912
0.399212
0.398516
0.397823
0.397134
0.396449
0.395768
0.395091
0.394417
0.393748
0.393082
0.39242
0.391763
0.391109
0.390459
0.389813
0.389171
0.388533
0.387899
0.387268
0.386642
0.386019
0.3854
0.384785
0.384173
0.383565
0.38296
0.382358
0.38176
0.381165
0.380573
0.379984
0.379397
0.378814
0.378233
0.377654
0.377078
0.376503
0.375931
0.37536
0.374792
0.374224
0.373658
0.373093
0.372529
0.371966
0.371404
0.370842
0.37028
0.444621
0.429573
0.414502
0.41306
0.412306
0.411553
0.410804
0.410057
0.409313
0.408571
0.407832
0.407097
0.406364
0.405634
0.404907
0.404184
0.403463
0.402746
0.402032
0.401322
0.400615
0.399912
0.399212
0.398516
0.397823
0.397134
0.396449
0.395768
0.395091
0.394417
0.393748
0.393082
0.39242
0.391763
0.391109
0.390459
0.389813
0.389171
0.388533
0.387899
0.387268
0.386642
0.386019
0.3854
0.384785
0.384173
0.383565
0.38296
0.382358
0.38176
0.381165
0.380573
0.379984
0.379397
0.378814
0.378233
0.377654
0.377078
0.376503
0.375931
0.37536
0.374792
0.374224
0.373658
0.373093
0.372529
0.371966
0.371404
0.370842
0.37028
0.444621
0.429573
0.414502
0.41306
0.412306
0.411553
0.410804
0.410057
0.409313
0.408571
0.407832
0.407097
0.406364
0.405634
0.404907