/*--------------------------------*- C++ -*----------------------------------*\
  =========                 |
  \\      /  F ield         | OpenFOAM: The Open Source CFD Toolbox
   \\    /   O peration     | Website:  https://openfoam.org
    \\  /    A nd           | Version:  13
     \\/     M anipulation  |
\*---------------------------------------------------------------------------*/
FoamFile
{
    format      ascii;
    class       volScalarField;
    location    "2";
    object      omega;
}
// * * * * * * * * * * * * * * * * * * * * * * * * * * * * * * * * * * * * * //

dimensions      [0 0 -1 0 0 0 0];

internalField   nonuniform List<scalar> 
78750
(
678.67
75.4078
15.1502
15.1502
15.1502
15.1502
15.1502
15.1502
15.1502
15.1502
15.1502
15.1502
15.1502
15.1502
15.1502
15.1502
15.1502
15.1502
15.1502
15.1502
15.1502
15.1502
15.1502
15.1502
15.1502
15.1502
15.1502
15.1502
15.1502
15.1502
15.1502
15.1502
15.1502
75.4078
678.67
678.67
75.4078
2.66272
3.13592
3.2662
2.66272
2.66272
2.66272
2.66272
2.66272
2.66272
3.17226
3.24387
3.30888
3.36689
3.41769
3.4609
3.49595
3.52367
3.54497
3.56041
3.5701
3.57373
3.5694
3.55555
3.53318
3.50081
3.45671
3.39907
3.32709
3.23814
2.66272
2.66272
75.4078
678.67
678.67
75.4078
2.66272
2.66272
3.17999
3.24812
3.31885
3.39693
3.47728
3.55534
3.62783
3.69241
3.74826
3.79523
3.83355
3.86364
3.88597
3.90105
3.90923
3.91079
3.90519
3.89192
3.87199
3.8451
3.81094
3.76892
3.71829
3.65844
3.58951
3.5122
3.41943
3.26753
2.66272
75.4078
678.67
678.67
75.4078
2.66272
3.13751
3.25091
3.34355
3.43125
3.52092
3.60765
3.68804
3.76018
3.82317
3.87676
3.92107
3.95636
3.983
4.00135
4.01176
4.01457
4.00951
3.99634
3.97582
3.94781
3.91219
3.86879
3.81739
3.75773
3.6899
3.61442
3.53196
3.43061
3.25765
2.66272
75.4078
678.67
678.67
75.4078
2.66272
3.15065
3.27076
3.36795
3.45902
3.55028
3.63737
3.71741
3.78881
3.85092
3.90357
3.94689
3.98114
4.00662
4.02364
4.03249
4.03347
4.02643
4.01112
3.98828
3.95766
3.91921
3.87296
3.81865
3.75603
3.68556
3.6077
3.5236
3.42186
3.26699
2.66272
75.4078
678.67
678.67
75.4078
2.66272
3.16745
3.28525
3.38143
3.47228
3.56299
3.64926
3.72832
3.79871
3.85983
3.91155
3.95402
3.98747
4.0122
4.02851
4.0367
4.03664
4.02837
4.012
3.98784
3.95541
3.91515
3.86702
3.81081
3.74637
3.67375
3.59345
3.5067
3.39956
3.23685
2.66272
75.4078
678.67
678.67
75.4078
2.66272
3.17455
3.29286
3.38928
3.48002
3.57025
3.65585
3.73417
3.80384
3.86428
3.9154
3.95731
3.99027
4.01452
4.03034
4.03801
4.03749
4.02896
4.01244
3.98782
3.95501
3.91424
3.86544
3.80851
3.74343
3.67047
3.59046
3.50459
3.39547
3.2081
2.66272
75.4078
678.67
678.67
75.4078
2.66272
3.18358
3.30184
3.39802
3.48821
3.57763
3.6623
3.73969
3.8085
3.86818
3.91863
3.95998
3.99243
4.01621
4.03158
4.03877
4.03777
4.02877
4.01193
3.98713
3.95408
3.91282
3.86345
3.8058
3.73985
3.66574
3.5839
3.49526
3.38455
3.2155
2.66272
75.4078
678.67
678.67
75.4078
2.66272
3.1902
3.30827
3.40447
3.49424
3.58308
3.66711
3.74385
3.81206
3.87121
3.92122
3.96219
3.99432
4.01782
4.03291
4.03981
4.0385
4.02912
4.01214
3.98718
3.95408
3.91298
3.86361
3.80589
3.73975
3.66568
3.58393
3.49588
3.38319
3.18932
2.66272
75.4078
678.67
678.67
75.4078
2.66272
3.19311
3.31412
3.41087
3.50014
3.58838
3.67177
3.74791
3.81555
3.87419
3.92373
3.96429
3.99603
4.01918
4.03393
4.04048
4.03887
4.0292
4.01187
3.98667
3.95373
3.91274
3.86342
3.80569
3.73945
3.66569
3.58478
3.49797
3.38872
3.21998
2.66272
75.4078
678.67
678.67
75.4078
2.66272
3.2062
3.32598
3.42149
3.50912
3.59576
3.67774
3.7527
3.81939
3.87729
3.92627
3.96639
3.99781
4.02069
4.03521
4.04157
4.03978
4.02993
4.01228
3.98694
3.95404
3.91293
3.86337
3.80518
3.73836
3.66368
3.58204
3.49543
3.38982
3.24092
3.13181
75.4078
678.67
678.67
75.4078
2.66272
3.2183
3.33823
3.43281
3.51881
3.60371
3.68414
3.75782
3.82348
3.88057
3.9289
3.96851
3.99952
4.02207
4.03633
4.04246
4.04056
4.03074
4.01303
3.98733
3.95377
3.91186
3.86146
3.80227
3.73485
3.65967
3.5772
3.48911
3.38064
3.22834
2.66272
75.4078
678.67
678.67
75.4078
2.66272
3.21869
3.34213
3.43751
3.52323
3.60774
3.68772
3.76093
3.82617
3.88287
3.93088
3.97023
4.00103
4.02344
4.03759
4.04368
4.04181
4.03219
4.01446
3.98853
3.95443
3.91212
3.8614
3.80195
3.73437
3.65909
3.57603
3.48687
3.37602
3.21918
2.66272
75.4078
678.67
678.67
75.4078
2.66272
3.21632
3.34218
3.43811
3.5242
3.60919
3.68956
3.76298
3.82823
3.88483
3.93266
3.97179
4.00235
4.02451
4.03839
4.04413
4.04186
4.03177
4.01362
3.98751
3.95343
3.91115
3.86045
3.80111
3.7337
3.65875
3.57645
3.48812
3.37401
3.18507
2.66272
75.4078
678.67
678.67
75.4078
2.66272
3.19815
3.33919
3.43991
3.52719
3.61244
3.69266
3.76577
3.83069
3.88697
3.93452
3.97343
4.00382
4.02581
4.03952
4.04504
4.04247
4.03191
4.01353
3.9874
3.95343
3.91112
3.86029
3.80075
3.73276
3.65632
3.57212
3.48117
3.36105
3.1492
2.66272
75.4078
678.67
678.67
75.4078
2.66272
3.16312
3.32782
3.43823
3.52945
3.61599
3.69636
3.76919
3.83373
3.88968
3.93704
3.97591
4.00641
4.02846
4.04203
4.04728
4.04435
4.03337
4.01448
3.98773
3.95311
3.91021
3.85901
3.79935
3.73102
3.6539
3.56928
3.47815
3.35737
3.14331
2.66272
75.4078
678.67
678.67
75.4078
2.66272
3.21803
3.35162
3.45131
3.53742
3.62129
3.70025
3.77224
3.83623
3.89183
3.939
3.97782
4.00846
4.03046
4.04392
4.04916
4.04627
4.03523
4.01616
3.98909
3.95403
3.91089
3.85953
3.79974
3.73137
3.65456
3.57106
3.4837
3.37801
3.23481
3.13722
75.4078
678.67
678.67
75.4078
2.66272
3.1773
3.33566
3.44513
3.53585
3.62238
3.70233
3.77443
3.83812
3.89326
3.93989
3.97816
4.00825
4.02989
4.04329
4.04872
4.04579
4.03471
4.01555
3.98837
3.95317
3.90989
3.85842
3.79857
3.73024
3.6537
3.57019
3.48282
3.37825
3.24599
3.19123
75.4078
678.67
678.67
75.4078
2.66272
3.16511
3.33512
3.44766
3.53922
3.62551
3.70493
3.77649
3.8397
3.8944
3.94063
3.9785
4.00815
4.02972
4.04334
4.04883
4.0461
4.03516
4.01615
3.98914
3.95417
3.91122
3.8602
3.80094
3.73329
3.65725
3.57326
3.48276
3.36666
3.19097
2.66272
75.4078
678.67
678.67
75.4078
2.66272
3.14989
3.33087
3.44692
3.53958
3.62638
3.70611
3.7778
3.84098
3.89553
3.94154
3.97916
4.00854
4.02984
4.04325
4.04876
4.04589
4.03479
4.0156
3.98841
3.95324
3.91007
3.85881
3.79927
3.73123
3.65459
3.56943
3.47718
3.3563
3.16508
2.66272
75.4078
678.67
678.67
75.4078
2.66272
3.17538
3.3437
3.45454
3.54446
3.6298
3.70875
3.77993
3.84273
3.89698
3.94274
3.98014
4.00934
4.03051
4.04381
4.04915
4.04612
4.03492
4.01587
3.98886
3.95378
3.91066
3.85939
3.79975
3.73151
3.65444
3.56852
3.47443
3.34843
3.13952
2.66272
75.4078
678.67
678.67
75.4078
2.66272
3.21191
3.3629
3.46647
3.55222
3.6351
3.71258
3.78282
3.84494
3.89868
3.94403
3.98108
4.00995
4.03076
4.04361
4.04848
4.04501
4.03371
4.0145
3.98725
3.95218
3.909
3.85742
3.79727
3.72829
3.65028
3.5633
3.46773
3.34028
3.1341
2.66272
75.4078
678.67
678.67
75.4078
2.66272
3.15917
3.34492
3.46055
3.55108
3.63605
3.7142
3.7845
3.84648
3.90002
3.94519
3.98208
4.0108
4.03143
4.04402
4.04848
4.04506
4.0336
4.01417
3.9872
3.9526
3.90965
3.85817
3.79803
3.72896
3.65076
3.56357
3.46788
3.34011
3.1313
2.66272
75.4078
678.67
678.67
75.4078
2.66272
3.16541
3.34978
3.4648
3.55512
3.63961
3.71722
3.78702
3.84859
3.90185
3.94687
3.98381
4.01281
4.03367
4.04626
4.05051
4.04658
4.03474
4.01508
3.98763
3.95239
3.90888
3.85703
3.79664
3.72743
3.64935
3.5629
3.46954
3.34838
3.16719
2.66272
75.4078
678.67
678.67
75.4078
2.66272
3.16781
3.35351
3.46895
3.55879
3.64267
3.7197
3.78905
3.8503
3.90336
3.94833
3.98537
4.01469
4.03569
4.04835
4.05266
4.04883
4.03704
4.01728
3.9896
3.95398
3.91036
3.85855
3.79829
3.72933
3.65171
3.56596
3.47286
3.34702
3.12159
2.66272
75.4078
678.67
678.67
75.4078
2.66272
3.19451
3.36745
3.47762
3.56513
3.64746
3.72318
3.7915
3.85203
3.90451
3.94896
3.98548
4.01422
4.03478
4.04732
4.05168
4.04792
4.03615
4.01637
3.98864
3.95295
3.90924
3.85729
3.7968
3.72747
3.64921
3.56266
3.46962
3.35122
3.17946
2.66272
75.4078
678.67
678.67
75.4078
2.66272
3.16448
3.36504
3.48068
3.56869
3.65051
3.72541
3.79319
3.85332
3.90547
3.94961
3.98581
4.01413
4.03459
4.04742
4.05191
4.04822
4.03653
4.01692
3.9894
3.95393
3.91043
3.85865
3.79822
3.72868
3.64976
3.56177
3.46658
3.34482
3.17064
2.66272
75.4078
678.67
678.67
75.4078
2.66272
3.21964
3.37301
3.48057
3.56771
3.65013
3.72582
3.7941
3.85434
3.9064
3.95033
3.98625
4.01425
4.03443
4.04681
4.05084
4.04677
4.03489
4.0151
3.9874
3.95197
3.90866
3.85696
3.79636
3.72648
3.64704
3.55825
3.46271
3.34054
3.16732
2.66272
75.4078
678.67
678.67
75.4078
2.66272
3.2065
3.37158
3.48338
3.57198
3.65472
3.73029
3.79789
3.85724
3.90842
3.95174
3.98728
4.01497
4.03481
4.04675
4.05056
4.0464
4.03458
4.0147
3.98732
3.95234
3.9096
3.85817
3.79763
3.72758
3.64764
3.55788
3.46012
3.33097
3.13012
2.66272
75.4078
678.67
678.67
75.4078
2.66272
3.2219
3.38068
3.48985
3.5771
3.65905
3.73397
3.80086
3.85935
3.90986
3.95288
3.98823
4.01585
4.03575
4.04798
4.05203
4.04786
4.03577
4.01586
3.98819
3.95276
3.90949
3.85769
3.79717
3.72781
3.65025
3.56749
3.48885
3.4271
3.52277
3.13398
75.4078
678.67
678.67
75.4078
2.66272
3.23676
3.38452
3.49018
3.57591
3.6575
3.73256
3.79983
3.85881
3.91004
3.95342
3.989
4.01681
4.03696
4.04961
4.05388
4.04972
4.03758
4.01754
3.98955
3.9537
3.90986
3.85777
3.79696
3.7269
3.64731
3.55873
3.46339
3.34192
3.17632
2.66272
75.4078
678.67
678.67
75.4078
2.66272
3.22164
3.3807
3.4889
3.57569
3.65761
3.73281
3.80027
3.85964
3.91092
3.95419
3.98956
4.01709
4.03685
4.04894
4.05267
4.04809
4.03578
4.01541
3.9872
3.95103
3.90684
3.85447
3.79363
3.7242
3.64692
3.56481
3.48635
3.41961
3.48403
2.66272
75.4078
678.67
678.67
75.4078
2.66272
3.22298
3.38442
3.49369
3.5804
3.66165
3.73596
3.8026
3.86139
3.91229
3.95532
3.99053
4.0179
4.03742
4.04905
4.05252
4.04803
4.03541
4.01522
3.98701
3.95085
3.90665
3.85413
3.79284
3.72229
3.6422
3.55304
3.45688
3.33168
3.14802
2.66272
75.4078
678.67
678.67
75.4078
2.66272
3.23608
3.39365
3.49992
3.58488
3.66501
3.73855
3.80476
3.8633
3.91414
3.95732
3.99294
4.02067
4.0403
4.05188
4.05515
4.05023
4.03742
4.01673
3.98814
3.95149
3.90671
3.85381
3.79254
3.72266
3.64485
3.56219
3.48288
3.41742
3.503
2.66272
75.4078
678.67
678.67
75.4078
2.66272
3.2394
3.39843
3.50373
3.58728
3.66648
3.7397
3.80585
3.86444
3.91541
3.95882
3.99483
4.02265
4.04226
4.05392
4.05726
4.05245
4.03993
4.01965
3.99132
3.95461
3.90988
3.85732
3.79635
3.72644
3.64744
3.56021
3.46637
3.34726
3.19056
2.66272
75.4078
678.67
678.67
75.4078
2.66272
3.20658
3.39
3.50189
3.58792
3.66788
3.74115
3.80707
3.86533
3.91593
3.95893
3.99449
4.02207
4.04163
4.05335
4.05654
4.05171
4.03913
4.01876
3.99045
3.95434
3.91077
3.85898
3.79829
3.7282
3.64846
3.55973
3.46362
3.33966
3.16877
2.66272
75.4078
678.67
678.67
75.4078
2.66272
3.17799
3.38581
3.50222
3.58866
3.66872
3.74212
3.80805
3.86623
3.91664
3.95938
3.99451
4.02203
4.04152
4.05315
4.05652
4.05177
4.03925
4.01904
3.99164
3.95693
3.91454
3.86352
3.80325
3.73319
3.65294
3.56323
3.46697
3.34446
3.17942
2.66272
75.4078
678.67
678.67
75.4078
3.12766
3.2589
3.40794
3.51216
3.59462
3.67303
3.74559
3.81103
3.86894
3.91924
3.96202
3.99702
4.02404
4.04319
4.0545
4.05763
4.05275
4.04022
4.02012
3.99249
3.95728
3.91428
3.86254
3.80153
3.73052
3.64897
3.55801
3.46014
3.33454
3.16434
2.66272
75.4078
678.67
678.67
75.4078
2.66272
3.23473
3.39981
3.50939
3.59417
3.67381
3.74688
3.81262
3.8708
3.92149
3.9644
3.99905
4.02585
4.04489
4.05618
4.05936
4.05465
4.04242
4.02255
3.99491
3.9595
3.91605
3.86406
3.80277
3.73138
3.64942
3.55801
3.45993
3.33468
3.16495
2.66272
75.4078
678.67
678.67
75.4078
2.66272
3.24468
3.4093
3.51562
3.59852
3.67672
3.7489
3.81403
3.87179
3.92219
3.96425
3.9984
4.025
4.044
4.05511
4.05816
4.05354
4.04162
4.02182
3.99416
3.9587
3.91518
3.86314
3.80187
3.73058
3.6487
3.55736
3.45884
3.3308
3.15531
2.66272
75.4078
678.67
678.67
75.4078
2.66272
3.19715
3.39978
3.51487
3.59931
3.67778
3.74983
3.8147
3.87214
3.92225
3.96449
3.99868
4.02525
4.04397
4.0549
4.05803
4.05342
4.04142
4.02169
3.9944
3.95956
3.91672
3.86528
3.80466
3.73416
3.65321
3.56192
3.46262
3.33232
3.14133
2.66272
75.4078
678.67
678.67
75.4078
2.66272
3.24535
3.40973
3.51813
3.60141
3.67962
3.75133
3.81578
3.87274
3.92228
3.96447
3.99856
4.02466
4.04342
4.05469
4.0578
4.05276
4.04008
4.01988
3.9922
3.95697
3.91367
3.86213
3.80175
3.73214
3.65387
3.5695
3.48828
3.42515
3.53481
3.18595
75.4078
678.67
678.67
75.4078
2.66272
3.25434
3.41808
3.52313
3.60475
3.6819
3.75293
3.81684
3.87334
3.92243
3.96423
3.99813
4.02459
4.0435
4.05488
4.05789
4.0528
4.0401
4.01987
3.99212
3.95673
3.91399
3.86331
3.80418
3.73652
3.66146
3.58128
3.50117
3.41652
3.33095
3.16108
75.4078
678.67
678.67
75.4078
2.66272
3.20677
3.4089
3.52256
3.60629
3.68388
3.7548
3.81849
3.87477
3.92369
3.9654
3.99958
4.026
4.04474
4.05578
4.05869
4.05366
4.04114
4.02124
3.99394
3.95914
3.9165
3.86555
3.80575
3.73701
3.66072
3.57953
3.49719
3.40976
3.32311
3.17603
75.4078
678.67
678.67
75.4078
2.66272
3.25813
3.42126
3.52844
3.61071
3.68746
3.75771
3.82086
3.87678
3.92556
3.96737
4.00138
4.0275
4.04601
4.05702
4.06002
4.05522
4.0431
4.02374
3.99714
3.96311
3.92134
3.87115
3.81179
3.74321
3.66701
3.58616
3.50402
3.41925
3.34306
3.2166
75.4078
678.67
678.67
75.4078
2.66272
3.26174
3.42704
3.53229
3.61363
3.6896
3.75929
3.82197
3.87741
3.92568
3.96693
4.00061
4.0266
4.04508
4.05601
4.05885
4.05386
4.04157
4.02205
3.99533
3.96121
3.91948
3.86921
3.81007
3.74162
3.66522
3.58252
3.49694
3.40658
3.32842
3.19581
75.4078
678.67
678.67
75.4078
2.66272
3.2029
3.41378
3.52936
3.61327
3.69
3.75993
3.82263
3.87794
3.92597
3.96682
4.00052
4.02658
4.04509
4.056
4.05886
4.05387
4.04154
4.02197
3.99518
3.96106
3.919
3.86879
3.8093
3.73954
3.65915
3.56829
3.46376
3.33274
3.19721
3.16248
75.4078
678.67
678.67
75.4078
2.66272
3.23827
3.42536
3.53477
3.61695
3.69284
3.76228
3.82459
3.8796
3.9274
3.96819
4.00169
4.02766
4.04614
4.05711
4.06006
4.05522
4.04311
4.02381
3.99728
3.9633
3.92139
3.87086
3.8108
3.74048
3.65949
3.56761
3.46001
3.32383
3.18895
3.18445
75.4078
678.67
678.67
75.4078
2.66272
3.21917
3.42226
3.53556
3.61834
3.69412
3.76354
3.82586
3.88091
3.92887
3.97004
4.00366
4.02962
4.04817
4.05947
4.06284
4.05837
4.04669
4.02792
4.00194
3.96844
3.92694
3.87677
3.8169
3.7467
3.66498
3.57119
3.457
3.2971
2.66272
2.66272
75.4078
678.67
678.67
75.4078
2.66272
3.22505
3.42599
3.53903
3.62112
3.69645
3.76535
3.82713
3.88161
3.92893
3.96934
4.00238
4.02804
4.04652
4.05798
4.06138
4.05682
4.04496
4.02587
3.99966
3.96624
3.92502
3.87522
3.81555
3.74562
3.66391
3.5708
3.45839
3.31118
3.15316
2.66272
75.4078
678.67
678.67
75.4078
2.66272
3.21818
3.42255
3.53763
3.62145
3.69742
3.76646
3.82811
3.88235
3.92932
3.96919
4.00207
4.02796
4.04651
4.05814
4.0615
4.05693
4.04507
4.02594
4.0003
3.96787
3.92792
3.87939
3.82103
3.75158
3.67046
3.57816
3.46685
3.32355
3.18306
3.15483
75.4078
678.67
678.67
75.4078
2.66272
3.22302
3.42867
3.54373
3.6267
3.7016
3.76943
3.83011
3.88369
3.93017
3.96962
4.00207
4.02755
4.04611
4.05721
4.06031
4.05576
4.04422
4.02569
4.0006
3.96851
3.92877
3.88031
3.82179
3.75186
3.66974
3.57606
3.46145
3.3145
3.17807
3.16618
75.4078
678.67
678.67
75.4078
2.66272
3.22234
3.43045
3.54737
3.63037
3.70469
3.77166
3.83182
3.88507
3.93131
3.97058
4.00289
4.02821
4.04647
4.05762
4.06109
4.05712
4.04628
4.02869
4.00438
3.97308
3.93414
3.88652
3.82877
3.75945
3.67765
3.58382
3.46863
3.3201
3.18329
3.1694
75.4078
678.67
678.67
75.4078
2.66272
3.24167
3.43293
3.54681
3.62963
3.70413
3.77168
3.8323
3.88572
3.932
3.97126
4.00358
4.02897
4.04744
4.059
4.06307
4.05965
4.04914
4.03168
4.00727
3.97561
3.93647
3.8889
3.8313
3.76204
3.68002
3.58545
3.46749
3.31409
3.17536
3.16314
75.4078
678.67
678.67
75.4078
2.66272
3.25268
3.43959
3.54927
3.63071
3.70503
3.7728
3.8334
3.88674
3.93295
3.97219
4.00456
4.03011
4.04888
4.06095
4.06577
4.06297
4.05291
4.03581
4.01172
3.98038
3.94199
3.89543
3.83902
3.77112
3.69063
3.59778
3.4814
3.32889
3.18812
3.17118
75.4078
678.67
678.67
75.4078
2.66272
3.24192
3.43986
3.55211
3.63394
3.70799
3.77532
3.83546
3.88838
3.93424
3.9732
4.00532
4.03061
4.04906
4.06066
4.06494
4.06165
4.05148
4.0346
4.01106
3.98065
3.94329
3.89776
3.84269
3.77694
3.70013
3.61335
3.50709
3.3714
3.23699
3.17616
75.4078
678.67
678.67
75.4078
2.66272
3.23641
3.4406
3.5542
3.63671
3.71082
3.77788
3.83756
3.89005
3.93559
3.97434
4.00632
4.0315
4.04981
4.06117
4.06501
4.06169
4.05188
4.03581
4.01351
3.98474
3.9488
3.90457
3.8507
3.78601
3.71008
3.62399
3.518
3.38232
3.25035
3.18354
75.4078
678.67
678.67
75.4078
2.66272
3.22171
3.4373
3.55515
3.63835
3.71243
3.7793
3.83881
3.89119
3.93667
3.97541
4.00744
4.03275
4.05134
4.06318
4.06743
4.06417
4.05402
4.03764
4.01533
3.98672
3.95102
3.90699
3.85318
3.78827
3.71169
3.62425
3.51414
3.3689
3.2233
3.14065
75.4078
678.67
678.67
75.4078
2.66272
3.24142
3.44204
3.55777
3.63969
3.71321
3.77995
3.83955
3.89205
3.93764
3.97646
4.00855
4.03394
4.05267
4.06479
4.06927
4.06637
4.05642
4.04051
4.01888
3.99114
3.95639
3.9133
3.86029
3.79593
3.71954
3.63185
3.52032
3.3734
3.22883
3.14498
75.4078
678.67
678.67
75.4078
2.66272
3.2584
3.44544
3.55937
3.64139
3.7147
3.78137
3.84124
3.89423
3.94012
3.97886
4.01062
4.03547
4.05341
4.06472
4.069
4.06622
4.0566
4.04138
4.02042
3.99328
3.95901
3.91618
3.86311
3.79832
3.72113
3.63253
3.51982
3.37407
3.24452
3.18882
75.4078
678.67
678.67
75.4078
2.66272
3.24044
3.44755
3.56345
3.64494
3.7169
3.78297
3.84271
3.89583
3.94154
3.97992
4.01136
4.03598
4.05369
4.06506
4.06949
4.06685
4.05843
4.04436
4.02459
3.99872
3.96578
3.92426
3.87238
3.80844
3.73141
3.6415
3.52311
3.35543
3.13894
2.66272
75.4078
678.67
678.67
75.4078
2.66272
3.24612
3.44681
3.5625
3.64408
3.71654
3.78289
3.84248
3.89531
3.94089
3.97937
4.01101
4.03596
4.05415
4.06605
4.07093
4.06863
4.0602
4.04635
4.02702
4.00172
3.9694
3.92849
3.87709
3.8135
3.73669
3.64705
3.5278
3.35802
3.15109
2.66272
75.4078
678.67
678.67
75.4078
2.66272
3.25426
3.45061
3.56458
3.64584
3.71822
3.78416
3.84322
3.89543
3.94091
3.97935
4.01108
4.03615
4.05471
4.06747
4.0729
4.07091
4.06307
4.05004
4.03172
4.00756
3.97645
3.93668
3.88622
3.82319
3.74645
3.65626
3.5347
3.35983
3.13397
2.66272
75.4078
678.67
678.67
75.4078
2.66272
3.27195
3.45634
3.56894
3.64972
3.72136
3.78678
3.84548
3.89748
3.94256
3.98063
4.01189
4.03641
4.05464
4.067
4.07241
4.07102
4.06403
4.05182
4.03429
4.01086
3.98031
3.94076
3.88996
3.82583
3.74725
3.65537
3.53462
3.37903
3.20603
2.66272
75.4078
678.67
678.67
75.4078
2.66272
3.23943
3.4498
3.56903
3.651
3.72276
3.78819
3.84695
3.89914
3.94419
3.98219
4.01316
4.03712
4.05499
4.06695
4.07306
4.07292
4.06682
4.05561
4.03918
4.0169
3.98745
3.94875
3.8982
3.83315
3.75151
3.65313
3.51932
3.335
3.17518
2.66272
75.4078
678.67
678.67
75.4078
2.66272
3.27025
3.45719
3.57177
3.65259
3.72376
3.78876
3.84708
3.89878
3.94369
3.98161
4.01313
4.03808
4.05681
4.06936
4.07588
4.07595
4.06981
4.0587
4.04269
4.02102
3.99223
3.95407
3.90378
3.83843
3.7555
3.65385
3.51124
3.30009
2.66272
2.66272
75.4078
678.67
678.67
75.4078
2.66272
3.23663
3.45022
3.57044
3.65239
3.72389
3.78893
3.84719
3.89885
3.94351
3.98165
4.01337
4.03867
4.05785
4.07101
4.07828
4.07918
4.07374
4.06356
4.04878
4.02857
4.00139
3.96493
3.91633
3.85277
3.77224
3.67562
3.54958
3.40808
3.43393
2.66272
75.4078
678.67
678.67
75.4078
2.66272
3.26837
3.45581
3.5714
3.6533
3.72488
3.78977
3.84773
3.89901
3.94403
3.98203
4.01317
4.03824
4.05727
4.07039
4.07776
4.07907
4.07441
4.06542
4.0518
4.03273
4.00668
3.97128
3.92373
3.86126
3.78201
3.68659
3.55805
3.39068
3.2387
2.66272
75.4078
678.67
678.67
75.4078
2.66272
3.24159
3.45233
3.57169
3.65445
3.72591
3.79052
3.84819
3.89913
3.94374
3.9816
4.01302
4.03818
4.05725
4.07043
4.07809
4.08021
4.07746
4.0701
4.05809
4.04071
4.01638
3.98267
3.93671
3.87568
3.79765
3.70319
3.57564
3.40915
3.25755
2.66272
75.4078
678.67
678.67
75.4078
3.16386
3.31183
3.4727
3.58028
3.65973
3.72992
3.79386
3.8512
3.90189
3.94594
3.98351
4.01483
4.04005
4.05931
4.07281
4.08092
4.08353
4.08079
4.07349
4.06185
4.04503
4.02133
3.98824
3.9428
3.88213
3.80433
3.70967
3.58189
3.42078
3.28703
2.66272
75.4078
678.67
678.67
75.4078
2.66272
3.2749
3.46499
3.58087
3.66258
3.73293
3.79672
3.85396
3.90466
3.94852
3.98583
4.01713
4.04242
4.06177
4.07554
4.08418
4.08734
4.085
4.07856
4.068
4.05224
4.02949
3.99706
3.95176
3.89047
3.8112
3.71441
3.58364
3.42037
3.28728
2.66272
75.4078
678.67
678.67
75.4078
2.66272
3.2612
3.4615
3.58033
3.66275
3.73329
3.79684
3.85354
3.90379
3.94722
3.98458
4.01588
4.04117
4.0607
4.07461
4.08328
4.08698
4.08599
4.08077
4.07122
4.05643
4.0345
4.0027
3.95783
3.89692
3.81826
3.72217
3.59299
3.4403
3.33732
3.18873
75.4078
678.67
678.67
75.4078
2.66272
3.27712
3.46957
3.58554
3.66623
3.73561
3.7984
3.85439
3.90384
3.94727
3.98442
4.01561
4.04117
4.06073
4.07472
4.0836
4.08843
4.08929
4.086
4.07813
4.06493
4.04455
4.01393
3.96954
3.90775
3.82562
3.72136
3.5711
3.36053
3.18799
3.14349
75.4078
678.67
678.67
75.4078
2.66272
3.28457
3.47606
3.59125
3.6705
3.73906
3.80112
3.85643
3.90519
3.94776
3.98449
4.01564
4.04075
4.06046
4.07499
4.08471
4.09011
4.09173
4.08939
4.08231
4.0698
4.04991
4.01949
3.97498
3.9129
3.83102
3.72879
3.59441
3.47026
3.58648
3.24993
75.4078
678.67
678.67
75.4078
2.66272
3.28787
3.47652
3.59254
3.6725
3.74083
3.80271
3.85787
3.90649
3.94895
3.98554
4.01649
4.04193
4.06206
4.07709
4.08743
4.09359
4.09615
4.09497
4.08956
4.07886
4.06036
4.0311
3.98728
3.92479
3.84016
3.72936
3.56835
3.34912
3.18837
3.13515
75.4078
678.67
678.67
75.4078
2.66272
3.26073
3.4725
3.59274
3.67356
3.74219
3.80411
3.85922
3.90776
3.95015
3.9867
4.01767
4.04324
4.06357
4.07891
4.08968
4.0964
4.09963
4.09965
4.09573
4.08606
4.06877
4.04075
3.99804
3.93647
3.85243
3.74153
3.57964
3.35763
3.18398
3.14231
75.4078
678.67
678.67
75.4078
2.66272
3.27651
3.47679
3.5938
3.67414
3.74321
3.8054
3.86061
3.90918
3.95157
3.98816
4.01925
4.04504
4.06569
4.0815
4.09292
4.10051
4.10484
4.10626
4.10401
4.09644
4.08143
4.0552
4.01391
3.9533
3.86978
3.7589
3.59601
3.37048
3.19262
3.13874
75.4078
678.67
678.67
75.4078
2.66272
3.30142
3.48222
3.59581
3.67595
3.74497
3.80708
3.86218
3.91064
3.95297
3.98956
4.02071
4.04663
4.06752
4.08367
4.09557
4.10381
4.10896
4.11139
4.11044
4.10435
4.0904
4.0653
4.02488
3.9647
3.88101
3.76849
3.60254
3.37593
3.20815
3.18203
75.4078
678.67
678.67
75.4078
2.66272
3.27173
3.47726
3.59897
3.68146
3.75043
3.8119
3.86601
3.91356
3.95532
3.99163
4.02271
4.04874
4.06991
4.08654
4.09914
4.10831
4.11464
4.11841
4.11931
4.11552
4.10389
4.08107
4.04277
3.98428
3.90142
3.78734
3.61334
3.35702
2.66272
2.66272
75.4078
678.67
678.67
75.4078
3.13242
3.32546
3.49381
3.6068
3.68684
3.755
3.81591
3.86986
3.91762
3.95937
3.99542
4.02596
4.05149
4.07247
4.08923
4.10227
4.11216
4.11946
4.12442
4.12665
4.12417
4.11369
4.09167
4.05353
3.9943
3.90964
3.79252
3.61554
3.37002
3.14884
2.66272
75.4078
678.67
678.67
75.4078
2.66272
3.26601
3.47426
3.59787
3.68162
3.7518
3.81448
3.87037
3.91886
3.96094
3.99731
4.02792
4.05359
4.07491
4.09225
4.10612
4.11712
4.12584
4.13251
4.13671
4.13629
4.12792
4.10787
4.07152
4.01407
3.93213
3.82187
3.66916
3.5145
3.59468
3.22022
75.4078
678.67
678.67
75.4078
3.13848
3.33019
3.49298
3.60314
3.68301
3.75196
3.81445
3.86963
3.91801
3.96045
3.99715
4.02816
4.05452
4.07657
4.09471
4.10951
4.12164
4.13168
4.13988
4.14573
4.14772
4.14241
4.12481
4.09035
4.03458
3.95427
3.8444
3.68525
3.50298
3.38366
3.21915
75.4078
678.67
678.67
75.4078
2.66272
3.27184
3.48306
3.60358
3.6849
3.75333
3.81483
3.86959
3.91817
3.9605
3.99706
4.02873
4.05582
4.07867
4.0977
4.11358
4.12706
4.13878
4.14902
4.15727
4.16194
4.15943
4.14464
4.11245
4.05742
3.97476
3.85662
3.6753
3.42697
3.22826
3.15924
75.4078
678.67
678.67
75.4078
2.66272
3.29489
3.48935
3.60825
3.68897
3.7566
3.81754
3.87181
3.91976
3.96188
3.99868
4.0306
4.05796
4.08118
4.10078
4.11748
4.13205
4.14515
4.15704
4.16717
4.1739
4.17342
4.16057
4.13015
4.07646
3.99431
3.8743
3.6877
3.43162
3.21834
3.13163
75.4078
678.67
678.67
75.4078
2.66272
3.30804
3.49857
3.61308
3.69224
3.75947
3.82057
3.87538
3.92369
3.96578
4.00226
4.03362
4.06069
4.08409
4.10427
4.12189
4.13772
4.15244
4.16625
4.17855
4.18756
4.1892
4.17819
4.14909
4.09605
4.01386
3.89296
3.70486
3.45093
3.23932
3.1476
75.4078
678.67
678.67
75.4078
2.66272
3.29927
3.50033
3.61794
3.69685
3.76319
3.82379
3.87858
3.92657
3.96846
4.00481
4.03584
4.06298
4.08675
4.10757
4.12612
4.14316
4.15936
4.17495
4.18922
4.20027
4.20438
4.19572
4.16768
4.11554
4.03375
3.91234
3.72285
3.46769
3.26636
3.1984
75.4078
678.67
678.67
75.4078
2.66272
3.28856
3.49438
3.61668
3.69737
3.76379
3.824
3.87817
3.92579
3.9679
4.00445
4.03625
4.06434
4.089
4.11081
4.13055
4.14906
4.16708
4.18483
4.20158
4.21528
4.22236
4.21659
4.1907
4.13879
4.05544
3.92937
3.72851
3.45105
3.21246
2.66272
75.4078
678.67
678.67
75.4078
2.66272
3.31172
3.50344
3.62056
3.69975
3.76531
3.82488
3.87831
3.926
3.96773
4.0048
4.03757
4.06644
4.09191
4.11461
4.13538
4.15519
4.17476
4.19425
4.21282
4.2283
4.23704
4.23295
4.20854
4.15738
4.07374
3.94562
3.74
3.45145
3.18941
2.66272
75.4078
678.67
678.67
75.4078
2.66272
3.32119
3.51206
3.62677
3.70421
3.76849
3.82728
3.88016
3.92735
3.96929
4.00651
4.03952
4.06879
4.09485
4.11833
4.14013
4.16125
4.18245
4.20389
4.22466
4.24247
4.25353
4.25147
4.22868
4.17853
4.09515
3.96647
3.76027
3.4734
3.21211
2.66272
75.4078
678.67
678.67
75.4078
2.66272
3.31945
3.5149
3.63229
3.70945
3.7729
3.83095
3.88325
3.93001
3.97169
4.00883
4.04194
4.07144
4.09789
4.12196
4.14458
4.16675
4.18919
4.21196
4.23415
4.25334
4.26558
4.26428
4.24167
4.19105
4.10643
3.97591
3.76902
3.48244
3.21159
2.66272
75.4078
678.67
678.67
75.4078
2.66272
3.30454
3.50979
3.63324
3.71248
3.77606
3.83389
3.88589
3.9324
3.97392
4.01101
4.04418
4.07393
4.10081
4.12554
4.14902
4.17225
4.19602
4.22038
4.2443
4.26533
4.27943
4.27984
4.25879
4.20952
4.12623
3.99733
3.79444
3.51862
3.26626
3.12713
75.4078
678.67
678.67
75.4078
2.66272
3.36223
3.53349
3.64505
3.7203
3.78178
3.83839
3.88961
3.9356
3.97681
4.01377
4.04697
4.07688
4.10407
4.12931
4.15352
4.17766
4.20245
4.22801
4.2533
4.27577
4.29127
4.29273
4.27213
4.22233
4.13678
4.00249
3.79114
3.50943
3.24652
2.66272
75.4078
678.67
678.67
75.4078
2.66272
3.35148
3.53862
3.65212
3.72689
3.78734
3.84307
3.89361
3.93911
3.98001
4.0168
4.05001
4.08012
4.1077
4.13353
4.1586
4.18387
4.21008
4.2373
4.26438
4.28869
4.30601
4.3092
4.29038
4.24232
4.15844
4.02669
3.82017
3.54367
3.27975
2.66272
75.4078
678.67
678.67
75.4078
2.66272
3.35572
3.54281
3.65803
3.73279
3.79264
3.84772
3.89766
3.94269
3.98323
4.01978
4.05291
4.08305
4.11077
4.13691
4.16244
4.18831
4.21526
4.24329
4.27122
4.29636
4.31445
4.31829
4.30002
4.25241
4.16884
4.03637
3.82892
3.55769
3.30399
3.15323
75.4078
678.67
678.67
75.4078
2.66272
3.36661
3.55004
3.66517
3.73937
3.79835
3.85267
3.90198
3.94654
3.9868
4.02324
4.05637
4.08669
4.11479
4.14146
4.16768
4.19451
4.22263
4.25195
4.28126
4.30776
4.32706
4.33182
4.31418
4.26687
4.18335
4.05078
3.84391
3.57531
3.32537
3.17516
75.4078
678.67
678.67
75.4078
3.19102
3.40312
3.56778
3.67638
3.7475
3.80474
3.85789
3.90642
3.95043
3.99035
4.02665
4.05979
4.09031
4.1188
4.14602
4.17299
4.20083
4.2302
4.26098
4.2919
4.32005
4.34092
4.3469
4.32999
4.28263
4.19787
4.06148
3.84504
3.55609
3.24339
2.66272
75.4078
678.67
678.67
75.4078
2.66272
3.37169
3.56399
3.68178
3.754
3.81067
3.86311
3.91108
3.95464
3.99428
4.03052
4.06382
4.09465
4.1236
4.15147
4.17935
4.20832
4.23904
4.27133
4.30383
4.3335
4.3557
4.36266
4.34637
4.29927
4.21461
4.07872
3.86345
3.57241
3.2478
2.66272
75.4078
678.67
678.67
75.4078
3.21077
3.39921
3.56931
3.68679
3.75979
3.81626
3.86821
3.91566
3.95874
3.99801
4.03402
4.06724
4.09812
4.12731
4.15563
4.1841
4.21373
4.24518
4.27834
4.31172
4.34221
4.36514
4.37257
4.35642
4.30897
4.22319
4.08421
3.86258
3.56705
3.23671
2.66272
75.4078
678.67
678.67
75.4078
3.21298
3.4193
3.58441
3.6959
3.76685
3.82212
3.87332
3.92024
3.96295
4.00208
4.03812
4.0714
4.10245
4.13202
4.16101
4.19038
4.22112
4.25392
4.28862
4.32366
4.35583
4.38029
4.38892
4.37348
4.32589
4.23865
4.09598
3.86589
3.55927
3.24166
2.66272
75.4078
678.67
678.67
75.4078
3.20144
3.42705
3.59271
3.70405
3.77424
3.82857
3.87892
3.92517
3.96736
4.00611
4.0419
4.07513
4.1063
4.13617
4.16561
4.19562
4.22717
4.26092
4.29662
4.33264
4.36572
4.39092
4.39987
4.38425
4.33584
4.24702
4.10112
3.86577
3.55132
3.22445
2.66272
75.4078
678.67
678.67
75.4078
2.66272
3.40189
3.59197
3.70952
3.78086
3.83496
3.88476
3.93045
3.9722
4.01063
4.04626
4.07952
4.11092
4.14122
4.17133
4.20226
4.235
4.27014
4.30733
4.34494
4.3797
4.40656
4.41705
4.4028
4.35557
4.26789
4.12313
3.88862
3.57756
3.25845
2.66272
75.4078
678.67
678.67
75.4078
2.66272
3.42124
3.60548
3.71809
3.78753
3.84051
3.88953
3.9347
3.97612
4.01433
4.04986
4.08316
4.11476
4.14544
4.17609
4.20772
4.24133
4.27756
4.31602
4.35493
4.39094
4.41902
4.43116
4.41814
4.37022
4.28179
4.13558
3.89922
3.58601
3.26401
2.66272
75.4078
678.67
678.67
75.4078
2.66272
3.41905
3.60926
3.72418
3.79353
3.8459
3.89435
3.93913
3.98035
4.01841
4.05391
4.08737
4.11937
4.15063
4.18206
4.21472
4.24961
4.28726
4.32726
4.3678
4.40541
4.43483
4.44826
4.4362
4.3888
4.3006
4.15431
3.91749
3.60572
3.28447
2.66272
75.4078
678.67
678.67
75.4078
3.25876
3.44049
3.61718
3.73117
3.79979
3.85125
3.89886
3.94304
3.98387
4.0217
4.05711
4.0906
4.12277
4.15434
4.18624
4.2195
4.25511
4.29361
4.33453
4.37595
4.41434
4.4444
4.45891
4.44803
4.4018
4.31505
4.17113
3.93786
3.62824
3.30675
2.66272
75.4078
678.67
678.67
75.4078
3.27394
3.45733
3.6259
3.73805
3.80599
3.8568
3.90382
3.94755
3.98811
4.02577
4.06114
4.09477
4.12725
4.15935
4.19199
4.22623
4.26306
4.30298
4.34546
4.38849
4.42841
4.45979
4.47554
4.46546
4.41942
4.332
4.1858
3.94859
3.64181
3.33404
2.66272
75.4078
678.67
678.67
75.4078
3.21477
3.44231
3.62711
3.74398
3.81248
3.86289
3.90929
3.95241
3.9925
4.0298
4.06498
4.09856
4.13114
4.16351
4.19663
4.23155
4.26921
4.31007
4.35353
4.39747
4.43811
4.46984
4.48527
4.47409
4.42582
4.33489
4.18264
3.93553
3.61984
3.30525
2.66272
75.4078
678.67
678.67
75.4078
3.26478
3.46077
3.63478
3.74947
3.8178
3.86791
3.91375
3.9564
3.99624
4.03343
4.06863
4.1024
4.13535
4.16831
4.20225
4.23824
4.27723
4.31965
4.36491
4.41084
4.45344
4.48701
4.50435
4.49494
4.44847