/*--------------------------------*- C++ -*----------------------------------*\
  =========                 |
  \\      /  F ield         | OpenFOAM: The Open Source CFD Toolbox
   \\    /   O peration     | Website:  https://openfoam.org
    \\  /    A nd           | Version:  13
     \\/     M anipulation  |
\*---------------------------------------------------------------------------*/
FoamFile
{
    format      ascii;
    class       surfaceScalarField;
    location    "2";
    object      phi;
}
// * * * * * * * * * * * * * * * * * * * * * * * * * * * * * * * * * * * * * //

dimensions      [0 3 -1 0 0 0 0];

internalField   nonuniform List<scalar> 
228225
(
-1.37601e-05
-3.53584e-06
-6.19111e-07
-8.98566e-06
-4.10933e-06
-6.76414e-07
-5.63188e-06
-2.82882e-06
-5.41247e-07
-3.54652e-06
-1.6662e-06
-4.38566e-07
-2.36251e-06
-8.92053e-07
-3.14669e-07
-1.66641e-06
-4.73083e-07
-2.48548e-07
-1.09651e-06
-3.34068e-07
-2.59287e-07
-4.8893e-07
-2.99463e-07
-3.28203e-07
7.91319e-08
-2.62845e-07
-3.23745e-07
6.16671e-07
-2.50211e-07
-3.03926e-07
1.15608e-06
-2.62957e-07
-2.90523e-07
1.69876e-06
-2.67252e-07
-2.87105e-07
2.20908e-06
-2.61491e-07
-2.58098e-07
2.66448e-06
-2.42342e-07
-2.20095e-07
3.08057e-06
-2.30535e-07
-1.90513e-07
3.48458e-06
-2.32965e-07
-1.74184e-07
3.89272e-06
-2.45866e-07
-1.63814e-07
4.2833e-06
-2.53418e-07
-1.37403e-07
4.65083e-06
-2.55185e-07
-1.11505e-07
5.01131e-06
-2.58237e-07
-1.00561e-07
5.36431e-06
-2.66199e-07
-8.44935e-08
5.71537e-06
-2.77738e-07
-7.06731e-08
6.06172e-06
-2.88054e-07
-5.54681e-08
6.3994e-06
-2.95715e-07
-3.91084e-08
6.73205e-06
-3.04844e-07
-2.4989e-08
7.06245e-06
-3.14835e-07
-1.28523e-08
7.38688e-06
-3.20892e-07
-9.41272e-10
7.69582e-06
-3.17053e-07
1.06512e-08
7.95511e-06
-2.83506e-07
2.6869e-08
8.11835e-06
-2.03329e-07
4.26553e-08
8.06325e-06
-2.83111e-09
5.98825e-08
7.59539e-06
3.88294e-07
8.14341e-08
6.22124e-06
1.29121e-06
8.70104e-08
3.28146e-06
2.88382e-06
6.09928e-08
3.30909e-06
-2.74996e-08
2.49383e-09
-3.26892e-06
-2.80717e-07
2.49719e-07
-4.03418e-06
-3.36505e-07
5.63843e-07
-2.85734e-06
-3.0021e-07
8.48127e-07
-1.70446e-06
-2.61688e-07
1.06458e-06
-9.17194e-07
-2.04763e-07
1.23819e-06
-5.16193e-07
-1.40051e-07
1.35018e-06
-3.56334e-07
-9.69883e-08
1.41983e-06
-3.01333e-07
-7.41459e-08
1.49292e-06
-2.81108e-07
-6.04946e-08
1.56159e-06
-2.7337e-07
-5.05757e-08
1.61151e-06
-2.74413e-07
-4.30999e-08
1.65424e-06
-2.77758e-07
-3.64291e-08
1.69918e-06
-2.80241e-07
-2.98333e-08
1.75917e-06
-2.81883e-07
-2.35349e-08
1.82814e-06
-2.84177e-07
-1.79258e-08
1.89375e-06
-2.87856e-07
-1.28926e-08
1.94766e-06
-2.93242e-07
-8.33049e-09
1.99648e-06
-2.99631e-07
-4.11169e-09
2.04679e-06
-3.06548e-07
-1.82264e-10
2.09824e-06
-3.14134e-07
3.42193e-09
2.14697e-06
-3.22605e-07
6.83058e-09
2.19059e-06
-3.32211e-07
1.01689e-08
2.23144e-06
-3.42958e-07
1.35007e-08
2.27272e-06
-3.54402e-07
1.70078e-08
2.31328e-06
-3.66499e-07
2.0843e-08
2.35127e-06
-3.78234e-07
2.53277e-08
2.38616e-06
-3.86559e-07
3.09104e-08
2.41372e-06
-3.82538e-07
3.83036e-08
2.44243e-06
-3.58947e-07
4.73392e-08
2.47104e-06
-2.88734e-07
5.76474e-08
2.51461e-06
-1.12536e-07
6.76803e-08
2.47814e-06
3.53434e-07
7.43786e-08
1.96893e-06
1.72892e-06
7.67332e-08
8.47224e-07
3.93433e-06
7.69222e-08
4.16731e-06
-1.09256e-08
1.07572e-07
-3.17544e-06
-2.25186e-07
5.46292e-08
-3.7416e-06
-2.64409e-07
3.82755e-08
-2.63335e-06
-2.30546e-07
-1.91768e-08
-1.50723e-06
-1.56801e-07
-4.8729e-08
-8.02882e-07
-9.49573e-08
1.37849e-08
-5.22829e-07
-6.24495e-08
1.26763e-07
-4.25925e-07
-4.84427e-08
2.53649e-07
-3.91287e-07
-4.10307e-08
3.77701e-07
-3.73346e-07
-3.51123e-08
4.9409e-07
-3.62487e-07
-2.99372e-08
5.98744e-07
-3.55987e-07
-2.51889e-08
6.91968e-07
-3.51923e-07
-2.06831e-08
7.75859e-07
-3.48915e-07
-1.64091e-08
8.53153e-07
-3.47669e-07
-1.23467e-08
9.25022e-07
-3.48113e-07
-8.48494e-09
9.91065e-07
-3.49422e-07
-4.81943e-09
1.05079e-06
-3.51816e-07
-1.34017e-09
1.1042e-06
-3.55115e-07
1.97021e-09
1.15185e-06
-3.59405e-07
5.13358e-09
1.19423e-06
-3.64763e-07
8.17765e-09
1.23156e-06
-3.71181e-07
1.11274e-08
1.26393e-06
-3.78766e-07
1.40033e-08
1.29097e-06
-3.87068e-07
1.68203e-08
1.31317e-06
-3.96551e-07
1.96282e-08
1.33049e-06
-4.06709e-07
2.25207e-08
1.3426e-06
-4.16471e-07
2.57427e-08
1.34812e-06
-4.22197e-07
2.97919e-08
1.3477e-06
-4.17879e-07
3.55746e-08
1.33773e-06
-3.92945e-07
4.40019e-08
1.31861e-06
-3.24924e-07
5.57059e-08
1.28573e-06
-1.48372e-07
6.98719e-08
1.15189e-06
4.05292e-07
8.41607e-08
8.1978e-07
1.96607e-06
9.80189e-08
3.5396e-07
4.3057e-06
9.78309e-08
4.51043e-06
1.08357e-08
4.31844e-08
-3.05528e-06
-1.68191e-07
7.44456e-08
-3.58594e-06
-1.90429e-07
1.38036e-07
-2.53467e-06
-1.64244e-07
2.20272e-07
-1.4737e-06
-1.16467e-07
3.10186e-07
-8.21308e-07
-7.15971e-08
3.94992e-07
-5.59668e-07
-4.78994e-08
4.73212e-07
-4.66528e-07
-3.74434e-08
5.45193e-07
-4.31109e-07
-3.18984e-08
6.12732e-07
-4.12805e-07
-2.7759e-08
6.75888e-07
-4.01093e-07
-2.42068e-08
7.34514e-07
-3.93306e-07
-2.09752e-08
7.89012e-07
-3.88266e-07
-1.78808e-08
8.39085e-07
-3.84076e-07
-1.47307e-08
8.8495e-07
-3.81773e-07
-1.1702e-08
9.26796e-07
-3.81303e-07
-8.74526e-09
9.64198e-07
-3.8131e-07
-5.77867e-09
9.97203e-07
-3.82408e-07
-2.86791e-09
1.02597e-06
-3.84535e-07
-1.05523e-11
1.05063e-06
-3.8773e-07
2.79889e-09
1.07117e-06
-3.91969e-07
5.57461e-09
1.08762e-06
-3.97263e-07
8.33393e-09
1.09991e-06
-4.03607e-07
1.10679e-08
1.1075e-06
-4.10074e-07
1.37972e-08
1.11089e-06
-4.18157e-07
1.64738e-08
1.11011e-06
-4.26904e-07
1.9183e-08
1.10446e-06
-4.34672e-07
2.21191e-08
1.09252e-06
-4.37554e-07
2.57537e-08
1.07428e-06
-4.31589e-07
3.07338e-08
1.0465e-06
-4.04066e-07
3.81359e-08
1.00673e-06
-3.34137e-07
4.8691e-08
9.4887e-07
-1.521e-07
6.18665e-08
8.14286e-07
4.63234e-07
7.75746e-08
5.12402e-07
2.17032e-06
9.85982e-08
1.11788e-07
4.60898e-06
9.84258e-08
4.60418e-06
1.80116e-08
6.37104e-08
-2.97962e-06
-1.34284e-07
1.62269e-07
-3.52606e-06
-1.52104e-07
2.49831e-07
-2.4793e-06
-1.36212e-07
3.04151e-07
-1.42575e-06
-9.69268e-08
3.69491e-07
-8.20795e-07
-6.22919e-08
4.2841e-07
-5.7311e-07
-4.29131e-08
4.8097e-07
-4.83206e-07
-3.36621e-08
5.29102e-07
-4.48741e-07
-2.84772e-08
5.74009e-07
-4.31148e-07
-2.47379e-08
6.16356e-07
-4.20138e-07
-2.16886e-08
6.5583e-07
-4.12458e-07
-1.89479e-08
6.92113e-07
-4.071e-07
-1.63525e-08
7.25763e-07
-4.03204e-07
-1.37311e-08
7.56424e-07
-4.00806e-07
-1.11581e-08
7.8325e-07
-3.99392e-07
-8.6074e-09
8.06725e-07
-3.98992e-07
-6.02284e-09
8.2709e-07
-3.99912e-07
-3.45573e-09
8.44079e-07
-4.01585e-07
-9.04998e-10
8.57662e-07
-4.04281e-07
1.63752e-09
8.67815e-07
-4.07994e-07
4.18382e-09
8.74554e-07
-4.12762e-07
6.73648e-09
8.77799e-07
-4.18454e-07
9.29067e-09
8.77688e-07
-4.24356e-07
1.18505e-08
8.74119e-07
-4.3169e-07
1.4374e-08
8.67373e-07
-4.3991e-07
1.69358e-08
8.57167e-07
-4.46935e-07
1.9716e-08
8.43309e-07
-4.49334e-07
2.31321e-08
8.24443e-07
-4.42621e-07
2.78379e-08
7.97827e-07
-4.13775e-07
3.48444e-08
7.60926e-07
-3.43166e-07
4.48721e-08
7.04699e-07
-1.54427e-07
5.77928e-08
5.74436e-07
5.19695e-07
7.36142e-08
3.21112e-07
2.33094e-06
9.31888e-08
3.95568e-08
4.79766e-06
9.31832e-08
4.61797e-06
2.5656e-08
8.2888e-08
-2.94621e-06
-1.08785e-07
2.01415e-07
-3.52015e-06
-1.1614e-07
2.59264e-07
-2.42072e-06
-1.08315e-07
3.20684e-07
-1.40092e-06
-8.01699e-08
3.73778e-07
-8.15668e-07
-5.41507e-08
4.21922e-07
-5.8009e-07
-3.81973e-08
4.63775e-07
-4.92493e-07
-2.99775e-08
5.01156e-07
-4.58538e-07
-2.521e-08
5.35418e-07
-4.41445e-07
-2.18169e-08
5.67206e-07
-4.30911e-07
-1.91301e-08
5.96665e-07
-4.23572e-07
-1.67632e-08
6.2343e-07
-4.18131e-07
-1.45011e-08
6.47574e-07
-4.14224e-07
-1.22743e-08
6.68741e-07
-4.11505e-07
-1.00398e-08
6.86411e-07
-4.09331e-07
-7.74532e-09
7.01152e-07
-4.08708e-07
-5.50255e-09
7.13018e-07
-4.09451e-07
-3.28243e-09
7.21699e-07
-4.10659e-07
-1.04471e-09
7.27146e-07
-4.12837e-07
1.19034e-09
7.29301e-07
-4.15973e-07
3.43162e-09
7.28052e-07
-4.20038e-07
5.6823e-09
7.23361e-07
-4.24946e-07
7.93681e-09
7.15643e-07
-4.30404e-07
1.01892e-08
7.04152e-07
-4.36452e-07
1.24041e-08
6.88686e-07
-4.43088e-07
1.46323e-08
6.69473e-07
-4.48784e-07
1.70725e-08
6.46398e-07
-4.5008e-07
2.00884e-08
6.18411e-07
-4.42116e-07
2.43016e-08
5.82939e-07
-4.11443e-07
3.0648e-08
5.36417e-07
-3.38821e-07
3.98931e-08
4.67631e-07
-1.40904e-07
5.2381e-08
3.28217e-07
5.87011e-07
6.86652e-08
1.00477e-07
2.46738e-06
8.73288e-08
3.25495e-08
4.77758e-06
8.46961e-08
4.62258e-06
2.78919e-08
8.38174e-08
-2.92707e-06
-9.60826e-08
1.66711e-07
-3.49454e-06
-1.02006e-07
2.47174e-07
-2.40625e-06
-8.96898e-08
3.12857e-07
-1.39212e-06
-7.03582e-08
3.64337e-07
-8.16552e-07
-4.78994e-08
4.07305e-07
-5.86696e-07
-3.42996e-08
4.4358e-07
-4.99925e-07
-2.69605e-08
4.75255e-07
-4.65857e-07
-2.25733e-08
5.03803e-07
-4.48891e-07
-1.94671e-08
5.29889e-07
-4.38517e-07
-1.70537e-08
5.53647e-07
-4.31224e-07
-1.49533e-08
5.75015e-07
-4.25722e-07
-1.29538e-08
5.93699e-07
-4.21506e-07
-1.09617e-08
6.09492e-07
-4.18332e-07
-8.95136e-09
6.22647e-07
-4.16013e-07
-6.91444e-09
6.33164e-07
-4.15226e-07
-4.92428e-09
6.40834e-07
-4.156e-07
-2.94643e-09
6.45686e-07
-4.16485e-07
-9.55797e-10
6.4771e-07
-4.18319e-07
1.02895e-09
6.46898e-07
-4.21088e-07
3.01394e-09
6.4325e-07
-4.24762e-07
5.0014e-09
6.36827e-07
-4.29286e-07
6.98601e-09
6.27935e-07
-4.34566e-07
8.95663e-09
6.16493e-07
-4.40238e-07
1.09149e-08
6.02268e-07
-4.46157e-07
1.28996e-08
5.85415e-07
-4.51261e-07
1.50634e-08
5.65854e-07
-4.52131e-07
1.77483e-08
5.4263e-07
-4.43565e-07
2.1545e-08
5.13573e-07
-4.11903e-07
2.72861e-08
4.75161e-07
-3.3776e-07
3.56886e-08
4.19173e-07
-1.33738e-07
4.74064e-08
3.17226e-07
6.2436e-07
6.35487e-08
1.72296e-07
2.52813e-06
8.3774e-08
6.39098e-08
4.80003e-06
8.53348e-08
4.65788e-06
2.84362e-08
6.77486e-08
-2.91029e-06
-8.27254e-08
1.22772e-07
-3.46979e-06
-7.83263e-08
2.07135e-07
-2.41091e-06
-7.85721e-08
2.66753e-07
-1.39044e-06
-6.05617e-08
3.17764e-07
-8.2471e-07
-4.22837e-08
3.57775e-07
-5.95636e-07
-3.05158e-08
3.90576e-07
-5.08148e-07
-2.39708e-08
4.18747e-07
-4.73413e-07
-1.99873e-08
4.43805e-07
-4.56208e-07
-1.71734e-08
4.6647e-07
-4.45744e-07
-1.50183e-08
4.86942e-07
-4.38346e-07
-1.31619e-08
5.05184e-07
-4.32689e-07
-1.13997e-08
5.21097e-07
-4.28278e-07
-9.64205e-09
5.34611e-07
-4.24913e-07
-7.86546e-09
5.45809e-07
-4.22545e-07
-6.07035e-09
5.54338e-07
-4.21357e-07
-4.31999e-09
5.60222e-07
-4.21367e-07
-2.58654e-09
5.63779e-07
-4.2222e-07
-8.49736e-10
5.64849e-07
-4.23853e-07
8.74199e-10
5.63448e-07
-4.26422e-07
2.58931e-09
5.59611e-07
-4.29894e-07
4.29502e-09
5.534e-07
-4.34217e-07
5.98247e-09
5.44935e-07
-4.39302e-07
7.63789e-09
5.34553e-07
-4.44979e-07
9.25928e-09
5.22354e-07
-4.5085e-07
1.0891e-08
5.08323e-07
-4.55812e-07
1.26765e-08
4.92425e-07
-4.5663e-07
1.49115e-08
4.7393e-07
-4.4782e-07
1.81209e-08
4.5105e-07
-4.15618e-07
2.29942e-08
4.19875e-07
-3.40167e-07
3.01532e-08
3.71936e-07
-1.3075e-07
4.03571e-08
2.9638e-07
6.40031e-07
5.47397e-08
2.30693e-07
2.51592e-06
7.23699e-08
7.43174e-08
4.87201e-06
7.86961e-08
4.70519e-06
2.6938e-08
5.88884e-08
-2.89982e-06
-7.21723e-08
1.57527e-07
-3.50392e-06
-6.77864e-08
2.06226e-07
-2.39739e-06
-6.54165e-08
2.65637e-07
-1.3994e-06
-5.2832e-08
3.1032e-07
-8.33328e-07
-3.74463e-08
3.44363e-07
-6.03276e-07
-2.72017e-08
3.71836e-07
-5.1474e-07
-2.13901e-08
3.95376e-07
-4.79495e-07
-1.78152e-08
4.16417e-07
-4.62273e-07
-1.52899e-08
4.35598e-07
-4.5193e-07
-1.33764e-08
4.53075e-07
-4.4464e-07
-1.17379e-08
4.68777e-07
-4.39032e-07
-1.01792e-08
4.82558e-07
-4.34607e-07
-8.6166e-09
4.94299e-07
-4.31195e-07
-7.0309e-09
5.03963e-07
-4.28801e-07
-5.43301e-09
5.11226e-07
-4.27302e-07
-3.82907e-09
5.16234e-07
-4.27153e-07
-2.26681e-09
5.19277e-07
-4.28136e-07
-7.21957e-10
5.20212e-07
-4.29749e-07
8.20434e-10
5.19078e-07
-4.32309e-07
2.34817e-09
5.1595e-07
-4.35795e-07
3.85704e-09
5.10947e-07
-4.40162e-07
5.33528e-09
5.0424e-07
-4.45323e-07
6.76777e-09
4.96045e-07
-4.51115e-07
8.15148e-09
4.8661e-07
-4.57151e-07
9.52685e-09
4.76179e-07
-4.62377e-07
1.10237e-08
4.64953e-07
-4.63679e-07
1.29024e-08
4.52509e-07
-4.55326e-07
1.56248e-08
4.37569e-07
-4.23534e-07
1.97557e-08
4.17682e-07
-3.48578e-07
2.58342e-08
3.8691e-07
-1.37059e-07
3.46472e-08
3.26717e-07
6.50862e-07
4.75086e-08
2.41635e-07
2.53658e-06
6.34052e-08
8.83523e-08
4.95544e-06
6.85072e-08
4.7686e-06
2.47718e-08
5.69964e-08
-2.89807e-06
-6.55183e-08
1.00598e-07
-3.49555e-06
-5.94765e-08
1.60832e-07
-2.40823e-06
-5.5876e-08
2.18747e-07
-1.41579e-06
-4.63879e-08
2.61218e-07
-8.45628e-07
-3.31517e-08
2.92718e-07
-6.12643e-07
-2.40694e-08
3.17716e-07
-5.22336e-07
-1.88776e-08
3.38936e-07
-4.86271e-07
-1.56786e-08
3.57759e-07
-4.68808e-07
-1.34186e-08
3.74808e-07
-4.58414e-07
-1.17224e-08
3.90248e-07
-4.51107e-07
-1.02807e-08
4.04024e-07
-4.45462e-07
-8.91271e-09
4.1601e-07
-4.40968e-07
-7.54156e-09
4.26073e-07
-4.37455e-07
-6.14959e-09
4.34111e-07
-4.3492e-07
-4.74396e-09
4.40068e-07
-4.33282e-07
-3.32979e-09
4.43942e-07
-4.33014e-07
-1.95101e-09
4.45774e-07
-4.33926e-07
-5.93204e-10
4.45611e-07
-4.35506e-07
7.54818e-10
4.43473e-07
-4.38025e-07
2.08182e-09
4.39421e-07
-4.41478e-07
3.3823e-09
4.33553e-07
-4.45814e-07
4.64439e-09
4.26015e-07
-4.50942e-07
5.85475e-09
4.16992e-07
-4.56696e-07
7.01379e-09
4.06703e-07
-4.62701e-07
8.16353e-09
3.95359e-07
-4.67933e-07
9.42597e-09
3.83176e-07
-4.69385e-07
1.10345e-08
3.69885e-07
-4.61127e-07
1.34064e-08
3.54346e-07
-4.29383e-07
1.70273e-08
3.33432e-07
-3.54257e-07
2.2457e-08
2.99735e-07
-1.39236e-07
3.07227e-08
2.30516e-07
6.71799e-07
4.32595e-08
1.24163e-07
2.58008e-06
5.77013e-08
5.70452e-08
4.95422e-06
6.27266e-08
4.80082e-06
2.47766e-08
6.28375e-08
-2.91113e-06
-5.86731e-08
8.70959e-08
-3.48276e-06
-4.71279e-08
1.4169e-07
-2.42366e-06
-4.85058e-08
1.92589e-07
-1.43242e-06
-4.12068e-08
2.31042e-07
-8.58661e-07
-2.96933e-08
2.60214e-07
-6.23054e-07
-2.15759e-08
2.83762e-07
-5.31154e-07
-1.69123e-08
3.03972e-07
-4.9429e-07
-1.40386e-08
3.22004e-07
-4.76497e-07
-1.20094e-08
3.38385e-07
-4.65931e-07
-1.0501e-08
3.53244e-07
-4.58487e-07
-9.2249e-09
3.6653e-07
-4.52712e-07
-8.01004e-09
3.78137e-07
-4.48095e-07
-6.78525e-09
3.87964e-07
-4.44464e-07
-5.53606e-09
3.95934e-07
-4.41806e-07
-4.27092e-09
4.01994e-07
-4.40059e-07
-2.99139e-09
4.06111e-07
-4.39676e-07
-1.74168e-09
4.08333e-07
-4.40522e-07
-5.15097e-10
4.08753e-07
-4.42117e-07
6.97581e-10
4.07415e-07
-4.44658e-07
1.88366e-09
4.044e-07
-4.48139e-07
3.03512e-09
3.99837e-07
-4.52516e-07
4.13771e-09
3.93911e-07
-4.57696e-07
5.17671e-09
3.8686e-07
-4.63516e-07
6.15268e-09
3.78955e-07
-4.69607e-07
7.10738e-09
3.70467e-07
-4.74971e-07
8.15637e-09
3.61681e-07
-4.76702e-07
9.5125e-09
3.52462e-07
-4.68713e-07
1.1554e-08
3.41886e-07
-4.37213e-07
1.46804e-08
3.27314e-07
-3.61987e-07
1.93612e-08
3.01935e-07
-1.43247e-07
2.66309e-08
2.43475e-07
6.90508e-07
3.79512e-08
1.31247e-07
2.64048e-06
5.15667e-08
3.36967e-08
4.99495e-06
5.64938e-08
4.81208e-06
2.23901e-08
5.58899e-08
-2.9255e-06
-5.39985e-08
8.74647e-08
-3.49005e-06
-3.72563e-08
1.27607e-07
-2.43571e-06
-4.00334e-08
1.66657e-07
-1.44523e-06
-3.51009e-08
1.96702e-07
-8.68646e-07
-2.55416e-08
2.20045e-07
-6.31466e-07
-1.85738e-08
2.39098e-07
-5.38508e-07
-1.45614e-08
2.55559e-07
-5.01105e-07
-1.20899e-08
2.70362e-07
-4.83169e-07
-1.03371e-08
2.83914e-07
-4.7258e-07
-9.04519e-09
2.96272e-07
-4.65121e-07
-7.95706e-09
3.07339e-07
-4.59318e-07
-6.91756e-09
3.16972e-07
-4.54665e-07
-5.86251e-09
3.25029e-07
-4.50974e-07
-4.78015e-09
3.31362e-07
-4.48196e-07
-3.68091e-09
3.35964e-07
-4.46386e-07
-2.5719e-09
3.38784e-07
-4.45932e-07
-1.48603e-09
3.39837e-07
-4.46735e-07
-4.20304e-10
3.39253e-07
-4.48402e-07
6.26297e-10
3.37057e-07
-4.50997e-07
1.63865e-09
3.33341e-07
-4.54542e-07
2.60523e-09
3.28259e-07
-4.59005e-07
3.50973e-09
3.2204e-07
-4.64303e-07
4.33735e-09
3.14981e-07
-4.70289e-07
5.0901e-09
3.07435e-07
-4.76612e-07
5.80917e-09
2.99755e-07
-4.82291e-07
6.59983e-09
2.92408e-07
-4.84561e-07
7.6499e-09
2.8561e-07
-4.77268e-07
9.2863e-09
2.78757e-07
-4.46589e-07
1.1827e-08
2.69417e-07
-3.72073e-07
1.56842e-08
2.51843e-07
-1.5156e-07
2.19092e-08
2.05838e-07
7.01242e-07
3.20615e-08
1.25359e-07
2.67512e-06
4.43952e-08
1.26278e-08
5.05879e-06
4.78107e-08
4.80423e-06
2.05709e-08
4.38293e-08
-2.93372e-06
-5.20261e-08
7.37227e-08
-3.50532e-06
-2.99597e-08
1.129e-07
-2.45534e-06
-3.35999e-08
1.50311e-07
-1.46266e-06
-3.04067e-08
1.7766e-07
-8.80124e-07
-2.23135e-08
1.98436e-07
-6.40289e-07
-1.62349e-08
2.15314e-07
-5.45995e-07
-1.27548e-08
2.29921e-07
-5.0796e-07
-1.06219e-08
2.43094e-07
-4.89816e-07
-9.10059e-09
2.55193e-07
-4.79157e-07
-7.9875e-09
2.66251e-07
-4.71653e-07
-7.05205e-09
2.76155e-07
-4.658e-07
-6.15187e-09
2.84749e-07
-4.61091e-07
-5.22814e-09
2.91889e-07
-4.5733e-07
-4.27064e-09
2.97431e-07
-4.54436e-07
-3.28991e-09
3.014e-07
-4.52606e-07
-2.2966e-09
3.03653e-07
-4.52033e-07
-1.31807e-09
3.04152e-07
-4.52697e-07
-3.59781e-10
3.03089e-07
-4.54398e-07
5.77714e-10
3.00489e-07
-4.56998e-07
1.47836e-09
2.96447e-07
-4.60547e-07
2.32632e-09
2.91113e-07
-4.65008e-07
3.10389e-09
2.84714e-07
-4.70308e-07
3.79663e-09
2.77543e-07
-4.76312e-07
4.40879e-09
2.6994e-07
-4.82671e-07
4.98348e-09
2.62216e-07
-4.88386e-07
5.62323e-09
2.54785e-07
-4.90814e-07
6.50837e-09
2.47909e-07
-4.83847e-07
7.94909e-09
2.41043e-07
-4.53576e-07
1.02208e-08
2.31577e-07
-3.78689e-07
1.37118e-08
2.12075e-07
-1.52635e-07
1.95787e-08
1.53314e-07
7.31968e-07
2.94626e-08
4.4622e-08
2.74751e-06
4.11287e-08
1.04797e-08
5.05395e-06
4.34893e-08
4.80099e-06
1.3742e-08
2.71942e-08
-2.9328e-06
-4.75201e-08
4.9212e-08
-3.52233e-06
-2.29962e-08
8.04866e-08
-2.47582e-06
-2.72468e-08
1.11163e-07
-1.47992e-06
-2.56351e-08
1.33938e-07
-8.91514e-07
-1.89381e-08
1.51496e-07
-6.49136e-07
-1.37286e-08
1.65877e-07
-5.53541e-07
-1.07912e-08
1.78378e-07
-5.14836e-07
-9.01098e-09
1.89668e-07
-4.96415e-07
-7.72729e-09
2.00029e-07
-4.85618e-07
-6.79609e-09
2.09463e-07
-4.7801e-07
-6.01822e-09
2.17843e-07
-4.72062e-07
-5.26682e-09
2.25019e-07
-4.67268e-07
-4.48925e-09
2.30875e-07
-4.63453e-07
-3.67626e-09
2.35312e-07
-4.60522e-07
-2.83822e-09
2.38188e-07
-4.58577e-07
-1.99726e-09
2.39373e-07
-4.5781e-07
-1.1617e-09
2.38938e-07
-4.58377e-07
-3.47539e-10
2.37003e-07
-4.60089e-07
4.36467e-10
2.33638e-07
-4.62711e-07
1.17802e-09
2.28958e-07
-4.66289e-07
1.85636e-09
2.23138e-07
-4.70788e-07
2.45207e-09
2.16446e-07
-4.76153e-07
2.95285e-09
2.0921e-07
-4.82259e-07
3.36811e-09
2.01788e-07
-4.88736e-07
3.74476e-09
1.94499e-07
-4.94556e-07
4.18287e-09
1.87807e-07
-4.97198e-07
4.85613e-09
1.82148e-07
-4.90639e-07
6.04137e-09
1.77146e-07
-4.60911e-07
7.95049e-09
1.70325e-07
-3.8606e-07
1.09237e-08
1.56257e-07
-1.57296e-07
1.60892e-08
1.22917e-07
7.39214e-07
2.5059e-08
6.86202e-08
2.7663e-06
3.70054e-08
2.70133e-08
5.06026e-06
3.70331e-08
4.82044e-06
7.75079e-09
2.23386e-08
-2.93189e-06
-4.48367e-08
3.78681e-08
-3.54255e-06
-1.53915e-08
6.61429e-08
-2.49886e-06
-2.371e-08
9.17005e-08
-1.49639e-06
-2.28357e-08
1.11152e-07
-9.02617e-07
-1.68371e-08
1.26684e-07
-6.58167e-07
-1.21317e-08
1.39696e-07
-5.61439e-07
-9.54676e-09
1.51193e-07
-5.22112e-07
-8.00625e-09
1.61693e-07
-5.03409e-07
-6.88393e-09
1.71387e-07
-4.92429e-07
-6.0756e-09
1.80221e-07
-4.84649e-07
-5.40303e-09
1.88033e-07
-4.78518e-07
-4.74919e-09
1.94641e-07
-4.73531e-07
-4.06473e-09
1.999e-07
-4.69535e-07
-3.34142e-09
2.03701e-07
-4.66436e-07
-2.58962e-09
2.05814e-07
-4.6417e-07
-1.82524e-09
2.06258e-07
-4.63149e-07
-1.06578e-09
2.05137e-07
-4.63585e-07
-3.30286e-10
2.02381e-07
-4.65079e-07
3.76634e-10
1.98061e-07
-4.67486e-07
1.03813e-09
1.92295e-07
-4.70842e-07
1.6314e-09
1.85267e-07
-4.75114e-07
2.1361e-09
1.77235e-07
-4.80245e-07
2.54111e-09
1.68496e-07
-4.86089e-07
2.85818e-09
1.59365e-07
-4.92245e-07
3.13601e-09
1.50129e-07
-4.97661e-07
3.47525e-09
1.4121e-07
-4.99945e-07
4.0525e-09
1.32975e-07
-4.93162e-07
5.13581e-09
1.25059e-07
-4.63294e-07
6.91888e-09
1.14961e-07
-3.87233e-07
9.74956e-09
9.70306e-08
-1.53107e-07
1.48824e-08
6.51293e-08
7.52041e-07
2.37025e-08
5.01772e-08
2.75652e-06
3.34258e-08
-2.48415e-10
5.08121e-06
3.76242e-08
4.80892e-06
1.13289e-08
1.86655e-08
-2.93151e-06
-4.30415e-08
2.38767e-08
-3.55585e-06
-1.43349e-08
3.95981e-08
-2.51523e-06
-2.00756e-08
5.91371e-08
-1.51152e-06
-1.98351e-08
7.46379e-08
-9.13207e-07
-1.44052e-08
8.72276e-08
-6.66839e-07
-1.02151e-08
9.79156e-08
-5.69083e-07
-8.02021e-09
1.07489e-07
-5.2921e-07
-6.75016e-09
1.16341e-07
-5.10284e-07
-5.81101e-09
1.24597e-07
-4.99179e-07
-5.14433e-09
1.32179e-07
-4.91292e-07
-4.59706e-09
1.38916e-07
-4.85053e-07
-4.0643e-09
1.44618e-07
-4.79955e-07
-3.50102e-09
1.49122e-07
-4.75851e-07
-2.89951e-09
1.52291e-07
-4.7264e-07
-2.26955e-09
1.54025e-07
-4.70254e-07
-1.6264e-09
1.54354e-07
-4.69198e-07
-9.9127e-10
1.53289e-07
-4.69632e-07
-3.8333e-10
1.50803e-07
-4.71082e-07
1.88937e-10
1.46987e-07
-4.73465e-07
7.03298e-10
1.41991e-07
-4.76817e-07
1.13493e-09
1.36064e-07
-4.81131e-07
1.46239e-09
1.2954e-07
-4.8636e-07
1.67443e-09
1.22793e-07
-4.92332e-07
1.78175e-09
1.16228e-07
-4.98612e-07
1.82996e-09
1.1025e-07
-5.04148e-07
1.91096e-09
1.05439e-07
-5.06647e-07
2.18315e-09
1.02485e-07
-5.00295e-07
2.85814e-09
1.01411e-07
-4.71152e-07
4.03114e-09
1.0049e-07
-3.95864e-07
5.91723e-09
9.5874e-08
-1.60901e-07
9.59732e-09
7.2611e-08
7.57945e-07
1.66604e-08
3.8972e-08
2.76626e-06
2.59839e-08
1.84318e-08
5.07595e-06
2.79922e-08
4.81792e-06
9.59422e-09
1.02898e-08
-2.92674e-06
-4.08344e-08
5.22461e-09
-3.56153e-06
-1.32985e-08
2.10186e-08
-2.53777e-06
-1.55196e-08
4.14175e-08
-1.53198e-06
-1.66634e-08
5.66833e-08
-9.26543e-07
-1.23115e-08
6.88818e-08
-6.77209e-07
-8.7272e-09
7.93537e-08
-5.78102e-07
-6.90982e-09
8.88786e-08
-5.37529e-07
-5.8879e-09
9.77589e-08
-5.18239e-07
-5.11074e-09
1.06088e-07
-5.06891e-07
-4.56329e-09
1.13774e-07
-4.988e-07
-4.11535e-09
1.20641e-07
-4.92369e-07
-3.67208e-09
1.26497e-07
-4.8709e-07
-3.19158e-09
1.31175e-07
-4.82812e-07
-2.6662e-09
1.3453e-07
-4.79428e-07
-2.10538e-09
1.36446e-07
-4.76853e-07
-1.52475e-09
1.3693e-07
-4.75674e-07
-9.47531e-10
1.35985e-07
-4.76005e-07
-3.94903e-10
1.33585e-07
-4.77308e-07
1.21272e-10
1.29832e-07
-4.7956e-07
5.74422e-10
1.24906e-07
-4.82814e-07
9.37443e-10
1.1908e-07
-4.8708e-07
1.18829e-09
1.12693e-07
-4.92291e-07
1.31648e-09
1.06118e-07
-4.98243e-07
1.33318e-09
9.97921e-08
-5.04494e-07
1.28381e-09
9.41924e-08
-5.10027e-07
1.25941e-09
8.98038e-08
-5.1249e-07
1.41587e-09
8.73044e-08
-5.06291e-07
1.94599e-09
8.69647e-08
-4.77712e-07
2.90219e-09
8.71478e-08
-4.02473e-07
4.45754e-09
8.37129e-08
-1.64472e-07
7.62413e-09
6.73931e-08
7.64902e-07
1.33367e-08
4.90916e-08
2.77305e-06
1.92098e-08
2.94225e-08
5.08019e-06
2.32167e-08
4.8385e-06
8.90401e-09
-5.06141e-09
-2.91182e-06
-3.46786e-08
-2.36556e-09
-3.58743e-06
-2.55031e-09
9.77018e-09
-2.56227e-06
-1.22156e-08
2.22236e-08
-1.54915e-06
-1.38542e-08
3.16944e-08
-9.37423e-07
-1.00926e-08
3.98721e-08
-6.86038e-07
-6.98738e-09
4.72053e-08
-5.85951e-07
-5.54161e-09
5.41124e-08
-5.44877e-07
-4.7793e-09
6.07627e-08
-5.25402e-07
-4.17427e-09
6.7166e-08
-5.13972e-07
-3.75638e-09
7.31773e-08
-5.0582e-07
-3.42007e-09
7.85852e-08
-4.9933e-07
-3.08202e-09
8.31707e-08
-4.93993e-07
-2.70431e-09
8.67421e-08
-4.89658e-07
-2.27957e-09
8.91339e-08
-4.86209e-07
-1.81632e-09
9.02052e-08
-4.83547e-07
-1.32921e-09
8.99423e-08
-4.82339e-07
-8.44441e-10
8.83594e-08
-4.82681e-07
-3.8403e-10
8.54589e-08
-4.83981e-07
3.7632e-11
8.13603e-08
-4.86271e-07
3.90385e-10
7.62635e-08
-4.89616e-07
6.4703e-10
7.04442e-08
-4.9402e-07
7.84699e-10
6.42339e-08
-4.99388e-07
7.92241e-10
5.80161e-08
-5.05492e-07
6.83837e-10
5.22641e-08
-5.11913e-07
5.13005e-10
4.74898e-08
-5.17674e-07
3.77966e-10
4.42818e-08
-5.20362e-07
4.13837e-10
4.35688e-08
-5.14652e-07
7.89196e-10
4.57358e-08
-4.87044e-07
1.51819e-09
4.91659e-08
-4.12905e-07
2.79038e-09
5.10145e-08
-1.75538e-07
5.84068e-09
4.12257e-08
7.60847e-07
1.26028e-08
1.48882e-09
2.79235e-06
2.23966e-08
-1.41146e-08
5.0773e-06
2.06337e-08
4.82248e-06
2.03285e-09
9.06418e-09
-2.91351e-06
-3.26609e-08
3.49927e-09
-3.59879e-06
-1.14478e-08
2.16312e-10
-2.5736e-06
-1.1737e-08
1.20873e-08
-1.56868e-06
-1.24022e-08
2.15171e-08
-9.50513e-07
-8.80033e-09
2.93529e-08
-6.96189e-07
-5.96703e-09
3.64019e-08
-5.94807e-07
-4.7662e-09
4.3141e-08
-5.53093e-07
-4.18377e-09
4.96664e-08
-5.33296e-07
-3.69867e-09
5.59608e-08
-5.21665e-07
-3.3708e-09
6.18715e-08
-5.13354e-07
-3.11146e-09
6.71784e-08
-5.06715e-07
-2.84453e-09
7.16534e-08
-5.01232e-07
-2.53405e-09
7.51029e-08
-4.96761e-07
-2.17254e-09
7.73705e-08
-4.93188e-07
-1.76814e-09
7.82801e-08
-4.90348e-07
-1.33537e-09
7.77129e-08
-4.88921e-07
-9.03666e-10
7.56856e-08
-4.89081e-07
-4.981e-10
7.23058e-08
-4.90285e-07
-1.34584e-10
6.7759e-08
-4.92573e-07
1.5279e-10
6.22611e-08
-4.95964e-07
3.34012e-10
5.60558e-08
-5.00406e-07
3.84398e-10
4.94449e-08
-5.0577e-07
2.92736e-10
4.28063e-08
-5.11827e-07
7.5035e-11
3.65961e-08
-5.18164e-07
-2.12277e-10
3.12726e-08
-5.23805e-07
-4.69059e-10
2.75121e-08
-5.26419e-07
-5.63481e-10
2.62569e-08
-5.20871e-07
-3.44553e-10
2.78706e-08
-4.9379e-07
1.6413e-10
3.06692e-08
-4.19784e-07
1.0925e-09
3.0329e-08
-1.79417e-07
3.57427e-09
1.86016e-08
7.6662e-07
8.69784e-09
3.86722e-08
2.7648e-06
1.36885e-08
1.18899e-08
5.09329e-06
1.61123e-08
4.83668e-06
-2.20161e-09
1.40053e-08
-2.92891e-06
-2.69825e-08
-3.61494e-10
-3.61185e-06
4.915e-10
-6.39745e-09
-2.58994e-06
-4.86831e-09
-2.11803e-09
-1.58532e-06
-9.40138e-09
1.98071e-09
-9.61416e-07
-6.57374e-09
6.09457e-09
-7.04828e-07
-4.29999e-09
1.02182e-08
-6.02423e-07
-3.49015e-09
1.44889e-08
-5.60207e-07
-3.17337e-09
1.88701e-08
-5.40211e-07
-2.86329e-09
2.32568e-08
-5.28482e-07
-2.66573e-09
2.74471e-08
-5.20101e-07
-2.51795e-09
3.11981e-08
-5.13399e-07
-2.35587e-09
3.42701e-08
-5.0786e-07
-2.14805e-09
3.64628e-08
-5.03347e-07
-1.88777e-09
3.76243e-08
-4.99753e-07
-1.58272e-09
3.75892e-08
-4.9686e-07
-1.24708e-09
3.62195e-08
-4.95326e-07
-9.16496e-10
3.34978e-08
-4.95383e-07
-6.16821e-10
2.953e-08
-4.96564e-07
-3.65389e-10
2.45157e-08
-4.98928e-07
-1.9995e-10
1.8692e-08
-5.02454e-07
-1.52741e-10
1.23423e-08
-5.07042e-07
-2.52624e-10
5.81767e-09
-5.12534e-07
-5.12243e-10
-4.5275e-10
-5.18701e-07
-9.11607e-10
-5.94402e-09
-5.25146e-07
-1.3877e-09
-1.00997e-08
-5.30923e-07
-1.84021e-09
-1.2062e-08
-5.33837e-07
-2.14579e-09
-1.05356e-08
-5.2904e-07
-2.19716e-09
-4.71402e-09
-5.03367e-07
-2.11868e-09
4.15577e-09
-4.30899e-07
-1.9096e-09
1.38788e-08
-1.91289e-07
-5.92674e-10
1.5286e-08
7.62302e-07
3.38048e-09
6.39484e-09
2.7728e-06
6.25548e-09
-1.00949e-08
5.10713e-06
8.10263e-09
4.83046e-06
-3.74177e-09
-3.1137e-09
-2.93314e-06
-2.75353e-08
1.41648e-08
-3.65853e-06
-2.8701e-09
-6.20268e-10
-2.59994e-06
-5.51225e-09
-5.85805e-09
-1.59511e-06
-8.04066e-09
-4.93987e-09
-9.7108e-07
-5.4466e-09
-2.36521e-09
-7.13325e-07
-3.43173e-09
9.55815e-10
-6.10294e-07
-2.84681e-09
4.83876e-09
-5.67763e-07
-2.69447e-09
9.06286e-09
-5.47647e-07
-2.49133e-09
1.34075e-08
-5.35827e-07
-2.37188e-09
1.76009e-08
-5.27338e-07
-2.29004e-09
2.13576e-08
-5.20513e-07
-2.18868e-09
2.44068e-08
-5.14838e-07
-2.0377e-09
2.65165e-08
-5.10185e-07
-1.82951e-09
2.74967e-08
-5.06445e-07
-1.57098e-09
2.71834e-08
-5.03386e-07
-1.27676e-09
2.55381e-08
-5.01737e-07
-9.85652e-10
2.26016e-08
-5.01745e-07
-7.25774e-10
1.83953e-08
-5.02868e-07
-5.15711e-10
1.30038e-08
-5.05152e-07
-3.96277e-10
6.59457e-09
-5.08574e-07
-4.02746e-10
-5.4455e-10
-5.13055e-07
-5.66404e-10
-8.02074e-09
-5.18443e-07
-9.0035e-10
-1.53671e-08
-5.24496e-07
-1.3823e-09
-2.20314e-08
-5.30825e-07
-1.94439e-09
-2.74326e-08
-5.36508e-07
-2.48279e-09
-3.0707e-08
-5.39463e-07
-2.8755e-09
-3.05784e-08
-5.35079e-07
-3.02897e-09
-2.62092e-08
-5.10435e-07
-3.10459e-09
-1.90388e-08
-4.38749e-07
-3.12549e-09
-1.30572e-08
-1.97046e-07
-2.04675e-09
-1.63058e-08
7.65563e-07
1.77965e-09
-2.17544e-08
2.77791e-06
6.484e-09
2.7543e-08
5.05518e-06
8.74279e-09
4.86001e-06
-1.82945e-09
-1.08622e-08
-2.93733e-06
-2.41374e-08
-3.69528e-08
-3.6655e-06
-3.48037e-09
-4.01352e-08
-2.62497e-06
-2.6881e-09
-3.74453e-08
-1.61566e-06
-5.93815e-09
-3.49153e-08
-9.84422e-07
-4.00307e-09
-3.21617e-08
-7.23585e-07
-2.31444e-09
-2.91043e-08
-6.19191e-07
-1.9592e-09
-2.56704e-08
-5.75963e-07
-1.97403e-09
-2.20299e-08
-5.55463e-07
-1.88059e-09
-1.8354e-08
-5.43374e-07
-1.84505e-09
-1.48791e-08
-5.34656e-07
-1.839e-09
-1.1867e-08
-5.27617e-07
-1.81283e-09
-9.57e-09
-5.21746e-07
-1.73842e-09
-8.20377e-09
-5.16914e-07
-1.60757e-09
-7.9481e-09
-5.13004e-07
-1.42598e-09
-8.95434e-09
-5.09773e-07
-1.20637e-09
-1.12375e-08
-5.08036e-07
-9.91012e-10
-1.47333e-08
-5.08042e-07
-8.11008e-10
-1.94027e-08
-5.09167e-07
-6.85251e-10
-2.5135e-08
-5.11443e-07
-6.60377e-10
-3.17325e-08
-5.14847e-07
-7.7523e-10
-3.889e-08
-5.19299e-07
-1.06246e-09
-4.61981e-08
-5.24651e-07
-1.53339e-09
-5.31579e-08
-5.30665e-07
-2.16114e-09
-5.91675e-08
-5.36964e-07
-2.87316e-09
-6.35643e-08
-5.42683e-07
-3.56826e-09
-6.54579e-08
-5.45781e-07
-4.12806e-09
-6.34554e-08
-5.41933e-07
-4.48565e-09
-5.63911e-08
-5.18609e-07
-4.90804e-09
-4.53697e-08
-4.48157e-07
-5.4995e-09
-3.47118e-08
-2.04246e-07
-5.13851e-09
-3.23329e-08
7.6761e-07
-2.274e-09
-3.01472e-08
2.78353e-06
-1.05136e-09
-2.33787e-08
5.05268e-06
2.73777e-09
4.84738e-06
-1.06057e-08
2.68586e-09
-2.95034e-06
-2.67766e-08
-2.53579e-08
-3.67706e-06
6.506e-09
-1.37104e-08
-2.66619e-06
-4.06129e-09
-1.87141e-08
-1.62993e-06
-6.224e-09
-2.1096e-08
-9.94054e-07
-3.58318e-09
-2.13871e-08
-7.3171e-07
-1.80395e-09
-2.05343e-08
-6.26546e-07
-1.56429e-09
-1.87695e-08
-5.82984e-07
-1.69675e-09
-1.63888e-08
-5.62405e-07
-1.67989e-09
-1.36561e-08
-5.50302e-07
-1.70081e-09
-1.08715e-08
-5.4157e-07
-1.74189e-09
-8.34877e-09
-5.34499e-07
-1.75758e-09
-6.39393e-09
-5.28571e-07
-1.72055e-09
-5.27569e-09
-5.23661e-07
-1.62213e-09
-5.20798e-09
-5.19655e-07
-1.46754e-09
-6.32339e-09
-5.16356e-07
-1.26956e-09
-8.57979e-09
-5.147e-07
-1.07172e-09
-1.19828e-08
-5.14806e-07
-9.09023e-10
-1.66215e-08
-5.15901e-07
-8.02998e-10
-2.23534e-08
-5.18164e-07
-8.03445e-10
-2.88766e-08
-5.21634e-07
-9.52211e-10
-3.58234e-08
-5.26184e-07
-1.28456e-09
-4.27572e-08
-5.31626e-07
-1.81274e-09
-4.91439e-08