/*--------------------------------*- C++ -*----------------------------------*\
  =========                 |
  \\      /  F ield         | OpenFOAM: The Open Source CFD Toolbox
   \\    /   O peration     | Website:  https://openfoam.org
    \\  /    A nd           | Version:  13
     \\/     M anipulation  |
\*---------------------------------------------------------------------------*/
FoamFile
{
    format      ascii;
    class       volVectorField;
    location    "2";
    object      U;
}
// * * * * * * * * * * * * * * * * * * * * * * * * * * * * * * * * * * * * * //

dimensions      [0 1 -1 0 0 0 0];

internalField   nonuniform List<vector> 
78750
(
(-0.0139214 -0.0358837 -0.0130991)
(-0.0262744 -0.0409685 -0.0138768)
(-0.0149051 -0.0254679 -0.00867957)
(-0.00948713 -0.0113987 -0.00338318)
(-0.00739601 -0.00434356 -0.00144456)
(-0.00579049 -0.0013255 -0.00172944)
(-0.00436541 -0.00138093 -0.00334893)
(-0.00299155 -0.00237307 -0.00504494)
(-0.00115884 -0.00220877 -0.00464299)
(-0.000242833 -0.00229514 -0.00465449)
(0.000802812 -0.00291547 -0.0053199)
(0.00221288 -0.00319431 -0.00521925)
(0.00306814 -0.0032034 -0.00456369)
(0.0039796 -0.00283621 -0.00327981)
(0.00484139 -0.00263499 -0.00248095)
(0.00579086 -0.00276549 -0.00238059)
(0.00671297 -0.00311548 -0.00257841)
(0.00768316 -0.00327798 -0.00221486)
(0.00847122 -0.00326864 -0.00149634)
(0.00920426 -0.00327562 -0.000893257)
(0.0099486 -0.00339057 -0.000546973)
(0.0107112 -0.00359993 -0.000331813)
(0.0114606 -0.00376339 1.33032e-05)
(0.0121751 -0.00384261 0.000473625)
(0.0128618 -0.00395615 0.000829724)
(0.013543 -0.00410698 0.00108752)
(0.0142024 -0.00421572 0.00133918)
(0.0148217 -0.00424364 0.00155658)
(0.0154554 -0.00382976 0.00208239)
(0.0158153 -0.00304766 0.0026377)
(0.0161148 -0.000788292 0.00296756)
(0.0154963 0.00302662 0.00339854)
(0.0143286 0.00814302 0.00352232)
(0.0106453 0.0203828 0.00304654)
(0.00336216 0.0245825 0.000332418)
(1.54236e-05 -0.0510969 -0.0061912)
(0.000292618 -0.0624763 -0.00803609)
(0.000567959 -0.0450591 -0.00612945)
(0.000997484 -0.0290964 -0.00452409)
(0.00154033 -0.016341 -0.00286426)
(0.00204581 -0.00844773 -0.00148437)
(0.00238797 -0.00499692 -0.000901568)
(0.00257413 -0.00372822 -0.000781946)
(0.00272752 -0.00323295 -0.000747306)
(0.00290999 -0.00299906 -0.000686833)
(0.00303862 -0.00297668 -0.000617114)
(0.00311399 -0.00301087 -0.000502172)
(0.00318719 -0.00301807 -0.000340344)
(0.00330006 -0.00300068 -0.000163362)
(0.00345568 -0.00298332 5.89132e-06)
(0.00361429 -0.00299296 0.000166812)
(0.0037425 -0.00304738 0.000320057)
(0.00384562 -0.00312647 0.000468578)
(0.00394991 -0.00321084 0.00061244)
(0.00406161 -0.00330113 0.000750263)
(0.00417189 -0.00340258 0.000882386)
(0.004269 -0.00352016 0.00100909)
(0.00435633 -0.00365309 0.00113056)
(0.00444114 -0.00379381 0.00124634)
(0.00452547 -0.00393906 0.00135203)
(0.00460381 -0.00407457 0.00144565)
(0.00467345 -0.00416038 0.00152637)
(0.0047235 -0.00408285 0.00160287)
(0.00476454 -0.00373365 0.00165468)
(0.00480022 -0.00266627 0.00167545)
(0.00480356 -8.82639e-05 0.00163553)
(0.00486159 0.00581307 0.00151918)
(0.00457642 0.0230868 0.00146288)
(0.00373496 0.0504995 0.0016549)
(0.000824171 0.0541324 1.90254e-05)
(0.000450827 -0.0415527 -0.00505533)
(0.000456216 -0.0498789 -0.00685552)
(6.20486e-05 -0.0343455 -0.00538532)
(-0.000133508 -0.0188663 -0.00357675)
(-0.000217156 -0.00968451 -0.00208534)
(-0.000116431 -0.00610498 -0.00142058)
(7.04809e-05 -0.00491523 -0.00121676)
(0.000325511 -0.00454362 -0.00113492)
(0.000583774 -0.00437208 -0.00103859)
(0.000824565 -0.00429252 -0.000923905)
(0.00104283 -0.00426214 -0.000791637)
(0.00123686 -0.00425195 -0.000644019)
(0.00141272 -0.004259 -0.000486203)
(0.00157468 -0.00427982 -0.000322161)
(0.00172551 -0.00431738 -0.000155307)
(0.00186521 -0.00437187 1.1537e-05)
(0.00199269 -0.00443992 0.000176604)
(0.00210748 -0.004517 0.000339031)
(0.00221041 -0.00460453 0.000498541)
(0.00230271 -0.00470538 0.000655269)
(0.00238453 -0.0048206 0.000808902)
(0.00245691 -0.00495124 0.000958239)
(0.00251637 -0.00509614 0.00110025)
(0.00256751 -0.00525314 0.00123126)
(0.00260723 -0.00542172 0.001345)
(0.00263431 -0.00558888 0.00143643)
(0.00264523 -0.00571363 0.00150439)
(0.00263658 -0.00568583 0.00155628)
(0.00260092 -0.00539645 0.00159252)
(0.00252665 -0.00455147 0.00160936)
(0.00239768 -0.00233501 0.001587)
(0.00221008 0.00445487 0.00151197)
(0.00189217 0.0241759 0.00152071)
(0.00202838 0.0553421 0.00157843)
(0.000883221 0.0583474 0.000225049)
(0.000416101 -0.0422841 -0.00368838)
(0.000405945 -0.0489835 -0.00409682)
(0.000120403 -0.0351264 -0.00385012)
(0.000207457 -0.0207894 -0.00280402)
(0.000441508 -0.0114284 -0.00172192)
(0.000644925 -0.0076749 -0.00122375)
(0.000828577 -0.00634548 -0.00107285)
(0.000996388 -0.00583413 -0.00101963)
(0.00114175 -0.00555395 -0.000960895)
(0.00127436 -0.00536308 -0.000883984)
(0.0013957 -0.00523396 -0.000792788)
(0.00150802 -0.00514418 -0.000686958)
(0.00161145 -0.00506222 -0.000563019)
(0.00170606 -0.0050112 -0.000432433)
(0.00179381 -0.00498811 -0.000295617)
(0.0018723 -0.00497161 -0.000152814)
(0.00194245 -0.0049711 -7.72756e-06)
(0.00200432 -0.00498542 0.000138771)
(0.00205824 -0.00501536 0.000286176)
(0.00210409 -0.00506029 0.000434494)
(0.00214209 -0.00511905 0.000583647)
(0.0021719 -0.00519355 0.000731276)
(0.00219221 -0.00527227 0.000874985)
(0.00220375 -0.00537031 0.00100745)
(0.00220542 -0.00547512 0.00112335)
(0.00219509 -0.00557155 0.00121756)
(0.00216637 -0.00560401 0.00129046)
(0.00211598 -0.0055234 0.00134166)
(0.00202993 -0.00516119 0.00138159)
(0.0018956 -0.00422706 0.00140679)
(0.00168314 -0.0018302 0.00139896)
(0.00142058 0.00591304 0.00137151)
(0.00118214 0.0274811 0.00146706)
(0.00162849 0.0585363 0.00154467)
(0.00091502 0.0609434 0.000249517)
(0.000507325 -0.039816 -0.00261193)
(0.000622509 -0.0471341 -0.00323441)
(0.000360324 -0.0330167 -0.00294501)
(0.00041401 -0.0190346 -0.00217964)
(0.000578038 -0.0108066 -0.00144166)
(0.000735157 -0.00746029 -0.00107797)
(0.000877024 -0.00626389 -0.00096931)
(0.000997543 -0.00580933 -0.000931163)
(0.0010986 -0.00557942 -0.000887413)
(0.00118984 -0.00543648 -0.000827942)
(0.0012727 -0.00533774 -0.000751737)
(0.0013481 -0.00527426 -0.000662072)
(0.00141669 -0.0052258 -0.000557601)
(0.00147955 -0.00519903 -0.000444607)
(0.00153731 -0.00519482 -0.000324819)
(0.00158714 -0.0051967 -0.000199125)
(0.00163086 -0.0052125 -7.04383e-05)
(0.00166831 -0.00524176 6.06435e-05)
(0.00169922 -0.00528466 0.000194082)
(0.00172356 -0.00534105 0.000330039)
(0.00174131 -0.00541231 0.000467811)
(0.00175259 -0.0054964 0.000605628)
(0.00175571 -0.00558066 0.000740644)
(0.00175194 -0.00568899 0.000866272)
(0.00174028 -0.00580875 0.000977623)
(0.00171698 -0.00591187 0.00106982)
(0.00167726 -0.00595169 0.00114276)
(0.00161693 -0.00587117 0.00119856)
(0.00151806 -0.00550204 0.00124744)
(0.00136216 -0.00457786 0.00128774)
(0.00111037 -0.00212789 0.00131494)
(0.000795857 0.00649047 0.00135299)
(0.0007124 0.0302806 0.00149001)
(0.00159863 0.0640314 0.00138638)
(0.00123174 0.0616278 0.000461258)
(0.000588107 -0.0390528 -0.00204077)
(0.000730314 -0.0462229 -0.00238928)
(0.000371482 -0.0325209 -0.00231067)
(0.000409926 -0.0185974 -0.00174115)
(0.000572495 -0.0108483 -0.00121367)
(0.000713846 -0.0076701 -0.00094107)
(0.000842342 -0.00649777 -0.000856863)
(0.000947787 -0.0060459 -0.00082737)
(0.00103033 -0.00581604 -0.0007916)
(0.00110204 -0.00567301 -0.000741509)
(0.00116591 -0.00557328 -0.000676079)
(0.0012227 -0.00549923 -0.000596161)
(0.00127332 -0.00544844 -0.000505698)
(0.00131848 -0.00541504 -0.000406772)
(0.00135583 -0.00538514 -0.00029979)
(0.00138827 -0.00537561 -0.000191222)
(0.00141636 -0.0053865 -8.04859e-05)
(0.00143713 -0.0054036 3.29093e-05)
(0.00145202 -0.00543389 0.000148319)
(0.00146066 -0.0054773 0.000265955)
(0.00146282 -0.00553352 0.00038541)
(0.00145821 -0.00560103 0.000505159)
(0.00144684 -0.00567357 0.000622419)
(0.00142735 -0.00575979 0.000730845)
(0.0013981 -0.00585789 0.000825669)
(0.00135635 -0.00594086 0.000904913)
(0.0012948 -0.00596458 0.000968062)
(0.00120973 -0.0058671 0.00101832)
(0.00107895 -0.00547215 0.00106519)
(0.000881344 -0.00452417 0.00111035)
(0.000561888 -0.00196758 0.00116272)
(0.000179144 0.00729783 0.00127645)
(0.000115232 0.031594 0.00154443)
(0.00139118 0.0634151 0.00157756)
(0.00133337 0.0611425 0.00063712)
(0.00074485 -0.039158 -0.00178214)
(0.000881756 -0.047204 -0.00213583)
(0.000303837 -0.0317574 -0.00184925)
(0.000358255 -0.0185833 -0.00150978)
(0.000521525 -0.0108066 -0.00105203)
(0.000671719 -0.00773526 -0.000830956)
(0.000798036 -0.00658323 -0.000761972)
(0.00089751 -0.00613343 -0.000737616)
(0.000971574 -0.00590837 -0.000707105)
(0.00103357 -0.00577003 -0.000663523)
(0.00108679 -0.005673 -0.000605729)
(0.00113334 -0.00560044 -0.000534739)
(0.00117409 -0.00554521 -0.000453029)
(0.00120872 -0.00550409 -0.000363638)
(0.00123642 -0.00547403 -0.000269359)
(0.00126036 -0.00546473 -0.000174362)
(0.00128006 -0.00547133 -7.75009e-05)
(0.001293 -0.00548429 2.12804e-05)
(0.00130084 -0.00550987 0.000121439)
(0.00130325 -0.00554786 0.000223197)
(0.00130014 -0.0055978 0.000326278)
(0.00129142 -0.00565896 0.000429381)
(0.00127721 -0.0057299 0.000529791)
(0.00125632 -0.00580313 0.000623697)
(0.0012275 -0.00588017 0.000706163)
(0.00118744 -0.00594803 0.000773664)
(0.00112788 -0.00595975 0.000826237)
(0.00104423 -0.00584842 0.000867586)
(0.000911286 -0.00543446 0.000904996)
(0.000700612 -0.00446256 0.000939321)
(0.000354132 -0.0017794 0.000983823)
(-7.71018e-05 0.00824211 0.00108927)
(0.000138477 0.0338691 0.0013424)
(0.00170665 0.0634426 0.00152183)
(0.00156222 0.0616803 0.000642868)
(0.000786523 -0.038668 -0.00136819)
(0.000843026 -0.0456597 -0.00147331)
(0.00021284 -0.0321298 -0.00159327)
(0.000232673 -0.0183763 -0.00126047)
(0.000410467 -0.0108743 -0.000910803)
(0.000564344 -0.00784456 -0.000723398)
(0.000690565 -0.00669264 -0.00066396)
(0.000787313 -0.00623707 -0.000642968)
(0.000856634 -0.00601053 -0.000616223)
(0.000912914 -0.00587215 -0.000577876)
(0.000959969 -0.00577425 -0.000526845)
(0.00100027 -0.00569954 -0.000464135)
(0.00103529 -0.00564163 -0.000392132)
(0.00106522 -0.00559727 -0.000313742)
(0.0010889 -0.00556463 -0.000231881)
(0.00110897 -0.00555186 -0.00015016)
(0.00112505 -0.00555378 -6.76353e-05)
(0.00113515 -0.00556287 1.58889e-05)
(0.00114093 -0.00558446 0.000100064)
(0.001142 -0.00561836 0.000185155)
(0.00113833 -0.00566412 0.0002709)
(0.00112985 -0.00572107 0.000356021)
(0.0011163 -0.00578804 0.000437989)
(0.00109711 -0.00586281 0.000513297)
(0.00107076 -0.00594002 0.000578354)
(0.00103376 -0.00600474 0.000630868)
(0.000976982 -0.00601371 0.000670974)
(0.000894459 -0.00589583 0.000702262)
(0.000759211 -0.00546892 0.000729941)
(0.000536114 -0.00447126 0.000756793)
(0.000156793 -0.00172998 0.000798017)
(-0.000256863 0.00839016 0.000909756)
(0.000150927 0.0333169 0.00116384)
(0.00220188 0.0641305 0.00137142)
(0.00195554 0.0621713 0.000625715)
(0.000899716 -0.0385254 -0.00111257)
(0.000978174 -0.0463836 -0.00129624)
(0.000204901 -0.031807 -0.00126329)
(0.000201289 -0.0184889 -0.00107769)
(0.00037191 -0.0109983 -0.000792912)
(0.00052548 -0.00796115 -0.000630662)
(0.000649497 -0.00679616 -0.000579084)
(0.000742113 -0.00633232 -0.000561774)
(0.000805806 -0.00610351 -0.000539109)
(0.000856382 -0.00596458 -0.00050608)
(0.000898002 -0.00586603 -0.000461561)
(0.000933371 -0.00579012 -0.000406395)
(0.000963867 -0.00573034 -0.00034289)
(0.000990203 -0.00568461 -0.000273889)
(0.00101232 -0.00565333 -0.000202066)
(0.0010285 -0.00563362 -0.000129096)
(0.00104167 -0.00563122 -5.71374e-05)
(0.00105201 -0.00564382 1.50277e-05)
(0.00105711 -0.00566457 8.79058e-05)
(0.00105858 -0.00569789 0.000161319)
(0.00105615 -0.00574335 0.000234942)
(0.00104984 -0.00580026 0.000307516)
(0.00103947 -0.0058675 0.000376701)
(0.0010243 -0.00594287 0.000439355)
(0.00100247 -0.00602131 0.000492364)
(0.000970283 -0.00608861 0.000533872)
(0.000918196 -0.00610279 0.000564114)
(0.000839893 -0.00598988 0.000586534)
(0.00070533 -0.00556774 0.000604419)
(0.000474868 -0.00457229 0.000619135)
(8.01415e-05 -0.00177799 0.00064235)
(-0.000290171 0.00850897 0.000711969)
(8.78096e-05 0.0333795 0.000891532)
(0.00259336 0.0652087 0.00104084)
(0.00224898 0.0628686 0.000525724)
(0.00103139 -0.038555 -0.00096406)
(0.00107026 -0.0467273 -0.00106511)
(0.000114218 -0.031896 -0.0010093)
(8.57384e-05 -0.018696 -0.000914213)
(0.000257743 -0.0111479 -0.000680119)
(0.000416056 -0.00807267 -0.000536229)
(0.000541675 -0.00688467 -0.000490443)
(0.000633562 -0.00641093 -0.000476144)
(0.000694481 -0.00618053 -0.00045677)
(0.000741566 -0.00604284 -0.000428225)
(0.000779341 -0.0059459 -0.000389619)
(0.000810814 -0.00587107 -0.000341886)
(0.00083754 -0.00581165 -0.000287256)
(0.000860267 -0.00576519 -0.000228319)
(0.000879156 -0.00573141 -0.000167273)
(0.000892672 -0.0057098 -0.00010546)
(0.000903421 -0.00570655 -4.48159e-05)
(0.000911428 -0.00571833 1.54248e-05)
(0.00091444 -0.00573871 7.57764e-05)
(0.000914075 -0.00577151 0.000136138)
(0.000910046 -0.00581659 0.000196218)
(0.000902312 -0.00587333 0.000254887)
(0.0008906 -0.00594056 0.000310119)
(0.000874039 -0.00601606 0.000359325)
(0.000850425 -0.00609473 0.000400105)
(0.00081535 -0.00616283 0.000431236)
(0.000758662 -0.00618025 0.000453192)
(0.000672698 -0.00606893 0.000469398)
(0.000524971 -0.00564609 0.000482142)
(0.000270157 -0.00464914 0.000494882)
(-0.000175181 -0.00181828 0.000525011)
(-0.000619843 0.00882287 0.000614835)
(-0.000199987 0.0340312 0.000794374)
(0.00310531 0.0664991 0.000941589)
(0.00284842 0.0639203 0.000438621)
(0.00109864 -0.0384953 -0.000816876)
(0.00108603 -0.0461245 -0.000721808)
(6.13122e-05 -0.0320489 -0.000825994)
(1.09713e-05 -0.0188927 -0.000784778)
(0.000178357 -0.0113077 -0.000590793)
(0.000340712 -0.00820018 -0.000462468)
(0.000470251 -0.0069914 -0.000421948)
(0.000564288 -0.00650769 -0.000410522)
(0.000625524 -0.00627395 -0.00039436)
(0.000672293 -0.00613488 -0.000370079)
(0.00070936 -0.00603683 -0.000336743)
(0.000739996 -0.00596075 -0.000295139)
(0.000765963 -0.00589984 -0.000247367)
(0.000788006 -0.00585199 -0.000195909)
(0.000806731 -0.00581749 -0.000142824)
(0.000820438 -0.00579469 -8.90095e-05)
(0.00083162 -0.00578987 -3.6368e-05)
(0.000840494 -0.00580125 1.55179e-05)
(0.000844626 -0.00582179 6.72226e-05)
(0.000845885 -0.0058548 0.000118621)
(0.000843969 -0.00590023 0.000169372)
(0.000838847 -0.0059574 0.000218331)
(0.000830267 -0.00602503 0.000263562)
(0.000817343 -0.00610097 0.000302761)
(0.000797707 -0.00618038 0.000334003)
(0.000766462 -0.00624999 0.000356554)
(0.000712714 -0.00627057 0.000371202)
(0.000628049 -0.0061631 0.000381516)
(0.000477457 -0.00574549 0.000388809)
(0.000209393 -0.00475207 0.000395173)
(-0.00026702 -0.00188476 0.000413589)
(-0.000738174 0.00897727 0.000470961)
(-0.000271621 0.0344427 0.000608339)
(0.00289646 0.0650693 0.000747942)
(0.00268631 0.0637961 0.000257814)
(0.00119423 -0.0387031 -0.000728414)
(0.00118133 -0.0462488 -0.0004895)
(1.72128e-05 -0.0322065 -0.000624898)
(-7.08609e-05 -0.0190663 -0.000637703)
(8.51611e-05 -0.011452 -0.000485934)
(0.000246282 -0.00832316 -0.000375293)
(0.000374956 -0.00709896 -0.000341177)
(0.000466511 -0.00660691 -0.000333097)
(0.000523697 -0.00637013 -0.000320278)
(0.000566159 -0.00622976 -0.000300408)
(0.000598893 -0.00613071 -0.000272757)
(0.000625364 -0.00605369 -0.000238033)
(0.000647448 -0.00599203 -0.000198123)
(0.000666025 -0.00594334 -0.000155279)
(0.000681358 -0.00590706 -0.00011141)
(0.000692211 -0.00588318 -6.75029e-05)
(0.000700726 -0.00587741 -2.47781e-05)
(0.000706922 -0.00588799 1.71487e-05)
(0.000708979 -0.00590932 5.85704e-05)
(0.000708312 -0.00594331 9.9263e-05)
(0.000704721 -0.00598987 0.000138807)
(0.000698173 -0.00604854 0.000176103)
(0.000688409 -0.00611817 0.000209462)
(0.00067449 -0.00619671 0.000237088)
(0.000653897 -0.00627941 0.000257758)
(0.000621105 -0.00635336 0.000271436)
(0.000564857 -0.00638129 0.000279584)
(0.000475501 -0.00628151 0.000286318)
(0.000315433 -0.00587144 0.000293273)
(2.59309e-05 -0.00488336 0.000304362)
(-0.000497065 -0.00198344 0.000335802)
(-0.00102918 0.00920237 0.000410114)
(-0.000366657 0.0354977 0.000521264)
(0.00324395 0.0674956 0.000581091)
(0.00305561 0.0640055 0.000158992)
(0.00131397 -0.0389609 -0.000698002)
(0.00128691 -0.0464129 -0.00031114)
(-2.65827e-05 -0.0324379 -0.00046506)
(-0.00013486 -0.0192797 -0.000520519)
(2.33533e-05 -0.0115989 -0.000402825)
(0.00019044 -0.00843875 -0.000306911)
(0.000322248 -0.00719744 -0.000279001)
(0.000414531 -0.00669711 -0.000274577)
(0.000470527 -0.00645782 -0.000265145)
(0.000511207 -0.00631681 -0.000249363)
(0.000541867 -0.00621737 -0.000226669)
(0.00056623 -0.00613978 -0.000197672)
(0.000586319 -0.0060773 -0.000164061)
(0.000603162 -0.00602736 -0.000127854)
(0.000616886 -0.00598918 -9.07533e-05)
(0.000626638 -0.00596433 -5.37805e-05)
(0.000633798 -0.00595739 -1.78364e-05)
(0.000638883 -0.0059674 1.72304e-05)
(0.000640476 -0.00598947 5.16516e-05)
(0.000639068 -0.00602341 8.51361e-05)
(0.000634998 -0.0060699 0.000117127)
(0.000628121 -0.00612848 0.000146522)
(0.000618111 -0.0061981 0.000171765)
(0.000603893 -0.0062769 0.000191373)
(0.00058272 -0.00636034 0.000204547)
(0.000548265 -0.00643542 0.000211657)
(0.000488396 -0.0064664 0.000214696)
(0.000392301 -0.006372 0.000218397)
(0.000219914 -0.00596861 0.000224465)
(-9.46246e-05 -0.00497934 0.000237329)
(-0.000669954 -0.00202566 0.000275573)
(-0.00124886 0.00941911 0.000366905)
(-0.000557477 0.0355236 0.000515888)
(0.00317481 0.0668677 0.000583027)
(0.00314249 0.0636 0.000156578)
(0.00139869 -0.0389327 -0.000581798)
(0.00134593 -0.0466393 -0.000136453)
(-9.96879e-05 -0.0327164 -0.000300862)
(-0.00023984 -0.0195208 -0.000395892)
(-8.56594e-05 -0.0117515 -0.000311995)
(8.58487e-05 -0.00855368 -0.000230792)
(0.000219961 -0.00729426 -0.000209302)
(0.000312304 -0.00678522 -0.00020861)
(0.000366443 -0.00654273 -0.00020236)
(0.00040463 -0.00640039 -0.000190498)
(0.000432429 -0.0063001 -0.000172853)
(0.000453824 -0.00622175 -0.00015003)
(0.000471006 -0.00615866 -0.000123512)
(0.000485214 -0.00610824 -9.50275e-05)
(0.000496349 -0.0060691 -6.60445e-05)
(0.00050489 -0.00604478 -3.79453e-05)
(0.000509667 -0.00603585 -1.09116e-05)
(0.000511816 -0.00604294 1.50007e-05)
(0.000512159 -0.00606559 3.97807e-05)
(0.000509158 -0.00610024 6.32295e-05)
(0.000503787 -0.00614752 8.45953e-05)
(0.000495885 -0.00620692 0.000102771)
(0.000485133 -0.0062776 0.000116476)
(0.000470439 -0.00635786 0.00012478)
(0.000448951 -0.00644308 0.000127539)
(0.000413507 -0.00651995 0.000125766)
(0.000351598 -0.00655449 0.000122361)
(0.00025108 -0.00646645 0.000122248)
(6.9046e-05 -0.00607139 0.00012639)
(-0.000267258 -0.00508101 0.000138031)
(-0.000887118 -0.0020529 0.000171044)
(-0.00159409 0.00994464 0.000244311)
(-0.000595272 0.0373887 0.000405886)
(0.00354621 0.0673493 0.000465625)
(0.00342464 0.0639911 0.000110496)
(0.00149343 -0.038912 -0.000509035)
(0.00143068 -0.0468519 -3.84514e-05)
(-0.0001453 -0.0329716 -0.000208446)
(-0.000309008 -0.0197323 -0.000320463)
(-0.000155368 -0.0118991 -0.000253011)
(2.32459e-05 -0.00867317 -0.000179975)
(0.000162205 -0.00739817 -0.000162687)
(0.000256975 -0.00688061 -0.000164754)
(0.000311658 -0.00663434 -0.000160994)
(0.000349709 -0.00648977 -0.000152199)
(0.000376928 -0.00638751 -0.000138393)
(0.000397524 -0.00630715 -0.000120086)
(0.000413797 -0.00624204 -9.854e-05)
(0.000426778 -0.00619015 -7.52872e-05)
(0.000437238 -0.00615032 -5.16513e-05)
(0.000444464 -0.00612174 -2.85055e-05)
(0.000448004 -0.00610891 -6.49949e-06)
(0.000449348 -0.00611527 1.41126e-05)
(0.000448088 -0.00613622 3.36865e-05)
(0.000443692 -0.00616918 5.18209e-05)
(0.000436668 -0.00621465 6.76597e-05)
(0.000426863 -0.00627216 8.0083e-05)
(0.000413904 -0.00634111 8.79294e-05)
(0.000396528 -0.00641984 9.04625e-05)
(0.000371588 -0.00650323 8.77583e-05)
(0.000331007 -0.00657744 8.11164e-05)
(0.000261593 -0.00661002 7.40793e-05)
(0.000149652 -0.00652179 7.20134e-05)
(-5.07031e-05 -0.00612733 7.63655e-05)
(-0.000418755 -0.00512679 9.19181e-05)
(-0.00108784 -0.00206334 0.000136678)
(-0.00169196 0.00977133 0.000221229)
(-0.000733301 0.0361367 0.000337082)
(0.00367618 0.0671443 0.000456342)
(0.00363231 0.0641819 9.78387e-05)
(0.00158986 -0.0389112 -0.000440643)
(0.00151712 -0.0471787 6.70296e-05)
(-0.000204215 -0.0333305 -0.000120233)
(-0.000412021 -0.0199566 -0.000244412)
(-0.000254481 -0.0120443 -0.000185122)
(-6.727e-05 -0.0087916 -0.000118372)
(7.49215e-05 -0.00750195 -0.000105025)
(0.000170077 -0.00697626 -0.000109791)
(0.000223374 -0.00672631 -0.000108513)
(0.000259491 -0.00657939 -0.000103011)
(0.000284536 -0.00647496 -9.35983e-05)
(0.000302996 -0.00639233 -8.07194e-05)
(0.00031734 -0.00632483 -6.54057e-05)
(0.000328667 -0.00627046 -4.89249e-05)
(0.000337806 -0.00622792 -3.23798e-05)
(0.000343894 -0.00619628 -1.64724e-05)
(0.00034725 -0.00618193 -1.94432e-06)
(0.000348689 -0.00618714 1.09235e-05)
(0.000347511 -0.00620593 2.2401e-05)
(0.000344067 -0.00623706 3.18728e-05)
(0.000338471 -0.00628092 3.84311e-05)
(0.000330699 -0.00633712 4.10191e-05)
(0.000320483 -0.0064048 3.86496e-05)
(0.00030661 -0.00648175 3.08248e-05)
(0.000285937 -0.00656254 1.79808e-05)
(0.000249737 -0.00663328 1.93324e-06)
(0.000184594 -0.00666329 -1.3022e-05)
(7.58961e-05 -0.00657493 -2.15521e-05)
(-0.000125098 -0.0061826 -2.29193e-05)
(-0.000503967 -0.00517539 -1.3672e-05)
(-0.00119863 -0.00205451 1.95507e-05)
(-0.00188688 0.0100749 9.49516e-05)
(-0.000743186 0.0369535 0.000249195)
(0.00374167 0.0677692 0.000310119)
(0.00385083 0.0636769 -5.05058e-05)
(0.00167959 -0.0389421 -0.000392134)
(0.00156321 -0.0472487 0.000171717)
(-0.000254338 -0.0334427 -6.28092e-06)
(-0.000471025 -0.0201632 -0.000157269)
(-0.000310774 -0.0121991 -0.000128382)
(-0.000115817 -0.00891566 -7.3355e-05)
(3.24959e-05 -0.00761084 -6.55207e-05)
(0.00013167 -0.00707742 -7.37965e-05)
(0.00018714 -0.00682396 -7.52563e-05)
(0.000224579 -0.00667483 -7.27784e-05)
(0.000250379 -0.00656851 -6.6978e-05)
(0.000269317 -0.00648409 -5.82205e-05)
(0.000284048 -0.00641488 -4.73169e-05)
(0.000295761 -0.00635892 -3.52994e-05)
(0.000305383 -0.00631487 -2.3101e-05)
(0.000311902 -0.00628175 -1.13408e-05)
(0.000315803 -0.00626661 -7.95648e-07)
(0.000317693 -0.00627138 8.1595e-06)
(0.000316756 -0.00628946 1.56741e-05)
(0.000313657 -0.00631982 2.09359e-05)
(0.000308384 -0.00636298 2.29383e-05)
(0.000300973 -0.00641917 2.06358e-05)
(0.000291118 -0.00648797 1.31379e-05)
(0.000277438 -0.00656699 4.1751e-08)
(0.000256573 -0.00665024 -1.8101e-05)
(0.000219211 -0.00672388 -3.92216e-05)
(0.000151049 -0.00675815 -5.8515e-05)
(3.61902e-05 -0.00667681 -7.04475e-05)
(-0.000175728 -0.00629643 -7.42307e-05)
(-0.000575281 -0.00530421 -6.48101e-05)
(-0.0012969 -0.00218108 -2.82783e-05)
(-0.00194999 0.0100675 2.52353e-05)
(-0.000897411 0.0364513 9.18533e-05)
(0.00417983 0.0670234 0.000223524)
(0.00408477 0.0642221 2.57868e-06)
(0.00168497 -0.0387214 -0.000200948)
(0.00154614 -0.047232 0.000368128)
(-0.000304049 -0.0338442 9.04615e-05)
(-0.000539729 -0.0204364 -8.82406e-05)
(-0.000384865 -0.0123588 -6.92761e-05)
(-0.000185697 -0.00904184 -1.91927e-05)
(-3.56966e-05 -0.00772187 -1.48831e-05)
(6.24962e-05 -0.00718037 -2.58725e-05)
(0.000115205 -0.00692328 -2.97122e-05)
(0.00014962 -0.0067722 -3.02577e-05)
(0.000172333 -0.00666441 -2.84036e-05)
(0.00018833 -0.00657861 -2.44414e-05)
(0.000200376 -0.00650807 -1.89614e-05)
(0.000209701 -0.0064508 -1.27469e-05)
(0.000217347 -0.00640529 -6.52285e-06)
(0.000221906 -0.00637029 -7.57072e-07)
(0.000224399 -0.00635437 3.70316e-06)
(0.000224913 -0.00635863 6.39289e-06)
(0.000222432 -0.00637546 7.41956e-06)
(0.000218462 -0.00640527 5.82012e-06)
(0.000212582 -0.00644897 6.05404e-07)
(0.000204867 -0.00650662 -9.27088e-06)
(0.000194946 -0.00657692 -2.46832e-05)
(0.000181265 -0.00665693 -4.5758e-05)
(0.000159738 -0.00674107 -7.12557e-05)
(0.000122183 -0.00681641 -9.83205e-05)
(5.17213e-05 -0.00685077 -0.000122786)
(-6.76443e-05 -0.00677278 -0.000139018)
(-0.000289434 -0.00640315 -0.000146239)
(-0.000711563 -0.00541397 -0.000138418)
(-0.00149837 -0.00226069 -9.63456e-05)
(-0.00225826 0.0101115 8.58525e-07)
(-0.00092531 0.0371618 0.000192583)
(0.00466066 0.0679459 0.000247071)
(0.00460907 0.064489 -0.000105539)
(0.00180571 -0.0386096 -8.5924e-05)
(0.00166938 -0.0480056 0.000262448)
(-0.000316638 -0.0341613 0.000119363)
(-0.000602145 -0.020664 -4.82696e-05)
(-0.000434814 -0.012516 -3.20979e-05)
(-0.000222249 -0.00916799 1.44745e-05)
(-6.45506e-05 -0.0078332 1.53826e-05)
(3.80288e-05 -0.00728443 1.46471e-06)
(9.28667e-05 -0.00702412 -4.85227e-06)
(0.000128446 -0.00687101 -8.1431e-06)
(0.000151703 -0.00676143 -9.52695e-06)
(0.00016792 -0.00667389 -9.21743e-06)
(0.000180029 -0.00660163 -7.61567e-06)
(0.000189346 -0.00654267 -5.32185e-06)
(0.000197054 -0.00649543 -2.9365e-06)
(0.000201534 -0.00645845 -8.63808e-07)
(0.000203891 -0.00644094 -5.2094e-08)
(0.000204017 -0.00644428 -1.11558e-06)
(0.000200828 -0.00646041 -3.99721e-06)
(0.000196323 -0.00648962 -9.83978e-06)
(0.000190066 -0.00653274 -1.97629e-05)
(0.000182074 -0.00658981 -3.48865e-05)
(0.000171842 -0.0066595 -5.60578e-05)
(0.000157667 -0.00673875 -8.32552e-05)
(0.000135185 -0.006822 -0.000114978)
(9.56426e-05 -0.00689637 -0.000148015)
(2.1219e-05 -0.00693024 -0.000177835)
(-0.000104915 -0.00685393 -0.000198608)
(-0.000338538 -0.00648927 -0.0002095)
(-0.000785013 -0.00550434 -0.000204626)
(-0.00161318 -0.00233504 -0.000166627)
(-0.00241526 0.0101409 -9.72325e-05)
(-0.00113623 0.0369452 9.63447e-06)
(0.00417828 0.0668902 8.39305e-05)
(0.00440264 0.0638182 -0.000223618)
(0.0018026 -0.0386764 -3.21694e-05)
(0.00164386 -0.0474715 0.000470932)
(-0.00039616 -0.034069 0.000256967)
(-0.000642836 -0.0209059 1.98575e-05)
(-0.000501548 -0.0126753 2.47954e-05)
(-0.000283509 -0.00929108 6.43886e-05)
(-0.000123268 -0.00794062 6.08598e-05)
(-2.07059e-05 -0.0073839 4.36888e-05)
(3.22291e-05 -0.00711992 3.47381e-05)
(6.53585e-05 -0.00696506 2.83697e-05)
(8.58632e-05 -0.00685447 2.31012e-05)
(9.92939e-05 -0.00676604 1.87574e-05)
(0.00010875 -0.00669287 1.5127e-05)
(0.000115641 -0.00663316 1.18308e-05)
(0.000121411 -0.00658542 8.45227e-06)
(0.000123749 -0.00654683 4.68211e-06)
(0.000124589 -0.00652618 -6.19947e-07)
(0.000123721 -0.00652668 -8.12415e-06)
(0.000119339 -0.00654203 -1.78275e-05)
(0.000114159 -0.00657291 -3.09864e-05)
(0.000107409 -0.00661908 -4.87904e-05)
(9.923e-05 -0.00667907 -7.25448e-05)
(8.91923e-05 -0.0067508 -0.000103095)
(7.55344e-05 -0.00683134 -0.000140028)
(5.37594e-05 -0.00691538 -0.000181166)
(1.46055e-05 -0.00699015 -0.000222672)
(-6.03502e-05 -0.00702587 -0.000259521)
(-0.000188631 -0.00695675 -0.000286323)
(-0.000429147 -0.00660735 -0.000304202)
(-0.000893853 -0.0056344 -0.000309761)
(-0.00178374 -0.00243433 -0.000291792)
(-0.00254628 0.010215 -0.000240227)
(-0.00107711 0.0365033 -0.000140082)
(0.00535484 0.0683624 6.85104e-05)
(0.00513512 0.0643246 -0.000225413)
(0.00198109 -0.0389766 -6.38138e-05)
(0.00184475 -0.0483698 0.000443307)
(-0.000349521 -0.0346384 0.000256799)
(-0.000699928 -0.0211225 5.80148e-05)
(-0.000541413 -0.0128194 5.64769e-05)
(-0.000315344 -0.00940876 9.28839e-05)
(-0.000148865 -0.00804627 8.63056e-05)
(-4.24165e-05 -0.0074842 6.62458e-05)
(1.24554e-05 -0.0072183 5.48898e-05)
(4.68868e-05 -0.00706202 4.59837e-05)
(6.81966e-05 -0.00694985 3.77967e-05)
(8.21295e-05 -0.00685983 3.01976e-05)
(9.19056e-05 -0.00678519 2.31615e-05)
(9.89842e-05 -0.00672419 1.65094e-05)
(0.000104896 -0.00667547 9.95751e-06)
(0.000106953 -0.0066361 3.21968e-06)
(0.00010749 -0.00661469 -4.96322e-06)
(0.000106606 -0.00661428 -1.53726e-05)
(0.000102201 -0.00662874 -2.804e-05)
(9.69888e-05 -0.0066589 -4.43557e-05)
(8.98721e-05 -0.00670444 -6.56584e-05)
(8.09472e-05 -0.00676411 -9.33797e-05)
(6.98326e-05 -0.00683577 -0.000128394)
(5.47476e-05 -0.00691623 -0.000170172)
(3.10131e-05 -0.00700028 -0.000216258)
(-1.10457e-05 -0.00707569 -0.000262517)
(-9.08473e-05 -0.00711414 -0.000303714)
(-0.000226836 -0.00705322 -0.000334472)
(-0.000480251 -0.00671977 -0.000356414)
(-0.000970469 -0.00576325 -0.000364878)
(-0.00189238 -0.00258156 -0.000344317)
(-0.00283073 0.0100876 -0.000285468)
(-0.00134316 0.0371902 -0.000134407)
(0.00527976 0.0674795 -4.81537e-05)
(0.00532175 0.064504 -0.000245289)
(0.00213602 -0.0389374 -0.000164542)
(0.00202517 -0.0488153 0.00030225)
(-0.000394147 -0.0344269 0.000360281)
(-0.000754808 -0.0212433 0.000133658)
(-0.000616169 -0.0129717 0.000107505)
(-0.000381573 -0.0095375 0.000136978)
(-0.000210163 -0.0081624 0.000126872)
(-0.000101233 -0.00759294 0.000103963)
(-4.59196e-05 -0.00732257 9.02812e-05)
(-1.20579e-05 -0.00716299 7.86739e-05)
(8.02421e-06 -0.00704794 6.70657e-05)
(2.03983e-05 -0.00695513 5.53477e-05)
(2.84888e-05 -0.00687773 4.3667e-05)
(3.38762e-05 -0.006814 3.20489e-05)
(3.8313e-05 -0.00676235 2.03761e-05)
(3.85367e-05 -0.00671958 8.51369e-06)
(3.76266e-05 -0.00669637 -4.8614e-06)
(3.57297e-05 -0.00669613 -2.07354e-05)
(3.01048e-05 -0.00671069 -3.91354e-05)
(2.40522e-05 -0.00674035 -6.17209e-05)
(1.63763e-05 -0.00678485 -8.99939e-05)
(7.20578e-06 -0.0068433 -0.000125401)
(-3.90981e-06 -0.00691379 -0.000168617)
(-1.8832e-05 -0.00699318 -0.00021871)
(-4.2371e-05 -0.00707637 -0.00027273)
(-8.47669e-05 -0.00715147 -0.000326205)
(-0.000166356 -0.00719184 -0.000373328)
(-0.000306528 -0.00713829 -0.000408513)
(-0.000569681 -0.00682226 -0.000436201)
(-0.00108297 -0.00588277 -0.000453408)
(-0.0020504 -0.00266254 -0.000445019)
(-0.00290145 0.0101945 -0.000411191)
(-0.00150951 0.0364624 -0.000314787)
(0.00541898 0.066676 -0.000105871)
(0.00535091 0.0644888 -0.000243983)
(0.00215129 -0.039122 -0.000289877)
(0.00198211 -0.0484787 0.000570196)
(-0.00042847 -0.0351787 0.00034659)
(-0.000783248 -0.0215846 0.000140612)
(-0.00061646 -0.0131301 0.000130081)
(-0.000373459 -0.00965749 0.000162693)
(-0.000197544 -0.00826729 0.000150601)
(-8.76324e-05 -0.00769153 0.000124728)
(-3.31167e-05 -0.00741923 0.000108381)
(-2.75687e-07 -0.00725883 9.39752e-05)
(1.87405e-05 -0.00714294 7.9346e-05)
(3.01868e-05 -0.00704911 6.44951e-05)