/*--------------------------------*- C++ -*----------------------------------*\
  =========                 |
  \\      /  F ield         | OpenFOAM: The Open Source CFD Toolbox
   \\    /   O peration     | Website:  https://openfoam.org
    \\  /    A nd           | Version:  13
     \\/     M anipulation  |
\*---------------------------------------------------------------------------*/
FoamFile
{
    format      ascii;
    class       volScalarField;
    location    "50";
    object      nut;
}
// * * * * * * * * * * * * * * * * * * * * * * * * * * * * * * * * * * * * * //

dimensions      [0 2 -1 0 0 0 0];

internalField   nonuniform List<scalar> 
315000
(
1.52956e-13
4.00198e-11
9.12015e-10
1.63254e-09
2.35835e-09
3.08894e-09
3.82439e-09
4.56466e-09
5.30933e-09
6.05749e-09
6.80772e-09
7.55813e-09
8.30644e-09
9.05007e-09
9.78621e-09
1.05119e-08
1.1224e-08
1.19196e-08
1.25954e-08
1.32485e-08
1.3876e-08
1.44749e-08
1.50426e-08
1.55766e-08
1.60745e-08
1.6534e-08
1.69533e-08
1.73304e-08
1.76639e-08
1.79524e-08
1.81945e-08
1.83895e-08
1.85365e-08
1.86348e-08
1.86842e-08
1.86845e-08
1.86356e-08
1.85377e-08
1.83913e-08
1.81969e-08
1.79552e-08
1.76674e-08
1.73344e-08
1.69579e-08
1.65392e-08
1.60802e-08
1.5583e-08
1.50496e-08
1.44825e-08
1.38841e-08
1.32572e-08
1.26047e-08
1.19293e-08
1.12343e-08
1.05225e-08
9.79723e-09
9.06138e-09
8.31796e-09
7.56978e-09
6.81939e-09
6.06908e-09
5.32071e-09
4.57569e-09
3.83491e-09
3.09874e-09
2.36713e-09
1.63987e-09
9.17136e-10
4.03083e-11
1.54202e-13
3.82917e-12
1.01872e-09
2.2991e-07
4.11272e-07
5.90615e-07
7.68396e-07
9.44934e-07
1.12038e-06
1.29474e-06
1.46787e-06
1.63947e-06
1.8092e-06
1.97659e-06
2.14116e-06
2.30238e-06
2.4597e-06
2.61259e-06
2.76053e-06
2.90299e-06
3.0395e-06
3.16959e-06
3.29284e-06
3.40884e-06
3.51722e-06
3.61766e-06
3.70986e-06
3.79355e-06
3.8685e-06
3.9345e-06
3.99138e-06
4.039e-06
4.07724e-06
4.10601e-06
4.12523e-06
4.13488e-06
4.13491e-06
4.12534e-06
4.10618e-06
4.07749e-06
4.03932e-06
3.99178e-06
3.93498e-06
3.86906e-06
3.7942e-06
3.71059e-06
3.61848e-06
3.51813e-06
3.40984e-06
3.29393e-06
3.17078e-06
3.04078e-06
2.90436e-06
2.76197e-06
2.61412e-06
2.4613e-06
2.30403e-06
2.14287e-06
1.97834e-06
1.81097e-06
1.64125e-06
1.46962e-06
1.29646e-06
1.12203e-06
9.46471e-07
7.69788e-07
5.91812e-07
4.12212e-07
2.30509e-07
1.02174e-09
3.84115e-12
1.55465e-11
4.14231e-09
2.23541e-06
3.78718e-06
5.21575e-06
6.55491e-06
7.82562e-06
9.04117e-06
1.021e-05
1.13371e-05
1.24257e-05
1.34772e-05
1.44921e-05
1.54705e-05
1.64118e-05
1.73154e-05
1.81805e-05
1.9006e-05
1.97911e-05
2.05348e-05
2.12362e-05
2.18945e-05
2.25088e-05
2.30784e-05
2.36026e-05
2.40809e-05
2.45126e-05
2.48973e-05
2.52346e-05
2.55244e-05
2.57661e-05
2.59598e-05
2.61052e-05
2.62022e-05
2.62508e-05
2.62509e-05
2.62025e-05
2.61057e-05
2.59605e-05
2.57671e-05
2.55255e-05
2.52361e-05
2.4899e-05
2.45145e-05
2.40831e-05
2.36052e-05
2.30813e-05
2.2512e-05
2.1898e-05
2.12401e-05
2.0539e-05
1.97956e-05
1.90109e-05
1.81857e-05
1.7321e-05
1.64177e-05
1.54766e-05
1.44985e-05
1.34837e-05
1.24323e-05
1.13439e-05
1.02166e-05
9.04773e-06
7.8319e-06
6.56076e-06
5.22096e-06
3.79145e-06
2.23832e-06
4.14858e-09
1.55709e-11
2.57999e-11
6.87691e-09
3.56731e-06
5.87841e-06
7.94825e-06
9.85301e-06
1.16362e-05
1.3324e-05
1.49329e-05
1.6473e-05
1.79508e-05
1.93701e-05
2.07332e-05
2.20413e-05
2.3295e-05
2.44944e-05
2.56392e-05
2.67291e-05
2.77636e-05
2.8742e-05
2.96636e-05
3.05275e-05
3.1333e-05
3.20792e-05
3.27654e-05
3.3391e-05
3.39552e-05
3.44577e-05
3.48981e-05
3.5276e-05
3.55913e-05
3.58437e-05
3.60331e-05
3.61594e-05
3.62226e-05
3.62227e-05
3.61596e-05
3.60334e-05
3.58441e-05
3.55918e-05
3.52767e-05
3.48989e-05
3.44587e-05
3.39564e-05
3.33923e-05
3.2767e-05
3.2081e-05
3.1335e-05
3.05298e-05
2.96661e-05
2.87448e-05
2.77666e-05
2.67324e-05
2.56428e-05
2.44982e-05
2.32991e-05
2.20456e-05
2.07377e-05
1.93747e-05
1.79555e-05
1.64778e-05
1.49377e-05
1.33288e-05
1.16408e-05
9.85734e-06
7.95214e-06
5.88167e-06
3.56962e-06
6.88236e-09
2.58213e-11
3.4357e-11
9.16168e-09
4.61601e-06
7.47246e-06
9.995e-06
1.22971e-05
1.44403e-05
1.64609e-05
1.83809e-05
2.02142e-05
2.19696e-05
2.36526e-05
2.52668e-05
2.68143e-05
2.82966e-05
2.97143e-05
3.10678e-05
3.2357e-05
3.35811e-05
3.47391e-05
3.58297e-05
3.68518e-05
3.78042e-05
3.86861e-05
3.94964e-05
4.02346e-05
4.09001e-05
4.14923e-05
4.2011e-05
4.24559e-05
4.28268e-05
4.31236e-05
4.33462e-05
4.34947e-05
4.35689e-05
4.35689e-05
4.34947e-05
4.33463e-05
4.31237e-05
4.28269e-05
4.24561e-05
4.20113e-05
4.14927e-05
4.09006e-05
4.02352e-05
3.94972e-05
3.86869e-05
3.78053e-05
3.6853e-05
3.58311e-05
3.47406e-05
3.35828e-05
3.23589e-05
3.10699e-05
2.97166e-05
2.8299e-05
2.6817e-05
2.52696e-05
2.36555e-05
2.19726e-05
2.02173e-05
1.8384e-05
1.6464e-05
1.44433e-05
1.22999e-05
9.99757e-06
7.47464e-06
4.61761e-06
9.1658e-09
3.43735e-11
4.07249e-11
1.08639e-08
5.36586e-06
8.58995e-06
1.14155e-05
1.39833e-05
1.63677e-05
1.86114e-05
2.07407e-05
2.27717e-05
2.47148e-05
2.65768e-05
2.83619e-05
3.00732e-05
3.17124e-05
3.32809e-05
3.47788e-05
3.62056e-05
3.756e-05
3.88408e-05
4.00463e-05
4.11754e-05
4.22267e-05
4.31994e-05
4.40924e-05
4.49052e-05
4.56371e-05
4.62878e-05
4.68571e-05
4.73448e-05
4.77511e-05
4.80759e-05
4.83194e-05
4.84816e-05
4.85627e-05
4.85627e-05
4.84816e-05
4.83194e-05
4.80759e-05
4.77511e-05
4.73449e-05
4.68572e-05
4.62879e-05
4.56373e-05
4.49054e-05
4.40928e-05
4.31998e-05
4.22273e-05
4.1176e-05
4.00471e-05
3.88417e-05
3.75611e-05
3.62068e-05
3.47801e-05
3.32823e-05
3.1714e-05
3.00749e-05
2.83637e-05
2.65786e-05
2.47167e-05
2.27737e-05
2.07427e-05
1.86134e-05
1.63696e-05
1.39852e-05
1.14172e-05
8.59141e-06
5.36696e-06
1.08669e-08
4.07374e-11
4.49578e-11
1.19967e-08
5.85201e-06
9.30614e-06
1.23209e-05
1.50547e-05
1.75899e-05
1.99736e-05
2.22342e-05
2.43896e-05
2.64511e-05
2.8426e-05
3.03192e-05
3.2134e-05
3.38727e-05
3.55365e-05
3.71253e-05
3.86382e-05
4.00734e-05
4.14296e-05
4.2705e-05
4.38983e-05
4.5008e-05
4.60332e-05
4.69729e-05
4.78265e-05
4.85936e-05
4.9274e-05
4.98679e-05
5.03756e-05
5.07975e-05
5.11341e-05
5.13859e-05
5.15535e-05
5.16372e-05
5.16372e-05
5.15535e-05
5.1386e-05
5.11342e-05
5.07976e-05
5.03758e-05
4.98682e-05
4.92743e-05
4.85939e-05
4.78269e-05
4.69733e-05
4.60337e-05
4.50086e-05
4.38989e-05
4.27057e-05
4.14304e-05
4.00743e-05
3.86391e-05
3.71264e-05
3.55377e-05
3.3874e-05
3.21353e-05
3.03206e-05
2.84274e-05
2.64526e-05
2.43912e-05
2.22358e-05
1.99752e-05
1.75914e-05
1.50562e-05
1.23222e-05
9.30727e-06
5.85288e-06
1.19992e-08
4.49683e-11
4.74958e-11
1.26767e-08
6.13947e-06
9.72699e-06
1.28515e-05
1.56818e-05
1.83048e-05
2.07702e-05
2.31077e-05
2.53359e-05
2.74669e-05
2.95082e-05
3.1465e-05
3.3341e-05
3.51383e-05
3.68582e-05
3.85002e-05
4.0063e-05
4.15449e-05
4.2944e-05
4.42586e-05
4.54869e-05
4.66277e-05
4.76795e-05
4.86414e-05
4.95129e-05
5.02936e-05
5.09836e-05
5.15835e-05
5.20941e-05
5.25165e-05
5.28522e-05
5.31024e-05
5.32685e-05
5.33513e-05
5.33513e-05
5.32686e-05
5.31027e-05
5.28525e-05
5.25169e-05
5.20945e-05
5.1584e-05
5.09842e-05
5.02942e-05
4.95135e-05
4.86421e-05
4.76802e-05
4.66284e-05
4.54878e-05
4.42594e-05
4.29449e-05
4.15459e-05
4.00641e-05
3.85014e-05
3.68594e-05
3.51396e-05
3.33423e-05
3.14664e-05
2.95096e-05
2.74683e-05
2.53374e-05
2.31092e-05
2.07717e-05
1.83063e-05
1.56831e-05
1.28527e-05
9.72806e-06
6.14029e-06
1.26792e-08
4.75061e-11
4.88803e-11
1.30482e-08
6.29527e-06
9.95442e-06
1.31379e-05
1.60202e-05
1.86908e-05
2.12005e-05
2.35798e-05
2.58479e-05
2.80168e-05
3.00946e-05
3.20865e-05
3.39961e-05
3.58259e-05
3.75767e-05
3.92481e-05
4.08383e-05
4.23457e-05
4.37681e-05
4.51036e-05
4.63505e-05
4.7507e-05
4.85718e-05
4.95437e-05
5.04219e-05
5.12062e-05
5.18967e-05
5.24943e-05
5.30002e-05
5.34163e-05
5.3745e-05
5.39886e-05
5.41494e-05
5.42294e-05
5.42295e-05
5.41497e-05
5.39889e-05
5.37454e-05
5.34168e-05
5.30008e-05
5.2495e-05
5.18974e-05
5.12069e-05
5.04227e-05
4.95445e-05
4.85726e-05
4.75079e-05
4.63514e-05
4.51046e-05
4.37691e-05
4.23468e-05
4.08395e-05
3.92493e-05
3.75781e-05
3.58273e-05
3.39976e-05
3.20881e-05
3.00962e-05
2.80185e-05
2.58495e-05
2.35815e-05
2.12021e-05
1.86924e-05
1.60217e-05
1.31393e-05
9.95557e-06
6.29615e-06
1.30508e-08
4.88911e-11
4.95704e-11
1.32336e-08
6.37279e-06
1.00675e-05
1.32803e-05
1.61886e-05
1.8883e-05
2.14149e-05
2.38154e-05
2.61036e-05
2.82919e-05
3.03883e-05
3.23981e-05
3.43251e-05
3.61715e-05
3.79384e-05
3.96248e-05
4.12293e-05
4.27498e-05
4.41842e-05
4.55306e-05
4.67869e-05
4.79515e-05
4.90227e-05
4.99993e-05
5.08805e-05
5.16657e-05
5.23551e-05
5.29492e-05
5.34495e-05
5.38582e-05
5.41784e-05
5.44139e-05
5.45685e-05
5.46451e-05
5.46452e-05
5.45687e-05
5.44142e-05
5.41789e-05
5.38587e-05
5.34501e-05
5.29498e-05
5.23558e-05
5.16665e-05
5.08813e-05
5.00001e-05
4.90235e-05
4.79524e-05
4.67879e-05
4.55317e-05
4.41854e-05
4.27511e-05
4.12307e-05
3.96263e-05
3.79399e-05
3.61731e-05
3.43268e-05
3.23999e-05
3.03901e-05
2.82938e-05
2.61055e-05
2.38173e-05
2.14168e-05
1.88847e-05
1.61902e-05
1.32818e-05
1.00687e-05
6.37375e-06
1.32364e-08
4.9582e-11
4.98851e-11
1.33182e-08
6.40817e-06
1.01191e-05
1.33454e-05
1.62656e-05
1.89709e-05
2.15131e-05
2.39234e-05
2.6221e-05
2.84183e-05
3.05233e-05
3.25416e-05
3.44766e-05
3.63309e-05
3.81053e-05
3.97989e-05
4.14101e-05
4.29368e-05
4.4377e-05
4.57285e-05
4.69894e-05
4.81577e-05
4.92321e-05
5.0211e-05
5.10937e-05
5.18795e-05
5.25685e-05
5.31611e-05
5.36588e-05
5.40638e-05
5.43797e-05
5.46107e-05
5.47617e-05
5.48366e-05
5.48367e-05
5.47619e-05
5.4611e-05
5.43801e-05
5.40643e-05
5.36593e-05
5.31617e-05
5.25691e-05
5.18802e-05
5.10945e-05
5.02119e-05
4.9233e-05
4.81588e-05
4.69905e-05
4.57297e-05
4.43783e-05
4.29383e-05
4.14117e-05
3.98006e-05
3.8107e-05
3.63327e-05
3.44785e-05
3.25435e-05
3.05253e-05
2.84203e-05
2.6223e-05
2.39254e-05
2.15151e-05
1.89728e-05
1.62673e-05
1.3347e-05
1.01204e-05
6.4092e-06
1.33213e-08
4.98973e-11
5.0018e-11
1.33541e-08
6.42315e-06
1.01409e-05
1.3373e-05
1.62983e-05
1.90083e-05
2.1555e-05
2.39695e-05
2.62712e-05
2.84725e-05
3.05815e-05
3.26035e-05
3.45422e-05
3.64001e-05
3.81779e-05
3.98749e-05
4.14893e-05
4.3019e-05
4.44619e-05
4.58158e-05
4.70788e-05
4.82489e-05
4.93245e-05
5.03041e-05
5.11869e-05
5.19722e-05
5.26601e-05
5.32513e-05
5.3747e-05
5.41495e-05
5.44622e-05
5.46899e-05
5.48373e-05
5.49084e-05
5.49085e-05
5.48374e-05
5.46902e-05
5.44625e-05
5.41499e-05
5.37475e-05
5.32518e-05
5.26608e-05
5.19729e-05
5.11877e-05
5.0305e-05
4.93255e-05
4.825e-05
4.708e-05
4.58171e-05
4.44633e-05
4.30205e-05
4.14909e-05
3.98767e-05
3.81798e-05
3.6402e-05
3.45442e-05
3.26055e-05
3.05836e-05
2.84747e-05
2.62734e-05
2.39717e-05
2.15571e-05
1.90103e-05
1.63001e-05
1.33747e-05
1.01424e-05
6.42423e-06
1.33572e-08
5.00307e-11
5.00704e-11
1.33682e-08
6.42907e-06
1.01496e-05
1.33839e-05
1.63112e-05
1.90232e-05
2.15717e-05
2.39879e-05
2.62913e-05
2.84941e-05
3.06046e-05
3.26281e-05
3.45683e-05
3.64275e-05
3.82066e-05
3.99048e-05
4.15202e-05
4.30508e-05
4.44946e-05
4.58493e-05
4.71129e-05
4.82836e-05
4.93596e-05
5.03395e-05
5.12224e-05
5.20076e-05
5.26949e-05
5.32852e-05
5.37798e-05
5.41817e-05
5.44951e-05
5.47247e-05
5.48738e-05
5.4946e-05
5.49461e-05
5.48739e-05
5.47249e-05
5.44954e-05
5.41821e-05
5.37802e-05
5.32857e-05
5.26956e-05
5.20083e-05
5.12232e-05
5.03404e-05
4.93606e-05
4.82847e-05
4.71142e-05
4.58506e-05
4.44961e-05
4.30524e-05
4.15219e-05
3.99066e-05
3.82085e-05
3.64295e-05
3.45703e-05
3.26302e-05
3.06068e-05
2.84964e-05
2.62935e-05
2.39901e-05
2.15739e-05
1.90253e-05
1.63132e-05
1.33856e-05
1.01511e-05
6.43018e-06
1.33714e-08
5.00833e-11
5.00898e-11
1.33735e-08
6.43127e-06
1.01528e-05
1.3388e-05
1.63161e-05
1.90288e-05
2.1578e-05
2.39948e-05
2.62988e-05
2.85023e-05
3.06134e-05
3.26374e-05
3.45782e-05
3.64379e-05
3.82176e-05
3.99162e-05
4.15321e-05
4.30632e-05
4.45073e-05
4.58624e-05
4.71264e-05
4.82974e-05
4.93737e-05
5.0354e-05
5.12372e-05
5.20226e-05
5.27103e-05
5.33007e-05
5.37955e-05
5.41976e-05
5.45111e-05
5.47408e-05
5.489e-05
5.49624e-05
5.49624e-05
5.48901e-05
5.47409e-05
5.45113e-05
5.41979e-05
5.3796e-05
5.33012e-05
5.27109e-05
5.20234e-05
5.1238e-05
5.03549e-05
4.93748e-05
4.82985e-05
4.71277e-05
4.58638e-05
4.45088e-05
4.30648e-05
4.15338e-05
3.99181e-05
3.82195e-05
3.644e-05
3.45803e-05
3.26396e-05
3.06156e-05
2.85046e-05
2.63011e-05
2.39971e-05
2.15801e-05
1.90309e-05
1.63181e-05
1.33897e-05
1.01543e-05
6.4324e-06
1.33767e-08
5.01029e-11
5.00966e-11
1.33753e-08
6.43204e-06
1.01539e-05
1.33894e-05
1.63178e-05
1.90307e-05
2.15802e-05
2.39973e-05
2.63015e-05
2.85052e-05
3.06165e-05
3.26408e-05
3.45817e-05
3.64417e-05
3.82216e-05
3.99204e-05
4.15365e-05
4.30677e-05
4.45121e-05
4.58673e-05
4.71315e-05
4.83026e-05
4.93791e-05
5.03595e-05
5.12428e-05
5.20282e-05
5.27156e-05
5.33055e-05
5.37992e-05
5.4199e-05
5.45086e-05
5.47332e-05
5.48795e-05
5.49525e-05
5.49525e-05
5.48796e-05
5.47334e-05
5.45089e-05
5.41993e-05
5.37996e-05
5.33061e-05
5.27163e-05
5.20289e-05
5.12436e-05
5.03604e-05
4.93801e-05
4.83038e-05
4.71327e-05
4.58687e-05
4.45136e-05
4.30694e-05
4.15382e-05
3.99223e-05
3.82235e-05
3.64438e-05
3.45839e-05
3.2643e-05
3.06188e-05
2.85075e-05
2.63038e-05
2.39995e-05
2.15824e-05
1.90328e-05
1.63198e-05
1.33912e-05
1.01555e-05
6.43317e-06
1.33785e-08
5.01097e-11
5.00988e-11
1.33759e-08
6.4323e-06
1.01543e-05
1.33899e-05
1.63183e-05
1.90314e-05
2.15809e-05
2.39981e-05
2.63024e-05
2.85062e-05
3.06175e-05
3.26419e-05
3.45829e-05
3.6443e-05
3.82229e-05
3.99218e-05
4.15379e-05
4.30693e-05
4.45137e-05
4.5869e-05
4.71332e-05
4.83044e-05
4.93809e-05
5.03614e-05
5.12447e-05
5.20302e-05
5.27177e-05
5.33076e-05
5.38012e-05
5.42009e-05
5.45103e-05
5.47347e-05
5.48808e-05
5.49538e-05
5.49538e-05
5.48809e-05
5.47349e-05
5.45106e-05
5.42012e-05
5.38016e-05
5.33081e-05
5.27183e-05
5.20309e-05
5.12455e-05
5.03623e-05
4.9382e-05
4.83056e-05
4.71345e-05
4.58704e-05
4.45152e-05
4.30709e-05
4.15397e-05
3.99237e-05
3.82249e-05
3.6445e-05
3.45851e-05
3.26441e-05
3.06198e-05
2.85085e-05
2.63047e-05
2.40003e-05
2.15831e-05
1.90335e-05
1.63203e-05
1.33917e-05
1.01558e-05
6.43343e-06
1.33791e-08
5.01119e-11
5.00994e-11
1.33761e-08
6.43237e-06
1.01544e-05
1.339e-05
1.63185e-05
1.90316e-05
2.15811e-05
2.39983e-05
2.63026e-05
2.85065e-05
3.06179e-05
3.26422e-05
3.45833e-05
3.64434e-05
3.82233e-05
3.99222e-05
4.15384e-05
4.30698e-05
4.45142e-05
4.58695e-05
4.71338e-05
4.8305e-05
4.93815e-05
5.0362e-05
5.12453e-05
5.20308e-05
5.27183e-05
5.33082e-05
5.38018e-05
5.42015e-05
5.4511e-05
5.47354e-05
5.48815e-05
5.49544e-05
5.49545e-05
5.48816e-05
5.47355e-05
5.45113e-05
5.42019e-05
5.38023e-05
5.33087e-05
5.27189e-05
5.20316e-05
5.12462e-05
5.0363e-05
4.93826e-05
4.83062e-05
4.71351e-05
4.5871e-05
4.45157e-05
4.30714e-05
4.15402e-05
3.99241e-05
3.82253e-05
3.64454e-05
3.45854e-05
3.26445e-05
3.06201e-05
2.85088e-05
2.63049e-05
2.40006e-05
2.15833e-05
1.90337e-05
1.63205e-05
1.33918e-05
1.01559e-05
6.43351e-06
1.33793e-08
5.01126e-11
5.00996e-11
1.33761e-08
6.4324e-06
1.01545e-05
1.33901e-05
1.63186e-05
1.90316e-05
2.15812e-05
2.39984e-05
2.63027e-05
2.85066e-05
3.0618e-05
3.26423e-05
3.45834e-05
3.64435e-05
3.82234e-05
3.99224e-05
4.15386e-05
4.30699e-05
4.45143e-05
4.58697e-05
4.71339e-05
4.83051e-05
4.93817e-05
5.03622e-05
5.12455e-05
5.2031e-05
5.27185e-05
5.33084e-05
5.3802e-05
5.42017e-05
5.45112e-05
5.47356e-05
5.48817e-05
5.49546e-05
5.49547e-05
5.48818e-05
5.47357e-05
5.45115e-05
5.42021e-05
5.38025e-05
5.33089e-05
5.27191e-05
5.20317e-05
5.12464e-05
5.03631e-05
4.93828e-05
4.83063e-05
4.71352e-05
4.58711e-05
4.45159e-05
4.30716e-05
4.15403e-05
3.99243e-05
3.82254e-05
3.64456e-05
3.45855e-05
3.26446e-05
3.06202e-05
2.85088e-05
2.6305e-05
2.40007e-05
2.15834e-05
1.90338e-05
1.63206e-05
1.33919e-05
1.0156e-05
6.43353e-06
1.33794e-08
5.01128e-11
5.00997e-11
1.33761e-08
6.4324e-06
1.01545e-05
1.33901e-05
1.63186e-05
1.90316e-05
2.15812e-05
2.39984e-05
2.63028e-05
2.85066e-05
3.0618e-05
3.26424e-05
3.45834e-05
3.64435e-05
3.82235e-05
3.99224e-05
4.15386e-05
4.307e-05
4.45144e-05
4.58697e-05
4.7134e-05
4.83052e-05
4.93818e-05
5.03622e-05
5.12456e-05
5.20311e-05
5.27186e-05
5.33085e-05
5.38021e-05
5.42018e-05
5.45113e-05
5.47356e-05
5.48817e-05
5.49547e-05
5.49547e-05
5.48818e-05
5.47358e-05
5.45115e-05
5.42021e-05
5.38025e-05
5.3309e-05
5.27192e-05
5.20318e-05
5.12464e-05
5.03632e-05
4.93828e-05
4.83064e-05
4.71353e-05
4.58712e-05
4.45159e-05
4.30716e-05
4.15404e-05
3.99243e-05
3.82255e-05
3.64456e-05
3.45856e-05
3.26446e-05
3.06202e-05
2.85089e-05
2.6305e-05
2.40007e-05
2.15834e-05
1.90338e-05
1.63206e-05
1.33919e-05
1.0156e-05
6.43354e-06
1.33794e-08
5.01129e-11
5.00997e-11
1.33761e-08
6.4324e-06
1.01545e-05
1.33901e-05
1.63186e-05
1.90317e-05
2.15812e-05
2.39984e-05
2.63028e-05
2.85066e-05
3.0618e-05
3.26424e-05
3.45834e-05
3.64435e-05
3.82235e-05
3.99224e-05
4.15386e-05
4.307e-05
4.45144e-05
4.58697e-05
4.7134e-05
4.83052e-05
4.93818e-05
5.03622e-05
5.12456e-05
5.20311e-05
5.27186e-05
5.33085e-05
5.38021e-05
5.42018e-05
5.45113e-05
5.47356e-05
5.48817e-05
5.49547e-05
5.49548e-05
5.48818e-05
5.47358e-05
5.45115e-05
5.42021e-05
5.38025e-05
5.3309e-05
5.27192e-05
5.20318e-05
5.12464e-05
5.03632e-05
4.93828e-05
4.83064e-05
4.71353e-05
4.58712e-05
4.45159e-05
4.30716e-05
4.15404e-05
3.99243e-05
3.82255e-05
3.64456e-05
3.45856e-05
3.26446e-05
3.06203e-05
2.85089e-05
2.63051e-05
2.40007e-05
2.15834e-05
1.90338e-05
1.63206e-05
1.33919e-05
1.0156e-05
6.43354e-06
1.33794e-08
5.01129e-11
5.00997e-11
1.33761e-08
6.4324e-06
1.01545e-05
1.33901e-05
1.63186e-05
1.90317e-05
2.15812e-05
2.39984e-05
2.63028e-05
2.85066e-05
3.0618e-05
3.26424e-05
3.45834e-05
3.64435e-05
3.82235e-05
3.99224e-05
4.15386e-05
4.307e-05
4.45144e-05
4.58697e-05
4.7134e-05
4.83052e-05
4.93818e-05
5.03623e-05
5.12456e-05
5.20311e-05
5.27186e-05
5.33085e-05
5.38021e-05
5.42018e-05
5.45113e-05
5.47356e-05
5.48817e-05
5.49547e-05
5.49548e-05
5.48818e-05
5.47358e-05
5.45115e-05
5.42021e-05
5.38025e-05
5.3309e-05
5.27192e-05
5.20318e-05
5.12464e-05
5.03632e-05
4.93828e-05
4.83064e-05
4.71353e-05
4.58712e-05
4.45159e-05
4.30716e-05
4.15404e-05
3.99243e-05
3.82255e-05
3.64456e-05
3.45856e-05
3.26446e-05
3.06203e-05
2.85089e-05
2.63051e-05
2.40007e-05
2.15834e-05
1.90338e-05
1.63206e-05
1.33919e-05
1.0156e-05
6.43354e-06
1.33794e-08
5.01129e-11
5.00997e-11
1.33761e-08
6.4324e-06
1.01545e-05
1.33901e-05
1.63186e-05
1.90317e-05
2.15812e-05
2.39984e-05
2.63028e-05
2.85066e-05
3.0618e-05
3.26424e-05
3.45834e-05
3.64435e-05
3.82235e-05
3.99224e-05
4.15386e-05
4.307e-05
4.45144e-05
4.58697e-05
4.7134e-05
4.83052e-05
4.93818e-05
5.03623e-05
5.12456e-05
5.20311e-05
5.27186e-05
5.33085e-05
5.38021e-05
5.42018e-05
5.45113e-05
5.47356e-05
5.48817e-05
5.49547e-05
5.49548e-05
5.48818e-05
5.47358e-05
5.45115e-05
5.42021e-05
5.38025e-05
5.3309e-05
5.27192e-05
5.20318e-05
5.12464e-05
5.03632e-05
4.93828e-05
4.83064e-05
4.71353e-05
4.58712e-05
4.45159e-05
4.30716e-05
4.15404e-05
3.99243e-05
3.82255e-05
3.64456e-05
3.45856e-05
3.26446e-05
3.06203e-05
2.85089e-05
2.63051e-05
2.40007e-05
2.15834e-05
1.90338e-05
1.63206e-05
1.33919e-05
1.0156e-05
6.43354e-06
1.33794e-08
5.01129e-11
5.00997e-11
1.33761e-08
6.4324e-06
1.01545e-05
1.33901e-05
1.63186e-05
1.90317e-05
2.15812e-05
2.39984e-05
2.63028e-05
2.85066e-05
3.0618e-05
3.26424e-05
3.45834e-05
3.64435e-05
3.82235e-05
3.99224e-05
4.15386e-05
4.307e-05
4.45144e-05
4.58697e-05
4.7134e-05
4.83052e-05
4.93818e-05
5.03623e-05
5.12456e-05
5.20311e-05
5.27186e-05
5.33085e-05
5.38021e-05
5.42018e-05
5.45113e-05
5.47356e-05
5.48817e-05
5.49547e-05
5.49548e-05
5.48818e-05
5.47358e-05
5.45115e-05
5.42021e-05
5.38025e-05
5.3309e-05
5.27192e-05
5.20318e-05
5.12464e-05
5.03632e-05
4.93828e-05
4.83064e-05
4.71353e-05
4.58712e-05
4.45159e-05
4.30716e-05
4.15404e-05
3.99243e-05
3.82255e-05
3.64456e-05
3.45856e-05
3.26446e-05
3.06203e-05
2.85089e-05
2.63051e-05
2.40007e-05
2.15834e-05
1.90338e-05
1.63206e-05
1.33919e-05
1.0156e-05
6.43354e-06
1.33794e-08
5.01129e-11
5.00997e-11
1.33761e-08
6.4324e-06
1.01545e-05
1.33901e-05
1.63186e-05
1.90317e-05
2.15812e-05
2.39984e-05
2.63028e-05
2.85066e-05
3.0618e-05
3.26424e-05
3.45834e-05
3.64435e-05
3.82235e-05
3.99224e-05
4.15386e-05
4.307e-05
4.45144e-05
4.58697e-05
4.7134e-05
4.83052e-05
4.93818e-05
5.03623e-05
5.12456e-05
5.20311e-05
5.27186e-05
5.33085e-05
5.38021e-05
5.42018e-05
5.45113e-05
5.47356e-05
5.48817e-05
5.49547e-05
5.49548e-05
5.48818e-05
5.47358e-05
5.45115e-05
5.42021e-05
5.38025e-05
5.3309e-05
5.27192e-05
5.20318e-05
5.12464e-05
5.03632e-05
4.93828e-05
4.83064e-05
4.71353e-05
4.58712e-05
4.45159e-05
4.30716e-05
4.15404e-05
3.99243e-05
3.82255e-05
3.64456e-05
3.45856e-05
3.26446e-05
3.06203e-05
2.85089e-05
2.63051e-05
2.40007e-05
2.15834e-05
1.90338e-05
1.63206e-05
1.33919e-05
1.0156e-05
6.43354e-06
1.33794e-08
5.01129e-11
5.00997e-11
1.33761e-08
6.4324e-06
1.01545e-05
1.33901e-05
1.63186e-05
1.90317e-05
2.15812e-05
2.39984e-05
2.63028e-05
2.85066e-05
3.0618e-05
3.26424e-05
3.45834e-05
3.64435e-05
3.82235e-05
3.99224e-05
4.15386e-05
4.307e-05
4.45144e-05
4.58697e-05
4.7134e-05
4.83052e-05
4.93818e-05
5.03623e-05
5.12456e-05
5.20311e-05
5.27186e-05
5.33085e-05
5.38021e-05
5.42018e-05
5.45113e-05
5.47356e-05
5.48817e-05
5.49547e-05
5.49548e-05
5.48818e-05
5.47358e-05
5.45115e-05
5.42021e-05
5.38025e-05
5.3309e-05
5.27192e-05
5.20318e-05
5.12464e-05
5.03632e-05
4.93828e-05
4.83064e-05
4.71353e-05
4.58712e-05
4.45159e-05
4.30716e-05
4.15404e-05
3.99243e-05
3.82255e-05
3.64456e-05
3.45856e-05
3.26446e-05
3.06203e-05
2.85089e-05
2.63051e-05
2.40007e-05
2.15834e-05
1.90338e-05
1.63206e-05
1.33919e-05
1.0156e-05
6.43354e-06
1.33794e-08
5.01129e-11
5.00997e-11
1.33761e-08
6.4324e-06
1.01545e-05
1.33901e-05
1.63186e-05
1.90317e-05
2.15812e-05
2.39984e-05
2.63028e-05
2.85066e-05
3.0618e-05
3.26424e-05
3.45834e-05
3.64435e-05
3.82235e-05
3.99224e-05
4.15386e-05
4.307e-05
4.45144e-05
4.58697e-05
4.7134e-05
4.83052e-05
4.93818e-05
5.03623e-05
5.12456e-05
5.20311e-05
5.27186e-05
5.33085e-05
5.38021e-05
5.42018e-05
5.45113e-05
5.47356e-05
5.48817e-05
5.49547e-05
5.49548e-05
5.48818e-05
5.47358e-05
5.45115e-05
5.42021e-05
5.38025e-05
5.3309e-05
5.27192e-05
5.20318e-05
5.12464e-05
5.03632e-05
4.93828e-05
4.83064e-05
4.71353e-05
4.58712e-05
4.45159e-05
4.30716e-05
4.15404e-05
3.99243e-05
3.82255e-05
3.64456e-05
3.45856e-05
3.26446e-05
3.06203e-05
2.85089e-05
2.63051e-05
2.40007e-05
2.15834e-05
1.90338e-05
1.63206e-05
1.33919e-05
1.0156e-05
6.43354e-06
1.33794e-08
5.01129e-11
5.00997e-11
1.33761e-08
6.4324e-06
1.01545e-05
1.33901e-05
1.63186e-05
1.90317e-05
2.15812e-05
2.39984e-05
2.63028e-05
2.85066e-05
3.0618e-05
3.26424e-05
3.45834e-05
3.64435e-05
3.82235e-05
3.99224e-05
4.15386e-05
4.307e-05
4.45144e-05
4.58697e-05
4.7134e-05
4.83052e-05
4.93818e-05
5.03623e-05
5.12456e-05
5.20311e-05
5.27186e-05
5.33085e-05
5.38021e-05
5.42018e-05
5.45113e-05
5.47356e-05
5.48817e-05
5.49547e-05
5.49548e-05
5.48818e-05
5.47358e-05
5.45115e-05
5.42021e-05
5.38025e-05
5.3309e-05
5.27192e-05
5.20318e-05
5.12464e-05
5.03632e-05
4.93828e-05
4.83064e-05
4.71353e-05
4.58712e-05
4.45159e-05
4.30716e-05
4.15404e-05
3.99243e-05
3.82255e-05
3.64456e-05
3.45856e-05
3.26446e-05
3.06203e-05
2.85089e-05
2.63051e-05
2.40007e-05
2.15834e-05
1.90338e-05
1.63206e-05
1.33919e-05
1.0156e-05
6.43354e-06
1.33794e-08
5.01129e-11
5.00997e-11
1.33761e-08
6.4324e-06
1.01545e-05
1.33901e-05
1.63186e-05
1.90317e-05
2.15812e-05
2.39984e-05
2.63028e-05
2.85066e-05
3.0618e-05
3.26424e-05
3.45834e-05
3.64435e-05
3.82235e-05
3.99224e-05
4.15386e-05
4.307e-05
4.45144e-05
4.58697e-05
4.7134e-05
4.83052e-05
4.93818e-05
5.03623e-05
5.12456e-05
5.20311e-05
5.27186e-05
5.33085e-05
5.38021e-05
5.42018e-05
5.45113e-05
5.47356e-05
5.48817e-05
5.49547e-05
5.49548e-05
5.48818e-05
5.47358e-05
5.45115e-05
5.42021e-05
5.38025e-05
5.3309e-05
5.27192e-05
5.20318e-05
5.12464e-05
5.03632e-05
4.93828e-05
4.83064e-05
4.71353e-05
4.58712e-05
4.45159e-05
4.30716e-05
4.15404e-05
3.99243e-05
3.82255e-05
3.64456e-05
3.45856e-05
3.26446e-05
3.06203e-05
2.85089e-05
2.63051e-05
2.40007e-05
2.15834e-05
1.90338e-05
1.63206e-05
1.33919e-05
1.0156e-05
6.43354e-06
1.33794e-08
5.01129e-11
5.00997e-11
1.33761e-08
6.4324e-06
1.01545e-05
1.33901e-05
1.63186e-05
1.90317e-05
2.15812e-05
2.39984e-05
2.63028e-05
2.85066e-05
3.0618e-05
3.26424e-05
3.45834e-05
3.64435e-05
3.82235e-05
3.99224e-05
4.15386e-05
4.307e-05
4.45144e-05
4.58697e-05
4.7134e-05
4.83052e-05
4.93818e-05
5.03623e-05
5.12456e-05
5.20311e-05
5.27186e-05
5.33085e-05
5.38021e-05
5.42018e-05
5.45113e-05
5.47356e-05
5.48817e-05
5.49547e-05
5.49548e-05
5.48818e-05
5.47358e-05
5.45115e-05
5.42021e-05
5.38025e-05
5.3309e-05
5.27192e-05
5.20318e-05
5.12464e-05
5.03632e-05
4.93828e-05
4.83064e-05
4.71353e-05
4.58712e-05
4.45159e-05
4.30716e-05
4.15404e-05
3.99243e-05
3.82255e-05
3.64456e-05
3.45856e-05
3.26446e-05
3.06203e-05
2.85089e-05
2.63051e-05
2.40007e-05
2.15834e-05
1.90338e-05
1.63206e-05
1.33919e-05
1.0156e-05
6.43354e-06
1.33794e-08
5.01129e-11
5.00997e-11
1.33761e-08
6.4324e-06
1.01545e-05
1.33901e-05
1.63186e-05
1.90317e-05
2.15812e-05
2.39984e-05
2.63028e-05
2.85066e-05
3.0618e-05
3.26424e-05
3.45834e-05
3.64435e-05
3.82235e-05
3.99224e-05
4.15386e-05
4.307e-05
4.45144e-05
4.58697e-05
4.7134e-05
4.83052e-05
4.93818e-05
5.03623e-05
5.12456e-05
5.20311e-05
5.27186e-05
5.33085e-05
5.38021e-05
5.42018e-05
5.45113e-05
5.47356e-05
5.48817e-05
5.49547e-05
5.49548e-05
5.48818e-05
5.47358e-05
5.45115e-05
5.42021e-05
5.38025e-05
5.3309e-05
5.27192e-05
5.20318e-05
5.12464e-05
5.03632e-05
4.93828e-05
4.83064e-05
4.71353e-05
4.58712e-05
4.45159e-05
4.30716e-05
4.15404e-05
3.99243e-05
3.82255e-05
3.64456e-05
3.45856e-05
3.26446e-05
3.06203e-05
2.85089e-05
2.63051e-05
2.40007e-05
2.15834e-05
1.90338e-05
1.63206e-05
1.33919e-05
1.0156e-05
6.43354e-06
1.33794e-08
5.01129e-11
5.00997e-11
1.33761e-08
6.4324e-06
1.01545e-05
1.33901e-05
1.63186e-05
1.90317e-05
2.15812e-05
2.39984e-05
2.63028e-05
2.85066e-05
3.0618e-05
3.26424e-05
3.45834e-05
3.64435e-05
3.82235e-05
3.99224e-05
4.15386e-05
4.307e-05
4.45144e-05
4.58697e-05
4.7134e-05
4.83052e-05
4.93818e-05
5.03623e-05
5.12456e-05
5.20311e-05
5.27186e-05
5.33085e-05
5.38021e-05
5.42018e-05
5.45113e-05
5.47356e-05
5.48817e-05
5.49547e-05
5.49548e-05
5.48818e-05
5.47358e-05
5.45115e-05
5.42021e-05
5.38025e-05
5.3309e-05
5.27192e-05
5.20318e-05
5.12464e-05
5.03632e-05
4.93828e-05
4.83064e-05
4.71353e-05
4.58712e-05
4.45159e-05
4.30716e-05
4.15404e-05
3.99243e-05
3.82255e-05
3.64456e-05
3.45856e-05
3.26446e-05
3.06203e-05
2.85089e-05
2.63051e-05
2.40007e-05
2.15834e-05
1.90338e-05
1.63206e-05
1.33919e-05
1.0156e-05
6.43354e-06
1.33794e-08
5.01129e-11
5.00997e-11
1.33761e-08
6.4324e-06
1.01545e-05
1.33901e-05
1.63186e-05
1.90317e-05
2.15812e-05
2.39984e-05
2.63028e-05
2.85066e-05
3.0618e-05
3.26424e-05
3.45834e-05
3.64435e-05
3.82235e-05
3.99224e-05
4.15386e-05
4.307e-05
4.45144e-05
4.58697e-05
4.7134e-05
4.83052e-05
4.93818e-05
5.03623e-05
5.12456e-05
5.20311e-05
5.27186e-05
5.33085e-05
5.38021e-05
5.42018e-05
5.45113e-05
5.47356e-05
5.48817e-05
5.49547e-05
5.49548e-05
5.48818e-05
5.47358e-05
5.45115e-05
5.42021e-05
5.38025e-05
5.3309e-05
5.27192e-05
5.20318e-05
5.12464e-05
5.03632e-05
4.93828e-05
4.83064e-05
4.71353e-05
4.58712e-05
4.45159e-05
4.30716e-05
4.15404e-05
3.99243e-05
3.82255e-05
3.64456e-05
3.45856e-05
3.26446e-05
3.06203e-05
2.85089e-05
2.63051e-05
2.40007e-05
2.15834e-05
1.90338e-05
1.63206e-05
1.33919e-05
1.0156e-05
6.43354e-06
1.33794e-08
5.01129e-11
5.00997e-11
1.33761e-08
6.4324e-06
1.01545e-05
1.33901e-05
1.63186e-05
1.90317e-05
2.15812e-05
2.39984e-05
2.63028e-05
2.85066e-05
3.0618e-05
3.26424e-05
3.45834e-05
3.64435e-05
3.82235e-05
3.99224e-05
4.15386e-05
4.307e-05
4.45144e-05
4.58697e-05
4.7134e-05
4.83052e-05
4.93818e-05
5.03623e-05
5.12456e-05
5.20311e-05
5.27186e-05
5.33085e-05
5.38021e-05
5.42018e-05
5.45113e-05
5.47356e-05
5.48817e-05
5.49547e-05
5.49548e-05
5.48818e-05
5.47358e-05
5.45115e-05
5.42021e-05
5.38025e-05
5.3309e-05
5.27192e-05
5.20318e-05
5.12464e-05
5.03632e-05
4.93828e-05
4.83064e-05
4.71353e-05
4.58712e-05
4.45159e-05
4.30716e-05
4.15404e-05
3.99243e-05
3.82255e-05
3.64456e-05
3.45856e-05
3.26446e-05
3.06203e-05
2.85089e-05
2.63051e-05
2.40007e-05
2.15834e-05
1.90338e-05
1.63206e-05
1.33919e-05
1.0156e-05
6.43354e-06
1.33794e-08
5.01129e-11
5.00997e-11
1.33761e-08
6.4324e-06
1.01545e-05
1.33901e-05
1.63186e-05
1.90317e-05
2.15812e-05
2.39984e-05
2.63028e-05
2.85066e-05
3.0618e-05
3.26424e-05
3.45834e-05
3.64435e-05
3.82235e-05
3.99224e-05
4.15386e-05
4.307e-05
4.45144e-05
4.58697e-05
4.7134e-05
4.83052e-05
4.93818e-05
5.03623e-05
5.12456e-05
5.20311e-05
5.27186e-05
5.33085e-05
5.38021e-05
5.42018e-05
5.45113e-05
5.47356e-05
5.48817e-05
5.49547e-05
5.49548e-05
5.48818e-05
5.47358e-05
5.45115e-05
5.42021e-05
5.38025e-05
5.3309e-05
5.27192e-05
5.20318e-05
5.12464e-05
5.03632e-05
4.93828e-05
4.83064e-05
4.71353e-05
4.58712e-05
4.45159e-05
4.30716e-05
4.15404e-05
3.99243e-05
3.82255e-05
3.64456e-05
3.45856e-05
3.26446e-05
3.06203e-05
2.85089e-05
2.63051e-05
2.40007e-05
2.15834e-05
1.90338e-05
1.63206e-05
1.33919e-05
1.0156e-05
6.43354e-06
1.33794e-08
5.01129e-11
5.00997e-11
1.33761e-08
6.4324e-06
1.01545e-05
1.33901e-05
1.63186e-05
1.90317e-05
2.15812e-05
2.39984e-05
2.63028e-05
2.85066e-05
3.0618e-05
3.26424e-05
3.45834e-05
3.64435e-05
3.82235e-05
3.99224e-05
4.15386e-05
4.307e-05
4.45144e-05
4.58697e-05
4.7134e-05
4.83052e-05
4.93818e-05
5.03623e-05
5.12456e-05
5.20311e-05
5.27186e-05
5.33085e-05
5.38021e-05
5.42018e-05
5.45113e-05
5.47356e-05
5.48817e-05
5.49547e-05
5.49548e-05
5.48818e-05
5.47358e-05
5.45115e-05
5.42021e-05
5.38025e-05
5.3309e-05
5.27192e-05
5.20318e-05
5.12464e-05
5.03632e-05
4.93828e-05
4.83064e-05
4.71353e-05
4.58712e-05
4.45159e-05
4.30716e-05
4.15404e-05
3.99243e-05
3.82255e-05
3.64456e-05
3.45856e-05
3.26446e-05
3.06203e-05
2.85089e-05
2.63051e-05
2.40007e-05
2.15834e-05
1.90338e-05
1.63206e-05
1.33919e-05
1.0156e-05
6.43354e-06
1.33794e-08
5.01129e-11
5.00997e-11
1.33761e-08
6.4324e-06
1.01545e-05
1.33901e-05
1.63186e-05
1.90317e-05
2.15812e-05
2.39984e-05
2.63028e-05
2.85066e-05
3.0618e-05
3.26424e-05
3.45834e-05