/*--------------------------------*- C++ -*----------------------------------*\
  =========                 |
  \\      /  F ield         | OpenFOAM: The Open Source CFD Toolbox
   \\    /   O peration     | Website:  https://openfoam.org
    \\  /    A nd           | Version:  13
     \\/     M anipulation  |
\*---------------------------------------------------------------------------*/
FoamFile
{
    format      ascii;
    class       volScalarField;
    location    "50";
    object      rhok;
}
// * * * * * * * * * * * * * * * * * * * * * * * * * * * * * * * * * * * * * //

dimensions      [];

internalField   nonuniform List<scalar> 
315000
(
0.444401
0.420912
0.413827
0.412423
0.411424
0.410315
0.409167
0.408012
0.406861
0.40572
0.40459
0.403475
0.402374
0.401288
0.400217
0.399164
0.398127
0.397108
0.396108
0.395126
0.394163
0.39322
0.392297
0.391395
0.390514
0.389654
0.388815
0.387998
0.387203
0.386431
0.38568
0.384951
0.384244
0.38356
0.382897
0.382256
0.381637
0.381038
0.380461
0.379904
0.379368
0.378851
0.378354
0.377876
0.377416
0.376975
0.37655
0.376143
0.375752
0.375376
0.375016
0.37467
0.374337
0.374018
0.373711
0.373416
0.373132
0.372859
0.372594
0.372339
0.372092
0.371852
0.371618
0.371391
0.371168
0.37095
0.370735
0.370523
0.370313
0.370104
0.444401
0.42089
0.413804
0.412404
0.411406
0.410298
0.409151
0.407997
0.406846
0.405705
0.404576
0.403461
0.402359
0.401273
0.400203
0.399149
0.398112
0.397093
0.396092
0.39511
0.394147
0.393204
0.39228
0.391378
0.390496
0.389636
0.388797
0.38798
0.387185
0.386412
0.385661
0.384933
0.384226
0.383541
0.382879
0.382238
0.381618
0.38102
0.380443
0.379887
0.379351
0.378834
0.378337
0.37786
0.3774
0.376959
0.376535
0.376128
0.375738
0.375363
0.375003
0.374657
0.374326
0.374007
0.373701
0.373407
0.373123
0.37285
0.372587
0.372332
0.372085
0.371846
0.371613
0.371386
0.371164
0.370947
0.370733
0.370521
0.370312
0.370104
0.444401
0.420887
0.413799
0.4124
0.411402
0.410293
0.409147
0.407992
0.406841
0.4057
0.404571
0.403456
0.402354
0.401268
0.400198
0.399143
0.398106
0.397087
0.396086
0.395103
0.39414
0.393196
0.392273
0.39137
0.390488
0.389627
0.388788
0.387971
0.387176
0.386402
0.385651
0.384922
0.384216
0.383531
0.382868
0.382227
0.381608
0.381009
0.380432
0.379876
0.37934
0.378824
0.378327
0.377849
0.37739
0.376949
0.376525
0.376119
0.375728
0.375354
0.374994
0.374649
0.374318
0.373999
0.373694
0.3734
0.373117
0.372844
0.372581
0.372327
0.37208
0.371842
0.371609
0.371383
0.371162
0.370944
0.370731
0.37052
0.370311
0.370103
0.444401
0.420891
0.413805
0.412405
0.411407
0.410298
0.409151
0.407996
0.406845
0.405704
0.404574
0.403458
0.402356
0.40127
0.400199
0.399145
0.398107
0.397088
0.396086
0.395103
0.394139
0.393195
0.392272
0.391369
0.390486
0.389625
0.388786
0.387969
0.387173
0.386399
0.385648
0.384919
0.384212
0.383527
0.382864
0.382222
0.381603
0.381004
0.380427
0.37987
0.379334
0.378818
0.378321
0.377843
0.377384
0.376943
0.376519
0.376113
0.375722
0.375348
0.374988
0.374643
0.374312
0.373994
0.373689
0.373395
0.373112
0.37284
0.372577
0.372323
0.372077
0.371839
0.371607
0.371381
0.37116
0.370943
0.37073
0.370519
0.370311
0.370103
0.444401
0.4209
0.413836
0.412429
0.41142
0.410309
0.409162
0.408007
0.406855
0.405713
0.404583
0.403466
0.402364
0.401277
0.400205
0.399151
0.398113
0.397093
0.396091
0.395108
0.394144
0.3932
0.392276
0.391372
0.39049
0.389629
0.388789
0.387971
0.387175
0.386401
0.385649
0.38492
0.384212
0.383527
0.382864
0.382222
0.381602
0.381003
0.380426
0.379869
0.379332
0.378816
0.378319
0.377841
0.377382
0.37694
0.376517
0.37611
0.375719
0.375345
0.374985
0.37464
0.374309
0.373991
0.373686
0.373392
0.37311
0.372837
0.372575
0.372321
0.372075
0.371837
0.371605
0.371379
0.371158
0.370942
0.370729
0.370519
0.37031
0.370103
0.444364
0.418813
0.414815
0.413109
0.411703
0.410429
0.409214
0.408031
0.406868
0.405722
0.40459
0.403473
0.40237
0.401283
0.400212
0.399157
0.39812
0.3971
0.396098
0.395115
0.394151
0.393206
0.392282
0.391379
0.390496
0.389634
0.388794
0.387976
0.38718
0.386406
0.385654
0.384924
0.384216
0.38353
0.382866
0.382224
0.381604
0.381005
0.380427
0.37987
0.379333
0.378816
0.378319
0.377841
0.377381
0.37694
0.376516
0.376109
0.375719
0.375344
0.374984
0.374639
0.374308
0.37399
0.373685
0.373391
0.373108
0.372836
0.372573
0.37232
0.372074
0.371836
0.371604
0.371378
0.371158
0.370941
0.370728
0.370518
0.37031
0.370103
0.444364
0.418805
0.414807
0.413106
0.411701
0.410427
0.409214
0.408032
0.40687
0.405724
0.404593
0.403477
0.402375
0.401289
0.400218
0.399164
0.398126
0.397107
0.396105
0.395122
0.394158
0.393213
0.392289
0.391386
0.390503
0.389641
0.388801
0.387983
0.387186
0.386412
0.385659
0.384929
0.384221
0.383535
0.382871
0.382228
0.381608
0.381008
0.38043
0.379872
0.379335
0.378818
0.378321
0.377842
0.377382
0.376941
0.376517
0.376109
0.375719
0.375344
0.374984
0.374639
0.374308
0.37399
0.373684
0.37339
0.373108
0.372836
0.372573
0.372319
0.372074
0.371835
0.371604
0.371378
0.371157
0.370941
0.370728
0.370518
0.37031
0.370103
0.444364
0.418807
0.414809
0.413108
0.411704
0.41043
0.409217
0.408035
0.406874
0.405729
0.404598
0.403482
0.402381
0.401295
0.400224
0.39917
0.398133
0.397114
0.396112
0.395129
0.394165
0.393221
0.392296
0.391393
0.39051
0.389648
0.388808
0.387989
0.387192
0.386417
0.385665
0.384934
0.384226
0.383539
0.382875
0.382232
0.381611
0.381012
0.380433
0.379875
0.379338
0.378821
0.378323
0.377844
0.377384
0.376942
0.376518
0.37611
0.37572
0.375345
0.374985
0.37464
0.374308
0.37399
0.373684
0.373391
0.373108
0.372835
0.372573
0.372319
0.372073
0.371835
0.371604
0.371378
0.371157
0.370941
0.370728
0.370518
0.37031
0.370103
0.444364
0.41881
0.414813
0.413112
0.411708
0.410435
0.409222
0.408041
0.40688
0.405735
0.404604
0.403488
0.402387
0.401301
0.400231
0.399177
0.39814
0.39712
0.396119
0.395135
0.394172
0.393227
0.392303
0.391399
0.390516
0.389654
0.388813
0.387994
0.387197
0.386423
0.38567
0.384939
0.38423
0.383544
0.382879
0.382236
0.381615
0.381015
0.380436
0.379878
0.37934
0.378823
0.378325
0.377846
0.377386
0.376944
0.376519
0.376112
0.375721
0.375345
0.374985
0.37464
0.374309
0.37399
0.373685
0.373391
0.373108
0.372836
0.372573
0.372319
0.372073
0.371835
0.371604
0.371378
0.371157
0.370941
0.370728
0.370518
0.37031
0.370103
0.444364
0.418814
0.414817
0.413117
0.411713
0.41044
0.409227
0.408046
0.406885
0.40574
0.40461
0.403494
0.402393
0.401307
0.400237
0.399183
0.398145
0.397126
0.396124
0.395141
0.394177
0.393233
0.392308
0.391404
0.390521
0.389659
0.388818
0.387999
0.387202
0.386427
0.385674
0.384943
0.384234
0.383547
0.382882
0.382239
0.381618
0.381017
0.380438
0.37988
0.379342
0.378825
0.378326
0.377847
0.377387
0.376945
0.37652
0.376113
0.375722
0.375346
0.374986
0.374641
0.374309
0.373991
0.373685
0.373391
0.373108
0.372836
0.372573
0.372319
0.372074
0.371835
0.371604
0.371378
0.371157
0.370941
0.370728
0.370518
0.37031
0.370103
0.444364
0.418817
0.414821
0.413121
0.411717
0.410444
0.409231
0.40805
0.406889
0.405744
0.404614
0.403498
0.402397
0.401311
0.400241
0.399187
0.39815
0.39713
0.396128
0.395145
0.394181
0.393236
0.392312
0.391408
0.390524
0.389662
0.388821
0.388002
0.387205
0.38643
0.385676
0.384945
0.384236
0.383549
0.382884
0.382241
0.38162
0.381019
0.38044
0.379882
0.379344
0.378826
0.378328
0.377849
0.377388
0.376946
0.376521
0.376113
0.375722
0.375347
0.374987
0.374641
0.37431
0.373991
0.373685
0.373391
0.373109
0.372836
0.372573
0.372319
0.372074
0.371835
0.371604
0.371378
0.371157
0.370941
0.370728
0.370518
0.37031
0.370103
0.444364
0.41882
0.414824
0.413124
0.41172
0.410447
0.409234
0.408053
0.406892
0.405747
0.404617
0.403501
0.4024
0.401314
0.400244
0.39919
0.398153
0.397133
0.396131
0.395148
0.394184
0.393239
0.392314
0.39141
0.390527
0.389664
0.388824
0.388004
0.387207
0.386432
0.385678
0.384947
0.384238
0.383551
0.382886
0.382243
0.381621
0.381021
0.380441
0.379883
0.379345
0.378827
0.378329
0.377849
0.377389
0.376946
0.376522
0.376114
0.375723
0.375347
0.374987
0.374642
0.37431
0.373991
0.373686
0.373392
0.373109
0.372836
0.372573
0.37232
0.372074
0.371835
0.371604
0.371378
0.371157
0.370941
0.370728
0.370518
0.37031
0.370103
0.444364
0.418823
0.414828
0.413128
0.411724
0.410451
0.409238
0.408057
0.406896
0.40575
0.40462
0.403504
0.402402
0.401316
0.400246
0.399191
0.398154
0.397134
0.396132
0.395149
0.394185
0.39324
0.392316
0.391411
0.390528
0.389666
0.388825
0.388005
0.387208
0.386433
0.385679
0.384948
0.384239
0.383552
0.382887
0.382243
0.381622
0.381021
0.380442
0.379884
0.379346
0.378828
0.378329
0.37785
0.377389
0.376947
0.376522
0.376114
0.375723
0.375348
0.374987
0.374642
0.37431
0.373992
0.373686
0.373392
0.373109
0.372836
0.372574
0.37232
0.372074
0.371836
0.371604
0.371378
0.371157
0.370941
0.370728
0.370518
0.37031
0.370103
0.444365
0.418832
0.414836
0.413143
0.411742
0.410465
0.409248
0.408064
0.406901
0.405754
0.404623
0.403506
0.402404
0.401317
0.400247
0.399192
0.398155
0.397135
0.396133
0.395149
0.394185
0.39324
0.392316
0.391412
0.390528
0.389666
0.388825
0.388006
0.387208
0.386433
0.38568
0.384948
0.384239
0.383552
0.382887
0.382244
0.381622
0.381022
0.380442
0.379884
0.379346
0.378828
0.378329
0.37785
0.37739
0.376947
0.376522
0.376114
0.375723
0.375348
0.374988
0.374642
0.37431
0.373992
0.373686
0.373392
0.373109
0.372836
0.372574
0.37232
0.372074
0.371836
0.371604
0.371378
0.371157
0.370941
0.370728
0.370518
0.37031
0.370103
0.444402
0.420923
0.413861
0.412459
0.411458
0.410346
0.409197
0.408041
0.40689
0.405748
0.404619
0.403503
0.402401
0.401315
0.400245
0.39919
0.398153
0.397133
0.396131
0.395148
0.394184
0.393239
0.392315
0.391411
0.390528
0.389665
0.388825
0.388005
0.387208
0.386433
0.38568
0.384948
0.384239
0.383552
0.382887
0.382244
0.381622
0.381022
0.380443
0.379884
0.379346
0.378828
0.37833
0.37785
0.37739
0.376947
0.376522
0.376115
0.375723
0.375348
0.374988
0.374642
0.37431
0.373992
0.373686
0.373392
0.373109
0.372836
0.372574
0.37232
0.372074
0.371836
0.371604
0.371378
0.371157
0.370941
0.370728
0.370518
0.37031
0.370103
0.444401
0.420914
0.413835
0.412436
0.411439
0.410331
0.409185
0.408031
0.406881
0.405741
0.404613
0.403498
0.402397
0.401311
0.400241
0.399187
0.39815
0.397131
0.396129
0.395146
0.394182
0.393238
0.392314
0.39141
0.390527
0.389665
0.388824
0.388005
0.387208
0.386432
0.385679
0.384948
0.384239
0.383552
0.382887
0.382244
0.381622
0.381022
0.380443
0.379884
0.379346
0.378828
0.37833
0.37785
0.37739
0.376947
0.376522
0.376115
0.375723
0.375348
0.374988
0.374642
0.37431
0.373992
0.373686
0.373392
0.373109
0.372836
0.372574
0.37232
0.372074
0.371836
0.371604
0.371378
0.371157
0.370941
0.370728
0.370518
0.37031
0.370103
0.444401
0.42091
0.41383
0.412431
0.411433
0.410326
0.40918
0.408027
0.406877
0.405737
0.404609
0.403494
0.402394
0.401308
0.400238
0.399185
0.398148
0.397129
0.396127
0.395145
0.394181
0.393237
0.392313
0.391409
0.390526
0.389664
0.388823
0.388004
0.387207
0.386432
0.385679
0.384948
0.384239
0.383552
0.382887
0.382244
0.381622
0.381022
0.380443
0.379884
0.379346
0.378828
0.37833
0.37785
0.37739
0.376947
0.376522
0.376115
0.375723
0.375348
0.374988
0.374642
0.37431
0.373992
0.373686
0.373392
0.373109
0.372836
0.372574
0.37232
0.372074
0.371836
0.371604
0.371378
0.371157
0.370941
0.370728
0.370518
0.37031
0.370103
0.444401
0.420909
0.413828
0.412429
0.411431
0.410324
0.409178
0.408025
0.406875
0.405735
0.404607
0.403493
0.402392
0.401307
0.400237
0.399184
0.398147
0.397128
0.396127
0.395144
0.39418
0.393236
0.392312
0.391408
0.390525
0.389664
0.388823
0.388004
0.387207
0.386432
0.385679
0.384948
0.384239
0.383552
0.382887
0.382244
0.381622
0.381022
0.380443
0.379884
0.379346
0.378828
0.37833
0.37785
0.37739
0.376947
0.376522
0.376115
0.375723
0.375348
0.374988
0.374642
0.37431
0.373992
0.373686
0.373392
0.373109
0.372836
0.372574
0.37232
0.372074
0.371836
0.371604
0.371378
0.371157
0.370941
0.370728
0.370518
0.37031
0.370103
0.444401
0.420908
0.413827
0.412428
0.411431
0.410323
0.409178
0.408024
0.406875
0.405735
0.404607
0.403492
0.402392
0.401306
0.400237
0.399183
0.398147
0.397127
0.396126
0.395144
0.39418
0.393236
0.392312
0.391408
0.390525
0.389663
0.388823
0.388004
0.387207
0.386432
0.385679
0.384948
0.384239
0.383552
0.382887
0.382244
0.381622
0.381022
0.380443
0.379884
0.379346
0.378828
0.37833
0.37785
0.37739
0.376947
0.376522
0.376115
0.375723
0.375348
0.374988
0.374642
0.37431
0.373992
0.373686
0.373392
0.373109
0.372836
0.372574
0.37232
0.372074
0.371836
0.371604
0.371378
0.371157
0.370941
0.370728
0.370518
0.37031
0.370103
0.444401
0.420908
0.413827
0.412428
0.411431
0.410323
0.409178
0.408024
0.406874
0.405734
0.404606
0.403492
0.402391
0.401306
0.400236
0.399183
0.398146
0.397127
0.396126
0.395144
0.39418
0.393236
0.392312
0.391408
0.390525
0.389663
0.388823
0.388004
0.387207
0.386432
0.385679
0.384948
0.384239
0.383552
0.382887
0.382244
0.381622
0.381022
0.380443
0.379884
0.379346
0.378828
0.37833
0.37785
0.37739
0.376947
0.376522
0.376115
0.375723
0.375348
0.374988
0.374642
0.37431
0.373992
0.373686
0.373392
0.373109
0.372836
0.372574
0.37232
0.372074
0.371836
0.371604
0.371378
0.371157
0.370941
0.370728
0.370518
0.37031
0.370103
0.444401
0.420908
0.413827
0.412428
0.41143
0.410323
0.409177
0.408024
0.406874
0.405734
0.404606
0.403492
0.402391
0.401306
0.400236
0.399183
0.398146
0.397127
0.396126
0.395144
0.39418
0.393236
0.392312
0.391408
0.390525
0.389663
0.388823
0.388004
0.387207
0.386432
0.385679
0.384948
0.384239
0.383552
0.382887
0.382244
0.381622
0.381022
0.380443
0.379884
0.379346
0.378828
0.37833
0.37785
0.37739
0.376947
0.376522
0.376115
0.375723
0.375348
0.374988
0.374642
0.37431
0.373992
0.373686
0.373392
0.373109
0.372836
0.372574
0.37232
0.372074
0.371836
0.371604
0.371378
0.371157
0.370941
0.370728
0.370518
0.37031
0.370103
0.444401
0.420908
0.413827
0.412428
0.41143
0.410323
0.409177
0.408024
0.406874
0.405734
0.404606
0.403492
0.402391
0.401306
0.400236
0.399183
0.398146
0.397127
0.396126
0.395144
0.39418
0.393236
0.392312
0.391408
0.390525
0.389663
0.388823
0.388004
0.387207
0.386432
0.385679
0.384948
0.384239
0.383552
0.382887
0.382244
0.381622
0.381022
0.380443
0.379884
0.379346
0.378828
0.37833
0.37785
0.37739
0.376947
0.376522
0.376115
0.375723
0.375348
0.374988
0.374642
0.37431
0.373992
0.373686
0.373392
0.373109
0.372836
0.372574
0.37232
0.372074
0.371836
0.371604
0.371378
0.371157
0.370941
0.370728
0.370518
0.37031
0.370103
0.444401
0.420908
0.413827
0.412428
0.41143
0.410323
0.409177
0.408024
0.406874
0.405734
0.404606
0.403492
0.402391
0.401306
0.400236
0.399183
0.398146
0.397127
0.396126
0.395144
0.39418
0.393236
0.392312
0.391408
0.390525
0.389663
0.388823
0.388004
0.387207
0.386432
0.385679
0.384948
0.384239
0.383552
0.382887
0.382244
0.381622
0.381022
0.380443
0.379884
0.379346
0.378828
0.37833
0.37785
0.37739
0.376947
0.376522
0.376115
0.375723
0.375348
0.374988
0.374642
0.37431
0.373992
0.373686
0.373392
0.373109
0.372836
0.372574
0.37232
0.372074
0.371836
0.371604
0.371378
0.371157
0.370941
0.370728
0.370518
0.37031
0.370103
0.444401
0.420908
0.413827
0.412428
0.41143
0.410323
0.409177
0.408024
0.406874
0.405734
0.404606
0.403492
0.402391
0.401306
0.400236
0.399183
0.398146
0.397127
0.396126
0.395144
0.39418
0.393236
0.392312
0.391408
0.390525
0.389663
0.388823
0.388004
0.387207
0.386432
0.385679
0.384948
0.384239
0.383552
0.382887
0.382244
0.381622
0.381022
0.380443
0.379884
0.379346
0.378828
0.37833
0.37785
0.37739
0.376947
0.376522
0.376115
0.375723
0.375348
0.374988
0.374642
0.37431
0.373992
0.373686
0.373392
0.373109
0.372836
0.372574
0.37232
0.372074
0.371836
0.371604
0.371378
0.371157
0.370941
0.370728
0.370518
0.37031
0.370103
0.444401
0.420908
0.413827
0.412428
0.41143
0.410323
0.409177
0.408024
0.406874
0.405734
0.404606
0.403492
0.402391
0.401306
0.400236
0.399183
0.398146
0.397127
0.396126
0.395144
0.39418
0.393236
0.392312
0.391408
0.390525
0.389663
0.388823
0.388004
0.387207
0.386432
0.385679
0.384948
0.384239
0.383552
0.382887
0.382244
0.381622
0.381022
0.380443
0.379884
0.379346
0.378828
0.37833
0.37785
0.37739
0.376947
0.376522
0.376115
0.375723
0.375348
0.374988
0.374642
0.37431
0.373992
0.373686
0.373392
0.373109
0.372836
0.372574
0.37232
0.372074
0.371836
0.371604
0.371378
0.371157
0.370941
0.370728
0.370518
0.37031
0.370103
0.444401
0.420908
0.413827
0.412428
0.41143
0.410323
0.409177
0.408024
0.406874
0.405734
0.404606
0.403492
0.402391
0.401306
0.400236
0.399183
0.398146
0.397127
0.396126
0.395144
0.39418
0.393236
0.392312
0.391408
0.390525
0.389663
0.388823
0.388004
0.387207
0.386432
0.385679
0.384948
0.384239
0.383552
0.382887
0.382244
0.381622
0.381022
0.380443
0.379884
0.379346
0.378828
0.37833
0.37785
0.37739
0.376947
0.376522
0.376115
0.375723
0.375348
0.374988
0.374642
0.37431
0.373992
0.373686
0.373392
0.373109
0.372836
0.372574
0.37232
0.372074
0.371836
0.371604
0.371378
0.371157
0.370941
0.370728
0.370518
0.37031
0.370103
0.444401
0.420908
0.413827
0.412428
0.41143
0.410323
0.409177
0.408024
0.406874
0.405734
0.404606
0.403492
0.402391
0.401306
0.400236
0.399183
0.398146
0.397127
0.396126
0.395144
0.39418
0.393236
0.392312
0.391408
0.390525
0.389663
0.388823
0.388004
0.387207
0.386432
0.385679
0.384948
0.384239
0.383552
0.382887
0.382244
0.381622
0.381022
0.380443
0.379884
0.379346
0.378828
0.37833
0.37785
0.37739
0.376947
0.376522
0.376115
0.375723
0.375348
0.374988
0.374642
0.37431
0.373992
0.373686
0.373392
0.373109
0.372836
0.372574
0.37232
0.372074
0.371836
0.371604
0.371378
0.371157
0.370941
0.370728
0.370518
0.37031
0.370103
0.444401
0.420908
0.413827
0.412428
0.41143
0.410323
0.409177
0.408024
0.406874
0.405734
0.404606
0.403492
0.402391
0.401306
0.400236
0.399183
0.398146
0.397127
0.396126
0.395144
0.39418
0.393236
0.392312
0.391408
0.390525
0.389663
0.388823
0.388004
0.387207
0.386432
0.385679
0.384948
0.384239
0.383552
0.382887
0.382244
0.381622
0.381022
0.380443
0.379884
0.379346
0.378828
0.37833
0.37785
0.37739
0.376947
0.376522
0.376115
0.375723
0.375348
0.374988
0.374642
0.37431
0.373992
0.373686
0.373392
0.373109
0.372836
0.372574
0.37232
0.372074
0.371836
0.371604
0.371378
0.371157
0.370941
0.370728
0.370518
0.37031
0.370103
0.444401
0.420908
0.413827
0.412428
0.41143
0.410323
0.409177
0.408024
0.406874
0.405734
0.404606
0.403492
0.402391
0.401306
0.400236
0.399183
0.398146
0.397127
0.396126
0.395144
0.39418
0.393236
0.392312
0.391408
0.390525
0.389663
0.388823
0.388004
0.387207
0.386432
0.385679
0.384948
0.384239
0.383552
0.382887
0.382244
0.381622
0.381022
0.380443
0.379884
0.379346
0.378828
0.37833
0.37785
0.37739
0.376947
0.376522
0.376115
0.375723
0.375348
0.374988
0.374642
0.37431
0.373992
0.373686
0.373392
0.373109
0.372836
0.372574
0.37232
0.372074
0.371836
0.371604
0.371378
0.371157
0.370941
0.370728
0.370518
0.37031
0.370103
0.444401
0.420908
0.413827
0.412428
0.41143
0.410323
0.409177
0.408024
0.406874
0.405734
0.404606
0.403492
0.402391
0.401306
0.400236
0.399183
0.398146
0.397127
0.396126
0.395144
0.39418
0.393236
0.392312
0.391408
0.390525
0.389663
0.388823
0.388004
0.387207
0.386432
0.385679
0.384948
0.384239
0.383552
0.382887
0.382244
0.381622
0.381022
0.380443
0.379884
0.379346
0.378828
0.37833
0.37785
0.37739
0.376947
0.376522
0.376115
0.375723
0.375348
0.374988
0.374642
0.37431
0.373992
0.373686
0.373392
0.373109
0.372836
0.372574
0.37232
0.372074
0.371836
0.371604
0.371378
0.371157
0.370941
0.370728
0.370518
0.37031
0.370103
0.444401
0.420908
0.413827
0.412428
0.41143
0.410323
0.409177
0.408024
0.406874
0.405734
0.404606
0.403492
0.402391
0.401306
0.400236
0.399183
0.398146
0.397127
0.396126
0.395144
0.39418
0.393236
0.392312
0.391408
0.390525
0.389663
0.388823
0.388004
0.387207
0.386432
0.385679
0.384948
0.384239
0.383552
0.382887
0.382244
0.381622
0.381022
0.380443
0.379884
0.379346
0.378828
0.37833
0.37785
0.37739
0.376947
0.376522
0.376115
0.375723
0.375348
0.374988
0.374642
0.37431
0.373992
0.373686
0.373392
0.373109
0.372836
0.372574
0.37232
0.372074
0.371836
0.371604
0.371378
0.371157
0.370941
0.370728
0.370518
0.37031
0.370103
0.444401
0.420908
0.413827
0.412428
0.41143
0.410323
0.409177
0.408024
0.406874
0.405734
0.404606
0.403492
0.402391
0.401306
0.400236
0.399183
0.398146
0.397127
0.396126
0.395144
0.39418
0.393236
0.392312
0.391408
0.390525
0.389663
0.388823
0.388004
0.387207
0.386432
0.385679
0.384948
0.384239
0.383552
0.382887
0.382244
0.381622
0.381022
0.380443
0.379884
0.379346
0.378828
0.37833
0.37785
0.37739
0.376947
0.376522
0.376115
0.375723
0.375348
0.374988
0.374642
0.37431
0.373992
0.373686
0.373392
0.373109
0.372836
0.372574
0.37232
0.372074
0.371836
0.371604
0.371378
0.371157
0.370941
0.370728
0.370518
0.37031
0.370103
0.444401
0.420908
0.413827
0.412428
0.41143
0.410323
0.409177
0.408024
0.406874
0.405734
0.404606
0.403492
0.402391
0.401306
0.400236
0.399183
0.398146
0.397127
0.396126
0.395144
0.39418
0.393236
0.392312
0.391408
0.390525
0.389663
0.388823
0.388004
0.387207
0.386432
0.385679
0.384948
0.384239
0.383552
0.382887
0.382244
0.381622
0.381022
0.380443
0.379884
0.379346
0.378828
0.37833
0.37785
0.37739
0.376947
0.376522
0.376115
0.375723
0.375348
0.374988
0.374642
0.37431
0.373992
0.373686
0.373392
0.373109
0.372836
0.372574
0.37232
0.372074
0.371836
0.371604
0.371378
0.371157
0.370941
0.370728
0.370518
0.37031
0.370103
0.444401
0.420908
0.413827
0.412428
0.41143
0.410323
0.409177
0.408024
0.406874
0.405734
0.404606
0.403492
0.402391
0.401306
0.400236
0.399183
0.398146
0.397127
0.396126
0.395144
0.39418
0.393236
0.392312
0.391408
0.390525
0.389663
0.388823
0.388004
0.387207
0.386432
0.385679
0.384948
0.384239
0.383552
0.382887
0.382244
0.381622
0.381022
0.380443
0.379884
0.379346
0.378828
0.37833
0.37785
0.37739
0.376947
0.376522
0.376115
0.375723
0.375348
0.374988
0.374642
0.37431
0.373992
0.373686
0.373392
0.373109
0.372836
0.372574
0.37232
0.372074
0.371836
0.371604
0.371378
0.371157
0.370941
0.370728
0.370518
0.37031
0.370103
0.444401
0.420908
0.413827
0.412428
0.41143
0.410323
0.409177
0.408024
0.406874
0.405734
0.404606
0.403492
0.402391
0.401306
0.400236
0.399183
0.398146
0.397127
0.396126
0.395144
0.39418
0.393236
0.392312
0.391408
0.390525
0.389663
0.388823
0.388004
0.387207
0.386432
0.385679
0.384948
0.384239
0.383552
0.382887
0.382244
0.381622
0.381022
0.380443
0.379884
0.379346
0.378828
0.37833
0.37785
0.37739
0.376947
0.376522
0.376115
0.375723
0.375348
0.374988
0.374642
0.37431
0.373992
0.373686
0.373392
0.373109
0.372836
0.372574
0.37232
0.372074
0.371836
0.371604
0.371378
0.371157
0.370941
0.370728
0.370518
0.37031
0.370103
0.444401
0.420908
0.413827
0.412428
0.41143
0.410323
0.409177
0.408024
0.406874
0.405734
0.404606
0.403492
0.402391
0.401306
0.400236
0.399183
0.398146
0.397127
0.396126
0.395144
0.39418
0.393236
0.392312
0.391408
0.390525
0.389663
0.388823
0.388004
0.387207
0.386432
0.385679
0.384948
0.384239
0.383552
0.382887
0.382244
0.381622
0.381022
0.380443
0.379884
0.379346
0.378828
0.37833
0.37785
0.37739
0.376947
0.376522
0.376115
0.375723
0.375348
0.374988
0.374642
0.37431
0.373992
0.373686
0.373392
0.373109
0.372836
0.372574
0.37232
0.372074
0.371836
0.371604
0.371378
0.371157
0.370941
0.370728
0.370518
0.37031
0.370103
0.444401
0.420908
0.413827
0.412428
0.41143
0.410323
0.409177
0.408024
0.406874
0.405734
0.404606
0.403492
0.402391
0.401306
0.400236
0.399183
0.398146
0.397127
0.396126
0.395144
0.39418
0.393236
0.392312
0.391408
0.390525
0.389663
0.388823
0.388004
0.387207
0.386432
0.385679
0.384948
0.384239
0.383552
0.382887
0.382244
0.381622
0.381022
0.380443
0.379884
0.379346
0.378828
0.37833
0.37785
0.37739
0.376947
0.376522
0.376115
0.375723
0.375348
0.374988
0.374642
0.37431
0.373992
0.373686
0.373392
0.373109
0.372836
0.372574
0.37232
0.372074
0.371836
0.371604
0.371378
0.371157
0.370941
0.370728
0.370518
0.37031
0.370103
0.444401
0.420908
0.413827
0.412428
0.41143
0.410323
0.409177
0.408024
0.406874
0.405734
0.404606
0.403492
0.402391
0.401306
0.400236
0.399183
0.398146
0.397127
0.396126
0.395144
0.39418
0.393236
0.392312
0.391408
0.390525
0.389663
0.388823
0.388004
0.387207
0.386432
0.385679
0.384948
0.384239
0.383552
0.382887
0.382244
0.381622
0.381022
0.380443
0.379884
0.379346
0.378828
0.37833
0.37785
0.37739
0.376947
0.376522
0.376115
0.375723
0.375348
0.374988
0.374642
0.37431
0.373992
0.373686
0.373392
0.373109
0.372836
0.372574
0.37232
0.372074
0.371836
0.371604
0.371378
0.371157
0.370941
0.370728
0.370518
0.37031
0.370103
0.444401
0.420908
0.413827
0.412428
0.41143
0.410323
0.409177
0.408024
0.406874
0.405734
0.404606
0.403492
0.402391
0.401306
0.400236
0.399183
0.398146
0.397127
0.396126
0.395144
0.39418
0.393236
0.392312
0.391408
0.390525
0.389663
0.388823
0.388004
0.387207
0.386432
0.385679
0.384948
0.384239
0.383552
0.382887
0.382244
0.381622
0.381022
0.380443
0.379884
0.379346
0.378828
0.37833
0.37785
0.37739
0.376947
0.376522
0.376115
0.375723
0.375348
0.374988
0.374642
0.37431
0.373992
0.373686
0.373392
0.373109
0.372836
0.372574
0.37232
0.372074
0.371836
0.371604
0.371378
0.371157
0.370941
0.370728
0.370518
0.37031
0.370103
0.444401
0.420908
0.413827
0.412428
0.41143
0.410323
0.409177
0.408024
0.406874
0.405734
0.404606
0.403492
0.402391
0.401306
0.400236
0.399183
0.398146
0.397127
0.396126
0.395144
0.39418
0.393236
0.392312
0.391408
0.390525
0.389663
0.388823
0.388004
0.387207
0.386432
0.385679
0.384948
0.384239
0.383552
0.382887
0.382244
0.381622
0.381022
0.380443
0.379884
0.379346
0.378828
0.37833
0.37785
0.37739
0.376947
0.376522
0.376115
0.375723
0.375348
0.374988
0.374642
0.37431
0.373992
0.373686
0.373392
0.373109
0.372836
0.372574
0.37232
0.372074
0.371836
0.371604
0.371378
0.371157
0.370941
0.370728
0.370518
0.37031
0.370103
0.444401
0.420908
0.413827
0.412428
0.41143
0.410323
0.409177
0.408024
0.406874
0.405734
0.404606
0.403492
0.402391
0.401306
0.400236
0.399183
0.398146
0.397127
0.396126
0.395144
0.39418
0.393236
0.392312
0.391408
0.390525
0.389663
0.388823
0.388004
0.387207
0.386432
0.385679
0.384948
0.384239
0.383552
0.382887
0.382244
0.381622
0.381022
0.380443
0.379884
0.379346
0.378828
0.37833
0.37785
0.37739
0.376947
0.376522
0.376115
0.375723
0.375348
0.374988
0.374642
0.37431
0.373992
0.373686
0.373392
0.373109
0.372836
0.372574
0.37232
0.372074
0.371836
0.371604
0.371378
0.371157
0.370941
0.370728
0.370518
0.37031
0.370103
0.444401
0.420908
0.413827
0.412428
0.41143
0.410323
0.409177
0.408024
0.406874
0.405734
0.404606
0.403492
0.402391
0.401306
0.400236
0.399183
0.398146
0.397127
0.396126
0.395144
0.39418
0.393236
0.392312
0.391408
0.390525
0.389663
0.388823
0.388004
0.387207
0.386432
0.385679
0.384948
0.384239
0.383552
0.382887
0.382244
0.381622
0.381022
0.380443
0.379884
0.379346
0.378828
0.37833
0.37785
0.37739
0.376947
0.376522
0.376115
0.375723
0.375348
0.374988
0.374642
0.37431
0.373992
0.373686
0.373392
0.373109
0.372836
0.372574
0.37232
0.372074
0.371836
0.371604
0.371378
0.371157
0.370941
0.370728
0.370518
0.37031
0.370103
0.444401
0.420908
0.413827
0.412428
0.41143
0.410323
0.409177
0.408024
0.406874
0.405734
0.404606
0.403492
0.402391
0.401306
0.400236
0.399183
0.398146
0.397127
0.396126
0.395144
0.39418
0.393236
0.392312
0.391408
0.390525
0.389663
0.388823
0.388004
0.387207
0.386432
0.385679
0.384948
0.384239
0.383552
0.382887
0.382244
0.381622
0.381022
0.380443
0.379884
0.379346
0.378828
0.37833
0.37785
0.37739
0.376947
0.376522
0.376115
0.375723
0.375348
0.374988
0.374642
0.37431
0.373992
0.373686
0.373392
0.373109
0.372836
0.372574
0.37232
0.372074
0.371836
0.371604
0.371378
0.371157
0.370941
0.370728
0.370518
0.37031
0.370103
0.444401
0.420908
0.413827
0.412428
0.41143
0.410323
0.409177
0.408024
0.406874
0.405734
0.404606
0.403492
0.402391
0.401306
0.400236
0.399183
0.398146
0.397127
0.396126
0.395144
0.39418
0.393236
0.392312
0.391408
0.390525
0.389663
0.388823
0.388004
0.387207
0.386432
0.385679
0.384948
0.384239
0.383552
0.382887
0.382244
0.381622
0.381022
0.380443
0.379884
0.379346
0.378828
0.37833
0.37785
0.37739
0.376947
0.376522
0.376115
0.375723
0.375348
0.374988
0.374642
0.37431
0.373992
0.373686
0.373392
0.373109
0.372836
0.372574
0.37232
0.372074
0.371836
0.371604
0.371378
0.371157
0.370941
0.370728
0.370518
0.37031
0.370103
0.444401
0.420908
0.413827
0.412428
0.41143
0.410323
0.409177
0.408024
0.406874
0.405734
0.404606
0.403492
0.402391
0.401306
0.400236
0.399183
0.398146
0.397127
0.396126
0.395144
0.39418
0.393236
0.392312
0.391408
0.390525
0.389663
0.388823
0.388004
0.387207
0.386432
0.385679
0.384948
0.384239
0.383552
0.382887
0.382244
0.381622
0.381022
0.380443
0.379884
0.379346
0.378828
0.37833
0.37785
0.37739
0.376947
0.376522
0.376115
0.375723
0.375348
0.374988
0.374642
0.37431
0.373992
0.373686
0.373392
0.373109
0.372836
0.372574
0.37232
0.372074
0.371836
0.371604
0.371378
0.371157
0.370941
0.370728
0.370518
0.37031
0.370103
0.444401
0.420908
0.413827
0.412428
0.41143
0.410323
0.409177
0.408024
0.406874
0.405734
0.404606
0.403492
0.402391
0.401306
0.400236
0.399183
0.398146
0.397127
0.396126
0.395144
0.39418
0.393236
0.392312
0.391408
0.390525
0.389663
0.388823
0.388004
0.387207
0.386432
0.385679
0.384948
0.384239
0.383552
0.382887
0.382244
0.381622
0.381022
0.380443
0.379884
0.379346
0.378828
0.37833
0.37785
0.37739
0.376947
0.376522
0.376115
0.375723
0.375348
0.374988
0.374642
0.37431
0.373992
0.373686
0.373392
0.373109
0.372836
0.372574
0.37232
0.372074
0.371836
0.371604
0.371378
0.371157
0.370941
0.370728
0.370518
0.37031
0.370103
0.444401
0.420908
0.413827
0.412428
0.41143
0.410323
0.409177
0.408024
0.406874
0.405734
0.404606
0.403492
0.402391
0.401306
0.400236
0.399183
0.398146
0.397127
0.396126
0.395144
0.39418
0.393236
0.392312
0.391408
0.390525
0.389663
0.388823
0.388004
0.387207
0.386432
0.385679
0.384948
0.384239
0.383552
0.382887
0.382244
0.381622
0.381022
0.380443
0.379884
0.379346
0.378828
0.37833
0.37785
0.37739
0.376947
0.376522
0.376115
0.375723
0.375348
0.374988
0.374642
0.37431
0.373992
0.373686
0.373392
0.373109
0.372836
0.372574
0.37232
0.372074
0.371836
0.371604
0.371378
0.371157
0.370941
0.370728
0.370518
0.37031
0.370103
0.444401
0.420908
0.413827
0.412428
0.41143
0.410323
0.409177
0.408024
0.406874
0.405734
0.404606
0.403492