/*--------------------------------*- C++ -*----------------------------------*\
  =========                 |
  \\      /  F ield         | OpenFOAM: The Open Source CFD Toolbox
   \\    /   O peration     | Website:  https://openfoam.org
    \\  /    A nd           | Version:  13
     \\/     M anipulation  |
\*---------------------------------------------------------------------------*/
FoamFile
{
    format      ascii;
    class       volScalarField;
    location    "30";
    object      nut;
}
// * * * * * * * * * * * * * * * * * * * * * * * * * * * * * * * * * * * * * //

dimensions      [0 2 -1 0 0 0 0];

internalField   nonuniform List<scalar> 
315000
(
5.52781e-13
1.44385e-10
3.28394e-09
5.855e-09
8.4148e-09
1.09543e-08
1.34669e-08
1.59465e-08
1.83859e-08
2.07773e-08
2.31122e-08
2.53819e-08
2.75778e-08
2.96918e-08
3.17165e-08
3.36453e-08
3.5473e-08
3.71954e-08
3.88096e-08
4.03138e-08
4.17074e-08
4.29907e-08
4.41651e-08
4.52323e-08
4.61944e-08
4.70539e-08
4.78137e-08
4.84769e-08
4.9047e-08
4.95275e-08
4.99217e-08
5.02328e-08
5.04634e-08
5.06158e-08
5.06914e-08
5.06911e-08
5.06149e-08
5.04621e-08
5.02312e-08
4.992e-08
4.9526e-08
4.9046e-08
4.84767e-08
4.78145e-08
4.70561e-08
4.61983e-08
4.5238e-08
4.41727e-08
4.30003e-08
4.17188e-08
4.03271e-08
3.88248e-08
3.72126e-08
3.54921e-08
3.36664e-08
3.17395e-08
2.97168e-08
2.76047e-08
2.54105e-08
2.31424e-08
2.08088e-08
1.84184e-08
1.59796e-08
1.35e-08
1.09865e-08
8.44503e-09
5.88144e-09
3.30332e-09
1.45524e-10
5.57796e-13
1.37752e-11
3.65826e-09
8.07986e-07
1.41235e-06
1.98601e-06
2.53248e-06
3.0542e-06
3.55278e-06
4.02914e-06
4.48377e-06
4.91684e-06
5.32836e-06
5.71827e-06
6.08651e-06
6.43306e-06
6.75799e-06
7.06145e-06
7.34372e-06
7.60517e-06
7.84628e-06
8.06762e-06
8.26985e-06
8.45369e-06
8.61997e-06
8.76934e-06
8.90242e-06
9.01981e-06
9.12213e-06
9.21e-06
9.28402e-06
9.34473e-06
9.39265e-06
9.42819e-06
9.45168e-06
9.46336e-06
9.46334e-06
9.45163e-06
9.42812e-06
9.39258e-06
9.34468e-06
9.284e-06
9.21006e-06
9.12228e-06
9.02009e-06
8.90287e-06
8.76998e-06
8.62081e-06
8.45473e-06
8.27107e-06
8.06903e-06
7.84787e-06
7.60696e-06
7.34571e-06
7.06364e-06
6.76039e-06
6.43567e-06
6.08934e-06
5.72131e-06
5.3316e-06
4.92026e-06
4.48735e-06
4.03284e-06
3.55652e-06
3.05791e-06
2.53603e-06
1.98925e-06
1.41506e-06
8.09835e-07
3.66828e-09
1.38156e-11
5.51735e-11
1.46748e-08
6.93301e-06
1.08355e-05
1.41756e-05
1.71473e-05
1.98488e-05
2.23357e-05
2.46422e-05
2.67906e-05
2.87959e-05
3.0669e-05
3.24179e-05
3.40491e-05
3.55679e-05
3.6979e-05
3.82867e-05
3.94952e-05
4.06083e-05
4.16298e-05
4.25635e-05
4.34124e-05
4.41793e-05
4.48813e-05
4.55187e-05
4.60917e-05
4.6601e-05
4.70481e-05
4.74344e-05
4.77617e-05
4.80316e-05
4.82455e-05
4.84048e-05
4.85104e-05
4.8563e-05
4.85629e-05
4.85102e-05
4.84046e-05
4.82453e-05
4.80314e-05
4.77616e-05
4.74345e-05
4.70483e-05
4.66015e-05
4.60925e-05
4.552e-05
4.4883e-05
4.41813e-05
4.34148e-05
4.25663e-05
4.1633e-05
4.06117e-05
3.9499e-05
3.8291e-05
3.69837e-05
3.55731e-05
3.40548e-05
3.24241e-05
3.06756e-05
2.88031e-05
2.67982e-05
2.46502e-05
2.2344e-05
1.98572e-05
1.71558e-05
1.41837e-05
1.08429e-05
6.93881e-06
1.46911e-08
5.52377e-11
8.06391e-11
2.14602e-08
9.53362e-06
1.44898e-05
1.86664e-05
2.23464e-05
2.56675e-05
2.87064e-05
3.15099e-05
3.41086e-05
3.65236e-05
3.87699e-05
4.0859e-05
4.28003e-05
4.46013e-05
4.6269e-05
4.78095e-05
4.92287e-05
5.05321e-05
5.17271e-05
5.28115e-05
5.3781e-05
5.46928e-05
4.71741e-05
4.75115e-05
4.78184e-05
4.80928e-05
4.83345e-05
4.85439e-05
4.87217e-05
4.88686e-05
4.89852e-05
4.90722e-05
4.91299e-05
4.91586e-05
4.91586e-05
4.91297e-05
4.9072e-05
4.89849e-05
4.88682e-05
4.87213e-05
4.85435e-05
4.8334e-05
4.80923e-05
4.78179e-05
4.7511e-05
4.71737e-05
5.46916e-05
5.37802e-05
5.2811e-05
5.1727e-05
5.05324e-05
4.92294e-05
4.78102e-05
4.62698e-05
4.46023e-05
4.28015e-05
4.08605e-05
3.87716e-05
3.65256e-05
3.41109e-05
3.15125e-05
2.87092e-05
2.56705e-05
2.23495e-05
1.86694e-05
1.44926e-05
9.53607e-06
2.14686e-08
8.06734e-11
9.59073e-11
2.55376e-08
1.09949e-05
1.65023e-05
2.11218e-05
2.5182e-05
2.88397e-05
3.21817e-05
3.52608e-05
3.81114e-05
4.07569e-05
4.32145e-05
4.54973e-05
4.76157e-05
4.95785e-05
5.13936e-05
5.30721e-05
5.46383e-05
4.74235e-05
4.80584e-05
4.86394e-05
4.91731e-05
4.96634e-05
5.0109e-05
5.05117e-05
5.08731e-05
5.11944e-05
5.14769e-05
5.17217e-05
5.19298e-05
5.21019e-05
5.22388e-05
5.23409e-05
5.24088e-05
5.24426e-05
5.24425e-05
5.24086e-05
5.23406e-05
5.22384e-05
5.21014e-05
5.19292e-05
5.1721e-05
5.14761e-05
5.11935e-05
5.08721e-05
5.05107e-05
5.0108e-05
4.96625e-05
4.91723e-05
4.86386e-05
4.80578e-05
4.74229e-05
5.46372e-05
5.30714e-05
5.13933e-05
4.95782e-05
4.76153e-05
4.5497e-05
4.32145e-05
4.0757e-05
3.81117e-05
3.52613e-05
3.21823e-05
2.88404e-05
2.51829e-05
2.11228e-05
1.65033e-05
1.09959e-05
2.5542e-08
9.59265e-11
1.04028e-10
2.77114e-08
1.17497e-05
1.75331e-05
2.23767e-05
2.66312e-05
3.04629e-05
3.39636e-05
3.71888e-05
4.01742e-05
4.29446e-05
4.55178e-05
4.79083e-05
5.01292e-05
5.21926e-05
5.41046e-05
4.73628e-05
4.81513e-05
4.88863e-05
4.95671e-05
5.0196e-05
5.07751e-05
5.13063e-05
5.1791e-05
5.22305e-05
5.26261e-05
5.29789e-05
5.32899e-05
5.356e-05
5.37901e-05
5.39807e-05
5.41325e-05
5.4246e-05
5.43214e-05
5.4359e-05
5.4359e-05
5.43212e-05
5.42457e-05
5.41322e-05
5.39803e-05
5.37896e-05
5.35595e-05
5.32893e-05
5.29782e-05
5.26253e-05
5.22297e-05
5.17901e-05
5.13055e-05
5.07743e-05
5.01952e-05
4.95663e-05
4.88855e-05
4.81505e-05
4.73622e-05
5.41037e-05
5.21919e-05
5.01287e-05
4.79079e-05
4.55175e-05
4.29444e-05
4.01742e-05
3.71889e-05
3.39639e-05
3.04633e-05
2.66317e-05
2.23773e-05
1.75338e-05
1.17503e-05
2.77149e-08
1.04044e-10
1.07866e-10
2.8741e-08
1.21024e-05
1.80137e-05
2.29617e-05
2.73077e-05
3.12222e-05
3.47993e-05
3.80956e-05
4.11482e-05
4.39827e-05
4.66176e-05
4.9067e-05
5.13396e-05
5.34366e-05
4.71684e-05
4.80418e-05
4.88596e-05
4.96221e-05
5.03306e-05
5.09867e-05
5.15921e-05
5.21484e-05
5.26568e-05
5.31188e-05
5.35353e-05
5.39073e-05
5.42358e-05
5.45215e-05
5.47651e-05
5.49672e-05
5.51282e-05
5.52487e-05
5.53288e-05
5.53688e-05
5.53687e-05
5.53287e-05
5.52485e-05
5.5128e-05
5.49669e-05
5.47648e-05
5.45211e-05
5.42354e-05
5.39069e-05
5.35348e-05
5.31183e-05
5.26563e-05
5.21479e-05
5.15916e-05
5.09862e-05
5.03301e-05
4.96217e-05
4.88592e-05
4.80414e-05
4.7168e-05
5.34363e-05
5.13396e-05
4.90671e-05
4.66178e-05
4.3983e-05
4.11487e-05
3.80962e-05
3.48e-05
3.12231e-05
2.73086e-05
2.29627e-05
1.80146e-05
1.21033e-05
2.87452e-08
1.07884e-10
1.09474e-10
2.91738e-08
1.22503e-05
1.82152e-05
2.32077e-05
2.75931e-05
3.15441e-05
3.51553e-05
3.84842e-05
4.15681e-05
4.44331e-05
4.70988e-05
4.9581e-05
5.18914e-05
5.40317e-05
4.74468e-05
4.83389e-05
4.91739e-05
4.99521e-05
5.06751e-05
5.13451e-05
5.19638e-05
5.25328e-05
5.30533e-05
5.35266e-05
5.39538e-05
5.43356e-05
5.4673e-05
5.49666e-05
5.52171e-05
5.54251e-05
5.55908e-05
5.57149e-05
5.57974e-05
5.58386e-05
5.58385e-05
5.57973e-05
5.57148e-05
5.55907e-05
5.54249e-05
5.52169e-05
5.49664e-05
5.46728e-05
5.43354e-05
5.39535e-05
5.35264e-05
5.3053e-05
5.25325e-05
5.19636e-05
5.13449e-05
5.0675e-05
4.99519e-05
4.91738e-05
4.83389e-05
4.74469e-05
5.40321e-05
5.18919e-05
4.95816e-05
4.70995e-05
4.4434e-05
4.15692e-05
3.84855e-05
3.51566e-05
3.15455e-05
2.75946e-05
2.32091e-05
1.82166e-05
1.22515e-05
2.91789e-08
1.09496e-10
1.10057e-10
2.93312e-08
1.23041e-05
1.82886e-05
2.32974e-05
2.76973e-05
3.16615e-05
3.52852e-05
3.86259e-05
4.17206e-05
4.45953e-05
4.72699e-05
4.97619e-05
5.20876e-05
5.42552e-05
4.75536e-05
4.84569e-05
4.93002e-05
5.00849e-05
5.0814e-05
5.14898e-05
5.21141e-05
5.26885e-05
5.32142e-05
5.36924e-05
5.41242e-05
5.45103e-05
5.48515e-05
5.51486e-05
5.54021e-05
5.56125e-05
5.57803e-05
5.59059e-05
5.59894e-05
5.60312e-05
5.60312e-05
5.59894e-05
5.59058e-05
5.57803e-05
5.56124e-05
5.5402e-05
5.51485e-05
5.48514e-05
5.45101e-05
5.41241e-05
5.36923e-05
5.32141e-05
5.26884e-05
5.21141e-05
5.14898e-05
5.08141e-05
5.0085e-05
4.93003e-05
4.84571e-05
4.75539e-05
5.4256e-05
5.20885e-05
4.9763e-05
4.72712e-05
4.45968e-05
4.17223e-05
3.86276e-05
3.5287e-05
3.16634e-05
2.76991e-05
2.32992e-05
1.82903e-05
1.23056e-05
2.93371e-08
1.10082e-10
1.1026e-10
2.93862e-08
1.2323e-05
1.83145e-05
2.3329e-05
2.77343e-05
3.17036e-05
3.53322e-05
3.86777e-05
4.17773e-05
4.46569e-05
4.73365e-05
4.98337e-05
5.21651e-05
5.4339e-05
4.75931e-05
4.84991e-05
4.9345e-05
5.01322e-05
5.08636e-05
5.15416e-05
5.21681e-05
5.27446e-05
5.32723e-05
5.37524e-05
5.41859e-05
5.45736e-05
5.49163e-05
5.52146e-05
5.54693e-05
5.56807e-05
5.58493e-05
5.59754e-05
5.60593e-05
5.61013e-05
5.61013e-05
5.60593e-05
5.59754e-05
5.58492e-05
5.56806e-05
5.54692e-05
5.52146e-05
5.49162e-05
5.45735e-05
5.41858e-05
5.37524e-05
5.32723e-05
5.27446e-05
5.21682e-05
5.15417e-05
5.08638e-05
5.01324e-05
4.93452e-05
4.84994e-05
4.75934e-05
5.43399e-05
5.21664e-05
4.98351e-05
4.73381e-05
4.46587e-05
4.17792e-05
3.86797e-05
3.53343e-05
3.17057e-05
2.77364e-05
2.33311e-05
1.83163e-05
1.23246e-05
2.93925e-08
1.10286e-10
1.10325e-10
2.94038e-08
1.23291e-05
1.83228e-05
2.33393e-05
2.77463e-05
3.17173e-05
3.53475e-05
3.86946e-05
4.17959e-05
4.46772e-05
4.73584e-05
4.98573e-05
5.21905e-05
5.43662e-05
4.76059e-05
4.85127e-05
4.93594e-05
5.01474e-05
5.08796e-05
5.15584e-05
5.21856e-05
5.27627e-05
5.32911e-05
5.37719e-05
5.42059e-05
5.45942e-05
5.49373e-05
5.52362e-05
5.54912e-05
5.57029e-05
5.58717e-05
5.59981e-05
5.60822e-05
5.61242e-05
5.61241e-05
5.60821e-05
5.59981e-05
5.58717e-05
5.57028e-05
5.54911e-05
5.52361e-05
5.49373e-05
5.45941e-05
5.42059e-05
5.37719e-05
5.32912e-05
5.27628e-05
5.21857e-05
5.15585e-05
5.08798e-05
5.01477e-05
4.93597e-05
4.85131e-05
4.76063e-05
5.43673e-05
5.21919e-05
4.98589e-05
4.73601e-05
4.46791e-05
4.17979e-05
3.86968e-05
3.53497e-05
3.17195e-05
2.77485e-05
2.33414e-05
1.83247e-05
1.23307e-05
2.94103e-08
1.10352e-10
1.10344e-10
2.94089e-08
1.23308e-05
1.83252e-05
2.33423e-05
2.77498e-05
3.17213e-05
3.5352e-05
3.86996e-05
4.18013e-05
4.46831e-05
4.73648e-05
4.98643e-05
5.2198e-05
5.43741e-05
4.76096e-05
4.85167e-05
4.93636e-05
5.01519e-05
5.08843e-05
5.15633e-05
5.21907e-05
5.27681e-05
5.32967e-05
5.37776e-05
5.42118e-05
5.46002e-05
5.49436e-05
5.52425e-05
5.54976e-05
5.57094e-05
5.58784e-05
5.60048e-05
5.60889e-05
5.61309e-05
5.61309e-05
5.60889e-05
5.60048e-05
5.58784e-05
5.57094e-05
5.54976e-05
5.52425e-05
5.49435e-05
5.46002e-05
5.42118e-05
5.37776e-05
5.32967e-05
5.27682e-05
5.21908e-05
5.15635e-05
5.08845e-05
5.01522e-05
4.9364e-05
4.85171e-05
4.76101e-05
5.43753e-05
5.21994e-05
4.98659e-05
4.73666e-05
4.4685e-05
4.18034e-05
3.87018e-05
3.53543e-05
3.17236e-05
2.77521e-05
2.33444e-05
1.83272e-05
1.23325e-05
2.94155e-08
1.10371e-10
1.10349e-10
2.94103e-08
1.23313e-05
1.83258e-05
2.33431e-05
2.77507e-05
3.17223e-05
3.53532e-05
3.87009e-05
4.18028e-05
4.46847e-05
4.73665e-05
4.98661e-05
5.21999e-05
5.43762e-05
4.76106e-05
4.85178e-05
4.93647e-05
5.0153e-05
5.08855e-05
5.15646e-05
5.21921e-05
5.27695e-05
5.32981e-05
5.37791e-05
5.42134e-05
5.46019e-05
5.49452e-05
5.52442e-05
5.54994e-05
5.57112e-05
5.58802e-05
5.60066e-05
5.60907e-05
5.61327e-05
5.61327e-05
5.60907e-05
5.60066e-05
5.58802e-05
5.57112e-05
5.54993e-05
5.52442e-05
5.49452e-05
5.46019e-05
5.42134e-05
5.37792e-05
5.32982e-05
5.27696e-05
5.21922e-05
5.15648e-05
5.08858e-05
5.01534e-05
4.93651e-05
4.85182e-05
4.76111e-05
5.43774e-05
5.22014e-05
4.98677e-05
4.73683e-05
4.46866e-05
4.18049e-05
3.87031e-05
3.53555e-05
3.17246e-05
2.7753e-05
2.33452e-05
1.83278e-05
1.2333e-05
2.94168e-08
1.10376e-10
1.1035e-10
2.94106e-08
1.23314e-05
1.8326e-05
2.33433e-05
2.7751e-05
3.17226e-05
3.53535e-05
3.87012e-05
4.18031e-05
4.4685e-05
4.73669e-05
4.98665e-05
5.22004e-05
5.43767e-05
4.76109e-05
4.8518e-05
4.9365e-05
5.01533e-05
5.08858e-05
5.15649e-05
5.21924e-05
5.27698e-05
5.32985e-05
5.37795e-05
5.42138e-05
5.46023e-05
5.49457e-05
5.52446e-05
5.54998e-05
5.57117e-05
5.58806e-05
5.6007e-05
5.60912e-05
5.61332e-05
5.61332e-05
5.60912e-05
5.6007e-05
5.58806e-05
5.57116e-05
5.54998e-05
5.52446e-05
5.49456e-05
5.46023e-05
5.42138e-05
5.37795e-05
5.32986e-05
5.277e-05
5.21926e-05
5.15651e-05
5.08861e-05
5.01536e-05
4.93654e-05
4.85185e-05
4.76113e-05
5.43779e-05
5.22019e-05
4.98682e-05
4.73687e-05
4.4687e-05
4.18052e-05
3.87034e-05
3.53558e-05
3.17249e-05
2.77532e-05
2.33454e-05
1.8328e-05
1.23331e-05
2.94172e-08
1.10377e-10
1.1035e-10
2.94107e-08
1.23314e-05
1.8326e-05
2.33433e-05
2.7751e-05
3.17226e-05
3.53536e-05
3.87013e-05
4.18032e-05
4.46851e-05
4.7367e-05
4.98666e-05
5.22005e-05
5.43769e-05
4.76109e-05
4.85181e-05
4.93651e-05
5.01534e-05
5.08859e-05
5.1565e-05
5.21925e-05
5.27699e-05
5.32986e-05
5.37796e-05
5.42139e-05
5.46024e-05
5.49458e-05
5.52447e-05
5.54999e-05
5.57118e-05
5.58807e-05
5.60071e-05
5.60913e-05
5.61333e-05
5.61333e-05
5.60913e-05
5.60071e-05
5.58807e-05
5.57117e-05
5.54999e-05
5.52447e-05
5.49457e-05
5.46024e-05
5.42139e-05
5.37796e-05
5.32987e-05
5.277e-05
5.21926e-05
5.15652e-05
5.08862e-05
5.01537e-05
4.93655e-05
4.85185e-05
4.76114e-05
5.4378e-05
5.2202e-05
4.98683e-05
4.73688e-05
4.46871e-05
4.18053e-05
3.87035e-05
3.53558e-05
3.17249e-05
2.77533e-05
2.33455e-05
1.8328e-05
1.23331e-05
2.94172e-08
1.10377e-10
1.1035e-10
2.94107e-08
1.23314e-05
1.8326e-05
2.33433e-05
2.7751e-05
3.17227e-05
3.53536e-05
3.87013e-05
4.18032e-05
4.46851e-05
4.7367e-05
4.98667e-05
5.22005e-05
5.43769e-05
4.76109e-05
4.85181e-05
4.93651e-05
5.01534e-05
5.08859e-05
5.1565e-05
5.21925e-05
5.27699e-05
5.32986e-05
5.37796e-05
5.42139e-05
5.46024e-05
5.49458e-05
5.52448e-05
5.54999e-05
5.57118e-05
5.58807e-05
5.60072e-05
5.60913e-05
5.61333e-05
5.61333e-05
5.60913e-05
5.60071e-05
5.58807e-05
5.57118e-05
5.54999e-05
5.52447e-05
5.49458e-05
5.46024e-05
5.42139e-05
5.37797e-05
5.32987e-05
5.27701e-05
5.21926e-05
5.15652e-05
5.08862e-05
5.01537e-05
4.93655e-05
4.85185e-05
4.76114e-05
5.43781e-05
5.2202e-05
4.98683e-05
4.73689e-05
4.46871e-05
4.18053e-05
3.87035e-05
3.53558e-05
3.1725e-05
2.77533e-05
2.33455e-05
1.8328e-05
1.23331e-05
2.94172e-08
1.10378e-10
1.1035e-10
2.94107e-08
1.23314e-05
1.8326e-05
2.33433e-05
2.7751e-05
3.17227e-05
3.53536e-05
3.87013e-05
4.18032e-05
4.46851e-05
4.7367e-05
4.98667e-05
5.22005e-05
5.43769e-05
4.76109e-05
4.85181e-05
4.93651e-05
5.01534e-05
5.08859e-05
5.1565e-05
5.21925e-05
5.27699e-05
5.32986e-05
5.37796e-05
5.42139e-05
5.46024e-05
5.49458e-05
5.52448e-05
5.54999e-05
5.57118e-05
5.58808e-05
5.60072e-05
5.60913e-05
5.61333e-05
5.61333e-05
5.60913e-05
5.60072e-05
5.58807e-05
5.57118e-05
5.54999e-05
5.52447e-05
5.49458e-05
5.46024e-05
5.42139e-05
5.37797e-05
5.32987e-05
5.27701e-05
5.21927e-05
5.15652e-05
5.08862e-05
5.01537e-05
4.93655e-05
4.85186e-05
4.76114e-05
5.43781e-05
5.2202e-05
4.98683e-05
4.73689e-05
4.46871e-05
4.18053e-05
3.87035e-05
3.53558e-05
3.1725e-05
2.77533e-05
2.33455e-05
1.8328e-05
1.23331e-05
2.94172e-08
1.10378e-10
1.1035e-10
2.94107e-08
1.23314e-05
1.8326e-05
2.33433e-05
2.7751e-05
3.17227e-05
3.53536e-05
3.87013e-05
4.18032e-05
4.46851e-05
4.7367e-05
4.98667e-05
5.22005e-05
5.43769e-05
4.76109e-05
4.85181e-05
4.93651e-05
5.01534e-05
5.08859e-05
5.1565e-05
5.21925e-05
5.27699e-05
5.32986e-05
5.37796e-05
5.42139e-05
5.46024e-05
5.49458e-05
5.52448e-05
5.54999e-05
5.57118e-05
5.58808e-05
5.60072e-05
5.60913e-05
5.61333e-05
5.61333e-05
5.60913e-05
5.60072e-05
5.58807e-05
5.57118e-05
5.54999e-05
5.52447e-05
5.49458e-05
5.46024e-05
5.42139e-05
5.37797e-05
5.32987e-05
5.27701e-05
5.21927e-05
5.15652e-05
5.08862e-05
5.01537e-05
4.93655e-05
4.85186e-05
4.76114e-05
5.43781e-05
5.2202e-05
4.98683e-05
4.73689e-05
4.46871e-05
4.18053e-05
3.87035e-05
3.53558e-05
3.1725e-05
2.77533e-05
2.33455e-05
1.8328e-05
1.23331e-05
2.94172e-08
1.10378e-10
1.1035e-10
2.94107e-08
1.23314e-05
1.8326e-05
2.33433e-05
2.7751e-05
3.17227e-05
3.53536e-05
3.87013e-05
4.18032e-05
4.46851e-05
4.7367e-05
4.98667e-05
5.22005e-05
5.43769e-05
4.76109e-05
4.85181e-05
4.93651e-05
5.01534e-05
5.08859e-05
5.1565e-05
5.21925e-05
5.27699e-05
5.32986e-05
5.37796e-05
5.42139e-05
5.46024e-05
5.49458e-05
5.52448e-05
5.54999e-05
5.57118e-05
5.58808e-05
5.60072e-05
5.60913e-05
5.61333e-05
5.61333e-05
5.60913e-05
5.60072e-05
5.58807e-05
5.57118e-05
5.54999e-05
5.52447e-05
5.49458e-05
5.46024e-05
5.42139e-05
5.37797e-05
5.32987e-05
5.27701e-05
5.21927e-05
5.15652e-05
5.08862e-05
5.01537e-05
4.93655e-05
4.85186e-05
4.76114e-05
5.43781e-05
5.2202e-05
4.98683e-05
4.73689e-05
4.46871e-05
4.18053e-05
3.87035e-05
3.53558e-05
3.1725e-05
2.77533e-05
2.33455e-05
1.8328e-05
1.23331e-05
2.94172e-08
1.10378e-10
1.1035e-10
2.94107e-08
1.23314e-05
1.8326e-05
2.33433e-05
2.7751e-05
3.17227e-05
3.53536e-05
3.87013e-05
4.18032e-05
4.46851e-05
4.7367e-05
4.98667e-05
5.22005e-05
5.43769e-05
4.76109e-05
4.85181e-05
4.93651e-05
5.01534e-05
5.08859e-05
5.1565e-05
5.21925e-05
5.27699e-05
5.32986e-05
5.37796e-05
5.42139e-05
5.46024e-05
5.49458e-05
5.52448e-05
5.54999e-05
5.57118e-05
5.58808e-05
5.60072e-05
5.60913e-05
5.61333e-05
5.61333e-05
5.60913e-05
5.60072e-05
5.58807e-05
5.57118e-05
5.54999e-05
5.52447e-05
5.49458e-05
5.46024e-05
5.42139e-05
5.37797e-05
5.32987e-05
5.27701e-05
5.21927e-05
5.15652e-05
5.08862e-05
5.01537e-05
4.93655e-05
4.85186e-05
4.76114e-05
5.43781e-05
5.2202e-05
4.98683e-05
4.73689e-05
4.46871e-05
4.18053e-05
3.87035e-05
3.53558e-05
3.1725e-05
2.77533e-05
2.33455e-05
1.8328e-05
1.23331e-05
2.94172e-08
1.10378e-10
1.1035e-10
2.94107e-08
1.23314e-05
1.8326e-05
2.33433e-05
2.7751e-05
3.17227e-05
3.53536e-05
3.87013e-05
4.18032e-05
4.46851e-05
4.7367e-05
4.98667e-05
5.22005e-05
5.43769e-05
4.76109e-05
4.85181e-05
4.93651e-05
5.01534e-05
5.08859e-05
5.1565e-05
5.21925e-05
5.27699e-05
5.32986e-05
5.37796e-05
5.42139e-05
5.46024e-05
5.49458e-05
5.52448e-05
5.54999e-05
5.57118e-05
5.58808e-05
5.60072e-05
5.60913e-05
5.61333e-05
5.61333e-05
5.60913e-05
5.60072e-05
5.58807e-05
5.57118e-05
5.54999e-05
5.52447e-05
5.49458e-05
5.46024e-05
5.42139e-05
5.37797e-05
5.32987e-05
5.27701e-05
5.21927e-05
5.15652e-05
5.08862e-05
5.01537e-05
4.93655e-05
4.85186e-05
4.76114e-05
5.43781e-05
5.2202e-05
4.98683e-05
4.73689e-05
4.46871e-05
4.18053e-05
3.87035e-05
3.53558e-05
3.1725e-05
2.77533e-05
2.33455e-05
1.8328e-05
1.23331e-05
2.94172e-08
1.10378e-10
1.1035e-10
2.94107e-08
1.23314e-05
1.8326e-05
2.33433e-05
2.7751e-05
3.17227e-05
3.53536e-05
3.87013e-05
4.18032e-05
4.46851e-05
4.7367e-05
4.98667e-05
5.22005e-05
5.43769e-05
4.76109e-05
4.85181e-05
4.93651e-05
5.01534e-05
5.08859e-05
5.1565e-05
5.21925e-05
5.27699e-05
5.32986e-05
5.37796e-05
5.42139e-05
5.46024e-05
5.49458e-05
5.52448e-05
5.54999e-05
5.57118e-05
5.58808e-05
5.60072e-05
5.60913e-05
5.61333e-05
5.61333e-05
5.60913e-05
5.60072e-05
5.58807e-05
5.57118e-05
5.54999e-05
5.52447e-05
5.49458e-05
5.46024e-05
5.42139e-05
5.37797e-05
5.32987e-05
5.27701e-05
5.21927e-05
5.15652e-05
5.08862e-05
5.01537e-05
4.93655e-05
4.85186e-05
4.76114e-05
5.43781e-05
5.2202e-05
4.98683e-05
4.73689e-05
4.46871e-05
4.18053e-05
3.87035e-05
3.53558e-05
3.1725e-05
2.77533e-05
2.33455e-05
1.8328e-05
1.23331e-05
2.94172e-08
1.10378e-10
1.1035e-10
2.94107e-08
1.23314e-05
1.8326e-05
2.33433e-05
2.7751e-05
3.17227e-05
3.53536e-05
3.87013e-05
4.18032e-05
4.46851e-05
4.7367e-05
4.98667e-05
5.22005e-05
5.43769e-05
4.76109e-05
4.85181e-05
4.93651e-05
5.01534e-05
5.08859e-05
5.1565e-05
5.21925e-05
5.27699e-05
5.32986e-05
5.37796e-05
5.42139e-05
5.46024e-05
5.49458e-05
5.52448e-05
5.54999e-05
5.57118e-05
5.58808e-05
5.60072e-05
5.60913e-05
5.61333e-05
5.61333e-05
5.60913e-05
5.60072e-05
5.58807e-05
5.57118e-05
5.54999e-05
5.52447e-05
5.49458e-05
5.46024e-05
5.42139e-05
5.37797e-05
5.32987e-05
5.27701e-05
5.21927e-05
5.15652e-05
5.08862e-05
5.01537e-05
4.93655e-05
4.85186e-05
4.76114e-05
5.43781e-05
5.2202e-05
4.98683e-05
4.73689e-05
4.46871e-05
4.18053e-05
3.87035e-05
3.53558e-05
3.1725e-05
2.77533e-05
2.33455e-05
1.8328e-05
1.23331e-05
2.94172e-08
1.10378e-10
1.1035e-10
2.94107e-08
1.23314e-05
1.8326e-05
2.33433e-05
2.7751e-05
3.17227e-05
3.53536e-05
3.87013e-05
4.18032e-05
4.46851e-05
4.7367e-05
4.98667e-05
5.22005e-05
5.43769e-05
4.76109e-05
4.85181e-05
4.93651e-05
5.01534e-05
5.08859e-05
5.1565e-05
5.21925e-05
5.27699e-05
5.32986e-05
5.37796e-05
5.42139e-05
5.46024e-05
5.49458e-05
5.52448e-05
5.54999e-05
5.57118e-05
5.58808e-05
5.60072e-05
5.60913e-05
5.61333e-05
5.61333e-05
5.60913e-05
5.60072e-05
5.58807e-05
5.57118e-05
5.54999e-05
5.52447e-05
5.49458e-05
5.46024e-05
5.42139e-05
5.37797e-05
5.32987e-05
5.27701e-05
5.21927e-05
5.15652e-05
5.08862e-05
5.01537e-05
4.93655e-05
4.85186e-05
4.76114e-05
5.43781e-05
5.2202e-05
4.98683e-05
4.73689e-05
4.46871e-05
4.18053e-05
3.87035e-05
3.53558e-05
3.1725e-05
2.77533e-05
2.33455e-05
1.8328e-05
1.23331e-05
2.94172e-08
1.10378e-10
1.1035e-10
2.94107e-08
1.23314e-05
1.8326e-05
2.33433e-05
2.7751e-05
3.17227e-05
3.53536e-05
3.87013e-05
4.18032e-05
4.46851e-05
4.7367e-05
4.98667e-05
5.22005e-05
5.43769e-05
4.76109e-05
4.85181e-05
4.93651e-05
5.01534e-05
5.08859e-05
5.1565e-05
5.21925e-05
5.27699e-05
5.32986e-05
5.37796e-05
5.42139e-05
5.46024e-05
5.49458e-05
5.52448e-05
5.54999e-05
5.57118e-05
5.58808e-05
5.60072e-05
5.60913e-05
5.61333e-05
5.61333e-05
5.60913e-05
5.60072e-05
5.58807e-05
5.57118e-05
5.54999e-05
5.52447e-05
5.49458e-05
5.46024e-05
5.42139e-05
5.37797e-05
5.32987e-05
5.27701e-05
5.21927e-05
5.15652e-05
5.08862e-05
5.01537e-05
4.93655e-05
4.85186e-05
4.76114e-05
5.43781e-05
5.2202e-05
4.98683e-05
4.73689e-05
4.46871e-05
4.18053e-05
3.87035e-05
3.53558e-05
3.1725e-05
2.77533e-05
2.33455e-05
1.8328e-05
1.23331e-05
2.94172e-08
1.10378e-10
1.1035e-10
2.94107e-08
1.23314e-05
1.8326e-05
2.33433e-05
2.7751e-05
3.17227e-05
3.53536e-05
3.87013e-05
4.18032e-05
4.46851e-05
4.7367e-05
4.98667e-05
5.22005e-05
5.43769e-05
4.76109e-05
4.85181e-05
4.93651e-05
5.01534e-05
5.08859e-05
5.1565e-05
5.21925e-05
5.27699e-05
5.32986e-05
5.37796e-05
5.42139e-05
5.46024e-05
5.49458e-05
5.52448e-05
5.54999e-05
5.57118e-05
5.58808e-05
5.60072e-05
5.60913e-05
5.61333e-05
5.61333e-05
5.60913e-05
5.60072e-05
5.58807e-05
5.57118e-05
5.54999e-05
5.52447e-05
5.49458e-05
5.46024e-05
5.42139e-05
5.37797e-05
5.32987e-05
5.27701e-05
5.21927e-05
5.15652e-05
5.08862e-05
5.01537e-05
4.93655e-05
4.85186e-05
4.76114e-05
5.43781e-05
5.2202e-05
4.98683e-05
4.73689e-05
4.46871e-05
4.18053e-05
3.87035e-05
3.53558e-05
3.1725e-05
2.77533e-05
2.33455e-05
1.8328e-05
1.23331e-05
2.94172e-08
1.10378e-10
1.1035e-10
2.94107e-08
1.23314e-05
1.8326e-05
2.33433e-05
2.7751e-05
3.17227e-05
3.53536e-05
3.87013e-05
4.18032e-05
4.46851e-05
4.7367e-05
4.98667e-05
5.22005e-05
5.43769e-05
4.76109e-05
4.85181e-05
4.93651e-05
5.01534e-05
5.08859e-05
5.1565e-05
5.21925e-05
5.27699e-05
5.32986e-05
5.37796e-05
5.42139e-05
5.46024e-05
5.49458e-05
5.52448e-05
5.54999e-05
5.57118e-05
5.58808e-05
5.60072e-05
5.60913e-05
5.61333e-05
5.61333e-05
5.60913e-05
5.60072e-05
5.58807e-05
5.57118e-05
5.54999e-05
5.52447e-05
5.49458e-05
5.46024e-05
5.42139e-05
5.37797e-05
5.32987e-05
5.27701e-05
5.21927e-05
5.15652e-05
5.08862e-05
5.01537e-05
4.93655e-05
4.85186e-05
4.76114e-05
5.43781e-05
5.2202e-05
4.98683e-05
4.73689e-05
4.46871e-05
4.18053e-05
3.87035e-05
3.53558e-05
3.1725e-05
2.77533e-05
2.33455e-05
1.8328e-05
1.23331e-05
2.94172e-08
1.10378e-10
1.1035e-10
2.94107e-08
1.23314e-05
1.8326e-05
2.33433e-05
2.7751e-05
3.17227e-05
3.53536e-05
3.87013e-05
4.18032e-05
4.46851e-05
4.7367e-05
4.98667e-05
5.22005e-05
5.43769e-05
4.76109e-05
4.85181e-05
4.93651e-05
5.01534e-05
5.08859e-05
5.1565e-05
5.21925e-05
5.27699e-05
5.32986e-05
5.37796e-05
5.42139e-05
5.46024e-05
5.49458e-05
5.52448e-05
5.54999e-05
5.57118e-05
5.58808e-05
5.60072e-05
5.60913e-05
5.61333e-05
5.61333e-05
5.60913e-05
5.60072e-05
5.58807e-05
5.57118e-05
5.54999e-05
5.52447e-05
5.49458e-05
5.46024e-05
5.42139e-05
5.37797e-05
5.32987e-05
5.27701e-05
5.21927e-05
5.15652e-05
5.08862e-05
5.01537e-05
4.93655e-05
4.85186e-05
4.76114e-05
5.43781e-05
5.2202e-05
4.98683e-05
4.73689e-05
4.46871e-05
4.18053e-05
3.87035e-05
3.53558e-05
3.1725e-05
2.77533e-05
2.33455e-05
1.8328e-05
1.23331e-05
2.94172e-08
1.10378e-10
1.1035e-10
2.94107e-08
1.23314e-05
1.8326e-05
2.33433e-05
2.7751e-05
3.17227e-05
3.53536e-05
3.87013e-05
4.18032e-05
4.46851e-05
4.7367e-05
4.98667e-05
5.22005e-05
5.43769e-05
4.76109e-05
4.85181e-05
4.93651e-05
5.01534e-05
5.08859e-05
5.1565e-05
5.21925e-05
5.27699e-05
5.32986e-05
5.37796e-05
5.42139e-05
5.46024e-05
5.49458e-05
5.52448e-05
5.54999e-05
5.57118e-05
5.58808e-05
5.60072e-05
5.60913e-05
5.61333e-05
5.61333e-05
5.60913e-05
5.60072e-05
5.58807e-05
5.57118e-05
5.54999e-05
5.52447e-05
5.49458e-05
5.46024e-05
5.42139e-05
5.37797e-05
5.32987e-05
5.27701e-05
5.21927e-05
5.15652e-05
5.08862e-05
5.01537e-05
4.93655e-05
4.85186e-05
4.76114e-05
5.43781e-05
5.2202e-05
4.98683e-05
4.73689e-05
4.46871e-05
4.18053e-05
3.87035e-05
3.53558e-05
3.1725e-05
2.77533e-05
2.33455e-05
1.8328e-05
1.23331e-05
2.94172e-08
1.10378e-10
1.1035e-10
2.94107e-08
1.23314e-05
1.8326e-05
2.33433e-05
2.7751e-05
3.17227e-05
3.53536e-05
3.87013e-05
4.18032e-05
4.46851e-05
4.7367e-05
4.98667e-05
5.22005e-05
5.43769e-05
4.76109e-05
4.85181e-05
4.93651e-05
5.01534e-05
5.08859e-05
5.1565e-05
5.21925e-05
5.27699e-05
5.32986e-05
5.37796e-05
5.42139e-05
5.46024e-05
5.49458e-05
5.52448e-05
5.54999e-05
5.57118e-05
5.58808e-05
5.60072e-05
5.60913e-05
5.61333e-05
5.61333e-05
5.60913e-05
5.60072e-05
5.58807e-05
5.57118e-05
5.54999e-05
5.52447e-05
5.49458e-05
5.46024e-05
5.42139e-05
5.37797e-05
5.32987e-05
5.27701e-05
5.21927e-05
5.15652e-05
5.08862e-05
5.01537e-05
4.93655e-05
4.85186e-05
4.76114e-05
5.43781e-05
5.2202e-05
4.98683e-05
4.73689e-05
4.46871e-05
4.18053e-05
3.87035e-05
3.53558e-05
3.1725e-05
2.77533e-05
2.33455e-05
1.8328e-05
1.23331e-05
2.94172e-08
1.10378e-10
1.1035e-10
2.94107e-08
1.23314e-05
1.8326e-05
2.33433e-05
2.7751e-05
3.17227e-05
3.53536e-05
3.87013e-05
4.18032e-05
4.46851e-05
4.7367e-05
4.98667e-05
5.22005e-05
5.43769e-05
4.76109e-05
4.85181e-05
4.93651e-05
5.01534e-05
5.08859e-05
5.1565e-05
5.21925e-05
5.27699e-05
5.32986e-05
5.37796e-05
5.42139e-05
5.46024e-05
5.49458e-05
5.52448e-05
5.54999e-05
5.57118e-05
5.58808e-05
5.60072e-05
5.60913e-05
5.61333e-05
5.61333e-05
5.60913e-05
5.60072e-05
5.58807e-05
5.57118e-05
5.54999e-05
5.52447e-05
5.49458e-05
5.46024e-05
5.42139e-05
5.37797e-05
5.32987e-05
5.27701e-05
5.21927e-05
5.15652e-05
5.08862e-05
5.01537e-05
4.93655e-05
4.85186e-05
4.76114e-05
5.43781e-05
5.2202e-05
4.98683e-05
4.73689e-05
4.46871e-05
4.18053e-05
3.87035e-05
3.53558e-05
3.1725e-05
2.77533e-05
2.33455e-05
1.8328e-05
1.23331e-05
2.94172e-08
1.10378e-10
1.1035e-10
2.94107e-08
1.23314e-05
1.8326e-05
2.33433e-05
2.7751e-05
3.17227e-05
3.53536e-05
3.87013e-05
4.18032e-05
4.46851e-05
4.7367e-05
4.98667e-05
5.22005e-05
5.43769e-05
4.76109e-05
4.85181e-05
4.93651e-05
5.01534e-05
5.08859e-05
5.1565e-05
5.21925e-05
5.27699e-05
5.32986e-05
5.37796e-05
5.42139e-05
5.46024e-05
5.49458e-05
5.52448e-05
5.54999e-05
5.57118e-05
5.58808e-05
5.60072e-05
5.60913e-05
5.61333e-05
5.61333e-05
5.60913e-05
5.60072e-05
5.58807e-05
5.57118e-05
5.54999e-05
5.52447e-05
5.49458e-05
5.46024e-05
5.42139e-05
5.37797e-05
5.32987e-05
5.27701e-05
5.21927e-05
5.15652e-05
5.08862e-05
5.01537e-05
4.93655e-05
4.85186e-05
4.76114e-05
5.43781e-05
5.2202e-05
4.98683e-05
4.73689e-05
4.46871e-05
4.18053e-05
3.87035e-05
3.53558e-05
3.1725e-05
2.77533e-05
2.33455e-05
1.8328e-05
1.23331e-05
2.94172e-08
1.10378e-10
1.1035e-10
2.94107e-08
1.23314e-05
1.8326e-05
2.33433e-05
2.7751e-05
3.17227e-05
3.53536e-05
3.87013e-05
4.18032e-05
4.46851e-05
4.7367e-05
4.98667e-05
5.22005e-05
5.43769e-05
4.76109e-05
4.85181e-05
4.93651e-05
5.01534e-05
5.08859e-05
5.1565e-05
5.21925e-05
5.27699e-05
5.32986e-05
5.37796e-05
5.42139e-05
5.46024e-05
5.49458e-05
5.52448e-05
5.54999e-05
5.57118e-05
5.58808e-05
5.60072e-05
5.60913e-05
5.61333e-05
5.61333e-05
5.60913e-05
5.60072e-05
5.58807e-05
5.57118e-05
5.54999e-05
5.52447e-05
5.49458e-05
5.46024e-05
5.42139e-05
5.37797e-05
5.32987e-05
5.27701e-05
5.21927e-05
5.15652e-05
5.08862e-05
5.01537e-05
4.93655e-05
4.85186e-05
4.76114e-05
5.43781e-05
5.2202e-05
4.98683e-05
4.73689e-05
4.46871e-05
4.18053e-05
3.87035e-05
3.53558e-05
3.1725e-05
2.77533e-05
2.33455e-05
1.8328e-05
1.23331e-05
2.94172e-08
1.10378e-10
1.1035e-10
2.94107e-08
1.23314e-05
1.8326e-05
2.33433e-05
2.7751e-05
3.17227e-05
3.53536e-05
3.87013e-05
4.18032e-05
4.46851e-05
4.7367e-05
4.98667e-05
5.22005e-05
5.43769e-05
4.76109e-05
4.85181e-05
4.93651e-05
5.01534e-05
5.08859e-05
5.1565e-05
5.21925e-05
5.27699e-05
5.32986e-05
5.37796e-05
5.42139e-05
5.46024e-05
5.49458e-05
5.52448e-05
5.54999e-05
5.57118e-05
5.58808e-05
5.60072e-05
5.60913e-05
5.61333e-05
5.61333e-05
5.60913e-05
5.60072e-05
5.58807e-05
5.57118e-05
5.54999e-05
5.52447e-05
5.49458e-05
5.46024e-05
5.42139e-05
5.37797e-05
5.32987e-05
5.27701e-05
5.21927e-05
5.15652e-05
5.08862e-05
5.01537e-05
4.93655e-05
4.85186e-05
4.76114e-05
5.43781e-05
5.2202e-05
4.98683e-05
4.73689e-05
4.46871e-05
4.18053e-05
3.87035e-05
3.53558e-05
3.1725e-05
2.77533e-05
2.33455e-05
1.8328e-05
1.23331e-05
2.94172e-08
1.10378e-10
1.1035e-10
2.94107e-08
1.23314e-05
1.8326e-05
2.33433e-05
2.7751e-05
3.17227e-05
3.53536e-05
3.87013e-05
4.18032e-05
4.46851e-05
4.7367e-05
4.98667e-05
5.22005e-05
5.43769e-05
4.76109e-05
4.85181e-05
4.93651e-05
5.01534e-05
5.08859e-05
5.1565e-05
5.21925e-05
5.27699e-05
5.32986e-05
5.37796e-05
5.42139e-05
5.46024e-05
5.49458e-05
5.52448e-05
5.54999e-05
5.57118e-05
5.58808e-05
5.60072e-05
5.60913e-05
5.61333e-05
5.61333e-05
5.60913e-05
5.60072e-05
5.58807e-05
5.57118e-05
5.54999e-05
5.52447e-05
5.49458e-05
5.46024e-05
5.42139e-05
5.37797e-05
5.32987e-05
5.27701e-05
5.21927e-05
5.15652e-05
5.08862e-05
5.01537e-05
4.93655e-05
4.85186e-05
4.76114e-05
5.43781e-05
5.2202e-05
4.98683e-05
4.73689e-05
4.46871e-05
4.18053e-05
3.87035e-05
3.53558e-05
3.1725e-05
2.77533e-05
2.33455e-05
1.8328e-05
1.23331e-05
2.94172e-08
1.10378e-10
1.1035e-10
2.94107e-08
1.23314e-05
1.8326e-05
2.33433e-05
2.7751e-05
3.17227e-05
3.53536e-05
3.87013e-05
4.18032e-05
4.46851e-05
4.7367e-05
4.98667e-05
5.22005e-05
5.43769e-05
4.76109e-05