/*--------------------------------*- C++ -*----------------------------------*\
  =========                 |
  \\      /  F ield         | OpenFOAM: The Open Source CFD Toolbox
   \\    /   O peration     | Website:  https://openfoam.org
    \\  /    A nd           | Version:  13
     \\/     M anipulation  |
\*---------------------------------------------------------------------------*/
FoamFile
{
    format      ascii;
    class       volScalarField;
    location    "30";
    object      rhok;
}
// * * * * * * * * * * * * * * * * * * * * * * * * * * * * * * * * * * * * * //

dimensions      [];

internalField   nonuniform List<scalar> 
315000
(
0.444259
0.414819
0.412015
0.410557
0.409115
0.407689
0.40628
0.40489
0.403518
0.402167
0.400838
0.399531
0.398248
0.396989
0.395756
0.39455
0.393373
0.392224
0.391105
0.390017
0.388961
0.387937
0.386946
0.385988
0.385065
0.384175
0.38332
0.382499
0.381713
0.380961
0.380242
0.379558
0.378907
0.378288
0.377701
0.377146
0.376621
0.376126
0.37566
0.375222
0.37481
0.374425
0.374064
0.373727
0.373413
0.37312
0.372849
0.372596
0.372362
0.372146
0.371945
0.37176
0.37159
0.371432
0.371287
0.371154
0.371031
0.370917
0.370813
0.370716
0.370627
0.370544
0.370467
0.370395
0.370327
0.370263
0.370201
0.370142
0.370085
0.370028
0.444259
0.414821
0.412017
0.410559
0.409116
0.407689
0.40628
0.404888
0.403516
0.402163
0.400832
0.399523
0.398238
0.396978
0.395743
0.394535
0.393356
0.392205
0.391084
0.389995
0.388937
0.387912
0.386919
0.385961
0.385036
0.384146
0.38329
0.382469
0.381682
0.38093
0.380212
0.379528
0.378877
0.378259
0.377672
0.377118
0.376594
0.376099
0.375634
0.375197
0.374786
0.374402
0.374042
0.373706
0.373393
0.373102
0.372831
0.372579
0.372346
0.372131
0.371931
0.371747
0.371578
0.371421
0.371277
0.371144
0.371022
0.370909
0.370806
0.37071
0.370621
0.370539
0.370463
0.370391
0.370324
0.37026
0.370199
0.370141
0.370084
0.370028
0.44426
0.414854
0.412053
0.410595
0.409153
0.407726
0.406316
0.404923
0.403549
0.402194
0.400861
0.399549
0.398261
0.396998
0.39576
0.394549
0.393366
0.392212
0.391088
0.389995
0.388935
0.387907
0.386912
0.385951
0.385025
0.384133
0.383275
0.382453
0.381665
0.380912
0.380194
0.379509
0.378858
0.378239
0.377653
0.377099
0.376575
0.376081
0.375616
0.375179
0.374769
0.374385
0.374026
0.373691
0.373379
0.373088
0.372818
0.372567
0.372335
0.37212
0.371921
0.371738
0.371569
0.371413
0.371269
0.371137
0.371016
0.370904
0.3708
0.370705
0.370617
0.370535
0.370459
0.370388
0.370322
0.370258
0.370198
0.37014
0.370083
0.370028
0.444262
0.414928
0.412131
0.410676
0.409234
0.407807
0.406396
0.405001
0.403625
0.402267
0.40093
0.399614
0.398322
0.397053
0.39581
0.394594
0.393406
0.392247
0.391119
0.390021
0.388956
0.387924
0.386925
0.385961
0.385031
0.384136
0.383276
0.382451
0.381661
0.380907
0.380186
0.3795
0.378848
0.378229
0.377642
0.377087
0.376563
0.376069
0.375604
0.375168
0.374758
0.374374
0.374016
0.373681
0.373369
0.373078
0.372809
0.372559
0.372327
0.372112
0.371914
0.371731
0.371563
0.371407
0.371264
0.371132
0.371011
0.3709
0.370797
0.370702
0.370614
0.370533
0.370457
0.370386
0.37032
0.370257
0.370197
0.370139
0.370083
0.370027
0.444264
0.415025
0.412235
0.410781
0.409341
0.407914
0.406501
0.405105
0.403725
0.402364
0.401023
0.399702
0.398404
0.39713
0.395881
0.394659
0.393465
0.3923
0.391166
0.390063
0.388992
0.387955
0.386951
0.385982
0.385048
0.38415
0.383286
0.382459
0.381666
0.380909
0.380187
0.3795
0.378846
0.378226
0.377638
0.377082
0.376558
0.376063
0.375598
0.375161
0.374751
0.374368
0.374009
0.373674
0.373363
0.373072
0.372803
0.372553
0.372321
0.372107
0.371909
0.371727
0.371558
0.371403
0.371261
0.371129
0.371008
0.370897
0.370794
0.3707
0.370612
0.370531
0.370456
0.370385
0.370319
0.370256
0.370196
0.370138
0.370082
0.370027
0.444266
0.415108
0.412323
0.410871
0.409432
0.408005
0.406592
0.405194
0.403812
0.402448
0.401103
0.399779
0.398477
0.397198
0.395944
0.394717
0.393518
0.392348
0.391209
0.390101
0.389026
0.387984
0.386977
0.386004
0.385066
0.384165
0.383299
0.382468
0.381674
0.380915
0.380191
0.379502
0.378847
0.378225
0.377637
0.37708
0.376555
0.37606
0.375595
0.375158
0.374748
0.374364
0.374005
0.373671
0.373359
0.373069
0.372799
0.37255
0.372318
0.372104
0.371906
0.371724
0.371556
0.371401
0.371258
0.371127
0.371006
0.370895
0.370793
0.370698
0.370611
0.37053
0.370455
0.370384
0.370318
0.370255
0.370196
0.370138
0.370082
0.370027
0.444268
0.415158
0.412377
0.410926
0.409488
0.408061
0.406648
0.405249
0.403867
0.402501
0.401154
0.399828
0.398523
0.397241
0.395985
0.394755
0.393552
0.392379
0.391237
0.390126
0.389048
0.388004
0.386994
0.386018
0.385079
0.384175
0.383307
0.382475
0.381679
0.380919
0.380194
0.379503
0.378848
0.378226
0.377637
0.37708
0.376554
0.376059
0.375593
0.375156
0.374746
0.374362
0.374003
0.373668
0.373357
0.373067
0.372797
0.372548
0.372316
0.372102
0.371905
0.371722
0.371554
0.371399
0.371257
0.371126
0.371005
0.370894
0.370792
0.370697
0.37061
0.370529
0.370454
0.370384
0.370318
0.370255
0.370195
0.370138
0.370082
0.370027
0.444268
0.415182
0.412403
0.410954
0.409516
0.40809
0.406677
0.405278
0.403895
0.402528
0.40118
0.399853
0.398547
0.397264
0.396006
0.394774
0.39357
0.392396
0.391252
0.390139
0.38906
0.388014
0.387003
0.386026
0.385085
0.38418
0.383311
0.382479
0.381682
0.380921
0.380195
0.379504
0.378848
0.378226
0.377636
0.377079
0.376553
0.376058
0.375592
0.375155
0.374744
0.374361
0.374002
0.373667
0.373355
0.373065
0.372796
0.372546
0.372315
0.372101
0.371904
0.371721
0.371553
0.371399
0.371256
0.371125
0.371004
0.370893
0.370791
0.370697
0.37061
0.370529
0.370454
0.370383
0.370317
0.370255
0.370195
0.370138
0.370082
0.370027
0.444268
0.415193
0.412415
0.410967
0.409529
0.408103
0.40669
0.405291
0.403907
0.402541
0.401193
0.399864
0.398558
0.397274
0.396015
0.394783
0.393579
0.392403
0.391259
0.390146
0.389065
0.388019
0.387007
0.38603
0.385088
0.384183
0.383313
0.38248
0.381683
0.380922
0.380196
0.379505
0.378848
0.378226
0.377636
0.377079
0.376553
0.376058
0.375592
0.375154
0.374744
0.37436
0.374001
0.373667
0.373355
0.373065
0.372796
0.372546
0.372315
0.372101
0.371903
0.371721
0.371553
0.371398
0.371256
0.371125
0.371004
0.370893
0.370791
0.370697
0.370609
0.370529
0.370453
0.370383
0.370317
0.370255
0.370195
0.370138
0.370082
0.370027
0.444269
0.415198
0.41242
0.410972
0.409534
0.408108
0.406695
0.405296
0.403913
0.402546
0.401198
0.399869
0.398562
0.397279
0.39602
0.394787
0.393582
0.392407
0.391262
0.390148
0.389068
0.388021
0.387008
0.386031
0.38509
0.384184
0.383314
0.382481
0.381683
0.380922
0.380196
0.379505
0.378848
0.378226
0.377636
0.377079
0.376553
0.376057
0.375591
0.375154
0.374743
0.37436
0.374001
0.373666
0.373354
0.373064
0.372795
0.372546
0.372314
0.3721
0.371903
0.371721
0.371553
0.371398
0.371256
0.371125
0.371004
0.370893
0.370791
0.370696
0.370609
0.370529
0.370453
0.370383
0.370317
0.370255
0.370195
0.370138
0.370082
0.370027
0.444269
0.415199
0.412422
0.410974
0.409536
0.40811
0.406697
0.405298
0.403915
0.402548
0.4012
0.399871
0.398564
0.39728
0.396021
0.394789
0.393584
0.392408
0.391263
0.390149
0.389069
0.388022
0.387009
0.386032
0.38509
0.384184
0.383315
0.382481
0.381684
0.380922
0.380196
0.379505
0.378848
0.378226
0.377636
0.377079
0.376553
0.376057
0.375591
0.375153
0.374743
0.374359
0.374001
0.373666
0.373354
0.373064
0.372795
0.372545
0.372314
0.3721
0.371903
0.371721
0.371553
0.371398
0.371255
0.371124
0.371004
0.370893
0.370791
0.370696
0.370609
0.370528
0.370453
0.370383
0.370317
0.370255
0.370195
0.370138
0.370082
0.370027
0.444269
0.4152
0.412423
0.410975
0.409537
0.408111
0.406698
0.405299
0.403916
0.402549
0.4012
0.399872
0.398565
0.397281
0.396022
0.394789
0.393584
0.392408
0.391263
0.39015
0.389069
0.388022
0.387009
0.386032
0.38509
0.384184
0.383315
0.382481
0.381684
0.380922
0.380196
0.379505
0.378848
0.378225
0.377636
0.377078
0.376552
0.376057
0.375591
0.375153
0.374743
0.374359
0.374001
0.373666
0.373354
0.373064
0.372795
0.372545
0.372314
0.3721
0.371903
0.37172
0.371553
0.371398
0.371255
0.371124
0.371004
0.370893
0.370791
0.370696
0.370609
0.370528
0.370453
0.370383
0.370317
0.370255
0.370195
0.370138
0.370082
0.370027
0.444269
0.4152
0.412423
0.410975
0.409537
0.408111
0.406698
0.405299
0.403916
0.402549
0.401201
0.399872
0.398565
0.397281
0.396022
0.394789
0.393584
0.392408
0.391263
0.39015
0.389069
0.388022
0.387009
0.386032
0.38509
0.384184
0.383315
0.382481
0.381684
0.380922
0.380196
0.379505
0.378848
0.378225
0.377636
0.377078
0.376552
0.376057
0.375591
0.375153
0.374743
0.374359
0.374001
0.373666
0.373354
0.373064
0.372795
0.372545
0.372314
0.3721
0.371903
0.37172
0.371552
0.371398
0.371255
0.371124
0.371004
0.370893
0.370791
0.370696
0.370609
0.370528
0.370453
0.370383
0.370317
0.370255
0.370195
0.370138
0.370082
0.370027
0.444269
0.4152
0.412423
0.410975
0.409537
0.408111
0.406698
0.405299
0.403916
0.402549
0.401201
0.399872
0.398565
0.397281
0.396022
0.394789
0.393584
0.392408
0.391263
0.39015
0.389069
0.388022
0.387009
0.386032
0.38509
0.384184
0.383315
0.382481
0.381684
0.380922
0.380196
0.379505
0.378848
0.378225
0.377636
0.377078
0.376552
0.376057
0.375591
0.375153
0.374743
0.374359
0.374001
0.373666
0.373354
0.373064
0.372795
0.372545
0.372314
0.3721
0.371903
0.37172
0.371552
0.371398
0.371255
0.371124
0.371004
0.370893
0.370791
0.370696
0.370609
0.370528
0.370453
0.370383
0.370317
0.370255
0.370195
0.370138
0.370082
0.370027
0.444269
0.4152
0.412423
0.410975
0.409537
0.408111
0.406698
0.4053
0.403916
0.402549
0.401201
0.399872
0.398565
0.397281
0.396022
0.394789
0.393584
0.392408
0.391263
0.39015
0.389069
0.388022
0.387009
0.386032
0.38509
0.384184
0.383315
0.382481
0.381684
0.380922
0.380196
0.379505
0.378848
0.378225
0.377636
0.377078
0.376552
0.376057
0.375591
0.375153
0.374743
0.374359
0.374
0.373666
0.373354
0.373064
0.372795
0.372545
0.372314
0.3721
0.371903
0.37172
0.371552
0.371398
0.371255
0.371124
0.371004
0.370893
0.370791
0.370696
0.370609
0.370528
0.370453
0.370383
0.370317
0.370255
0.370195
0.370138
0.370082
0.370027
0.444269
0.4152
0.412423
0.410975
0.409537
0.408111
0.406698
0.4053
0.403916
0.402549
0.401201
0.399872
0.398565
0.397281
0.396022
0.394789
0.393584
0.392408
0.391263
0.39015
0.389069
0.388022
0.387009
0.386032
0.38509
0.384184
0.383315
0.382481
0.381684
0.380922
0.380196
0.379505
0.378848
0.378225
0.377636
0.377078
0.376552
0.376057
0.375591
0.375153
0.374743
0.374359
0.374
0.373666
0.373354
0.373064
0.372795
0.372545
0.372314
0.3721
0.371903
0.37172
0.371552
0.371398
0.371255
0.371124
0.371004
0.370893
0.370791
0.370696
0.370609
0.370528
0.370453
0.370383
0.370317
0.370255
0.370195
0.370138
0.370082
0.370027
0.444269
0.4152
0.412423
0.410975
0.409537
0.408111
0.406698
0.4053
0.403916
0.402549
0.401201
0.399872
0.398565
0.397281
0.396022
0.394789
0.393584
0.392408
0.391263
0.39015
0.389069
0.388022
0.387009
0.386032
0.38509
0.384184
0.383315
0.382481
0.381684
0.380922
0.380196
0.379505
0.378848
0.378225
0.377636
0.377078
0.376552
0.376057
0.375591
0.375153
0.374743
0.374359
0.374
0.373666
0.373354
0.373064
0.372795
0.372545
0.372314
0.3721
0.371903
0.37172
0.371552
0.371398
0.371255
0.371124
0.371004
0.370893
0.370791
0.370696
0.370609
0.370528
0.370453
0.370383
0.370317
0.370255
0.370195
0.370138
0.370082
0.370027
0.444269
0.4152
0.412423
0.410975
0.409537
0.408111
0.406698
0.4053
0.403916
0.402549
0.401201
0.399872
0.398565
0.397281
0.396022
0.394789
0.393584
0.392408
0.391263
0.39015
0.389069
0.388022
0.387009
0.386032
0.38509
0.384184
0.383315
0.382481
0.381684
0.380922
0.380196
0.379505
0.378848
0.378225
0.377636
0.377078
0.376552
0.376057
0.375591
0.375153
0.374743
0.374359
0.374
0.373666
0.373354
0.373064
0.372795
0.372545
0.372314
0.3721
0.371903
0.37172
0.371552
0.371398
0.371255
0.371124
0.371004
0.370893
0.370791
0.370696
0.370609
0.370528
0.370453
0.370383
0.370317
0.370255
0.370195
0.370138
0.370082
0.370027
0.444269
0.4152
0.412423
0.410975
0.409537
0.408111
0.406698
0.4053
0.403916
0.402549
0.401201
0.399872
0.398565
0.397281
0.396022
0.394789
0.393584
0.392408
0.391263
0.39015
0.389069
0.388022
0.387009
0.386032
0.38509
0.384184
0.383315
0.382481
0.381684
0.380922
0.380196
0.379505
0.378848
0.378225
0.377636
0.377078
0.376552
0.376057
0.375591
0.375153
0.374743
0.374359
0.374
0.373666
0.373354
0.373064
0.372795
0.372545
0.372314
0.3721
0.371903
0.37172
0.371552
0.371398
0.371255
0.371124
0.371004
0.370893
0.370791
0.370696
0.370609
0.370528
0.370453
0.370383
0.370317
0.370255
0.370195
0.370138
0.370082
0.370027
0.444269
0.4152
0.412423
0.410975
0.409537
0.408111
0.406698
0.4053
0.403916
0.402549
0.401201
0.399872
0.398565
0.397281
0.396022
0.394789
0.393584
0.392408
0.391263
0.39015
0.389069
0.388022
0.387009
0.386032
0.38509
0.384184
0.383315
0.382481
0.381684
0.380922
0.380196
0.379505
0.378848
0.378225
0.377636
0.377078
0.376552
0.376057
0.375591
0.375153
0.374743
0.374359
0.374
0.373666
0.373354
0.373064
0.372795
0.372545
0.372314
0.3721
0.371903
0.37172
0.371552
0.371398
0.371255
0.371124
0.371004
0.370893
0.370791
0.370696
0.370609
0.370528
0.370453
0.370383
0.370317
0.370255
0.370195
0.370138
0.370082
0.370027
0.444269
0.4152
0.412423
0.410975
0.409537
0.408111
0.406698
0.4053
0.403916
0.402549
0.401201
0.399872
0.398565
0.397281
0.396022
0.394789
0.393584
0.392408
0.391263
0.39015
0.389069
0.388022
0.387009
0.386032
0.38509
0.384184
0.383315
0.382481
0.381684
0.380922
0.380196
0.379505
0.378848
0.378225
0.377636
0.377078
0.376552
0.376057
0.375591
0.375153
0.374743
0.374359
0.374
0.373666
0.373354
0.373064
0.372795
0.372545
0.372314
0.3721
0.371903
0.37172
0.371552
0.371398
0.371255
0.371124
0.371004
0.370893
0.370791
0.370696
0.370609
0.370528
0.370453
0.370383
0.370317
0.370255
0.370195
0.370138
0.370082
0.370027
0.444269
0.4152
0.412423
0.410975
0.409537
0.408111
0.406698
0.4053
0.403916
0.402549
0.401201
0.399872
0.398565
0.397281
0.396022
0.394789
0.393584
0.392408
0.391263
0.39015
0.389069
0.388022
0.387009
0.386032
0.38509
0.384184
0.383315
0.382481
0.381684
0.380922
0.380196
0.379505
0.378848
0.378225
0.377636
0.377078
0.376552
0.376057
0.375591
0.375153
0.374743
0.374359
0.374
0.373666
0.373354
0.373064
0.372795
0.372545
0.372314
0.3721
0.371903
0.37172
0.371552
0.371398
0.371255
0.371124
0.371004
0.370893
0.370791
0.370696
0.370609
0.370528
0.370453
0.370383
0.370317
0.370255
0.370195
0.370138
0.370082
0.370027
0.444269
0.4152
0.412423
0.410975
0.409537
0.408111
0.406698
0.4053
0.403916
0.402549
0.401201
0.399872
0.398565
0.397281
0.396022
0.394789
0.393584
0.392408
0.391263
0.39015
0.389069
0.388022
0.387009
0.386032
0.38509
0.384184
0.383315
0.382481
0.381684
0.380922
0.380196
0.379505
0.378848
0.378225
0.377636
0.377078
0.376552
0.376057
0.375591
0.375153
0.374743
0.374359
0.374
0.373666
0.373354
0.373064
0.372795
0.372545
0.372314
0.3721
0.371903
0.37172
0.371552
0.371398
0.371255
0.371124
0.371004
0.370893
0.370791
0.370696
0.370609
0.370528
0.370453
0.370383
0.370317
0.370255
0.370195
0.370138
0.370082
0.370027
0.444269
0.4152
0.412423
0.410975
0.409537
0.408111
0.406698
0.4053
0.403916
0.402549
0.401201
0.399872
0.398565
0.397281
0.396022
0.394789
0.393584
0.392408
0.391263
0.39015
0.389069
0.388022
0.387009
0.386032
0.38509
0.384184
0.383315
0.382481
0.381684
0.380922
0.380196
0.379505
0.378848
0.378225
0.377636
0.377078
0.376552
0.376057
0.375591
0.375153
0.374743
0.374359
0.374
0.373666
0.373354
0.373064
0.372795
0.372545
0.372314
0.3721
0.371903
0.37172
0.371552
0.371398
0.371255
0.371124
0.371004
0.370893
0.370791
0.370696
0.370609
0.370528
0.370453
0.370383
0.370317
0.370255
0.370195
0.370138
0.370082
0.370027
0.444269
0.4152
0.412423
0.410975
0.409537
0.408111
0.406698
0.4053
0.403916
0.402549
0.401201
0.399872
0.398565
0.397281
0.396022
0.394789
0.393584
0.392408
0.391263
0.39015
0.389069
0.388022
0.387009
0.386032
0.38509
0.384184
0.383315
0.382481
0.381684
0.380922
0.380196
0.379505
0.378848
0.378225
0.377636
0.377078
0.376552
0.376057
0.375591
0.375153
0.374743
0.374359
0.374
0.373666
0.373354
0.373064
0.372795
0.372545
0.372314
0.3721
0.371903
0.37172
0.371552
0.371398
0.371255
0.371124
0.371004
0.370893
0.370791
0.370696
0.370609
0.370528
0.370453
0.370383
0.370317
0.370255
0.370195
0.370138
0.370082
0.370027
0.444269
0.4152
0.412423
0.410975
0.409537
0.408111
0.406698
0.4053
0.403916
0.402549
0.401201
0.399872
0.398565
0.397281
0.396022
0.394789
0.393584
0.392408
0.391263
0.39015
0.389069
0.388022
0.387009
0.386032
0.38509
0.384184
0.383315
0.382481
0.381684
0.380922
0.380196
0.379505
0.378848
0.378225
0.377636
0.377078
0.376552
0.376057
0.375591
0.375153
0.374743
0.374359
0.374
0.373666
0.373354
0.373064
0.372795
0.372545
0.372314
0.3721
0.371903
0.37172
0.371552
0.371398
0.371255
0.371124
0.371004
0.370893
0.370791
0.370696
0.370609
0.370528
0.370453
0.370383
0.370317
0.370255
0.370195
0.370138
0.370082
0.370027
0.444269
0.4152
0.412423
0.410975
0.409537
0.408111
0.406698
0.4053
0.403916
0.402549
0.401201
0.399872
0.398565
0.397281
0.396022
0.394789
0.393584
0.392408
0.391263
0.39015
0.389069
0.388022
0.387009
0.386032
0.38509
0.384184
0.383315
0.382481
0.381684
0.380922
0.380196
0.379505
0.378848
0.378225
0.377636
0.377078
0.376552
0.376057
0.375591
0.375153
0.374743
0.374359
0.374
0.373666
0.373354
0.373064
0.372795
0.372545
0.372314
0.3721
0.371903
0.37172
0.371552
0.371398
0.371255
0.371124
0.371004
0.370893
0.370791
0.370696
0.370609
0.370528
0.370453
0.370383
0.370317
0.370255
0.370195
0.370138
0.370082
0.370027
0.444269
0.4152
0.412423
0.410975
0.409537
0.408111
0.406698
0.4053
0.403916
0.402549
0.401201
0.399872
0.398565
0.397281
0.396022
0.394789
0.393584
0.392408
0.391263
0.39015
0.389069
0.388022
0.387009
0.386032
0.38509
0.384184
0.383315
0.382481
0.381684
0.380922
0.380196
0.379505
0.378848
0.378225
0.377636
0.377078
0.376552
0.376057
0.375591
0.375153
0.374743
0.374359
0.374
0.373666
0.373354
0.373064
0.372795
0.372545
0.372314
0.3721
0.371903
0.37172
0.371552
0.371398
0.371255
0.371124
0.371004
0.370893
0.370791
0.370696
0.370609
0.370528
0.370453
0.370383
0.370317
0.370255
0.370195
0.370138
0.370082
0.370027
0.444269
0.4152
0.412423
0.410975
0.409537
0.408111
0.406698
0.4053
0.403916
0.402549
0.401201
0.399872
0.398565
0.397281
0.396022
0.394789
0.393584
0.392408
0.391263
0.39015
0.389069
0.388022
0.387009
0.386032
0.38509
0.384184
0.383315
0.382481
0.381684
0.380922
0.380196
0.379505
0.378848
0.378225
0.377636
0.377078
0.376552
0.376057
0.375591
0.375153
0.374743
0.374359
0.374
0.373666
0.373354
0.373064
0.372795
0.372545
0.372314
0.3721
0.371903
0.37172
0.371552
0.371398
0.371255
0.371124
0.371004
0.370893
0.370791
0.370696
0.370609
0.370528
0.370453
0.370383
0.370317
0.370255
0.370195
0.370138
0.370082
0.370027
0.444269
0.4152
0.412423
0.410975
0.409537
0.408111
0.406698
0.4053
0.403916
0.402549
0.401201
0.399872
0.398565
0.397281
0.396022
0.394789
0.393584
0.392408
0.391263
0.39015
0.389069
0.388022
0.387009
0.386032
0.38509
0.384184
0.383315
0.382481
0.381684
0.380922
0.380196
0.379505
0.378848
0.378225
0.377636
0.377078
0.376552
0.376057
0.375591
0.375153
0.374743
0.374359
0.374
0.373666
0.373354
0.373064
0.372795
0.372545
0.372314
0.3721
0.371903
0.37172
0.371552
0.371398
0.371255
0.371124
0.371004
0.370893
0.370791
0.370696
0.370609
0.370528
0.370453
0.370383
0.370317
0.370255
0.370195
0.370138
0.370082
0.370027
0.444269
0.4152
0.412423
0.410975
0.409537
0.408111
0.406698
0.4053
0.403916
0.402549
0.401201
0.399872
0.398565
0.397281
0.396022
0.394789
0.393584
0.392408
0.391263
0.39015
0.389069
0.388022
0.387009
0.386032
0.38509
0.384184
0.383315
0.382481
0.381684
0.380922
0.380196
0.379505
0.378848
0.378225
0.377636
0.377078
0.376552
0.376057
0.375591
0.375153
0.374743
0.374359
0.374
0.373666
0.373354
0.373064
0.372795
0.372545
0.372314
0.3721
0.371903
0.37172
0.371552
0.371398
0.371255
0.371124
0.371004
0.370893
0.370791
0.370696
0.370609
0.370528
0.370453
0.370383
0.370317
0.370255
0.370195
0.370138
0.370082
0.370027
0.444269
0.4152
0.412423
0.410975
0.409537
0.408111
0.406698
0.4053
0.403916
0.402549
0.401201
0.399872
0.398565
0.397281
0.396022
0.394789
0.393584
0.392408
0.391263
0.39015
0.389069
0.388022
0.387009
0.386032
0.38509
0.384184
0.383315
0.382481
0.381684
0.380922
0.380196
0.379505
0.378848
0.378225
0.377636
0.377078
0.376552
0.376057
0.375591
0.375153
0.374743
0.374359
0.374
0.373666
0.373354
0.373064
0.372795
0.372545
0.372314
0.3721
0.371903
0.37172
0.371552
0.371398
0.371255
0.371124
0.371004
0.370893
0.370791
0.370696
0.370609
0.370528
0.370453
0.370383
0.370317
0.370255
0.370195
0.370138
0.370082
0.370027
0.444269
0.4152
0.412423
0.410975
0.409537
0.408111
0.406698
0.4053
0.403916
0.402549
0.401201
0.399872
0.398565
0.397281
0.396022
0.394789
0.393584
0.392408
0.391263
0.39015
0.389069
0.388022
0.387009
0.386032
0.38509
0.384184
0.383315
0.382481
0.381684
0.380922
0.380196
0.379505
0.378848
0.378225
0.377636
0.377078
0.376552
0.376057
0.375591
0.375153
0.374743
0.374359
0.374
0.373666
0.373354
0.373064
0.372795
0.372545
0.372314
0.3721
0.371903
0.37172
0.371552
0.371398
0.371255
0.371124
0.371004
0.370893
0.370791
0.370696
0.370609
0.370528
0.370453
0.370383
0.370317
0.370255
0.370195
0.370138
0.370082
0.370027
0.444269
0.4152
0.412423
0.410975
0.409537
0.408111
0.406698
0.4053
0.403916
0.402549
0.401201
0.399872
0.398565
0.397281
0.396022
0.394789
0.393584
0.392408
0.391263
0.39015
0.389069
0.388022
0.387009
0.386032
0.38509
0.384184
0.383315
0.382481
0.381684
0.380922
0.380196
0.379505
0.378848
0.378225
0.377636
0.377078
0.376552
0.376057
0.375591
0.375153
0.374743
0.374359
0.374
0.373666
0.373354
0.373064
0.372795
0.372545
0.372314
0.3721
0.371903
0.37172
0.371552
0.371398
0.371255
0.371124
0.371004
0.370893
0.370791
0.370696
0.370609
0.370528
0.370453
0.370383
0.370317
0.370255
0.370195
0.370138
0.370082
0.370027
0.444269
0.4152
0.412423
0.410975
0.409537
0.408111
0.406698
0.4053
0.403916
0.402549
0.401201
0.399872
0.398565
0.397281
0.396022
0.394789
0.393584
0.392408
0.391263
0.39015
0.389069
0.388022
0.387009
0.386032
0.38509
0.384184
0.383315
0.382481
0.381684
0.380922
0.380196
0.379505
0.378848
0.378225
0.377636
0.377078
0.376552
0.376057
0.375591
0.375153
0.374743
0.374359
0.374
0.373666
0.373354
0.373064
0.372795
0.372545
0.372314
0.3721
0.371903
0.37172
0.371552
0.371398
0.371255
0.371124
0.371004
0.370893
0.370791
0.370696
0.370609
0.370528
0.370453
0.370383
0.370317
0.370255
0.370195
0.370138
0.370082
0.370027
0.444269
0.4152
0.412423
0.410975
0.409537
0.408111
0.406698
0.4053
0.403916
0.402549
0.401201
0.399872
0.398565
0.397281
0.396022
0.394789
0.393584
0.392408
0.391263
0.39015
0.389069
0.388022
0.387009
0.386032
0.38509
0.384184
0.383315
0.382481
0.381684
0.380922
0.380196
0.379505
0.378848
0.378225
0.377636
0.377078
0.376552
0.376057
0.375591
0.375153
0.374743
0.374359
0.374
0.373666
0.373354
0.373064
0.372795
0.372545
0.372314
0.3721
0.371903
0.37172
0.371552
0.371398
0.371255
0.371124
0.371004
0.370893
0.370791
0.370696
0.370609
0.370528
0.370453
0.370383
0.370317
0.370255
0.370195
0.370138
0.370082
0.370027
0.444269
0.4152
0.412423
0.410975
0.409537
0.408111
0.406698
0.4053
0.403916
0.402549
0.401201
0.399872
0.398565
0.397281
0.396022
0.394789
0.393584
0.392408
0.391263
0.39015
0.389069
0.388022
0.387009
0.386032
0.38509
0.384184
0.383315
0.382481
0.381684
0.380922
0.380196
0.379505
0.378848
0.378225
0.377636
0.377078
0.376552
0.376057
0.375591
0.375153
0.374743
0.374359
0.374
0.373666
0.373354
0.373064
0.372795
0.372545
0.372314
0.3721
0.371903
0.37172
0.371552
0.371398
0.371255
0.371124
0.371004
0.370893
0.370791
0.370696
0.370609
0.370528
0.370453
0.370383
0.370317
0.370255
0.370195
0.370138
0.370082
0.370027
0.444269
0.4152
0.412423
0.410975
0.409537
0.408111
0.406698
0.4053
0.403916
0.402549
0.401201
0.399872
0.398565
0.397281
0.396022
0.394789
0.393584
0.392408
0.391263
0.39015
0.389069
0.388022
0.387009
0.386032
0.38509
0.384184
0.383315
0.382481
0.381684
0.380922
0.380196
0.379505
0.378848
0.378225
0.377636
0.377078
0.376552
0.376057
0.375591
0.375153
0.374743
0.374359
0.374
0.373666
0.373354
0.373064
0.372795
0.372545
0.372314
0.3721
0.371903
0.37172
0.371552
0.371398
0.371255
0.371124
0.371004
0.370893
0.370791
0.370696
0.370609
0.370528
0.370453
0.370383
0.370317
0.370255
0.370195
0.370138
0.370082
0.370027
0.444269
0.4152
0.412423
0.410975
0.409537
0.408111
0.406698
0.4053
0.403916
0.402549
0.401201
0.399872
0.398565
0.397281
0.396022
0.394789
0.393584
0.392408
0.391263
0.39015
0.389069
0.388022
0.387009
0.386032
0.38509
0.384184
0.383315
0.382481
0.381684
0.380922
0.380196
0.379505
0.378848
0.378225
0.377636
0.377078
0.376552
0.376057
0.375591
0.375153
0.374743
0.374359
0.374
0.373666
0.373354
0.373064
0.372795
0.372545
0.372314
0.3721
0.371903
0.37172
0.371552
0.371398
0.371255
0.371124
0.371004
0.370893
0.370791
0.370696
0.370609
0.370528
0.370453
0.370383
0.370317
0.370255
0.370195
0.370138
0.370082
0.370027
0.444269
0.4152
0.412423
0.410975
0.409537
0.408111
0.406698
0.4053
0.403916
0.402549
0.401201
0.399872
0.398565
0.397281
0.396022
0.394789
0.393584
0.392408
0.391263
0.39015
0.389069
0.388022
0.387009
0.386032
0.38509
0.384184
0.383315
0.382481
0.381684
0.380922
0.380196
0.379505
0.378848
0.378225
0.377636
0.377078
0.376552
0.376057
0.375591
0.375153
0.374743
0.374359
0.374
0.373666
0.373354
0.373064
0.372795
0.372545
0.372314
0.3721
0.371903
0.37172
0.371552
0.371398
0.371255
0.371124
0.371004
0.370893
0.370791
0.370696
0.370609
0.370528
0.370453
0.370383
0.370317
0.370255
0.370195
0.370138
0.370082
0.370027
0.444269
0.4152
0.412423
0.410975
0.409537
0.408111
0.406698
0.4053
0.403916
0.402549
0.401201
0.399872
0.398565
0.397281
0.396022
0.394789
0.393584
0.392408
0.391263
0.39015
0.389069
0.388022
0.387009
0.386032
0.38509
0.384184
0.383315
0.382481
0.381684
0.380922
0.380196
0.379505
0.378848
0.378225
0.377636
0.377078
0.376552
0.376057
0.375591
0.375153
0.374743
0.374359
0.374
0.373666
0.373354
0.373064
0.372795
0.372545
0.372314
0.3721
0.371903
0.37172
0.371552
0.371398
0.371255
0.371124
0.371004
0.370893
0.370791
0.370696
0.370609
0.370528
0.370453
0.370383
0.370317
0.370255
0.370195
0.370138
0.370082
0.370027
0.444269
0.4152
0.412423
0.410975
0.409537
0.408111
0.406698
0.4053
0.403916
0.402549
0.401201
0.399872
0.398565
0.397281
0.396022
0.394789
0.393584
0.392408
0.391263
0.39015
0.389069
0.388022
0.387009
0.386032
0.38509
0.384184
0.383315
0.382481
0.381684
0.380922
0.380196
0.379505
0.378848
0.378225
0.377636
0.377078
0.376552
0.376057
0.375591
0.375153
0.374743
0.374359
0.374
0.373666
0.373354
0.373064
0.372795
0.372545
0.372314
0.3721
0.371903
0.37172
0.371552
0.371398
0.371255
0.371124
0.371004
0.370893
0.370791
0.370696
0.370609
0.370528
0.370453
0.370383
0.370317
0.370255
0.370195
0.370138
0.370082
0.370027
0.444269
0.4152
0.412423
0.410975
0.409537
0.408111
0.406698
0.4053
0.403916
0.402549
0.401201
0.399872
0.398565
0.397281
0.396022
0.394789
0.393584
0.392408
0.391263
0.39015
0.389069
0.388022
0.387009
0.386032
0.38509
0.384184
0.383315
0.382481
0.381684
0.380922
0.380196
0.379505
0.378848
0.378225
0.377636
0.377078
0.376552
0.376057
0.375591
0.375153
0.374743
0.374359
0.374
0.373666
0.373354
0.373064
0.372795
0.372545
0.372314
0.3721
0.371903
0.37172
0.371552
0.371398
0.371255
0.371124
0.371004
0.370893
0.370791
0.370696
0.370609
0.370528
0.370453
0.370383
0.370317
0.370255
0.370195
0.370138
0.370082
0.370027
0.444269
0.4152
0.412423
0.410975
0.409537
0.408111
0.406698
0.4053
0.403916
0.402549
0.401201
0.399872
0.398565
0.397281
0.396022
0.394789
0.393584
0.392408
0.391263
0.39015
0.389069
0.388022
0.387009
0.386032
0.38509
0.384184
0.383315
0.382481
0.381684
0.380922
0.380196
0.379505
0.378848
0.378225
0.377636
0.377078
0.376552
0.376057
0.375591
0.375153
0.374743
0.374359
0.374
0.373666
0.373354
0.373064
0.372795
0.372545
0.372314
0.3721
0.371903
0.37172
0.371552
0.371398
0.371255
0.371124
0.371004
0.370893
0.370791
0.370696
0.370609
0.370528
0.370453
0.370383
0.370317
0.370255
0.370195
0.370138
0.370082
0.370027
0.444269
0.4152
0.412423
0.410975
0.409537
0.408111
0.406698
0.4053
0.403916
0.402549
0.401201
0.399872
0.398565
0.397281
0.396022
0.394789
0.393584
0.392408
0.391263
0.39015
0.389069
0.388022
0.387009
0.386032
0.38509
0.384184
0.383315
0.382481
0.381684
0.380922
0.380196
0.379505
0.378848
0.378225
0.377636
0.377078
0.376552
0.376057
0.375591
0.375153
0.374743
0.374359
0.374
0.373666
0.373354
0.373064
0.372795
0.372545
0.372314
0.3721
0.371903
0.37172
0.371552
0.371398
0.371255
0.371124
0.371004
0.370893
0.370791
0.370696
0.370609
0.370528
0.370453
0.370383
0.370317
0.370255
0.370195
0.370138
0.370082
0.370027
0.444269
0.4152
0.412423
0.410975
0.409537
0.408111
0.406698
0.4053
0.403916
0.402549
0.401201
0.399872
0.398565
0.397281
0.396022
0.394789
0.393584
0.392408
0.391263
0.39015
0.389069
0.388022
0.387009
0.386032
0.38509
0.384184
0.383315
0.382481
0.381684
0.380922
0.380196
0.379505
0.378848
0.378225
0.377636
0.377078
0.376552
0.376057
0.375591
0.375153
0.374743
0.374359
0.374
0.373666
0.373354
0.373064
0.372795
0.372545
0.372314
0.3721
0.371903
0.37172
0.371552
0.371398
0.371255
0.371124
0.371004
0.370893
0.370791
0.370696
0.370609
0.370528
0.370453
0.370383
0.370317
0.370255
0.370195
0.370138
0.370082
0.370027
0.444269
0.4152
0.412423
0.410975
0.409537
0.408111
0.406698
0.4053
0.403916
0.402549
0.401201
0.399872
0.398565
0.397281
0.396022
0.394789
0.393584
0.392408
0.391263
0.39015
0.389069
0.388022
0.387009
0.386032
0.38509
0.384184
0.383315
0.382481
0.381684
0.380922
0.380196
0.379505
0.378848
0.378225
0.377636
0.377078
0.376552
0.376057
0.375591
0.375153
0.374743
0.374359
0.374
0.373666
0.373354
0.373064
0.372795
0.372545
0.372314
0.3721
0.371903
0.37172
0.371552
0.371398
0.371255
0.371124
0.371004
0.370893
0.370791
0.370696
0.370609
0.370528
0.370453
0.370383
0.370317
0.370255
0.370195
0.370138
0.370082
0.370027
0.444269
0.4152
0.412423
0.410975
0.409537
0.408111
0.406698
0.4053
0.403916
0.402549
0.401201
0.399872
0.398565
0.397281
0.396022
0.394789
0.393584
0.392408
0.391263
0.39015
0.389069
0.388022
0.387009
0.386032