/*--------------------------------*- C++ -*----------------------------------*\
  =========                 |
  \\      /  F ield         | OpenFOAM: The Open Source CFD Toolbox
   \\    /   O peration     | Website:  https://openfoam.org
    \\  /    A nd           | Version:  13
     \\/     M anipulation  |
\*---------------------------------------------------------------------------*/
FoamFile
{
    format      ascii;
    class       volScalarField;
    location    "132.5";
    object      nut;
}
// * * * * * * * * * * * * * * * * * * * * * * * * * * * * * * * * * * * * * //

dimensions      [0 2 -1 0 0 0 0];

internalField   nonuniform List<scalar> 
315000
(
2.16875e-15
5.68041e-13
1.29641e-11
2.32762e-11
3.37656e-11
4.44578e-11
5.53833e-11
6.65692e-11
7.80342e-11
8.97871e-11
1.01825e-10
1.14134e-10
1.26688e-10
1.3945e-10
1.52373e-10
1.65401e-10
1.78469e-10
1.91507e-10
2.04438e-10
2.17182e-10
2.29655e-10
2.41774e-10
2.53453e-10
2.6461e-10
2.75163e-10
2.85035e-10
2.94151e-10
3.02443e-10
3.09847e-10
3.16306e-10
3.2177e-10
3.26198e-10
3.29553e-10
3.31811e-10
3.32953e-10
3.3297e-10
3.31863e-10
3.2964e-10
3.26317e-10
3.21923e-10
3.16489e-10
3.1006e-10
3.02684e-10
2.94418e-10
2.85326e-10
2.75475e-10
2.64941e-10
2.538e-10
2.42134e-10
2.30026e-10
2.1756e-10
2.04821e-10
1.91892e-10
1.78853e-10
1.6578e-10
1.52746e-10
1.39813e-10
1.27039e-10
1.14471e-10
1.02145e-10
9.00878e-11
7.83138e-11
6.68253e-11
5.56138e-11
4.46598e-11
3.39355e-11
2.34088e-11
1.30503e-11
5.72581e-13
2.18779e-15
5.42827e-14
1.44574e-11
3.29332e-09
5.95915e-09
8.65971e-09
1.1408e-08
1.42149e-08
1.7089e-08
2.00357e-08
2.30577e-08
2.61545e-08
2.93224e-08
3.25548e-08
3.58421e-08
3.91719e-08
4.25296e-08
4.58984e-08
4.92599e-08
5.2594e-08
5.588e-08
5.90963e-08
6.22209e-08
6.52322e-08
6.81085e-08
7.08289e-08
7.33734e-08
7.57228e-08
7.78595e-08
7.97671e-08
8.14311e-08
8.28386e-08
8.39788e-08
8.48427e-08
8.54237e-08
8.57172e-08
8.5721e-08
8.54349e-08
8.48612e-08
8.40044e-08
8.28712e-08
8.14704e-08
7.98127e-08
7.7911e-08
7.57799e-08
7.34355e-08
7.08956e-08
6.81792e-08
6.53062e-08
6.22978e-08
5.91753e-08
5.59605e-08
5.26754e-08
4.93415e-08
4.59796e-08
4.26097e-08
3.92503e-08
3.59181e-08
3.2628e-08
2.93922e-08
2.62203e-08
2.3119e-08
2.00919e-08
1.71397e-08
1.42596e-08
1.1446e-08
8.69038e-09
5.98168e-09
3.30668e-09
1.45203e-11
5.45261e-14
2.18455e-13
5.8267e-11
3.38137e-08
6.1199e-08
8.89429e-08
1.17205e-07
1.46122e-07
1.758e-07
2.06311e-07
2.37692e-07
2.69944e-07
3.03027e-07
3.36868e-07
3.71355e-07
4.06349e-07
4.4168e-07
4.77156e-07
5.12569e-07
5.47696e-07
5.82306e-07
6.16164e-07
6.49035e-07
6.80687e-07
7.10892e-07
7.39432e-07
7.66099e-07
7.90699e-07
8.1305e-07
8.32987e-07
8.50364e-07
8.65051e-07
8.7694e-07
8.85943e-07
8.91992e-07
8.95044e-07
8.95074e-07
8.92083e-07
8.86094e-07
8.7715e-07
8.65318e-07
8.50685e-07
8.3336e-07
8.13472e-07
7.91166e-07
7.66608e-07
7.39977e-07
7.1147e-07
6.81293e-07
6.49664e-07
6.1681e-07
5.82964e-07
5.48361e-07
5.13235e-07
4.77817e-07
4.4233e-07
4.06984e-07
3.7197e-07
3.37456e-07
3.03585e-07
2.70466e-07
2.38175e-07
2.06751e-07
1.76192e-07
1.46464e-07
1.17492e-07
8.91706e-08
6.13632e-08
3.3909e-08
5.84394e-11
2.19114e-13
4.1217e-13
1.09944e-10
6.37564e-08
1.15352e-07
1.6767e-07
2.21072e-07
2.75862e-07
3.32282e-07
3.905e-07
4.50604e-07
5.12602e-07
5.76415e-07
6.41883e-07
7.08768e-07
7.76762e-07
8.45498e-07
9.14562e-07
9.83509e-07
1.05188e-06
1.11919e-06
1.18498e-06
1.24879e-06
1.31015e-06
1.36864e-06
1.42384e-06
1.47536e-06
1.52283e-06
1.56592e-06
1.60432e-06
1.63775e-06
1.66599e-06
1.68883e-06
1.70612e-06
1.71773e-06
1.72358e-06
1.72362e-06
1.71787e-06
1.70635e-06
1.68915e-06
1.6664e-06
1.63824e-06
1.60488e-06
1.56656e-06
1.52354e-06
1.47614e-06
1.42467e-06
1.36952e-06
1.31108e-06
1.24974e-06
1.18597e-06
1.12019e-06
1.05289e-06
9.84522e-07
9.15568e-07
8.46488e-07
7.77728e-07
7.09701e-07
6.42775e-07
5.77259e-07
5.13392e-07
4.51332e-07
3.9116e-07
3.32868e-07
2.7637e-07
2.21496e-07
1.68005e-07
1.15592e-07
6.3895e-08
1.10195e-10
4.13131e-13
6.35665e-13
1.69572e-10
9.82403e-08
1.77616e-07
2.58092e-07
3.40283e-07
4.24706e-07
5.11764e-07
6.01734e-07
6.94755e-07
7.90828e-07
8.89809e-07
9.91415e-07
1.09523e-06
1.20074e-06
1.30732e-06
1.4143e-06
1.52098e-06
1.62662e-06
1.73052e-06
1.83196e-06
1.93024e-06
2.0247e-06
2.11466e-06
2.19952e-06
2.27868e-06
2.35159e-06
2.41774e-06
2.47667e-06
2.52796e-06
2.57127e-06
2.6063e-06
2.63279e-06
2.65058e-06
2.65953e-06
2.65959e-06
2.65075e-06
2.63308e-06
2.60669e-06
2.57178e-06
2.52857e-06
2.47737e-06
2.41854e-06
2.35248e-06
2.27965e-06
2.20056e-06
2.11576e-06
2.02585e-06
1.93144e-06
1.83319e-06
1.73177e-06
1.62789e-06
1.52224e-06
1.41556e-06
1.30856e-06
1.20195e-06
1.0964e-06
9.92535e-07
8.90868e-07
7.91818e-07
6.95668e-07
6.02561e-07
5.12499e-07
4.25341e-07
3.40813e-07
2.5851e-07
1.77915e-07
9.84129e-08
1.69886e-10
6.36866e-13
8.77723e-13
2.34159e-10
1.35507e-07
2.44748e-07
3.5539e-07
4.68327e-07
5.843e-07
7.0388e-07
8.27443e-07
9.55166e-07
1.08702e-06
1.22276e-06
1.36196e-06
1.504e-06
1.6481e-06
1.79341e-06
1.939e-06
2.0839e-06
2.22715e-06
2.36782e-06
2.50497e-06
2.6377e-06
2.76513e-06
2.8864e-06
3.00072e-06
3.10729e-06
3.20539e-06
3.29436e-06
3.37359e-06
3.44253e-06
3.50073e-06
3.54777e-06
3.58336e-06
3.60723e-06
3.61924e-06
3.61931e-06
3.60743e-06
3.58368e-06
3.54822e-06
3.50129e-06
3.44321e-06
3.37438e-06
3.29525e-06
3.20638e-06
3.10837e-06
3.00187e-06
2.88763e-06
2.76641e-06
2.63904e-06
2.50635e-06
2.36922e-06
2.22857e-06
2.08532e-06
1.94042e-06
1.79481e-06
1.64947e-06
1.50532e-06
1.36323e-06
1.22397e-06
1.08814e-06
9.56203e-07
8.28383e-07
7.04714e-07
5.85022e-07
4.68928e-07
3.55864e-07
2.45087e-07
1.35703e-07
2.34518e-10
8.79098e-13
1.12219e-12
2.99397e-10
1.73058e-07
3.1222e-07
4.52957e-07
5.96447e-07
7.4365e-07
8.9529e-07
1.05183e-06
1.21347e-06
1.38012e-06
1.55144e-06
1.72681e-06
1.90541e-06
2.08625e-06
2.2682e-06
2.45013e-06
2.63083e-06
2.80916e-06
2.98397e-06
3.15414e-06
3.3186e-06
3.4763e-06
3.62623e-06
3.76742e-06
3.89895e-06
4.01995e-06
4.12963e-06
4.22725e-06
4.31217e-06
4.38382e-06
4.44174e-06
4.48554e-06
4.51492e-06
4.52969e-06
4.52976e-06
4.51512e-06
4.48587e-06
4.44221e-06
4.38441e-06
4.31288e-06
4.22807e-06
4.13056e-06
4.02099e-06
3.90008e-06
3.76863e-06
3.62752e-06
3.47765e-06
3.32e-06
3.15558e-06
2.98544e-06
2.81065e-06
2.63233e-06
2.45162e-06
2.26968e-06
2.08769e-06
1.90681e-06
1.72815e-06
1.55271e-06
1.38132e-06
1.21457e-06
1.05283e-06
8.96177e-07
7.44417e-07
5.97086e-07
4.53461e-07
3.12581e-07
1.73267e-07
2.99781e-10
1.12367e-12
1.35287e-12
3.60963e-10
2.08412e-07
3.75586e-07
5.44384e-07
7.16247e-07
8.92341e-07
1.07353e-06
1.26034e-06
1.45297e-06
1.65128e-06
1.85481e-06
2.06278e-06
2.27418e-06
2.48779e-06
2.70231e-06
2.91639e-06
3.12866e-06
3.33779e-06
3.54247e-06
3.74145e-06
3.93351e-06
4.11747e-06
4.29219e-06
4.45658e-06
4.60961e-06
4.75032e-06
4.87779e-06
4.9912e-06
5.08982e-06
5.17302e-06
5.24026e-06
5.29109e-06
5.3252e-06
5.34234e-06
5.3424e-06
5.3254e-06
5.29142e-06
5.24072e-06
5.17361e-06
5.09053e-06
4.99202e-06
4.87871e-06
4.75135e-06
4.61074e-06
4.45778e-06
4.29346e-06
4.11881e-06
3.93491e-06
3.74289e-06
3.54394e-06
3.33928e-06
3.13016e-06
2.91788e-06
2.70379e-06
2.48924e-06
2.27558e-06
2.06413e-06
1.85609e-06
1.65249e-06
1.45408e-06
1.26135e-06
1.07442e-06
8.93118e-07
7.16894e-07
5.44894e-07
3.75952e-07
2.08624e-07
3.61354e-10
1.35438e-12
1.55691e-12
4.15429e-10
2.39625e-07
4.31404e-07
6.24758e-07
8.21369e-07
1.02258e-06
1.22936e-06
1.4423e-06
1.6616e-06
1.88705e-06
2.11809e-06
2.35379e-06
2.59297e-06
2.83427e-06
3.07621e-06
3.31727e-06
3.55596e-06
3.7908e-06
4.02036e-06
4.24328e-06
4.45822e-06
4.66391e-06
4.85911e-06
5.04266e-06
5.21342e-06
5.37038e-06
5.51258e-06
5.63913e-06
5.7492e-06
5.84207e-06
5.91714e-06
5.97389e-06
6.01196e-06
6.03109e-06
6.03115e-06
6.01215e-06
5.97421e-06
5.91758e-06
5.84264e-06
5.74988e-06
5.63992e-06
5.51348e-06
5.37137e-06
5.2145e-06
5.04382e-06
4.86035e-06
4.66521e-06
4.45957e-06
4.24467e-06
4.02179e-06
3.79225e-06
3.55742e-06
3.31873e-06
3.07765e-06
2.83568e-06
2.59435e-06
2.35511e-06
2.11934e-06
1.88823e-06
1.66269e-06
1.44329e-06
1.23024e-06
1.02334e-06
8.22003e-07
6.25258e-07
4.31762e-07
2.39833e-07
4.15816e-10
1.5584e-12
1.72668e-12
4.60759e-10
2.65557e-07
4.77691e-07
6.91301e-07
9.08268e-07
1.13008e-06
1.35781e-06
1.59208e-06
1.83309e-06
2.08058e-06
2.33388e-06
2.59198e-06
2.85354e-06
3.11708e-06
3.38098e-06
3.64363e-06
3.90341e-06
4.15874e-06
4.40811e-06
4.65005e-06
4.88316e-06
5.10608e-06
5.31752e-06
5.51628e-06
5.70125e-06
5.87131e-06
6.02539e-06
6.1625e-06
6.28175e-06
6.38236e-06
6.46366e-06
6.52512e-06
6.56635e-06
6.58705e-06
6.58712e-06
6.56653e-06
6.52543e-06
6.46408e-06
6.38289e-06
6.2824e-06
6.16325e-06
6.02624e-06
5.87225e-06
5.70228e-06
5.51739e-06
5.31869e-06
5.10732e-06
4.88445e-06
4.65138e-06
4.40948e-06
4.16013e-06
3.90481e-06
3.64503e-06
3.38237e-06
3.11843e-06
2.85486e-06
2.59325e-06
2.33509e-06
2.08171e-06
1.83414e-06
1.59304e-06
1.35866e-06
1.13081e-06
9.08879e-07
6.91782e-07
4.78035e-07
2.65757e-07
4.61133e-10
1.72813e-12
1.85999e-12
4.96363e-10
2.85897e-07
5.13945e-07
7.43357e-07
9.76173e-07
1.214e-06
1.45798e-06
1.70878e-06
1.96657e-06
2.23106e-06
2.50153e-06
2.77684e-06
3.05559e-06
3.33617e-06
3.6169e-06
3.89606e-06
4.17195e-06
4.44292e-06
4.70739e-06
4.96382e-06
5.21077e-06
5.44681e-06
5.67071e-06
5.88124e-06
6.07716e-06
6.25728e-06
6.42045e-06
6.56564e-06
6.6919e-06
6.7984e-06
6.88445e-06
6.9495e-06
6.99312e-06
7.01503e-06
7.01508e-06
6.99329e-06
6.94979e-06
6.88485e-06
6.79891e-06
6.69251e-06
6.56636e-06
6.42126e-06
6.25817e-06
6.07814e-06
5.88229e-06
5.67184e-06
5.44799e-06
5.212e-06
4.96509e-06
4.70869e-06
4.44424e-06
4.17328e-06
3.89739e-06
3.61822e-06
3.33747e-06
3.05685e-06
2.77806e-06
2.50269e-06
2.23215e-06
1.96757e-06
1.70969e-06
1.45879e-06
1.2147e-06
9.76758e-07
7.43816e-07
5.14274e-07
2.86088e-07
4.96721e-10
1.86139e-12
1.95907e-12
5.22831e-10
3.01005e-07
5.40845e-07
7.81948e-07
1.02648e-06
1.27613e-06
1.5321e-06
1.79507e-06
2.06522e-06
2.34223e-06
2.62531e-06
2.91326e-06
3.20461e-06
3.4977e-06
3.79075e-06
4.08199e-06
4.36967e-06
4.65208e-06
4.9276e-06
5.19463e-06
5.45168e-06
5.69741e-06
5.93052e-06
6.14971e-06
6.35368e-06
6.54118e-06
6.71102e-06
6.86213e-06
6.99351e-06
7.10432e-06
7.19384e-06
7.26151e-06
7.30687e-06
7.32966e-06
7.32971e-06
7.30704e-06
7.26178e-06
7.19422e-06
7.1048e-06
6.99409e-06
6.86281e-06
6.7118e-06
6.54203e-06
6.35461e-06
6.15072e-06
5.9316e-06
5.69855e-06
5.45286e-06
5.19585e-06
4.92884e-06
4.65335e-06
4.37095e-06
4.08327e-06
3.79202e-06
3.49895e-06
3.20583e-06
2.91443e-06
2.62642e-06
2.34328e-06
2.06619e-06
1.79595e-06
1.53288e-06
1.2768e-06
1.02704e-06
7.82389e-07
5.4116e-07
3.01188e-07
5.23177e-10
1.96042e-12
2.02896e-12
5.41508e-10
3.11659e-07
5.59803e-07
8.09132e-07
1.0619e-06
1.31986e-06
1.58426e-06
1.85579e-06
2.13463e-06
2.42042e-06
2.71235e-06
3.00919e-06
3.30939e-06
3.61124e-06
3.91294e-06
4.21267e-06
4.50862e-06
4.79906e-06
5.08232e-06
5.35679e-06
5.62098e-06
5.87355e-06
6.11315e-06
6.33844e-06
6.54807e-06
6.74077e-06
6.91531e-06
7.07057e-06
7.20555e-06
7.31939e-06
7.41135e-06
7.48085e-06
7.52744e-06
7.55084e-06
7.55089e-06
7.5276e-06
7.48111e-06
7.41172e-06
7.31985e-06
7.20612e-06
7.07123e-06
6.91606e-06
6.7416e-06
6.54898e-06
6.33942e-06
6.11419e-06
5.87465e-06
5.62212e-06
5.35797e-06
5.08352e-06
4.80029e-06
4.50986e-06
4.21391e-06
3.91418e-06
3.61246e-06
3.31057e-06
3.01032e-06
2.71344e-06
2.42144e-06
2.13557e-06
1.85664e-06
1.58502e-06
1.32052e-06
1.06244e-06
8.09559e-07
5.60107e-07
3.11836e-07
5.41843e-10
2.03027e-12
2.07588e-12
5.54051e-10
3.18812e-07
5.72525e-07
8.27371e-07
1.08566e-06
1.3492e-06
1.61925e-06
1.89653e-06
2.1812e-06
2.4729e-06
2.77078e-06
3.07358e-06
3.37974e-06
3.68749e-06
3.99501e-06
4.30044e-06
4.60196e-06
4.8978e-06
5.18628e-06
5.46576e-06
5.73479e-06
5.99199e-06
6.23598e-06
6.46539e-06
6.67885e-06
6.87506e-06
7.05276e-06
7.21083e-06
7.34824e-06
7.46412e-06
7.55772e-06
7.62846e-06
7.67589e-06
7.6997e-06
7.69975e-06
7.67604e-06
7.62872e-06
7.55808e-06
7.46458e-06
7.34879e-06
7.21147e-06
7.05349e-06
6.87587e-06
6.67974e-06
6.46634e-06
6.23699e-06
5.99306e-06
5.73591e-06
5.46692e-06
5.18747e-06
4.89901e-06
4.60317e-06
4.30165e-06
3.99621e-06
3.68868e-06
3.38089e-06
3.0747e-06
2.77184e-06
2.4739e-06
2.18212e-06
1.89737e-06
1.62e-06
1.34985e-06
1.0862e-06
8.27789e-07
5.72823e-07
3.18985e-07
5.54379e-10
2.07716e-12
2.10593e-12
5.62087e-10
3.23395e-07
5.80675e-07
8.39055e-07
1.10089e-06
1.36801e-06
1.64169e-06
1.92265e-06
2.21107e-06
2.50657e-06
2.80829e-06
3.11493e-06
3.42492e-06
3.73648e-06
4.04775e-06
4.35686e-06
4.66198e-06
4.96132e-06
5.25318e-06
5.53591e-06
5.80807e-06
6.06827e-06
6.31511e-06
6.54719e-06
6.76314e-06
6.96162e-06
7.14138e-06
7.30127e-06
7.44026e-06
7.55746e-06
7.65214e-06
7.72368e-06
7.77164e-06
7.79573e-06
7.79578e-06
7.7718e-06
7.72394e-06
7.65249e-06
7.55792e-06
7.44081e-06
7.30191e-06
7.14211e-06
6.96243e-06
6.76402e-06
6.54814e-06
6.31611e-06
6.06933e-06
5.80917e-06
5.53705e-06
5.25435e-06
4.96251e-06
4.66318e-06
4.35807e-06
4.04894e-06
3.73765e-06
3.42606e-06
3.11603e-06
2.80933e-06
2.50756e-06
2.21198e-06
1.92348e-06
1.64242e-06
1.36864e-06
1.10141e-06
8.39467e-07
5.80969e-07
3.23565e-07
5.62411e-10
2.1072e-12
2.12434e-12
5.67011e-10
3.26203e-07
5.85669e-07
8.46217e-07
1.11022e-06
1.37954e-06
1.65545e-06
1.93869e-06
2.22942e-06
2.52726e-06
2.83134e-06
3.14037e-06
3.45273e-06
3.76664e-06
4.08024e-06
4.39164e-06
4.69899e-06
5.00051e-06
5.29446e-06
5.57921e-06
5.85333e-06
6.1154e-06
6.36401e-06
6.59777e-06
6.81527e-06
7.01517e-06
7.19621e-06
7.35723e-06
7.49721e-06
7.61524e-06
7.71058e-06
7.78262e-06
7.83092e-06
7.85517e-06
7.85522e-06
7.83107e-06
7.78288e-06
7.71093e-06
7.61569e-06
7.49775e-06
7.35786e-06
7.19693e-06
7.01597e-06
6.81614e-06
6.5987e-06
6.36501e-06
6.11645e-06
5.85442e-06
5.58035e-06
5.29562e-06
5.00169e-06
4.70019e-06
4.39284e-06
4.08143e-06
3.76781e-06
3.45386e-06
3.14146e-06
2.83239e-06
2.52824e-06
2.23032e-06
1.93951e-06
1.65618e-06
1.38017e-06
1.11074e-06
8.46626e-07
5.85961e-07
3.26372e-07
5.67333e-10
2.12559e-12
2.13514e-12
5.69903e-10
3.27853e-07
5.88604e-07
8.50425e-07
1.11571e-06
1.38632e-06
1.66355e-06
1.94813e-06
2.24023e-06
2.53946e-06
2.84495e-06
3.15538e-06
3.46916e-06
3.78448e-06
4.09946e-06
4.41222e-06
4.72091e-06
5.02371e-06
5.31892e-06
5.60489e-06
5.88017e-06
6.14336e-06
6.39304e-06
6.6278e-06
6.84623e-06
7.04698e-06
7.22879e-06
7.3905e-06
7.53106e-06
7.64959e-06
7.74533e-06
7.81768e-06
7.86618e-06
7.89053e-06
7.89058e-06
7.86633e-06
7.81793e-06
7.74568e-06
7.65004e-06
7.5316e-06
7.39113e-06
7.22951e-06
7.04778e-06
6.8471e-06
6.62873e-06
6.39404e-06
6.14441e-06
5.88127e-06
5.60602e-06
5.32008e-06
5.02489e-06
4.7221e-06
4.41341e-06
4.10064e-06
3.78564e-06
3.47029e-06
3.15648e-06
2.84599e-06
2.54044e-06
2.24113e-06
1.94895e-06
1.66428e-06
1.38695e-06
1.11623e-06
8.50833e-07
5.88894e-07
3.28021e-07
5.70223e-10
2.1364e-12
2.14123e-12
5.71534e-10
3.28783e-07
5.90259e-07
8.52801e-07
1.11881e-06
1.39015e-06
1.66813e-06
1.95347e-06
2.24635e-06
2.54638e-06
2.85266e-06
3.16391e-06
3.47849e-06
3.79461e-06
4.11039e-06
4.42393e-06
4.73338e-06
5.03693e-06
5.33286e-06
5.61953e-06
5.89549e-06
6.15933e-06
6.40962e-06
6.64495e-06
6.86392e-06
7.06517e-06
7.24742e-06
7.40952e-06
7.55043e-06
7.66924e-06
7.76522e-06
7.83774e-06
7.88635e-06
7.91076e-06
7.91082e-06
7.88651e-06
7.83799e-06
7.76557e-06
7.66969e-06
7.55097e-06
7.41015e-06
7.24814e-06
7.06596e-06
6.86479e-06
6.64589e-06
6.41062e-06
6.16037e-06
5.89658e-06
5.62066e-06
5.33402e-06
5.03811e-06
4.73457e-06
4.42513e-06
4.11157e-06
3.79577e-06
3.47962e-06
3.165e-06
2.8537e-06
2.54735e-06
2.24725e-06
1.95429e-06
1.66886e-06
1.39078e-06
1.11933e-06
8.53208e-07
5.9055e-07
3.28952e-07
5.71854e-10
2.14249e-12
2.14454e-12
5.72418e-10
3.29288e-07
5.91158e-07
8.54091e-07
1.12049e-06
1.39223e-06
1.67062e-06
1.95638e-06
2.24969e-06
2.55015e-06
2.85688e-06
3.16856e-06
3.48359e-06
3.80015e-06
4.11637e-06
4.43035e-06
4.74022e-06
5.04419e-06
5.34052e-06
5.62757e-06
5.9039e-06
6.1681e-06
6.41874e-06
6.65439e-06
6.87366e-06
7.07518e-06
7.25768e-06
7.42e-06
7.5611e-06
7.68007e-06
7.77617e-06
7.84879e-06
7.89748e-06
7.92192e-06
7.92197e-06
7.89763e-06
7.84905e-06
7.77653e-06
7.68052e-06
7.56164e-06
7.42063e-06
7.2584e-06
7.07597e-06
6.87453e-06
6.65533e-06
6.41973e-06
6.16915e-06
5.905e-06
5.6287e-06
5.34167e-06
5.04537e-06
4.74141e-06
4.43154e-06
4.11756e-06
3.80132e-06
3.48472e-06
3.16965e-06
2.85792e-06
2.55112e-06
2.25059e-06
1.9572e-06
1.67135e-06
1.39286e-06
1.12101e-06
8.54498e-07
5.91449e-07
3.29457e-07
5.72739e-10
2.14579e-12
2.14626e-12
5.72881e-10
3.29552e-07
5.91628e-07
8.54766e-07
1.12138e-06
1.39333e-06
1.67193e-06
1.95791e-06
2.25144e-06
2.55213e-06
2.85909e-06
3.17101e-06
3.48628e-06
3.80308e-06
4.11953e-06
4.43374e-06
4.74384e-06
5.04802e-06
5.34457e-06
5.63183e-06
5.90836e-06
6.17275e-06
6.42357e-06
6.6594e-06
6.87883e-06
7.08049e-06
7.26313e-06
7.42557e-06
7.56677e-06
7.68583e-06
7.782e-06
7.85467e-06
7.90339e-06
7.92785e-06
7.9279e-06
7.90354e-06
7.85493e-06
7.78235e-06
7.68628e-06
7.56731e-06
7.4262e-06
7.26385e-06
7.08129e-06
6.8797e-06
6.66034e-06
6.42457e-06
6.1738e-06
5.90946e-06
5.63296e-06
5.34573e-06
5.0492e-06
4.74503e-06
4.43493e-06
4.12072e-06
3.80424e-06
3.48741e-06
3.17211e-06
2.86013e-06
2.55311e-06
2.25234e-06
1.95873e-06
1.67266e-06
1.39395e-06
1.1219e-06
8.55174e-07
5.91919e-07
3.29721e-07
5.73201e-10
2.14751e-12
2.14713e-12
5.73114e-10
3.29686e-07
5.91866e-07
8.55107e-07
1.12182e-06
1.39388e-06
1.67259e-06
1.95868e-06
2.25233e-06
2.55314e-06
2.86022e-06
3.17226e-06
3.48765e-06
3.80457e-06
4.12114e-06
4.43547e-06
4.74568e-06
5.04998e-06
5.34664e-06
5.634e-06
5.91064e-06
6.17513e-06
6.42605e-06
6.66197e-06
6.88147e-06
7.08322e-06
7.26593e-06
7.42842e-06
7.56968e-06
7.68878e-06
7.78499e-06
7.85769e-06
7.90643e-06
7.9309e-06
7.93095e-06
7.90658e-06
7.85794e-06
7.78534e-06
7.68923e-06
7.57022e-06
7.42906e-06
7.26664e-06
7.08402e-06
6.88234e-06
6.6629e-06
6.42705e-06
6.17618e-06
5.91174e-06
5.63513e-06
5.3478e-06
5.05116e-06
4.74688e-06
4.43666e-06
4.12233e-06
3.80573e-06
3.48878e-06
3.17336e-06
2.86126e-06
2.55411e-06
2.25323e-06
1.9595e-06
1.67332e-06
1.39451e-06
1.12234e-06
8.55515e-07
5.92156e-07
3.29854e-07
5.73435e-10
2.14839e-12
2.14755e-12
5.73228e-10
3.29751e-07
5.91981e-07
8.55273e-07
1.12204e-06
1.39415e-06
1.67291e-06
1.95906e-06
2.25276e-06
2.55363e-06
2.86077e-06
3.17287e-06
3.48832e-06
3.8053e-06
4.12194e-06
4.43632e-06
4.7466e-06
5.05095e-06
5.34766e-06
5.63508e-06
5.91177e-06
6.17631e-06
6.42727e-06
6.66324e-06
6.88279e-06
7.08457e-06
7.26731e-06
7.42984e-06
7.57112e-06
7.69025e-06
7.78647e-06
7.85919e-06
7.90793e-06
7.93241e-06
7.93246e-06
7.90809e-06
7.85944e-06
7.78683e-06
7.6907e-06
7.57166e-06
7.43047e-06
7.26803e-06
7.08537e-06
6.88366e-06
6.66417e-06
6.42827e-06
6.17736e-06
5.91287e-06
5.63621e-06
5.34882e-06
5.05213e-06
4.74779e-06
4.43752e-06
4.12312e-06
3.80647e-06
3.48945e-06
3.17397e-06
2.86181e-06
2.55461e-06
2.25367e-06
1.95988e-06
1.67364e-06
1.39478e-06
1.12256e-06
8.55681e-07
5.92272e-07
3.29919e-07
5.73549e-10
2.14881e-12
2.14775e-12
5.73281e-10
3.29781e-07
5.92036e-07
8.55352e-07
1.12214e-06
1.39428e-06
1.67307e-06
1.95924e-06
2.25297e-06
2.55386e-06
2.86103e-06
3.17316e-06
3.48864e-06
3.80565e-06
4.12231e-06
4.43673e-06
4.74703e-06
5.05141e-06
5.34815e-06
5.63559e-06
5.91231e-06
6.17687e-06
6.42786e-06
6.66384e-06
6.88342e-06
7.08522e-06
7.26798e-06
7.43052e-06
7.57181e-06
7.69095e-06
7.78719e-06
7.85991e-06
7.90866e-06
7.93313e-06
7.93318e-06
7.90881e-06
7.86016e-06
7.78754e-06
7.6914e-06
7.57236e-06
7.43115e-06
7.26869e-06
7.08602e-06
6.88429e-06
6.66478e-06
6.42886e-06
6.17793e-06
5.91341e-06
5.63673e-06
5.34931e-06
5.0526e-06
4.74822e-06
4.43792e-06
4.1235e-06
3.80682e-06
3.48977e-06
3.17426e-06
2.86208e-06
2.55484e-06
2.25387e-06
1.96006e-06
1.67379e-06
1.3949e-06
1.12266e-06
8.5576e-07
5.92327e-07
3.2995e-07
5.73602e-10
2.14901e-12
2.14785e-12
5.73306e-10
3.29795e-07
5.92061e-07
8.55388e-07
1.12219e-06
1.39434e-06
1.67314e-06
1.95932e-06
2.25306e-06
2.55397e-06
2.86115e-06
3.1733e-06
3.48879e-06
3.80581e-06
4.12249e-06
4.43692e-06
4.74723e-06
5.05163e-06
5.34837e-06
5.63583e-06
5.91256e-06
6.17714e-06
6.42813e-06
6.66413e-06
6.88371e-06
7.08552e-06
7.26828e-06
7.43084e-06
7.57214e-06
7.69128e-06
7.78752e-06
7.86024e-06
7.90899e-06
7.93347e-06
7.93352e-06
7.90915e-06
7.8605e-06
7.78787e-06
7.69173e-06
7.57268e-06
7.43147e-06
7.269e-06
7.08632e-06
6.88458e-06
6.66507e-06
6.42913e-06
6.17819e-06
5.91366e-06
5.63696e-06
5.34953e-06
5.05281e-06
4.74842e-06
4.43811e-06
4.12367e-06
3.80698e-06
3.48992e-06
3.17439e-06
2.8622e-06
2.55495e-06
2.25397e-06
1.96014e-06
1.67386e-06
1.39496e-06
1.12271e-06
8.55796e-07
5.92352e-07
3.29964e-07
5.73627e-10
2.1491e-12
2.14789e-12
5.73317e-10
3.29801e-07
5.92072e-07
8.55404e-07
1.12221e-06
1.39436e-06
1.67317e-06
1.95936e-06
2.25311e-06
2.55402e-06
2.86121e-06
3.17336e-06
3.48885e-06
3.80588e-06
4.12257e-06
4.437e-06
4.74732e-06
5.05172e-06
5.34847e-06
5.63594e-06
5.91267e-06
6.17725e-06
6.42826e-06
6.66425e-06
6.88384e-06
7.08565e-06
7.26842e-06
7.43098e-06
7.57228e-06
7.69143e-06
7.78767e-06
7.86039e-06
7.90914e-06
7.93362e-06
7.93367e-06
7.9093e-06
7.86065e-06
7.78802e-06
7.69188e-06
7.57282e-06
7.43161e-06
7.26914e-06
7.08645e-06
6.88471e-06
6.66519e-06
6.42925e-06
6.1783e-06
5.91377e-06
5.63707e-06
5.34964e-06
5.0529e-06
4.74851e-06
4.4382e-06
4.12375e-06
3.80705e-06
3.48999e-06
3.17445e-06
2.86225e-06
2.555e-06
2.25401e-06
1.96018e-06
1.6739e-06
1.39499e-06
1.12273e-06
8.55812e-07
5.92363e-07
3.2997e-07
5.73638e-10
2.14914e-12
2.1479e-12
5.73321e-10
3.29804e-07
5.92077e-07
8.5541e-07
1.12222e-06
1.39437e-06
1.67318e-06
1.95938e-06
2.25312e-06
2.55404e-06
2.86123e-06
3.17338e-06
3.48888e-06
3.80592e-06
4.1226e-06
4.43704e-06
4.74736e-06
5.05176e-06
5.34852e-06
5.63599e-06
5.91272e-06
6.17731e-06
6.42831e-06
6.66431e-06
6.8839e-06
7.08571e-06
7.26848e-06
7.43104e-06
7.57234e-06
7.69149e-06
7.78773e-06
7.86046e-06
7.90921e-06
7.93369e-06
7.93374e-06
7.90936e-06
7.86071e-06
7.78809e-06
7.69194e-06
7.57289e-06
7.43167e-06
7.2692e-06
7.08651e-06
6.88477e-06
6.66525e-06
6.42931e-06
6.17836e-06
5.91382e-06
5.63712e-06
5.34968e-06
5.05295e-06
4.74855e-06
4.43823e-06
4.12379e-06
3.80708e-06
3.49002e-06
3.17448e-06
2.86227e-06
2.55502e-06
2.25403e-06
1.9602e-06
1.67391e-06
1.395e-06
1.12274e-06
8.55819e-07
5.92368e-07
3.29973e-07
5.73642e-10
2.14916e-12
2.14791e-12
5.73323e-10
3.29805e-07
5.92079e-07
8.55413e-07
1.12222e-06
1.39438e-06
1.67319e-06
1.95938e-06
2.25313e-06
2.55405e-06
2.86124e-06
3.1734e-06
3.48889e-06
3.80593e-06
4.12262e-06
4.43705e-06
4.74738e-06
5.05178e-06
5.34854e-06
5.63601e-06
5.91274e-06
6.17733e-06
6.42833e-06
6.66433e-06
6.88392e-06
7.08574e-06
7.26851e-06
7.43107e-06
7.57237e-06
7.69152e-06
7.78776e-06
7.86049e-06
7.90924e-06
7.93372e-06
7.93377e-06
7.90939e-06
7.86074e-06
7.78811e-06
7.69197e-06
7.57291e-06
7.4317e-06
7.26923e-06
7.08654e-06
6.88479e-06
6.66527e-06
6.42933e-06
6.17838e-06
5.91384e-06
5.63714e-06
5.3497e-06
5.05296e-06
4.74857e-06
4.43825e-06
4.1238e-06
3.8071e-06
3.49003e-06
3.17449e-06
2.86228e-06
2.55503e-06
2.25404e-06
1.9602e-06
1.67391e-06
1.39501e-06
1.12274e-06
8.55822e-07
5.9237e-07
3.29974e-07
5.73644e-10
2.14917e-12
2.14791e-12
5.73324e-10
3.29806e-07
5.92079e-07
8.55415e-07
1.12222e-06
1.39438e-06
1.67319e-06
1.95938e-06
2.25313e-06
2.55405e-06
2.86125e-06
3.1734e-06
3.4889e-06
3.80593e-06
4.12262e-06
4.43706e-06
4.74738e-06
5.05179e-06
5.34854e-06
5.63601e-06
5.91275e-06
6.17734e-06
6.42834e-06
6.66434e-06
6.88393e-06
7.08575e-06
7.26852e-06
7.43108e-06
7.57238e-06
7.69153e-06
7.78777e-06
7.8605e-06
7.90925e-06
7.93373e-06
7.93378e-06
7.9094e-06
7.86075e-06
7.78813e-06
7.69198e-06
7.57293e-06
7.43171e-06
7.26924e-06
7.08655e-06
6.8848e-06
6.66528e-06
6.42934e-06
6.17839e-06
5.91385e-06
5.63715e-06
5.34971e-06
5.05297e-06
4.74858e-06
4.43825e-06
4.12381e-06
3.8071e-06
3.49003e-06
3.1745e-06
2.86229e-06
2.55503e-06
2.25404e-06
1.96021e-06
1.67392e-06
1.39501e-06
1.12274e-06
8.55823e-07
5.92371e-07
3.29974e-07
5.73645e-10
2.14917e-12
2.14791e-12
5.73324e-10
3.29806e-07
5.9208e-07
8.55415e-07
1.12222e-06
1.39438e-06
1.67319e-06
1.95939e-06
2.25314e-06
2.55405e-06
2.86125e-06
3.1734e-06
3.4889e-06
3.80594e-06
4.12262e-06
4.43706e-06
4.74739e-06
5.05179e-06
5.34855e-06
5.63602e-06
5.91276e-06
6.17734e-06
6.42835e-06
6.66435e-06
6.88394e-06
7.08575e-06
7.26852e-06
7.43108e-06
7.57239e-06
7.69154e-06
7.78778e-06
7.8605e-06
7.90926e-06
7.93373e-06
7.93379e-06
7.90941e-06
7.86076e-06
7.78813e-06
7.69199e-06
7.57293e-06
7.43172e-06
7.26924e-06
7.08655e-06
6.88481e-06
6.66529e-06
6.42934e-06
6.17839e-06
5.91385e-06
5.63715e-06
5.34971e-06
5.05297e-06
4.74858e-06
4.43826e-06
4.12381e-06
3.8071e-06
3.49004e-06
3.1745e-06
2.86229e-06
2.55503e-06
2.25404e-06
1.96021e-06
1.67392e-06
1.39501e-06
1.12275e-06
8.55823e-07
5.92371e-07
3.29975e-07
5.73645e-10
2.14917e-12
2.14792e-12
5.73324e-10
3.29806e-07
5.9208e-07
8.55415e-07
1.12222e-06
1.39438e-06
1.67319e-06
1.95939e-06
2.25314e-06
2.55405e-06
2.86125e-06
3.1734e-06
3.4889e-06
3.80594e-06
4.12262e-06
4.43706e-06
4.74739e-06
5.05179e-06
5.34855e-06
5.63602e-06
5.91276e-06
6.17734e-06
6.42835e-06
6.66435e-06
6.88394e-06
7.08576e-06
7.26853e-06
7.43108e-06
7.57239e-06
7.69154e-06
7.78778e-06
7.8605e-06
7.90926e-06
7.93374e-06
7.93379e-06
7.90941e-06
7.86076e-06
7.78813e-06
7.69199e-06
7.57293e-06
7.43172e-06
7.26924e-06
7.08655e-06
6.88481e-06
6.66529e-06
6.42935e-06
6.17839e-06
5.91385e-06
5.63715e-06
5.34971e-06
5.05298e-06
4.74858e-06
4.43826e-06
4.12381e-06
3.8071e-06
3.49004e-06
3.1745e-06
2.86229e-06
2.55503e-06
2.25404e-06
1.96021e-06
1.67392e-06
1.39501e-06
1.12275e-06
8.55823e-07
5.92371e-07
3.29975e-07
5.73646e-10
2.14917e-12
2.14792e-12
5.73325e-10
3.29806e-07
5.9208e-07
8.55415e-07
1.12222e-06
1.39438e-06
1.67319e-06
1.95939e-06
2.25314e-06
2.55405e-06
2.86125e-06
3.1734e-06
3.4889e-06
3.80594e-06
4.12262e-06
4.43706e-06
4.74739e-06
5.05179e-06
5.34855e-06
5.63602e-06
5.91276e-06
6.17734e-06
6.42835e-06
6.66435e-06
6.88394e-06
7.08576e-06
7.26853e-06
7.43108e-06
7.57239e-06
7.69154e-06
7.78778e-06
7.8605e-06
7.90926e-06
7.93374e-06
7.93379e-06
7.90941e-06
7.86076e-06
7.78813e-06
7.69199e-06
7.57293e-06
7.43172e-06
7.26925e-06
7.08655e-06
6.88481e-06
6.66529e-06
6.42935e-06
6.17839e-06
5.91385e-06
5.63715e-06
5.34971e-06
5.05298e-06
4.74858e-06
4.43826e-06
4.12381e-06
3.8071e-06
3.49004e-06
3.1745e-06
2.86229e-06
2.55503e-06
2.25404e-06
1.96021e-06
1.67392e-06
1.39501e-06
1.12275e-06
8.55824e-07
5.92371e-07
3.29975e-07
5.73646e-10
2.14917e-12
2.14792e-12
5.73325e-10
3.29806e-07
5.9208e-07
8.55415e-07
1.12222e-06
1.39438e-06
1.67319e-06
1.95939e-06
2.25314e-06
2.55405e-06
2.86125e-06
3.1734e-06
3.4889e-06
3.80594e-06
4.12262e-06
4.43706e-06
4.74739e-06
5.05179e-06
5.34855e-06
5.63602e-06
5.91276e-06
6.17734e-06
6.42835e-06
6.66435e-06
6.88394e-06
7.08576e-06
7.26853e-06
7.43108e-06
7.57239e-06
7.69154e-06
7.78778e-06
7.8605e-06
7.90926e-06
7.93374e-06
7.93379e-06
7.90941e-06
7.86076e-06
7.78813e-06
7.69199e-06
7.57293e-06
7.43172e-06
7.26925e-06
7.08655e-06
6.88481e-06
6.66529e-06
6.42935e-06
6.17839e-06
5.91385e-06
5.63715e-06
5.34971e-06
5.05298e-06
4.74858e-06
4.43826e-06
4.12381e-06
3.8071e-06
3.49004e-06
3.1745e-06
2.86229e-06
2.55503e-06
2.25404e-06
1.96021e-06
1.67392e-06
1.39501e-06
1.12275e-06
8.55824e-07
5.92371e-07
3.29975e-07
5.73646e-10
2.14917e-12
2.14792e-12
5.73325e-10
3.29806e-07
5.9208e-07
8.55415e-07
1.12222e-06
1.39438e-06
1.67319e-06
1.95939e-06
2.25314e-06
2.55405e-06
2.86125e-06
3.1734e-06
3.4889e-06
3.80594e-06
4.12262e-06
4.43706e-06
4.74739e-06
5.05179e-06
5.34855e-06
5.63602e-06
5.91276e-06
6.17734e-06
6.42835e-06
6.66435e-06
6.88394e-06
7.08576e-06
7.26853e-06
7.43108e-06
7.57239e-06
7.69154e-06
7.78778e-06
7.86051e-06
7.90926e-06
7.93374e-06
7.93379e-06
7.90941e-06
7.86076e-06
7.78813e-06
7.69199e-06
7.57293e-06
7.43172e-06
7.26925e-06
7.08655e-06
6.88481e-06
6.66529e-06
6.42935e-06
6.17839e-06
5.91385e-06
5.63715e-06
5.34971e-06
5.05298e-06
4.74858e-06
4.43826e-06
4.12381e-06
3.8071e-06
3.49004e-06
3.1745e-06
2.86229e-06
2.55503e-06
2.25404e-06
1.96021e-06
1.67392e-06
1.39501e-06
1.12275e-06
8.55824e-07
5.92371e-07
3.29975e-07
5.73646e-10
2.14917e-12
2.14792e-12
5.73325e-10
3.29806e-07
5.9208e-07
8.55415e-07
1.12222e-06
1.39438e-06
1.67319e-06
1.95939e-06
2.25314e-06
2.55405e-06
2.86125e-06
3.1734e-06
3.4889e-06
3.80594e-06
4.12262e-06
4.43706e-06
4.74739e-06
5.05179e-06
5.34855e-06
5.63602e-06
5.91276e-06
6.17734e-06
6.42835e-06
6.66435e-06
6.88394e-06
7.08576e-06
7.26853e-06
7.43108e-06
7.57239e-06
7.69154e-06
7.78778e-06
7.86051e-06
7.90926e-06
7.93374e-06
7.93379e-06
7.90941e-06
7.86076e-06
7.78813e-06
7.69199e-06
7.57293e-06
7.43172e-06
7.26925e-06
7.08655e-06
6.88481e-06
6.66529e-06
6.42935e-06
6.17839e-06
5.91385e-06
5.63715e-06
5.34971e-06
5.05298e-06
4.74858e-06
4.43826e-06
4.12381e-06
3.8071e-06
3.49004e-06
3.1745e-06
2.86229e-06
2.55503e-06
2.25404e-06
1.96021e-06
1.67392e-06
1.39501e-06
1.12275e-06
8.55824e-07
5.92371e-07
3.29975e-07
5.73646e-10
2.14917e-12
2.14792e-12
5.73325e-10
3.29806e-07
5.9208e-07
8.55415e-07
1.12222e-06
1.39438e-06
1.67319e-06
1.95939e-06
2.25314e-06
2.55405e-06
2.86125e-06
3.1734e-06
3.4889e-06
3.80594e-06
4.12262e-06
4.43706e-06
4.74739e-06
5.05179e-06
5.34855e-06
5.63602e-06
5.91276e-06
6.17734e-06
6.42835e-06
6.66435e-06
6.88394e-06
7.08576e-06
7.26853e-06
7.43108e-06
7.57239e-06
7.69154e-06
7.78778e-06
7.86051e-06
7.90926e-06
7.93374e-06
7.93379e-06
7.90941e-06
7.86076e-06
7.78813e-06
7.69199e-06
7.57293e-06
7.43172e-06
7.26925e-06
7.08655e-06
6.88481e-06
6.66529e-06
6.42935e-06
6.17839e-06
5.91385e-06
5.63715e-06
5.34971e-06
5.05298e-06
4.74858e-06
4.43826e-06
4.12381e-06
3.8071e-06
3.49004e-06
3.1745e-06
2.86229e-06
2.55503e-06
2.25404e-06
1.96021e-06
1.67392e-06
1.39501e-06
1.12275e-06
8.55824e-07
5.92371e-07
3.29975e-07
5.73646e-10
2.14917e-12
2.14792e-12
5.73325e-10
3.29806e-07
5.9208e-07
8.55415e-07
1.12222e-06
1.39438e-06
1.67319e-06
1.95939e-06
2.25314e-06
2.55405e-06
2.86125e-06
3.1734e-06
3.4889e-06