/*--------------------------------*- C++ -*----------------------------------*\
  =========                 |
  \\      /  F ield         | OpenFOAM: The Open Source CFD Toolbox
   \\    /   O peration     | Website:  https://openfoam.org
    \\  /    A nd           | Version:  13
     \\/     M anipulation  |
\*---------------------------------------------------------------------------*/
FoamFile
{
    format      ascii;
    class       volScalarField;
    location    "5";
    object      k;
}
// * * * * * * * * * * * * * * * * * * * * * * * * * * * * * * * * * * * * * //

dimensions      [0 2 -2 0 0 0 0];

internalField   nonuniform List<scalar> 
78750
(
4.14792e-08
9.25537e-07
1.47138e-05
3.72619e-05
5.84464e-05
7.23994e-05
8.02916e-05
8.72801e-05
9.67827e-05
9.94358e-05
9.85273e-05
9.70675e-05
9.30274e-05
8.79138e-05
8.22323e-05
7.61984e-05
6.9967e-05
6.36589e-05
5.74427e-05
5.16105e-05
4.62819e-05
4.14926e-05
3.74425e-05
3.42405e-05
3.17838e-05
2.98572e-05
2.83676e-05
2.73126e-05
2.62057e-05
2.56749e-05
2.58967e-05
2.74142e-05
2.84592e-05
1.79299e-05
1.12599e-06
5.18588e-07
1.46591e-05
8.20473e-05
0.000135422
0.000154977
0.000154578
0.000149754
0.000150407
0.00014519
0.000142513
0.000141514
0.000141244
0.000141446
0.000141926
0.000142454
0.000142976
0.000143505
0.000144098
0.000144809
0.000145613
0.000146407
0.000147022
0.000147077
0.000146496
0.000144633
0.000141908
0.000139165
0.000137558
0.000137588
0.00013996
0.000142073
0.000135882
0.000115954
4.12852e-05
2.07802e-06
8.68624e-07
2.49492e-05
9.94561e-05
0.000150515
0.000159635
0.00015313
0.000151818
0.000155391
0.000150374
0.000146432
0.000143674
0.000141997
0.000141057
0.000140645
0.000140608
0.000140827
0.000141236
0.000141752
0.000142284
0.000142732
0.000143
0.000143006
0.000142759
0.000142246
0.000141962
0.000142449
0.000144807
0.000147456
0.000152696
0.000147723
0.00014747
0.000148327
0.000147257
4.51318e-05
2.01154e-06
8.93182e-07
2.56678e-05
9.95317e-05
0.00014883
0.000173008
0.000161179
0.000174347
0.000165416
0.000152167
0.000147963
0.000144265
0.00014161
0.00013997
0.000139165
0.000138971
0.000139142
0.000139537
0.000140014
0.000140444
0.000140737
0.000140843
0.00014072
0.000140409
0.000140295
0.000140683
0.000142271
0.000145626
0.000150226
0.000148096
0.00014905
0.000151737
0.000152541
0.000144109
4.43414e-05
1.85066e-06
9.48177e-07
2.70729e-05
0.000102766
0.000146656
0.000147801
0.000151437
0.000148988
0.000147431
0.000150156
0.000147252
0.000144223
0.000141864
0.000140345
0.000139612
0.000139475
0.000139646
0.000140012
0.000140422
0.000140748
0.000140914
0.000140837
0.000140516
0.000140196
0.000140215
0.000140854
0.00014266
0.000145529
0.000144481
0.000145221
0.000147014
0.000150743
0.000153964
0.000137435
4.28266e-05
1.716e-06
9.74167e-07
2.77468e-05
0.000102022
0.000139044
0.000148019
0.000151129
0.000149915
0.00014934
0.000151338
0.000148006
0.000144542
0.000141922
0.000140222
0.000139335
0.000139069
0.000139156
0.000139389
0.000139637
0.000139797
0.000139815
0.000139664
0.00013941
0.000139379
0.000139842
0.000141319
0.000143865
0.000145918
0.000150465
0.000156718
0.000155089
0.00015433
0.000155411
0.000142043
4.15423e-05
1.63174e-06
9.93464e-07
2.83592e-05
0.000105197
0.000148454
0.000151804
0.000156618
0.000154826
0.000161996
0.000154671
0.000149134
0.000145056
0.000142093
0.000140256
0.000139323
0.000139031
0.000139099
0.000139307
0.000139539
0.000139683
0.00013964
0.000139416
0.000139181
0.00013918
0.000139678
0.000141169
0.000143899
0.000147898
0.000147243
0.000153225
0.000154003
0.00015488
0.000156582
0.000148438
3.93884e-05
1.51756e-06
1.02033e-06
2.90995e-05
0.00010591
0.000139238
0.000152511
0.000174183
0.000174014
0.000166706
0.000156566
0.000149556
0.000145005
0.000141956
0.000140108
0.000139166
0.00013884
0.000138862
0.000139033
0.000139199
0.000139261
0.000139152
0.000138901
0.000138716
0.000138867
0.000139618
0.000141469
0.000144583
0.000148994
0.000148011
0.000150608
0.000152939
0.000156783
0.000160413
0.000152812
3.78496e-05
1.40968e-06
1.03334e-06
2.9432e-05
0.000106502
0.000138584
0.000147582
0.000147294
0.000147624
0.000149551
0.000148282
0.000145699
0.000143927
0.000141713
0.000140088
0.000139165
0.00013879
0.000138739
0.000138818
0.000138904
0.000138911
0.000138797
0.000138606
0.000138544
0.000138845
0.000139873
0.000141967
0.000145202
0.000149449
0.00014693
0.000144933
0.000149877
0.000157677
0.000161972
0.000152051
3.76212e-05
1.40839e-06
1.051e-06
2.99477e-05
0.000107148
0.00014187
0.000147648
0.000147804
0.000147656
0.000148055
0.00015233
0.00014858
0.000145091
0.000142421
0.000140623
0.000139607
0.000139138
0.000138994
0.000138979
0.000138973
0.000138872
0.000138661
0.000138453
0.000138438
0.000138879
0.000140193
0.000142724
0.000146655
0.000151977
0.000173878
0.000191716
0.000164785
0.000160103
0.000161673
0.000147334
3.70605e-05
1.40085e-06
1.0568e-06
3.01695e-05
0.00010875
0.000151263
0.000151014
0.000150562
0.000153424
0.0001526
0.000149355
0.000146688
0.000144963
0.00014263
0.000140866
0.000139843
0.000139374
0.000139227
0.000139199
0.000139165
0.000139043
0.00013883
0.000138648
0.000138697
0.000139236
0.000140598
0.000142955
0.000145938
0.000146624
0.00014752
0.000153003
0.00015594
0.000158774
0.000161354
0.000140972
3.64766e-05
1.38681e-06
1.06879e-06
3.05446e-05
0.000109069
0.00014109
0.000149554
0.00015442
0.000174259
0.000168112
0.000157695
0.000150005
0.000145459
0.000142569
0.000140767
0.00013981
0.000139416
0.000139324
0.000139338
0.000139331
0.00013922
0.000139004
0.000138805
0.000138832
0.00013936
0.000140755
0.000143262
0.000146981
0.000151691
0.000147496
0.000147006
0.000153166
0.000159343
0.000161973
0.000147968
3.67894e-05
1.38281e-06
1.07642e-06
3.07309e-05
0.00010959
0.000146905
0.000150903
0.000154755
0.000171784
0.000164648
0.000155751
0.000149535
0.000145533
0.000142779
0.000141003
0.000140055
0.000139672
0.000139591
0.000139596
0.000139562
0.000139414
0.000139167
0.000138944
0.000138952
0.000139487
0.000140991
0.000143944
0.000149097
0.00015906
0.000182154
0.00019536
0.000163254
0.000159971
0.000163091
0.000151214
3.69979e-05
1.38363e-06
1.08019e-06
3.08584e-05
0.000110593
0.000154866
0.000153389
0.000150247
0.000145368
0.000144739
0.00014616
0.000145387
0.000144423
0.000142461
0.000140921
0.000140043
0.000139682
0.000139602
0.000139603
0.00013956
0.000139407
0.000139165
0.00013896
0.000139005
0.000139585
0.000141049
0.000143637
0.000147558
0.000152733
0.000148881
0.000152949
0.000155315
0.000159565
0.00016165
0.000152081
3.7022e-05
1.37754e-06
1.08419e-06
3.0982e-05
0.000110032
0.000143045
0.000153385
0.00015369
0.000151265
0.000149833
0.00014796
0.000147966
0.000145375
0.000142914
0.000141155
0.000140157
0.00013971
0.000139574
0.000139544
0.000139479
0.000139314
0.000139073
0.000138884
0.000138959
0.000139602
0.000141127
0.000143777
0.000147851
0.000153243
0.000148018
0.000148783
0.000153341
0.000159586
0.000162151
0.000143383
3.67793e-05
1.37671e-06
1.08708e-06
3.11048e-05
0.000110511
0.000147385
0.000155852
0.000156496
0.000153615
0.00015249
0.000149592
0.000146843
0.000145255
0.000142993
0.000141296
0.000140338
0.000139921
0.000139804
0.000139769
0.000139685
0.000139484
0.000139204
0.00013897
0.000138996
0.000139576
0.000141028
0.000143564
0.00014755
0.000153684
0.000148826
0.000147652
0.000152126
0.000159378
0.000163571
0.000149664
3.71437e-05
1.38419e-06
1.09213e-06
3.12014e-05
0.000111903
0.000156254
0.000160976
0.00016203
0.000155718
0.00014953
0.00014762
0.000146114
0.000145069
0.000143033
0.000141406
0.000140447
0.00014
0.00013983
0.000139759
0.000139652
0.000139443
0.000139162
0.00013894
0.000138986
0.000139585
0.000141143
0.000144067
0.000149307
0.000160713
0.000178158
0.000157998
0.000154824
0.000159871
0.000163124
0.000145753
3.67705e-05
1.37588e-06
1.09013e-06
3.10407e-05
0.000109228
0.000141821
0.000161274
0.000165294
0.000160881
0.000152928
0.000147464
0.000145764
0.000144839
0.000142942
0.000141369
0.000140424
0.000139975
0.000139808
0.000139734
0.000139617
0.0001394
0.000139116
0.000138891
0.000138924
0.000139455
0.000140705
0.000142518
0.000143765
0.00014477
0.000143659
0.000145721
0.000151433
0.000159239
0.000162303
0.000140739
3.61794e-05
1.37068e-06
1.08477e-06
3.08041e-05
0.000108112
0.000141796
0.000162331
0.000165788
0.000162644
0.000156259
0.000150618
0.000149134
0.000146018
0.000143382
0.000141541
0.000140494
0.00014001
0.000139837
0.000139761
0.000139643
0.000139427
0.000139151
0.000138941
0.000139021
0.000139679
0.000141122
0.000143175
0.000144817
0.000147499
0.000150974
0.000153224
0.000153287
0.000158775
0.000162453
0.000140759
3.63505e-05
1.36474e-06
1.08197e-06
3.07714e-05
0.000107673
0.000140792
0.000157967
0.000163923
0.00016397
0.000158022
0.000151089
0.00014911
0.000145965
0.000143331
0.000141505
0.000140467
0.000139974
0.000139771
0.000139659
0.000139509
0.000139283
0.000139028
0.000138881
0.000139072
0.000139894
0.000141604
0.000144044
0.000146203
0.000149949
0.000156289
0.000162208
0.000164288
0.000164645
0.000164403
0.000146918
3.63502e-05
1.35429e-06
1.08758e-06
3.09876e-05
0.000109382
0.000140861
0.000147863
0.00014911
0.000154114
0.000154583
0.000150409
0.0001474
0.000145599
0.000143266
0.000141506
0.000140485
0.000140004
0.00013982
0.000139727
0.000139593
0.000139375
0.0001391
0.000138893
0.000138978
0.00013962
0.000141056
0.000143173
0.000144906
0.000147056
0.000148
0.000154268
0.000162778
0.000165377
0.000165548
0.000151659
3.70068e-05
1.38038e-06
1.09071e-06
3.11159e-05
0.000110004
0.000147478
0.000148145
0.000146998
0.000145848
0.000148058
0.000146807
0.000147365
0.000145215
0.000143007
0.000141364
0.000140396
0.000139931
0.000139752
0.000139667
0.000139546
0.000139339
0.000139092
0.000138903
0.000138982
0.000139657
0.000141372
0.000144637
0.000150562
0.00016197
0.000179945
0.000159132
0.000157513
0.000161894
0.000163381
0.000142609
3.66659e-05
1.37587e-06
1.0842e-06
3.094e-05
0.000109668
0.000153415
0.000149001
0.000147007
0.000145095
0.000144752
0.000145951
0.000145495
0.000144781
0.000142941
0.000141416
0.000140498
0.000140055
0.000139874
0.000139776
0.000139629
0.000139372
0.000139052
0.000138824
0.000138915
0.000139645
0.000141424
0.000144773
0.000150949
0.000163429
0.000183474
0.000160003
0.00015706
0.000162244
0.00016401
0.000146588
3.62495e-05
1.34935e-06
1.08695e-06
3.10465e-05
0.000110206
0.000154666
0.000151305
0.000149618
0.000147877
0.000147611
0.000146732
0.000147543
0.000145338
0.000143138
0.000141487
0.000140514
0.000140049
0.000139875
0.00013979
0.000139647
0.000139416
0.000139148
0.000138922
0.000138987
0.000139674
0.000141375
0.000144578
0.000150511
0.000163032
0.000180777
0.000155698
0.000155493
0.00016059
0.000163049
0.00015019
3.6541e-05
1.35537e-06
1.09644e-06
3.13871e-05
0.000111064
0.000155927
0.000154001
0.000150999
0.000148139
0.000148555
0.000147116
0.000147364
0.000145133
0.000142946
0.000141364
0.000140455
0.000140035
0.000139879
0.000139804
0.00013967
0.000139428
0.000139141
0.00013895
0.00013906
0.000139796
0.000141601
0.000145063
0.000151665
0.000166474
0.000193788
0.000201017
0.000164682
0.000162892
0.000164103
0.000142183
3.65263e-05
1.36848e-06
1.10337e-06
3.15969e-05
0.000111714
0.000155555
0.000158613
0.000154143
0.000148244
0.000145772
0.000146094
0.000145126
0.000144376
0.000142612
0.000141154
0.000140282
0.000139873
0.000139721
0.000139648
0.000139539
0.00013936
0.000139126
0.000138986
0.000139204
0.000140131
0.000142181
0.000145867
0.000152422
0.000165599
0.000187022
0.000165113
0.000159596
0.000162956
0.00016514
0.000147115
3.63857e-05
1.37323e-06
1.09334e-06
3.1185e-05
0.000110926
0.00015636
0.000164528
0.000162608
0.000156341
0.000151002
0.000148665
0.000146589
0.000145245
0.000143127
0.000141466
0.00014048
0.000140005
0.000139814
0.000139711
0.000139565
0.00013934
0.000139079
0.000138918
0.000139083
0.000139875
0.000141585
0.000144462
0.00014916
0.000156643
0.000150807
0.000152345
0.000157278
0.000163177
0.000165163
0.000150379
3.67307e-05
1.3613e-06
1.08307e-06
3.08647e-05
0.000108448
0.000144066
0.000167343
0.000170822
0.000165717
0.000157701
0.00015107
0.000147617
0.000145732
0.000143351
0.000141555
0.00014051
0.000140008
0.000139806
0.0001397
0.000139557
0.000139329
0.000139058
0.000138879
0.000139002
0.00013973
0.000141414
0.000144366
0.000149165
0.000155809
0.000149219
0.000150713
0.000156688
0.000163705
0.000165043
0.000144975
3.65079e-05
1.3608e-06
1.08664e-06
3.10131e-05
0.000109016
0.000147603
0.000171745
0.000175012
0.000171071
0.000163245
0.000151116
0.000147102
0.000145332
0.000143083
0.000141369
0.00014036
0.000139873
0.000139676
0.000139568
0.000139422
0.000139193
0.000138927
0.000138772
0.000138967
0.000139859
0.000141771
0.000144764
0.000148125
0.000153597
0.000158268
0.000153682
0.00015653
0.000163537
0.000164791
0.000141027
3.6473e-05
1.37329e-06
1.08889e-06
3.10891e-05
0.000110162
0.000154076
0.000149649
0.00014738
0.000145773
0.000145069
0.000145896
0.000145264
0.000144523
0.000142728
0.000141249
0.000140368
0.000139952
0.000139796
0.000139726
0.000139614
0.000139412
0.00013917
0.000139036
0.000139269
0.000140221
0.000142261
0.000145596
0.000149805
0.000157752
0.000169998
0.000173188
0.000165019
0.000165392
0.000166375
0.000147262
3.65645e-05
1.36172e-06
1.09044e-06
3.11046e-05
0.000109909
0.000150354
0.000149459
0.000148635
0.000148814
0.000145172
0.000146114
0.000145339
0.000144462
0.000142678
0.000141221
0.000140352
0.000139943
0.000139791
0.000139719
0.000139604
0.000139397
0.000139153
0.000139008
0.000139186
0.000139987
0.000141624
0.000143937
0.000145826
0.000148232
0.000148934
0.000155017
0.000159423
0.00016384
0.000166304
0.000150552
3.7064e-05
1.38363e-06
1.08811e-06
3.09798e-05
0.000108523
0.000143299
0.000148655
0.00015193
0.000165423
0.000150967
0.000148236
0.000147874
0.000145196
0.000142855
0.000141239
0.000140338
0.000139931
0.000139782
0.000139702
0.000139579
0.000139373
0.000139136
0.000139016
0.000139253
0.000140183
0.000142149
0.000145242
0.000148766
0.000154679
0.000159712
0.000155606
0.000157801
0.000164007
0.00016545
0.000144921
3.63967e-05
1.37579e-06
1.08508e-06
3.09378e-05
0.000108978
0.000151135
0.00015078
0.000150144
0.000152766
0.000151806
0.000148554
0.000146005
0.000144591
0.000142616
0.000141071
0.000140149
0.000139699
0.000139511
0.000139406
0.000139267
0.000139053
0.000138815
0.0001387
0.000138958
0.000139953
0.000142088
0.000145603
0.000150103
0.000158418
0.000170318
0.000173662
0.000165622
0.00016565
0.00016541
0.000141507
3.64604e-05
1.36293e-06
1.0892e-06
3.09942e-05
0.000107522
0.000140529
0.000149665
0.000153723
0.000171424
0.000165763
0.000156287
0.000149627
0.000145644
0.000143002
0.00014129
0.000140347
0.000139913
0.000139742
0.000139656
0.000139535
0.000139318
0.000139067
0.000138926
0.000139099
0.000139885
0.000141609
0.000144574
0.000149553
0.00015758
0.000151484
0.000155425
0.000159964
0.000165054
0.000166363
0.000147689
3.64944e-05
1.36952e-06
1.08693e-06
3.09476e-05
0.000108545
0.000145229
0.000149317
0.000149715
0.000146908
0.000146588
0.000146125
0.000146679
0.000144725
0.000142699
0.000141185
0.000140305
0.000139901
0.000139765
0.000139699
0.000139581
0.000139388
0.000139167
0.000139081
0.000139374
0.000140368
0.000142292
0.000144969
0.000147219
0.000150926
0.000155438
0.000158535
0.000160376
0.000163951
0.000166755
0.000151219
3.70886e-05
1.39191e-06
1.08627e-06
3.10023e-05
0.000110038
0.000153481
0.00015224
0.000150867
0.000149484
0.000149956
0.000148047
0.000145935
0.00014459
0.000142659
0.000141158
0.000140279
0.000139888
0.000139742
0.000139666
0.000139552
0.000139358
0.000139148
0.000139066
0.000139352
0.000140374
0.000142508
0.00014585
0.00014966
0.000156237
0.000163042
0.000160143
0.000160326
0.000165673
0.000166754
0.000150883
3.69814e-05
1.3867e-06
1.08964e-06
3.0989e-05
0.000109481
0.000150766
0.000150858
0.000151091
0.000148861
0.000148747
0.000151116
0.000147858
0.000144995
0.000142749
0.000141178
0.000140276
0.000139839
0.000139674
0.000139583
0.000139456
0.000139256
0.000139037
0.00013893
0.000139188
0.000140164
0.000142197
0.000145386
0.000148969
0.000155245
0.000162242
0.000159683
0.000159673
0.000165098
0.000165536
0.000147458
3.67155e-05
1.37194e-06
1.08761e-06
3.1022e-05
0.000108558
0.000151984
0.000150471
0.000150232
0.000150606
0.000159705
0.00015442
0.000149354
0.000145622
0.000143014
0.000141293
0.000140325
0.000139862
0.000139672
0.000139573
0.000139442
0.000139244
0.000139028
0.000138938
0.000139156
0.000139923
0.000141438
0.000143527
0.000145001
0.000146548
0.000146156
0.000149575
0.000156591
0.000164123
0.000165219
0.000145237
3.62355e-05
1.35379e-06
1.07858e-06
3.07491e-05
0.000108436
0.000151608
0.00014932
0.000148592
0.000146069
0.000146018
0.000150251
0.000147615
0.000144868
0.000142676
0.000141133
0.000140236
0.000139799
0.00013962
0.000139524
0.000139398
0.000139209
0.000139009
0.000138934
0.000139206
0.000140087
0.000141779
0.000144233
0.000147101
0.000146207
0.000147346
0.000150988
0.000157219
0.00016424
0.000167753
0.000151184
3.70328e-05
1.37306e-06
1.08056e-06
3.07498e-05
0.000107178
0.000138647
0.000146255
0.000146821
0.000146539
0.000147361
0.000150896
0.000148306
0.000145275
0.000142883
0.000141218
0.000140255
0.000139796
0.000139607
0.000139497
0.00013936
0.000139165
0.000138967
0.000138892
0.000139148
0.00014002
0.000141724
0.000144092
0.000145821
0.000147636
0.000147032
0.000150998
0.000157991
0.00016575
0.000167275
0.000151269
3.68985e-05
1.38165e-06
1.07985e-06
3.08572e-05
0.000108493
0.00014503
0.000149251
0.00014731
0.000146262
0.000146622
0.000145915
0.000146381
0.00014443
0.000142456
0.000140972
0.000140085
0.000139665
0.000139492
0.000139405
0.000139283
0.000139093
0.000138888
0.000138791
0.000138999
0.000139802
0.000141428
0.00014375
0.000145535
0.000147462
0.000145734
0.000148988
0.00015688
0.000165703
0.000166557
0.000150405
3.70162e-05
1.37947e-06
1.0888e-06
3.10084e-05
0.00010748
0.000141128
0.000148331
0.000147708
0.000147807
0.000149407
0.000147771
0.000145756
0.000144448
0.000142515
0.000141002
0.000140105
0.000139673
0.000139503
0.000139412
0.000139291
0.000139108
0.000138915
0.000138858
0.000139169
0.00014016
0.0001422
0.000145665
0.000151417
0.000159492
0.000150408
0.00015044
0.000157758
0.000166572
0.000167949
0.000152399
3.68599e-05
1.37475e-06
1.088e-06
3.10084e-05
0.000107987
0.000141398
0.00014976
0.000150081
0.000151731
0.00015152
0.000148482
0.000146029
0.000144665
0.000142658
0.000141049
0.000140048
0.000139529
0.000139295
0.00013917
0.000139041
0.000138878
0.000138739
0.000138759
0.000139167
0.000140243
0.000142158
0.000144619
0.000146178
0.000148624
0.000150615
0.000152772
0.000158586
0.0001667
0.000168503
0.000145199
3.72061e-05
1.39082e-06
1.08462e-06
3.08969e-05
0.000107421
0.000141235
0.000150157
0.000154369
0.000170695
0.00016518
0.000155995
0.00014989
0.000145769
0.000142961
0.000141142
0.000140133
0.00013967
0.000139489
0.000139393
0.000139266
0.000139076
0.000138853
0.000138768
0.000139047
0.000139976
0.000141882
0.000145085
0.000150479
0.000159551
0.000152143
0.000153211
0.000159125
0.000167609
0.000168715
0.000149877
3.70247e-05
1.38116e-06
1.08249e-06
3.07609e-05
0.000107395
0.000141054
0.000151263
0.00015186
0.000147865
0.00014609
0.000145535
0.000146301
0.000144424
0.000142464
0.000140967
0.000140071
0.000139636
0.000139466
0.000139377
0.000139253
0.000139065
0.000138882
0.000138822
0.000139097
0.000139986
0.000141702
0.000144096
0.000145973
0.000148233
0.000147258
0.000150525
0.000158507
0.000167783
0.000169042
0.000145764
3.66039e-05
1.37286e-06
1.08652e-06
3.0803e-05
0.00010728
0.000140617
0.000150833
0.000154298
0.000152765
0.000149647
0.000146997
0.000146734
0.000144599
0.000142542
0.000140997
0.000140078
0.000139639
0.000139471
0.000139393
0.00013928
0.000139101
0.000138922
0.000138903
0.000139286
0.000140364
0.000142322
0.000144873
0.000146464
0.000148982
0.000150984
0.00015221
0.000159015
0.000167811
0.000169479
0.000148909
3.7883e-05
1.42044e-06
1.08057e-06
3.08574e-05
0.000107089
0.000145057
0.000150676
0.000153599
0.000154589
0.000149954
0.000146845
0.000146501
0.000144412
0.000142412
0.000140902
0.000139992
0.000139533
0.000139332
0.000139231
0.000139094
0.000138913
0.000138754
0.000138755
0.00013916
0.000140295
0.000142412
0.00014534
0.000147862
0.000152687
0.000159558
0.000164219
0.000166091
0.000169283
0.000169965
0.000145313
3.7498e-05
1.41549e-06
1.06687e-06
3.04534e-05
0.000107665
0.000150495
0.000151046
0.000152523
0.000155038
0.000149945
0.000146698
0.000146418
0.00014433
0.000142303
0.000140803
0.000139925
0.000139506
0.000139346
0.000139269
0.000139154
0.000138978
0.000138797
0.000138773
0.000139135
0.000140113
0.00014183
0.000144004
0.000145337
0.000148451
0.000155922
0.000165802
0.000170657
0.000175365
0.000173023
0.000151898
3.74227e-05
1.39376e-06
1.07576e-06
3.06916e-05
0.000107762
0.000143606
0.000152197
0.000156909
0.000156737
0.000150254
0.000147386
0.000145256
0.000144061
0.000142244
0.000140784
0.0001399
0.000139476
0.000139308
0.000139218
0.000139098
0.000138922
0.000138752
0.000138725
0.000139073
0.00014008
0.000141982
0.000144782
0.000148157
0.000146971
0.000148663
0.000156158
0.000166412
0.000173904
0.000173057
0.000147928
3.75601e-05
1.4081e-06
1.07048e-06
3.05753e-05
0.000108168
0.000152095
0.000156286
0.00016569
0.000160616
0.000152205
0.000151767
0.000148535
0.000145177
0.000142594
0.000140848
0.00013985
0.000139376
0.00013919
0.000139098
0.000138986
0.000138831
0.000138693
0.000138716
0.000139129
0.00014022
0.000142185
0.0001448
0.000146727
0.000150362
0.000153735
0.000158138
0.00016609
0.000173863
0.00017297
0.00014558
3.75568e-05
1.40727e-06
1.07031e-06
3.04719e-05
0.000106182
0.000140283
0.00015302
0.000174461
0.000175127
0.000164107
0.000151254
0.000148192
0.000144933
0.000142428
0.000140744
0.000139785
0.000139327
0.000139147
0.000139054
0.000138938
0.000138775
0.00013863
0.000138652
0.000139074
0.000140245
0.000142666
0.000147075
0.000155568
0.000172706
0.000193602
0.000165474
0.00016608
0.000173648
0.000174215
0.000145527
3.72765e-05
1.39907e-06
1.0759e-06
3.0657e-05
0.000107019
0.000144115
0.000149731
0.000148794
0.000145597
0.000145713
0.000149734
0.000147631
0.000144733
0.000142356
0.000140709
0.000139756
0.000139302
0.000139121
0.000139028
0.000138913
0.000138751
0.000138605
0.00013862
0.000139023
0.000140168
0.000142546
0.000146892
0.000155572
0.00017474
0.000196244
0.000166727
0.000165879
0.000173226
0.000174557
0.000145206
3.7481e-05
1.4031e-06
1.07765e-06
3.07727e-05
0.000108287
0.000153669
0.000153328
0.000152557
0.000150386
0.000147855
0.000146322
0.000146215
0.000144143
0.000142125
0.000140603
0.000139687
0.000139233
0.000139043
0.000138946
0.000138838
0.000138697
0.000138588
0.000138639
0.000139086
0.000140289
0.000142733
0.00014708
0.000155298
0.000172202
0.000195347
0.000168924
0.000167719
0.000174588
0.000173397
0.000145648
3.75987e-05
1.41066e-06
1.08522e-06
3.10201e-05
0.000108561
0.000145485
0.000155519
0.000155213
0.000152279
0.000148854
0.000146746
0.000146332
0.000144174
0.000142105
0.000140566
0.000139658
0.00013921
0.000139022
0.000138924
0.00013881
0.00013866
0.000138542
0.000138591
0.000139023
0.000140102
0.000142025
0.000144766
0.000148108
0.000147105
0.000150606
0.000156903
0.000164255
0.000172892
0.000174412
0.000152054
3.7825e-05
1.41089e-06
1.07344e-06
3.06198e-05
0.000107618
0.000143778
0.00015595
0.000157331
0.000152582
0.000150973
0.000148269
0.000145735
0.000144143
0.000142123
0.000140573
0.000139646
0.0001392
0.000139021
0.000138927
0.000138815
0.00013866
0.000138535
0.000138597
0.000139057
0.00014017
0.000142151
0.000145007
0.000148672
0.000147908
0.000149363
0.000155905
0.00016607
0.000175452
0.000174177
0.000148842
3.76273e-05
1.40944e-06
1.07676e-06
3.06279e-05
0.000107374
0.000149694
0.000147504
0.000147325
0.000147267
0.000146917
0.000150161
0.000147086
0.000144298
0.000142087
0.000140519
0.000139587
0.000139137
0.000138961
0.00013887
0.000138756
0.000138618
0.000138517
0.000138593
0.000139088
0.00014036
0.000142889
0.000147382
0.00015601
0.000173708
0.000193554
0.00016441
0.00016628
0.000175883
0.00017611
0.000147425
3.81911e-05
1.43375e-06
1.0841e-06
3.09331e-05
0.000109172
0.00015422
0.000151819
0.000153336
0.000151848
0.000150289
0.000151112
0.000147435
0.000144486
0.000142172
0.000140549
0.000139597
0.000139133
0.000138944
0.000138852
0.000138753
0.000138617
0.000138501
0.000138561
0.000139024
0.000140145
0.000142196
0.000145456
0.000150843
0.000157822
0.000190307
0.000167487
0.000168393
0.000176087
0.000175404
0.00014572
3.80496e-05
1.44301e-06
1.08679e-06
3.12314e-05
0.000109848
0.000154632
0.00016203
0.000167775
0.00016445
0.000156746
0.000150192
0.000146522
0.00014443
0.000142122
0.000140411
0.000139397
0.000138912
0.000138728
0.000138652
0.000138578
0.000138479
0.000138411
0.000138527
0.000139045
0.000140224
0.000142259
0.000145135
0.000148697
0.000148169
0.000151094
0.000158219
0.000166762
0.000176415
0.000176262
0.000145967
3.77617e-05
1.4182e-06
1.09736e-06
3.15195e-05
0.000111467
0.000151524
0.000171706
0.000173363
0.000165836
0.000157239
0.000150325
0.000146495
0.00014439
0.000142105
0.000140436
0.000139462
0.000138984
0.000138782
0.000138676
0.000138567
0.00013843
0.000138331
0.000138409
0.000138879
0.000140009
0.000142054
0.000145102
0.000148967
0.000161468
0.000151832
0.000155336
0.000166133
0.000175929
0.000176317
0.000143698
3.69615e-05
1.40163e-06
1.09891e-06
3.14678e-05
0.000109766
0.000147293
0.000164987
0.000170579
0.00016648
0.000158085
0.000150912
0.00014688
0.00014465
0.000142261
0.000140517
0.00013949
0.000138986
0.000138783
0.000138688
0.00013858
0.000138442
0.000138342
0.000138429
0.000138931
0.00014016
0.000142459
0.000146162
0.000152117
0.000173272
0.000195927
0.00016966
0.000169217
0.000177267
0.000178459
0.000156298
3.84056e-05
1.42538e-06
1.10116e-06
3.14544e-05
0.000109544
0.000146646
0.000152592
0.000159234
0.000158765
0.000154644
0.000149078
0.000145969
0.000144163
0.000142005
0.000140375
0.000139396
0.000138906
0.000138699
0.000138606
0.000138508
0.000138372
0.000138265
0.000138328
0.000138772
0.000139864
0.00014183
0.000144681
0.000148178
0.000147238
0.000150969
0.000158838
0.000169156
0.000180432
0.000180154
0.000152935
3.91449e-05
1.46328e-06
1.10077e-06
3.14307e-05
0.000109605
0.000153705
0.000155062
0.000153285
0.000152837
0.000160354
0.000154047
0.00014888
0.000144992
0.000142212
0.000140408
0.000139387
0.000138892
0.000138686
0.000138583
0.000138477
0.000138346
0.000138255
0.00013834
0.00013881
0.000139875
0.000141638
0.000143775
0.0001447
0.000146395
0.000148764
0.000156557
0.000168198
0.000180434
0.000180719
0.00014965
3.87413e-05
1.44993e-06
1.08187e-06
3.07153e-05
0.000107992
0.000141919
0.000159475
0.000160477
0.000153974
0.000149599
0.000150947
0.000147513
0.000144315
0.000141916
0.00014028
0.000139321
0.000138841
0.000138633
0.000138528
0.000138423
0.000138304
0.000138241
0.00013839
0.000138992
0.000140378
0.000142825
0.000146174
0.000151705
0.000160753
0.000168794
0.000166215
0.000171087
0.000179837
0.000179973
0.000149957
3.89258e-05
1.4574e-06
1.08337e-06
3.09074e-05
0.000108478
0.000141871
0.000162564
0.00016294
0.000155477
0.000150796
0.000151351
0.000147514
0.000144313
0.000141913
0.000140267
0.000139306
0.000138832
0.00013863
0.000138528
0.000138421
0.000138292
0.000138223
0.00013836
0.000138934
0.000140239
0.000142571
0.000146038
0.000150263
0.00015998
0.000169867
0.000168878
0.000174196
0.000181247
0.000180981
0.000150647
3.93008e-05
1.47359e-06
1.07834e-06
3.07443e-05
0.000108351
0.000145293
0.000162472
0.000163092
0.00015545
0.000151714
0.000148697
0.000147593
0.000144495
0.000141902
0.000140129
0.000139104
0.000138601
0.0001384
0.00013832
0.000138263
0.000138218
0.000138191
0.000138315
0.000138808
0.000139976
0.000142148
0.000145708
0.000152073
0.000163351
0.000156819
0.00016224
0.00017267
0.000181595
0.000181243
0.000147689
3.86312e-05
1.45452e-06
1.09209e-06
3.11545e-05
0.00011027
0.000147745
0.000158004
0.000158025
0.000155097
0.000150387
0.000148234
0.000147443
0.000144539
0.000141978
0.00014019
0.000139144
0.000138627
0.000138412
0.000138322
0.000138253
0.000138184
0.00013817
0.000138321
0.000138846
0.000140001
0.000141987
0.000144687
0.000147002
0.000150629
0.000152478
0.000159879
0.000171475
0.000182411
0.000182144
0.000148044
3.85906e-05
1.45467e-06
1.09294e-06
3.12519e-05
0.000111219
0.000158356
0.000158017
0.000165246
0.000162953
0.000156114
0.000150221
0.000146677
0.000144478
0.000142038
0.000140251
0.000139198
0.000138682
0.000138467
0.000138373
0.000138299
0.000138227
0.000138208
0.000138367
0.000138904
0.000140028
0.000141814
0.000143922
0.000144764
0.000145565
0.000149409
0.000159499
0.000173032
0.000183878
0.000183561
0.000155677
3.90079e-05
1.47039e-06
1.09204e-06
3.12684e-05
0.000111919
0.000161049
0.000163697
0.00017027
0.000161262
0.000149998
0.000146741
0.000144926
0.000143638
0.000141711
0.000140198
0.000139283
0.00013883
0.000138637
0.000138537
0.000138438
0.000138325
0.000138267
0.000138408
0.00013897
0.000140219
0.000142439
0.000146003
0.000152406
0.000163541
0.000156581
0.000162332
0.000174415
0.000185579
0.000184529
0.000158925
3.95025e-05
1.46189e-06
1.08518e-06
3.10483e-05
0.000111681
0.000161813
0.00018573
0.000191384
0.000179939
0.000165587
0.000154671
0.000148912
0.000144896
0.000142132
0.000140364
0.000139375
0.000138904
0.000138721
0.000138634
0.000138548
0.000138447
0.000138395
0.000138523
0.000139036
0.000140122
0.000141825
0.000143825
0.000144755
0.000147565
0.000153721
0.000163694
0.000177535
0.000188633
0.00018542
0.000154108
3.9085e-05
1.46292e-06
1.08684e-06
3.095e-05
0.000109378
0.00015066
0.000148634
0.000164955
0.000151929
0.000159199
0.000153335
0.000148267
0.000144555
0.00014196
0.000140276
0.000139328
0.000138883
0.00013871
0.000138628
0.000138544
0.000138452
0.000138409
0.000138531
0.000139018
0.000140088
0.000141827
0.000143913
0.00014467
0.000145545
0.000150998
0.000162177
0.000176737
0.000188698
0.000187512
0.00015222
3.95352e-05
1.48731e-06
1.07984e-06
3.08346e-05
0.00010863
0.000143011
0.000147763
0.000148088
0.000150169
0.000148805
0.000150668
0.000147805
0.000144599
0.000142049
0.000140326
0.000139332
0.000138843
0.000138639
0.000138543