/*--------------------------------*- C++ -*----------------------------------*\
  =========                 |
  \\      /  F ield         | OpenFOAM: The Open Source CFD Toolbox
   \\    /   O peration     | Website:  https://openfoam.org
    \\  /    A nd           | Version:  13
     \\/     M anipulation  |
\*---------------------------------------------------------------------------*/
FoamFile
{
    format      ascii;
    class       volScalarField;
    location    "5";
    object      omega;
}
// * * * * * * * * * * * * * * * * * * * * * * * * * * * * * * * * * * * * * //

dimensions      [0 0 -1 0 0 0 0];

internalField   nonuniform List<scalar> 
78750
(
678.67
75.4078
15.1502
15.1502
15.1502
15.1502
15.1502
15.1502
15.1502
15.1502
15.1502
15.1502
15.1502
15.1502
15.1502
15.1502
15.1502
15.1502
15.1502
15.1502
15.1502
15.1502
15.1502
15.1502
15.1502
15.1502
15.1502
15.1502
15.1502
15.1502
15.1502
15.1502
15.1502
75.4078
678.67
678.67
75.4078
2.66272
2.66272
3.23915
3.15137
3.13613
2.66272
2.66272
2.66272
2.66272
2.66272
2.66272
2.66272
2.66272
2.66272
2.66272
2.66272
2.66272
2.66272
2.66272
2.66272
2.66272
2.66272
2.66272
2.66272
2.66272
2.66272
2.66272
2.66272
2.66272
2.66272
2.66272
75.4078
678.67
678.67
75.4078
2.66272
2.66272
3.35035
3.20183
3.14967
2.66272
2.66272
2.66272
2.66272
2.66272
2.66272
2.66272
2.66272
2.66272
2.66272
2.66272
2.66272
2.66272
2.66272
2.66272
2.66272
2.66272
2.66272
2.66272
2.66272
2.66272
2.66272
3.12854
3.19214
3.19655
2.66272
75.4078
678.67
678.67
75.4078
2.66272
2.66272
2.66272
3.1306
2.66272
2.66272
3.13287
2.66272
2.66272
2.66272
2.66272
2.66272
2.66272
2.66272
2.66272
2.66272
2.66272
2.66272
2.66272
2.66272
2.66272
2.66272
2.66272
2.66272
2.66272
2.66272
3.15259
3.22688
3.24302
3.22398
3.16112
75.4078
678.67
678.67
75.4078
2.66272
2.66272
3.16489
3.22502
3.19203
3.14395
2.66272
2.66272
2.66272
2.66272
2.66272
2.66272
2.66272
2.66272
2.66272
2.66272
2.66272
2.66272
2.66272
2.66272
2.66272
2.66272
2.66272
2.66272
2.66272
3.12151
3.17844
3.18219
3.19332
3.21514
3.21562
75.4078
678.67
678.67
75.4078
2.66272
3.15771
3.21314
3.23835
3.20083
3.14686
2.66272
2.66272
2.66272
2.66272
2.66272
2.66272
2.66272
2.66272
2.66272
2.66272
2.66272
2.66272
2.66272
2.66272
2.66272
2.66272
2.66272
2.66272
3.15345
3.27011
3.40949
3.25039
3.21118
3.20925
3.172
75.4078
678.67
678.67
75.4078
2.66272
2.66272
3.14501
3.19372
3.14368
2.66272
2.66272
2.66272
2.66272
2.66272
2.66272
2.66272
2.66272
2.66272
2.66272
2.66272
2.66272
2.66272
2.66272
2.66272
2.66272
2.66272
2.66272
2.66272
2.66272
3.14194
3.33018
3.22549
3.20403
3.22002
2.66272
75.4078
678.67
678.67
75.4078
2.66272
3.17579
3.13571
2.66272
2.66272
2.66272
2.66272
2.66272
2.66272
2.66272
2.66272
2.66272
2.66272
2.66272
2.66272
2.66272
2.66272
2.66272
2.66272
2.66272
2.66272
2.66272
2.66272
2.66272
2.66272
3.1721
3.24168
3.2242
3.23257
3.25342
2.66272
75.4078
678.67
678.67
75.4078
2.66272
3.1421
3.14213
3.14308
3.14563
3.23647
3.18416
3.12926
2.66272
2.66272
2.66272
2.66272
2.66272
2.66272
2.66272
2.66272
2.66272
2.66272
2.66272
2.66272
2.66272
2.66272
2.66272
2.66272
2.66272
3.14878
3.15281
3.18335
3.23306
3.26213
2.66272
75.4078
678.67
678.67
75.4078
2.66272
3.14989
3.14714
3.14366
3.13021
3.12519
2.66272
2.66272
2.66272
2.66272
2.66272
2.66272
2.66272
2.66272
2.66272
2.66272
2.66272
2.66272
2.66272
2.66272
2.66272
2.66272
2.66272
2.66272
3.13849
2.66272
2.66272
3.13207
3.21467
3.25586
3.15663
75.4078
678.67
678.67
75.4078
2.66272
2.66272
3.1285
3.13512
3.15236
3.24249
3.19497
3.14544
2.66272
2.66272
2.66272
2.66272
2.66272
2.66272
2.66272
2.66272
2.66272
2.66272
2.66272
2.66272
2.66272
2.66272
2.66272
2.66272
3.16731
3.16347
3.22832
3.20289
3.22596
3.2624
3.16945
75.4078
678.67
678.67
75.4078
2.66272
3.19677
3.15185
3.1346
2.66272
2.66272
2.66272
2.66272
2.66272
2.66272
2.66272
2.66272
2.66272
2.66272
2.66272
2.66272
2.66272
2.66272
2.66272
2.66272
2.66272
2.66272
2.66272
2.66272
2.66272
3.13241
3.18967
3.21508
3.24031
3.25798
2.66272
75.4078
678.67
678.67
75.4078
2.66272
3.16393
3.15556
3.1336
2.66272
2.66272
2.66272
2.66272
2.66272
2.66272
2.66272
2.66272
2.66272
2.66272
2.66272
2.66272
2.66272
2.66272
2.66272
2.66272
2.66272
2.66272
2.66272
2.66272
2.66272
2.66272
2.66272
3.14552
3.22007
3.24353
2.66272
75.4078
678.67
678.67
75.4078
2.66272
2.66272
3.1749
3.15663
3.13008
3.12942
3.16775
3.12984
2.66272
2.66272
2.66272
2.66272
2.66272
2.66272
2.66272
2.66272
2.66272
2.66272
2.66272
2.66272
2.66272
2.66272
2.66272
2.66272
2.66272
3.14204
3.17111
3.18327
3.21943
3.24683
2.66272
75.4078
678.67
678.67
75.4078
2.66272
3.14338
3.20645
3.19999
3.17134
3.17685
3.13987
2.66272
2.66272
2.66272
2.66272
2.66272
2.66272
2.66272
2.66272
2.66272
2.66272
2.66272
2.66272
2.66272
2.66272
2.66272
2.66272
2.66272
2.66272
3.1461
3.18593
3.20463
3.24171
3.27021
3.18349
75.4078
678.67
678.67
75.4078
2.66272
3.21431
3.23802
3.22968
3.19889
3.26853
3.20558
3.14147
2.66272
2.66272
2.66272
2.66272
2.66272
2.66272
2.66272
2.66272
2.66272
2.66272
2.66272
2.66272
2.66272
2.66272
2.66272
2.66272
2.66272
3.16336
3.15833
3.18093
3.22709
3.25717
2.66272
75.4078
678.67
678.67
75.4078
2.66272
2.66272
3.26167
3.2938
3.20935
3.14273
3.16677
3.13756
2.66272
2.66272
2.66272
2.66272
2.66272
2.66272
2.66272
2.66272
2.66272
2.66272
2.66272
2.66272
2.66272
2.66272
2.66272
2.66272
2.66272
2.66272
3.14405
3.17952
3.2333
3.26338
3.12453
75.4078
678.67
678.67
75.4078
2.66272
3.12643
3.31703
3.39836
3.3263
3.19867
3.13383
3.12816
2.66272
2.66272
2.66272
2.66272
2.66272
2.66272
2.66272
2.66272
2.66272
2.66272
2.66272
2.66272
2.66272
2.66272
2.66272
3.12182
3.17423
3.12625
3.12969
3.17115
3.23037
3.25942
3.12558
75.4078
678.67
678.67
75.4078
2.66272
3.13983
3.35203
3.38461
3.31697
3.22901
3.15706
2.66272
2.66272
2.66272
2.66272
2.66272
2.66272
2.66272
2.66272
2.66272
2.66272
2.66272
2.66272
2.66272
2.66272
2.66272
2.66272
3.1217
3.18214
3.27496
3.30729
3.21317
3.23461
3.26838
3.17507
75.4078
678.67
678.67
75.4078
2.66272
3.1331
3.3845
3.48626
3.45452
3.31884
3.16147
2.66272
2.66272
2.66272
2.66272
2.66272
2.66272
2.66272
2.66272
2.66272
2.66272
2.66272
2.66272
2.66272
2.66272
2.66272
2.66272
3.13834
3.21326
3.34605
3.44551
3.41542
3.31181
3.26786
2.66272
75.4078
678.67
678.67
75.4078
2.66272
3.19352
3.15035
3.13881
3.29935
3.29599
3.20477
3.14595
2.66272
2.66272
2.66272
2.66272
2.66272
2.66272
2.66272
2.66272
2.66272
2.66272
2.66272
2.66272
2.66272
2.66272
2.66272
3.12842
3.1868
3.16134
3.23583
3.30718
3.29232
3.28117
2.66272
75.4078
678.67
678.67
75.4078
2.66272
3.18782
3.15618
3.1413
3.12816
3.21534
3.13908
2.66272
2.66272
2.66272
2.66272
2.66272
2.66272
2.66272
2.66272
2.66272
2.66272
2.66272
2.66272
2.66272
2.66272
2.66272
2.66272
2.66272
2.66272
2.66272
3.12587
3.18829
3.25111
3.27001
3.14366
75.4078
678.67
678.67
75.4078
2.66272
2.66272
3.14109
3.13378
3.12015
3.12032
3.16326
3.13471
2.66272
2.66272
2.66272
2.66272
2.66272
2.66272
2.66272
2.66272
2.66272
2.66272
2.66272
2.66272
2.66272
2.66272
2.66272
2.66272
2.66272
2.66272
3.14764
3.18932
3.24308
3.25559
2.66272
75.4078
678.67
678.67
75.4078
2.66272
2.66272
3.16379
3.1534
3.14217
3.16159
3.13208
2.66272
2.66272
2.66272
2.66272
2.66272
2.66272
2.66272
2.66272
2.66272
2.66272
2.66272
2.66272
2.66272
2.66272
2.66272
2.66272
2.66272
2.66272
2.66272
3.12274
3.18907
3.24496
3.26848
2.66272
75.4078
678.67
678.67
75.4078
2.66272
2.66272
3.18552
3.16441
3.1471
3.22533
3.14127
2.66272
2.66272
2.66272
2.66272
2.66272
2.66272
2.66272
2.66272
2.66272
2.66272
2.66272
2.66272
2.66272
2.66272
2.66272
2.66272
2.66272
2.66272
2.66272
2.66272
3.18363
3.25662
3.28175
3.15492
75.4078
678.67
678.67
75.4078
2.66272
2.66272
3.24913
3.18834
3.12793
3.12312
3.15911
3.12563
2.66272
2.66272
2.66272
2.66272
2.66272
2.66272
2.66272
2.66272
2.66272
2.66272
2.66272
2.66272
2.66272
2.66272
2.66272
2.66272
2.66272
2.66272
3.12711
3.18229
3.26065
3.27518
2.66272
75.4078
678.67
678.67
75.4078
2.66272
2.66272
3.30917
3.24985
3.17709
3.14223
3.16442
3.13355
2.66272
2.66272
2.66272
2.66272
2.66272
2.66272
2.66272
2.66272
2.66272
2.66272
2.66272
2.66272
2.66272
2.66272
2.66272
2.66272
2.66272
3.16479
3.20583
3.2275
3.27815
3.29069
2.66272
75.4078
678.67
678.67
75.4078
2.66272
3.12808
3.44137
3.50317
3.4368
3.31137
3.21098
3.14761
2.66272
2.66272
2.66272
2.66272
2.66272
2.66272
2.66272
2.66272
2.66272
2.66272
2.66272
2.66272
2.66272
2.66272
2.66272
2.66272
2.66272
3.12387
3.18469
3.24051
3.28305
3.29122
3.12207
75.4078
678.67
678.67
75.4078
2.66272
3.15838
2.66272
2.66272
2.66272
2.66272
3.16275
3.13455
2.66272
2.66272
2.66272
2.66272
2.66272
2.66272
2.66272
2.66272
2.66272
2.66272
2.66272
2.66272
2.66272
2.66272
2.66272
3.15501
3.27706
3.44513
3.20526
3.2103
3.27153
3.29365
3.17455
75.4078
678.67
678.67
75.4078
2.66272
2.66272
3.13973
3.14267
3.1361
3.12923
3.1613
3.13043
2.66272
2.66272
2.66272
2.66272
2.66272
2.66272
2.66272
2.66272
2.66272
2.66272
2.66272
2.66272
2.66272
2.66272
2.66272
3.17013
3.31356
3.59069
3.6572
3.32767
3.27445
3.28089
2.66272
75.4078
678.67
678.67
75.4078
2.66272
2.66272
3.13472
3.1283
3.12357
3.12342
3.15851
3.12549
2.66272
2.66272
2.66272
2.66272
2.66272
2.66272
2.66272
2.66272
2.66272
2.66272
2.66272
2.66272
2.66272
2.66272
2.66272
3.14169
3.2166
3.1656
3.21175
3.23198
3.26821
3.28432
2.66272
75.4078
678.67
678.67
75.4078
2.66272
3.18268
3.14649
3.12401
2.66272
3.12659
3.14908
2.66272
2.66272
2.66272
2.66272
2.66272
2.66272
2.66272
2.66272
2.66272
2.66272
2.66272
2.66272
2.66272
2.66272
2.66272
2.66272
3.16248
3.28941
3.45944
3.205
3.19834
3.26245
3.28093
3.12121
75.4078
678.67
678.67
75.4078
2.66272
2.66272
3.1293
3.13345
3.14612
3.23616
3.18415
3.13154
2.66272
2.66272
2.66272
2.66272
2.66272
2.66272
2.66272
2.66272
2.66272
2.66272
2.66272
2.66272
2.66272
2.66272
2.66272
3.17171
3.32098
3.59855
3.66388
3.33084
3.27311
3.28186
3.1655
75.4078
678.67
678.67
75.4078
2.66272
3.20602
3.16199
3.13529
2.66272
2.66272
2.66272
2.66272
2.66272
2.66272
2.66272
2.66272
2.66272
2.66272
2.66272
2.66272
2.66272
2.66272
2.66272
2.66272
2.66272
2.66272
2.66272
2.66272
2.66272
3.12816
3.18654
3.21616
3.26586
3.27573
2.66272
75.4078
678.67
678.67
75.4078
2.66272
3.16382
3.18078
3.16575
3.15179
3.1603
3.12896
2.66272
2.66272
2.66272
2.66272
2.66272
2.66272
2.66272
2.66272
2.66272
2.66272
2.66272
2.66272
2.66272
2.66272
2.66272
2.66272
3.14918
3.22725
3.32854
3.34864
3.26985
3.2668
3.29167
2.66272
75.4078
678.67
678.67
75.4078
2.66272
2.66272
3.18002
3.19656
3.17901
3.23946
3.18223
3.13103
2.66272
2.66272
2.66272
2.66272
2.66272
2.66272
2.66272
2.66272
2.66272
2.66272
2.66272
2.66272
2.66272
2.66272
2.66272
3.17663
3.31514
3.50829
3.2819
3.23889
3.27709
3.28302
2.66272
75.4078
678.67
678.67
75.4078
2.66272
2.66272
3.17696
3.19647
3.16116
3.1228
2.66272
2.66272
2.66272
2.66272
2.66272
2.66272
2.66272
2.66272
2.66272
2.66272
2.66272
2.66272
2.66272
2.66272
2.66272
2.66272
2.66272
3.17174
3.30771
3.49737
3.25915
3.21586
3.2657
3.28776
2.66272
75.4078
678.67
678.67
75.4078
2.66272
2.66272
3.16938
3.1758
3.1446
2.66272
2.66272
2.66272
2.66272
2.66272
2.66272
2.66272
2.66272
2.66272
2.66272
2.66272
2.66272
2.66272
2.66272
2.66272
2.66272
2.66272
2.66272
3.13711
3.2082
3.13631
3.14108
3.19053
3.27055
3.29282
2.66272
75.4078
678.67
678.67
75.4078
2.66272
2.66272
3.15097
3.16736
3.13649
3.12045
2.66272
2.66272
2.66272
2.66272
2.66272
2.66272
2.66272
2.66272
2.66272
2.66272
2.66272
2.66272
2.66272
2.66272
2.66272
2.66272
2.66272
2.66272
3.14344
3.18264
3.21074
3.22835
3.27439
3.29459
2.66272
75.4078
678.67
678.67
75.4078
2.66272
3.12135
3.14264
3.13902
3.13632
3.13187
2.66272
2.66272
2.66272
2.66272
2.66272
2.66272
2.66272
2.66272
2.66272
2.66272
2.66272
2.66272
2.66272
2.66272
2.66272
2.66272
2.66272
3.15106
3.22354
3.15033
3.18031
3.23404
3.29065
3.29325
2.66272
75.4078
678.67
678.67
75.4078
2.66272
3.19806
3.14865
3.13661
3.13207
3.14856
3.12156
2.66272
2.66272
2.66272
2.66272
2.66272
2.66272
2.66272
2.66272
2.66272
2.66272
2.66272
2.66272
2.66272
2.66272
2.66272
2.66272
3.13983
3.21579
3.13759
3.146
3.21286
3.29008
3.30185
2.66272
75.4078
678.67
678.67
75.4078
2.66272
3.21767
3.15544
3.14359
3.1514
3.23842
3.17811
3.12602
2.66272
2.66272
2.66272
2.66272
2.66272
2.66272
2.66272
2.66272
2.66272
2.66272
2.66272
2.66272
2.66272
2.66272
2.66272
2.66272
2.66272
3.12649
3.14964
3.2116
3.29417
3.31316
2.66272
75.4078
678.67
678.67
75.4078
2.66272
3.21361
3.15522
3.13863
3.1406
3.21884
3.17553
3.13365
2.66272
2.66272
2.66272
2.66272
2.66272
2.66272
2.66272
2.66272
2.66272
2.66272
2.66272
2.66272
2.66272
2.66272
2.66272
3.14199
3.20236
3.25994
3.2172
3.23186
3.28794
3.31743
3.16262
75.4078
678.67
678.67
75.4078
2.66272
3.21772
3.15088
3.12822
2.66272
2.66272
2.66272
2.66272
2.66272
2.66272
2.66272
2.66272
2.66272
2.66272
2.66272
2.66272
2.66272
2.66272
2.66272
2.66272
2.66272
2.66272
2.66272
2.66272
2.66272
3.1458
3.18357
3.22989
3.30146
3.30994
2.66272
75.4078
678.67
678.67
75.4078
2.66272
3.20982
3.177
3.19192
3.16773
3.15615
3.12632
2.66272
2.66272
2.66272
2.66272
2.66272
2.66272
2.66272
2.66272
2.66272
2.66272
2.66272
2.66272
2.66272
2.66272
2.66272
2.66272
3.14923
3.23415
3.14881
3.15516
3.22152
3.29565
3.30943
3.13185
75.4078
678.67
678.67
75.4078
2.66272
3.21003
3.19129
3.23208
3.20921
3.18108
3.1366
2.66272
2.66272
2.66272
2.66272
2.66272
2.66272
2.66272
2.66272
2.66272
2.66272
2.66272
2.66272
2.66272
2.66272
2.66272
2.66272
3.14755
3.21282
3.26013
3.19734
3.21956
3.29606
3.32759
3.17951
75.4078
678.67
678.67
75.4078
2.66272
3.16211
3.19196
3.25328
3.26379
3.18564
3.12997
2.66272
2.66272
2.66272
2.66272
2.66272
2.66272
2.66272
2.66272
2.66272
2.66272
2.66272
2.66272
2.66272
2.66272
2.66272
2.66272
3.16038
3.25564
3.38453
3.42159
3.34541
3.33376
3.33881
3.18522
75.4078
678.67
678.67
75.4078
2.66272
2.66272
3.12827
3.18105
3.32343
3.17556
3.12783
2.66272
2.66272
2.66272
2.66272
2.66272
2.66272
2.66272
2.66272
2.66272
2.66272
2.66272
2.66272
2.66272
2.66272
2.66272
2.66272
3.12621
3.18082
3.27798
3.37258
3.36652
3.38247
3.35541
2.66272
75.4078
678.67
678.67
75.4078
2.66272
3.1737
3.17382
3.22218
3.3004
3.16187
3.15688
3.12108
2.66272
2.66272
2.66272
2.66272
2.66272
2.66272
2.66272
2.66272
2.66272
2.66272
2.66272
2.66272
2.66272
2.66272
2.66272
2.66272
3.14521
3.15112
3.21468
3.30248
3.36791
3.36116
3.14705
75.4078
678.67
678.67
75.4078
2.66272
2.66272
3.18388
3.42022
3.33647
3.15965
2.66272
2.66272
2.66272
2.66272
2.66272
2.66272
2.66272
2.66272
2.66272
2.66272
2.66272
2.66272
2.66272
2.66272
2.66272
2.66272
2.66272
3.14255
3.20975
3.28308
3.26191
3.30018
3.36593
3.36398
3.13047
75.4078
678.67
678.67
75.4078
2.66272
3.19962
3.15412
2.66272
2.66272
2.66272
3.14054
2.66272
2.66272
2.66272
2.66272
2.66272
2.66272
2.66272
2.66272
2.66272
2.66272
2.66272
2.66272
2.66272
2.66272
2.66272
2.66272
2.66272
2.66272
2.66272
3.18534
3.26814
3.35362
3.36783
3.18465
75.4078
678.67
678.67
75.4078
2.66272
3.12673
3.19232
3.1913
3.15003
3.12074
2.66272
2.66272
2.66272
2.66272
2.66272
2.66272
2.66272
2.66272
2.66272
2.66272
2.66272
2.66272
2.66272
2.66272
2.66272
2.66272
2.66272
2.66272
2.66272
2.66272
3.16576
3.26101
3.35292
3.35194
3.13996
75.4078
678.67
678.67
75.4078
2.66272
2.66272
3.17193
3.19217
3.183
3.17168
3.13288
2.66272
2.66272
2.66272
2.66272
2.66272
2.66272
2.66272
2.66272
2.66272
2.66272
2.66272
2.66272
2.66272
2.66272
2.66272
2.66272
2.66272
2.66272
2.66272
3.16037
3.25011
3.34809
3.36199
3.17674
75.4078
678.67
678.67
75.4078
2.66272
3.20774
3.22546
3.20286
3.19352
3.17142
3.12884
2.66272
2.66272
2.66272
2.66272
2.66272
2.66272
2.66272
2.66272
2.66272
2.66272
2.66272
2.66272
2.66272
2.66272
2.66272
2.66272
2.66272
3.13772
3.17363
3.20757
3.26877
3.3508
3.36894
2.66272
75.4078
678.67
678.67
75.4078
2.66272
3.24153
3.39585
3.39754
3.21933
3.24672
3.17616
3.12743
2.66272
2.66272
2.66272
2.66272
2.66272
2.66272
2.66272
2.66272
2.66272
2.66272
2.66272
2.66272
2.66272
2.66272
2.66272
2.66272
3.1367
3.17892
3.22016
3.29492
3.37676
3.37451
3.14382
75.4078
678.67
678.67
75.4078
2.66272
2.66272
3.12017
3.13395
3.15584
3.12444
2.66272
2.66272
2.66272
2.66272
2.66272
2.66272
2.66272
2.66272
2.66272
2.66272
2.66272
2.66272
2.66272
2.66272
2.66272
2.66272
2.66272
2.66272
2.66272
2.66272
3.17727
3.27566
3.36776
3.37983
3.20964
75.4078
678.67
678.67
75.4078
2.66272
2.66272
3.12619
3.14269
3.12759
3.13761
2.66272
2.66272
2.66272
2.66272
2.66272
2.66272
2.66272
2.66272
2.66272
2.66272
2.66272
2.66272
2.66272
2.66272
2.66272
2.66272
2.66272
2.66272
3.12199
2.66272
3.1649
3.26702
3.3693
3.37937
3.12913
75.4078
678.67
678.67
75.4078
2.66272
2.66272
3.22439
3.44134
3.39777
3.27936
3.17823
3.128
2.66272
2.66272
2.66272
2.66272
2.66272
2.66272
2.66272
2.66272
2.66272
2.66272
2.66272
2.66272
2.66272
2.66272
2.66272
2.66272
3.14287
3.18308
3.21815
3.29065
3.3664
3.37443
3.17294
75.4078
678.67
678.67
75.4078
2.66272
3.24792
3.44453
3.44247
3.36065
3.26585
3.17515
3.1255
2.66272
2.66272
2.66272
2.66272
2.66272
2.66272
2.66272
2.66272
2.66272
2.66272
2.66272
2.66272
2.66272
2.66272
2.66272
3.12413
2.66272
3.12044
3.19367
3.29421
3.38542
3.3819
3.12056
75.4078
678.67
678.67
75.4078
2.66272
3.28682
3.50791
3.55435
3.45172
3.30448
3.19048
3.13252
2.66272
2.66272
2.66272
2.66272
2.66272
2.66272
2.66272
2.66272
2.66272
2.66272
2.66272
2.66272
2.66272
2.66272
2.66272
3.12443
2.66272
2.66272
3.18441
3.29781
3.39789
3.37621
2.66272
75.4078
678.67
678.67
75.4078
2.66272
3.19404
3.17175
3.36029
3.34491
3.25731
3.17302
3.12739
2.66272
2.66272
2.66272
2.66272
2.66272
2.66272
2.66272
2.66272
2.66272
2.66272
2.66272
2.66272
2.66272
2.66272
2.66272
2.66272
3.14373
3.14589
3.19621
3.29838
3.41219
3.43459
3.21805
75.4078
678.67
678.67
75.4078
2.66272
2.66272
3.19745
3.17439
3.14144
2.66272
2.66272
2.66272
2.66272
2.66272
2.66272
2.66272
2.66272
2.66272
2.66272
2.66272
2.66272
2.66272
2.66272
2.66272
2.66272
2.66272
2.66272
3.12059
3.15213
3.13873
3.19427
3.3102
3.40304
3.42068
3.14547
75.4078
678.67
678.67
75.4078
2.66272
3.16301
3.29092
3.29299
3.22528
3.14988
2.66272
2.66272
2.66272
2.66272
2.66272
2.66272
2.66272
2.66272
2.66272
2.66272
2.66272
2.66272
2.66272
2.66272
2.66272
2.66272
3.12037
3.20841
3.38084
3.58006
3.3296
3.33623
3.41427
3.42496
3.20774
75.4078
678.67
678.67
75.4078
2.66272
3.13217
3.35009
3.32063
3.22632
3.15464
2.66272
2.66272
2.66272
2.66272
2.66272
2.66272
2.66272
2.66272
2.66272
2.66272
2.66272
2.66272
2.66272
2.66272
2.66272
2.66272
2.66272
3.16377
3.36117
3.58736
3.32929
3.33743
3.42438
3.43316
3.16382
75.4078
678.67
678.67
75.4078
2.66272
3.14098
3.45721
3.42737
3.22191
3.23176
3.16479
2.66272
2.66272
2.66272
2.66272
2.66272
2.66272
2.66272
2.66272
2.66272
2.66272
2.66272
2.66272
2.66272
2.66272
2.66272
2.66272
2.66272
2.66272
3.14178
3.22749
3.33263
3.43075
3.44652
3.14118
75.4078
678.67
678.67
75.4078
2.66272
3.2044
3.31997
3.24043
3.20827
3.1472
3.14983
2.66272
2.66272
2.66272
2.66272
2.66272
2.66272
2.66272
2.66272
2.66272
2.66272
2.66272
2.66272
2.66272
2.66272
2.66272
2.66272
3.16034
3.2603
3.18179
3.23041
3.3384
3.44302
3.45593
3.14785
75.4078
678.67
678.67
75.4078
2.66272
2.66272
3.20407
3.44293
3.40705
3.2943
3.19389
3.13502
2.66272
2.66272
2.66272
2.66272
2.66272
2.66272
2.66272
2.66272
2.66272
2.66272
2.66272
2.66272
2.66272
2.66272
2.66272
3.13165
3.12042
3.15796
3.24205
3.36541
3.46168
3.45841
2.66272
75.4078
678.67
678.67
75.4078
2.66272
2.66272
3.19765
3.40993
3.32283
3.1603
3.15238
3.12132
2.66272
2.66272
2.66272
2.66272
2.66272
2.66272
2.66272
2.66272
2.66272
2.66272
2.66272
2.66272
2.66272
2.66272
2.66272
2.66272
2.66272
3.15155
3.2432
3.37409
3.48203
3.46152
2.66272
75.4078
678.67
678.67
75.4078
2.66272
2.66272
2.66272
2.66272
2.66272
2.66272
2.66272
2.66272
2.66272
2.66272
2.66272
2.66272
2.66272
2.66272
2.66272
2.66272
2.66272
2.66272
2.66272
2.66272
2.66272
2.66272
2.66272
3.12299
3.16708
3.22643
3.28586
3.39002
3.489
3.48412
3.18884
75.4078
678.67
678.67
75.4078
2.66272
2.66272
3.12316
2.66272
3.1225
2.66272
2.66272
2.66272
2.66272
2.66272
2.66272
2.66272
2.66272
2.66272
2.66272
2.66272
2.66272
2.66272
2.66272
2.66272
2.66272
2.66272
2.66272
3.13306
3.12566
3.16492
3.25981
3.37911
3.48388
3.48687
3.16904
75.4078
678.67
678.67
75.4078
2.66272
3.16865
3.14886
3.14704
3.16715
3.13175
2.66272
2.66272
2.66272
2.66272
2.66272
2.66272
2.66272
2.66272
2.66272
2.66272
2.66272
2.66272
2.66272
2.66272
2.66272
2.66272
2.66272
2.66272
3.14917
3.17145
3.25645
3.39113
3.5036
3.48644
3.19312
75.4078
678.67
678.67
75.4078
2.66272
2.66272
3.14157
3.18479
3.33435
3.27046
3.18397
3.13051
2.66272
2.66272
2.66272
2.66272
2.66272
2.66272
2.66272
2.66272
2.66272
2.66272
2.66272
2.66272
2.66272
2.66272
2.66272
2.66272
3.16285
3.22634
3.29265
3.40389
3.49955
3.48917
3.17856
75.4078
678.67
678.67
75.4078
2.66272
3.16961
3.17142
3.16005
2.66272
2.66272
2.66272
2.66272
2.66272
2.66272
2.66272
2.66272
2.66272
2.66272
2.66272
2.66272
2.66272
2.66272
2.66272
2.66272
2.66272
2.66272
2.66272
2.66272
3.15557
3.18926
3.27871
3.40389
3.51727
3.49149
3.17063
75.4078
678.67
678.67
75.4078
2.66272
2.66272
3.1638
3.1823
3.1497
2.66272
2.66272
2.66272
2.66272
2.66272
2.66272
2.66272
2.66272
2.66272
2.66272
2.66272
2.66272
2.66272
2.66272
2.66272
2.66272
2.66272
2.66272
2.66272
2.66272
3.15168
3.26633
3.41287
3.52052
3.50783
2.66272
75.4078
678.67
678.67
75.4078
2.66272
2.66272
3.16294
3.1869
3.15628
3.13311
3.15062
3.12133
2.66272
2.66272
2.66272
2.66272
2.66272
2.66272
2.66272
2.66272
2.66272
2.66272
2.66272
2.66272
2.66272
2.66272
2.66272
3.1271
3.17974
3.24578
3.31822
3.43947
3.54745
3.5243
3.23529
75.4078
678.67
678.67
75.4078
2.66272
2.66272
3.18875
3.21534
3.18119
3.14616
3.15133
2.66272
2.66272
2.66272
2.66272
2.66272
2.66272
2.66272
2.66272
2.66272
2.66272
2.66272
2.66272
2.66272
2.66272
2.66272
2.66272
3.13043
3.18701
3.26402
3.33571
3.43759
3.53819
3.50638
3.20231
75.4078
678.67
678.67
75.4078
2.66272
3.23121
3.22379
3.22043
3.18624
3.14193
2.66272
2.66272
2.66272
2.66272
2.66272
2.66272
2.66272
2.66272
2.66272
2.66272
2.66272
2.66272
2.66272
2.66272
2.66272
2.66272
2.66272
3.13076
3.13011
3.18003
3.29075
3.43527
3.54809
3.5246
3.1911
75.4078
678.67
678.67
75.4078
2.66272
3.25053
3.26863
3.22646
3.18401
3.14713
2.66272
2.66272
2.66272
2.66272
2.66272
2.66272
2.66272
2.66272
2.66272
2.66272
2.66272
2.66272
2.66272
2.66272
2.66272
2.66272
2.66272
2.66272
3.15677
3.1887
3.28975
3.43235
3.55536
3.54732
3.18871
75.4078
678.67
678.67
75.4078
2.66272
3.21048
3.28238
3.16763
3.1685
3.23098
3.17154
3.12515
2.66272
2.66272
2.66272
2.66272
2.66272
2.66272
2.66272
2.66272
2.66272
2.66272
2.66272
2.66272
2.66272
2.66272
2.66272
2.66272
2.66272
3.16961
3.2877
3.43749
3.56116
3.54656
3.17465
75.4078
678.67
678.67
75.4078
2.66272
2.66272
3.37075
3.21144
3.20614
3.16785
3.12549
2.66272
2.66272
2.66272
2.66272
2.66272
2.66272
2.66272
2.66272
2.66272
2.66272
2.66272
2.66272
2.66272
2.66272
2.66272
2.66272
2.66272
2.66272
3.17362
3.29867
3.447
3.55757
3.5426
3.17931
75.4078
678.67
678.67
75.4078
2.66272
3.14628
3.25029
3.22733
3.2234
3.17145
3.1264
2.66272
2.66272
2.66272
2.66272
2.66272
2.66272
2.66272
2.66272
2.66272
2.66272
2.66272
2.66272
2.66272
2.66272
2.66272
2.66272
2.66272
2.66272
3.16778
3.29709
3.45523
3.58818
3.54319
3.16701
75.4078
678.67
678.67
75.4078
2.66272
3.25577
3.51113
3.54238
3.42204
3.29314
3.19251
3.13321
2.66272
2.66272
2.66272
2.66272
2.66272
2.66272
2.66272
2.66272
2.66272
2.66272
2.66272
2.66272
2.66272
2.66272
2.66272
3.13314
3.18322
3.21868
3.32934
3.48949
3.59951
3.56612
3.1714
75.4078
678.67
678.67
75.4078
2.66272
2.66272
3.12555
3.33357
3.31929
3.16221
3.15927
3.12342
2.66272
2.66272
2.66272
2.66272
2.66272
2.66272
2.66272
2.66272
2.66272
2.66272
2.66272
2.66272
2.66272
2.66272
2.66272
3.1673
3.27776
3.2329
3.32803
3.48003
3.60685
3.56978
3.17288
75.4078
678.67
678.67
75.4078
2.66272
2.66272
2.66272
2.66272
2.66272
3.12578
2.66272
2.66272
2.66272
2.66272
2.66272
2.66272
2.66272
2.66272
2.66272
2.66272
2.66272
2.66272
2.66272
2.66272
2.66272
2.66272
2.66272
2.66272
3.13225
3.19674
3.31976
3.48781
3.60881
3.58777
3.18563
75.4078
678.67
678.67
75.4078
2.66272
3.21748
3.15658
3.14091
3.13878
3.20146
3.13157
2.66272
2.66272
2.66272
2.66272
2.66272
2.66272
2.66272
2.66272
2.66272
2.66272
2.66272
2.66272
2.66272
2.66272
2.66272
2.66272
2.66272
3.13544
3.19898
3.32092
3.47354
3.59339
3.58448
3.17918
75.4078
678.67
678.67
75.4078
2.66272
3.21853
3.15431
3.14035
3.1238
2.66272
2.66272
2.66272
2.66272
2.66272
2.66272
2.66272
2.66272
2.66272
2.66272
2.66272
2.66272
2.66272
2.66272
2.66272
2.66272
2.66272
2.66272
3.17639
3.29461
3.25621
3.35812
3.50588
3.6124
3.58699
3.1695
75.4078
678.67
678.67
75.4078
2.66272
3.174
3.15264
3.15019
3.14708
3.1341
3.15183
3.12132
2.66272
2.66272
2.66272
2.66272
2.66272
2.66272
2.66272
2.66272
2.66272
2.66272
2.66272
2.66272
2.66272
2.66272
2.66272
3.16903
3.28561
3.25297
3.35642
3.50885
3.61636
3.58342
3.16541
75.4078
678.67
678.67
75.4078
2.66272
2.66272
3.12523
3.15404
3.19092
3.15993
3.12266
2.66272
2.66272
2.66272
2.66272
2.66272
2.66272
2.66272
2.66272
2.66272
2.66272
2.66272
2.66272
2.66272
2.66272
2.66272
2.66272
2.66272
2.66272
3.20165
3.35
3.52486
3.63346
3.60379
3.16936
75.4078
678.67
678.67
75.4078
2.66272
3.18509
3.14193
3.14776
3.18248
3.1245
2.66272
2.66272
2.66272
2.66272
2.66272
2.66272
2.66272
2.66272
2.66272
2.66272
2.66272
2.66272
2.66272
2.66272
2.66272
2.66272
2.66272
2.66272
2.66272
3.20521
3.35522
3.52422
3.64049
3.60649
3.17358
75.4078
678.67
678.67
75.4078
2.66272
3.2057
3.15498
3.16175
3.27942
3.16153
3.16384
3.12785
2.66272
2.66272
2.66272
2.66272
2.66272
2.66272
2.66272
2.66272
2.66272
2.66272
2.66272
2.66272
2.66272
2.66272
2.66272
3.12303
3.13241
3.22329
3.38098
3.55354
3.65865
3.60086
3.17453
75.4078
678.67
678.67
75.4078
2.66272
3.1887
3.14792
3.12908
2.66272
3.12095
2.66272
2.66272
2.66272
2.66272
2.66272
2.66272
2.66272
2.66272
2.66272
2.66272
2.66272
2.66272
2.66272
2.66272
2.66272
2.66272
2.66272
3.12933
3.13634
3.22691
3.38636
3.56133
3.67159
3.61377
3.1727
75.4078
678.67
678.67
75.4078
2.66272
2.66272
3.13773
3.1224
2.66272
2.66272
2.66272
2.66272
2.66272
2.66272
2.66272
2.66272
2.66272
2.66272
2.66272
2.66272
2.66272
2.66272
2.66272
2.66272
2.66272
2.66272
2.66272
3.13672
3.15136
3.24338
3.40158
3.57703
3.68962
3.63256
3.18699
75.4078
678.67
678.67
75.4078
2.66272
2.66272
3.1394
3.13853
2.66272
2.66272
2.66272
2.66272
2.66272
2.66272
2.66272
2.66272
2.66272
2.66272
2.66272
2.66272
2.66272
2.66272
2.66272
2.66272
2.66272
2.66272
2.66272
3.12773
3.14205
3.24171
3.41242
3.60089
3.73645
3.6745
3.20563
75.4078
678.67
678.67
75.4078
2.66272
3.12862
3.18291
3.16432
3.15157
3.20776
3.13694
3.12228
2.66272
2.66272
2.66272
2.66272
2.66272
2.66272
2.66272
2.66272
2.66272
2.66272
2.66272
2.66272
2.66272
2.66272
2.66272
3.13737
3.15452
3.25156
3.41748
3.60458
3.73644
3.6759
3.21122
75.4078
678.67
678.67
75.4078
2.66272
3.14131
3.17705
3.17077
3.13561
2.66272
2.66272
2.66272
2.66272
2.66272
2.66272
2.66272
2.66272
2.66272
2.66272
2.66272
2.66272
2.66272
2.66272
2.66272
2.66272
2.66272
2.66272
3.12306
3.17472
3.28396
3.45652
3.6466
3.75768
3.68347
3.22041
75.4078
678.67
678.67
75.4078
2.66272
3.22647
3.18621
3.17733
3.14005
2.66272
2.66272
2.66272
2.66272
2.66272
2.66272
2.66272
2.66272
2.66272
2.66272
2.66272
2.66272
2.66272
2.66272
2.66272
2.66272
2.66272
2.66272
2.66272
3.14859
3.26417
3.4481
3.64572
3.76496
3.70883
3.24301
75.4078
678.67
678.67
75.4078
2.66272
3.23226
3.19287
3.17596
3.15891
3.23106
3.17597
3.13145
2.66272
2.66272
2.66272
2.66272
2.66272
2.66272
2.66272
2.66272
2.66272
2.66272
2.66272
2.66272
2.66272
2.66272
2.66272
2.66272
3.14786
3.26188
3.44255
3.63846
3.76021
3.7051
3.23263
75.4078
678.67
678.67
75.4078
2.66272
3.22854
3.20225
3.17481
3.16322
3.23564
3.17848
3.13406
2.66272
2.66272
2.66272
2.66272
2.66272
2.66272
2.66272
2.66272
2.66272
2.66272
2.66272
2.66272
2.66272
2.66272
2.66272
3.13828
3.15911
3.27276
3.46139
3.66326
3.78187
3.70143
3.24418
75.4078
678.67
678.67
75.4078
2.66272
2.66272
3.22121
3.21086
3.17626
3.22382
3.17688
3.13508
2.66272
2.66272
2.66272
2.66272
2.66272
2.66272
2.66272
2.66272
2.66272
2.66272
2.66272
2.66272
2.66272
2.66272
2.66272
3.14025
3.15901
3.26578
3.4493
3.65271
3.78065
3.71999
3.24307
75.4078
678.67
678.67
75.4078
2.66272
2.66272
3.28199
3.28404
3.20015
3.13333
2.66272
2.66272
2.66272
2.66272
2.66272
2.66272
2.66272
2.66272
2.66272
2.66272
2.66272
2.66272
2.66272
2.66272
2.66272
2.66272
2.66272
2.66272
3.15154
3.26476
3.44414
3.64167
3.77284
3.72091
3.2601
75.4078
678.67
678.67
75.4078
2.66272
3.12417
3.27149
3.29264
3.23759
3.15623
3.12345
2.66272
2.66272
2.66272
2.66272
2.66272
2.66272
2.66272
2.66272
2.66272
2.66272
2.66272
2.66272
2.66272
2.66272
2.66272
2.66272
2.66272
3.15727
3.2806
3.47498
3.67932
3.79812
3.72142
3.24212
75.4078
678.67
678.67
75.4078
2.66272
3.14249
3.16146
3.15873
3.13019
2.66272
2.66272
2.66272
2.66272
2.66272
2.66272
2.66272
2.66272
2.66272
2.66272
2.66272
2.66272
2.66272
2.66272
2.66272
2.66272
2.66272
2.66272
3.1428
3.16438
3.27819
3.46861
3.67344
3.79545
3.7272
3.26658
75.4078
678.67
678.67
75.4078
2.66272
3.2491
3.23706
3.23477
3.18783
3.1367
2.66272
2.66272
2.66272
2.66272
2.66272
2.66272
2.66272
2.66272
2.66272
2.66272
2.66272
2.66272
2.66272
2.66272
2.66272
2.66272
2.66272
3.14785
3.17217
3.2861
3.47369
3.67611
3.78972
3.74061
3.27457
75.4078
678.67
678.67
75.4078
2.66272
2.66272
3.19559
3.20601
3.17685
3.13897
2.66272
2.66272
2.66272
2.66272
2.66272
2.66272
2.66272
2.66272
2.66272
2.66272
2.66272
2.66272
2.66272
2.66272
2.66272
2.66272
2.66272
3.12587
3.17539
3.30757
3.50236
3.70522
3.82517
3.74539
3.27403
75.4078
678.67
678.67
75.4078
2.66272
2.66272
3.15528
3.17074
3.14472
2.66272
2.66272
2.66272
2.66272
2.66272
2.66272
2.66272
2.66272
2.66272
2.66272
2.66272
2.66272
2.66272
2.66272
2.66272
2.66272
2.66272
2.66272
2.66272
3.16123
3.28949
3.48813
3.69644
3.82144
3.74091
3.27901
75.4078
678.67
678.67
75.4078
2.66272
3.12232
3.19211
3.20959
3.19385
3.14686
2.66272
2.66272
2.66272
2.66272
2.66272
2.66272
2.66272
2.66272
2.66272
2.66272
2.66272
2.66272
2.66272
2.66272
2.66272
2.66272
2.66272
3.12543
3.17025
3.29611
3.49063
3.70482
3.83097
3.76286
3.27814