/*--------------------------------*- C++ -*----------------------------------*\
  =========                 |
  \\      /  F ield         | OpenFOAM: The Open Source CFD Toolbox
   \\    /   O peration     | Website:  https://openfoam.org
    \\  /    A nd           | Version:  13
     \\/     M anipulation  |
\*---------------------------------------------------------------------------*/
FoamFile
{
    format      ascii;
    class       volScalarField;
    location    "5";
    object      p;
}
// * * * * * * * * * * * * * * * * * * * * * * * * * * * * * * * * * * * * * //

dimensions      [0 2 -2 0 0 0 0];

internalField   nonuniform List<scalar> 
78750
(
0
-8.70753e-05
-0.000191662
-0.000387088
-0.000635468
-0.000897691
-0.00119983
-0.00147911
-0.00169078
-0.00186284
-0.00203415
-0.00223584
-0.00238851
-0.00250721
-0.00262212
-0.00273555
-0.0028514
-0.00295763
-0.00305685
-0.00315995
-0.00325738
-0.00334441
-0.00343635
-0.00355134
-0.00364963
-0.00372804
-0.00379801
-0.00385675
-0.00388466
-0.00389749
-0.00387047
-0.00382656
-0.00371145
-0.00358274
-0.00346787
-0.147239
-0.147263
-0.147335
-0.147483
-0.147663
-0.14778
-0.147868
-0.147979
-0.148105
-0.148221
-0.148336
-0.148426
-0.148495
-0.148558
-0.148619
-0.148683
-0.148749
-0.148818
-0.148891
-0.148968
-0.149047
-0.149129
-0.149212
-0.149298
-0.149385
-0.149476
-0.149565
-0.149637
-0.149676
-0.149679
-0.149652
-0.149597
-0.149505
-0.149398
-0.149326
-0.29352
-0.293531
-0.293558
-0.293608
-0.29366
-0.293701
-0.293728
-0.293749
-0.29377
-0.293805
-0.29386
-0.293922
-0.293985
-0.29405
-0.29412
-0.294193
-0.294268
-0.294347
-0.294427
-0.29451
-0.294594
-0.294679
-0.294765
-0.29485
-0.294937
-0.295026
-0.295105
-0.29517
-0.295213
-0.295234
-0.295226
-0.295194
-0.295143
-0.29508
-0.295039
-0.439541
-0.439545
-0.439552
-0.439567
-0.439584
-0.439599
-0.439612
-0.439625
-0.439642
-0.439669
-0.439712
-0.439762
-0.439816
-0.439872
-0.439928
-0.439987
-0.440048
-0.440111
-0.440177
-0.440244
-0.440313
-0.440384
-0.440455
-0.440529
-0.440607
-0.440683
-0.440744
-0.440794
-0.440828
-0.440842
-0.440846
-0.440837
-0.440812
-0.440776
-0.440755
-0.585063
-0.585066
-0.585069
-0.585081
-0.585096
-0.585109
-0.585121
-0.585133
-0.585148
-0.585172
-0.58521
-0.585256
-0.585305
-0.585358
-0.585413
-0.585469
-0.585528
-0.58559
-0.585653
-0.585719
-0.585786
-0.585855
-0.585924
-0.585997
-0.586074
-0.586148
-0.586207
-0.586253
-0.586285
-0.5863
-0.586306
-0.586302
-0.586289
-0.586267
-0.586258
-0.73056
-0.730562
-0.730564
-0.730572
-0.730583
-0.730593
-0.730604
-0.730616
-0.730631
-0.730655
-0.73069
-0.730734
-0.73078
-0.730828
-0.730879
-0.730932
-0.730986
-0.731041
-0.731097
-0.731155
-0.731213
-0.731272
-0.731332
-0.731393
-0.731452
-0.731507
-0.731551
-0.731582
-0.731602
-0.73161
-0.731612
-0.73161
-0.731603
-0.731595
-0.731587
-0.875967
-0.87597
-0.875971
-0.87598
-0.87599
-0.876001
-0.876014
-0.876026
-0.876042
-0.876065
-0.876101
-0.876145
-0.876191
-0.876238
-0.876289
-0.876343
-0.876398
-0.876454
-0.876512
-0.876573
-0.876634
-0.876696
-0.876761
-0.876828
-0.876896
-0.876963
-0.877019
-0.877057
-0.877085
-0.877102
-0.877116
-0.877124
-0.877119
-0.877102
-0.877095
-1.02134
-1.02135
-1.02135
-1.02136
-1.02137
-1.02138
-1.02139
-1.0214
-1.02141
-1.02143
-1.02147
-1.02151
-1.02155
-1.0216
-1.02164
-1.0217
-1.02175
-1.02181
-1.02186
-1.02193
-1.02199
-1.02205
-1.02212
-1.0222
-1.02227
-1.02234
-1.02241
-1.02245
-1.02248
-1.02251
-1.02252
-1.02252
-1.02252
-1.0225
-1.0225
-1.16667
-1.16668
-1.16668
-1.16668
-1.16669
-1.1667
-1.16671
-1.16672
-1.16674
-1.16676
-1.16678
-1.16682
-1.16686
-1.16689
-1.16693
-1.16698
-1.16702
-1.16707
-1.16711
-1.16716
-1.16721
-1.16726
-1.16731
-1.16737
-1.16742
-1.16747
-1.16752
-1.16755
-1.16757
-1.16758
-1.16759
-1.16759
-1.16758
-1.16758
-1.16758
-1.31198
-1.31198
-1.31198
-1.31199
-1.312
-1.31201
-1.31201
-1.31203
-1.31204
-1.31205
-1.31208
-1.31211
-1.31214
-1.31217
-1.31221
-1.31224
-1.31227
-1.31231
-1.31235
-1.31238
-1.31242
-1.31246
-1.3125
-1.31253
-1.31257
-1.3126
-1.31263
-1.31264
-1.31265
-1.31265
-1.31265
-1.31265
-1.31265
-1.31265
-1.31265
-1.4573
-1.4573
-1.4573
-1.45731
-1.45731
-1.45732
-1.45732
-1.45733
-1.45734
-1.45735
-1.45737
-1.4574
-1.45742
-1.45745
-1.45747
-1.4575
-1.45753
-1.45755
-1.45758
-1.45761
-1.45764
-1.45767
-1.4577
-1.45772
-1.45775
-1.45777
-1.45779
-1.4578
-1.4578
-1.4578
-1.4578
-1.45779
-1.45778
-1.45777
-1.45778
-1.60259
-1.6026
-1.6026
-1.6026
-1.60261
-1.60261
-1.60261
-1.60262
-1.60263
-1.60264
-1.60265
-1.60267
-1.60269
-1.60271
-1.60274
-1.60276
-1.60278
-1.60281
-1.60284
-1.60286
-1.60289
-1.60292
-1.60294
-1.60297
-1.603
-1.60303
-1.60305
-1.60307
-1.60307
-1.60308
-1.60309
-1.6031
-1.60311
-1.60309
-1.60309
-1.74789
-1.7479
-1.7479
-1.7479
-1.7479
-1.7479
-1.74791
-1.74791
-1.74792
-1.74792
-1.74793
-1.74795
-1.74796
-1.74798
-1.74799
-1.74801
-1.74803
-1.74805
-1.74807
-1.74809
-1.74812
-1.74814
-1.74817
-1.74819
-1.74822
-1.74825
-1.74827
-1.74828
-1.74829
-1.7483
-1.7483
-1.74831
-1.74831
-1.74831
-1.74831
-1.89314
-1.89315
-1.89315
-1.89315
-1.89315
-1.89316
-1.89316
-1.89316
-1.89316
-1.89317
-1.89317
-1.89319
-1.8932
-1.89321
-1.89322
-1.89324
-1.89325
-1.89326
-1.89328
-1.8933
-1.89331
-1.89333
-1.89335
-1.89337
-1.89338
-1.8934
-1.89342
-1.89342
-1.89342
-1.89343
-1.89342
-1.89342
-1.89342
-1.89341
-1.89342
-2.03838
-2.03838
-2.03838
-2.03838
-2.03838
-2.03838
-2.03839
-2.03839
-2.03839
-2.03839
-2.0384
-2.03841
-2.03842
-2.03842
-2.03843
-2.03844
-2.03845
-2.03846
-2.03847
-2.03848
-2.03849
-2.0385
-2.03851
-2.03851
-2.03852
-2.03853
-2.03853
-2.03853
-2.03853
-2.03853
-2.03853
-2.03853
-2.03854
-2.03854
-2.03854
-2.1836
-2.1836
-2.1836
-2.1836
-2.18361
-2.18361
-2.18361
-2.18362
-2.18362
-2.18362
-2.18363
-2.18363
-2.18364
-2.18365
-2.18365
-2.18366
-2.18367
-2.18368
-2.18368
-2.18369
-2.1837
-2.18371
-2.18371
-2.18372
-2.18373
-2.18373
-2.18374
-2.18374
-2.18373
-2.18374
-2.18374
-2.18375
-2.18374
-2.18373
-2.18374
-2.32884
-2.32885
-2.32885
-2.32885
-2.32885
-2.32885
-2.32885
-2.32885
-2.32885
-2.32885
-2.32886
-2.32886
-2.32887
-2.32887
-2.32888
-2.32888
-2.32889
-2.32889
-2.3289
-2.32891
-2.32891
-2.32892
-2.32892
-2.32893
-2.32894
-2.32894
-2.32895
-2.32894
-2.32894
-2.32894
-2.32894
-2.32894
-2.32895
-2.32894
-2.32895
-2.47409
-2.4741
-2.47409
-2.47409
-2.47409
-2.47409
-2.47409
-2.47409
-2.47409
-2.47409
-2.47409
-2.47409
-2.4741
-2.4741
-2.4741
-2.4741
-2.47411
-2.47411
-2.47411
-2.47411
-2.47412
-2.47412
-2.47412
-2.47413
-2.47413
-2.47413
-2.47414
-2.47413
-2.47413
-2.47413
-2.47413
-2.47413
-2.47414
-2.47412
-2.47413
-2.61931
-2.61932
-2.61931
-2.61931
-2.61932
-2.61932
-2.61932
-2.61932
-2.61932
-2.61932
-2.61933
-2.61933
-2.61933
-2.61933
-2.61934
-2.61934
-2.61934
-2.61934
-2.61935
-2.61935
-2.61935
-2.61936
-2.61936
-2.61937
-2.61937
-2.61938
-2.61938
-2.61938
-2.61938
-2.61937
-2.61937
-2.61936
-2.61936
-2.61935
-2.61936
-2.76454
-2.76455
-2.76455
-2.76455
-2.76455
-2.76455
-2.76455
-2.76455
-2.76455
-2.76455
-2.76455
-2.76455
-2.76456
-2.76456
-2.76456
-2.76456
-2.76456
-2.76456
-2.76456
-2.76456
-2.76456
-2.76456
-2.76456
-2.76457
-2.76457
-2.76457
-2.76457
-2.76457
-2.76457
-2.76457
-2.76457
-2.76458
-2.76459
-2.76458
-2.76458
-2.90978
-2.90979
-2.90978
-2.90978
-2.90978
-2.90979
-2.90979
-2.90979
-2.90979
-2.90979
-2.90979
-2.90979
-2.90979
-2.90979
-2.90979
-2.90979
-2.90979
-2.90979
-2.90979
-2.90979
-2.90979
-2.90979
-2.90979
-2.90979
-2.9098
-2.9098
-2.9098
-2.90979
-2.90979
-2.90979
-2.9098
-2.90981
-2.90983
-2.90983
-2.90986
-3.05502
-3.05503
-3.05502
-3.05502
-3.05502
-3.05502
-3.05503
-3.05503
-3.05503
-3.05503
-3.05503
-3.05503
-3.05503
-3.05503
-3.05503
-3.05504
-3.05504
-3.05504
-3.05504
-3.05504
-3.05505
-3.05505
-3.05505
-3.05506
-3.05506
-3.05507
-3.05507
-3.05507
-3.05507
-3.05507
-3.05508
-3.05507
-3.05505
-3.05503
-3.05503
-3.20028
-3.20029
-3.20029
-3.20029
-3.20029
-3.20028
-3.20028
-3.20028
-3.20028
-3.20027
-3.20027
-3.20027
-3.20027
-3.20027
-3.20026
-3.20026
-3.20026
-3.20026
-3.20026
-3.20025
-3.20025
-3.20025
-3.20025
-3.20025
-3.20025
-3.20025
-3.20025
-3.20025
-3.20024
-3.20024
-3.20024
-3.20023
-3.20023
-3.20021
-3.20021
-3.34552
-3.34552
-3.34552
-3.34552
-3.34552
-3.34552
-3.34552
-3.34552
-3.34551
-3.34551
-3.34551
-3.34551
-3.3455
-3.3455
-3.3455
-3.3455
-3.34549
-3.34549
-3.34549
-3.34549
-3.34549
-3.34549
-3.34549
-3.34549
-3.34549
-3.34549
-3.34549
-3.34549
-3.34548
-3.34548
-3.34549
-3.34551
-3.34552
-3.3455
-3.3455
-3.49074
-3.49075
-3.49075
-3.49075
-3.49075
-3.49075
-3.49075
-3.49075
-3.49075
-3.49075
-3.49075
-3.49074
-3.49074
-3.49074
-3.49074
-3.49074
-3.49073
-3.49073
-3.49073
-3.49073
-3.49073
-3.49073
-3.49073
-3.49074
-3.49074
-3.49074
-3.49075
-3.49075
-3.49075
-3.49075
-3.49076
-3.49075
-3.49075
-3.49074
-3.49076
-3.63599
-3.636
-3.63599
-3.63599
-3.63599
-3.63599
-3.63599
-3.63599
-3.63599
-3.63598
-3.63598
-3.63598
-3.63597
-3.63597
-3.63597
-3.63596
-3.63596
-3.63595
-3.63595
-3.63595
-3.63594
-3.63594
-3.63594
-3.63593
-3.63593
-3.63593
-3.63593
-3.63592
-3.63592
-3.63591
-3.63591
-3.63591
-3.6359
-3.63587
-3.63588
-3.78125
-3.78125
-3.78125
-3.78125
-3.78125
-3.78125
-3.78125
-3.78124
-3.78124
-3.78123
-3.78123
-3.78122
-3.78122
-3.78121
-3.7812
-3.7812
-3.78119
-3.78119
-3.78118
-3.78118
-3.78117
-3.78117
-3.78116
-3.78116
-3.78116
-3.78115
-3.78115
-3.78114
-3.78114
-3.78114
-3.78114
-3.78116
-3.78117
-3.78116
-3.78118
-3.92647
-3.92648
-3.92647
-3.92647
-3.92647
-3.92646
-3.92646
-3.92646
-3.92646
-3.92646
-3.92645
-3.92645
-3.92644
-3.92644
-3.92643
-3.92643
-3.92642
-3.92642
-3.92641
-3.92641
-3.92641
-3.9264
-3.9264
-3.9264
-3.92639
-3.92639
-3.92639
-3.92638
-3.92637
-3.92637
-3.92638
-3.92637
-3.92637
-3.92637
-3.9264
-4.07172
-4.07172
-4.07172
-4.07172
-4.07172
-4.07172
-4.07171
-4.07171
-4.07171
-4.07171
-4.0717
-4.0717
-4.07169
-4.07168
-4.07168
-4.07167
-4.07167
-4.07166
-4.07165
-4.07165
-4.07164
-4.07164
-4.07163
-4.07163
-4.07162
-4.07162
-4.07162
-4.07161
-4.07161
-4.07161
-4.0716
-4.07159
-4.07158
-4.07156
-4.07158
-4.21698
-4.21698
-4.21698
-4.21698
-4.21697
-4.21697
-4.21697
-4.21697
-4.21697
-4.21696
-4.21696
-4.21695
-4.21695
-4.21694
-4.21693
-4.21693
-4.21692
-4.21692
-4.21691
-4.21691
-4.2169
-4.2169
-4.2169
-4.2169
-4.2169
-4.2169
-4.21691
-4.21691
-4.21691
-4.21691
-4.21692
-4.21694
-4.21695
-4.21693
-4.21693
-4.36221
-4.36221
-4.36221
-4.36221
-4.36221
-4.36221
-4.36221
-4.3622
-4.3622
-4.36219
-4.36219
-4.36218
-4.36218
-4.36217
-4.36216
-4.36216
-4.36215
-4.36214
-4.36213
-4.36213
-4.36212
-4.36211
-4.36211
-4.3621
-4.3621
-4.3621
-4.36209
-4.36209
-4.36208
-4.36208
-4.36209
-4.36209
-4.3621
-4.36212
-4.36215
-4.50745
-4.50746
-4.50745
-4.50745
-4.50745
-4.50745
-4.50745
-4.50745
-4.50744
-4.50744
-4.50743
-4.50742
-4.50742
-4.50741
-4.5074
-4.50739
-4.50739
-4.50738
-4.50737
-4.50736
-4.50735
-4.50734
-4.50734
-4.50733
-4.50732
-4.50732
-4.50731
-4.5073
-4.5073
-4.5073
-4.5073
-4.50729
-4.50729
-4.50724
-4.50727
-4.6527
-4.65271
-4.6527
-4.6527
-4.6527
-4.6527
-4.6527
-4.6527
-4.65269
-4.65269
-4.65268
-4.65268
-4.65267
-4.65266
-4.65265
-4.65264
-4.65264
-4.65263
-4.65262
-4.65261
-4.65261
-4.6526
-4.6526
-4.65259
-4.65259
-4.65259
-4.65258
-4.65258
-4.65258
-4.65258
-4.65258
-4.65258
-4.6526
-4.6526
-4.65261
-4.79793
-4.79795
-4.79794
-4.79794
-4.79794
-4.79794
-4.79794
-4.79794
-4.79793
-4.79793
-4.79792
-4.79792
-4.79791
-4.7979
-4.79789
-4.79789
-4.79788
-4.79787
-4.79786
-4.79786
-4.79785
-4.79784
-4.79784
-4.79784
-4.79783
-4.79783
-4.79783
-4.79782
-4.79781
-4.79781
-4.79782
-4.79782
-4.79781
-4.7978
-4.79782
-4.9432
-4.94321
-4.94321
-4.94321
-4.94321
-4.9432
-4.9432
-4.94319
-4.94319
-4.94318
-4.94317
-4.94317
-4.94316
-4.94315
-4.94314
-4.94313
-4.94312
-4.94311
-4.9431
-4.94309
-4.94309
-4.94308
-4.94307
-4.94307
-4.94306
-4.94306
-4.94306
-4.94305
-4.94304
-4.94305
-4.94306
-4.94305
-4.94305
-4.94302
-4.94304
-5.08845
-5.08846
-5.08845
-5.08845
-5.08845
-5.08845
-5.08844
-5.08844
-5.08843
-5.08843
-5.08842
-5.08841
-5.0884
-5.08839
-5.08838
-5.08837
-5.08836
-5.08835
-5.08834
-5.08833
-5.08832
-5.08832
-5.08831
-5.0883
-5.08829
-5.08829
-5.08828
-5.08828
-5.08827
-5.08827
-5.08827
-5.08827
-5.08827
-5.08825
-5.08826
-5.23367
-5.23368
-5.23367
-5.23366
-5.23366
-5.23366
-5.23366
-5.23366
-5.23366
-5.23365
-5.23365
-5.23364
-5.23363
-5.23362
-5.23361
-5.23361
-5.2336
-5.23359
-5.23358
-5.23357
-5.23357
-5.23356
-5.23355
-5.23355
-5.23354
-5.23354
-5.23354
-5.23353
-5.23353
-5.23353
-5.23354
-5.23353
-5.23354
-5.23351
-5.23352
-5.37892
-5.37893
-5.37891
-5.37891
-5.37891
-5.37891
-5.37891
-5.3789
-5.3789
-5.37889
-5.37888
-5.37888
-5.37887
-5.37886
-5.37885
-5.37885
-5.37884
-5.37884
-5.37883
-5.37883
-5.37882
-5.37882
-5.37882
-5.37882
-5.37883
-5.37883
-5.37883
-5.37883
-5.37882
-5.37883
-5.37883
-5.37884
-5.37885
-5.37883
-5.37886
-5.52412
-5.52413
-5.52412
-5.52412
-5.52412
-5.52412
-5.52412
-5.52412
-5.52411
-5.52411
-5.5241
-5.52409
-5.52409
-5.52408
-5.52407
-5.52406
-5.52405
-5.52405
-5.52404
-5.52404
-5.52403
-5.52403
-5.52403
-5.52402
-5.52403
-5.52403
-5.52403
-5.52402
-5.52401
-5.52401
-5.52402
-5.52403
-5.52404
-5.52403
-5.52406
-5.66931
-5.66933
-5.66932
-5.66932
-5.66932
-5.66932
-5.66932
-5.66932
-5.66931
-5.66931
-5.6693
-5.66929
-5.66928
-5.66928
-5.66927
-5.66926
-5.66925
-5.66924
-5.66923
-5.66922
-5.66921
-5.6692
-5.66919
-5.66919
-5.66918
-5.66917
-5.66917
-5.66916
-5.66915
-5.66915
-5.66916
-5.66915
-5.66914
-5.66914
-5.6692
-5.81456
-5.81458
-5.81457
-5.81456
-5.81456
-5.81456
-5.81456
-5.81455
-5.81455
-5.81454
-5.81453
-5.81452
-5.81451
-5.8145
-5.81449
-5.81448
-5.81446
-5.81445
-5.81444
-5.81443
-5.81442
-5.81441
-5.8144
-5.81439
-5.81439
-5.81438
-5.81438
-5.81437
-5.81436
-5.81436
-5.81437
-5.81437
-5.81437
-5.81433
-5.81433
-5.95977
-5.95978
-5.95977
-5.95977
-5.95977
-5.95977
-5.95977
-5.95976
-5.95976
-5.95975
-5.95974
-5.95973
-5.95972
-5.95971
-5.95969
-5.95968
-5.95967
-5.95966
-5.95965
-5.95964
-5.95963
-5.95962
-5.95961
-5.95961
-5.9596
-5.95959
-5.95959
-5.95958
-5.95957
-5.95957
-5.95957
-5.95957
-5.95958
-5.95958
-5.95962
-6.10498
-6.10499
-6.10497
-6.10497
-6.10496
-6.10495
-6.10495
-6.10494
-6.10494
-6.10493
-6.10492
-6.10491
-6.1049
-6.10489
-6.10487
-6.10486
-6.10485
-6.10484
-6.10483
-6.10482
-6.10481
-6.1048
-6.10479
-6.10478
-6.10477
-6.10477
-6.10476
-6.10475
-6.10475
-6.10476
-6.10477
-6.10478
-6.10477
-6.10474
-6.10477
-6.25016
-6.25017
-6.25015
-6.25015
-6.25015
-6.25014
-6.25014
-6.25014
-6.25013
-6.25012
-6.25012
-6.25011
-6.2501
-6.25009
-6.25008
-6.25007
-6.25006
-6.25005
-6.25004
-6.25003
-6.25002
-6.25001
-6.25001
-6.25
-6.25
-6.25
-6.25
-6.24999
-6.24998
-6.24998
-6.24998
-6.24998
-6.24998
-6.24998
-6.25002
-6.39532
-6.39533
-6.39532
-6.39532
-6.39532
-6.39532
-6.39532
-6.39532
-6.39531
-6.3953
-6.39529
-6.39528
-6.39527
-6.39526
-6.39525
-6.39524
-6.39523
-6.39522
-6.3952
-6.39519
-6.39518
-6.39517
-6.39516
-6.39515
-6.39515
-6.39514
-6.39514
-6.39512
-6.39512
-6.39512
-6.39512
-6.39511
-6.3951
-6.39507
-6.39508
-6.54048
-6.54049
-6.54048
-6.54048
-6.54048
-6.54048
-6.54048
-6.54048
-6.54047
-6.54047
-6.54046
-6.54045
-6.54044
-6.54043
-6.54042
-6.5404
-6.54039
-6.54038
-6.54037
-6.54035
-6.54034
-6.54033
-6.54032
-6.54031
-6.5403
-6.5403
-6.54029
-6.54028
-6.54027
-6.54027
-6.54028
-6.54029
-6.54029
-6.54026
-6.54027
-6.68566
-6.68568
-6.68568
-6.68568
-6.68568
-6.68568
-6.68567
-6.68567
-6.68566
-6.68566
-6.68565
-6.68564
-6.68562
-6.68561
-6.6856
-6.68559
-6.68558
-6.68557
-6.68556
-6.68555
-6.68554
-6.68553
-6.68552
-6.68551
-6.68551
-6.68551
-6.6855
-6.68549
-6.68549
-6.68549
-6.6855
-6.6855
-6.6855
-6.68549
-6.68552
-6.83086
-6.83087
-6.83085
-6.83085
-6.83085
-6.83085
-6.83085
-6.83084
-6.83083
-6.83082
-6.83081
-6.8308
-6.83079
-6.83078
-6.83076
-6.83075
-6.83074
-6.83073
-6.83072
-6.8307
-6.83069
-6.83069
-6.83068
-6.83067
-6.83067
-6.83066
-6.83066
-6.83065
-6.83064
-6.83064
-6.83064
-6.83063
-6.83063
-6.8306
-6.83061
-6.976
-6.97601
-6.97601
-6.97602
-6.97601
-6.97601
-6.976
-6.97599
-6.97599
-6.97598
-6.97596
-6.97595
-6.97594
-6.97592
-6.97591
-6.9759
-6.97588
-6.97587
-6.97586
-6.97584
-6.97583
-6.97582
-6.97581
-6.9758
-6.97579
-6.97579
-6.97578
-6.97577
-6.97577
-6.97578
-6.9758
-6.97581
-6.97583
-6.97577
-6.97578
-7.12115
-7.12117
-7.12115
-7.12114
-7.12114
-7.12114
-7.12114
-7.12113
-7.12112
-7.12111
-7.1211
-7.12109
-7.12108
-7.12106
-7.12105
-7.12104
-7.12103
-7.12102
-7.121
-7.12099
-7.12098
-7.12097
-7.12097
-7.12096
-7.12096
-7.12096
-7.12095
-7.12094
-7.12094
-7.12093
-7.12093
-7.12093
-7.12093
-7.12094
-7.121
-7.26625
-7.26626
-7.26624
-7.26624
-7.26624
-7.26624
-7.26624
-7.26624
-7.26623
-7.26622
-7.26621
-7.2662
-7.26619
-7.26618
-7.26617
-7.26615
-7.26614
-7.26613
-7.26612
-7.26611
-7.2661
-7.26609
-7.26608
-7.26607
-7.26607
-7.26607
-7.26607
-7.26606
-7.26605
-7.26606
-7.26605
-7.26605
-7.26604
-7.26601
-7.26603
-7.41136
-7.41138
-7.41138
-7.41138
-7.41137
-7.41137
-7.41137
-7.41136
-7.41135
-7.41134
-7.41133
-7.41131
-7.4113
-7.41129
-7.41127
-7.41126
-7.41125
-7.41123
-7.41122
-7.41121
-7.4112
-7.41119
-7.41118
-7.41118
-7.41118
-7.41118
-7.41117
-7.41117
-7.41116
-7.41116
-7.41118
-7.41119
-7.4112
-7.41113
-7.41112
-7.55645
-7.55646
-7.55644
-7.55644
-7.55644
-7.55644
-7.55644
-7.55644
-7.55643
-7.55642
-7.55641
-7.55639
-7.55638
-7.55637
-7.55635
-7.55634
-7.55632
-7.55631
-7.5563
-7.55628
-7.55627
-7.55626
-7.55625
-7.55624
-7.55623
-7.55623
-7.55622
-7.55621
-7.55619
-7.5562
-7.5562
-7.5562
-7.5562
-7.55621
-7.55625
-7.70149
-7.70151
-7.70151
-7.7015
-7.7015
-7.70149
-7.70149
-7.70148
-7.70148
-7.70147
-7.70146
-7.70145
-7.70144
-7.70143
-7.70142
-7.7014
-7.70139
-7.70138
-7.70137
-7.70136
-7.70135
-7.70134
-7.70133
-7.70132
-7.70132
-7.70132
-7.70131
-7.7013
-7.70129
-7.7013
-7.7013
-7.7013
-7.70129
-7.70125
-7.70128
-7.84657
-7.84658
-7.84656
-7.84656
-7.84655
-7.84655
-7.84655
-7.84654
-7.84653
-7.84653
-7.84652
-7.8465
-7.84649
-7.84648
-7.84647
-7.84646
-7.84644
-7.84643
-7.84642
-7.84641
-7.8464
-7.8464
-7.84639
-7.84639
-7.84639
-7.84639
-7.84639
-7.84638
-7.84637
-7.84638
-7.84639
-7.8464
-7.84641
-7.8464
-7.8464
-7.99158
-7.9916
-7.99159
-7.99159
-7.99159
-7.99159
-7.99159
-7.99158
-7.99157
-7.99157
-7.99156
-7.99154
-7.99153
-7.99152
-7.99151
-7.99149
-7.99148
-7.99147
-7.99146
-7.99144
-7.99143
-7.99142
-7.99142
-7.99141
-7.9914
-7.9914
-7.9914
-7.99139
-7.99138
-7.99138
-7.99139
-7.99139
-7.99139
-7.99137
-7.99144
-8.13662
-8.13663
-8.13662
-8.13662
-8.13661
-8.13661
-8.13661
-8.1366
-8.1366
-8.13659
-8.13657
-8.13656
-8.13654
-8.13652
-8.13651
-8.13649
-8.13647
-8.13646
-8.13644
-8.13642
-8.13641
-8.13639
-8.13638
-8.13636
-8.13635
-8.13634
-8.13633
-8.13632
-8.1363
-8.1363
-8.1363
-8.1363
-8.1363
-8.13626
-8.13629
-8.28163
-8.28164
-8.28163
-8.28162
-8.28162
-8.28163
-8.28163
-8.28162
-8.28161
-8.28161
-8.28159
-8.28158
-8.28156
-8.28155
-8.28153
-8.28152
-8.2815
-8.28149
-8.28147
-8.28146
-8.28144
-8.28143
-8.28142
-8.28141
-8.2814
-8.28139
-8.28138
-8.28137
-8.28136
-8.28137
-8.28138
-8.28136
-8.28136
-8.28132
-8.28137
-8.42663
-8.42665
-8.42664
-8.42664
-8.42664
-8.42663
-8.42663
-8.42662
-8.42661
-8.4266
-8.42659
-8.42657
-8.42656
-8.42654
-8.42652
-8.4265
-8.42649
-8.42647
-8.42645
-8.42644
-8.42642
-8.42641
-8.4264
-8.42639
-8.42638
-8.42638
-8.42638
-8.42637
-8.42636
-8.42636
-8.42636
-8.42637
-8.42637
-8.42633
-8.42635
-8.57164
-8.57164
-8.57162
-8.57162
-8.57162
-8.57162
-8.57161
-8.57161
-8.5716
-8.57158
-8.57157
-8.57155
-8.57154
-8.57152
-8.5715
-8.57148
-8.57146
-8.57145
-8.57143
-8.57141
-8.5714
-8.57138
-8.57137
-8.57135
-8.57134
-8.57134
-8.57133
-8.57132
-8.57131
-8.57132
-8.57133
-8.57135
-8.57137
-8.57127
-8.5713
-8.71656
-8.71658
-8.71658
-8.71658
-8.71657
-8.71658
-8.71657
-8.71657
-8.71656
-8.71655
-8.71654
-8.71652
-8.71651
-8.71649
-8.71647
-8.71646
-8.71644
-8.71642
-8.71641
-8.7164
-8.71638
-8.71637
-8.71636
-8.71635
-8.71634
-8.71634
-8.71633
-8.71632
-8.71631
-8.71631
-8.71632
-8.7163
-8.7163
-8.71631
-8.71636
-8.86152
-8.86153
-8.86151
-8.86151
-8.86151
-8.86151
-8.8615
-8.8615
-8.86149
-8.86148
-8.86147
-8.86145
-8.86144
-8.86142
-8.86141
-8.86139
-8.86138
-8.86136
-8.86135
-8.86134
-8.86132
-8.86131
-8.8613
-8.86129
-8.86129
-8.86129
-8.86129
-8.86128
-8.86127
-8.86127
-8.86129
-8.86129
-8.86129
-8.86124
-8.86127
-9.00644
-9.00645
-9.00644
-9.00644
-9.00643
-9.00644
-9.00643
-9.00643
-9.00642
-9.00641
-9.0064
-9.00638
-9.00637
-9.00635
-9.00634
-9.00632
-9.00631
-9.00629
-9.00627
-9.00626
-9.00625
-9.00623
-9.00622
-9.00621
-9.0062
-9.0062
-9.0062
-9.00619
-9.00619
-9.0062
-9.0062
-9.00621
-9.00623
-9.00622
-9.0063
-9.15135
-9.15137
-9.15137
-9.15136
-9.15136
-9.15136
-9.15135
-9.15135
-9.15134
-9.15133
-9.15131
-9.1513
-9.15128
-9.15126
-9.15125
-9.15123
-9.15122
-9.1512
-9.15119
-9.15117
-9.15116
-9.15115
-9.15114
-9.15113
-9.15112
-9.15113
-9.15113
-9.15113
-9.15112
-9.15112
-9.15112
-9.15111
-9.15112
-9.1511
-9.1511
-9.29627
-9.29628
-9.29626
-9.29626
-9.29626
-9.29626
-9.29626
-9.29625
-9.29624
-9.29623
-9.29621
-9.29619
-9.29617
-9.29616
-9.29614
-9.29612
-9.2961
-9.29609
-9.29607
-9.29605
-9.29604
-9.29603
-9.29602
-9.29601
-9.296
-9.296
-9.29599
-9.29598
-9.29598
-9.29599
-9.296
-9.296
-9.296
-9.29595
-9.29598
-9.44113
-9.44116
-9.44115
-9.44114
-9.44114
-9.44114
-9.44113
-9.44113
-9.44111
-9.4411
-9.44109
-9.44107
-9.44106
-9.44104
-9.44102
-9.441
-9.44099
-9.44097
-9.44096
-9.44094
-9.44093
-9.44091
-9.4409
-9.44089
-9.44089
-9.44088
-9.44088
-9.44087
-9.44086
-9.44086
-9.44087
-9.44088
-9.44091
-9.44089
-9.44093
-9.58601
-9.58602
-9.58599
-9.58599
-9.58599
-9.58598
-9.58598
-9.58597
-9.58596
-9.58595
-9.58593
-9.58592
-9.5859
-9.58588
-9.58586
-9.58584
-9.58583
-9.58581
-9.58579
-9.58578
-9.58576
-9.58575
-9.58574
-9.58573
-9.58572
-9.58572
-9.58571
-9.5857
-9.58569
-9.5857
-9.5857
-9.5857
-9.58568
-9.58567
-9.58574
-9.7308
-9.73081
-9.73081
-9.73081
-9.7308
-9.7308
-9.7308
-9.73079
-9.73078
-9.73077
-9.73076
-9.73074
-9.73072
-9.73071
-9.73069
-9.73067
-9.73065
-9.73064
-9.73062
-9.7306
-9.73059
-9.73058
-9.73056
-9.73055
-9.73055
-9.73055
-9.73054
-9.73053
-9.73052
-9.73052
-9.73054
-9.73054
-9.73054
-9.73046
-9.73053
-9.87561
-9.87563
-9.87562
-9.87562
-9.87562
-9.87561
-9.87561
-9.87561
-9.8756
-9.87558
-9.87557
-9.87555
-9.87553
-9.87552
-9.8755
-9.87548
-9.87546
-9.87544
-9.87543
-9.87541
-9.87539
-9.87538
-9.87537
-9.87536
-9.87535
-9.87535
-9.87534
-9.87533
-9.87533
-9.87533
-9.87532
-9.87533
-9.87534
-9.87533
-9.87539
-10.0204
-10.0204
-10.0204
-10.0204
-10.0204
-10.0204
-10.0204
-10.0204
-10.0204
-10.0204
-10.0203
-10.0203
-10.0203
-10.0203
-10.0203
-10.0203
-10.0202
-10.0202
-10.0202
-10.0202
-10.0202
-10.0201
-10.0201
-10.0201
-10.0201
-10.0201
-10.0201
-10.0201
-10.0201
-10.0201
-10.0201
-10.0201
-10.0201
-10.02
-10.0201
-10.1652
-10.1652
-10.1652
-10.1652
-10.1652
-10.1652
-10.1652
-10.1652
-10.1652
-10.1651
-10.1651
-10.1651
-10.1651
-10.1651
-10.165
-10.165
-10.165
-10.165
-10.165
-10.1649
-10.1649
-10.1649
-10.1649
-10.1649
-10.1649
-10.1649
-10.1649
-10.1648
-10.1648
-10.1648
-10.1648
-10.1648
-10.1648
-10.1648
-10.1648
-10.31
-10.31
-10.31
-10.31
-10.31
-10.31
-10.3099
-10.3099
-10.3099
-10.3099
-10.3099
-10.3099
-10.3099
-10.3098
-10.3098
-10.3098
-10.3098
-10.3098
-10.3097
-10.3097
-10.3097
-10.3097
-10.3097
-10.3097
-10.3097
-10.3097
-10.3097
-10.3097
-10.3097
-10.3097
-10.3097
-10.3097
-10.3097
-10.3096
-10.3096
-10.4547
-10.4547
-10.4547
-10.4547
-10.4547
-10.4547
-10.4546
-10.4546
-10.4546
-10.4546
-10.4546
-10.4546
-10.4546
-10.4546
-10.4545
-10.4545
-10.4545
-10.4545
-10.4545
-10.4545
-10.4544
-10.4544
-10.4544
-10.4544
-10.4544
-10.4544
-10.4544
-10.4544
-10.4544
-10.4544
-10.4544
-10.4544
-10.4544
-10.4543
-10.4544
-10.5994
-10.5994
-10.5994
-10.5994
-10.5994
-10.5994
-10.5994
-10.5993
-10.5993
-10.5993
-10.5993
-10.5993
-10.5993
-10.5993
-10.5992
-10.5992
-10.5992
-10.5992
-10.5992
-10.5992
-10.5992
-10.5991
-10.5991
-10.5991
-10.5991
-10.5991
-10.5991
-10.5991
-10.5991
-10.5991
-10.5991
-10.5991
-10.5992
-10.5991
-10.5991
-10.744
-10.7441
-10.744
-10.744
-10.744
-10.744
-10.744
-10.744
-10.744
-10.744
-10.744
-10.744
-10.744
-10.7439
-10.7439
-10.7439
-10.7439
-10.7439
-10.7439
-10.7438
-10.7438
-10.7438
-10.7438
-10.7438
-10.7438
-10.7438
-10.7438
-10.7438
-10.7438
-10.7438
-10.7438
-10.7438
-10.7438
-10.7437
-10.7437
-10.8887
-10.8887
-10.8887
-10.8887
-10.8887
-10.8887
-10.8887
-10.8887
-10.8887
-10.8887
-10.8887
-10.8887
-10.8886
-10.8886
-10.8886
-10.8886
-10.8886
-10.8885
-10.8885
-10.8885
-10.8885
-10.8885
-10.8884
-10.8884
-10.8884
-10.8884
-10.8884
-10.8884
-10.8884
-10.8884
-10.8884
-10.8884
-10.8884
-10.8884
-10.8884
-11.0334
-11.0334
-11.0334
-11.0334
-11.0334
-11.0334
-11.0334
-11.0334
-11.0333
-11.0333
-11.0333
-11.0333
-11.0333
-11.0333
-11.0332
-11.0332
-11.0332
-11.0332
-11.0332
-11.0331
-11.0331
-11.0331
-11.0331
-11.0331
-11.0331
-11.033
-11.033
-11.033
-11.033
-11.033
-11.033
-11.033
-11.033
-11.033
-11.0331
-11.178
-11.178
-11.178
-11.178
-11.178
-11.178
-11.178
-11.178
-11.178
-11.178
-11.178
-11.178
-11.1779
-11.1779
-11.1779
-11.1779
-11.1778
-11.1778
-11.1778
-11.1778
-11.1778
-11.1777
-11.1777
-11.1777
-11.1777
-11.1777
-11.1777
-11.1777
-11.1777
-11.1777
-11.1777
-11.1777
-11.1777
-11.1776
-11.1777
-11.3227
-11.3227
-11.3227
-11.3227
-11.3227
-11.3227
-11.3227
-11.3227
-11.3226
-11.3226
-11.3226
-11.3226
-11.3225
-11.3225
-11.3225
-11.3225
-11.3225
-11.3224
-11.3224
-11.3224
-11.3224
-11.3224
-11.3223
-11.3223
-11.3223
-11.3223
-11.3223
-11.3223
-11.3223
-11.3223
-11.3223
-11.3223
-11.3223
-11.3222
-11.3223
-11.4672
-11.4672
-11.4672
-11.4672
-11.4672
-11.4672
-11.4672
-11.4672
-11.4672
-11.4672
-11.4672
-11.4671
-11.4671
-11.4671
-11.4671
-11.4671
-11.467
-11.467
-11.467
-11.467
-11.467
-11.4669
-11.4669
-11.4669
-11.4669
-11.4669
-11.4669
-11.4669
-11.4669
-11.4669
-11.4669
-11.4669
-11.4669
-11.4669
-11.467
-11.6118
-11.6118
-11.6118
-11.6118
-11.6118
-11.6118
-11.6118
-11.6118
-11.6118
-11.6118
-11.6117
-11.6117
-11.6117
-11.6117
-11.6117
-11.6116
-11.6116
-11.6116
-11.6116
-11.6115
-11.6115
-11.6115
-11.6115
-11.6115
-11.6115
-11.6115
-11.6115
-11.6115
-11.6115
-11.6115
-11.6115
-11.6115
-11.6115
-11.6114
-11.6115
-11.7564
-11.7564
-11.7564
-11.7564
-11.7563
-11.7563
-11.7563
-11.7563
-11.7563
-11.7563
-11.7563
-11.7563
-11.7562
-11.7562
-11.7562
-11.7562
-11.7562
-11.7561
-11.7561
-11.7561
-11.7561
-11.7561
-11.756
-11.756
-11.756
-11.756
-11.756
-11.756
-11.756
-11.756
-11.756
-11.756
-11.756
-11.7559
-11.756
-11.9008
-11.9008
-11.9008
-11.9008
-11.9008
-11.9008
-11.9008
-11.9008
-11.9008
-11.9008
-11.9008
-11.9008
-11.9007
-11.9007
-11.9007
-11.9007
-11.9007
-11.9006
-11.9006
-11.9006
-11.9006
-11.9006
-11.9006
-11.9005
-11.9005
-11.9005
-11.9005
-11.9005
-11.9005
-11.9005
-11.9005
-11.9006
-11.9006
-11.9004
-11.9005
-12.0453
-12.0453
-12.0453
-12.0453
-12.0453
-12.0453
-12.0453
-12.0453
-12.0453
-12.0453
-12.0453
-12.0453
-12.0452
-12.0452
-12.0452
-12.0452
-12.0452
-12.0451
-12.0451
-12.0451
-12.0451
-12.0451
-12.0451
-12.045
-12.045
-12.045
-12.045
-12.045
-12.045
-12.045
-12.045
-12.045
-12.045
-12.045
-12.0451
-12.1898
-12.1899
-12.1899
-12.1899
-12.1899
-12.1899
-12.1899
-12.1898
-12.1898
-12.1898
-12.1898
-12.1898
-12.1898
-12.1897
-12.1897
-12.1897
-12.1897
-12.1896
-12.1896
-12.1896
-12.1896
-12.1896
-12.1895
-12.1895
-12.1895
-12.1895
-12.1895
-12.1895
-12.1895
-12.1895
-12.1895
-12.1895
-12.1895
-12.1894
-12.1895
-12.3344
-12.3344
-12.3344
-12.3344
-12.3344
-12.3344
-12.3344
-12.3343
-12.3343
-12.3343
-12.3343
-12.3343
-12.3342
-12.3342
-12.3342
-12.3342
-12.3341
-12.3341
-12.3341
-12.3341
-12.3341
-12.334
-12.334
-12.334
-12.334
-12.334
-12.334
-12.334
-12.334
-12.334
-12.334
-12.334
-12.334
-12.334
-12.3341
-12.4789
-12.4789
-12.4789
-12.4789
-12.4789
-12.4789
-12.4788
-12.4788
-12.4788
-12.4788
-12.4788
-12.4787
-12.4787
-12.4787
-12.4787
-12.4786
-12.4786
-12.4786
-12.4786
-12.4786
-12.4785
-12.4785
-12.4785
-12.4785
-12.4785
-12.4785
-12.4785
-12.4785
-12.4785
-12.4785
-12.4785
-12.4785
-12.4785
-12.4785
-12.4786
-12.6234
-12.6234
-12.6233
-12.6233
-12.6233
-12.6233
-12.6233
-12.6233
-12.6233
-12.6233
-12.6232
-12.6232
-12.6232
-12.6232
-12.6232
-12.6231
-12.6231
-12.6231
-12.6231
-12.623
-12.623
-12.623
-12.623
-12.623
-12.623
-12.623
-12.623
-12.623
-12.623
-12.623
-12.623
-12.623
-12.623
-12.6229
-12.6229
-12.7678
-12.7678
-12.7678
-12.7678
-12.7677
-12.7677
-12.7677
-12.7677
-12.7677
-12.7677
-12.7677
-12.7677
-12.7676
-12.7676
-12.7676
-12.7676
-12.7675
-12.7675
-12.7675
-12.7675
-12.7675
-12.7674
-12.7674
-12.7674
-12.7674
-12.7674
-12.7674
-12.7674
-12.7674
-12.7674
-12.7674
-12.7674
-12.7674
-12.7674
-12.7674
-12.9122
-12.9123
-12.9122
-12.9122
-12.9122
-12.9122
-12.9122
-12.9122
-12.9122
-12.9122
-12.9121
-12.9121
-12.9121
-12.9121
-12.9121
-12.912
-12.912
-12.912
-12.912
-12.9119
-12.9119
-12.9119
-12.9119
-12.9119
-12.9119
-12.9119
-12.9119
-12.9118
-12.9118
-12.9118
-12.9118
-12.9118
-12.9118
-12.9118
-12.9118
-13.0567
-13.0567
-13.0567
-13.0567
-13.0567
-13.0567
-13.0567
-13.0567
-13.0567
-13.0566
-13.0566
-13.0566
-13.0566
-13.0565
-13.0565
-13.0565
-13.0564
-13.0564
-13.0564
-13.0564
-13.0564
-13.0563
-13.0563
-13.0563
-13.0563
-13.0563
-13.0563
-13.0563
-13.0563
-13.0563
-13.0563
-13.0563
-13.0563
-13.0562
-13.0563
-13.2011
-13.2011
-13.2011
-13.2011
-13.2011
-13.2011
-13.2011
-13.2011
-13.2011
-13.2011
-13.201
-13.201
-13.201
-13.201
-13.201
-13.2009
-13.2009
-13.2009
-13.2009
-13.2008
-13.2008
-13.2008
-13.2008
-13.2008
-13.2007
-13.2007
-13.2007
-13.2007
-13.2007
-13.2007
-13.2007
-13.2007
-13.2008
-13.2007
-13.2007
-13.3456
-13.3456
-13.3456
-13.3456
-13.3456
-13.3456
-13.3456
-13.3456
-13.3455
-13.3455
-13.3455
-13.3455
-13.3455
-13.3454
-13.3454
-13.3454
-13.3454
-13.3453
-13.3453
-13.3453
-13.3453
-13.3453
-13.3452
-13.3452
-13.3452
-13.3452
-13.3452
-13.3452
-13.3452
-13.3452
-13.3452
-13.3452
-13.3452
-13.3452
-13.3453
-13.49
-13.4901
-13.4901
-13.4901
-13.4901
-13.4901
-13.49
-13.49
-13.49
-13.49
-13.49
-13.49
-13.4899
-13.4899