/*--------------------------------*- C++ -*----------------------------------*\
  =========                 |
  \\      /  F ield         | OpenFOAM: The Open Source CFD Toolbox
   \\    /   O peration     | Website:  https://openfoam.org
    \\  /    A nd           | Version:  13
     \\/     M anipulation  |
\*---------------------------------------------------------------------------*/
FoamFile
{
    format      ascii;
    class       volScalarField;
    location    "5";
    object      p_rgh;
}
// * * * * * * * * * * * * * * * * * * * * * * * * * * * * * * * * * * * * * //

dimensions      [0 2 -2 0 0 0 0];

internalField   nonuniform List<scalar> 
78750
(
0.0737256
0.0734568
0.0731843
0.0728417
0.0724705
0.0721108
0.0717349
0.0714023
0.0711538
0.0709574
0.0707706
0.0705594
0.0704012
0.0702793
0.0701627
0.0700482
0.0699318
0.0698249
0.0697249
0.0696203
0.06952
0.0694277
0.0693262
0.0691942
0.0690671
0.0689416
0.0687974
0.0686267
0.0684367
0.0681995
0.0679302
0.0676007
0.0672681
0.0668864
0.0664486
0.0739365
0.0733645
0.0727873
0.0721962
0.0716482
0.0712385
0.07093
0.0706611
0.0704257
0.0702376
0.0700766
0.0699585
0.0698732
0.0698015
0.0697347
0.0696684
0.0696003
0.0695294
0.069454
0.0693732
0.0692858
0.069189
0.0690774
0.0689426
0.0687706
0.0685411
0.0682325
0.0678278
0.0673064
0.0666325
0.0657717
0.0647061
0.0634511
0.0620208
0.0604279
0.075105
0.074181
0.0733118
0.0725235
0.0718571
0.0713289
0.0709351
0.0706497
0.0704465
0.0702911
0.0701604
0.0700522
0.0699626
0.0698816
0.0698038
0.0697262
0.0696474
0.0695663
0.0694818
0.0693922
0.0692947
0.0691843
0.069052
0.0688843
0.0686573
0.0683372
0.067893
0.067274
0.066427
0.0652887
0.0638169
0.0619811
0.0597866
0.0572876
0.0545503
0.0765345
0.0752515
0.0740653
0.0730167
0.0721392
0.0714434
0.0709162
0.0705327
0.0702608
0.0700658
0.0699169
0.0698023
0.0697104
0.069633
0.0695648
0.0694995
0.0694341
0.0693668
0.0692958
0.0692184
0.0691305
0.0690247
0.0688887
0.0686997
0.0684245
0.0680255
0.0674527
0.0666278
0.0654681
0.0638909
0.0618148
0.0592078
0.0560897
0.0525378
0.0486707
0.0784622
0.0768162
0.0752959
0.0739548
0.0728346
0.0719457
0.0712726
0.0707845
0.070442
0.070202
0.0700267
0.0698974
0.0697999
0.0697192
0.0696489
0.0695843
0.06952
0.0694537
0.0693829
0.0693046
0.0692131
0.0690989
0.068946
0.0687254
0.0683951
0.0679059
0.067189
0.0661468
0.0646671
0.0626417
0.0599725
0.0566129
0.0525857
0.0479943
0.0430037
0.0804162
0.0784043
0.0765487
0.0749165
0.0735543
0.0724733
0.0716546
0.0710608
0.070645
0.0703577
0.0701547
0.0700097
0.0699043
0.0698224
0.0697523
0.069689
0.069629
0.0695679
0.0695027
0.0694295
0.0693414
0.0692269
0.0690647
0.0688227
0.0684545
0.0678917
0.0670449
0.0657956
0.0640055
0.0615413
0.0582839
0.0541752
0.049243
0.0436135
0.0375108
0.0824587
0.0800814
0.0778891
0.0759617
0.0743538
0.0730773
0.0721105
0.0714101
0.0709212
0.0705856
0.0703521
0.0701885
0.0700724
0.069985
0.0699123
0.0698461
0.0697831
0.0697196
0.0696511
0.0695727
0.0694763
0.0693478
0.0691625
0.0688816
0.0684483
0.0677809
0.0667756
0.0652979
0.0631787
0.0602584
0.0563974
0.051531
0.0456991
0.0390532
0.0318388
0.0845343
0.0817903
0.0792596
0.0770369
0.0751851
0.0737153
0.0726039
0.0717996
0.0712393
0.0708571
0.0705958
0.0704164
0.0702915
0.0701997
0.0701256
0.0700594
0.0699963
0.0699323
0.0698623
0.0697804
0.069677
0.0695356
0.0693277
0.0690084
0.0685124
0.0677453
0.0665872
0.0648819
0.0624354
0.059061
0.0546109
0.0490025
0.0422719
0.0345986
0.0262651
0.0866539
0.0835447
0.0806789
0.078162
0.0760642
0.0744004
0.0731416
0.0722321
0.0715998
0.0711719
0.0708848
0.070693
0.0705641
0.0704737
0.070405
0.0703469
0.0702925
0.0702379
0.0701785
0.0701069
0.0700123
0.0698756
0.0696652
0.069332
0.0688
0.0679603
0.0666735
0.0647611
0.0620081
0.0581952
0.0531573
0.046809
0.0391842
0.0304693
0.0210247
0.0887953
0.0853214
0.0821211
0.0793114
0.0769676
0.0751099
0.0737047
0.0726898
0.071986
0.0715126
0.0711991
0.0709938
0.0708595
0.070769
0.0707036
0.0706515
0.0706048
0.0705581
0.0705066
0.0704431
0.0703551
0.0702215
0.0700077
0.0696585
0.0690885
0.0681769
0.0667657
0.0646485
0.0615869
0.05734
0.0517157
0.0446144
0.0360857
0.0263479
0.0157884
0.0909288
0.0870885
0.0835486
0.0804437
0.0778585
0.0758097
0.0742619
0.0731441
0.0723703
0.0718527
0.0715144
0.071297
0.0711586
0.0710689
0.0710072
0.0709605
0.0709204
0.0708806
0.0708356
0.0707775
0.0706927
0.070558
0.070335
0.0699626
0.0693466
0.0683524
0.0668025
0.06447
0.061091
0.0564017
0.0501868
0.0423488
0.0329252
0.0221683
0.0104932
0.0930824
0.0888761
0.0849999
0.0816015
0.0787721
0.0765304
0.0748375
0.0736152
0.0727707
0.0722079
0.0718426
0.0716104
0.0714649
0.0713726
0.071311
0.0712658
0.0712277
0.07119
0.071146
0.071087
0.0709983
0.0708541
0.0706123
0.0702057
0.0695304
0.0684383
0.0667358
0.0641763
0.060469
0.0553255
0.0485115
0.0399092
0.0295724
0.0177985
0.00502338
0.0952341
0.0906623
0.0864516
0.0827585
0.0796829
0.0772467
0.0754078
0.0740824
0.0731676
0.0725608
0.0721703
0.0719256
0.0717751
0.0716824
0.0716229
0.0715811
0.0715471
0.0715133
0.0714726
0.0714153
0.0713252
0.0711747
0.0709173
0.0704795
0.0697491
0.068566
0.0667194
0.0639397
0.0599114
0.0543209
0.046916
0.0375604
0.0263387
0.0135265
-0.000365311
0.0974336
0.092498
0.0879483
0.0839578
0.0806377
0.0780076
0.0760235
0.074594
0.0736081
0.0729547
0.0725364
0.0722764
0.0721188
0.0720239
0.0719653
0.0719261
0.0718957
0.0718661
0.0718294
0.0717752
0.071686
0.071532
0.0712635
0.0708011
0.0700238
0.0687576
0.0667724
0.0637768
0.0594325
0.0533996
0.0454104
0.035321
0.0232017
0.0093761
-0.00563522
0.0996511
0.0943513
0.0894662
0.085183
0.0816177
0.0787929
0.0766602
0.0751248
0.0740669
0.0733667
0.0729199
0.0726441
0.0724789
0.0723815
0.0723236
0.0722872
0.0722608
0.0722357
0.0722036
0.0721533
0.0720658
0.0719095
0.0716312
0.0711457
0.0703228
0.0689758
0.0668547
0.063644
0.0589819
0.0525065
0.0439213
0.033087
0.0200544
0.00519399
-0.010918
0.101873
0.0962104
0.0909888
0.0864102
0.0825983
0.0795792
0.0772995
0.0756565
0.0745244
0.0737762
0.0732999
0.0730069
0.0728323
0.0727304
0.0726709
0.0726344
0.0726085
0.0725841
0.0725524
0.072501
0.07241
0.0722451
0.0719494
0.0714323
0.0705546
0.0691163
0.0668494
0.0634174
0.0584333
0.0515086
0.0423274
0.030739
0.0168299
0.000946361
-0.01628
0.104085
0.0980529
0.0924913
0.0876196
0.0835633
0.0803508
0.0779273
0.0761809
0.0749774
0.0741823
0.0736769
0.0733671
0.0731836
0.0730775
0.0730165
0.0729802
0.0729552
0.0729318
0.0729005
0.0728482
0.0727536
0.0725802
0.0722675
0.0717186
0.0707852
0.0692544
0.0668413
0.0631876
0.0578811
0.0505118
0.0407449
0.0284107
0.0135928
-0.00331908
-0.0216615
0.106284
0.0998882
0.0939955
0.0888296
0.0845297
0.0811222
0.0785513
0.0767002
0.0754256
0.0745847
0.0740513
0.0737258
0.073534
0.0734243
0.0733626
0.0733269
0.0733033
0.0732814
0.0732513
0.0731991
0.073102
0.0729216
0.0725937
0.0720152
0.0710287
0.0694078
0.0668502
0.0629769
0.0573518
0.0495349
0.0391742
0.026094
0.0103715
-0.00754405
-0.0270059
0.108518
0.101754
0.0955212
0.0900564
0.085508
0.0819055
0.0791854
0.0772278
0.0758798
0.0749906
0.0744266
0.0740823
0.0738796
0.0737637
0.0736985
0.0736608
0.0736357
0.0736122
0.0735799
0.073524
0.0734205
0.0732288
0.0728812
0.0722684
0.0712243
0.0695096
0.0668048
0.0627089
0.0567605
0.0484988
0.0375477
0.0237309
0.00712038
-0.0118345
-0.032399
0.110734
0.103604
0.097032
0.0912725
0.086478
0.082682
0.0798176
0.0777549
0.0763358
0.0753993
0.0748064
0.0744455
0.0742339
0.0741138
0.0740471
0.0740095
0.0739855
0.0739635
0.0739323
0.0738763
0.0737703
0.0735711
0.0732072
0.072564
0.0714661
0.0696613
0.0668117
0.0624941
0.0562225
0.0475108
0.0359658
0.0213836
0.00386803
-0.0161124
-0.0377776
0.112946
0.105454
0.0985481
0.0924948
0.0874561
0.0834624
0.0804495
0.0782795
0.0767861
0.0758015
0.0751778
0.0747983
0.074576
0.07445
0.0743804
0.0743415
0.0743168
0.0742944
0.0742621
0.0742038
0.0740929
0.0738844
0.0735029
0.072828
0.0716752
0.0697789
0.0667847
0.0622483
0.0556573
0.0464993
0.0343583
0.019021
0.000600109
-0.020423
-0.0432235
0.115158
0.107298
0.100054
0.0937047
0.0884202
0.0842356
0.0810767
0.0788011
0.0772345
0.076201
0.0755463
0.0751476
0.0749137
0.074781
0.0747071
0.0746654
0.0746384
0.0746134
0.0745779
0.0745148
0.0743962
0.0741748
0.0737717
0.0730602
0.0718468
0.0698534
0.066709
0.0619476
0.0550326
0.0454259
0.0326967
0.0166398
-0.00265442
-0.0246687
-0.0485617
0.117346
0.109116
0.101534
0.094894
0.0893664
0.0849886
0.0816866
0.0793093
0.0776726
0.076594
0.0759123
0.0754986
0.0752574
0.0751218
0.0750478
0.0750073
0.0749824
0.0749596
0.074926
0.0748638
0.0747438
0.0745163
0.0740986
0.0733587
0.0720941
0.0700139
0.0667282
0.0617491
0.0545162
0.04447
0.0311545
0.0143453
-0.00585385
-0.0289039
-0.0539034
0.119562
0.110973
0.103057
0.0961181
0.0903415
0.0857666
0.0823144
0.079831
0.0781225
0.0769963
0.0762846
0.075853
0.0756013
0.0754599
0.0753827
0.0753404
0.0753142
0.0752902
0.0752549
0.0751895
0.0750635
0.0748254
0.0743888
0.0736155
0.0722943
0.0701213
0.0666898
0.0614901
0.0539356
0.0434365
0.0295171
0.0119343
-0.00917308
-0.0332484
-0.0593522
0.12179
0.11283
0.104572
0.097339
0.0913178
0.0865496
0.0829488
0.0803564
0.0785734
0.0773987
0.0766559
0.0762052
0.0759421
0.0757941
0.0757131
0.0756687
0.075641
0.0756155
0.0755782
0.0755093
0.0753771
0.0751277
0.0746709
0.0738627
0.0724824
0.0702131
0.0666317
0.0612072
0.0533262
0.0423793
0.0278706
0.00956525
-0.0124355
-0.0375452
-0.0647819
0.123985
0.114665
0.106078
0.0985477
0.0922804
0.0873165
0.0835728
0.0808766
0.0790216
0.0777995
0.0770277
0.0765603
0.0762883
0.0761362
0.0760539
0.0760099
0.0759834
0.0759595
0.0759234
0.0758548
0.0757207
0.0754649
0.0749939
0.0741575
0.0727267
0.0703713
0.0666492
0.0610083
0.052812
0.0414249
0.026332
0.00727692
-0.0156126
-0.0417284
-0.070068
0.126183
0.116499
0.107569
0.099742
0.0932301
0.0880719
0.0841827
0.0813833
0.0794574
0.0781899
0.0773904
0.0769069
0.0766263
0.0764699
0.0763861
0.0763417
0.0763156
0.0762921
0.0762558
0.0761857
0.0760475
0.0757828
0.0752943
0.0744263
0.0729405
0.0704939
0.0666271
0.060765
0.0522487
0.0404122
0.0247188
0.00489752
-0.0189121
-0.0460633
-0.0755283
0.128406
0.118352
0.10909
0.100976
0.0942196
0.0888683
0.0848317
0.0819248
0.0799242
0.0786059
0.0777735
0.0772693
0.0769761
0.0768122
0.0767239
0.0766768
0.0766487
0.0766236
0.0765853
0.0765121
0.0763682
0.0760931
0.0755857
0.0746844
0.0731418
0.0706022
0.0665897
0.060507
0.0516668
0.0393842
0.0231014
0.00255559
-0.0221386
-0.0503342
-0.0809128
0.130612
0.120194
0.110595
0.10218
0.0951767
0.0896295
0.0854442
0.0824319
0.0803593
0.0789942
0.0781325
0.0776112
0.0773084
0.0771395
0.0770489
0.077001
0.0769728
0.0769475
0.0769088
0.0768338
0.0766857
0.0764017
0.0758772
0.0749445
0.0733473
0.0707161
0.0665567
0.0602517
0.0510897
0.0383594
0.0214952
0.000202209
-0.0253757
-0.0545747
-0.0862567
0.132799
0.122019
0.112083
0.103373
0.0961256
0.0903842
0.0860513
0.0829329
0.0807883
0.0793763
0.0784852
0.077946
0.0776329
0.0774581
0.0773641
0.077314
0.0772841
0.0772571
0.0772158
0.0771366
0.0769813
0.0766848
0.0761388
0.0751694
0.0735111
0.070782
0.0664697
0.0599355
0.0504436
0.0372644
0.0197941
-0.00227504
-0.0287776
-0.0589924
-0.0917716
0.135024
0.123875
0.113601
0.104593
0.0970965
0.0911626
0.0866842
0.0834606
0.081243
0.0797825
0.0788608
0.0783034
0.0779798
0.0777997
0.0777032
0.0776526
0.0776232
0.077597
0.0775563
0.0774769
0.0773192
0.0770159
0.0764552
0.0754573
0.0737478
0.0709317
0.0664807
0.0597323
0.0499282
0.036303
0.0182426
-0.0045532
-0.0319527
-0.0632359
-0.0971589
0.137231
0.125711
0.1151
0.1058
0.09806
0.0919294
0.0873056
0.0839772
0.0816869
0.0801789
0.0792276
0.0786524
0.0783188
0.0781333
0.0780343
0.0779827
0.0779531
0.0779268
0.0778857
0.0778047
0.0776429
0.0773312
0.0767537
0.0757253
0.0739625
0.0710568
0.0664609
0.0594925
0.0493667
0.0352986
0.0166535
-0.00688438
-0.0351669
-0.0674137
-0.102435
0.139431
0.127547
0.116602
0.107008
0.0990203
0.0926918
0.0879185
0.0844841
0.0821211
0.0805649
0.0795835
0.0789901
0.078646
0.0784546
0.0783523
0.0782988
0.0782678
0.07824
0.0781966
0.0781118
0.0779434
0.0776198
0.0770219
0.0759582
0.0741362
0.0711345
0.0663891
0.0591953
0.0487421
0.0342231
0.0149815
-0.00930954
-0.0385073
-0.0718297
-0.107944
0.141647
0.129397
0.118114
0.108222
0.0999887
0.0934701
0.0885484
0.0850062
0.0825703
0.0809658
0.0799533
0.0793408
0.0789852
0.0787872
0.0786812
0.0786254
0.0785928
0.0785636
0.0785183
0.0784303
0.0782562
0.077922
0.0773048
0.0762073
0.0743283
0.0712345
0.0663449
0.0589323
0.0481613
0.0331984
0.0133625
-0.0116756
-0.0417481
-0.0760796
-0.113317
0.14383
0.131213
0.119591
0.109404
0.100927
0.0942153
0.0891524
0.0855072
0.0830006
0.0813503
0.0803097
0.079681
0.0793166
0.0791141
0.0790062
0.0789498
0.0789172
0.0788881
0.0788424
0.0787529
0.0785747
0.078232
0.077598
0.0764694
0.0745357
0.0713507
0.0663155
0.0586819
0.0475895
0.0321736
0.0117454
-0.0140362
-0.045013
-0.0803526
-0.118697
0.14603
0.133049
0.121093
0.110612
0.10189
0.0949815
0.0897734
0.0860225
0.0834423
0.0817442
0.0806738
0.0800272
0.0796526
0.0794445
0.0793337
0.079276
0.0792428
0.0792135
0.0791673
0.0790761
0.0788937
0.078542
0.0778905
0.0767306
0.0747426
0.0714668
0.0662863
0.0584304
0.0470156
0.0311623
0.0101516
-0.0163841
-0.0482635
-0.0846316
-0.124088
0.148264
0.134921
0.122626
0.111855
0.102885
0.0957783
0.0904178
0.0865603
0.0839058
0.0821578
0.0810548
0.0803877
0.0800005
0.0797849
0.0796694
0.0796086
0.0795731
0.0795415
0.0794924
0.0793969
0.0792075
0.078844
0.0781723
0.0769777
0.0749315
0.071561
0.0662321
0.0581533
0.0464169
0.0301124
0.00850043
-0.0187789
-0.0515623
-0.0889474
-0.129514
0.150461
0.136756
0.124129
0.113057
0.103842
0.0965461
0.091039
0.0870776
0.0843522
0.0825572
0.0814243
0.0807387
0.0803402
0.0801176
0.0799975
0.0799332
0.0798944
0.079859
0.0798052
0.0797031
0.079504
0.0791253
0.0784293
0.0771953
0.0750857
0.071616
0.0661377
0.0578374
0.0457771
0.0290213
0.00681908
-0.0212169
-0.054896
-0.0933204
-0.135013
0.152708
0.138636
0.125671
0.114299
0.104836
0.0973436
0.0916905
0.0876213
0.0848227
0.0829792
0.0818159
0.0811119
0.0807029
0.0804747
0.0803519
0.0802866
0.0802477
0.0802124
0.0801585
0.0800552
0.0798525
0.0794655
0.0787527
0.0774873
0.0753231
0.0717634
0.0661411
0.0576206
0.0452424
0.0280452
0.00524991
-0.023533
-0.0581184
-0.0975773
-0.140379
0.154968
0.140523
0.127214
0.115549
0.105843
0.098158
0.0923589
0.0881832
0.0853105
0.0834183
0.0822242
0.0815018
0.0810825
0.0808489
0.0807239
0.0806583
0.0806202
0.0805864
0.0805338
0.0804312
0.0802275
0.0798357
0.0791106
0.0778197
0.0756072
0.0719615
0.0661977
0.057458
0.0447588
0.0271148
0.00372776
-0.0257846
-0.0612411
-0.101739
-0.145679
0.157168
0.142356
0.128716
0.116763
0.106811
0.0989281
0.0929826
0.0887029
0.0857595
0.0838223
0.0826012
0.0818636
0.0814364
0.0811993
0.0810732
0.0810078
0.0809704
0.0809372
0.0808847
0.0807807
0.0805727
0.0801715
0.0794284
0.0781048
0.075836
0.0720978
0.0661882
0.0572286
0.0442081
0.0261151
0.0021346
-0.0281325
-0.0645042
-0.105979
-0.150976
0.159416
0.14424
0.130265
0.118009
0.10781
0.0997318
0.0936386
0.0892535
0.0862377
0.0842528
0.0830017
0.0822461
0.0818084
0.0815654
0.0814361
0.0813688
0.0813301
0.0812955
0.081241
0.0811336
0.0809195
0.0805073
0.0797446
0.0783872
0.0760617
0.0722318
0.066177
0.0569978
0.0436577
0.0251211
0.000557343
-0.0304637
-0.0677347
-0.11028
-0.156429
0.161654
0.14612
0.131806
0.119265
0.108828
0.100561
0.0943249
0.089835
0.0867456
0.0847114
0.083429
0.0826543
0.0822055
0.0819566
0.0818244
0.0817559
0.0817169
0.0816822
0.0816271
0.081518
0.0812997
0.0808785
0.0800985
0.078709
0.0763277
0.0724052
0.0662041
0.0568011
0.0431336
0.0241406
-0.00102922
-0.0328005
-0.0709583
-0.1145
-0.161745
0.163917
0.148024
0.133376
0.120534
0.109847
0.101382
0.0949967
0.0904009
0.0872386
0.0851559
0.083842
0.0830474
0.0825863
0.0823295
0.0821919
0.0821195
0.0820771
0.0820391
0.0819801
0.0818656
0.0816389
0.0812042
0.0804021
0.0789761
0.0765348
0.0725158
0.0661654
0.0565395
0.0425544
0.0231275
-0.00262074
-0.0351312
-0.0741995
-0.118791
-0.167158
0.166215
0.149947
0.134956
0.121815
0.110878
0.102216
0.0956805
0.0909772
0.0877426
0.0856133
0.0842708
0.0834595
0.082989
0.0827274
0.082588
0.0825154
0.0824736
0.0824364
0.082378
0.082263
0.0820338
0.0815923
0.0807752
0.0793205
0.0768274
0.0727205
0.066227
0.0563822
0.0420758
0.0221993
-0.00414232
-0.0373943
-0.0773423
-0.122929
-0.172384
0.168498
0.151867
0.136544
0.123111
0.111927
0.103069
0.0963858
0.0915762
0.0882668
0.086088
0.084714
0.0838835
0.0834019
0.0831342
0.0829916
0.0829175
0.0828753
0.0828379
0.082779
0.0826624
0.0824292
0.0819791
0.0811451
0.0796589
0.0771107
0.0729125
0.0662745
0.0562087
0.0415788
0.0212519
-0.00569065
-0.0397071
-0.0805658
-0.127179
-0.177739
0.17077
0.153764
0.13809
0.12436
0.112935
0.103886
0.0970586
0.092144
0.0887641
0.0865388
0.0851354
0.0842872
0.083795
0.0835212
0.0833749
0.0832983
0.0832538
0.083214
0.0831519
0.0830304
0.0827892
0.0823261
0.0814703
0.0799481
0.0773405
0.0730461
0.0662583
0.0559674
0.0410167
0.0202424
-0.00729218
-0.0420432
-0.0838025
-0.131458
-0.183152
0.173025
0.155657
0.139665
0.125642
0.113969
0.104726
0.0977532
0.0927338
0.0892823
0.0870102
0.0855777
0.084712
0.0842101
0.083931
0.0837822
0.0837045
0.0836598
0.0836197
0.0835567
0.0834332
0.0831873
0.0827144
0.08184
0.0802845
0.0776202
0.0732338
0.0663011
0.0557908
0.0405174
0.0193041
-0.00880748
-0.0443057
-0.0869618
-0.135622
-0.188408
0.175337
0.157602
0.141253
0.12693
0.115015
0.105579
0.0984617
0.0933388
0.0898149
0.0874957
0.0860343
0.085152
0.084641
0.0843575
0.0842069
0.0841288
0.0840842
0.0840444
0.0839812
0.0838562
0.0836064
0.0831251
0.0822343
0.0806483
0.0779303
0.0734539
0.0663774
0.0556467
0.0400489
0.0183736
-0.0103535
-0.0466179
-0.0901835
-0.13984
-0.193734
0.177629
0.159531
0.142864
0.128255
0.116093
0.10646
0.0991924
0.0939619
0.0903649
0.0879972
0.0865044
0.0856023
0.0850792
0.0847884
0.0846332
0.0845519
0.0845047
0.0844623
0.0843959
0.0842663
0.0840093
0.0835159
0.0826044
0.0809831
0.078206
0.0736335
0.0664069
0.0554517
0.0395368
0.0174303
-0.0118719
-0.0488642
-0.0933142
-0.144064
-0.199122
0.179985
0.161522
0.14452
0.129609
0.117196
0.107367
0.0999509
0.0946135
0.0909422
0.0885248
0.0870005
0.0860793
0.0855451
0.085248
0.0850894
0.0850063
0.0849581
0.0849147
0.0848471
0.0847148
0.0844524
0.0839485
0.0830177
0.0813625
0.0785281
0.0738631
0.0664912
0.0553172
0.039079
0.0165162
-0.0133733
-0.0511113
-0.0964537
-0.148189
-0.204313
0.182323
0.163491
0.146133
0.130927
0.118272
0.108252
0.100693
0.0952524
0.091511
0.0890483
0.0874961
0.0865584
0.0860149
0.0857128
0.0855516
0.0854673
0.0854182
0.0853741
0.085305
0.0851701
0.0849025
0.0843888
0.08344
0.0817523
0.0788617
0.0741037
0.0665845
0.055185
0.0386227
0.0156184
-0.0148799
-0.0533863
-0.0996407
-0.152361
-0.209568
0.184682
0.165494
0.147816
0.132315
0.119413
0.109193
0.101483
0.0959342
0.0921186
0.0896076
0.0880249
0.0870686
0.0865141
0.0862061
0.086042
0.0859564
0.085907
0.0858629
0.0857936
0.0856575
0.0853865
0.0848649
0.0839003
0.0821832
0.0792408
0.0743951
0.066736
0.0551228
0.0382455
0.0147937
-0.0162888
-0.0555258
-0.102669
-0.156498
-0.214868
0.187092
0.167528
0.149499
0.133708
0.120563
0.110153
0.1023
0.0966468
0.092757
0.0901955
0.0885794
0.0876016
0.0870338
0.0867173
0.0865477
0.0864583
0.0864058
0.0863588
0.0862861
0.0861452
0.0858666
0.0853326
0.0843467
0.0825937
0.0795916
0.0746497
0.0668416
0.0550059
0.037805
0.0139024
-0.0177672
-0.0577513
-0.10579
-0.160587
-0.220055
0.189469
0.169546
0.151195
0.135105
0.121714
0.111108
0.103107
0.0973493
0.0933876
0.0907784
0.0891323
0.0881367
0.0875587
0.0872365
0.0870638
0.0869724
0.0869187
0.0868703
0.0867956
0.0866513
0.0863664
0.0858209
0.0848147
0.0830263
0.079965
0.0749271
0.0669691
0.0549066
0.0373785
0.0130291
-0.0192419
-0.0599832
-0.108936
-0.164795
-0.225347
0.191905
0.171609
0.152913
0.136525
0.122887
0.112084
0.103933
0.098067
0.0940325
0.0913764
0.0897009
0.0886875
0.0880991
0.0877713
0.0875957
0.0875032
0.0874491
0.0874007
0.0873258
0.08718
0.0868915
0.086338
0.0853158
0.0834975
0.0803833
0.0752568
0.0671547
0.0548707
0.0370245
0.0122376
-0.0206219
-0.0621075
-0.111942
-0.16882
-0.230543
0.194316
0.173663
0.154629
0.137949
0.124066
0.113071
0.104775
0.0988041
0.0946972
0.0919951
0.0902926
0.0892643
0.0886688
0.0883387
0.0881637
0.0880735
0.0880227
0.0879779
0.0879063
0.0877629
0.0874746
0.0869169
0.0858826
0.0840386
0.0808759
0.0756641
0.0674219
0.0549231
0.03676
0.0115243
-0.0219174
-0.0641424
-0.114878
-0.172762
-0.235558
0.196755
0.175742
0.156371
0.139395
0.125263
0.11407
0.105625
0.0995464
0.0953659
0.0926139
0.0908792
0.089831
0.0892233
0.0888858
0.0887062
0.0886129
0.0885595
0.088512
0.088437
0.0882889
0.0879931
0.087423
0.0863677
0.0844884
0.0812667
0.0759601
0.0675714
0.0548499
0.036362
0.0106715
-0.0233741
-0.0663388
-0.11797
-0.176877
-0.240805
0.199203
0.177815
0.158102
0.140831
0.126457
0.115077
0.10649
0.100308
0.0960569
0.0932578
0.0914938
0.0904284
0.0898115
0.0894696
0.0892882
0.0891945
0.0891413
0.0890939
0.0890184
0.0888681
0.0885673
0.0879871
0.0869125
0.0849986
0.081718
0.0763156
0.0677763
0.054829
0.0360158
0.00988664
-0.02474
-0.0684722
-0.121006
-0.180938
-0.245948
0.201646
0.179904
0.159867
0.1423
0.127681
0.116103
0.107368
0.101081
0.0967573
0.093912
0.0921193
0.091037
0.0904105
0.0900634
0.0898797
0.089785
0.0897314
0.0896839
0.0896079
0.0894561
0.0891514
0.0885628
0.0874718
0.0855278
0.0821941
0.0767022
0.0680196
0.0548544
0.0357198
0.00913678
-0.0260945
-0.0705861
-0.124035
-0.184932
-0.251065
0.204176
0.18205
0.16166
0.143801
0.128933
0.117157
0.108272
0.101877
0.0974783
0.0945835
0.0927592
0.0916573
0.0910188
0.0906643
0.0904756
0.0903773
0.0903207
0.0902701
0.0901903
0.0900334
0.0897208
0.0891193
0.088007
0.0860274
0.0826347
0.0770479
0.0682172
0.0548292
0.0353791
0.00835306
-0.0274641
-0.0726625
-0.126992
-0.189024
-0.256291
0.206665
0.184184
0.163474
0.145317
0.130204
0.118234
0.109207
0.10271
0.0982396
0.0952956
0.0934384
0.0923156
0.0916642
0.0913019
0.0911085
0.0910073
0.0909486
0.0908961
0.0908141
0.0906536
0.0903349
0.0897222
0.0885899
0.0865749
0.0831228
0.0774402
0.0684618
0.0548499
0.03507
0.00759974
-0.0288151
-0.0747838
-0.130004
-0.193009
-0.261359
0.2092
0.18635
0.165295
0.146845
0.131486
0.119321
0.110142
0.103536
0.0989936
0.0960025
0.0941159
0.0929755
0.0923141
0.0919462
0.0917499
0.0916472
0.0915879
0.0915351
0.0914524
0.0912901
0.0909674
0.0903466
0.0891984
0.0871542
0.0836497
0.0778767
0.0687495
0.0549128
0.0348088
0.00688362
-0.0301136
-0.0768349
-0.132974
-0.197041
-0.26656
0.211739
0.188514
0.167114
0.14837
0.132768
0.120413
0.111089
0.10438
0.099764
0.0967259
0.0948107
0.0936527
0.0929809
0.0926072
0.0924076
0.092303
0.0922425
0.0921883
0.0921036
0.0919378
0.0916088
0.0909766
0.0898079
0.0877283
0.0841646
0.0782961
0.0690193
0.0549572
0.0345369
0.00617575
-0.0314169
-0.0788676
-0.135894
-0.200968
-0.271524
0.214269
0.19069
0.168969
0.149923
0.134072
0.121521
0.112052
0.105236
0.100548
0.0974635
0.0955196
0.0943456
0.0936654
0.0932881
0.0930874
0.0929831
0.0929232
0.0928698
0.0927851
0.0926178
0.0922844
0.091643
0.0904567
0.088345
0.0847262
0.0787682
0.0693524
0.0550771
0.0343302
0.00551054
-0.0326734
-0.0808827
-0.138802
-0.204873
-0.276564
0.216856
0.192896
0.170825
0.151494
0.135401
0.122654
0.113039
0.106119
0.101359
0.0982252
0.0962498
0.095056
0.0943637
0.093979
0.0937739
0.0936666
0.0936046
0.0935491
0.093462
0.0932914
0.0929524
0.0923009
0.0910966
0.0889531
0.085279
0.0792282
0.0696653
0.0551662
0.0341053
0.00484735
-0.0339338
-0.0828973
-0.141741
-0.208868
-0.281683
0.219424
0.195121
0.172733
0.153102
0.136763
0.123821
0.114059
0.107032
0.102199
0.0990187
0.0970139
0.0958027
0.0951007
0.0947108
0.0945033
0.0943951
0.0943328
0.0942771
0.0941893
0.0940165
0.0936727
0.0930114
0.0917883
0.0896113
0.0858808
0.0797389
0.0700318
0.0553155
0.03393
0.00422244
-0.0351443
-0.0848432
-0.14454
-0.212699
-0.286657
0.222084
0.197416
0.174669
0.154738
0.138152
0.125015
0.115102
0.107969
0.103063
0.0998332
0.097797
0.0965665
0.095853
0.0954566
0.0952454
0.0951352
0.0950717
0.0950149
0.0949254
0.0947499
0.0944007
0.093729
0.0924871
0.0902769
0.0864895
0.0802543
0.0704004
0.0554628
0.0337621
0.00360679
-0.0363651
-0.0868097
-0.147425
-0.216546
-0.291602
0.224727
0.19968
0.176601
0.156379
0.139545
0.126215
0.116156
0.108915
0.103936
0.10066
0.0985938
0.0973455
0.0966219
0.09622
0.096006
0.0958944
0.0958303
0.095773
0.0956828
0.0955051
0.0951512
0.0944702
0.0932109
0.0909689
0.087126
0.0807985
0.0707988
0.0556403
0.033609
0.00301331
-0.0375301
-0.088732
-0.150253
-0.220466
-0.296629
0.227406
0.201997
0.178583
0.158059
0.140975
0.127446
0.117244
0.1099
0.104849
0.101524
0.0994269
0.0981604
0.0974264
0.097019
0.0968025
0.0966904
0.0966269
0.0965708
0.0964817
0.0963046
0.0959491
0.0952623
0.0939891
0.0917192
0.0878253
0.0814106
0.0712682
0.0558849
0.0335412
0.0024965
-0.0386518
-0.0905939
-0.153008
-0.224226
-0.301454
0.230068
0.204286
0.180522
0.159705
0.142382
0.12866
0.118309
0.110862
0.105741
0.102371
0.100248
0.0989652
0.0982226
0.0978109
0.0975926
0.0974798
0.0974159
0.0973592
0.0972688
0.0970887
0.0967276
0.0960302
0.094738
0.0924352
0.0884854
0.0819779
0.0716903
0.0560909
0.0334205
0.00193093
-0.0398038
-0.0924931
-0.155799
-0.228015
-0.306411
0.232703
0.20656
0.182477
0.161377
0.143818
0.12991
0.119415
0.111861
0.106667
0.103249
0.101094
0.0997917
0.0990369
0.0986175
0.0983941
0.0982775
0.0982099
0.0981493
0.0980541
0.0978673
0.0974963
0.0967838
0.0954672
0.0931247
0.0891116
0.0825044
0.072064
0.0562401
0.0332443
0.00130081
-0.0410251
-0.0944609
-0.158653
-0.231912
-0.311381
0.235442
0.208953
0.184549
0.163148
0.145333
0.131225
0.120581
0.112919
0.107648
0.104179
0.10199
0.100667
0.0998993
0.099472
0.0992435
0.0991237
0.099054
0.0989915
0.0988941
0.0987042
0.0983278
0.0976051
0.0962699
0.0938945
0.0898245
0.0831262
0.0725414
0.0564916
0.0331807
0.00079942
-0.0421289
-0.0963185
-0.161422
-0.235681
-0.316257
0.238234
0.211374
0.186604
0.164896
0.146831
0.132526
0.121737
0.113974
0.108632
0.105113
0.102892
0.101549
0.100769
0.100335
0.100102
0.0999788
0.0999063
0.0998411
0.0997406
0.099546
0.0991623
0.0984276
0.0970722
0.0946623
0.0905348
0.0837418
0.0730097
0.0567414
0.0331031
0.000257462
-0.0432575
-0.098199
-0.164204
-0.239526
-0.321187
0.240997
0.213768
0.18867
0.166677
0.148367
0.133864
0.122921
0.115046
0.109633
0.106068
0.103819
0.10246
0.101671
0.101232
0.100997
0.100873
0.100801
0.100737
0.100637
0.100442
0.100055
0.099312
0.0979397
0.0954986
0.0913167
0.0844335
0.0735564
0.0570686
0.0331078
-0.000165267
-0.0442615
-0.0999416
-0.166851
-0.243131
-0.325943
0.243772
0.216157
0.190709
0.168419
0.149868
0.135179
0.124097
0.11612
0.110634
0.107023
0.104746
0.10337
0.102572
0.102128
0.101892
0.101769
0.101699
0.101636
0.101537
0.101343
0.100954
0.100205
0.0988194
0.0963509
0.0921189
0.085149
0.0741306
0.0574203
0.0331479
-0.000571886
-0.0452774
-0.101707
-0.169501
-0.246865
-0.330784
0.246558
0.218591
0.192829
0.17024
0.15144
0.136554
0.125323
0.117239
0.11168
0.10802
0.105713
0.104318
0.103509
0.10306
0.102821
0.102697
0.102626
0.102563
0.102464
0.102267
0.101874
0.101116
0.0997127
0.0972126
0.0929251
0.085862
0.0746969
0.0577682
0.0331691
-0.00101059
-0.0462944
-0.103469
-0.172174
-0.250592
-0.335685
0.249372
0.221026
0.194909
0.172034
0.152991
0.137908
0.126529
0.118342
0.112709
0.109003
0.106666
0.105254
0.104436
0.103982
0.10374
0.103615
0.103543
0.103479
0.103378
0.103178
0.102778
0.102009
0.100586
0.0980505
0.0937038
0.0865446
0.0752293
0.0580766
0.0331554
-0.0014551
-0.0473287
-0.105261
-0.174864
-0.254256
-0.340372
0.252154
0.223448
0.197007
0.173831
0.154548
0.139272
0.127752
0.119462
0.113763
0.110013
0.10765
0.106223
0.105397
0.10494
0.104697
0.104572
0.104501
0.104438
0.104336
0.104135
0.103731
0.102952
0.10151
0.0989415
0.0945374
0.0872848
0.0758225
0.058447
0.0332041
-0.00186698
-0.0483529
-0.10702
-0.177515
-0.257905
-0.345169
0.255069
0.226009
0.199232
0.175762
0.156221
0.140746
0.12907
0.120668
0.114891
0.111087
0.108689
0.107241
0.106401
0.105934
0.105686
0.105557
0.105482
0.105416
0.105312
0.105106
0.104696
0.103906
0.102446
0.099845
0.0953864
0.0880441
0.0764395
0.058843
0.0332751
-0.00224194
-0.0493005
-0.10872
-0.180099
-0.2616
-0.35
0.257948
0.228513
0.201382
0.17761
0.157828
0.142164
0.130346
0.121841
0.115992
0.112145
0.10972
0.108255
0.107406
0.106935
0.106684
0.106554
0.106479
0.106412
0.106306
0.106097
0.105682
0.104881
0.103401
0.100766
0.0962495
0.0888119
0.0770582
0.059241
0.0333524
-0.0026017
-0.0502581
-0.110431
-0.182723
-0.265184
-0.354688
0.260804
0.231009
0.20357
0.179519
0.159502
0.143645
0.131679
0.123069
0.117147
0.113249
0.110792
0.109307
0.108446
0.107968
0.107713
0.10758
0.107502
0.107433
0.107325
0.107113
0.10669
0.105878
0.104378
0.101709
0.0971345
0.0896028
0.0777014
0.0596608
0.033452
-0.00295303
-0.051198
-0.112106
-0.185294
-0.268772
-0.359354
0.263826
0.233662
0.205868
0.181514
0.161238
0.145178
0.133064
0.124342
0.118344
0.114395
0.111905
0.1104
0.109526
0.109039
0.108779
0.108643
0.108563
0.108492
0.108381
0.108166
0.107737
0.106915
0.105397
0.102695
0.0980642
0.0904388
0.0783862
0.0601219
0.0335873
-0.00326944
-0.052111
-0.113781
-0.187871
-0.272318
-0.364024
0.266783
0.236244
0.208114
0.183458
0.162933
0.146674
0.134411
0.125587
0.119518
0.115522
0.113002
0.111477
0.110593
0.110101
0.109839
0.109701
0.109622
0.109551
0.10944
0.109223
0.108791
0.107961
0.106426
0.103694
0.0990112
0.0912987
0.0791088
0.060627
0.0337769
-0.00351987
-0.0529497
-0.115353
-0.190339
-0.275951
-0.368789
0.269713
0.2388
0.210316
0.185359
0.164596
0.148156
0.135752
0.126824
0.120684
0.116643
0.114096
0.112558
0.111666
0.111172
0.110908
0.110772
0.110693
0.110622
0.110511
0.110294
0.109859
0.10902
0.107469
0.104706
0.0999688
0.0921648
0.0798288
0.0611254
0.0339574
-0.00378607
-0.0538169
-0.116978
-0.192856
-0.279401
-0.373356
0.272633
0.241355
0.212546
0.187313
0.16631
0.149673
0.137123
0.128091
0.12188
0.117792
0.115216
0.113659
0.112757
0.112256
0.111989
0.11185
0.11177
0.111698
0.111586
0.111365
0.110925
0.110077
0.108507
0.10571
0.100914
0.0930143
0.0805281
0.061601
0.0341056