/*--------------------------------*- C++ -*----------------------------------*\
  =========                 |
  \\      /  F ield         | OpenFOAM: The Open Source CFD Toolbox
   \\    /   O peration     | Website:  https://openfoam.org
    \\  /    A nd           | Version:  13
     \\/     M anipulation  |
\*---------------------------------------------------------------------------*/
FoamFile
{
    format      ascii;
    class       surfaceScalarField;
    location    "5";
    object      phi;
}
// * * * * * * * * * * * * * * * * * * * * * * * * * * * * * * * * * * * * * //

dimensions      [0 3 -1 0 0 0 0];

internalField   nonuniform List<scalar> 
228225
(
3.89725e-06
-1.24007e-06
8.39121e-08
6.67985e-06
-2.93021e-06
1.51548e-07
9.88914e-06
-3.38783e-06
1.8213e-07
1.30825e-05
-3.34128e-06
1.51762e-07
1.57876e-05
-2.7992e-06
9.84622e-08
1.77659e-05
-2.02199e-06
4.73832e-08
1.90639e-05
-1.30924e-06
1.47821e-08
1.98718e-05
-8.02284e-07
-1.49866e-09
2.02936e-05
-3.87695e-07
-2.92988e-08
2.03803e-05
-1.64819e-08
-6.61257e-08
2.0313e-05
1.67042e-07
-9.68291e-08
2.01496e-05
2.74091e-07
-1.0685e-07
1.99211e-05
3.28487e-07
-9.52231e-08
1.96787e-05
3.28476e-07
-8.10103e-08
1.94521e-05
3.03509e-07
-7.17351e-08
1.92546e-05
2.69316e-07
-6.66265e-08
1.90873e-05
2.27511e-07
-5.50737e-08
1.89476e-05
1.83621e-07
-3.88348e-08
1.88453e-05
1.33763e-07
-2.67456e-08
1.87764e-05
8.82957e-08
-1.48845e-08
1.8731e-05
5.08956e-08
-2.59711e-10
1.86962e-05
2.28949e-08
1.63459e-08
1.86727e-05
-3.85443e-09
3.00931e-08
1.86494e-05
-1.97136e-08
4.58468e-08
1.85966e-05
-8.91503e-09
6.46977e-08
1.84844e-05
3.18474e-08
8.30922e-08
1.82764e-05
1.10306e-07
1.00039e-07
1.79029e-05
2.5981e-07
1.15949e-07
1.72956e-05
4.79024e-07
1.30359e-07
1.62977e-05
8.56574e-07
1.43484e-07
1.47607e-05
1.38081e-06
1.58336e-07
1.22853e-05
2.30577e-06
1.71432e-07
8.83511e-06
3.27705e-06
1.75563e-07
4.23913e-06
4.42449e-06
1.7505e-07
4.13156e-06
1.07804e-07
1.34616e-06
-2.67522e-06
8.87939e-08
3.43125e-06
-5.1288e-06
1.13495e-07
5.10253e-06
-5.16698e-06
1.08078e-07
6.23786e-06
-4.58857e-06
1.12509e-07
6.90972e-06
-3.59338e-06
1.2364e-07
7.16503e-06
-2.41018e-06
1.34923e-07
7.00325e-06
-1.28064e-06
1.35222e-07
6.67114e-06
-5.89243e-07
1.20698e-07
6.4711e-06
-2.91257e-07
1.04948e-07
6.51802e-06
-1.52488e-07
9.03609e-08
6.68916e-06
-8.03523e-08
7.78802e-08
6.93397e-06
-3.82345e-08
6.96496e-08
7.22402e-06
-2.72076e-08
6.82001e-08
7.52277e-06
-3.62276e-08
6.87981e-08
7.81778e-06
-5.76214e-08
6.91808e-08
8.10506e-06
-8.55041e-08
7.07277e-08
8.37988e-06
-1.17517e-07
7.34888e-08
8.64081e-06
-1.51382e-07
7.7374e-08
8.88162e-06
-1.85909e-07
8.21803e-08
9.10539e-06
-2.19973e-07
8.78458e-08
9.31726e-06
-2.51994e-07
9.43174e-08
9.52239e-06
-2.80491e-07
1.01465e-07
9.71527e-06
-3.02714e-07
1.09186e-07
9.89463e-06
-3.13233e-07
1.1722e-07
1.00637e-05
-2.99898e-07
1.24672e-07
1.02146e-05
-2.47352e-07
1.30921e-07
1.03161e-05
-1.2498e-07
1.36489e-07
1.03343e-05
1.02855e-07
1.42152e-07
1.02284e-05
4.39673e-07
1.50187e-07
9.8403e-06
1.08847e-06
1.62398e-07
8.98317e-06
2.06625e-06
1.7849e-07
7.52508e-06
3.5768e-06
1.93998e-07
5.14028e-06
5.46664e-06
2.02918e-07
2.1474e-06
7.23695e-06
1.88676e-07
6.16154e-06
1.17526e-07
4.48543e-07
-3.18079e-06
7.0218e-08
9.82905e-07
-5.73309e-06
7.92835e-08
1.4759e-06
-5.72768e-06
7.64789e-08
1.82442e-06
-5.00766e-06
8.02734e-08
2.08422e-06
-3.92422e-06
8.24123e-08
2.36366e-06
-2.7602e-06
8.32835e-08
2.72585e-06
-1.70969e-06
7.86292e-08
3.04271e-06
-9.63609e-07
6.60158e-08
3.31748e-06
-6.12725e-07
5.24971e-08
3.5958e-06
-4.68184e-07
4.21801e-08
3.88335e-06
-3.98886e-07
3.58796e-08
4.17871e-06
-3.60976e-07
3.25428e-08
4.47035e-06
-3.4511e-07
3.15042e-08
4.74934e-06
-3.42147e-07
3.21091e-08
5.01195e-06
-3.49229e-07
3.40366e-08
5.25664e-06
-3.62569e-07
3.72205e-08
5.48258e-06
-3.80274e-07
4.1424e-08
5.69021e-06
-4.01155e-07
4.64574e-08
5.88054e-06
-4.24373e-07
5.21694e-08
6.05488e-06
-4.49037e-07
5.84569e-08
6.215e-06
-4.73965e-07
6.52694e-08
6.36207e-06
-4.97044e-07
7.2605e-08
6.49596e-06
-5.14281e-07
8.05147e-08
6.61496e-06
-5.19012e-07
8.91097e-08
6.71952e-06
-5.00959e-07
9.83556e-08
6.80964e-06
-4.44142e-07
1.08405e-07
6.87171e-06
-3.05696e-07
1.20349e-07
6.85701e-06
-1.5511e-08
1.34938e-07
6.7624e-06
3.83967e-07
1.53063e-07
6.45493e-06
1.22397e-06
1.7522e-07
5.79886e-06
2.53076e-06
1.94631e-07
4.64709e-06
4.52125e-06
2.10042e-07
2.98054e-06
6.92145e-06
2.14462e-07
1.09474e-06
8.92964e-06
1.96467e-07
7.14096e-06
1.15511e-07
2.69266e-07
-3.46836e-06
3.05851e-08
6.13925e-07
-6.09797e-06
2.8976e-08
9.55713e-07
-6.08784e-06
2.64536e-08
1.29021e-06
-5.3601e-06
2.69704e-08
1.60932e-06
-4.26439e-06
3.17973e-08
1.93238e-06
-3.10829e-06
3.73591e-08
2.27273e-06
-2.07755e-06
3.98165e-08
2.59566e-06
-1.31351e-06
3.64531e-08
2.86067e-06
-9.01031e-07
2.9589e-08
3.10008e-06
-7.26223e-07
2.33765e-08
3.32765e-06
-6.41484e-07
1.92104e-08
3.54875e-06
-5.95327e-07
1.71362e-08
3.76428e-06
-5.73626e-07
1.6846e-08
3.9738e-06
-5.66111e-07
1.82847e-08
4.17456e-06
-5.67153e-07
2.08738e-08
4.36571e-06
-5.74574e-07
2.44288e-08
4.54639e-06
-5.86291e-07
2.87863e-08
4.7158e-06
-6.01107e-07
3.38423e-08
4.87328e-06
-6.18169e-07
3.94975e-08
5.01832e-06
-6.36713e-07
4.56797e-08
5.15048e-06
-6.55526e-07
5.23555e-08
5.26902e-06
-6.72179e-07
5.94972e-08
5.37255e-06
-6.82261e-07
6.70941e-08
5.45907e-06
-6.78401e-07
7.51632e-08
5.52813e-06
-6.51657e-07
8.39012e-08
5.57343e-06
-5.80827e-07
9.39693e-08
5.59544e-06
-4.31026e-07
1.06413e-07
5.54919e-06
-8.8199e-08
1.22982e-07
5.37556e-06
4.20847e-07
1.42746e-07
5.05952e-06
1.38105e-06
1.66488e-07
4.39396e-06
3.01077e-06
1.92747e-07
3.33486e-06
5.36944e-06
2.16701e-07
1.93957e-06
8.09518e-06
2.27289e-07
5.7841e-07
1.00901e-05
2.07401e-07
7.60807e-06
1.11456e-07
1.70301e-07
-3.63683e-06
1.7618e-08
4.50529e-07
-6.37325e-06
8.38421e-09
7.30987e-07
-6.35793e-06
1.80178e-09
9.78496e-07
-5.59662e-06
1.94601e-09
1.20724e-06
-4.48388e-06
5.2335e-09
1.43262e-06
-3.32719e-06
9.3746e-09
1.6686e-06
-2.31032e-06
1.23204e-08
1.9056e-06
-1.55092e-06
1.24785e-08
2.11875e-06
-1.11651e-06
1.02774e-08
2.31465e-06
-9.24105e-07
7.78512e-09
2.5027e-06
-8.30581e-07
6.14717e-09
2.68569e-06
-7.79483e-07
5.83127e-09
2.86254e-06
-7.52808e-07
6.6001e-09
3.03377e-06
-7.41525e-07
8.28191e-09
3.19916e-06
-7.39665e-07
1.10703e-08
3.35717e-06
-7.4346e-07
1.46024e-08
3.50697e-06
-7.5138e-07
1.87762e-08
3.6482e-06
-7.62548e-07
2.34878e-08
3.78082e-06
-7.7635e-07
2.86179e-08
3.90493e-06
-7.92097e-07
3.41218e-08
4.02035e-06
-8.08195e-07
3.99389e-08
4.12617e-06
-8.21525e-07
4.6061e-08
4.22021e-06
-8.26676e-07
5.26049e-08
4.3009e-06
-8.16848e-07
5.96275e-08
4.36561e-06
-7.8195e-07
6.72984e-08
4.41339e-06
-7.03036e-07
7.62925e-08
4.44084e-06
-5.43358e-07
8.71666e-08
4.40491e-06
-1.51592e-07
1.02204e-07
4.23645e-06
4.71514e-07
1.2176e-07
3.89014e-06
1.58636e-06
1.459e-07
3.21653e-06
3.5135e-06
1.75562e-07
2.25671e-06
6.12637e-06
2.06588e-07
1.21187e-06
8.91806e-06
2.26033e-07
3.44177e-07
1.07518e-05
2.10981e-07
7.84768e-06
1.04767e-07
1.30491e-07
-3.74965e-06
6.60508e-09
3.25131e-07
-6.54764e-06
-4.20533e-09
5.28787e-07
-6.53765e-06
-9.64269e-09
7.3732e-07
-5.7796e-06
-1.05584e-08
9.51855e-07
-4.67343e-06
-8.3785e-09
1.17413e-06
-3.52664e-06
-4.8791e-09
1.40012e-06
-2.51709e-06
-1.65584e-09
1.61215e-06
-1.74906e-06
4.70052e-11
1.79328e-06
-1.28831e-06
1.3193e-11
1.95528e-06
-1.07867e-06
-7.01225e-10
2.10887e-06
-9.77278e-07
-1.0989e-09
2.25716e-06
-9.21693e-07
-6.37531e-10
2.40025e-06
-8.91497e-07
6.74619e-10
2.53659e-06
-8.75881e-07
2.7106e-09
2.66623e-06
-8.70022e-07
5.25877e-09
2.78915e-06
-8.70592e-07
8.59772e-09
2.90488e-06
-8.75349e-07
1.24136e-08
3.01302e-06
-8.83345e-07
1.66097e-08
3.11333e-06
-8.94041e-07
2.11307e-08
3.20539e-06
-9.06496e-07
2.59163e-08
3.28868e-06
-9.18949e-07
3.09018e-08
3.36243e-06
-9.2819e-07
3.60774e-08
3.42566e-06
-9.28566e-07
4.15187e-08
3.47811e-06
-9.13978e-07
4.72977e-08
3.51613e-06
-8.714e-07
5.39095e-08
3.54051e-06
-7.8576e-07
6.11651e-08
3.54312e-06
-6.1263e-07
7.03703e-08
3.48826e-06
-1.75014e-07
8.32524e-08
3.31789e-06
5.48168e-07
1.00472e-07
2.99958e-06
1.78957e-06
1.22813e-07
2.49514e-06
3.87024e-06
1.54555e-07
1.86549e-06
6.57326e-06
1.88007e-07
1.11358e-06
9.46202e-06
2.1326e-07
3.03475e-07
1.13589e-05
2.09597e-07
8.04514e-06
1.06229e-07
1.15683e-07
-3.84155e-06
1.1473e-09
2.87964e-07
-6.6922e-06
-1.14391e-08
4.59605e-07
-6.67753e-06
-1.71848e-08
6.19196e-07
-5.90598e-06
-1.80107e-08
7.78534e-07
-4.79982e-06
-1.62748e-08
9.41785e-07
-3.65869e-06
-1.32923e-08
1.11178e-06
-2.6594e-06
-1.01017e-08
1.27945e-06
-1.89508e-06
-7.56843e-09
1.42861e-06
-1.42175e-06
-6.21405e-09
1.56331e-06
-1.20079e-06
-5.75139e-09
1.69177e-06
-1.09453e-06
-5.37951e-09
1.81714e-06
-1.0371e-06
-4.50988e-09
1.93987e-06
-1.00594e-06
-3.07708e-09
2.05957e-06
-9.89581e-07
-1.13336e-09
2.17467e-06
-9.81798e-07
1.21149e-09
2.28539e-06
-9.80855e-07
3.92566e-09
2.39239e-06
-9.85224e-07
7.10534e-09
2.49561e-06
-9.93108e-07
1.05476e-08
2.59521e-06
-1.00404e-06
1.42019e-08
2.69109e-06
-1.01672e-06
1.79732e-08
2.78302e-06
-1.02922e-06
2.1803e-08
2.87054e-06
-1.03821e-06
2.56934e-08
2.95309e-06
-1.03787e-06
2.96733e-08
3.03078e-06
-1.02264e-06
3.36391e-08
3.1037e-06
-9.79738e-07
3.79077e-08
3.17438e-06
-8.95965e-07
4.23759e-08
3.24592e-06
-7.28098e-07
4.79165e-08
3.30426e-06
-2.84328e-07
5.63636e-08
3.22247e-06
5.67862e-07
6.90123e-08
3.03895e-06
1.89362e-06
8.72779e-08
2.57394e-06
4.22999e-06
1.12262e-07
1.76027e-06
7.24927e-06
1.43036e-07
7.98034e-07
1.02626e-05
1.67264e-07
1.00448e-07
1.19002e-05
1.63006e-07
8.07414e-06
7.16274e-08
9.50174e-08
-3.91212e-06
-1.84633e-09
2.28183e-07
-6.79771e-06
-1.30934e-08
3.53551e-07
-6.77168e-06
-1.83869e-08
4.69441e-07
-5.98893e-06
-1.95438e-08
6.02157e-07
-4.89945e-06
-1.83276e-08
7.27171e-07
-3.75191e-06
-1.59142e-08
8.6523e-07
-2.76871e-06
-1.31176e-08
1.00113e-06
-2.00771e-06
-1.05335e-08
1.12296e-06
-1.5261e-06
-8.66413e-09
1.23021e-06
-1.29413e-06
-7.59366e-09
1.33055e-06
-1.18273e-06
-6.80971e-09
1.42749e-06
-1.12329e-06
-5.75621e-09
1.52163e-06
-1.091e-06
-4.30121e-09
1.61276e-06
-1.07375e-06
-2.46725e-09
1.70028e-06
-1.06478e-06
-2.89722e-10
1.78319e-06
-1.06174e-06
2.06262e-09
1.86139e-06
-1.06419e-06
4.72397e-09
1.93559e-06
-1.07113e-06
7.59162e-09
2.00589e-06
-1.08135e-06
1.06188e-08
2.07242e-06
-1.09354e-06
1.37264e-08
2.13518e-06
-1.10555e-06
1.68644e-08
2.19356e-06
-1.11355e-06
2.004e-08
2.24761e-06
-1.11237e-06
2.33029e-08
2.29714e-06
-1.09616e-06
2.66024e-08
2.34196e-06
-1.05241e-06
3.02665e-08
2.3853e-06
-9.7074e-07
3.41659e-08
2.42986e-06
-8.07362e-07
3.87312e-08
2.4581e-06
-3.51832e-07
4.51283e-08
2.35978e-06
6.17399e-07
5.55742e-08
2.02159e-06
2.1667e-06
7.16636e-08
1.44195e-06
4.72438e-06
9.20242e-08
7.34686e-07
7.85062e-06
1.12663e-07
1.58322e-07
1.07163e-05
1.29031e-07
-4.91344e-08
1.19865e-05
1.26735e-07
7.96971e-06
5.54816e-08
7.27368e-08
-3.96151e-06
-2.3665e-09
1.74271e-07
-6.87317e-06
-1.37626e-08
2.79428e-07
-6.84814e-06
-1.8921e-08
3.91385e-07
-6.06971e-06
-1.98282e-08
4.96271e-07
-4.97342e-06
-1.84951e-08
6.00946e-07
-3.8271e-06
-1.62826e-08
7.05547e-07
-2.84604e-06
-1.3525e-08
8.06545e-07
-2.08644e-06
-1.10277e-08
8.97046e-07
-1.5996e-06
-9.10156e-09
9.76152e-07
-1.35965e-06
-7.8959e-09
1.04894e-06
-1.24371e-06
-7.01821e-09
1.11797e-06
-1.18186e-06
-6.00023e-09
1.18374e-06
-1.14779e-06
-4.69979e-09
1.24617e-06
-1.12895e-06
-3.12385e-09
1.30522e-06
-1.11862e-06
-1.29098e-09
1.35981e-06
-1.11339e-06
7.62942e-10
1.40893e-06
-1.11265e-06
2.91174e-09
1.45275e-06
-1.11672e-06
5.23438e-09
1.49144e-06
-1.12437e-06
7.66179e-09
1.52461e-06
-1.13365e-06
1.01613e-08
1.55181e-06
-1.14241e-06
1.27071e-08
1.57246e-06
-1.14664e-06
1.53295e-08
1.5871e-06
-1.14228e-06
1.80306e-08
1.59424e-06
-1.12173e-06
2.09847e-08
1.59286e-06
-1.07312e-06
2.44078e-08
1.58358e-06
-9.86928e-07
2.8162e-08
1.55802e-06
-8.10328e-07
3.28045e-08
1.47428e-06
-3.0109e-07
3.93918e-08
1.30795e-06
7.41406e-07
5.02555e-08
9.45194e-07
2.4716e-06
6.59139e-08
6.01273e-07
4.98873e-06
8.63674e-08
3.96434e-07
7.95398e-06
1.06543e-07
2.68347e-07
1.07294e-05
1.20373e-07
2.86219e-08
1.21191e-05
1.13895e-07
7.95315e-06
4.53376e-08
4.72674e-08
-3.98943e-06
-2.14516e-09
1.18236e-07
-6.92129e-06
-1.18758e-08
2.13758e-07
-6.91729e-06
-1.64877e-08
3.16977e-07
-6.14486e-06
-1.77564e-08
3.89192e-07
-5.01729e-06
-1.70693e-08
4.71583e-07
-3.88205e-06
-1.53821e-08
5.39699e-07
-2.88908e-06
-1.30929e-08
6.15906e-07
-2.14188e-06
-1.07837e-08
6.88279e-07
-1.65601e-06
-8.86769e-09
7.51338e-07
-1.41008e-06
-7.56574e-09
8.08844e-07
-1.2904e-06
-6.60537e-09
8.62985e-07
-1.22651e-06
-5.58748e-09
9.14149e-07
-1.19083e-06
-4.37353e-09
9.62198e-07
-1.17043e-06
-2.96184e-09
1.00694e-06
-1.15852e-06
-1.36208e-09
1.04833e-06
-1.15187e-06
4.02108e-10
1.08552e-06
-1.14898e-06
2.30302e-09
1.11819e-06
-1.1506e-06
4.25878e-09
1.1466e-06
-1.15615e-06
6.33771e-09
1.17025e-06
-1.16294e-06
8.48401e-09
1.1888e-06
-1.16894e-06
1.06891e-08
1.20208e-06
-1.17033e-06
1.29806e-08
1.20985e-06
-1.16296e-06
1.53791e-08
1.21075e-06
-1.13848e-06
1.80723e-08
1.204e-06
-1.08556e-06
2.12105e-08
1.18835e-06
-9.93728e-07
2.48795e-08
1.15344e-06
-8.01153e-07
2.96738e-08
1.06508e-06
-2.43237e-07
3.65772e-08
9.15773e-07
8.50923e-07
4.70892e-08
6.96226e-07
2.63546e-06
6.25645e-08
5.04912e-07
5.10281e-06
8.25566e-08
3.29741e-07
8.03203e-06
1.01181e-07
1.89929e-07
1.07609e-05
1.13808e-07
4.7301e-08
1.21605e-05
1.07083e-07
7.95287e-06
4.77296e-08
4.10476e-08
-4.01385e-06
-2.24097e-09
1.0296e-07
-6.9622e-06
-1.03822e-08
1.66286e-07
-6.95566e-06
-1.40356e-08
2.25483e-07
-6.17846e-06
-1.54381e-08
2.89755e-07
-5.05593e-06
-1.5117e-08
3.60497e-07
-3.92802e-06
-1.3552e-08
4.29924e-07
-2.9363e-06
-1.16926e-08
4.95354e-07
-2.18865e-06
-9.8692e-09
5.5277e-07
-1.69887e-06
-8.23049e-09
6.02821e-07
-1.44856e-06
-7.01415e-09
6.49028e-07
-1.32673e-06
-6.08803e-09
6.92965e-07
-1.26177e-06
-5.15426e-09
7.34654e-07
-1.22505e-06
-4.08458e-09
7.73833e-07
-1.20346e-06
-2.87273e-09
8.1043e-07
-1.19043e-06
-1.52058e-09
8.44415e-07
-1.18278e-06
-4.54386e-11
8.75757e-07
-1.17894e-06
1.52756e-09
9.0369e-07
-1.17885e-06
3.14043e-09
9.27941e-07
-1.18248e-06
4.83657e-09
9.49178e-07
-1.18808e-06
6.58026e-09
9.67329e-07
-1.19288e-06
8.36259e-09
9.82371e-07
-1.19309e-06
1.02003e-08
9.94012e-07
-1.18433e-06
1.21058e-08
1.00168e-06
-1.15818e-06
1.42174e-08
1.00524e-06
-1.1037e-06
1.66191e-08
1.00405e-06
-1.00933e-06
1.9341e-08
9.92101e-07
-8.07875e-07
2.29148e-08
9.47579e-07
-2.2058e-07
2.83567e-08
8.49901e-07
9.19272e-07
3.69844e-08
6.77352e-07
2.76518e-06
5.00717e-08
3.87569e-07
5.33104e-06
6.74281e-08
2.1939e-07
8.11887e-06
8.60121e-08
1.10583e-07
1.07757e-05
9.90304e-08
6.75381e-08
1.21144e-05
9.4475e-08
7.97909e-06
4.14536e-08
3.19872e-08
-4.02907e-06
-2.8164e-09
8.72615e-08
-6.99936e-06
-9.06357e-09
1.32345e-07
-6.98013e-06
-1.26595e-08
1.87096e-07
-6.21156e-06
-1.34538e-08
2.48219e-07
-5.09474e-06
-1.29665e-08
3.05877e-07
-3.96395e-06
-1.17505e-08
3.67837e-07
-2.97853e-06
-1.01984e-08
4.14598e-07
-2.21883e-06
-8.5138e-09
4.58152e-07
-1.72953e-06
-7.06709e-09
4.9768e-07
-1.47794e-06
-6.00278e-09
5.34861e-07
-1.3553e-06
-5.19914e-09
5.70575e-07
-1.2899e-06
-4.40585e-09
6.04831e-07
-1.25274e-06
-3.50418e-09
6.37466e-07
-1.23065e-06
-2.49336e-09
6.68465e-07
-1.21719e-06
-1.38068e-09
6.97913e-07
-1.20928e-06
-1.74822e-10
7.25902e-07
-1.20537e-06
1.09891e-09
7.51905e-07
-1.20471e-06
2.41289e-09
7.76003e-07
-1.2078e-06
3.71995e-09
7.98877e-07
-1.21357e-06
5.04919e-09
8.20645e-07
-1.21866e-06
6.36049e-09
8.41516e-07
-1.21934e-06
7.64241e-09
8.61325e-07
-1.21083e-06
8.87752e-09
8.79936e-07
-1.18493e-06
1.01388e-08
8.97516e-07
-1.13093e-06
1.14921e-08
9.15561e-07
-1.03808e-06
1.29577e-08
9.35954e-07
-8.39435e-07
1.49997e-08
9.50347e-07
-2.47706e-07
1.85201e-08
9.0781e-07
9.43756e-07
2.48929e-08
7.94247e-07
2.85117e-06
3.50673e-08
6.13282e-07
5.46956e-06
4.82054e-08
4.55717e-07
8.21589e-06
6.38779e-08
1.78133e-07
1.09823e-05
7.48956e-08
2.71887e-08
1.21963e-05
7.37721e-08
7.97572e-06
3.06962e-08
3.53638e-08
-4.04684e-06
-4.87668e-09
7.06777e-08
-7.01708e-06
-1.01627e-08
1.12776e-07
-7.00284e-06
-1.27998e-08
1.54099e-07
-6.23198e-06
-1.33494e-08
1.80107e-07
-5.09972e-06
-1.26921e-08
2.10337e-07
-3.9737e-06
-1.14845e-08
2.45418e-07
-2.99505e-06
-9.99394e-09
2.87148e-07
-2.24498e-06
-8.36721e-09
3.2956e-07
-1.75961e-06
-6.88344e-09
3.661e-07
-1.50486e-06
-5.72911e-09
3.98717e-07
-1.37983e-06
-4.87886e-09
4.2897e-07
-1.31309e-06
-4.0956e-09
4.57281e-07
-1.27494e-06
-3.24998e-09
4.83676e-07
-1.25195e-06
-2.32809e-09
5.08113e-07
-1.23759e-06
-1.33948e-09
5.30608e-07
-1.22887e-06
-2.92884e-10
5.51277e-07
-1.22431e-06
7.99181e-10
5.70268e-07
-1.22318e-06
1.91792e-09
5.87579e-07
-1.22575e-06
3.02853e-09
6.03097e-07
-1.23089e-06
4.14777e-09
6.16967e-07
-1.23548e-06
5.25328e-09
6.29368e-07
-1.23587e-06
6.34352e-09
6.40062e-07
-1.22681e-06
7.42094e-09
6.4906e-07
-1.20055e-06
8.57217e-09
6.56827e-07
-1.14678e-06
9.90713e-09
6.63357e-07
-1.05374e-06
1.14593e-08
6.65064e-07
-8.50522e-07
1.34674e-08
6.56003e-07
-2.48802e-07
1.66088e-08
6.00999e-07
9.83963e-07
2.23614e-08
5.10676e-07
2.9166e-06
3.134e-08
4.57082e-07
5.48562e-06
4.25539e-08
1.90673e-07
8.43383e-06
5.33966e-08
7.17168e-08
1.10474e-05
5.96162e-08
6.68586e-09
1.22087e-05
5.77836e-08
7.96172e-06
2.08479e-08
2.26304e-08
-4.05554e-06
-4.46499e-09
5.68941e-08
-7.03511e-06
-8.82957e-09
9.61716e-08
-7.02448e-06
-1.08623e-08
1.14755e-07
-6.23302e-06
-1.11016e-08
1.48763e-07
-5.11615e-06
-1.05201e-08
1.76537e-07
-3.98394e-06
-9.36299e-09
2.09255e-07
-3.01162e-06
-8.0573e-09
2.4464e-07
-2.26669e-06
-6.78258e-09
2.73841e-07
-1.77819e-06
-5.54393e-09
2.99303e-07
-1.52207e-06
-4.59769e-09
3.22168e-07
-1.3958e-06
-3.88719e-09
3.4335e-07
-1.32825e-06
-3.22466e-09
3.62969e-07
-1.28934e-06
-2.50484e-09
3.8094e-07
-1.26557e-06
-1.71768e-09
3.97194e-07
-1.25042e-06
-8.70872e-10
4.11666e-07
-1.24088e-06
2.5102e-11
4.24316e-07
-1.2355e-06
9.57156e-10
4.35124e-07
-1.23355e-06
1.90989e-09
4.43975e-07
-1.23516e-06
2.85921e-09
4.50674e-07
-1.23914e-06
3.81585e-09
4.55155e-07
-1.24251e-06
4.76644e-09
4.57477e-07
-1.24176e-06
5.71785e-09
4.57531e-07
-1.23151e-06
6.68954e-09
4.54834e-07
-1.20374e-06
7.76554e-09
4.49658e-07
-1.14886e-06
9.04385e-09
4.40874e-07
-1.05326e-06
1.05961e-08
4.20136e-07
-8.38425e-07
1.26715e-08
3.7213e-07
-2.10398e-07
1.59309e-08
2.77905e-07
1.0636e-06
2.16553e-08
1.44753e-07
3.02602e-06
3.00519e-08
9.66476e-08
5.50015e-06
3.98489e-08
-9.4512e-10
8.48753e-06
4.84921e-08
2.41954e-08
1.09695e-05
5.67037e-08
2.09752e-08
1.21635e-05
5.40428e-08
7.96312e-06
1.97328e-08
1.04798e-08
-4.05445e-06
-3.48978e-09
3.50883e-08
-7.04481e-06
-7.86636e-09
7.38738e-08
-7.04771e-06
-9.67542e-09
1.02365e-07
-6.24541e-06
-9.8866e-09
1.37411e-07
-5.13514e-06
-9.2545e-09
1.66802e-07
-3.99773e-06
-8.34079e-09
1.88328e-07
-3.01795e-06
-7.18524e-09
2.09712e-07
-2.27521e-06
-5.94972e-09
2.30982e-07
-1.78969e-06
-4.87233e-09
2.50165e-07
-1.53368e-06
-4.03751e-09
2.67685e-07
-1.407e-06
-3.40131e-09
2.83868e-07
-1.33891e-06
-2.80993e-09
2.98765e-07
-1.29943e-06
-2.17416e-09
3.12356e-07
-1.27512e-06
-1.48395e-09
3.24595e-07
-1.25941e-06
-7.41412e-10
3.35414e-07
-1.24931e-06
4.50991e-11
3.44784e-07
-1.24335e-06
8.6395e-10
3.52693e-07
-1.24084e-06
1.70083e-09
3.59061e-07
-1.24178e-06
2.53952e-09
3.63747e-07
-1.24497e-06
3.38816e-09
3.66706e-07
-1.2475e-06
4.23668e-09
3.67788e-07
-1.24577e-06
5.09749e-09
3.67047e-07
-1.23469e-06
6.01681e-09
3.63948e-07
-1.20576e-06
7.0597e-09
3.58134e-07
-1.14947e-06
8.31777e-09
3.4857e-07
-1.05115e-06
9.95584e-09
3.30357e-07
-8.28368e-07
1.24311e-08
2.91823e-07
-1.81592e-07
1.65314e-08
2.41009e-07
1.10013e-06
2.27237e-08
1.77784e-07
3.06533e-06
3.07314e-08
1.22954e-07
5.51989e-06
3.97984e-08
2.0241e-07
8.36541e-06
4.78304e-08
6.90135e-08
1.10547e-05
5.3984e-08
2.13877e-08
1.21633e-05
5.28917e-08
7.96098e-06
2.36835e-08
6.04014e-09
-4.05074e-06
-2.58e-09
4.81787e-08
-7.07458e-06
-6.33072e-09
7.83287e-08
-7.06385e-06
-7.85426e-09
1.10297e-07
-6.26283e-06
-8.04948e-09
1.29661e-07
-5.13966e-06
-7.61731e-09
1.50762e-07
-4.00461e-06
-6.87817e-09
1.65734e-07
-3.02e-06
-5.8989e-09
1.8349e-07
-2.28179e-06
-4.87817e-09
2.00302e-07
-1.79773e-06
-3.97482e-09
2.16257e-07
-1.54286e-06
-3.30988e-09
2.31816e-07
-1.41689e-06
-2.80659e-09
2.46839e-07
-1.34891e-06
-2.34975e-09
2.61298e-07
-1.30943e-06
-1.86422e-09
2.7521e-07
-1.28517e-06
-1.33906e-09
2.88504e-07
-1.26946e-06
-7.78143e-10
3.01022e-07
-1.25922e-06
-1.95294e-10
3.12779e-07
-1.25315e-06
3.99409e-10
3.23948e-07
-1.2507e-06
9.91658e-10
3.34637e-07
-1.25175e-06
1.5634e-09
3.44886e-07
-1.25507e-06
2.11173e-09
3.54877e-07
-1.25791e-06
2.62364e-09
3.64498e-07
-1.25634e-06
3.09812e-09
3.73905e-07
-1.24556e-06
3.55405e-09
3.83076e-07
-1.21701e-06
4.02395e-09
3.91902e-07
-1.16095e-06
4.56181e-09
4.00784e-07
-1.06279e-06
5.26886e-09
4.10488e-07
-8.40079e-07
6.43958e-09
4.13821e-07
-1.87079e-07
8.70084e-09
4.10881e-07
1.09735e-06
1.29798e-08
3.9507e-07
3.06909e-06
1.97478e-08
2.57192e-07
5.63612e-06
2.77248e-08
8.99864e-08
8.50027e-06
3.63245e-08
5.8771e-08
1.10479e-05
4.29171e-08
1.55558e-08
1.21695e-05
4.22958e-08
7.95679e-06
1.98955e-08
8.09958e-09
-4.04857e-06
-2.21248e-09
3.03189e-08
-7.0837e-06
-5.60505e-09
4.67401e-08
-7.06753e-06
-6.74835e-09
7.16347e-08
-6.27454e-06
-6.8144e-09
9.15796e-08
-5.1462e-06
-6.47507e-09
1.03495e-07
-4.00328e-06
-5.78982e-09
1.28505e-07
-3.03256e-06
-4.96984e-09
1.43561e-07
-2.28624e-06
-4.13262e-09
1.56584e-07
-1.80256e-06
-3.40071e-09
1.7e-07
-1.54998e-06
-2.84802e-09
1.83296e-07
-1.42491e-06
-2.40784e-09
1.96081e-07
-1.35702e-06
-1.99513e-09
2.08215e-07
-1.31741e-06
-1.55234e-09
2.19692e-07
-1.29304e-06
-1.06968e-09
2.30433e-07
-1.27716e-06
-5.48919e-10
2.4028e-07
-1.26662e-06
-6.58871e-12
2.49218e-07
-1.26024e-06
5.45356e-10
2.57377e-07
-1.2576e-06
1.09595e-09
2.64807e-07
-1.25848e-06
1.62797e-09
2.71356e-07
-1.26144e-06
2.13278e-09
2.77032e-07
-1.26391e-06
2.59254e-09
2.82209e-07
-1.26229e-06
2.99195e-09
2.86922e-07
-1.25147e-06
3.35097e-09
2.91199e-07
-1.22297e-06
3.70516e-09
2.95208e-07
-1.1671e-06
4.12942e-09
2.98777e-07
-1.06842e-06
4.74445e-09
3.00034e-07
-8.42394e-07
5.84673e-09
2.91645e-07
-1.79442e-07
7.9607e-09
2.49978e-07
1.13548e-06
1.13526e-08
2.08831e-07
3.10096e-06
1.61681e-08
1.57516e-07
5.67193e-06
2.22371e-08
5.60457e-08
8.57908e-06
2.81968e-08
7.61025e-08
1.09996e-05
3.32154e-08
4.03593e-08
1.21785e-05
3.22236e-08
7.9841e-06
1.32306e-08
1.97582e-08
-4.05808e-06
-2.90443e-09
1.2259e-08
-7.06456e-06
-5.54321e-09
2.55267e-08
-7.06859e-06
-5.98227e-09
4.82833e-08
-6.28508e-06
-5.78401e-09
8.14933e-08
-5.16733e-06
-5.19067e-09
9.72141e-08
-4.00661e-06
-4.59158e-09
1.09941e-07
-3.03361e-06
-3.86334e-09
1.19255e-07
-2.28598e-06
-3.18647e-09
1.3169e-07
-1.80769e-06
-2.55102e-09
1.44469e-07
-1.55721e-06
-2.10516e-09
1.56336e-07
-1.43216e-06
-1.77477e-09
1.67311e-07
-1.36387e-06
-1.46737e-09
1.77474e-07
-1.32385e-06
-1.13117e-09
1.86859e-07
-1.29912e-06
-7.57937e-10
1.95514e-07
-1.28297e-06
-3.48422e-10
2.03479e-07
-1.27222e-06
8.51534e-11
2.10604e-07
-1.26548e-06
5.27496e-10
2.16961e-07
-1.26255e-06
9.66413e-10
2.22631e-07
-1.26318e-06
1.38751e-09
2.27647e-07
-1.26592e-06
1.77661e-09
2.31977e-07
-1.26808e-06
2.11965e-09
2.36243e-07
-1.26672e-06
2.42612e-09
2.40065e-07
-1.25579e-06
2.70817e-09
2.43249e-07
-1.22711e-06
3.00641e-09
2.45607e-07
-1.17084e-06
3.39573e-09
2.46309e-07
-1.0705e-06
4.02882e-09
2.4293e-07
-8.39526e-07
5.2816e-09
2.35096e-07
-1.71835e-07
7.87883e-09
2.25647e-07
1.14099e-06
1.20528e-08
2.08079e-07
3.10874e-06
1.69377e-08
2.23013e-07
5.64102e-06
2.21714e-08
2.55478e-07
8.52397e-06
2.68056e-08
1.06278e-07
1.11237e-05
2.95145e-08
6.51475e-08
1.21978e-05
2.84854e-08
8.03676e-06
1.26912e-08
7.38018e-09
-4.05481e-06
-2.19987e-09
2.54435e-08
-7.07159e-06
-4.47142e-09
5.83285e-08
-7.09048e-06
-4.98962e-09
7.55142e-08
-6.29036e-06
-4.80443e-09
9.19399e-08
-5.17163e-06
-4.30171e-09
1.12263e-07
-4.01555e-06
-3.876e-09
1.11183e-07
-3.02169e-06
-3.40666e-09
1.24262e-07
-2.28981e-06
-2.86262e-09
1.33567e-07
-1.80987e-06
-2.37529e-09
1.44024e-07
-1.56221e-06
-2.01411e-09
1.54025e-07
-1.43753e-06
-1.75746e-09
1.63732e-07
-1.36936e-06
-1.53054e-09
1.7314e-07
-1.32934e-06
-1.28328e-09
1.82151e-07
-1.30455e-06
-1.00748e-09
1.90851e-07
-1.28842e-06
-7.04689e-10
1.9942e-07
-1.27791e-06
-3.85444e-10
2.07943e-07
-1.2715e-06
-7.24802e-11
2.16173e-07
-1.26861e-06
2.1723e-10
2.244e-07
-1.26949e-06
4.65395e-10
2.32755e-07
-1.27258e-06
6.62632e-10
2.41552e-07
-1.2753e-06
7.90352e-10
2.50889e-07
-1.27452e-06
8.37189e-10
2.60633e-07
-1.26402e-06
8.04108e-10
2.70507e-07
-1.23552e-06
7.09946e-10
2.80308e-07
-1.17908e-06
6.00542e-10
2.90745e-07
-1.07858e-06
5.66425e-10
3.00075e-07
-8.44631e-07
8.04217e-10
2.92343e-07
-1.58321e-07
1.78125e-09
2.50145e-07
1.188e-06
4.56638e-09
1.51356e-07
3.20585e-06
9.39314e-09
3.4155e-08
5.7484e-06
1.51571e-08
5.28194e-08
8.48993e-06
2.10618e-08
1.46193e-08
1.11434e-05
2.46606e-08
-5.67707e-09
1.22008e-05
2.36312e-08
8.02202e-06
9.28786e-09
4.6241e-09
-4.04899e-06
-2.26741e-09
2.90955e-08
-7.08403e-06
-4.58966e-09
4.58103e-08
-7.09562e-06
-4.58252e-09
6.25321e-08
-6.2965e-06
-4.18148e-09
5.56654e-08
-5.15371e-06
-3.50327e-09
6.36279e-08
-4.01312e-06
-2.86331e-09
7.31194e-08
-3.0216e-06
-2.42866e-09
8.08143e-08
-2.28908e-06
-1.9625e-09
9.02416e-08
-1.81308e-06
-1.57253e-09
9.72613e-08
-1.56445e-06
-1.29714e-09
1.03712e-07
-1.43996e-06
-1.11555e-09
1.09711e-07
-1.37167e-06
-9.56157e-10
1.15053e-07
-1.33124e-06
-7.75913e-10
1.19585e-07
-1.30589e-06
-5.66979e-10
1.23337e-07
-1.28926e-06
-3.30868e-10
1.26417e-07
-1.27836e-06
-7.64073e-11
1.28965e-07
-1.27173e-06
1.76057e-10
1.30774e-07
-1.26838e-06
4.07164e-10
1.31644e-07
-1.26854e-06
6.05108e-10
1.31393e-07
-1.27066e-06
7.52294e-10
1.30282e-07
-1.27261e-06
8.35517e-10
1.2821e-07
-1.27089e-06
8.48077e-10
1.25616e-07
-1.25987e-06
8.05014e-10
1.22506e-07
-1.23095e-06
7.47914e-10
1.19069e-07
-1.17423e-06
7.58e-10
1.14541e-07
-1.07211e-06
9.73849e-10
1.05138e-07
-8.31585e-07
1.59243e-09
8.16793e-08
-1.30193e-07
3.04796e-09
4.98036e-08
1.22265e-06
5.6007e-09
3.66707e-08
3.21874e-06
9.26141e-09
1.84773e-08
5.76013e-06
1.39347e-08
-9.51078e-10
8.49492e-06
1.88558e-08
4.02948e-08
1.10853e-05
2.18578e-08
-1.18006e-08
1.22382e-05
2.08064e-08
8.00112e-06
9.27023e-09
1.20995e-08
-4.05029e-06
-2.54617e-09
3.88891e-08
-7.10006e-06
-4.15508e-09
5.70485e-08
-7.10347e-06
-4.22897e-09
6.518e-08
-6.29464e-06
-3.52287e-09
8.86987e-08
-5.16784e-06
-2.87139e-09
8.9121e-08
-4.00382e-06
-2.37038e-09
1.02563e-07
-3.02577e-06
-1.92262e-09
1.08121e-07
-2.28669e-06
-1.62905e-09
1.13704e-07
-1.81244e-06
-1.35693e-09
1.19344e-07
-1.56542e-06
-1.17405e-09
1.24972e-07
-1.44162e-06
-1.05314e-09
1.30857e-07
-1.37386e-06
-9.51344e-10
1.3681e-07
-1.33369e-06
-8.29365e-10
1.42816e-07
-1.30859e-06
-6.74803e-10
1.48807e-07
-1.29215e-06
-4.92235e-10
1.54584e-07
-1.28127e-06
-2.98564e-10
1.60194e-07
-1.27469e-06
-1.06745e-10
1.66024e-07
-1.27175e-06
6.74591e-11
1.71834e-07
-1.27203e-06
1.99943e-10
1.77829e-07
-1.27443e-06
2.74702e-10
1.84068e-07
-1.27662e-06
2.77358e-10
1.90897e-07
-1.27543e-06
2.02814e-10
1.98195e-07
-1.26478e-06
5.97585e-11
2.05972e-07
-1.2363e-06
-1.26212e-10
2.14308e-07
-1.17995e-06
-3.07871e-10
2.22783e-07
-1.07697e-06
-4.177e-10
2.31585e-07
-8.34345e-07
-3.15709e-10
2.45569e-07
-1.36226e-07
4.96919e-10
2.75115e-07
1.19928e-06
2.8562e-09
3.32211e-07
3.16276e-06
6.54244e-09
4.09467e-07
5.67891e-06
1.09833e-08
2.69943e-07
8.62641e-06
1.49132e-08
1.32624e-07
1.12135e-05
1.72202e-08
2.18949e-08
1.23408e-05
1.59823e-08
8.01801e-06
5.2211e-09
2.22561e-09
-4.04195e-06
-2.05168e-09
8.56605e-09
-7.09455e-06
-4.32757e-09
1.40556e-08
-7.09788e-06
-4.24272e-09
1.69522e-08
-6.28681e-06
-3.56089e-09
2.62351e-08
-5.16652e-06
-2.68246e-09
4.78729e-08
-4.01573e-06
-1.99133e-09
6.96263e-08
-3.03803e-06
-1.46146e-09
7.62933e-08
-2.28553e-06
-1.03612e-09
7.80234e-08
-1.80861e-06
-7.66316e-10
8.33214e-08
-1.56655e-06
-6.14298e-10
8.91559e-08
-1.44395e-06
-5.68027e-10
9.54954e-08
-1.37687e-06
-5.68557e-10
1.0212e-07
-1.33705e-06
-5.58194e-10
1.09139e-07
-1.31243e-06
-5.16683e-10
1.16595e-07
-1.29652e-06
-4.51625e-10
1.24409e-07
-1.2861e-06
-3.82151e-10
1.32737e-07
-1.28011e-06
-3.24663e-10
1.41867e-07
-1.27803e-06
-2.97779e-10
1.5199e-07
-1.27928e-06
-3.25376e-10
1.63341e-07
-1.2828e-06
-4.30325e-10
1.7611e-07
-1.28619e-06
-6.32689e-10
1.90443e-07
-1.28622e-06
-9.56476e-10
2.06288e-07
-1.2767e-06
-1.40124e-09
2.2368e-07
-1.24936e-06
-1.96199e-09
2.43e-07
-1.1943e-06
-2.61102e-09
2.66576e-07
-1.094e-06
-3.32177e-09
2.9804e-07
-8.55889e-07
-4.04586e-09
3.23981e-07
-1.48327e-07
-4.52367e-09
2.93685e-07
1.24266e-06
-3.44596e-09
1.87545e-07
3.27703e-06
-2.1874e-10
5.78231e-08
5.81117e-06
4.40672e-09
3.07532e-08
8.65014e-06
9.17084e-09
2.34129e-08
1.12145e-05
1.26517e-08
2.46629e-08
1.23344e-05
1.24043e-08
8.03954e-06
3.34029e-09
3.84779e-09
-4.03231e-06
-3.4805e-09
-1.4931e-08
-7.06305e-06
-5.06949e-09
-3.68905e-08
-7.06507e-06
-4.93532e-09
-2.90226e-08
-6.28462e-06
-3.97763e-09
-2.73355e-08
-5.15792e-06
-3.16128e-09
-1.64198e-08
-4.01526e-06
-2.45189e-09
-1.18778e-09
-3.04307e-06
-1.91979e-09
1.59738e-08
-2.29484e-06
-1.35548e-09
3.03617e-08
-1.81716e-06
-9.36161e-10
3.69294e-08
-1.56885e-06
-7.10756e-10
4.24739e-08
-1.44594e-06
-6.15211e-10
4.74286e-08
-1.37847e-06
-5.79617e-10
5.17939e-08
-1.33814e-06
-5.40369e-10
5.5488e-08
-1.31296e-06
-4.77972e-10
5.85105e-08
-1.29648e-06
-3.96621e-10
6.09001e-08
-1.28554e-06
-3.08171e-10
6.26608e-08
-1.27901e-06
-2.30767e-10
6.38434e-08
-1.27641e-06
-1.83418e-10
6.45116e-08
-1.27713e-06
-1.86814e-10
6.45248e-08
-1.27991e-06
-2.62515e-10
6.39381e-08
-1.28251e-06
-4.28907e-10
6.25466e-08
-1.28145e-06
-6.97832e-10
6.04998e-08
-1.27094e-06
-1.06334e-09
5.76258e-08
-1.2425e-06
-1.48581e-09
5.39556e-08
-1.18624e-06
-1.88509e-09
4.94447e-08
-1.08391e-06
-2.13407e-09
4.01109e-08
-8.38129e-07
-2.09871e-09
1.09008e-08
-1.08291e-07
-1.46759e-09
-3.65334e-08
1.3008e-06
2.05586e-10
-9.14658e-08
3.33947e-06
3.03568e-09
-1.65513e-07
5.8866e-06
6.56868e-09
-1.21412e-07
8.60172e-06