/*--------------------------------*- C++ -*----------------------------------*\
  =========                 |
  \\      /  F ield         | OpenFOAM: The Open Source CFD Toolbox
   \\    /   O peration     | Website:  https://openfoam.org
    \\  /    A nd           | Version:  13
     \\/     M anipulation  |
\*---------------------------------------------------------------------------*/
FoamFile
{
    format      ascii;
    class       volVectorField;
    location    "5";
    object      U;
}
// * * * * * * * * * * * * * * * * * * * * * * * * * * * * * * * * * * * * * //

dimensions      [0 1 -1 0 0 0 0];

internalField   nonuniform List<vector> 
78750
(
(0.00305459 -0.00738028 0.00100752)
(0.00942126 -0.0204992 0.00364812)
(0.0149722 -0.0297976 0.00538513)
(0.021471 -0.0335039 0.00466074)
(0.0280493 -0.0314987 0.00301627)
(0.0330519 -0.0267335 0.0015647)
(0.0357514 -0.0225734 0.000924577)
(0.0382984 -0.0174563 0.000864296)
(0.039419 -0.0101266 0.00095059)
(0.0400973 -0.00226445 0.000988086)
(0.0398457 0.00163615 0.00088844)
(0.0396414 0.00376776 0.000702011)
(0.0394329 0.00497982 0.000398801)
(0.0388947 0.0052668 0.000155108)
(0.0384435 0.00512354 6.48083e-05)
(0.038084 0.0048442 9.86089e-05)
(0.0376525 0.00441978 0.000221031)
(0.0374683 0.00393091 0.000426593)
(0.0371577 0.00324433 0.000507473)
(0.0370477 0.00262725 0.000677403)
(0.0369421 0.00214379 0.000953566)
(0.037026 0.00176636 0.0012992)
(0.0368292 0.00145689 0.00158151)
(0.0367628 0.00127236 0.00189898)
(0.036829 0.00132795 0.0022834)
(0.0366645 0.0015735 0.00264583)
(0.0363715 0.00196143 0.00292921)
(0.0357765 0.00309274 0.00326447)
(0.0350425 0.00433357 0.00352822)
(0.0332481 0.0068717 0.00379863)
(0.0313147 0.00975922 0.00408089)
(0.0266826 0.0177223 0.00457804)
(0.0224834 0.0232071 0.00482215)
(0.0127662 0.0306507 0.00470404)
(0.00475763 0.0292988 0.00311281)
(0.000794854 -0.0305428 0.00184778)
(0.00458962 -0.0622223 0.00283406)
(0.00871011 -0.0635272 0.00301417)
(0.0107355 -0.0581007 0.00319111)
(0.0125943 -0.0458243 0.00345847)
(0.0140626 -0.0298529 0.00359143)
(0.0139133 -0.0139345 0.00331944)
(0.0130649 -0.00510226 0.00257435)
(0.0125838 -0.00118901 0.00193575)
(0.0124442 0.000828098 0.0015872)
(0.0127052 0.00202598 0.00146528)
(0.0131918 0.00278234 0.00147759)
(0.0137445 0.00293221 0.00158287)
(0.0143434 0.00270947 0.00172122)
(0.0149451 0.00226813 0.00187981)
(0.0155382 0.00171679 0.00205859)
(0.0161091 0.00110712 0.00225463)
(0.01666 0.000497845 0.00246458)
(0.0171685 -8.63935e-05 0.00268081)
(0.0176402 -0.000632497 0.00290239)
(0.0180842 -0.00111339 0.00312795)
(0.0185084 -0.00152007 0.00335345)
(0.018917 -0.00184058 0.00357737)
(0.0193004 -0.00202488 0.00378776)
(0.019654 -0.00186317 0.00392943)
(0.0199758 -0.00110151 0.00395937)
(0.0202368 0.000459729 0.00390557)
(0.0203722 0.00310215 0.00380152)
(0.0203336 0.0073872 0.00376522)
(0.0199853 0.0145077 0.00394331)
(0.0188968 0.025042 0.00424256)
(0.0166125 0.040898 0.00449668)
(0.0133742 0.0612736 0.00468999)
(0.00742557 0.0818727 0.0045332)
(0.00165577 0.072978 0.00291415)
(0.000327044 -0.041839 0.00138924)
(0.00149743 -0.0748371 0.00178772)
(0.00237385 -0.0744024 0.00178614)
(0.00322714 -0.0643367 0.00192825)
(0.00372155 -0.0499437 0.00217105)
(0.00420532 -0.0344203 0.00235073)
(0.00486897 -0.0204311 0.00223692)
(0.00560711 -0.0107557 0.00177057)
(0.00615119 -0.00654947 0.00128987)
(0.0066894 -0.00477591 0.000985109)
(0.00723531 -0.0039752 0.000873465)
(0.00784917 -0.0035519 0.000884266)
(0.00843585 -0.00339001 0.000961205)
(0.00900938 -0.00340887 0.00108158)
(0.00954809 -0.00355642 0.00123628)
(0.0100559 -0.00377413 0.00142517)
(0.0105255 -0.00404724 0.00164142)
(0.0109579 -0.00436508 0.00187823)
(0.0113547 -0.00471982 0.00212825)
(0.0117183 -0.00509991 0.00238387)
(0.0120515 -0.00548598 0.00263734)
(0.0123575 -0.0058461 0.00288033)
(0.0126358 -0.00612701 0.00310388)
(0.0128946 -0.00624214 0.00329869)
(0.0131084 -0.00606035 0.00345233)
(0.0132782 -0.00542653 0.0035408)
(0.0134749 -0.00372083 0.00360617)
(0.0134971 -0.000287131 0.0037219)
(0.0134364 0.00440992 0.00392672)
(0.0130045 0.0145147 0.00428836)
(0.0124879 0.0299532 0.00470164)
(0.0105372 0.0542089 0.0050165)
(0.0080246 0.0840295 0.00498925)
(0.00418542 0.110437 0.00443545)
(0.000657375 0.0907896 0.00256878)
(0.000235304 -0.0440175 0.000525609)
(0.000943126 -0.0782906 0.000567605)
(0.00154873 -0.0784441 0.000468652)
(0.00216029 -0.0694215 0.000482812)
(0.0028076 -0.0551867 0.000662633)
(0.00339446 -0.0398745 0.000905352)
(0.0040343 -0.0259709 0.0010333)
(0.00472589 -0.0156603 0.000925656)
(0.00531827 -0.0102968 0.000692258)
(0.00579408 -0.0080852 0.000503043)
(0.00624763 -0.0070126 0.000414361)
(0.0067148 -0.00642309 0.000420566)
(0.00713305 -0.00615638 0.000488754)
(0.00757142 -0.00605338 0.000616298)
(0.00797535 -0.00606991 0.000780594)
(0.00836507 -0.00618369 0.000974027)
(0.00873546 -0.00635787 0.00119269)
(0.00908432 -0.00657199 0.00143178)
(0.00941026 -0.00681228 0.00168471)
(0.00971168 -0.00706682 0.0019436)
(0.00998744 -0.00732373 0.00219993)
(0.0102363 -0.00755876 0.00244182)
(0.010464 -0.00771888 0.00265387)
(0.0106433 -0.00770914 0.00282402)
(0.0107809 -0.00739644 0.00293317)
(0.0108967 -0.00652087 0.00299535)
(0.0109693 -0.00457086 0.00305168)
(0.0109334 -0.000311471 0.00321423)
(0.0107596 0.00556167 0.00344808)
(0.0103279 0.0177026 0.00387061)
(0.00952756 0.0369918 0.00453938)
(0.00788137 0.0656381 0.00527823)
(0.00552627 0.0996412 0.00555314)
(0.00254791 0.126626 0.00491915)
(0.000255998 0.0986852 0.00258148)
(0.000155843 -0.047846 0.000242727)
(0.000718487 -0.0835429 8.33366e-05)
(0.00118757 -0.0831602 -3.89028e-05)
(0.00167313 -0.0728618 -5.59786e-05)
(0.00212158 -0.0579803 1.95042e-05)
(0.00252769 -0.0425815 0.000130063)
(0.00295676 -0.0291069 0.000202546)
(0.00344077 -0.0191448 0.000182964)
(0.0039099 -0.0135783 9.63175e-05)
(0.00429574 -0.0111601 1.64931e-05)
(0.00466843 -0.00998251 -1.19125e-05)
(0.00505207 -0.00934651 2.55855e-05)
(0.00541222 -0.00902892 0.000108208)
(0.00574767 -0.00892529 0.00022015)
(0.00609466 -0.00893948 0.000376028)
(0.00641158 -0.00902254 0.000559288)
(0.00671763 -0.00916078 0.000765163)
(0.0070069 -0.00934222 0.000986465)
(0.00727845 -0.00955792 0.00121565)
(0.0075328 -0.0097994 0.00144616)
(0.00776997 -0.0100462 0.00166795)
(0.00798827 -0.0102582 0.00187101)
(0.00819201 -0.010371 0.00204842)
(0.00834875 -0.0102868 0.0021889)
(0.00847812 -0.00989664 0.00227481)
(0.00858571 -0.00889759 0.00231764)
(0.0086529 -0.00688172 0.00234469)
(0.00865294 -0.00205441 0.00247194)
(0.00846299 0.00558051 0.00270392)
(0.00804672 0.0189235 0.00309633)
(0.00718479 0.0429379 0.0038208)
(0.00558455 0.0769924 0.00474244)
(0.00356893 0.115431 0.00523489)
(0.00166048 0.141467 0.0046618)
(0.00024564 0.103483 0.00225186)
(0.000180513 -0.0491033 -2.62534e-05)
(0.00057391 -0.0859715 -0.000314047)
(0.000865565 -0.0859159 -0.000459615)
(0.00123425 -0.0759833 -0.000488819)
(0.00162891 -0.0613133 -0.000425806)
(0.00202678 -0.0459861 -0.000321937)
(0.00244967 -0.0324394 -0.00023155)
(0.002896 -0.0221998 -0.000192569)
(0.00330112 -0.0161803 -0.00020646)
(0.00362693 -0.013457 -0.000237705)
(0.00393517 -0.012138 -0.000242079)
(0.00424598 -0.0114118 -0.000197389)
(0.00453957 -0.011016 -0.000112433)
(0.00481856 -0.0108118 3.73067e-06)
(0.00507556 -0.0107429 0.000136866)
(0.00533642 -0.0107563 0.000305331)
(0.00556971 -0.0108203 0.000491885)
(0.00579178 -0.010927 0.000689493)
(0.00599815 -0.0110688 0.000893339)
(0.00618806 -0.0112357 0.00109709)
(0.00636053 -0.0114061 0.00129134)
(0.00651753 -0.011537 0.00146713)
(0.00664328 -0.0115514 0.00162021)
(0.00675224 -0.011365 0.00173583)
(0.0068362 -0.0108078 0.0018231)
(0.00686764 -0.00967994 0.00185824)
(0.00689199 -0.007394 0.00188129)
(0.00682007 -0.00173768 0.00199967)
(0.00660085 0.00726585 0.00222743)
(0.00622885 0.0236585 0.00265622)
(0.00546955 0.0508453 0.00354885)
(0.00445448 0.0861442 0.00453081)
(0.00318731 0.121822 0.00508259)
(0.00162504 0.144477 0.00459376)
(0.000256857 0.10549 0.00214267)
(0.000193517 -0.0504978 -9.61555e-05)
(0.000554153 -0.0879704 -0.000362746)
(0.000777276 -0.0877588 -0.000510535)
(0.0010673 -0.0775505 -0.000578918)
(0.00134496 -0.0628306 -0.000579979)
(0.00161864 -0.0476923 -0.000535415)
(0.00192614 -0.0344233 -0.000473404)
(0.00227231 -0.0242634 -0.000417095)
(0.00260892 -0.0180443 -0.000386266)
(0.00287997 -0.0151985 -0.000383207)
(0.00313796 -0.0138241 -0.000371448)
(0.00340159 -0.0130733 -0.000324743)
(0.003651 -0.0126666 -0.000247373)
(0.00389599 -0.0124561 -0.000145926)
(0.00412687 -0.0123671 -2.6783e-05)
(0.00434829 -0.0123685 0.000107376)
(0.00457039 -0.0124335 0.000261934)
(0.00477555 -0.0125404 0.000424958)
(0.0049759 -0.0126847 0.000591582)
(0.00516863 -0.012851 0.000754376)
(0.00535281 -0.0130144 0.000906238)
(0.00553036 -0.0131327 0.0010424)
(0.00568865 -0.0131317 0.00115899)
(0.00583965 -0.0129358 0.00123844)
(0.00597614 -0.0123727 0.00128625)
(0.00607973 -0.0112431 0.00128214)
(0.00619447 -0.0089677 0.00123959)
(0.00632388 -0.00304912 0.00124643)
(0.0063162 0.00710023 0.00136344)
(0.00609738 0.0236135 0.00168961)
(0.00569488 0.0516893 0.0023778)
(0.0045037 0.0882455 0.00336687)
(0.00273753 0.129369 0.00398694)
(0.000987942 0.157161 0.00342532)
(0.000164554 0.108057 0.00133319)
(0.000213385 -0.0516196 -0.000158109)
(0.000490072 -0.0898592 -0.000417011)
(0.000619727 -0.0896779 -0.000532977)
(0.000821418 -0.0793853 -0.000583439)
(0.00102246 -0.0647133 -0.000590894)
(0.00122921 -0.0495325 -0.00056811)
(0.00146697 -0.0362465 -0.00052889)
(0.00174802 -0.0260951 -0.000479657)
(0.00202537 -0.0197349 -0.000436975)
(0.00224884 -0.0167075 -0.000416041)
(0.00245539 -0.0152563 -0.000395518)
(0.00266045 -0.0144799 -0.000349908)
(0.00285491 -0.0140583 -0.000278778)
(0.00304152 -0.0138342 -0.000187321)
(0.00321865 -0.0137172 -7.85322e-05)
(0.00338496 -0.0136911 3.63415e-05)
(0.00354966 -0.0137426 0.000164845)
(0.00369715 -0.0138469 0.00030035)
(0.00383869 -0.0139959 0.000438719)
(0.00397213 -0.0141704 0.000573634)
(0.0040968 -0.014344 0.000699163)
(0.00421504 -0.0144706 0.000811556)
(0.0043134 -0.0144699 0.000908458)
(0.00440433 -0.0142708 0.000977148)
(0.00448527 -0.0137056 0.00102256)
(0.00452785 -0.0126247 0.00102118)
(0.00458484 -0.0104812 0.000968779)
(0.0046286 -0.00469436 0.000907605)
(0.00455148 0.0077118 0.000979309)
(0.00429624 0.0264111 0.00127572)
(0.00351052 0.0604401 0.00183037)
(0.00225074 0.104057 0.00246035)
(0.00104646 0.143028 0.00290495)
(0.000299173 0.158864 0.00273852)
(0.000111202 0.106297 0.000992526)
(0.000220708 -0.0522652 -0.000160122)
(0.000435516 -0.0907097 -0.000422293)
(0.000482589 -0.0901969 -0.00053764)
(0.000665544 -0.0796909 -0.00058026)
(0.000861635 -0.0654146 -0.000585679)
(0.000991676 -0.0501021 -0.000562084)
(0.00119438 -0.0372725 -0.000527)
(0.0013898 -0.027212 -0.000480745)
(0.0016037 -0.0207882 -0.000436507)
(0.00177546 -0.017659 -0.000410927)
(0.00192944 -0.016151 -0.000388598)
(0.00207874 -0.015346 -0.000348183)
(0.00221774 -0.0149058 -0.000287561)
(0.00234659 -0.0146672 -0.000210879)
(0.00246894 -0.0145417 -0.000120806)
(0.00258079 -0.0144813 -1.99586e-05)
(0.00268172 -0.014489 8.29999e-05)
(0.00277566 -0.0145637 0.000192197)
(0.00285388 -0.0146795 0.000302217)
(0.00292207 -0.0148216 0.000409623)
(0.00297885 -0.0149595 0.000510235)
(0.003017 -0.0150385 0.000602266)
(0.00304134 -0.015003 0.000679342)
(0.00305245 -0.0147623 0.000742234)
(0.00303495 -0.0141545 0.000788928)
(0.00298246 -0.0130503 0.000796435)
(0.00290924 -0.010801 0.000770445)
(0.00274585 -0.00438839 0.000760276)
(0.00248954 0.00904377 0.000894508)
(0.00204535 0.0315122 0.00124214)
(0.00139103 0.0654117 0.00182261)
(0.00110352 0.104909 0.00239067)
(0.000822086 0.142044 0.0026745)
(0.000769446 0.159836 0.00225074)
(0.000323164 0.105769 0.000704962)
(0.000228542 -0.0529172 -0.000132302)
(0.000396597 -0.0918525 -0.000324807)
(0.000395876 -0.0916998 -0.000430261)
(0.000544609 -0.0815146 -0.000487162)
(0.000653747 -0.0666548 -0.000509857)
(0.000758586 -0.0515168 -0.000513527)
(0.000865048 -0.0382825 -0.000491551)
(0.00102008 -0.0281746 -0.000452732)
(0.00119738 -0.0216785 -0.000409064)
(0.00134341 -0.0184428 -0.000379301)
(0.00147008 -0.0168742 -0.000354609)
(0.00159005 -0.0160368 -0.000316531)
(0.00170139 -0.0155717 -0.000262151)
(0.00180274 -0.015309 -0.000195022)
(0.00189654 -0.0151593 -0.000117588)
(0.0019834 -0.0150794 -3.22967e-05)
(0.00206048 -0.0150495 5.86815e-05)
(0.00212806 -0.0150806 0.000149137)
(0.00218888 -0.0151658 0.000242098)
(0.00223671 -0.0152677 0.000332455)
(0.00227471 -0.0153593 0.000417141)
(0.00229731 -0.0153896 0.000494049)
(0.00230745 -0.0153049 0.000557485)
(0.00230436 -0.0149948 0.000609407)
(0.00227255 -0.0143071 0.000645797)
(0.00221643 -0.0131085 0.000656609)
(0.00211836 -0.0106223 0.000649744)
(0.00188858 -0.00342709 0.000677796)
(0.00162283 0.0108912 0.000843002)
(0.00134047 0.0344007 0.0012353)
(0.00110806 0.0673391 0.00182749)
(0.000938748 0.106558 0.0023149)
(0.000770318 0.14314 0.00252066)
(0.000766463 0.162323 0.0020569)
(0.000389628 0.105698 0.000758748)
(0.000248533 -0.0531828 -0.000109716)
(0.000399552 -0.0920937 -0.000263452)
(0.000361268 -0.0921466 -0.000340818)
(0.00043223 -0.0818098 -0.000391286)
(0.000465544 -0.0666986 -0.000416084)
(0.000555581 -0.0516725 -0.000421165)
(0.000654126 -0.0385142 -0.000412398)
(0.000796747 -0.0287615 -0.000396464)
(0.000945021 -0.0223403 -0.000367247)
(0.00106754 -0.0190342 -0.000341759)
(0.00117181 -0.0174178 -0.000318378)
(0.00127024 -0.0165537 -0.000284438)
(0.00136219 -0.0160671 -0.000237176)
(0.0014456 -0.0157838 -0.000179707)
(0.00152265 -0.0156133 -0.000113995)
(0.00159391 -0.0155126 -4.21205e-05)
(0.00165839 -0.0154622 3.38302e-05)
(0.001716 -0.01547 0.000109402)
(0.00176709 -0.0155277 0.000186332)
(0.00180842 -0.0156021 0.00026111)
(0.00184307 -0.0156659 0.00033127)
(0.00186751 -0.0156687 0.000394945)
(0.00188276 -0.015554 0.000447714)
(0.00188876 -0.0152092 0.000490475)
(0.00187683 -0.0144866 0.000518335)
(0.00184098 -0.0132341 0.000519125)
(0.00176282 -0.0105719 0.000498636)
(0.00159643 -0.00288512 0.000500341)
(0.00142941 0.0119044 0.000607582)
(0.0013223 0.0358075 0.000921323)
(0.00103813 0.0684015 0.00145313)
(0.000761943 0.107026 0.00199949)
(0.000545742 0.142952 0.00222801)
(0.000664074 0.160971 0.00186866)
(0.000428733 0.10583 0.000685548)
(0.000249563 -0.0535262 -9.13039e-05)
(0.000371299 -0.092918 -0.000204591)
(0.000292885 -0.0926863 -0.000271846)
(0.000365617 -0.0823681 -0.00030772)
(0.000410931 -0.0676526 -0.000323932)
(0.000468506 -0.0527118 -0.000335965)
(0.000548914 -0.0395181 -0.000336382)
(0.000655327 -0.0294052 -0.000320572)
(0.000773564 -0.022808 -0.00029845)
(0.000874522 -0.0194595 -0.000279156)
(0.000961087 -0.0178373 -0.000260507)
(0.00104241 -0.0169747 -0.000232573)
(0.00111835 -0.0164855 -0.000192919)
(0.00118769 -0.0161953 -0.000144648)
(0.00125242 -0.0160198 -8.97919e-05)
(0.00131279 -0.0159175 -2.97412e-05)
(0.00136969 -0.0158666 3.34198e-05)
(0.00142151 -0.0158572 9.7725e-05)
(0.00146816 -0.0158977 0.000159713)
(0.00151145 -0.0159744 0.000220413)
(0.00154929 -0.0160409 0.000276651)
(0.00158136 -0.0160474 0.000326536)
(0.00160819 -0.0159342 0.000366618)
(0.0016312 -0.0155908 0.000397283)
(0.00164163 -0.0148738 0.000415435)
(0.00162849 -0.0136368 0.000410647)
(0.00158917 -0.010994 0.000386788)
(0.00150001 -0.00317265 0.000376505)
(0.00143713 0.0122377 0.000454662)
(0.00143838 0.0373542 0.000690689)
(0.00133484 0.0729344 0.0010747)
(0.0012309 0.108446 0.00157614)
(0.000834886 0.143118 0.00179058)
(0.00066071 0.160687 0.00152328)
(0.000383553 0.105958 0.000497342)
(0.000276292 -0.0536307 -0.000125715)
(0.000379974 -0.0931044 -0.000228194)
(0.000265993 -0.0927983 -0.000279134)
(0.000311189 -0.0827012 -0.000306914)
(0.000305362 -0.0677549 -0.000316542)
(0.000291215 -0.0526606 -0.000322943)
(0.000318154 -0.039679 -0.000321966)
(0.00039418 -0.0296003 -0.000304385)
(0.000517914 -0.0231885 -0.000279855)
(0.000617639 -0.0198384 -0.000256169)
(0.000698603 -0.0181948 -0.000235905)
(0.000769705 -0.0173166 -0.000209504)
(0.000834413 -0.0168162 -0.000173604)
(0.000892154 -0.0165173 -0.000130427)
(0.000944502 -0.0163329 -8.22093e-05)
(0.000991525 -0.016223 -3.04634e-05)
(0.00103377 -0.016168 2.34137e-05)
(0.00107105 -0.0161583 7.78133e-05)
(0.00110391 -0.0161986 0.000130088)
(0.00113218 -0.0162741 0.000180537)
(0.0011538 -0.0163421 0.000226848)
(0.00116937 -0.0163538 0.00026751)
(0.00117494 -0.0162418 0.000300285)
(0.00117641 -0.0159001 0.000325897)
(0.00116206 -0.0151867 0.000343086)
(0.0011266 -0.0139639 0.000343326)
(0.00104447 -0.0113454 0.000323322)
(0.000872817 -0.00348258 0.000313907)
(0.000750012 0.0127296 0.000397547)
(0.000750943 0.0382874 0.000627665)
(0.000896683 0.0722959 0.000977576)
(0.000818955 0.109737 0.00132117)
(0.000576996 0.148554 0.00141971)
(0.000793299 0.163256 0.0012078)
(0.000490597 0.105865 0.00037989)
(0.000266616 -0.0538585 -0.000106622)
(0.000369182 -0.0933084 -0.000175154)
(0.000251455 -0.0932491 -0.000215325)
(0.000256584 -0.0828636 -0.000234929)
(0.000224511 -0.0677197 -0.000244223)
(0.000228734 -0.0529015 -0.000246523)
(0.000248972 -0.039878 -0.000246186)
(0.000316626 -0.0300314 -0.000240436)
(0.000410173 -0.023551 -0.000220808)
(0.000493042 -0.0201378 -0.000202596)
(0.000556483 -0.0184621 -0.000186043)
(0.000610092 -0.0175679 -0.00016377)
(0.000657683 -0.0170546 -0.000133026)
(0.000699023 -0.0167427 -9.57557e-05)
(0.000735309 -0.0165453 -5.38736e-05)
(0.000766568 -0.0164228 -8.90169e-06)
(0.000792979 -0.0163558 3.77666e-05)
(0.000814301 -0.0163347 8.47207e-05)
(0.000830597 -0.0163618 0.000129964)
(0.0008411 -0.0164216 0.000173424)
(0.000844152 -0.0164744 0.000213248)
(0.000839232 -0.0164719 0.000248234)
(0.000825196 -0.016342 0.000276903)
(0.000802627 -0.015984 0.000299918)
(0.000764804 -0.0152668 0.000316146)
(0.000696715 -0.014014 0.000321723)
(0.000569689 -0.0112244 0.000318223)
(0.000325992 -0.00308389 0.000338186)
(0.00013321 0.0134693 0.000449362)
(1.77375e-05 0.0392562 0.000672979)
(0.000191381 0.0735137 0.000948688)
(0.000283237 0.114423 0.00116735)
(0.000280018 0.145077 0.00135518)
(0.000735257 0.161249 0.00113342)
(0.00058784 0.10581 0.000353705)
(0.000271338 -0.0539086 -8.56292e-05)
(0.000346452 -0.0936109 -0.000145034)
(0.00021847 -0.0933789 -0.000170072)
(0.000225471 -0.0827253 -0.000187526)
(0.000208182 -0.0681955 -0.000201393)
(0.000200454 -0.0529294 -0.000211711)
(0.000212775 -0.0401284 -0.000215985)
(0.00025743 -0.0301857 -0.00020796)
(0.000331075 -0.0236866 -0.000192534)
(0.000402402 -0.0202963 -0.000177573)
(0.000455863 -0.0186174 -0.000163524)
(0.000499813 -0.0177162 -0.000144616)
(0.000537872 -0.0171943 -0.000118347)
(0.000570486 -0.0168731 -8.63225e-05)
(0.000598693 -0.0166659 -5.01423e-05)
(0.000622515 -0.0165327 -1.12265e-05)
(0.000642062 -0.0164543 2.90793e-05)
(0.000657346 -0.016421 6.93899e-05)
(0.000668185 -0.0164337 0.000108072)
(0.000673863 -0.0164762 0.000144762)
(0.000672778 -0.0165096 0.000177777)
(0.000664152 -0.0164889 0.000205856)
(0.000647295 -0.0163426 0.000228852)
(0.000620444 -0.0159587 0.000246468)
(0.000579852 -0.0152135 0.000258682)
(0.000506895 -0.0139136 0.000267701)
(0.000362474 -0.0109579 0.000288123)
(0.000107239 -0.00235026 0.000361)
(-7.15475e-05 0.0149785 0.000519869)
(2.04652e-05 0.0413284 0.000756626)
(0.000188515 0.0727201 0.00104602)
(0.000566799 0.111188 0.00124407)
(0.00070036 0.14645 0.0013212)
(0.000843416 0.16196 0.00110564)
(0.000621837 0.105868 0.00042918)
(0.000245868 -0.0538058 -5.64403e-05)
(0.000362182 -0.093545 -9.97693e-05)
(0.000246974 -0.0938446 -0.000121391)
(0.000248587 -0.0831833 -0.000132532)
(0.0002098 -0.0682134 -0.000149789)
(0.000177197 -0.0532585 -0.000165885)
(0.000161955 -0.0400327 -0.000169109)
(0.000202944 -0.0302536 -0.000164301)
(0.000274834 -0.0238616 -0.000152668)
(0.000338674 -0.0204521 -0.000142042)
(0.000387929 -0.0187657 -0.000131891)
(0.000429516 -0.017858 -0.000118269)
(0.000466343 -0.0173311 -9.89526e-05)
(0.000499259 -0.0170064 -7.50216e-05)
(0.000529271 -0.0167964 -4.7921e-05)
(0.000556139 -0.016661 -1.92475e-05)
(0.000579821 -0.0165815 9.87591e-06)
(0.000600723 -0.0165483 3.81937e-05)
(0.000618962 -0.016561 6.41391e-05)
(0.000634189 -0.0166037 8.70212e-05)
(0.000645651 -0.0166384 0.000105435)
(0.000651337 -0.0166149 0.000118517)
(0.000652373 -0.0164691 0.00012555)
(0.000647067 -0.0160873 0.000126277)
(0.000632938 -0.0153404 0.000120179)
(0.000591052 -0.0140348 0.000106275)
(0.00048142 -0.0110919 8.83863e-05)
(0.000281324 -0.00255459 9.2066e-05)
(0.000226055 0.0141319 0.000183356)
(0.000423151 0.039969 0.000402139)
(0.000595713 0.0738409 0.000662569)
(0.000543036 0.110967 0.000920926)
(0.000508608 0.147218 0.00103918)
(0.000795295 0.161211 0.000920468)
(0.000561122 0.105637 0.000354326)
(0.000313587 -0.0538095 -4.57169e-05)
(0.000430002 -0.0944166 -8.22902e-05)
(0.00023118 -0.0938469 -9.33061e-05)
(0.000184305 -0.0832219 -9.93827e-05)
(0.00014262 -0.0683463 -0.000110379)
(9.63066e-05 -0.0531399 -0.000121217)
(8.16114e-05 -0.040196 -0.000131427)
(0.000111419 -0.0303584 -0.000132389)
(0.000180835 -0.0238925 -0.000125938)
(0.000245597 -0.0205344 -0.000118571)
(0.000292759 -0.0188757 -0.000110065)
(0.000330946 -0.017978 -9.77264e-05)
(0.000363834 -0.0174561 -7.98775e-05)
(0.000392642 -0.0171361 -5.73667e-05)
(0.000418116 -0.0169284 -3.13999e-05)
(0.000440039 -0.0167912 -3.68357e-06)
(0.000458389 -0.0167091 2.46032e-05)
(0.000473528 -0.0166767 5.24904e-05)
(0.000485419 -0.0166917 7.85984e-05)
(0.000493289 -0.0167371 0.000102061)
(0.000496032 -0.016778 0.000121381)
(0.000492452 -0.0167604 0.00013515)
(0.000482796 -0.0166207 0.000143241)
(0.000466039 -0.0162458 0.000145995)
(0.000440331 -0.0155058 0.000144473)
(0.000384628 -0.0142075 0.000139481)
(0.000251756 -0.0112423 0.000136341)
(4.5721e-06 -0.0024529 0.000157224)
(-9.56837e-05 0.014963 0.000222092)
(5.74424e-05 0.0415203 0.000349708)
(0.000309252 0.0758731 0.000538857)
(0.000451545 0.114848 0.000723745)
(0.000502657 0.146259 0.000840126)
(0.00100961 0.162062 0.000716948)
(0.00069589 0.10574 0.00025554)
(0.000318711 -0.0538143 -5.61001e-05)
(0.000397872 -0.0938109 -8.21531e-05)
(0.000169072 -0.0939254 -8.21938e-05)
(0.000150638 -0.0834756 -8.16634e-05)
(9.93893e-05 -0.0683673 -7.98405e-05)
(6.06666e-05 -0.0532126 -8.92892e-05)
(3.85211e-05 -0.0403718 -9.67261e-05)
(6.22473e-05 -0.0303814 -9.58984e-05)
(0.000127408 -0.0239968 -8.89213e-05)
(0.000192617 -0.0206441 -8.32621e-05)
(0.000239955 -0.0189795 -7.81422e-05)
(0.000275547 -0.0180725 -7.01838e-05)
(0.000305265 -0.0175406 -5.75574e-05)
(0.000330628 -0.0172115 -4.08335e-05)
(0.000352237 -0.0169959 -2.09715e-05)
(0.000370362 -0.0168513 6.7985e-07)
(0.000385231 -0.0167622 2.27561e-05)
(0.000396882 -0.0167226 4.41716e-05)
(0.000405142 -0.0167288 6.36631e-05)
(0.000409399 -0.0167599 8.00281e-05)
(0.000408529 -0.0167827 9.18791e-05)
(0.000402247 -0.0167555 9.88309e-05)
(0.000388978 -0.0166055 0.000100435)
(0.00036878 -0.0162219 9.72878e-05)
(0.000337884 -0.0154762 9.08371e-05)
(0.0002724 -0.0141485 8.43844e-05)
(0.000119291 -0.0110963 8.82814e-05)
(-0.000156622 -0.00224987 0.000138587)
(-0.000241476 0.0152857 0.000258786)
(-1.61234e-05 0.0409101 0.00041716)
(0.000347343 0.074845 0.000576918)
(0.00072957 0.113097 0.000707839)
(0.000755283 0.145998 0.000769024)
(0.00106617 0.161577 0.000660728)
(0.000842982 0.106468 0.000291472)
(0.000327349 -0.0539097 -4.99058e-05)
(0.000415279 -0.0938325 -7.63838e-05)
(0.000219094 -0.0938407 -7.09068e-05)
(0.000206488 -0.0834821 -6.22815e-05)
(0.000139138 -0.0688952 -6.13787e-05)
(7.5292e-05 -0.0532127 -6.81621e-05)
(5.48493e-05 -0.0402096 -7.90989e-05)
(7.34637e-05 -0.0303429 -8.18323e-05)
(0.000137147 -0.0240254 -7.91829e-05)
(0.000194324 -0.0207266 -7.57597e-05)
(0.000237546 -0.0190706 -7.3041e-05)
(0.000270647 -0.0181648 -6.85739e-05)
(0.000298797 -0.0176348 -6.04774e-05)
(0.000323316 -0.0173082 -4.90093e-05)
(0.000344644 -0.0170959 -3.49099e-05)
(0.000363613 -0.0169559 -1.92727e-05)
(0.000379838 -0.0168676 -3.69754e-06)
(0.000394552 -0.0168312 1.03958e-05)
(0.000406951 -0.0168441 2.16655e-05)
(0.000416564 -0.0168883 2.9323e-05)
(0.000422029 -0.0169254 3.2214e-05)
(0.000424561 -0.0169198 2.91506e-05)
(0.000420005 -0.0167826 1.99614e-05)
(0.000410935 -0.0164078 4.87721e-06)
(0.000391651 -0.0156634 -1.53599e-05)
(0.000338024 -0.014336 -4.01377e-05)
(0.000202593 -0.0112809 -6.91001e-05)
(-3.63305e-05 -0.00244535 -8.7533e-05)
(-0.000158749 0.0148541 -2.76185e-05)
(-6.18513e-05 0.0415402 0.00013699)
(4.02696e-05 0.0749256 0.000359435)
(0.000389161 0.113322 0.000561292)
(0.0005583 0.149526 0.00061708)
(0.00105604 0.162432 0.000542567)
(0.000761346 0.106979 0.000180123)
(0.000343405 -0.0538644 -4.7735e-05)
(0.000457753 -0.0940741 -7.83504e-05)
(0.000257067 -0.0945674 -6.75964e-05)
(0.000204469 -0.0836589 -5.15545e-05)
(7.98851e-05 -0.0685241 -3.55899e-05)
(-5.63829e-06 -0.0534854 -3.51982e-05)
(-3.42825e-05 -0.0400733 -4.13638e-05)
(-9.89204e-06 -0.0304942 -4.59307e-05)
(5.11613e-05 -0.0240573 -4.46792e-05)
(0.000108286 -0.020776 -4.36832e-05)
(0.00014459 -0.0191179 -4.29386e-05)
(0.00017038 -0.0182102 -4.07441e-05)
(0.000190491 -0.0176749 -3.54772e-05)
(0.000206414 -0.0173404 -2.71306e-05)
(0.00021831 -0.017122 -1.63077e-05)
(0.000226425 -0.0169807 -3.92765e-06)
(0.000231715 -0.0168968 8.42645e-06)
(0.000234196 -0.0168538 1.94036e-05)
(0.000232116 -0.0168619 2.786e-05)
(0.000225407 -0.016897 3.25562e-05)
(0.000212966 -0.01693 3.2336e-05)
(0.000191363 -0.0169129 2.64032e-05)
(0.000163033 -0.01677 1.49715e-05)
(0.000126815 -0.0163873 -6.8301e-07)
(7.98191e-05 -0.015632 -1.75822e-05)
(-2.01735e-06 -0.0142843 -3.12282e-05)
(-0.000178138 -0.0111096 -3.83509e-05)
(-0.000500129 -0.00169277 -1.85839e-05)
(-0.000632181 0.016769 4.83599e-05)
(-0.000434614 0.0436651 0.000171316)
(-5.68487e-05 0.0778087 0.00034278)
(0.00019392 0.112212 0.00052548)
(0.000335682 0.146498 0.000592128)
(0.000871929 0.161733 0.000514758)
(0.000658446 0.106216 0.000200313)
(0.000345478 -0.0537043 -5.62318e-05)
(0.00046748 -0.0941202 -8.55452e-05)
(0.000269879 -0.093914 -7.41305e-05)
(0.000216693 -0.0835815 -4.97781e-05)
(0.000123294 -0.0683461 -3.05593e-05)
(4.82318e-05 -0.0530868 -2.2757e-05)
(7.4386e-06 -0.0401691 -2.22949e-05)
(3.49229e-05 -0.0302963 -2.50401e-05)
(9.23097e-05 -0.024099 -2.71431e-05)
(0.000147337 -0.0207802 -2.86741e-05)
(0.000184613 -0.0191342 -3.08751e-05)
(0.000210964 -0.0182288 -3.23516e-05)
(0.000232471 -0.0176906 -3.11226e-05)
(0.000251207 -0.0173518 -2.66629e-05)
(0.000267577 -0.017128 -1.96163e-05)
(0.000281338 -0.0169794 -1.13662e-05)
(0.000292587 -0.0168866 -3.04207e-06)
(0.000301545 -0.0168398 4.12018e-06)
(0.000309062 -0.016835 8.39193e-06)
(0.000313574 -0.0168552 8.48669e-06)
(0.000314461 -0.0168728 3.15932e-06)
(0.000310668 -0.0168427 -8.34215e-06)
(0.000301145 -0.0166907 -2.60958e-05)
(0.000286038 -0.0163024 -4.93354e-05)
(0.000260808 -0.0155472 -7.63637e-05)
(0.000195237 -0.0141746 -0.000106188)
(3.11337e-05 -0.0109408 -0.000139875)
(-0.00023396 -0.0016868 -0.000155745)
(-0.000231171 0.0158104 -9.19354e-05)
(0.000157377 0.0419575 4.34874e-05)
(0.000717112 0.0753288 0.00021502)
(0.0011141 0.113577 0.000359466)
(0.00098574 0.148071 0.000432441)
(0.00133249 0.163381 0.000363811)
(0.000807345 0.106248 0.000130017)
(0.000411086 -0.0538431 -6.91591e-05)
(0.000533255 -0.0944619 -0.000107218)
(0.000235261 -0.0947618 -9.48349e-05)
(0.000122824 -0.0836221 -6.8911e-05)
(1.20217e-05 -0.0689139 -4.59411e-05)
(-6.83102e-05 -0.0532398 -3.0076e-05)
(-8.9942e-05 -0.0401729 -2.11499e-05)
(-4.8358e-05 -0.0304167 -1.30995e-05)
(1.3756e-05 -0.0240275 -7.14728e-06)
(7.18311e-05 -0.0207948 -5.62652e-06)
(0.000109392 -0.0191574 -8.00262e-06)
(0.000137591 -0.018266 -1.22353e-05)
(0.000160918 -0.0177393 -1.52106e-05)
(0.000181599 -0.0174139 -1.56442e-05)
(0.000200722 -0.0172035 -1.40279e-05)
(0.000217919 -0.0170656 -1.1676e-05)
(0.000233603 -0.0169862 -9.74877e-06)
(0.000248702 -0.016958 -9.5099e-06)
(0.000263208 -0.0169735 -1.24787e-05)
(0.000276688 -0.0170207 -2.00659e-05)
(0.000287458 -0.0170658 -3.33915e-05)
(0.000296354 -0.0170692 -5.37387e-05)
(0.000299253 -0.0169443 -8.06742e-05)
(0.000299143 -0.016583 -0.000113578)
(0.000289154 -0.0158509 -0.000151065)
(0.000239677 -0.0145096 -0.000194096)
(9.77356e-05 -0.0113552 -0.000249685)
(-0.000155992 -0.00217567 -0.000314182)
(-0.000222127 0.0157382 -0.000311209)
(-2.04558e-05 0.0417863 -0.000190217)
(0.000161441 0.0753072 1.49327e-05)
(0.000403428 0.115439 0.000206716)
(0.000592951 0.149791 0.000304977)
(0.0012506 0.164597 0.000250723)
(0.000933504 0.106985 1.747e-05)
(0.000429208 -0.0535793 -9.38082e-05)
(0.000519224 -0.0940825 -0.000115001)
(0.000144344 -0.0938587 -0.000100192)
(2.94953e-05 -0.0834331 -7.18395e-05)
(-9.41542e-05 -0.0683704 -5.0523e-05)
(-0.000195216 -0.0534745 -3.65056e-05)
(-0.000244018 -0.0405542 -3.14204e-05)
(-0.000183521 -0.0303101 -1.81586e-05)
(-8.54669e-05 -0.0240256 -8.66683e-06)
(-2.12944e-05 -0.0208242 -5.63685e-06)
(1.88008e-05 -0.0192024 -7.08129e-06)
(4.3829e-05 -0.0183092 -1.06084e-05)
(6.32483e-05 -0.0177752 -1.29698e-05)
(7.81826e-05 -0.0174442 -1.2961e-05)
(8.93039e-05 -0.0172297 -1.09184e-05)
(9.65045e-05 -0.0170884 -7.81925e-06)
(0.000100247 -0.0170063 -5.02775e-06)
(0.000100622 -0.0169768 -3.92143e-06)
(9.74803e-05 -0.0169917 -5.94398e-06)
(8.98404e-05 -0.0170351 -1.25672e-05)
(7.66342e-05 -0.0170772 -2.5056e-05)
(5.39366e-05 -0.0170717 -4.41457e-05)
(2.33324e-05 -0.0169412 -6.96533e-05)
(-1.63601e-05 -0.0165739 -9.97633e-05)
(-7.07584e-05 -0.0158398 -0.000130663)
(-0.000169597 -0.0145055 -0.000157514)
(-0.000387575 -0.0113032 -0.000180244)
(-0.000785414 -0.00162816 -0.000187)
(-0.000948051 0.0174383 -0.000148576)
(-0.000744869 0.0454373 -4.52742e-05)
(-0.000380055 0.0792327 0.000104475)
(5.4053e-05 0.114492 0.000258601)
(0.000301386 0.148232 0.000341399)
(0.00103671 0.163124 0.000301753)
(0.000847481 0.106593 0.000107373)
(0.000381441 -0.0534914 -7.0904e-05)
(0.00047861 -0.0934784 -7.00151e-05)
(0.000208966 -0.0937751 -5.64279e-05)
(0.000150154 -0.0834674 -3.19188e-05)
(2.51851e-05 -0.0686026 -9.86721e-06)