/*--------------------------------*- C++ -*----------------------------------*\
  =========                 |
  \\      /  F ield         | OpenFOAM: The Open Source CFD Toolbox
   \\    /   O peration     | Website:  https://openfoam.org
    \\  /    A nd           | Version:  13
     \\/     M anipulation  |
\*---------------------------------------------------------------------------*/
FoamFile
{
    format      ascii;
    class       volScalarField;
    location    "185";
    object      rhok;
}
// * * * * * * * * * * * * * * * * * * * * * * * * * * * * * * * * * * * * * //

dimensions      [];

internalField   nonuniform List<scalar> 
315000
(
0.444654
0.430913
0.417667
0.413659
0.412857
0.412282
0.411639
0.410968
0.410285
0.409598
0.40891
0.408221
0.407533
0.406845
0.406157
0.40547
0.404784
0.404098
0.403414
0.40273
0.402048
0.401367
0.400686
0.400008
0.39933
0.398654
0.397979
0.397306
0.396634
0.395964
0.395295
0.394628
0.393962
0.393299
0.392636
0.391975
0.391316
0.390659
0.390003
0.389349
0.388697
0.388046
0.387396
0.386748
0.386102
0.385457
0.384814
0.384172
0.383532
0.382893
0.382255
0.381619
0.380983
0.380349
0.379716
0.379084
0.378453
0.377823
0.377194
0.376566
0.375938
0.375311
0.374685
0.374059
0.373433
0.372808
0.372184
0.371559
0.370935
0.370311
0.444653
0.430908
0.417661
0.413654
0.412855
0.412281
0.411639
0.41097
0.410289
0.409604
0.408917
0.408229
0.407541
0.406853
0.406165
0.405477
0.404791
0.404105
0.403419
0.402735
0.402052
0.40137
0.400689
0.40001
0.399332
0.398655
0.39798
0.397307
0.396634
0.395964
0.395295
0.394627
0.393962
0.393298
0.392635
0.391974
0.391315
0.390658
0.390002
0.389348
0.388695
0.388044
0.387395
0.386747
0.386101
0.385456
0.384813
0.384171
0.383531
0.382891
0.382254
0.381617
0.380982
0.380348
0.379715
0.379083
0.378452
0.377822
0.377193
0.376565
0.375937
0.37531
0.374684
0.374058
0.373433
0.372808
0.372184
0.371559
0.370935
0.370311
0.444648
0.430681
0.417495
0.413582
0.4128
0.412234
0.411604
0.410946
0.410274
0.409596
0.408915
0.40823
0.407545
0.406858
0.406171
0.405484
0.404797
0.404111
0.403425
0.402741
0.402057
0.401374
0.400693
0.400013
0.399334
0.398657
0.397982
0.397308
0.396635
0.395964
0.395295
0.394627
0.393961
0.393297
0.392634
0.391974
0.391314
0.390657
0.390001
0.389346
0.388694
0.388043
0.387393
0.386746
0.386099
0.385455
0.384811
0.38417
0.383529
0.38289
0.382253
0.381616
0.380981
0.380347
0.379714
0.379082
0.378451
0.377821
0.377192
0.376564
0.375937
0.37531
0.374684
0.374058
0.373433
0.372808
0.372183
0.371559
0.370935
0.370311
0.444652
0.43085
0.416492
0.414231
0.413261
0.412456
0.411721
0.411013
0.410316
0.409624
0.408934
0.408244
0.407554
0.406865
0.406176
0.405487
0.4048
0.404112
0.403426
0.402741
0.402057
0.401374
0.400693
0.400013
0.399334
0.398657
0.397981
0.397307
0.396635
0.395964
0.395294
0.394627
0.39396
0.393296
0.392633
0.391972
0.391313
0.390656
0.39
0.389345
0.388693
0.388042
0.387392
0.386744
0.386098
0.385454
0.38481
0.384169
0.383528
0.382889
0.382252
0.381615
0.38098
0.380346
0.379713
0.379081
0.378451
0.377821
0.377192
0.376564
0.375936
0.375309
0.374683
0.374057
0.373432
0.372808
0.372183
0.371559
0.370935
0.370311
0.444652
0.430849
0.416493
0.414231
0.413265
0.412462
0.411727
0.411019
0.410322
0.40963
0.408938
0.408248
0.407557
0.406867
0.406177
0.405488
0.4048
0.404112
0.403426
0.402741
0.402056
0.401373
0.400692
0.400012
0.399333
0.398656
0.39798
0.397306
0.396633
0.395962
0.395293
0.394625
0.393959
0.393295
0.392632
0.391971
0.391312
0.390654
0.389998
0.389344
0.388691
0.38804
0.387391
0.386743
0.386097
0.385452
0.384809
0.384168
0.383527
0.382888
0.382251
0.381614
0.380979
0.380345
0.379712
0.379081
0.37845
0.37782
0.377191
0.376563
0.375936
0.375309
0.374683
0.374057
0.373432
0.372807
0.372183
0.371559
0.370935
0.370311
0.444643
0.430475
0.416224
0.414069
0.413154
0.412386
0.411674
0.410983
0.410298
0.409613
0.408927
0.40824
0.407552
0.406863
0.406174
0.405485
0.404797
0.404109
0.403423
0.402737
0.402053
0.40137
0.400689
0.400008
0.39933
0.398653
0.397977
0.397303
0.39663
0.39596
0.39529
0.394623
0.393957
0.393293
0.39263
0.391969
0.39131
0.390653
0.389997
0.389343
0.38869
0.388039
0.38739
0.386742
0.386096
0.385451
0.384808
0.384167
0.383526
0.382887
0.38225
0.381613
0.380978
0.380345
0.379712
0.37908
0.378449
0.37782
0.377191
0.376562
0.375935
0.375308
0.374682
0.374057
0.373432
0.372807
0.372183
0.371559
0.370935
0.370311
0.444653
0.430904
0.417655
0.413657
0.412856
0.412281
0.411637
0.410967
0.410285
0.409599
0.40891
0.408221
0.407532
0.406844
0.406155
0.405467
0.40478
0.404094
0.403409
0.402725
0.402042
0.40136
0.40068
0.4
0.399323
0.398646
0.397971
0.397298
0.396626
0.395956
0.395287
0.39462
0.393954
0.39329
0.392628
0.391967
0.391308
0.390651
0.389995
0.389341
0.388689
0.388038
0.387389
0.386741
0.386095
0.38545
0.384807
0.384166
0.383525
0.382887
0.382249
0.381613
0.380978
0.380344
0.379711
0.379079
0.378449
0.377819
0.37719
0.376562
0.375935
0.375308
0.374682
0.374057
0.373432
0.372807
0.372183
0.371559
0.370935
0.370311
0.444653
0.430897
0.417636
0.413628
0.412828
0.412253
0.41161
0.41094
0.410258
0.409572
0.408884
0.408196
0.407508
0.406821
0.406134
0.405448
0.404762
0.404077
0.403394
0.402711
0.402029
0.401349
0.40067
0.399991
0.399315
0.398639
0.397965
0.397292
0.396621
0.395951
0.395283
0.394616
0.393951
0.393287
0.392625
0.391965
0.391306
0.390649
0.389993
0.389339
0.388687
0.388036
0.387387
0.38674
0.386094
0.385449
0.384806
0.384165
0.383525
0.382886
0.382248
0.381612
0.380977
0.380343
0.379711
0.379079
0.378448
0.377819
0.37719
0.376562
0.375934
0.375308
0.374682
0.374056
0.373431
0.372807
0.372183
0.371559
0.370935
0.370311
0.444653
0.430888
0.417618
0.413609
0.41281
0.412235
0.411592
0.410921
0.41024
0.409554
0.408867
0.408179
0.407492
0.406805
0.406119
0.405434
0.40475
0.404066
0.403383
0.402701
0.40202
0.401341
0.400662
0.399985
0.399308
0.398633
0.39796
0.397288
0.396617
0.395947
0.395279
0.394613
0.393948
0.393285
0.392623
0.391963
0.391304
0.390647
0.389992
0.389338
0.388686
0.388035
0.387386
0.386739
0.386093
0.385449
0.384806
0.384164
0.383524
0.382885
0.382248
0.381612
0.380977
0.380343
0.37971
0.379079
0.378448
0.377818
0.377189
0.376561
0.375934
0.375308
0.374682
0.374056
0.373431
0.372807
0.372182
0.371558
0.370935
0.370311
0.444653
0.430884
0.417609
0.413598
0.412798
0.412223
0.41158
0.41091
0.410228
0.409543
0.408856
0.408169
0.407482
0.406796
0.406111
0.405426
0.404742
0.404059
0.403376
0.402695
0.402015
0.401335
0.400657
0.39998
0.399304
0.39863
0.397956
0.397284
0.396614
0.395945
0.395277
0.394611
0.393946
0.393283
0.392621
0.391961
0.391303
0.390646
0.389991
0.389337
0.388685
0.388034
0.387386
0.386738
0.386092
0.385448
0.384805
0.384164
0.383523
0.382885
0.382247
0.381611
0.380976
0.380343
0.37971
0.379078
0.378448
0.377818
0.377189
0.376561
0.375934
0.375307
0.374682
0.374056
0.373431
0.372807
0.372182
0.371558
0.370935
0.370311
0.444653
0.430881
0.417605
0.413593
0.412792
0.412217
0.411574
0.410904
0.410222
0.409537
0.40885
0.408163
0.407477
0.406791
0.406106
0.405421
0.404737
0.404054
0.403372
0.402691
0.402011
0.401332
0.400654
0.399977
0.399302
0.398627
0.397954
0.397283
0.396612
0.395943
0.395276
0.394609
0.393945
0.393282
0.39262
0.39196
0.391302
0.390645
0.38999
0.389336
0.388684
0.388034
0.387385
0.386738
0.386092
0.385448
0.384805
0.384163
0.383523
0.382884
0.382247
0.381611
0.380976
0.380342
0.37971
0.379078
0.378448
0.377818
0.377189
0.376561
0.375934
0.375307
0.374681
0.374056
0.373431
0.372807
0.372182
0.371558
0.370935
0.370311
0.444653
0.43088
0.417602
0.41359
0.41279
0.412214
0.411571
0.410901
0.41022
0.409534
0.408848
0.408161
0.407474
0.406788
0.406103
0.405419
0.404735
0.404052
0.40337
0.40269
0.40201
0.401331
0.400653
0.399976
0.399301
0.398626
0.397953
0.397282
0.396611
0.395942
0.395275
0.394609
0.393944
0.393281
0.39262
0.39196
0.391302
0.390645
0.38999
0.389336
0.388684
0.388034
0.387385
0.386737
0.386092
0.385447
0.384804
0.384163
0.383523
0.382884
0.382247
0.381611
0.380976
0.380342
0.37971
0.379078
0.378447
0.377818
0.377189
0.376561
0.375934
0.375307
0.374681
0.374056
0.373431
0.372806
0.372182
0.371558
0.370935
0.370311
0.444653
0.43088
0.417602
0.413589
0.412789
0.412214
0.41157
0.4109
0.410219
0.409533
0.408847
0.40816
0.407473
0.406788
0.406102
0.405418
0.404734
0.404052
0.40337
0.402689
0.402009
0.40133
0.400652
0.399976
0.3993
0.398626
0.397953
0.397281
0.396611
0.395942
0.395274
0.394608
0.393944
0.393281
0.39262
0.39196
0.391301
0.390645
0.389989
0.389336
0.388684
0.388033
0.387385
0.386737
0.386091
0.385447
0.384804
0.384163
0.383523
0.382884
0.382247
0.381611
0.380976
0.380342
0.37971
0.379078
0.378447
0.377818
0.377189
0.376561
0.375934
0.375307
0.374681
0.374056
0.373431
0.372806
0.372182
0.371558
0.370935
0.370311
0.444653
0.43088
0.417602
0.413589
0.412789
0.412214
0.411571
0.4109
0.410219
0.409533
0.408847
0.40816
0.407474
0.406788
0.406103
0.405418
0.404735
0.404052
0.40337
0.402689
0.402009
0.40133
0.400652
0.399976
0.3993
0.398626
0.397953
0.397281
0.396611
0.395942
0.395275
0.394609
0.393944
0.393281
0.39262
0.39196
0.391301
0.390645
0.389989
0.389336
0.388684
0.388033
0.387385
0.386737
0.386092
0.385447
0.384804
0.384163
0.383523
0.382884
0.382247
0.381611
0.380976
0.380342
0.37971
0.379078
0.378447
0.377818
0.377189
0.376561
0.375934
0.375307
0.374681
0.374056
0.373431
0.372806
0.372182
0.371558
0.370935
0.370311
0.444653
0.430881
0.417603
0.413591
0.41279
0.412215
0.411572
0.410901
0.41022
0.409535
0.408848
0.408161
0.407475
0.406789
0.406103
0.405419
0.404735
0.404052
0.403371
0.40269
0.40201
0.401331
0.400653
0.399976
0.399301
0.398626
0.397953
0.397282
0.396611
0.395942
0.395275
0.394609
0.393944
0.393281
0.39262
0.39196
0.391302
0.390645
0.38999
0.389336
0.388684
0.388034
0.387385
0.386737
0.386092
0.385447
0.384804
0.384163
0.383523
0.382884
0.382247
0.381611
0.380976
0.380342
0.37971
0.379078
0.378447
0.377818
0.377189
0.376561
0.375934
0.375307
0.374681
0.374056
0.373431
0.372806
0.372182
0.371558
0.370935
0.370311
0.444653
0.430881
0.417604
0.413592
0.412792
0.412217
0.411574
0.410903
0.410222
0.409536
0.408849
0.408163
0.407476
0.40679
0.406105
0.40542
0.404736
0.404053
0.403371
0.40269
0.40201
0.401331
0.400653
0.399977
0.399301
0.398627
0.397954
0.397282
0.396612
0.395943
0.395275
0.394609
0.393945
0.393282
0.39262
0.39196
0.391302
0.390645
0.38999
0.389336
0.388684
0.388034
0.387385
0.386738
0.386092
0.385447
0.384805
0.384163
0.383523
0.382884
0.382247
0.381611
0.380976
0.380342
0.37971
0.379078
0.378448
0.377818
0.377189
0.376561
0.375934
0.375307
0.374681
0.374056
0.373431
0.372807
0.372182
0.371558
0.370935
0.370311
0.444653
0.430881
0.417605
0.413594
0.412793
0.412218
0.411575
0.410905
0.410223
0.409538
0.408851
0.408164
0.407477
0.406791
0.406106
0.405421
0.404737
0.404054
0.403372
0.402691
0.402011
0.401332
0.400654
0.399977
0.399302
0.398627
0.397954
0.397282
0.396612
0.395943
0.395275
0.394609
0.393945
0.393282
0.39262
0.39196
0.391302
0.390645
0.38999
0.389336
0.388684
0.388034
0.387385
0.386738
0.386092
0.385448
0.384805
0.384163
0.383523
0.382885
0.382247
0.381611
0.380976
0.380342
0.37971
0.379078
0.378448
0.377818
0.377189
0.376561
0.375934
0.375307
0.374681
0.374056
0.373431
0.372807
0.372182
0.371558
0.370935
0.370311
0.444653
0.430881
0.417604
0.413592
0.412792
0.412217
0.411574
0.410903
0.410222
0.409536
0.40885
0.408163
0.407476
0.40679
0.406105
0.405421
0.404737
0.404054
0.403372
0.402691
0.402011
0.401332
0.400654
0.399977
0.399302
0.398627
0.397954
0.397283
0.396612
0.395943
0.395276
0.39461
0.393945
0.393282
0.392621
0.391961
0.391302
0.390646
0.38999
0.389337
0.388685
0.388034
0.387385
0.386738
0.386092
0.385448
0.384805
0.384164
0.383523
0.382885
0.382247
0.381611
0.380976
0.380343
0.37971
0.379078
0.378448
0.377818
0.377189
0.376561
0.375934
0.375308
0.374682
0.374056
0.373431
0.372807
0.372182
0.371558
0.370935
0.370311
0.444653
0.430881
0.417603
0.413591
0.41279
0.412216
0.411572
0.410902
0.410221
0.409536
0.408849
0.408162
0.407476
0.40679
0.406105
0.40542
0.404737
0.404054
0.403372
0.402691
0.402011
0.401332
0.400654
0.399977
0.399302
0.398628
0.397954
0.397283
0.396612
0.395943
0.395276
0.39461
0.393945
0.393282
0.392621
0.391961
0.391303
0.390646
0.389991
0.389337
0.388685
0.388035
0.387386
0.386738
0.386092
0.385448
0.384805
0.384164
0.383524
0.382885
0.382248
0.381611
0.380977
0.380343
0.37971
0.379079
0.378448
0.377818
0.377189
0.376561
0.375934
0.375308
0.374682
0.374056
0.373431
0.372807
0.372182
0.371558
0.370935
0.370311
0.444653
0.430881
0.417604
0.413591
0.412791
0.412216
0.411573
0.410903
0.410222
0.409536
0.40885
0.408163
0.407477
0.406791
0.406106
0.405421
0.404737
0.404055
0.403373
0.402692
0.402012
0.401333
0.400655
0.399978
0.399303
0.398628
0.397955
0.397283
0.396613
0.395944
0.395277
0.39461
0.393946
0.393283
0.392621
0.391961
0.391303
0.390646
0.389991
0.389337
0.388685
0.388035
0.387386
0.386739
0.386093
0.385448
0.384806
0.384164
0.383524
0.382885
0.382248
0.381612
0.380977
0.380343
0.37971
0.379079
0.378448
0.377818
0.37719
0.376562
0.375934
0.375308
0.374682
0.374056
0.373431
0.372807
0.372182
0.371558
0.370935
0.370311
0.444653
0.430883
0.417607
0.413595
0.412795
0.41222
0.411577
0.410907
0.410225
0.40954
0.408854
0.408167
0.40748
0.406794
0.406109
0.405424
0.40474
0.404057
0.403375
0.402694
0.402014
0.401335
0.400657
0.39998
0.399304
0.39863
0.397957
0.397285
0.396614
0.395945
0.395278
0.394612
0.393947
0.393284
0.392622
0.391962
0.391304
0.390647
0.389992
0.389338
0.388686
0.388035
0.387386
0.386739
0.386093
0.385449
0.384806
0.384164
0.383524
0.382886
0.382248
0.381612
0.380977
0.380343
0.379711
0.379079
0.378448
0.377819
0.37719
0.376562
0.375934
0.375308
0.374682
0.374056
0.373431
0.372807
0.372183
0.371559
0.370935
0.370311
0.444653
0.430887
0.417615
0.413605
0.412805
0.41223
0.411587
0.410917
0.410235
0.40955
0.408863
0.408176
0.407489
0.406802
0.406117
0.405432
0.404747
0.404064
0.403381
0.4027
0.402019
0.40134
0.400661
0.399984
0.399308
0.398633
0.39796
0.397288
0.396617
0.395948
0.39528
0.394613
0.393949
0.393285
0.392624
0.391963
0.391305
0.390648
0.389993
0.389339
0.388687
0.388036
0.387387
0.38674
0.386094
0.385449
0.384806
0.384165
0.383525
0.382886
0.382248
0.381612
0.380977
0.380343
0.379711
0.379079
0.378448
0.377819
0.37719
0.376562
0.375935
0.375308
0.374682
0.374056
0.373431
0.372807
0.372183
0.371559
0.370935
0.370311
0.444653
0.430896
0.417634
0.413627
0.412827
0.412253
0.41161
0.410939
0.410257
0.40957
0.408882
0.408194
0.407506
0.406818
0.406131
0.405445
0.40476
0.404075
0.403392
0.402709
0.402028
0.401347
0.400668
0.39999
0.399314
0.398638
0.397964
0.397292
0.39662
0.395951
0.395282
0.394616
0.393951
0.393287
0.392625
0.391965
0.391306
0.390649
0.389994
0.38934
0.388688
0.388037
0.387388
0.38674
0.386094
0.38545
0.384807
0.384165
0.383525
0.382886
0.382249
0.381613
0.380978
0.380344
0.379711
0.379079
0.378449
0.377819
0.37719
0.376562
0.375935
0.375308
0.374682
0.374057
0.373432
0.372807
0.372183
0.371559
0.370935
0.370311
0.444653
0.430901
0.41766
0.413678
0.412881
0.412303
0.411657
0.410984
0.410299
0.409609
0.408917
0.408226
0.407534
0.406844
0.406154
0.405465
0.404778
0.404091
0.403406
0.402721
0.402038
0.401357
0.400676
0.399998
0.39932
0.398644
0.397969
0.397296
0.396624
0.395954
0.395285
0.394618
0.393953
0.393289
0.392627
0.391967
0.391308
0.39065
0.389995
0.389341
0.388688
0.388038
0.387389
0.386741
0.386095
0.38545
0.384807
0.384166
0.383526
0.382887
0.382249
0.381613
0.380978
0.380344
0.379711
0.37908
0.378449
0.377819
0.37719
0.376562
0.375935
0.375308
0.374682
0.374057
0.373432
0.372807
0.372183
0.371559
0.370935
0.370311
0.444633
0.430057
0.41541
0.414
0.413256
0.412526
0.411804
0.411088
0.410377
0.409669
0.408965
0.408264
0.407565
0.406869
0.406175
0.405482
0.404792
0.404103
0.403415
0.40273
0.402045
0.401363
0.400681
0.400002
0.399323
0.398647
0.397972
0.397298
0.396626
0.395956
0.395287
0.39462
0.393954
0.39329
0.392628
0.391967
0.391308
0.390651
0.389995
0.389341
0.388689
0.388038
0.387389
0.386741
0.386095
0.385451
0.384808
0.384166
0.383526
0.382887
0.382249
0.381613
0.380978
0.380344
0.379712
0.37908
0.378449
0.377819
0.37719
0.376562
0.375935
0.375308
0.374682
0.374057
0.373432
0.372807
0.372183
0.371559
0.370935
0.370311
0.444652
0.430835
0.41648
0.414227
0.413263
0.412458
0.41172
0.411009
0.410308
0.409612
0.408918
0.408226
0.407534
0.406843
0.406154
0.405465
0.404777
0.404091
0.403405
0.402721
0.402038
0.401357
0.400677
0.399998
0.39932
0.398644
0.397969
0.397296
0.396624
0.395954
0.395286
0.394619
0.393953
0.39329
0.392628
0.391967
0.391308
0.390651
0.389995
0.389341
0.388689
0.388038
0.387389
0.386741
0.386095
0.385451
0.384808
0.384166
0.383526
0.382887
0.38225
0.381613
0.380978
0.380344
0.379712
0.37908
0.378449
0.377819
0.377191
0.376562
0.375935
0.375308
0.374682
0.374057
0.373432
0.372807
0.372183
0.371559
0.370935
0.370311
0.444652
0.430828
0.416446
0.414183
0.413215
0.41241
0.411673
0.410964
0.410267
0.409574
0.408883
0.408194
0.407506
0.406818
0.406131
0.405445
0.40476
0.404075
0.403392
0.402709
0.402028
0.401348
0.400668
0.399991
0.399314
0.398639
0.397965
0.397292
0.396621
0.395951
0.395283
0.394617
0.393952
0.393288
0.392626
0.391966
0.391307
0.39065
0.389995
0.389341
0.388689
0.388038
0.387389
0.386741
0.386095
0.385451
0.384808
0.384166
0.383526
0.382887
0.38225
0.381613
0.380978
0.380345
0.379712
0.37908
0.378449
0.37782
0.377191
0.376563
0.375935
0.375309
0.374682
0.374057
0.373432
0.372807
0.372183
0.371559
0.370935
0.370311
0.444652
0.430819
0.416426
0.414162
0.413194
0.412388
0.411651
0.410943
0.410246
0.409554
0.408864
0.408176
0.407489
0.406802
0.406117
0.405432
0.404747
0.404064
0.403382
0.4027
0.40202
0.40134
0.400662
0.399985
0.399309
0.398634
0.397961
0.397289
0.396618
0.395949
0.395281
0.394615
0.39395
0.393287
0.392625
0.391965
0.391306
0.390649
0.389994
0.38934
0.388688
0.388038
0.387389
0.386741
0.386095
0.385451
0.384808
0.384166
0.383526
0.382887
0.38225
0.381614
0.380979
0.380345
0.379712
0.37908
0.37845
0.37782
0.377191
0.376563
0.375935
0.375309
0.374683
0.374057
0.373432
0.372807
0.372183
0.371559
0.370935
0.370311
0.444652
0.430815
0.416417
0.414152
0.413184
0.412378
0.411641
0.410933
0.410236
0.409544
0.408855
0.408167
0.40748
0.406794
0.406109
0.405425
0.404741
0.404058
0.403376
0.402695
0.402015
0.401336
0.400658
0.399981
0.399306
0.398631
0.397958
0.397286
0.396616
0.395947
0.395279
0.394613
0.393949
0.393286
0.392624
0.391964
0.391306
0.390649
0.389994
0.38934
0.388688
0.388038
0.387389
0.386741
0.386095
0.385451
0.384808
0.384166
0.383526
0.382887
0.38225
0.381614
0.380979
0.380345
0.379712
0.37908
0.37845
0.37782
0.377191
0.376563
0.375935
0.375309
0.374683
0.374057
0.373432
0.372807
0.372183
0.371559
0.370935
0.370311
0.444652
0.430813
0.416414
0.414148
0.41318
0.412374
0.411637
0.410929
0.410232
0.40954
0.408851
0.408163
0.407477
0.406791
0.406106
0.405421
0.404738
0.404055
0.403373
0.402692
0.402013
0.401334
0.400656
0.399979
0.399304
0.39863
0.397957
0.397285
0.396615
0.395946
0.395279
0.394613
0.393948
0.393285
0.392624
0.391964
0.391306
0.390649
0.389994
0.38934
0.388688
0.388038
0.387389
0.386741
0.386095
0.385451
0.384808
0.384166
0.383526
0.382888
0.38225
0.381614
0.380979
0.380345
0.379712
0.37908
0.37845
0.37782
0.377191
0.376563
0.375935
0.375309
0.374683
0.374057
0.373432
0.372807
0.372183
0.371559
0.370935
0.370311
0.444652
0.430813
0.416413
0.414147
0.413178
0.412373
0.411636
0.410927
0.41023
0.409539
0.40885
0.408162
0.407475
0.406789
0.406104
0.40542
0.404737
0.404054
0.403372
0.402691
0.402012
0.401333
0.400655
0.399979
0.399303
0.398629
0.397956
0.397285
0.396615
0.395946
0.395278
0.394613
0.393948
0.393285
0.392624
0.391964
0.391306
0.390649
0.389994
0.38934
0.388688
0.388038
0.387389
0.386741
0.386095
0.385451
0.384808
0.384167
0.383526
0.382888
0.38225
0.381614
0.380979
0.380345
0.379712
0.379081
0.37845
0.37782
0.377191
0.376563
0.375936
0.375309
0.374683
0.374057
0.373432
0.372807
0.372183
0.371559
0.370935
0.370311
0.444652
0.430813
0.416412
0.414147
0.413178
0.412372
0.411635
0.410927
0.41023
0.409538
0.408849
0.408162
0.407475
0.406789
0.406104
0.40542
0.404736
0.404054
0.403372
0.402691
0.402011
0.401333
0.400655
0.399979
0.399303
0.398629
0.397956
0.397285
0.396615
0.395946
0.395279
0.394613
0.393948
0.393285
0.392624
0.391964
0.391306
0.390649
0.389994
0.38934
0.388688
0.388038
0.387389
0.386741
0.386096
0.385451
0.384808
0.384167
0.383527
0.382888
0.38225
0.381614
0.380979
0.380345
0.379712
0.379081
0.37845
0.37782
0.377191
0.376563
0.375936
0.375309
0.374683
0.374057
0.373432
0.372807
0.372183
0.371559
0.370935
0.370311
0.444652
0.430813
0.416412
0.414147
0.413178
0.412372
0.411635
0.410927
0.41023
0.409538
0.408849
0.408162
0.407475
0.406789
0.406104
0.40542
0.404736
0.404054
0.403372
0.402691
0.402011
0.401333
0.400655
0.399979
0.399303
0.398629
0.397956
0.397285
0.396615
0.395946
0.395279
0.394613
0.393948
0.393285
0.392624
0.391964
0.391306
0.390649
0.389994
0.38934
0.388688
0.388038
0.387389
0.386742
0.386096
0.385451
0.384808
0.384167
0.383527
0.382888
0.38225
0.381614
0.380979
0.380345
0.379712
0.379081
0.37845
0.37782
0.377191
0.376563
0.375936
0.375309
0.374683
0.374057
0.373432
0.372807
0.372183
0.371559
0.370935
0.370311
0.444652
0.430813
0.416412
0.414147
0.413178
0.412372
0.411635
0.410927
0.41023
0.409538
0.408849
0.408162
0.407475
0.406789
0.406104
0.40542
0.404736
0.404054
0.403372
0.402691
0.402012
0.401333
0.400655
0.399979
0.399303
0.398629
0.397957
0.397285
0.396615
0.395946
0.395279
0.394613
0.393948
0.393286
0.392624
0.391964
0.391306
0.390649
0.389994
0.389341
0.388689
0.388038
0.387389
0.386742
0.386096
0.385451
0.384808
0.384167
0.383527
0.382888
0.38225
0.381614
0.380979
0.380345
0.379713
0.379081
0.37845
0.37782
0.377191
0.376563
0.375936
0.375309
0.374683
0.374057
0.373432
0.372807
0.372183
0.371559
0.370935
0.370311
0.444652
0.430813
0.416413
0.414147
0.413178
0.412372
0.411635
0.410927
0.41023
0.409538
0.408849
0.408162
0.407475
0.406789
0.406104
0.40542
0.404736
0.404054
0.403372
0.402691
0.402012
0.401333
0.400655
0.399979
0.399304
0.398629
0.397957
0.397285
0.396615
0.395946
0.395279
0.394613
0.393949
0.393286
0.392624
0.391964
0.391306
0.390649
0.389994
0.389341
0.388689
0.388038
0.387389
0.386742
0.386096
0.385452
0.384809
0.384167
0.383527
0.382888
0.382251
0.381614
0.380979
0.380345
0.379713
0.379081
0.37845
0.37782
0.377191
0.376563
0.375936
0.375309
0.374683
0.374057
0.373432
0.372807
0.372183
0.371559
0.370935
0.370311
0.444652
0.430813
0.416413
0.414147
0.413178
0.412372
0.411636
0.410927
0.41023
0.409539
0.408849
0.408162
0.407475
0.406789
0.406104
0.40542
0.404737
0.404054
0.403372
0.402692
0.402012
0.401333
0.400655
0.399979
0.399304
0.39863
0.397957
0.397285
0.396615
0.395946
0.395279
0.394613
0.393949
0.393286
0.392624
0.391964
0.391306
0.390649
0.389994
0.389341
0.388689
0.388038
0.387389
0.386742
0.386096
0.385452
0.384809
0.384167
0.383527
0.382888
0.382251
0.381614
0.380979
0.380345
0.379713
0.379081
0.37845
0.37782
0.377191
0.376563
0.375936
0.375309
0.374683
0.374057
0.373432
0.372807
0.372183
0.371559
0.370935
0.370311
0.444652
0.430813
0.416413
0.414147
0.413178
0.412373
0.411636
0.410927
0.41023
0.409539
0.40885
0.408162
0.407475
0.406789
0.406104
0.40542
0.404737
0.404054
0.403372
0.402692
0.402012
0.401333
0.400656
0.399979
0.399304
0.39863
0.397957
0.397285
0.396615
0.395946
0.395279
0.394613
0.393949
0.393286
0.392624
0.391965
0.391306
0.39065
0.389994
0.389341
0.388689
0.388038
0.387389
0.386742
0.386096
0.385452
0.384809
0.384167
0.383527
0.382888
0.382251
0.381614
0.380979
0.380345
0.379713
0.379081
0.37845
0.37782
0.377191
0.376563
0.375936
0.375309
0.374683
0.374057
0.373432
0.372807
0.372183
0.371559
0.370935
0.370311
0.444652
0.430813
0.416413
0.414147
0.413178
0.412373
0.411636
0.410927
0.41023
0.409539
0.40885
0.408162
0.407475
0.406789
0.406104
0.40542
0.404737
0.404054
0.403372
0.402692
0.402012
0.401333
0.400656
0.399979
0.399304
0.39863
0.397957
0.397285
0.396615
0.395946
0.395279
0.394613
0.393949
0.393286
0.392624
0.391965
0.391306
0.39065
0.389994
0.389341
0.388689
0.388038
0.387389
0.386742
0.386096
0.385452
0.384809
0.384167
0.383527
0.382888
0.382251
0.381614
0.380979
0.380346
0.379713
0.379081
0.37845
0.37782
0.377191
0.376563
0.375936
0.375309
0.374683
0.374057
0.373432
0.372807
0.372183
0.371559
0.370935
0.370311
0.444652
0.430813
0.416413
0.414147
0.413178
0.412373
0.411636
0.410927
0.41023
0.409539
0.40885
0.408162
0.407475
0.406789
0.406104
0.40542
0.404737
0.404054
0.403372
0.402692
0.402012
0.401333
0.400656
0.399979
0.399304
0.39863
0.397957
0.397285
0.396615
0.395947
0.395279
0.394613
0.393949
0.393286
0.392625
0.391965
0.391306
0.39065
0.389994
0.389341
0.388689
0.388038
0.387389
0.386742
0.386096
0.385452
0.384809
0.384167
0.383527
0.382888
0.382251
0.381614
0.380979
0.380346
0.379713
0.379081
0.37845
0.37782
0.377191
0.376563
0.375936
0.375309
0.374683
0.374057
0.373432
0.372807
0.372183
0.371559
0.370935
0.370311
0.444652
0.430813
0.416413
0.414147
0.413178
0.412373
0.411636
0.410927
0.41023
0.409539
0.40885
0.408162
0.407475
0.40679
0.406104
0.40542
0.404737
0.404054
0.403373
0.402692
0.402012
0.401333
0.400656
0.399979
0.399304
0.39863
0.397957
0.397286
0.396615
0.395947
0.395279
0.394613
0.393949
0.393286
0.392625
0.391965
0.391306
0.39065
0.389995
0.389341
0.388689
0.388038
0.38739
0.386742
0.386096
0.385452
0.384809
0.384167
0.383527
0.382888
0.382251
0.381615
0.380979
0.380346
0.379713
0.379081
0.37845
0.37782
0.377191
0.376563
0.375936
0.375309
0.374683
0.374057
0.373432
0.372807
0.372183
0.371559
0.370935
0.370311
0.444652
0.430813
0.416413
0.414147
0.413178
0.412373
0.411636
0.410927
0.41023
0.409539
0.40885
0.408162
0.407475
0.40679
0.406104
0.40542
0.404737
0.404054
0.403373
0.402692
0.402012
0.401333
0.400656
0.399979
0.399304
0.39863
0.397957
0.397286
0.396615
0.395947
0.395279
0.394613
0.393949
0.393286
0.392625
0.391965
0.391306
0.39065
0.389995
0.389341
0.388689
0.388038
0.38739
0.386742
0.386096
0.385452
0.384809
0.384167
0.383527
0.382888
0.382251
0.381615
0.380979
0.380346
0.379713
0.379081
0.37845
0.37782
0.377191
0.376563
0.375936
0.375309
0.374683
0.374057
0.373432
0.372807
0.372183
0.371559
0.370935
0.370311
0.444652
0.430813
0.416413
0.414147
0.413178
0.412373
0.411636
0.410927
0.41023
0.409539
0.40885
0.408162
0.407475
0.40679
0.406105
0.40542
0.404737
0.404054
0.403373
0.402692
0.402012
0.401333
0.400656
0.399979
0.399304
0.39863
0.397957
0.397286
0.396615
0.395947
0.395279
0.394613
0.393949
0.393286
0.392625
0.391965
0.391306
0.39065
0.389995
0.389341
0.388689
0.388038
0.38739
0.386742
0.386096
0.385452
0.384809
0.384167
0.383527
0.382888
0.382251
0.381615
0.380979
0.380346
0.379713
0.379081
0.37845
0.37782
0.377191
0.376563
0.375936
0.375309
0.374683
0.374057
0.373432
0.372807
0.372183
0.371559
0.370935
0.370311
0.444652
0.430813
0.416413
0.414147
0.413178
0.412373
0.411636
0.410927
0.41023
0.409539
0.40885
0.408162
0.407475
0.40679
0.406105
0.40542
0.404737
0.404054
0.403373
0.402692
0.402012
0.401333
0.400656
0.399979
0.399304
0.39863
0.397957
0.397286
0.396615
0.395947
0.395279
0.394613
0.393949
0.393286
0.392625
0.391965
0.391306
0.39065
0.389995
0.389341
0.388689
0.388038
0.38739
0.386742
0.386096
0.385452
0.384809
0.384167
0.383527
0.382888
0.382251
0.381615
0.38098
0.380346
0.379713
0.379081
0.37845
0.37782
0.377191
0.376563
0.375936
0.375309
0.374683
0.374057
0.373432
0.372807
0.372183
0.371559
0.370935
0.370311
0.444652
0.430813
0.416413
0.414147
0.413178
0.412373
0.411636
0.410927
0.41023
0.409539
0.40885
0.408162
0.407475
0.40679
0.406105
0.40542
0.404737
0.404054
0.403373
0.402692
0.402012
0.401333
0.400656
0.399979
0.399304
0.39863
0.397957
0.397286
0.396615
0.395947
0.395279
0.394613
0.393949
0.393286
0.392625
0.391965
0.391306
0.39065
0.389995
0.389341
0.388689
0.388038
0.38739
0.386742
0.386096
0.385452
0.384809
0.384167
0.383527
0.382888
0.382251
0.381615
0.38098
0.380346
0.379713
0.379081
0.37845
0.37782
0.377191
0.376563
0.375936
0.375309
0.374683
0.374057
0.373432
0.372807
0.372183
0.371559
0.370935
0.370311
0.444652
0.430813
0.416413
0.414147
0.413178
0.412373
0.411636
0.410927
0.41023
0.409539
0.40885
0.408162
0.407475
0.40679
0.406105
0.40542
0.404737
0.404054
0.403373
0.402692
0.402012
0.401333
0.400656
0.399979
0.399304
0.39863
0.397957
0.397286
0.396615
0.395947
0.395279
0.394613
0.393949
0.393286
0.392625
0.391965
0.391306
0.39065
0.389995
0.389341
0.388689
0.388038
0.38739
0.386742
0.386096
0.385452
0.384809
0.384167
0.383527
0.382888
0.382251
0.381615
0.38098
0.380346
0.379713
0.379081
0.37845
0.37782
0.377191
0.376563
0.375936
0.375309
0.374683
0.374057
0.373432
0.372807
0.372183
0.371559
0.370935
0.370311
0.444652
0.430813
0.416413
0.414147
0.413178
0.412373
0.411636
0.410927
0.41023
0.409539
0.40885
0.408162
0.407475
0.40679
0.406105
0.40542
0.404737
0.404054
0.403373
0.402692
0.402012
0.401333
0.400656
0.399979
0.399304
0.39863
0.397957
0.397286
0.396615
0.395947
0.395279
0.394613
0.393949
0.393286
0.392625
0.391965
0.391306
0.39065
0.389995
0.389341
0.388689
0.388039
0.38739
0.386742
0.386096
0.385452
0.384809
0.384167
0.383527
0.382888
0.382251
0.381615
0.38098
0.380346
0.379713
0.379081
0.37845
0.37782
0.377191
0.376563
0.375936
0.375309
0.374683
0.374057
0.373432
0.372807
0.372183
0.371559
0.370935
0.370311
0.444652
0.430813
0.416413
0.414147
0.413178
0.412373
0.411636
0.410927
0.41023
0.409539
0.40885
0.408162
0.407475
0.40679
0.406105
0.40542
0.404737
0.404054
0.403373
0.402692
0.402012
0.401333
0.400656
0.399979
0.399304
0.39863
0.397957
0.397286
0.396615
0.395947
0.395279
0.394613
0.393949
0.393286
0.392625
0.391965
0.391306
0.39065
0.389995
0.389341
0.388689
0.388039
0.38739
0.386742
0.386096
0.385452
0.384809
0.384167
0.383527
0.382888
0.382251
0.381615
0.38098
0.380346
0.379713
0.379081
0.37845
0.37782
0.377191
0.376563
0.375936
0.375309
0.374683
0.374057
0.373432
0.372807
0.372183
0.371559
0.370935
0.370311
0.444652
0.430813
0.416413
0.414147
0.413178
0.412373
0.411636
0.410927
0.41023