/*--------------------------------*- C++ -*----------------------------------*\
  =========                 |
  \\      /  F ield         | OpenFOAM: The Open Source CFD Toolbox
   \\    /   O peration     | Website:  https://openfoam.org
    \\  /    A nd           | Version:  13
     \\/     M anipulation  |
\*---------------------------------------------------------------------------*/
FoamFile
{
    format      ascii;
    class       volScalarField;
    location    "170";
    object      rhok;
}
// * * * * * * * * * * * * * * * * * * * * * * * * * * * * * * * * * * * * * //

dimensions      [];

internalField   nonuniform List<scalar> 
315000
(
0.444632
0.430028
0.415401
0.414001
0.413268
0.412536
0.411807
0.41108
0.410355
0.409633
0.408912
0.408194
0.407479
0.406765
0.406054
0.405345
0.404639
0.403935
0.403234
0.402535
0.401838
0.401144
0.400453
0.399764
0.399077
0.398393
0.397712
0.397033
0.396356
0.395682
0.39501
0.394341
0.393674
0.39301
0.392348
0.391688
0.391031
0.390376
0.389723
0.389072
0.388424
0.387778
0.387134
0.386492
0.385851
0.385213
0.384577
0.383942
0.38331
0.382679
0.382049
0.381421
0.380795
0.38017
0.379547
0.378925
0.378304
0.377684
0.377065
0.376447
0.37583
0.375214
0.374599
0.373984
0.37337
0.372757
0.372143
0.371531
0.370918
0.370305
0.444632
0.430027
0.415399
0.413999
0.413265
0.412534
0.411805
0.411078
0.410353
0.40963
0.40891
0.408192
0.407476
0.406762
0.406051
0.405343
0.404636
0.403932
0.403231
0.402532
0.401836
0.401142
0.40045
0.399761
0.399074
0.39839
0.397709
0.39703
0.396353
0.395679
0.395008
0.394338
0.393672
0.393007
0.392345
0.391686
0.391028
0.390373
0.389721
0.38907
0.388422
0.387776
0.387131
0.386489
0.385849
0.385211
0.384575
0.38394
0.383308
0.382677
0.382048
0.38142
0.380794
0.380169
0.379545
0.378923
0.378302
0.377683
0.377064
0.376446
0.37583
0.375214
0.374598
0.373984
0.37337
0.372756
0.372143
0.37153
0.370918
0.370305
0.444632
0.430026
0.415397
0.413997
0.413263
0.412532
0.411803
0.411076
0.410351
0.409628
0.408908
0.408189
0.407474
0.40676
0.406049
0.40534
0.404634
0.40393
0.403229
0.40253
0.401833
0.401139
0.400448
0.399759
0.399072
0.398388
0.397706
0.397027
0.396351
0.395677
0.395005
0.394336
0.393669
0.393005
0.392343
0.391683
0.391026
0.390371
0.389719
0.389068
0.38842
0.387774
0.387129
0.386487
0.385847
0.385209
0.384573
0.383939
0.383306
0.382675
0.382046
0.381418
0.380792
0.380168
0.379544
0.378922
0.378301
0.377682
0.377063
0.376446
0.375829
0.375213
0.374598
0.373983
0.373369
0.372756
0.372143
0.37153
0.370918
0.370305
0.444632
0.430026
0.415395
0.413995
0.413261
0.41253
0.411801
0.411074
0.410349
0.409626
0.408906
0.408187
0.407472
0.406758
0.406047
0.405338
0.404632
0.403928
0.403226
0.402527
0.401831
0.401137
0.400445
0.399756
0.39907
0.398386
0.397704
0.397025
0.396349
0.395675
0.395003
0.394334
0.393667
0.393003
0.392341
0.391682
0.391024
0.390369
0.389717
0.389066
0.388418
0.387772
0.387128
0.386486
0.385846
0.385208
0.384572
0.383937
0.383305
0.382674
0.382045
0.381417
0.380791
0.380166
0.379543
0.378921
0.3783
0.377681
0.377062
0.376445
0.375828
0.375212
0.374597
0.373983
0.373369
0.372756
0.372143
0.37153
0.370918
0.370305
0.444632
0.430025
0.415394
0.413993
0.41326
0.412529
0.411799
0.411072
0.410347
0.409624
0.408904
0.408186
0.40747
0.406756
0.406045
0.405336
0.40463
0.403926
0.403225
0.402526
0.401829
0.401135
0.400444
0.399755
0.399068
0.398384
0.397703
0.397024
0.396347
0.395673
0.395001
0.394332
0.393666
0.393001
0.392339
0.39168
0.391023
0.390368
0.389715
0.389065
0.388416
0.38777
0.387126
0.386484
0.385844
0.385206
0.38457
0.383936
0.383304
0.382673
0.382044
0.381416
0.38079
0.380165
0.379542
0.37892
0.3783
0.37768
0.377062
0.376444
0.375828
0.375212
0.374597
0.373982
0.373369
0.372755
0.372142
0.37153
0.370917
0.370305
0.444632
0.430024
0.415393
0.413992
0.413259
0.412527
0.411798
0.411071
0.410346
0.409623
0.408902
0.408184
0.407468
0.406755
0.406044
0.405335
0.404629
0.403925
0.403223
0.402524
0.401828
0.401134
0.400442
0.399753
0.399067
0.398383
0.397701
0.397022
0.396345
0.395671
0.395
0.394331
0.393664
0.393
0.392338
0.391678
0.391021
0.390366
0.389714
0.389063
0.388415
0.387769
0.387125
0.386483
0.385843
0.385205
0.384569
0.383935
0.383302
0.382672
0.382043
0.381415
0.380789
0.380165
0.379541
0.37892
0.378299
0.377679
0.377061
0.376444
0.375827
0.375211
0.374596
0.373982
0.373368
0.372755
0.372142
0.37153
0.370917
0.370305
0.444632
0.430024
0.415392
0.413991
0.413258
0.412526
0.411797
0.41107
0.410345
0.409622
0.408901
0.408183
0.407467
0.406754
0.406042
0.405334
0.404627
0.403923
0.403222
0.402523
0.401826
0.401132
0.400441
0.399752
0.399065
0.398381
0.3977
0.397021
0.396344
0.39567
0.394999
0.39433
0.393663
0.392999
0.392337
0.391677
0.39102
0.390365
0.389713
0.389062
0.388414
0.387768
0.387124
0.386482
0.385842
0.385204
0.384568
0.383934
0.383302
0.382671
0.382042
0.381414
0.380788
0.380164
0.379541
0.378919
0.378298
0.377679
0.377061
0.376443
0.375827
0.375211
0.374596
0.373982
0.373368
0.372755
0.372142
0.37153
0.370917
0.370305
0.444632
0.430023
0.415391
0.41399
0.413257
0.412525
0.411796
0.411069
0.410344
0.409621
0.4089
0.408182
0.407466
0.406753
0.406041
0.405333
0.404626
0.403922
0.403221
0.402522
0.401825
0.401131
0.40044
0.399751
0.399064
0.39838
0.397699
0.39702
0.396343
0.395669
0.394998
0.394329
0.393662
0.392998
0.392336
0.391676
0.391019
0.390364
0.389712
0.389061
0.388413
0.387767
0.387123
0.386481
0.385841
0.385204
0.384568
0.383933
0.383301
0.38267
0.382041
0.381414
0.380788
0.380163
0.37954
0.378919
0.378298
0.377679
0.37706
0.376443
0.375826
0.375211
0.374596
0.373982
0.373368
0.372755
0.372142
0.37153
0.370917
0.370305
0.444632
0.430023
0.41539
0.41399
0.413256
0.412525
0.411795
0.411068
0.410343
0.40962
0.4089
0.408181
0.407466
0.406752
0.406041
0.405332
0.404626
0.403922
0.40322
0.402521
0.401825
0.401131
0.400439
0.39975
0.399063
0.398379
0.397698
0.397019
0.396342
0.395668
0.394997
0.394328
0.393661
0.392997
0.392335
0.391676
0.391018
0.390364
0.389711
0.389061
0.388413
0.387767
0.387123
0.386481
0.385841
0.385203
0.384567
0.383933
0.3833
0.38267
0.382041
0.381413
0.380787
0.380163
0.37954
0.378918
0.378298
0.377678
0.37706
0.376443
0.375826
0.37521
0.374596
0.373981
0.373368
0.372755
0.372142
0.371529
0.370917
0.370305
0.444632
0.430023
0.41539
0.413989
0.413256
0.412524
0.411795
0.411068
0.410343
0.40962
0.408899
0.408181
0.407465
0.406751
0.40604
0.405331
0.404625
0.403921
0.40322
0.402521
0.401824
0.40113
0.400438
0.399749
0.399063
0.398379
0.397697
0.397018
0.396342
0.395668
0.394996
0.394327
0.393661
0.392996
0.392335
0.391675
0.391018
0.390363
0.389711
0.38906
0.388412
0.387766
0.387122
0.38648
0.38584
0.385203
0.384567
0.383932
0.3833
0.382669
0.38204
0.381413
0.380787
0.380163
0.37954
0.378918
0.378297
0.377678
0.37706
0.376442
0.375826
0.37521
0.374595
0.373981
0.373368
0.372755
0.372142
0.371529
0.370917
0.370305
0.444632
0.430023
0.41539
0.413989
0.413255
0.412524
0.411795
0.411067
0.410342
0.409619
0.408899
0.408181
0.407465
0.406751
0.40604
0.405331
0.404625
0.403921
0.403219
0.40252
0.401824
0.40113
0.400438
0.399749
0.399063
0.398379
0.397697
0.397018
0.396342
0.395668
0.394996
0.394327
0.39366
0.392996
0.392334
0.391675
0.391018
0.390363
0.38971
0.38906
0.388412
0.387766
0.387122
0.38648
0.38584
0.385202
0.384566
0.383932
0.3833
0.382669
0.38204
0.381413
0.380787
0.380163
0.379539
0.378918
0.378297
0.377678
0.37706
0.376442
0.375826
0.37521
0.374595
0.373981
0.373368
0.372755
0.372142
0.371529
0.370917
0.370305
0.444632
0.430023
0.415389
0.413989
0.413255
0.412524
0.411794
0.411067
0.410342
0.409619
0.408899
0.408181
0.407465
0.406751
0.40604
0.405331
0.404625
0.403921
0.403219
0.40252
0.401824
0.401129
0.400438
0.399749
0.399062
0.398378
0.397697
0.397018
0.396341
0.395667
0.394996
0.394327
0.39366
0.392996
0.392334
0.391675
0.391017
0.390363
0.38971
0.38906
0.388412
0.387766
0.387122
0.38648
0.38584
0.385202
0.384566
0.383932
0.3833
0.382669
0.38204
0.381413
0.380787
0.380162
0.379539
0.378918
0.378297
0.377678
0.377059
0.376442
0.375826
0.37521
0.374595
0.373981
0.373368
0.372754
0.372142
0.371529
0.370917
0.370305
0.444632
0.430023
0.415389
0.413989
0.413255
0.412524
0.411794
0.411067
0.410342
0.409619
0.408899
0.40818
0.407465
0.406751
0.40604
0.405331
0.404625
0.403921
0.403219
0.40252
0.401823
0.401129
0.400438
0.399749
0.399062
0.398378
0.397697
0.397018
0.396341
0.395667
0.394996
0.394327
0.39366
0.392996
0.392334
0.391675
0.391017
0.390363
0.38971
0.38906
0.388412
0.387766
0.387122
0.38648
0.38584
0.385202
0.384566
0.383932
0.3833
0.382669
0.38204
0.381413
0.380787
0.380162
0.379539
0.378918
0.378297
0.377678
0.377059
0.376442
0.375826
0.37521
0.374595
0.373981
0.373368
0.372754
0.372142
0.371529
0.370917
0.370305
0.444632
0.430023
0.41539
0.413989
0.413255
0.412524
0.411794
0.411067
0.410342
0.409619
0.408899
0.408181
0.407465
0.406751
0.40604
0.405331
0.404625
0.403921
0.403219
0.40252
0.401824
0.40113
0.400438
0.399749
0.399062
0.398378
0.397697
0.397018
0.396341
0.395667
0.394996
0.394327
0.39366
0.392996
0.392334
0.391675
0.391017
0.390363
0.38971
0.38906
0.388412
0.387766
0.387122
0.38648
0.38584
0.385202
0.384566
0.383932
0.3833
0.382669
0.38204
0.381413
0.380787
0.380162
0.379539
0.378918
0.378297
0.377678
0.377059
0.376442
0.375826
0.37521
0.374595
0.373981
0.373368
0.372754
0.372142
0.371529
0.370917
0.370305
0.444632
0.430023
0.41539
0.413989
0.413256
0.412524
0.411795
0.411067
0.410342
0.40962
0.408899
0.408181
0.407465
0.406751
0.40604
0.405331
0.404625
0.403921
0.403219
0.40252
0.401824
0.40113
0.400438
0.399749
0.399063
0.398379
0.397697
0.397018
0.396342
0.395668
0.394996
0.394327
0.39366
0.392996
0.392334
0.391675
0.391018
0.390363
0.38971
0.38906
0.388412
0.387766
0.387122
0.38648
0.38584
0.385202
0.384566
0.383932
0.3833
0.382669
0.38204
0.381413
0.380787
0.380162
0.379539
0.378918
0.378297
0.377678
0.377059
0.376442
0.375826
0.37521
0.374595
0.373981
0.373368
0.372754
0.372142
0.371529
0.370917
0.370305
0.444632
0.430023
0.41539
0.413989
0.413256
0.412524
0.411795
0.411068
0.410343
0.40962
0.408899
0.408181
0.407465
0.406751
0.40604
0.405331
0.404625
0.403921
0.40322
0.402521
0.401824
0.40113
0.400438
0.399749
0.399063
0.398379
0.397697
0.397018
0.396342
0.395668
0.394996
0.394327
0.393661
0.392996
0.392334
0.391675
0.391018
0.390363
0.38971
0.38906
0.388412
0.387766
0.387122
0.38648
0.38584
0.385202
0.384566
0.383932
0.3833
0.382669
0.38204
0.381413
0.380787
0.380163
0.37954
0.378918
0.378297
0.377678
0.37706
0.376442
0.375826
0.37521
0.374595
0.373981
0.373368
0.372755
0.372142
0.371529
0.370917
0.370305
0.444632
0.430023
0.41539
0.41399
0.413256
0.412525
0.411795
0.411068
0.410343
0.40962
0.4089
0.408181
0.407465
0.406752
0.406041
0.405332
0.404625
0.403921
0.40322
0.402521
0.401824
0.40113
0.400439
0.39975
0.399063
0.398379
0.397698
0.397019
0.396342
0.395668
0.394997
0.394328
0.393661
0.392997
0.392335
0.391675
0.391018
0.390363
0.389711
0.38906
0.388412
0.387766
0.387122
0.38648
0.385841
0.385203
0.384567
0.383933
0.3833
0.38267
0.382041
0.381413
0.380787
0.380163
0.37954
0.378918
0.378297
0.377678
0.37706
0.376442
0.375826
0.37521
0.374596
0.373981
0.373368
0.372755
0.372142
0.371529
0.370917
0.370305
0.444632
0.430023
0.41539
0.41399
0.413256
0.412525
0.411796
0.411068
0.410343
0.409621
0.4089
0.408182
0.407466
0.406752
0.406041
0.405332
0.404626
0.403922
0.40322
0.402521
0.401825
0.401131
0.400439
0.39975
0.399064
0.39838
0.397698
0.397019
0.396343
0.395669
0.394997
0.394328
0.393661
0.392997
0.392335
0.391676
0.391019
0.390364
0.389711
0.389061
0.388413
0.387767
0.387123
0.386481
0.385841
0.385203
0.384567
0.383933
0.3833
0.38267
0.382041
0.381413
0.380787
0.380163
0.37954
0.378918
0.378298
0.377678
0.37706
0.376442
0.375826
0.37521
0.374596
0.373981
0.373368
0.372755
0.372142
0.371529
0.370917
0.370305
0.444632
0.430023
0.415391
0.41399
0.413257
0.412525
0.411796
0.411069
0.410344
0.409621
0.4089
0.408182
0.407466
0.406753
0.406041
0.405333
0.404626
0.403922
0.403221
0.402522
0.401825
0.401131
0.40044
0.399751
0.399064
0.39838
0.397699
0.39702
0.396343
0.395669
0.394997
0.394328
0.393662
0.392997
0.392336
0.391676
0.391019
0.390364
0.389711
0.389061
0.388413
0.387767
0.387123
0.386481
0.385841
0.385203
0.384567
0.383933
0.383301
0.38267
0.382041
0.381414
0.380788
0.380163
0.37954
0.378918
0.378298
0.377678
0.37706
0.376443
0.375826
0.375211
0.374596
0.373981
0.373368
0.372755
0.372142
0.371529
0.370917
0.370305
0.444632
0.430024
0.415391
0.413991
0.413257
0.412526
0.411796
0.411069
0.410344
0.409621
0.408901
0.408183
0.407467
0.406753
0.406042
0.405333
0.404627
0.403923
0.403221
0.402522
0.401826
0.401132
0.40044
0.399751
0.399065
0.398381
0.397699
0.39702
0.396344
0.39567
0.394998
0.394329
0.393662
0.392998
0.392336
0.391677
0.391019
0.390364
0.389712
0.389061
0.388413
0.387767
0.387123
0.386481
0.385842
0.385204
0.384568
0.383933
0.383301
0.38267
0.382041
0.381414
0.380788
0.380163
0.37954
0.378919
0.378298
0.377679
0.37706
0.376443
0.375826
0.375211
0.374596
0.373982
0.373368
0.372755
0.372142
0.37153
0.370917
0.370305
0.444632
0.430024
0.415392
0.413991
0.413258
0.412526
0.411797
0.41107
0.410345
0.409622
0.408901
0.408183
0.407467
0.406754
0.406042
0.405334
0.404627
0.403923
0.403222
0.402523
0.401826
0.401132
0.400441
0.399752
0.399065
0.398381
0.3977
0.397021
0.396344
0.39567
0.394998
0.394329
0.393663
0.392998
0.392337
0.391677
0.39102
0.390365
0.389712
0.389062
0.388414
0.387768
0.387124
0.386482
0.385842
0.385204
0.384568
0.383934
0.383301
0.382671
0.382042
0.381414
0.380788
0.380164
0.379541
0.378919
0.378298
0.377679
0.37706
0.376443
0.375826
0.375211
0.374596
0.373982
0.373368
0.372755
0.372142
0.37153
0.370917
0.370305
0.444632
0.430024
0.415392
0.413992
0.413258
0.412527
0.411797
0.41107
0.410345
0.409622
0.408902
0.408184
0.407468
0.406754
0.406043
0.405334
0.404628
0.403924
0.403222
0.402523
0.401827
0.401133
0.400441
0.399752
0.399066
0.398382
0.3977
0.397021
0.396345
0.395671
0.394999
0.39433
0.393663
0.392999
0.392337
0.391677
0.39102
0.390365
0.389713
0.389062
0.388414
0.387768
0.387124
0.386482
0.385842
0.385204
0.384568
0.383934
0.383302
0.382671
0.382042
0.381414
0.380788
0.380164
0.379541
0.378919
0.378298
0.377679
0.377061
0.376443
0.375827
0.375211
0.374596
0.373982
0.373368
0.372755
0.372142
0.37153
0.370917
0.370305
0.444632
0.430024
0.415393
0.413992
0.413259
0.412527
0.411798
0.411071
0.410346
0.409623
0.408902
0.408184
0.407468
0.406755
0.406044
0.405335
0.404628
0.403924
0.403223
0.402524
0.401827
0.401133
0.400442
0.399753
0.399066
0.398382
0.397701
0.397022
0.396345
0.395671
0.395
0.39433
0.393664
0.392999
0.392338
0.391678
0.391021
0.390366
0.389713
0.389063
0.388415
0.387769
0.387125
0.386483
0.385843
0.385205
0.384569
0.383934
0.383302
0.382671
0.382042
0.381415
0.380789
0.380164
0.379541
0.378919
0.378299
0.377679
0.377061
0.376443
0.375827
0.375211
0.374596
0.373982
0.373368
0.372755
0.372142
0.37153
0.370917
0.370305
0.444632
0.430024
0.415393
0.413993
0.413259
0.412528
0.411798
0.411071
0.410346
0.409624
0.408903
0.408185
0.407469
0.406755
0.406044
0.405335
0.404629
0.403925
0.403224
0.402525
0.401828
0.401134
0.400442
0.399753
0.399067
0.398383
0.397701
0.397022
0.396346
0.395672
0.395
0.394331
0.393664
0.393
0.392338
0.391678
0.391021
0.390366
0.389714
0.389063
0.388415
0.387769
0.387125
0.386483
0.385843
0.385205
0.384569
0.383935
0.383302
0.382672
0.382043
0.381415
0.380789
0.380165
0.379541
0.378919
0.378299
0.377679
0.377061
0.376444
0.375827
0.375211
0.374596
0.373982
0.373368
0.372755
0.372142
0.37153
0.370917
0.370305
0.444632
0.430025
0.415394
0.413993
0.41326
0.412528
0.411799
0.411072
0.410347
0.409624
0.408904
0.408185
0.407469
0.406756
0.406045
0.405336
0.40463
0.403926
0.403224
0.402525
0.401829
0.401135
0.400443
0.399754
0.399067
0.398383
0.397702
0.397023
0.396346
0.395672
0.395001
0.394331
0.393665
0.393
0.392339
0.391679
0.391022
0.390367
0.389714
0.389064
0.388416
0.387769
0.387125
0.386483
0.385844
0.385206
0.384569
0.383935
0.383303
0.382672
0.382043
0.381415
0.380789
0.380165
0.379542
0.37892
0.378299
0.37768
0.377061
0.376444
0.375827
0.375211
0.374596
0.373982
0.373368
0.372755
0.372142
0.37153
0.370917
0.370305
0.444632
0.430025
0.415394
0.413994
0.41326
0.412529
0.411799
0.411072
0.410347
0.409625
0.408904
0.408186
0.40747
0.406756
0.406045
0.405336
0.40463
0.403926
0.403225
0.402526
0.401829
0.401135
0.400443
0.399754
0.399068
0.398384
0.397702
0.397023
0.396347
0.395673
0.395001
0.394332
0.393665
0.393001
0.392339
0.391679
0.391022
0.390367
0.389715
0.389064
0.388416
0.38777
0.387126
0.386484
0.385844
0.385206
0.38457
0.383936
0.383303
0.382672
0.382043
0.381416
0.38079
0.380165
0.379542
0.37892
0.378299
0.37768
0.377061
0.376444
0.375827
0.375212
0.374597
0.373982
0.373368
0.372755
0.372142
0.37153
0.370917
0.370305
0.444632
0.430025
0.415394
0.413994
0.413261
0.412529
0.4118
0.411073
0.410348
0.409625
0.408905
0.408186
0.40747
0.406757
0.406046
0.405337
0.404631
0.403927
0.403225
0.402526
0.40183
0.401136
0.400444
0.399755
0.399068
0.398384
0.397703
0.397024
0.396347
0.395673
0.395002
0.394332
0.393666
0.393001
0.392339
0.39168
0.391023
0.390368
0.389715
0.389065
0.388416
0.38777
0.387126
0.386484
0.385844
0.385206
0.38457
0.383936
0.383303
0.382673
0.382043
0.381416
0.38079
0.380165
0.379542
0.37892
0.378299
0.37768
0.377061
0.376444
0.375827
0.375212
0.374597
0.373982
0.373369
0.372755
0.372142
0.37153
0.370917
0.370305
0.444632
0.430025
0.415395
0.413994
0.413261
0.41253
0.4118
0.411073
0.410348
0.409625
0.408905
0.408187
0.407471
0.406757
0.406046
0.405337
0.404631
0.403927
0.403226
0.402527
0.40183
0.401136
0.400444
0.399755
0.399069
0.398385
0.397703
0.397024
0.396348
0.395674
0.395002
0.394333
0.393666
0.393002
0.39234
0.39168
0.391023
0.390368
0.389715
0.389065
0.388417
0.387771
0.387127
0.386485
0.385845
0.385207
0.38457
0.383936
0.383304
0.382673
0.382044
0.381416
0.38079
0.380165
0.379542
0.37892
0.3783
0.37768
0.377062
0.376444
0.375828
0.375212
0.374597
0.373982
0.373369
0.372755
0.372142
0.37153
0.370917
0.370305
0.444632
0.430026
0.415395
0.413995
0.413261
0.41253
0.411801
0.411073
0.410349
0.409626
0.408905
0.408187
0.407471
0.406758
0.406047
0.405338
0.404631
0.403927
0.403226
0.402527
0.40183
0.401136
0.400445
0.399756
0.399069
0.398385
0.397704
0.397025
0.396348
0.395674
0.395002
0.394333
0.393666
0.393002
0.39234
0.391681
0.391023
0.390368
0.389716
0.389065
0.388417
0.387771
0.387127
0.386485
0.385845
0.385207
0.384571
0.383936
0.383304
0.382673
0.382044
0.381416
0.38079
0.380166
0.379542
0.378921
0.3783
0.37768
0.377062
0.376444
0.375828
0.375212
0.374597
0.373983
0.373369
0.372755
0.372142
0.37153
0.370917
0.370305
0.444632
0.430026
0.415395
0.413995
0.413262
0.41253
0.411801
0.411074
0.410349
0.409626
0.408906
0.408187
0.407472
0.406758
0.406047
0.405338
0.404632
0.403928
0.403226
0.402527
0.401831
0.401137
0.400445
0.399756
0.39907
0.398386
0.397704
0.397025
0.396348
0.395674
0.395003
0.394334
0.393667
0.393002
0.392341
0.391681
0.391024
0.390369
0.389716
0.389066
0.388417
0.387771
0.387127
0.386485
0.385845
0.385207
0.384571
0.383937
0.383304
0.382673
0.382044
0.381417
0.38079
0.380166
0.379543
0.378921
0.3783
0.37768
0.377062
0.376444
0.375828
0.375212
0.374597
0.373983
0.373369
0.372755
0.372143
0.37153
0.370917
0.370305
0.444632
0.430026
0.415396
0.413995
0.413262
0.41253
0.411801
0.411074
0.410349
0.409626
0.408906
0.408188
0.407472
0.406758
0.406047
0.405338
0.404632
0.403928
0.403227
0.402528
0.401831
0.401137
0.400446
0.399756
0.39907
0.398386
0.397704
0.397025
0.396349
0.395675
0.395003
0.394334
0.393667
0.393003
0.392341
0.391681
0.391024
0.390369
0.389716
0.389066
0.388418
0.387771
0.387127
0.386485
0.385845
0.385207
0.384571
0.383937
0.383304
0.382673
0.382044
0.381417
0.380791
0.380166
0.379543
0.378921
0.3783
0.377681
0.377062
0.376444
0.375828
0.375212
0.374597
0.373983
0.373369
0.372755
0.372143
0.37153
0.370918
0.370305
0.444632
0.430026
0.415396
0.413996
0.413262
0.412531
0.411801
0.411074
0.410349
0.409627
0.408906
0.408188
0.407472
0.406759
0.406047
0.405339
0.404632
0.403928
0.403227
0.402528
0.401831
0.401137
0.400446
0.399757
0.39907
0.398386
0.397705
0.397026
0.396349
0.395675
0.395003
0.394334
0.393667
0.393003
0.392341
0.391681
0.391024
0.390369
0.389717
0.389066
0.388418
0.387772
0.387128
0.386486
0.385846
0.385207
0.384571
0.383937
0.383304
0.382674
0.382044
0.381417
0.380791
0.380166
0.379543
0.378921
0.3783
0.377681
0.377062
0.376445
0.375828
0.375212
0.374597
0.373983
0.373369
0.372756
0.372143
0.37153
0.370918
0.370305
0.444632
0.430026
0.415396
0.413996
0.413262
0.412531
0.411802
0.411075
0.41035
0.409627
0.408906
0.408188
0.407472
0.406759
0.406048
0.405339
0.404633
0.403929
0.403227
0.402528
0.401832
0.401138
0.400446
0.399757
0.39907
0.398386
0.397705
0.397026
0.396349
0.395675
0.395003
0.394334
0.393668
0.393003
0.392341
0.391682
0.391024
0.390369
0.389717
0.389066
0.388418
0.387772
0.387128
0.386486
0.385846
0.385208
0.384571
0.383937
0.383305
0.382674
0.382045
0.381417
0.380791
0.380166
0.379543
0.378921
0.3783
0.377681
0.377062
0.376445
0.375828
0.375212
0.374597
0.373983
0.373369
0.372756
0.372143
0.37153
0.370918
0.370305
0.444632
0.430026
0.415396
0.413996
0.413262
0.412531
0.411802
0.411075
0.41035
0.409627
0.408907
0.408188
0.407473
0.406759
0.406048
0.405339
0.404633
0.403929
0.403227
0.402528
0.401832
0.401138
0.400446
0.399757
0.399071
0.398387
0.397705
0.397026
0.396349
0.395675
0.395004
0.394334
0.393668
0.393003
0.392341
0.391682
0.391025
0.39037
0.389717
0.389066
0.388418
0.387772
0.387128
0.386486
0.385846
0.385208
0.384572
0.383937
0.383305
0.382674
0.382045
0.381417
0.380791
0.380166
0.379543
0.378921
0.3783
0.377681
0.377062
0.376445
0.375828
0.375212
0.374597
0.373983
0.373369
0.372756
0.372143
0.37153
0.370918
0.370305
0.444632
0.430026
0.415396
0.413996
0.413263
0.412531
0.411802
0.411075
0.41035
0.409627
0.408907
0.408189
0.407473
0.406759
0.406048
0.405339
0.404633
0.403929
0.403228
0.402529
0.401832
0.401138
0.400446
0.399757
0.399071
0.398387
0.397705
0.397026
0.39635
0.395675
0.395004
0.394335
0.393668
0.393004
0.392342
0.391682
0.391025
0.39037
0.389717
0.389067
0.388418
0.387772
0.387128
0.386486
0.385846
0.385208
0.384572
0.383937
0.383305
0.382674
0.382045
0.381417
0.380791
0.380166
0.379543
0.378921
0.3783
0.377681
0.377062
0.376445
0.375828
0.375212
0.374597
0.373983
0.373369
0.372756
0.372143
0.37153
0.370918
0.370305
0.444632
0.430026
0.415396
0.413996
0.413263
0.412531
0.411802
0.411075
0.41035
0.409627
0.408907
0.408189
0.407473
0.406759
0.406048
0.405339
0.404633
0.403929
0.403228
0.402529
0.401832
0.401138
0.400447
0.399757
0.399071
0.398387
0.397705
0.397026
0.39635
0.395676
0.395004
0.394335
0.393668
0.393004
0.392342
0.391682
0.391025
0.39037
0.389717
0.389067
0.388418
0.387772
0.387128
0.386486
0.385846
0.385208
0.384572
0.383937
0.383305
0.382674
0.382045
0.381417
0.380791
0.380166
0.379543
0.378921
0.3783
0.377681
0.377062
0.376445
0.375828
0.375212
0.374597
0.373983
0.373369
0.372756
0.372143
0.37153
0.370918
0.370305
0.444632
0.430026
0.415397
0.413996
0.413263
0.412531
0.411802
0.411075
0.41035
0.409627
0.408907
0.408189
0.407473
0.406759
0.406048
0.40534
0.404633
0.403929
0.403228
0.402529
0.401832
0.401138
0.400447
0.399758
0.399071
0.398387
0.397705
0.397026
0.39635
0.395676
0.395004
0.394335
0.393668
0.393004
0.392342
0.391682
0.391025
0.39037
0.389717
0.389067
0.388418
0.387772
0.387128
0.386486
0.385846
0.385208
0.384572
0.383938
0.383305
0.382674
0.382045
0.381417
0.380791
0.380167
0.379543
0.378921
0.378301
0.377681
0.377062
0.376445
0.375828
0.375212
0.374597
0.373983
0.373369
0.372756
0.372143
0.37153
0.370918
0.370305
0.444632
0.430026
0.415397
0.413996
0.413263
0.412532
0.411802
0.411075
0.41035
0.409628
0.408907
0.408189
0.407473
0.40676
0.406048
0.40534
0.404633
0.403929
0.403228
0.402529
0.401832
0.401138
0.400447
0.399758
0.399071
0.398387
0.397705
0.397026
0.39635
0.395676
0.395004
0.394335
0.393668
0.393004
0.392342
0.391682
0.391025
0.39037
0.389717
0.389067
0.388418
0.387772
0.387128
0.386486
0.385846
0.385208
0.384572
0.383938
0.383305
0.382674
0.382045
0.381417
0.380791
0.380167
0.379543
0.378921
0.378301
0.377681
0.377062
0.376445
0.375828
0.375212
0.374597
0.373983
0.373369
0.372756
0.372143
0.37153
0.370918
0.370305
0.444632
0.430026
0.415397
0.413996
0.413263
0.412532
0.411802
0.411075
0.41035
0.409628
0.408907
0.408189
0.407473
0.40676
0.406048
0.40534
0.404633
0.403929
0.403228
0.402529
0.401832
0.401138
0.400447
0.399758
0.399071
0.398387
0.397706
0.397026
0.39635
0.395676
0.395004
0.394335
0.393668
0.393004
0.392342
0.391682
0.391025
0.39037
0.389717
0.389067
0.388419
0.387772
0.387128
0.386486
0.385846
0.385208
0.384572
0.383938
0.383305
0.382674
0.382045
0.381417
0.380791
0.380167
0.379543
0.378921
0.378301
0.377681
0.377062
0.376445
0.375828
0.375212
0.374597
0.373983
0.373369
0.372756
0.372143
0.37153
0.370918
0.370305
0.444632
0.430026
0.415397
0.413996
0.413263
0.412532
0.411802
0.411075
0.41035
0.409628
0.408907
0.408189
0.407473
0.40676
0.406048
0.40534
0.404633
0.403929
0.403228
0.402529
0.401832
0.401138
0.400447
0.399758
0.399071
0.398387
0.397706
0.397027
0.39635
0.395676
0.395004
0.394335
0.393668
0.393004
0.392342
0.391682
0.391025
0.39037
0.389717
0.389067
0.388419
0.387772
0.387128
0.386486
0.385846
0.385208
0.384572
0.383938
0.383305
0.382674
0.382045
0.381417
0.380791
0.380167
0.379543
0.378921
0.378301
0.377681
0.377062
0.376445
0.375828
0.375212
0.374597
0.373983
0.373369
0.372756
0.372143
0.37153
0.370918
0.370305
0.444632
0.430026
0.415397
0.413996
0.413263
0.412532
0.411802
0.411075
0.41035
0.409628
0.408907
0.408189
0.407473
0.40676
0.406048
0.40534
0.404633
0.403929
0.403228
0.402529
0.401832
0.401138
0.400447
0.399758
0.399071
0.398387
0.397706
0.397027
0.39635
0.395676
0.395004
0.394335
0.393668
0.393004
0.392342
0.391682
0.391025
0.39037
0.389717
0.389067
0.388419
0.387772
0.387128
0.386486
0.385846
0.385208
0.384572
0.383938
0.383305
0.382674
0.382045
0.381417
0.380791
0.380167
0.379543
0.378921
0.378301
0.377681
0.377062
0.376445
0.375828
0.375212
0.374597
0.373983
0.373369
0.372756
0.372143
0.37153
0.370918
0.370305
0.444632
0.430026
0.415397
0.413996
0.413263
0.412532
0.411802
0.411075
0.41035
0.409628
0.408907
0.408189
0.407473
0.40676
0.406049
0.40534
0.404633
0.403929
0.403228
0.402529
0.401832
0.401138
0.400447
0.399758
0.399071
0.398387
0.397706
0.397027
0.39635
0.395676
0.395004
0.394335
0.393668
0.393004
0.392342
0.391682
0.391025
0.39037
0.389717
0.389067
0.388419
0.387772
0.387128
0.386486
0.385846
0.385208
0.384572
0.383938
0.383305
0.382674
0.382045
0.381417
0.380791
0.380167
0.379543
0.378921
0.378301
0.377681
0.377062
0.376445
0.375828
0.375212
0.374597
0.373983
0.373369
0.372756
0.372143
0.37153
0.370918
0.370305
0.444632
0.430026
0.415397
0.413996
0.413263
0.412532
0.411802
0.411075
0.41035
0.409628
0.408907
0.408189
0.407473
0.40676
0.406049
0.40534
0.404633
0.403929
0.403228
0.402529
0.401832
0.401138
0.400447
0.399758
0.399071
0.398387
0.397706
0.397027
0.39635
0.395676
0.395004
0.394335
0.393668
0.393004
0.392342
0.391682
0.391025
0.39037
0.389717
0.389067
0.388419
0.387772
0.387128
0.386486
0.385846
0.385208
0.384572
0.383938
0.383305
0.382674
0.382045
0.381417
0.380791
0.380167
0.379543
0.378921
0.378301
0.377681
0.377062
0.376445
0.375828
0.375212
0.374597
0.373983
0.373369
0.372756
0.372143
0.37153
0.370918
0.370305
0.444632
0.430026
0.415397
0.413996
0.413263
0.412532
0.411802
0.411075
0.41035
0.409628
0.408907
0.408189
0.407473
0.40676
0.406049
0.40534
0.404633
0.403929
0.403228
0.402529
0.401832
0.401138
0.400447
0.399758
0.399071
0.398387
0.397706
0.397027
0.39635
0.395676
0.395004
0.394335
0.393668
0.393004
0.392342
0.391682
0.391025
0.39037
0.389717
0.389067
0.388419
0.387772
0.387128
0.386486
0.385846
0.385208
0.384572
0.383938
0.383305
0.382674
0.382045
0.381417
0.380791
0.380167
0.379543
0.378921
0.378301
0.377681
0.377062
0.376445
0.375828
0.375212
0.374597
0.373983
0.373369
0.372756
0.372143
0.37153
0.370918
0.370305
0.444632
0.430026
0.415397
0.413996
0.413263
0.412532
0.411802
0.411075
0.41035
0.409628
0.408907
0.408189
0.407473
0.40676
0.406049
0.40534
0.404633
0.403929
0.403228
0.402529
0.401832
0.401138
0.400447
0.399758
0.399071
0.398387
0.397706
0.397027
0.39635
0.395676
0.395004
0.394335
0.393668
0.393004
0.392342
0.391682
0.391025
0.39037
0.389717
0.389067
0.388419
0.387772
0.387128
0.386486
0.385846
0.385208
0.384572
0.383938
0.383305
0.382674
0.382045
0.381417
0.380791
0.380167
0.379543
0.378921
0.378301
0.377681
0.377062
0.376445
0.375828
0.375212
0.374597
0.373983
0.373369
0.372756
0.372143
0.37153
0.370918
0.370305
0.444632
0.430026
0.415397
0.413996
0.413263
0.412532
0.411802
0.411075
0.41035
0.409628
0.408907
0.408189
0.407473
0.40676
0.406049
0.40534
0.404633
0.403929
0.403228
0.402529
0.401832
0.401138
0.400447
0.399758
0.399071
0.398387
0.397706
0.397027
0.39635
0.395676
0.395004
0.394335
0.393668
0.393004
0.392342
0.391682
0.391025
0.39037
0.389717
0.389067
0.388419
0.387772
0.387128
0.386486
0.385846
0.385208
0.384572
0.383938
0.383305
0.382674
0.382045
0.381417
0.380791
0.380167
0.379543
0.378921
0.378301
0.377681
0.377062
0.376445
0.375828
0.375212
0.374597
0.373983
0.373369
0.372756
0.372143
0.37153
0.370918
0.370305
0.444632
0.430026
0.415397
0.413996
0.413263
0.412532
0.411802
0.411075
0.41035
0.409628
0.408907
0.408189
0.407473
0.40676
0.406049
0.40534
0.404633
0.40393
0.403228
0.402529
0.401832
0.401138
0.400447
0.399758
0.399071
0.398387
0.397706
0.397027
0.39635
0.395676
0.395004
0.394335
0.393668
0.393004
0.392342
0.391682
0.391025
0.39037
0.389717
0.389067
0.388419
0.387772
0.387128
0.386486
0.385846
0.385208
0.384572
0.383938
0.383305
0.382674
0.382045
0.381417
0.380791
0.380167
0.379543
0.378921
0.378301
0.377681
0.377062
0.376445
0.375828
0.375212
0.374597
0.373983
0.373369
0.372756
0.372143
0.37153
0.370918
0.370305
0.444632
0.430026
0.415397
0.413996
0.413263
0.412532
0.411802
0.411075
0.41035
0.409628
0.408907
0.408189
0.407473
0.40676