/*--------------------------------*- C++ -*----------------------------------*\
  =========                 |
  \\      /  F ield         | OpenFOAM: The Open Source CFD Toolbox
   \\    /   O peration     | Website:  https://openfoam.org
    \\  /    A nd           | Version:  13
     \\/     M anipulation  |
\*---------------------------------------------------------------------------*/
FoamFile
{
    format      ascii;
    class       volScalarField;
    location    "14";
    object      k;
}
// * * * * * * * * * * * * * * * * * * * * * * * * * * * * * * * * * * * * * //

dimensions      [0 2 -2 0 0 0 0];

internalField   nonuniform List<scalar> 
78750
(
9.64182e-12
2.75555e-10
1.25412e-09
2.28385e-09
3.38268e-09
4.56275e-09
5.82654e-09
7.16493e-09
8.55725e-09
9.97264e-09
1.13724e-08
1.27128e-08
1.39483e-08
1.50342e-08
1.59297e-08
1.66003e-08
1.70195e-08
1.71708e-08
1.70481e-08
1.66563e-08
1.6011e-08
1.51375e-08
1.40696e-08
1.28474e-08
1.15151e-08
1.01182e-08
8.70048e-09
7.30097e-09
5.95114e-09
4.67236e-09
3.47431e-09
2.35454e-09
1.29955e-09
2.875e-10
1.0096e-11
2.12443e-10
6.16744e-09
3.08993e-08
5.67053e-08
8.42488e-08
1.13937e-07
1.45872e-07
1.79828e-07
2.15266e-07
2.51375e-07
2.87139e-07
3.21419e-07
3.53029e-07
3.8081e-07
4.03707e-07
4.20827e-07
4.31493e-07
4.35279e-07
4.32033e-07
4.21885e-07
4.05239e-07
3.82755e-07
3.55309e-07
3.23943e-07
2.89806e-07
2.5408e-07
2.17907e-07
1.82306e-07
1.48101e-07
1.15847e-07
8.57842e-08
5.78212e-08
3.15528e-08
6.30667e-09
2.17348e-10
6.33848e-10
1.84092e-08
9.24247e-08
1.70837e-07
2.56572e-07
3.5156e-07
4.56529e-07
5.70876e-07
6.92655e-07
8.18755e-07
9.4525e-07
1.06776e-06
1.18168e-06
1.28245e-06
1.36586e-06
1.42835e-06
1.46723e-06
1.48081e-06
1.46853e-06
1.4309e-06
1.36956e-06
1.28715e-06
1.18718e-06
1.07383e-06
9.51661e-07
8.25255e-07
6.98995e-07
5.76812e-07
4.61844e-07
3.56074e-07
2.60155e-07
1.73401e-07
9.39029e-08
1.87209e-08
6.44786e-10
1.22453e-09
3.5585e-08
1.78705e-07
3.30937e-07
4.98577e-07
6.85713e-07
8.93821e-07
1.12147e-06
1.36435e-06
1.61586e-06
1.86809e-06
2.11242e-06
2.33965e-06
2.54056e-06
2.7067e-06
2.83099e-06
2.90812e-06
2.93484e-06
2.91001e-06
2.8347e-06
2.71208e-06
2.54739e-06
2.34765e-06
2.12128e-06
1.87746e-06
1.62539e-06
1.3737e-06
1.13028e-06
9.01764e-07
6.92493e-07
5.03969e-07
3.3479e-07
1.80917e-07
3.60512e-08
1.24086e-09
1.81744e-09
5.28419e-08
2.65249e-07
4.91109e-07
7.3997e-07
1.01778e-06
1.32632e-06
1.66281e-06
2.02007e-06
2.38791e-06
2.75466e-06
3.10796e-06
3.43492e-06
3.72283e-06
3.96008e-06
4.13706e-06
4.24662e-06
4.28437e-06
4.24878e-06
4.14129e-06
3.96622e-06
3.73064e-06
3.44411e-06
3.11816e-06
2.76551e-06
2.39901e-06
2.03102e-06
1.6732e-06
1.33575e-06
1.02587e-06
7.46428e-07
4.95728e-07
2.67898e-07
5.34008e-08
1.83702e-09
2.28394e-09
6.64378e-08
3.33351e-07
6.16839e-07
9.2892e-07
1.27681e-06
1.66228e-06
2.08119e-06
2.52397e-06
2.97764e-06
3.42776e-06
3.85937e-06
4.2572e-06
4.60633e-06
4.89327e-06
5.10688e-06
5.23887e-06
5.28419e-06
5.24108e-06
5.11122e-06
4.89958e-06
4.61437e-06
4.26667e-06
3.86993e-06
3.43902e-06
2.98921e-06
2.53544e-06
2.09211e-06
1.67224e-06
1.28539e-06
9.35785e-07
6.21751e-07
3.36164e-07
6.70325e-08
2.30476e-09
2.58514e-09
7.52315e-08
3.77383e-07
6.97995e-07
1.05064e-06
1.44329e-06
1.87761e-06
2.34848e-06
2.84477e-06
3.35172e-06
3.85322e-06
4.33274e-06
4.77365e-06
5.15981e-06
5.47668e-06
5.71227e-06
5.85771e-06
5.90753e-06
5.85989e-06
5.71656e-06
5.48292e-06
5.16777e-06
4.78304e-06
4.34322e-06
3.86441e-06
3.36325e-06
2.85623e-06
2.35943e-06
1.88761e-06
1.45193e-06
1.05756e-06
7.02942e-07
3.80213e-07
7.58305e-08
2.60611e-09
2.74965e-09
8.00447e-08
4.01495e-07
7.42394e-07
1.11716e-06
1.53415e-06
1.99495e-06
2.49388e-06
3.01895e-06
3.55445e-06
4.08337e-06
4.58838e-06
5.05214e-06
5.45788e-06
5.79055e-06
6.03773e-06
6.19023e-06
6.24242e-06
6.19237e-06
6.04194e-06
5.79668e-06
5.46571e-06
5.06138e-06
4.59871e-06
4.09441e-06
3.56584e-06
3.03028e-06
2.50472e-06
2.00486e-06
1.54272e-06
1.12403e-06
7.47299e-07
4.04298e-07
8.06385e-08
2.77045e-09
2.82751e-09
8.23276e-08
4.12943e-07
7.63467e-07
1.14872e-06
1.57723e-06
2.05054e-06
2.56272e-06
3.10135e-06
3.65027e-06
4.19207e-06
4.70903e-06
5.18349e-06
5.59838e-06
5.93844e-06
6.19103e-06
6.34683e-06
6.40011e-06
6.34895e-06
6.19519e-06
5.9445e-06
5.60613e-06
5.19263e-06
4.71925e-06
4.203e-06
3.66155e-06
3.11257e-06
2.57347e-06
2.06038e-06
1.58573e-06
1.15553e-06
7.68333e-07
4.15722e-07
8.29166e-08
2.84815e-09
2.86005e-09
8.32838e-08
4.17744e-07
7.72305e-07
1.16196e-06
1.5953e-06
2.07385e-06
2.59157e-06
3.13588e-06
3.69043e-06
4.2376e-06
4.75957e-06
5.23849e-06
5.65722e-06
6.00035e-06
6.2552e-06
6.41238e-06
6.46612e-06
6.41449e-06
6.25935e-06
6.00638e-06
5.66492e-06
5.24759e-06
4.76973e-06
4.24848e-06
3.70165e-06
3.14706e-06
2.60228e-06
2.08365e-06
1.60376e-06
1.16874e-06
7.7715e-07
4.20511e-07
8.38702e-08
2.88059e-09
2.87223e-09
8.36428e-08
4.1955e-07
7.7563e-07
1.16693e-06
1.60209e-06
2.08262e-06
2.60243e-06
3.14888e-06
3.70554e-06
4.25475e-06
4.7786e-06
5.2592e-06
5.67937e-06
6.02367e-06
6.27937e-06
6.43706e-06
6.49098e-06
6.43917e-06
6.2835e-06
6.02969e-06
5.68706e-06
5.26828e-06
4.78874e-06
4.26561e-06
3.71675e-06
3.16004e-06
2.61312e-06
2.0924e-06
1.61055e-06
1.17371e-06
7.80467e-07
4.22311e-07
8.42282e-08
2.89274e-09
2.87637e-09
8.3765e-08
4.20166e-07
7.76764e-07
1.16863e-06
1.60441e-06
2.08562e-06
2.60614e-06
3.15332e-06
3.71071e-06
4.26061e-06
4.7851e-06
5.26628e-06
5.68695e-06
6.03164e-06
6.28763e-06
6.44551e-06
6.49949e-06
6.44761e-06
6.29177e-06
6.03766e-06
5.69463e-06
5.27536e-06
4.79524e-06
4.27147e-06
3.72191e-06
3.16448e-06
2.61683e-06
2.0954e-06
1.61286e-06
1.1754e-06
7.81599e-07
4.22926e-07
8.43501e-08
2.89687e-09
2.87766e-09
8.38031e-08
4.20358e-07
7.77118e-07
1.16917e-06
1.60514e-06
2.08656e-06
2.60731e-06
3.15471e-06
3.71233e-06
4.26245e-06
4.78714e-06
5.2685e-06
5.68932e-06
6.03414e-06
6.29023e-06
6.44816e-06
6.50215e-06
6.45026e-06
6.29436e-06
6.04016e-06
5.697e-06
5.27758e-06
4.79728e-06
4.2733e-06
3.72353e-06
3.16587e-06
2.61799e-06
2.09633e-06
1.61359e-06
1.17593e-06
7.81952e-07
4.23118e-07
8.43882e-08
2.89816e-09
2.87803e-09
8.38141e-08
4.20413e-07
7.7722e-07
1.16932e-06
1.60535e-06
2.08683e-06
2.60764e-06
3.15511e-06
3.71279e-06
4.26298e-06
4.78773e-06
5.26915e-06
5.69001e-06
6.03486e-06
6.29098e-06
6.44892e-06
6.50293e-06
6.45103e-06
6.29511e-06
6.04088e-06
5.69769e-06
5.27822e-06
4.79787e-06
4.27383e-06
3.72399e-06
3.16627e-06
2.61832e-06
2.0966e-06
1.6138e-06
1.17609e-06
7.82055e-07
4.23173e-07
8.43991e-08
2.89853e-09
2.87812e-09
8.3817e-08
4.20428e-07
7.77248e-07
1.16936e-06
1.60541e-06
2.0869e-06
2.60773e-06
3.15522e-06
3.71292e-06
4.26312e-06
4.78789e-06
5.26932e-06
5.69019e-06
6.03506e-06
6.29118e-06
6.44913e-06
6.50313e-06
6.45123e-06
6.29531e-06
6.04108e-06
5.69788e-06
5.27839e-06
4.79803e-06
4.27397e-06
3.72412e-06
3.16638e-06
2.61841e-06
2.09667e-06
1.61385e-06
1.17613e-06
7.82082e-07
4.23188e-07
8.44021e-08
2.89862e-09
2.87815e-09
8.38177e-08
4.20432e-07
7.77255e-07
1.16937e-06
1.60542e-06
2.08692e-06
2.60775e-06
3.15525e-06
3.71295e-06
4.26315e-06
4.78793e-06
5.26936e-06
5.69024e-06
6.03511e-06
6.29123e-06
6.44918e-06
6.50319e-06
6.45128e-06
6.29536e-06
6.04112e-06
5.69792e-06
5.27843e-06
4.79807e-06
4.27401e-06
3.72415e-06
3.1664e-06
2.61844e-06
2.09669e-06
1.61387e-06
1.17614e-06
7.82089e-07
4.23191e-07
8.44028e-08
2.89865e-09
2.87815e-09
8.38179e-08
4.20433e-07
7.77256e-07
1.16937e-06
1.60542e-06
2.08692e-06
2.60776e-06
3.15526e-06
3.71296e-06
4.26316e-06
4.78794e-06
5.26937e-06
5.69025e-06
6.03512e-06
6.29124e-06
6.44919e-06
6.5032e-06
6.4513e-06
6.29538e-06
6.04114e-06
5.69793e-06
5.27844e-06
4.79808e-06
4.27402e-06
3.72416e-06
3.16641e-06
2.61844e-06
2.0967e-06
1.61387e-06
1.17614e-06
7.8209e-07
4.23192e-07
8.4403e-08
2.89865e-09
2.87816e-09
8.38179e-08
4.20433e-07
7.77256e-07
1.16937e-06
1.60542e-06
2.08692e-06
2.60776e-06
3.15526e-06
3.71296e-06
4.26316e-06
4.78794e-06
5.26937e-06
5.69025e-06
6.03512e-06
6.29124e-06
6.44919e-06
6.5032e-06
6.4513e-06
6.29538e-06
6.04114e-06
5.69794e-06
5.27845e-06
4.79808e-06
4.27402e-06
3.72416e-06
3.16641e-06
2.61844e-06
2.0967e-06
1.61387e-06
1.17614e-06
7.82091e-07
4.23192e-07
8.4403e-08
2.89866e-09
2.87816e-09
8.38179e-08
4.20433e-07
7.77257e-07
1.16937e-06
1.60542e-06
2.08692e-06
2.60776e-06
3.15526e-06
3.71296e-06
4.26317e-06
4.78794e-06
5.26937e-06
5.69025e-06
6.03512e-06
6.29124e-06
6.44919e-06
6.5032e-06
6.4513e-06
6.29538e-06
6.04114e-06
5.69794e-06
5.27845e-06
4.79808e-06
4.27402e-06
3.72416e-06
3.16641e-06
2.61844e-06
2.0967e-06
1.61387e-06
1.17614e-06
7.82091e-07
4.23193e-07
8.4403e-08
2.89866e-09
2.87816e-09
8.38179e-08
4.20433e-07
7.77257e-07
1.16937e-06
1.60542e-06
2.08692e-06
2.60776e-06
3.15526e-06
3.71296e-06
4.26317e-06
4.78794e-06
5.26937e-06
5.69025e-06
6.03512e-06
6.29124e-06
6.44919e-06
6.5032e-06
6.4513e-06
6.29538e-06
6.04114e-06
5.69794e-06
5.27845e-06
4.79808e-06
4.27402e-06
3.72416e-06
3.16641e-06
2.61844e-06
2.0967e-06
1.61387e-06
1.17614e-06
7.82091e-07
4.23193e-07
8.4403e-08
2.89866e-09
2.87816e-09
8.38179e-08
4.20433e-07
7.77257e-07
1.16937e-06
1.60542e-06
2.08692e-06
2.60776e-06
3.15526e-06
3.71296e-06
4.26317e-06
4.78794e-06
5.26937e-06
5.69025e-06
6.03512e-06
6.29124e-06
6.44919e-06
6.5032e-06
6.4513e-06
6.29538e-06
6.04114e-06
5.69794e-06
5.27845e-06
4.79808e-06
4.27402e-06
3.72416e-06
3.16641e-06
2.61844e-06
2.0967e-06
1.61387e-06
1.17614e-06
7.82091e-07
4.23193e-07
8.4403e-08
2.89866e-09
2.87816e-09
8.38179e-08
4.20433e-07
7.77257e-07
1.16937e-06
1.60542e-06
2.08692e-06
2.60776e-06
3.15526e-06
3.71296e-06
4.26317e-06
4.78794e-06
5.26937e-06
5.69025e-06
6.03512e-06
6.29124e-06
6.44919e-06
6.5032e-06
6.4513e-06
6.29538e-06
6.04114e-06
5.69794e-06
5.27845e-06
4.79808e-06
4.27402e-06
3.72416e-06
3.16641e-06
2.61844e-06
2.0967e-06
1.61387e-06
1.17614e-06
7.82091e-07
4.23193e-07
8.4403e-08
2.89866e-09
2.87816e-09
8.38179e-08
4.20433e-07
7.77257e-07
1.16937e-06
1.60542e-06
2.08692e-06
2.60776e-06
3.15526e-06
3.71296e-06
4.26317e-06
4.78794e-06
5.26937e-06
5.69025e-06
6.03512e-06
6.29124e-06
6.44919e-06
6.5032e-06
6.4513e-06
6.29538e-06
6.04114e-06
5.69794e-06
5.27845e-06
4.79808e-06
4.27402e-06
3.72416e-06
3.16641e-06
2.61844e-06
2.0967e-06
1.61387e-06
1.17614e-06
7.82091e-07
4.23193e-07
8.4403e-08
2.89866e-09
2.87816e-09
8.38179e-08
4.20433e-07
7.77257e-07
1.16937e-06
1.60542e-06
2.08692e-06
2.60776e-06
3.15526e-06
3.71296e-06
4.26317e-06
4.78794e-06
5.26937e-06
5.69025e-06
6.03512e-06
6.29124e-06
6.44919e-06
6.5032e-06
6.4513e-06
6.29538e-06
6.04114e-06
5.69794e-06
5.27845e-06
4.79808e-06
4.27402e-06
3.72416e-06
3.16641e-06
2.61844e-06
2.0967e-06
1.61387e-06
1.17614e-06
7.82091e-07
4.23193e-07
8.4403e-08
2.89866e-09
2.87816e-09
8.38179e-08
4.20433e-07
7.77257e-07
1.16937e-06
1.60542e-06
2.08692e-06
2.60776e-06
3.15526e-06
3.71296e-06
4.26317e-06
4.78794e-06
5.26937e-06
5.69025e-06
6.03512e-06
6.29124e-06
6.44919e-06
6.5032e-06
6.4513e-06
6.29538e-06
6.04114e-06
5.69794e-06
5.27845e-06
4.79808e-06
4.27402e-06
3.72416e-06
3.16641e-06
2.61844e-06
2.0967e-06
1.61387e-06
1.17614e-06
7.82091e-07
4.23193e-07
8.4403e-08
2.89866e-09
2.87816e-09
8.38179e-08
4.20433e-07
7.77257e-07
1.16937e-06
1.60542e-06
2.08692e-06
2.60776e-06
3.15526e-06
3.71296e-06
4.26317e-06
4.78794e-06
5.26937e-06
5.69025e-06
6.03512e-06
6.29124e-06
6.44919e-06
6.5032e-06
6.4513e-06
6.29538e-06
6.04114e-06
5.69794e-06
5.27845e-06
4.79808e-06
4.27402e-06
3.72416e-06
3.16641e-06
2.61844e-06
2.0967e-06
1.61387e-06
1.17614e-06
7.82091e-07
4.23193e-07
8.4403e-08
2.89866e-09
2.87816e-09
8.38179e-08
4.20433e-07
7.77257e-07
1.16937e-06
1.60542e-06
2.08692e-06
2.60776e-06
3.15526e-06
3.71296e-06
4.26317e-06
4.78794e-06
5.26937e-06
5.69025e-06
6.03512e-06
6.29124e-06
6.44919e-06
6.5032e-06
6.4513e-06
6.29538e-06
6.04114e-06
5.69794e-06
5.27845e-06
4.79808e-06
4.27402e-06
3.72416e-06
3.16641e-06
2.61844e-06
2.0967e-06
1.61387e-06
1.17614e-06
7.82091e-07
4.23193e-07
8.4403e-08
2.89866e-09
2.87816e-09
8.38179e-08
4.20433e-07
7.77257e-07
1.16937e-06
1.60542e-06
2.08692e-06
2.60776e-06
3.15526e-06
3.71296e-06
4.26317e-06
4.78794e-06
5.26937e-06
5.69025e-06
6.03512e-06
6.29124e-06
6.44919e-06
6.5032e-06
6.4513e-06
6.29538e-06
6.04114e-06
5.69794e-06
5.27845e-06
4.79808e-06
4.27402e-06
3.72416e-06
3.16641e-06
2.61844e-06
2.0967e-06
1.61387e-06
1.17614e-06
7.82091e-07
4.23193e-07
8.4403e-08
2.89866e-09
2.87816e-09
8.38179e-08
4.20433e-07
7.77257e-07
1.16937e-06
1.60542e-06
2.08692e-06
2.60776e-06
3.15526e-06
3.71296e-06
4.26317e-06
4.78794e-06
5.26937e-06
5.69025e-06
6.03512e-06
6.29124e-06
6.44919e-06
6.5032e-06
6.4513e-06
6.29538e-06
6.04114e-06
5.69794e-06
5.27845e-06
4.79808e-06
4.27402e-06
3.72416e-06
3.16641e-06
2.61844e-06
2.0967e-06
1.61387e-06
1.17614e-06
7.82091e-07
4.23193e-07
8.4403e-08
2.89866e-09
2.87816e-09
8.38179e-08
4.20433e-07
7.77257e-07
1.16937e-06
1.60542e-06
2.08692e-06
2.60776e-06
3.15526e-06
3.71296e-06
4.26317e-06
4.78794e-06
5.26937e-06
5.69025e-06
6.03512e-06
6.29124e-06
6.44919e-06
6.5032e-06
6.4513e-06
6.29538e-06
6.04114e-06
5.69794e-06
5.27845e-06
4.79808e-06
4.27402e-06
3.72416e-06
3.16641e-06
2.61844e-06
2.0967e-06
1.61387e-06
1.17614e-06
7.82091e-07
4.23193e-07
8.4403e-08
2.89866e-09
2.87816e-09
8.38179e-08
4.20433e-07
7.77257e-07
1.16937e-06
1.60542e-06
2.08692e-06
2.60776e-06
3.15526e-06
3.71296e-06
4.26317e-06
4.78794e-06
5.26937e-06
5.69025e-06
6.03512e-06
6.29124e-06
6.44919e-06
6.5032e-06
6.4513e-06
6.29538e-06
6.04114e-06
5.69794e-06
5.27845e-06
4.79808e-06
4.27402e-06
3.72416e-06
3.16641e-06
2.61844e-06
2.0967e-06
1.61387e-06
1.17614e-06
7.82091e-07
4.23193e-07
8.4403e-08
2.89866e-09
2.87816e-09
8.38179e-08
4.20433e-07
7.77257e-07
1.16937e-06
1.60542e-06
2.08692e-06
2.60776e-06
3.15526e-06
3.71296e-06
4.26317e-06
4.78794e-06
5.26937e-06
5.69025e-06
6.03512e-06
6.29124e-06
6.44919e-06
6.5032e-06
6.4513e-06
6.29538e-06
6.04114e-06
5.69794e-06
5.27845e-06
4.79808e-06
4.27402e-06
3.72416e-06
3.16641e-06
2.61844e-06
2.0967e-06
1.61387e-06
1.17614e-06
7.82091e-07
4.23193e-07
8.4403e-08
2.89866e-09
2.87816e-09
8.38179e-08
4.20433e-07
7.77257e-07
1.16937e-06
1.60542e-06
2.08692e-06
2.60776e-06
3.15526e-06
3.71296e-06
4.26317e-06
4.78794e-06
5.26937e-06
5.69025e-06
6.03512e-06
6.29124e-06
6.44919e-06
6.5032e-06
6.4513e-06
6.29538e-06
6.04114e-06
5.69794e-06
5.27845e-06
4.79808e-06
4.27402e-06
3.72416e-06
3.16641e-06
2.61844e-06
2.0967e-06
1.61387e-06
1.17614e-06
7.82091e-07
4.23193e-07
8.4403e-08
2.89866e-09
2.87816e-09
8.38179e-08
4.20433e-07
7.77257e-07
1.16937e-06
1.60542e-06
2.08692e-06
2.60776e-06
3.15526e-06
3.71296e-06
4.26317e-06
4.78794e-06
5.26937e-06
5.69025e-06
6.03512e-06
6.29124e-06
6.44919e-06
6.5032e-06
6.4513e-06
6.29538e-06
6.04114e-06
5.69794e-06
5.27845e-06
4.79808e-06
4.27402e-06
3.72416e-06
3.16641e-06
2.61844e-06
2.0967e-06
1.61387e-06
1.17614e-06
7.82091e-07
4.23193e-07
8.4403e-08
2.89866e-09
2.87816e-09
8.38179e-08
4.20433e-07
7.77257e-07
1.16937e-06
1.60542e-06
2.08692e-06
2.60776e-06
3.15526e-06
3.71296e-06
4.26317e-06
4.78794e-06
5.26937e-06
5.69025e-06
6.03512e-06
6.29124e-06
6.44919e-06
6.5032e-06
6.4513e-06
6.29538e-06
6.04114e-06
5.69794e-06
5.27845e-06
4.79808e-06
4.27402e-06
3.72416e-06
3.16641e-06
2.61844e-06
2.0967e-06
1.61387e-06
1.17614e-06
7.82091e-07
4.23193e-07
8.4403e-08
2.89866e-09
2.87816e-09
8.38179e-08
4.20433e-07
7.77257e-07
1.16937e-06
1.60542e-06
2.08692e-06
2.60776e-06
3.15526e-06
3.71296e-06
4.26317e-06
4.78794e-06
5.26937e-06
5.69025e-06
6.03512e-06
6.29124e-06
6.44919e-06
6.5032e-06
6.4513e-06
6.29538e-06
6.04114e-06
5.69794e-06
5.27845e-06
4.79808e-06
4.27402e-06
3.72416e-06
3.16641e-06
2.61844e-06
2.0967e-06
1.61387e-06
1.17614e-06
7.82091e-07
4.23193e-07
8.4403e-08
2.89866e-09
2.87816e-09
8.38179e-08
4.20433e-07
7.77257e-07
1.16937e-06
1.60542e-06
2.08692e-06
2.60776e-06
3.15526e-06
3.71296e-06
4.26317e-06
4.78794e-06
5.26937e-06
5.69025e-06
6.03512e-06
6.29124e-06
6.44919e-06
6.5032e-06
6.4513e-06
6.29538e-06
6.04114e-06
5.69794e-06
5.27845e-06
4.79808e-06
4.27402e-06
3.72416e-06
3.16641e-06
2.61844e-06
2.0967e-06
1.61387e-06
1.17614e-06
7.82091e-07
4.23193e-07
8.4403e-08
2.89866e-09
2.87816e-09
8.38179e-08
4.20433e-07
7.77257e-07
1.16937e-06
1.60542e-06
2.08692e-06
2.60776e-06
3.15526e-06
3.71296e-06
4.26317e-06
4.78794e-06
5.26937e-06
5.69025e-06
6.03512e-06
6.29124e-06
6.44919e-06
6.5032e-06
6.4513e-06
6.29538e-06
6.04114e-06
5.69794e-06
5.27845e-06
4.79808e-06
4.27402e-06
3.72416e-06
3.16641e-06
2.61844e-06
2.0967e-06
1.61387e-06
1.17614e-06
7.82091e-07
4.23193e-07
8.4403e-08
2.89866e-09
2.87816e-09
8.38179e-08
4.20433e-07
7.77257e-07
1.16937e-06
1.60542e-06
2.08692e-06
2.60776e-06
3.15526e-06
3.71296e-06
4.26317e-06
4.78794e-06
5.26937e-06
5.69025e-06
6.03512e-06
6.29124e-06
6.44919e-06
6.5032e-06
6.4513e-06
6.29538e-06
6.04114e-06
5.69794e-06
5.27845e-06
4.79808e-06
4.27402e-06
3.72416e-06
3.16641e-06
2.61844e-06
2.0967e-06
1.61387e-06
1.17614e-06
7.82091e-07
4.23193e-07
8.4403e-08
2.89866e-09
2.87816e-09
8.38179e-08
4.20433e-07
7.77257e-07
1.16937e-06
1.60542e-06
2.08692e-06
2.60776e-06
3.15526e-06
3.71296e-06
4.26317e-06
4.78794e-06
5.26937e-06
5.69025e-06
6.03512e-06
6.29124e-06
6.44919e-06
6.5032e-06
6.4513e-06
6.29538e-06
6.04114e-06
5.69794e-06
5.27845e-06
4.79808e-06
4.27402e-06
3.72416e-06
3.16641e-06
2.61844e-06
2.0967e-06
1.61387e-06
1.17614e-06
7.82091e-07
4.23193e-07
8.4403e-08
2.89866e-09
2.87816e-09
8.38179e-08
4.20433e-07
7.77257e-07
1.16937e-06
1.60542e-06
2.08692e-06
2.60776e-06
3.15526e-06
3.71296e-06
4.26317e-06
4.78794e-06
5.26937e-06
5.69025e-06
6.03512e-06
6.29124e-06
6.44919e-06
6.5032e-06
6.4513e-06
6.29538e-06
6.04114e-06
5.69794e-06
5.27845e-06
4.79808e-06
4.27402e-06
3.72416e-06
3.16641e-06
2.61844e-06
2.0967e-06
1.61387e-06
1.17614e-06
7.82091e-07
4.23193e-07
8.4403e-08
2.89866e-09
2.87816e-09
8.38179e-08
4.20433e-07
7.77257e-07
1.16937e-06
1.60542e-06
2.08692e-06
2.60776e-06
3.15526e-06
3.71296e-06
4.26317e-06
4.78794e-06
5.26937e-06
5.69025e-06
6.03512e-06
6.29124e-06
6.44919e-06
6.5032e-06
6.4513e-06
6.29538e-06
6.04114e-06
5.69794e-06
5.27845e-06
4.79808e-06
4.27402e-06
3.72416e-06
3.16641e-06
2.61844e-06
2.0967e-06
1.61387e-06
1.17614e-06
7.82091e-07
4.23193e-07
8.4403e-08
2.89866e-09
2.87816e-09
8.38179e-08
4.20433e-07
7.77257e-07
1.16937e-06
1.60542e-06
2.08692e-06
2.60776e-06
3.15526e-06
3.71296e-06
4.26317e-06
4.78794e-06
5.26937e-06
5.69025e-06
6.03512e-06
6.29124e-06
6.44919e-06
6.5032e-06
6.4513e-06
6.29538e-06
6.04114e-06
5.69794e-06
5.27845e-06
4.79808e-06
4.27402e-06
3.72416e-06
3.16641e-06
2.61844e-06
2.0967e-06
1.61387e-06
1.17614e-06
7.82091e-07
4.23193e-07
8.4403e-08
2.89866e-09
2.87816e-09
8.38179e-08
4.20433e-07
7.77257e-07
1.16937e-06
1.60542e-06
2.08692e-06
2.60776e-06
3.15526e-06
3.71296e-06
4.26317e-06
4.78794e-06
5.26937e-06
5.69025e-06
6.03512e-06
6.29124e-06
6.44919e-06
6.5032e-06
6.4513e-06
6.29538e-06
6.04114e-06
5.69794e-06
5.27845e-06
4.79808e-06
4.27402e-06
3.72416e-06
3.16641e-06
2.61844e-06
2.0967e-06
1.61387e-06
1.17614e-06
7.82091e-07
4.23193e-07
8.4403e-08
2.89866e-09
2.87816e-09
8.38179e-08
4.20433e-07
7.77257e-07
1.16937e-06
1.60542e-06
2.08692e-06
2.60776e-06
3.15526e-06
3.71296e-06
4.26317e-06
4.78794e-06
5.26937e-06
5.69025e-06
6.03512e-06
6.29124e-06
6.44919e-06
6.5032e-06
6.4513e-06
6.29538e-06
6.04114e-06
5.69794e-06
5.27845e-06
4.79808e-06
4.27402e-06
3.72416e-06
3.16641e-06
2.61844e-06
2.0967e-06
1.61387e-06
1.17614e-06
7.82091e-07
4.23193e-07
8.4403e-08
2.89866e-09
2.87816e-09
8.38179e-08
4.20433e-07
7.77257e-07
1.16937e-06
1.60542e-06
2.08692e-06
2.60776e-06
3.15526e-06
3.71296e-06
4.26317e-06
4.78794e-06
5.26937e-06
5.69025e-06
6.03512e-06
6.29124e-06
6.44919e-06
6.5032e-06
6.4513e-06
6.29538e-06
6.04114e-06
5.69794e-06
5.27845e-06
4.79808e-06
4.27402e-06
3.72416e-06
3.16641e-06
2.61844e-06
2.0967e-06
1.61387e-06
1.17614e-06
7.82091e-07
4.23193e-07
8.4403e-08
2.89866e-09
2.87816e-09
8.38179e-08
4.20433e-07
7.77257e-07
1.16937e-06
1.60542e-06
2.08692e-06
2.60776e-06
3.15526e-06
3.71296e-06
4.26317e-06
4.78794e-06
5.26937e-06
5.69025e-06
6.03512e-06
6.29124e-06
6.44919e-06
6.5032e-06
6.4513e-06
6.29538e-06
6.04114e-06
5.69794e-06
5.27845e-06
4.79808e-06
4.27402e-06
3.72416e-06
3.16641e-06
2.61844e-06
2.0967e-06
1.61387e-06
1.17614e-06
7.82091e-07
4.23193e-07
8.4403e-08
2.89866e-09
2.87816e-09
8.38179e-08
4.20433e-07
7.77257e-07
1.16937e-06
1.60542e-06
2.08692e-06
2.60776e-06
3.15526e-06
3.71296e-06
4.26317e-06
4.78794e-06
5.26937e-06
5.69025e-06
6.03512e-06
6.29124e-06
6.44919e-06
6.5032e-06
6.4513e-06
6.29538e-06
6.04114e-06
5.69794e-06
5.27845e-06
4.79808e-06
4.27402e-06
3.72416e-06
3.16641e-06
2.61844e-06
2.0967e-06
1.61387e-06
1.17614e-06
7.82091e-07
4.23193e-07
8.4403e-08
2.89866e-09
2.87816e-09
8.38179e-08
4.20433e-07
7.77257e-07
1.16937e-06
1.60542e-06
2.08692e-06
2.60776e-06
3.15526e-06
3.71296e-06
4.26317e-06
4.78794e-06
5.26937e-06
5.69025e-06
6.03512e-06
6.29124e-06
6.44919e-06
6.5032e-06
6.4513e-06
6.29538e-06
6.04114e-06
5.69794e-06
5.27845e-06
4.79808e-06
4.27402e-06
3.72416e-06
3.16641e-06
2.61844e-06
2.0967e-06
1.61387e-06
1.17614e-06
7.82091e-07
4.23193e-07
8.4403e-08
2.89866e-09
2.87816e-09
8.38179e-08
4.20433e-07
7.77257e-07
1.16937e-06
1.60542e-06
2.08692e-06
2.60776e-06
3.15526e-06
3.71296e-06
4.26317e-06
4.78794e-06
5.26937e-06
5.69025e-06
6.03512e-06
6.29124e-06
6.44919e-06
6.5032e-06
6.4513e-06
6.29538e-06
6.04114e-06
5.69794e-06
5.27845e-06
4.79808e-06
4.27402e-06
3.72416e-06
3.16641e-06
2.61844e-06
2.0967e-06
1.61387e-06
1.17614e-06
7.82091e-07
4.23193e-07
8.4403e-08
2.89866e-09
2.87816e-09
8.38179e-08
4.20433e-07
7.77257e-07
1.16937e-06
1.60542e-06
2.08692e-06
2.60776e-06
3.15526e-06
3.71296e-06
4.26317e-06
4.78794e-06
5.26937e-06
5.69025e-06
6.03512e-06
6.29124e-06
6.44919e-06
6.5032e-06
6.4513e-06
6.29538e-06
6.04114e-06
5.69794e-06
5.27845e-06
4.79808e-06
4.27402e-06
3.72416e-06
3.16641e-06
2.61844e-06
2.0967e-06
1.61387e-06
1.17614e-06
7.82091e-07
4.23193e-07
8.4403e-08
2.89866e-09
2.87816e-09
8.38179e-08
4.20433e-07
7.77257e-07
1.16937e-06
1.60542e-06
2.08692e-06
2.60776e-06
3.15526e-06
3.71296e-06
4.26317e-06
4.78794e-06
5.26937e-06
5.69025e-06
6.03512e-06
6.29124e-06
6.44919e-06
6.5032e-06
6.4513e-06
6.29538e-06
6.04114e-06
5.69794e-06
5.27845e-06
4.79808e-06
4.27402e-06
3.72416e-06
3.16641e-06
2.61844e-06
2.0967e-06
1.61387e-06
1.17614e-06
7.82091e-07
4.23193e-07
8.4403e-08
2.89866e-09
2.87816e-09
8.38179e-08
4.20433e-07
7.77257e-07
1.16937e-06
1.60542e-06
2.08692e-06
2.60776e-06
3.15526e-06
3.71296e-06
4.26317e-06
4.78794e-06
5.26937e-06
5.69025e-06
6.03512e-06
6.29124e-06
6.44919e-06
6.5032e-06
6.4513e-06
6.29538e-06
6.04114e-06
5.69794e-06
5.27845e-06
4.79808e-06
4.27402e-06
3.72416e-06
3.16641e-06
2.61844e-06
2.0967e-06
1.61387e-06
1.17614e-06
7.82091e-07
4.23193e-07
8.4403e-08
2.89866e-09
2.87816e-09
8.38179e-08
4.20433e-07
7.77257e-07
1.16937e-06
1.60542e-06
2.08692e-06
2.60776e-06
3.15526e-06
3.71296e-06
4.26317e-06
4.78794e-06
5.26937e-06
5.69025e-06
6.03512e-06
6.29124e-06
6.44919e-06
6.5032e-06
6.4513e-06
6.29538e-06
6.04114e-06
5.69794e-06
5.27845e-06
4.79808e-06
4.27402e-06
3.72416e-06
3.16641e-06
2.61844e-06
2.0967e-06
1.61387e-06
1.17614e-06
7.82091e-07
4.23193e-07
8.4403e-08
2.89866e-09
2.87816e-09
8.38179e-08
4.20433e-07
7.77257e-07
1.16937e-06
1.60542e-06
2.08692e-06
2.60776e-06
3.15526e-06
3.71296e-06
4.26317e-06
4.78794e-06
5.26937e-06
5.69025e-06
6.03512e-06
6.29124e-06
6.44919e-06
6.5032e-06
6.4513e-06
6.29538e-06
6.04114e-06
5.69794e-06
5.27845e-06
4.79808e-06
4.27402e-06
3.72416e-06
3.16641e-06
2.61844e-06
2.0967e-06
1.61387e-06
1.17614e-06
7.82091e-07
4.23193e-07
8.4403e-08
2.89866e-09
2.87816e-09
8.38179e-08
4.20433e-07
7.77257e-07
1.16937e-06
1.60542e-06
2.08692e-06
2.60776e-06
3.15526e-06
3.71296e-06
4.26317e-06
4.78794e-06
5.26937e-06
5.69025e-06
6.03512e-06
6.29124e-06
6.44919e-06
6.5032e-06
6.4513e-06
6.29538e-06
6.04114e-06
5.69794e-06
5.27845e-06
4.79808e-06
4.27402e-06
3.72416e-06
3.16641e-06
2.61844e-06
2.0967e-06
1.61387e-06
1.17614e-06
7.82091e-07
4.23193e-07
8.4403e-08
2.89866e-09
2.87816e-09
8.38179e-08
4.20433e-07
7.77257e-07
1.16937e-06
1.60542e-06
2.08692e-06
2.60776e-06
3.15526e-06
3.71296e-06
4.26317e-06
4.78794e-06
5.26937e-06
5.69025e-06
6.03512e-06
6.29124e-06
6.44919e-06
6.5032e-06
6.4513e-06
6.29538e-06
6.04114e-06
5.69794e-06
5.27845e-06
4.79808e-06
4.27402e-06
3.72416e-06
3.16641e-06
2.61844e-06
2.0967e-06
1.61387e-06
1.17614e-06
7.82091e-07
4.23193e-07
8.4403e-08
2.89866e-09
2.87816e-09
8.38179e-08
4.20433e-07
7.77257e-07
1.16937e-06
1.60542e-06
2.08692e-06
2.60776e-06
3.15526e-06
3.71296e-06
4.26317e-06
4.78794e-06
5.26937e-06
5.69025e-06
6.03512e-06
6.29124e-06
6.44919e-06
6.5032e-06
6.4513e-06
6.29538e-06
6.04114e-06
5.69794e-06
5.27845e-06
4.79808e-06
4.27402e-06
3.72416e-06
3.16641e-06
2.61844e-06
2.0967e-06
1.61387e-06
1.17614e-06
7.82091e-07
4.23193e-07
8.4403e-08
2.89866e-09
2.87816e-09
8.38179e-08
4.20433e-07
7.77257e-07
1.16937e-06
1.60542e-06
2.08692e-06
2.60776e-06
3.15526e-06
3.71296e-06
4.26317e-06
4.78794e-06
5.26937e-06
5.69025e-06
6.03512e-06
6.29124e-06
6.44919e-06
6.5032e-06
6.4513e-06
6.29538e-06
6.04114e-06
5.69794e-06
5.27845e-06
4.79808e-06
4.27402e-06
3.72416e-06
3.16641e-06
2.61844e-06
2.0967e-06
1.61387e-06
1.17614e-06
7.82091e-07
4.23193e-07
8.4403e-08
2.89866e-09
2.87816e-09
8.38179e-08
4.20433e-07
7.77257e-07
1.16937e-06
1.60542e-06
2.08692e-06
2.60776e-06
3.15526e-06
3.71296e-06
4.26317e-06
4.78794e-06
5.26937e-06
5.69025e-06
6.03512e-06
6.29124e-06
6.44919e-06
6.5032e-06
6.4513e-06
6.29538e-06
6.04114e-06
5.69794e-06
5.27845e-06
4.79808e-06
4.27402e-06
3.72416e-06
3.16641e-06
2.61844e-06
2.0967e-06
1.61387e-06
1.17614e-06
7.82091e-07
4.23193e-07
8.4403e-08
2.89866e-09
2.87816e-09
8.38179e-08
4.20433e-07
7.77257e-07
1.16937e-06
1.60542e-06
2.08692e-06
2.60776e-06
3.15526e-06
3.71296e-06
4.26317e-06
4.78794e-06
5.26937e-06
5.69025e-06
6.03512e-06
6.29124e-06
6.44919e-06
6.5032e-06
6.4513e-06
6.29538e-06
6.04114e-06
5.69794e-06
5.27845e-06
4.79808e-06
4.27402e-06
3.72416e-06
3.16641e-06
2.61844e-06
2.0967e-06
1.61387e-06
1.17614e-06
7.82091e-07
4.23193e-07
8.4403e-08
2.89866e-09
2.87816e-09
8.38179e-08
4.20433e-07
7.77257e-07
1.16937e-06
1.60542e-06
2.08692e-06
2.60776e-06
3.15526e-06
3.71296e-06
4.26317e-06
4.78794e-06
5.26937e-06
5.69025e-06
6.03512e-06
6.29124e-06
6.44919e-06
6.5032e-06
6.4513e-06
6.29538e-06
6.04114e-06
5.69794e-06
5.27845e-06
4.79808e-06
4.27402e-06
3.72416e-06
3.16641e-06
2.61844e-06
2.0967e-06
1.61387e-06
1.17614e-06
7.82091e-07
4.23193e-07
8.4403e-08
2.89866e-09
2.87816e-09
8.38179e-08
4.20433e-07
7.77257e-07
1.16937e-06
1.60542e-06
2.08692e-06
2.60776e-06
3.15526e-06
3.71296e-06
4.26317e-06
4.78794e-06
5.26937e-06
5.69025e-06
6.03512e-06
6.29124e-06
6.44919e-06
6.5032e-06
6.4513e-06
6.29538e-06
6.04114e-06
5.69794e-06
5.27845e-06
4.79808e-06
4.27402e-06
3.72416e-06
3.16641e-06
2.61844e-06
2.0967e-06
1.61387e-06
1.17614e-06
7.82091e-07
4.23193e-07
8.4403e-08
2.89866e-09
2.87816e-09
8.38179e-08
4.20433e-07
7.77257e-07
1.16937e-06
1.60542e-06
2.08692e-06
2.60776e-06
3.15526e-06
3.71296e-06
4.26317e-06
4.78794e-06
5.26937e-06
5.69025e-06
6.03512e-06
6.29124e-06
6.44919e-06
6.5032e-06
6.4513e-06
6.29538e-06
6.04114e-06
5.69794e-06
5.27845e-06
4.79808e-06
4.27402e-06
3.72416e-06
3.16641e-06
2.61844e-06
2.0967e-06
1.61387e-06
1.17614e-06
7.82091e-07
4.23193e-07
8.4403e-08
2.89866e-09
2.87816e-09
8.38179e-08
4.20433e-07
7.77257e-07
1.16937e-06
1.60542e-06
2.08692e-06
2.60776e-06
3.15526e-06
3.71296e-06
4.26317e-06
4.78794e-06
5.26937e-06
5.69025e-06
6.03512e-06
6.29124e-06
6.44919e-06
6.5032e-06
6.4513e-06
6.29538e-06
6.04114e-06
5.69794e-06
5.27845e-06
4.79808e-06
4.27402e-06
3.72416e-06
3.16641e-06
2.61844e-06
2.0967e-06
1.61387e-06
1.17614e-06
7.82091e-07
4.23193e-07
8.4403e-08
2.89866e-09
2.87816e-09
8.38179e-08
4.20433e-07
7.77257e-07
1.16937e-06
1.60542e-06
2.08692e-06
2.60776e-06
3.15526e-06
3.71296e-06
4.26317e-06
4.78794e-06
5.26937e-06
5.69025e-06
6.03512e-06
6.29124e-06
6.44919e-06
6.5032e-06
6.4513e-06
6.29538e-06
6.04114e-06
5.69794e-06
5.27845e-06
4.79808e-06
4.27402e-06
3.72416e-06
3.16641e-06
2.61844e-06
2.0967e-06
1.61387e-06
1.17614e-06
7.82091e-07
4.23193e-07
8.4403e-08
2.89866e-09
2.87816e-09
8.38179e-08
4.20433e-07
7.77257e-07
1.16937e-06
1.60542e-06
2.08692e-06
2.60776e-06
3.15526e-06
3.71296e-06
4.26317e-06
4.78794e-06
5.26937e-06
5.69025e-06
6.03512e-06
6.29124e-06
6.44919e-06
6.5032e-06
6.4513e-06
6.29538e-06
6.04114e-06
5.69794e-06
5.27845e-06
4.79808e-06
4.27402e-06
3.72416e-06
3.16641e-06
2.61844e-06
2.0967e-06
1.61387e-06
1.17614e-06
7.82091e-07
4.23193e-07
8.4403e-08
2.89866e-09
2.87816e-09
8.38179e-08
4.20433e-07
7.77257e-07
1.16937e-06
1.60542e-06
2.08692e-06
2.60776e-06
3.15526e-06
3.71296e-06
4.26317e-06
4.78794e-06
5.26937e-06
5.69025e-06
6.03512e-06
6.29124e-06
6.44919e-06
6.5032e-06
6.4513e-06
6.29538e-06
6.04114e-06
5.69794e-06
5.27845e-06
4.79808e-06
4.27402e-06
3.72416e-06
3.16641e-06
2.61844e-06
2.0967e-06
1.61387e-06
1.17614e-06
7.82091e-07
4.23193e-07
8.4403e-08
2.89866e-09
2.87816e-09
8.38179e-08
4.20433e-07
7.77257e-07
1.16937e-06
1.60542e-06
2.08692e-06
2.60776e-06
3.15526e-06
3.71296e-06
4.26317e-06
4.78794e-06
5.26937e-06
5.69025e-06
6.03512e-06
6.29124e-06
6.44919e-06
6.5032e-06
6.4513e-06
6.29538e-06
6.04114e-06
5.69794e-06
5.27845e-06
4.79808e-06
4.27402e-06
3.72416e-06
3.16641e-06
2.61844e-06
2.0967e-06
1.61387e-06
1.17614e-06
7.82091e-07
4.23193e-07
8.4403e-08
2.89866e-09
2.87816e-09
8.38179e-08
4.20433e-07
7.77257e-07
1.16937e-06
1.60542e-06
2.08692e-06
2.60776e-06
3.15526e-06
3.71296e-06
4.26317e-06
4.78794e-06
5.26937e-06
5.69025e-06
6.03512e-06
6.29124e-06
6.44919e-06
6.5032e-06
6.4513e-06
6.29538e-06
6.04114e-06
5.69794e-06
5.27845e-06
4.79808e-06
4.27402e-06
3.72416e-06
3.16641e-06
2.61844e-06
2.0967e-06
1.61387e-06
1.17614e-06
7.82091e-07
4.23193e-07
8.4403e-08
2.89866e-09
2.87816e-09
8.38179e-08
4.20433e-07
7.77257e-07
1.16937e-06
1.60542e-06
2.08692e-06
2.60776e-06
3.15526e-06
3.71296e-06
4.26317e-06
4.78794e-06
5.26937e-06
5.69025e-06
6.03512e-06
6.29124e-06