/*--------------------------------*- C++ -*----------------------------------*\
  =========                 |
  \\      /  F ield         | OpenFOAM: The Open Source CFD Toolbox
   \\    /   O peration     | Website:  https://openfoam.org
    \\  /    A nd           | Version:  13
     \\/     M anipulation  |
\*---------------------------------------------------------------------------*/
FoamFile
{
    format      ascii;
    class       volScalarField;
    location    "39";
    object      k;
}
// * * * * * * * * * * * * * * * * * * * * * * * * * * * * * * * * * * * * * //

dimensions      [0 2 -2 0 0 0 0];

internalField   nonuniform List<scalar> 
78750
(
2.22045e-16
2.22045e-16
2.22045e-16
2.22045e-16
2.22045e-16
2.22045e-16
2.22045e-16
2.52437e-16
2.95033e-16
3.40012e-16
3.85028e-16
4.28283e-16
4.68195e-16
5.03311e-16
5.3233e-16
5.54149e-16
5.67923e-16
5.73109e-16
5.69497e-16
5.57227e-16
5.36772e-16
5.08921e-16
4.74729e-16
4.35462e-16
3.92549e-16
3.47557e-16
3.02251e-16
2.58902e-16
2.22045e-16
2.22045e-16
2.22045e-16
2.22045e-16
2.22045e-16
2.22045e-16
2.22045e-16
2.22045e-16
2.31928e-16
1.0928e-15
1.98304e-15
2.92024e-15
3.915e-15
4.96951e-15
6.07678e-15
7.22086e-15
8.37809e-15
9.51872e-15
1.06089e-14
1.1613e-14
1.24958e-14
1.32247e-14
1.37719e-14
1.41158e-14
1.42426e-14
1.41473e-14
1.38335e-14
1.33135e-14
1.26076e-14
1.17428e-14
1.07509e-14
9.66699e-15
8.52667e-15
7.36416e-15
6.20987e-15
5.08829e-15
4.01617e-15
3.00118e-15
2.04164e-15
1.12701e-15
2.39171e-16
2.22045e-16
2.22045e-16
6.10142e-16
2.98984e-15
5.48393e-15
8.16323e-15
1.10748e-14
1.42365e-14
1.76335e-14
2.12182e-14
2.49127e-14
2.86139e-14
3.22007e-14
3.5542e-14
3.85061e-14
4.09695e-14
4.28253e-14
4.39911e-14
4.4414e-14
4.40745e-14
4.29877e-14
4.12026e-14
3.87982e-14
3.58788e-14
3.25662e-14
2.89919e-14
2.52872e-14
2.15748e-14
1.796e-14
1.45231e-14
1.13145e-14
8.35129e-15
5.61732e-15
3.06608e-15
6.26154e-16
2.22045e-16
2.22045e-16
1.14203e-15
5.65665e-15
1.04091e-14
1.55508e-14
2.11858e-14
2.73588e-14
3.40479e-14
4.1163e-14
4.85495e-14
5.59981e-14
6.32582e-14
7.00547e-14
7.61079e-14
8.11532e-14
8.49603e-14
8.73504e-14
8.82087e-14
8.74936e-14
8.52392e-14
8.15529e-14
7.66077e-14
7.06295e-14
6.38802e-14
5.6639e-14
4.91819e-14
4.17624e-14
3.45938e-14
2.78353e-14
2.15818e-14
1.58593e-14
1.06263e-14
5.7799e-15
1.16777e-15
2.22045e-16
2.22045e-16
1.73418e-15
8.6249e-15
1.58874e-14
2.37606e-14
3.241e-14
4.19086e-14
5.2226e-14
6.32245e-14
7.46656e-14
8.62236e-14
9.75065e-14
1.08083e-13
1.17512e-13
1.25376e-13
1.31311e-13
1.35034e-13
1.36362e-13
1.35231e-13
1.31695e-13
1.25927e-13
1.182e-13
1.08873e-13
9.83612e-14
8.71033e-14
7.55326e-14
6.40451e-14
5.2972e-14
4.25583e-14
3.29484e-14
2.41787e-14
1.61806e-14
8.79062e-15
1.76871e-15
2.22045e-16
2.22045e-16
2.31199e-15
1.15206e-14
2.12285e-14
3.17578e-14
4.3332e-14
5.60504e-14
6.98729e-14
8.46157e-14
9.99588e-14
1.15465e-13
1.30606e-13
1.44803e-13
1.57461e-13
1.68019e-13
1.75985e-13
1.80977e-13
1.82751e-13
1.81219e-13
1.76456e-13
1.68695e-13
1.58306e-13
1.45774e-13
1.31656e-13
1.16544e-13
1.01023e-13
8.56221e-14
7.0787e-14
5.68455e-14
4.39898e-14
3.22676e-14
2.1585e-14
1.17215e-14
2.3538e-15
2.22045e-16
2.22045e-16
2.8317e-15
1.4125e-14
2.60306e-14
3.89446e-14
5.31416e-14
6.87439e-14
8.57025e-14
1.03792e-13
1.22619e-13
1.41646e-13
1.60227e-13
1.77648e-13
1.93181e-13
2.06134e-13
2.15904e-13
2.22024e-13
2.24192e-13
2.22302e-13
2.16446e-13
2.0691e-13
1.94151e-13
1.78763e-13
1.61433e-13
1.42887e-13
1.23841e-13
1.04947e-13
8.67513e-14
6.96553e-14
5.38947e-14
3.95272e-14
2.64373e-14
1.43537e-14
2.87925e-15
2.22045e-16
2.22045e-16
3.271e-15
1.63264e-14
3.00891e-14
4.50173e-14
6.14284e-14
7.94639e-14
9.90672e-14
1.19977e-13
1.4174e-13
1.63733e-13
1.8521e-13
2.05345e-13
2.23296e-13
2.38264e-13
2.49552e-13
2.56618e-13
2.59117e-13
2.56924e-13
2.50148e-13
2.39117e-13
2.24363e-13
2.06571e-13
1.86535e-13
1.65097e-13
1.43083e-13
1.21247e-13
1.00219e-13
8.04639e-14
6.22537e-14
4.56549e-14
3.05335e-14
1.65758e-14
3.32283e-15
2.22045e-16
2.22045e-16
3.6219e-15
1.80851e-14
3.33312e-14
4.98678e-14
6.80468e-14
8.80248e-14
1.09739e-13
1.329e-13
1.57004e-13
1.81364e-13
2.0515e-13
2.2745e-13
2.47329e-13
2.63902e-13
2.764e-13
2.8422e-13
2.86982e-13
2.84546e-13
2.77034e-13
2.64811e-13
2.48465e-13
2.28755e-13
2.06562e-13
1.82816e-13
1.58434e-13
1.34251e-13
1.10964e-13
8.90881e-14
6.89237e-14
5.05445e-14
3.38022e-14
1.83491e-14
3.67674e-15
2.22045e-16
2.22045e-16
3.88704e-15
1.94142e-14
3.57813e-14
5.35334e-14
7.30481e-14
9.44936e-14
1.17802e-13
1.42664e-13
1.68537e-13
1.94684e-13
2.20215e-13
2.44148e-13
2.65483e-13
2.83269e-13
2.96679e-13
3.05069e-13
3.08027e-13
3.05408e-13
2.97339e-13
2.84216e-13
2.66666e-13
2.45508e-13
2.21684e-13
1.96196e-13
1.70026e-13
1.4407e-13
1.19077e-13
9.55993e-14
7.39593e-14
5.4236e-14
3.62698e-14
1.96877e-14
3.94384e-15
2.22045e-16
2.22045e-16
4.07657e-15
2.03645e-14
3.75331e-14
5.61542e-14
7.66238e-14
9.91185e-14
1.23567e-13
1.49644e-13
1.76782e-13
2.04207e-13
2.30984e-13
2.56085e-13
2.7846e-13
2.97113e-13
3.11174e-13
3.1997e-13
3.23069e-13
3.20318e-13
3.11851e-13
2.98083e-13
2.79673e-13
2.57478e-13
2.3249e-13
2.05756e-13
1.78307e-13
1.51084e-13
1.24873e-13
1.0025e-13
7.75562e-14
5.68726e-14
3.80322e-14
2.06436e-14
4.13454e-15
2.22045e-16
2.22045e-16
4.20477e-15
2.10074e-14
3.87184e-14
5.79274e-14
7.90431e-14
1.02248e-13
1.27468e-13
1.54367e-13
1.82361e-13
2.1065e-13
2.3827e-13
2.64162e-13
2.8724e-13
3.06479e-13
3.20981e-13
3.30051e-13
3.33245e-13
3.30404e-13
3.21667e-13
3.07462e-13
2.8847e-13
2.65574e-13
2.39797e-13
2.1222e-13
1.83907e-13
1.55827e-13
1.28791e-13
1.03395e-13
7.99877e-14
5.86548e-14
3.92234e-14
2.12897e-14
4.26338e-15
2.22045e-16
2.22045e-16
4.28689e-15
2.14194e-14
3.94779e-14
5.90637e-14
8.05935e-14
1.04253e-13
1.29967e-13
1.57394e-13
1.85936e-13
2.14778e-13
2.42939e-13
2.69337e-13
2.92867e-13
3.1248e-13
3.27265e-13
3.3651e-13
3.39765e-13
3.36866e-13
3.27956e-13
3.13471e-13
2.94105e-13
2.7076e-13
2.44478e-13
2.16361e-13
1.87493e-13
1.58865e-13
1.313e-13
1.05408e-13
8.15443e-14
5.97957e-14
3.99859e-14
2.17033e-14
4.34582e-15
2.22045e-16
2.22045e-16
4.33676e-15
2.16697e-14
3.99393e-14
5.9754e-14
8.15354e-14
1.05471e-13
1.31486e-13
1.59233e-13
1.88108e-13
2.17287e-13
2.45776e-13
2.72482e-13
2.96285e-13
3.16127e-13
3.31083e-13
3.40435e-13
3.43726e-13
3.40792e-13
3.31777e-13
3.17121e-13
2.97528e-13
2.7391e-13
2.4732e-13
2.18875e-13
1.89671e-13
1.60709e-13
1.32823e-13
1.0663e-13
8.24893e-14
6.04882e-14
4.04487e-14
2.19543e-14
4.39584e-15
2.22045e-16
2.22045e-16
4.36552e-15
2.18141e-14
4.02056e-14
6.01523e-14
8.20789e-14
1.06174e-13
1.32362e-13
1.60294e-13
1.89361e-13
2.18734e-13
2.47413e-13
2.74296e-13
2.98258e-13
3.18231e-13
3.33285e-13
3.42699e-13
3.46011e-13
3.43056e-13
3.33981e-13
3.19227e-13
2.99503e-13
2.75727e-13
2.4896e-13
2.20325e-13
1.90927e-13
1.61772e-13
1.33702e-13
1.07335e-13
8.30341e-14
6.08874e-14
4.07155e-14
2.20989e-14
4.42465e-15
2.22045e-16
2.22045e-16
4.3813e-15
2.18933e-14
4.03516e-14
6.03709e-14
8.23771e-14
1.0656e-13
1.32843e-13
1.60876e-13
1.90049e-13
2.19529e-13
2.48312e-13
2.75292e-13
2.9934e-13
3.19385e-13
3.34494e-13
3.43942e-13
3.47265e-13
3.44299e-13
3.3519e-13
3.20382e-13
3.00586e-13
2.76724e-13
2.49859e-13
2.2112e-13
1.91616e-13
1.62355e-13
1.34183e-13
1.07721e-13
8.33327e-14
6.11062e-14
4.08617e-14
2.21782e-14
4.44043e-15
2.22045e-16
2.22045e-16
4.38954e-15
2.19347e-14
4.0428e-14
6.04851e-14
8.25329e-14
1.06762e-13
1.33094e-13
1.6118e-13
1.90409e-13
2.19944e-13
2.48781e-13
2.75812e-13
2.99906e-13
3.19989e-13
3.35126e-13
3.44591e-13
3.4792e-13
3.44949e-13
3.35822e-13
3.20986e-13
3.01152e-13
2.77244e-13
2.50329e-13
2.21536e-13
1.91975e-13
1.6266e-13
1.34435e-13
1.07923e-13
8.34887e-14
6.12205e-14
4.09381e-14
2.22196e-14
4.44867e-15
2.22045e-16
2.22045e-16
4.39364e-15
2.19554e-14
4.04661e-14
6.05421e-14
8.26107e-14
1.06862e-13
1.3322e-13
1.61332e-13
1.90588e-13
2.20151e-13
2.49016e-13
2.76072e-13
3.00188e-13
3.2029e-13
3.35442e-13
3.44915e-13
3.48248e-13
3.45273e-13
3.36137e-13
3.21287e-13
3.01435e-13
2.77504e-13
2.50564e-13
2.21743e-13
1.92155e-13
1.62812e-13
1.3456e-13
1.08024e-13
8.35665e-14
6.12775e-14
4.09761e-14
2.22402e-14
4.45277e-15
2.22045e-16
2.22045e-16
4.3956e-15
2.19652e-14
4.04842e-14
6.05693e-14
8.26478e-14
1.0691e-13
1.3328e-13
1.61405e-13
1.90674e-13
2.2025e-13
2.49127e-13
2.76196e-13
3.00323e-13
3.20434e-13
3.35592e-13
3.4507e-13
3.48404e-13
3.45427e-13
3.36288e-13
3.21431e-13
3.01569e-13
2.77628e-13
2.50675e-13
2.21842e-13
1.9224e-13
1.62884e-13
1.3462e-13
1.08072e-13
8.36035e-14
6.13047e-14
4.09942e-14
2.225e-14
4.45473e-15
2.22045e-16
2.22045e-16
4.3965e-15
2.19697e-14
4.04925e-14
6.05817e-14
8.26647e-14
1.06932e-13
1.33307e-13
1.61438e-13
1.90713e-13
2.20295e-13
2.49178e-13
2.76253e-13
3.00384e-13
3.20499e-13
3.35661e-13
3.45141e-13
3.48475e-13
3.45498e-13
3.36356e-13
3.21496e-13
3.01631e-13
2.77685e-13
2.50726e-13
2.21887e-13
1.9228e-13
1.62917e-13
1.34647e-13
1.08093e-13
8.36204e-14
6.1317e-14
4.10025e-14
2.22545e-14
4.45562e-15
2.22045e-16
2.22045e-16
4.39689e-15
2.19717e-14
4.04961e-14
6.05871e-14
8.26721e-14
1.06942e-13
1.33319e-13
1.61452e-13
1.9073e-13
2.20315e-13
2.49201e-13
2.76277e-13
3.00411e-13
3.20528e-13
3.35691e-13
3.45171e-13
3.48506e-13
3.45529e-13
3.36386e-13
3.21525e-13
3.01658e-13
2.7771e-13
2.50749e-13
2.21907e-13
1.92297e-13
1.62932e-13
1.34659e-13
1.08103e-13
8.36278e-14
6.13225e-14
4.10061e-14
2.22565e-14
4.45601e-15
2.22045e-16
2.22045e-16
4.39705e-15
2.19725e-14
4.04977e-14
6.05894e-14
8.26752e-14
1.06946e-13
1.33324e-13
1.61458e-13
1.90737e-13
2.20323e-13
2.4921e-13
2.76288e-13
3.00423e-13
3.2054e-13
3.35703e-13
3.45184e-13
3.48519e-13
3.45542e-13
3.36399e-13
3.21537e-13
3.01669e-13
2.7772e-13
2.50758e-13
2.21915e-13
1.92304e-13
1.62938e-13
1.34664e-13
1.08107e-13
8.36309e-14
6.13247e-14
4.10077e-14
2.22573e-14
4.45617e-15
2.22045e-16
2.22045e-16
4.39712e-15
2.19729e-14
4.04983e-14
6.05903e-14
8.26765e-14
1.06947e-13
1.33326e-13
1.61461e-13
1.9074e-13
2.20327e-13
2.49214e-13
2.76292e-13
3.00427e-13
3.20545e-13
3.35708e-13
3.4519e-13
3.48524e-13
3.45547e-13
3.36404e-13
3.21542e-13
3.01674e-13
2.77724e-13
2.50762e-13
2.21919e-13
1.92307e-13
1.6294e-13
1.34666e-13
1.08109e-13
8.36322e-14
6.13257e-14
4.10083e-14
2.22576e-14
4.45624e-15
2.22045e-16
2.22045e-16
4.39714e-15
2.1973e-14
4.04985e-14
6.05907e-14
8.2677e-14
1.06948e-13
1.33327e-13
1.61462e-13
1.90741e-13
2.20328e-13
2.49215e-13
2.76294e-13
3.00429e-13
3.20547e-13
3.3571e-13
3.45192e-13
3.48526e-13
3.45549e-13
3.36406e-13
3.21544e-13
3.01675e-13
2.77726e-13
2.50763e-13
2.2192e-13
1.92308e-13
1.62941e-13
1.34667e-13
1.08109e-13
8.36327e-14
6.1326e-14
4.10085e-14
2.22578e-14
4.45626e-15
2.22045e-16
2.22045e-16
4.39715e-15
2.1973e-14
4.04986e-14
6.05908e-14
8.26772e-14
1.06948e-13
1.33327e-13
1.61462e-13
1.90741e-13
2.20328e-13
2.49216e-13
2.76294e-13
3.0043e-13
3.20548e-13
3.35711e-13
3.45193e-13
3.48527e-13
3.4555e-13
3.36407e-13
3.21545e-13
3.01676e-13
2.77726e-13
2.50764e-13
2.2192e-13
1.92308e-13
1.62942e-13
1.34667e-13
1.0811e-13
8.36329e-14
6.13261e-14
4.10086e-14
2.22578e-14
4.45627e-15
2.22045e-16
2.22045e-16
4.39716e-15
2.19731e-14
4.04987e-14
6.05909e-14
8.26772e-14
1.06948e-13
1.33327e-13
1.61462e-13
1.90742e-13
2.20329e-13
2.49216e-13
2.76294e-13
3.0043e-13
3.20548e-13
3.35711e-13
3.45193e-13
3.48528e-13
3.4555e-13
3.36407e-13
3.21545e-13
3.01676e-13
2.77727e-13
2.50764e-13
2.21921e-13
1.92308e-13
1.62942e-13
1.34667e-13
1.0811e-13
8.36329e-14
6.13262e-14
4.10086e-14
2.22578e-14
4.45627e-15
2.22045e-16
2.22045e-16
4.39716e-15
2.19731e-14
4.04987e-14
6.05909e-14
8.26773e-14
1.06948e-13
1.33327e-13
1.61462e-13
1.90742e-13
2.20329e-13
2.49216e-13
2.76295e-13
3.0043e-13
3.20548e-13
3.35712e-13
3.45193e-13
3.48528e-13
3.4555e-13
3.36407e-13
3.21545e-13
3.01676e-13
2.77727e-13
2.50764e-13
2.21921e-13
1.92308e-13
1.62942e-13
1.34668e-13
1.0811e-13
8.3633e-14
6.13262e-14
4.10087e-14
2.22578e-14
4.45628e-15
2.22045e-16
2.22045e-16
4.39716e-15
2.19731e-14
4.04987e-14
6.05909e-14
8.26773e-14
1.06948e-13
1.33327e-13
1.61462e-13
1.90742e-13
2.20329e-13
2.49216e-13
2.76295e-13
3.0043e-13
3.20548e-13
3.35712e-13
3.45193e-13
3.48528e-13
3.4555e-13
3.36407e-13
3.21545e-13
3.01676e-13
2.77727e-13
2.50764e-13
2.21921e-13
1.92309e-13
1.62942e-13
1.34668e-13
1.0811e-13
8.3633e-14
6.13262e-14
4.10087e-14
2.22578e-14
4.45628e-15
2.22045e-16
2.22045e-16
4.39716e-15
2.19731e-14
4.04987e-14
6.05909e-14
8.26773e-14
1.06948e-13
1.33327e-13
1.61462e-13
1.90742e-13
2.20329e-13
2.49216e-13
2.76295e-13
3.0043e-13
3.20548e-13
3.35712e-13
3.45193e-13
3.48528e-13
3.4555e-13
3.36407e-13
3.21545e-13
3.01676e-13
2.77727e-13
2.50764e-13
2.21921e-13
1.92309e-13
1.62942e-13
1.34668e-13
1.0811e-13
8.3633e-14
6.13262e-14
4.10087e-14
2.22578e-14
4.45628e-15
2.22045e-16
2.22045e-16
4.39716e-15
2.19731e-14
4.04987e-14
6.05909e-14
8.26773e-14
1.06948e-13
1.33327e-13
1.61462e-13
1.90742e-13
2.20329e-13
2.49216e-13
2.76295e-13
3.0043e-13
3.20548e-13
3.35712e-13
3.45193e-13
3.48528e-13
3.4555e-13
3.36407e-13
3.21545e-13
3.01676e-13
2.77727e-13
2.50764e-13
2.21921e-13
1.92309e-13
1.62942e-13
1.34668e-13
1.0811e-13
8.3633e-14
6.13262e-14
4.10087e-14
2.22578e-14
4.45628e-15
2.22045e-16
2.22045e-16
4.39716e-15
2.19731e-14
4.04987e-14
6.05909e-14
8.26773e-14
1.06948e-13
1.33327e-13
1.61462e-13
1.90742e-13
2.20329e-13
2.49216e-13
2.76295e-13
3.0043e-13
3.20548e-13
3.35712e-13
3.45193e-13
3.48528e-13
3.4555e-13
3.36407e-13
3.21545e-13
3.01676e-13
2.77727e-13
2.50764e-13
2.21921e-13
1.92309e-13
1.62942e-13
1.34668e-13
1.0811e-13
8.3633e-14
6.13262e-14
4.10087e-14
2.22578e-14
4.45628e-15
2.22045e-16
2.22045e-16
4.39716e-15
2.19731e-14
4.04987e-14
6.05909e-14
8.26773e-14
1.06948e-13
1.33327e-13
1.61462e-13
1.90742e-13
2.20329e-13
2.49216e-13
2.76295e-13
3.0043e-13
3.20548e-13
3.35712e-13
3.45193e-13
3.48528e-13
3.4555e-13
3.36407e-13
3.21545e-13
3.01676e-13
2.77727e-13
2.50764e-13
2.21921e-13
1.92309e-13
1.62942e-13
1.34668e-13
1.0811e-13
8.3633e-14
6.13262e-14
4.10087e-14
2.22578e-14
4.45628e-15
2.22045e-16
2.22045e-16
4.39716e-15
2.19731e-14
4.04987e-14
6.05909e-14
8.26773e-14
1.06948e-13
1.33327e-13
1.61462e-13
1.90742e-13
2.20329e-13
2.49216e-13
2.76295e-13
3.0043e-13
3.20548e-13
3.35712e-13
3.45193e-13
3.48528e-13
3.4555e-13
3.36407e-13
3.21545e-13
3.01676e-13
2.77727e-13
2.50764e-13
2.21921e-13
1.92309e-13
1.62942e-13
1.34668e-13
1.0811e-13
8.3633e-14
6.13262e-14
4.10087e-14
2.22578e-14
4.45628e-15
2.22045e-16
2.22045e-16
4.39716e-15
2.19731e-14
4.04987e-14
6.05909e-14
8.26773e-14
1.06948e-13
1.33327e-13
1.61462e-13
1.90742e-13
2.20329e-13
2.49216e-13
2.76295e-13
3.0043e-13
3.20548e-13
3.35712e-13
3.45193e-13
3.48528e-13
3.4555e-13
3.36407e-13
3.21545e-13
3.01676e-13
2.77727e-13
2.50764e-13
2.21921e-13
1.92309e-13
1.62942e-13
1.34668e-13
1.0811e-13
8.3633e-14
6.13262e-14
4.10087e-14
2.22578e-14
4.45628e-15
2.22045e-16
2.22045e-16
4.39716e-15
2.19731e-14
4.04987e-14
6.05909e-14
8.26773e-14
1.06948e-13
1.33327e-13
1.61462e-13
1.90742e-13
2.20329e-13
2.49216e-13
2.76295e-13
3.0043e-13
3.20548e-13
3.35712e-13
3.45193e-13
3.48528e-13
3.4555e-13
3.36407e-13
3.21545e-13
3.01676e-13
2.77727e-13
2.50764e-13
2.21921e-13
1.92309e-13
1.62942e-13
1.34668e-13
1.0811e-13
8.3633e-14
6.13262e-14
4.10087e-14
2.22578e-14
4.45628e-15
2.22045e-16
2.22045e-16
4.39716e-15
2.19731e-14
4.04987e-14
6.05909e-14
8.26773e-14
1.06948e-13
1.33327e-13
1.61462e-13
1.90742e-13
2.20329e-13
2.49216e-13
2.76295e-13
3.0043e-13
3.20548e-13
3.35712e-13
3.45193e-13
3.48528e-13
3.4555e-13
3.36407e-13
3.21545e-13
3.01676e-13
2.77727e-13
2.50764e-13
2.21921e-13
1.92309e-13
1.62942e-13
1.34668e-13
1.0811e-13
8.3633e-14
6.13262e-14
4.10087e-14
2.22578e-14
4.45628e-15
2.22045e-16
2.22045e-16
4.39716e-15
2.19731e-14
4.04987e-14
6.05909e-14
8.26773e-14
1.06948e-13
1.33327e-13
1.61462e-13
1.90742e-13
2.20329e-13
2.49216e-13
2.76295e-13
3.0043e-13
3.20548e-13
3.35712e-13
3.45193e-13
3.48528e-13
3.4555e-13
3.36407e-13
3.21545e-13
3.01676e-13
2.77727e-13
2.50764e-13
2.21921e-13
1.92309e-13
1.62942e-13
1.34668e-13
1.0811e-13
8.3633e-14
6.13262e-14
4.10087e-14
2.22578e-14
4.45628e-15
2.22045e-16
2.22045e-16
4.39716e-15
2.19731e-14
4.04987e-14
6.05909e-14
8.26773e-14
1.06948e-13
1.33327e-13
1.61462e-13
1.90742e-13
2.20329e-13
2.49216e-13
2.76295e-13
3.0043e-13
3.20548e-13
3.35712e-13
3.45193e-13
3.48528e-13
3.4555e-13
3.36407e-13
3.21545e-13
3.01676e-13
2.77727e-13
2.50764e-13
2.21921e-13
1.92309e-13
1.62942e-13
1.34668e-13
1.0811e-13
8.3633e-14
6.13262e-14
4.10087e-14
2.22578e-14
4.45628e-15
2.22045e-16
2.22045e-16
4.39716e-15
2.19731e-14
4.04987e-14
6.05909e-14
8.26773e-14
1.06948e-13
1.33327e-13
1.61462e-13
1.90742e-13
2.20329e-13
2.49216e-13
2.76295e-13
3.0043e-13
3.20548e-13
3.35712e-13
3.45193e-13
3.48528e-13
3.4555e-13
3.36407e-13
3.21545e-13
3.01676e-13
2.77727e-13
2.50764e-13
2.21921e-13
1.92309e-13
1.62942e-13
1.34668e-13
1.0811e-13
8.3633e-14
6.13262e-14
4.10087e-14
2.22578e-14
4.45628e-15
2.22045e-16
2.22045e-16
4.39716e-15
2.19731e-14
4.04987e-14
6.05909e-14
8.26773e-14
1.06948e-13
1.33327e-13
1.61462e-13
1.90742e-13
2.20329e-13
2.49216e-13
2.76295e-13
3.0043e-13
3.20548e-13
3.35712e-13
3.45193e-13
3.48528e-13
3.4555e-13
3.36407e-13
3.21545e-13
3.01676e-13
2.77727e-13
2.50764e-13
2.21921e-13
1.92309e-13
1.62942e-13
1.34668e-13
1.0811e-13
8.3633e-14
6.13262e-14
4.10087e-14
2.22578e-14
4.45628e-15
2.22045e-16
2.22045e-16
4.39716e-15
2.19731e-14
4.04987e-14
6.05909e-14
8.26773e-14
1.06948e-13
1.33327e-13
1.61462e-13
1.90742e-13
2.20329e-13
2.49216e-13
2.76295e-13
3.0043e-13
3.20548e-13
3.35712e-13
3.45193e-13
3.48528e-13
3.4555e-13
3.36407e-13
3.21545e-13
3.01676e-13
2.77727e-13
2.50764e-13
2.21921e-13
1.92309e-13
1.62942e-13
1.34668e-13
1.0811e-13
8.3633e-14
6.13262e-14
4.10087e-14
2.22578e-14
4.45628e-15
2.22045e-16
2.22045e-16
4.39716e-15
2.19731e-14
4.04987e-14
6.05909e-14
8.26773e-14
1.06948e-13
1.33327e-13
1.61462e-13
1.90742e-13
2.20329e-13
2.49216e-13
2.76295e-13
3.0043e-13
3.20548e-13
3.35712e-13
3.45193e-13
3.48528e-13
3.4555e-13
3.36407e-13
3.21545e-13
3.01676e-13
2.77727e-13
2.50764e-13
2.21921e-13
1.92309e-13
1.62942e-13
1.34668e-13
1.0811e-13
8.3633e-14
6.13262e-14
4.10087e-14
2.22578e-14
4.45628e-15
2.22045e-16
2.22045e-16
4.39716e-15
2.19731e-14
4.04987e-14
6.05909e-14
8.26773e-14
1.06948e-13
1.33327e-13
1.61462e-13
1.90742e-13
2.20329e-13
2.49216e-13
2.76295e-13
3.0043e-13
3.20548e-13
3.35712e-13
3.45193e-13
3.48528e-13
3.4555e-13
3.36407e-13
3.21545e-13
3.01676e-13
2.77727e-13
2.50764e-13
2.21921e-13
1.92309e-13
1.62942e-13
1.34668e-13
1.0811e-13
8.3633e-14
6.13262e-14
4.10087e-14
2.22578e-14
4.45628e-15
2.22045e-16
2.22045e-16
4.39716e-15
2.19731e-14
4.04987e-14
6.05909e-14
8.26773e-14
1.06948e-13
1.33327e-13
1.61462e-13
1.90742e-13
2.20329e-13
2.49216e-13
2.76295e-13
3.0043e-13
3.20548e-13
3.35712e-13
3.45193e-13
3.48528e-13
3.4555e-13
3.36407e-13
3.21545e-13
3.01676e-13
2.77727e-13
2.50764e-13
2.21921e-13
1.92309e-13
1.62942e-13
1.34668e-13
1.0811e-13
8.3633e-14
6.13262e-14
4.10087e-14
2.22578e-14
4.45628e-15
2.22045e-16
2.22045e-16
4.39716e-15
2.19731e-14
4.04987e-14
6.05909e-14
8.26773e-14
1.06948e-13
1.33327e-13
1.61462e-13
1.90742e-13
2.20329e-13
2.49216e-13
2.76295e-13
3.0043e-13
3.20548e-13
3.35712e-13
3.45193e-13
3.48528e-13
3.4555e-13
3.36407e-13
3.21545e-13
3.01676e-13
2.77727e-13
2.50764e-13
2.21921e-13
1.92309e-13
1.62942e-13
1.34668e-13
1.0811e-13
8.3633e-14
6.13262e-14
4.10087e-14
2.22578e-14
4.45628e-15
2.22045e-16
2.22045e-16
4.39716e-15
2.19731e-14
4.04987e-14
6.05909e-14
8.26773e-14
1.06948e-13
1.33327e-13
1.61462e-13
1.90742e-13
2.20329e-13
2.49216e-13
2.76295e-13
3.0043e-13
3.20548e-13
3.35712e-13
3.45193e-13
3.48528e-13
3.4555e-13
3.36407e-13
3.21545e-13
3.01676e-13
2.77727e-13
2.50764e-13
2.21921e-13
1.92309e-13
1.62942e-13
1.34668e-13
1.0811e-13
8.3633e-14
6.13262e-14
4.10087e-14
2.22578e-14
4.45628e-15
2.22045e-16
2.22045e-16
4.39716e-15
2.19731e-14
4.04987e-14
6.05909e-14
8.26773e-14
1.06948e-13
1.33327e-13
1.61462e-13
1.90742e-13
2.20329e-13
2.49216e-13
2.76295e-13
3.0043e-13
3.20548e-13
3.35712e-13
3.45193e-13
3.48528e-13
3.4555e-13
3.36407e-13
3.21545e-13
3.01676e-13
2.77727e-13
2.50764e-13
2.21921e-13
1.92309e-13
1.62942e-13
1.34668e-13
1.0811e-13
8.3633e-14
6.13262e-14
4.10087e-14
2.22578e-14
4.45628e-15
2.22045e-16
2.22045e-16
4.39716e-15
2.19731e-14
4.04987e-14
6.05909e-14
8.26773e-14
1.06948e-13
1.33327e-13
1.61462e-13
1.90742e-13
2.20329e-13
2.49216e-13
2.76295e-13
3.0043e-13
3.20548e-13
3.35712e-13
3.45193e-13
3.48528e-13
3.4555e-13
3.36407e-13
3.21545e-13
3.01676e-13
2.77727e-13
2.50764e-13
2.21921e-13
1.92309e-13
1.62942e-13
1.34668e-13
1.0811e-13
8.3633e-14
6.13262e-14
4.10087e-14
2.22578e-14
4.45628e-15
2.22045e-16
2.22045e-16
4.39716e-15
2.19731e-14
4.04987e-14
6.05909e-14
8.26773e-14
1.06948e-13
1.33327e-13
1.61462e-13
1.90742e-13
2.20329e-13
2.49216e-13
2.76295e-13
3.0043e-13
3.20548e-13
3.35712e-13
3.45193e-13
3.48528e-13
3.4555e-13
3.36407e-13
3.21545e-13
3.01676e-13
2.77727e-13
2.50764e-13
2.21921e-13
1.92309e-13
1.62942e-13
1.34668e-13
1.0811e-13
8.3633e-14
6.13262e-14
4.10087e-14
2.22578e-14
4.45628e-15
2.22045e-16
2.22045e-16
4.39716e-15
2.19731e-14
4.04987e-14
6.05909e-14
8.26773e-14
1.06948e-13
1.33327e-13
1.61462e-13
1.90742e-13
2.20329e-13
2.49216e-13
2.76295e-13
3.0043e-13
3.20548e-13
3.35712e-13
3.45193e-13
3.48528e-13
3.4555e-13
3.36407e-13
3.21545e-13
3.01676e-13
2.77727e-13
2.50764e-13
2.21921e-13
1.92309e-13
1.62942e-13
1.34668e-13
1.0811e-13
8.3633e-14
6.13262e-14
4.10087e-14
2.22578e-14
4.45628e-15
2.22045e-16
2.22045e-16
4.39716e-15
2.19731e-14
4.04987e-14
6.05909e-14
8.26773e-14
1.06948e-13
1.33327e-13
1.61462e-13
1.90742e-13
2.20329e-13
2.49216e-13
2.76295e-13
3.0043e-13
3.20548e-13
3.35712e-13
3.45193e-13
3.48528e-13
3.4555e-13
3.36407e-13
3.21545e-13
3.01676e-13
2.77727e-13
2.50764e-13
2.21921e-13
1.92309e-13
1.62942e-13
1.34668e-13
1.0811e-13
8.3633e-14
6.13262e-14
4.10087e-14
2.22578e-14
4.45628e-15
2.22045e-16
2.22045e-16
4.39716e-15
2.19731e-14
4.04987e-14
6.05909e-14
8.26773e-14
1.06948e-13
1.33327e-13
1.61462e-13
1.90742e-13
2.20329e-13
2.49216e-13
2.76295e-13
3.0043e-13
3.20548e-13
3.35712e-13
3.45193e-13
3.48528e-13
3.4555e-13
3.36407e-13
3.21545e-13
3.01676e-13
2.77727e-13
2.50764e-13
2.21921e-13
1.92309e-13
1.62942e-13
1.34668e-13
1.0811e-13
8.3633e-14
6.13262e-14
4.10087e-14
2.22578e-14
4.45628e-15
2.22045e-16
2.22045e-16
4.39716e-15
2.19731e-14
4.04987e-14
6.05909e-14
8.26773e-14
1.06948e-13
1.33327e-13
1.61462e-13
1.90742e-13
2.20329e-13
2.49216e-13
2.76295e-13
3.0043e-13
3.20548e-13
3.35712e-13
3.45193e-13
3.48528e-13
3.4555e-13
3.36407e-13
3.21545e-13
3.01676e-13
2.77727e-13
2.50764e-13
2.21921e-13
1.92309e-13
1.62942e-13
1.34668e-13
1.0811e-13
8.3633e-14
6.13262e-14
4.10087e-14
2.22578e-14
4.45628e-15
2.22045e-16
2.22045e-16
4.39716e-15
2.19731e-14
4.04987e-14
6.05909e-14
8.26773e-14
1.06948e-13
1.33327e-13
1.61462e-13
1.90742e-13
2.20329e-13
2.49216e-13
2.76295e-13
3.0043e-13
3.20548e-13
3.35712e-13
3.45193e-13
3.48528e-13
3.4555e-13
3.36407e-13
3.21545e-13
3.01676e-13
2.77727e-13
2.50764e-13
2.21921e-13
1.92309e-13
1.62942e-13
1.34668e-13
1.0811e-13
8.3633e-14
6.13262e-14
4.10087e-14
2.22578e-14
4.45628e-15
2.22045e-16
2.22045e-16
4.39716e-15
2.19731e-14
4.04987e-14
6.05909e-14
8.26773e-14
1.06948e-13
1.33327e-13
1.61462e-13
1.90742e-13
2.20329e-13
2.49216e-13
2.76295e-13
3.0043e-13
3.20548e-13
3.35712e-13
3.45193e-13
3.48528e-13
3.4555e-13
3.36407e-13
3.21545e-13
3.01676e-13
2.77727e-13
2.50764e-13
2.21921e-13
1.92309e-13
1.62942e-13
1.34668e-13
1.0811e-13
8.3633e-14
6.13262e-14
4.10087e-14
2.22578e-14
4.45628e-15
2.22045e-16
2.22045e-16
4.39716e-15
2.19731e-14
4.04987e-14
6.05909e-14
8.26773e-14
1.06948e-13
1.33327e-13
1.61462e-13
1.90742e-13
2.20329e-13
2.49216e-13
2.76295e-13
3.0043e-13
3.20548e-13
3.35712e-13
3.45193e-13
3.48528e-13
3.4555e-13
3.36407e-13
3.21545e-13
3.01676e-13
2.77727e-13
2.50764e-13
2.21921e-13
1.92309e-13
1.62942e-13
1.34668e-13
1.0811e-13
8.3633e-14
6.13262e-14
4.10087e-14
2.22578e-14
4.45628e-15
2.22045e-16
2.22045e-16
4.39716e-15
2.19731e-14
4.04987e-14
6.05909e-14
8.26773e-14
1.06948e-13
1.33327e-13
1.61462e-13
1.90742e-13
2.20329e-13
2.49216e-13
2.76295e-13
3.0043e-13
3.20548e-13
3.35712e-13
3.45193e-13
3.48528e-13
3.4555e-13
3.36407e-13
3.21545e-13
3.01676e-13
2.77727e-13
2.50764e-13
2.21921e-13
1.92309e-13
1.62942e-13
1.34668e-13
1.0811e-13
8.3633e-14
6.13262e-14
4.10087e-14
2.22578e-14
4.45628e-15
2.22045e-16
2.22045e-16
4.39716e-15
2.19731e-14
4.04987e-14
6.05909e-14
8.26773e-14
1.06948e-13
1.33327e-13
1.61462e-13
1.90742e-13
2.20329e-13
2.49216e-13
2.76295e-13
3.0043e-13
3.20548e-13
3.35712e-13
3.45193e-13
3.48528e-13
3.4555e-13
3.36407e-13
3.21545e-13
3.01676e-13
2.77727e-13
2.50764e-13
2.21921e-13
1.92309e-13
1.62942e-13
1.34668e-13
1.0811e-13
8.3633e-14
6.13262e-14
4.10087e-14
2.22578e-14
4.45628e-15
2.22045e-16
2.22045e-16
4.39716e-15
2.19731e-14
4.04987e-14
6.05909e-14
8.26773e-14
1.06948e-13
1.33327e-13
1.61462e-13
1.90742e-13
2.20329e-13
2.49216e-13
2.76295e-13
3.0043e-13
3.20548e-13
3.35712e-13
3.45193e-13
3.48528e-13
3.4555e-13
3.36407e-13
3.21545e-13
3.01676e-13
2.77727e-13
2.50764e-13
2.21921e-13
1.92309e-13
1.62942e-13
1.34668e-13
1.0811e-13
8.3633e-14
6.13262e-14
4.10087e-14
2.22578e-14
4.45628e-15
2.22045e-16
2.22045e-16
4.39716e-15
2.19731e-14
4.04987e-14
6.05909e-14
8.26773e-14
1.06948e-13
1.33327e-13
1.61462e-13
1.90742e-13
2.20329e-13
2.49216e-13
2.76295e-13
3.0043e-13
3.20548e-13
3.35712e-13
3.45193e-13
3.48528e-13
3.4555e-13
3.36407e-13
3.21545e-13
3.01676e-13
2.77727e-13
2.50764e-13
2.21921e-13
1.92309e-13
1.62942e-13
1.34668e-13
1.0811e-13
8.3633e-14
6.13262e-14
4.10087e-14
2.22578e-14
4.45628e-15
2.22045e-16
2.22045e-16
4.39716e-15
2.19731e-14
4.04987e-14
6.05909e-14
8.26773e-14
1.06948e-13
1.33327e-13
1.61462e-13
1.90742e-13
2.20329e-13
2.49216e-13
2.76295e-13
3.0043e-13
3.20548e-13
3.35712e-13
3.45193e-13
3.48528e-13
3.4555e-13
3.36407e-13
3.21545e-13
3.01676e-13
2.77727e-13
2.50764e-13
2.21921e-13
1.92309e-13
1.62942e-13
1.34668e-13
1.0811e-13
8.3633e-14
6.13262e-14
4.10087e-14
2.22578e-14
4.45628e-15
2.22045e-16
2.22045e-16
4.39716e-15
2.19731e-14
4.04987e-14
6.05909e-14
8.26773e-14
1.06948e-13
1.33327e-13
1.61462e-13
1.90742e-13
2.20329e-13
2.49216e-13
2.76295e-13
3.0043e-13
3.20548e-13
3.35712e-13
3.45193e-13
3.48528e-13
3.4555e-13
3.36407e-13
3.21545e-13
3.01676e-13
2.77727e-13
2.50764e-13
2.21921e-13
1.92309e-13
1.62942e-13
1.34668e-13
1.0811e-13
8.3633e-14
6.13262e-14
4.10087e-14
2.22578e-14
4.45628e-15
2.22045e-16
2.22045e-16
4.39716e-15
2.19731e-14
4.04987e-14
6.05909e-14
8.26773e-14
1.06948e-13
1.33327e-13
1.61462e-13
1.90742e-13
2.20329e-13
2.49216e-13
2.76295e-13
3.0043e-13
3.20548e-13
3.35712e-13
3.45193e-13
3.48528e-13
3.4555e-13
3.36407e-13
3.21545e-13
3.01676e-13
2.77727e-13
2.50764e-13
2.21921e-13
1.92309e-13
1.62942e-13
1.34668e-13
1.0811e-13
8.3633e-14
6.13262e-14
4.10087e-14
2.22578e-14
4.45628e-15
2.22045e-16
2.22045e-16
4.39716e-15
2.19731e-14
4.04987e-14
6.05909e-14
8.26773e-14
1.06948e-13
1.33327e-13
1.61462e-13
1.90742e-13
2.20329e-13
2.49216e-13
2.76295e-13
3.0043e-13
3.20548e-13
3.35712e-13
3.45193e-13
3.48528e-13
3.4555e-13
3.36407e-13
3.21545e-13
3.01676e-13
2.77727e-13
2.50764e-13
2.21921e-13
1.92309e-13
1.62942e-13
1.34668e-13
1.0811e-13
8.3633e-14
6.13262e-14
4.10087e-14
2.22578e-14
4.45628e-15
2.22045e-16
2.22045e-16
4.39716e-15
2.19731e-14
4.04987e-14
6.05909e-14
8.26773e-14
1.06948e-13
1.33327e-13
1.61462e-13
1.90742e-13
2.20329e-13
2.49216e-13
2.76295e-13
3.0043e-13
3.20548e-13
3.35712e-13
3.45193e-13
3.48528e-13
3.4555e-13
3.36407e-13
3.21545e-13
3.01676e-13
2.77727e-13
2.50764e-13
2.21921e-13
1.92309e-13
1.62942e-13
1.34668e-13
1.0811e-13
8.3633e-14
6.13262e-14
4.10087e-14
2.22578e-14
4.45628e-15
2.22045e-16
2.22045e-16
4.39716e-15
2.19731e-14
4.04987e-14
6.05909e-14
8.26773e-14
1.06948e-13
1.33327e-13
1.61462e-13
1.90742e-13
2.20329e-13
2.49216e-13
2.76295e-13
3.0043e-13
3.20548e-13
3.35712e-13
3.45193e-13
3.48528e-13
3.4555e-13
3.36407e-13
3.21545e-13
3.01676e-13
2.77727e-13
2.50764e-13
2.21921e-13
1.92309e-13
1.62942e-13
1.34668e-13
1.0811e-13
8.3633e-14
6.13262e-14
4.10087e-14
2.22578e-14
4.45628e-15
2.22045e-16
2.22045e-16
4.39716e-15
2.19731e-14
4.04987e-14
6.05909e-14
8.26773e-14
1.06948e-13
1.33327e-13
1.61462e-13
1.90742e-13
2.20329e-13
2.49216e-13
2.76295e-13
3.0043e-13
3.20548e-13
3.35712e-13
3.45193e-13
3.48528e-13
3.4555e-13
3.36407e-13
3.21545e-13
3.01676e-13
2.77727e-13
2.50764e-13
2.21921e-13
1.92309e-13
1.62942e-13
1.34668e-13
1.0811e-13
8.3633e-14
6.13262e-14
4.10087e-14
2.22578e-14
4.45628e-15
2.22045e-16
2.22045e-16
4.39716e-15
2.19731e-14
4.04987e-14
6.05909e-14
8.26773e-14
1.06948e-13
1.33327e-13
1.61462e-13
1.90742e-13
2.20329e-13
2.49216e-13
2.76295e-13
3.0043e-13
3.20548e-13
3.35712e-13
3.45193e-13
3.48528e-13
3.4555e-13
3.36407e-13
3.21545e-13
3.01676e-13
2.77727e-13
2.50764e-13
2.21921e-13
1.92309e-13
1.62942e-13
1.34668e-13
1.0811e-13
8.3633e-14
6.13262e-14
4.10087e-14
2.22578e-14
4.45628e-15
2.22045e-16
2.22045e-16
4.39716e-15
2.19731e-14
4.04987e-14
6.05909e-14
8.26773e-14
1.06948e-13
1.33327e-13
1.61462e-13
1.90742e-13
2.20329e-13
2.49216e-13
2.76295e-13
3.0043e-13
3.20548e-13
3.35712e-13
3.45193e-13
3.48528e-13
3.4555e-13
3.36407e-13
3.21545e-13
3.01676e-13
2.77727e-13
2.50764e-13
2.21921e-13
1.92309e-13
1.62942e-13
1.34668e-13
1.0811e-13
8.3633e-14
6.13262e-14
4.10087e-14
2.22578e-14
4.45628e-15
2.22045e-16
2.22045e-16
4.39716e-15
2.19731e-14
4.04987e-14
6.05909e-14
8.26773e-14
1.06948e-13
1.33327e-13
1.61462e-13
1.90742e-13
2.20329e-13
2.49216e-13
2.76295e-13
3.0043e-13
3.20548e-13
3.35712e-13
3.45193e-13
3.48528e-13
3.4555e-13
3.36407e-13
3.21545e-13
3.01676e-13
2.77727e-13
2.50764e-13
2.21921e-13
1.92309e-13
1.62942e-13
1.34668e-13
1.0811e-13
8.3633e-14
6.13262e-14
4.10087e-14
2.22578e-14
4.45628e-15
2.22045e-16
2.22045e-16
4.39716e-15
2.19731e-14
4.04987e-14
6.05909e-14
8.26773e-14
1.06948e-13
1.33327e-13
1.61462e-13
1.90742e-13
2.20329e-13
2.49216e-13
2.76295e-13
3.0043e-13
3.20548e-13
3.35712e-13
3.45193e-13