/*--------------------------------*- C++ -*----------------------------------*\
  =========                 |
  \\      /  F ield         | OpenFOAM: The Open Source CFD Toolbox
   \\    /   O peration     | Website:  https://openfoam.org
    \\  /    A nd           | Version:  13
     \\/     M anipulation  |
\*---------------------------------------------------------------------------*/
FoamFile
{
    format      ascii;
    class       volScalarField;
    location    "40";
    object      nut;
}
// * * * * * * * * * * * * * * * * * * * * * * * * * * * * * * * * * * * * * //

dimensions      [0 2 -1 0 0 0 0];

internalField   nonuniform List<scalar> 
315000
(
2.80161e-13
7.32569e-11
1.66821e-09
2.98162e-09
4.29864e-09
5.61678e-09
6.93475e-09
8.25117e-09
9.56411e-09
1.08709e-08
1.21681e-08
1.34519e-08
1.47179e-08
1.59615e-08
1.7178e-08
1.83627e-08
1.9511e-08
2.06187e-08
2.16817e-08
2.26962e-08
2.3659e-08
2.45669e-08
2.54174e-08
2.62083e-08
2.69376e-08
2.76038e-08
2.82057e-08
2.87423e-08
2.9213e-08
2.9617e-08
2.99542e-08
3.02242e-08
3.04268e-08
3.0562e-08
3.06297e-08
3.06299e-08
3.05626e-08
3.04279e-08
3.02257e-08
2.99562e-08
2.96196e-08
2.92161e-08
2.87461e-08
2.82102e-08
2.7609e-08
2.69436e-08
2.62152e-08
2.54252e-08
2.45757e-08
2.36688e-08
2.27071e-08
2.16936e-08
2.06317e-08
1.95251e-08
1.83777e-08
1.71939e-08
1.59783e-08
1.47355e-08
1.34701e-08
1.21867e-08
1.08897e-08
9.583e-09
8.26985e-09
6.95289e-09
5.63398e-09
4.31434e-09
2.99498e-09
1.67771e-09
7.38018e-11
2.82533e-13
7.00504e-12
1.86243e-09
4.17321e-07
7.40512e-07
1.05531e-06
1.36265e-06
1.66317e-06
1.95722e-06
2.24486e-06
2.52592e-06
2.80008e-06
3.06688e-06
3.32582e-06
3.57634e-06
3.81789e-06
4.04995e-06
4.27202e-06
4.48366e-06
4.68448e-06
4.87414e-06
5.05237e-06
5.21894e-06
5.3737e-06
5.51651e-06
5.6473e-06
5.76604e-06
5.87272e-06
5.96736e-06
6.05e-06
6.1207e-06
6.1795e-06
6.22647e-06
6.26165e-06
6.28509e-06
6.29682e-06
6.29684e-06
6.28517e-06
6.26178e-06
6.22665e-06
6.17974e-06
6.121e-06
6.05038e-06
5.96781e-06
5.87326e-06
5.76667e-06
5.64804e-06
5.51736e-06
5.37467e-06
5.22004e-06
5.0536e-06
4.87552e-06
4.686e-06
4.48533e-06
4.27384e-06
4.05191e-06
3.81999e-06
3.57857e-06
3.32817e-06
3.06932e-06
2.80259e-06
2.52847e-06
2.2474e-06
1.95972e-06
1.66557e-06
1.36486e-06
1.05726e-06
7.42079e-07
4.18346e-07
1.86774e-09
7.02623e-12
2.83801e-11
7.557e-09
3.88052e-06
6.35164e-06
8.54646e-06
1.05508e-05
1.24128e-05
1.41612e-05
1.5814e-05
1.73825e-05
1.88743e-05
2.02942e-05
2.16454e-05
2.29299e-05
2.41492e-05
2.53044e-05
2.63961e-05
2.7425e-05
2.83916e-05
2.92964e-05
3.01398e-05
3.09224e-05
3.16448e-05
3.23076e-05
3.29115e-05
3.34573e-05
3.39456e-05
3.43773e-05
3.47531e-05
3.50736e-05
3.53397e-05
3.55517e-05
3.57104e-05
3.58159e-05
3.58687e-05
3.58687e-05
3.58161e-05
3.57107e-05
3.55522e-05
3.53402e-05
3.50743e-05
3.47539e-05
3.43783e-05
3.39469e-05
3.34588e-05
3.29133e-05
3.23096e-05
3.16471e-05
3.09251e-05
3.01428e-05
2.92998e-05
2.83955e-05
2.74293e-05
2.64009e-05
2.53096e-05
2.41549e-05
2.2936e-05
2.16519e-05
2.03012e-05
1.88816e-05
1.73901e-05
1.58217e-05
1.4169e-05
1.24205e-05
1.05582e-05
8.55322e-06
6.35744e-06
3.88473e-06
7.56706e-09
2.84195e-11
4.46335e-11
1.18904e-08
5.79521e-06
9.20409e-06
1.21617e-05
1.48233e-05
1.727e-05
1.95488e-05
2.16884e-05
2.37074e-05
2.56179e-05
2.74282e-05
2.91441e-05
3.07698e-05
3.23084e-05
3.37622e-05
3.51331e-05
3.64229e-05
3.76326e-05
3.87634e-05
3.98162e-05
4.07916e-05
4.16907e-05
4.25142e-05
4.3263e-05
4.39384e-05
4.45414e-05
4.50731e-05
4.55348e-05
4.59275e-05
4.62524e-05
4.65106e-05
4.67032e-05
4.68311e-05
4.68948e-05
4.68949e-05
4.68312e-05
4.67034e-05
4.65108e-05
4.62526e-05
4.59277e-05
4.55351e-05
4.50735e-05
4.45419e-05
4.3939e-05
4.32638e-05
4.2515e-05
4.16917e-05
4.07928e-05
3.98175e-05
3.8765e-05
3.76344e-05
3.64249e-05
3.51354e-05
3.37647e-05
3.23112e-05
3.0773e-05
2.91476e-05
2.74319e-05
2.56218e-05
2.37115e-05
2.16927e-05
1.95532e-05
1.72744e-05
1.48275e-05
1.21656e-05
9.20754e-06
5.79784e-06
1.18975e-08
4.46618e-11
5.6473e-11
1.50518e-08
7.09988e-06
1.10931e-05
1.45248e-05
1.7597e-05
2.04117e-05
2.30269e-05
2.54776e-05
2.77863e-05
2.99681e-05
3.20331e-05
3.39886e-05
3.58399e-05
3.75912e-05
3.92457e-05
4.08057e-05
4.22724e-05
4.36467e-05
4.49294e-05
4.6121e-05
4.72224e-05
4.82346e-05
4.91586e-05
4.99958e-05
5.0748e-05
5.14175e-05
5.20094e-05
5.25232e-05
5.29597e-05
5.33199e-05
5.36054e-05
5.38177e-05
5.39583e-05
5.40282e-05
5.40282e-05
5.39583e-05
5.38178e-05
5.36056e-05
5.33202e-05
5.29601e-05
5.25238e-05
5.20101e-05
5.14183e-05
5.07489e-05
4.99966e-05
4.91593e-05
4.82352e-05
4.7223e-05
4.61216e-05
4.493e-05
4.36475e-05
4.22732e-05
4.08066e-05
3.92468e-05
3.75924e-05
3.58413e-05
3.39901e-05
3.20348e-05
2.99699e-05
2.77883e-05
2.54796e-05
2.3029e-05
2.04139e-05
1.75991e-05
1.45268e-05
1.10949e-05
7.10134e-06
1.50563e-08
5.64915e-11
6.41238e-11
1.70979e-08
7.91096e-06
1.22501e-05
1.59628e-05
1.92794e-05
2.23143e-05
2.51317e-05
2.77704e-05
3.02552e-05
3.26024e-05
3.48235e-05
3.69265e-05
3.89174e-05
4.08008e-05
4.25798e-05
4.4256e-05
4.58301e-05
4.73025e-05
4.86735e-05
4.99435e-05
5.11128e-05
5.2182e-05
5.31517e-05
5.40263e-05
5.48121e-05
4.72069e-05
4.75001e-05
4.77582e-05
4.79811e-05
4.81677e-05
4.83177e-05
4.84304e-05
4.85057e-05
4.85434e-05
4.85434e-05
4.85057e-05
4.84304e-05
4.83177e-05
4.81678e-05
4.79811e-05
4.77583e-05
4.75002e-05
4.72069e-05
5.48124e-05
5.40268e-05
5.31523e-05
5.21826e-05
5.11134e-05
4.99439e-05
4.86739e-05
4.73029e-05
4.58305e-05
4.42564e-05
4.25803e-05
4.08013e-05
3.8918e-05
3.69272e-05
3.48244e-05
3.26034e-05
3.02562e-05
2.77715e-05
2.51329e-05
2.23156e-05
1.92807e-05
1.5964e-05
1.22511e-05
7.91186e-06
1.7101e-08
6.41372e-11
6.85411e-11
1.82811e-08
8.36987e-06
1.28999e-05
1.67683e-05
2.02211e-05
2.33792e-05
2.63105e-05
2.90556e-05
3.16407e-05
3.40829e-05
3.6394e-05
3.85827e-05
4.06553e-05
4.26163e-05
4.44684e-05
4.62125e-05
4.78486e-05
4.93767e-05
5.07964e-05
5.21085e-05
5.3314e-05
5.44119e-05
4.71808e-05
4.7618e-05
4.80193e-05
4.8384e-05
4.87093e-05
4.8995e-05
4.92405e-05
4.94455e-05
4.96098e-05
4.97332e-05
4.98155e-05
4.98567e-05
4.98567e-05
4.98154e-05
4.97331e-05
4.96097e-05
4.94453e-05
4.92402e-05
4.89947e-05
4.87091e-05
4.83837e-05
4.8019e-05
4.76178e-05
4.71808e-05
5.4412e-05
5.33143e-05
5.21088e-05
5.07967e-05
4.93769e-05
4.78489e-05
4.62128e-05
4.44688e-05
4.26168e-05
4.06558e-05
3.85834e-05
3.63948e-05
3.40837e-05
3.16416e-05
2.90566e-05
2.63115e-05
2.33803e-05
2.02221e-05
1.67693e-05
1.29008e-05
8.37065e-06
1.82839e-08
6.85534e-11
7.0836e-11
1.88968e-08
8.60622e-06
1.32336e-05
1.71817e-05
2.07045e-05
2.39264e-05
2.69169e-05
2.97178e-05
3.23557e-05
3.48482e-05
3.72074e-05
3.9442e-05
4.15585e-05
4.35615e-05
4.5453e-05
4.72339e-05
4.8904e-05
5.04635e-05
5.1913e-05
5.32542e-05
5.44868e-05
4.72768e-05
4.77762e-05
4.82379e-05
4.86599e-05
4.90413e-05
4.93815e-05
4.96799e-05
4.99363e-05
5.01504e-05
5.03219e-05
5.04506e-05
5.05364e-05
5.05794e-05
5.05794e-05
5.05364e-05
5.04505e-05
5.03218e-05
5.01503e-05
4.99362e-05
4.96798e-05
4.93813e-05
4.90411e-05
4.86598e-05
4.82378e-05
4.77761e-05
4.72767e-05
5.44867e-05
5.32544e-05
5.19133e-05
5.04639e-05
4.89044e-05
4.72344e-05
4.54537e-05
4.35622e-05
4.15593e-05
3.94429e-05
3.72084e-05
3.48493e-05
3.23569e-05
2.9719e-05
2.69182e-05
2.39277e-05
2.07057e-05
1.71829e-05
1.32346e-05
8.60709e-06
1.89e-08
7.08493e-11
7.1911e-11
1.91858e-08
8.71673e-06
1.33895e-05
1.7375e-05
2.09309e-05
2.41831e-05
2.7202e-05
3.00298e-05
3.26935e-05
3.52108e-05
3.75939e-05
3.98517e-05
4.19907e-05
4.40153e-05
4.59276e-05
4.77278e-05
4.94157e-05
5.09896e-05
5.24467e-05
5.3783e-05
5.50798e-05
4.75731e-05
4.80785e-05
4.8548e-05
4.89783e-05
4.93675e-05
4.97148e-05
5.00195e-05
5.02813e-05
5.04998e-05
5.06748e-05
5.08062e-05
5.08939e-05
5.09377e-05
5.09377e-05
5.08939e-05
5.08062e-05
5.06748e-05
5.04998e-05
5.02812e-05
5.00195e-05
4.97147e-05
4.93675e-05
4.89782e-05
4.8548e-05
4.80785e-05
4.75732e-05
5.50798e-05
5.37833e-05
5.24473e-05
5.09902e-05
4.94164e-05
4.77287e-05
4.59285e-05
4.40164e-05
4.19918e-05
3.9853e-05
3.75953e-05
3.52122e-05
3.2695e-05
3.00314e-05
2.72036e-05
2.41847e-05
2.09324e-05
1.73765e-05
1.33908e-05
8.71776e-06
1.91894e-08
7.19259e-11
7.23683e-11
1.9309e-08
8.76382e-06
1.3456e-05
1.74576e-05
2.10276e-05
2.4293e-05
2.73243e-05
3.0164e-05
3.2839e-05
3.53672e-05
3.77609e-05
4.0029e-05
4.21779e-05
4.42121e-05
4.61335e-05
4.79428e-05
4.96397e-05
5.12232e-05
5.26905e-05
5.40356e-05
4.71403e-05
4.76931e-05
4.82087e-05
4.86848e-05
4.912e-05
4.95133e-05
4.9864e-05
5.01716e-05
5.04358e-05
5.06564e-05
5.0833e-05
5.09657e-05
5.10541e-05
5.10984e-05
5.10984e-05
5.10541e-05
5.09657e-05
5.08331e-05
5.06564e-05
5.04358e-05
5.01716e-05
4.9864e-05
4.95133e-05
4.91201e-05
4.86849e-05
4.82088e-05
4.76932e-05
4.71404e-05
5.40362e-05
5.26913e-05
5.1224e-05
4.96406e-05
4.79438e-05
4.61347e-05
4.42134e-05
4.21794e-05
4.00305e-05
3.77626e-05
3.5369e-05
3.28408e-05
3.01658e-05
2.73262e-05
2.42949e-05
2.10294e-05
1.74592e-05
1.34575e-05
8.76499e-06
1.93129e-08
7.23845e-11
7.2549e-11
1.93577e-08
8.78247e-06
1.34823e-05
1.74903e-05
2.1066e-05
2.43366e-05
2.73728e-05
3.02171e-05
3.28965e-05
3.54289e-05
3.78266e-05
4.00985e-05
4.22513e-05
4.42893e-05
4.62147e-05
4.80282e-05
4.97297e-05
5.13183e-05
5.27912e-05
5.41419e-05
4.71892e-05
4.77445e-05
4.82624e-05
4.87406e-05
4.91777e-05
4.95725e-05
4.99246e-05
5.02335e-05
5.04987e-05
5.07201e-05
5.08975e-05
5.10306e-05
5.11195e-05
5.11639e-05
5.11639e-05
5.11195e-05
5.10307e-05
5.08975e-05
5.07202e-05
5.04988e-05
5.02336e-05
4.99247e-05
4.95727e-05
4.91778e-05
4.87408e-05
4.82626e-05
4.77447e-05
4.71895e-05
5.41426e-05
5.27921e-05
5.13194e-05
4.97308e-05
4.80294e-05
4.62161e-05
4.42908e-05
4.22529e-05
4.01003e-05
3.78285e-05
3.54308e-05
3.28985e-05
3.02191e-05
2.73748e-05
2.43386e-05
2.10679e-05
1.74921e-05
1.34839e-05
8.78373e-06
1.93619e-08
7.25661e-11
7.26137e-11
1.93752e-08
8.78915e-06
1.34918e-05
1.75019e-05
2.10796e-05
2.4352e-05
2.73898e-05
3.02356e-05
3.29165e-05
3.54502e-05
3.78493e-05
4.01225e-05
4.22767e-05
4.43162e-05
4.62432e-05
4.80585e-05
4.97619e-05
5.13527e-05
5.28277e-05
5.41806e-05
4.72072e-05
4.77634e-05
4.82822e-05
4.87613e-05
4.9199e-05
4.95945e-05
4.99472e-05
5.02565e-05
5.05221e-05
5.07439e-05
5.09215e-05
5.10548e-05
5.11438e-05
5.11883e-05
5.11883e-05
5.11438e-05
5.10549e-05
5.09215e-05
5.07439e-05
5.05222e-05
5.02566e-05
4.99473e-05
4.95947e-05
4.91992e-05
4.87615e-05
4.82825e-05
4.77637e-05
4.72075e-05
5.41814e-05
5.28287e-05
5.13538e-05
4.97632e-05
4.80598e-05
4.62447e-05
4.43178e-05
4.22784e-05
4.01244e-05
3.78512e-05
3.54523e-05
3.29186e-05
3.02378e-05
2.73919e-05
2.43541e-05
2.10816e-05
1.75038e-05
1.34934e-05
8.79045e-06
1.93795e-08
7.26313e-11
7.26356e-11
1.93811e-08
8.79142e-06
1.3495e-05
1.75059e-05
2.10843e-05
2.43573e-05
2.73957e-05
3.0242e-05
3.29234e-05
3.54576e-05
3.78572e-05
4.01309e-05
4.22856e-05
4.43257e-05
4.62533e-05
4.80692e-05
4.97733e-05
5.13648e-05
5.28405e-05
5.41941e-05
4.72135e-05
4.777e-05
4.8289e-05
4.87683e-05
4.92063e-05
4.9602e-05
4.99549e-05
5.02644e-05
5.05302e-05
5.0752e-05
5.09297e-05
5.10631e-05
5.11521e-05
5.11966e-05
5.11966e-05
5.11521e-05
5.10632e-05
5.09298e-05
5.07521e-05
5.05302e-05
5.02645e-05
4.9955e-05
4.96022e-05
4.92065e-05
4.87686e-05
4.82893e-05
4.77703e-05
4.72138e-05
5.41949e-05
5.28415e-05
5.13659e-05
4.97746e-05
4.80706e-05
4.62548e-05
4.43273e-05
4.22874e-05
4.01329e-05
3.78592e-05
3.54597e-05
3.29255e-05
3.02442e-05
2.73978e-05
2.43594e-05
2.10863e-05
1.75078e-05
1.34966e-05
8.79274e-06
1.93854e-08
7.26533e-11
7.26424e-11
1.9383e-08
8.79213e-06
1.3496e-05
1.75072e-05
2.10858e-05
2.4359e-05
2.73976e-05
3.02441e-05
3.29256e-05
3.54601e-05
3.78598e-05
4.01338e-05
4.22886e-05
4.43289e-05
4.62567e-05
4.80727e-05
4.97771e-05
5.13687e-05
5.28447e-05
5.41985e-05
4.72155e-05
4.77721e-05
4.82912e-05
4.87706e-05
4.92086e-05
4.96044e-05
4.99573e-05
5.02669e-05
5.05327e-05
5.07546e-05
5.09323e-05
5.10658e-05
5.11548e-05
5.11993e-05
5.11993e-05
5.11548e-05
5.10658e-05
5.09324e-05
5.07547e-05
5.05328e-05
5.0267e-05
4.99575e-05
4.96046e-05
4.92088e-05
4.87708e-05
4.82915e-05
4.77724e-05
4.72158e-05
5.41993e-05
5.28457e-05
5.13699e-05
4.97784e-05
4.80742e-05
4.62582e-05
4.43306e-05
4.22904e-05
4.01357e-05
3.78618e-05
3.54622e-05
3.29278e-05
3.02463e-05
2.73997e-05
2.43611e-05
2.10878e-05
1.75091e-05
1.34977e-05
8.79346e-06
1.93873e-08
7.26602e-11
7.26444e-11
1.93835e-08
8.79234e-06
1.34963e-05
1.75075e-05
2.10862e-05
2.43595e-05
2.73981e-05
3.02447e-05
3.29263e-05
3.54608e-05
3.78606e-05
4.01346e-05
4.22895e-05
4.43298e-05
4.62577e-05
4.80738e-05
4.97782e-05
5.13699e-05
5.28459e-05
5.41998e-05
4.72161e-05
4.77727e-05
4.82919e-05
4.87713e-05
4.92093e-05
4.96051e-05
4.9958e-05
5.02676e-05
5.05334e-05
5.07554e-05
5.09331e-05
5.10665e-05
5.11555e-05
5.12001e-05
5.12001e-05
5.11556e-05
5.10666e-05
5.09331e-05
5.07554e-05
5.05335e-05
5.02677e-05
4.99582e-05
4.96053e-05
4.92095e-05
4.87715e-05
4.82921e-05
4.7773e-05
4.72164e-05
5.42006e-05
5.2847e-05
5.13711e-05
4.97795e-05
4.80753e-05
4.62593e-05
4.43315e-05
4.22913e-05
4.01365e-05
3.78626e-05
3.54629e-05
3.29285e-05
3.02469e-05
2.74003e-05
2.43616e-05
2.10883e-05
1.75094e-05
1.3498e-05
8.79367e-06
1.93879e-08
7.26622e-11
7.26449e-11
1.93836e-08
8.7924e-06
1.34964e-05
1.75076e-05
2.10863e-05
2.43596e-05
2.73983e-05
3.02449e-05
3.29265e-05
3.5461e-05
3.78608e-05
4.01348e-05
4.22897e-05
4.43301e-05
4.6258e-05
4.80741e-05
4.97786e-05
5.13703e-05
5.28463e-05
5.42001e-05
4.72162e-05
4.77729e-05
4.82921e-05
4.87714e-05
4.92095e-05
4.96053e-05
4.99582e-05
5.02678e-05
5.05337e-05
5.07556e-05
5.09333e-05
5.10667e-05
5.11558e-05
5.12003e-05
5.12003e-05
5.11558e-05
5.10668e-05
5.09334e-05
5.07556e-05
5.05337e-05
5.02679e-05
4.99584e-05
4.96055e-05
4.92097e-05
4.87717e-05
4.82923e-05
4.77732e-05
4.72166e-05
5.4201e-05
5.28473e-05
5.13714e-05
4.97799e-05
4.80756e-05
4.62595e-05
4.43318e-05
4.22916e-05
4.01368e-05
3.78629e-05
3.54631e-05
3.29287e-05
3.02471e-05
2.74005e-05
2.43618e-05
2.10884e-05
1.75095e-05
1.3498e-05
8.79372e-06
1.9388e-08
7.26628e-11
7.26451e-11
1.93837e-08
8.79241e-06
1.34964e-05
1.75077e-05
2.10864e-05
2.43597e-05
2.73983e-05
3.02449e-05
3.29265e-05
3.54611e-05
3.78609e-05
4.01349e-05
4.22898e-05
4.43302e-05
4.6258e-05
4.80742e-05
4.97786e-05
5.13703e-05
5.28464e-05
5.42002e-05
4.72163e-05
4.77729e-05
4.82921e-05
4.87715e-05
4.92096e-05
4.96054e-05
4.99583e-05
5.02678e-05
5.05337e-05
5.07556e-05
5.09334e-05
5.10668e-05
5.11558e-05
5.12003e-05
5.12004e-05
5.11558e-05
5.10668e-05
5.09334e-05
5.07557e-05
5.05338e-05
5.0268e-05
4.99584e-05
4.96056e-05
4.92098e-05
4.87717e-05
4.82924e-05
4.77732e-05
4.72166e-05
5.42011e-05
5.28474e-05
5.13715e-05
4.97799e-05
4.80757e-05
4.62596e-05
4.43319e-05
4.22916e-05
4.01368e-05
3.78629e-05
3.54632e-05
3.29287e-05
3.02471e-05
2.74005e-05
2.43618e-05
2.10884e-05
1.75096e-05
1.34981e-05
8.79374e-06
1.9388e-08
7.26629e-11
7.26451e-11
1.93837e-08
8.79241e-06
1.34964e-05
1.75077e-05
2.10864e-05
2.43597e-05
2.73983e-05
3.02449e-05
3.29265e-05
3.54611e-05
3.78609e-05
4.01349e-05
4.22898e-05
4.43302e-05
4.62581e-05
4.80742e-05
4.97787e-05
5.13704e-05
5.28464e-05
5.42003e-05
4.72163e-05
4.77729e-05
4.82921e-05
4.87715e-05
4.92096e-05
4.96054e-05
4.99583e-05
5.02679e-05
5.05337e-05
5.07556e-05
5.09334e-05
5.10668e-05
5.11558e-05
5.12004e-05
5.12004e-05
5.11559e-05
5.10668e-05
5.09334e-05
5.07557e-05
5.05338e-05
5.0268e-05
4.99584e-05
4.96056e-05
4.92098e-05
4.87717e-05
4.82924e-05
4.77732e-05
4.72166e-05
5.42011e-05
5.28474e-05
5.13715e-05
4.978e-05
4.80757e-05
4.62596e-05
4.43319e-05
4.22917e-05
4.01368e-05
3.78629e-05
3.54632e-05
3.29287e-05
3.02471e-05
2.74005e-05
2.43618e-05
2.10884e-05
1.75096e-05
1.34981e-05
8.79374e-06
1.9388e-08
7.26629e-11
7.26451e-11
1.93837e-08
8.79242e-06
1.34964e-05
1.75077e-05
2.10864e-05
2.43597e-05
2.73983e-05
3.02449e-05
3.29266e-05
3.54611e-05
3.78609e-05
4.01349e-05
4.22898e-05
4.43302e-05
4.62581e-05
4.80742e-05
4.97787e-05
5.13704e-05
5.28464e-05
5.42003e-05
4.72163e-05
4.77729e-05
4.82921e-05
4.87715e-05
4.92096e-05
4.96054e-05
4.99583e-05
5.02679e-05
5.05337e-05
5.07556e-05
5.09334e-05
5.10668e-05
5.11558e-05
5.12004e-05
5.12004e-05
5.11559e-05
5.10669e-05
5.09334e-05
5.07557e-05
5.05338e-05
5.0268e-05
4.99584e-05
4.96056e-05
4.92098e-05
4.87717e-05
4.82924e-05
4.77732e-05
4.72166e-05
5.42011e-05
5.28474e-05
5.13715e-05
4.978e-05
4.80757e-05
4.62596e-05
4.43319e-05
4.22917e-05
4.01369e-05
3.78629e-05
3.54632e-05
3.29287e-05
3.02471e-05
2.74005e-05
2.43618e-05
2.10884e-05
1.75096e-05
1.34981e-05
8.79374e-06
1.9388e-08
7.2663e-11
7.26451e-11
1.93837e-08
8.79242e-06
1.34964e-05
1.75077e-05
2.10864e-05
2.43597e-05
2.73983e-05
3.02449e-05
3.29266e-05
3.54611e-05
3.78609e-05
4.01349e-05
4.22898e-05
4.43302e-05
4.62581e-05
4.80742e-05
4.97787e-05
5.13704e-05
5.28464e-05
5.42003e-05
4.72163e-05
4.77729e-05
4.82921e-05
4.87715e-05
4.92096e-05
4.96054e-05
4.99583e-05
5.02679e-05
5.05337e-05
5.07556e-05
5.09334e-05
5.10668e-05
5.11558e-05
5.12004e-05
5.12004e-05
5.11559e-05
5.10669e-05
5.09334e-05
5.07557e-05
5.05338e-05
5.0268e-05
4.99584e-05
4.96056e-05
4.92098e-05
4.87717e-05
4.82924e-05
4.77732e-05
4.72166e-05
5.42011e-05
5.28474e-05
5.13715e-05
4.978e-05
4.80757e-05
4.62596e-05
4.43319e-05
4.22917e-05
4.01369e-05
3.78629e-05
3.54632e-05
3.29287e-05
3.02471e-05
2.74005e-05
2.43618e-05
2.10884e-05
1.75096e-05
1.34981e-05
8.79374e-06
1.9388e-08
7.2663e-11
7.26451e-11
1.93837e-08
8.79242e-06
1.34964e-05
1.75077e-05
2.10864e-05
2.43597e-05
2.73983e-05
3.02449e-05
3.29266e-05
3.54611e-05
3.78609e-05
4.01349e-05
4.22898e-05
4.43302e-05
4.62581e-05
4.80742e-05
4.97787e-05
5.13704e-05
5.28464e-05
5.42003e-05
4.72163e-05
4.77729e-05
4.82921e-05
4.87715e-05
4.92096e-05
4.96054e-05
4.99583e-05
5.02679e-05
5.05337e-05
5.07556e-05
5.09334e-05
5.10668e-05
5.11558e-05
5.12004e-05
5.12004e-05
5.11559e-05
5.10669e-05
5.09334e-05
5.07557e-05
5.05338e-05
5.0268e-05
4.99584e-05
4.96056e-05
4.92098e-05
4.87717e-05
4.82924e-05
4.77732e-05
4.72166e-05
5.42011e-05
5.28474e-05
5.13715e-05
4.978e-05
4.80757e-05
4.62596e-05
4.43319e-05
4.22917e-05
4.01369e-05
3.78629e-05
3.54632e-05
3.29287e-05
3.02471e-05
2.74005e-05
2.43618e-05
2.10884e-05
1.75096e-05
1.34981e-05
8.79374e-06
1.9388e-08
7.2663e-11
7.26451e-11
1.93837e-08
8.79242e-06
1.34964e-05
1.75077e-05
2.10864e-05
2.43597e-05
2.73983e-05
3.02449e-05
3.29266e-05
3.54611e-05
3.78609e-05
4.01349e-05
4.22898e-05
4.43302e-05
4.62581e-05
4.80742e-05
4.97787e-05
5.13704e-05
5.28464e-05
5.42003e-05
4.72163e-05
4.77729e-05
4.82921e-05
4.87715e-05
4.92096e-05
4.96054e-05
4.99583e-05
5.02679e-05
5.05337e-05
5.07556e-05
5.09334e-05
5.10668e-05
5.11558e-05
5.12004e-05
5.12004e-05
5.11559e-05
5.10669e-05
5.09334e-05
5.07557e-05
5.05338e-05
5.0268e-05
4.99584e-05
4.96056e-05
4.92098e-05
4.87717e-05
4.82924e-05
4.77732e-05
4.72166e-05
5.42011e-05
5.28474e-05
5.13715e-05
4.978e-05
4.80757e-05
4.62596e-05
4.43319e-05
4.22917e-05
4.01369e-05
3.78629e-05
3.54632e-05
3.29287e-05
3.02471e-05
2.74005e-05
2.43618e-05
2.10884e-05
1.75096e-05
1.34981e-05
8.79374e-06
1.9388e-08
7.2663e-11
7.26451e-11
1.93837e-08
8.79242e-06
1.34964e-05
1.75077e-05
2.10864e-05
2.43597e-05
2.73983e-05
3.02449e-05
3.29266e-05
3.54611e-05
3.78609e-05
4.01349e-05
4.22898e-05
4.43302e-05
4.62581e-05
4.80742e-05
4.97787e-05
5.13704e-05
5.28464e-05
5.42003e-05
4.72163e-05
4.77729e-05
4.82921e-05
4.87715e-05
4.92096e-05
4.96054e-05
4.99583e-05
5.02679e-05
5.05337e-05
5.07556e-05
5.09334e-05
5.10668e-05
5.11558e-05
5.12004e-05
5.12004e-05
5.11559e-05
5.10669e-05
5.09334e-05
5.07557e-05
5.05338e-05
5.0268e-05
4.99584e-05
4.96056e-05
4.92098e-05
4.87717e-05
4.82924e-05
4.77732e-05
4.72166e-05
5.42011e-05
5.28474e-05
5.13715e-05
4.978e-05
4.80757e-05
4.62596e-05
4.43319e-05
4.22917e-05
4.01369e-05
3.78629e-05
3.54632e-05
3.29287e-05
3.02471e-05
2.74005e-05
2.43618e-05
2.10884e-05
1.75096e-05
1.34981e-05
8.79374e-06
1.9388e-08
7.2663e-11
7.26451e-11
1.93837e-08
8.79242e-06
1.34964e-05
1.75077e-05
2.10864e-05
2.43597e-05
2.73983e-05
3.02449e-05
3.29266e-05
3.54611e-05
3.78609e-05
4.01349e-05
4.22898e-05
4.43302e-05
4.62581e-05
4.80742e-05
4.97787e-05
5.13704e-05
5.28464e-05
5.42003e-05
4.72163e-05
4.77729e-05
4.82921e-05
4.87715e-05
4.92096e-05
4.96054e-05
4.99583e-05
5.02679e-05
5.05337e-05
5.07556e-05
5.09334e-05
5.10668e-05
5.11558e-05
5.12004e-05
5.12004e-05
5.11559e-05
5.10669e-05
5.09334e-05
5.07557e-05
5.05338e-05
5.0268e-05
4.99584e-05
4.96056e-05
4.92098e-05
4.87717e-05
4.82924e-05
4.77732e-05
4.72166e-05
5.42011e-05
5.28474e-05
5.13715e-05
4.978e-05
4.80757e-05
4.62596e-05
4.43319e-05
4.22917e-05
4.01369e-05
3.78629e-05
3.54632e-05
3.29287e-05
3.02471e-05
2.74005e-05
2.43618e-05
2.10884e-05
1.75096e-05
1.34981e-05
8.79374e-06
1.9388e-08
7.2663e-11
7.26451e-11
1.93837e-08
8.79242e-06
1.34964e-05
1.75077e-05
2.10864e-05
2.43597e-05
2.73983e-05
3.02449e-05
3.29266e-05
3.54611e-05
3.78609e-05
4.01349e-05
4.22898e-05
4.43302e-05
4.62581e-05
4.80742e-05
4.97787e-05
5.13704e-05
5.28464e-05
5.42003e-05
4.72163e-05
4.77729e-05
4.82921e-05
4.87715e-05
4.92096e-05
4.96054e-05
4.99583e-05
5.02679e-05
5.05337e-05
5.07556e-05
5.09334e-05
5.10668e-05
5.11558e-05
5.12004e-05
5.12004e-05
5.11559e-05
5.10669e-05
5.09334e-05
5.07557e-05
5.05338e-05
5.0268e-05
4.99584e-05
4.96056e-05
4.92098e-05
4.87717e-05
4.82924e-05
4.77732e-05
4.72166e-05
5.42011e-05
5.28474e-05
5.13715e-05
4.978e-05
4.80757e-05
4.62596e-05
4.43319e-05
4.22917e-05
4.01369e-05
3.78629e-05
3.54632e-05
3.29287e-05
3.02471e-05
2.74005e-05
2.43618e-05
2.10884e-05
1.75096e-05
1.34981e-05
8.79374e-06
1.9388e-08
7.2663e-11
7.26451e-11
1.93837e-08
8.79242e-06
1.34964e-05
1.75077e-05
2.10864e-05
2.43597e-05
2.73983e-05
3.02449e-05
3.29266e-05
3.54611e-05
3.78609e-05
4.01349e-05
4.22898e-05
4.43302e-05
4.62581e-05
4.80742e-05
4.97787e-05
5.13704e-05
5.28464e-05
5.42003e-05
4.72163e-05
4.77729e-05
4.82921e-05
4.87715e-05
4.92096e-05
4.96054e-05
4.99583e-05
5.02679e-05
5.05337e-05
5.07556e-05
5.09334e-05
5.10668e-05
5.11558e-05
5.12004e-05
5.12004e-05
5.11559e-05
5.10669e-05
5.09334e-05
5.07557e-05
5.05338e-05
5.0268e-05
4.99584e-05
4.96056e-05
4.92098e-05
4.87717e-05
4.82924e-05
4.77732e-05
4.72166e-05
5.42011e-05
5.28474e-05
5.13715e-05
4.978e-05
4.80757e-05
4.62596e-05
4.43319e-05
4.22917e-05
4.01369e-05
3.78629e-05
3.54632e-05
3.29287e-05
3.02471e-05
2.74005e-05
2.43618e-05
2.10884e-05
1.75096e-05
1.34981e-05
8.79374e-06
1.9388e-08
7.2663e-11
7.26451e-11
1.93837e-08
8.79242e-06
1.34964e-05
1.75077e-05
2.10864e-05
2.43597e-05
2.73983e-05
3.02449e-05
3.29266e-05
3.54611e-05
3.78609e-05
4.01349e-05
4.22898e-05
4.43302e-05
4.62581e-05
4.80742e-05
4.97787e-05
5.13704e-05
5.28464e-05
5.42003e-05
4.72163e-05
4.77729e-05
4.82921e-05
4.87715e-05
4.92096e-05
4.96054e-05
4.99583e-05
5.02679e-05
5.05337e-05
5.07556e-05
5.09334e-05
5.10668e-05
5.11558e-05
5.12004e-05
5.12004e-05
5.11559e-05
5.10669e-05
5.09334e-05
5.07557e-05
5.05338e-05
5.0268e-05
4.99584e-05
4.96056e-05
4.92098e-05
4.87717e-05
4.82924e-05
4.77732e-05
4.72166e-05
5.42011e-05
5.28474e-05
5.13715e-05
4.978e-05
4.80757e-05
4.62596e-05
4.43319e-05
4.22917e-05
4.01369e-05
3.78629e-05
3.54632e-05
3.29287e-05
3.02471e-05
2.74005e-05
2.43618e-05
2.10884e-05
1.75096e-05
1.34981e-05
8.79374e-06
1.9388e-08
7.2663e-11
7.26451e-11
1.93837e-08
8.79242e-06
1.34964e-05
1.75077e-05
2.10864e-05
2.43597e-05
2.73983e-05
3.02449e-05
3.29266e-05
3.54611e-05
3.78609e-05
4.01349e-05
4.22898e-05
4.43302e-05
4.62581e-05
4.80742e-05
4.97787e-05
5.13704e-05
5.28464e-05
5.42003e-05
4.72163e-05
4.77729e-05
4.82921e-05
4.87715e-05
4.92096e-05
4.96054e-05
4.99583e-05
5.02679e-05
5.05337e-05
5.07556e-05
5.09334e-05
5.10668e-05
5.11558e-05
5.12004e-05
5.12004e-05
5.11559e-05
5.10669e-05
5.09334e-05
5.07557e-05
5.05338e-05
5.0268e-05
4.99584e-05
4.96056e-05
4.92098e-05
4.87717e-05
4.82924e-05
4.77732e-05
4.72166e-05
5.42011e-05
5.28474e-05
5.13715e-05
4.978e-05
4.80757e-05
4.62596e-05
4.43319e-05
4.22917e-05
4.01369e-05
3.78629e-05
3.54632e-05
3.29287e-05
3.02471e-05
2.74005e-05
2.43618e-05
2.10884e-05
1.75096e-05
1.34981e-05
8.79374e-06
1.9388e-08
7.2663e-11
7.26451e-11
1.93837e-08
8.79242e-06
1.34964e-05
1.75077e-05
2.10864e-05
2.43597e-05
2.73983e-05
3.02449e-05
3.29266e-05
3.54611e-05
3.78609e-05
4.01349e-05
4.22898e-05
4.43302e-05
4.62581e-05
4.80742e-05
4.97787e-05
5.13704e-05
5.28464e-05
5.42003e-05
4.72163e-05
4.77729e-05
4.82921e-05
4.87715e-05
4.92096e-05
4.96054e-05
4.99583e-05
5.02679e-05
5.05337e-05
5.07556e-05
5.09334e-05
5.10668e-05
5.11558e-05
5.12004e-05
5.12004e-05
5.11559e-05
5.10669e-05
5.09334e-05
5.07557e-05
5.05338e-05
5.0268e-05
4.99584e-05
4.96056e-05
4.92098e-05
4.87717e-05
4.82924e-05
4.77732e-05
4.72166e-05
5.42011e-05
5.28474e-05
5.13715e-05
4.978e-05
4.80757e-05
4.62596e-05
4.43319e-05
4.22917e-05
4.01369e-05
3.78629e-05
3.54632e-05
3.29287e-05
3.02471e-05
2.74005e-05
2.43618e-05
2.10884e-05
1.75096e-05
1.34981e-05
8.79374e-06
1.9388e-08
7.2663e-11
7.26451e-11
1.93837e-08
8.79242e-06
1.34964e-05
1.75077e-05
2.10864e-05
2.43597e-05
2.73983e-05
3.02449e-05
3.29266e-05
3.54611e-05
3.78609e-05
4.01349e-05
4.22898e-05
4.43302e-05
4.62581e-05
4.80742e-05
4.97787e-05
5.13704e-05
5.28464e-05
5.42003e-05
4.72163e-05
4.77729e-05
4.82921e-05
4.87715e-05
4.92096e-05
4.96054e-05
4.99583e-05
5.02679e-05
5.05337e-05
5.07556e-05
5.09334e-05
5.10668e-05
5.11558e-05
5.12004e-05
5.12004e-05
5.11559e-05
5.10669e-05
5.09334e-05
5.07557e-05
5.05338e-05
5.0268e-05
4.99584e-05
4.96056e-05
4.92098e-05
4.87717e-05
4.82924e-05
4.77732e-05
4.72166e-05
5.42011e-05
5.28474e-05
5.13715e-05
4.978e-05
4.80757e-05
4.62596e-05
4.43319e-05
4.22917e-05
4.01369e-05
3.78629e-05
3.54632e-05
3.29287e-05
3.02471e-05
2.74005e-05
2.43618e-05
2.10884e-05
1.75096e-05
1.34981e-05
8.79374e-06
1.9388e-08
7.2663e-11
7.26451e-11
1.93837e-08
8.79242e-06
1.34964e-05
1.75077e-05
2.10864e-05
2.43597e-05
2.73983e-05
3.02449e-05
3.29266e-05
3.54611e-05
3.78609e-05
4.01349e-05
4.22898e-05
4.43302e-05
4.62581e-05
4.80742e-05
4.97787e-05
5.13704e-05
5.28464e-05
5.42003e-05
4.72163e-05
4.77729e-05
4.82921e-05
4.87715e-05
4.92096e-05
4.96054e-05
4.99583e-05
5.02679e-05
5.05337e-05
5.07556e-05
5.09334e-05
5.10668e-05
5.11558e-05
5.12004e-05
5.12004e-05
5.11559e-05
5.10669e-05
5.09334e-05
5.07557e-05
5.05338e-05
5.0268e-05
4.99584e-05
4.96056e-05
4.92098e-05
4.87717e-05
4.82924e-05
4.77732e-05
4.72166e-05
5.42011e-05
5.28474e-05
5.13715e-05
4.978e-05
4.80757e-05
4.62596e-05
4.43319e-05
4.22917e-05
4.01369e-05
3.78629e-05
3.54632e-05
3.29287e-05
3.02471e-05
2.74005e-05
2.43618e-05
2.10884e-05
1.75096e-05
1.34981e-05
8.79374e-06
1.9388e-08
7.2663e-11
7.26451e-11
1.93837e-08
8.79242e-06
1.34964e-05
1.75077e-05
2.10864e-05
2.43597e-05
2.73983e-05
3.02449e-05
3.29266e-05
3.54611e-05
3.78609e-05
4.01349e-05
4.22898e-05
4.43302e-05
4.62581e-05
4.80742e-05
4.97787e-05
5.13704e-05
5.28464e-05
5.42003e-05
4.72163e-05
4.77729e-05
4.82921e-05
4.87715e-05
4.92096e-05
4.96054e-05
4.99583e-05
5.02679e-05
5.05337e-05
5.07556e-05
5.09334e-05
5.10668e-05
5.11558e-05
5.12004e-05
5.12004e-05
5.11559e-05
5.10669e-05
5.09334e-05
5.07557e-05
5.05338e-05
5.0268e-05
4.99584e-05
4.96056e-05
4.92098e-05
4.87717e-05
4.82924e-05
4.77732e-05
4.72166e-05
5.42011e-05
5.28474e-05
5.13715e-05
4.978e-05
4.80757e-05
4.62596e-05
4.43319e-05
4.22917e-05
4.01369e-05
3.78629e-05
3.54632e-05
3.29287e-05
3.02471e-05
2.74005e-05
2.43618e-05
2.10884e-05
1.75096e-05
1.34981e-05
8.79374e-06
1.9388e-08
7.2663e-11
7.26451e-11
1.93837e-08
8.79242e-06
1.34964e-05
1.75077e-05
2.10864e-05
2.43597e-05
2.73983e-05
3.02449e-05
3.29266e-05
3.54611e-05
3.78609e-05
4.01349e-05
4.22898e-05
4.43302e-05
4.62581e-05
4.80742e-05
4.97787e-05
5.13704e-05
5.28464e-05
5.42003e-05
4.72163e-05
4.77729e-05
4.82921e-05
4.87715e-05
4.92096e-05
4.96054e-05
4.99583e-05
5.02679e-05
5.05337e-05
5.07556e-05
5.09334e-05
5.10668e-05
5.11558e-05
5.12004e-05
5.12004e-05
5.11559e-05
5.10669e-05
5.09334e-05
5.07557e-05
5.05338e-05
5.0268e-05
4.99584e-05
4.96056e-05
4.92098e-05
4.87717e-05
4.82924e-05
4.77732e-05
4.72166e-05
5.42011e-05
5.28474e-05
5.13715e-05
4.978e-05
4.80757e-05
4.62596e-05
4.43319e-05
4.22917e-05
4.01369e-05
3.78629e-05
3.54632e-05
3.29287e-05
3.02471e-05
2.74005e-05
2.43618e-05
2.10884e-05
1.75096e-05
1.34981e-05
8.79374e-06
1.9388e-08
7.2663e-11
7.26451e-11
1.93837e-08
8.79242e-06
1.34964e-05
1.75077e-05
2.10864e-05
2.43597e-05
2.73983e-05
3.02449e-05
3.29266e-05
3.54611e-05
3.78609e-05
4.01349e-05
4.22898e-05
4.43302e-05
4.62581e-05
4.80742e-05
4.97787e-05
5.13704e-05
5.28464e-05
5.42003e-05
4.72163e-05
4.77729e-05
4.82921e-05
4.87715e-05
4.92096e-05
4.96054e-05
4.99583e-05
5.02679e-05
5.05337e-05
5.07556e-05
5.09334e-05
5.10668e-05
5.11558e-05
5.12004e-05
5.12004e-05
5.11559e-05
5.10669e-05
5.09334e-05
5.07557e-05
5.05338e-05
5.0268e-05
4.99584e-05
4.96056e-05
4.92098e-05
4.87717e-05
4.82924e-05
4.77732e-05
4.72166e-05
5.42011e-05
5.28474e-05
5.13715e-05
4.978e-05
4.80757e-05
4.62596e-05
4.43319e-05
4.22917e-05
4.01369e-05
3.78629e-05
3.54632e-05
3.29287e-05
3.02471e-05
2.74005e-05
2.43618e-05
2.10884e-05
1.75096e-05
1.34981e-05
8.79374e-06
1.9388e-08
7.2663e-11
7.26451e-11
1.93837e-08
8.79242e-06
1.34964e-05
1.75077e-05
2.10864e-05
2.43597e-05
2.73983e-05
3.02449e-05
3.29266e-05
3.54611e-05
3.78609e-05
4.01349e-05
4.22898e-05
4.43302e-05
4.62581e-05
4.80742e-05
4.97787e-05
5.13704e-05
5.28464e-05
5.42003e-05
4.72163e-05
4.77729e-05
4.82921e-05
4.87715e-05
4.92096e-05
4.96054e-05
4.99583e-05
5.02679e-05
5.05337e-05
5.07556e-05
5.09334e-05
5.10668e-05
5.11558e-05
5.12004e-05
5.12004e-05
5.11559e-05
5.10669e-05
5.09334e-05
5.07557e-05
5.05338e-05
5.0268e-05
4.99584e-05
4.96056e-05
4.92098e-05
4.87717e-05
4.82924e-05
4.77732e-05
4.72166e-05
5.42011e-05
5.28474e-05
5.13715e-05
4.978e-05
4.80757e-05
4.62596e-05
4.43319e-05
4.22917e-05
4.01369e-05
3.78629e-05
3.54632e-05
3.29287e-05
3.02471e-05
2.74005e-05
2.43618e-05
2.10884e-05
1.75096e-05
1.34981e-05
8.79374e-06
1.9388e-08
7.2663e-11
7.26451e-11
1.93837e-08
8.79242e-06
1.34964e-05
1.75077e-05
2.10864e-05
2.43597e-05
2.73983e-05
3.02449e-05
3.29266e-05
3.54611e-05