/*--------------------------------*- C++ -*----------------------------------*\
  =========                 |
  \\      /  F ield         | OpenFOAM: The Open Source CFD Toolbox
   \\    /   O peration     | Website:  https://openfoam.org
    \\  /    A nd           | Version:  13
     \\/     M anipulation  |
\*---------------------------------------------------------------------------*/
FoamFile
{
    format      ascii;
    class       volScalarField;
    location    "47.5";
    object      nut;
}
// * * * * * * * * * * * * * * * * * * * * * * * * * * * * * * * * * * * * * //

dimensions      [0 2 -1 0 0 0 0];

internalField   nonuniform List<scalar> 
315000
(
1.77064e-13
4.63218e-11
1.05546e-09
1.88872e-09
2.72725e-09
3.57028e-09
4.41768e-09
5.26922e-09
6.12426e-09
6.98159e-09
7.83946e-09
8.69561e-09
9.54738e-09
1.03918e-08
1.12256e-08
1.20456e-08
1.28483e-08
1.36302e-08
1.43882e-08
1.51188e-08
1.5819e-08
1.64858e-08
1.71164e-08
1.77081e-08
1.82587e-08
1.87658e-08
1.92277e-08
1.96424e-08
2.00085e-08
2.03247e-08
2.05898e-08
2.08031e-08
2.09637e-08
2.10711e-08
2.1125e-08
2.11253e-08
2.10719e-08
2.09649e-08
2.08048e-08
2.05921e-08
2.03275e-08
2.00119e-08
1.96464e-08
1.92323e-08
1.87711e-08
1.82646e-08
1.77147e-08
1.71236e-08
1.64937e-08
1.58276e-08
1.51281e-08
1.43981e-08
1.36408e-08
1.28594e-08
1.20572e-08
1.12377e-08
1.04043e-08
9.56015e-09
8.70858e-09
7.85252e-09
6.99462e-09
6.13711e-09
5.28174e-09
4.42967e-09
3.58149e-09
2.73735e-09
1.89718e-09
1.0614e-09
4.66574e-11
1.78517e-13
4.43186e-12
1.1789e-09
2.65692e-07
4.74519e-07
6.80385e-07
8.83814e-07
1.08516e-06
1.28461e-06
1.48215e-06
1.6776e-06
1.87068e-06
2.06097e-06
2.248e-06
2.43123e-06
2.61011e-06
2.78409e-06
2.95262e-06
3.11516e-06
3.27119e-06
3.42025e-06
3.56189e-06
3.69569e-06
3.82128e-06
3.93833e-06
4.04654e-06
4.14564e-06
4.23541e-06
4.31564e-06
4.38617e-06
4.44687e-06
4.49762e-06
4.53832e-06
4.56891e-06
4.58935e-06
4.59959e-06
4.59962e-06
4.58945e-06
4.56908e-06
4.53856e-06
4.49792e-06
4.44725e-06
4.38664e-06
4.31618e-06
4.23604e-06
4.14636e-06
4.04735e-06
3.93924e-06
3.82229e-06
3.6968e-06
3.5631e-06
3.42156e-06
3.27261e-06
3.11667e-06
2.95422e-06
2.78578e-06
2.61188e-06
2.43306e-06
2.24988e-06
2.06289e-06
1.87261e-06
1.67953e-06
1.48403e-06
1.28643e-06
1.08688e-06
8.85372e-07
6.81733e-07
4.75583e-07
2.66374e-07
1.18236e-09
4.44558e-12
1.79923e-11
4.79338e-09
2.56073e-06
4.30562e-06
5.89829e-06
7.38175e-06
8.78204e-06
1.01155e-05
1.13923e-05
1.26189e-05
1.37993e-05
1.49354e-05
1.60285e-05
1.70789e-05
1.80864e-05
1.90507e-05
1.99713e-05
2.08475e-05
2.16785e-05
2.24638e-05
2.32026e-05
2.38944e-05
2.45385e-05
2.51344e-05
2.56817e-05
2.61801e-05
2.66292e-05
2.70287e-05
2.73786e-05
2.76786e-05
2.79288e-05
2.8129e-05
2.82791e-05
2.83793e-05
2.84294e-05
2.84295e-05
2.83795e-05
2.82796e-05
2.81296e-05
2.79296e-05
2.76797e-05
2.73799e-05
2.70303e-05
2.66309e-05
2.61821e-05
2.56841e-05
2.51371e-05
2.45415e-05
2.38977e-05
2.32063e-05
2.24678e-05
2.16829e-05
2.08522e-05
1.99765e-05
1.90562e-05
1.80923e-05
1.7085e-05
1.60349e-05
1.49421e-05
1.38061e-05
1.26259e-05
1.13993e-05
1.01223e-05
8.78867e-06
7.38796e-06
5.90386e-06
4.31024e-06
2.56392e-06
4.80041e-09
1.80198e-11
2.95037e-11
7.8633e-09
4.0251e-06
6.57654e-06
8.84339e-06
1.09176e-05
1.28506e-05
1.46729e-05
1.64036e-05
1.80546e-05
1.96337e-05
2.11455e-05
2.25932e-05
2.39785e-05
2.53024e-05
2.65656e-05
2.77683e-05
2.89105e-05
2.99919e-05
3.10123e-05
3.19712e-05
3.2868e-05
3.37024e-05
3.44736e-05
3.51814e-05
3.58252e-05
3.6405e-05
3.69203e-05
3.73713e-05
3.77577e-05
3.80797e-05
3.83372e-05
3.85303e-05
3.8659e-05
3.87233e-05
3.87234e-05
3.86591e-05
3.85305e-05
3.83375e-05
3.80801e-05
3.77583e-05
3.73719e-05
3.69211e-05
3.64059e-05
3.58263e-05
3.51827e-05
3.44751e-05
3.37041e-05
3.287e-05
3.19734e-05
3.10148e-05
2.99947e-05
2.89135e-05
2.77716e-05
2.65692e-05
2.53062e-05
2.39825e-05
2.25974e-05
2.115e-05
1.96383e-05
1.80594e-05
1.64083e-05
1.46776e-05
1.28552e-05
1.0922e-05
8.84734e-06
6.57988e-06
4.0275e-06
7.86915e-09
2.95268e-11
3.88272e-11
1.03527e-08
5.14101e-06
8.2527e-06
1.09814e-05
1.34595e-05
1.57572e-05
1.79158e-05
1.996e-05
2.19058e-05
2.37633e-05
2.55391e-05
2.72374e-05
2.88611e-05
3.04123e-05
3.18921e-05
3.33013e-05
3.46401e-05
3.59081e-05
3.71044e-05
3.82281e-05
3.92786e-05
4.0255e-05
4.11567e-05
4.19833e-05
4.27346e-05
4.34102e-05
4.40103e-05
4.45348e-05
4.49838e-05
4.53575e-05
4.56562e-05
4.588e-05
4.60291e-05
4.61036e-05
4.61036e-05
4.60291e-05
4.588e-05
4.56563e-05
4.53577e-05
4.4984e-05
4.4535e-05
4.40106e-05
4.34106e-05
4.2735e-05
4.19839e-05
4.11574e-05
4.02558e-05
3.92796e-05
3.82293e-05
3.71057e-05
3.59096e-05
3.46418e-05
3.33032e-05
3.18941e-05
3.04145e-05
2.88635e-05
2.72399e-05
2.55417e-05
2.37661e-05
2.19087e-05
1.99629e-05
1.79187e-05
1.57601e-05
1.34622e-05
1.09839e-05
8.25483e-06
5.1426e-06
1.0357e-08
3.88442e-11
4.555e-11
1.215e-08
5.91393e-06
9.39208e-06
1.24214e-05
1.51624e-05
1.76983e-05
2.00768e-05
2.23269e-05
2.44668e-05
2.65083e-05
2.84589e-05
3.0324e-05
3.2107e-05
3.38106e-05
3.54363e-05
3.69846e-05
3.84553e-05
3.98474e-05
4.11598e-05
4.23915e-05
4.35414e-05
4.46089e-05
4.55933e-05
4.64941e-05
4.73112e-05
4.80445e-05
4.86942e-05
4.92606e-05
4.97444e-05
5.01461e-05
5.04663e-05
5.07058e-05
5.08651e-05
5.09447e-05
5.09447e-05
5.08652e-05
5.07059e-05
5.04665e-05
5.01463e-05
4.97446e-05
4.92609e-05
4.86945e-05
4.80448e-05
4.73116e-05
4.64945e-05
4.55938e-05
4.46095e-05
4.35421e-05
4.23922e-05
4.11606e-05
3.98483e-05
3.84563e-05
3.69858e-05
3.54375e-05
3.38119e-05
3.21085e-05
3.03255e-05
2.84606e-05
2.651e-05
2.44686e-05
2.23288e-05
2.00787e-05
1.77001e-05
1.51641e-05
1.2423e-05
9.39346e-06
5.91499e-06
1.21531e-08
4.55627e-11
4.98802e-11
1.33091e-08
6.39985e-06
1.01008e-05
1.33129e-05
1.62139e-05
1.8895e-05
2.14081e-05
2.37844e-05
2.60435e-05
2.81981e-05
3.02567e-05
3.22248e-05
3.41064e-05
3.59043e-05
3.762e-05
3.92538e-05
4.08046e-05
4.22712e-05
4.36524e-05
4.49467e-05
4.61531e-05
4.72705e-05
4.8298e-05
4.92352e-05
5.00819e-05
5.08383e-05
5.15047e-05
5.20822e-05
5.25719e-05
5.29755e-05
5.32949e-05
5.35321e-05
5.36897e-05
5.37685e-05
5.37687e-05
5.36903e-05
5.35327e-05
5.32957e-05
5.29763e-05
5.25727e-05
5.2083e-05
5.15055e-05
5.0839e-05
5.00826e-05
4.92359e-05
4.82987e-05
4.72711e-05
4.61538e-05
4.49474e-05
4.36531e-05
4.2272e-05
4.08054e-05
3.92547e-05
3.7621e-05
3.59054e-05
3.41075e-05
3.2226e-05
3.0258e-05
2.81995e-05
2.60449e-05
2.37858e-05
2.14095e-05
1.88964e-05
1.62152e-05
1.33141e-05
1.01019e-05
6.40069e-06
1.33117e-08
4.98911e-11
5.23953e-11
1.39832e-08
6.67846e-06
1.0505e-05
1.38201e-05
1.68116e-05
1.95752e-05
2.21648e-05
2.46131e-05
2.69405e-05
2.91601e-05
3.12807e-05
3.33083e-05
3.52469e-05
3.70994e-05
3.88673e-05
4.05501e-05
4.21468e-05
4.36558e-05
4.50756e-05
4.64047e-05
4.76414e-05
4.87847e-05
4.98333e-05
5.07865e-05
5.16438e-05
5.24049e-05
5.30698e-05
5.36389e-05
5.41129e-05
5.44935e-05
5.47861e-05
5.50046e-05
5.51521e-05
4.71e-05
4.71001e-05
5.51526e-05
5.50052e-05
5.4787e-05
5.44945e-05
5.4114e-05
5.364e-05
5.30708e-05
5.24058e-05
5.16446e-05
5.07873e-05
4.98341e-05
4.87854e-05
4.76422e-05
4.64054e-05
4.50764e-05
4.36567e-05
4.21477e-05
4.05511e-05
3.88683e-05
3.71006e-05
3.52481e-05
3.33095e-05
3.12821e-05
2.91615e-05
2.69419e-05
2.46145e-05
2.21662e-05
1.95766e-05
1.6813e-05
1.38213e-05
1.05061e-05
6.67928e-06
1.39857e-08
5.24061e-11
5.37232e-11
1.43396e-08
6.82475e-06
1.07167e-05
1.40857e-05
1.71247e-05
1.99316e-05
2.25616e-05
2.50481e-05
2.74118e-05
2.96662e-05
3.18202e-05
3.38797e-05
3.58491e-05
3.77313e-05
3.95273e-05
4.12368e-05
4.28584e-05
4.43905e-05
4.58313e-05
4.71791e-05
4.84323e-05
4.95892e-05
5.06486e-05
5.16092e-05
5.24704e-05
5.32319e-05
5.38941e-05
5.44587e-05
5.49296e-05
4.71438e-05
4.72861e-05
4.73959e-05
4.74702e-05
4.75076e-05
4.75076e-05
4.74702e-05
4.7396e-05
4.72863e-05
4.7144e-05
5.49302e-05
5.44594e-05
5.38948e-05
5.32325e-05
5.24711e-05
5.16099e-05
5.06493e-05
4.959e-05
4.84331e-05
4.718e-05
4.58322e-05
4.43915e-05
4.28595e-05
4.1238e-05
3.95286e-05
3.77326e-05
3.58505e-05
3.38812e-05
3.18217e-05
2.96678e-05
2.74134e-05
2.50497e-05
2.25632e-05
1.99331e-05
1.71261e-05
1.4087e-05
1.07179e-05
6.82565e-06
1.43423e-08
5.37347e-11
5.43624e-11
1.45114e-08
6.89511e-06
1.08185e-05
1.42134e-05
1.72753e-05
2.01033e-05
2.2753e-05
2.52582e-05
2.76399e-05
2.99115e-05
3.2082e-05
3.41576e-05
3.61425e-05
3.80397e-05
3.98501e-05
4.15733e-05
4.32077e-05
4.47517e-05
4.62033e-05
4.75608e-05
4.88222e-05
4.99859e-05
5.10505e-05
5.20145e-05
5.28771e-05
5.36378e-05
5.42977e-05
5.4863e-05
4.71581e-05
4.73448e-05
4.74973e-05
4.76135e-05
4.7692e-05
4.77314e-05
4.77314e-05
4.76919e-05
4.76135e-05
4.74973e-05
4.73449e-05
4.71582e-05
5.48633e-05
5.42982e-05
5.36384e-05
5.28778e-05
5.20152e-05
5.10512e-05
4.99868e-05
4.88231e-05
4.75618e-05
4.62044e-05
4.47529e-05
4.3209e-05
4.15746e-05
3.98516e-05
3.80412e-05
3.61441e-05
3.41593e-05
3.20837e-05
2.99133e-05
2.76417e-05
2.52601e-05
2.27549e-05
2.0105e-05
1.7277e-05
1.42149e-05
1.08198e-05
6.8961e-06
1.45144e-08
5.43748e-11
5.46434e-11
1.4587e-08
6.92608e-06
1.08633e-05
1.42696e-05
1.73417e-05
2.0179e-05
2.28376e-05
2.53511e-05
2.77407e-05
3.00199e-05
3.21979e-05
3.42806e-05
3.62724e-05
3.81763e-05
3.99931e-05
4.17223e-05
4.33624e-05
4.49116e-05
4.6368e-05
4.77297e-05
4.89948e-05
5.01615e-05
5.12284e-05
5.21942e-05
5.30576e-05
5.38172e-05
5.44701e-05
5.5052e-05
4.72551e-05
4.74424e-05
4.75973e-05
4.77157e-05
4.77956e-05
4.78358e-05
4.78358e-05
4.77956e-05
4.77158e-05
4.75974e-05
4.74426e-05
4.72552e-05
5.50522e-05
5.44705e-05
5.38178e-05
5.30583e-05
5.21949e-05
5.12292e-05
5.01624e-05
4.89958e-05
4.77308e-05
4.63692e-05
4.49129e-05
4.33638e-05
4.17238e-05
3.99947e-05
3.8178e-05
3.62743e-05
3.42825e-05
3.21998e-05
3.00219e-05
2.77427e-05
2.53531e-05
2.28396e-05
2.01809e-05
1.73435e-05
1.42713e-05
1.08647e-05
6.92715e-06
1.45902e-08
5.46566e-11
5.47574e-11
1.46178e-08
6.93868e-06
1.08816e-05
1.42926e-05
1.73689e-05
2.021e-05
2.28723e-05
2.53893e-05
2.77823e-05
3.00649e-05
3.2246e-05
3.43319e-05
3.63269e-05
3.82337e-05
4.00536e-05
4.17857e-05
4.34285e-05
4.49804e-05
4.64394e-05
4.78036e-05
4.90711e-05
5.02402e-05
5.13093e-05
5.22773e-05
5.3143e-05
5.3905e-05
5.45602e-05
5.51451e-05
4.72966e-05
4.7485e-05
4.76407e-05
4.77597e-05
4.784e-05
4.78803e-05
4.78804e-05
4.784e-05
4.77598e-05
4.76408e-05
4.74851e-05
4.72968e-05
5.51454e-05
5.45607e-05
5.39055e-05
5.31437e-05
5.22781e-05
5.13102e-05
5.02412e-05
4.90722e-05
4.78048e-05
4.64408e-05
4.49819e-05
4.34301e-05
4.17873e-05
4.00553e-05
3.82356e-05
3.63288e-05
3.43339e-05
3.22481e-05
3.0067e-05
2.77845e-05
2.53915e-05
2.28744e-05
2.02121e-05
1.73708e-05
1.42943e-05
1.08831e-05
6.93981e-06
1.46211e-08
5.4771e-11
5.48006e-11
1.46294e-08
6.94348e-06
1.08885e-05
1.43013e-05
1.73792e-05
2.02219e-05
2.28856e-05
2.54041e-05
2.77984e-05
3.00823e-05
3.22647e-05
3.43519e-05
3.6348e-05
3.8256e-05
4.00769e-05
4.18099e-05
4.34536e-05
4.50061e-05
4.64655e-05
4.78299e-05
4.90972e-05
5.02657e-05
5.13337e-05
5.22998e-05
5.31633e-05
5.39244e-05
5.45831e-05
5.51739e-05
4.73106e-05
4.75004e-05
4.76569e-05
4.77765e-05
4.78571e-05
4.78976e-05
4.78976e-05
4.78571e-05
4.77766e-05
4.7657e-05
4.75005e-05
4.73108e-05
5.51743e-05
5.45835e-05
5.3925e-05
5.3164e-05
5.23006e-05
5.13346e-05
5.02668e-05
4.90984e-05
4.78311e-05
4.64669e-05
4.50076e-05
4.34552e-05
4.18116e-05
4.00787e-05
3.82579e-05
3.635e-05
3.43539e-05
3.22669e-05
3.00845e-05
2.78006e-05
2.54063e-05
2.28878e-05
2.0224e-05
1.73812e-05
1.43031e-05
1.089e-05
6.94463e-06
1.46328e-08
5.48145e-11
5.4816e-11
1.46336e-08
6.94519e-06
1.0891e-05
1.43045e-05
1.7383e-05
2.02262e-05
2.28904e-05
2.54094e-05
2.78042e-05
3.00886e-05
3.22715e-05
3.43592e-05
3.63558e-05
3.82642e-05
4.00856e-05
4.1819e-05
4.3463e-05
4.50159e-05
4.64757e-05
4.78403e-05
4.91079e-05
5.02766e-05
5.13448e-05
5.23111e-05
5.31748e-05
5.39361e-05
5.45953e-05
5.51867e-05
4.73164e-05
4.75064e-05
4.76631e-05
4.77828e-05
4.78634e-05
4.7904e-05
4.7904e-05
4.78635e-05
4.77828e-05
4.76632e-05
4.75065e-05
4.73166e-05
5.51871e-05
5.45957e-05
5.39367e-05
5.31755e-05
5.23119e-05
5.13458e-05
5.02777e-05
4.91091e-05
4.78416e-05
4.64771e-05
4.50174e-05
4.34647e-05
4.18208e-05
4.00874e-05
3.82662e-05
3.63578e-05
3.43613e-05
3.22737e-05
3.00908e-05
2.78065e-05
2.54116e-05
2.28926e-05
2.02283e-05
1.7385e-05
1.43063e-05
1.08926e-05
6.94636e-06
1.4637e-08
5.483e-11
5.48212e-11
1.4635e-08
6.94577e-06
1.08919e-05
1.43055e-05
1.73842e-05
2.02277e-05
2.28921e-05
2.54112e-05
2.78062e-05
3.00908e-05
3.22739e-05
3.43617e-05
3.63584e-05
3.82671e-05
4.00886e-05
4.18222e-05
4.34664e-05
4.50194e-05
4.64793e-05
4.7844e-05
4.91118e-05
5.02806e-05
5.13489e-05
5.23153e-05
5.31791e-05
5.39406e-05
5.45998e-05
5.51913e-05
4.73185e-05
4.75085e-05
4.76652e-05
4.77849e-05
4.78656e-05
4.79062e-05
4.79062e-05
4.78656e-05
4.7785e-05
4.76653e-05
4.75086e-05
4.73187e-05
5.51917e-05
5.46003e-05
5.39412e-05
5.31799e-05
5.23162e-05
5.13499e-05
5.02817e-05
4.9113e-05
4.78453e-05
4.64807e-05
4.50209e-05
4.3468e-05
4.18239e-05
4.00904e-05
3.82691e-05
3.63605e-05
3.43638e-05
3.22761e-05
3.0093e-05
2.78085e-05
2.54134e-05
2.28943e-05
2.02298e-05
1.73862e-05
1.43073e-05
1.08934e-05
6.94694e-06
1.46385e-08
5.48352e-11
5.48228e-11
1.46354e-08
6.94595e-06
1.08921e-05
1.43059e-05
1.73846e-05
2.02281e-05
2.28926e-05
2.54118e-05
2.78069e-05
3.00915e-05
3.22746e-05
3.43624e-05
3.63593e-05
3.8268e-05
4.00895e-05
4.18232e-05
4.34674e-05
4.50205e-05
4.64804e-05
4.78453e-05
4.9113e-05
5.02819e-05
5.13503e-05
5.23167e-05
5.31805e-05
5.3942e-05
5.46013e-05
5.51928e-05
4.73192e-05
4.75092e-05
4.76659e-05
4.77856e-05
4.78663e-05
4.79069e-05
4.79069e-05
4.78663e-05
4.77857e-05
4.7666e-05
4.75093e-05
4.73193e-05
5.51932e-05
5.46018e-05
5.39427e-05
5.31813e-05
5.23176e-05
5.13512e-05
5.0283e-05
4.91142e-05
4.78466e-05
4.64819e-05
4.50221e-05
4.34691e-05
4.1825e-05
4.00914e-05
3.827e-05
3.63614e-05
3.43646e-05
3.22768e-05
3.00937e-05
2.78091e-05
2.5414e-05
2.28948e-05
2.02303e-05
1.73866e-05
1.43077e-05
1.08937e-05
6.94712e-06
1.46389e-08
5.48369e-11
5.48233e-11
1.46356e-08
6.946e-06
1.08922e-05
1.4306e-05
1.73848e-05
2.02283e-05
2.28927e-05
2.54119e-05
2.7807e-05
3.00917e-05
3.22748e-05
3.43627e-05
3.63596e-05
3.82683e-05
4.00898e-05
4.18235e-05
4.34678e-05
4.50208e-05
4.64808e-05
4.78456e-05
4.91134e-05
5.02823e-05
5.13507e-05
5.23171e-05
5.3181e-05
5.39425e-05
5.46017e-05
5.51933e-05
4.73194e-05
4.75094e-05
4.76661e-05
4.77858e-05
4.78665e-05
4.79071e-05
4.79071e-05
4.78665e-05
4.77859e-05
4.76662e-05
4.75095e-05
4.73195e-05
5.51937e-05
5.46022e-05
5.39431e-05
5.31817e-05
5.2318e-05
5.13516e-05
5.02834e-05
4.91146e-05
4.78469e-05
4.64822e-05
4.50224e-05
4.34694e-05
4.18253e-05
4.00917e-05
3.82702e-05
3.63616e-05
3.43648e-05
3.2277e-05
3.00939e-05
2.78093e-05
2.54142e-05
2.28949e-05
2.02304e-05
1.73868e-05
1.43078e-05
1.08937e-05
6.94718e-06
1.4639e-08
5.48374e-11
5.48234e-11
1.46356e-08
6.94602e-06
1.08922e-05
1.4306e-05
1.73848e-05
2.02283e-05
2.28928e-05
2.5412e-05
2.78071e-05
3.00917e-05
3.22749e-05
3.43628e-05
3.63596e-05
3.82683e-05
4.00899e-05
4.18236e-05
4.34678e-05
4.50209e-05
4.64809e-05
4.78457e-05
4.91135e-05
5.02824e-05
5.13508e-05
5.23173e-05
5.31811e-05
5.39426e-05
5.46019e-05
5.51934e-05
4.73194e-05
4.75094e-05
4.76662e-05
4.77859e-05
4.78665e-05
4.79071e-05
4.79071e-05
4.78666e-05
4.7786e-05
4.76663e-05
4.75096e-05
4.73196e-05
5.51938e-05
5.46023e-05
5.39432e-05
5.31818e-05
5.23181e-05
5.13518e-05
5.02835e-05
4.91147e-05
4.7847e-05
4.64823e-05
4.50225e-05
4.34695e-05
4.18253e-05
4.00918e-05
3.82703e-05
3.63617e-05
3.43649e-05
3.22771e-05
3.0094e-05
2.78094e-05
2.54142e-05
2.2895e-05
2.02304e-05
1.73868e-05
1.43078e-05
1.08938e-05
6.94719e-06
1.46391e-08
5.48375e-11
5.48234e-11
1.46356e-08
6.94602e-06
1.08922e-05
1.4306e-05
1.73848e-05
2.02283e-05
2.28928e-05
2.5412e-05
2.78071e-05
3.00917e-05
3.22749e-05
3.43628e-05
3.63596e-05
3.82684e-05
4.00899e-05
4.18236e-05
4.34679e-05
4.5021e-05
4.64809e-05
4.78458e-05
4.91136e-05
5.02825e-05
5.13508e-05
5.23173e-05
5.31811e-05
5.39426e-05
5.46019e-05
5.51935e-05
4.73195e-05
4.75094e-05
4.76662e-05
4.77859e-05
4.78666e-05
4.79071e-05
4.79072e-05
4.78666e-05
4.7786e-05
4.76663e-05
4.75096e-05
4.73196e-05
5.51939e-05
5.46024e-05
5.39432e-05
5.31819e-05
5.23181e-05
5.13518e-05
5.02835e-05
4.91147e-05
4.78471e-05
4.64823e-05
4.50225e-05
4.34695e-05
4.18254e-05
4.00918e-05
3.82703e-05
3.63617e-05
3.43649e-05
3.22771e-05
3.0094e-05
2.78094e-05
2.54143e-05
2.2895e-05
2.02304e-05
1.73868e-05
1.43078e-05
1.08938e-05
6.9472e-06
1.46391e-08
5.48375e-11
5.48234e-11
1.46356e-08
6.94602e-06
1.08922e-05
1.4306e-05
1.73848e-05
2.02283e-05
2.28928e-05
2.5412e-05
2.78071e-05
3.00917e-05
3.22749e-05
3.43628e-05
3.63597e-05
3.82684e-05
4.00899e-05
4.18236e-05
4.34679e-05
4.5021e-05
4.64809e-05
4.78458e-05
4.91136e-05
5.02825e-05
5.13509e-05
5.23173e-05
5.31811e-05
5.39426e-05
5.46019e-05
5.51935e-05
4.73195e-05
4.75094e-05
4.76662e-05
4.77859e-05
4.78666e-05
4.79071e-05
4.79072e-05
4.78666e-05
4.7786e-05
4.76663e-05
4.75096e-05
4.73196e-05
5.51939e-05
5.46024e-05
5.39433e-05
5.31819e-05
5.23181e-05
5.13518e-05
5.02835e-05
4.91147e-05
4.78471e-05
4.64823e-05
4.50225e-05
4.34695e-05
4.18254e-05
4.00918e-05
3.82703e-05
3.63617e-05
3.43649e-05
3.22771e-05
3.0094e-05
2.78094e-05
2.54143e-05
2.2895e-05
2.02304e-05
1.73868e-05
1.43078e-05
1.08938e-05
6.9472e-06
1.46391e-08
5.48375e-11
5.48234e-11
1.46356e-08
6.94602e-06
1.08922e-05
1.4306e-05
1.73848e-05
2.02283e-05
2.28928e-05
2.5412e-05
2.78071e-05
3.00917e-05
3.22749e-05
3.43628e-05
3.63597e-05
3.82684e-05
4.00899e-05
4.18236e-05
4.34679e-05
4.5021e-05
4.64809e-05
4.78458e-05
4.91136e-05
5.02825e-05
5.13509e-05
5.23173e-05
5.31811e-05
5.39426e-05
5.46019e-05
5.51935e-05
4.73195e-05
4.75094e-05
4.76662e-05
4.77859e-05
4.78666e-05
4.79071e-05
4.79072e-05
4.78666e-05
4.7786e-05
4.76663e-05
4.75096e-05
4.73196e-05
5.51939e-05
5.46024e-05
5.39433e-05
5.31819e-05
5.23181e-05
5.13518e-05
5.02836e-05
4.91147e-05
4.78471e-05
4.64824e-05
4.50225e-05
4.34695e-05
4.18254e-05
4.00918e-05
3.82704e-05
3.63617e-05
3.43649e-05
3.22771e-05
3.0094e-05
2.78094e-05
2.54143e-05
2.2895e-05
2.02304e-05
1.73868e-05
1.43078e-05
1.08938e-05
6.9472e-06
1.46391e-08
5.48375e-11
5.48234e-11
1.46356e-08
6.94602e-06
1.08922e-05
1.4306e-05
1.73848e-05
2.02283e-05
2.28928e-05
2.5412e-05
2.78071e-05
3.00917e-05
3.22749e-05
3.43628e-05
3.63597e-05
3.82684e-05
4.00899e-05
4.18236e-05
4.34679e-05
4.5021e-05
4.64809e-05
4.78458e-05
4.91136e-05
5.02825e-05
5.13509e-05
5.23173e-05
5.31811e-05
5.39426e-05
5.46019e-05
5.51935e-05
4.73195e-05
4.75094e-05
4.76662e-05
4.77859e-05
4.78666e-05
4.79071e-05
4.79072e-05
4.78666e-05
4.7786e-05
4.76663e-05
4.75096e-05
4.73196e-05
5.51939e-05
5.46024e-05
5.39433e-05
5.31819e-05
5.23181e-05
5.13518e-05
5.02836e-05
4.91147e-05
4.78471e-05
4.64824e-05
4.50225e-05
4.34695e-05
4.18254e-05
4.00918e-05
3.82704e-05
3.63617e-05
3.43649e-05
3.22771e-05
3.0094e-05
2.78094e-05
2.54143e-05
2.2895e-05
2.02304e-05
1.73868e-05
1.43078e-05
1.08938e-05
6.9472e-06
1.46391e-08
5.48375e-11
5.48234e-11
1.46356e-08
6.94602e-06
1.08922e-05
1.4306e-05
1.73848e-05
2.02283e-05
2.28928e-05
2.5412e-05
2.78071e-05
3.00917e-05
3.22749e-05
3.43628e-05
3.63597e-05
3.82684e-05
4.00899e-05
4.18236e-05
4.34679e-05
4.5021e-05
4.64809e-05
4.78458e-05
4.91136e-05
5.02825e-05
5.13509e-05
5.23173e-05
5.31811e-05
5.39426e-05
5.46019e-05
5.51935e-05
4.73195e-05
4.75094e-05
4.76662e-05
4.77859e-05
4.78666e-05
4.79071e-05
4.79072e-05
4.78666e-05
4.7786e-05
4.76663e-05
4.75096e-05
4.73196e-05
5.51939e-05
5.46024e-05
5.39433e-05
5.31819e-05
5.23181e-05
5.13518e-05
5.02836e-05
4.91147e-05
4.78471e-05
4.64824e-05
4.50225e-05
4.34695e-05
4.18254e-05
4.00918e-05
3.82704e-05
3.63617e-05
3.43649e-05
3.22771e-05
3.0094e-05
2.78094e-05
2.54143e-05
2.2895e-05
2.02304e-05
1.73868e-05
1.43078e-05
1.08938e-05
6.9472e-06
1.46391e-08
5.48375e-11
5.48234e-11
1.46356e-08
6.94602e-06
1.08922e-05
1.4306e-05
1.73848e-05
2.02283e-05
2.28928e-05
2.5412e-05
2.78071e-05
3.00917e-05
3.22749e-05
3.43628e-05
3.63597e-05
3.82684e-05
4.00899e-05
4.18236e-05
4.34679e-05
4.5021e-05
4.64809e-05
4.78458e-05
4.91136e-05
5.02825e-05
5.13509e-05
5.23173e-05
5.31811e-05
5.39426e-05
5.46019e-05
5.51935e-05
4.73195e-05
4.75094e-05
4.76662e-05
4.77859e-05
4.78666e-05
4.79071e-05
4.79072e-05
4.78666e-05
4.7786e-05
4.76663e-05
4.75096e-05
4.73196e-05
5.51939e-05
5.46024e-05
5.39433e-05
5.31819e-05
5.23181e-05
5.13518e-05
5.02836e-05
4.91147e-05
4.78471e-05
4.64824e-05
4.50225e-05
4.34695e-05
4.18254e-05
4.00918e-05
3.82704e-05
3.63617e-05
3.43649e-05
3.22771e-05
3.0094e-05
2.78094e-05
2.54143e-05
2.2895e-05
2.02304e-05
1.73868e-05
1.43078e-05
1.08938e-05
6.9472e-06
1.46391e-08
5.48375e-11
5.48234e-11
1.46356e-08
6.94602e-06
1.08922e-05
1.4306e-05
1.73848e-05
2.02283e-05
2.28928e-05
2.5412e-05
2.78071e-05
3.00917e-05
3.22749e-05
3.43628e-05
3.63597e-05
3.82684e-05
4.00899e-05
4.18236e-05
4.34679e-05
4.5021e-05
4.64809e-05
4.78458e-05
4.91136e-05
5.02825e-05
5.13509e-05
5.23173e-05
5.31811e-05
5.39426e-05
5.46019e-05
5.51935e-05
4.73195e-05
4.75094e-05
4.76662e-05
4.77859e-05
4.78666e-05
4.79071e-05
4.79072e-05
4.78666e-05
4.7786e-05
4.76663e-05
4.75096e-05
4.73196e-05
5.51939e-05
5.46024e-05
5.39433e-05
5.31819e-05
5.23181e-05
5.13518e-05
5.02836e-05
4.91147e-05
4.78471e-05
4.64824e-05
4.50225e-05
4.34695e-05
4.18254e-05
4.00918e-05
3.82704e-05
3.63617e-05
3.43649e-05
3.22771e-05
3.0094e-05
2.78094e-05
2.54143e-05
2.2895e-05
2.02304e-05
1.73868e-05
1.43078e-05
1.08938e-05
6.9472e-06
1.46391e-08
5.48375e-11
5.48234e-11
1.46356e-08
6.94602e-06
1.08922e-05
1.4306e-05
1.73848e-05
2.02283e-05
2.28928e-05
2.5412e-05
2.78071e-05
3.00917e-05
3.22749e-05
3.43628e-05
3.63597e-05
3.82684e-05
4.00899e-05
4.18236e-05
4.34679e-05
4.5021e-05
4.64809e-05
4.78458e-05
4.91136e-05
5.02825e-05
5.13509e-05
5.23173e-05
5.31811e-05
5.39426e-05
5.46019e-05
5.51935e-05
4.73195e-05
4.75094e-05
4.76662e-05
4.77859e-05
4.78666e-05
4.79071e-05
4.79072e-05
4.78666e-05
4.7786e-05
4.76663e-05
4.75096e-05
4.73196e-05
5.51939e-05
5.46024e-05
5.39433e-05
5.31819e-05
5.23181e-05
5.13518e-05
5.02836e-05
4.91147e-05
4.78471e-05
4.64824e-05
4.50225e-05
4.34695e-05
4.18254e-05
4.00918e-05
3.82704e-05
3.63617e-05
3.43649e-05
3.22771e-05
3.0094e-05
2.78094e-05
2.54143e-05
2.2895e-05
2.02304e-05
1.73868e-05
1.43078e-05
1.08938e-05
6.9472e-06
1.46391e-08
5.48375e-11
5.48234e-11
1.46356e-08
6.94602e-06
1.08922e-05
1.4306e-05
1.73848e-05
2.02283e-05
2.28928e-05
2.5412e-05
2.78071e-05
3.00917e-05
3.22749e-05
3.43628e-05
3.63597e-05
3.82684e-05
4.00899e-05
4.18236e-05
4.34679e-05
4.5021e-05
4.64809e-05
4.78458e-05
4.91136e-05
5.02825e-05
5.13509e-05
5.23173e-05
5.31811e-05
5.39426e-05
5.46019e-05
5.51935e-05
4.73195e-05
4.75094e-05
4.76662e-05
4.77859e-05
4.78666e-05
4.79071e-05
4.79072e-05
4.78666e-05
4.7786e-05
4.76663e-05
4.75096e-05
4.73196e-05
5.51939e-05
5.46024e-05
5.39433e-05
5.31819e-05
5.23181e-05
5.13518e-05
5.02836e-05
4.91147e-05
4.78471e-05
4.64824e-05
4.50225e-05
4.34695e-05
4.18254e-05
4.00918e-05
3.82704e-05
3.63617e-05
3.43649e-05
3.22771e-05
3.0094e-05
2.78094e-05
2.54143e-05
2.2895e-05
2.02304e-05
1.73868e-05
1.43078e-05
1.08938e-05
6.9472e-06
1.46391e-08
5.48375e-11
5.48234e-11
1.46356e-08
6.94602e-06
1.08922e-05
1.4306e-05
1.73848e-05
2.02283e-05
2.28928e-05
2.5412e-05
2.78071e-05
3.00917e-05
3.22749e-05
3.43628e-05
3.63597e-05
3.82684e-05
4.00899e-05
4.18236e-05
4.34679e-05
4.5021e-05
4.64809e-05
4.78458e-05
4.91136e-05
5.02825e-05
5.13509e-05
5.23173e-05
5.31811e-05
5.39426e-05
5.46019e-05
5.51935e-05
4.73195e-05
4.75094e-05
4.76662e-05
4.77859e-05
4.78666e-05
4.79071e-05
4.79072e-05
4.78666e-05
4.7786e-05
4.76663e-05
4.75096e-05
4.73196e-05
5.51939e-05
5.46024e-05
5.39433e-05
5.31819e-05
5.23181e-05
5.13518e-05
5.02836e-05
4.91147e-05
4.78471e-05
4.64824e-05
4.50225e-05
4.34695e-05
4.18254e-05
4.00918e-05
3.82704e-05
3.63617e-05
3.43649e-05
3.22771e-05
3.0094e-05
2.78094e-05
2.54143e-05
2.2895e-05
2.02304e-05
1.73868e-05
1.43078e-05
1.08938e-05
6.9472e-06
1.46391e-08
5.48375e-11
5.48234e-11
1.46356e-08
6.94602e-06
1.08922e-05
1.4306e-05
1.73848e-05
2.02283e-05
2.28928e-05
2.5412e-05
2.78071e-05
3.00917e-05
3.22749e-05
3.43628e-05
3.63597e-05
3.82684e-05
4.00899e-05
4.18236e-05
4.34679e-05
4.5021e-05
4.64809e-05
4.78458e-05
4.91136e-05
5.02825e-05
5.13509e-05
5.23173e-05
5.31811e-05
5.39426e-05
5.46019e-05
5.51935e-05
4.73195e-05
4.75094e-05
4.76662e-05
4.77859e-05
4.78666e-05
4.79071e-05
4.79072e-05
4.78666e-05
4.7786e-05
4.76663e-05
4.75096e-05
4.73196e-05
5.51939e-05
5.46024e-05
5.39433e-05
5.31819e-05
5.23181e-05
5.13518e-05
5.02836e-05
4.91147e-05
4.78471e-05
4.64824e-05
4.50225e-05
4.34695e-05
4.18254e-05
4.00918e-05
3.82704e-05
3.63617e-05
3.43649e-05
3.22771e-05
3.0094e-05
2.78094e-05
2.54143e-05
2.2895e-05
2.02304e-05
1.73868e-05
1.43078e-05
1.08938e-05
6.9472e-06
1.46391e-08
5.48375e-11
5.48234e-11
1.46356e-08
6.94602e-06
1.08922e-05
1.4306e-05
1.73848e-05
2.02283e-05
2.28928e-05
2.5412e-05
2.78071e-05
3.00917e-05
3.22749e-05
3.43628e-05
3.63597e-05
3.82684e-05
4.00899e-05
4.18236e-05
4.34679e-05
4.5021e-05
4.64809e-05
4.78458e-05
4.91136e-05
5.02825e-05
5.13509e-05
5.23173e-05
5.31811e-05
5.39426e-05
5.46019e-05
5.51935e-05
4.73195e-05
4.75094e-05
4.76662e-05
4.77859e-05
4.78666e-05
4.79071e-05
4.79072e-05
4.78666e-05
4.7786e-05
4.76663e-05
4.75096e-05
4.73196e-05
5.51939e-05
5.46024e-05
5.39433e-05
5.31819e-05
5.23181e-05
5.13518e-05
5.02836e-05
4.91147e-05
4.78471e-05
4.64824e-05
4.50225e-05
4.34695e-05
4.18254e-05
4.00918e-05
3.82704e-05
3.63617e-05
3.43649e-05
3.22771e-05
3.0094e-05
2.78094e-05
2.54143e-05
2.2895e-05
2.02304e-05
1.73868e-05
1.43078e-05
1.08938e-05
6.9472e-06
1.46391e-08
5.48375e-11
5.48234e-11
1.46356e-08
6.94602e-06
1.08922e-05
1.4306e-05
1.73848e-05
2.02283e-05
2.28928e-05
2.5412e-05
2.78071e-05
3.00917e-05
3.22749e-05
3.43628e-05
3.63597e-05
3.82684e-05
4.00899e-05
4.18236e-05
4.34679e-05
4.5021e-05
4.64809e-05
4.78458e-05
4.91136e-05
5.02825e-05
5.13509e-05
5.23173e-05
5.31811e-05
5.39426e-05
5.46019e-05
5.51935e-05
4.73195e-05
4.75094e-05
4.76662e-05
4.77859e-05
4.78666e-05
4.79071e-05
4.79072e-05
4.78666e-05
4.7786e-05
4.76663e-05
4.75096e-05
4.73196e-05
5.51939e-05
5.46024e-05
5.39433e-05
5.31819e-05
5.23181e-05
5.13518e-05
5.02836e-05
4.91147e-05
4.78471e-05
4.64824e-05
4.50225e-05
4.34695e-05
4.18254e-05
4.00918e-05
3.82704e-05
3.63617e-05
3.43649e-05
3.22771e-05
3.0094e-05
2.78094e-05
2.54143e-05
2.2895e-05
2.02304e-05
1.73868e-05
1.43078e-05
1.08938e-05
6.9472e-06
1.46391e-08
5.48375e-11
5.48234e-11
1.46356e-08
6.94602e-06
1.08922e-05
1.4306e-05
1.73848e-05
2.02283e-05
2.28928e-05
2.5412e-05
2.78071e-05
3.00917e-05
3.22749e-05
3.43628e-05
3.63597e-05
3.82684e-05
4.00899e-05
4.18236e-05
4.34679e-05
4.5021e-05
4.64809e-05
4.78458e-05
4.91136e-05
5.02825e-05
5.13509e-05
5.23173e-05
5.31811e-05
5.39426e-05
5.46019e-05
5.51935e-05
4.73195e-05
4.75094e-05
4.76662e-05
4.77859e-05
4.78666e-05
4.79071e-05
4.79072e-05
4.78666e-05
4.7786e-05
4.76663e-05
4.75096e-05
4.73196e-05
5.51939e-05
5.46024e-05
5.39433e-05
5.31819e-05
5.23181e-05
5.13518e-05
5.02836e-05
4.91147e-05
4.78471e-05
4.64824e-05
4.50225e-05
4.34695e-05
4.18254e-05
4.00918e-05
3.82704e-05
3.63617e-05
3.43649e-05
3.22771e-05
3.0094e-05
2.78094e-05
2.54143e-05
2.2895e-05
2.02304e-05
1.73868e-05
1.43078e-05
1.08938e-05
6.9472e-06
1.46391e-08
5.48375e-11
5.48234e-11
1.46356e-08
6.94602e-06
1.08922e-05
1.4306e-05
1.73848e-05
2.02283e-05
2.28928e-05
2.5412e-05
2.78071e-05
3.00917e-05
3.22749e-05
3.43628e-05
3.63597e-05
3.82684e-05
4.00899e-05
4.18236e-05
4.34679e-05
4.5021e-05
4.64809e-05
4.78458e-05
4.91136e-05
5.02825e-05
5.13509e-05
5.23173e-05
5.31811e-05
5.39426e-05
5.46019e-05
5.51935e-05
4.73195e-05
4.75094e-05
4.76662e-05
4.77859e-05
4.78666e-05
4.79071e-05
4.79072e-05
4.78666e-05
4.7786e-05
4.76663e-05
4.75096e-05
4.73196e-05
5.51939e-05
5.46024e-05
5.39433e-05
5.31819e-05
5.23181e-05
5.13518e-05
5.02836e-05
4.91147e-05
4.78471e-05
4.64824e-05
4.50225e-05
4.34695e-05
4.18254e-05
4.00918e-05
3.82704e-05
3.63617e-05
3.43649e-05
3.22771e-05
3.0094e-05
2.78094e-05
2.54143e-05
2.2895e-05
2.02304e-05
1.73868e-05
1.43078e-05
1.08938e-05
6.9472e-06
1.46391e-08
5.48375e-11
5.48234e-11
1.46356e-08
6.94602e-06
1.08922e-05
1.4306e-05
1.73848e-05
2.02283e-05
2.28928e-05
2.5412e-05
2.78071e-05
3.00917e-05
3.22749e-05
3.43628e-05
3.63597e-05
3.82684e-05
4.00899e-05
4.18236e-05
4.34679e-05
4.5021e-05
4.64809e-05
4.78458e-05
4.91136e-05
5.02825e-05
5.13509e-05
5.23173e-05
5.31811e-05
5.39426e-05
5.46019e-05
5.51935e-05
4.73195e-05
4.75094e-05
4.76662e-05
4.77859e-05
4.78666e-05
4.79071e-05
4.79072e-05
4.78666e-05
4.7786e-05
4.76663e-05
4.75096e-05
4.73196e-05
5.51939e-05
5.46024e-05
5.39433e-05
5.31819e-05
5.23181e-05
5.13518e-05
5.02836e-05
4.91147e-05
4.78471e-05
4.64824e-05
4.50225e-05
4.34695e-05
4.18254e-05
4.00918e-05
3.82704e-05
3.63617e-05
3.43649e-05
3.22771e-05
3.0094e-05
2.78094e-05
2.54143e-05
2.2895e-05
2.02304e-05
1.73868e-05
1.43078e-05
1.08938e-05
6.9472e-06
1.46391e-08
5.48375e-11
5.48234e-11
1.46356e-08
6.94602e-06
1.08922e-05
1.4306e-05
1.73848e-05
2.02283e-05
2.28928e-05
2.5412e-05
2.78071e-05
3.00917e-05
3.22749e-05
3.43628e-05
3.63597e-05
3.82684e-05
4.00899e-05
4.18236e-05
4.34679e-05
4.5021e-05
4.64809e-05
4.78458e-05
4.91136e-05
5.02825e-05
5.13509e-05
5.23173e-05
5.31811e-05
5.39426e-05
5.46019e-05
5.51935e-05
4.73195e-05
4.75094e-05
4.76662e-05
4.77859e-05
4.78666e-05
4.79071e-05
4.79072e-05
4.78666e-05
4.7786e-05
4.76663e-05
4.75096e-05
4.73196e-05
5.51939e-05
5.46024e-05
5.39433e-05
5.31819e-05
5.23181e-05
5.13518e-05
5.02836e-05
4.91147e-05
4.78471e-05
4.64824e-05
4.50225e-05
4.34695e-05
4.18254e-05
4.00918e-05
3.82704e-05
3.63617e-05
3.43649e-05
3.22771e-05
3.0094e-05
2.78094e-05
2.54143e-05
2.2895e-05
2.02304e-05
1.73868e-05
1.43078e-05
1.08938e-05
6.9472e-06
1.46391e-08
5.48375e-11
5.48234e-11
1.46356e-08
6.94602e-06
1.08922e-05
1.4306e-05
1.73848e-05
2.02283e-05
2.28928e-05
2.5412e-05
2.78071e-05
3.00917e-05
3.22749e-05
3.43628e-05
3.63597e-05
3.82684e-05
4.00899e-05