/*--------------------------------*- C++ -*----------------------------------*\
  =========                 |
  \\      /  F ield         | OpenFOAM: The Open Source CFD Toolbox
   \\    /   O peration     | Website:  https://openfoam.org
    \\  /    A nd           | Version:  13
     \\/     M anipulation  |
\*---------------------------------------------------------------------------*/
FoamFile
{
    format      ascii;
    class       volScalarField;
    location    "47.5";
    object      rhok;
}
// * * * * * * * * * * * * * * * * * * * * * * * * * * * * * * * * * * * * * //

dimensions      [];

internalField   nonuniform List<scalar> 
315000
(
0.444397
0.42073
0.413588
0.412172
0.411164
0.410044
0.408885
0.407717
0.406552
0.405396
0.404252
0.403121
0.402004
0.400902
0.399816
0.398747
0.397695
0.39666
0.395645
0.394649
0.393674
0.392719
0.391786
0.390874
0.389985
0.389118
0.388274
0.387454
0.386656
0.385882
0.385131
0.384404
0.3837
0.383018
0.38236
0.381725
0.381112
0.380522
0.379953
0.379406
0.37888
0.378374
0.377888
0.377423
0.376976
0.376548
0.376137
0.375744
0.375368
0.375008
0.374664
0.374334
0.374018
0.373716
0.373426
0.373148
0.372882
0.372626
0.37238
0.372143
0.371914
0.371692
0.371477
0.371268
0.371064
0.370865
0.370669
0.370476
0.370284
0.370095
0.444396
0.42071
0.413567
0.412156
0.411149
0.410029
0.408871
0.407703
0.406539
0.405384
0.40424
0.403109
0.401992
0.400889
0.399803
0.398733
0.39768
0.396646
0.39563
0.394634
0.393658
0.392703
0.391769
0.390857
0.389967
0.3891
0.388256
0.387435
0.386637
0.385863
0.385112
0.384385
0.38368
0.382999
0.382341
0.381706
0.381094
0.380503
0.379935
0.379388
0.378862
0.378356
0.377871
0.377406
0.376959
0.376532
0.376122
0.37573
0.375354
0.374994
0.37465
0.374321
0.374006
0.373704
0.373415
0.373138
0.372873
0.372617
0.372372
0.372135
0.371907
0.371686
0.371472
0.371264
0.371061
0.370862
0.370666
0.370474
0.370283
0.370094
0.444396
0.420708
0.413564
0.412153
0.411146
0.410026
0.408868
0.4077
0.406536
0.40538
0.404236
0.403105
0.401988
0.400885
0.399799
0.398728
0.397675
0.396641
0.395625
0.394628
0.393652
0.392696
0.391762
0.39085
0.38996
0.389092
0.388248
0.387426
0.386628
0.385854
0.385102
0.384375
0.38367
0.382989
0.382331
0.381696
0.381083
0.380492
0.379924
0.379377
0.378851
0.378345
0.37786
0.377395
0.376949
0.376521
0.376112
0.37572
0.375344
0.374985
0.374641
0.374312
0.373998
0.373696
0.373408
0.373131
0.372866
0.372611
0.372366
0.37213
0.371902
0.371682
0.371468
0.37126
0.371058
0.370859
0.370665
0.370473
0.370283
0.370094
0.444396
0.420712
0.413571
0.412159
0.411151
0.410031
0.408873
0.407705
0.40654
0.405384
0.40424
0.403108
0.401991
0.400888
0.399801
0.398731
0.397678
0.396643
0.395626
0.39463
0.393653
0.392697
0.391763
0.39085
0.38996
0.389092
0.388247
0.387425
0.386627
0.385852
0.3851
0.384372
0.383667
0.382985
0.382327
0.381691
0.381078
0.380487
0.379919
0.379371
0.378845
0.37834
0.377855
0.377389
0.376943
0.376515
0.376106
0.375714
0.375338
0.374979
0.374636
0.374307
0.373992
0.373691
0.373403
0.373126
0.372861
0.372607
0.372362
0.372126
0.371899
0.371679
0.371465
0.371258
0.371056
0.370858
0.370663
0.370472
0.370282
0.370094
0.444397
0.420723
0.413603
0.412184
0.411165
0.410044
0.408885
0.407716
0.406551
0.405394
0.404249
0.403117
0.401999
0.400896
0.399809
0.398738
0.397685
0.396649
0.395633
0.394636
0.393659
0.392703
0.391769
0.390856
0.389965
0.389097
0.388251
0.387429
0.38663
0.385855
0.385103
0.384374
0.383669
0.382987
0.382328
0.381692
0.381078
0.380487
0.379918
0.37937
0.378844
0.378338
0.377852
0.377387
0.37694
0.376512
0.376103
0.375711
0.375335
0.374976
0.374632
0.374304
0.373989
0.373688
0.3734
0.373124
0.372859
0.372604
0.37236
0.372124
0.371897
0.371677
0.371464
0.371256
0.371054
0.370857
0.370663
0.370471
0.370282
0.370094
0.444359
0.418618
0.414589
0.412869
0.41145
0.410164
0.408937
0.407741
0.406564
0.405404
0.404257
0.403124
0.402007
0.400904
0.399817
0.398746
0.397693
0.396658
0.395642
0.394645
0.393668
0.392712
0.391777
0.390864
0.389973
0.389104
0.388259
0.387436
0.386637
0.385861
0.385108
0.384379
0.383673
0.382991
0.382331
0.381695
0.381081
0.380489
0.379919
0.379371
0.378845
0.378338
0.377853
0.377387
0.37694
0.376512
0.376102
0.37571
0.375334
0.374975
0.374631
0.374302
0.373988
0.373687
0.373398
0.373122
0.372857
0.372603
0.372358
0.372123
0.371895
0.371676
0.371463
0.371256
0.371054
0.370856
0.370662
0.370471
0.370282
0.370094
0.444359
0.418613
0.414583
0.412868
0.411451
0.410165
0.408939
0.407743
0.406568
0.405408
0.404262
0.40313
0.402013
0.400911
0.399824
0.398754
0.397702
0.396667
0.395651
0.394654
0.393677
0.392721
0.391786
0.390873
0.389981
0.389113
0.388267
0.387444
0.386644
0.385868
0.385115
0.384385
0.383679
0.382996
0.382336
0.381699
0.381085
0.380493
0.379922
0.379374
0.378847
0.37834
0.377854
0.377388
0.376941
0.376513
0.376103
0.37571
0.375334
0.374975
0.374631
0.374302
0.373987
0.373686
0.373398
0.373121
0.372856
0.372602
0.372358
0.372122
0.371895
0.371675
0.371462
0.371255
0.371053
0.370856
0.370662
0.370471
0.370281
0.370094
0.444359
0.418615
0.414586
0.412871
0.411455
0.410169
0.408943
0.407748
0.406573
0.405414
0.404268
0.403137
0.40202
0.400918
0.399832
0.398762
0.39771
0.396675
0.395659
0.394662
0.393686
0.392729
0.391794
0.390881
0.38999
0.389121
0.388274
0.387451
0.386651
0.385874
0.385121
0.384391
0.383684
0.383001
0.382341
0.381703
0.381089
0.380496
0.379926
0.379377
0.378849
0.378343
0.377856
0.37739
0.376942
0.376514
0.376104
0.375711
0.375335
0.374975
0.374631
0.374302
0.373987
0.373686
0.373398
0.373121
0.372856
0.372602
0.372357
0.372122
0.371895
0.371675
0.371462
0.371255
0.371053
0.370856
0.370662
0.370471
0.370281
0.370093
0.444359
0.418619
0.414591
0.412877
0.41146
0.410175
0.408949
0.407755
0.40658
0.405421
0.404275
0.403144
0.402028
0.400926
0.39984
0.39877
0.397717
0.396683
0.395667
0.39467
0.393693
0.392737
0.391802
0.390888
0.389996
0.389127
0.388281
0.387457
0.386657
0.38588
0.385126
0.384396
0.383689
0.383005
0.382345
0.381707
0.381092
0.380499
0.379929
0.37938
0.378852
0.378345
0.377858
0.377391
0.376944
0.376515
0.376105
0.375712
0.375336
0.374976
0.374632
0.374303
0.373988
0.373686
0.373398
0.373122
0.372856
0.372602
0.372357
0.372122
0.371895
0.371675
0.371462
0.371255
0.371053
0.370855
0.370662
0.37047
0.370281
0.370093
0.44436
0.418624
0.414596
0.412882
0.411466
0.41018
0.408955
0.407761
0.406586
0.405427
0.404282
0.403151
0.402034
0.400932
0.399846
0.398776
0.397724
0.396689
0.395673
0.394676
0.393699
0.392743
0.391807
0.390894
0.390002
0.389132
0.388286
0.387462
0.386662
0.385884
0.38513
0.3844
0.383693
0.383009
0.382348
0.38171
0.381095
0.380502
0.379931
0.379382
0.378854
0.378347
0.37786
0.377393
0.376945
0.376516
0.376106
0.375713
0.375336
0.374977
0.374632
0.374303
0.373988
0.373687
0.373398
0.373122
0.372857
0.372602
0.372357
0.372122
0.371895
0.371675
0.371462
0.371255
0.371053
0.370855
0.370662
0.37047
0.370281
0.370093
0.44436
0.418627
0.4146
0.412886
0.41147
0.410185
0.408959
0.407765
0.406591
0.405431
0.404286
0.403155
0.402039
0.400937
0.399851
0.398781
0.397728
0.396694
0.395677
0.39468
0.393703
0.392747
0.391811
0.390897
0.390006
0.389136
0.388289
0.387465
0.386665
0.385887
0.385133
0.384403
0.383695
0.383011
0.38235
0.381712
0.381097
0.380504
0.379932
0.379383
0.378855
0.378348
0.377861
0.377394
0.376946
0.376517
0.376106
0.375713
0.375337
0.374977
0.374633
0.374304
0.373988
0.373687
0.373398
0.373122
0.372857
0.372602
0.372357
0.372122
0.371895
0.371675
0.371462
0.371255
0.371053
0.370855
0.370662
0.37047
0.370281
0.370093
0.44436
0.418629
0.414602
0.412889
0.411473
0.410188
0.408962
0.407768
0.406593
0.405434
0.404289
0.403158
0.402041
0.40094
0.399854
0.398784
0.397731
0.396696
0.39568
0.394683
0.393706
0.392749
0.391814
0.3909
0.390008
0.389138
0.388291
0.387467
0.386667
0.385889
0.385135
0.384404
0.383697
0.383013
0.382352
0.381713
0.381098
0.380505
0.379934
0.379384
0.378856
0.378349
0.377862
0.377394
0.376947
0.376518
0.376107
0.375714
0.375337
0.374977
0.374633
0.374304
0.373989
0.373687
0.373399
0.373122
0.372857
0.372602
0.372358
0.372122
0.371895
0.371675
0.371462
0.371255
0.371053
0.370855
0.370662
0.37047
0.370281
0.370093
0.44436
0.418632
0.414605
0.412892
0.411476
0.41019
0.408965
0.40777
0.406595
0.405436
0.404291
0.40316
0.402043
0.400941
0.399855
0.398785
0.397732
0.396697
0.395681
0.394684
0.393707
0.39275
0.391815
0.390901
0.390009
0.389139
0.388292
0.387468
0.386668
0.38589
0.385136
0.384405
0.383698
0.383013
0.382352
0.381714
0.381099
0.380505
0.379934
0.379385
0.378856
0.378349
0.377862
0.377395
0.376947
0.376518
0.376107
0.375714
0.375338
0.374978
0.374633
0.374304
0.373989
0.373687
0.373399
0.373122
0.372857
0.372602
0.372358
0.372122
0.371895
0.371675
0.371462
0.371255
0.371053
0.370855
0.370662
0.37047
0.370281
0.370093
0.44436
0.418639
0.414611
0.412905
0.411491
0.410202
0.408973
0.407776
0.406599
0.405438
0.404292
0.40316
0.402043
0.400941
0.399854
0.398784
0.397732
0.396697
0.395681
0.394684
0.393707
0.39275
0.391815
0.390901
0.390009
0.389139
0.388293
0.387469
0.386668
0.38589
0.385136
0.384406
0.383698
0.383014
0.382353
0.381714
0.381099
0.380506
0.379934
0.379385
0.378857
0.378349
0.377862
0.377395
0.376947
0.376518
0.376107
0.375714
0.375338
0.374978
0.374633
0.374304
0.373989
0.373687
0.373399
0.373122
0.372857
0.372602
0.372358
0.372122
0.371895
0.371675
0.371462
0.371255
0.371053
0.370855
0.370662
0.37047
0.370281
0.370093
0.444397
0.420746
0.413628
0.412215
0.411204
0.410081
0.408921
0.407752
0.406587
0.405431
0.404287
0.403156
0.402039
0.400938
0.399852
0.398782
0.397729
0.396695
0.395679
0.394682
0.393705
0.392749
0.391814
0.3909
0.390008
0.389139
0.388292
0.387468
0.386668
0.38589
0.385136
0.384406
0.383698
0.383014
0.382353
0.381715
0.381099
0.380506
0.379935
0.379385
0.378857
0.378349
0.377862
0.377395
0.376947
0.376518
0.376107
0.375714
0.375338
0.374978
0.374633
0.374304
0.373989
0.373687
0.373399
0.373122
0.372857
0.372602
0.372358
0.372122
0.371895
0.371675
0.371462
0.371255
0.371053
0.370855
0.370662
0.37047
0.370281
0.370093
0.444397
0.420737
0.413602
0.412192
0.411185
0.410066
0.408908
0.407742
0.406578
0.405424
0.404281
0.403151
0.402034
0.400933
0.399848
0.398778
0.397726
0.396692
0.395677
0.39468
0.393704
0.392748
0.391813
0.390899
0.390008
0.389138
0.388292
0.387468
0.386667
0.38589
0.385136
0.384405
0.383698
0.383014
0.382353
0.381715
0.381099
0.380506
0.379935
0.379385
0.378857
0.378349
0.377862
0.377395
0.376947
0.376518
0.376107
0.375714
0.375338
0.374978
0.374633
0.374304
0.373989
0.373687
0.373399
0.373122
0.372857
0.372602
0.372358
0.372122
0.371895
0.371675
0.371462
0.371255
0.371053
0.370855
0.370662
0.37047
0.370281
0.370093
0.444397
0.420733
0.413597
0.412187
0.41118
0.410061
0.408904
0.407737
0.406574
0.40542
0.404277
0.403147
0.402032
0.400931
0.399845
0.398777
0.397725
0.396691
0.395675
0.394679
0.393703
0.392747
0.391812
0.390899
0.390007
0.389138
0.388291
0.387468
0.386667
0.38589
0.385136
0.384405
0.383698
0.383014
0.382353
0.381715
0.381099
0.380506
0.379935
0.379385
0.378857
0.37835
0.377862
0.377395
0.376947
0.376518
0.376107
0.375714
0.375338
0.374978
0.374633
0.374304
0.373989
0.373687
0.373399
0.373122
0.372857
0.372602
0.372358
0.372122
0.371895
0.371675
0.371462
0.371255
0.371053
0.370855
0.370662
0.37047
0.370281
0.370093
0.444397
0.420732
0.413596
0.412185
0.411178
0.41006
0.408902
0.407736
0.406573
0.405419
0.404276
0.403146
0.402031
0.40093
0.399845
0.398776
0.397724
0.39669
0.395675
0.394679
0.393702
0.392747
0.391812
0.390898
0.390007
0.389138
0.388291
0.387468
0.386667
0.38589
0.385136
0.384405
0.383698
0.383014
0.382353
0.381715
0.381099
0.380506
0.379935
0.379385
0.378857
0.37835
0.377862
0.377395
0.376947
0.376518
0.376107
0.375714
0.375338
0.374978
0.374633
0.374304
0.373989
0.373687
0.373399
0.373122
0.372857
0.372602
0.372358
0.372122
0.371895
0.371675
0.371462
0.371255
0.371053
0.370855
0.370662
0.37047
0.370281
0.370093
0.444397
0.420732
0.413596
0.412185
0.411178
0.410059
0.408902
0.407735
0.406572
0.405418
0.404276
0.403146
0.40203
0.40093
0.399844
0.398776
0.397724
0.39669
0.395675
0.394679
0.393702
0.392746
0.391812
0.390898
0.390007
0.389138
0.388291
0.387468
0.386667
0.38589
0.385136
0.384405
0.383698
0.383014
0.382353
0.381715
0.381099
0.380506
0.379935
0.379385
0.378857
0.37835
0.377862
0.377395
0.376947
0.376518
0.376107
0.375714
0.375338
0.374978
0.374633
0.374304
0.373989
0.373687
0.373399
0.373122
0.372857
0.372602
0.372358
0.372122
0.371895
0.371675
0.371462
0.371255
0.371053
0.370855
0.370662
0.37047
0.370281
0.370093
0.444397
0.420732
0.413595
0.412185
0.411178
0.410059
0.408902
0.407735
0.406572
0.405418
0.404276
0.403146
0.40203
0.400929
0.399844
0.398775
0.397724
0.39669
0.395675
0.394678
0.393702
0.392746
0.391812
0.390898
0.390007
0.389138
0.388291
0.387468
0.386667
0.38589
0.385136
0.384405
0.383698
0.383014
0.382353
0.381715
0.381099
0.380506
0.379935
0.379385
0.378857
0.37835
0.377862
0.377395
0.376947
0.376518
0.376107
0.375714
0.375338
0.374978
0.374633
0.374304
0.373989
0.373687
0.373399
0.373122
0.372857
0.372602
0.372358
0.372122
0.371895
0.371675
0.371462
0.371255
0.371053
0.370855
0.370662
0.37047
0.370281
0.370093
0.444397
0.420732
0.413595
0.412185
0.411178
0.410059
0.408902
0.407735
0.406572
0.405418
0.404276
0.403146
0.40203
0.400929
0.399844
0.398775
0.397724
0.39669
0.395675
0.394678
0.393702
0.392746
0.391812
0.390898
0.390007
0.389138
0.388291
0.387468
0.386667
0.38589
0.385136
0.384405
0.383698
0.383014
0.382353
0.381715
0.381099
0.380506
0.379935
0.379385
0.378857
0.37835
0.377862
0.377395
0.376947
0.376518
0.376107
0.375714
0.375338
0.374978
0.374633
0.374304
0.373989
0.373687
0.373399
0.373122
0.372857
0.372602
0.372358
0.372122
0.371895
0.371675
0.371462
0.371255
0.371053
0.370855
0.370662
0.37047
0.370281
0.370093
0.444397
0.420732
0.413595
0.412185
0.411178
0.410059
0.408902
0.407735
0.406572
0.405418
0.404276
0.403146
0.40203
0.400929
0.399844
0.398775
0.397724
0.39669
0.395675
0.394678
0.393702
0.392746
0.391812
0.390898
0.390007
0.389138
0.388291
0.387468
0.386667
0.38589
0.385136
0.384405
0.383698
0.383014
0.382353
0.381715
0.381099
0.380506
0.379935
0.379385
0.378857
0.37835
0.377862
0.377395
0.376947
0.376518
0.376107
0.375714
0.375338
0.374978
0.374633
0.374304
0.373989
0.373687
0.373399
0.373122
0.372857
0.372602
0.372358
0.372122
0.371895
0.371675
0.371462
0.371255
0.371053
0.370855
0.370662
0.37047
0.370281
0.370093
0.444397
0.420732
0.413595
0.412185
0.411178
0.410059
0.408902
0.407735
0.406572
0.405418
0.404276
0.403146
0.40203
0.400929
0.399844
0.398775
0.397724
0.39669
0.395675
0.394678
0.393702
0.392746
0.391812
0.390898
0.390007
0.389138
0.388291
0.387468
0.386667
0.38589
0.385136
0.384405
0.383698
0.383014
0.382353
0.381715
0.381099
0.380506
0.379935
0.379385
0.378857
0.37835
0.377862
0.377395
0.376947
0.376518
0.376107
0.375714
0.375338
0.374978
0.374633
0.374304
0.373989
0.373687
0.373399
0.373122
0.372857
0.372602
0.372358
0.372122
0.371895
0.371675
0.371462
0.371255
0.371053
0.370855
0.370662
0.37047
0.370281
0.370093
0.444397
0.420732
0.413595
0.412185
0.411178
0.410059
0.408902
0.407735
0.406572
0.405418
0.404276
0.403146
0.40203
0.400929
0.399844
0.398775
0.397724
0.39669
0.395675
0.394678
0.393702
0.392746
0.391812
0.390898
0.390007
0.389138
0.388291
0.387468
0.386667
0.38589
0.385136
0.384405
0.383698
0.383014
0.382353
0.381715
0.381099
0.380506
0.379935
0.379385
0.378857
0.37835
0.377862
0.377395
0.376947
0.376518
0.376107
0.375714
0.375338
0.374978
0.374633
0.374304
0.373989
0.373687
0.373399
0.373122
0.372857
0.372602
0.372358
0.372122
0.371895
0.371675
0.371462
0.371255
0.371053
0.370855
0.370662
0.37047
0.370281
0.370093
0.444397
0.420732
0.413595
0.412185
0.411178
0.410059
0.408902
0.407735
0.406572
0.405418
0.404276
0.403146
0.40203
0.400929
0.399844
0.398775
0.397724
0.39669
0.395675
0.394678
0.393702
0.392746
0.391812
0.390898
0.390007
0.389138
0.388291
0.387468
0.386667
0.38589
0.385136
0.384405
0.383698
0.383014
0.382353
0.381715
0.381099
0.380506
0.379935
0.379385
0.378857
0.37835
0.377862
0.377395
0.376947
0.376518
0.376107
0.375714
0.375338
0.374978
0.374633
0.374304
0.373989
0.373687
0.373399
0.373122
0.372857
0.372602
0.372358
0.372122
0.371895
0.371675
0.371462
0.371255
0.371053
0.370855
0.370662
0.37047
0.370281
0.370093
0.444397
0.420732
0.413595
0.412185
0.411178
0.410059
0.408902
0.407735
0.406572
0.405418
0.404276
0.403146
0.40203
0.400929
0.399844
0.398775
0.397724
0.39669
0.395675
0.394678
0.393702
0.392746
0.391812
0.390898
0.390007
0.389138
0.388291
0.387468
0.386667
0.38589
0.385136
0.384405
0.383698
0.383014
0.382353
0.381715
0.381099
0.380506
0.379935
0.379385
0.378857
0.37835
0.377862
0.377395
0.376947
0.376518
0.376107
0.375714
0.375338
0.374978
0.374633
0.374304
0.373989
0.373687
0.373399
0.373122
0.372857
0.372602
0.372358
0.372122
0.371895
0.371675
0.371462
0.371255
0.371053
0.370855
0.370662
0.37047
0.370281
0.370093
0.444397
0.420732
0.413595
0.412185
0.411178
0.410059
0.408902
0.407735
0.406572
0.405418
0.404276
0.403146
0.40203
0.400929
0.399844
0.398775
0.397724
0.39669
0.395675
0.394678
0.393702
0.392746
0.391812
0.390898
0.390007
0.389138
0.388291
0.387468
0.386667
0.38589
0.385136
0.384405
0.383698
0.383014
0.382353
0.381715
0.381099
0.380506
0.379935
0.379385
0.378857
0.37835
0.377862
0.377395
0.376947
0.376518
0.376107
0.375714
0.375338
0.374978
0.374633
0.374304
0.373989
0.373687
0.373399
0.373122
0.372857
0.372602
0.372358
0.372122
0.371895
0.371675
0.371462
0.371255
0.371053
0.370855
0.370662
0.37047
0.370281
0.370093
0.444397
0.420732
0.413595
0.412185
0.411178
0.410059
0.408902
0.407735
0.406572
0.405418
0.404276
0.403146
0.40203
0.400929
0.399844
0.398775
0.397724
0.39669
0.395675
0.394678
0.393702
0.392746
0.391812
0.390898
0.390007
0.389138
0.388291
0.387468
0.386667
0.38589
0.385136
0.384405
0.383698
0.383014
0.382353
0.381715
0.381099
0.380506
0.379935
0.379385
0.378857
0.37835
0.377862
0.377395
0.376947
0.376518
0.376107
0.375714
0.375338
0.374978
0.374633
0.374304
0.373989
0.373687
0.373399
0.373122
0.372857
0.372602
0.372358
0.372122
0.371895
0.371675
0.371462
0.371255
0.371053
0.370855
0.370662
0.37047
0.370281
0.370093
0.444397
0.420732
0.413595
0.412185
0.411178
0.410059
0.408902
0.407735
0.406572
0.405418
0.404276
0.403146
0.40203
0.400929
0.399844
0.398775
0.397724
0.39669
0.395675
0.394678
0.393702
0.392746
0.391812
0.390898
0.390007
0.389138
0.388291
0.387468
0.386667
0.38589
0.385136
0.384405
0.383698
0.383014
0.382353
0.381715
0.381099
0.380506
0.379935
0.379385
0.378857
0.37835
0.377862
0.377395
0.376947
0.376518
0.376107
0.375714
0.375338
0.374978
0.374633
0.374304
0.373989
0.373687
0.373399
0.373122
0.372857
0.372602
0.372358
0.372122
0.371895
0.371675
0.371462
0.371255
0.371053
0.370855
0.370662
0.37047
0.370281
0.370093
0.444397
0.420732
0.413595
0.412185
0.411178
0.410059
0.408902
0.407735
0.406572
0.405418
0.404276
0.403146
0.40203
0.400929
0.399844
0.398775
0.397724
0.39669
0.395675
0.394678
0.393702
0.392746
0.391812
0.390898
0.390007
0.389138
0.388291
0.387468
0.386667
0.38589
0.385136
0.384405
0.383698
0.383014
0.382353
0.381715
0.381099
0.380506
0.379935
0.379385
0.378857
0.37835
0.377862
0.377395
0.376947
0.376518
0.376107
0.375714
0.375338
0.374978
0.374633
0.374304
0.373989
0.373687
0.373399
0.373122
0.372857
0.372602
0.372358
0.372122
0.371895
0.371675
0.371462
0.371255
0.371053
0.370855
0.370662
0.37047
0.370281
0.370093
0.444397
0.420732
0.413595
0.412185
0.411178
0.410059
0.408902
0.407735
0.406572
0.405418
0.404276
0.403146
0.40203
0.400929
0.399844
0.398775
0.397724
0.39669
0.395675
0.394678
0.393702
0.392746
0.391812
0.390898
0.390007
0.389138
0.388291
0.387468
0.386667
0.38589
0.385136
0.384405
0.383698
0.383014
0.382353
0.381715
0.381099
0.380506
0.379935
0.379385
0.378857
0.37835
0.377862
0.377395
0.376947
0.376518
0.376107
0.375714
0.375338
0.374978
0.374633
0.374304
0.373989
0.373687
0.373399
0.373122
0.372857
0.372602
0.372358
0.372122
0.371895
0.371675
0.371462
0.371255
0.371053
0.370855
0.370662
0.37047
0.370281
0.370093
0.444397
0.420732
0.413595
0.412185
0.411178
0.410059
0.408902
0.407735
0.406572
0.405418
0.404276
0.403146
0.40203
0.400929
0.399844
0.398775
0.397724
0.39669
0.395675
0.394678
0.393702
0.392746
0.391812
0.390898
0.390007
0.389138
0.388291
0.387468
0.386667
0.38589
0.385136
0.384405
0.383698
0.383014
0.382353
0.381715
0.381099
0.380506
0.379935
0.379385
0.378857
0.37835
0.377862
0.377395
0.376947
0.376518
0.376107
0.375714
0.375338
0.374978
0.374633
0.374304
0.373989
0.373687
0.373399
0.373122
0.372857
0.372602
0.372358
0.372122
0.371895
0.371675
0.371462
0.371255
0.371053
0.370855
0.370662
0.37047
0.370281
0.370093
0.444397
0.420732
0.413595
0.412185
0.411178
0.410059
0.408902
0.407735
0.406572
0.405418
0.404276
0.403146
0.40203
0.400929
0.399844
0.398775
0.397724
0.39669
0.395675
0.394678
0.393702
0.392746
0.391812
0.390898
0.390007
0.389138
0.388291
0.387468
0.386667
0.38589
0.385136
0.384405
0.383698
0.383014
0.382353
0.381715
0.381099
0.380506
0.379935
0.379385
0.378857
0.37835
0.377862
0.377395
0.376947
0.376518
0.376107
0.375714
0.375338
0.374978
0.374633
0.374304
0.373989
0.373687
0.373399
0.373122
0.372857
0.372602
0.372358
0.372122
0.371895
0.371675
0.371462
0.371255
0.371053
0.370855
0.370662
0.37047
0.370281
0.370093
0.444397
0.420732
0.413595
0.412185
0.411178
0.410059
0.408902
0.407735
0.406572
0.405418
0.404276
0.403146
0.40203
0.400929
0.399844
0.398775
0.397724
0.39669
0.395675
0.394678
0.393702
0.392746
0.391812
0.390898
0.390007
0.389138
0.388291
0.387468
0.386667
0.38589
0.385136
0.384405
0.383698
0.383014
0.382353
0.381715
0.381099
0.380506
0.379935
0.379385
0.378857
0.37835
0.377862
0.377395
0.376947
0.376518
0.376107
0.375714
0.375338
0.374978
0.374633
0.374304
0.373989
0.373687
0.373399
0.373122
0.372857
0.372602
0.372358
0.372122
0.371895
0.371675
0.371462
0.371255
0.371053
0.370855
0.370662
0.37047
0.370281
0.370093
0.444397
0.420732
0.413595
0.412185
0.411178
0.410059
0.408902
0.407735
0.406572
0.405418
0.404276
0.403146
0.40203
0.400929
0.399844
0.398775
0.397724
0.39669
0.395675
0.394678
0.393702
0.392746
0.391812
0.390898
0.390007
0.389138
0.388291
0.387468
0.386667
0.38589
0.385136
0.384405
0.383698
0.383014
0.382353
0.381715
0.381099
0.380506
0.379935
0.379385
0.378857
0.37835
0.377862
0.377395
0.376947
0.376518
0.376107
0.375714
0.375338
0.374978
0.374633
0.374304
0.373989
0.373687
0.373399
0.373122
0.372857
0.372602
0.372358
0.372122
0.371895
0.371675
0.371462
0.371255
0.371053
0.370855
0.370662
0.37047
0.370281
0.370093
0.444397
0.420732
0.413595
0.412185
0.411178
0.410059
0.408902
0.407735
0.406572
0.405418
0.404276
0.403146
0.40203
0.400929
0.399844
0.398775
0.397724
0.39669
0.395675
0.394678
0.393702
0.392746
0.391812
0.390898
0.390007
0.389138
0.388291
0.387468
0.386667
0.38589
0.385136
0.384405
0.383698
0.383014
0.382353
0.381715
0.381099
0.380506
0.379935
0.379385
0.378857
0.37835
0.377862
0.377395
0.376947
0.376518
0.376107
0.375714
0.375338
0.374978
0.374633
0.374304
0.373989
0.373687
0.373399
0.373122
0.372857
0.372602
0.372358
0.372122
0.371895
0.371675
0.371462
0.371255
0.371053
0.370855
0.370662
0.37047
0.370281
0.370093
0.444397
0.420732
0.413595
0.412185
0.411178
0.410059
0.408902
0.407735
0.406572
0.405418
0.404276
0.403146
0.40203
0.400929
0.399844
0.398775
0.397724
0.39669
0.395675
0.394678
0.393702
0.392746
0.391812
0.390898
0.390007
0.389138
0.388291
0.387468
0.386667
0.38589
0.385136
0.384405
0.383698
0.383014
0.382353
0.381715
0.381099
0.380506
0.379935
0.379385
0.378857
0.37835
0.377862
0.377395
0.376947
0.376518
0.376107
0.375714
0.375338
0.374978
0.374633
0.374304
0.373989
0.373687
0.373399
0.373122
0.372857
0.372602
0.372358
0.372122
0.371895
0.371675
0.371462
0.371255
0.371053
0.370855
0.370662
0.37047
0.370281
0.370093
0.444397
0.420732
0.413595
0.412185
0.411178
0.410059
0.408902
0.407735
0.406572
0.405418
0.404276
0.403146
0.40203
0.400929
0.399844
0.398775
0.397724
0.39669
0.395675
0.394678
0.393702
0.392746
0.391812
0.390898
0.390007
0.389138
0.388291
0.387468
0.386667
0.38589
0.385136
0.384405
0.383698
0.383014
0.382353
0.381715
0.381099
0.380506
0.379935
0.379385
0.378857
0.37835
0.377862
0.377395
0.376947
0.376518
0.376107
0.375714
0.375338
0.374978
0.374633
0.374304
0.373989
0.373687
0.373399
0.373122
0.372857
0.372602
0.372358
0.372122
0.371895
0.371675
0.371462
0.371255
0.371053
0.370855
0.370662
0.37047
0.370281
0.370093
0.444397
0.420732
0.413595
0.412185
0.411178
0.410059
0.408902
0.407735
0.406572
0.405418
0.404276
0.403146
0.40203
0.400929
0.399844
0.398775
0.397724
0.39669
0.395675
0.394678
0.393702
0.392746
0.391812
0.390898
0.390007
0.389138
0.388291
0.387468
0.386667
0.38589
0.385136
0.384405
0.383698
0.383014
0.382353
0.381715
0.381099
0.380506
0.379935
0.379385
0.378857
0.37835
0.377862
0.377395
0.376947
0.376518
0.376107
0.375714
0.375338
0.374978
0.374633
0.374304
0.373989
0.373687
0.373399
0.373122
0.372857
0.372602
0.372358
0.372122
0.371895
0.371675
0.371462
0.371255
0.371053
0.370855
0.370662
0.37047
0.370281
0.370093
0.444397
0.420732
0.413595
0.412185
0.411178
0.410059
0.408902
0.407735
0.406572
0.405418
0.404276
0.403146
0.40203
0.400929
0.399844
0.398775
0.397724
0.39669
0.395675
0.394678
0.393702
0.392746
0.391812
0.390898
0.390007
0.389138
0.388291
0.387468
0.386667
0.38589
0.385136
0.384405
0.383698
0.383014
0.382353
0.381715
0.381099
0.380506
0.379935
0.379385
0.378857
0.37835
0.377862
0.377395
0.376947
0.376518
0.376107
0.375714
0.375338
0.374978
0.374633
0.374304
0.373989
0.373687
0.373399
0.373122
0.372857
0.372602
0.372358
0.372122
0.371895
0.371675
0.371462
0.371255
0.371053
0.370855
0.370662
0.37047
0.370281
0.370093
0.444397
0.420732
0.413595
0.412185
0.411178
0.410059
0.408902
0.407735
0.406572
0.405418
0.404276
0.403146
0.40203
0.400929
0.399844
0.398775
0.397724
0.39669
0.395675
0.394678
0.393702
0.392746
0.391812
0.390898
0.390007
0.389138
0.388291
0.387468
0.386667
0.38589
0.385136
0.384405
0.383698
0.383014
0.382353
0.381715
0.381099
0.380506
0.379935
0.379385
0.378857
0.37835
0.377862
0.377395
0.376947
0.376518
0.376107
0.375714
0.375338
0.374978
0.374633
0.374304
0.373989
0.373687
0.373399
0.373122
0.372857
0.372602
0.372358
0.372122
0.371895
0.371675
0.371462
0.371255
0.371053
0.370855
0.370662
0.37047
0.370281
0.370093
0.444397
0.420732
0.413595
0.412185
0.411178
0.410059
0.408902
0.407735
0.406572
0.405418
0.404276
0.403146
0.40203
0.400929
0.399844
0.398775
0.397724
0.39669
0.395675
0.394678
0.393702
0.392746
0.391812
0.390898
0.390007
0.389138
0.388291
0.387468
0.386667
0.38589
0.385136
0.384405
0.383698
0.383014
0.382353
0.381715
0.381099
0.380506
0.379935
0.379385
0.378857
0.37835
0.377862
0.377395
0.376947
0.376518
0.376107
0.375714
0.375338
0.374978
0.374633
0.374304
0.373989
0.373687
0.373399
0.373122
0.372857
0.372602
0.372358
0.372122
0.371895
0.371675
0.371462
0.371255
0.371053
0.370855
0.370662
0.37047
0.370281
0.370093
0.444397
0.420732
0.413595
0.412185
0.411178
0.410059
0.408902
0.407735
0.406572
0.405418
0.404276
0.403146
0.40203
0.400929
0.399844
0.398775
0.397724
0.39669
0.395675
0.394678
0.393702
0.392746
0.391812
0.390898
0.390007
0.389138
0.388291
0.387468
0.386667
0.38589
0.385136
0.384405
0.383698
0.383014
0.382353
0.381715
0.381099
0.380506
0.379935
0.379385
0.378857
0.37835
0.377862
0.377395
0.376947
0.376518
0.376107
0.375714
0.375338
0.374978
0.374633
0.374304
0.373989
0.373687
0.373399
0.373122
0.372857
0.372602
0.372358
0.372122
0.371895
0.371675
0.371462
0.371255
0.371053
0.370855
0.370662
0.37047
0.370281
0.370093
0.444397
0.420732
0.413595
0.412185
0.411178
0.410059
0.408902
0.407735
0.406572
0.405418
0.404276
0.403146
0.40203
0.400929
0.399844
0.398775
0.397724
0.39669
0.395675
0.394678
0.393702
0.392746
0.391812
0.390898
0.390007
0.389138
0.388291
0.387468
0.386667
0.38589
0.385136
0.384405
0.383698
0.383014
0.382353
0.381715
0.381099
0.380506
0.379935
0.379385
0.378857
0.37835
0.377862
0.377395
0.376947
0.376518
0.376107
0.375714
0.375338
0.374978
0.374633
0.374304
0.373989
0.373687
0.373399
0.373122
0.372857
0.372602
0.372358
0.372122
0.371895
0.371675
0.371462
0.371255
0.371053
0.370855
0.370662
0.37047
0.370281
0.370093
0.444397
0.420732
0.413595
0.412185
0.411178
0.410059
0.408902
0.407735
0.406572
0.405418
0.404276
0.403146
0.40203
0.400929
0.399844
0.398775
0.397724
0.39669
0.395675
0.394678
0.393702
0.392746
0.391812
0.390898
0.390007
0.389138
0.388291
0.387468
0.386667
0.38589
0.385136
0.384405
0.383698
0.383014
0.382353
0.381715
0.381099
0.380506
0.379935
0.379385
0.378857
0.37835
0.377862
0.377395
0.376947
0.376518
0.376107
0.375714
0.375338
0.374978
0.374633
0.374304
0.373989
0.373687
0.373399
0.373122
0.372857
0.372602
0.372358
0.372122
0.371895
0.371675
0.371462
0.371255
0.371053
0.370855
0.370662
0.37047
0.370281
0.370093
0.444397
0.420732
0.413595
0.412185
0.411178
0.410059
0.408902
0.407735
0.406572
0.405418
0.404276
0.403146
0.40203
0.400929
0.399844
0.398775
0.397724
0.39669
0.395675
0.394678
0.393702
0.392746
0.391812
0.390898
0.390007
0.389138
0.388291
0.387468
0.386667
0.38589
0.385136
0.384405
0.383698
0.383014
0.382353
0.381715
0.381099
0.380506
0.379935
0.379385
0.378857
0.37835
0.377862
0.377395
0.376947
0.376518
0.376107
0.375714
0.375338
0.374978
0.374633
0.374304
0.373989
0.373687
0.373399
0.373122
0.372857
0.372602
0.372358
0.372122
0.371895
0.371675
0.371462
0.371255
0.371053
0.370855
0.370662
0.37047
0.370281
0.370093
0.444397
0.420732
0.413595
0.412185
0.411178
0.410059
0.408902
0.407735
0.406572
0.405418
0.404276
0.403146
0.40203
0.400929
0.399844
0.398775
0.397724
0.39669
0.395675
0.394678
0.393702
0.392746
0.391812
0.390898
0.390007
0.389138
0.388291
0.387468
0.386667
0.38589
0.385136
0.384405
0.383698
0.383014
0.382353
0.381715
0.381099
0.380506
0.379935
0.379385
0.378857
0.37835
0.377862
0.377395
0.376947
0.376518
0.376107
0.375714
0.375338
0.374978
0.374633
0.374304
0.373989
0.373687
0.373399
0.373122
0.372857
0.372602
0.372358
0.372122
0.371895
0.371675
0.371462
0.371255
0.371053
0.370855
0.370662
0.37047