/*--------------------------------*- C++ -*----------------------------------*\
  =========                 |
  \\      /  F ield         | OpenFOAM: The Open Source CFD Toolbox
   \\    /   O peration     | Website:  https://openfoam.org
    \\  /    A nd           | Version:  13
     \\/     M anipulation  |
\*---------------------------------------------------------------------------*/
FoamFile
{
    format      ascii;
    class       volScalarField;
    location    "97.5";
    object      nut;
}
// * * * * * * * * * * * * * * * * * * * * * * * * * * * * * * * * * * * * * //

dimensions      [0 2 -1 0 0 0 0];

internalField   nonuniform List<scalar> 
315000
(
1.23353e-14
3.23016e-12
7.36996e-11
1.32257e-10
1.91718e-10
2.52188e-10
3.13805e-10
3.76688e-10
4.40914e-10
5.06506e-10
5.73426e-10
6.41573e-10
7.1079e-10
7.80862e-10
8.51524e-10
9.2247e-10
9.93355e-10
1.06381e-09
1.13343e-09
1.20182e-09
1.26854e-09
1.33319e-09
1.39533e-09
1.45456e-09
1.51047e-09
1.56267e-09
1.6108e-09
1.65452e-09
1.69352e-09
1.7275e-09
1.75623e-09
1.77949e-09
1.79711e-09
1.80895e-09
1.81493e-09
1.81501e-09
1.80918e-09
1.79748e-09
1.78001e-09
1.7569e-09
1.72831e-09
1.69445e-09
1.65558e-09
1.61198e-09
1.56395e-09
1.51185e-09
1.45603e-09
1.39688e-09
1.3348e-09
1.27021e-09
1.20352e-09
1.13517e-09
1.06556e-09
9.95117e-10
9.24225e-10
8.5326e-10
7.82567e-10
7.12453e-10
6.43182e-10
5.74968e-10
5.07972e-10
4.42292e-10
3.77965e-10
3.14968e-10
2.53222e-10
1.926e-10
1.32956e-10
7.41622e-11
3.25495e-12
1.244e-14
3.08728e-13
8.22068e-11
1.87109e-08
3.38198e-08
4.90833e-08
6.45649e-08
8.03169e-08
9.63779e-08
1.12771e-07
1.29502e-07
1.46562e-07
1.63925e-07
1.81548e-07
1.99375e-07
2.17337e-07
2.35355e-07
2.5334e-07
2.71197e-07
2.88825e-07
3.06122e-07
3.22981e-07
3.39296e-07
3.54964e-07
3.69881e-07
3.83948e-07
3.97071e-07
4.0916e-07
4.20132e-07
4.2991e-07
4.38427e-07
4.45621e-07
4.51443e-07
4.5585e-07
4.5881e-07
4.60304e-07
4.60319e-07
4.58856e-07
4.55925e-07
4.51548e-07
4.45755e-07
4.38588e-07
4.30098e-07
4.20344e-07
4.09396e-07
3.97329e-07
3.84225e-07
3.70175e-07
3.55274e-07
3.39619e-07
3.23314e-07
3.06464e-07
2.89173e-07
2.71548e-07
2.53692e-07
2.35704e-07
2.17682e-07
1.99712e-07
1.81876e-07
1.64241e-07
1.46863e-07
1.29785e-07
1.13033e-07
9.66174e-08
8.05303e-08
6.47487e-08
4.92335e-08
3.39316e-08
1.87781e-08
8.25275e-11
3.09975e-13
1.24303e-12
3.31471e-10
1.91288e-07
3.44124e-07
4.97276e-07
6.51565e-07
8.07637e-07
9.65952e-07
1.12677e-06
1.29016e-06
1.45597e-06
1.6239e-06
1.79347e-06
1.96406e-06
2.13493e-06
2.30527e-06
2.47421e-06
2.64085e-06
2.80427e-06
2.96356e-06
3.11782e-06
3.26618e-06
3.40779e-06
3.54185e-06
3.66759e-06
3.7843e-06
3.89131e-06
3.98803e-06
4.0739e-06
4.14845e-06
4.21124e-06
4.26193e-06
4.30023e-06
4.32592e-06
4.33885e-06
4.33895e-06
4.32622e-06
4.30073e-06
4.26263e-06
4.21214e-06
4.14953e-06
4.07516e-06
3.98946e-06
3.8929e-06
3.78604e-06
3.66947e-06
3.54386e-06
3.40991e-06
3.2684e-06
3.12012e-06
2.96593e-06
2.80668e-06
2.64329e-06
2.47667e-06
2.30772e-06
2.13735e-06
1.96644e-06
1.79579e-06
1.62613e-06
1.45809e-06
1.29215e-06
1.12862e-06
9.67626e-07
8.09119e-07
6.52831e-07
4.983e-07
3.44877e-07
1.91734e-07
3.32294e-10
1.24619e-12
2.30444e-12
6.14587e-10
3.52834e-07
6.31543e-07
9.0886e-07
1.18664e-06
1.46631e-06
1.74885e-06
2.03479e-06
2.32424e-06
2.61691e-06
2.91214e-06
3.20898e-06
3.50623e-06
3.80254e-06
4.09645e-06
4.38648e-06
4.67114e-06
4.94896e-06
5.21853e-06
5.47846e-06
5.72744e-06
5.96422e-06
6.18761e-06
6.39647e-06
6.58976e-06
6.7665e-06
6.92585e-06
7.06704e-06
7.18941e-06
7.29233e-06
7.37532e-06
7.43795e-06
7.47993e-06
7.50103e-06
7.50116e-06
7.48031e-06
7.43859e-06
7.3762e-06
7.29346e-06
7.19076e-06
7.06863e-06
6.92765e-06
6.76851e-06
6.59196e-06
6.39885e-06
6.19015e-06
5.96692e-06
5.73027e-06
5.48139e-06
5.22155e-06
4.95206e-06
4.67428e-06
4.38965e-06
4.09962e-06
3.80568e-06
3.50932e-06
3.21199e-06
2.91505e-06
2.61968e-06
2.32685e-06
2.03721e-06
1.75105e-06
1.46826e-06
1.18831e-06
9.10209e-07
6.32537e-07
3.53425e-07
6.1569e-10
2.30868e-12
3.47775e-12
9.27633e-10
5.2954e-07
9.42683e-07
1.35065e-06
1.75679e-06
2.16358e-06
2.57268e-06
2.98496e-06
3.40061e-06
3.81917e-06
4.23965e-06
4.66064e-06
5.08044e-06
5.49719e-06
5.90896e-06
6.3138e-06
6.70978e-06
7.09504e-06
7.46783e-06
7.82651e-06
8.16951e-06
8.49534e-06
8.80253e-06
9.08969e-06
9.35547e-06
9.59859e-06
9.81787e-06
1.00122e-05
1.01807e-05
1.03224e-05
1.04367e-05
1.05229e-05
1.05807e-05
1.06097e-05
1.06098e-05
1.05811e-05
1.05236e-05
1.04376e-05
1.03236e-05
1.01821e-05
1.00139e-05
9.81978e-06
9.60073e-06
9.35781e-06
9.09223e-06
8.80525e-06
8.49821e-06
8.17253e-06
7.82964e-06
7.47107e-06
7.09836e-06
6.71316e-06
6.31721e-06
5.91238e-06
5.50059e-06
5.08379e-06
4.66391e-06
4.24282e-06
3.8222e-06
3.40347e-06
2.98762e-06
2.5751e-06
2.16574e-06
1.75864e-06
1.35216e-06
9.43797e-07
5.30208e-07
9.28899e-10
3.48263e-12
4.68136e-12
1.24886e-09
7.08834e-07
1.25502e-06
1.79032e-06
2.31999e-06
2.84778e-06
3.37617e-06
3.90649e-06
4.43903e-06
4.97327e-06
5.50796e-06
6.04139e-06
6.57152e-06
7.09617e-06
7.61308e-06
8.12009e-06
8.6151e-06
9.09612e-06
9.56126e-06
1.00087e-05
1.04365e-05
1.0843e-05
1.12263e-05
1.15845e-05
1.19161e-05
1.22193e-05
1.24926e-05
1.27348e-05
1.29446e-05
1.31209e-05
1.32631e-05
1.33703e-05
1.34421e-05
1.34782e-05
1.34783e-05
1.34425e-05
1.3371e-05
1.3264e-05
1.31221e-05
1.29459e-05
1.27364e-05
1.24945e-05
1.22213e-05
1.19183e-05
1.1587e-05
1.12289e-05
1.08458e-05
1.04394e-05
1.00117e-05
9.5644e-06
9.09935e-06
8.61838e-06
8.12341e-06
7.61642e-06
7.0995e-06
6.57481e-06
6.04461e-06
5.51109e-06
4.97627e-06
4.44188e-06
3.90914e-06
3.3786e-06
2.84994e-06
2.32185e-06
1.79185e-06
1.25615e-06
7.0952e-07
1.25019e-09
4.68648e-12
5.81429e-12
1.55134e-09
8.75851e-07
1.5431e-06
2.1927e-06
2.83202e-06
3.46624e-06
4.09873e-06
4.73129e-06
5.36443e-06
5.9976e-06
6.62944e-06
7.25807e-06
7.88125e-06
8.49665e-06
9.10191e-06
9.69474e-06
1.0273e-05
1.08345e-05
1.13772e-05
1.18992e-05
1.23982e-05
1.28721e-05
1.33188e-05
1.3736e-05
1.41219e-05
1.44745e-05
1.47922e-05
1.50734e-05
1.5317e-05
1.55216e-05
1.56865e-05
1.58109e-05
1.58941e-05
1.59359e-05
1.5936e-05
1.58944e-05
1.58114e-05
1.56873e-05
1.55227e-05
1.53182e-05
1.50749e-05
1.47939e-05
1.44764e-05
1.41239e-05
1.37382e-05
1.33211e-05
1.28746e-05
1.24009e-05
1.1902e-05
1.13801e-05
1.08374e-05
1.0276e-05
9.69781e-06
9.10499e-06
8.49973e-06
7.8843e-06
7.26106e-06
6.63236e-06
6.0004e-06
5.36709e-06
4.73378e-06
4.10102e-06
3.46829e-06
2.83378e-06
2.19415e-06
1.54418e-06
8.76511e-07
1.55263e-09
5.81931e-12
6.79311e-12
1.81278e-09
1.01886e-06
1.78771e-06
2.53216e-06
3.26172e-06
3.98293e-06
4.69999e-06
5.41519e-06
6.12925e-06
6.84169e-06
7.55111e-06
8.25552e-06
8.95263e-06
9.64003e-06
1.03153e-05
1.09761e-05
1.16202e-05
1.22454e-05
1.28494e-05
1.34302e-05
1.39852e-05
1.4512e-05
1.50082e-05
1.54714e-05
1.58995e-05
1.62906e-05
1.66427e-05
1.69543e-05
1.7224e-05
1.74505e-05
1.7633e-05
1.77706e-05
1.78627e-05
1.79089e-05
1.7909e-05
1.7863e-05
1.77711e-05
1.76337e-05
1.74515e-05
1.72251e-05
1.69556e-05
1.66442e-05
1.62922e-05
1.59014e-05
1.54734e-05
1.50103e-05
1.45142e-05
1.39875e-05
1.34327e-05
1.2852e-05
1.2248e-05
1.16229e-05
1.09789e-05
1.03181e-05
9.64281e-06
8.95539e-06
8.25823e-06
7.55375e-06
6.84424e-06
6.13168e-06
5.41746e-06
4.70207e-06
3.98479e-06
3.26333e-06
2.53349e-06
1.78871e-06
1.01947e-06
1.814e-09
6.79787e-12
7.5726e-12
2.02108e-09
1.13194e-06
1.97986e-06
2.79754e-06
3.59634e-06
4.38397e-06
5.16538e-06
5.94326e-06
6.71853e-06
7.49077e-06
8.25858e-06
9.01997e-06
9.77259e-06
1.0514e-05
1.12418e-05
1.19535e-05
1.2647e-05
1.33198e-05
1.39698e-05
1.45944e-05
1.51912e-05
1.57573e-05
1.62903e-05
1.67877e-05
1.72472e-05
1.76667e-05
1.80443e-05
1.83784e-05
1.86675e-05
1.89103e-05
1.91058e-05
1.92532e-05
1.93518e-05
1.94013e-05
1.94014e-05
1.93521e-05
1.92536e-05
1.91064e-05
1.89111e-05
1.86685e-05
1.83796e-05
1.80456e-05
1.76682e-05
1.72488e-05
1.67895e-05
1.62922e-05
1.57594e-05
1.51933e-05
1.45967e-05
1.39721e-05
1.33222e-05
1.26494e-05
1.1956e-05
1.12443e-05
1.05165e-05
9.77509e-06
9.02243e-06
8.26099e-06
7.49309e-06
6.72074e-06
5.94533e-06
5.16729e-06
4.38568e-06
3.59781e-06
2.79876e-06
1.98077e-06
1.1325e-06
2.02222e-09
7.57706e-12
8.14779e-12
2.17487e-09
1.21496e-06
2.12027e-06
2.9908e-06
3.83938e-06
4.67466e-06
5.50212e-06
6.32477e-06
7.1437e-06
7.95856e-06
8.76796e-06
9.56989e-06
1.0362e-05
1.11419e-05
1.1907e-05
1.26549e-05
1.33835e-05
1.40903e-05
1.47728e-05
1.54287e-05
1.6055e-05
1.66491e-05
1.72081e-05
1.77297e-05
1.82114e-05
1.8651e-05
1.90467e-05
1.93967e-05
1.96995e-05
1.99538e-05
2.01585e-05
2.03128e-05
2.04161e-05
2.04679e-05
2.0468e-05
2.04164e-05
2.03133e-05
2.01591e-05
1.99545e-05
1.97004e-05
1.93978e-05
1.90479e-05
1.86524e-05
1.82129e-05
1.77313e-05
1.72099e-05
1.66509e-05
1.6057e-05
1.54307e-05
1.4775e-05
1.40925e-05
1.33857e-05
1.26572e-05
1.19093e-05
1.11442e-05
1.03643e-05
9.57217e-06
8.77019e-06
7.96072e-06
7.14576e-06
6.32669e-06
5.50389e-06
4.67625e-06
3.84076e-06
2.99193e-06
2.12112e-06
1.21549e-06
2.17594e-09
8.15202e-12
8.54321e-12
2.28064e-09
1.27186e-06
2.21618e-06
3.12253e-06
4.00479e-06
4.87225e-06
5.73079e-06
6.58366e-06
7.43205e-06
8.27566e-06
9.11311e-06
9.94239e-06
1.07612e-05
1.15669e-05
1.23573e-05
1.31297e-05
1.3882e-05
1.46117e-05
1.53163e-05
1.59933e-05
1.66396e-05
1.72525e-05
1.78292e-05
1.8367e-05
1.88637e-05
1.9317e-05
1.97248e-05
2.00856e-05
2.03976e-05
2.06597e-05
2.08707e-05
2.10297e-05
2.11361e-05
2.11894e-05
2.11895e-05
2.11363e-05
2.10301e-05
2.08712e-05
2.06604e-05
2.03985e-05
2.00866e-05
1.9726e-05
1.93183e-05
1.88651e-05
1.83686e-05
1.78308e-05
1.72543e-05
1.66415e-05
1.59952e-05
1.53184e-05
1.46138e-05
1.38842e-05
1.31319e-05
1.23595e-05
1.15692e-05
1.07634e-05
9.94457e-06
9.11524e-06
8.27772e-06
7.43402e-06
6.5855e-06
5.73249e-06
4.87377e-06
4.0061e-06
3.12361e-06
2.217e-06
1.27236e-06
2.28168e-09
8.54729e-12
8.79772e-12
2.34877e-09
1.30841e-06
2.27769e-06
3.20691e-06
4.11065e-06
4.99865e-06
5.87704e-06
6.7492e-06
7.61642e-06
8.4784e-06
9.3338e-06
1.01806e-05
1.10164e-05
1.18389e-05
1.26454e-05
1.34336e-05
1.42011e-05
1.49455e-05
1.56643e-05
1.63548e-05
1.7014e-05
1.7639e-05
1.8227e-05
1.87754e-05
1.92817e-05
1.97437e-05
2.01594e-05
2.05271e-05
2.08451e-05
2.11122e-05
2.13272e-05
2.14892e-05
2.15976e-05
2.1652e-05
2.16521e-05
2.15979e-05
2.14896e-05
2.13277e-05
2.11129e-05
2.0846e-05
2.05281e-05
2.01606e-05
1.9745e-05
1.92831e-05
1.87769e-05
1.82287e-05
1.76408e-05
1.70158e-05
1.63567e-05
1.56663e-05
1.49476e-05
1.42032e-05
1.34357e-05
1.26475e-05
1.1841e-05
1.10186e-05
1.01827e-05
9.33589e-06
8.48042e-06
7.61834e-06
6.75101e-06
5.8787e-06
5.00014e-06
4.11194e-06
3.20797e-06
2.27849e-06
1.3089e-06
2.34979e-09
8.80174e-12
8.9518e-12
2.39003e-09
1.33053e-06
2.31487e-06
3.25788e-06
4.17459e-06
5.075e-06
5.96538e-06
6.84923e-06
7.72785e-06
8.60099e-06
9.46729e-06
1.03247e-05
1.1171e-05
1.20035e-05
1.28199e-05
1.36177e-05
1.43945e-05
1.5148e-05
1.58755e-05
1.65742e-05
1.72413e-05
1.78737e-05
1.84687e-05
1.90235e-05
1.95358e-05
2.00031e-05
2.04237e-05
2.07956e-05
2.11173e-05
2.13874e-05
2.16049e-05
2.17688e-05
2.18784e-05
2.19334e-05
2.19335e-05
2.18787e-05
2.17692e-05
2.16054e-05
2.13881e-05
2.11181e-05
2.07966e-05
2.04248e-05
2.00044e-05
1.95372e-05
1.90251e-05
1.84704e-05
1.78755e-05
1.72432e-05
1.65762e-05
1.58775e-05
1.51501e-05
1.43966e-05
1.36198e-05
1.28221e-05
1.20057e-05
1.11731e-05
1.03269e-05
9.46937e-06
8.60301e-06
7.72977e-06
6.85103e-06
5.96704e-06
5.07648e-06
4.17588e-06
3.25894e-06
2.31566e-06
1.33102e-06
2.39105e-09
8.95581e-12
9.03988e-12
2.41364e-09
1.34317e-06
2.33612e-06
3.28702e-06
4.21115e-06
5.11866e-06
6.01593e-06
6.90649e-06
7.79168e-06
8.67124e-06
9.54384e-06
1.04074e-05
1.12597e-05
1.20981e-05
1.29202e-05
1.37236e-05
1.45059e-05
1.52646e-05
1.59971e-05
1.67007e-05
1.73724e-05
1.80091e-05
1.86082e-05
1.91667e-05
1.96824e-05
2.01529e-05
2.05763e-05
2.09507e-05
2.12745e-05
2.15465e-05
2.17654e-05
2.19304e-05
2.20407e-05
2.20961e-05
2.20962e-05
2.2041e-05
2.19308e-05
2.17659e-05
2.15472e-05
2.12754e-05
2.09517e-05
2.05775e-05
2.01542e-05
1.96838e-05
1.91683e-05
1.86098e-05
1.80109e-05
1.73742e-05
1.67027e-05
1.59991e-05
1.52666e-05
1.4508e-05
1.37258e-05
1.29224e-05
1.21003e-05
1.12619e-05
1.04096e-05
9.54594e-06
8.67327e-06
7.79361e-06
6.9083e-06
6.0176e-06
5.12015e-06
4.21244e-06
3.28808e-06
2.33692e-06
1.34367e-06
2.41466e-09
9.04391e-12
9.0876e-12
2.42643e-09
1.35003e-06
2.34764e-06
3.30282e-06
4.23098e-06
5.14236e-06
6.04339e-06
6.93761e-06
7.8264e-06
8.70949e-06
9.58555e-06
1.04525e-05
1.13081e-05
1.21498e-05
1.29751e-05
1.37815e-05
1.45668e-05
1.53284e-05
1.60637e-05
1.677e-05
1.74442e-05
1.80834e-05
1.86847e-05
1.92454e-05
1.9763e-05
2.02353e-05
2.06602e-05
2.1036e-05
2.1361e-05
2.16339e-05
2.18536e-05
2.20192e-05
2.213e-05
2.21856e-05
2.21857e-05
2.21303e-05
2.20196e-05
2.18542e-05
2.16346e-05
2.13618e-05
2.1037e-05
2.06613e-05
2.02366e-05
1.97644e-05
1.92469e-05
1.86864e-05
1.80852e-05
1.74461e-05
1.6772e-05
1.60658e-05
1.53305e-05
1.45689e-05
1.37837e-05
1.29773e-05
1.2152e-05
1.13103e-05
1.04547e-05
9.58766e-06
8.71154e-06
7.82835e-06
6.93944e-06
6.04507e-06
5.14387e-06
4.23228e-06
3.30389e-06
2.34844e-06
1.35053e-06
2.42746e-09
9.09166e-12
9.11217e-12
2.43303e-09
1.35356e-06
2.35358e-06
3.31097e-06
4.24122e-06
5.1546e-06
6.05758e-06
6.95372e-06
7.84438e-06
8.72932e-06
9.60718e-06
1.0476e-05
1.13333e-05
1.21766e-05
1.30036e-05
1.38117e-05
1.45985e-05
1.53617e-05
1.60985e-05
1.68062e-05
1.74818e-05
1.81222e-05
1.87247e-05
1.92865e-05
1.98051e-05
2.02784e-05
2.07041e-05
2.10806e-05
2.14063e-05
2.16798e-05
2.18999e-05
2.20658e-05
2.21769e-05
2.22325e-05
2.22326e-05
2.21771e-05
2.20662e-05
2.19005e-05
2.16805e-05
2.14072e-05
2.10816e-05
2.07053e-05
2.02797e-05
1.98066e-05
1.92881e-05
1.87264e-05
1.8124e-05
1.74837e-05
1.68082e-05
1.61006e-05
1.53638e-05
1.46007e-05
1.38139e-05
1.30058e-05
1.21789e-05
1.13355e-05
1.04781e-05
9.60932e-06
8.73138e-06
7.84634e-06
6.95556e-06
6.05927e-06
5.15612e-06
4.24253e-06
3.31204e-06
2.35439e-06
1.35406e-06
2.43407e-09
9.11626e-12
9.12423e-12
2.43626e-09
1.3553e-06
2.3565e-06
3.31497e-06
4.24625e-06
5.16063e-06
6.06458e-06
6.96166e-06
7.85326e-06
8.73912e-06
9.61789e-06
1.04876e-05
1.13457e-05
1.219e-05
1.30178e-05
1.38267e-05
1.46143e-05
1.53782e-05
1.61158e-05
1.68243e-05
1.75005e-05
1.81416e-05
1.87447e-05
1.93071e-05
1.98262e-05
2.02999e-05
2.07261e-05
2.1103e-05
2.1429e-05
2.17027e-05
2.19231e-05
2.20892e-05
2.22003e-05
2.2256e-05
2.22561e-05
2.22005e-05
2.20896e-05
2.19236e-05
2.17034e-05
2.14298e-05
2.1104e-05
2.07273e-05
2.03012e-05
1.98277e-05
1.93086e-05
1.87464e-05
1.81434e-05
1.75024e-05
1.68263e-05
1.61179e-05
1.53804e-05
1.46165e-05
1.38289e-05
1.302e-05
1.21922e-05
1.1348e-05
1.04898e-05
9.62004e-06
8.74119e-06
7.85524e-06
6.96351e-06
6.06628e-06
5.16216e-06
4.24757e-06
3.31606e-06
2.35731e-06
1.3558e-06
2.43731e-09
9.12834e-12
9.12988e-12
2.43778e-09
1.35611e-06
2.35787e-06
3.31686e-06
4.24862e-06
5.16347e-06
6.06788e-06
6.96541e-06
7.85746e-06
8.74376e-06
9.62296e-06
1.0493e-05
1.13517e-05
1.21963e-05
1.30245e-05
1.38338e-05
1.46218e-05
1.53861e-05
1.61241e-05
1.68329e-05
1.75095e-05
1.81509e-05
1.87542e-05
1.93169e-05
1.98363e-05
2.03102e-05
2.07366e-05
2.11137e-05
2.14398e-05
2.17137e-05
2.19342e-05
2.21003e-05
2.22115e-05
2.22673e-05
2.22673e-05
2.22118e-05
2.21007e-05
2.19347e-05
2.17144e-05
2.14407e-05
2.11147e-05
2.07378e-05
2.03115e-05
1.98377e-05
1.93185e-05
1.87559e-05
1.81527e-05
1.75114e-05
1.68349e-05
1.61262e-05
1.53883e-05
1.4624e-05
1.3836e-05
1.30267e-05
1.21986e-05
1.13539e-05
1.04953e-05
9.62511e-06
8.74583e-06
7.85944e-06
6.96727e-06
6.06958e-06
5.165e-06
4.24995e-06
3.31795e-06
2.35869e-06
1.35662e-06
2.43883e-09
9.134e-12
9.13242e-12
2.43847e-09
1.35648e-06
2.35848e-06
3.31771e-06
4.24969e-06
5.16475e-06
6.06936e-06
6.96711e-06
7.85935e-06
8.74585e-06
9.62526e-06
1.04955e-05
1.13543e-05
1.21992e-05
1.30276e-05
1.3837e-05
1.46252e-05
1.53897e-05
1.61279e-05
1.68368e-05
1.75135e-05
1.81551e-05
1.87586e-05
1.93214e-05
1.98409e-05
2.03149e-05
2.07414e-05
2.11186e-05
2.14448e-05
2.17187e-05
2.19392e-05
2.21055e-05
2.22167e-05
2.22724e-05
2.22725e-05
2.22169e-05
2.21059e-05
2.19398e-05
2.17195e-05
2.14457e-05
2.11196e-05
2.07426e-05
2.03162e-05
1.98424e-05
1.9323e-05
1.87603e-05
1.81569e-05
1.75155e-05
1.68388e-05
1.61299e-05
1.53919e-05
1.46274e-05
1.38393e-05
1.30298e-05
1.22014e-05
1.13566e-05
1.04977e-05
9.62741e-06
8.74794e-06
7.86134e-06
6.96897e-06
6.07107e-06
5.16628e-06
4.25102e-06
3.3188e-06
2.3593e-06
1.35699e-06
2.43951e-09
9.13655e-12
9.13351e-12
2.43876e-09
1.35664e-06
2.35875e-06
3.31807e-06
4.25015e-06
5.16531e-06
6.07001e-06
6.96784e-06
7.86018e-06
8.74677e-06
9.62625e-06
1.04966e-05
1.13555e-05
1.22004e-05
1.30289e-05
1.38385e-05
1.46267e-05
1.53913e-05
1.61295e-05
1.68385e-05
1.75153e-05
1.8157e-05
1.87605e-05
1.93233e-05
1.98429e-05
2.0317e-05
2.07435e-05
2.11207e-05
2.1447e-05
2.17209e-05
2.19415e-05
2.21077e-05
2.22189e-05
2.22747e-05
2.22748e-05
2.22192e-05
2.21081e-05
2.19421e-05
2.17217e-05
2.14479e-05
2.11218e-05
2.07447e-05
2.03183e-05
1.98444e-05
1.93249e-05
1.87622e-05
1.81588e-05
1.75172e-05
1.68405e-05
1.61316e-05
1.53934e-05
1.46289e-05
1.38407e-05
1.30311e-05
1.22027e-05
1.13578e-05
1.04988e-05
9.62841e-06
8.74885e-06
7.86216e-06
6.9697e-06
6.07172e-06
5.16684e-06
4.25148e-06
3.31916e-06
2.35957e-06
1.35715e-06
2.43981e-09
9.13764e-12
9.13397e-12
2.43888e-09
1.3567e-06
2.35886e-06
3.31822e-06
4.25034e-06
5.16554e-06
6.07028e-06
6.96815e-06
7.86052e-06
8.74715e-06
9.62667e-06
1.04971e-05
1.1356e-05
1.2201e-05
1.30295e-05
1.38391e-05
1.46274e-05
1.5392e-05
1.61302e-05
1.68392e-05
1.75161e-05
1.81577e-05
1.87613e-05
1.93242e-05
1.98438e-05
2.03179e-05
2.07444e-05
2.11216e-05
2.14479e-05
2.17219e-05
2.19424e-05
2.21087e-05
2.22199e-05
2.22757e-05
2.22757e-05
2.22201e-05
2.21091e-05
2.1943e-05
2.17226e-05
2.14488e-05
2.11227e-05
2.07456e-05
2.03192e-05
1.98452e-05
1.93258e-05
1.8763e-05
1.81596e-05
1.7518e-05
1.68412e-05
1.61323e-05
1.53941e-05
1.46296e-05
1.38413e-05
1.30317e-05
1.22032e-05
1.13583e-05
1.04993e-05
9.62883e-06
8.74923e-06
7.86251e-06
6.97001e-06
6.07199e-06
5.16707e-06
4.25167e-06
3.31932e-06
2.35968e-06
1.35721e-06
2.43993e-09
9.1381e-12
9.13415e-12
2.43893e-09
1.35673e-06
2.3589e-06
3.31828e-06
4.25042e-06
5.16563e-06
6.07038e-06
6.96827e-06
7.86066e-06
8.7473e-06
9.62684e-06
1.04973e-05
1.13562e-05
1.22012e-05
1.30297e-05
1.38393e-05
1.46276e-05
1.53922e-05
1.61305e-05
1.68395e-05
1.75164e-05
1.81581e-05
1.87617e-05
1.93245e-05
1.98441e-05
2.03182e-05
2.07448e-05
2.1122e-05
2.14483e-05
2.17223e-05
2.19428e-05
2.21091e-05
2.22203e-05
2.2276e-05
2.22761e-05
2.22205e-05
2.21095e-05
2.19434e-05
2.1723e-05
2.14492e-05
2.1123e-05
2.0746e-05
2.03196e-05
1.98456e-05
1.93261e-05
1.87634e-05
1.81599e-05
1.75183e-05
1.68415e-05
1.61326e-05
1.53944e-05
1.46298e-05
1.38415e-05
1.30319e-05
1.22034e-05
1.13584e-05
1.04995e-05
9.629e-06
8.74939e-06
7.86265e-06
6.97013e-06
6.0721e-06
5.16716e-06
4.25175e-06
3.31938e-06
2.35973e-06
1.35724e-06
2.43998e-09
9.13828e-12
9.13422e-12
2.43895e-09
1.35674e-06
2.35892e-06
3.31831e-06
4.25045e-06
5.16566e-06
6.07043e-06
6.96832e-06
7.86071e-06
8.74736e-06
9.62691e-06
1.04973e-05
1.13563e-05
1.22013e-05
1.30298e-05
1.38394e-05
1.46277e-05
1.53923e-05
1.61306e-05
1.68396e-05
1.75165e-05
1.81582e-05
1.87618e-05
1.93246e-05
1.98443e-05
2.03184e-05
2.07449e-05
2.11221e-05
2.14484e-05
2.17224e-05
2.1943e-05
2.21092e-05
2.22204e-05
2.22762e-05
2.22763e-05
2.22207e-05
2.21096e-05
2.19435e-05
2.17231e-05
2.14493e-05
2.11232e-05
2.07461e-05
2.03197e-05
1.98457e-05
1.93262e-05
1.87635e-05
1.816e-05
1.75184e-05
1.68417e-05
1.61327e-05
1.53945e-05
1.46299e-05
1.38416e-05
1.3032e-05
1.22035e-05
1.13585e-05
1.04995e-05
9.62907e-06
8.74944e-06
7.8627e-06
6.97018e-06
6.07214e-06
5.1672e-06
4.25178e-06
3.3194e-06
2.35974e-06
1.35725e-06
2.44e-09
9.13835e-12
9.13424e-12
2.43896e-09
1.35674e-06
2.35893e-06
3.31832e-06
4.25046e-06
5.16568e-06
6.07044e-06
6.96834e-06
7.86073e-06
8.74738e-06
9.62693e-06
1.04974e-05
1.13563e-05
1.22013e-05
1.30298e-05
1.38394e-05
1.46278e-05
1.53924e-05
1.61306e-05
1.68397e-05
1.75166e-05
1.81582e-05
1.87618e-05
1.93247e-05
1.98443e-05
2.03184e-05
2.0745e-05
2.11222e-05
2.14485e-05
2.17225e-05
2.1943e-05
2.21093e-05
2.22205e-05
2.22763e-05
2.22763e-05
2.22207e-05
2.21097e-05
2.19436e-05
2.17232e-05
2.14494e-05
2.11232e-05
2.07462e-05
2.03197e-05
1.98458e-05
1.93263e-05
1.87636e-05
1.81601e-05
1.75185e-05
1.68417e-05
1.61327e-05
1.53945e-05
1.463e-05
1.38417e-05
1.30321e-05
1.22035e-05
1.13586e-05
1.04996e-05
9.62909e-06
8.74947e-06
7.86272e-06
6.9702e-06
6.07216e-06
5.16721e-06
4.25179e-06
3.31941e-06
2.35975e-06
1.35725e-06
2.44001e-09
9.13838e-12
9.13425e-12
2.43896e-09
1.35674e-06
2.35893e-06
3.31832e-06
4.25046e-06
5.16568e-06
6.07045e-06
6.96834e-06
7.86074e-06
8.74739e-06
9.62694e-06
1.04974e-05
1.13563e-05
1.22013e-05
1.30298e-05
1.38394e-05
1.46278e-05
1.53924e-05
1.61306e-05
1.68397e-05
1.75166e-05
1.81582e-05
1.87619e-05
1.93247e-05
1.98443e-05
2.03184e-05
2.0745e-05
2.11222e-05
2.14485e-05
2.17225e-05
2.19431e-05
2.21093e-05
2.22205e-05
2.22763e-05
2.22764e-05
2.22208e-05
2.21097e-05
2.19436e-05
2.17232e-05
2.14494e-05
2.11233e-05
2.07462e-05
2.03198e-05
1.98458e-05
1.93263e-05
1.87636e-05
1.81601e-05
1.75185e-05
1.68417e-05
1.61327e-05
1.53945e-05
1.463e-05
1.38417e-05
1.30321e-05
1.22036e-05
1.13586e-05
1.04996e-05
9.6291e-06
8.74948e-06
7.86273e-06
6.97021e-06
6.07216e-06
5.16722e-06
4.25179e-06
3.31941e-06
2.35975e-06
1.35725e-06
2.44001e-09
9.13839e-12
9.13425e-12
2.43896e-09
1.35674e-06
2.35893e-06
3.31832e-06
4.25047e-06
5.16568e-06
6.07045e-06
6.96834e-06
7.86074e-06
8.74739e-06
9.62694e-06
1.04974e-05
1.13563e-05
1.22013e-05
1.30298e-05
1.38394e-05
1.46278e-05
1.53924e-05
1.61307e-05
1.68397e-05
1.75166e-05
1.81583e-05
1.87619e-05
1.93247e-05
1.98443e-05
2.03184e-05
2.0745e-05
2.11222e-05
2.14485e-05
2.17225e-05
2.19431e-05
2.21093e-05
2.22205e-05
2.22763e-05
2.22764e-05
2.22208e-05
2.21097e-05
2.19436e-05
2.17232e-05
2.14494e-05
2.11233e-05
2.07462e-05
2.03198e-05
1.98458e-05
1.93263e-05
1.87636e-05
1.81601e-05
1.75185e-05
1.68417e-05
1.61327e-05
1.53945e-05
1.463e-05
1.38417e-05
1.30321e-05
1.22036e-05
1.13586e-05
1.04996e-05
9.6291e-06
8.74948e-06
7.86273e-06
6.97021e-06
6.07216e-06
5.16722e-06
4.2518e-06
3.31941e-06
2.35975e-06
1.35725e-06
2.44001e-09
9.13839e-12
9.13426e-12
2.43896e-09
1.35674e-06
2.35893e-06
3.31832e-06
4.25047e-06
5.16568e-06
6.07045e-06
6.96835e-06
7.86074e-06
8.74739e-06
9.62694e-06
1.04974e-05
1.13563e-05
1.22013e-05
1.30298e-05
1.38394e-05
1.46278e-05
1.53924e-05
1.61307e-05
1.68397e-05
1.75166e-05
1.81583e-05
1.87619e-05
1.93247e-05
1.98443e-05
2.03184e-05
2.0745e-05
2.11222e-05
2.14485e-05
2.17225e-05
2.19431e-05
2.21093e-05
2.22205e-05
2.22763e-05
2.22764e-05
2.22208e-05
2.21097e-05
2.19436e-05
2.17232e-05
2.14494e-05
2.11233e-05
2.07462e-05
2.03198e-05
1.98458e-05
1.93263e-05
1.87636e-05
1.81601e-05
1.75185e-05
1.68417e-05
1.61327e-05
1.53945e-05
1.463e-05
1.38417e-05
1.30321e-05
1.22036e-05
1.13586e-05
1.04996e-05
9.6291e-06
8.74948e-06
7.86273e-06
6.97021e-06
6.07216e-06
5.16722e-06
4.2518e-06
3.31941e-06
2.35975e-06
1.35725e-06
2.44001e-09
9.13839e-12
9.13426e-12
2.43896e-09
1.35674e-06
2.35893e-06
3.31832e-06
4.25047e-06
5.16568e-06
6.07045e-06
6.96835e-06
7.86074e-06
8.74739e-06
9.62694e-06
1.04974e-05
1.13563e-05
1.22013e-05
1.30298e-05
1.38394e-05
1.46278e-05
1.53924e-05
1.61307e-05
1.68397e-05
1.75166e-05
1.81583e-05
1.87619e-05
1.93247e-05
1.98443e-05
2.03184e-05
2.0745e-05
2.11222e-05
2.14485e-05
2.17225e-05
2.19431e-05
2.21093e-05
2.22205e-05
2.22763e-05
2.22764e-05
2.22208e-05
2.21097e-05
2.19436e-05
2.17232e-05
2.14494e-05
2.11233e-05
2.07462e-05
2.03198e-05
1.98458e-05
1.93263e-05
1.87636e-05
1.81601e-05
1.75185e-05
1.68417e-05
1.61327e-05
1.53945e-05
1.463e-05
1.38417e-05
1.30321e-05
1.22036e-05
1.13586e-05
1.04996e-05
9.6291e-06
8.74948e-06
7.86273e-06
6.97021e-06
6.07216e-06
5.16722e-06
4.2518e-06
3.31941e-06
2.35975e-06
1.35725e-06
2.44001e-09
9.13839e-12
9.13426e-12
2.43896e-09
1.35674e-06
2.35893e-06
3.31832e-06
4.25047e-06
5.16568e-06
6.07045e-06
6.96835e-06
7.86074e-06
8.74739e-06
9.62694e-06
1.04974e-05
1.13563e-05
1.22013e-05
1.30298e-05
1.38394e-05
1.46278e-05
1.53924e-05
1.61307e-05
1.68397e-05
1.75166e-05
1.81583e-05
1.87619e-05
1.93247e-05
1.98443e-05
2.03184e-05
2.0745e-05
2.11222e-05
2.14485e-05
2.17225e-05
2.19431e-05
2.21093e-05
2.22205e-05
2.22763e-05
2.22764e-05
2.22208e-05
2.21097e-05
2.19436e-05
2.17232e-05
2.14494e-05
2.11233e-05
2.07462e-05
2.03198e-05
1.98458e-05
1.93263e-05
1.87636e-05
1.81601e-05
1.75185e-05
1.68417e-05
1.61327e-05
1.53945e-05
1.463e-05
1.38417e-05
1.30321e-05
1.22036e-05
1.13586e-05
1.04996e-05
9.6291e-06
8.74948e-06
7.86273e-06
6.97021e-06
6.07216e-06
5.16722e-06
4.2518e-06
3.31941e-06
2.35975e-06
1.35725e-06
2.44001e-09
9.13839e-12
9.13426e-12
2.43896e-09
1.35674e-06
2.35893e-06
3.31832e-06
4.25047e-06
5.16568e-06
6.07045e-06
6.96835e-06
7.86074e-06
8.74739e-06
9.62694e-06
1.04974e-05
1.13563e-05
1.22013e-05
1.30298e-05
1.38394e-05
1.46278e-05
1.53924e-05
1.61307e-05
1.68397e-05
1.75166e-05
1.81583e-05
1.87619e-05
1.93247e-05
1.98443e-05
2.03184e-05
2.0745e-05
2.11222e-05
2.14485e-05
2.17225e-05
2.19431e-05
2.21093e-05
2.22205e-05
2.22763e-05
2.22764e-05
2.22208e-05
2.21097e-05
2.19436e-05
2.17232e-05
2.14494e-05
2.11233e-05
2.07462e-05
2.03198e-05
1.98458e-05
1.93263e-05
1.87636e-05
1.81601e-05
1.75185e-05
1.68417e-05
1.61327e-05
1.53945e-05
1.463e-05
1.38417e-05
1.30321e-05
1.22036e-05
1.13586e-05
1.04996e-05
9.6291e-06
8.74948e-06
7.86273e-06
6.97021e-06
6.07216e-06
5.16722e-06
4.2518e-06
3.31941e-06
2.35975e-06
1.35725e-06
2.44001e-09
9.13839e-12
9.13426e-12
2.43896e-09
1.35674e-06
2.35893e-06
3.31832e-06
4.25047e-06
5.16568e-06
6.07045e-06
6.96835e-06
7.86074e-06
8.74739e-06
9.62694e-06
1.04974e-05
1.13563e-05
1.22013e-05
1.30298e-05
1.38394e-05
1.46278e-05
1.53924e-05
1.61307e-05
1.68397e-05
1.75166e-05
1.81583e-05
1.87619e-05
1.93247e-05
1.98443e-05
2.03184e-05
2.0745e-05
2.11222e-05
2.14485e-05
2.17225e-05
2.19431e-05
2.21093e-05
2.22205e-05
2.22763e-05
2.22764e-05
2.22208e-05
2.21097e-05
2.19436e-05
2.17232e-05
2.14494e-05
2.11233e-05
2.07462e-05
2.03198e-05
1.98458e-05
1.93263e-05
1.87636e-05
1.81601e-05
1.75185e-05
1.68417e-05
1.61327e-05
1.53945e-05
1.463e-05
1.38417e-05
1.30321e-05
1.22036e-05
1.13586e-05
1.04996e-05
9.6291e-06
8.74948e-06
7.86273e-06
6.97021e-06
6.07216e-06
5.16722e-06
4.2518e-06
3.31941e-06
2.35975e-06
1.35725e-06
2.44001e-09
9.13839e-12
9.13426e-12
2.43896e-09
1.35674e-06
2.35893e-06
3.31832e-06
4.25047e-06
5.16568e-06
6.07045e-06
6.96835e-06
7.86074e-06
8.74739e-06
9.62694e-06
1.04974e-05
1.13563e-05
1.22013e-05
1.30298e-05
1.38394e-05
1.46278e-05
1.53924e-05
1.61307e-05
1.68397e-05
1.75166e-05
1.81583e-05
1.87619e-05
1.93247e-05
1.98443e-05
2.03184e-05
2.0745e-05
2.11222e-05
2.14485e-05
2.17225e-05
2.19431e-05
2.21093e-05
2.22205e-05
2.22763e-05
2.22764e-05
2.22208e-05
2.21097e-05
2.19436e-05
2.17232e-05
2.14494e-05
2.11233e-05
2.07462e-05
2.03198e-05
1.98458e-05
1.93263e-05
1.87636e-05
1.81601e-05
1.75185e-05
1.68417e-05
1.61327e-05
1.53945e-05
1.463e-05
1.38417e-05
1.30321e-05
1.22036e-05
1.13586e-05
1.04996e-05
9.6291e-06
8.74948e-06
7.86273e-06
6.97021e-06
6.07216e-06
5.16722e-06
4.2518e-06
3.31941e-06
2.35975e-06
1.35725e-06
2.44001e-09
9.13839e-12
9.13426e-12
2.43896e-09
1.35674e-06
2.35893e-06
3.31832e-06
4.25047e-06
5.16568e-06
6.07045e-06
6.96835e-06
7.86074e-06
8.74739e-06
9.62694e-06
1.04974e-05
1.13563e-05
1.22013e-05
1.30298e-05
1.38394e-05
1.46278e-05
1.53924e-05
1.61307e-05
1.68397e-05
1.75166e-05
1.81583e-05
1.87619e-05
1.93247e-05
1.98443e-05
2.03184e-05
2.0745e-05
2.11222e-05
2.14485e-05
2.17225e-05
2.19431e-05
2.21093e-05
2.22205e-05
2.22763e-05
2.22764e-05
2.22208e-05
2.21097e-05
2.19436e-05
2.17232e-05
2.14494e-05
2.11233e-05
2.07462e-05
2.03198e-05
1.98458e-05
1.93263e-05
1.87636e-05
1.81601e-05
1.75185e-05
1.68417e-05
1.61327e-05
1.53945e-05
1.463e-05
1.38417e-05
1.30321e-05
1.22036e-05
1.13586e-05
1.04996e-05
9.6291e-06
8.74948e-06
7.86273e-06
6.97021e-06
6.07216e-06
5.16722e-06
4.2518e-06
3.31941e-06
2.35975e-06
1.35725e-06
2.44001e-09
9.13839e-12
9.13426e-12
2.43896e-09
1.35674e-06
2.35893e-06
3.31832e-06
4.25047e-06
5.16568e-06
6.07045e-06
6.96835e-06
7.86074e-06
8.74739e-06
9.62694e-06
1.04974e-05
1.13563e-05
1.22013e-05
1.30298e-05
1.38394e-05
1.46278e-05
1.53924e-05
1.61307e-05
1.68397e-05
1.75166e-05
1.81583e-05
1.87619e-05
1.93247e-05
1.98443e-05
2.03184e-05
2.0745e-05
2.11222e-05
2.14485e-05
2.17225e-05
2.19431e-05
2.21093e-05
2.22205e-05
2.22763e-05
2.22764e-05
2.22208e-05
2.21097e-05
2.19436e-05
2.17232e-05
2.14494e-05
2.11233e-05
2.07462e-05
2.03198e-05
1.98458e-05
1.93263e-05
1.87636e-05
1.81601e-05
1.75185e-05
1.68417e-05
1.61327e-05
1.53945e-05
1.463e-05
1.38417e-05
1.30321e-05
1.22036e-05
1.13586e-05
1.04996e-05
9.6291e-06
8.74948e-06
7.86273e-06
6.97021e-06
6.07216e-06
5.16722e-06
4.2518e-06
3.31941e-06
2.35975e-06
1.35725e-06
2.44001e-09
9.13839e-12
9.13426e-12
2.43896e-09
1.35674e-06
2.35893e-06
3.31832e-06
4.25047e-06
5.16568e-06
6.07045e-06
6.96835e-06
7.86074e-06
8.74739e-06
9.62694e-06
1.04974e-05
1.13563e-05
1.22013e-05
1.30298e-05
1.38394e-05
1.46278e-05
1.53924e-05
1.61307e-05
1.68397e-05
1.75166e-05
1.81583e-05
1.87619e-05
1.93247e-05
1.98443e-05
2.03184e-05
2.0745e-05
2.11222e-05
2.14485e-05
2.17225e-05
2.19431e-05
2.21093e-05
2.22205e-05
2.22763e-05
2.22764e-05
2.22208e-05
2.21097e-05
2.19436e-05
2.17232e-05
2.14494e-05
2.11233e-05
2.07462e-05
2.03198e-05
1.98458e-05
1.93263e-05
1.87636e-05
1.81601e-05
1.75185e-05
1.68417e-05
1.61327e-05
1.53945e-05
1.463e-05
1.38417e-05
1.30321e-05
1.22036e-05
1.13586e-05
1.04996e-05
9.6291e-06
8.74948e-06
7.86273e-06
6.97021e-06
6.07216e-06
5.16722e-06
4.2518e-06
3.31941e-06
2.35975e-06
1.35725e-06
2.44001e-09
9.13839e-12
9.13426e-12
2.43896e-09
1.35674e-06
2.35893e-06
3.31832e-06
4.25047e-06
5.16568e-06
6.07045e-06
6.96835e-06
7.86074e-06
8.74739e-06
9.62694e-06
1.04974e-05