/*--------------------------------*- C++ -*----------------------------------*\
  =========                 |
  \\      /  F ield         | OpenFOAM: The Open Source CFD Toolbox
   \\    /   O peration     | Website:  https://openfoam.org
    \\  /    A nd           | Version:  13
     \\/     M anipulation  |
\*---------------------------------------------------------------------------*/
FoamFile
{
    format      ascii;
    class       volScalarField;
    location    "8";
    object      k;
}
// * * * * * * * * * * * * * * * * * * * * * * * * * * * * * * * * * * * * * //

dimensions      [0 2 -2 0 0 0 0];

internalField   nonuniform List<scalar> 
78750
(
4.21945e-10
1.19971e-08
5.43544e-08
9.84535e-08
1.44747e-07
1.93492e-07
2.44602e-07
2.97599e-07
3.51634e-07
4.05561e-07
4.58026e-07
5.07564e-07
5.52686e-07
5.91959e-07
6.24084e-07
6.47967e-07
6.62774e-07
6.67984e-07
6.63412e-07
6.49222e-07
6.25915e-07
5.94305e-07
5.55472e-07
5.10702e-07
4.61417e-07
4.09103e-07
3.55223e-07
3.0113e-07
2.47974e-07
1.96608e-07
1.47506e-07
1.00728e-07
5.5929e-08
1.24426e-08
4.39449e-10
9.25388e-09
2.67281e-07
1.31091e-06
2.35287e-06
3.41681e-06
4.51047e-06
5.63071e-06
6.76505e-06
7.89412e-06
8.99443e-06
1.00408e-05
1.10082e-05
1.18728e-05
1.2613e-05
1.32101e-05
1.3649e-05
1.39183e-05
1.40112e-05
1.39254e-05
1.36629e-05
1.32306e-05
1.26395e-05
1.19045e-05
1.10443e-05
1.00803e-05
9.03608e-06
7.93667e-06
6.80711e-06
5.67079e-06
4.547e-06
3.44816e-06
2.37731e-06
1.32635e-06
2.70815e-07
9.38018e-09
2.49489e-08
7.22795e-07
3.46621e-06
6.11053e-06
8.76761e-06
1.14632e-05
1.41827e-05
1.68864e-05
1.9524e-05
2.20443e-05
2.43996e-05
2.6546e-05
2.84428e-05
3.00525e-05
3.1342e-05
3.22843e-05
3.28594e-05
3.30553e-05
3.28677e-05
3.23008e-05
3.13664e-05
3.00842e-05
2.84812e-05
2.65902e-05
2.44485e-05
2.20968e-05
1.95787e-05
1.69417e-05
1.42366e-05
1.15135e-05
8.81169e-06
6.14565e-06
3.48901e-06
7.28224e-07
2.51416e-08
4.18807e-08
1.21665e-06
5.69659e-06
9.84618e-06
1.39236e-05
1.79844e-05
2.20142e-05
2.59651e-05
2.97792e-05
3.34e-05
3.6773e-05
3.98413e-05
4.25463e-05
4.48346e-05
4.66616e-05
4.79925e-05
4.88023e-05
4.90764e-05
4.88095e-05
4.80067e-05
4.66827e-05
4.48623e-05
4.25799e-05
3.98802e-05
3.68163e-05
3.34467e-05
2.98282e-05
2.6015e-05
2.20635e-05
1.8031e-05
1.39652e-05
9.88003e-06
5.71923e-06
1.22232e-06
4.20819e-08
5.39528e-08
1.57056e-06
7.23782e-06
1.23551e-05
1.73163e-05
2.22053e-05
2.7015e-05
3.1699e-05
3.61999e-05
4.04608e-05
4.44221e-05
4.80166e-05
5.11772e-05
5.38449e-05
5.59709e-05
5.75175e-05
5.84574e-05
5.87745e-05
5.84634e-05
5.75293e-05
5.59885e-05
5.38679e-05
5.12054e-05
4.80493e-05
4.44586e-05
4.05003e-05
3.62414e-05
3.17415e-05
2.70572e-05
2.22455e-05
1.73525e-05
1.23848e-05
7.25799e-06
1.57581e-06
5.41397e-08
6.02475e-08
1.75601e-06
8.02979e-06
1.36254e-05
1.90168e-05
2.43044e-05
2.94866e-05
3.45189e-05
3.93452e-05
4.39086e-05
4.81466e-05
5.19872e-05
5.53603e-05
5.82047e-05
6.04699e-05
6.21169e-05
6.31173e-05
6.34545e-05
6.31228e-05
6.21277e-05
6.0486e-05
5.82258e-05
5.53861e-05
5.20172e-05
4.81801e-05
4.39449e-05
3.93834e-05
3.4558e-05
2.95255e-05
2.43415e-05
1.90503e-05
1.3653e-05
8.04861e-06
1.76101e-06
6.04257e-08
6.28306e-08
1.83248e-06
8.35412e-06
1.41425e-05
1.97064e-05
2.51532e-05
3.04837e-05
3.56546e-05
4.06102e-05
4.52939e-05
4.96416e-05
5.35797e-05
5.70369e-05
5.99512e-05
6.22716e-05
6.39583e-05
6.49828e-05
6.5328e-05
6.49882e-05
6.3969e-05
6.22875e-05
5.99721e-05
5.70624e-05
5.36093e-05
4.96747e-05
4.53297e-05
4.0648e-05
3.56932e-05
3.05221e-05
2.51898e-05
1.97394e-05
1.41697e-05
8.3727e-06
1.83744e-06
6.30078e-08
6.37081e-08
1.85857e-06
8.4648e-06
1.43188e-05
1.99411e-05
2.5442e-05
3.08228e-05
3.60408e-05
4.10404e-05
4.57649e-05
5.01499e-05
5.41211e-05
5.76069e-05
6.0545e-05
6.28842e-05
6.45845e-05
6.56172e-05
6.59652e-05
6.56226e-05
6.45953e-05
6.29003e-05
6.05661e-05
5.76327e-05
5.41511e-05
5.01833e-05
4.58011e-05
4.10785e-05
3.60797e-05
3.08615e-05
2.54789e-05
1.99744e-05
1.43461e-05
8.48352e-06
1.86358e-06
6.38868e-08
6.39637e-08
1.86621e-06
8.49726e-06
1.43705e-05
2.001e-05
2.55267e-05
3.09225e-05
3.61542e-05
4.11668e-05
4.59034e-05
5.02994e-05
5.42804e-05
5.77747e-05
6.07198e-05
6.30646e-05
6.47689e-05
6.5804e-05
6.61528e-05
6.58095e-05
6.47798e-05
6.30808e-05
6.07411e-05
5.78007e-05
5.43106e-05
5.03331e-05
4.59399e-05
4.12052e-05
3.61935e-05
3.09614e-05
2.55639e-05
2.00435e-05
1.4398e-05
8.51611e-06
1.87125e-06
6.41436e-08
6.40289e-08
1.86817e-06
8.50562e-06
1.43838e-05
2.00278e-05
2.55486e-05
3.09482e-05
3.61836e-05
4.11995e-05
4.59392e-05
5.03381e-05
5.43217e-05
5.78181e-05
6.07651e-05
6.31114e-05
6.48167e-05
6.58525e-05
6.62015e-05
6.5858e-05
6.48277e-05
6.31277e-05
6.07865e-05
5.78442e-05
5.4352e-05
5.0372e-05
4.59759e-05
4.1238e-05
3.6223e-05
3.09873e-05
2.55859e-05
2.00614e-05
1.44115e-05
8.52453e-06
1.87322e-06
6.42094e-08
6.40438e-08
1.86861e-06
8.50754e-06
1.43869e-05
2.00319e-05
2.55537e-05
3.09541e-05
3.61903e-05
4.12071e-05
4.59475e-05
5.0347e-05
5.43312e-05
5.78282e-05
6.07756e-05
6.31222e-05
6.48278e-05
6.58637e-05
6.62128e-05
6.58693e-05
6.48388e-05
6.31385e-05
6.0797e-05
5.78543e-05
5.43616e-05
5.0381e-05
4.59842e-05
4.12456e-05
3.62298e-05
3.09933e-05
2.5591e-05
2.00655e-05
1.44146e-05
8.52648e-06
1.87368e-06
6.42245e-08
6.40469e-08
1.86871e-06
8.50794e-06
1.43875e-05
2.00327e-05
2.55547e-05
3.09554e-05
3.61917e-05
4.12086e-05
4.59492e-05
5.03489e-05
5.43332e-05
5.78303e-05
6.07778e-05
6.31244e-05
6.48301e-05
6.58661e-05
6.62152e-05
6.58716e-05
6.48411e-05
6.31408e-05
6.07992e-05
5.78564e-05
5.43636e-05
5.03828e-05
4.59859e-05
4.12472e-05
3.62312e-05
3.09946e-05
2.55921e-05
2.00664e-05
1.44152e-05
8.52688e-06
1.87377e-06
6.42276e-08
6.40475e-08
1.86872e-06
8.50801e-06
1.43876e-05
2.00329e-05
2.55549e-05
3.09556e-05
3.6192e-05
4.12089e-05
4.59495e-05
5.03492e-05
5.43336e-05
5.78307e-05
6.07782e-05
6.31249e-05
6.48305e-05
6.58665e-05
6.62156e-05
6.58721e-05
6.48415e-05
6.31412e-05
6.07997e-05
5.78568e-05
5.4364e-05
5.03832e-05
4.59863e-05
4.12475e-05
3.62315e-05
3.09948e-05
2.55923e-05
2.00666e-05
1.44153e-05
8.52696e-06
1.87379e-06
6.42282e-08
6.40476e-08
1.86873e-06
8.50802e-06
1.43876e-05
2.00329e-05
2.5555e-05
3.09556e-05
3.61921e-05
4.1209e-05
4.59496e-05
5.03493e-05
5.43337e-05
5.78308e-05
6.07783e-05
6.31249e-05
6.48306e-05
6.58666e-05
6.62157e-05
6.58721e-05
6.48416e-05
6.31413e-05
6.07997e-05
5.78569e-05
5.4364e-05
5.03833e-05
4.59863e-05
4.12476e-05
3.62316e-05
3.09948e-05
2.55923e-05
2.00666e-05
1.44154e-05
8.52697e-06
1.87379e-06
6.42283e-08
6.40476e-08
1.86873e-06
8.50803e-06
1.43876e-05
2.00329e-05
2.5555e-05
3.09556e-05
3.61921e-05
4.1209e-05
4.59496e-05
5.03493e-05
5.43337e-05
5.78308e-05
6.07783e-05
6.3125e-05
6.48306e-05
6.58666e-05
6.62157e-05
6.58721e-05
6.48416e-05
6.31413e-05
6.07997e-05
5.78569e-05
5.43641e-05
5.03833e-05
4.59863e-05
4.12476e-05
3.62316e-05
3.09948e-05
2.55923e-05
2.00666e-05
1.44154e-05
8.52697e-06
1.87379e-06
6.42283e-08
6.40476e-08
1.86873e-06
8.50803e-06
1.43876e-05
2.00329e-05
2.5555e-05
3.09556e-05
3.61921e-05
4.1209e-05
4.59496e-05
5.03493e-05
5.43337e-05
5.78308e-05
6.07783e-05
6.3125e-05
6.48306e-05
6.58666e-05
6.62157e-05
6.58722e-05
6.48416e-05
6.31413e-05
6.07997e-05
5.78569e-05
5.43641e-05
5.03833e-05
4.59863e-05
4.12476e-05
3.62316e-05
3.09948e-05
2.55923e-05
2.00666e-05
1.44154e-05
8.52698e-06
1.87379e-06
6.42283e-08
6.40476e-08
1.86873e-06
8.50803e-06
1.43876e-05
2.00329e-05
2.5555e-05
3.09556e-05
3.61921e-05
4.1209e-05
4.59496e-05
5.03493e-05
5.43337e-05
5.78308e-05
6.07783e-05
6.3125e-05
6.48306e-05
6.58666e-05
6.62157e-05
6.58722e-05
6.48416e-05
6.31413e-05
6.07997e-05
5.78569e-05
5.43641e-05
5.03833e-05
4.59863e-05
4.12476e-05
3.62316e-05
3.09948e-05
2.55923e-05
2.00666e-05
1.44154e-05
8.52698e-06
1.87379e-06
6.42283e-08
6.40476e-08
1.86873e-06
8.50803e-06
1.43876e-05
2.00329e-05
2.5555e-05
3.09556e-05
3.61921e-05
4.1209e-05
4.59496e-05
5.03493e-05
5.43337e-05
5.78308e-05
6.07783e-05
6.3125e-05
6.48306e-05
6.58666e-05
6.62157e-05
6.58722e-05
6.48416e-05
6.31413e-05
6.07997e-05
5.78569e-05
5.43641e-05
5.03833e-05
4.59863e-05
4.12476e-05
3.62316e-05
3.09948e-05
2.55923e-05
2.00666e-05
1.44154e-05
8.52698e-06
1.87379e-06
6.42283e-08
6.40476e-08
1.86873e-06
8.50803e-06
1.43876e-05
2.00329e-05
2.5555e-05
3.09556e-05
3.61921e-05
4.1209e-05
4.59496e-05
5.03493e-05
5.43337e-05
5.78308e-05
6.07783e-05
6.3125e-05
6.48306e-05
6.58666e-05
6.62157e-05
6.58722e-05
6.48416e-05
6.31413e-05
6.07997e-05
5.78569e-05
5.43641e-05
5.03833e-05
4.59863e-05
4.12476e-05
3.62316e-05
3.09948e-05
2.55923e-05
2.00666e-05
1.44154e-05
8.52698e-06
1.87379e-06
6.42283e-08
6.40476e-08
1.86873e-06
8.50803e-06
1.43876e-05
2.00329e-05
2.5555e-05
3.09556e-05
3.61921e-05
4.1209e-05
4.59496e-05
5.03493e-05
5.43337e-05
5.78308e-05
6.07783e-05
6.3125e-05
6.48306e-05
6.58666e-05
6.62157e-05
6.58722e-05
6.48416e-05
6.31413e-05
6.07997e-05
5.78569e-05
5.43641e-05
5.03833e-05
4.59863e-05
4.12476e-05
3.62316e-05
3.09948e-05
2.55923e-05
2.00666e-05
1.44154e-05
8.52698e-06
1.87379e-06
6.42283e-08
6.40476e-08
1.86873e-06
8.50803e-06
1.43876e-05
2.00329e-05
2.5555e-05
3.09556e-05
3.61921e-05
4.1209e-05
4.59496e-05
5.03493e-05
5.43337e-05
5.78308e-05
6.07783e-05
6.3125e-05
6.48306e-05
6.58666e-05
6.62157e-05
6.58722e-05
6.48416e-05
6.31413e-05
6.07997e-05
5.78569e-05
5.43641e-05
5.03833e-05
4.59863e-05
4.12476e-05
3.62316e-05
3.09948e-05
2.55923e-05
2.00666e-05
1.44154e-05
8.52698e-06
1.87379e-06
6.42283e-08
6.40476e-08
1.86873e-06
8.50803e-06
1.43876e-05
2.00329e-05
2.5555e-05
3.09556e-05
3.61921e-05
4.1209e-05
4.59496e-05
5.03493e-05
5.43337e-05
5.78308e-05
6.07783e-05
6.3125e-05
6.48306e-05
6.58666e-05
6.62157e-05
6.58722e-05
6.48416e-05
6.31413e-05
6.07997e-05
5.78569e-05
5.43641e-05
5.03833e-05
4.59863e-05
4.12476e-05
3.62316e-05
3.09948e-05
2.55923e-05
2.00666e-05
1.44154e-05
8.52698e-06
1.87379e-06
6.42283e-08
6.40476e-08
1.86873e-06
8.50803e-06
1.43876e-05
2.00329e-05
2.5555e-05
3.09556e-05
3.61921e-05
4.1209e-05
4.59496e-05
5.03493e-05
5.43337e-05
5.78308e-05
6.07783e-05
6.3125e-05
6.48306e-05
6.58666e-05
6.62157e-05
6.58722e-05
6.48416e-05
6.31413e-05
6.07997e-05
5.78569e-05
5.43641e-05
5.03833e-05
4.59863e-05
4.12476e-05
3.62316e-05
3.09948e-05
2.55923e-05
2.00666e-05
1.44154e-05
8.52698e-06
1.87379e-06
6.42283e-08
6.40476e-08
1.86873e-06
8.50803e-06
1.43876e-05
2.00329e-05
2.5555e-05
3.09556e-05
3.61921e-05
4.1209e-05
4.59496e-05
5.03493e-05
5.43337e-05
5.78308e-05
6.07783e-05
6.3125e-05
6.48306e-05
6.58666e-05
6.62157e-05
6.58722e-05
6.48416e-05
6.31413e-05
6.07997e-05
5.78569e-05
5.43641e-05
5.03833e-05
4.59863e-05
4.12476e-05
3.62316e-05
3.09948e-05
2.55923e-05
2.00666e-05
1.44154e-05
8.52698e-06
1.87379e-06
6.42283e-08
6.40476e-08
1.86873e-06
8.50803e-06
1.43876e-05
2.00329e-05
2.5555e-05
3.09556e-05
3.61921e-05
4.1209e-05
4.59496e-05
5.03493e-05
5.43337e-05
5.78308e-05
6.07783e-05
6.3125e-05
6.48306e-05
6.58666e-05
6.62157e-05
6.58722e-05
6.48416e-05
6.31413e-05
6.07997e-05
5.78569e-05
5.43641e-05
5.03833e-05
4.59863e-05
4.12476e-05
3.62316e-05
3.09948e-05
2.55923e-05
2.00666e-05
1.44154e-05
8.52698e-06
1.87379e-06
6.42283e-08
6.40476e-08
1.86873e-06
8.50803e-06
1.43876e-05
2.00329e-05
2.5555e-05
3.09556e-05
3.61921e-05
4.1209e-05
4.59496e-05
5.03493e-05
5.43337e-05
5.78308e-05
6.07783e-05
6.3125e-05
6.48306e-05
6.58666e-05
6.62157e-05
6.58722e-05
6.48416e-05
6.31413e-05
6.07997e-05
5.78569e-05
5.43641e-05
5.03833e-05
4.59863e-05
4.12476e-05
3.62316e-05
3.09948e-05
2.55923e-05
2.00666e-05
1.44154e-05
8.52698e-06
1.87379e-06
6.42283e-08
6.40476e-08
1.86873e-06
8.50803e-06
1.43876e-05
2.00329e-05
2.5555e-05
3.09556e-05
3.61921e-05
4.1209e-05
4.59496e-05
5.03493e-05
5.43337e-05
5.78308e-05
6.07783e-05
6.3125e-05
6.48306e-05
6.58666e-05
6.62157e-05
6.58722e-05
6.48416e-05
6.31413e-05
6.07997e-05
5.78569e-05
5.43641e-05
5.03833e-05
4.59863e-05
4.12476e-05
3.62316e-05
3.09948e-05
2.55923e-05
2.00666e-05
1.44154e-05
8.52698e-06
1.87379e-06
6.42283e-08
6.40476e-08
1.86873e-06
8.50803e-06
1.43876e-05
2.00329e-05
2.5555e-05
3.09556e-05
3.61921e-05
4.1209e-05
4.59496e-05
5.03493e-05
5.43337e-05
5.78308e-05
6.07783e-05
6.3125e-05
6.48306e-05
6.58666e-05
6.62157e-05
6.58722e-05
6.48416e-05
6.31413e-05
6.07997e-05
5.78569e-05
5.43641e-05
5.03833e-05
4.59863e-05
4.12476e-05
3.62316e-05
3.09948e-05
2.55923e-05
2.00666e-05
1.44154e-05
8.52698e-06
1.87379e-06
6.42283e-08
6.40476e-08
1.86873e-06
8.50803e-06
1.43876e-05
2.00329e-05
2.5555e-05
3.09556e-05
3.61921e-05
4.1209e-05
4.59496e-05
5.03493e-05
5.43337e-05
5.78308e-05
6.07783e-05
6.3125e-05
6.48306e-05
6.58666e-05
6.62157e-05
6.58722e-05
6.48416e-05
6.31413e-05
6.07997e-05
5.78569e-05
5.43641e-05
5.03833e-05
4.59863e-05
4.12476e-05
3.62316e-05
3.09948e-05
2.55923e-05
2.00666e-05
1.44154e-05
8.52698e-06
1.87379e-06
6.42283e-08
6.40476e-08
1.86873e-06
8.50803e-06
1.43876e-05
2.00329e-05
2.5555e-05
3.09556e-05
3.61921e-05
4.1209e-05
4.59496e-05
5.03493e-05
5.43337e-05
5.78308e-05
6.07783e-05
6.3125e-05
6.48306e-05
6.58666e-05
6.62157e-05
6.58722e-05
6.48416e-05
6.31413e-05
6.07997e-05
5.78569e-05
5.43641e-05
5.03833e-05
4.59863e-05
4.12476e-05
3.62316e-05
3.09948e-05
2.55923e-05
2.00666e-05
1.44154e-05
8.52698e-06
1.87379e-06
6.42283e-08
6.40476e-08
1.86873e-06
8.50803e-06
1.43876e-05
2.00329e-05
2.5555e-05
3.09556e-05
3.61921e-05
4.1209e-05
4.59496e-05
5.03493e-05
5.43337e-05
5.78308e-05
6.07783e-05
6.3125e-05
6.48306e-05
6.58666e-05
6.62157e-05
6.58722e-05
6.48416e-05
6.31413e-05
6.07997e-05
5.78569e-05
5.43641e-05
5.03833e-05
4.59863e-05
4.12476e-05
3.62316e-05
3.09948e-05
2.55923e-05
2.00666e-05
1.44154e-05
8.52698e-06
1.87379e-06
6.42283e-08
6.40476e-08
1.86873e-06
8.50803e-06
1.43876e-05
2.00329e-05
2.5555e-05
3.09556e-05
3.61921e-05
4.1209e-05
4.59496e-05
5.03493e-05
5.43337e-05
5.78308e-05
6.07783e-05
6.3125e-05
6.48306e-05
6.58666e-05
6.62157e-05
6.58722e-05
6.48416e-05
6.31413e-05
6.07997e-05
5.78569e-05
5.43641e-05
5.03833e-05
4.59863e-05
4.12476e-05
3.62316e-05
3.09948e-05
2.55923e-05
2.00666e-05
1.44154e-05
8.52698e-06
1.87379e-06
6.42283e-08
6.40476e-08
1.86873e-06
8.50803e-06
1.43876e-05
2.00329e-05
2.5555e-05
3.09556e-05
3.61921e-05
4.1209e-05
4.59496e-05
5.03493e-05
5.43337e-05
5.78308e-05
6.07783e-05
6.3125e-05
6.48306e-05
6.58666e-05
6.62157e-05
6.58722e-05
6.48416e-05
6.31413e-05
6.07997e-05
5.78569e-05
5.43641e-05
5.03833e-05
4.59863e-05
4.12476e-05
3.62316e-05
3.09948e-05
2.55923e-05
2.00666e-05
1.44154e-05
8.52698e-06
1.87379e-06
6.42283e-08
6.40476e-08
1.86873e-06
8.50803e-06
1.43876e-05
2.00329e-05
2.5555e-05
3.09556e-05
3.61921e-05
4.1209e-05
4.59496e-05
5.03493e-05
5.43337e-05
5.78308e-05
6.07783e-05
6.3125e-05
6.48306e-05
6.58666e-05
6.62157e-05
6.58722e-05
6.48416e-05
6.31413e-05
6.07997e-05
5.78569e-05
5.43641e-05
5.03833e-05
4.59863e-05
4.12476e-05
3.62316e-05
3.09948e-05
2.55923e-05
2.00666e-05
1.44154e-05
8.52698e-06
1.87379e-06
6.42283e-08
6.40476e-08
1.86873e-06
8.50803e-06
1.43876e-05
2.00329e-05
2.5555e-05
3.09556e-05
3.61921e-05
4.1209e-05
4.59496e-05
5.03493e-05
5.43337e-05
5.78308e-05
6.07783e-05
6.3125e-05
6.48306e-05
6.58666e-05
6.62157e-05
6.58722e-05
6.48416e-05
6.31413e-05
6.07997e-05
5.78569e-05
5.43641e-05
5.03833e-05
4.59863e-05
4.12476e-05
3.62316e-05
3.09948e-05
2.55923e-05
2.00666e-05
1.44154e-05
8.52698e-06
1.87379e-06
6.42283e-08
6.40476e-08
1.86873e-06
8.50803e-06
1.43876e-05
2.00329e-05
2.5555e-05
3.09556e-05
3.61921e-05
4.1209e-05
4.59496e-05
5.03493e-05
5.43337e-05
5.78308e-05
6.07783e-05
6.3125e-05
6.48306e-05
6.58666e-05
6.62157e-05
6.58722e-05
6.48416e-05
6.31413e-05
6.07997e-05
5.78569e-05
5.43641e-05
5.03833e-05
4.59863e-05
4.12476e-05
3.62316e-05
3.09948e-05
2.55923e-05
2.00666e-05
1.44154e-05
8.52698e-06
1.87379e-06
6.42283e-08
6.40476e-08
1.86873e-06
8.50803e-06
1.43876e-05
2.00329e-05
2.5555e-05
3.09556e-05
3.61921e-05
4.1209e-05
4.59496e-05
5.03493e-05
5.43337e-05
5.78308e-05
6.07783e-05
6.3125e-05
6.48306e-05
6.58666e-05
6.62157e-05
6.58722e-05
6.48416e-05
6.31413e-05
6.07997e-05
5.78569e-05
5.43641e-05
5.03833e-05
4.59863e-05
4.12476e-05
3.62316e-05
3.09948e-05
2.55923e-05
2.00666e-05
1.44154e-05
8.52698e-06
1.87379e-06
6.42283e-08
6.40476e-08
1.86873e-06
8.50803e-06
1.43876e-05
2.00329e-05
2.5555e-05
3.09556e-05
3.61921e-05
4.1209e-05
4.59496e-05
5.03493e-05
5.43337e-05
5.78308e-05
6.07783e-05
6.3125e-05
6.48306e-05
6.58666e-05
6.62157e-05
6.58722e-05
6.48416e-05
6.31413e-05
6.07997e-05
5.78569e-05
5.43641e-05
5.03833e-05
4.59863e-05
4.12476e-05
3.62316e-05
3.09948e-05
2.55923e-05
2.00666e-05
1.44154e-05
8.52698e-06
1.87379e-06
6.42283e-08
6.40476e-08
1.86873e-06
8.50803e-06
1.43876e-05
2.00329e-05
2.5555e-05
3.09556e-05
3.61921e-05
4.1209e-05
4.59496e-05
5.03493e-05
5.43337e-05
5.78308e-05
6.07783e-05
6.3125e-05
6.48306e-05
6.58666e-05
6.62157e-05
6.58722e-05
6.48416e-05
6.31413e-05
6.07997e-05
5.78569e-05
5.43641e-05
5.03833e-05
4.59863e-05
4.12476e-05
3.62316e-05
3.09948e-05
2.55923e-05
2.00666e-05
1.44154e-05
8.52698e-06
1.87379e-06
6.42283e-08
6.40476e-08
1.86873e-06
8.50803e-06
1.43876e-05
2.00329e-05
2.5555e-05
3.09556e-05
3.61921e-05
4.1209e-05
4.59496e-05
5.03493e-05
5.43337e-05
5.78308e-05
6.07783e-05
6.3125e-05
6.48306e-05
6.58666e-05
6.62157e-05
6.58722e-05
6.48416e-05
6.31413e-05
6.07997e-05
5.78569e-05
5.43641e-05
5.03833e-05
4.59863e-05
4.12476e-05
3.62316e-05
3.09948e-05
2.55923e-05
2.00666e-05
1.44154e-05
8.52698e-06
1.87379e-06
6.42283e-08
6.40476e-08
1.86873e-06
8.50803e-06
1.43876e-05
2.00329e-05
2.5555e-05
3.09556e-05
3.61921e-05
4.1209e-05
4.59496e-05
5.03493e-05
5.43337e-05
5.78308e-05
6.07783e-05
6.3125e-05
6.48306e-05
6.58666e-05
6.62157e-05
6.58722e-05
6.48416e-05
6.31413e-05
6.07997e-05
5.78569e-05
5.43641e-05
5.03833e-05
4.59863e-05
4.12476e-05
3.62316e-05
3.09948e-05
2.55923e-05
2.00666e-05
1.44154e-05
8.52698e-06
1.87379e-06
6.42283e-08
6.40476e-08
1.86873e-06
8.50803e-06
1.43876e-05
2.00329e-05
2.5555e-05
3.09556e-05
3.61921e-05
4.1209e-05
4.59496e-05
5.03493e-05
5.43337e-05
5.78308e-05
6.07783e-05
6.3125e-05
6.48306e-05
6.58666e-05
6.62157e-05
6.58722e-05
6.48416e-05
6.31413e-05
6.07997e-05
5.78569e-05
5.43641e-05
5.03833e-05
4.59863e-05
4.12476e-05
3.62316e-05
3.09948e-05
2.55923e-05
2.00666e-05
1.44154e-05
8.52698e-06
1.87379e-06
6.42283e-08
6.40476e-08
1.86873e-06
8.50803e-06
1.43876e-05
2.00329e-05
2.5555e-05
3.09556e-05
3.61921e-05
4.1209e-05
4.59496e-05
5.03493e-05
5.43337e-05
5.78308e-05
6.07783e-05
6.3125e-05
6.48306e-05
6.58666e-05
6.62157e-05
6.58722e-05
6.48416e-05
6.31413e-05
6.07997e-05
5.78569e-05
5.43641e-05
5.03833e-05
4.59863e-05
4.12476e-05
3.62316e-05
3.09948e-05
2.55923e-05
2.00666e-05
1.44154e-05
8.52698e-06
1.87379e-06
6.42283e-08
6.40476e-08
1.86873e-06
8.50803e-06
1.43876e-05
2.00329e-05
2.5555e-05
3.09556e-05
3.61921e-05
4.1209e-05
4.59496e-05
5.03493e-05
5.43337e-05
5.78308e-05
6.07783e-05
6.3125e-05
6.48306e-05
6.58666e-05
6.62157e-05
6.58722e-05
6.48416e-05
6.31413e-05
6.07997e-05
5.78569e-05
5.43641e-05
5.03833e-05
4.59863e-05
4.12476e-05
3.62316e-05
3.09948e-05
2.55923e-05
2.00666e-05
1.44154e-05
8.52698e-06
1.87379e-06
6.42283e-08
6.40476e-08
1.86873e-06
8.50803e-06
1.43876e-05
2.00329e-05
2.5555e-05
3.09556e-05
3.61921e-05
4.1209e-05
4.59496e-05
5.03493e-05
5.43337e-05
5.78308e-05
6.07783e-05
6.3125e-05
6.48306e-05
6.58666e-05
6.62157e-05
6.58722e-05
6.48416e-05
6.31413e-05
6.07997e-05
5.78569e-05
5.43641e-05
5.03833e-05
4.59863e-05
4.12476e-05
3.62316e-05
3.09948e-05
2.55923e-05
2.00666e-05
1.44154e-05
8.52698e-06
1.87379e-06
6.42283e-08
6.40476e-08
1.86873e-06
8.50803e-06
1.43876e-05
2.00329e-05
2.5555e-05
3.09556e-05
3.61921e-05
4.1209e-05
4.59496e-05
5.03493e-05
5.43337e-05
5.78308e-05
6.07783e-05
6.3125e-05
6.48306e-05
6.58666e-05
6.62157e-05
6.58722e-05
6.48416e-05
6.31413e-05
6.07997e-05
5.78569e-05
5.43641e-05
5.03833e-05
4.59863e-05
4.12476e-05
3.62316e-05
3.09948e-05
2.55923e-05
2.00666e-05
1.44154e-05
8.52698e-06
1.87379e-06
6.42283e-08
6.40476e-08
1.86873e-06
8.50803e-06
1.43876e-05
2.00329e-05
2.5555e-05
3.09556e-05
3.61921e-05
4.1209e-05
4.59496e-05
5.03493e-05
5.43337e-05
5.78308e-05
6.07783e-05
6.3125e-05
6.48306e-05
6.58666e-05
6.62157e-05
6.58722e-05
6.48416e-05
6.31413e-05
6.07997e-05
5.78569e-05
5.43641e-05
5.03833e-05
4.59863e-05
4.12476e-05
3.62316e-05
3.09948e-05
2.55923e-05
2.00666e-05
1.44154e-05
8.52698e-06
1.87379e-06
6.42283e-08
6.40476e-08
1.86873e-06
8.50803e-06
1.43876e-05
2.00329e-05
2.5555e-05
3.09556e-05
3.61921e-05
4.1209e-05
4.59496e-05
5.03493e-05
5.43337e-05
5.78308e-05
6.07783e-05
6.3125e-05
6.48306e-05
6.58666e-05
6.62157e-05
6.58722e-05
6.48416e-05
6.31413e-05
6.07997e-05
5.78569e-05
5.43641e-05
5.03833e-05
4.59863e-05
4.12476e-05
3.62316e-05
3.09948e-05
2.55923e-05
2.00666e-05
1.44154e-05
8.52698e-06
1.87379e-06
6.42283e-08
6.40476e-08
1.86873e-06
8.50803e-06
1.43876e-05
2.00329e-05
2.5555e-05
3.09556e-05
3.61921e-05
4.1209e-05
4.59496e-05
5.03493e-05
5.43337e-05
5.78308e-05
6.07783e-05
6.3125e-05
6.48306e-05
6.58666e-05
6.62157e-05
6.58722e-05
6.48416e-05
6.31413e-05
6.07997e-05
5.78569e-05
5.43641e-05
5.03833e-05
4.59863e-05
4.12476e-05
3.62316e-05
3.09948e-05
2.55923e-05
2.00666e-05
1.44154e-05
8.52698e-06
1.87379e-06
6.42283e-08
6.40476e-08
1.86873e-06
8.50803e-06
1.43876e-05
2.00329e-05
2.5555e-05
3.09556e-05
3.61921e-05
4.1209e-05
4.59496e-05
5.03493e-05
5.43337e-05
5.78308e-05
6.07783e-05
6.3125e-05
6.48306e-05
6.58666e-05
6.62157e-05
6.58722e-05
6.48416e-05
6.31413e-05
6.07997e-05
5.78569e-05
5.43641e-05
5.03833e-05
4.59863e-05
4.12476e-05
3.62316e-05
3.09948e-05
2.55923e-05
2.00666e-05
1.44154e-05
8.52698e-06
1.87379e-06
6.42283e-08
6.40476e-08
1.86873e-06
8.50803e-06
1.43876e-05
2.00329e-05
2.5555e-05
3.09556e-05
3.61921e-05
4.1209e-05
4.59496e-05
5.03493e-05
5.43337e-05
5.78308e-05
6.07783e-05
6.3125e-05
6.48306e-05
6.58666e-05
6.62157e-05
6.58722e-05
6.48416e-05
6.31413e-05
6.07997e-05
5.78569e-05
5.43641e-05
5.03833e-05
4.59863e-05
4.12476e-05
3.62316e-05
3.09948e-05
2.55923e-05
2.00666e-05
1.44154e-05
8.52698e-06
1.87379e-06
6.42283e-08
6.40476e-08
1.86873e-06
8.50803e-06
1.43876e-05
2.00329e-05
2.5555e-05
3.09556e-05
3.61921e-05
4.1209e-05
4.59496e-05
5.03493e-05
5.43337e-05
5.78308e-05
6.07783e-05
6.3125e-05
6.48306e-05
6.58666e-05
6.62157e-05
6.58722e-05
6.48416e-05
6.31413e-05
6.07997e-05
5.78569e-05
5.43641e-05
5.03833e-05
4.59863e-05
4.12476e-05
3.62316e-05
3.09948e-05
2.55923e-05
2.00666e-05
1.44154e-05
8.52698e-06
1.87379e-06
6.42283e-08
6.40476e-08
1.86873e-06
8.50803e-06
1.43876e-05
2.00329e-05
2.5555e-05
3.09556e-05
3.61921e-05
4.1209e-05
4.59496e-05
5.03493e-05
5.43337e-05
5.78308e-05
6.07783e-05
6.3125e-05
6.48306e-05
6.58666e-05
6.62157e-05
6.58722e-05
6.48416e-05
6.31413e-05
6.07997e-05
5.78569e-05
5.43641e-05
5.03833e-05
4.59863e-05
4.12476e-05
3.62316e-05
3.09948e-05
2.55923e-05
2.00666e-05
1.44154e-05
8.52698e-06
1.87379e-06
6.42283e-08
6.40476e-08
1.86873e-06
8.50803e-06
1.43876e-05
2.00329e-05
2.5555e-05
3.09556e-05
3.61921e-05
4.1209e-05
4.59496e-05
5.03493e-05
5.43337e-05
5.78308e-05
6.07783e-05
6.3125e-05
6.48306e-05
6.58666e-05
6.62157e-05
6.58722e-05
6.48416e-05
6.31413e-05
6.07997e-05
5.78569e-05
5.43641e-05
5.03833e-05
4.59863e-05
4.12476e-05
3.62316e-05
3.09948e-05
2.55923e-05
2.00666e-05
1.44154e-05
8.52698e-06
1.87379e-06
6.42283e-08
6.40476e-08
1.86873e-06
8.50803e-06
1.43876e-05
2.00329e-05
2.5555e-05
3.09556e-05
3.61921e-05
4.1209e-05
4.59496e-05
5.03493e-05
5.43337e-05
5.78308e-05
6.07783e-05
6.3125e-05
6.48306e-05
6.58666e-05
6.62157e-05
6.58722e-05
6.48416e-05
6.31413e-05
6.07997e-05
5.78569e-05
5.43641e-05
5.03833e-05
4.59863e-05
4.12476e-05
3.62316e-05
3.09948e-05
2.55923e-05
2.00666e-05
1.44154e-05
8.52698e-06
1.87379e-06
6.42283e-08
6.40476e-08
1.86873e-06
8.50803e-06
1.43876e-05
2.00329e-05
2.5555e-05
3.09556e-05
3.61921e-05
4.1209e-05
4.59496e-05
5.03493e-05
5.43337e-05
5.78308e-05
6.07783e-05
6.3125e-05
6.48306e-05
6.58666e-05
6.62157e-05
6.58722e-05
6.48416e-05
6.31413e-05
6.07997e-05
5.78569e-05
5.43641e-05
5.03833e-05
4.59863e-05
4.12476e-05
3.62316e-05
3.09948e-05
2.55923e-05
2.00666e-05
1.44154e-05
8.52698e-06
1.87379e-06
6.42283e-08
6.40476e-08
1.86873e-06
8.50803e-06
1.43876e-05
2.00329e-05
2.5555e-05
3.09556e-05
3.61921e-05
4.1209e-05
4.59496e-05
5.03493e-05
5.43337e-05
5.78308e-05
6.07783e-05
6.3125e-05
6.48306e-05
6.58666e-05
6.62157e-05
6.58722e-05
6.48416e-05
6.31413e-05
6.07997e-05
5.78569e-05
5.43641e-05
5.03833e-05
4.59863e-05
4.12476e-05
3.62316e-05
3.09948e-05
2.55923e-05
2.00666e-05
1.44154e-05
8.52698e-06
1.87379e-06
6.42283e-08
6.40476e-08
1.86873e-06
8.50803e-06
1.43876e-05
2.00329e-05
2.5555e-05
3.09556e-05
3.61921e-05
4.1209e-05
4.59496e-05
5.03493e-05
5.43337e-05
5.78308e-05
6.07783e-05
6.3125e-05
6.48306e-05
6.58666e-05
6.62157e-05
6.58722e-05
6.48416e-05
6.31413e-05
6.07997e-05
5.78569e-05
5.43641e-05
5.03833e-05
4.59863e-05
4.12476e-05
3.62316e-05
3.09948e-05
2.55923e-05
2.00666e-05
1.44154e-05
8.52698e-06
1.87379e-06
6.42283e-08
6.40476e-08
1.86873e-06
8.50803e-06
1.43876e-05
2.00329e-05
2.5555e-05
3.09556e-05
3.61921e-05
4.1209e-05
4.59496e-05
5.03493e-05
5.43337e-05
5.78308e-05
6.07783e-05
6.3125e-05
6.48306e-05
6.58666e-05
6.62157e-05
6.58722e-05
6.48416e-05
6.31413e-05
6.07997e-05
5.78569e-05
5.43641e-05
5.03833e-05
4.59863e-05
4.12476e-05
3.62316e-05
3.09948e-05
2.55923e-05
2.00666e-05
1.44154e-05
8.52698e-06
1.87379e-06
6.42283e-08
6.40476e-08
1.86873e-06
8.50803e-06
1.43876e-05
2.00329e-05
2.5555e-05
3.09556e-05
3.61921e-05
4.1209e-05
4.59496e-05
5.03493e-05
5.43337e-05
5.78308e-05
6.07783e-05
6.3125e-05
6.48306e-05
6.58666e-05
6.62157e-05
6.58722e-05
6.48416e-05
6.31413e-05
6.07997e-05
5.78569e-05
5.43641e-05
5.03833e-05
4.59863e-05
4.12476e-05
3.62316e-05
3.09948e-05
2.55923e-05
2.00666e-05
1.44154e-05
8.52698e-06
1.87379e-06
6.42283e-08
6.40476e-08
1.86873e-06
8.50803e-06
1.43876e-05
2.00329e-05
2.5555e-05
3.09556e-05
3.61921e-05
4.1209e-05
4.59496e-05
5.03493e-05
5.43337e-05
5.78308e-05
6.07783e-05
6.3125e-05
6.48306e-05
6.58666e-05
6.62157e-05
6.58722e-05
6.48416e-05
6.31413e-05
6.07997e-05
5.78569e-05
5.43641e-05
5.03833e-05
4.59863e-05
4.12476e-05
3.62316e-05
3.09948e-05
2.55923e-05
2.00666e-05
1.44154e-05
8.52698e-06
1.87379e-06
6.42283e-08
6.40476e-08
1.86873e-06
8.50803e-06
1.43876e-05
2.00329e-05
2.5555e-05
3.09556e-05
3.61921e-05
4.1209e-05
4.59496e-05
5.03493e-05
5.43337e-05
5.78308e-05
6.07783e-05
6.3125e-05
6.48306e-05
6.58666e-05
6.62157e-05
6.58722e-05
6.48416e-05
6.31413e-05
6.07997e-05
5.78569e-05
5.43641e-05
5.03833e-05
4.59863e-05
4.12476e-05
3.62316e-05
3.09948e-05
2.55923e-05
2.00666e-05
1.44154e-05
8.52698e-06
1.87379e-06
6.42283e-08
6.40476e-08
1.86873e-06
8.50803e-06
1.43876e-05
2.00329e-05
2.5555e-05
3.09556e-05
3.61921e-05
4.1209e-05
4.59496e-05
5.03493e-05
5.43337e-05
5.78308e-05
6.07783e-05
6.3125e-05
6.48306e-05
6.58666e-05
6.62157e-05
6.58722e-05
6.48416e-05
6.31413e-05
6.07997e-05
5.78569e-05
5.43641e-05
5.03833e-05
4.59863e-05
4.12476e-05
3.62316e-05
3.09948e-05
2.55923e-05
2.00666e-05
1.44154e-05
8.52698e-06
1.87379e-06
6.42283e-08
6.40476e-08
1.86873e-06
8.50803e-06
1.43876e-05
2.00329e-05
2.5555e-05
3.09556e-05
3.61921e-05
4.1209e-05
4.59496e-05
5.03493e-05
5.43337e-05
5.78308e-05
6.07783e-05
6.3125e-05
6.48306e-05
6.58666e-05
6.62157e-05
6.58722e-05
6.48416e-05
6.31413e-05
6.07997e-05
5.78569e-05
5.43641e-05
5.03833e-05
4.59863e-05
4.12476e-05
3.62316e-05
3.09948e-05
2.55923e-05
2.00666e-05
1.44154e-05
8.52698e-06
1.87379e-06
6.42283e-08
6.40476e-08
1.86873e-06
8.50803e-06
1.43876e-05
2.00329e-05
2.5555e-05
3.09556e-05
3.61921e-05
4.1209e-05
4.59496e-05
5.03493e-05
5.43337e-05
5.78308e-05
6.07783e-05
6.3125e-05
6.48306e-05
6.58666e-05
6.62157e-05
6.58722e-05
6.48416e-05
6.31413e-05
6.07997e-05
5.78569e-05
5.43641e-05
5.03833e-05
4.59863e-05
4.12476e-05
3.62316e-05
3.09948e-05
2.55923e-05
2.00666e-05
1.44154e-05
8.52698e-06
1.87379e-06
6.42283e-08
6.40476e-08
1.86873e-06
8.50803e-06
1.43876e-05
2.00329e-05
2.5555e-05
3.09556e-05
3.61921e-05
4.1209e-05
4.59496e-05
5.03493e-05
5.43337e-05
5.78308e-05
6.07783e-05
6.3125e-05
6.48306e-05
6.58666e-05
6.62157e-05
6.58722e-05
6.48416e-05
6.31413e-05
6.07997e-05
5.78569e-05
5.43641e-05
5.03833e-05
4.59863e-05
4.12476e-05
3.62316e-05
3.09948e-05
2.55923e-05
2.00666e-05
1.44154e-05
8.52698e-06
1.87379e-06
6.42283e-08
6.40476e-08
1.86873e-06
8.50803e-06
1.43876e-05
2.00329e-05
2.5555e-05
3.09556e-05
3.61921e-05
4.1209e-05
4.59496e-05
5.03493e-05
5.43337e-05
5.78308e-05
6.07783e-05
6.3125e-05
6.48306e-05
6.58666e-05
6.62157e-05
6.58722e-05
6.48416e-05
6.31413e-05
6.07997e-05
5.78569e-05
5.43641e-05
5.03833e-05
4.59863e-05
4.12476e-05
3.62316e-05
3.09948e-05
2.55923e-05
2.00666e-05
1.44154e-05
8.52698e-06
1.87379e-06
6.42283e-08
6.40476e-08
1.86873e-06
8.50803e-06
1.43876e-05
2.00329e-05
2.5555e-05
3.09556e-05
3.61921e-05
4.1209e-05
4.59496e-05
5.03493e-05
5.43337e-05
5.78308e-05
6.07783e-05
6.3125e-05
6.48306e-05
6.58666e-05
6.62157e-05
6.58722e-05
6.48416e-05
6.31413e-05
6.07997e-05
5.78569e-05
5.43641e-05
5.03833e-05
4.59863e-05
4.12476e-05
3.62316e-05
3.09948e-05
2.55923e-05
2.00666e-05
1.44154e-05
8.52698e-06
1.87379e-06
6.42283e-08
6.40476e-08
1.86873e-06
8.50803e-06
1.43876e-05
2.00329e-05
2.5555e-05
3.09556e-05
3.61921e-05
4.1209e-05
4.59496e-05
5.03493e-05
5.43337e-05
5.78308e-05
6.07783e-05
6.3125e-05
6.48306e-05
6.58666e-05
6.62157e-05
6.58722e-05
6.48416e-05
6.31413e-05
6.07997e-05
5.78569e-05
5.43641e-05
5.03833e-05
4.59863e-05
4.12476e-05
3.62316e-05
3.09948e-05
2.55923e-05
2.00666e-05
1.44154e-05
8.52698e-06
1.87379e-06
6.42283e-08
6.40476e-08
1.86873e-06
8.50803e-06
1.43876e-05
2.00329e-05
2.5555e-05
3.09556e-05
3.61921e-05
4.1209e-05
4.59496e-05
5.03493e-05
5.43337e-05
5.78308e-05
6.07783e-05
6.3125e-05
6.48306e-05
6.58666e-05
6.62157e-05
6.58722e-05
6.48416e-05
6.31413e-05
6.07997e-05
5.78569e-05
5.43641e-05
5.03833e-05
4.59863e-05
4.12476e-05
3.62316e-05
3.09948e-05
2.55923e-05
2.00666e-05
1.44154e-05
8.52698e-06
1.87379e-06
6.42283e-08
6.40476e-08
1.86873e-06
8.50803e-06
1.43876e-05
2.00329e-05
2.5555e-05
3.09556e-05
3.61921e-05
4.1209e-05
4.59496e-05
5.03493e-05
5.43337e-05