/*--------------------------------*- C++ -*----------------------------------*\
  =========                 |
  \\      /  F ield         | OpenFOAM: The Open Source CFD Toolbox
   \\    /   O peration     | Website:  https://openfoam.org
    \\  /    A nd           | Version:  13
     \\/     M anipulation  |
\*---------------------------------------------------------------------------*/
FoamFile
{
    format      ascii;
    class       volScalarField;
    location    "65";
    object      rhok;
}
// * * * * * * * * * * * * * * * * * * * * * * * * * * * * * * * * * * * * * //

dimensions      [];

internalField   nonuniform List<scalar> 
315000
(
0.444429
0.421145
0.415874
0.413881
0.412413
0.411195
0.410092
0.409042
0.408017
0.407007
0.406006
0.405014
0.404031
0.403058
0.402094
0.401141
0.400199
0.399269
0.39835
0.397445
0.396553
0.395674
0.394809
0.393959
0.393123
0.392303
0.391498
0.390708
0.389935
0.389177
0.388435
0.38771
0.387001
0.386309
0.385632
0.384973
0.384329
0.383701
0.38309
0.382494
0.381914
0.38135
0.380801
0.380266
0.379746
0.379241
0.378749
0.378271
0.377806
0.377353
0.376913
0.376485
0.376068
0.375661
0.375265
0.374879
0.374502
0.374133
0.373772
0.373419
0.373073
0.372732
0.372398
0.372068
0.371742
0.37142
0.371102
0.370785
0.37047
0.370156
0.444509
0.425216
0.413978
0.412656
0.411838
0.410933
0.409976
0.408991
0.407994
0.406994
0.405997
0.405005
0.404022
0.403048
0.402083
0.40113
0.400187
0.399256
0.398338
0.397432
0.396539
0.39566
0.394795
0.393945
0.393109
0.392288
0.391483
0.390693
0.389919
0.389162
0.38842
0.387695
0.386986
0.386293
0.385617
0.384957
0.384314
0.383687
0.383075
0.38248
0.3819
0.381336
0.380787
0.380253
0.379733
0.379228
0.378736
0.378259
0.377794
0.377342
0.376902
0.376474
0.376058
0.375652
0.375256
0.374871
0.374494
0.374126
0.373766
0.373413
0.373067
0.372727
0.372393
0.372064
0.371739
0.371418
0.3711
0.370784
0.370469
0.370156
0.444452
0.422864
0.414816
0.413262
0.412229
0.411156
0.410092
0.409046
0.408016
0.406999
0.405994
0.405
0.404015
0.40304
0.402076
0.401122
0.400179
0.399248
0.398329
0.397423
0.396531
0.395651
0.394786
0.393935
0.393099
0.392279
0.391473
0.390683
0.389909
0.389152
0.38841
0.387685
0.386976
0.386283
0.385607
0.384947
0.384304
0.383676
0.383065
0.38247
0.38189
0.381326
0.380777
0.380243
0.379724
0.379219
0.378728
0.37825
0.377786
0.377334
0.376895
0.376467
0.376051
0.375645
0.37525
0.374865
0.374488
0.37412
0.373761
0.373408
0.373063
0.372724
0.37239
0.372061
0.371737
0.371416
0.371098
0.370783
0.370469
0.370156
0.444429
0.421135
0.415862
0.413869
0.412403
0.411185
0.410081
0.409029
0.408003
0.406991
0.405989
0.404996
0.404012
0.403037
0.402072
0.401118
0.400175
0.399244
0.398325
0.397419
0.396526
0.395647
0.394781
0.39393
0.393094
0.392273
0.391467
0.390678
0.389904
0.389146
0.388404
0.387678
0.386969
0.386277
0.385601
0.384941
0.384297
0.38367
0.383059
0.382463
0.381884
0.38132
0.380771
0.380237
0.379718
0.379213
0.378722
0.378244
0.37778
0.377329
0.376889
0.376462
0.376046
0.375641
0.375246
0.37486
0.374484
0.374117
0.373757
0.373405
0.37306
0.372721
0.372388
0.372059
0.371735
0.371415
0.371097
0.370782
0.370468
0.370156
0.444509
0.425214
0.413973
0.412651
0.411834
0.410928
0.40997
0.408985
0.407987
0.406986
0.405988
0.404996
0.404012
0.403037
0.402072
0.401118
0.400175
0.399243
0.398324
0.397418
0.396524
0.395645
0.394779
0.393928
0.393092
0.392271
0.391465
0.390675
0.389901
0.389143
0.388401
0.387676
0.386967
0.386274
0.385598
0.384938
0.384294
0.383667
0.383056
0.38246
0.381881
0.381316
0.380768
0.380234
0.379714
0.37921
0.378719
0.378241
0.377777
0.377326
0.376887
0.376459
0.376043
0.375638
0.375243
0.374858
0.374482
0.374115
0.373755
0.373404
0.373059
0.37272
0.372386
0.372058
0.371734
0.371414
0.371096
0.370781
0.370468
0.370156
0.444452
0.422882
0.414807
0.413259
0.412237
0.411166
0.4101
0.409051
0.408019
0.407001
0.405995
0.404999
0.404014
0.403038
0.402073
0.401119
0.400176
0.399244
0.398325
0.397419
0.396525
0.395645
0.39478
0.393929
0.393092
0.392271
0.391465
0.390675
0.389901
0.389143
0.388401
0.387675
0.386966
0.386273
0.385597
0.384937
0.384293
0.383666
0.383055
0.382459
0.381879
0.381315
0.380766
0.380232
0.379713
0.379208
0.378717
0.37824
0.377776
0.377324
0.376885
0.376458
0.376042
0.375637
0.375242
0.374857
0.374481
0.374114
0.373754
0.373403
0.373058
0.372719
0.372386
0.372057
0.371734
0.371413
0.371096
0.370781
0.370468
0.370156
0.444509
0.425203
0.413935
0.41262
0.411812
0.410916
0.409964
0.408981
0.407985
0.406985
0.405988
0.404997
0.404013
0.403039
0.402074
0.40112
0.400177
0.399246
0.398327
0.39742
0.396527
0.395647
0.394782
0.39393
0.393094
0.392273
0.391467
0.390677
0.389902
0.389144
0.388402
0.387676
0.386967
0.386274
0.385598
0.384938
0.384294
0.383666
0.383055
0.38246
0.38188
0.381316
0.380767
0.380233
0.379713
0.379208
0.378717
0.37824
0.377776
0.377324
0.376885
0.376458
0.376042
0.375636
0.375242
0.374856
0.374481
0.374113
0.373754
0.373402
0.373057
0.372719
0.372385
0.372057
0.371733
0.371413
0.371096
0.370781
0.370468
0.370155
0.444509
0.425205
0.413915
0.412596
0.411792
0.410902
0.409955
0.408976
0.407983
0.406984
0.405988
0.404997
0.404014
0.40304
0.402076
0.401122
0.400179
0.399248
0.398329
0.397422
0.396529
0.395649
0.394784
0.393933
0.393096
0.392275
0.391469
0.390679
0.389904
0.389146
0.388404
0.387678
0.386969
0.386276
0.385599
0.384939
0.384295
0.383668
0.383056
0.382461
0.381881
0.381317
0.380768
0.380234
0.379714
0.379209
0.378718
0.378241
0.377776
0.377325
0.376885
0.376458
0.376042
0.375637
0.375242
0.374857
0.374481
0.374113
0.373754
0.373402
0.373057
0.372719
0.372386
0.372057
0.371733
0.371413
0.371096
0.370781
0.370468
0.370156
0.444509
0.425203
0.413936
0.412618
0.411809
0.410911
0.409959
0.408978
0.407983
0.406985
0.405988
0.404998
0.404015
0.403041
0.402077
0.401123
0.40018
0.399249
0.39833
0.397424
0.396531
0.395651
0.394786
0.393934
0.393098
0.392277
0.391471
0.390681
0.389906
0.389148
0.388406
0.38768
0.386971
0.386278
0.385601
0.384941
0.384297
0.38367
0.383058
0.382463
0.381883
0.381318
0.380769
0.380235
0.379715
0.37921
0.378719
0.378242
0.377777
0.377326
0.376886
0.376459
0.376043
0.375637
0.375242
0.374857
0.374481
0.374114
0.373755
0.373403
0.373058
0.372719
0.372386
0.372057
0.371734
0.371413
0.371096
0.370781
0.370468
0.370156
0.444452
0.422869
0.414805
0.413261
0.412236
0.411161
0.410092
0.409043
0.408013
0.406996
0.405992
0.404998
0.404014
0.40304
0.402076
0.401123
0.40018
0.399249
0.398331
0.397425
0.396532
0.395652
0.394787
0.393936
0.3931
0.392278
0.391473
0.390682
0.389908
0.38915
0.388408
0.387682
0.386973
0.38628
0.385603
0.384943
0.384299
0.383671
0.38306
0.382464
0.381884
0.38132
0.380771
0.380236
0.379717
0.379212
0.37872
0.378243
0.377778
0.377327
0.376887
0.37646
0.376043
0.375638
0.375243
0.374858
0.374482
0.374114
0.373755
0.373403
0.373058
0.372719
0.372386
0.372058
0.371734
0.371413
0.371096
0.370781
0.370468
0.370156
0.444452
0.422854
0.414804
0.413268
0.412241
0.411162
0.410091
0.40904
0.408009
0.406993
0.405989
0.404995
0.404012
0.403038
0.402074
0.401121
0.400179
0.399249
0.398331
0.397425
0.396532
0.395653
0.394788
0.393937
0.393101
0.39228
0.391474
0.390684
0.38991
0.389152
0.38841
0.387684
0.386974
0.386281
0.385605
0.384945
0.384301
0.383673
0.383061
0.382466
0.381886
0.381321
0.380772
0.380238
0.379718
0.379213
0.378721
0.378244
0.377779
0.377327
0.376888
0.37646
0.376044
0.375639
0.375244
0.374858
0.374482
0.374115
0.373755
0.373404
0.373058
0.37272
0.372386
0.372058
0.371734
0.371414
0.371096
0.370781
0.370468
0.370156
0.444452
0.422852
0.414802
0.413266
0.41224
0.411161
0.41009
0.409039
0.408008
0.406992
0.405988
0.404995
0.404012
0.403038
0.402075
0.401122
0.40018
0.39925
0.398331
0.397426
0.396533
0.395654
0.394789
0.393938
0.393102
0.392281
0.391475
0.390685
0.389911
0.389153
0.388411
0.387685
0.386976
0.386283
0.385606
0.384946
0.384302
0.383674
0.383063
0.382467
0.381887
0.381322
0.380773
0.380239
0.379719
0.379214
0.378722
0.378245
0.37778
0.377328
0.376889
0.376461
0.376045
0.375639
0.375244
0.374859
0.374483
0.374115
0.373756
0.373404
0.373059
0.37272
0.372387
0.372058
0.371734
0.371414
0.371096
0.370781
0.370468
0.370156
0.444452
0.422857
0.414808
0.413272
0.412246
0.411166
0.410095
0.409044
0.408012
0.406996
0.405992
0.404998
0.404015
0.403041
0.402077
0.401124
0.400182
0.399252
0.398333
0.397428
0.396535
0.395656
0.394791
0.39394
0.393104
0.392283
0.391477
0.390687
0.389913
0.389154
0.388412
0.387686
0.386977
0.386284
0.385607
0.384947
0.384303
0.383675
0.383064
0.382468
0.381888
0.381323
0.380774
0.380239
0.37972
0.379214
0.378723
0.378245
0.377781
0.377329
0.376889
0.376462
0.376045
0.37564
0.375245
0.374859
0.374483
0.374116
0.373756
0.373404
0.373059
0.37272
0.372387
0.372058
0.371734
0.371414
0.371096
0.370781
0.370468
0.370156
0.444452
0.422878
0.414828
0.413289
0.412262
0.411183
0.410111
0.409057
0.408023
0.407005
0.405999
0.405004
0.40402
0.403045
0.402081
0.401127
0.400185
0.399254
0.398336
0.39743
0.396537
0.395657
0.394792
0.393941
0.393105
0.392284
0.391478
0.390688
0.389914
0.389155
0.388413
0.387687
0.386978
0.386285
0.385608
0.384948
0.384304
0.383676
0.383064
0.382468
0.381888
0.381324
0.380774
0.38024
0.37972
0.379215
0.378723
0.378246
0.377781
0.377329
0.37689
0.376462
0.376046
0.37564
0.375245
0.37486
0.374483
0.374116
0.373756
0.373404
0.373059
0.37272
0.372387
0.372058
0.371734
0.371414
0.371097
0.370781
0.370468
0.370156
0.444483
0.424182
0.414278
0.4129
0.412017
0.411052
0.410049
0.409032
0.408015
0.407004
0.406001
0.405006
0.404022
0.403047
0.402083
0.401129
0.400186
0.399255
0.398337
0.397431
0.396538
0.395658
0.394793
0.393942
0.393106
0.392284
0.391479
0.390688
0.389914
0.389156
0.388414
0.387688
0.386978
0.386285
0.385608
0.384948
0.384304
0.383676
0.383065
0.382469
0.381889
0.381324
0.380775
0.38024
0.379721
0.379215
0.378724
0.378246
0.377781
0.377329
0.37689
0.376462
0.376046
0.37564
0.375245
0.37486
0.374484
0.374116
0.373757
0.373404
0.373059
0.37272
0.372387
0.372059
0.371734
0.371414
0.371097
0.370781
0.370468
0.370156
0.444429
0.42113
0.415858
0.413854
0.412386
0.411171
0.410072
0.409025
0.408002
0.406993
0.405993
0.405001
0.404019
0.403045
0.402081
0.401128
0.400186
0.399255
0.398336
0.39743
0.396537
0.395658
0.394793
0.393942
0.393105
0.392284
0.391479
0.390688
0.389914
0.389156
0.388414
0.387688
0.386978
0.386285
0.385609
0.384948
0.384304
0.383676
0.383065
0.382469
0.381889
0.381324
0.380775
0.38024
0.379721
0.379215
0.378724
0.378246
0.377781
0.37733
0.37689
0.376462
0.376046
0.37564
0.375245
0.37486
0.374484
0.374116
0.373757
0.373405
0.373059
0.37272
0.372387
0.372059
0.371734
0.371414
0.371097
0.370781
0.370468
0.370156
0.444429
0.421119
0.415846
0.413845
0.412376
0.411161
0.410062
0.409017
0.407996
0.406988
0.405989
0.404998
0.404016
0.403043
0.40208
0.401127
0.400185
0.399254
0.398335
0.39743
0.396537
0.395657
0.394792
0.393941
0.393105
0.392284
0.391478
0.390688
0.389914
0.389155
0.388413
0.387688
0.386978
0.386285
0.385608
0.384948
0.384304
0.383676
0.383065
0.382469
0.381889
0.381324
0.380775
0.38024
0.379721
0.379215
0.378724
0.378246
0.377781
0.37733
0.37689
0.376462
0.376046
0.37564
0.375245
0.37486
0.374484
0.374116
0.373757
0.373405
0.373059
0.37272
0.372387
0.372059
0.371734
0.371414
0.371097
0.370781
0.370468
0.370156
0.444429
0.421117
0.415843
0.413842
0.412372
0.411158
0.41006
0.409014
0.407993
0.406986
0.405987
0.404997
0.404015
0.403042
0.402078
0.401125
0.400183
0.399253
0.398335
0.397429
0.396536
0.395657
0.394791
0.393941
0.393104
0.392283
0.391478
0.390688
0.389913
0.389155
0.388413
0.387687
0.386978
0.386285
0.385608
0.384948
0.384304
0.383676
0.383064
0.382469
0.381889
0.381324
0.380775
0.38024
0.379721
0.379215
0.378724
0.378246
0.377781
0.37733
0.37689
0.376462
0.376046
0.37564
0.375245
0.37486
0.374484
0.374116
0.373757
0.373405
0.373059
0.37272
0.372387
0.372059
0.371734
0.371414
0.371097
0.370781
0.370468
0.370156
0.444429
0.421116
0.415842
0.413841
0.412371
0.411156
0.410058
0.409013
0.407992
0.406985
0.405986
0.404996
0.404014
0.403041
0.402077
0.401125
0.400183
0.399252
0.398334
0.397428
0.396535
0.395656
0.394791
0.39394
0.393104
0.392283
0.391477
0.390687
0.389913
0.389155
0.388413
0.387687
0.386978
0.386285
0.385608
0.384948
0.384304
0.383676
0.383064
0.382469
0.381888
0.381324
0.380775
0.38024
0.379721
0.379215
0.378724
0.378246
0.377781
0.37733
0.37689
0.376462
0.376046
0.37564
0.375245
0.37486
0.374484
0.374116
0.373757
0.373405
0.373059
0.37272
0.372387
0.372059
0.371734
0.371414
0.371097
0.370781
0.370468
0.370156
0.444429
0.421115
0.415841
0.413841
0.412371
0.411156
0.410058
0.409013
0.407992
0.406984
0.405985
0.404995
0.404013
0.40304
0.402077
0.401124
0.400182
0.399252
0.398333
0.397428
0.396535
0.395656
0.394791
0.39394
0.393104
0.392283
0.391477
0.390687
0.389913
0.389155
0.388413
0.387687
0.386978
0.386285
0.385608
0.384948
0.384304
0.383676
0.383064
0.382468
0.381888
0.381324
0.380775
0.38024
0.37972
0.379215
0.378724
0.378246
0.377781
0.37733
0.37689
0.376462
0.376046
0.37564
0.375245
0.37486
0.374484
0.374116
0.373757
0.373405
0.373059
0.37272
0.372387
0.372059
0.371734
0.371414
0.371097
0.370781
0.370468
0.370156
0.444429
0.421115
0.415841
0.41384
0.41237
0.411156
0.410058
0.409012
0.407991
0.406984
0.405985
0.404995
0.404013
0.40304
0.402077
0.401124
0.400182
0.399252
0.398333
0.397428
0.396535
0.395656
0.394791
0.39394
0.393104
0.392283
0.391477
0.390687
0.389913
0.389155
0.388413
0.387687
0.386977
0.386284
0.385608
0.384948
0.384304
0.383676
0.383064
0.382468
0.381888
0.381324
0.380774
0.38024
0.37972
0.379215
0.378724
0.378246
0.377781
0.377329
0.37689
0.376462
0.376046
0.37564
0.375245
0.37486
0.374484
0.374116
0.373757
0.373405
0.373059
0.37272
0.372387
0.372059
0.371734
0.371414
0.371097
0.370781
0.370468
0.370156
0.444429
0.421115
0.415841
0.41384
0.41237
0.411155
0.410057
0.409012
0.407991
0.406984
0.405985
0.404995
0.404013
0.40304
0.402077
0.401124
0.400182
0.399252
0.398333
0.397427
0.396535
0.395656
0.39479
0.39394
0.393104
0.392283
0.391477
0.390687
0.389913
0.389155
0.388413
0.387687
0.386977
0.386284
0.385608
0.384948
0.384304
0.383676
0.383064
0.382468
0.381888
0.381324
0.380774
0.38024
0.37972
0.379215
0.378724
0.378246
0.377781
0.377329
0.37689
0.376462
0.376046
0.37564
0.375245
0.37486
0.374484
0.374116
0.373757
0.373405
0.373059
0.37272
0.372387
0.372059
0.371734
0.371414
0.371097
0.370781
0.370468
0.370156
0.444429
0.421115
0.415841
0.41384
0.41237
0.411155
0.410057
0.409012
0.407991
0.406984
0.405985
0.404995
0.404013
0.40304
0.402077
0.401124
0.400182
0.399251
0.398333
0.397427
0.396535
0.395656
0.39479
0.39394
0.393103
0.392282
0.391477
0.390687
0.389913
0.389154
0.388412
0.387687
0.386977
0.386284
0.385608
0.384948
0.384304
0.383676
0.383064
0.382468
0.381888
0.381324
0.380774
0.38024
0.37972
0.379215
0.378724
0.378246
0.377781
0.377329
0.37689
0.376462
0.376046
0.37564
0.375245
0.37486
0.374484
0.374116
0.373757
0.373405
0.373059
0.37272
0.372387
0.372059
0.371734
0.371414
0.371097
0.370781
0.370468
0.370156
0.444429
0.421115
0.415841
0.41384
0.41237
0.411155
0.410057
0.409012
0.407991
0.406984
0.405985
0.404995
0.404013
0.40304
0.402077
0.401124
0.400182
0.399251
0.398333
0.397427
0.396535
0.395656
0.39479
0.39394
0.393103
0.392282
0.391477
0.390687
0.389913
0.389154
0.388412
0.387687
0.386977
0.386284
0.385608
0.384948
0.384304
0.383676
0.383064
0.382468
0.381888
0.381324
0.380774
0.38024
0.37972
0.379215
0.378724
0.378246
0.377781
0.377329
0.37689
0.376462
0.376046
0.37564
0.375245
0.37486
0.374484
0.374116
0.373757
0.373405
0.373059
0.37272
0.372387
0.372059
0.371734
0.371414
0.371097
0.370781
0.370468
0.370156
0.444429
0.421115
0.415841
0.41384
0.41237
0.411155
0.410057
0.409012
0.407991
0.406984
0.405985
0.404995
0.404013
0.40304
0.402077
0.401124
0.400182
0.399251
0.398333
0.397427
0.396535
0.395656
0.39479
0.39394
0.393103
0.392282
0.391477
0.390687
0.389913
0.389154
0.388412
0.387687
0.386977
0.386284
0.385608
0.384948
0.384304
0.383676
0.383064
0.382468
0.381888
0.381324
0.380774
0.38024
0.37972
0.379215
0.378724
0.378246
0.377781
0.377329
0.37689
0.376462
0.376046
0.37564
0.375245
0.37486
0.374484
0.374116
0.373757
0.373405
0.373059
0.37272
0.372387
0.372059
0.371734
0.371414
0.371097
0.370781
0.370468
0.370156
0.444429
0.421115
0.415841
0.41384
0.41237
0.411155
0.410057
0.409012
0.407991
0.406984
0.405985
0.404995
0.404013
0.40304
0.402077
0.401124
0.400182
0.399251
0.398333
0.397427
0.396535
0.395656
0.39479
0.39394
0.393103
0.392282
0.391477
0.390687
0.389913
0.389154
0.388412
0.387687
0.386977
0.386284
0.385608
0.384948
0.384304
0.383676
0.383064
0.382468
0.381888
0.381324
0.380774
0.38024
0.37972
0.379215
0.378724
0.378246
0.377781
0.377329
0.37689
0.376462
0.376046
0.37564
0.375245
0.37486
0.374484
0.374116
0.373757
0.373405
0.373059
0.37272
0.372387
0.372059
0.371734
0.371414
0.371097
0.370781
0.370468
0.370156
0.444429
0.421115
0.415841
0.41384
0.41237
0.411155
0.410057
0.409012
0.407991
0.406984
0.405985
0.404995
0.404013
0.40304
0.402077
0.401124
0.400182
0.399251
0.398333
0.397427
0.396535
0.395656
0.39479
0.39394
0.393103
0.392282
0.391477
0.390687
0.389913
0.389154
0.388412
0.387687
0.386977
0.386284
0.385608
0.384948
0.384304
0.383676
0.383064
0.382468
0.381888
0.381324
0.380774
0.38024
0.37972
0.379215
0.378724
0.378246
0.377781
0.377329
0.37689
0.376462
0.376046
0.37564
0.375245
0.37486
0.374484
0.374116
0.373757
0.373405
0.373059
0.37272
0.372387
0.372059
0.371734
0.371414
0.371097
0.370781
0.370468
0.370156
0.444429
0.421115
0.415841
0.41384
0.41237
0.411155
0.410057
0.409012
0.407991
0.406984
0.405985
0.404995
0.404013
0.40304
0.402077
0.401124
0.400182
0.399251
0.398333
0.397427
0.396535
0.395656
0.39479
0.39394
0.393103
0.392282
0.391477
0.390687
0.389913
0.389154
0.388412
0.387687
0.386977
0.386284
0.385608
0.384948
0.384304
0.383676
0.383064
0.382468
0.381888
0.381324
0.380774
0.38024
0.37972
0.379215
0.378724
0.378246
0.377781
0.377329
0.37689
0.376462
0.376046
0.37564
0.375245
0.37486
0.374484
0.374116
0.373757
0.373405
0.373059
0.37272
0.372387
0.372059
0.371734
0.371414
0.371097
0.370781
0.370468
0.370156
0.444429
0.421115
0.415841
0.41384
0.41237
0.411155
0.410057
0.409012
0.407991
0.406984
0.405985
0.404995
0.404013
0.40304
0.402077
0.401124
0.400182
0.399251
0.398333
0.397427
0.396535
0.395656
0.39479
0.39394
0.393103
0.392282
0.391477
0.390687
0.389913
0.389154
0.388412
0.387687
0.386977
0.386284
0.385608
0.384948
0.384304
0.383676
0.383064
0.382468
0.381888
0.381324
0.380774
0.38024
0.37972
0.379215
0.378724
0.378246
0.377781
0.377329
0.37689
0.376462
0.376046
0.37564
0.375245
0.37486
0.374484
0.374116
0.373757
0.373405
0.373059
0.37272
0.372387
0.372059
0.371734
0.371414
0.371097
0.370781
0.370468
0.370156
0.444429
0.421115
0.415841
0.41384
0.41237
0.411155
0.410057
0.409012
0.407991
0.406984
0.405985
0.404995
0.404013
0.40304
0.402077
0.401124
0.400182
0.399251
0.398333
0.397427
0.396535
0.395656
0.39479
0.39394
0.393103
0.392282
0.391477
0.390687
0.389913
0.389154
0.388412
0.387687
0.386977
0.386284
0.385608
0.384948
0.384304
0.383676
0.383064
0.382468
0.381888
0.381324
0.380774
0.38024
0.37972
0.379215
0.378724
0.378246
0.377781
0.377329
0.37689
0.376462
0.376046
0.37564
0.375245
0.37486
0.374484
0.374116
0.373757
0.373405
0.373059
0.37272
0.372387
0.372059
0.371734
0.371414
0.371097
0.370781
0.370468
0.370156
0.444429
0.421115
0.415841
0.41384
0.41237
0.411155
0.410057
0.409012
0.407991
0.406984
0.405985
0.404995
0.404013
0.40304
0.402077
0.401124
0.400182
0.399251
0.398333
0.397427
0.396535
0.395656
0.39479
0.39394
0.393103
0.392282
0.391477
0.390687
0.389913
0.389154
0.388412
0.387687
0.386977
0.386284
0.385608
0.384948
0.384304
0.383676
0.383064
0.382468
0.381888
0.381324
0.380774
0.38024
0.37972
0.379215
0.378724
0.378246
0.377781
0.377329
0.37689
0.376462
0.376046
0.37564
0.375245
0.37486
0.374484
0.374116
0.373757
0.373405
0.373059
0.37272
0.372387
0.372059
0.371734
0.371414
0.371097
0.370781
0.370468
0.370156
0.444429
0.421115
0.415841
0.41384
0.41237
0.411155
0.410057
0.409012
0.407991
0.406984
0.405985
0.404995
0.404013
0.40304
0.402077
0.401124
0.400182
0.399251
0.398333
0.397427
0.396535
0.395656
0.39479
0.39394
0.393103
0.392282
0.391477
0.390687
0.389913
0.389154
0.388412
0.387687
0.386977
0.386284
0.385608
0.384948
0.384304
0.383676
0.383064
0.382468
0.381888
0.381324
0.380774
0.38024
0.37972
0.379215
0.378724
0.378246
0.377781
0.377329
0.37689
0.376462
0.376046
0.37564
0.375245
0.37486
0.374484
0.374116
0.373757
0.373405
0.373059
0.37272
0.372387
0.372059
0.371734
0.371414
0.371097
0.370781
0.370468
0.370156
0.444429
0.421115
0.415841
0.41384
0.41237
0.411155
0.410057
0.409012
0.407991
0.406984
0.405985
0.404995
0.404013
0.40304
0.402077
0.401124
0.400182
0.399251
0.398333
0.397427
0.396535
0.395656
0.39479
0.39394
0.393103
0.392282
0.391477
0.390687
0.389913
0.389154
0.388412
0.387687
0.386977
0.386284
0.385608
0.384948
0.384304
0.383676
0.383064
0.382468
0.381888
0.381324
0.380774
0.38024
0.37972
0.379215
0.378724
0.378246
0.377781
0.377329
0.37689
0.376462
0.376046
0.37564
0.375245
0.37486
0.374484
0.374116
0.373757
0.373405
0.373059
0.37272
0.372387
0.372059
0.371734
0.371414
0.371097
0.370781
0.370468
0.370156
0.444429
0.421115
0.415841
0.41384
0.41237
0.411155
0.410057
0.409012
0.407991
0.406984
0.405985
0.404995
0.404013
0.40304
0.402077
0.401124
0.400182
0.399251
0.398333
0.397427
0.396535
0.395656
0.39479
0.39394
0.393103
0.392282
0.391477
0.390687
0.389913
0.389154
0.388412
0.387687
0.386977
0.386284
0.385608
0.384948
0.384304
0.383676
0.383064
0.382468
0.381888
0.381324
0.380774
0.38024
0.37972
0.379215
0.378724
0.378246
0.377781
0.377329
0.37689
0.376462
0.376046
0.37564
0.375245
0.37486
0.374484
0.374116
0.373757
0.373405
0.373059
0.37272
0.372387
0.372059
0.371734
0.371414
0.371097
0.370781
0.370468
0.370156
0.444429
0.421115
0.415841
0.41384
0.41237
0.411155
0.410057
0.409012
0.407991
0.406984
0.405985
0.404995
0.404013
0.40304
0.402077
0.401124
0.400182
0.399251
0.398333
0.397427
0.396535
0.395656
0.39479
0.39394
0.393103
0.392282
0.391477
0.390687
0.389913
0.389154
0.388412
0.387687
0.386977
0.386284
0.385608
0.384948
0.384304
0.383676
0.383064
0.382468
0.381888
0.381324
0.380774
0.38024
0.37972
0.379215
0.378724
0.378246
0.377781
0.377329
0.37689
0.376462
0.376046
0.37564
0.375245
0.37486
0.374484
0.374116
0.373757
0.373405
0.373059
0.37272
0.372387
0.372059
0.371734
0.371414
0.371097
0.370781
0.370468
0.370156
0.444429
0.421115
0.415841
0.41384
0.41237
0.411155
0.410057
0.409012
0.407991
0.406984
0.405985
0.404995
0.404013
0.40304
0.402077
0.401124
0.400182
0.399251
0.398333
0.397427
0.396535
0.395656
0.39479
0.39394
0.393103
0.392282
0.391477
0.390687
0.389913
0.389154
0.388412
0.387687
0.386977
0.386284
0.385608
0.384948
0.384304
0.383676
0.383064
0.382468
0.381888
0.381324
0.380774
0.38024
0.37972
0.379215
0.378724
0.378246
0.377781
0.377329
0.37689
0.376462
0.376046
0.37564
0.375245
0.37486
0.374484
0.374116
0.373757
0.373405
0.373059
0.37272
0.372387
0.372059
0.371734
0.371414
0.371097
0.370781
0.370468
0.370156
0.444429
0.421115
0.415841
0.41384
0.41237
0.411155
0.410057
0.409012
0.407991
0.406984
0.405985
0.404995
0.404013
0.40304
0.402077
0.401124
0.400182
0.399251
0.398333
0.397427
0.396535
0.395656
0.39479
0.39394
0.393103
0.392282
0.391477
0.390687
0.389913
0.389154
0.388412
0.387687
0.386977
0.386284
0.385608
0.384948
0.384304
0.383676
0.383064
0.382468
0.381888
0.381324
0.380774
0.38024
0.37972
0.379215
0.378724
0.378246
0.377781
0.377329
0.37689
0.376462
0.376046
0.37564
0.375245
0.37486
0.374484
0.374116
0.373757
0.373405
0.373059
0.37272
0.372387
0.372059
0.371734
0.371414
0.371097
0.370781
0.370468
0.370156
0.444429
0.421115
0.415841
0.41384
0.41237
0.411155
0.410057
0.409012
0.407991
0.406984
0.405985
0.404995
0.404013
0.40304
0.402077
0.401124
0.400182
0.399251
0.398333
0.397427
0.396535
0.395656
0.39479
0.39394
0.393103
0.392282
0.391477
0.390687
0.389913
0.389154
0.388412
0.387687
0.386977
0.386284
0.385608
0.384948
0.384304
0.383676
0.383064
0.382468
0.381888
0.381324
0.380774
0.38024
0.37972
0.379215
0.378724
0.378246
0.377781
0.377329
0.37689
0.376462
0.376046
0.37564
0.375245
0.37486
0.374484
0.374116
0.373757
0.373405
0.373059
0.37272
0.372387
0.372059
0.371734
0.371414
0.371097
0.370781
0.370468
0.370156
0.444429
0.421115
0.415841
0.41384
0.41237
0.411155
0.410057
0.409012
0.407991
0.406984
0.405985
0.404995
0.404013
0.40304
0.402077
0.401124
0.400182
0.399251
0.398333
0.397427
0.396535
0.395656
0.39479
0.39394
0.393103
0.392282
0.391477
0.390687
0.389913
0.389154
0.388412
0.387687
0.386977
0.386284
0.385608
0.384948
0.384304
0.383676
0.383064
0.382468
0.381888
0.381324
0.380774
0.38024
0.37972
0.379215
0.378724
0.378246
0.377781
0.377329
0.37689
0.376462
0.376046
0.37564
0.375245
0.37486
0.374484
0.374116
0.373757
0.373405
0.373059
0.37272
0.372387
0.372059
0.371734
0.371414
0.371097
0.370781
0.370468
0.370156
0.444429
0.421115
0.415841
0.41384
0.41237
0.411155
0.410057
0.409012
0.407991
0.406984
0.405985
0.404995
0.404013
0.40304
0.402077
0.401124
0.400182
0.399251
0.398333
0.397427
0.396535
0.395656
0.39479
0.39394
0.393103
0.392282
0.391477
0.390687
0.389913
0.389154
0.388412
0.387687
0.386977
0.386284
0.385608
0.384948
0.384304
0.383676
0.383064
0.382468
0.381888
0.381324
0.380774
0.38024
0.37972
0.379215
0.378724
0.378246
0.377781
0.377329
0.37689
0.376462
0.376046
0.37564
0.375245
0.37486
0.374484
0.374116
0.373757
0.373405
0.373059
0.37272
0.372387
0.372059
0.371734
0.371414
0.371097
0.370781
0.370468
0.370156
0.444429
0.421115
0.415841
0.41384
0.41237
0.411155
0.410057
0.409012
0.407991
0.406984
0.405985
0.404995
0.404013
0.40304
0.402077
0.401124
0.400182
0.399251
0.398333
0.397427
0.396535
0.395656
0.39479
0.39394
0.393103
0.392282
0.391477
0.390687
0.389913
0.389154
0.388412
0.387687
0.386977
0.386284
0.385608
0.384948
0.384304
0.383676
0.383064
0.382468
0.381888
0.381324
0.380774
0.38024
0.37972
0.379215
0.378724
0.378246
0.377781
0.377329
0.37689
0.376462
0.376046
0.37564
0.375245
0.37486
0.374484
0.374116
0.373757
0.373405
0.373059
0.37272
0.372387
0.372059
0.371734
0.371414
0.371097
0.370781
0.370468
0.370156
0.444429
0.421115
0.415841
0.41384
0.41237
0.411155
0.410057
0.409012
0.407991
0.406984
0.405985
0.404995
0.404013
0.40304
0.402077
0.401124
0.400182
0.399251
0.398333
0.397427
0.396535
0.395656
0.39479
0.39394
0.393103
0.392282
0.391477
0.390687
0.389913
0.389154
0.388412
0.387687
0.386977
0.386284
0.385608
0.384948
0.384304
0.383676
0.383064
0.382468
0.381888
0.381324
0.380774
0.38024
0.37972
0.379215
0.378724
0.378246
0.377781
0.377329
0.37689
0.376462
0.376046
0.37564
0.375245
0.37486
0.374484
0.374116
0.373757
0.373405
0.373059
0.37272
0.372387
0.372059
0.371734
0.371414
0.371097
0.370781
0.370468
0.370156
0.444429
0.421115
0.415841
0.41384
0.41237
0.411155
0.410057
0.409012
0.407991
0.406984
0.405985
0.404995
0.404013
0.40304
0.402077
0.401124
0.400182
0.399251
0.398333
0.397427
0.396535
0.395656
0.39479
0.39394
0.393103
0.392282
0.391477
0.390687
0.389913
0.389154
0.388412
0.387687
0.386977
0.386284
0.385608
0.384948
0.384304
0.383676
0.383064
0.382468
0.381888
0.381324
0.380774
0.38024
0.37972
0.379215
0.378724
0.378246
0.377781
0.377329
0.37689
0.376462
0.376046
0.37564
0.375245
0.37486
0.374484
0.374116
0.373757
0.373405
0.373059
0.37272
0.372387
0.372059
0.371734
0.371414
0.371097
0.370781
0.370468
0.370156
0.444429
0.421115
0.415841
0.41384
0.41237
0.411155
0.410057
0.409012
0.407991
0.406984
0.405985
0.404995
0.404013
0.40304
0.402077
0.401124
0.400182
0.399251
0.398333
0.397427
0.396535
0.395656
0.39479
0.39394
0.393103
0.392282
0.391477
0.390687
0.389913
0.389154
0.388412
0.387687
0.386977
0.386284
0.385608
0.384948
0.384304
0.383676
0.383064
0.382468
0.381888
0.381324
0.380774
0.38024
0.37972
0.379215
0.378724
0.378246
0.377781
0.377329
0.37689
0.376462
0.376046
0.37564
0.375245
0.37486
0.374484
0.374116
0.373757
0.373405
0.373059
0.37272
0.372387
0.372059
0.371734
0.371414
0.371097
0.370781
0.370468
0.370156
0.444429
0.421115
0.415841
0.41384
0.41237
0.411155
0.410057
0.409012
0.407991
0.406984
0.405985
0.404995
0.404013
0.40304
0.402077
0.401124
0.400182
0.399251
0.398333
0.397427
0.396535
0.395656
0.39479
0.39394
0.393103
0.392282
0.391477
0.390687
0.389913
0.389154
0.388412
0.387687
0.386977
0.386284
0.385608
0.384948
0.384304
0.383676
0.383064
0.382468
0.381888
0.381324
0.380774
0.38024
0.37972
0.379215
0.378724
0.378246
0.377781
0.377329
0.37689
0.376462
0.376046
0.37564
0.375245
0.37486
0.374484
0.374116
0.373757
0.373405
0.373059
0.37272
0.372387
0.372059
0.371734
0.371414
0.371097
0.370781
0.370468
0.370156
0.444429
0.421115
0.415841
0.41384
0.41237
0.411155
0.410057
0.409012
0.407991
0.406984
0.405985
0.404995
0.404013
0.40304
0.402077
0.401124
0.400182
0.399251
0.398333
0.397427
0.396535
0.395656
0.39479
0.39394
0.393103
0.392282
0.391477
0.390687
0.389913
0.389154
0.388412
0.387687
0.386977
0.386284
0.385608
0.384948
0.384304
0.383676
0.383064
0.382468
0.381888
0.381324
0.380774
0.38024
0.37972
0.379215
0.378724
0.378246
0.377781
0.377329
0.37689
0.376462
0.376046
0.37564
0.375245
0.37486
0.374484
0.374116
0.373757
0.373405
0.373059
0.37272
0.372387
0.372059
0.371734
0.371414
0.371097
0.370781
0.370468
0.370156
0.444429
0.421115
0.415841
0.41384
0.41237
0.411155
0.410057
0.409012
0.407991
0.406984
0.405985
0.404995
0.404013
0.40304
0.402077
0.401124
0.400182
0.399251
0.398333
0.397427
0.396535
0.395656
0.39479
0.39394
0.393103
0.392282
0.391477
0.390687
0.389913
0.389154
0.388412
0.387687
0.386977
0.386284
0.385608
0.384948
0.384304
0.383676
0.383064
0.382468
0.381888
0.381324
0.380774
0.38024
0.37972
0.379215
0.378724
0.378246
0.377781
0.377329
0.37689
0.376462
0.376046
0.37564
0.375245
0.37486
0.374484
0.374116
0.373757
0.373405
0.373059
0.37272
0.372387
0.372059
0.371734
0.371414
0.371097
0.370781
0.370468
0.370156
0.444429
0.421115
0.415841
0.41384
0.41237
0.411155
0.410057
0.409012
0.407991
0.406984
0.405985
0.404995
0.404013
0.40304
0.402077
0.401124
0.400182
0.399251