/*--------------------------------*- C++ -*----------------------------------*\
  =========                 |
  \\      /  F ield         | OpenFOAM: The Open Source CFD Toolbox
   \\    /   O peration     | Website:  https://openfoam.org
    \\  /    A nd           | Version:  13
     \\/     M anipulation  |
\*---------------------------------------------------------------------------*/
FoamFile
{
    format      ascii;
    class       volScalarField;
    location    "150";
    object      nut;
}
// * * * * * * * * * * * * * * * * * * * * * * * * * * * * * * * * * * * * * //

dimensions      [0 2 -1 0 0 0 0];

internalField   nonuniform List<scalar> 
315000
(
9.33211e-16
2.44451e-13
5.5796e-12
1.00192e-11
1.45374e-11
1.91462e-11
2.38597e-11
2.86904e-11
3.36472e-11
3.87347e-11
4.39525e-11
4.92952e-11
5.47521e-11
6.03079e-11
6.59426e-11
7.16322e-11
7.73487e-11
8.30612e-11
8.87359e-11
9.43374e-11
9.98285e-11
1.05171e-10
1.10328e-10
1.1526e-10
1.19931e-10
1.24306e-10
1.2835e-10
1.32031e-10
1.35321e-10
1.38194e-10
1.40625e-10
1.42596e-10
1.4409e-10
1.45096e-10
1.45605e-10
1.45614e-10
1.45121e-10
1.44131e-10
1.42652e-10
1.40696e-10
1.38279e-10
1.35421e-10
1.32144e-10
1.28474e-10
1.24441e-10
1.20076e-10
1.15414e-10
1.10489e-10
1.05338e-10
9.99999e-11
9.45121e-11
8.89124e-11
8.3238e-11
7.75246e-11
7.18058e-11
6.61126e-11
6.04731e-11
5.49113e-11
4.94473e-11
4.40966e-11
3.88698e-11
3.37723e-11
2.88046e-11
2.39621e-11
1.92356e-11
1.46123e-11
1.00773e-11
5.61718e-12
2.46421e-13
9.4145e-16
2.33643e-14
6.22336e-12
1.41789e-09
2.56618e-09
3.73018e-09
4.91573e-09
6.12778e-09
7.37022e-09
8.64569e-09
9.95552e-09
1.12997e-08
1.26769e-08
1.40844e-08
1.55182e-08
1.6973e-08
1.84427e-08
1.99199e-08
2.13965e-08
2.28638e-08
2.43124e-08
2.57327e-08
2.71149e-08
2.84491e-08
2.97253e-08
3.0934e-08
3.2066e-08
3.31124e-08
3.40651e-08
3.49164e-08
3.56596e-08
3.62887e-08
3.67986e-08
3.71851e-08
3.74452e-08
3.75766e-08
3.75784e-08
3.74505e-08
3.71939e-08
3.68107e-08
3.63041e-08
3.56782e-08
3.4938e-08
3.40895e-08
3.31394e-08
3.20953e-08
3.09655e-08
2.97586e-08
2.84839e-08
2.7151e-08
2.57698e-08
2.43501e-08
2.29018e-08
2.14345e-08
1.99576e-08
1.84798e-08
1.70093e-08
1.55533e-08
1.41181e-08
1.27089e-08
1.13298e-08
9.98342e-09
8.67122e-09
7.39317e-09
6.14792e-09
4.9328e-09
3.74391e-09
2.57623e-09
1.42383e-09
6.25124e-12
2.3472e-14
9.41496e-14
2.51145e-11
1.45856e-08
2.64204e-08
3.84308e-08
5.06888e-08
6.32563e-08
7.6183e-08
8.95043e-08
1.0324e-07
1.17394e-07
1.31954e-07
1.4689e-07
1.62159e-07
1.777e-07
1.93442e-07
2.09301e-07
2.25184e-07
2.40991e-07
2.56616e-07
2.7195e-07
2.86882e-07
3.01302e-07
3.151e-07
3.28171e-07
3.40412e-07
3.51729e-07
3.6203e-07
3.71235e-07
3.7927e-07
3.86069e-07
3.91579e-07
3.95754e-07
3.98562e-07
3.99979e-07
3.99994e-07
3.98607e-07
3.95829e-07
3.91683e-07
3.86201e-07
3.79429e-07
3.7142e-07
3.62239e-07
3.51959e-07
3.40663e-07
3.28439e-07
3.15384e-07
3.01598e-07
2.87189e-07
2.72264e-07
2.56935e-07
2.41312e-07
2.25505e-07
2.09618e-07
1.93753e-07
1.78003e-07
1.6245e-07
1.47169e-07
1.32217e-07
1.1764e-07
1.03466e-07
8.97091e-08
7.63651e-08
6.34141e-08
5.08206e-08
3.85351e-08
2.64954e-08
1.46288e-08
2.51924e-11
9.44476e-14
1.78562e-13
4.76352e-11
2.76608e-08
5.01212e-08
7.29643e-08
9.63555e-08
1.20438e-07
1.4533e-07
1.71116e-07
1.9785e-07
2.25549e-07
2.54192e-07
2.83724e-07
3.1405e-07
3.45045e-07
3.76554e-07
4.08392e-07
4.40359e-07
4.72235e-07
5.03794e-07
5.34803e-07
5.65026e-07
5.94231e-07
6.22192e-07
6.48687e-07
6.73508e-07
6.96454e-07
7.17344e-07
7.36009e-07
7.52299e-07
7.66084e-07
7.77252e-07
7.85713e-07
7.91401e-07
7.94268e-07
7.94292e-07
7.91473e-07
7.85833e-07
7.77418e-07
7.66295e-07
7.52554e-07
7.36304e-07
7.17677e-07
6.96823e-07
6.73908e-07
6.49116e-07
6.22645e-07
5.94705e-07
5.65515e-07
5.35304e-07
5.04303e-07
4.72747e-07
4.40869e-07
4.08896e-07
3.77047e-07
3.45524e-07
3.1451e-07
2.84162e-07
2.54605e-07
2.25932e-07
1.98201e-07
1.71433e-07
1.4561e-07
1.20679e-07
9.65557e-08
7.31217e-08
5.02334e-08
2.77252e-08
4.77512e-11
1.79005e-13
2.77062e-13
7.39174e-11
4.29097e-08
7.77545e-08
1.13236e-07
1.49643e-07
1.87223e-07
2.26181e-07
2.66668e-07
3.08779e-07
3.52545e-07
3.97937e-07
4.44859e-07
4.93158e-07
5.42618e-07
5.92975e-07
6.43923e-07
6.95123e-07
7.46219e-07
7.96843e-07
8.4662e-07
8.95174e-07
9.42133e-07
9.87126e-07
1.02979e-06
1.06979e-06
1.10679e-06
1.14049e-06
1.17061e-06
1.19691e-06
1.21916e-06
1.23719e-06
1.25086e-06
1.26004e-06
1.26466e-06
1.26469e-06
1.26013e-06
1.25101e-06
1.23741e-06
1.21944e-06
1.19724e-06
1.171e-06
1.14093e-06
1.10727e-06
1.07031e-06
1.03035e-06
9.87715e-07
9.42749e-07
8.95811e-07
8.47271e-07
7.97504e-07
7.46884e-07
6.95786e-07
6.44578e-07
5.93617e-07
5.4324e-07
4.93756e-07
4.45428e-07
3.98471e-07
3.53041e-07
3.09233e-07
2.67077e-07
2.26541e-07
1.87533e-07
1.49899e-07
1.13438e-07
7.78976e-08
4.29916e-08
7.40651e-11
2.77628e-13
3.84974e-13
1.02713e-10
5.96006e-08
1.07973e-07
1.57246e-07
2.07841e-07
2.60125e-07
3.14395e-07
3.7087e-07
4.29684e-07
4.90879e-07
5.54404e-07
6.20116e-07
6.87778e-07
7.57073e-07
8.27611e-07
8.98948e-07
9.70606e-07
1.04208e-06
1.11288e-06
1.18247e-06
1.25034e-06
1.31597e-06
1.37886e-06
1.43849e-06
1.49439e-06
1.54609e-06
1.59318e-06
1.63526e-06
1.67199e-06
1.70307e-06
1.72825e-06
1.74732e-06
1.76013e-06
1.76658e-06
1.76662e-06
1.76024e-06
1.7475e-06
1.7285e-06
1.70339e-06
1.67238e-06
1.63571e-06
1.59369e-06
1.54665e-06
1.495e-06
1.43914e-06
1.37954e-06
1.31669e-06
1.25108e-06
1.18322e-06
1.11365e-06
1.04286e-06
9.71379e-07
8.99713e-07
8.2836e-07
7.57801e-07
6.88478e-07
6.20781e-07
5.5503e-07
4.9146e-07
4.30216e-07
3.71348e-07
3.14816e-07
2.60486e-07
2.0814e-07
1.5748e-07
1.0814e-07
5.9696e-08
1.02885e-10
3.85634e-13
4.95518e-13
1.32212e-10
7.66814e-08
1.38862e-07
2.02183e-07
2.67204e-07
3.34409e-07
4.04185e-07
4.76813e-07
5.52458e-07
6.31162e-07
7.12845e-07
7.97298e-07
8.84195e-07
9.73102e-07
1.0635e-06
1.1548e-06
1.2464e-06
1.33765e-06
1.42791e-06
1.51654e-06
1.6029e-06
1.68633e-06
1.7662e-06
1.84188e-06
1.91277e-06
1.97831e-06
2.03795e-06
2.09123e-06
2.13771e-06
2.17703e-06
2.20887e-06
2.23298e-06
2.24917e-06
2.25732e-06
2.25736e-06
2.24929e-06
2.23318e-06
2.20914e-06
2.17738e-06
2.13813e-06
2.09171e-06
2.0385e-06
1.97891e-06
1.91343e-06
1.84258e-06
1.76694e-06
1.68711e-06
1.6037e-06
1.51737e-06
1.42875e-06
1.33849e-06
1.24724e-06
1.15564e-06
1.06432e-06
9.73896e-07
8.84959e-07
7.98026e-07
7.1353e-07
6.31799e-07
5.5304e-07
4.77337e-07
4.04647e-07
3.34805e-07
2.67532e-07
2.02438e-07
1.39044e-07
7.67855e-08
1.32401e-10
4.96242e-13
6.01867e-13
1.60595e-10
9.3098e-08
1.68514e-07
2.45273e-07
3.24066e-07
4.05485e-07
4.89997e-07
5.77938e-07
6.69495e-07
7.64702e-07
8.63439e-07
9.6543e-07
1.07025e-06
1.17736e-06
1.2861e-06
1.39576e-06
1.50561e-06
1.61488e-06
1.72281e-06
1.82864e-06
1.93161e-06
2.03099e-06
2.12601e-06
2.21597e-06
2.30016e-06
2.37792e-06
2.44865e-06
2.51179e-06
2.56685e-06
2.6134e-06
2.65109e-06
2.67962e-06
2.69877e-06
2.70841e-06
2.70845e-06
2.6989e-06
2.67982e-06
2.65137e-06
2.61376e-06
2.56728e-06
2.51229e-06
2.44921e-06
2.37854e-06
2.30083e-06
2.21669e-06
2.12678e-06
2.03179e-06
1.93244e-06
1.82949e-06
1.72367e-06
1.61575e-06
1.50648e-06
1.39663e-06
1.28695e-06
1.17818e-06
1.07105e-06
9.66188e-07
8.64153e-07
7.65366e-07
6.70102e-07
5.78485e-07
4.90479e-07
4.05898e-07
3.24407e-07
2.45539e-07
1.68703e-07
9.32062e-08
1.60792e-10
6.02625e-13
6.98378e-13
1.86356e-10
1.07983e-07
1.95371e-07
2.84262e-07
3.75466e-07
4.6967e-07
5.67411e-07
6.69068e-07
7.74844e-07
8.84761e-07
9.98655e-07
1.11618e-06
1.23683e-06
1.35995e-06
1.48477e-06
1.61048e-06
1.73621e-06
1.86111e-06
1.98431e-06
2.10496e-06
2.22221e-06
2.33523e-06
2.44319e-06
2.5453e-06
2.64078e-06
2.72891e-06
2.80902e-06
2.8805e-06
2.9428e-06
2.99545e-06
3.03806e-06
3.07031e-06
3.09196e-06
3.10284e-06
3.10288e-06
3.09208e-06
3.07051e-06
3.03834e-06
2.99581e-06
2.94323e-06
2.88099e-06
2.80958e-06
2.72954e-06
2.64146e-06
2.54603e-06
2.44396e-06
2.33603e-06
2.22304e-06
2.10581e-06
1.98518e-06
1.86198e-06
1.73709e-06
1.61135e-06
1.48562e-06
1.36078e-06
1.23763e-06
1.11695e-06
9.99375e-07
8.8543e-07
7.75457e-07
6.69619e-07
5.67896e-07
4.70085e-07
3.75809e-07
2.84529e-07
1.9556e-07
1.08092e-07
1.86555e-10
6.99144e-13
7.8128e-13
2.08487e-10
1.20761e-07
2.18404e-07
3.17672e-07
4.19476e-07
5.24582e-07
6.33589e-07
7.46907e-07
8.6475e-07
9.87125e-07
1.11383e-06
1.24446e-06
1.37842e-06
1.51496e-06
1.65324e-06
1.79233e-06
1.93129e-06
2.06916e-06
2.20501e-06
2.33791e-06
2.46693e-06
2.59118e-06
2.70977e-06
2.82184e-06
2.92656e-06
3.02317e-06
3.11093e-06
3.1892e-06
3.2574e-06
3.31502e-06
3.36163e-06
3.39691e-06
3.42058e-06
3.43248e-06
3.43252e-06
3.4207e-06
3.39711e-06
3.36191e-06
3.31536e-06
3.25782e-06
3.18969e-06
3.11148e-06
3.02377e-06
2.92722e-06
2.82255e-06
2.71052e-06
2.59197e-06
2.46775e-06
2.33874e-06
2.20586e-06
2.07002e-06
1.93215e-06
1.79318e-06
1.65408e-06
1.51578e-06
1.3792e-06
1.24521e-06
1.11454e-06
9.87784e-07
8.65354e-07
7.4745e-07
6.34067e-07
5.24992e-07
4.19813e-07
3.17935e-07
2.1859e-07
1.20868e-07
2.08683e-10
7.82036e-13
8.48876e-13
2.26536e-10
1.31175e-07
2.37162e-07
3.44864e-07
4.55274e-07
5.69224e-07
6.87358e-07
8.10114e-07
9.37712e-07
1.07015e-06
1.20718e-06
1.34835e-06
1.493e-06
1.64032e-06
1.78937e-06
1.93916e-06
2.08867e-06
2.23688e-06
2.3828e-06
2.52542e-06
2.66378e-06
2.79692e-06
2.92392e-06
3.04385e-06
3.15588e-06
3.25916e-06
3.35296e-06
3.43658e-06
3.50942e-06
3.57095e-06
3.62072e-06
3.65837e-06
3.68364e-06
3.69634e-06
3.69637e-06
3.68375e-06
3.65856e-06
3.62098e-06
3.57129e-06
3.50983e-06
3.43705e-06
3.35349e-06
3.25975e-06
3.15651e-06
3.04454e-06
2.92464e-06
2.79768e-06
2.66457e-06
2.52623e-06
2.38362e-06
2.23772e-06
2.0895e-06
1.93999e-06
1.79018e-06
1.64111e-06
1.49377e-06
1.34908e-06
1.20787e-06
1.07079e-06
9.38301e-07
8.10643e-07
6.87823e-07
5.69622e-07
4.55602e-07
3.45119e-07
2.37342e-07
1.31278e-07
2.26726e-10
8.49612e-13
9.01325e-13
2.40543e-10
1.39254e-07
2.51706e-07
3.65938e-07
4.83007e-07
6.03796e-07
7.28984e-07
8.59031e-07
9.94161e-07
1.13435e-06
1.27934e-06
1.42863e-06
1.58151e-06
1.7371e-06
1.89442e-06
2.05241e-06
2.21001e-06
2.36614e-06
2.51975e-06
2.6698e-06
2.81529e-06
2.95522e-06
3.08862e-06
3.21456e-06
3.33214e-06
3.44051e-06
3.5389e-06
3.62659e-06
3.70296e-06
3.76746e-06
3.81963e-06
3.85909e-06
3.88557e-06
3.89887e-06
3.89891e-06
3.88568e-06
3.85927e-06
3.81988e-06
3.76779e-06
3.70335e-06
3.62704e-06
3.53941e-06
3.44107e-06
3.33275e-06
3.21522e-06
3.08932e-06
2.95596e-06
2.81605e-06
2.67059e-06
2.52055e-06
2.36695e-06
2.21082e-06
2.05322e-06
1.89521e-06
1.73787e-06
1.58225e-06
1.42934e-06
1.28001e-06
1.13498e-06
9.94732e-07
8.59545e-07
7.29435e-07
6.04181e-07
4.83324e-07
3.66184e-07
2.5188e-07
1.39354e-07
2.40727e-10
9.02039e-13
9.40142e-13
2.50912e-10
1.45233e-07
2.62466e-07
3.81524e-07
5.03514e-07
6.29357e-07
7.59758e-07
8.95192e-07
1.03588e-06
1.18181e-06
1.33267e-06
1.48795e-06
1.6469e-06
1.80859e-06
1.972e-06
2.13604e-06
2.29959e-06
2.46154e-06
2.62081e-06
2.77633e-06
2.92706e-06
3.07197e-06
3.21008e-06
3.34043e-06
3.46208e-06
3.57419e-06
3.67595e-06
3.76663e-06
3.8456e-06
3.91228e-06
3.9662e-06
4.00699e-06
4.03436e-06
4.0481e-06
4.04814e-06
4.03446e-06
4.00717e-06
3.96645e-06
3.91259e-06
3.84597e-06
3.76707e-06
3.67644e-06
3.57474e-06
3.46268e-06
3.34107e-06
3.21076e-06
3.07269e-06
2.9278e-06
2.77709e-06
2.62159e-06
2.46233e-06
2.30037e-06
2.13682e-06
1.97277e-06
1.80934e-06
1.64762e-06
1.48864e-06
1.33332e-06
1.18241e-06
1.03644e-06
8.95691e-07
7.60196e-07
6.29731e-07
5.03822e-07
3.81762e-07
2.62634e-07
1.45329e-07
2.51091e-10
9.40836e-13
9.67601e-13
2.5825e-10
1.49463e-07
2.70077e-07
3.92549e-07
5.1802e-07
6.47437e-07
7.81527e-07
9.20773e-07
1.0654e-06
1.21538e-06
1.37041e-06
1.52994e-06
1.69318e-06
1.8592e-06
2.02692e-06
2.19524e-06
2.363e-06
2.52908e-06
2.69235e-06
2.85174e-06
3.00618e-06
3.15463e-06
3.29607e-06
3.42953e-06
3.55408e-06
3.66883e-06
3.77297e-06
3.86578e-06
3.94658e-06
4.0148e-06
4.06997e-06
4.1117e-06
4.1397e-06
4.15376e-06
4.15379e-06
4.1398e-06
4.11187e-06
4.07021e-06
4.01511e-06
3.94694e-06
3.8662e-06
3.77346e-06
3.66936e-06
3.55466e-06
3.43016e-06
3.29673e-06
3.15532e-06
3.0069e-06
2.85249e-06
2.69311e-06
2.52984e-06
2.36377e-06
2.196e-06
2.02767e-06
1.85993e-06
1.69389e-06
1.53061e-06
1.37105e-06
1.21598e-06
1.06595e-06
9.21261e-07
7.81955e-07
6.47802e-07
5.18319e-07
3.92781e-07
2.70241e-07
1.49557e-07
2.58424e-10
9.68279e-13
9.86207e-13
2.63223e-10
1.5233e-07
2.75235e-07
4.00021e-07
5.27852e-07
6.59694e-07
7.96288e-07
9.38125e-07
1.08543e-06
1.23817e-06
1.39603e-06
1.55845e-06
1.72462e-06
1.89357e-06
2.06424e-06
2.23547e-06
2.40611e-06
2.575e-06
2.74101e-06
2.90304e-06
3.06001e-06
3.21086e-06
3.35458e-06
3.49017e-06
3.61668e-06
3.73324e-06
3.83902e-06
3.93327e-06
4.01532e-06
4.0846e-06
4.14063e-06
4.183e-06
4.21142e-06
4.2257e-06
4.22573e-06
4.21152e-06
4.18317e-06
4.14086e-06
4.0849e-06
4.01568e-06
3.93369e-06
3.83949e-06
3.73377e-06
3.61726e-06
3.49078e-06
3.35523e-06
3.21154e-06
3.06072e-06
2.90377e-06
2.74175e-06
2.57575e-06
2.40686e-06
2.23622e-06
2.06498e-06
1.8943e-06
1.72531e-06
1.55911e-06
1.39666e-06
1.23876e-06
1.08597e-06
9.38605e-07
7.96709e-07
6.60053e-07
5.28146e-07
4.00248e-07
2.75396e-07
1.52422e-07
2.63394e-10
9.86872e-13
9.98303e-13
2.66457e-10
1.54195e-07
2.78591e-07
4.04882e-07
5.3425e-07
6.67673e-07
8.05901e-07
9.49429e-07
1.09849e-06
1.25303e-06
1.41275e-06
1.57705e-06
1.74514e-06
1.91603e-06
2.08862e-06
2.26177e-06
2.43429e-06
2.60503e-06
2.77283e-06
2.9366e-06
3.09523e-06
3.24767e-06
3.39288e-06
3.52987e-06
3.65769e-06
3.77544e-06
3.88229e-06
3.97749e-06
4.06037e-06
4.13035e-06
4.18693e-06
4.22973e-06
4.25844e-06
4.27286e-06
4.27289e-06
4.25854e-06
4.2299e-06
4.18716e-06
4.13064e-06
4.06073e-06
3.9779e-06
3.88276e-06
3.77596e-06
3.65826e-06
3.53048e-06
3.39353e-06
3.24835e-06
3.09593e-06
2.93732e-06
2.77357e-06
2.60577e-06
2.43504e-06
2.26251e-06
2.08935e-06
1.91674e-06
1.74583e-06
1.57771e-06
1.41337e-06
1.25361e-06
1.09902e-06
9.49903e-07
8.06317e-07
6.68028e-07
5.3454e-07
4.05107e-07
2.78749e-07
1.54286e-07
2.66626e-10
9.98961e-13
1.00586e-12
2.68479e-10
1.55361e-07
2.80689e-07
4.07923e-07
5.38253e-07
6.72668e-07
8.11921e-07
9.56512e-07
1.10667e-06
1.26235e-06
1.42323e-06
1.58873e-06
1.75803e-06
1.93014e-06
2.10396e-06
2.27831e-06
2.45203e-06
2.62394e-06
2.79288e-06
2.95775e-06
3.11744e-06
3.27088e-06
3.41705e-06
3.55493e-06
3.68357e-06
3.80207e-06
3.9096e-06
4.00541e-06
4.08882e-06
4.15924e-06
4.21618e-06
4.25925e-06
4.28813e-06
4.30265e-06
4.30268e-06
4.28823e-06
4.25941e-06
4.21641e-06
4.15953e-06
4.08917e-06
4.00582e-06
3.91007e-06
3.80259e-06
3.68413e-06
3.55553e-06
3.41769e-06
3.27155e-06
3.11813e-06
2.95846e-06
2.79361e-06
2.62468e-06
2.45277e-06
2.27905e-06
2.10468e-06
1.93085e-06
1.75872e-06
1.58939e-06
1.42385e-06
1.26293e-06
1.1072e-06
9.56983e-07
8.12335e-07
6.7302e-07
5.38542e-07
4.08146e-07
2.80847e-07
1.55451e-07
2.68647e-10
1.00652e-12
1.01041e-12
2.69696e-10
1.56064e-07
2.81953e-07
4.09755e-07
5.40666e-07
6.7568e-07
8.15553e-07
9.60788e-07
1.11161e-06
1.26799e-06
1.42958e-06
1.5958e-06
1.76584e-06
1.93869e-06
2.11325e-06
2.28835e-06
2.4628e-06
2.63542e-06
2.80506e-06
2.9706e-06
3.13093e-06
3.285e-06
3.43174e-06
3.57017e-06
3.69932e-06
3.81829e-06
3.92624e-06
4.02242e-06
4.10615e-06
4.17684e-06
4.234e-06
4.27723e-06
4.30623e-06
4.3208e-06
4.32083e-06
4.30633e-06
4.2774e-06
4.23423e-06
4.17713e-06
4.1065e-06
4.02283e-06
3.9267e-06
3.8188e-06
3.69988e-06
3.57077e-06
3.43238e-06
3.28566e-06
3.13163e-06
2.97131e-06
2.80579e-06
2.63616e-06
2.46354e-06
2.28909e-06
2.11398e-06
1.9394e-06
1.76652e-06
1.59646e-06
1.43019e-06
1.26856e-06
1.11214e-06
9.61258e-07
8.15965e-07
6.76031e-07
5.40954e-07
4.09977e-07
2.8211e-07
1.56153e-07
2.69863e-10
1.01107e-12
1.01306e-12
2.70403e-10
1.56471e-07
2.82687e-07
4.10819e-07
5.42069e-07
6.77432e-07
8.17667e-07
9.63278e-07
1.1145e-06
1.27127e-06
1.43328e-06
1.59993e-06
1.7704e-06
1.9437e-06
2.11869e-06
2.29423e-06
2.4691e-06
2.64215e-06
2.8122e-06
2.97814e-06
3.13886e-06
3.29328e-06
3.44038e-06
3.57913e-06
3.70857e-06
3.82782e-06
3.93602e-06
4.03242e-06
4.11634e-06
4.18719e-06
4.24449e-06
4.28782e-06
4.31688e-06
4.33148e-06
4.33152e-06
4.31698e-06
4.28798e-06
4.24472e-06
4.18749e-06
4.11669e-06
4.03283e-06
3.93648e-06
3.82833e-06
3.70913e-06
3.57973e-06
3.44101e-06
3.29395e-06
3.13955e-06
2.97885e-06
2.81293e-06
2.64288e-06
2.46984e-06
2.29496e-06
2.11942e-06
1.9444e-06
1.77109e-06
1.60059e-06
1.4339e-06
1.27184e-06
1.11502e-06
9.63747e-07
8.18079e-07
6.77782e-07
5.42356e-07
4.11041e-07
2.82844e-07
1.56561e-07
2.7057e-10
1.0137e-12
1.01454e-12
2.708e-10
1.567e-07
2.83099e-07
4.11417e-07
5.42857e-07
6.78416e-07
8.18856e-07
9.64679e-07
1.11612e-06
1.27312e-06
1.43537e-06
1.60226e-06
1.77298e-06
1.94652e-06
2.12177e-06
2.29755e-06
2.47267e-06
2.64596e-06
2.81625e-06
2.98241e-06
3.14335e-06
3.29799e-06
3.44528e-06
3.58421e-06
3.71383e-06
3.83323e-06
3.94158e-06
4.0381e-06
4.12214e-06
4.19308e-06
4.25045e-06
4.29384e-06
4.32294e-06
4.33756e-06
4.33759e-06
4.32304e-06
4.294e-06
4.25068e-06
4.19338e-06
4.12249e-06
4.03851e-06
3.94204e-06
3.83375e-06
3.71439e-06
3.58481e-06
3.44591e-06
3.29865e-06
3.14404e-06
2.98313e-06
2.81698e-06
2.6467e-06
2.47341e-06
2.29829e-06
2.12249e-06
1.94723e-06
1.77366e-06
1.60292e-06
1.43598e-06
1.27369e-06
1.11664e-06
9.65148e-07
8.19267e-07
6.78766e-07
5.43144e-07
4.11639e-07
2.83256e-07
1.56789e-07
2.70966e-10
1.01518e-12
1.01534e-12
2.71014e-10
1.56824e-07
2.83323e-07
4.11741e-07
5.43284e-07
6.78951e-07
8.19502e-07
9.65441e-07
1.117e-06
1.27413e-06
1.43651e-06
1.60354e-06
1.77439e-06
1.94807e-06
2.12345e-06
2.29937e-06
2.47463e-06
2.64805e-06
2.81847e-06
2.98476e-06
3.14582e-06
3.30057e-06
3.44797e-06
3.58701e-06
3.71672e-06
3.83621e-06
3.94464e-06
4.04123e-06
4.12533e-06
4.19632e-06
4.25373e-06
4.29715e-06
4.32628e-06
4.34091e-06
4.34094e-06
4.32638e-06
4.29732e-06
4.25396e-06
4.19662e-06
4.12568e-06
4.04164e-06
3.9451e-06
3.83672e-06
3.71728e-06
3.58761e-06
3.44861e-06
3.30124e-06
3.14651e-06
2.98547e-06
2.8192e-06
2.64879e-06
2.47537e-06
2.30011e-06
2.12418e-06
1.94877e-06
1.77507e-06
1.60419e-06
1.43712e-06
1.2747e-06
1.11752e-06
9.6591e-07
8.19913e-07
6.79301e-07
5.43571e-07
4.11963e-07
2.83479e-07
1.56913e-07
2.71181e-10
1.01599e-12
1.01576e-12
2.71127e-10
1.56889e-07
2.8344e-07
4.11911e-07
5.43509e-07
6.79232e-07
8.19842e-07
9.65842e-07
1.11747e-06
1.27466e-06
1.43711e-06
1.60421e-06
1.77513e-06
1.94888e-06
2.12434e-06
2.30034e-06
2.47567e-06
2.64916e-06
2.81965e-06
2.986e-06
3.14713e-06
3.30194e-06
3.4494e-06
3.5885e-06
3.71826e-06
3.8378e-06
3.94626e-06
4.0429e-06
4.12703e-06
4.19805e-06
4.25548e-06
4.29892e-06
4.32805e-06
4.34269e-06
4.34272e-06
4.32815e-06
4.29908e-06
4.25571e-06
4.19834e-06
4.12738e-06
4.04331e-06
3.94673e-06
3.83831e-06
3.71882e-06
3.5891e-06
3.45004e-06
3.30261e-06
3.14782e-06
2.98672e-06
2.82037e-06
2.64989e-06
2.47641e-06
2.30107e-06
2.12507e-06
1.94959e-06
1.77582e-06
1.60486e-06
1.43772e-06
1.27524e-06
1.11799e-06
9.66311e-07
8.20253e-07
6.79582e-07
5.43796e-07
4.12133e-07
2.83596e-07
1.56979e-07
2.71294e-10
1.01641e-12
1.01597e-12
2.71184e-10
1.56922e-07
2.835e-07
4.11998e-07
5.43624e-07
6.79375e-07
8.20015e-07
9.66047e-07
1.1177e-06
1.27494e-06
1.43742e-06
1.60455e-06
1.77551e-06
1.9493e-06
2.1248e-06
2.30083e-06
2.4762e-06
2.64973e-06
2.82025e-06
2.98665e-06
3.1478e-06
3.30265e-06
3.45014e-06
3.58926e-06
3.71906e-06
3.83862e-06
3.94711e-06
4.04376e-06
4.1279e-06
4.19895e-06
4.25639e-06
4.29983e-06
4.32897e-06
4.34361e-06
4.34365e-06
4.32907e-06
4.3e-06
4.25662e-06
4.19924e-06
4.12826e-06
4.04417e-06
3.94757e-06
3.83913e-06
3.71962e-06
3.58986e-06
3.45078e-06
3.30332e-06
3.1485e-06
2.98736e-06
2.82098e-06
2.65046e-06
2.47694e-06
2.30157e-06
2.12553e-06
1.95001e-06
1.7762e-06
1.6052e-06
1.43803e-06
1.27551e-06
1.11823e-06
9.66517e-07
8.20426e-07
6.79726e-07
5.43911e-07
4.1222e-07
2.83656e-07
1.57012e-07
2.71351e-10
1.01662e-12
1.01608e-12
2.71213e-10
1.56939e-07
2.83529e-07
4.12041e-07
5.4368e-07
6.79446e-07
8.20101e-07
9.66149e-07
1.11782e-06
1.27507e-06
1.43757e-06
1.60472e-06
1.7757e-06
1.94951e-06
2.12503e-06
2.30108e-06
2.47647e-06
2.65001e-06
2.82056e-06
2.98697e-06
3.14814e-06
3.30301e-06
3.45051e-06
3.58965e-06
3.71945e-06
3.83903e-06
3.94753e-06
4.04419e-06
4.12834e-06
4.19939e-06
4.25684e-06
4.30029e-06
4.32943e-06
4.34407e-06
4.34411e-06
4.32953e-06
4.30045e-06
4.25707e-06
4.19968e-06
4.1287e-06
4.0446e-06
3.94799e-06
3.83954e-06
3.72001e-06
3.59025e-06
3.45115e-06
3.30367e-06
3.14884e-06
2.98768e-06
2.82128e-06
2.65075e-06
2.47721e-06
2.30181e-06
2.12575e-06
1.95022e-06
1.77639e-06
1.60537e-06
1.43818e-06
1.27564e-06
1.11834e-06
9.66618e-07
8.20512e-07
6.79796e-07
5.43967e-07
4.12263e-07
2.83685e-07
1.57028e-07
2.71379e-10
1.01673e-12
1.01613e-12
2.71226e-10
1.56947e-07
2.83543e-07
4.12061e-07
5.43707e-07
6.7948e-07
8.20142e-07
9.66198e-07
1.11788e-06
1.27514e-06
1.43764e-06
1.60481e-06
1.7758e-06
1.94961e-06
2.12514e-06
2.3012e-06
2.4766e-06
2.65015e-06
2.8207e-06
2.98712e-06
3.14831e-06
3.30318e-06
3.45069e-06
3.58983e-06
3.71965e-06
3.83923e-06
3.94773e-06
4.0444e-06
4.12856e-06
4.19961e-06
4.25706e-06
4.30051e-06
4.32966e-06
4.3443e-06
4.34433e-06
4.32976e-06
4.30068e-06
4.25729e-06
4.1999e-06
4.12891e-06
4.04481e-06
3.9482e-06
3.83974e-06
3.72021e-06
3.59043e-06
3.45133e-06
3.30385e-06
3.149e-06
2.98784e-06
2.82143e-06
2.65089e-06
2.47734e-06
2.30193e-06
2.12586e-06
1.95032e-06
1.77648e-06
1.60546e-06
1.43826e-06
1.27571e-06
1.1184e-06
9.66667e-07
8.20554e-07
6.7983e-07
5.43994e-07
4.12283e-07
2.837e-07
1.57036e-07
2.71393e-10
1.01678e-12
1.01615e-12
2.71233e-10
1.5695e-07
2.8355e-07
4.12071e-07
5.4372e-07
6.79496e-07
8.20161e-07
9.66221e-07
1.11791e-06
1.27517e-06
1.43768e-06
1.60484e-06
1.77584e-06
1.94966e-06
2.12519e-06
2.30126e-06
2.47666e-06
2.65022e-06
2.82077e-06
2.9872e-06
3.14838e-06
3.30326e-06
3.45077e-06
3.58992e-06
3.71974e-06
3.83932e-06
3.94783e-06
4.0445e-06
4.12866e-06
4.19971e-06
4.25717e-06
4.30062e-06
4.32977e-06
4.34441e-06
4.34444e-06
4.32987e-06
4.30078e-06
4.2574e-06
4.20001e-06
4.12901e-06
4.04491e-06
3.94829e-06
3.83983e-06
3.7203e-06
3.59052e-06
3.45141e-06
3.30393e-06
3.14908e-06
2.98791e-06
2.8215e-06
2.65095e-06
2.4774e-06
2.30199e-06
2.12592e-06
1.95037e-06
1.77652e-06
1.6055e-06
1.43829e-06
1.27574e-06
1.11843e-06
9.6669e-07
8.20573e-07
6.79846e-07
5.44007e-07
4.12293e-07
2.83706e-07
1.57039e-07
2.71399e-10
1.0168e-12
1.01616e-12
2.71235e-10
1.56952e-07
2.83553e-07
4.12075e-07
5.43726e-07
6.79503e-07
8.2017e-07
9.66231e-07
1.11792e-06
1.27518e-06
1.43769e-06
1.60486e-06
1.77586e-06
1.94968e-06
2.12522e-06
2.30128e-06
2.47669e-06
2.65025e-06
2.8208e-06
2.98723e-06
3.14842e-06
3.3033e-06
3.45081e-06
3.58996e-06
3.71978e-06
3.83937e-06
3.94787e-06
4.04455e-06
4.12871e-06
4.19976e-06
4.25722e-06
4.30067e-06
4.32981e-06
4.34446e-06
4.34449e-06
4.32991e-06
4.30083e-06
4.25744e-06
4.20005e-06
4.12906e-06
4.04496e-06
3.94834e-06
3.83988e-06
3.72034e-06
3.59056e-06
3.45145e-06
3.30396e-06
3.14911e-06
2.98794e-06
2.82153e-06
2.65098e-06
2.47742e-06
2.30202e-06
2.12594e-06
1.95039e-06
1.77654e-06
1.60551e-06
1.43831e-06
1.27575e-06
1.11844e-06
9.667e-07
8.20582e-07
6.79854e-07
5.44013e-07
4.12297e-07
2.83709e-07
1.57041e-07
2.71402e-10
1.01681e-12
1.01617e-12
2.71237e-10
1.56953e-07
2.83554e-07
4.12077e-07
5.43728e-07
6.79506e-07
8.20174e-07
9.66235e-07
1.11792e-06
1.27519e-06
1.4377e-06
1.60487e-06
1.77587e-06
1.94969e-06
2.12523e-06
2.30129e-06
2.4767e-06
2.65026e-06
2.82082e-06
2.98725e-06
3.14844e-06
3.30331e-06
3.45083e-06
3.58998e-06
3.7198e-06
3.83938e-06
3.94789e-06
4.04457e-06
4.12873e-06
4.19978e-06
4.25724e-06
4.30069e-06
4.32984e-06
4.34448e-06
4.34451e-06
4.32994e-06
4.30085e-06
4.25747e-06
4.20008e-06
4.12908e-06
4.04498e-06
3.94836e-06
3.8399e-06
3.72036e-06
3.59058e-06
3.45147e-06
3.30398e-06
3.14913e-06
2.98796e-06
2.82155e-06
2.651e-06
2.47744e-06
2.30203e-06
2.12595e-06
1.9504e-06
1.77655e-06
1.60552e-06
1.43832e-06
1.27576e-06
1.11845e-06
9.66705e-07
8.20585e-07
6.79857e-07
5.44015e-07
4.12299e-07
2.8371e-07
1.57042e-07
2.71403e-10
1.01682e-12
1.01617e-12
2.71237e-10
1.56953e-07
2.83555e-07
4.12078e-07
5.43729e-07
6.79508e-07
8.20176e-07
9.66237e-07
1.11792e-06
1.27519e-06
1.4377e-06
1.60487e-06
1.77587e-06
1.9497e-06
2.12523e-06
2.3013e-06
2.4767e-06
2.65027e-06
2.82083e-06
2.98725e-06
3.14844e-06
3.30332e-06
3.45084e-06
3.58999e-06
3.71981e-06
3.83939e-06
3.9479e-06
4.04458e-06
4.12874e-06
4.19979e-06
4.25725e-06
4.3007e-06
4.32985e-06
4.34449e-06
4.34452e-06
4.32995e-06
4.30086e-06
4.25748e-06
4.20008e-06
4.12909e-06
4.04499e-06
3.94837e-06
3.83991e-06
3.72037e-06
3.59059e-06
3.45148e-06
3.30399e-06
3.14914e-06
2.98797e-06
2.82155e-06
2.651e-06
2.47744e-06
2.30203e-06
2.12596e-06
1.9504e-06
1.77655e-06
1.60553e-06
1.43832e-06
1.27576e-06
1.11845e-06
9.66707e-07
8.20587e-07
6.79858e-07
5.44016e-07
4.123e-07
2.83711e-07
1.57042e-07
2.71404e-10
1.01682e-12
1.01617e-12
2.71237e-10
1.56953e-07
2.83555e-07
4.12078e-07
5.4373e-07
6.79508e-07
8.20176e-07
9.66238e-07
1.11793e-06
1.27519e-06
1.43771e-06
1.60487e-06
1.77587e-06
1.9497e-06
2.12523e-06
2.3013e-06
2.47671e-06
2.65027e-06
2.82083e-06
2.98725e-06
3.14845e-06
3.30332e-06
3.45084e-06
3.58999e-06
3.71981e-06
3.8394e-06
3.94791e-06
4.04458e-06
4.12874e-06
4.1998e-06
4.25725e-06
4.3007e-06
4.32985e-06
4.34449e-06
4.34453e-06
4.32995e-06
4.30087e-06
4.25748e-06
4.20009e-06
4.12909e-06
4.04499e-06
3.94837e-06
3.83991e-06
3.72037e-06
3.59059e-06
3.45148e-06
3.30399e-06
3.14914e-06
2.98797e-06
2.82156e-06
2.651e-06
2.47744e-06
2.30203e-06
2.12596e-06
1.95041e-06
1.77656e-06
1.60553e-06
1.43832e-06
1.27576e-06
1.11845e-06
9.66707e-07
8.20588e-07
6.79859e-07
5.44017e-07
4.123e-07
2.83711e-07
1.57042e-07
2.71404e-10
1.01682e-12
1.01617e-12
2.71237e-10
1.56953e-07
2.83555e-07
4.12078e-07
5.4373e-07
6.79509e-07
8.20177e-07
9.66239e-07
1.11793e-06
1.27519e-06
1.43771e-06
1.60488e-06
1.77587e-06
1.9497e-06
2.12523e-06
2.3013e-06
2.47671e-06
2.65027e-06
2.82083e-06
2.98726e-06
3.14845e-06
3.30332e-06
3.45084e-06
3.58999e-06
3.71981e-06
3.8394e-06
3.94791e-06
4.04458e-06
4.12874e-06
4.1998e-06
4.25725e-06
4.3007e-06
4.32985e-06
4.34449e-06
4.34453e-06
4.32995e-06
4.30087e-06
4.25748e-06
4.20009e-06
4.12909e-06
4.04499e-06
3.94837e-06
3.83991e-06
3.72037e-06
3.59059e-06
3.45148e-06
3.30399e-06
3.14914e-06
2.98797e-06
2.82156e-06
2.65101e-06
2.47745e-06
2.30204e-06
2.12596e-06
1.95041e-06
1.77656e-06
1.60553e-06
1.43832e-06
1.27576e-06
1.11845e-06
9.66708e-07
8.20588e-07
6.79859e-07
5.44017e-07
4.12301e-07
2.83711e-07
1.57042e-07
2.71404e-10
1.01682e-12
1.01617e-12
2.71238e-10
1.56953e-07
2.83555e-07
4.12078e-07
5.4373e-07
6.79509e-07
8.20177e-07
9.66239e-07
1.11793e-06
1.27519e-06
1.43771e-06
1.60488e-06
1.77587e-06
1.9497e-06
2.12523e-06
2.3013e-06
2.47671e-06
2.65027e-06
2.82083e-06
2.98726e-06
3.14845e-06
3.30333e-06
3.45084e-06
3.58999e-06
3.71981e-06
3.8394e-06
3.94791e-06
4.04458e-06
4.12874e-06
4.1998e-06
4.25725e-06
4.3007e-06
4.32985e-06
4.34449e-06
4.34453e-06
4.32995e-06
4.30087e-06
4.25748e-06
4.20009e-06
4.1291e-06
4.04499e-06
3.94837e-06
3.83991e-06
3.72037e-06
3.59059e-06
3.45148e-06
3.30399e-06
3.14914e-06
2.98797e-06
2.82156e-06
2.65101e-06
2.47745e-06
2.30204e-06
2.12596e-06
1.95041e-06
1.77656e-06
1.60553e-06
1.43832e-06
1.27576e-06
1.11845e-06
9.66708e-07
8.20588e-07
6.79859e-07
5.44017e-07
4.12301e-07
2.83711e-07
1.57042e-07
2.71404e-10
1.01682e-12
1.01617e-12
2.71238e-10
1.56953e-07
2.83555e-07
4.12078e-07
5.4373e-07
6.79509e-07
8.20177e-07
9.66239e-07
1.11793e-06
1.27519e-06
1.43771e-06
1.60488e-06
1.77587e-06
1.9497e-06
2.12523e-06
2.3013e-06
2.47671e-06
2.65027e-06
2.82083e-06
2.98726e-06
3.14845e-06
3.30333e-06
3.45084e-06
3.58999e-06
3.71981e-06
3.8394e-06
3.94791e-06
4.04458e-06
4.12874e-06
4.1998e-06
4.25725e-06
4.30071e-06
4.32985e-06
4.34449e-06
4.34453e-06
4.32995e-06
4.30087e-06
4.25748e-06
4.20009e-06
4.1291e-06
4.04499e-06
3.94837e-06
3.83991e-06
3.72037e-06
3.59059e-06
3.45148e-06
3.30399e-06
3.14914e-06
2.98797e-06
2.82156e-06
2.65101e-06
2.47745e-06
2.30204e-06
2.12596e-06
1.95041e-06
1.77656e-06
1.60553e-06
1.43832e-06
1.27576e-06
1.11845e-06
9.66708e-07
8.20588e-07
6.79859e-07
5.44017e-07
4.12301e-07
2.83711e-07
1.57042e-07
2.71404e-10
1.01682e-12
1.01617e-12
2.71238e-10
1.56953e-07
2.83555e-07
4.12078e-07
5.4373e-07
6.79509e-07
8.20177e-07
9.66239e-07
1.11793e-06
1.27519e-06
1.43771e-06
1.60488e-06
1.77587e-06
1.9497e-06
2.12523e-06
2.3013e-06
2.47671e-06
2.65027e-06
2.82083e-06
2.98726e-06
3.14845e-06
3.30333e-06
3.45084e-06
3.58999e-06
3.71981e-06
3.8394e-06
3.94791e-06
4.04458e-06
4.12874e-06
4.1998e-06
4.25725e-06
4.30071e-06
4.32985e-06
4.34449e-06
4.34453e-06
4.32995e-06
4.30087e-06
4.25748e-06
4.20009e-06
4.1291e-06
4.04499e-06
3.94837e-06
3.83991e-06
3.72037e-06
3.59059e-06
3.45148e-06
3.30399e-06
3.14914e-06
2.98797e-06
2.82156e-06
2.65101e-06
2.47745e-06
2.30204e-06
2.12596e-06
1.95041e-06
1.77656e-06
1.60553e-06
1.43832e-06
1.27576e-06
1.11845e-06
9.66708e-07
8.20588e-07
6.79859e-07
5.44017e-07
4.12301e-07
2.83711e-07
1.57042e-07
2.71404e-10
1.01682e-12
1.01617e-12
2.71238e-10
1.56953e-07
2.83555e-07
4.12078e-07
5.4373e-07
6.79509e-07
8.20177e-07
9.66239e-07
1.11793e-06
1.27519e-06
1.43771e-06
1.60488e-06
1.77587e-06
1.9497e-06
2.12523e-06
2.3013e-06
2.47671e-06
2.65027e-06
2.82083e-06
2.98726e-06
3.14845e-06
3.30333e-06
3.45084e-06
3.58999e-06
3.71981e-06
3.8394e-06
3.94791e-06
4.04458e-06
4.12874e-06
4.1998e-06
4.25725e-06
4.30071e-06
4.32985e-06
4.34449e-06
4.34453e-06
4.32995e-06
4.30087e-06
4.25748e-06
4.20009e-06
4.1291e-06
4.04499e-06
3.94837e-06
3.83991e-06
3.72037e-06
3.59059e-06
3.45148e-06
3.30399e-06
3.14914e-06
2.98797e-06
2.82156e-06
2.65101e-06
2.47745e-06
2.30204e-06
2.12596e-06
1.95041e-06
1.77656e-06
1.60553e-06
1.43832e-06
1.27576e-06
1.11845e-06
9.66708e-07
8.20588e-07
6.79859e-07
5.44017e-07
4.12301e-07
2.83711e-07
1.57042e-07
2.71404e-10
1.01682e-12
1.01617e-12
2.71238e-10
1.56953e-07
2.83555e-07
4.12078e-07
5.4373e-07
6.79509e-07
8.20177e-07
9.66239e-07
1.11793e-06
1.27519e-06
1.43771e-06
1.60488e-06
1.77587e-06
1.9497e-06
2.12523e-06
2.3013e-06