/*--------------------------------*- C++ -*----------------------------------*\
  =========                 |
  \\      /  F ield         | OpenFOAM: The Open Source CFD Toolbox
   \\    /   O peration     | Website:  https://openfoam.org
    \\  /    A nd           | Version:  13
     \\/     M anipulation  |
\*---------------------------------------------------------------------------*/
FoamFile
{
    format      ascii;
    class       volScalarField;
    location    "85";
    object      rhok;
}
// * * * * * * * * * * * * * * * * * * * * * * * * * * * * * * * * * * * * * //

dimensions      [];

internalField   nonuniform List<scalar> 
315000
(
0.444571
0.427617
0.414302
0.412882
0.412086
0.411252
0.410395
0.409526
0.408652
0.407778
0.406907
0.406041
0.405181
0.404327
0.403479
0.402638
0.401804
0.400976
0.400156
0.399342
0.398536
0.397738
0.396948
0.396167
0.395394
0.39463
0.393876
0.393131
0.392396
0.391671
0.390956
0.390251
0.389557
0.388873
0.3882
0.387537
0.386885
0.386244
0.385613
0.384993
0.384383
0.383784
0.383195
0.382616
0.382047
0.381488
0.380939
0.380398
0.379867
0.379345
0.378831
0.378326
0.377829
0.377339
0.376856
0.37638
0.375911
0.375448
0.37499
0.374538
0.374091
0.373648
0.37321
0.372774
0.372342
0.371913
0.371485
0.371059
0.370635
0.370211
0.444592
0.428456
0.414078
0.412666
0.411895
0.411096
0.410274
0.409437
0.408588
0.407733
0.406876
0.40602
0.405166
0.404315
0.40347
0.40263
0.401796
0.400968
0.400147
0.399334
0.398527
0.397729
0.396939
0.396157
0.395384
0.39462
0.393865
0.39312
0.392385
0.39166
0.390945
0.39024
0.389546
0.388862
0.388189
0.387526
0.386874
0.386233
0.385602
0.384982
0.384373
0.383774
0.383185
0.382606
0.382038
0.381479
0.380929
0.38039
0.379859
0.379337
0.378823
0.378318
0.377821
0.377332
0.376849
0.376374
0.375905
0.375443
0.374986
0.374534
0.374087
0.373645
0.373206
0.372771
0.37234
0.371911
0.371484
0.371058
0.370634
0.370211
0.444579
0.427955
0.414172
0.412757
0.411974
0.411158
0.410317
0.409462
0.408601
0.407738
0.406876
0.406016
0.40516
0.404309
0.403463
0.402623
0.401789
0.400961
0.40014
0.399326
0.39852
0.397721
0.396931
0.396149
0.395376
0.394612
0.393858
0.393112
0.392377
0.391652
0.390937
0.390232
0.389538
0.388854
0.388181
0.387518
0.386866
0.386225
0.385594
0.384974
0.384365
0.383766
0.383177
0.382599
0.38203
0.381472
0.380922
0.380383
0.379852
0.37933
0.378817
0.378313
0.377816
0.377326
0.376844
0.376369
0.375901
0.375438
0.374982
0.37453
0.374084
0.373642
0.373204
0.372769
0.372338
0.371909
0.371482
0.371057
0.370634
0.370211
0.444497
0.424619
0.417031
0.413192
0.412062
0.411244
0.410362
0.40947
0.408587
0.407714
0.40685
0.405992
0.40514
0.404293
0.40345
0.402613
0.401781
0.400954
0.400134
0.399321
0.398515
0.397716
0.396926
0.396144
0.395371
0.394607
0.393852
0.393107
0.392371
0.391646
0.390931
0.390226
0.389532
0.388848
0.388175
0.387512
0.38686
0.386219
0.385589
0.384969
0.384359
0.38376
0.383172
0.382593
0.382025
0.381466
0.380917
0.380378
0.379847
0.379326
0.378813
0.378308
0.377811
0.377322
0.376841
0.376366
0.375897
0.375435
0.374979
0.374528
0.374081
0.37364
0.373202
0.372768
0.372336
0.371908
0.371482
0.371057
0.370633
0.370211
0.4446
0.42874
0.414021
0.412589
0.411811
0.41101
0.410192
0.409361
0.408522
0.407678
0.406831
0.405983
0.405136
0.404291
0.403449
0.402611
0.401779
0.400952
0.400132
0.399318
0.398512
0.397713
0.396923
0.396141
0.395368
0.394603
0.393849
0.393103
0.392368
0.391642
0.390927
0.390222
0.389528
0.388844
0.388171
0.387508
0.386856
0.386215
0.385585
0.384965
0.384355
0.383757
0.383168
0.38259
0.382021
0.381463
0.380914
0.380374
0.379844
0.379323
0.37881
0.378305
0.377809
0.37732
0.376838
0.376363
0.375895
0.375433
0.374977
0.374526
0.37408
0.373638
0.3732
0.372766
0.372335
0.371907
0.371481
0.371056
0.370633
0.370211
0.444571
0.42762
0.414221
0.412792
0.411995
0.411165
0.410315
0.409454
0.408589
0.407724
0.406861
0.406001
0.405146
0.404296
0.40345
0.402611
0.401777
0.40095
0.40013
0.399316
0.39851
0.397711
0.396921
0.396139
0.395366
0.394601
0.393847
0.393101
0.392366
0.39164
0.390925
0.39022
0.389526
0.388842
0.388169
0.387506
0.386854
0.386213
0.385582
0.384962
0.384353
0.383754
0.383166
0.382587
0.382019
0.381461
0.380912
0.380372
0.379842
0.379321
0.378808
0.378303
0.377807
0.377318
0.376836
0.376362
0.375894
0.375432
0.374975
0.374525
0.374079
0.373637
0.3732
0.372766
0.372335
0.371907
0.37148
0.371056
0.370633
0.37021
0.444605
0.428945
0.414
0.412557
0.411779
0.410981
0.410166
0.409339
0.408504
0.407662
0.406817
0.405971
0.405126
0.404282
0.403442
0.402606
0.401774
0.400948
0.400129
0.399315
0.398509
0.397711
0.39692
0.396138
0.395365
0.394601
0.393846
0.393101
0.392365
0.39164
0.390924
0.390219
0.389525
0.388841
0.388168
0.387505
0.386853
0.386212
0.385581
0.384961
0.384352
0.383753
0.383165
0.382586
0.382018
0.381459
0.380911
0.380371
0.379841
0.37932
0.378807
0.378302
0.377806
0.377317
0.376836
0.376361
0.375893
0.375431
0.374975
0.374524
0.374078
0.373637
0.373199
0.372765
0.372334
0.371906
0.37148
0.371056
0.370633
0.37021
0.44457
0.427589
0.414249
0.412806
0.411993
0.411158
0.410307
0.409447
0.408583
0.407719
0.406857
0.405999
0.405145
0.404295
0.40345
0.402611
0.401778
0.400951
0.40013
0.399316
0.39851
0.397711
0.396921
0.396139
0.395365
0.394601
0.393846
0.393101
0.392365
0.39164
0.390924
0.390219
0.389525
0.388841
0.388168
0.387505
0.386853
0.386212
0.385581
0.384961
0.384352
0.383753
0.383164
0.382586
0.382018
0.381459
0.38091
0.380371
0.379841
0.379319
0.378806
0.378302
0.377806
0.377317
0.376835
0.376361
0.375893
0.375431
0.374975
0.374524
0.374078
0.373636
0.373199
0.372765
0.372334
0.371906
0.37148
0.371056
0.370633
0.37021
0.444484
0.423056
0.416578
0.414243
0.412643
0.41142
0.410386
0.409448
0.408556
0.407687
0.406829
0.405977
0.405129
0.404284
0.403444
0.402607
0.401776
0.400949
0.40013
0.399316
0.39851
0.397712
0.396921
0.396139
0.395366
0.394602
0.393847
0.393101
0.392366
0.39164
0.390925
0.39022
0.389525
0.388841
0.388168
0.387505
0.386853
0.386212
0.385581
0.384961
0.384352
0.383753
0.383164
0.382586
0.382018
0.381459
0.38091
0.380371
0.379841
0.379319
0.378807
0.378302
0.377806
0.377317
0.376835
0.376361
0.375893
0.375431
0.374975
0.374524
0.374078
0.373636
0.373199
0.372765
0.372334
0.371906
0.37148
0.371056
0.370633
0.37021
0.444592
0.428439
0.414064
0.412645
0.411859
0.411049
0.410223
0.409386
0.408541
0.407692
0.406841
0.40599
0.40514
0.404293
0.40345
0.402612
0.401779
0.400952
0.400131
0.399317
0.398511
0.397712
0.396922
0.39614
0.395366
0.394602
0.393847
0.393102
0.392366
0.391641
0.390925
0.39022
0.389526
0.388842
0.388168
0.387506
0.386854
0.386212
0.385582
0.384962
0.384352
0.383754
0.383165
0.382587
0.382018
0.38146
0.380911
0.380371
0.379841
0.37932
0.378807
0.378302
0.377806
0.377317
0.376835
0.376361
0.375893
0.375431
0.374975
0.374524
0.374078
0.373636
0.373199
0.372765
0.372334
0.371906
0.37148
0.371056
0.370633
0.37021
0.444522
0.425729
0.415452
0.4133
0.412248
0.411294
0.410377
0.409479
0.408594
0.40772
0.406853
0.405994
0.40514
0.404291
0.403448
0.40261
0.401777
0.400951
0.400131
0.399317
0.398511
0.397712
0.396922
0.39614
0.395367
0.394602
0.393847
0.393102
0.392367
0.391641
0.390926
0.390221
0.389526
0.388842
0.388169
0.387506
0.386854
0.386213
0.385582
0.384962
0.384353
0.383754
0.383165
0.382587
0.382019
0.38146
0.380911
0.380372
0.379841
0.37932
0.378807
0.378303
0.377806
0.377317
0.376836
0.376361
0.375893
0.375431
0.374975
0.374524
0.374078
0.373637
0.373199
0.372765
0.372334
0.371906
0.37148
0.371056
0.370633
0.37021
0.444603
0.428856
0.414009
0.412571
0.411793
0.410995
0.410181
0.409354
0.408518
0.407676
0.406831
0.405984
0.405137
0.404292
0.403451
0.402613
0.40178
0.400954
0.400133
0.399319
0.398513
0.397714
0.396923
0.396141
0.395368
0.394603
0.393848
0.393103
0.392367
0.391642
0.390926
0.390221
0.389527
0.388843
0.38817
0.387507
0.386855
0.386214
0.385583
0.384963
0.384354
0.383755
0.383166
0.382588
0.382019
0.381461
0.380912
0.380372
0.379842
0.379321
0.378808
0.378303
0.377807
0.377318
0.376836
0.376362
0.375893
0.375431
0.374975
0.374524
0.374078
0.373637
0.373199
0.372765
0.372335
0.371906
0.37148
0.371056
0.370633
0.37021
0.444587
0.428236
0.414076
0.412663
0.411891
0.411092
0.410271
0.409433
0.408585
0.40773
0.406873
0.406015
0.40516
0.404309
0.403462
0.402621
0.401786
0.400957
0.400136
0.399321
0.398514
0.397715
0.396924
0.396142
0.395368
0.394604
0.393849
0.393104
0.392368
0.391642
0.390927
0.390222
0.389527
0.388843
0.38817
0.387507
0.386855
0.386214
0.385584
0.384964
0.384354
0.383755
0.383167
0.382588
0.38202
0.381461
0.380912
0.380373
0.379842
0.379321
0.378808
0.378304
0.377807
0.377318
0.376837
0.376362
0.375894
0.375432
0.374976
0.374525
0.374079
0.373637
0.3732
0.372766
0.372335
0.371907
0.37148
0.371056
0.370633
0.37021
0.444587
0.428237
0.414081
0.412668
0.411896
0.411097
0.410275
0.409437
0.408588
0.407733
0.406875
0.406018
0.405162
0.40431
0.403463
0.402622
0.401787
0.400958
0.400136
0.399321
0.398514
0.397715
0.396925
0.396142
0.395369
0.394604
0.393849
0.393104
0.392369
0.391643
0.390928
0.390223
0.389528
0.388844
0.388171
0.387508
0.386856
0.386215
0.385584
0.384964
0.384355
0.383756
0.383167
0.382589
0.38202
0.381462
0.380913
0.380373
0.379843
0.379321
0.378808
0.378304
0.377807
0.377318
0.376837
0.376362
0.375894
0.375432
0.374976
0.374525
0.374079
0.373637
0.3732
0.372766
0.372335
0.371907
0.371481
0.371056
0.370633
0.37021
0.4446
0.428757
0.414023
0.412592
0.411813
0.411013
0.410197
0.409368
0.40853
0.407686
0.406838
0.40599
0.405142
0.404296
0.403453
0.402615
0.401782
0.400955
0.400134
0.39932
0.398514
0.397715
0.396925
0.396142
0.395369
0.394605
0.39385
0.393105
0.392369
0.391643
0.390928
0.390223
0.389529
0.388845
0.388171
0.387508
0.386856
0.386215
0.385584
0.384964
0.384355
0.383756
0.383167
0.382589
0.382021
0.381462
0.380913
0.380373
0.379843
0.379322
0.378809
0.378304
0.377808
0.377319
0.376837
0.376362
0.375894
0.375432
0.374976
0.374525
0.374079
0.373637
0.3732
0.372766
0.372335
0.371907
0.371481
0.371056
0.370633
0.370211
0.444522
0.425732
0.41547
0.413322
0.41227
0.411314
0.410394
0.409492
0.408604
0.407726
0.406858
0.405997
0.405142
0.404293
0.40345
0.402612
0.40178
0.400953
0.400133
0.39932
0.398514
0.397715
0.396925
0.396143
0.39537
0.394605
0.393851
0.393105
0.39237
0.391644
0.390929
0.390224
0.389529
0.388845
0.388172
0.387509
0.386857
0.386216
0.385585
0.384965
0.384355
0.383756
0.383168
0.382589
0.382021
0.381462
0.380913
0.380374
0.379843
0.379322
0.378809
0.378304
0.377808
0.377319
0.376837
0.376363
0.375894
0.375432
0.374976
0.374525
0.374079
0.373637
0.3732
0.372766
0.372335
0.371907
0.371481
0.371056
0.370633
0.370211
0.444579
0.427934
0.414177
0.412753
0.411953
0.41113
0.410289
0.409436
0.408578
0.407717
0.406858
0.406001
0.405147
0.404298
0.403454
0.402615
0.401782
0.400955
0.400135
0.399321
0.398515
0.397717
0.396926
0.396144
0.395371
0.394607
0.393852
0.393106
0.392371
0.391645
0.390929
0.390224
0.38953
0.388846
0.388172
0.387509
0.386857
0.386216
0.385585
0.384965
0.384356
0.383757
0.383168
0.38259
0.382021
0.381462
0.380913
0.380374
0.379844
0.379322
0.378809
0.378305
0.377808
0.377319
0.376837
0.376363
0.375894
0.375432
0.374976
0.374525
0.374079
0.373638
0.3732
0.372766
0.372335
0.371907
0.371481
0.371056
0.370633
0.370211
0.444485
0.423089
0.416588
0.414246
0.412642
0.411417
0.410383
0.409445
0.408553
0.407684
0.406827
0.405976
0.405129
0.404285
0.403445
0.40261
0.401779
0.400954
0.400134
0.399322
0.398516
0.397718
0.396927
0.396145
0.395372
0.394608
0.393853
0.393107
0.392372
0.391646
0.39093
0.390225
0.38953
0.388846
0.388173
0.38751
0.386858
0.386216
0.385586
0.384966
0.384356
0.383757
0.383168
0.38259
0.382021
0.381463
0.380914
0.380374
0.379844
0.379322
0.378809
0.378305
0.377808
0.377319
0.376837
0.376363
0.375894
0.375432
0.374976
0.374525
0.374079
0.373638
0.3732
0.372766
0.372335
0.371907
0.371481
0.371056
0.370633
0.370211
0.444587
0.42825
0.414084
0.412666
0.411884
0.411077
0.41025
0.409411
0.408564
0.407711
0.406857
0.406003
0.405152
0.404303
0.403459
0.40262
0.401787
0.400959
0.400139
0.399325
0.398518
0.39772
0.396929
0.396147
0.395373
0.394609
0.393854
0.393108
0.392373
0.391647
0.390931
0.390226
0.389531
0.388847
0.388173
0.387511
0.386858
0.386217
0.385586
0.384966
0.384356
0.383757
0.383169
0.38259
0.382022
0.381463
0.380914
0.380374
0.379844
0.379322
0.378809
0.378305
0.377808
0.377319
0.376837
0.376363
0.375895
0.375432
0.374976
0.374525
0.374079
0.373638
0.3732
0.372766
0.372335
0.371907
0.371481
0.371056
0.370633
0.370211
0.4446
0.428746
0.41401
0.412579
0.411807
0.411015
0.410203
0.409378
0.408541
0.407697
0.406849
0.405999
0.40515
0.404304
0.403461
0.402622
0.401789
0.400962
0.400141
0.399327
0.398521
0.397722
0.396931
0.396149
0.395375
0.39461
0.393855
0.39311
0.392374
0.391648
0.390932
0.390227
0.389532
0.388848
0.388174
0.387511
0.386859
0.386217
0.385587
0.384966
0.384357
0.383758
0.383169
0.38259
0.382022
0.381463
0.380914
0.380374
0.379844
0.379322
0.378809
0.378305
0.377808
0.377319
0.376838
0.376363
0.375895
0.375433
0.374976
0.374525
0.374079
0.373638
0.3732
0.372766
0.372335
0.371907
0.371481
0.371056
0.370633
0.370211
0.444581
0.427999
0.414148
0.412731
0.411951
0.41114
0.410307
0.409459
0.408602
0.407741
0.40688
0.40602
0.405164
0.404312
0.403466
0.402626
0.401791
0.400963
0.400142
0.399328
0.398521
0.397722
0.396932
0.396149
0.395376
0.394611
0.393856
0.39311
0.392374
0.391648
0.390933
0.390227
0.389532
0.388848
0.388174
0.387511
0.386859
0.386218
0.385587
0.384967
0.384357
0.383758
0.383169
0.38259
0.382022
0.381463
0.380914
0.380374
0.379844
0.379322
0.378809
0.378305
0.377808
0.377319
0.376838
0.376363
0.375895
0.375433
0.374976
0.374525
0.374079
0.373638
0.3732
0.372766
0.372335
0.371907
0.371481
0.371056
0.370633
0.370211
0.444597
0.428624
0.414026
0.4126
0.41183
0.411037
0.410226
0.409399
0.408561
0.407714
0.406864
0.406012
0.405161
0.404313
0.403468
0.402629
0.401794
0.400966
0.400145
0.39933
0.398523
0.397724
0.396933
0.396151
0.395377
0.394612
0.393857
0.393111
0.392375
0.391649
0.390933
0.390228
0.389533
0.388848
0.388175
0.387512
0.386859
0.386218
0.385587
0.384967
0.384357
0.383758
0.383169
0.38259
0.382022
0.381463
0.380914
0.380374
0.379844
0.379322
0.378809
0.378305
0.377808
0.377319
0.376838
0.376363
0.375895
0.375433
0.374976
0.374525
0.374079
0.373638
0.3732
0.372766
0.372335
0.371907
0.371481
0.371056
0.370633
0.370211
0.444597
0.428634
0.414015
0.412587
0.411817
0.411027
0.410218
0.409395
0.408559
0.407715
0.406867
0.406016
0.405166
0.404317
0.403473
0.402632
0.401798
0.400969
0.400147
0.399332
0.398525
0.397725
0.396934
0.396151
0.395378
0.394613
0.393857
0.393111
0.392375
0.391649
0.390934
0.390228
0.389533
0.388849
0.388175
0.387512
0.38686
0.386218
0.385587
0.384967
0.384357
0.383758
0.383169
0.38259
0.382022
0.381463
0.380914
0.380374
0.379844
0.379322
0.378809
0.378305
0.377808
0.377319
0.376838
0.376363
0.375895
0.375433
0.374976
0.374525
0.374079
0.373638
0.3732
0.372766
0.372335
0.371907
0.371481
0.371056
0.370633
0.370211
0.444597
0.428635
0.414018
0.412589
0.411819
0.411029
0.41022
0.409397
0.408562
0.407718
0.406869
0.406019
0.405168
0.404319
0.403474
0.402634
0.401799
0.40097
0.400148
0.399333
0.398526
0.397726
0.396935
0.396152
0.395378
0.394613
0.393857
0.393112
0.392375
0.391649
0.390934
0.390228
0.389533
0.388849
0.388175
0.387512
0.38686
0.386218
0.385587
0.384967
0.384357
0.383758
0.383169
0.38259
0.382022
0.381463
0.380914
0.380374
0.379844
0.379322
0.378809
0.378305
0.377808
0.377319
0.376838
0.376363
0.375895
0.375433
0.374976
0.374525
0.374079
0.373638
0.3732
0.372766
0.372335
0.371907
0.371481
0.371056
0.370633
0.370211
0.444597
0.428635
0.414018
0.412589
0.411819
0.411029
0.410221
0.409398
0.408562
0.407719
0.40687
0.406019
0.405169
0.40432
0.403475
0.402634
0.401799
0.400971
0.400148
0.399333
0.398526
0.397726
0.396935
0.396152
0.395378
0.394613
0.393858
0.393112
0.392376
0.39165
0.390934
0.390228
0.389533
0.388849
0.388175
0.387512
0.38686
0.386218
0.385587
0.384967
0.384357
0.383758
0.383169
0.382591
0.382022
0.381463
0.380914
0.380374
0.379844
0.379322
0.378809
0.378305
0.377808
0.377319
0.376838
0.376363
0.375895
0.375433
0.374976
0.374525
0.374079
0.373638
0.3732
0.372766
0.372335
0.371907
0.371481
0.371056
0.370633
0.370211
0.444597
0.428635
0.414019
0.412589
0.41182
0.41103
0.410221
0.409398
0.408563
0.407719
0.40687
0.406019
0.405169
0.40432
0.403475
0.402634
0.401799
0.400971
0.400148
0.399333
0.398526
0.397726
0.396935
0.396152
0.395378
0.394613
0.393858
0.393112
0.392376
0.39165
0.390934
0.390228
0.389533
0.388849
0.388175
0.387512
0.38686
0.386218
0.385587
0.384967
0.384357
0.383758
0.383169
0.38259
0.382022
0.381463
0.380914
0.380374
0.379844
0.379322
0.378809
0.378305
0.377808
0.377319
0.376838
0.376363
0.375895
0.375433
0.374976
0.374525
0.374079
0.373638
0.3732
0.372766
0.372335
0.371907
0.371481
0.371056
0.370633
0.370211
0.444597
0.428635
0.414019
0.412589
0.41182
0.41103
0.410221
0.409398
0.408563
0.407719
0.40687
0.406019
0.405169
0.40432
0.403475
0.402634
0.401799
0.400971
0.400148
0.399333
0.398526
0.397726
0.396935
0.396152
0.395378
0.394613
0.393858
0.393112
0.392376
0.39165
0.390934
0.390228
0.389533
0.388849
0.388175
0.387512
0.38686
0.386218
0.385587
0.384967
0.384357
0.383758
0.383169
0.38259
0.382022
0.381463
0.380914
0.380374
0.379844
0.379322
0.378809
0.378305
0.377808
0.377319
0.376838
0.376363
0.375895
0.375433
0.374976
0.374525
0.374079
0.373638
0.3732
0.372766
0.372335
0.371907
0.371481
0.371056
0.370633
0.370211
0.444597
0.428635
0.414019
0.412589
0.41182
0.41103
0.410221
0.409398
0.408563
0.407719
0.40687
0.406019
0.405169
0.40432
0.403475
0.402634
0.401799
0.400971
0.400148
0.399333
0.398526
0.397726
0.396935
0.396152
0.395378
0.394613
0.393858
0.393112
0.392376
0.39165
0.390934
0.390228
0.389533
0.388849
0.388175
0.387512
0.38686
0.386218
0.385587
0.384967
0.384357
0.383758
0.383169
0.38259
0.382022
0.381463
0.380914
0.380374
0.379844
0.379322
0.378809
0.378305
0.377808
0.377319
0.376838
0.376363
0.375895
0.375433
0.374976
0.374525
0.374079
0.373638
0.3732
0.372766
0.372335
0.371907
0.371481
0.371056
0.370633
0.370211
0.444597
0.428635
0.414019
0.412589
0.41182
0.41103
0.410221
0.409398
0.408563
0.407719
0.40687
0.406019
0.405169
0.40432
0.403475
0.402634
0.401799
0.400971
0.400148
0.399333
0.398526
0.397726
0.396935
0.396152
0.395378
0.394613
0.393858
0.393112
0.392376
0.39165
0.390934
0.390228
0.389533
0.388849
0.388175
0.387512
0.38686
0.386218
0.385587
0.384967
0.384357
0.383758
0.383169
0.38259
0.382022
0.381463
0.380914
0.380374
0.379844
0.379322
0.378809
0.378305
0.377808
0.377319
0.376838
0.376363
0.375895
0.375433
0.374976
0.374525
0.374079
0.373638
0.3732
0.372766
0.372335
0.371907
0.371481
0.371056
0.370633
0.370211
0.444597
0.428635
0.414019
0.412589
0.41182
0.41103
0.410221
0.409398
0.408563
0.407719
0.40687
0.406019
0.405169
0.40432
0.403475
0.402634
0.401799
0.400971
0.400148
0.399333
0.398526
0.397726
0.396935
0.396152
0.395378
0.394613
0.393858
0.393112
0.392376
0.39165
0.390934
0.390228
0.389533
0.388849
0.388175
0.387512
0.38686
0.386218
0.385587
0.384967
0.384357
0.383758
0.383169
0.38259
0.382022
0.381463
0.380914
0.380374
0.379844
0.379322
0.378809
0.378305
0.377808
0.377319
0.376838
0.376363
0.375895
0.375433
0.374976
0.374525
0.374079
0.373638
0.3732
0.372766
0.372335
0.371907
0.371481
0.371056
0.370633
0.370211
0.444597
0.428635
0.414019
0.412589
0.41182
0.41103
0.410221
0.409398
0.408563
0.407719
0.40687
0.406019
0.405169
0.40432
0.403475
0.402634
0.401799
0.400971
0.400148
0.399333
0.398526
0.397726
0.396935
0.396152
0.395378
0.394613
0.393858
0.393112
0.392376
0.39165
0.390934
0.390228
0.389533
0.388849
0.388175
0.387512
0.38686
0.386218
0.385587
0.384967
0.384357
0.383758
0.383169
0.38259
0.382022
0.381463
0.380914
0.380374
0.379844
0.379322
0.378809
0.378305
0.377808
0.377319
0.376838
0.376363
0.375895
0.375433
0.374976
0.374525
0.374079
0.373638
0.3732
0.372766
0.372335
0.371907
0.371481
0.371056
0.370633
0.370211
0.444597
0.428635
0.414019
0.412589
0.41182
0.41103
0.410221
0.409398
0.408563
0.407719
0.40687
0.406019
0.405169
0.40432
0.403475
0.402634
0.401799
0.400971
0.400148
0.399333
0.398526
0.397726
0.396935
0.396152
0.395378
0.394613
0.393858
0.393112
0.392376
0.39165
0.390934
0.390228
0.389533
0.388849
0.388175
0.387512
0.38686
0.386218
0.385587
0.384967
0.384357
0.383758
0.383169
0.38259
0.382022
0.381463
0.380914
0.380374
0.379844
0.379322
0.378809
0.378305
0.377808
0.377319
0.376838
0.376363
0.375895
0.375433
0.374976
0.374525
0.374079
0.373638
0.3732
0.372766
0.372335
0.371907
0.371481
0.371056
0.370633
0.370211
0.444597
0.428635
0.414019
0.412589
0.41182
0.41103
0.410221
0.409398
0.408563
0.407719
0.40687
0.406019
0.405169
0.40432
0.403475
0.402634
0.401799
0.400971
0.400148
0.399333
0.398526
0.397726
0.396935
0.396152
0.395378
0.394613
0.393858
0.393112
0.392376
0.39165
0.390934
0.390228
0.389533
0.388849
0.388175
0.387512
0.38686
0.386218
0.385587
0.384967
0.384357
0.383758
0.383169
0.38259
0.382022
0.381463
0.380914
0.380374
0.379844
0.379322
0.378809
0.378305
0.377808
0.377319
0.376838
0.376363
0.375895
0.375433
0.374976
0.374525
0.374079
0.373638
0.3732
0.372766
0.372335
0.371907
0.371481
0.371056
0.370633
0.370211
0.444597
0.428635
0.414019
0.412589
0.41182
0.41103
0.410221
0.409398
0.408563
0.407719
0.40687
0.406019
0.405169
0.40432
0.403475
0.402634
0.401799
0.400971
0.400148
0.399333
0.398526
0.397726
0.396935
0.396152
0.395378
0.394613
0.393858
0.393112
0.392376
0.39165
0.390934
0.390228
0.389533
0.388849
0.388175
0.387512
0.38686
0.386218
0.385587
0.384967
0.384357
0.383758
0.383169
0.38259
0.382022
0.381463
0.380914
0.380374
0.379844
0.379322
0.378809
0.378305
0.377808
0.377319
0.376838
0.376363
0.375895
0.375433
0.374976
0.374525
0.374079
0.373638
0.3732
0.372766
0.372335
0.371907
0.371481
0.371056
0.370633
0.370211
0.444597
0.428635
0.414019
0.412589
0.41182
0.41103
0.410221
0.409398
0.408563
0.407719
0.40687
0.406019
0.405169
0.40432
0.403475
0.402634
0.401799
0.400971
0.400148
0.399333
0.398526
0.397726
0.396935
0.396152
0.395378
0.394613
0.393858
0.393112
0.392376
0.39165
0.390934
0.390228
0.389533
0.388849
0.388175
0.387512
0.38686
0.386218
0.385587
0.384967
0.384357
0.383758
0.383169
0.38259
0.382022
0.381463
0.380914
0.380374
0.379844
0.379322
0.378809
0.378305
0.377808
0.377319
0.376838
0.376363
0.375895
0.375433
0.374976
0.374525
0.374079
0.373638
0.3732
0.372766
0.372335
0.371907
0.371481
0.371056
0.370633
0.370211
0.444597
0.428635
0.414019
0.412589
0.41182
0.41103
0.410221
0.409398
0.408563
0.407719
0.40687
0.406019
0.405169
0.40432
0.403475
0.402634
0.401799
0.400971
0.400148
0.399333
0.398526
0.397726
0.396935
0.396152
0.395378
0.394613
0.393858
0.393112
0.392376
0.39165
0.390934
0.390228
0.389533
0.388849
0.388175
0.387512
0.38686
0.386218
0.385587
0.384967
0.384357
0.383758
0.383169
0.38259
0.382022
0.381463
0.380914
0.380374
0.379844
0.379322
0.378809
0.378305
0.377808
0.377319
0.376838
0.376363
0.375895
0.375433
0.374976
0.374525
0.374079
0.373638
0.3732
0.372766
0.372335
0.371907
0.371481
0.371056
0.370633
0.370211
0.444597
0.428635
0.414019
0.412589
0.41182
0.41103
0.410221
0.409398
0.408563
0.407719
0.40687
0.406019
0.405169
0.40432
0.403475
0.402634
0.401799
0.400971
0.400148
0.399333
0.398526
0.397726
0.396935
0.396152
0.395378
0.394613
0.393858
0.393112
0.392376
0.39165
0.390934
0.390228
0.389533
0.388849
0.388175
0.387512
0.38686
0.386218
0.385587
0.384967
0.384357
0.383758
0.383169
0.38259
0.382022
0.381463
0.380914
0.380374
0.379844
0.379322
0.378809
0.378305
0.377808
0.377319
0.376838
0.376363
0.375895
0.375433
0.374976
0.374525
0.374079
0.373638
0.3732
0.372766
0.372335
0.371907
0.371481
0.371056
0.370633
0.370211
0.444597
0.428635
0.414019
0.412589
0.41182
0.41103
0.410221
0.409398
0.408563
0.407719
0.40687
0.406019
0.405169
0.40432
0.403475
0.402634
0.401799
0.400971
0.400148
0.399333
0.398526
0.397726
0.396935
0.396152
0.395378
0.394613
0.393858
0.393112
0.392376
0.39165
0.390934
0.390228
0.389533
0.388849
0.388175
0.387512
0.38686
0.386218
0.385587
0.384967
0.384357
0.383758
0.383169
0.38259
0.382022
0.381463
0.380914
0.380374
0.379844
0.379322
0.378809
0.378305
0.377808
0.377319
0.376838
0.376363
0.375895
0.375433
0.374976
0.374525
0.374079
0.373638
0.3732
0.372766
0.372335
0.371907
0.371481
0.371056
0.370633
0.370211
0.444597
0.428635
0.414019
0.412589
0.41182
0.41103
0.410221
0.409398
0.408563
0.407719
0.40687
0.406019
0.405169
0.40432
0.403475
0.402634
0.401799
0.400971
0.400148
0.399333
0.398526
0.397726
0.396935
0.396152
0.395378
0.394613
0.393858
0.393112
0.392376
0.39165
0.390934
0.390228
0.389533
0.388849
0.388175
0.387512
0.38686
0.386218
0.385587
0.384967
0.384357
0.383758
0.383169
0.38259
0.382022
0.381463
0.380914
0.380374
0.379844
0.379322
0.378809
0.378305
0.377808
0.377319
0.376838
0.376363
0.375895
0.375433
0.374976
0.374525
0.374079
0.373638
0.3732
0.372766
0.372335
0.371907
0.371481
0.371056
0.370633
0.370211
0.444597
0.428635
0.414019
0.412589
0.41182
0.41103
0.410221
0.409398
0.408563
0.407719
0.40687
0.406019
0.405169
0.40432
0.403475
0.402634
0.401799
0.400971
0.400148
0.399333
0.398526
0.397726
0.396935
0.396152
0.395378
0.394613
0.393858
0.393112
0.392376
0.39165
0.390934
0.390228
0.389533
0.388849
0.388175
0.387512
0.38686
0.386218
0.385587
0.384967
0.384357
0.383758
0.383169
0.38259
0.382022
0.381463
0.380914
0.380374
0.379844
0.379322
0.378809
0.378305
0.377808
0.377319
0.376838
0.376363
0.375895
0.375433
0.374976
0.374525
0.374079
0.373638
0.3732
0.372766
0.372335
0.371907
0.371481
0.371056
0.370633
0.370211
0.444597
0.428635
0.414019
0.412589
0.41182
0.41103
0.410221
0.409398
0.408563
0.407719
0.40687
0.406019
0.405169
0.40432
0.403475
0.402634
0.401799
0.400971
0.400148
0.399333
0.398526
0.397726
0.396935
0.396152
0.395378
0.394613
0.393858
0.393112
0.392376
0.39165
0.390934
0.390228
0.389533
0.388849
0.388175
0.387512
0.38686
0.386218
0.385587
0.384967
0.384357
0.383758
0.383169
0.38259
0.382022
0.381463
0.380914
0.380374
0.379844
0.379322
0.378809
0.378305
0.377808
0.377319
0.376838
0.376363
0.375895
0.375433
0.374976
0.374525
0.374079
0.373638
0.3732
0.372766
0.372335
0.371907
0.371481
0.371056
0.370633
0.370211
0.444597
0.428635
0.414019
0.412589
0.41182
0.41103
0.410221
0.409398
0.408563
0.407719
0.40687
0.406019
0.405169
0.40432
0.403475
0.402634
0.401799
0.400971
0.400148
0.399333
0.398526
0.397726
0.396935
0.396152
0.395378
0.394613
0.393858
0.393112
0.392376
0.39165
0.390934
0.390228
0.389533
0.388849
0.388175
0.387512
0.38686
0.386218
0.385587
0.384967
0.384357
0.383758
0.383169
0.38259
0.382022
0.381463
0.380914
0.380374
0.379844
0.379322
0.378809
0.378305
0.377808
0.377319
0.376838
0.376363
0.375895
0.375433
0.374976
0.374525
0.374079
0.373638
0.3732
0.372766
0.372335
0.371907
0.371481
0.371056
0.370633
0.370211
0.444597
0.428635
0.414019
0.412589
0.41182
0.41103
0.410221
0.409398
0.408563
0.407719
0.40687
0.406019
0.405169
0.40432
0.403475
0.402634
0.401799
0.400971
0.400148
0.399333
0.398526
0.397726
0.396935
0.396152
0.395378
0.394613
0.393858
0.393112
0.392376
0.39165
0.390934
0.390228
0.389533
0.388849
0.388175
0.387512
0.38686
0.386218
0.385587
0.384967
0.384357
0.383758
0.383169
0.38259
0.382022
0.381463
0.380914
0.380374
0.379844
0.379322
0.378809
0.378305
0.377808
0.377319
0.376838
0.376363
0.375895
0.375433
0.374976
0.374525
0.374079
0.373638
0.3732
0.372766
0.372335
0.371907
0.371481
0.371056
0.370633
0.370211
0.444597
0.428635
0.414019
0.412589
0.41182
0.41103
0.410221
0.409398
0.408563
0.407719
0.40687
0.406019
0.405169
0.40432
0.403475
0.402634
0.401799
0.400971
0.400148
0.399333
0.398526
0.397726
0.396935
0.396152
0.395378
0.394613
0.393858
0.393112
0.392376
0.39165
0.390934
0.390228
0.389533
0.388849
0.388175
0.387512
0.38686
0.386218
0.385587
0.384967
0.384357
0.383758
0.383169
0.38259
0.382022
0.381463
0.380914
0.380374
0.379844
0.379322
0.378809
0.378305
0.377808
0.377319
0.376838
0.376363
0.375895
0.375433
0.374976
0.374525
0.374079
0.373638
0.3732
0.372766
0.372335
0.371907
0.371481
0.371056
0.370633
0.370211
0.444597
0.428635
0.414019
0.412589
0.41182
0.41103
0.410221
0.409398
0.408563
0.407719
0.40687
0.406019
0.405169
0.40432
0.403475
0.402634
0.401799
0.400971
0.400148
0.399333
0.398526
0.397726
0.396935
0.396152
0.395378
0.394613
0.393858
0.393112
0.392376
0.39165
0.390934
0.390228
0.389533
0.388849
0.388175
0.387512
0.38686
0.386218
0.385587
0.384967
0.384357
0.383758
0.383169
0.38259
0.382022
0.381463
0.380914
0.380374
0.379844
0.379322
0.378809
0.378305
0.377808
0.377319
0.376838
0.376363
0.375895
0.375433
0.374976
0.374525
0.374079
0.373638
0.3732
0.372766
0.372335
0.371907
0.371481
0.371056
0.370633
0.370211
0.444597
0.428635
0.414019
0.412589
0.41182
0.41103
0.410221
0.409398
0.408563
0.407719
0.40687
0.406019
0.405169
0.40432
0.403475
0.402634
0.401799
0.400971
0.400148
0.399333
0.398526
0.397726
0.396935
0.396152
0.395378
0.394613
0.393858
0.393112
0.392376
0.39165
0.390934
0.390228
0.389533
0.388849
0.388175
0.387512
0.38686
0.386218
0.385587
0.384967
0.384357
0.383758
0.383169
0.38259
0.382022
0.381463
0.380914
0.380374
0.379844
0.379322
0.378809
0.378305
0.377808
0.377319
0.376838
0.376363
0.375895
0.375433
0.374976
0.374525
0.374079
0.373638
0.3732
0.372766
0.372335
0.371907
0.371481
0.371056
0.370633
0.370211
0.444597
0.428635
0.414019
0.412589
0.41182
0.41103
0.410221
0.409398
0.408563
0.407719
0.40687
0.406019
0.405169
0.40432
0.403475
0.402634
0.401799
0.400971
0.400148
0.399333
0.398526
0.397726
0.396935
0.396152
0.395378
0.394613
0.393858
0.393112
0.392376
0.39165
0.390934
0.390228
0.389533
0.388849
0.388175
0.387512
0.38686
0.386218
0.385587
0.384967
0.384357
0.383758
0.383169
0.38259
0.382022
0.381463
0.380914
0.380374
0.379844
0.379322
0.378809
0.378305
0.377808
0.377319
0.376838
0.376363
0.375895
0.375433
0.374976
0.374525
0.374079
0.373638
0.3732
0.372766
0.372335
0.371907
0.371481
0.371056
0.370633
0.370211
0.444597
0.428635
0.414019
0.412589
0.41182
0.41103
0.410221
0.409398
0.408563
0.407719
0.40687
0.406019
0.405169