/*--------------------------------*- C++ -*----------------------------------*\
  =========                 |
  \\      /  F ield         | OpenFOAM: The Open Source CFD Toolbox
   \\    /   O peration     | Website:  https://openfoam.org
    \\  /    A nd           | Version:  13
     \\/     M anipulation  |
\*---------------------------------------------------------------------------*/
FoamFile
{
    format      ascii;
    class       volScalarField;
    location    "140";
    object      nut;
}
// * * * * * * * * * * * * * * * * * * * * * * * * * * * * * * * * * * * * * //

dimensions      [0 2 -1 0 0 0 0];

internalField   nonuniform List<scalar> 
315000
(
1.50793e-15
3.94976e-13
9.0148e-12
1.61865e-11
2.34834e-11
3.09238e-11
3.85297e-11
4.63205e-11
5.431e-11
6.25047e-11
7.09034e-11
7.94964e-11
8.82663e-11
9.71877e-11
1.06228e-10
1.15348e-10
1.24503e-10
1.33644e-10
1.42715e-10
1.51661e-10
1.60424e-10
1.68942e-10
1.77156e-10
1.85008e-10
1.92438e-10
1.99392e-10
2.05816e-10
2.11661e-10
2.16882e-10
2.21438e-10
2.25293e-10
2.28418e-10
2.30786e-10
2.3238e-10
2.33186e-10
2.33199e-10
2.32417e-10
2.30848e-10
2.28504e-10
2.25403e-10
2.2157e-10
2.17035e-10
2.11835e-10
2.06008e-10
1.99601e-10
1.92663e-10
1.85246e-10
1.77406e-10
1.69201e-10
1.6069e-10
1.51933e-10
1.4299e-10
1.3392e-10
1.24778e-10
1.1562e-10
1.06495e-10
9.7447e-11
8.85166e-11
7.9736e-11
7.11306e-11
6.27181e-11
5.4508e-11
4.65017e-11
3.86923e-11
3.10661e-11
2.36029e-11
1.62795e-11
9.07512e-12
3.98146e-13
1.52121e-15
3.77468e-14
1.00538e-11
2.29038e-09
4.14482e-09
6.024e-09
7.93717e-09
9.8921e-09
1.18948e-08
1.39495e-08
1.60579e-08
1.822e-08
2.04334e-08
2.26934e-08
2.49936e-08
2.73254e-08
2.96787e-08
3.20416e-08
3.44012e-08
3.67436e-08
3.90538e-08
4.13168e-08
4.35169e-08
4.56385e-08
4.76663e-08
4.95854e-08
5.13812e-08
5.30402e-08
5.45496e-08
5.58978e-08
5.70741e-08
5.80694e-08
5.88758e-08
5.9487e-08
5.98981e-08
6.01058e-08
6.01085e-08
5.99062e-08
5.95004e-08
5.88944e-08
5.80931e-08
5.71026e-08
5.59309e-08
5.45871e-08
5.30816e-08
5.14263e-08
4.96337e-08
4.77175e-08
4.56921e-08
4.35725e-08
4.13739e-08
3.91121e-08
3.68024e-08
3.44601e-08
3.21001e-08
2.97363e-08
2.73818e-08
2.50483e-08
2.27459e-08
2.04833e-08
1.82671e-08
1.61017e-08
1.39896e-08
1.19309e-08
9.92383e-09
7.96413e-09
6.04573e-09
4.16076e-09
2.29982e-09
1.00981e-11
3.79183e-14
1.51981e-13
4.05388e-11
2.35349e-08
4.26143e-08
6.19606e-08
8.16875e-08
1.01892e-07
1.22651e-07
1.44018e-07
1.66022e-07
1.88666e-07
2.11926e-07
2.35751e-07
2.60068e-07
2.84778e-07
3.09766e-07
3.34896e-07
3.60019e-07
3.84978e-07
4.09607e-07
4.33736e-07
4.57194e-07
4.79811e-07
5.01421e-07
5.21863e-07
5.40983e-07
5.58638e-07
5.74693e-07
5.89024e-07
6.01523e-07
6.12094e-07
6.20654e-07
6.27139e-07
6.31497e-07
6.33697e-07
6.33719e-07
6.31565e-07
6.27251e-07
6.2081e-07
6.12291e-07
6.01761e-07
5.89301e-07
5.75005e-07
5.58984e-07
5.4136e-07
5.22266e-07
5.01848e-07
4.80258e-07
4.57657e-07
4.34212e-07
4.10091e-07
3.85467e-07
3.60507e-07
3.3538e-07
3.10242e-07
2.85242e-07
2.60515e-07
2.36179e-07
2.1233e-07
1.89045e-07
1.66372e-07
1.44336e-07
1.22934e-07
1.02138e-07
8.18932e-08
6.21237e-08
4.27317e-08
2.36029e-08
4.06615e-11
1.5245e-13
2.87416e-13
7.66701e-11
4.44923e-08
8.0562e-08
1.17194e-07
1.54645e-07
1.93138e-07
2.32851e-07
2.7391e-07
3.16388e-07
3.60301e-07
4.05603e-07
4.52193e-07
4.9991e-07
5.48545e-07
5.97841e-07
6.47506e-07
6.9722e-07
7.46644e-07
7.95431e-07
8.43228e-07
8.89687e-07
9.34465e-07
9.7723e-07
1.01766e-06
1.05546e-06
1.09034e-06
1.12203e-06
1.15032e-06
1.17497e-06
1.1958e-06
1.21267e-06
1.22544e-06
1.23402e-06
1.23834e-06
1.23838e-06
1.23412e-06
1.22562e-06
1.21291e-06
1.19611e-06
1.17534e-06
1.15075e-06
1.12252e-06
1.09088e-06
1.05604e-06
1.01829e-06
9.77895e-07
9.35162e-07
8.90409e-07
8.43969e-07
7.96184e-07
7.47403e-07
6.97979e-07
6.48258e-07
5.98579e-07
5.49263e-07
5.00603e-07
4.52853e-07
4.06227e-07
3.60882e-07
3.16923e-07
2.74393e-07
2.33279e-07
1.93508e-07
1.54953e-07
1.17436e-07
8.07356e-08
4.45923e-08
7.68505e-11
2.88106e-13
4.44464e-13
1.18572e-10
6.87665e-08
1.24475e-07
1.81083e-07
2.39033e-07
2.98706e-07
3.60404e-07
4.24344e-07
4.90647e-07
5.59337e-07
6.30336e-07
7.03466e-07
7.78452e-07
8.54935e-07
9.32481e-07
1.0106e-06
1.08878e-06
1.16647e-06
1.24313e-06
1.31821e-06
1.39118e-06
1.46149e-06
1.52864e-06
1.59212e-06
1.65147e-06
1.70623e-06
1.75599e-06
1.80039e-06
1.83909e-06
1.87179e-06
1.89826e-06
1.91829e-06
1.93175e-06
1.93852e-06
1.93857e-06
1.93188e-06
1.91851e-06
1.89856e-06
1.87218e-06
1.83956e-06
1.80094e-06
1.75661e-06
1.70691e-06
1.65221e-06
1.59292e-06
1.52948e-06
1.46238e-06
1.39209e-06
1.31916e-06
1.24409e-06
1.16744e-06
1.08975e-06
1.01156e-06
9.33422e-07
8.55851e-07
7.79335e-07
7.04308e-07
6.31131e-07
5.60078e-07
4.91328e-07
4.24959e-07
3.60948e-07
2.99175e-07
2.39423e-07
1.81389e-07
1.24693e-07
6.88922e-08
1.18799e-10
4.45335e-13
6.15476e-13
1.64203e-10
9.51592e-08
1.72144e-07
2.50345e-07
3.30411e-07
4.1289e-07
4.98217e-07
5.86696e-07
6.78488e-07
7.73612e-07
8.71936e-07
9.73183e-07
1.07694e-06
1.18267e-06
1.28974e-06
1.39748e-06
1.50514e-06
1.61201e-06
1.71734e-06
1.8204e-06
1.92047e-06
2.01685e-06
2.10884e-06
2.19576e-06
2.27699e-06
2.35191e-06
2.41998e-06
2.48068e-06
2.53357e-06
2.57826e-06
2.61442e-06
2.64179e-06
2.66016e-06
2.66941e-06
2.66946e-06
2.66031e-06
2.64204e-06
2.61477e-06
2.57871e-06
2.53411e-06
2.48131e-06
2.42068e-06
2.35269e-06
2.27784e-06
2.19667e-06
2.1098e-06
2.01786e-06
1.92152e-06
1.82148e-06
1.71844e-06
1.61312e-06
1.50625e-06
1.39857e-06
1.29082e-06
1.18372e-06
1.07795e-06
9.74152e-07
8.72851e-07
7.74465e-07
6.79272e-07
5.87404e-07
4.98844e-07
4.1343e-07
3.30859e-07
2.50698e-07
1.72396e-07
9.53037e-08
1.64466e-10
6.16483e-13
7.89397e-13
2.10615e-10
1.21957e-07
2.20458e-07
3.20428e-07
4.22724e-07
5.28062e-07
6.36999e-07
7.49916e-07
8.67002e-07
9.88255e-07
1.11347e-06
1.24226e-06
1.37405e-06
1.50812e-06
1.64367e-06
1.7798e-06
1.91561e-06
2.05018e-06
2.18261e-06
2.312e-06
2.43748e-06
2.55817e-06
2.67325e-06
2.7819e-06
2.88335e-06
2.97685e-06
3.06175e-06
3.13742e-06
3.20333e-06
3.25899e-06
3.30402e-06
3.33808e-06
3.36095e-06
3.37245e-06
3.3725e-06
3.36111e-06
3.33835e-06
3.30439e-06
3.25947e-06
3.2039e-06
3.13809e-06
3.0625e-06
2.97768e-06
2.88425e-06
2.78287e-06
2.67428e-06
2.55925e-06
2.43859e-06
2.31315e-06
2.18378e-06
2.05136e-06
1.91679e-06
1.78097e-06
1.64482e-06
1.50925e-06
1.37513e-06
1.2433e-06
1.11446e-06
9.89173e-07
8.67847e-07
7.50679e-07
6.37675e-07
5.28643e-07
4.23206e-07
3.20807e-07
2.20728e-07
1.22113e-07
2.10899e-10
7.90489e-13
9.55062e-13
2.54828e-10
1.47444e-07
2.66322e-07
3.86849e-07
5.10074e-07
6.36868e-07
7.67899e-07
9.03609e-07
1.0442e-06
1.18965e-06
1.33966e-06
1.49373e-06
1.65113e-06
1.81099e-06
1.97231e-06
2.13404e-06
2.29511e-06
2.45444e-06
2.61099e-06
2.76373e-06
2.91164e-06
3.05374e-06
3.18908e-06
3.31674e-06
3.43582e-06
3.54551e-06
3.64503e-06
3.7337e-06
3.81088e-06
3.87605e-06
3.92875e-06
3.9686e-06
3.99535e-06
4.00879e-06
4.00885e-06
3.99551e-06
3.96887e-06
3.92912e-06
3.87653e-06
3.81146e-06
3.73437e-06
3.64579e-06
3.54635e-06
3.43674e-06
3.31772e-06
3.19012e-06
3.05483e-06
2.91277e-06
2.76489e-06
2.61218e-06
2.45564e-06
2.29631e-06
2.13524e-06
1.97349e-06
1.81214e-06
1.65224e-06
1.49479e-06
1.34067e-06
1.19059e-06
1.04507e-06
9.04393e-07
7.68593e-07
6.37466e-07
5.10569e-07
3.87238e-07
2.666e-07
1.47603e-07
2.55122e-10
9.56191e-13
1.1034e-12
2.94424e-10
1.70234e-07
3.07267e-07
4.46057e-07
5.87827e-07
7.33584e-07
8.84089e-07
1.03983e-06
1.20103e-06
1.3676e-06
1.5392e-06
1.7152e-06
1.89474e-06
2.0768e-06
2.26024e-06
2.44387e-06
2.62648e-06
2.80687e-06
2.98386e-06
3.15633e-06
3.32316e-06
3.48327e-06
3.63562e-06
3.77919e-06
3.91302e-06
4.03622e-06
4.14795e-06
4.24743e-06
4.33401e-06
4.40708e-06
4.46615e-06
4.51083e-06
4.5408e-06
4.55586e-06
4.55591e-06
4.54096e-06
4.51109e-06
4.46652e-06
4.40755e-06
4.33457e-06
4.24809e-06
4.14869e-06
4.03705e-06
3.91392e-06
3.78015e-06
3.63664e-06
3.48434e-06
3.32427e-06
3.15748e-06
2.98503e-06
2.80805e-06
2.62767e-06
2.44506e-06
2.26141e-06
2.07794e-06
1.89584e-06
1.71625e-06
1.5402e-06
1.36854e-06
1.20189e-06
1.04061e-06
8.84778e-07
7.34177e-07
5.88319e-07
4.46442e-07
3.07542e-07
1.70392e-07
2.94716e-10
1.10453e-12
1.22869e-12
3.27874e-10
1.89462e-07
3.41764e-07
4.95879e-07
6.53178e-07
8.14782e-07
9.81525e-07
1.15394e-06
1.33224e-06
1.51631e-06
1.70574e-06
1.89981e-06
2.09754e-06
2.29781e-06
2.49934e-06
2.70083e-06
2.90097e-06
3.09846e-06
3.29204e-06
3.48049e-06
3.66261e-06
3.83726e-06
4.00331e-06
4.1597e-06
4.3054e-06
4.43945e-06
4.56097e-06
4.66915e-06
4.76326e-06
4.84268e-06
4.90687e-06
4.9554e-06
4.98795e-06
5.00431e-06
5.00436e-06
4.9881e-06
4.95565e-06
4.90722e-06
4.84313e-06
4.76381e-06
4.66979e-06
4.56169e-06
4.44025e-06
4.30626e-06
4.16063e-06
4.00429e-06
3.83829e-06
3.66369e-06
3.4816e-06
3.29317e-06
3.09961e-06
2.90212e-06
2.70197e-06
2.50047e-06
2.29891e-06
2.09862e-06
1.90084e-06
1.70672e-06
1.51722e-06
1.33308e-06
1.1547e-06
9.82195e-07
8.15358e-07
6.53656e-07
4.96253e-07
3.4203e-07
1.89616e-07
3.28159e-10
1.22979e-12
1.32881e-12
3.5461e-10
2.04816e-07
3.6928e-07
5.35581e-07
7.05211e-07
8.79377e-07
1.05898e-06
1.24457e-06
1.43637e-06
1.63423e-06
1.83769e-06
2.04594e-06
2.25794e-06
2.47245e-06
2.68811e-06
2.90354e-06
3.11735e-06
3.32816e-06
3.53463e-06
3.73549e-06
3.92948e-06
4.1154e-06
4.29207e-06
4.45839e-06
4.61327e-06
4.75574e-06
4.88484e-06
4.99974e-06
5.0997e-06
5.18406e-06
5.25225e-06
5.30381e-06
5.3384e-06
5.35578e-06
5.35583e-06
5.33855e-06
5.30406e-06
5.25259e-06
5.18449e-06
5.10022e-06
5.00035e-06
4.88553e-06
4.7565e-06
4.6141e-06
4.45928e-06
4.29302e-06
4.11639e-06
3.93051e-06
3.73655e-06
3.53572e-06
3.32926e-06
3.11845e-06
2.90465e-06
2.6892e-06
2.47351e-06
2.25898e-06
2.04694e-06
1.83863e-06
1.63511e-06
1.43718e-06
1.2453e-06
1.05962e-06
8.79933e-07
7.0567e-07
5.35941e-07
3.69536e-07
2.04964e-07
3.54885e-10
1.32988e-12
1.40473e-12
3.74887e-10
2.16453e-07
3.90118e-07
5.65627e-07
7.44565e-07
9.28208e-07
1.1175e-06
1.31301e-06
1.51497e-06
1.72321e-06
1.9372e-06
2.1561e-06
2.37878e-06
2.60395e-06
2.83019e-06
3.05605e-06
3.28006e-06
3.50081e-06
3.71691e-06
3.92702e-06
4.12987e-06
4.32418e-06
4.50877e-06
4.68249e-06
4.84422e-06
4.99295e-06
5.12772e-06
5.24769e-06
5.35207e-06
5.44017e-06
5.51139e-06
5.56524e-06
5.60137e-06
5.61951e-06
5.61956e-06
5.60151e-06
5.56548e-06
5.51171e-06
5.44058e-06
5.35257e-06
5.24827e-06
5.12838e-06
4.99368e-06
4.84502e-06
4.68334e-06
4.50968e-06
4.32514e-06
4.13086e-06
3.92805e-06
3.71795e-06
3.50187e-06
3.28113e-06
3.05711e-06
2.83124e-06
2.60498e-06
2.37978e-06
2.15705e-06
1.9381e-06
1.72405e-06
1.51575e-06
1.31372e-06
1.11812e-06
9.28743e-07
7.45007e-07
5.65973e-07
3.90364e-07
2.16595e-07
3.75152e-10
1.40576e-12
1.45948e-12
3.89516e-10
2.24844e-07
4.05136e-07
5.87274e-07
7.72909e-07
9.63369e-07
1.15963e-06
1.36228e-06
1.57154e-06
1.78722e-06
2.00879e-06
2.23533e-06
2.46569e-06
2.69851e-06
2.93234e-06
3.16567e-06
3.397e-06
3.62488e-06
3.84787e-06
4.06463e-06
4.27381e-06
4.47415e-06
4.66442e-06
4.84343e-06
5.01007e-06
5.16331e-06
5.3022e-06
5.42584e-06
5.53343e-06
5.62423e-06
5.69763e-06
5.75313e-06
5.79036e-06
5.80906e-06
5.80911e-06
5.7905e-06
5.75336e-06
5.69794e-06
5.62463e-06
5.53391e-06
5.42641e-06
5.30284e-06
5.16402e-06
5.01084e-06
4.84426e-06
4.66529e-06
4.47507e-06
4.27477e-06
4.06561e-06
3.84889e-06
3.6259e-06
3.39803e-06
3.1667e-06
2.93336e-06
2.69951e-06
2.46666e-06
2.23626e-06
2.00967e-06
1.78805e-06
1.5723e-06
1.36296e-06
1.16023e-06
9.63888e-07
7.73338e-07
5.87609e-07
4.05374e-07
2.24981e-07
3.89773e-10
1.46048e-12
1.49713e-12
3.99579e-10
2.30616e-07
4.15463e-07
6.02156e-07
7.92393e-07
9.87539e-07
1.18859e-06
1.39615e-06
1.61043e-06
1.83125e-06
2.05802e-06
2.28982e-06
2.52546e-06
2.76356e-06
3.00261e-06
3.24108e-06
3.47745e-06
3.71024e-06
3.93799e-06
4.15931e-06
4.37287e-06
4.57736e-06
4.77154e-06
4.95421e-06
5.12425e-06
5.28063e-06
5.42238e-06
5.54857e-06
5.65837e-06
5.75104e-06
5.82595e-06
5.8826e-06
5.92059e-06
5.93968e-06
5.93972e-06
5.92073e-06
5.88282e-06
5.82626e-06
5.75143e-06
5.65884e-06
5.54912e-06
5.423e-06
5.28132e-06
5.125e-06
4.95502e-06
4.77239e-06
4.57826e-06
4.3738e-06
4.16028e-06
3.93898e-06
3.71124e-06
3.47846e-06
3.24209e-06
3.0036e-06
2.76453e-06
2.52641e-06
2.29073e-06
2.05888e-06
1.83205e-06
1.61117e-06
1.39682e-06
1.18918e-06
9.88046e-07
7.92812e-07
6.02482e-07
4.15694e-07
2.30749e-07
3.9983e-10
1.49811e-12
1.52188e-12
4.06195e-10
2.3441e-07
4.22251e-07
6.11938e-07
8.05203e-07
1.00343e-06
1.20764e-06
1.41843e-06
1.63603e-06
1.86022e-06
2.09043e-06
2.32572e-06
2.56485e-06
2.80643e-06
3.04893e-06
3.29081e-06
3.53052e-06
3.76655e-06
3.99745e-06
4.22181e-06
4.43826e-06
4.6455e-06
4.84228e-06
5.02738e-06
5.19968e-06
5.35816e-06
5.50181e-06
5.6297e-06
5.74098e-06
5.8349e-06
5.91082e-06
5.96822e-06
6.00673e-06
6.02606e-06
6.02611e-06
6.00686e-06
5.96844e-06
5.91112e-06
5.83528e-06
5.74145e-06
5.63024e-06
5.50242e-06
5.35884e-06
5.20042e-06
5.02817e-06
4.84312e-06
4.64639e-06
4.43918e-06
4.22276e-06
3.99843e-06
3.76754e-06
3.53151e-06
3.2918e-06
3.04991e-06
2.80739e-06
2.56578e-06
2.32661e-06
2.09128e-06
1.86102e-06
1.63676e-06
1.41909e-06
1.20822e-06
1.00393e-06
8.05614e-07
6.12259e-07
4.22478e-07
2.34541e-07
4.06442e-10
1.52284e-12
1.53746e-12
4.10361e-10
2.368e-07
4.26526e-07
6.181e-07
8.13273e-07
1.01345e-06
1.21964e-06
1.43249e-06
1.65218e-06
1.87852e-06
2.11091e-06
2.3484e-06
2.58975e-06
2.83354e-06
3.07824e-06
3.32229e-06
3.56412e-06
3.80223e-06
4.03513e-06
4.26142e-06
4.47972e-06
4.68872e-06
4.88716e-06
5.07381e-06
5.24757e-06
5.40739e-06
5.55226e-06
5.68124e-06
5.79347e-06
5.88818e-06
5.96474e-06
6.02264e-06
6.06146e-06
6.08097e-06
6.08101e-06
6.06159e-06
6.02285e-06
5.96504e-06
5.88856e-06
5.79392e-06
5.68177e-06
5.55286e-06
5.40806e-06
5.2483e-06
5.07459e-06
4.88799e-06
4.6896e-06
4.48064e-06
4.26236e-06
4.0361e-06
3.80321e-06
3.56511e-06
3.32327e-06
3.07921e-06
2.83449e-06
2.59067e-06
2.34929e-06
2.11175e-06
1.87931e-06
1.6529e-06
1.43314e-06
1.22022e-06
1.01394e-06
8.13681e-07
6.18418e-07
4.26751e-07
2.36929e-07
4.10606e-10
1.53841e-12
1.54686e-12
4.12879e-10
2.38244e-07
4.2911e-07
6.21825e-07
8.18154e-07
1.01951e-06
1.22692e-06
1.441e-06
1.66197e-06
1.88961e-06
2.12334e-06
2.36217e-06
2.60488e-06
2.85002e-06
3.09607e-06
3.34144e-06
3.58458e-06
3.82396e-06
4.05809e-06
4.28557e-06
4.505e-06
4.71509e-06
4.91454e-06
5.10214e-06
5.2768e-06
5.43745e-06
5.58308e-06
5.71273e-06
5.82554e-06
5.92075e-06
5.99771e-06
6.0559e-06
6.09493e-06
6.11453e-06
6.11458e-06
6.09506e-06
6.05612e-06
5.99801e-06
5.92113e-06
5.826e-06
5.71326e-06
5.58368e-06
5.43812e-06
5.27753e-06
5.10293e-06
4.91537e-06
4.71596e-06
4.50591e-06
4.2865e-06
4.05905e-06
3.82493e-06
3.58556e-06
3.34242e-06
3.09704e-06
2.85097e-06
2.6058e-06
2.36306e-06
2.12417e-06
1.8904e-06
1.66269e-06
1.44165e-06
1.22749e-06
1.02e-06
8.1856e-07
6.22141e-07
4.29334e-07
2.38373e-07
4.13122e-10
1.54781e-12
1.55233e-12
4.14341e-10
2.39083e-07
4.30611e-07
6.23991e-07
8.20993e-07
1.02303e-06
1.23115e-06
1.44596e-06
1.66768e-06
1.89609e-06
2.13059e-06
2.37022e-06
2.61372e-06
2.85966e-06
3.1065e-06
3.35266e-06
3.59657e-06
3.8367e-06
4.07156e-06
4.29974e-06
4.51985e-06
4.73057e-06
4.93063e-06
5.1188e-06
5.29399e-06
5.45514e-06
5.60121e-06
5.73126e-06
5.84442e-06
5.93992e-06
6.01712e-06
6.07549e-06
6.11464e-06
6.1343e-06
6.13434e-06
6.11477e-06
6.0757e-06
6.01741e-06
5.9403e-06
5.84488e-06
5.73179e-06
5.60181e-06
5.4558e-06
5.29472e-06
5.11958e-06
4.93146e-06
4.73144e-06
4.52076e-06
4.30068e-06
4.07252e-06
3.83767e-06
3.59755e-06
3.35364e-06
3.10747e-06
2.86061e-06
2.61464e-06
2.3711e-06
2.13143e-06
1.89687e-06
1.6684e-06
1.44661e-06
1.23172e-06
1.02353e-06
8.21398e-07
6.24307e-07
4.30835e-07
2.39212e-07
4.14584e-10
1.55328e-12
1.55538e-12
4.15159e-10
2.39552e-07
4.31452e-07
6.25204e-07
8.22584e-07
1.02501e-06
1.23352e-06
1.44874e-06
1.67088e-06
1.89973e-06
2.13467e-06
2.37475e-06
2.61871e-06
2.8651e-06
3.11239e-06
3.359e-06
3.60334e-06
3.8439e-06
4.07918e-06
4.30776e-06
4.52825e-06
4.73934e-06
4.93975e-06
5.12825e-06
5.30374e-06
5.46517e-06
5.6115e-06
5.74178e-06
5.85514e-06
5.9508e-06
6.02814e-06
6.08661e-06
6.12583e-06
6.14553e-06
6.14557e-06
6.12596e-06
6.08682e-06
6.02843e-06
5.95118e-06
5.85559e-06
5.74231e-06
5.6121e-06
5.46583e-06
5.30447e-06
5.12903e-06
4.94058e-06
4.74021e-06
4.52916e-06
4.30869e-06
4.08014e-06
3.84487e-06
3.60432e-06
3.35998e-06
3.11336e-06
2.86605e-06
2.61963e-06
2.37563e-06
2.13551e-06
1.90051e-06
1.6716e-06
1.44939e-06
1.2341e-06
1.0255e-06
8.22989e-07
6.25519e-07
4.31676e-07
2.39681e-07
4.15402e-10
1.55633e-12
1.55703e-12
4.15601e-10
2.39806e-07
4.31906e-07
6.25859e-07
8.23443e-07
1.02608e-06
1.23481e-06
1.45025e-06
1.67262e-06
1.9017e-06
2.13689e-06
2.37721e-06
2.62142e-06
2.86806e-06
3.1156e-06
3.36245e-06
3.60704e-06
3.84783e-06
4.08334e-06
4.31214e-06
4.53285e-06
4.74414e-06
4.94473e-06
5.13341e-06
5.30908e-06
5.47066e-06
5.61713e-06
5.74754e-06
5.86101e-06
5.95677e-06
6.03418e-06
6.09271e-06
6.13196e-06
6.15168e-06
6.15172e-06
6.13209e-06
6.09292e-06
6.03447e-06
5.95715e-06
5.86146e-06
5.74807e-06
5.61773e-06
5.47132e-06
5.3098e-06
5.13419e-06
4.94556e-06
4.74501e-06
4.53375e-06
4.31307e-06
4.0843e-06
3.8488e-06
3.60802e-06
3.36343e-06
3.11657e-06
2.86901e-06
2.62234e-06
2.3781e-06
2.13773e-06
1.90249e-06
1.67334e-06
1.4509e-06
1.23538e-06
1.02657e-06
8.23848e-07
6.26175e-07
4.3213e-07
2.39935e-07
4.15843e-10
1.55798e-12
1.55789e-12
4.15831e-10
2.39938e-07
4.32143e-07
6.26201e-07
8.23892e-07
1.02664e-06
1.23548e-06
1.45104e-06
1.67353e-06
1.90274e-06
2.13805e-06
2.37851e-06
2.62284e-06
2.86962e-06
3.11729e-06
3.36427e-06
3.60899e-06
3.8499e-06
4.08553e-06
4.31445e-06
4.53527e-06
4.74667e-06
4.94737e-06
5.13614e-06
5.3119e-06
5.47356e-06
5.62012e-06
5.75059e-06
5.86412e-06
5.95993e-06
6.03738e-06
6.09594e-06
6.13522e-06
6.15494e-06
6.15498e-06
6.13534e-06
6.09615e-06
6.03767e-06
5.96031e-06
5.86457e-06
5.75112e-06
5.62072e-06
5.47423e-06
5.31262e-06
5.13692e-06
4.9482e-06
4.74754e-06
4.53618e-06
4.31539e-06
4.08649e-06
3.85088e-06
3.60997e-06
3.36525e-06
3.11826e-06
2.87057e-06
2.62376e-06
2.37939e-06
2.13889e-06
1.90352e-06
1.67425e-06
1.45169e-06
1.23606e-06
1.02713e-06
8.24297e-07
6.26516e-07
4.32366e-07
2.40067e-07
4.16073e-10
1.55884e-12
1.55832e-12
4.15947e-10
2.40005e-07
4.32262e-07
6.26373e-07
8.24119e-07
1.02692e-06
1.23582e-06
1.45144e-06
1.67399e-06
1.90326e-06
2.13864e-06
2.37916e-06
2.62357e-06
2.87041e-06
3.11815e-06
3.3652e-06
3.60998e-06
3.85096e-06
4.08665e-06
4.31563e-06
4.53651e-06
4.74796e-06
4.94872e-06
5.13754e-06
5.31334e-06
5.47505e-06
5.62164e-06
5.75215e-06
5.86571e-06
5.96155e-06
6.03902e-06
6.09759e-06
6.13688e-06
6.15661e-06
6.15666e-06
6.13701e-06
6.09781e-06
6.03931e-06
5.96193e-06
5.86617e-06
5.75268e-06
5.62224e-06
5.47572e-06
5.31407e-06
5.13832e-06
4.94955e-06
4.74884e-06
4.53742e-06
4.31657e-06
4.08761e-06
3.85193e-06
3.61096e-06
3.36617e-06
3.11912e-06
2.87136e-06
2.62449e-06
2.38005e-06
2.13948e-06
1.90405e-06
1.67471e-06
1.45209e-06
1.2364e-06
1.02741e-06
8.24524e-07
6.26689e-07
4.32486e-07
2.40133e-07
4.16189e-10
1.55927e-12
1.55853e-12
4.16003e-10
2.40037e-07
4.3232e-07
6.26457e-07
8.24229e-07
1.02706e-06
1.23599e-06
1.45164e-06
1.67422e-06
1.90352e-06
2.13893e-06
2.37949e-06
2.62392e-06
2.8708e-06
3.11857e-06
3.36565e-06
3.61047e-06
3.85148e-06
4.08721e-06
4.31621e-06
4.53712e-06
4.74861e-06
4.94938e-06
5.13823e-06
5.31406e-06
5.47579e-06
5.6224e-06
5.75293e-06
5.8665e-06
5.96235e-06
6.03983e-06
6.09842e-06
6.13771e-06
6.15744e-06
6.15749e-06
6.13784e-06
6.09863e-06
6.04013e-06
5.96273e-06
5.86696e-06
5.75346e-06
5.623e-06
5.47646e-06
5.31479e-06
5.13901e-06
4.95021e-06
4.74948e-06
4.53803e-06
4.31715e-06
4.08817e-06
3.85246e-06
3.61145e-06
3.36663e-06
3.11954e-06
2.87175e-06
2.62484e-06
2.38037e-06
2.13977e-06
1.9043e-06
1.67494e-06
1.45229e-06
1.23656e-06
1.02755e-06
8.24635e-07
6.26773e-07
4.32544e-07
2.40166e-07
4.16246e-10
1.55948e-12
1.55863e-12
4.1603e-10
2.40053e-07
4.32348e-07
6.26497e-07
8.24282e-07
1.02713e-06
1.23607e-06
1.45173e-06
1.67433e-06
1.90364e-06
2.13907e-06
2.37964e-06
2.62409e-06
2.87099e-06
3.11877e-06
3.36587e-06
3.6107e-06
3.85173e-06
4.08747e-06
4.31649e-06
4.53742e-06
4.74891e-06
4.9497e-06
5.13857e-06
5.3144e-06
5.47615e-06
5.62277e-06
5.7533e-06
5.86688e-06
5.96274e-06
6.04022e-06
6.09881e-06
6.13811e-06
6.15784e-06
6.15789e-06
6.13824e-06
6.09903e-06
6.04052e-06
5.96312e-06
5.86734e-06
5.75383e-06
5.62337e-06
5.47681e-06
5.31513e-06
5.13935e-06
4.95053e-06
4.74979e-06
4.53833e-06
4.31743e-06
4.08843e-06
3.85271e-06
3.61168e-06
3.36685e-06
3.11974e-06
2.87194e-06
2.62501e-06
2.38052e-06
2.13991e-06
1.90443e-06
1.67505e-06
1.45238e-06
1.23664e-06
1.02762e-06
8.24687e-07
6.26813e-07
4.32572e-07
2.40181e-07
4.16273e-10
1.55958e-12
1.55868e-12
4.16042e-10
2.4006e-07
4.32361e-07
6.26516e-07
8.24306e-07
1.02716e-06
1.2361e-06
1.45177e-06
1.67438e-06
1.9037e-06
2.13914e-06
2.37971e-06
2.62417e-06
2.87107e-06
3.11887e-06
3.36597e-06
3.61081e-06
3.85185e-06
4.0876e-06
4.31662e-06
4.53755e-06
4.74906e-06
4.94985e-06
5.13872e-06
5.31456e-06
5.47631e-06
5.62293e-06
5.75347e-06
5.86706e-06
5.96292e-06
6.04041e-06
6.099e-06
6.13829e-06
6.15803e-06
6.15807e-06
6.13842e-06
6.09921e-06
6.0407e-06
5.9633e-06
5.86751e-06
5.75401e-06
5.62354e-06
5.47698e-06
5.31529e-06
5.1395e-06
4.95068e-06
4.74993e-06
4.53846e-06
4.31756e-06
4.08856e-06
3.85282e-06
3.61179e-06
3.36695e-06
3.11984e-06
2.87202e-06
2.62509e-06
2.38059e-06
2.13997e-06
1.90448e-06
1.6751e-06
1.45242e-06
1.23668e-06
1.02765e-06
8.24711e-07
6.26831e-07
4.32584e-07
2.40188e-07
4.16285e-10
1.55963e-12
1.5587e-12
4.16048e-10
2.40063e-07
4.32366e-07
6.26524e-07
8.24316e-07
1.02717e-06
1.23612e-06
1.45179e-06
1.6744e-06
1.90373e-06
2.13916e-06
2.37974e-06
2.62421e-06
2.87111e-06
3.11891e-06
3.36602e-06
3.61086e-06
3.8519e-06
4.08765e-06
4.31668e-06
4.53762e-06
4.74912e-06
4.94992e-06
5.13879e-06
5.31464e-06
5.47639e-06
5.62301e-06
5.75355e-06
5.86714e-06
5.963e-06
6.04049e-06
6.09908e-06
6.13838e-06
6.15811e-06
6.15816e-06
6.13851e-06
6.09929e-06
6.04079e-06
5.96338e-06
5.86759e-06
5.75408e-06
5.62361e-06
5.47705e-06
5.31536e-06
5.13957e-06
4.95075e-06
4.74999e-06
4.53853e-06
4.31762e-06
4.08861e-06
3.85287e-06
3.61184e-06
3.367e-06
3.11988e-06
2.87206e-06
2.62513e-06
2.38063e-06
2.14e-06
1.90451e-06
1.67512e-06
1.45244e-06
1.23669e-06
1.02766e-06
8.24722e-07
6.2684e-07
4.3259e-07
2.40192e-07
4.1629e-10
1.55965e-12
1.55871e-12
4.1605e-10
2.40064e-07
4.32369e-07
6.26527e-07
8.24321e-07
1.02718e-06
1.23613e-06
1.4518e-06
1.67441e-06
1.90374e-06
2.13918e-06
2.37976e-06
2.62422e-06
2.87113e-06
3.11893e-06
3.36604e-06
3.61088e-06
3.85192e-06
4.08768e-06
4.31671e-06
4.53764e-06
4.74915e-06
4.94995e-06
5.13882e-06
5.31467e-06
5.47642e-06
5.62305e-06
5.75359e-06
5.86717e-06
5.96304e-06
6.04053e-06
6.09912e-06
6.13841e-06
6.15815e-06
6.15819e-06
6.13854e-06
6.09933e-06
6.04082e-06
5.96341e-06
5.86763e-06
5.75412e-06
5.62365e-06
5.47708e-06
5.31539e-06
5.1396e-06
4.95078e-06
4.75002e-06
4.53855e-06
4.31765e-06
4.08864e-06
3.8529e-06
3.61186e-06
3.36702e-06
3.1199e-06
2.87208e-06
2.62514e-06
2.38064e-06
2.14001e-06
1.90452e-06
1.67513e-06
1.45245e-06
1.2367e-06
1.02767e-06
8.24727e-07
6.26843e-07
4.32592e-07
2.40193e-07
4.16293e-10
1.55966e-12
1.55871e-12
4.16051e-10
2.40065e-07
4.3237e-07
6.26529e-07
8.24323e-07
1.02718e-06
1.23613e-06
1.4518e-06
1.67441e-06
1.90374e-06
2.13918e-06
2.37976e-06
2.62423e-06
2.87114e-06
3.11894e-06
3.36605e-06
3.61089e-06
3.85193e-06
4.08769e-06
4.31672e-06
4.53766e-06
4.74916e-06
4.94996e-06
5.13883e-06
5.31468e-06
5.47643e-06
5.62306e-06
5.7536e-06
5.86719e-06
5.96305e-06
6.04054e-06
6.09913e-06
6.13843e-06
6.15817e-06
6.15821e-06
6.13856e-06
6.09935e-06
6.04084e-06
5.96343e-06
5.86765e-06
5.75413e-06
5.62366e-06
5.4771e-06
5.31541e-06
5.13962e-06
4.95079e-06
4.75004e-06
4.53856e-06
4.31766e-06
4.08865e-06
3.85291e-06
3.61187e-06
3.36703e-06
3.11991e-06
2.87209e-06
2.62515e-06
2.38065e-06
2.14002e-06
1.90453e-06
1.67513e-06
1.45245e-06
1.2367e-06
1.02767e-06
8.24729e-07
6.26845e-07
4.32594e-07
2.40193e-07
4.16294e-10
1.55966e-12
1.55871e-12
4.16051e-10
2.40065e-07
4.3237e-07
6.26529e-07
8.24324e-07
1.02718e-06
1.23613e-06
1.45181e-06
1.67441e-06
1.90374e-06
2.13918e-06
2.37976e-06
2.62423e-06
2.87114e-06
3.11894e-06
3.36605e-06
3.61089e-06
3.85194e-06
4.08769e-06
4.31673e-06
4.53766e-06
4.74917e-06
4.94997e-06
5.13884e-06
5.31469e-06
5.47644e-06
5.62307e-06
5.75361e-06
5.8672e-06
5.96306e-06
6.04055e-06
6.09914e-06
6.13844e-06
6.15817e-06
6.15822e-06
6.13857e-06
6.09935e-06
6.04085e-06
5.96344e-06
5.86765e-06
5.75414e-06
5.62367e-06
5.4771e-06
5.31541e-06
5.13962e-06
4.9508e-06
4.75004e-06
4.53857e-06
4.31766e-06
4.08865e-06
3.85291e-06
3.61188e-06
3.36703e-06
3.11991e-06
2.87209e-06
2.62515e-06
2.38065e-06
2.14002e-06
1.90453e-06
1.67513e-06
1.45246e-06
1.2367e-06
1.02767e-06
8.24729e-07
6.26845e-07
4.32594e-07
2.40194e-07
4.16294e-10
1.55966e-12
1.55871e-12
4.16051e-10
2.40065e-07
4.3237e-07
6.2653e-07
8.24324e-07
1.02718e-06
1.23613e-06
1.45181e-06
1.67441e-06
1.90374e-06
2.13918e-06
2.37977e-06
2.62423e-06
2.87114e-06
3.11894e-06
3.36605e-06
3.6109e-06
3.85194e-06
4.08769e-06
4.31673e-06
4.53766e-06
4.74917e-06
4.94997e-06
5.13884e-06
5.31469e-06
5.47644e-06
5.62307e-06
5.75361e-06
5.8672e-06
5.96306e-06
6.04055e-06
6.09914e-06
6.13844e-06
6.15818e-06
6.15822e-06
6.13857e-06
6.09936e-06
6.04085e-06
5.96344e-06
5.86765e-06
5.75414e-06
5.62367e-06
5.47711e-06
5.31542e-06
5.13962e-06
4.9508e-06
4.75004e-06
4.53857e-06
4.31767e-06
4.08865e-06
3.85291e-06
3.61188e-06
3.36703e-06
3.11991e-06
2.87209e-06
2.62515e-06
2.38065e-06
2.14002e-06
1.90453e-06
1.67513e-06
1.45246e-06
1.2367e-06
1.02767e-06
8.2473e-07
6.26845e-07
4.32594e-07
2.40194e-07
4.16294e-10
1.55966e-12
1.55871e-12
4.16051e-10
2.40065e-07
4.3237e-07
6.2653e-07
8.24324e-07
1.02718e-06
1.23613e-06
1.45181e-06
1.67441e-06
1.90374e-06
2.13919e-06
2.37977e-06
2.62423e-06
2.87114e-06
3.11894e-06
3.36605e-06
3.6109e-06
3.85194e-06
4.08769e-06
4.31673e-06
4.53766e-06
4.74917e-06
4.94997e-06
5.13884e-06
5.31469e-06
5.47644e-06
5.62307e-06
5.75361e-06
5.8672e-06
5.96306e-06
6.04055e-06
6.09914e-06
6.13844e-06
6.15818e-06
6.15822e-06
6.13857e-06
6.09936e-06
6.04085e-06
5.96344e-06
5.86766e-06
5.75414e-06
5.62367e-06
5.47711e-06
5.31542e-06
5.13963e-06
4.9508e-06
4.75004e-06
4.53857e-06
4.31767e-06
4.08865e-06
3.85291e-06
3.61188e-06
3.36703e-06
3.11991e-06
2.87209e-06
2.62515e-06
2.38065e-06
2.14002e-06
1.90453e-06
1.67513e-06
1.45246e-06
1.2367e-06
1.02767e-06
8.2473e-07
6.26846e-07
4.32594e-07
2.40194e-07
4.16294e-10
1.55966e-12
1.55871e-12
4.16052e-10
2.40065e-07
4.3237e-07
6.2653e-07
8.24324e-07
1.02718e-06
1.23613e-06
1.45181e-06
1.67441e-06
1.90374e-06
2.13919e-06
2.37977e-06
2.62423e-06
2.87114e-06
3.11894e-06
3.36605e-06
3.6109e-06
3.85194e-06
4.08769e-06
4.31673e-06
4.53766e-06
4.74917e-06
4.94997e-06
5.13884e-06
5.31469e-06
5.47644e-06
5.62307e-06
5.75361e-06
5.8672e-06
5.96306e-06
6.04055e-06
6.09914e-06
6.13844e-06
6.15818e-06
6.15822e-06
6.13857e-06
6.09936e-06
6.04085e-06
5.96344e-06
5.86766e-06
5.75414e-06
5.62367e-06
5.47711e-06
5.31542e-06
5.13963e-06
4.9508e-06
4.75004e-06
4.53857e-06
4.31767e-06
4.08865e-06
3.85291e-06
3.61188e-06
3.36703e-06
3.11991e-06
2.87209e-06
2.62515e-06
2.38065e-06
2.14002e-06
1.90453e-06
1.67514e-06
1.45246e-06
1.23671e-06
1.02767e-06
8.2473e-07
6.26846e-07
4.32594e-07
2.40194e-07
4.16294e-10
1.55966e-12
1.55871e-12
4.16052e-10
2.40065e-07
4.3237e-07
6.2653e-07
8.24324e-07
1.02718e-06
1.23613e-06
1.45181e-06
1.67441e-06
1.90374e-06
2.13919e-06
2.37977e-06
2.62423e-06
2.87114e-06
3.11894e-06
3.36605e-06
3.6109e-06
3.85194e-06
4.08769e-06
4.31673e-06
4.53766e-06
4.74917e-06
4.94997e-06
5.13884e-06
5.31469e-06
5.47644e-06
5.62307e-06
5.75361e-06
5.8672e-06
5.96306e-06
6.04055e-06
6.09914e-06
6.13844e-06
6.15818e-06
6.15822e-06
6.13857e-06
6.09936e-06
6.04085e-06
5.96344e-06
5.86766e-06
5.75414e-06
5.62367e-06
5.47711e-06
5.31542e-06
5.13963e-06
4.9508e-06
4.75004e-06
4.53857e-06
4.31767e-06
4.08865e-06
3.85291e-06
3.61188e-06
3.36703e-06
3.11991e-06
2.87209e-06
2.62515e-06
2.38065e-06
2.14002e-06
1.90453e-06
1.67514e-06
1.45246e-06
1.23671e-06
1.02767e-06
8.2473e-07
6.26846e-07
4.32594e-07
2.40194e-07
4.16294e-10
1.55966e-12
1.55871e-12
4.16052e-10
2.40065e-07
4.3237e-07
6.2653e-07
8.24324e-07
1.02718e-06
1.23613e-06
1.45181e-06
1.67441e-06
1.90374e-06
2.13919e-06
2.37977e-06
2.62423e-06
2.87114e-06
3.11894e-06
3.36605e-06
3.6109e-06
3.85194e-06
4.08769e-06
4.31673e-06
4.53766e-06
4.74917e-06
4.94997e-06
5.13884e-06
5.31469e-06
5.47644e-06
5.62307e-06
5.75361e-06
5.8672e-06
5.96306e-06
6.04055e-06
6.09914e-06
6.13844e-06
6.15818e-06
6.15822e-06
6.13857e-06
6.09936e-06
6.04085e-06
5.96344e-06
5.86766e-06
5.75414e-06
5.62367e-06
5.47711e-06
5.31542e-06
5.13963e-06
4.9508e-06
4.75004e-06
4.53857e-06
4.31767e-06
4.08865e-06
3.85291e-06
3.61188e-06
3.36703e-06
3.11991e-06
2.87209e-06
2.62515e-06
2.38065e-06
2.14002e-06
1.90453e-06
1.67514e-06
1.45246e-06
1.23671e-06
1.02767e-06
8.2473e-07
6.26846e-07
4.32594e-07
2.40194e-07
4.16294e-10
1.55966e-12
1.55871e-12
4.16052e-10
2.40065e-07
4.3237e-07
6.2653e-07
8.24324e-07
1.02718e-06
1.23613e-06
1.45181e-06
1.67441e-06
1.90374e-06
2.13919e-06
2.37977e-06
2.62423e-06
2.87114e-06
3.11894e-06
3.36605e-06
3.6109e-06
3.85194e-06
4.08769e-06
4.31673e-06
4.53766e-06
4.74917e-06
4.94997e-06
5.13884e-06
5.31469e-06
5.47644e-06
5.62307e-06
5.75361e-06
5.8672e-06
5.96306e-06
6.04055e-06
6.09914e-06
6.13844e-06
6.15818e-06
6.15822e-06
6.13857e-06
6.09936e-06
6.04085e-06
5.96344e-06
5.86766e-06
5.75414e-06
5.62367e-06
5.47711e-06
5.31542e-06
5.13963e-06
4.9508e-06
4.75004e-06
4.53857e-06
4.31767e-06
4.08865e-06
3.85291e-06
3.61188e-06
3.36703e-06
3.11991e-06
2.87209e-06
2.62515e-06
2.38065e-06
2.14002e-06
1.90453e-06
1.67514e-06
1.45246e-06
1.23671e-06
1.02767e-06
8.2473e-07
6.26846e-07
4.32594e-07
2.40194e-07
4.16294e-10
1.55966e-12
1.55871e-12
4.16052e-10
2.40065e-07
4.3237e-07
6.2653e-07
8.24324e-07
1.02718e-06
1.23613e-06
1.45181e-06
1.67441e-06
1.90374e-06
2.13919e-06
2.37977e-06
2.62423e-06