/*--------------------------------*- C++ -*----------------------------------*\
  =========                 |
  \\      /  F ield         | OpenFOAM: The Open Source CFD Toolbox
   \\    /   O peration     | Website:  https://openfoam.org
    \\  /    A nd           | Version:  13
     \\/     M anipulation  |
\*---------------------------------------------------------------------------*/
FoamFile
{
    format      ascii;
    class       volScalarField;
    location    "13";
    object      nut;
}
// * * * * * * * * * * * * * * * * * * * * * * * * * * * * * * * * * * * * * //

dimensions      [0 2 -1 0 0 0 0];

internalField   nonuniform List<scalar> 
78750
(
2.54337e-14
6.53983e-12
1.48098e-10
2.69574e-10
3.98996e-10
5.37703e-10
6.85892e-10
8.42406e-10
1.00475e-09
1.16926e-09
1.33143e-09
1.48623e-09
1.62848e-09
1.75316e-09
1.85573e-09
1.93237e-09
1.98019e-09
1.99738e-09
1.98327e-09
1.9384e-09
1.86449e-09
1.76433e-09
1.64163e-09
1.50088e-09
1.34704e-09
1.18525e-09
1.02057e-09
8.57515e-10
6.99812e-10
5.50022e-10
4.0936e-10
2.77624e-10
1.53308e-10
6.81692e-12
2.66082e-14
5.60526e-13
1.46411e-10
2.07604e-08
3.80696e-08
5.65065e-08
7.63286e-08
9.75878e-08
1.20116e-07
1.43539e-07
1.67307e-07
1.90748e-07
2.13121e-07
2.33669e-07
2.51662e-07
2.66446e-07
2.77471e-07
2.84324e-07
2.86745e-07
2.84644e-07
2.781e-07
2.6736e-07
2.52826e-07
2.35038e-07
2.14644e-07
1.92365e-07
1.68957e-07
1.45159e-07
1.21647e-07
9.89735e-08
7.75232e-08
5.74721e-08
3.87752e-08
2.11759e-08
1.49551e-10
5.72837e-13
1.67411e-12
4.37519e-10
6.21384e-08
1.14714e-07
1.72043e-07
2.35336e-07
3.04958e-07
3.80353e-07
4.60061e-07
5.41903e-07
6.23276e-07
7.01402e-07
7.73469e-07
8.3677e-07
8.88861e-07
9.2771e-07
9.51797e-07
9.60181e-07
9.52537e-07
9.29162e-07
8.9097e-07
8.39454e-07
7.76627e-07
7.04913e-07
6.27009e-07
5.45718e-07
4.63813e-07
3.83899e-07
3.08164e-07
2.38084e-07
1.74244e-07
1.163e-07
6.30587e-08
4.44411e-10
1.70102e-12
3.205e-12
8.38096e-10
1.18957e-07
2.19776e-07
3.30231e-07
4.52735e-07
5.87856e-07
7.34167e-07
8.88402e-07
1.04608e-06
1.20221e-06
1.35163e-06
1.48912e-06
1.60961e-06
1.70856e-06
1.78219e-06
1.82773e-06
1.84345e-06
1.82876e-06
1.78421e-06
1.71149e-06
1.61334e-06
1.49352e-06
1.35653e-06
1.20744e-06
1.05145e-06
8.93715e-07
7.39225e-07
5.92464e-07
4.56712e-07
3.33429e-07
2.22083e-07
1.20293e-07
8.48118e-10
3.24407e-12
4.70585e-12
1.23123e-09
1.7454e-07
3.22099e-07
4.83551e-07
6.62234e-07
8.58593e-07
1.07001e-06
1.2913e-06
1.51584e-06
1.73659e-06
1.94649e-06
2.13854e-06
2.3061e-06
2.4432e-06
2.54495e-06
2.60771e-06
2.62927e-06
2.60884e-06
2.54717e-06
2.44643e-06
2.31022e-06
2.14341e-06
1.95194e-06
1.74243e-06
1.52186e-06
1.2973e-06
1.07576e-06
8.63867e-07
6.66815e-07
4.87251e-07
3.24775e-07
1.76091e-07
1.2429e-09
4.75131e-12
5.84595e-12
1.53034e-09
2.16729e-07
3.99461e-07
5.98976e-07
8.19185e-07
1.06028e-06
1.31863e-06
1.5876e-06
1.85909e-06
2.12466e-06
2.37601e-06
2.60509e-06
2.80431e-06
2.96693e-06
3.08738e-06
3.16156e-06
3.18695e-06
3.16269e-06
3.0896e-06
2.97016e-06
2.80844e-06
2.60998e-06
2.38149e-06
2.13054e-06
1.86519e-06
1.5937e-06
1.32451e-06
1.06569e-06
8.23901e-07
6.02796e-07
4.02227e-07
2.18331e-07
1.54244e-09
5.89308e-12
6.54936e-12
1.71526e-09
2.42783e-07
4.4711e-07
6.69866e-07
9.15269e-07
1.18331e-06
1.46971e-06
1.76696e-06
2.0661e-06
2.35791e-06
2.63341e-06
2.88395e-06
3.10145e-06
3.27875e-06
3.40994e-06
3.49066e-06
3.51824e-06
3.49176e-06
3.4121e-06
3.28189e-06
3.10548e-06
2.88872e-06
2.63876e-06
2.36367e-06
2.07208e-06
1.77296e-06
1.47549e-06
1.18865e-06
9.19931e-07
6.73646e-07
4.49847e-07
2.44367e-07
1.72725e-09
6.59609e-12
6.91392e-12
1.81132e-09
2.56319e-07
4.71832e-07
7.06587e-07
9.64953e-07
1.2468e-06
1.54752e-06
1.85917e-06
2.17233e-06
2.47741e-06
2.76509e-06
3.02644e-06
3.25313e-06
3.4378e-06
3.57438e-06
3.65839e-06
3.68706e-06
3.65946e-06
3.57649e-06
3.44087e-06
3.25707e-06
3.0311e-06
2.77032e-06
2.48305e-06
2.17819e-06
1.86505e-06
1.5532e-06
1.25205e-06
9.6954e-07
7.10308e-07
4.74525e-07
2.57877e-07
1.82312e-09
6.95995e-12
7.07686e-12
1.85436e-09
2.6239e-07
4.82913e-07
7.23037e-07
9.87194e-07
1.27521e-06
1.5823e-06
1.90034e-06
2.21973e-06
2.53071e-06
2.82379e-06
3.08992e-06
3.32069e-06
3.50862e-06
3.64758e-06
3.73304e-06
3.76219e-06
3.73409e-06
3.64966e-06
3.51165e-06
3.32457e-06
3.09452e-06
2.82896e-06
2.53628e-06
2.22553e-06
1.90616e-06
1.58792e-06
1.2804e-06
9.91737e-07
7.26722e-07
4.8558e-07
2.63931e-07
1.86604e-09
7.12245e-12
7.14095e-12
1.87133e-09
2.64788e-07
4.87291e-07
7.29534e-07
9.95977e-07
1.28642e-06
1.59603e-06
1.91659e-06
2.23844e-06
2.55174e-06
2.84694e-06
3.11497e-06
3.34734e-06
3.53656e-06
3.67646e-06
3.76248e-06
3.79183e-06
3.76354e-06
3.67853e-06
3.53957e-06
3.3512e-06
3.11955e-06
2.85209e-06
2.55728e-06
2.24421e-06
1.92239e-06
1.60163e-06
1.2916e-06
1.0005e-06
7.33204e-07
4.89946e-07
2.66322e-07
1.88297e-09
7.18636e-12
7.16351e-12
1.87732e-09
2.65636e-07
4.88838e-07
7.31832e-07
9.99083e-07
1.29039e-06
1.60089e-06
1.92235e-06
2.24506e-06
2.55918e-06
2.85514e-06
3.12384e-06
3.35678e-06
3.54645e-06
3.68669e-06
3.77291e-06
3.80233e-06
3.77397e-06
3.68876e-06
3.54946e-06
3.36063e-06
3.12841e-06
2.86028e-06
2.56472e-06
2.25083e-06
1.92813e-06
1.60648e-06
1.29556e-06
1.0036e-06
7.35497e-07
4.91489e-07
2.67168e-07
1.88894e-09
7.20885e-12
7.17069e-12
1.87923e-09
2.65907e-07
4.89333e-07
7.32567e-07
1.00008e-06
1.29166e-06
1.60244e-06
1.92419e-06
2.24719e-06
2.56157e-06
2.85778e-06
3.12669e-06
3.35981e-06
3.54963e-06
3.68997e-06
3.77627e-06
3.8057e-06
3.77732e-06
3.69204e-06
3.55264e-06
3.36366e-06
3.13126e-06
2.86291e-06
2.56711e-06
2.25295e-06
1.92998e-06
1.60804e-06
1.29683e-06
1.0046e-06
7.36231e-07
4.91984e-07
2.67438e-07
1.89085e-09
7.21603e-12
7.17278e-12
1.87979e-09
2.65986e-07
4.89478e-07
7.32783e-07
1.00037e-06
1.29203e-06
1.6029e-06
1.92473e-06
2.24781e-06
2.56227e-06
2.85855e-06
3.12752e-06
3.3607e-06
3.55056e-06
3.69094e-06
3.77725e-06
3.80669e-06
3.7783e-06
3.69301e-06
3.55358e-06
3.36456e-06
3.1321e-06
2.86369e-06
2.56781e-06
2.25357e-06
1.93052e-06
1.60849e-06
1.2972e-06
1.00489e-06
7.36447e-07
4.92129e-07
2.67518e-07
1.89141e-09
7.21812e-12
7.17335e-12
1.87994e-09
2.66008e-07
4.89517e-07
7.32841e-07
1.00045e-06
1.29213e-06
1.60302e-06
1.92488e-06
2.24798e-06
2.56246e-06
2.85876e-06
3.12775e-06
3.36094e-06
3.55082e-06
3.6912e-06
3.77752e-06
3.80696e-06
3.77857e-06
3.69327e-06
3.55383e-06
3.3648e-06
3.13232e-06
2.8639e-06
2.568e-06
2.25374e-06
1.93066e-06
1.60862e-06
1.2973e-06
1.00497e-06
7.36505e-07
4.92168e-07
2.67539e-07
1.89156e-09
7.21868e-12
7.17349e-12
1.87998e-09
2.66013e-07
4.89527e-07
7.32856e-07
1.00047e-06
1.29216e-06
1.60305e-06
1.92491e-06
2.24802e-06
2.56251e-06
2.85881e-06
3.12781e-06
3.361e-06
3.55088e-06
3.69127e-06
3.77759e-06
3.80703e-06
3.77864e-06
3.69333e-06
3.55389e-06
3.36486e-06
3.13238e-06
2.86395e-06
2.56805e-06
2.25379e-06
1.9307e-06
1.60865e-06
1.29733e-06
1.00499e-06
7.3652e-07
4.92178e-07
2.67545e-07
1.8916e-09
7.21882e-12
7.17352e-12
1.87999e-09
2.66014e-07
4.8953e-07
7.32859e-07
1.00047e-06
1.29216e-06
1.60306e-06
1.92492e-06
2.24803e-06
2.56252e-06
2.85882e-06
3.12782e-06
3.36101e-06
3.5509e-06
3.69128e-06
3.7776e-06
3.80704e-06
3.77865e-06
3.69335e-06
3.55391e-06
3.36487e-06
3.13239e-06
2.86396e-06
2.56806e-06
2.2538e-06
1.93071e-06
1.60866e-06
1.29733e-06
1.00499e-06
7.36523e-07
4.9218e-07
2.67546e-07
1.89161e-09
7.21885e-12
7.17352e-12
1.87999e-09
2.66014e-07
4.8953e-07
7.3286e-07
1.00047e-06
1.29216e-06
1.60306e-06
1.92493e-06
2.24804e-06
2.56252e-06
2.85883e-06
3.12782e-06
3.36102e-06
3.5509e-06
3.69129e-06
3.7776e-06
3.80705e-06
3.77866e-06
3.69335e-06
3.55391e-06
3.36488e-06
3.1324e-06
2.86396e-06
2.56806e-06
2.2538e-06
1.93071e-06
1.60866e-06
1.29733e-06
1.00499e-06
7.36524e-07
4.92181e-07
2.67546e-07
1.89161e-09
7.21886e-12
7.17353e-12
1.87999e-09
2.66015e-07
4.8953e-07
7.3286e-07
1.00047e-06
1.29216e-06
1.60306e-06
1.92493e-06
2.24804e-06
2.56252e-06
2.85883e-06
3.12782e-06
3.36102e-06
3.5509e-06
3.69129e-06
3.77761e-06
3.80705e-06
3.77866e-06
3.69335e-06
3.55391e-06
3.36488e-06
3.1324e-06
2.86397e-06
2.56806e-06
2.2538e-06
1.93071e-06
1.60866e-06
1.29733e-06
1.00499e-06
7.36524e-07
4.92181e-07
2.67546e-07
1.89161e-09
7.21886e-12
7.17353e-12
1.87999e-09
2.66015e-07
4.8953e-07
7.3286e-07
1.00047e-06
1.29216e-06
1.60306e-06
1.92493e-06
2.24804e-06
2.56252e-06
2.85883e-06
3.12782e-06
3.36102e-06
3.5509e-06
3.69129e-06
3.77761e-06
3.80705e-06
3.77866e-06
3.69335e-06
3.55391e-06
3.36488e-06
3.1324e-06
2.86397e-06
2.56806e-06
2.2538e-06
1.93071e-06
1.60866e-06
1.29733e-06
1.00499e-06
7.36524e-07
4.92181e-07
2.67546e-07
1.89161e-09
7.21886e-12
7.17353e-12
1.87999e-09
2.66015e-07
4.8953e-07
7.3286e-07
1.00047e-06
1.29216e-06
1.60306e-06
1.92493e-06
2.24804e-06
2.56252e-06
2.85883e-06
3.12782e-06
3.36102e-06
3.5509e-06
3.69129e-06
3.77761e-06
3.80705e-06
3.77866e-06
3.69335e-06
3.55391e-06
3.36488e-06
3.1324e-06
2.86397e-06
2.56806e-06
2.2538e-06
1.93071e-06
1.60866e-06
1.29733e-06
1.00499e-06
7.36524e-07
4.92181e-07
2.67546e-07
1.89161e-09
7.21886e-12
7.17353e-12
1.87999e-09
2.66015e-07
4.8953e-07
7.3286e-07
1.00047e-06
1.29216e-06
1.60306e-06
1.92493e-06
2.24804e-06
2.56252e-06
2.85883e-06
3.12782e-06
3.36102e-06
3.5509e-06
3.69129e-06
3.77761e-06
3.80705e-06
3.77866e-06
3.69335e-06
3.55391e-06
3.36488e-06
3.1324e-06
2.86397e-06
2.56806e-06
2.2538e-06
1.93071e-06
1.60866e-06
1.29733e-06
1.00499e-06
7.36524e-07
4.92181e-07
2.67546e-07
1.89161e-09
7.21886e-12
7.17353e-12
1.87999e-09
2.66015e-07
4.8953e-07
7.3286e-07
1.00047e-06
1.29216e-06
1.60306e-06
1.92493e-06
2.24804e-06
2.56252e-06
2.85883e-06
3.12782e-06
3.36102e-06
3.5509e-06
3.69129e-06
3.77761e-06
3.80705e-06
3.77866e-06
3.69335e-06
3.55391e-06
3.36488e-06
3.1324e-06
2.86397e-06
2.56806e-06
2.2538e-06
1.93071e-06
1.60866e-06
1.29733e-06
1.00499e-06
7.36524e-07
4.92181e-07
2.67546e-07
1.89161e-09
7.21886e-12
7.17353e-12
1.87999e-09
2.66015e-07
4.8953e-07
7.3286e-07
1.00047e-06
1.29216e-06
1.60306e-06
1.92493e-06
2.24804e-06
2.56252e-06
2.85883e-06
3.12782e-06
3.36102e-06
3.5509e-06
3.69129e-06
3.77761e-06
3.80705e-06
3.77866e-06
3.69335e-06
3.55391e-06
3.36488e-06
3.1324e-06
2.86397e-06
2.56806e-06
2.2538e-06
1.93071e-06
1.60866e-06
1.29733e-06
1.00499e-06
7.36524e-07
4.92181e-07
2.67546e-07
1.89161e-09
7.21886e-12
7.17353e-12
1.87999e-09
2.66015e-07
4.8953e-07
7.3286e-07
1.00047e-06
1.29216e-06
1.60306e-06
1.92493e-06
2.24804e-06
2.56252e-06
2.85883e-06
3.12782e-06
3.36102e-06
3.5509e-06
3.69129e-06
3.77761e-06
3.80705e-06
3.77866e-06
3.69335e-06
3.55391e-06
3.36488e-06
3.1324e-06
2.86397e-06
2.56806e-06
2.2538e-06
1.93071e-06
1.60866e-06
1.29733e-06
1.00499e-06
7.36524e-07
4.92181e-07
2.67546e-07
1.89161e-09
7.21886e-12
7.17353e-12
1.87999e-09
2.66015e-07
4.8953e-07
7.3286e-07
1.00047e-06
1.29216e-06
1.60306e-06
1.92493e-06
2.24804e-06
2.56252e-06
2.85883e-06
3.12782e-06
3.36102e-06
3.5509e-06
3.69129e-06
3.77761e-06
3.80705e-06
3.77866e-06
3.69335e-06
3.55391e-06
3.36488e-06
3.1324e-06
2.86397e-06
2.56806e-06
2.2538e-06
1.93071e-06
1.60866e-06
1.29733e-06
1.00499e-06
7.36524e-07
4.92181e-07
2.67546e-07
1.89161e-09
7.21886e-12
7.17353e-12
1.87999e-09
2.66015e-07
4.8953e-07
7.3286e-07
1.00047e-06
1.29216e-06
1.60306e-06
1.92493e-06
2.24804e-06
2.56252e-06
2.85883e-06
3.12782e-06
3.36102e-06
3.5509e-06
3.69129e-06
3.77761e-06
3.80705e-06
3.77866e-06
3.69335e-06
3.55391e-06
3.36488e-06
3.1324e-06
2.86397e-06
2.56806e-06
2.2538e-06
1.93071e-06
1.60866e-06
1.29733e-06
1.00499e-06
7.36524e-07
4.92181e-07
2.67546e-07
1.89161e-09
7.21886e-12
7.17353e-12
1.87999e-09
2.66015e-07
4.8953e-07
7.3286e-07
1.00047e-06
1.29216e-06
1.60306e-06
1.92493e-06
2.24804e-06
2.56252e-06
2.85883e-06
3.12782e-06
3.36102e-06
3.5509e-06
3.69129e-06
3.77761e-06
3.80705e-06
3.77866e-06
3.69335e-06
3.55391e-06
3.36488e-06
3.1324e-06
2.86397e-06
2.56806e-06
2.2538e-06
1.93071e-06
1.60866e-06
1.29733e-06
1.00499e-06
7.36524e-07
4.92181e-07
2.67546e-07
1.89161e-09
7.21886e-12
7.17353e-12
1.87999e-09
2.66015e-07
4.8953e-07
7.3286e-07
1.00047e-06
1.29216e-06
1.60306e-06
1.92493e-06
2.24804e-06
2.56252e-06
2.85883e-06
3.12782e-06
3.36102e-06
3.5509e-06
3.69129e-06
3.77761e-06
3.80705e-06
3.77866e-06
3.69335e-06
3.55391e-06
3.36488e-06
3.1324e-06
2.86397e-06
2.56806e-06
2.2538e-06
1.93071e-06
1.60866e-06
1.29733e-06
1.00499e-06
7.36524e-07
4.92181e-07
2.67546e-07
1.89161e-09
7.21886e-12
7.17353e-12
1.87999e-09
2.66015e-07
4.8953e-07
7.3286e-07
1.00047e-06
1.29216e-06
1.60306e-06
1.92493e-06
2.24804e-06
2.56252e-06
2.85883e-06
3.12782e-06
3.36102e-06
3.5509e-06
3.69129e-06
3.77761e-06
3.80705e-06
3.77866e-06
3.69335e-06
3.55391e-06
3.36488e-06
3.1324e-06
2.86397e-06
2.56806e-06
2.2538e-06
1.93071e-06
1.60866e-06
1.29733e-06
1.00499e-06
7.36524e-07
4.92181e-07
2.67546e-07
1.89161e-09
7.21886e-12
7.17353e-12
1.87999e-09
2.66015e-07
4.8953e-07
7.3286e-07
1.00047e-06
1.29216e-06
1.60306e-06
1.92493e-06
2.24804e-06
2.56252e-06
2.85883e-06
3.12782e-06
3.36102e-06
3.5509e-06
3.69129e-06
3.77761e-06
3.80705e-06
3.77866e-06
3.69335e-06
3.55391e-06
3.36488e-06
3.1324e-06
2.86397e-06
2.56806e-06
2.2538e-06
1.93071e-06
1.60866e-06
1.29733e-06
1.00499e-06
7.36524e-07
4.92181e-07
2.67546e-07
1.89161e-09
7.21886e-12
7.17353e-12
1.87999e-09
2.66015e-07
4.8953e-07
7.3286e-07
1.00047e-06
1.29216e-06
1.60306e-06
1.92493e-06
2.24804e-06
2.56252e-06
2.85883e-06
3.12782e-06
3.36102e-06
3.5509e-06
3.69129e-06
3.77761e-06
3.80705e-06
3.77866e-06
3.69335e-06
3.55391e-06
3.36488e-06
3.1324e-06
2.86397e-06
2.56806e-06
2.2538e-06
1.93071e-06
1.60866e-06
1.29733e-06
1.00499e-06
7.36524e-07
4.92181e-07
2.67546e-07
1.89161e-09
7.21886e-12
7.17353e-12
1.87999e-09
2.66015e-07
4.8953e-07
7.3286e-07
1.00047e-06
1.29216e-06
1.60306e-06
1.92493e-06
2.24804e-06
2.56252e-06
2.85883e-06
3.12782e-06
3.36102e-06
3.5509e-06
3.69129e-06
3.77761e-06
3.80705e-06
3.77866e-06
3.69335e-06
3.55391e-06
3.36488e-06
3.1324e-06
2.86397e-06
2.56806e-06
2.2538e-06
1.93071e-06
1.60866e-06
1.29733e-06
1.00499e-06
7.36524e-07
4.92181e-07
2.67546e-07
1.89161e-09
7.21886e-12
7.17353e-12
1.87999e-09
2.66015e-07
4.8953e-07
7.3286e-07
1.00047e-06
1.29216e-06
1.60306e-06
1.92493e-06
2.24804e-06
2.56252e-06
2.85883e-06
3.12782e-06
3.36102e-06
3.5509e-06
3.69129e-06
3.77761e-06
3.80705e-06
3.77866e-06
3.69335e-06
3.55391e-06
3.36488e-06
3.1324e-06
2.86397e-06
2.56806e-06
2.2538e-06
1.93071e-06
1.60866e-06
1.29733e-06
1.00499e-06
7.36524e-07
4.92181e-07
2.67546e-07
1.89161e-09
7.21886e-12
7.17353e-12
1.87999e-09
2.66015e-07
4.8953e-07
7.3286e-07
1.00047e-06
1.29216e-06
1.60306e-06
1.92493e-06
2.24804e-06
2.56252e-06
2.85883e-06
3.12782e-06
3.36102e-06
3.5509e-06
3.69129e-06
3.77761e-06
3.80705e-06
3.77866e-06
3.69335e-06
3.55391e-06
3.36488e-06
3.1324e-06
2.86397e-06
2.56806e-06
2.2538e-06
1.93071e-06
1.60866e-06
1.29733e-06
1.00499e-06
7.36524e-07
4.92181e-07
2.67546e-07
1.89161e-09
7.21886e-12
7.17353e-12
1.87999e-09
2.66015e-07
4.8953e-07
7.3286e-07
1.00047e-06
1.29216e-06
1.60306e-06
1.92493e-06
2.24804e-06
2.56252e-06
2.85883e-06
3.12782e-06
3.36102e-06
3.5509e-06
3.69129e-06
3.77761e-06
3.80705e-06
3.77866e-06
3.69335e-06
3.55391e-06
3.36488e-06
3.1324e-06
2.86397e-06
2.56806e-06
2.2538e-06
1.93071e-06
1.60866e-06
1.29733e-06
1.00499e-06
7.36524e-07
4.92181e-07
2.67546e-07
1.89161e-09
7.21886e-12
7.17353e-12
1.87999e-09
2.66015e-07
4.8953e-07
7.3286e-07
1.00047e-06
1.29216e-06
1.60306e-06
1.92493e-06
2.24804e-06
2.56252e-06
2.85883e-06
3.12782e-06
3.36102e-06
3.5509e-06
3.69129e-06
3.77761e-06
3.80705e-06
3.77866e-06
3.69335e-06
3.55391e-06
3.36488e-06
3.1324e-06
2.86397e-06
2.56806e-06
2.2538e-06
1.93071e-06
1.60866e-06
1.29733e-06
1.00499e-06
7.36524e-07
4.92181e-07
2.67546e-07
1.89161e-09
7.21886e-12
7.17353e-12
1.87999e-09
2.66015e-07
4.8953e-07
7.3286e-07
1.00047e-06
1.29216e-06
1.60306e-06
1.92493e-06
2.24804e-06
2.56252e-06
2.85883e-06
3.12782e-06
3.36102e-06
3.5509e-06
3.69129e-06
3.77761e-06
3.80705e-06
3.77866e-06
3.69335e-06
3.55391e-06
3.36488e-06
3.1324e-06
2.86397e-06
2.56806e-06
2.2538e-06
1.93071e-06
1.60866e-06
1.29733e-06
1.00499e-06
7.36524e-07
4.92181e-07
2.67546e-07
1.89161e-09
7.21886e-12
7.17353e-12
1.87999e-09
2.66015e-07
4.8953e-07
7.3286e-07
1.00047e-06
1.29216e-06
1.60306e-06
1.92493e-06
2.24804e-06
2.56252e-06
2.85883e-06
3.12782e-06
3.36102e-06
3.5509e-06
3.69129e-06
3.77761e-06
3.80705e-06
3.77866e-06
3.69335e-06
3.55391e-06
3.36488e-06
3.1324e-06
2.86397e-06
2.56806e-06
2.2538e-06
1.93071e-06
1.60866e-06
1.29733e-06
1.00499e-06
7.36524e-07
4.92181e-07
2.67546e-07
1.89161e-09
7.21886e-12
7.17353e-12
1.87999e-09
2.66015e-07
4.8953e-07
7.3286e-07
1.00047e-06
1.29216e-06
1.60306e-06
1.92493e-06
2.24804e-06
2.56252e-06
2.85883e-06
3.12782e-06
3.36102e-06
3.5509e-06
3.69129e-06
3.77761e-06
3.80705e-06
3.77866e-06
3.69335e-06
3.55391e-06
3.36488e-06
3.1324e-06
2.86397e-06
2.56806e-06
2.2538e-06
1.93071e-06
1.60866e-06
1.29733e-06
1.00499e-06
7.36524e-07
4.92181e-07
2.67546e-07
1.89161e-09
7.21886e-12
7.17353e-12
1.87999e-09
2.66015e-07
4.8953e-07
7.3286e-07
1.00047e-06
1.29216e-06
1.60306e-06
1.92493e-06
2.24804e-06
2.56252e-06
2.85883e-06
3.12782e-06
3.36102e-06
3.5509e-06
3.69129e-06
3.77761e-06
3.80705e-06
3.77866e-06
3.69335e-06
3.55391e-06
3.36488e-06
3.1324e-06
2.86397e-06
2.56806e-06
2.2538e-06
1.93071e-06
1.60866e-06
1.29733e-06
1.00499e-06
7.36524e-07
4.92181e-07
2.67546e-07
1.89161e-09
7.21886e-12
7.17353e-12
1.87999e-09
2.66015e-07
4.8953e-07
7.3286e-07
1.00047e-06
1.29216e-06
1.60306e-06
1.92493e-06
2.24804e-06
2.56252e-06
2.85883e-06
3.12782e-06
3.36102e-06
3.5509e-06
3.69129e-06
3.77761e-06
3.80705e-06
3.77866e-06
3.69335e-06
3.55391e-06
3.36488e-06
3.1324e-06
2.86397e-06
2.56806e-06
2.2538e-06
1.93071e-06
1.60866e-06
1.29733e-06
1.00499e-06
7.36524e-07
4.92181e-07
2.67546e-07
1.89161e-09
7.21886e-12
7.17353e-12
1.87999e-09
2.66015e-07
4.8953e-07
7.3286e-07
1.00047e-06
1.29216e-06
1.60306e-06
1.92493e-06
2.24804e-06
2.56252e-06
2.85883e-06
3.12782e-06
3.36102e-06
3.5509e-06
3.69129e-06
3.77761e-06
3.80705e-06
3.77866e-06
3.69335e-06
3.55391e-06
3.36488e-06
3.1324e-06
2.86397e-06
2.56806e-06
2.2538e-06
1.93071e-06
1.60866e-06
1.29733e-06
1.00499e-06
7.36524e-07
4.92181e-07
2.67546e-07
1.89161e-09
7.21886e-12
7.17353e-12
1.87999e-09
2.66015e-07
4.8953e-07
7.3286e-07
1.00047e-06
1.29216e-06
1.60306e-06
1.92493e-06
2.24804e-06
2.56252e-06
2.85883e-06
3.12782e-06
3.36102e-06
3.5509e-06
3.69129e-06
3.77761e-06
3.80705e-06
3.77866e-06
3.69335e-06
3.55391e-06
3.36488e-06
3.1324e-06
2.86397e-06
2.56806e-06
2.2538e-06
1.93071e-06
1.60866e-06
1.29733e-06
1.00499e-06
7.36524e-07
4.92181e-07
2.67546e-07
1.89161e-09
7.21886e-12
7.17353e-12
1.87999e-09
2.66015e-07
4.8953e-07
7.3286e-07
1.00047e-06
1.29216e-06
1.60306e-06
1.92493e-06
2.24804e-06
2.56252e-06
2.85883e-06
3.12782e-06
3.36102e-06
3.5509e-06
3.69129e-06
3.77761e-06
3.80705e-06
3.77866e-06
3.69335e-06
3.55391e-06
3.36488e-06
3.1324e-06
2.86397e-06
2.56806e-06
2.2538e-06
1.93071e-06
1.60866e-06
1.29733e-06
1.00499e-06
7.36524e-07
4.92181e-07
2.67546e-07
1.89161e-09
7.21886e-12
7.17353e-12
1.87999e-09
2.66015e-07
4.8953e-07
7.3286e-07
1.00047e-06
1.29216e-06
1.60306e-06
1.92493e-06
2.24804e-06
2.56252e-06
2.85883e-06
3.12782e-06
3.36102e-06
3.5509e-06
3.69129e-06
3.77761e-06
3.80705e-06
3.77866e-06
3.69335e-06
3.55391e-06
3.36488e-06
3.1324e-06
2.86397e-06
2.56806e-06
2.2538e-06
1.93071e-06
1.60866e-06
1.29733e-06
1.00499e-06
7.36524e-07
4.92181e-07
2.67546e-07
1.89161e-09
7.21886e-12
7.17353e-12
1.87999e-09
2.66015e-07
4.8953e-07
7.3286e-07
1.00047e-06
1.29216e-06
1.60306e-06
1.92493e-06
2.24804e-06
2.56252e-06
2.85883e-06
3.12782e-06
3.36102e-06
3.5509e-06
3.69129e-06
3.77761e-06
3.80705e-06
3.77866e-06
3.69335e-06
3.55391e-06
3.36488e-06
3.1324e-06
2.86397e-06
2.56806e-06
2.2538e-06
1.93071e-06
1.60866e-06
1.29733e-06
1.00499e-06
7.36524e-07
4.92181e-07
2.67546e-07
1.89161e-09
7.21886e-12
7.17353e-12
1.87999e-09
2.66015e-07
4.8953e-07
7.3286e-07
1.00047e-06
1.29216e-06
1.60306e-06
1.92493e-06
2.24804e-06
2.56252e-06
2.85883e-06
3.12782e-06
3.36102e-06
3.5509e-06
3.69129e-06
3.77761e-06
3.80705e-06
3.77866e-06
3.69335e-06
3.55391e-06
3.36488e-06
3.1324e-06
2.86397e-06
2.56806e-06
2.2538e-06
1.93071e-06
1.60866e-06
1.29733e-06
1.00499e-06
7.36524e-07
4.92181e-07
2.67546e-07
1.89161e-09
7.21886e-12
7.17353e-12
1.87999e-09
2.66015e-07
4.8953e-07
7.3286e-07
1.00047e-06
1.29216e-06
1.60306e-06
1.92493e-06
2.24804e-06
2.56252e-06
2.85883e-06
3.12782e-06
3.36102e-06
3.5509e-06
3.69129e-06
3.77761e-06
3.80705e-06
3.77866e-06
3.69335e-06
3.55391e-06
3.36488e-06
3.1324e-06
2.86397e-06
2.56806e-06
2.2538e-06
1.93071e-06
1.60866e-06
1.29733e-06
1.00499e-06
7.36524e-07
4.92181e-07
2.67546e-07
1.89161e-09
7.21886e-12
7.17353e-12
1.87999e-09
2.66015e-07
4.8953e-07
7.3286e-07
1.00047e-06
1.29216e-06
1.60306e-06
1.92493e-06
2.24804e-06
2.56252e-06
2.85883e-06
3.12782e-06
3.36102e-06
3.5509e-06
3.69129e-06
3.77761e-06
3.80705e-06
3.77866e-06
3.69335e-06
3.55391e-06
3.36488e-06
3.1324e-06
2.86397e-06
2.56806e-06
2.2538e-06
1.93071e-06
1.60866e-06
1.29733e-06
1.00499e-06
7.36524e-07
4.92181e-07
2.67546e-07
1.89161e-09
7.21886e-12
7.17353e-12
1.87999e-09
2.66015e-07
4.8953e-07
7.3286e-07
1.00047e-06
1.29216e-06
1.60306e-06
1.92493e-06
2.24804e-06
2.56252e-06
2.85883e-06
3.12782e-06
3.36102e-06
3.5509e-06
3.69129e-06
3.77761e-06
3.80705e-06
3.77866e-06
3.69335e-06
3.55391e-06
3.36488e-06
3.1324e-06
2.86397e-06
2.56806e-06
2.2538e-06
1.93071e-06
1.60866e-06
1.29733e-06
1.00499e-06
7.36524e-07
4.92181e-07
2.67546e-07
1.89161e-09
7.21886e-12
7.17353e-12
1.87999e-09
2.66015e-07
4.8953e-07
7.3286e-07
1.00047e-06
1.29216e-06
1.60306e-06
1.92493e-06
2.24804e-06
2.56252e-06
2.85883e-06
3.12782e-06
3.36102e-06
3.5509e-06
3.69129e-06
3.77761e-06
3.80705e-06
3.77866e-06
3.69335e-06
3.55391e-06
3.36488e-06
3.1324e-06
2.86397e-06
2.56806e-06
2.2538e-06
1.93071e-06
1.60866e-06
1.29733e-06
1.00499e-06
7.36524e-07
4.92181e-07
2.67546e-07
1.89161e-09
7.21886e-12
7.17353e-12
1.87999e-09
2.66015e-07
4.8953e-07
7.3286e-07
1.00047e-06
1.29216e-06
1.60306e-06
1.92493e-06
2.24804e-06
2.56252e-06
2.85883e-06
3.12782e-06
3.36102e-06
3.5509e-06
3.69129e-06
3.77761e-06
3.80705e-06
3.77866e-06
3.69335e-06
3.55391e-06
3.36488e-06
3.1324e-06
2.86397e-06
2.56806e-06
2.2538e-06
1.93071e-06
1.60866e-06
1.29733e-06
1.00499e-06
7.36524e-07
4.92181e-07
2.67546e-07
1.89161e-09
7.21886e-12
7.17353e-12
1.87999e-09
2.66015e-07
4.8953e-07
7.3286e-07
1.00047e-06
1.29216e-06
1.60306e-06
1.92493e-06
2.24804e-06
2.56252e-06
2.85883e-06
3.12782e-06
3.36102e-06
3.5509e-06
3.69129e-06
3.77761e-06
3.80705e-06
3.77866e-06
3.69335e-06
3.55391e-06
3.36488e-06
3.1324e-06
2.86397e-06
2.56806e-06
2.2538e-06
1.93071e-06
1.60866e-06
1.29733e-06
1.00499e-06
7.36524e-07
4.92181e-07
2.67546e-07
1.89161e-09
7.21886e-12
7.17353e-12
1.87999e-09
2.66015e-07
4.8953e-07
7.3286e-07
1.00047e-06
1.29216e-06
1.60306e-06
1.92493e-06
2.24804e-06
2.56252e-06
2.85883e-06
3.12782e-06
3.36102e-06
3.5509e-06
3.69129e-06
3.77761e-06
3.80705e-06
3.77866e-06
3.69335e-06
3.55391e-06
3.36488e-06
3.1324e-06
2.86397e-06
2.56806e-06
2.2538e-06
1.93071e-06
1.60866e-06
1.29733e-06
1.00499e-06
7.36524e-07
4.92181e-07
2.67546e-07
1.89161e-09
7.21886e-12
7.17353e-12
1.87999e-09
2.66015e-07
4.8953e-07
7.3286e-07
1.00047e-06
1.29216e-06
1.60306e-06
1.92493e-06
2.24804e-06
2.56252e-06
2.85883e-06
3.12782e-06
3.36102e-06
3.5509e-06
3.69129e-06
3.77761e-06
3.80705e-06
3.77866e-06
3.69335e-06
3.55391e-06
3.36488e-06
3.1324e-06
2.86397e-06
2.56806e-06
2.2538e-06
1.93071e-06
1.60866e-06
1.29733e-06
1.00499e-06
7.36524e-07
4.92181e-07
2.67546e-07
1.89161e-09
7.21886e-12
7.17353e-12
1.87999e-09
2.66015e-07
4.8953e-07
7.3286e-07
1.00047e-06
1.29216e-06
1.60306e-06
1.92493e-06
2.24804e-06
2.56252e-06
2.85883e-06
3.12782e-06
3.36102e-06
3.5509e-06
3.69129e-06
3.77761e-06
3.80705e-06
3.77866e-06
3.69335e-06
3.55391e-06
3.36488e-06
3.1324e-06
2.86397e-06
2.56806e-06
2.2538e-06
1.93071e-06
1.60866e-06
1.29733e-06
1.00499e-06
7.36524e-07
4.92181e-07
2.67546e-07
1.89161e-09
7.21886e-12
7.17353e-12
1.87999e-09
2.66015e-07
4.8953e-07
7.3286e-07
1.00047e-06
1.29216e-06
1.60306e-06
1.92493e-06
2.24804e-06
2.56252e-06
2.85883e-06
3.12782e-06
3.36102e-06
3.5509e-06
3.69129e-06
3.77761e-06
3.80705e-06
3.77866e-06
3.69335e-06
3.55391e-06
3.36488e-06
3.1324e-06
2.86397e-06
2.56806e-06
2.2538e-06
1.93071e-06
1.60866e-06
1.29733e-06
1.00499e-06
7.36524e-07
4.92181e-07
2.67546e-07
1.89161e-09
7.21886e-12
7.17353e-12
1.87999e-09
2.66015e-07
4.8953e-07
7.3286e-07
1.00047e-06
1.29216e-06
1.60306e-06
1.92493e-06
2.24804e-06
2.56252e-06
2.85883e-06
3.12782e-06
3.36102e-06
3.5509e-06
3.69129e-06
3.77761e-06
3.80705e-06
3.77866e-06
3.69335e-06
3.55391e-06
3.36488e-06
3.1324e-06
2.86397e-06
2.56806e-06
2.2538e-06
1.93071e-06
1.60866e-06
1.29733e-06
1.00499e-06
7.36524e-07
4.92181e-07
2.67546e-07
1.89161e-09
7.21886e-12
7.17353e-12
1.87999e-09
2.66015e-07
4.8953e-07
7.3286e-07
1.00047e-06
1.29216e-06
1.60306e-06
1.92493e-06
2.24804e-06
2.56252e-06
2.85883e-06
3.12782e-06
3.36102e-06
3.5509e-06
3.69129e-06
3.77761e-06
3.80705e-06
3.77866e-06
3.69335e-06
3.55391e-06
3.36488e-06
3.1324e-06
2.86397e-06
2.56806e-06
2.2538e-06
1.93071e-06
1.60866e-06
1.29733e-06
1.00499e-06
7.36524e-07
4.92181e-07
2.67546e-07
1.89161e-09
7.21886e-12
7.17353e-12
1.87999e-09
2.66015e-07
4.8953e-07
7.3286e-07
1.00047e-06
1.29216e-06
1.60306e-06
1.92493e-06
2.24804e-06
2.56252e-06
2.85883e-06
3.12782e-06
3.36102e-06
3.5509e-06
3.69129e-06
3.77761e-06
3.80705e-06
3.77866e-06
3.69335e-06
3.55391e-06
3.36488e-06
3.1324e-06
2.86397e-06
2.56806e-06
2.2538e-06
1.93071e-06
1.60866e-06
1.29733e-06
1.00499e-06
7.36524e-07
4.92181e-07
2.67546e-07
1.89161e-09
7.21886e-12
7.17353e-12
1.87999e-09
2.66015e-07
4.8953e-07
7.3286e-07
1.00047e-06
1.29216e-06
1.60306e-06
1.92493e-06
2.24804e-06
2.56252e-06
2.85883e-06
3.12782e-06
3.36102e-06
3.5509e-06
3.69129e-06
3.77761e-06
3.80705e-06
3.77866e-06
3.69335e-06
3.55391e-06
3.36488e-06
3.1324e-06
2.86397e-06
2.56806e-06
2.2538e-06
1.93071e-06
1.60866e-06
1.29733e-06
1.00499e-06
7.36524e-07
4.92181e-07
2.67546e-07
1.89161e-09
7.21886e-12
7.17353e-12
1.87999e-09
2.66015e-07
4.8953e-07
7.3286e-07
1.00047e-06
1.29216e-06
1.60306e-06
1.92493e-06
2.24804e-06
2.56252e-06
2.85883e-06
3.12782e-06
3.36102e-06
3.5509e-06
3.69129e-06
3.77761e-06
3.80705e-06
3.77866e-06
3.69335e-06
3.55391e-06
3.36488e-06
3.1324e-06
2.86397e-06
2.56806e-06
2.2538e-06
1.93071e-06
1.60866e-06
1.29733e-06
1.00499e-06
7.36524e-07
4.92181e-07
2.67546e-07
1.89161e-09
7.21886e-12
7.17353e-12
1.87999e-09
2.66015e-07
4.8953e-07
7.3286e-07
1.00047e-06
1.29216e-06
1.60306e-06
1.92493e-06
2.24804e-06
2.56252e-06
2.85883e-06
3.12782e-06
3.36102e-06
3.5509e-06
3.69129e-06
3.77761e-06
3.80705e-06
3.77866e-06
3.69335e-06
3.55391e-06
3.36488e-06
3.1324e-06
2.86397e-06
2.56806e-06
2.2538e-06
1.93071e-06
1.60866e-06
1.29733e-06
1.00499e-06
7.36524e-07
4.92181e-07
2.67546e-07
1.89161e-09
7.21886e-12
7.17353e-12
1.87999e-09
2.66015e-07
4.8953e-07
7.3286e-07
1.00047e-06
1.29216e-06
1.60306e-06
1.92493e-06
2.24804e-06
2.56252e-06
2.85883e-06
3.12782e-06
3.36102e-06
3.5509e-06
3.69129e-06
3.77761e-06
3.80705e-06
3.77866e-06
3.69335e-06
3.55391e-06
3.36488e-06
3.1324e-06
2.86397e-06
2.56806e-06
2.2538e-06
1.93071e-06
1.60866e-06
1.29733e-06
1.00499e-06
7.36524e-07
4.92181e-07
2.67546e-07
1.89161e-09
7.21886e-12
7.17353e-12
1.87999e-09
2.66015e-07
4.8953e-07
7.3286e-07
1.00047e-06
1.29216e-06
1.60306e-06
1.92493e-06
2.24804e-06
2.56252e-06
2.85883e-06
3.12782e-06
3.36102e-06
3.5509e-06
3.69129e-06
3.77761e-06
3.80705e-06
3.77866e-06
3.69335e-06
3.55391e-06
3.36488e-06
3.1324e-06
2.86397e-06
2.56806e-06
2.2538e-06
1.93071e-06
1.60866e-06
1.29733e-06
1.00499e-06
7.36524e-07
4.92181e-07
2.67546e-07
1.89161e-09
7.21886e-12
7.17353e-12
1.87999e-09
2.66015e-07
4.8953e-07
7.3286e-07
1.00047e-06
1.29216e-06
1.60306e-06
1.92493e-06
2.24804e-06
2.56252e-06
2.85883e-06
3.12782e-06
3.36102e-06
3.5509e-06
3.69129e-06
3.77761e-06
3.80705e-06
3.77866e-06
3.69335e-06
3.55391e-06
3.36488e-06
3.1324e-06
2.86397e-06
2.56806e-06
2.2538e-06
1.93071e-06
1.60866e-06
1.29733e-06
1.00499e-06
7.36524e-07
4.92181e-07
2.67546e-07
1.89161e-09
7.21886e-12
7.17353e-12
1.87999e-09
2.66015e-07
4.8953e-07
7.3286e-07
1.00047e-06
1.29216e-06
1.60306e-06
1.92493e-06
2.24804e-06
2.56252e-06
2.85883e-06
3.12782e-06
3.36102e-06
3.5509e-06
3.69129e-06
3.77761e-06
3.80705e-06
3.77866e-06
3.69335e-06
3.55391e-06
3.36488e-06
3.1324e-06
2.86397e-06
2.56806e-06
2.2538e-06
1.93071e-06
1.60866e-06
1.29733e-06
1.00499e-06
7.36524e-07
4.92181e-07
2.67546e-07
1.89161e-09
7.21886e-12
7.17353e-12
1.87999e-09
2.66015e-07
4.8953e-07
7.3286e-07
1.00047e-06
1.29216e-06
1.60306e-06
1.92493e-06
2.24804e-06
2.56252e-06
2.85883e-06
3.12782e-06
3.36102e-06
3.5509e-06
3.69129e-06
3.77761e-06
3.80705e-06
3.77866e-06
3.69335e-06
3.55391e-06
3.36488e-06
3.1324e-06
2.86397e-06
2.56806e-06
2.2538e-06
1.93071e-06
1.60866e-06
1.29733e-06
1.00499e-06
7.36524e-07
4.92181e-07
2.67546e-07
1.89161e-09
7.21886e-12
7.17353e-12
1.87999e-09
2.66015e-07
4.8953e-07
7.3286e-07
1.00047e-06
1.29216e-06
1.60306e-06
1.92493e-06
2.24804e-06
2.56252e-06
2.85883e-06
3.12782e-06
3.36102e-06
3.5509e-06
3.69129e-06
3.77761e-06
3.80705e-06
3.77866e-06
3.69335e-06
3.55391e-06
3.36488e-06
3.1324e-06
2.86397e-06
2.56806e-06
2.2538e-06
1.93071e-06
1.60866e-06
1.29733e-06
1.00499e-06
7.36524e-07
4.92181e-07
2.67546e-07
1.89161e-09
7.21886e-12
7.17353e-12
1.87999e-09
2.66015e-07
4.8953e-07
7.3286e-07
1.00047e-06
1.29216e-06
1.60306e-06
1.92493e-06
2.24804e-06
2.56252e-06
2.85883e-06
3.12782e-06
3.36102e-06
3.5509e-06
3.69129e-06
3.77761e-06
3.80705e-06
3.77866e-06
3.69335e-06
3.55391e-06
3.36488e-06
3.1324e-06
2.86397e-06
2.56806e-06
2.2538e-06
1.93071e-06
1.60866e-06
1.29733e-06
1.00499e-06
7.36524e-07
4.92181e-07
2.67546e-07
1.89161e-09
7.21886e-12
7.17353e-12
1.87999e-09
2.66015e-07
4.8953e-07
7.3286e-07
1.00047e-06
1.29216e-06
1.60306e-06
1.92493e-06
2.24804e-06
2.56252e-06
2.85883e-06
3.12782e-06
3.36102e-06
3.5509e-06
3.69129e-06
3.77761e-06
3.80705e-06
3.77866e-06
3.69335e-06
3.55391e-06
3.36488e-06