/*--------------------------------*- C++ -*----------------------------------*\
  =========                 |
  \\      /  F ield         | OpenFOAM: The Open Source CFD Toolbox
   \\    /   O peration     | Website:  https://openfoam.org
    \\  /    A nd           | Version:  13
     \\/     M anipulation  |
\*---------------------------------------------------------------------------*/
FoamFile
{
    format      ascii;
    class       volScalarField;
    location    "55";
    object      nut;
}
// * * * * * * * * * * * * * * * * * * * * * * * * * * * * * * * * * * * * * //

dimensions      [0 2 -1 0 0 0 0];

internalField   nonuniform List<scalar> 
315000
(
1.15004e-13
3.00963e-11
6.86049e-10
1.22873e-09
1.77631e-09
2.32869e-09
2.88614e-09
3.44886e-09
4.01674e-09
4.58924e-09
5.16543e-09
5.74397e-09
6.32319e-09
6.90113e-09
7.47561e-09
8.04427e-09
8.60467e-09
9.15425e-09
9.69047e-09
1.02107e-08
1.07125e-08
1.11934e-08
1.16509e-08
1.20828e-08
1.24868e-08
1.28609e-08
1.32033e-08
1.35121e-08
1.37859e-08
1.40232e-08
1.42228e-08
1.43838e-08
1.45053e-08
1.45867e-08
1.46277e-08
1.46279e-08
1.45875e-08
1.45066e-08
1.43856e-08
1.42251e-08
1.4026e-08
1.37892e-08
1.35159e-08
1.32076e-08
1.28658e-08
1.24921e-08
1.20886e-08
1.16572e-08
1.12002e-08
1.07198e-08
1.02184e-08
9.69851e-09
9.16264e-09
8.61337e-09
8.05324e-09
7.48478e-09
6.91045e-09
6.3326e-09
5.7534e-09
5.1748e-09
4.59847e-09
4.02573e-09
3.45751e-09
2.89432e-09
2.33625e-09
1.78304e-09
1.2343e-09
6.89907e-10
3.0312e-11
1.15933e-13
2.87974e-12
7.66294e-10
1.73326e-07
3.10861e-07
4.47563e-07
5.838e-07
7.19831e-07
8.55798e-07
9.91711e-07
1.12747e-06
1.26285e-06
1.39757e-06
1.53124e-06
1.66345e-06
1.79374e-06
1.92162e-06
2.04661e-06
2.16822e-06
2.28597e-06
2.39938e-06
2.508e-06
2.61139e-06
2.70915e-06
2.80089e-06
2.88626e-06
2.96491e-06
3.03656e-06
3.10092e-06
3.15777e-06
3.20689e-06
3.2481e-06
3.28125e-06
3.30622e-06
3.32294e-06
3.33133e-06
3.33136e-06
3.32305e-06
3.30641e-06
3.28151e-06
3.24844e-06
3.2073e-06
3.15826e-06
3.1015e-06
3.03721e-06
2.96564e-06
2.88707e-06
2.80178e-06
2.71012e-06
2.61243e-06
2.50911e-06
2.40056e-06
2.28722e-06
2.16954e-06
2.04798e-06
1.92304e-06
1.79519e-06
1.66493e-06
1.53274e-06
1.39907e-06
1.26434e-06
1.12893e-06
9.93123e-07
8.57138e-07
7.21075e-07
5.84917e-07
4.48516e-07
3.11602e-07
1.73793e-07
7.68627e-10
2.88895e-12
1.16868e-11
3.11453e-09
1.70905e-06
2.93394e-06
4.07975e-06
5.1671e-06
6.20942e-06
7.21538e-06
8.19045e-06
9.13784e-06
1.00592e-05
1.0955e-05
1.18252e-05
1.26689e-05
1.34853e-05
1.42732e-05
1.50312e-05
1.57582e-05
1.64528e-05
1.71136e-05
1.77395e-05
1.83293e-05
1.88817e-05
1.93958e-05
1.98705e-05
2.0305e-05
2.06983e-05
2.10497e-05
2.13587e-05
2.16245e-05
2.18468e-05
2.20251e-05
2.21592e-05
2.22487e-05
2.22936e-05
2.22937e-05
2.22491e-05
2.21598e-05
2.2026e-05
2.1848e-05
2.1626e-05
2.13604e-05
2.10517e-05
2.07006e-05
2.03075e-05
1.98734e-05
1.9399e-05
1.88852e-05
1.8333e-05
1.77436e-05
1.7118e-05
1.64574e-05
1.57632e-05
1.50365e-05
1.42787e-05
1.34911e-05
1.26749e-05
1.18312e-05
1.09612e-05
1.00654e-05
9.14406e-06
8.19658e-06
7.22131e-06
6.21504e-06
5.17226e-06
4.08426e-06
2.93758e-06
1.71146e-06
3.11955e-09
1.17062e-11
1.98139e-11
5.28228e-09
2.80331e-06
4.69205e-06
6.41065e-06
8.01036e-06
9.52179e-06
1.09639e-05
1.23485e-05
1.36828e-05
1.49711e-05
1.62159e-05
1.7418e-05
1.85777e-05
1.96948e-05
2.07686e-05
2.17983e-05
2.27828e-05
2.37211e-05
2.46121e-05
2.54545e-05
2.62473e-05
2.6989e-05
2.76785e-05
2.83147e-05
2.88964e-05
2.94227e-05
2.98926e-05
3.03055e-05
3.06606e-05
3.09573e-05
3.11953e-05
3.13741e-05
3.14934e-05
3.15532e-05
3.15533e-05
3.14937e-05
3.13745e-05
3.11959e-05
3.09581e-05
3.06615e-05
3.03067e-05
2.9894e-05
2.94243e-05
2.88982e-05
2.83167e-05
2.76808e-05
2.69915e-05
2.625e-05
2.54576e-05
2.46154e-05
2.37246e-05
2.27866e-05
2.18023e-05
2.07728e-05
1.96993e-05
1.85824e-05
1.74227e-05
1.62207e-05
1.49761e-05
1.36877e-05
1.23533e-05
1.09686e-05
9.52633e-06
8.01457e-06
6.41438e-06
4.6951e-06
2.80541e-06
5.287e-09
1.98324e-11
2.69682e-11
7.19238e-09
3.71766e-06
6.11424e-06
8.26112e-06
1.02402e-05
1.20977e-05
1.38614e-05
1.55482e-05
1.71687e-05
1.87293e-05
2.02337e-05
2.1684e-05
2.30813e-05
2.44259e-05
2.57177e-05
2.69564e-05
2.81411e-05
2.92708e-05
3.0344e-05
3.13591e-05
3.23142e-05
3.32078e-05
3.40383e-05
3.48042e-05
3.55042e-05
3.61373e-05
3.67025e-05
3.71987e-05
3.76254e-05
3.79819e-05
3.82677e-05
3.84824e-05
3.86257e-05
3.86974e-05
3.86974e-05
3.86258e-05
3.84826e-05
3.8268e-05
3.79823e-05
3.76259e-05
3.71993e-05
3.67032e-05
3.61382e-05
3.55053e-05
3.48054e-05
3.40396e-05
3.32094e-05
3.2316e-05
3.1361e-05
3.03461e-05
2.92731e-05
2.81436e-05
2.6959e-05
2.57206e-05
2.44289e-05
2.30844e-05
2.16873e-05
2.0237e-05
1.87327e-05
1.71722e-05
1.55516e-05
1.38647e-05
1.21009e-05
1.02432e-05
8.26381e-06
6.11648e-06
3.71925e-06
7.19621e-09
2.69834e-11
3.2604e-11
8.6986e-09
4.41088e-06
7.16984e-06
9.61888e-06
1.18645e-05
1.39651e-05
1.59547e-05
1.78541e-05
1.96763e-05
2.14291e-05
2.31173e-05
2.4744e-05
2.63107e-05
2.78184e-05
2.92673e-05
3.06572e-05
3.19873e-05
3.32557e-05
3.44607e-05
3.56001e-05
3.66721e-05
3.76747e-05
3.86063e-05
3.94654e-05
4.02505e-05
4.09603e-05
4.15939e-05
4.21502e-05
4.26284e-05
4.30278e-05
4.33481e-05
4.35886e-05
4.37491e-05
4.38294e-05
4.38294e-05
4.37491e-05
4.35886e-05
4.33481e-05
4.3028e-05
4.26285e-05
4.21504e-05
4.15942e-05
4.09607e-05
4.0251e-05
3.9466e-05
3.86071e-05
3.76756e-05
3.6673e-05
3.56012e-05
3.4462e-05
3.32571e-05
3.19888e-05
3.0659e-05
2.92692e-05
2.78204e-05
2.63128e-05
2.47462e-05
2.31196e-05
2.14314e-05
1.96786e-05
1.78565e-05
1.5957e-05
1.39673e-05
1.18666e-05
9.62077e-06
7.17143e-06
4.41204e-06
8.70158e-09
3.2616e-11
3.65724e-11
9.7603e-09
4.88665e-06
7.88481e-06
1.05323e-05
1.29528e-05
1.52128e-05
1.73508e-05
1.939e-05
2.13449e-05
2.32243e-05
2.5034e-05
2.67772e-05
2.84561e-05
3.0072e-05
3.16253e-05
3.31158e-05
3.4542e-05
3.5902e-05
3.71936e-05
3.84146e-05
3.95631e-05
4.06371e-05
4.16347e-05
4.25543e-05
4.33945e-05
4.41539e-05
4.48315e-05
4.54263e-05
4.59375e-05
4.63644e-05
4.67065e-05
4.69634e-05
4.71348e-05
4.72206e-05
4.72206e-05
4.71348e-05
4.69634e-05
4.67065e-05
4.63644e-05
4.59375e-05
4.54264e-05
4.48317e-05
4.41542e-05
4.33948e-05
4.25547e-05
4.16352e-05
4.06377e-05
3.95638e-05
3.84155e-05
3.71945e-05
3.59031e-05
3.45432e-05
3.31171e-05
3.16268e-05
3.00735e-05
2.84577e-05
2.67789e-05
2.50357e-05
2.32261e-05
2.13467e-05
1.93918e-05
1.73526e-05
1.52146e-05
1.29544e-05
1.05337e-05
7.88604e-06
4.88755e-06
9.76277e-09
3.65825e-11
3.90931e-11
1.04354e-08
5.1842e-06
8.32855e-06
1.10971e-05
1.36243e-05
1.59817e-05
1.82104e-05
2.03352e-05
2.23714e-05
2.43286e-05
2.62127e-05
2.80276e-05
2.97755e-05
3.14579e-05
3.30754e-05
3.46274e-05
3.61123e-05
3.75279e-05
3.88719e-05
4.01421e-05
4.13364e-05
4.24528e-05
4.34894e-05
4.44445e-05
4.53167e-05
4.61047e-05
4.68074e-05
4.7424e-05
4.79536e-05
4.83958e-05
4.87499e-05
4.90158e-05
4.91932e-05
4.9282e-05
4.9282e-05
4.91933e-05
4.90159e-05
4.875e-05
4.83959e-05
4.79538e-05
4.74242e-05
4.68077e-05
4.6105e-05
4.53171e-05
4.4445e-05
4.34899e-05
4.24535e-05
4.13372e-05
4.0143e-05
3.88729e-05
3.7529e-05
3.61135e-05
3.46287e-05
3.30768e-05
3.14594e-05
2.9777e-05
2.80292e-05
2.62144e-05
2.43303e-05
2.23731e-05
2.03369e-05
1.82121e-05
1.59833e-05
1.36258e-05
1.10984e-05
8.32967e-06
5.18502e-06
1.04377e-08
3.91025e-11
4.0551e-11
1.08263e-08
5.35492e-06
8.58211e-06
1.14192e-05
1.40071e-05
1.64199e-05
1.87002e-05
2.08738e-05
2.29565e-05
2.49581e-05
2.68849e-05
2.87407e-05
3.05282e-05
3.22487e-05
3.39029e-05
3.54901e-05
3.70082e-05
3.84553e-05
3.98287e-05
4.11264e-05
4.23461e-05
4.34857e-05
4.45434e-05
4.55176e-05
4.64067e-05
4.72095e-05
4.79251e-05
4.85525e-05
4.90912e-05
4.95407e-05
4.99007e-05
5.01708e-05
5.0351e-05
5.04411e-05
5.04411e-05
5.0351e-05
5.01709e-05
4.99008e-05
4.95409e-05
4.90915e-05
4.85528e-05
4.79255e-05
4.721e-05
4.64072e-05
4.55182e-05
4.45442e-05
4.34866e-05
4.23471e-05
4.11275e-05
3.98299e-05
3.84565e-05
3.70096e-05
3.54915e-05
3.39045e-05
3.22503e-05
3.05298e-05
2.87424e-05
2.68866e-05
2.49599e-05
2.29583e-05
2.08756e-05
1.87019e-05
1.64215e-05
1.40086e-05
1.14206e-05
8.58325e-06
5.35576e-06
1.08287e-08
4.05607e-11
4.13239e-11
1.10338e-08
5.44512e-06
8.71584e-06
1.15891e-05
1.42089e-05
1.66509e-05
1.89587e-05
2.11582e-05
2.32656e-05
2.52909e-05
2.72405e-05
2.91183e-05
3.09269e-05
3.26678e-05
3.43417e-05
3.59475e-05
3.74835e-05
3.89471e-05
4.03362e-05
4.16482e-05
4.28811e-05
4.40327e-05
4.51011e-05
4.60847e-05
4.69821e-05
4.77921e-05
4.85136e-05
4.91461e-05
4.96888e-05
5.01415e-05
5.05038e-05
5.07757e-05
5.09569e-05
5.10476e-05
5.10476e-05
5.0957e-05
5.07758e-05
5.0504e-05
5.01418e-05
4.96892e-05
4.91465e-05
4.85142e-05
4.77927e-05
4.69829e-05
4.60856e-05
4.51021e-05
4.40337e-05
4.28823e-05
4.16495e-05
4.03375e-05
3.89486e-05
3.7485e-05
3.59492e-05
3.43434e-05
3.26696e-05
3.09287e-05
2.91201e-05
2.72424e-05
2.52929e-05
2.32675e-05
2.11601e-05
1.89605e-05
1.66527e-05
1.42105e-05
1.15905e-05
8.71707e-06
5.44601e-06
1.10362e-08
4.1334e-11
4.17007e-11
1.1135e-08
5.48909e-06
8.78101e-06
1.16718e-05
1.43073e-05
1.67637e-05
1.9085e-05
2.12973e-05
2.34169e-05
2.5454e-05
2.74149e-05
2.93036e-05
3.11228e-05
3.28739e-05
3.45576e-05
3.61728e-05
3.77176e-05
3.91896e-05
4.05863e-05
4.19055e-05
4.31449e-05
4.43023e-05
4.53759e-05
4.63641e-05
4.72654e-05
4.80786e-05
4.88029e-05
4.94376e-05
4.9982e-05
5.0436e-05
5.07993e-05
5.10718e-05
5.12535e-05
5.13444e-05
5.13444e-05
5.12536e-05
5.1072e-05
5.07996e-05
5.04364e-05
4.99825e-05
4.94381e-05
4.88036e-05
4.80794e-05
4.72662e-05
4.6365e-05
4.5377e-05
4.43035e-05
4.31462e-05
4.19069e-05
4.05878e-05
3.91912e-05
3.77193e-05
3.61746e-05
3.45595e-05
3.28759e-05
3.11248e-05
2.93056e-05
2.7417e-05
2.54561e-05
2.3419e-05
2.12993e-05
1.90869e-05
1.67656e-05
1.4309e-05
1.16734e-05
8.78232e-06
5.49005e-06
1.11377e-08
4.17114e-11
4.18711e-11
1.11809e-08
5.50901e-06
8.81054e-06
1.17094e-05
1.4352e-05
1.6815e-05
1.91424e-05
2.13606e-05
2.34859e-05
2.55285e-05
2.74946e-05
2.93884e-05
3.12125e-05
3.29684e-05
3.46566e-05
3.62762e-05
3.78251e-05
3.93009e-05
4.07013e-05
4.20237e-05
4.3266e-05
4.44261e-05
4.5502e-05
4.64922e-05
4.73951e-05
4.82098e-05
4.89352e-05
4.95706e-05
5.01158e-05
5.05702e-05
5.09338e-05
5.12066e-05
5.13884e-05
5.14793e-05
5.14794e-05
5.13885e-05
5.12068e-05
5.09342e-05
5.05706e-05
5.01163e-05
4.95713e-05
4.89359e-05
4.82106e-05
4.73961e-05
4.64932e-05
4.55032e-05
4.44274e-05
4.32674e-05
4.20252e-05
4.07029e-05
3.93026e-05
3.78269e-05
3.62781e-05
3.46586e-05
3.29705e-05
3.12146e-05
2.93906e-05
2.74968e-05
2.55307e-05
2.34881e-05
2.13628e-05
1.91445e-05
1.6817e-05
1.43538e-05
1.1711e-05
8.81192e-06
5.51001e-06
1.11836e-08
4.18822e-11
4.19429e-11
1.12002e-08
5.51741e-06
8.82301e-06
1.17253e-05
1.43709e-05
1.68367e-05
1.91667e-05
2.13875e-05
2.35152e-05
2.55601e-05
2.75285e-05
2.94244e-05
3.12506e-05
3.30086e-05
3.46988e-05
3.63203e-05
3.78709e-05
3.93484e-05
4.07503e-05
4.20741e-05
4.33177e-05
4.44789e-05
4.55559e-05
4.65469e-05
4.74506e-05
4.82659e-05
4.89918e-05
4.96277e-05
5.01732e-05
5.06279e-05
5.09917e-05
5.12645e-05
5.14464e-05
5.15374e-05
5.15375e-05
5.14466e-05
5.12648e-05
5.0992e-05
5.06283e-05
5.01737e-05
4.96284e-05
4.89926e-05
4.82668e-05
4.74516e-05
4.6548e-05
4.55571e-05
4.44803e-05
4.33192e-05
4.20757e-05
4.07519e-05
3.93502e-05
3.78728e-05
3.63222e-05
3.47009e-05
3.30107e-05
3.12528e-05
2.94267e-05
2.75307e-05
2.55624e-05
2.35175e-05
2.13897e-05
1.91689e-05
1.68387e-05
1.43728e-05
1.1727e-05
8.82443e-06
5.51844e-06
1.12031e-08
4.19542e-11
4.19713e-11
1.12079e-08
5.52075e-06
8.82796e-06
1.17316e-05
1.43784e-05
1.68453e-05
1.91765e-05
2.13982e-05
2.35269e-05
2.55727e-05
2.7542e-05
2.94389e-05
3.1266e-05
3.30248e-05
3.47158e-05
3.6338e-05
3.78894e-05
3.93676e-05
4.07701e-05
4.20946e-05
4.33387e-05
4.45004e-05
4.55777e-05
4.65691e-05
4.74732e-05
4.82887e-05
4.90148e-05
4.96509e-05
5.01964e-05
5.06512e-05
5.10151e-05
5.1288e-05
5.14699e-05
5.15609e-05
5.15609e-05
5.147e-05
5.12882e-05
5.10154e-05
5.06516e-05
5.0197e-05
4.96515e-05
4.90156e-05
4.82896e-05
4.74742e-05
4.65703e-05
4.5579e-05
4.45017e-05
4.33402e-05
4.20962e-05
4.07718e-05
3.93694e-05
3.78913e-05
3.634e-05
3.47179e-05
3.3027e-05
3.12682e-05
2.94412e-05
2.75444e-05
2.55751e-05
2.35292e-05
2.14005e-05
1.91787e-05
1.68474e-05
1.43803e-05
1.17333e-05
8.82941e-06
5.52179e-06
1.12108e-08
4.19828e-11
4.19819e-11
1.12108e-08
5.522e-06
8.82982e-06
1.17339e-05
1.43812e-05
1.68486e-05
1.91801e-05
2.14023e-05
2.35314e-05
2.55775e-05
2.75472e-05
2.94444e-05
3.12718e-05
3.30309e-05
3.47223e-05
3.63448e-05
3.78964e-05
3.93748e-05
4.07776e-05
4.21022e-05
4.33464e-05
4.45082e-05
4.55856e-05
4.6577e-05
4.7481e-05
4.82964e-05
4.90224e-05
4.96583e-05
5.02036e-05
5.06582e-05
5.10219e-05
5.12947e-05
5.14765e-05
5.15674e-05
5.15675e-05
5.14767e-05
5.12949e-05
5.10223e-05
5.06587e-05
5.02042e-05
4.96589e-05
4.90231e-05
4.82973e-05
4.7482e-05
4.65781e-05
4.55869e-05
4.45096e-05
4.33479e-05
4.21038e-05
4.07793e-05
3.93767e-05
3.78984e-05
3.63468e-05
3.47244e-05
3.30331e-05
3.12741e-05
2.94467e-05
2.75495e-05
2.55799e-05
2.35337e-05
2.14046e-05
1.91823e-05
1.68507e-05
1.43832e-05
1.17357e-05
8.83128e-06
5.52305e-06
1.12136e-08
4.19935e-11
4.19857e-11
1.12118e-08
5.52244e-06
8.83048e-06
1.17348e-05
1.43822e-05
1.68497e-05
1.91814e-05
2.14037e-05
2.35329e-05
2.55793e-05
2.7549e-05
2.94464e-05
3.12739e-05
3.30332e-05
3.47246e-05
3.63472e-05
3.7899e-05
3.93775e-05
4.07803e-05
4.2105e-05
4.33493e-05
4.45111e-05
4.55885e-05
4.65799e-05
4.74838e-05
4.82991e-05
4.90251e-05
4.96609e-05
5.02062e-05
5.06607e-05
5.10243e-05
5.1297e-05
5.14788e-05
5.15697e-05
5.15698e-05
5.1479e-05
5.12973e-05
5.10247e-05
5.06612e-05
5.02068e-05
4.96616e-05
4.90259e-05
4.83001e-05
4.74848e-05
4.6581e-05
4.55897e-05
4.45125e-05
4.33508e-05
4.21066e-05
4.0782e-05
3.93793e-05
3.79009e-05
3.63493e-05
3.47267e-05
3.30354e-05
3.12762e-05
2.94487e-05
2.75514e-05
2.55816e-05
2.35353e-05
2.1406e-05
1.91837e-05
1.68519e-05
1.43842e-05
1.17365e-05
8.83194e-06
5.5235e-06
1.12147e-08
4.19973e-11
4.19869e-11
1.12121e-08
5.52259e-06
8.8307e-06
1.17351e-05
1.43825e-05
1.68501e-05
1.91819e-05
2.14042e-05
2.35335e-05
2.55798e-05
2.75497e-05
2.94471e-05
3.12746e-05
3.30339e-05
3.47254e-05
3.63481e-05
3.78999e-05
3.93784e-05
4.07812e-05
4.2106e-05
4.33503e-05
4.45121e-05
4.55895e-05
4.65809e-05
4.74848e-05
4.83002e-05
4.90261e-05
4.96619e-05
5.02072e-05
5.06617e-05
5.10253e-05
5.1298e-05
5.14798e-05
5.15707e-05
5.15707e-05
5.14799e-05
5.12983e-05
5.10257e-05
5.06622e-05
5.02078e-05
4.96626e-05
4.90269e-05
4.83011e-05
4.74859e-05
4.6582e-05
4.55908e-05
4.45135e-05
4.33518e-05
4.21076e-05
4.0783e-05
3.93803e-05
3.79018e-05
3.63501e-05
3.47275e-05
3.30361e-05
3.12769e-05
2.94494e-05
2.7552e-05
2.55822e-05
2.35358e-05
2.14065e-05
1.91841e-05
1.68523e-05
1.43845e-05
1.17368e-05
8.83216e-06
5.52365e-06
1.1215e-08
4.19985e-11
4.19873e-11
1.12122e-08
5.52263e-06
8.83077e-06
1.17351e-05
1.43827e-05
1.68503e-05
1.9182e-05
2.14044e-05
2.35337e-05
2.558e-05
2.75499e-05
2.94473e-05
3.12749e-05
3.30342e-05
3.47257e-05
3.63483e-05
3.79002e-05
3.93787e-05
4.07815e-05
4.21063e-05
4.33506e-05
4.45124e-05
4.55899e-05
4.65813e-05
4.74852e-05
4.83006e-05
4.90265e-05
4.96623e-05
5.02076e-05
5.06621e-05
5.10257e-05
5.12984e-05
5.14801e-05
5.1571e-05
5.15711e-05
5.14803e-05
5.12986e-05
5.10261e-05
5.06625e-05
5.02081e-05
4.9663e-05
4.90273e-05
4.83015e-05
4.74862e-05
4.65824e-05
4.55911e-05
4.45138e-05
4.33521e-05
4.21079e-05
4.07833e-05
3.93806e-05
3.79021e-05
3.63504e-05
3.47278e-05
3.30364e-05
3.12771e-05
2.94496e-05
2.75522e-05
2.55824e-05
2.3536e-05
2.14067e-05
1.91842e-05
1.68524e-05
1.43846e-05
1.17369e-05
8.83223e-06
5.5237e-06
1.12151e-08
4.19989e-11
4.19874e-11
1.12123e-08
5.52265e-06
8.83079e-06
1.17352e-05
1.43827e-05
1.68503e-05
1.9182e-05
2.14044e-05
2.35337e-05
2.55801e-05
2.75499e-05
2.94473e-05
3.12749e-05
3.30342e-05
3.47257e-05
3.63484e-05
3.79002e-05
3.93788e-05
4.07816e-05
4.21064e-05
4.33507e-05
4.45125e-05
4.559e-05
4.65814e-05
4.74853e-05
4.83007e-05
4.90266e-05
4.96624e-05
5.02077e-05
5.06622e-05
5.10258e-05
5.12985e-05
5.14803e-05
5.15712e-05
5.15712e-05
5.14804e-05
5.12988e-05
5.10262e-05
5.06627e-05
5.02083e-05
4.96631e-05
4.90274e-05
4.83016e-05
4.74863e-05
4.65825e-05
4.55912e-05
4.45139e-05
4.33522e-05
4.2108e-05
4.07834e-05
3.93806e-05
3.79022e-05
3.63505e-05
3.47279e-05
3.30365e-05
3.12772e-05
2.94497e-05
2.75523e-05
2.55824e-05
2.35361e-05
2.14067e-05
1.91843e-05
1.68524e-05
1.43846e-05
1.17369e-05
8.83225e-06
5.52371e-06
1.12151e-08
4.1999e-11
4.19874e-11
1.12123e-08
5.52265e-06
8.8308e-06
1.17352e-05
1.43827e-05
1.68503e-05
1.91821e-05
2.14044e-05
2.35337e-05
2.55801e-05
2.755e-05
2.94474e-05
3.12749e-05
3.30343e-05
3.47258e-05
3.63484e-05
3.79003e-05
3.93788e-05
4.07817e-05
4.21064e-05
4.33507e-05
4.45126e-05
4.559e-05
4.65814e-05
4.74853e-05
4.83007e-05
4.90266e-05
4.96624e-05
5.02077e-05
5.06622e-05
5.10259e-05
5.12985e-05
5.14803e-05
5.15712e-05
5.15713e-05
5.14805e-05
5.12988e-05
5.10262e-05
5.06627e-05
5.02083e-05
4.96631e-05
4.90274e-05
4.83016e-05
4.74864e-05
4.65825e-05
4.55913e-05
4.4514e-05
4.33522e-05
4.2108e-05
4.07834e-05
3.93807e-05
3.79022e-05
3.63505e-05
3.47279e-05
3.30365e-05
3.12772e-05
2.94497e-05
2.75523e-05
2.55825e-05
2.35361e-05
2.14067e-05
1.91843e-05
1.68524e-05
1.43847e-05
1.17369e-05
8.83226e-06
5.52371e-06
1.12152e-08
4.19991e-11
4.19875e-11
1.12123e-08
5.52265e-06
8.8308e-06
1.17352e-05
1.43827e-05
1.68503e-05
1.91821e-05
2.14044e-05
2.35337e-05
2.55801e-05
2.755e-05
2.94474e-05
3.1275e-05
3.30343e-05
3.47258e-05
3.63485e-05
3.79003e-05
3.93788e-05
4.07817e-05
4.21064e-05
4.33507e-05
4.45126e-05
4.559e-05
4.65814e-05
4.74853e-05
4.83007e-05
4.90266e-05
4.96624e-05
5.02077e-05
5.06623e-05
5.10259e-05
5.12985e-05
5.14803e-05
5.15712e-05
5.15713e-05
5.14805e-05
5.12988e-05
5.10262e-05
5.06627e-05
5.02083e-05
4.96631e-05
4.90274e-05
4.83016e-05
4.74864e-05
4.65825e-05
4.55913e-05
4.4514e-05
4.33522e-05
4.2108e-05
4.07834e-05
3.93807e-05
3.79022e-05
3.63505e-05
3.47279e-05
3.30365e-05
3.12772e-05
2.94497e-05
2.75523e-05
2.55825e-05
2.35361e-05
2.14067e-05
1.91843e-05
1.68524e-05
1.43847e-05
1.17369e-05
8.83226e-06
5.52371e-06
1.12152e-08
4.19991e-11
4.19875e-11
1.12123e-08
5.52265e-06
8.8308e-06
1.17352e-05
1.43827e-05
1.68503e-05
1.91821e-05
2.14044e-05
2.35337e-05
2.55801e-05
2.755e-05
2.94474e-05
3.1275e-05
3.30343e-05
3.47258e-05
3.63485e-05
3.79003e-05
3.93788e-05
4.07817e-05
4.21064e-05
4.33507e-05
4.45126e-05
4.559e-05
4.65814e-05
4.74854e-05
4.83007e-05
4.90266e-05
4.96624e-05
5.02077e-05
5.06623e-05
5.10259e-05
5.12985e-05
5.14803e-05
5.15712e-05
5.15713e-05
5.14805e-05
5.12988e-05
5.10262e-05
5.06627e-05
5.02083e-05
4.96631e-05
4.90274e-05
4.83016e-05
4.74864e-05
4.65826e-05
4.55913e-05
4.4514e-05
4.33523e-05
4.2108e-05
4.07834e-05
3.93807e-05
3.79022e-05
3.63505e-05
3.47279e-05
3.30365e-05
3.12772e-05
2.94497e-05
2.75523e-05
2.55825e-05
2.35361e-05
2.14067e-05
1.91843e-05
1.68524e-05
1.43847e-05
1.17369e-05
8.83226e-06
5.52371e-06
1.12152e-08
4.19991e-11
4.19875e-11
1.12123e-08
5.52265e-06
8.8308e-06
1.17352e-05
1.43827e-05
1.68503e-05
1.91821e-05
2.14044e-05
2.35337e-05
2.55801e-05
2.755e-05
2.94474e-05
3.1275e-05
3.30343e-05
3.47258e-05
3.63485e-05
3.79003e-05
3.93788e-05
4.07817e-05
4.21064e-05
4.33507e-05
4.45126e-05
4.559e-05
4.65814e-05
4.74854e-05
4.83007e-05
4.90266e-05
4.96624e-05
5.02077e-05
5.06623e-05
5.10259e-05
5.12986e-05
5.14803e-05
5.15712e-05
5.15713e-05
5.14805e-05
5.12988e-05
5.10262e-05
5.06627e-05
5.02083e-05
4.96631e-05
4.90274e-05
4.83016e-05
4.74864e-05
4.65826e-05
4.55913e-05
4.4514e-05
4.33523e-05
4.2108e-05
4.07834e-05
3.93807e-05
3.79022e-05
3.63505e-05
3.47279e-05
3.30365e-05
3.12772e-05
2.94497e-05
2.75523e-05
2.55825e-05
2.35361e-05
2.14067e-05
1.91843e-05
1.68524e-05
1.43847e-05
1.17369e-05
8.83226e-06
5.52371e-06
1.12152e-08
4.19991e-11
4.19875e-11
1.12123e-08
5.52265e-06
8.8308e-06
1.17352e-05
1.43827e-05
1.68503e-05
1.91821e-05
2.14044e-05
2.35337e-05
2.55801e-05
2.755e-05
2.94474e-05
3.1275e-05
3.30343e-05
3.47258e-05
3.63485e-05
3.79003e-05
3.93788e-05
4.07817e-05
4.21064e-05
4.33507e-05
4.45126e-05
4.559e-05
4.65814e-05
4.74854e-05
4.83007e-05
4.90266e-05
4.96624e-05
5.02077e-05
5.06623e-05
5.10259e-05
5.12986e-05
5.14803e-05
5.15712e-05
5.15713e-05
5.14805e-05
5.12988e-05
5.10262e-05
5.06627e-05
5.02083e-05
4.96631e-05
4.90274e-05
4.83016e-05
4.74864e-05
4.65826e-05
4.55913e-05
4.4514e-05
4.33523e-05
4.2108e-05
4.07834e-05
3.93807e-05
3.79022e-05
3.63505e-05
3.47279e-05
3.30365e-05
3.12772e-05
2.94497e-05
2.75523e-05
2.55825e-05
2.35361e-05
2.14067e-05
1.91843e-05
1.68524e-05
1.43847e-05
1.17369e-05
8.83226e-06
5.52371e-06
1.12152e-08
4.19991e-11
4.19875e-11
1.12123e-08
5.52265e-06
8.8308e-06
1.17352e-05
1.43827e-05
1.68503e-05
1.91821e-05
2.14044e-05
2.35337e-05
2.55801e-05
2.755e-05
2.94474e-05
3.1275e-05
3.30343e-05
3.47258e-05
3.63485e-05
3.79003e-05
3.93788e-05
4.07817e-05
4.21064e-05
4.33507e-05
4.45126e-05
4.559e-05
4.65814e-05
4.74854e-05
4.83007e-05
4.90266e-05
4.96624e-05
5.02077e-05
5.06623e-05
5.10259e-05
5.12986e-05
5.14803e-05
5.15712e-05
5.15713e-05
5.14805e-05
5.12988e-05
5.10262e-05
5.06627e-05
5.02083e-05
4.96631e-05
4.90274e-05
4.83016e-05
4.74864e-05
4.65826e-05
4.55913e-05
4.4514e-05
4.33523e-05
4.2108e-05
4.07834e-05
3.93807e-05
3.79022e-05
3.63505e-05
3.47279e-05
3.30365e-05
3.12772e-05
2.94497e-05
2.75523e-05
2.55825e-05
2.35361e-05
2.14067e-05
1.91843e-05
1.68524e-05
1.43847e-05
1.17369e-05
8.83226e-06
5.52371e-06
1.12152e-08
4.19991e-11
4.19875e-11
1.12123e-08
5.52265e-06
8.8308e-06
1.17352e-05
1.43827e-05
1.68503e-05
1.91821e-05
2.14044e-05
2.35337e-05
2.55801e-05
2.755e-05
2.94474e-05
3.1275e-05
3.30343e-05
3.47258e-05
3.63485e-05
3.79003e-05
3.93788e-05
4.07817e-05
4.21064e-05
4.33507e-05
4.45126e-05
4.559e-05
4.65814e-05
4.74854e-05
4.83007e-05
4.90266e-05
4.96624e-05
5.02077e-05
5.06623e-05
5.10259e-05
5.12986e-05
5.14803e-05
5.15712e-05
5.15713e-05
5.14805e-05
5.12988e-05
5.10262e-05
5.06627e-05
5.02083e-05
4.96631e-05
4.90274e-05
4.83016e-05
4.74864e-05
4.65826e-05
4.55913e-05
4.4514e-05
4.33523e-05
4.2108e-05
4.07834e-05
3.93807e-05
3.79022e-05
3.63505e-05
3.47279e-05
3.30365e-05
3.12772e-05
2.94497e-05
2.75523e-05
2.55825e-05
2.35361e-05
2.14067e-05
1.91843e-05
1.68524e-05
1.43847e-05
1.17369e-05
8.83226e-06
5.52371e-06
1.12152e-08
4.19991e-11
4.19875e-11
1.12123e-08
5.52265e-06
8.8308e-06
1.17352e-05
1.43827e-05
1.68503e-05
1.91821e-05
2.14044e-05
2.35337e-05
2.55801e-05
2.755e-05
2.94474e-05
3.1275e-05
3.30343e-05
3.47258e-05
3.63485e-05
3.79003e-05
3.93788e-05
4.07817e-05
4.21064e-05
4.33507e-05
4.45126e-05
4.559e-05
4.65814e-05
4.74854e-05
4.83007e-05
4.90266e-05
4.96624e-05
5.02077e-05
5.06623e-05
5.10259e-05
5.12986e-05
5.14803e-05
5.15712e-05
5.15713e-05
5.14805e-05
5.12988e-05
5.10262e-05
5.06627e-05
5.02083e-05
4.96631e-05
4.90274e-05
4.83016e-05
4.74864e-05
4.65826e-05
4.55913e-05
4.4514e-05
4.33523e-05
4.2108e-05
4.07834e-05
3.93807e-05
3.79022e-05
3.63505e-05
3.47279e-05
3.30365e-05
3.12772e-05
2.94497e-05
2.75523e-05
2.55825e-05
2.35361e-05
2.14067e-05
1.91843e-05
1.68524e-05
1.43847e-05
1.17369e-05
8.83226e-06
5.52371e-06
1.12152e-08
4.19991e-11
4.19875e-11
1.12123e-08
5.52265e-06
8.8308e-06
1.17352e-05
1.43827e-05
1.68503e-05
1.91821e-05
2.14044e-05
2.35337e-05
2.55801e-05
2.755e-05
2.94474e-05
3.1275e-05
3.30343e-05
3.47258e-05
3.63485e-05
3.79003e-05
3.93788e-05
4.07817e-05
4.21064e-05
4.33507e-05
4.45126e-05
4.559e-05
4.65814e-05
4.74854e-05
4.83007e-05
4.90266e-05
4.96624e-05
5.02077e-05
5.06623e-05
5.10259e-05
5.12986e-05
5.14803e-05
5.15712e-05
5.15713e-05
5.14805e-05
5.12988e-05
5.10262e-05
5.06627e-05
5.02083e-05
4.96631e-05
4.90274e-05
4.83016e-05
4.74864e-05
4.65826e-05
4.55913e-05
4.4514e-05
4.33523e-05
4.2108e-05
4.07834e-05
3.93807e-05
3.79022e-05
3.63505e-05
3.47279e-05
3.30365e-05
3.12772e-05
2.94497e-05
2.75523e-05
2.55825e-05
2.35361e-05
2.14067e-05
1.91843e-05
1.68524e-05
1.43847e-05
1.17369e-05
8.83226e-06
5.52371e-06
1.12152e-08
4.19991e-11
4.19875e-11
1.12123e-08
5.52265e-06
8.8308e-06
1.17352e-05
1.43827e-05
1.68503e-05
1.91821e-05
2.14044e-05
2.35337e-05
2.55801e-05
2.755e-05
2.94474e-05
3.1275e-05
3.30343e-05
3.47258e-05
3.63485e-05
3.79003e-05
3.93788e-05
4.07817e-05
4.21064e-05
4.33507e-05
4.45126e-05
4.559e-05
4.65814e-05
4.74854e-05
4.83007e-05
4.90266e-05
4.96624e-05
5.02077e-05
5.06623e-05
5.10259e-05
5.12986e-05
5.14803e-05
5.15712e-05
5.15713e-05
5.14805e-05
5.12988e-05
5.10262e-05
5.06627e-05
5.02083e-05
4.96631e-05
4.90274e-05
4.83016e-05
4.74864e-05
4.65826e-05
4.55913e-05
4.4514e-05
4.33523e-05
4.2108e-05
4.07834e-05
3.93807e-05
3.79022e-05
3.63505e-05
3.47279e-05
3.30365e-05
3.12772e-05
2.94497e-05
2.75523e-05
2.55825e-05
2.35361e-05
2.14067e-05
1.91843e-05
1.68524e-05
1.43847e-05
1.17369e-05
8.83226e-06
5.52371e-06
1.12152e-08
4.19991e-11
4.19875e-11
1.12123e-08
5.52265e-06
8.8308e-06
1.17352e-05
1.43827e-05
1.68503e-05
1.91821e-05
2.14044e-05
2.35337e-05
2.55801e-05
2.755e-05
2.94474e-05
3.1275e-05
3.30343e-05
3.47258e-05
3.63485e-05
3.79003e-05
3.93788e-05
4.07817e-05
4.21064e-05
4.33507e-05
4.45126e-05
4.559e-05
4.65814e-05
4.74854e-05
4.83007e-05
4.90266e-05
4.96624e-05
5.02077e-05
5.06623e-05
5.10259e-05
5.12986e-05
5.14803e-05
5.15712e-05
5.15713e-05
5.14805e-05
5.12988e-05
5.10262e-05
5.06627e-05
5.02083e-05
4.96631e-05
4.90274e-05
4.83016e-05
4.74864e-05
4.65826e-05
4.55913e-05
4.4514e-05
4.33523e-05
4.2108e-05
4.07834e-05
3.93807e-05
3.79022e-05
3.63505e-05
3.47279e-05
3.30365e-05
3.12772e-05
2.94497e-05
2.75523e-05
2.55825e-05
2.35361e-05
2.14067e-05
1.91843e-05
1.68524e-05
1.43847e-05
1.17369e-05
8.83226e-06
5.52371e-06
1.12152e-08
4.19991e-11
4.19875e-11
1.12123e-08
5.52265e-06
8.8308e-06
1.17352e-05
1.43827e-05
1.68503e-05
1.91821e-05
2.14044e-05
2.35337e-05
2.55801e-05
2.755e-05
2.94474e-05
3.1275e-05
3.30343e-05
3.47258e-05
3.63485e-05
3.79003e-05
3.93788e-05
4.07817e-05
4.21064e-05
4.33507e-05
4.45126e-05
4.559e-05
4.65814e-05
4.74854e-05
4.83007e-05
4.90266e-05
4.96624e-05
5.02077e-05
5.06623e-05
5.10259e-05
5.12986e-05
5.14803e-05
5.15712e-05
5.15713e-05
5.14805e-05
5.12988e-05
5.10262e-05
5.06627e-05
5.02083e-05
4.96631e-05
4.90274e-05
4.83016e-05
4.74864e-05
4.65826e-05
4.55913e-05
4.4514e-05
4.33523e-05
4.2108e-05
4.07834e-05
3.93807e-05
3.79022e-05
3.63505e-05
3.47279e-05
3.30365e-05
3.12772e-05
2.94497e-05
2.75523e-05
2.55825e-05
2.35361e-05
2.14067e-05
1.91843e-05
1.68524e-05
1.43847e-05
1.17369e-05
8.83226e-06
5.52371e-06
1.12152e-08
4.19991e-11
4.19875e-11
1.12123e-08
5.52265e-06
8.8308e-06
1.17352e-05
1.43827e-05
1.68503e-05
1.91821e-05
2.14044e-05
2.35337e-05
2.55801e-05
2.755e-05
2.94474e-05
3.1275e-05
3.30343e-05
3.47258e-05
3.63485e-05
3.79003e-05
3.93788e-05
4.07817e-05
4.21064e-05
4.33507e-05
4.45126e-05
4.559e-05
4.65814e-05
4.74854e-05
4.83007e-05
4.90266e-05
4.96624e-05
5.02077e-05
5.06623e-05
5.10259e-05
5.12986e-05
5.14803e-05
5.15712e-05
5.15713e-05
5.14805e-05
5.12988e-05
5.10262e-05
5.06627e-05
5.02083e-05
4.96631e-05
4.90274e-05
4.83016e-05
4.74864e-05
4.65826e-05
4.55913e-05
4.4514e-05
4.33523e-05
4.2108e-05
4.07834e-05
3.93807e-05
3.79022e-05
3.63505e-05
3.47279e-05
3.30365e-05
3.12772e-05
2.94497e-05
2.75523e-05
2.55825e-05
2.35361e-05
2.14067e-05
1.91843e-05
1.68524e-05
1.43847e-05
1.17369e-05
8.83226e-06
5.52371e-06
1.12152e-08
4.19991e-11
4.19875e-11
1.12123e-08
5.52265e-06
8.8308e-06
1.17352e-05
1.43827e-05
1.68503e-05
1.91821e-05
2.14044e-05
2.35337e-05
2.55801e-05
2.755e-05
2.94474e-05
3.1275e-05
3.30343e-05
3.47258e-05
3.63485e-05
3.79003e-05
3.93788e-05
4.07817e-05
4.21064e-05
4.33507e-05
4.45126e-05
4.559e-05
4.65814e-05
4.74854e-05
4.83007e-05
4.90266e-05
4.96624e-05
5.02077e-05
5.06623e-05
5.10259e-05
5.12986e-05
5.14803e-05
5.15712e-05
5.15713e-05
5.14805e-05
5.12988e-05
5.10262e-05
5.06627e-05
5.02083e-05
4.96631e-05
4.90274e-05
4.83016e-05
4.74864e-05
4.65826e-05
4.55913e-05
4.4514e-05
4.33523e-05
4.2108e-05
4.07834e-05
3.93807e-05
3.79022e-05
3.63505e-05
3.47279e-05
3.30365e-05
3.12772e-05
2.94497e-05
2.75523e-05
2.55825e-05
2.35361e-05
2.14067e-05
1.91843e-05
1.68524e-05
1.43847e-05
1.17369e-05
8.83226e-06
5.52371e-06
1.12152e-08
4.19991e-11
4.19875e-11
1.12123e-08
5.52265e-06
8.8308e-06
1.17352e-05
1.43827e-05
1.68503e-05
1.91821e-05
2.14044e-05
2.35337e-05
2.55801e-05
2.755e-05
2.94474e-05
3.1275e-05
3.30343e-05
3.47258e-05
3.63485e-05
3.79003e-05
3.93788e-05
4.07817e-05
4.21064e-05
4.33507e-05
4.45126e-05
4.559e-05
4.65814e-05
4.74854e-05
4.83007e-05
4.90266e-05
4.96624e-05
5.02077e-05
5.06623e-05
5.10259e-05
5.12986e-05
5.14803e-05
5.15712e-05
5.15713e-05
5.14805e-05
5.12988e-05
5.10262e-05
5.06627e-05
5.02083e-05
4.96631e-05
4.90274e-05
4.83016e-05
4.74864e-05
4.65826e-05
4.55913e-05
4.4514e-05
4.33523e-05
4.2108e-05
4.07834e-05
3.93807e-05
3.79022e-05
3.63505e-05
3.47279e-05
3.30365e-05
3.12772e-05
2.94497e-05
2.75523e-05
2.55825e-05
2.35361e-05
2.14067e-05
1.91843e-05
1.68524e-05
1.43847e-05
1.17369e-05
8.83226e-06
5.52371e-06
1.12152e-08
4.19991e-11
4.19875e-11
1.12123e-08
5.52265e-06
8.8308e-06
1.17352e-05
1.43827e-05
1.68503e-05
1.91821e-05
2.14044e-05
2.35337e-05
2.55801e-05
2.755e-05
2.94474e-05
3.1275e-05
3.30343e-05
3.47258e-05
3.63485e-05
3.79003e-05
3.93788e-05
4.07817e-05
4.21064e-05
4.33507e-05
4.45126e-05
4.559e-05
4.65814e-05
4.74854e-05
4.83007e-05
4.90266e-05
4.96624e-05
5.02077e-05
5.06623e-05
5.10259e-05
5.12986e-05
5.14803e-05
5.15712e-05
5.15713e-05
5.14805e-05
5.12988e-05
5.10262e-05
5.06627e-05
5.02083e-05
4.96631e-05
4.90274e-05
4.83016e-05
4.74864e-05
4.65826e-05
4.55913e-05
4.4514e-05
4.33523e-05
4.2108e-05
4.07834e-05
3.93807e-05
3.79022e-05
3.63505e-05
3.47279e-05
3.30365e-05
3.12772e-05
2.94497e-05
2.75523e-05
2.55825e-05
2.35361e-05
2.14067e-05
1.91843e-05
1.68524e-05
1.43847e-05
1.17369e-05
8.83226e-06
5.52371e-06
1.12152e-08
4.19991e-11
4.19875e-11
1.12123e-08
5.52265e-06
8.8308e-06
1.17352e-05
1.43827e-05
1.68503e-05
1.91821e-05
2.14044e-05
2.35337e-05
2.55801e-05
2.755e-05
2.94474e-05
3.1275e-05
3.30343e-05
3.47258e-05