/*--------------------------------*- C++ -*----------------------------------*\
  =========                 |
  \\      /  F ield         | OpenFOAM: The Open Source CFD Toolbox
   \\    /   O peration     | Website:  https://openfoam.org
    \\  /    A nd           | Version:  13
     \\/     M anipulation  |
\*---------------------------------------------------------------------------*/
FoamFile
{
    format      ascii;
    class       volScalarField;
    location    "170";
    object      nut;
}
// * * * * * * * * * * * * * * * * * * * * * * * * * * * * * * * * * * * * * //

dimensions      [0 2 -1 0 0 0 0];

internalField   nonuniform List<scalar> 
315000
(
3.6273e-16
9.50247e-14
2.16914e-12
3.89548e-12
5.65306e-12
7.44682e-12
9.28254e-12
1.11654e-11
1.30992e-11
1.5086e-11
1.71259e-11
1.92172e-11
2.13561e-11
2.35367e-11
2.57515e-11
2.79914e-11
3.02454e-11
3.25015e-11
3.47465e-11
3.69661e-11
3.91457e-11
4.12698e-11
4.33232e-11
4.52903e-11
4.71559e-11
4.89055e-11
5.05248e-11
5.20007e-11
5.33211e-11
5.44748e-11
5.54523e-11
5.62451e-11
5.68467e-11
5.72517e-11
5.74569e-11
5.74603e-11
5.7262e-11
5.68637e-11
5.62687e-11
5.54822e-11
5.45108e-11
5.33628e-11
5.20479e-11
5.05769e-11
4.89621e-11
4.72166e-11
4.53544e-11
4.33902e-11
4.13392e-11
3.92168e-11
3.70384e-11
3.48193e-11
3.25744e-11
3.03177e-11
2.80625e-11
2.5821e-11
2.3604e-11
2.14208e-11
1.92789e-11
1.71841e-11
1.51404e-11
1.31494e-11
1.12111e-11
9.32337e-12
7.48233e-12
5.68269e-12
3.91839e-12
2.18389e-12
9.57942e-14
3.65942e-16
9.085e-15
2.42013e-12
5.51454e-10
9.98192e-10
1.45124e-09
1.91294e-09
2.38532e-09
2.86994e-09
3.36794e-09
3.87991e-09
4.40594e-09
4.94558e-09
5.49784e-09
6.06125e-09
6.63384e-09
7.2132e-09
7.79652e-09
8.38062e-09
8.96206e-09
9.53714e-09
1.0102e-08
1.06526e-08
1.1185e-08
1.16951e-08
1.2179e-08
1.26329e-08
1.30529e-08
1.34359e-08
1.37784e-08
1.40778e-08
1.43314e-08
1.4537e-08
1.46931e-08
1.47981e-08
1.48512e-08
1.4852e-08
1.48003e-08
1.46968e-08
1.45422e-08
1.43379e-08
1.40857e-08
1.37876e-08
1.34462e-08
1.30644e-08
1.26453e-08
1.21924e-08
1.17092e-08
1.11997e-08
1.06678e-08
1.01176e-08
9.55293e-09
8.97795e-09
8.39647e-09
7.8122e-09
7.2286e-09
6.64883e-09
6.07571e-09
5.51167e-09
4.95868e-09
4.41822e-09
3.89128e-09
3.37831e-09
2.87924e-09
2.39345e-09
1.91982e-09
1.45675e-09
1.00222e-09
5.53825e-10
2.43123e-12
9.12783e-15
3.66817e-14
9.78581e-12
5.68549e-09
1.03032e-08
1.49938e-08
1.97864e-08
2.47061e-08
2.97735e-08
3.50035e-08
4.04052e-08
4.59815e-08
5.17286e-08
5.76367e-08
6.36894e-08
6.98647e-08
7.61352e-08
8.24685e-08
8.88282e-08
9.51745e-08
1.01465e-07
1.07655e-07
1.13698e-07
1.19549e-07
1.25162e-07
1.30491e-07
1.35493e-07
1.40126e-07
1.44352e-07
1.48134e-07
1.51439e-07
1.5424e-07
1.56512e-07
1.58236e-07
1.59395e-07
1.59981e-07
1.59988e-07
1.59415e-07
1.58269e-07
1.56558e-07
1.54299e-07
1.51509e-07
1.48215e-07
1.44444e-07
1.40228e-07
1.35603e-07
1.30608e-07
1.25286e-07
1.19678e-07
1.13831e-07
1.07791e-07
1.01602e-07
9.53126e-08
8.89656e-08
8.26039e-08
7.62676e-08
6.9993e-08
6.38125e-08
5.77537e-08
5.18388e-08
4.60839e-08
4.04992e-08
3.50884e-08
2.98487e-08
2.47711e-08
1.98406e-08
1.50365e-08
1.03338e-08
5.7031e-09
9.81745e-12
3.68025e-14
6.99408e-14
1.866e-11
1.08428e-08
1.96621e-08
2.86461e-08
3.78624e-08
4.73704e-08
5.72196e-08
6.7448e-08
7.80805e-08
8.91283e-08
1.00588e-07
1.12442e-07
1.24659e-07
1.37192e-07
1.49983e-07
1.62962e-07
1.76051e-07
1.8916e-07
2.02196e-07
2.15062e-07
2.27656e-07
2.39876e-07
2.51622e-07
2.62793e-07
2.73294e-07
2.83032e-07
2.91923e-07
2.99887e-07
3.06853e-07
3.12759e-07
3.17551e-07
3.21186e-07
3.23632e-07
3.24866e-07
3.24877e-07
3.23665e-07
3.21242e-07
3.17628e-07
3.12857e-07
3.06971e-07
3.00023e-07
2.92077e-07
2.83202e-07
2.73477e-07
2.62989e-07
2.51828e-07
2.40091e-07
2.27877e-07
2.15288e-07
2.02424e-07
1.89388e-07
1.76277e-07
1.63185e-07
1.502e-07
1.37401e-07
1.24859e-07
1.12632e-07
1.00766e-07
8.92924e-08
7.82303e-08
6.75825e-08
5.7338e-08
4.7472e-08
3.79464e-08
2.87119e-08
1.97089e-08
1.08695e-08
1.87079e-11
7.01238e-14
1.09217e-13
2.91407e-11
1.69334e-08
3.07193e-08
4.47905e-08
5.92665e-08
7.4253e-08
8.98391e-08
1.06094e-07
1.23066e-07
1.40778e-07
1.5923e-07
1.78396e-07
1.98225e-07
2.18643e-07
2.39553e-07
2.60838e-07
2.82362e-07
3.0398e-07
3.25534e-07
3.46858e-07
3.67784e-07
3.88139e-07
4.07748e-07
4.26437e-07
4.44039e-07
4.60391e-07
4.7534e-07
4.88747e-07
5.00485e-07
5.10444e-07
5.18529e-07
5.24665e-07
5.28792e-07
5.30874e-07
5.30889e-07
5.28838e-07
5.2474e-07
5.18634e-07
5.10577e-07
5.00645e-07
4.88932e-07
4.75548e-07
4.6062e-07
4.44287e-07
4.26702e-07
4.08026e-07
3.88428e-07
3.68082e-07
3.47162e-07
3.2584e-07
3.04287e-07
2.82666e-07
2.61136e-07
2.39844e-07
2.18924e-07
1.98493e-07
1.78649e-07
1.59466e-07
1.40996e-07
1.23264e-07
1.06272e-07
8.99951e-08
7.43863e-08
5.93764e-08
4.48763e-08
3.07801e-08
1.6968e-08
2.92029e-11
1.09454e-13
1.527e-13
4.07449e-11
2.36748e-08
4.29556e-08
6.26561e-08
8.2955e-08
1.04011e-07
1.25957e-07
1.48899e-07
1.72907e-07
1.98021e-07
2.24241e-07
2.5153e-07
2.79816e-07
3.0899e-07
3.38911e-07
3.69407e-07
4.00284e-07
4.3133e-07
4.6232e-07
4.93018e-07
5.23181e-07
5.52555e-07
5.80885e-07
6.07913e-07
6.33388e-07
6.5707e-07
6.78731e-07
6.98165e-07
7.15185e-07
7.29628e-07
7.41355e-07
7.50254e-07
7.5624e-07
7.59257e-07
7.59275e-07
7.56295e-07
7.50345e-07
7.41481e-07
7.29788e-07
7.15377e-07
6.98387e-07
6.78981e-07
6.57345e-07
6.33686e-07
6.08231e-07
5.81219e-07
5.52903e-07
5.23538e-07
4.93383e-07
4.62688e-07
4.31698e-07
4.00649e-07
3.69765e-07
3.39259e-07
3.09326e-07
2.80137e-07
2.51833e-07
2.24524e-07
1.98282e-07
1.73145e-07
1.49111e-07
1.26143e-07
1.0417e-07
8.30857e-08
6.27579e-08
4.30276e-08
2.37158e-08
4.08186e-11
1.52982e-13
1.97715e-13
5.27583e-11
3.06509e-08
5.56121e-08
8.11273e-08
1.07436e-07
1.34751e-07
1.63251e-07
1.93074e-07
2.24317e-07
2.57027e-07
2.91205e-07
3.268e-07
3.63713e-07
4.01797e-07
4.40859e-07
4.80673e-07
5.20979e-07
5.61499e-07
6.01941e-07
6.41998e-07
6.81353e-07
7.19677e-07
7.56633e-07
7.91887e-07
8.2511e-07
8.55987e-07
8.84225e-07
9.09554e-07
9.31732e-07
9.50548e-07
9.65823e-07
9.77412e-07
9.85207e-07
9.89132e-07
9.89153e-07
9.85267e-07
9.77513e-07
9.65963e-07
9.50725e-07
9.31945e-07
9.09801e-07
8.84503e-07
8.56293e-07
8.25441e-07
7.92241e-07
7.57005e-07
7.20063e-07
6.81751e-07
6.42404e-07
6.02351e-07
5.61909e-07
5.21385e-07
4.81072e-07
4.41249e-07
4.02173e-07
3.64072e-07
3.2714e-07
2.91522e-07
2.5732e-07
2.24583e-07
1.93312e-07
1.63459e-07
1.34929e-07
1.07582e-07
8.12406e-08
5.56921e-08
3.06965e-08
5.28404e-11
1.98029e-13
2.41609e-13
6.44733e-11
3.74508e-08
6.79423e-08
9.91129e-08
1.31261e-07
1.6465e-07
1.99501e-07
2.35983e-07
2.74213e-07
3.14248e-07
3.56082e-07
3.99648e-07
4.44817e-07
4.914e-07
5.39154e-07
5.87795e-07
6.37001e-07
6.86431e-07
7.35726e-07
7.84517e-07
8.32417e-07
8.7903e-07
9.2395e-07
9.66774e-07
1.00711e-06
1.04457e-06
1.07882e-06
1.10952e-06
1.13639e-06
1.15918e-06
1.17768e-06
1.19171e-06
1.20114e-06
1.20589e-06
1.20591e-06
1.2012e-06
1.19181e-06
1.17782e-06
1.15937e-06
1.13662e-06
1.10978e-06
1.07911e-06
1.04489e-06
1.00746e-06
9.67148e-07
9.24344e-07
8.7944e-07
8.32839e-07
7.84947e-07
7.36161e-07
6.86866e-07
6.37433e-07
5.8822e-07
5.39569e-07
4.918e-07
4.45199e-07
4.0001e-07
3.5642e-07
3.1456e-07
2.74497e-07
2.36237e-07
1.99723e-07
1.64839e-07
1.31416e-07
9.92333e-08
6.80272e-08
3.74991e-08
6.45606e-11
2.41944e-13
2.82194e-13
7.53059e-11
4.37359e-08
7.93334e-08
1.15721e-07
1.5325e-07
1.92231e-07
2.32921e-07
2.75517e-07
3.20154e-07
3.66891e-07
4.15718e-07
4.66548e-07
5.19222e-07
5.73511e-07
6.29123e-07
6.85717e-07
7.42916e-07
8.00321e-07
8.57516e-07
9.14071e-07
9.69544e-07
1.02348e-06
1.07542e-06
1.12489e-06
1.17145e-06
1.21468e-06
1.25417e-06
1.28956e-06
1.32051e-06
1.34676e-06
1.36805e-06
1.3842e-06
1.39505e-06
1.40051e-06
1.40053e-06
1.39511e-06
1.3843e-06
1.3682e-06
1.34695e-06
1.32074e-06
1.28982e-06
1.25447e-06
1.21501e-06
1.17181e-06
1.12527e-06
1.07582e-06
1.0239e-06
9.69977e-07
9.14512e-07
8.57962e-07
8.00768e-07
7.43361e-07
6.86154e-07
6.2955e-07
5.73923e-07
5.19617e-07
4.66922e-07
4.16067e-07
3.67213e-07
3.20446e-07
2.75779e-07
2.33149e-07
1.92425e-07
1.5341e-07
1.15844e-07
7.94205e-08
4.37854e-08
7.53956e-11
2.82539e-13
3.17932e-13
8.48458e-11
4.92692e-08
8.93578e-08
1.3033e-07
1.72586e-07
2.16473e-07
2.62283e-07
3.10235e-07
3.60476e-07
4.1307e-07
4.67997e-07
5.25154e-07
5.84351e-07
6.45322e-07
7.07732e-07
7.71191e-07
8.35272e-07
8.99524e-07
9.63483e-07
1.02667e-06
1.0886e-06
1.14876e-06
1.20664e-06
1.26174e-06
1.31357e-06
1.36166e-06
1.40556e-06
1.44488e-06
1.47927e-06
1.50842e-06
1.53206e-06
1.54998e-06
1.56202e-06
1.56808e-06
1.5681e-06
1.56209e-06
1.55009e-06
1.53221e-06
1.50861e-06
1.4795e-06
1.44515e-06
1.40586e-06
1.36199e-06
1.31393e-06
1.26213e-06
1.20704e-06
1.14918e-06
1.08903e-06
1.02711e-06
9.63931e-07
8.99973e-07
8.35718e-07
7.71631e-07
7.08162e-07
6.45738e-07
5.84748e-07
5.2553e-07
4.68349e-07
4.13394e-07
3.60771e-07
3.10498e-07
2.62512e-07
2.16668e-07
1.72746e-07
1.30454e-07
8.94449e-08
4.93187e-08
8.49358e-11
3.18279e-13
3.4799e-13
9.28704e-11
5.39225e-08
9.7785e-08
1.42609e-07
1.88831e-07
2.36836e-07
2.86939e-07
3.3938e-07
3.94315e-07
4.51809e-07
5.11835e-07
5.74273e-07
6.38909e-07
7.05442e-07
7.735e-07
8.42652e-07
9.12429e-07
9.82339e-07
1.05188e-06
1.12052e-06
1.18775e-06
1.25301e-06
1.31577e-06
1.37547e-06
1.4316e-06
1.48364e-06
1.53114e-06
1.57368e-06
1.61086e-06
1.64236e-06
1.6679e-06
1.68726e-06
1.70027e-06
1.70682e-06
1.70684e-06
1.70034e-06
1.68737e-06
1.66805e-06
1.64255e-06
1.61108e-06
1.57394e-06
1.53144e-06
1.48397e-06
1.43195e-06
1.37585e-06
1.31617e-06
1.25343e-06
1.18818e-06
1.12096e-06
1.05232e-06
9.82783e-07
9.1287e-07
8.43087e-07
7.73925e-07
7.05854e-07
6.39303e-07
5.74646e-07
5.12184e-07
4.5213e-07
3.94607e-07
3.39641e-07
2.87167e-07
2.37029e-07
1.88989e-07
1.42731e-07
9.78707e-08
5.39711e-08
9.29591e-11
3.48332e-13
3.72184e-13
9.93305e-11
5.76679e-08
1.04567e-07
1.52488e-07
2.01901e-07
2.53216e-07
3.06769e-07
3.62817e-07
4.21522e-07
4.8295e-07
5.47068e-07
6.1374e-07
6.82732e-07
7.53716e-07
8.26288e-07
8.99984e-07
9.74303e-07
1.04872e-06
1.12269e-06
1.19567e-06
1.2671e-06
1.33641e-06
1.40302e-06
1.46636e-06
1.52588e-06
1.58105e-06
1.63139e-06
1.67644e-06
1.71582e-06
1.74918e-06
1.77623e-06
1.79672e-06
1.81049e-06
1.81741e-06
1.81743e-06
1.81055e-06
1.79682e-06
1.77637e-06
1.74937e-06
1.71605e-06
1.6767e-06
1.63168e-06
1.58137e-06
1.52622e-06
1.46673e-06
1.40341e-06
1.33682e-06
1.26752e-06
1.1961e-06
1.12312e-06
1.04915e-06
9.74736e-07
9.00412e-07
8.26706e-07
7.5412e-07
6.83119e-07
6.14107e-07
5.47411e-07
4.83266e-07
4.21809e-07
3.63073e-07
3.06993e-07
2.53405e-07
2.02055e-07
1.52607e-07
1.0465e-07
5.77154e-08
9.94173e-11
3.72519e-13
3.90854e-13
1.04317e-10
6.05586e-08
1.098e-07
1.6011e-07
2.11984e-07
2.65853e-07
3.2207e-07
3.809e-07
4.42514e-07
5.06977e-07
5.74251e-07
6.44188e-07
7.16537e-07
7.90949e-07
8.66996e-07
9.44188e-07
1.022e-06
1.09987e-06
1.17724e-06
1.25355e-06
1.3282e-06
1.4006e-06
1.47016e-06
1.53628e-06
1.59839e-06
1.65595e-06
1.70845e-06
1.75544e-06
1.79649e-06
1.83126e-06
1.85945e-06
1.88081e-06
1.89516e-06
1.90237e-06
1.90239e-06
1.89522e-06
1.88091e-06
1.85959e-06
1.83144e-06
1.79671e-06
1.75569e-06
1.70873e-06
1.65626e-06
1.59873e-06
1.53664e-06
1.47054e-06
1.401e-06
1.32861e-06
1.25397e-06
1.17767e-06
1.1003e-06
1.02242e-06
9.44607e-07
8.67406e-07
7.91346e-07
7.16917e-07
6.44548e-07
5.74588e-07
5.07288e-07
4.42795e-07
3.81151e-07
3.22288e-07
2.66038e-07
2.12135e-07
1.60227e-07
1.09881e-07
6.06048e-08
1.04401e-10
3.91181e-13
4.04688e-13
1.08012e-10
6.2701e-08
1.13678e-07
1.65759e-07
2.19458e-07
2.7522e-07
3.33412e-07
3.94308e-07
4.5808e-07
5.24797e-07
5.94413e-07
6.66774e-07
7.41615e-07
8.18571e-07
8.97196e-07
9.7698e-07
1.05737e-06
1.13781e-06
1.21771e-06
1.29647e-06
1.37351e-06
1.4482e-06
1.51993e-06
1.58811e-06
1.65213e-06
1.71146e-06
1.76556e-06
1.81397e-06
1.85626e-06
1.89208e-06
1.92111e-06
1.9431e-06
1.95788e-06
1.96531e-06
1.96533e-06
1.95794e-06
1.9432e-06
1.92125e-06
1.89225e-06
1.85647e-06
1.81421e-06
1.76584e-06
1.71176e-06
1.65247e-06
1.58846e-06
1.52031e-06
1.44859e-06
1.37391e-06
1.29688e-06
1.21812e-06
1.13823e-06
1.05779e-06
9.77391e-07
8.97598e-07
8.1896e-07
7.41988e-07
6.67127e-07
5.94743e-07
5.25101e-07
4.58356e-07
3.94553e-07
3.33626e-07
2.75401e-07
2.19605e-07
1.65873e-07
1.13758e-07
6.2746e-08
1.08095e-10
4.05008e-13
4.14546e-13
1.10646e-10
6.42281e-08
1.16443e-07
1.69787e-07
2.24787e-07
2.819e-07
3.41502e-07
4.03873e-07
4.69189e-07
5.37517e-07
6.08809e-07
6.82904e-07
7.59529e-07
8.38306e-07
9.18775e-07
1.00041e-06
1.08266e-06
1.16493e-06
1.24663e-06
1.32716e-06
1.4059e-06
1.48222e-06
1.55552e-06
1.62516e-06
1.69056e-06
1.75114e-06
1.80639e-06
1.85581e-06
1.89899e-06
1.93555e-06
1.96519e-06
1.98764e-06
2.00272e-06
2.0103e-06
2.01032e-06
2.00278e-06
1.98774e-06
1.96532e-06
1.93573e-06
1.8992e-06
1.85605e-06
1.80666e-06
1.75144e-06
1.69088e-06
1.62551e-06
1.55588e-06
1.48261e-06
1.40629e-06
1.32756e-06
1.24704e-06
1.16534e-06
1.08307e-06
1.00082e-06
9.19171e-07
8.38689e-07
7.59896e-07
6.83252e-07
6.09134e-07
5.37816e-07
4.6946e-07
4.04114e-07
3.41712e-07
2.82078e-07
2.24931e-07
1.69898e-07
1.16521e-07
6.42721e-08
1.10727e-10
4.1486e-13
4.21312e-13
1.12454e-10
6.52765e-08
1.18341e-07
1.72552e-07
2.28446e-07
2.86489e-07
3.47062e-07
4.10449e-07
4.76828e-07
5.46267e-07
6.18717e-07
6.94009e-07
7.71866e-07
8.51901e-07
9.33646e-07
1.01657e-06
1.1001e-06
1.18363e-06
1.26658e-06
1.34832e-06
1.42824e-06
1.5057e-06
1.58007e-06
1.65073e-06
1.71708e-06
1.77853e-06
1.83457e-06
1.8847e-06
1.92849e-06
1.96557e-06
1.99562e-06
2.01839e-06
2.03368e-06
2.04137e-06
2.04139e-06
2.03374e-06
2.01848e-06
1.99575e-06
1.96574e-06
1.92869e-06
1.88494e-06
1.83484e-06
1.77883e-06
1.7174e-06
1.65108e-06
1.58044e-06
1.50608e-06
1.42863e-06
1.34872e-06
1.26699e-06
1.18404e-06
1.1005e-06
1.01697e-06
9.34037e-07
8.5228e-07
7.72228e-07
6.94353e-07
6.19038e-07
5.46563e-07
4.77096e-07
4.10687e-07
3.47269e-07
2.86665e-07
2.28589e-07
1.72662e-07
1.18417e-07
6.53199e-08
1.12534e-10
4.21622e-13
4.2579e-13
1.13651e-10
6.59707e-08
1.19598e-07
1.74384e-07
2.30871e-07
2.89531e-07
3.50748e-07
4.1481e-07
4.81898e-07
5.52077e-07
6.25297e-07
7.01389e-07
7.80067e-07
8.60943e-07
9.43539e-07
1.02732e-06
1.1117e-06
1.19609e-06
1.27987e-06
1.36243e-06
1.44313e-06
1.52135e-06
1.59644e-06
1.66778e-06
1.73476e-06
1.7968e-06
1.85337e-06
1.90397e-06
1.94817e-06
1.9856e-06
2.01593e-06
2.03891e-06
2.05434e-06
2.0621e-06
2.06212e-06
2.0544e-06
2.039e-06
2.01606e-06
1.98577e-06
1.94838e-06
1.90421e-06
1.85363e-06
1.7971e-06
1.73508e-06
1.66813e-06
1.5968e-06
1.52173e-06
1.44352e-06
1.36282e-06
1.28027e-06
1.19649e-06
1.1121e-06
1.02771e-06
9.43927e-07
8.61318e-07
7.80427e-07
7.01729e-07
6.25615e-07
5.5237e-07
4.82164e-07
4.15047e-07
3.50954e-07
2.89705e-07
2.31012e-07
1.74492e-07
1.19674e-07
6.60136e-08
1.1373e-10
4.26096e-13
4.28652e-13
1.14416e-10
6.64147e-08
1.20402e-07
1.75556e-07
2.32423e-07
2.91478e-07
3.53109e-07
4.17605e-07
4.85148e-07
5.55803e-07
6.2952e-07
7.06127e-07
7.85336e-07
8.66754e-07
9.49901e-07
1.03423e-06
1.11917e-06
1.20411e-06
1.28843e-06
1.37151e-06
1.45273e-06
1.53144e-06
1.607e-06
1.67878e-06
1.74617e-06
1.80859e-06
1.8655e-06
1.91641e-06
1.96088e-06
1.99853e-06
2.02904e-06
2.05215e-06
2.06768e-06
2.07548e-06
2.0755e-06
2.06774e-06
2.05225e-06
2.02917e-06
1.99869e-06
1.96108e-06
1.91664e-06
1.86576e-06
1.80888e-06
1.74649e-06
1.67912e-06
1.60736e-06
1.53181e-06
1.45312e-06
1.37191e-06
1.28883e-06
1.20451e-06
1.11957e-06
1.03463e-06
9.50287e-07
8.67127e-07
7.85693e-07
7.06466e-07
6.29837e-07
5.56095e-07
4.85412e-07
4.17841e-07
3.53314e-07
2.91651e-07
2.32563e-07
1.75663e-07
1.20477e-07
6.64573e-08
1.14495e-10
4.28957e-13
4.30421e-13
1.1489e-10
6.66892e-08
1.20899e-07
1.76281e-07
2.33383e-07
2.92684e-07
3.54572e-07
4.19338e-07
4.87163e-07
5.58116e-07
6.32142e-07
7.0907e-07
7.88611e-07
8.70368e-07
9.5386e-07
1.03854e-06
1.12382e-06
1.2091e-06
1.29376e-06
1.37718e-06
1.45872e-06
1.53773e-06
1.61359e-06
1.68565e-06
1.7533e-06
1.81595e-06
1.87308e-06
1.92418e-06
1.96881e-06
2.00661e-06
2.03723e-06
2.06043e-06
2.07602e-06
2.08385e-06
2.08387e-06
2.07607e-06
2.06053e-06
2.03736e-06
2.00677e-06
1.96902e-06
1.92441e-06
1.87334e-06
1.81625e-06
1.75361e-06
1.68599e-06
1.61395e-06
1.53811e-06
1.4591e-06
1.37757e-06
1.29416e-06
1.2095e-06
1.12422e-06
1.03893e-06
9.54244e-07
8.7074e-07
7.88967e-07
7.09408e-07
6.32458e-07
5.58406e-07
4.87427e-07
4.19572e-07
3.54775e-07
2.92856e-07
2.33523e-07
1.76388e-07
1.20974e-07
6.67316e-08
1.14968e-10
4.30725e-13
4.31479e-13
1.15173e-10
6.68535e-08
1.21197e-07
1.76715e-07
2.33959e-07
2.93406e-07
3.55449e-07
4.20377e-07
4.88373e-07
5.59505e-07
6.33718e-07
7.10841e-07
7.90582e-07
8.72545e-07
9.56245e-07
1.04114e-06
1.12663e-06
1.21212e-06
1.29699e-06
1.3806e-06
1.46233e-06
1.54154e-06
1.61757e-06
1.6898e-06
1.75761e-06
1.82041e-06
1.87767e-06
1.92888e-06
1.97362e-06
2.0115e-06
2.04219e-06
2.06545e-06
2.08107e-06
2.08892e-06
2.08894e-06
2.08112e-06
2.06554e-06
2.04233e-06
2.01167e-06
1.97382e-06
1.92912e-06
1.87793e-06
1.8207e-06
1.75792e-06
1.69014e-06
1.61793e-06
1.54191e-06
1.46272e-06
1.38099e-06
1.29738e-06
1.21252e-06
1.12703e-06
1.04153e-06
9.56629e-07
8.72916e-07
7.90938e-07
7.11178e-07
6.34033e-07
5.59795e-07
4.88636e-07
4.20611e-07
3.55652e-07
2.93578e-07
2.34098e-07
1.76822e-07
1.21272e-07
6.68959e-08
1.15251e-10
4.31782e-13
4.32093e-13
1.15337e-10
6.69489e-08
1.21369e-07
1.76967e-07
2.34293e-07
2.93826e-07
3.55958e-07
4.20981e-07
4.89078e-07
5.60314e-07
6.34637e-07
7.11873e-07
7.91732e-07
8.73815e-07
9.57639e-07
1.04265e-06
1.12827e-06
1.21388e-06
1.29887e-06
1.38261e-06
1.46445e-06
1.54377e-06
1.61991e-06
1.69224e-06
1.76014e-06
1.82303e-06
1.88036e-06
1.93165e-06
1.97644e-06
2.01437e-06
2.04511e-06
2.0684e-06
2.08404e-06
2.0919e-06
2.09192e-06
2.08409e-06
2.06849e-06
2.04524e-06
2.01454e-06
1.97665e-06
1.93188e-06
1.88062e-06
1.82332e-06
1.76045e-06
1.69257e-06
1.62027e-06
1.54414e-06
1.46484e-06
1.383e-06
1.29927e-06
1.21428e-06
1.12867e-06
1.04305e-06
9.58022e-07
8.74187e-07
7.92088e-07
7.1221e-07
6.34952e-07
5.60604e-07
4.8934e-07
4.21215e-07
3.56162e-07
2.93998e-07
2.34432e-07
1.77074e-07
1.21444e-07
6.69911e-08
1.15415e-10
4.32396e-13
4.32438e-13
1.15429e-10
6.70025e-08
1.21467e-07
1.77109e-07
2.34481e-07
2.94063e-07
3.56246e-07
4.21322e-07
4.89475e-07
5.60771e-07
6.35156e-07
7.12458e-07
7.92383e-07
8.74536e-07
9.58429e-07
1.04351e-06
1.1292e-06
1.21489e-06
1.29994e-06
1.38375e-06
1.46566e-06
1.54504e-06
1.62124e-06
1.69362e-06
1.76158e-06
1.82452e-06
1.88189e-06
1.93322e-06
1.97805e-06
2.01601e-06
2.04677e-06
2.07008e-06
2.08573e-06
2.0936e-06
2.09361e-06
2.08578e-06
2.07017e-06
2.0469e-06
2.01618e-06
1.97825e-06
1.93345e-06
1.88216e-06
1.82481e-06
1.76189e-06
1.69396e-06
1.6216e-06
1.54541e-06
1.46604e-06
1.38414e-06
1.30034e-06
1.21528e-06
1.1296e-06
1.04391e-06
9.58812e-07
8.74907e-07
7.92739e-07
7.12794e-07
6.35471e-07
5.61061e-07
4.89738e-07
4.21556e-07
3.56449e-07
2.94234e-07
2.3462e-07
1.77216e-07
1.21541e-07
6.70447e-08
1.15507e-10
4.3274e-13
4.32626e-13
1.1548e-10
6.70318e-08
1.2152e-07
1.77186e-07
2.34584e-07
2.94192e-07
3.56403e-07
4.21509e-07
4.89693e-07
5.61022e-07
6.35441e-07
7.12779e-07
7.92741e-07
8.74932e-07
9.58864e-07
1.04399e-06
1.12972e-06
1.21544e-06
1.30053e-06
1.38438e-06
1.46633e-06
1.54574e-06
1.62197e-06
1.69439e-06
1.76237e-06
1.82534e-06
1.88274e-06
1.93409e-06
1.97894e-06
2.01692e-06
2.04769e-06
2.07101e-06
2.08667e-06
2.09454e-06
2.09456e-06
2.08672e-06
2.0711e-06
2.04782e-06
2.01709e-06
1.97915e-06
1.93433e-06
1.88301e-06
1.82563e-06
1.76269e-06
1.69473e-06
1.62233e-06
1.54611e-06
1.46671e-06
1.38477e-06
1.30093e-06
1.21584e-06
1.13011e-06
1.04438e-06
9.59247e-07
8.75303e-07
7.93097e-07
7.13115e-07
6.35756e-07
5.61311e-07
4.89956e-07
4.21743e-07
3.56606e-07
2.94364e-07
2.34723e-07
1.77293e-07
1.21594e-07
6.7074e-08
1.15558e-10
4.32929e-13
4.32726e-13
1.15507e-10
6.70473e-08
1.21548e-07
1.77227e-07
2.34638e-07
2.94261e-07
3.56487e-07
4.21609e-07
4.89809e-07
5.61155e-07
6.35594e-07
7.1295e-07
7.92933e-07
8.75144e-07
9.59097e-07
1.04424e-06
1.12999e-06
1.21573e-06
1.30085e-06
1.38471e-06
1.46668e-06
1.54612e-06
1.62237e-06
1.6948e-06
1.7628e-06
1.82578e-06
1.8832e-06
1.93456e-06
1.97942e-06
2.01741e-06
2.04819e-06
2.07151e-06
2.08717e-06
2.09504e-06
2.09506e-06
2.08723e-06
2.0716e-06
2.04832e-06
2.01757e-06
1.97963e-06
1.93479e-06
1.88346e-06
1.82607e-06
1.76312e-06
1.69514e-06
1.62273e-06
1.54649e-06
1.46707e-06
1.3851e-06
1.30125e-06
1.21613e-06
1.13039e-06
1.04463e-06
9.5948e-07
8.75515e-07
7.93288e-07
7.13286e-07
6.35908e-07
5.61445e-07
4.90072e-07
4.21842e-07
3.5669e-07
2.94432e-07
2.34778e-07
1.77334e-07
1.21623e-07
6.70896e-08
1.15584e-10
4.33029e-13
4.32778e-13
1.1552e-10
6.70554e-08
1.21563e-07
1.77249e-07
2.34667e-07
2.94297e-07
3.5653e-07
4.2166e-07
4.89869e-07
5.61225e-07
6.35672e-07
7.13039e-07
7.93032e-07
8.75254e-07
9.59218e-07
1.04437e-06
1.13014e-06
1.21589e-06
1.30102e-06
1.38489e-06
1.46687e-06
1.54631e-06
1.62258e-06
1.69502e-06
1.76303e-06
1.82602e-06
1.88344e-06
1.93481e-06
1.97968e-06
2.01766e-06
2.04845e-06
2.07177e-06
2.08743e-06
2.09531e-06
2.09533e-06
2.08749e-06
2.07187e-06
2.04858e-06
2.01783e-06
1.97988e-06
1.93504e-06
1.8837e-06
1.82631e-06
1.76334e-06
1.69536e-06
1.62293e-06
1.54669e-06
1.46725e-06
1.38528e-06
1.30141e-06
1.21629e-06
1.13053e-06
1.04477e-06
9.59601e-07
8.75625e-07
7.93388e-07
7.13375e-07
6.35987e-07
5.61514e-07
4.90132e-07
4.21894e-07
3.56733e-07
2.94468e-07
2.34806e-07
1.77356e-07
1.21637e-07
6.70976e-08
1.15598e-10
4.3308e-13
4.32804e-13
1.15527e-10
6.70594e-08
1.2157e-07
1.77259e-07
2.34681e-07
2.94314e-07
3.56552e-07
4.21686e-07
4.899e-07
5.6126e-07
6.35712e-07
7.13084e-07
7.93082e-07
8.7531e-07
9.59279e-07
1.04444e-06
1.13021e-06
1.21597e-06
1.3011e-06
1.38498e-06
1.46696e-06
1.54641e-06
1.62268e-06
1.69513e-06
1.76314e-06
1.82613e-06
1.88356e-06
1.93493e-06
1.9798e-06
2.01779e-06
2.04858e-06
2.0719e-06
2.08757e-06
2.09544e-06
2.09546e-06
2.08763e-06
2.072e-06
2.04871e-06
2.01796e-06
1.98e-06
1.93517e-06
1.88382e-06
1.82642e-06
1.76346e-06
1.69547e-06
1.62304e-06
1.54679e-06
1.46735e-06
1.38537e-06
1.3015e-06
1.21637e-06
1.13061e-06
1.04483e-06
9.59662e-07
8.75681e-07
7.93438e-07
7.1342e-07
6.36027e-07
5.61549e-07
4.90163e-07
4.2192e-07
3.56755e-07
2.94486e-07
2.3482e-07
1.77366e-07
1.21645e-07
6.71016e-08
1.15605e-10
4.33106e-13
4.32816e-13
1.15531e-10
6.70614e-08
1.21573e-07
1.77265e-07
2.34688e-07
2.94323e-07
3.56563e-07
4.21699e-07
4.89915e-07
5.61277e-07
6.35732e-07
7.13106e-07
7.93107e-07
8.75337e-07
9.59309e-07
1.04447e-06
1.13024e-06
1.21601e-06
1.30114e-06
1.38502e-06
1.46701e-06
1.54646e-06
1.62273e-06
1.69518e-06
1.7632e-06
1.82619e-06
1.88362e-06
1.93499e-06
1.97987e-06
2.01786e-06
2.04865e-06
2.07197e-06
2.08764e-06
2.09551e-06
2.09553e-06
2.08769e-06
2.07207e-06
2.04878e-06
2.01803e-06
1.98007e-06
1.93523e-06
1.88389e-06
1.82648e-06
1.76351e-06
1.69552e-06
1.62309e-06
1.54684e-06
1.4674e-06
1.38542e-06
1.30154e-06
1.21641e-06
1.13064e-06
1.04487e-06
9.59693e-07
8.75708e-07
7.93463e-07
7.13443e-07
6.36047e-07
5.61567e-07
4.90177e-07
4.21933e-07
3.56766e-07
2.94495e-07
2.34827e-07
1.77372e-07
1.21648e-07
6.71036e-08
1.15609e-10
4.33119e-13
4.32822e-13
1.15532e-10
6.70623e-08
1.21575e-07
1.77267e-07
2.34691e-07
2.94327e-07
3.56568e-07
4.21705e-07
4.89922e-07
5.61285e-07
6.35741e-07
7.13117e-07
7.93119e-07
8.7535e-07
9.59324e-07
1.04449e-06
1.13026e-06
1.21603e-06
1.30116e-06
1.38504e-06
1.46703e-06
1.54649e-06
1.62276e-06
1.69521e-06
1.76323e-06
1.82622e-06
1.88365e-06
1.93502e-06
1.9799e-06
2.01789e-06
2.04868e-06
2.072e-06
2.08767e-06
2.09554e-06
2.09556e-06
2.08773e-06
2.0721e-06
2.04881e-06
2.01806e-06
1.9801e-06
1.93526e-06
1.88391e-06
1.82651e-06
1.76354e-06
1.69555e-06
1.62311e-06
1.54686e-06
1.46742e-06
1.38544e-06
1.30156e-06
1.21642e-06
1.13066e-06
1.04488e-06
9.59707e-07
8.75721e-07
7.93475e-07
7.13453e-07
6.36056e-07
5.61575e-07
4.90185e-07
4.21939e-07
3.56771e-07
2.94499e-07
2.3483e-07
1.77374e-07
1.2165e-07
6.71046e-08
1.1561e-10
4.33125e-13
4.32825e-13
1.15533e-10
6.70627e-08
1.21576e-07
1.77268e-07
2.34693e-07
2.94329e-07
3.5657e-07
4.21708e-07
4.89925e-07
5.61289e-07
6.35746e-07
7.13122e-07
7.93125e-07
8.75356e-07
9.59331e-07
1.0445e-06
1.13027e-06
1.21603e-06
1.30117e-06
1.38505e-06
1.46704e-06
1.5465e-06
1.62277e-06
1.69522e-06
1.76324e-06
1.82623e-06
1.88367e-06
1.93504e-06
1.97991e-06
2.0179e-06
2.04869e-06
2.07202e-06
2.08768e-06
2.09556e-06
2.09558e-06
2.08774e-06
2.07211e-06
2.04883e-06
2.01807e-06
1.98011e-06
1.93527e-06
1.88393e-06
1.82652e-06
1.76355e-06
1.69556e-06
1.62313e-06
1.54687e-06
1.46743e-06
1.38545e-06
1.30157e-06
1.21643e-06
1.13067e-06
1.04489e-06
9.59714e-07
8.75728e-07
7.9348e-07
7.13458e-07
6.3606e-07
5.61579e-07
4.90188e-07
4.21942e-07
3.56773e-07
2.94501e-07
2.34832e-07
1.77375e-07
1.21651e-07
6.7105e-08
1.15611e-10
4.33128e-13
4.32826e-13
1.15533e-10
6.70629e-08
1.21576e-07
1.77269e-07
2.34693e-07
2.9433e-07
3.56571e-07
4.21709e-07
4.89927e-07
5.61291e-07
6.35748e-07
7.13124e-07
7.93127e-07
8.75359e-07
9.59334e-07
1.0445e-06
1.13027e-06
1.21604e-06
1.30118e-06
1.38506e-06
1.46705e-06
1.5465e-06
1.62278e-06
1.69523e-06
1.76324e-06
1.82624e-06
1.88367e-06
1.93504e-06
1.97992e-06
2.01791e-06
2.0487e-06
2.07203e-06
2.08769e-06
2.09557e-06
2.09559e-06
2.08775e-06
2.07212e-06
2.04883e-06
2.01808e-06
1.98012e-06
1.93528e-06
1.88393e-06
1.82653e-06
1.76356e-06
1.69557e-06
1.62313e-06
1.54688e-06
1.46743e-06
1.38545e-06
1.30157e-06
1.21644e-06
1.13067e-06
1.04489e-06
9.59717e-07
8.7573e-07
7.93483e-07
7.1346e-07
6.36062e-07
5.6158e-07
4.90189e-07
4.21943e-07
3.56774e-07
2.94502e-07
2.34833e-07
1.77376e-07
1.21651e-07
6.71052e-08
1.15611e-10
4.33129e-13
4.32827e-13
1.15534e-10
6.7063e-08
1.21576e-07
1.77269e-07
2.34694e-07
2.94331e-07
3.56572e-07
4.2171e-07
4.89927e-07
5.61291e-07
6.35749e-07
7.13125e-07
7.93128e-07
8.75361e-07
9.59335e-07
1.0445e-06
1.13027e-06
1.21604e-06
1.30118e-06
1.38506e-06
1.46705e-06
1.54651e-06
1.62278e-06
1.69523e-06
1.76325e-06
1.82624e-06
1.88367e-06
1.93505e-06
1.97992e-06
2.01791e-06
2.0487e-06
2.07203e-06
2.08769e-06
2.09557e-06
2.09559e-06
2.08775e-06
2.07212e-06
2.04884e-06
2.01808e-06
1.98012e-06
1.93528e-06
1.88394e-06
1.82653e-06
1.76356e-06
1.69557e-06
1.62313e-06
1.54688e-06
1.46744e-06
1.38545e-06
1.30158e-06
1.21644e-06
1.13067e-06
1.0449e-06
9.59719e-07
8.75732e-07
7.93484e-07
7.13462e-07
6.36063e-07
5.61581e-07
4.9019e-07
4.21943e-07
3.56775e-07
2.94502e-07
2.34833e-07
1.77376e-07
1.21651e-07
6.71053e-08
1.15611e-10
4.33129e-13
4.32827e-13
1.15534e-10
6.70631e-08
1.21577e-07
1.77269e-07
2.34694e-07
2.94331e-07
3.56572e-07
4.2171e-07
4.89928e-07
5.61292e-07
6.35749e-07
7.13125e-07
7.93129e-07
8.75361e-07
9.59336e-07
1.0445e-06
1.13028e-06
1.21604e-06
1.30118e-06
1.38506e-06
1.46705e-06
1.54651e-06
1.62278e-06
1.69523e-06
1.76325e-06
1.82624e-06
1.88368e-06
1.93505e-06
1.97992e-06
2.01792e-06
2.0487e-06
2.07203e-06
2.0877e-06
2.09557e-06
2.09559e-06
2.08775e-06
2.07212e-06
2.04884e-06
2.01808e-06
1.98012e-06
1.93528e-06
1.88394e-06
1.82653e-06
1.76356e-06
1.69557e-06
1.62314e-06
1.54688e-06
1.46744e-06
1.38545e-06
1.30158e-06
1.21644e-06
1.13067e-06
1.0449e-06
9.59719e-07
8.75732e-07
7.93484e-07
7.13462e-07
6.36064e-07
5.61582e-07
4.9019e-07
4.21944e-07
3.56775e-07
2.94502e-07
2.34833e-07
1.77376e-07
1.21651e-07
6.71053e-08
1.15612e-10
4.3313e-13
4.32827e-13
1.15534e-10
6.70631e-08
1.21577e-07
1.77269e-07
2.34694e-07
2.94331e-07
3.56572e-07
4.2171e-07
4.89928e-07
5.61292e-07
6.35749e-07
7.13126e-07
7.93129e-07
8.75361e-07
9.59336e-07
1.0445e-06
1.13028e-06
1.21604e-06
1.30118e-06
1.38506e-06
1.46705e-06
1.54651e-06
1.62278e-06
1.69523e-06
1.76325e-06
1.82624e-06
1.88368e-06
1.93505e-06
1.97992e-06
2.01792e-06
2.04871e-06
2.07203e-06
2.0877e-06
2.09557e-06
2.09559e-06
2.08775e-06
2.07213e-06
2.04884e-06
2.01808e-06
1.98013e-06
1.93528e-06
1.88394e-06
1.82653e-06
1.76356e-06
1.69557e-06
1.62314e-06
1.54688e-06
1.46744e-06
1.38545e-06
1.30158e-06
1.21644e-06
1.13067e-06
1.0449e-06
9.59719e-07
8.75732e-07
7.93485e-07
7.13462e-07
6.36064e-07
5.61582e-07
4.90191e-07
4.21944e-07
3.56775e-07
2.94502e-07
2.34833e-07
1.77376e-07
1.21651e-07
6.71053e-08
1.15612e-10
4.3313e-13
4.32827e-13
1.15534e-10
6.70631e-08
1.21577e-07
1.77269e-07
2.34694e-07
2.94331e-07
3.56572e-07
4.2171e-07
4.89928e-07
5.61292e-07
6.35749e-07
7.13126e-07
7.93129e-07
8.75361e-07
9.59336e-07
1.0445e-06
1.13028e-06
1.21604e-06
1.30118e-06
1.38506e-06
1.46705e-06
1.54651e-06
1.62278e-06
1.69523e-06
1.76325e-06
1.82624e-06
1.88368e-06
1.93505e-06
1.97992e-06
2.01792e-06
2.04871e-06
2.07203e-06
2.0877e-06
2.09557e-06
2.09559e-06
2.08775e-06
2.07213e-06
2.04884e-06
2.01808e-06
1.98013e-06
1.93528e-06
1.88394e-06
1.82654e-06
1.76356e-06
1.69557e-06
1.62314e-06
1.54688e-06
1.46744e-06
1.38545e-06
1.30158e-06
1.21644e-06
1.13067e-06
1.0449e-06
9.5972e-07
8.75733e-07
7.93485e-07
7.13462e-07
6.36064e-07
5.61582e-07
4.90191e-07
4.21944e-07
3.56775e-07
2.94502e-07
2.34833e-07
1.77376e-07
1.21651e-07
6.71053e-08
1.15612e-10
4.3313e-13
4.32827e-13
1.15534e-10
6.70631e-08
1.21577e-07
1.77269e-07
2.34694e-07
2.94331e-07
3.56572e-07
4.2171e-07
4.89928e-07
5.61292e-07
6.35749e-07
7.13126e-07
7.93129e-07
8.75361e-07
9.59336e-07
1.0445e-06
1.13028e-06
1.21604e-06
1.30118e-06
1.38506e-06
1.46705e-06
1.54651e-06
1.62278e-06
1.69523e-06
1.76325e-06
1.82624e-06
1.88368e-06
1.93505e-06
1.97992e-06
2.01792e-06
2.04871e-06
2.07203e-06
2.0877e-06
2.09557e-06
2.09559e-06
2.08775e-06
2.07213e-06
2.04884e-06
2.01808e-06
1.98013e-06
1.93528e-06
1.88394e-06
1.82654e-06
1.76356e-06
1.69557e-06
1.62314e-06
1.54688e-06
1.46744e-06
1.38545e-06
1.30158e-06
1.21644e-06
1.13067e-06
1.0449e-06
9.5972e-07
8.75733e-07
7.93485e-07
7.13462e-07
6.36064e-07
5.61582e-07
4.90191e-07
4.21944e-07
3.56775e-07
2.94502e-07
2.34833e-07
1.77376e-07
1.21651e-07
6.71053e-08
1.15612e-10
4.3313e-13
4.32827e-13
1.15534e-10
6.70631e-08
1.21577e-07
1.77269e-07
2.34694e-07
2.94331e-07
3.56572e-07
4.2171e-07
4.89928e-07
5.61292e-07
6.35749e-07
7.13126e-07
7.93129e-07
8.75361e-07