/*--------------------------------*- C++ -*----------------------------------*\
  =========                 |
  \\      /  F ield         | OpenFOAM: The Open Source CFD Toolbox
   \\    /   O peration     | Website:  https://openfoam.org
    \\  /    A nd           | Version:  13
     \\/     M anipulation  |
\*---------------------------------------------------------------------------*/
FoamFile
{
    format      ascii;
    class       volScalarField;
    location    "62.5";
    object      nut;
}
// * * * * * * * * * * * * * * * * * * * * * * * * * * * * * * * * * * * * * //

dimensions      [0 2 -1 0 0 0 0];

internalField   nonuniform List<scalar> 
315000
(
7.60749e-14
1.99131e-11
4.5406e-10
8.13746e-10
1.17741e-09
1.54518e-09
1.91745e-09
2.29452e-09
2.67647e-09
3.0631e-09
3.45388e-09
3.848e-09
4.24439e-09
4.64174e-09
5.03855e-09
5.43318e-09
5.82385e-09
6.20872e-09
6.58589e-09
6.95342e-09
7.30938e-09
7.65186e-09
7.97896e-09
8.28885e-09
8.57979e-09
8.85008e-09
9.09817e-09
9.32259e-09
9.52202e-09
9.69527e-09
9.84131e-09
9.95925e-09
1.00484e-08
1.01082e-08
1.01383e-08
1.01386e-08
1.01089e-08
1.00495e-08
9.96085e-09
9.84336e-09
9.69776e-09
9.52495e-09
9.32594e-09
9.10194e-09
8.85425e-09
8.58434e-09
8.29378e-09
7.98422e-09
7.65744e-09
7.31527e-09
6.95957e-09
6.59227e-09
6.21531e-09
5.8306e-09
5.44005e-09
5.04551e-09
4.64873e-09
4.25137e-09
3.85492e-09
3.46068e-09
3.06973e-09
2.68287e-09
2.30062e-09
1.92316e-09
1.55041e-09
1.18201e-09
8.17514e-10
4.56641e-10
2.0056e-11
7.66873e-14
1.90512e-12
5.07069e-10
1.14959e-07
2.06756e-07
2.98516e-07
3.90512e-07
4.82949e-07
5.75951e-07
6.69551e-07
7.63697e-07
8.58256e-07
9.53024e-07
1.04774e-06
1.14208e-06
1.2357e-06
1.32823e-06
1.41927e-06
1.50842e-06
1.59527e-06
1.67943e-06
1.76049e-06
1.83808e-06
1.91182e-06
1.98135e-06
2.04634e-06
2.10648e-06
2.16147e-06
2.21105e-06
2.25498e-06
2.29303e-06
2.32504e-06
2.35084e-06
2.37031e-06
2.38335e-06
2.38991e-06
2.38995e-06
2.38346e-06
2.37049e-06
2.3511e-06
2.32537e-06
2.29344e-06
2.25545e-06
2.2116e-06
2.16209e-06
2.10717e-06
2.04709e-06
1.98216e-06
1.91269e-06
1.83901e-06
1.76147e-06
1.68046e-06
1.59634e-06
1.50952e-06
1.42041e-06
1.32939e-06
1.23688e-06
1.14326e-06
1.04892e-06
9.54192e-07
8.59401e-07
7.64806e-07
6.7061e-07
5.76946e-07
4.83862e-07
3.91322e-07
2.99199e-07
2.07282e-07
1.15286e-07
5.08681e-10
1.91146e-12
7.72058e-12
2.058e-09
1.15e-06
2.00515e-06
2.82175e-06
3.60966e-06
4.37566e-06
5.12424e-06
5.85811e-06
6.57869e-06
7.28639e-06
7.98087e-06
8.66129e-06
9.32646e-06
9.97497e-06
1.06053e-05
1.12158e-05
1.18049e-05
1.23711e-05
1.29128e-05
1.34284e-05
1.39166e-05
1.4376e-05
1.48053e-05
1.52032e-05
1.55687e-05
1.59007e-05
1.61982e-05
1.64604e-05
1.66866e-05
1.68761e-05
1.70284e-05
1.7143e-05
1.72196e-05
1.7258e-05
1.72582e-05
1.722e-05
1.71437e-05
1.70294e-05
1.68774e-05
1.66882e-05
1.64624e-05
1.62004e-05
1.59032e-05
1.55715e-05
1.52063e-05
1.48087e-05
1.43797e-05
1.39206e-05
1.34326e-05
1.29172e-05
1.23758e-05
1.18098e-05
1.12209e-05
1.06105e-05
9.98036e-06
9.33195e-06
8.66685e-06
7.98644e-06
7.29192e-06
6.58413e-06
5.86338e-06
5.12925e-06
4.38033e-06
3.61387e-06
2.82535e-06
2.00798e-06
1.1518e-06
2.06162e-09
7.73462e-12
1.34415e-11
3.58403e-09
1.95276e-06
3.3339e-06
4.6193e-06
5.8361e-06
7.00163e-06
8.12697e-06
9.21898e-06
1.02817e-05
1.1317e-05
1.23257e-05
1.33074e-05
1.42614e-05
1.51864e-05
1.60812e-05
1.69441e-05
1.77736e-05
1.85682e-05
1.93262e-05
2.00462e-05
2.07264e-05
2.13654e-05
2.19617e-05
2.25137e-05
2.30202e-05
2.34797e-05
2.38912e-05
2.42536e-05
2.4566e-05
2.48276e-05
2.50376e-05
2.51957e-05
2.53013e-05
2.53542e-05
2.53544e-05
2.53017e-05
2.51963e-05
2.50385e-05
2.48287e-05
2.45674e-05
2.42553e-05
2.38931e-05
2.34818e-05
2.30225e-05
2.25163e-05
2.19646e-05
2.13686e-05
2.07298e-05
2.00498e-05
1.93301e-05
1.85722e-05
1.77778e-05
1.69485e-05
1.60858e-05
1.51912e-05
1.42663e-05
1.33124e-05
1.23307e-05
1.1322e-05
1.02866e-05
9.22375e-06
8.13154e-06
7.00591e-06
5.83999e-06
4.62267e-06
3.33659e-06
1.95453e-06
3.58779e-09
1.34561e-11
1.88224e-11
5.0205e-09
2.6765e-06
4.49608e-06
6.16142e-06
7.72045e-06
9.20197e-06
1.06237e-05
1.19967e-05
1.33273e-05
1.46192e-05
1.5874e-05
1.70921e-05
1.82733e-05
1.94167e-05
2.05214e-05
2.15861e-05
2.26094e-05
2.35898e-05
2.45254e-05
2.54143e-05
2.62545e-05
2.70438e-05
2.77801e-05
2.84618e-05
2.90869e-05
2.96539e-05
3.01614e-05
3.06082e-05
3.09932e-05
3.13155e-05
3.15742e-05
3.17688e-05
3.18988e-05
3.19639e-05
3.1964e-05
3.1899e-05
3.17692e-05
3.15748e-05
3.13162e-05
3.09942e-05
3.06094e-05
3.01628e-05
2.96554e-05
2.90886e-05
2.84637e-05
2.77823e-05
2.70461e-05
2.6257e-05
2.5417e-05
2.45283e-05
2.35928e-05
2.26126e-05
2.15895e-05
2.0525e-05
1.94204e-05
1.8277e-05
1.70959e-05
1.58778e-05
1.46231e-05
1.33312e-05
1.20005e-05
1.06274e-05
9.20537e-06
7.72356e-06
6.16414e-06
4.49828e-06
2.67799e-06
5.02385e-09
1.88355e-11
2.33801e-11
6.23829e-09
3.26899e-06
5.42683e-06
7.38042e-06
9.19693e-06
1.09152e-05
1.25586e-05
1.41413e-05
1.5672e-05
1.71555e-05
1.85944e-05
1.99897e-05
2.13418e-05
2.26501e-05
2.3914e-05
2.51325e-05
2.63041e-05
2.7427e-05
2.84988e-05
2.9517e-05
3.04792e-05
3.1383e-05
3.2226e-05
3.30061e-05
3.37215e-05
3.43703e-05
3.49511e-05
3.54623e-05
3.59027e-05
3.62714e-05
3.65674e-05
3.679e-05
3.69387e-05
3.70132e-05
3.70132e-05
3.69388e-05
3.67902e-05
3.65678e-05
3.62719e-05
3.59034e-05
3.5463e-05
3.49519e-05
3.43713e-05
3.37226e-05
3.30074e-05
3.22274e-05
3.13845e-05
3.0481e-05
2.95189e-05
2.85008e-05
2.74291e-05
2.63064e-05
2.51349e-05
2.39166e-05
2.26527e-05
2.13445e-05
1.99925e-05
1.85972e-05
1.71584e-05
1.56749e-05
1.41441e-05
1.25613e-05
1.09177e-05
9.19927e-06
7.38248e-06
5.42852e-06
3.27016e-06
6.24106e-09
2.33911e-11
2.68402e-11
7.16361e-09
3.70771e-06
6.10584e-06
8.26228e-06
1.02593e-05
1.21432e-05
1.39415e-05
1.5671e-05
1.73416e-05
1.89593e-05
2.05272e-05
2.2047e-05
2.35192e-05
2.49438e-05
2.63202e-05
2.76476e-05
2.89243e-05
3.0148e-05
3.13159e-05
3.24254e-05
3.34736e-05
3.44581e-05
3.53764e-05
3.62263e-05
3.70056e-05
3.77124e-05
3.83451e-05
3.8902e-05
3.93819e-05
3.97835e-05
4.0106e-05
4.03485e-05
4.05105e-05
4.05917e-05
4.05917e-05
4.05106e-05
4.03487e-05
4.01062e-05
3.97838e-05
3.93823e-05
3.89025e-05
3.83457e-05
3.77131e-05
3.70064e-05
3.62272e-05
3.53774e-05
3.44593e-05
3.34749e-05
3.24267e-05
3.13174e-05
3.01496e-05
2.8926e-05
2.76494e-05
2.63221e-05
2.49458e-05
2.35212e-05
2.20491e-05
2.05294e-05
1.89615e-05
1.73438e-05
1.56732e-05
1.39436e-05
1.21452e-05
1.02611e-05
8.26389e-06
6.10716e-06
3.70864e-06
7.16592e-09
2.68495e-11
2.92108e-11
7.79817e-09
4.00339e-06
6.55916e-06
8.84805e-06
1.09627e-05
1.29546e-05
1.4854e-05
1.66792e-05
1.84412e-05
2.01465e-05
2.17988e-05
2.34e-05
2.4951e-05
2.6452e-05
2.79025e-05
2.93016e-05
3.06473e-05
3.19372e-05
3.31682e-05
3.43375e-05
3.54423e-05
3.64799e-05
3.74477e-05
3.83434e-05
3.91647e-05
3.99097e-05
4.05765e-05
4.11636e-05
4.16694e-05
4.20928e-05
4.24327e-05
4.26883e-05
4.28591e-05
4.29446e-05
4.29447e-05
4.28592e-05
4.26885e-05
4.24329e-05
4.2093e-05
4.16697e-05
4.1164e-05
4.0577e-05
3.99103e-05
3.91654e-05
3.83441e-05
3.74486e-05
3.64808e-05
3.54434e-05
3.43387e-05
3.31695e-05
3.19386e-05
3.06488e-05
2.93032e-05
2.79042e-05
2.64537e-05
2.49528e-05
2.34019e-05
2.18007e-05
2.01484e-05
1.84431e-05
1.66811e-05
1.48558e-05
1.29563e-05
1.09643e-05
8.84946e-06
6.56031e-06
4.0042e-06
7.80025e-09
2.92193e-11
3.06902e-11
8.19454e-09
4.18612e-06
6.83778e-06
9.20709e-06
1.13932e-05
1.34507e-05
1.54115e-05
1.7295e-05
1.91126e-05
2.08714e-05
2.25752e-05
2.42262e-05
2.58254e-05
2.73731e-05
2.88691e-05
3.03121e-05
3.17001e-05
3.30305e-05
3.43001e-05
3.55061e-05
3.66455e-05
3.77155e-05
3.87136e-05
3.96374e-05
4.04844e-05
4.12528e-05
4.19405e-05
4.25459e-05
4.30676e-05
4.35042e-05
4.38548e-05
4.41185e-05
4.42947e-05
4.43828e-05
4.43829e-05
4.42948e-05
4.41187e-05
4.38551e-05
4.35045e-05
4.3068e-05
4.25464e-05
4.1941e-05
4.12534e-05
4.04852e-05
3.96382e-05
3.87146e-05
3.77166e-05
3.66466e-05
3.55073e-05
3.43014e-05
3.30319e-05
3.17017e-05
3.03137e-05
2.88707e-05
2.73749e-05
2.58272e-05
2.42281e-05
2.25771e-05
2.08733e-05
1.91145e-05
1.72968e-05
1.54133e-05
1.34524e-05
1.13947e-05
9.20845e-06
6.8389e-06
4.18691e-06
8.19659e-09
3.06985e-11
3.1538e-11
8.4219e-09
4.29033e-06
6.99621e-06
9.41098e-06
1.16375e-05
1.37322e-05
1.57279e-05
1.76445e-05
1.94938e-05
2.1283e-05
2.30162e-05
2.46956e-05
2.63224e-05
2.78969e-05
2.94188e-05
3.0887e-05
3.22993e-05
3.36528e-05
3.49445e-05
3.61714e-05
3.73306e-05
3.84193e-05
3.94347e-05
4.03744e-05
4.12362e-05
4.20178e-05
4.27174e-05
4.33334e-05
4.38641e-05
4.43083e-05
4.46649e-05
4.49332e-05
4.51124e-05
4.52021e-05
4.52022e-05
4.51125e-05
4.49334e-05
4.46652e-05
4.43087e-05
4.38645e-05
4.33339e-05
4.27181e-05
4.20186e-05
4.1237e-05
4.03754e-05
3.94358e-05
3.84204e-05
3.73319e-05
3.61728e-05
3.4946e-05
3.36544e-05
3.2301e-05
3.08888e-05
2.94206e-05
2.78988e-05
2.63244e-05
2.46976e-05
2.30182e-05
2.1285e-05
1.94958e-05
1.76464e-05
1.57298e-05
1.37339e-05
1.16391e-05
9.4124e-06
6.99737e-06
4.29115e-06
8.42401e-09
3.15465e-11
3.19868e-11
8.54241e-09
4.34541e-06
7.07986e-06
9.51861e-06
1.17665e-05
1.38809e-05
1.58951e-05
1.78292e-05
1.96954e-05
2.15008e-05
2.32497e-05
2.49443e-05
2.65859e-05
2.81747e-05
2.97105e-05
3.11922e-05
3.26175e-05
3.39834e-05
3.5287e-05
3.65251e-05
3.76949e-05
3.87935e-05
3.98182e-05
4.07665e-05
4.16361e-05
4.24248e-05
4.31308e-05
4.37523e-05
4.42879e-05
4.47361e-05
4.5096e-05
4.53667e-05
4.55475e-05
4.56381e-05
4.56381e-05
4.55477e-05
4.5367e-05
4.50964e-05
4.47366e-05
4.42884e-05
4.3753e-05
4.31316e-05
4.24257e-05
4.16371e-05
4.07676e-05
3.98194e-05
3.87948e-05
3.76963e-05
3.65267e-05
3.52886e-05
3.39852e-05
3.26193e-05
3.11941e-05
2.97125e-05
2.81767e-05
2.6588e-05
2.49465e-05
2.32519e-05
2.1503e-05
1.96975e-05
1.78313e-05
1.5897e-05
1.38827e-05
1.17682e-05
9.52011e-06
7.08109e-06
4.34628e-06
8.54462e-09
3.19958e-11
3.22077e-11
8.60176e-09
4.37253e-06
7.12102e-06
9.57159e-06
1.183e-05
1.39541e-05
1.59775e-05
1.79204e-05
1.9795e-05
2.16085e-05
2.33652e-05
2.50674e-05
2.67164e-05
2.83124e-05
2.98552e-05
3.13437e-05
3.27755e-05
3.41476e-05
3.54572e-05
3.6701e-05
3.78761e-05
3.89796e-05
4.0009e-05
4.09616e-05
4.18351e-05
4.26275e-05
4.33366e-05
4.3961e-05
4.44989e-05
4.49492e-05
4.53107e-05
4.55826e-05
4.57642e-05
4.58552e-05
4.58552e-05
4.57644e-05
4.55829e-05
4.53111e-05
4.49497e-05
4.44995e-05
4.39617e-05
4.33375e-05
4.26284e-05
4.18362e-05
4.09628e-05
4.00103e-05
3.89811e-05
3.78776e-05
3.67026e-05
3.54589e-05
3.41495e-05
3.27774e-05
3.13457e-05
2.98573e-05
2.83145e-05
2.67186e-05
2.50697e-05
2.33675e-05
2.16108e-05
1.97972e-05
1.79225e-05
1.59796e-05
1.39561e-05
1.18318e-05
9.57315e-06
7.12231e-06
4.37343e-06
8.60406e-09
3.22169e-11
3.23091e-11
8.62905e-09
4.38499e-06
7.13996e-06
9.59597e-06
1.18593e-05
1.39879e-05
1.60155e-05
1.79625e-05
1.9841e-05
2.16583e-05
2.34187e-05
2.51245e-05
2.67769e-05
2.83763e-05
2.99224e-05
3.14141e-05
3.28489e-05
3.42241e-05
3.55364e-05
3.67829e-05
3.79605e-05
3.90664e-05
4.0098e-05
4.10526e-05
4.1928e-05
4.2722e-05
4.34327e-05
4.40583e-05
4.45974e-05
4.50486e-05
4.54109e-05
4.56834e-05
4.58654e-05
4.59566e-05
4.59567e-05
4.58656e-05
4.56837e-05
4.54114e-05
4.50492e-05
4.45981e-05
4.40591e-05
4.34336e-05
4.27231e-05
4.19292e-05
4.10539e-05
4.00994e-05
3.90679e-05
3.79621e-05
3.67846e-05
3.55383e-05
3.4226e-05
3.2851e-05
3.14162e-05
2.99246e-05
2.83785e-05
2.67792e-05
2.51268e-05
2.34211e-05
2.16607e-05
1.98433e-05
1.79647e-05
1.60177e-05
1.39899e-05
1.18611e-05
9.59759e-06
7.14128e-06
4.38593e-06
8.63141e-09
3.23186e-11
3.23528e-11
8.64082e-09
4.39038e-06
7.14814e-06
9.60652e-06
1.1872e-05
1.40025e-05
1.6032e-05
1.79808e-05
1.9861e-05
2.168e-05
2.3442e-05
2.51493e-05
2.68033e-05
2.84042e-05
2.99518e-05
3.14448e-05
3.2881e-05
3.42575e-05
3.5571e-05
3.68187e-05
3.79974e-05
3.91044e-05
4.01369e-05
4.10924e-05
4.19687e-05
4.27634e-05
4.34748e-05
4.4101e-05
4.46405e-05
4.50922e-05
4.54548e-05
4.57275e-05
4.59097e-05
4.6001e-05
4.6001e-05
4.59099e-05
4.57278e-05
4.54552e-05
4.50927e-05
4.46412e-05
4.41018e-05
4.34757e-05
4.27645e-05
4.19699e-05
4.10938e-05
4.01384e-05
3.9106e-05
3.79991e-05
3.68205e-05
3.5573e-05
3.42595e-05
3.28832e-05
3.1447e-05
2.9954e-05
2.84065e-05
2.68056e-05
2.51517e-05
2.34444e-05
2.16824e-05
1.98633e-05
1.7983e-05
1.60342e-05
1.40046e-05
1.18738e-05
9.60816e-06
7.14949e-06
4.39133e-06
8.64322e-09
3.23625e-11
3.23706e-11
8.64561e-09
4.39257e-06
7.15147e-06
9.61082e-06
1.18771e-05
1.40085e-05
1.60388e-05
1.79882e-05
1.98692e-05
2.16888e-05
2.34515e-05
2.51595e-05
2.68141e-05
2.84156e-05
2.99638e-05
3.14574e-05
3.28942e-05
3.42712e-05
3.55852e-05
3.68333e-05
3.80125e-05
3.91199e-05
4.01528e-05
4.11087e-05
4.19852e-05
4.27802e-05
4.34918e-05
4.41183e-05
4.4658e-05
4.51098e-05
4.54726e-05
4.57454e-05
4.59276e-05
4.60189e-05
4.6019e-05
4.59278e-05
4.57457e-05
4.5473e-05
4.51104e-05
4.46587e-05
4.41191e-05
4.34928e-05
4.27813e-05
4.19864e-05
4.111e-05
4.01543e-05
3.91215e-05
3.80142e-05
3.68352e-05
3.55872e-05
3.42732e-05
3.28963e-05
3.14596e-05
2.99661e-05
2.84179e-05
2.68165e-05
2.51619e-05
2.34539e-05
2.16913e-05
1.98715e-05
1.79905e-05
1.6041e-05
1.40106e-05
1.1879e-05
9.61248e-06
7.15284e-06
4.39353e-06
8.64804e-09
3.23803e-11
3.23775e-11
8.64746e-09
4.39342e-06
7.15276e-06
9.61248e-06
1.18791e-05
1.40108e-05
1.60414e-05
1.79911e-05
1.98723e-05
2.16923e-05
2.34552e-05
2.51635e-05
2.68183e-05
2.842e-05
2.99684e-05
3.14623e-05
3.28993e-05
3.42764e-05
3.55907e-05
3.6839e-05
3.80183e-05
3.91258e-05
4.01589e-05
4.11149e-05
4.19915e-05
4.27867e-05
4.34983e-05
4.41249e-05
4.46647e-05
4.51165e-05
4.54793e-05
4.57522e-05
4.59345e-05
4.60257e-05
4.60258e-05
4.59346e-05
4.57525e-05
4.54798e-05
4.51171e-05
4.46654e-05
4.41257e-05
4.34993e-05
4.27878e-05
4.19928e-05
4.11163e-05
4.01604e-05
3.91275e-05
3.802e-05
3.68408e-05
3.55927e-05
3.42785e-05
3.29014e-05
3.14645e-05
2.99707e-05
2.84224e-05
2.68207e-05
2.51659e-05
2.34577e-05
2.16947e-05
1.98747e-05
1.79935e-05
1.60436e-05
1.40129e-05
1.1881e-05
9.61415e-06
7.15413e-06
4.39438e-06
8.64989e-09
3.23872e-11
3.238e-11
8.64813e-09
4.39373e-06
7.15324e-06
9.61309e-06
1.18799e-05
1.40117e-05
1.60423e-05
1.79922e-05
1.98735e-05
2.16935e-05
2.34566e-05
2.51649e-05
2.68198e-05
2.84216e-05
2.99702e-05
3.14641e-05
3.29012e-05
3.42784e-05
3.55927e-05
3.68411e-05
3.80205e-05
3.91281e-05
4.01611e-05
4.11172e-05
4.19939e-05
4.2789e-05
4.35008e-05
4.41273e-05
4.46671e-05
4.5119e-05
4.54818e-05
4.57547e-05
4.5937e-05
4.60282e-05
4.60283e-05
4.59372e-05
4.5755e-05
4.54823e-05
4.51196e-05
4.46679e-05
4.41281e-05
4.35017e-05
4.27902e-05
4.19951e-05
4.11186e-05
4.01626e-05
3.91297e-05
3.80222e-05
3.68429e-05
3.55947e-05
3.42805e-05
3.29033e-05
3.14664e-05
2.99725e-05
2.8424e-05
2.68222e-05
2.51674e-05
2.3459e-05
2.1696e-05
1.98759e-05
1.79945e-05
1.60446e-05
1.40138e-05
1.18818e-05
9.61477e-06
7.15461e-06
4.39469e-06
8.65058e-09
3.23897e-11
3.23808e-11
8.64837e-09
4.39384e-06
7.1534e-06
9.6133e-06
1.18801e-05
1.4012e-05
1.60427e-05
1.79926e-05
1.98739e-05
2.1694e-05
2.34571e-05
2.51655e-05
2.68204e-05
2.84222e-05
2.99708e-05
3.14648e-05
3.29018e-05
3.42791e-05
3.55934e-05
3.68418e-05
3.80212e-05
3.91288e-05
4.0162e-05
4.1118e-05
4.19947e-05
4.27899e-05
4.35016e-05
4.41282e-05
4.4668e-05
4.51199e-05
4.54827e-05
4.57556e-05
4.59379e-05
4.60292e-05
4.60292e-05
4.59381e-05
4.57559e-05
4.54832e-05
4.51205e-05
4.46687e-05
4.4129e-05
4.35026e-05
4.2791e-05
4.1996e-05
4.11194e-05
4.01634e-05
3.91305e-05
3.8023e-05
3.68437e-05
3.55954e-05
3.42812e-05
3.2904e-05
3.1467e-05
2.99731e-05
2.84246e-05
2.68228e-05
2.51679e-05
2.34595e-05
2.16964e-05
1.98763e-05
1.79949e-05
1.60449e-05
1.40141e-05
1.1882e-05
9.61498e-06
7.15478e-06
4.3948e-06
8.65081e-09
3.23906e-11
3.23811e-11
8.64845e-09
4.39387e-06
7.15346e-06
9.61337e-06
1.18802e-05
1.40121e-05
1.60428e-05
1.79927e-05
1.98741e-05
2.16941e-05
2.34572e-05
2.51656e-05
2.68205e-05
2.84224e-05
2.9971e-05
3.1465e-05
3.29021e-05
3.42793e-05
3.55937e-05
3.68421e-05
3.80215e-05
3.91291e-05
4.01622e-05
4.11183e-05
4.1995e-05
4.27902e-05
4.35019e-05
4.41285e-05
4.46683e-05
4.51202e-05
4.5483e-05
4.57559e-05
4.59382e-05
4.60295e-05
4.60295e-05
4.59384e-05
4.57562e-05
4.54835e-05
4.51208e-05
4.46691e-05
4.41293e-05
4.35029e-05
4.27913e-05
4.19963e-05
4.11197e-05
4.01637e-05
3.91307e-05
3.80232e-05
3.68439e-05
3.55957e-05
3.42814e-05
3.29042e-05
3.14672e-05
2.99733e-05
2.84248e-05
2.6823e-05
2.51681e-05
2.34597e-05
2.16966e-05
1.98765e-05
1.7995e-05
1.6045e-05
1.40142e-05
1.18821e-05
9.61505e-06
7.15483e-06
4.39484e-06
8.65089e-09
3.23909e-11
3.23812e-11
8.64847e-09
4.39388e-06
7.15347e-06
9.6134e-06
1.18802e-05
1.40121e-05
1.60428e-05
1.79927e-05
1.98741e-05
2.16942e-05
2.34573e-05
2.51657e-05
2.68206e-05
2.84225e-05
2.99711e-05
3.1465e-05
3.29021e-05
3.42794e-05
3.55938e-05
3.68422e-05
3.80216e-05
3.91292e-05
4.01623e-05
4.11184e-05
4.19951e-05
4.27903e-05
4.3502e-05
4.41286e-05
4.46684e-05
4.51203e-05
4.54831e-05
4.5756e-05
4.59383e-05
4.60296e-05
4.60297e-05
4.59385e-05
4.57563e-05
4.54836e-05
4.51209e-05
4.46692e-05
4.41294e-05
4.3503e-05
4.27914e-05
4.19964e-05
4.11198e-05
4.01638e-05
3.91308e-05
3.80233e-05
3.6844e-05
3.55958e-05
3.42815e-05
3.29043e-05
3.14673e-05
2.99734e-05
2.84249e-05
2.6823e-05
2.51681e-05
2.34597e-05
2.16966e-05
1.98765e-05
1.79951e-05
1.60451e-05
1.40142e-05
1.18822e-05
9.61508e-06
7.15485e-06
4.39485e-06
8.65092e-09
3.2391e-11
3.23812e-11
8.64848e-09
4.39389e-06
7.15348e-06
9.6134e-06
1.18802e-05
1.40121e-05
1.60428e-05
1.79927e-05
1.98741e-05
2.16942e-05
2.34573e-05
2.51657e-05
2.68206e-05
2.84225e-05
2.99711e-05
3.14651e-05
3.29022e-05
3.42794e-05
3.55938e-05
3.68422e-05
3.80216e-05
3.91292e-05
4.01624e-05
4.11184e-05
4.19951e-05
4.27903e-05
4.35021e-05
4.41286e-05
4.46685e-05
4.51204e-05
4.54832e-05
4.5756e-05
4.59383e-05
4.60296e-05
4.60297e-05
4.59385e-05
4.57564e-05
4.54836e-05
4.51209e-05
4.46692e-05
4.41295e-05
4.3503e-05
4.27914e-05
4.19964e-05
4.11198e-05
4.01639e-05
3.91309e-05
3.80234e-05
3.6844e-05
3.55958e-05
3.42815e-05
3.29043e-05
3.14673e-05
2.99734e-05
2.84249e-05
2.6823e-05
2.51681e-05
2.34597e-05
2.16967e-05
1.98765e-05
1.79951e-05
1.60451e-05
1.40142e-05
1.18822e-05
9.61508e-06
7.15485e-06
4.39485e-06
8.65092e-09
3.2391e-11
3.23813e-11
8.64848e-09
4.39389e-06
7.15348e-06
9.61341e-06
1.18802e-05
1.40121e-05
1.60428e-05
1.79928e-05
1.98741e-05
2.16942e-05
2.34573e-05
2.51657e-05
2.68206e-05
2.84225e-05
2.99711e-05
3.14651e-05
3.29022e-05
3.42795e-05
3.55938e-05
3.68422e-05
3.80216e-05
3.91292e-05
4.01624e-05
4.11184e-05
4.19952e-05
4.27903e-05
4.35021e-05
4.41286e-05
4.46685e-05
4.51204e-05
4.54832e-05
4.5756e-05
4.59383e-05
4.60296e-05
4.60297e-05
4.59385e-05
4.57564e-05
4.54836e-05
4.5121e-05
4.46692e-05
4.41295e-05
4.35031e-05
4.27915e-05
4.19964e-05
4.11198e-05
4.01639e-05
3.91309e-05
3.80234e-05
3.68441e-05
3.55958e-05
3.42815e-05
3.29043e-05
3.14673e-05
2.99734e-05
2.84249e-05
2.68231e-05
2.51682e-05
2.34598e-05
2.16967e-05
1.98765e-05
1.79951e-05
1.60451e-05
1.40142e-05
1.18822e-05
9.61509e-06
7.15485e-06
4.39486e-06
8.65093e-09
3.2391e-11
3.23813e-11
8.64848e-09
4.39389e-06
7.15348e-06
9.61341e-06
1.18802e-05
1.40121e-05
1.60428e-05
1.79928e-05
1.98741e-05
2.16942e-05
2.34573e-05
2.51657e-05
2.68206e-05
2.84225e-05
2.99711e-05
3.14651e-05
3.29022e-05
3.42795e-05
3.55938e-05
3.68422e-05
3.80216e-05
3.91293e-05
4.01624e-05
4.11184e-05
4.19952e-05
4.27903e-05
4.35021e-05
4.41286e-05
4.46685e-05
4.51204e-05
4.54832e-05
4.5756e-05
4.59383e-05
4.60296e-05
4.60297e-05
4.59385e-05
4.57564e-05
4.54836e-05
4.5121e-05
4.46692e-05
4.41295e-05
4.35031e-05
4.27915e-05
4.19964e-05
4.11198e-05
4.01639e-05
3.91309e-05
3.80234e-05
3.68441e-05
3.55958e-05
3.42815e-05
3.29043e-05
3.14673e-05
2.99734e-05
2.84249e-05
2.68231e-05
2.51682e-05
2.34598e-05
2.16967e-05
1.98765e-05
1.79951e-05
1.60451e-05
1.40142e-05
1.18822e-05
9.61509e-06
7.15486e-06
4.39486e-06
8.65093e-09
3.2391e-11
3.23813e-11
8.64848e-09
4.39389e-06
7.15348e-06
9.61341e-06
1.18802e-05
1.40121e-05
1.60428e-05
1.79928e-05
1.98741e-05
2.16942e-05
2.34573e-05
2.51657e-05
2.68206e-05
2.84225e-05
2.99711e-05
3.14651e-05
3.29022e-05
3.42795e-05
3.55938e-05
3.68422e-05
3.80216e-05
3.91293e-05
4.01624e-05
4.11184e-05
4.19952e-05
4.27903e-05
4.35021e-05
4.41286e-05
4.46685e-05
4.51204e-05
4.54832e-05
4.5756e-05
4.59383e-05
4.60296e-05
4.60297e-05
4.59385e-05
4.57564e-05
4.54836e-05
4.5121e-05
4.46692e-05
4.41295e-05
4.35031e-05
4.27915e-05
4.19964e-05
4.11198e-05
4.01639e-05
3.91309e-05
3.80234e-05
3.68441e-05
3.55958e-05
3.42815e-05
3.29043e-05
3.14673e-05
2.99734e-05
2.84249e-05
2.68231e-05
2.51682e-05
2.34598e-05
2.16967e-05
1.98765e-05
1.79951e-05
1.60451e-05
1.40142e-05
1.18822e-05
9.61509e-06
7.15486e-06
4.39486e-06
8.65093e-09
3.2391e-11
3.23813e-11
8.64848e-09
4.39389e-06
7.15348e-06
9.61341e-06
1.18802e-05
1.40121e-05
1.60428e-05
1.79928e-05
1.98741e-05
2.16942e-05
2.34573e-05
2.51657e-05
2.68206e-05
2.84225e-05
2.99711e-05
3.14651e-05
3.29022e-05
3.42795e-05
3.55938e-05
3.68422e-05
3.80216e-05
3.91293e-05
4.01624e-05
4.11184e-05
4.19952e-05
4.27903e-05
4.35021e-05
4.41286e-05
4.46685e-05
4.51204e-05
4.54832e-05
4.5756e-05
4.59383e-05
4.60296e-05
4.60297e-05
4.59385e-05
4.57564e-05
4.54836e-05
4.5121e-05
4.46692e-05
4.41295e-05
4.35031e-05
4.27915e-05
4.19964e-05
4.11198e-05
4.01639e-05
3.91309e-05
3.80234e-05
3.68441e-05
3.55958e-05
3.42815e-05
3.29043e-05
3.14673e-05
2.99734e-05
2.84249e-05
2.68231e-05
2.51682e-05
2.34598e-05
2.16967e-05
1.98765e-05
1.79951e-05
1.60451e-05
1.40142e-05
1.18822e-05
9.61509e-06
7.15486e-06
4.39486e-06
8.65093e-09
3.2391e-11
3.23813e-11
8.64848e-09
4.39389e-06
7.15348e-06
9.61341e-06
1.18802e-05
1.40121e-05
1.60428e-05
1.79928e-05
1.98741e-05
2.16942e-05
2.34573e-05
2.51657e-05
2.68206e-05
2.84225e-05
2.99711e-05
3.14651e-05
3.29022e-05
3.42795e-05
3.55938e-05
3.68422e-05
3.80216e-05
3.91293e-05
4.01624e-05
4.11184e-05
4.19952e-05
4.27903e-05
4.35021e-05
4.41286e-05
4.46685e-05
4.51204e-05
4.54832e-05
4.5756e-05
4.59383e-05
4.60296e-05
4.60297e-05
4.59385e-05
4.57564e-05
4.54836e-05
4.5121e-05
4.46692e-05
4.41295e-05
4.35031e-05
4.27915e-05
4.19964e-05
4.11198e-05
4.01639e-05
3.91309e-05
3.80234e-05
3.68441e-05
3.55958e-05
3.42815e-05
3.29043e-05
3.14673e-05
2.99734e-05
2.84249e-05
2.68231e-05
2.51682e-05
2.34598e-05
2.16967e-05
1.98765e-05
1.79951e-05
1.60451e-05
1.40142e-05
1.18822e-05
9.61509e-06
7.15486e-06
4.39486e-06
8.65093e-09
3.2391e-11
3.23813e-11
8.64848e-09
4.39389e-06
7.15348e-06
9.61341e-06
1.18802e-05
1.40121e-05
1.60428e-05
1.79928e-05
1.98741e-05
2.16942e-05
2.34573e-05
2.51657e-05
2.68206e-05
2.84225e-05
2.99711e-05
3.14651e-05
3.29022e-05
3.42795e-05
3.55938e-05
3.68422e-05
3.80216e-05
3.91293e-05
4.01624e-05
4.11184e-05
4.19952e-05
4.27903e-05
4.35021e-05
4.41286e-05
4.46685e-05
4.51204e-05
4.54832e-05
4.5756e-05
4.59383e-05
4.60296e-05
4.60297e-05
4.59385e-05
4.57564e-05
4.54836e-05
4.5121e-05
4.46692e-05
4.41295e-05
4.35031e-05
4.27915e-05
4.19964e-05
4.11198e-05
4.01639e-05
3.91309e-05
3.80234e-05
3.68441e-05
3.55958e-05
3.42815e-05
3.29043e-05
3.14673e-05
2.99734e-05
2.84249e-05
2.68231e-05
2.51682e-05
2.34598e-05
2.16967e-05
1.98765e-05
1.79951e-05
1.60451e-05
1.40142e-05
1.18822e-05
9.61509e-06
7.15486e-06
4.39486e-06
8.65093e-09
3.2391e-11
3.23813e-11
8.64848e-09
4.39389e-06
7.15348e-06
9.61341e-06
1.18802e-05
1.40121e-05
1.60428e-05
1.79928e-05
1.98741e-05
2.16942e-05
2.34573e-05
2.51657e-05
2.68206e-05
2.84225e-05
2.99711e-05
3.14651e-05
3.29022e-05
3.42795e-05
3.55938e-05
3.68422e-05
3.80216e-05
3.91293e-05
4.01624e-05
4.11184e-05
4.19952e-05
4.27903e-05
4.35021e-05
4.41286e-05
4.46685e-05
4.51204e-05
4.54832e-05
4.5756e-05
4.59383e-05
4.60296e-05
4.60297e-05
4.59385e-05
4.57564e-05
4.54836e-05
4.5121e-05
4.46692e-05
4.41295e-05
4.35031e-05
4.27915e-05
4.19964e-05
4.11198e-05
4.01639e-05
3.91309e-05
3.80234e-05
3.68441e-05
3.55958e-05
3.42815e-05
3.29043e-05
3.14673e-05
2.99734e-05
2.84249e-05
2.68231e-05
2.51682e-05
2.34598e-05
2.16967e-05
1.98765e-05
1.79951e-05
1.60451e-05
1.40142e-05
1.18822e-05
9.61509e-06
7.15486e-06
4.39486e-06
8.65093e-09
3.2391e-11
3.23813e-11
8.64848e-09
4.39389e-06
7.15348e-06
9.61341e-06
1.18802e-05
1.40121e-05
1.60428e-05
1.79928e-05
1.98741e-05
2.16942e-05
2.34573e-05
2.51657e-05
2.68206e-05
2.84225e-05
2.99711e-05
3.14651e-05
3.29022e-05
3.42795e-05
3.55938e-05
3.68422e-05
3.80216e-05
3.91293e-05
4.01624e-05
4.11184e-05
4.19952e-05
4.27903e-05
4.35021e-05
4.41286e-05
4.46685e-05
4.51204e-05
4.54832e-05
4.5756e-05
4.59383e-05
4.60296e-05
4.60297e-05
4.59385e-05
4.57564e-05
4.54836e-05
4.5121e-05
4.46692e-05
4.41295e-05
4.35031e-05
4.27915e-05
4.19964e-05
4.11198e-05
4.01639e-05
3.91309e-05
3.80234e-05
3.68441e-05
3.55958e-05
3.42815e-05
3.29043e-05
3.14673e-05
2.99734e-05
2.84249e-05
2.68231e-05
2.51682e-05
2.34598e-05
2.16967e-05
1.98765e-05
1.79951e-05
1.60451e-05
1.40142e-05
1.18822e-05
9.61509e-06
7.15486e-06
4.39486e-06
8.65093e-09
3.2391e-11
3.23813e-11
8.64848e-09
4.39389e-06
7.15348e-06
9.61341e-06
1.18802e-05
1.40121e-05
1.60428e-05
1.79928e-05
1.98741e-05
2.16942e-05
2.34573e-05
2.51657e-05
2.68206e-05
2.84225e-05
2.99711e-05
3.14651e-05
3.29022e-05
3.42795e-05
3.55938e-05
3.68422e-05
3.80216e-05
3.91293e-05
4.01624e-05
4.11184e-05
4.19952e-05
4.27903e-05
4.35021e-05
4.41286e-05
4.46685e-05
4.51204e-05
4.54832e-05
4.5756e-05
4.59383e-05
4.60296e-05
4.60297e-05
4.59385e-05
4.57564e-05
4.54836e-05
4.5121e-05
4.46692e-05
4.41295e-05
4.35031e-05
4.27915e-05
4.19964e-05
4.11198e-05
4.01639e-05
3.91309e-05
3.80234e-05
3.68441e-05
3.55958e-05
3.42815e-05
3.29043e-05
3.14673e-05
2.99734e-05
2.84249e-05
2.68231e-05
2.51682e-05
2.34598e-05
2.16967e-05
1.98765e-05
1.79951e-05
1.60451e-05
1.40142e-05
1.18822e-05
9.61509e-06
7.15486e-06
4.39486e-06
8.65093e-09
3.2391e-11
3.23813e-11
8.64848e-09
4.39389e-06
7.15348e-06
9.61341e-06
1.18802e-05
1.40121e-05
1.60428e-05
1.79928e-05
1.98741e-05
2.16942e-05
2.34573e-05
2.51657e-05
2.68206e-05
2.84225e-05
2.99711e-05
3.14651e-05
3.29022e-05
3.42795e-05
3.55938e-05
3.68422e-05
3.80216e-05
3.91293e-05
4.01624e-05
4.11184e-05
4.19952e-05
4.27903e-05
4.35021e-05
4.41286e-05
4.46685e-05
4.51204e-05
4.54832e-05
4.5756e-05
4.59383e-05
4.60296e-05
4.60297e-05
4.59385e-05
4.57564e-05
4.54836e-05
4.5121e-05
4.46692e-05
4.41295e-05
4.35031e-05
4.27915e-05
4.19964e-05
4.11198e-05
4.01639e-05
3.91309e-05
3.80234e-05
3.68441e-05
3.55958e-05
3.42815e-05
3.29043e-05
3.14673e-05
2.99734e-05
2.84249e-05
2.68231e-05
2.51682e-05
2.34598e-05
2.16967e-05
1.98765e-05
1.79951e-05
1.60451e-05
1.40142e-05
1.18822e-05
9.61509e-06
7.15486e-06
4.39486e-06
8.65093e-09
3.2391e-11
3.23813e-11
8.64848e-09
4.39389e-06
7.15348e-06
9.61341e-06
1.18802e-05
1.40121e-05
1.60428e-05
1.79928e-05
1.98741e-05
2.16942e-05
2.34573e-05
2.51657e-05
2.68206e-05
2.84225e-05
2.99711e-05
3.14651e-05
3.29022e-05
3.42795e-05
3.55938e-05
3.68422e-05
3.80216e-05
3.91293e-05
4.01624e-05
4.11184e-05
4.19952e-05
4.27903e-05
4.35021e-05
4.41286e-05
4.46685e-05
4.51204e-05
4.54832e-05
4.5756e-05
4.59383e-05
4.60296e-05
4.60297e-05
4.59385e-05
4.57564e-05
4.54836e-05
4.5121e-05
4.46692e-05
4.41295e-05
4.35031e-05
4.27915e-05
4.19964e-05
4.11198e-05
4.01639e-05
3.91309e-05
3.80234e-05
3.68441e-05
3.55958e-05
3.42815e-05
3.29043e-05
3.14673e-05
2.99734e-05
2.84249e-05
2.68231e-05
2.51682e-05
2.34598e-05
2.16967e-05
1.98765e-05
1.79951e-05
1.60451e-05
1.40142e-05
1.18822e-05
9.61509e-06
7.15486e-06
4.39486e-06
8.65093e-09
3.2391e-11
3.23813e-11
8.64848e-09
4.39389e-06
7.15348e-06
9.61341e-06
1.18802e-05
1.40121e-05
1.60428e-05
1.79928e-05
1.98741e-05
2.16942e-05
2.34573e-05
2.51657e-05
2.68206e-05
2.84225e-05
2.99711e-05
3.14651e-05
3.29022e-05
3.42795e-05
3.55938e-05
3.68422e-05
3.80216e-05
3.91293e-05
4.01624e-05
4.11184e-05
4.19952e-05
4.27903e-05
4.35021e-05
4.41286e-05
4.46685e-05
4.51204e-05
4.54832e-05
4.5756e-05
4.59383e-05
4.60296e-05
4.60297e-05
4.59385e-05
4.57564e-05
4.54836e-05
4.5121e-05
4.46692e-05
4.41295e-05
4.35031e-05
4.27915e-05
4.19964e-05
4.11198e-05
4.01639e-05
3.91309e-05
3.80234e-05
3.68441e-05
3.55958e-05
3.42815e-05
3.29043e-05
3.14673e-05
2.99734e-05
2.84249e-05
2.68231e-05
2.51682e-05
2.34598e-05
2.16967e-05
1.98765e-05
1.79951e-05
1.60451e-05
1.40142e-05
1.18822e-05
9.61509e-06
7.15486e-06
4.39486e-06
8.65093e-09
3.2391e-11
3.23813e-11
8.64848e-09
4.39389e-06
7.15348e-06
9.61341e-06
1.18802e-05
1.40121e-05
1.60428e-05
1.79928e-05
1.98741e-05
2.16942e-05
2.34573e-05
2.51657e-05
2.68206e-05
2.84225e-05
2.99711e-05
3.14651e-05
3.29022e-05
3.42795e-05
3.55938e-05
3.68422e-05
3.80216e-05
3.91293e-05
4.01624e-05
4.11184e-05
4.19952e-05
4.27903e-05
4.35021e-05
4.41286e-05
4.46685e-05
4.51204e-05
4.54832e-05
4.5756e-05
4.59383e-05
4.60296e-05
4.60297e-05
4.59385e-05
4.57564e-05
4.54836e-05
4.5121e-05
4.46692e-05
4.41295e-05
4.35031e-05
4.27915e-05
4.19964e-05
4.11198e-05
4.01639e-05
3.91309e-05
3.80234e-05
3.68441e-05
3.55958e-05
3.42815e-05
3.29043e-05
3.14673e-05
2.99734e-05
2.84249e-05
2.68231e-05
2.51682e-05
2.34598e-05
2.16967e-05
1.98765e-05
1.79951e-05
1.60451e-05
1.40142e-05
1.18822e-05
9.61509e-06
7.15486e-06
4.39486e-06
8.65093e-09
3.2391e-11
3.23813e-11
8.64848e-09
4.39389e-06
7.15348e-06
9.61341e-06
1.18802e-05
1.40121e-05
1.60428e-05
1.79928e-05
1.98741e-05
2.16942e-05
2.34573e-05
2.51657e-05
2.68206e-05
2.84225e-05
2.99711e-05
3.14651e-05
3.29022e-05
3.42795e-05
3.55938e-05
3.68422e-05
3.80216e-05
3.91293e-05
4.01624e-05
4.11184e-05
4.19952e-05
4.27903e-05
4.35021e-05
4.41286e-05
4.46685e-05
4.51204e-05
4.54832e-05
4.5756e-05
4.59383e-05
4.60296e-05
4.60297e-05
4.59385e-05
4.57564e-05
4.54836e-05
4.5121e-05
4.46692e-05
4.41295e-05
4.35031e-05
4.27915e-05
4.19964e-05
4.11198e-05
4.01639e-05
3.91309e-05
3.80234e-05
3.68441e-05
3.55958e-05
3.42815e-05
3.29043e-05
3.14673e-05
2.99734e-05
2.84249e-05
2.68231e-05
2.51682e-05
2.34598e-05
2.16967e-05
1.98765e-05
1.79951e-05
1.60451e-05
1.40142e-05
1.18822e-05
9.61509e-06
7.15486e-06
4.39486e-06
8.65093e-09
3.2391e-11
3.23813e-11
8.64848e-09
4.39389e-06
7.15348e-06
9.61341e-06
1.18802e-05
1.40121e-05
1.60428e-05
1.79928e-05
1.98741e-05
2.16942e-05