/*--------------------------------*- C++ -*----------------------------------*\
  =========                 |
  \\      /  F ield         | OpenFOAM: The Open Source CFD Toolbox
   \\    /   O peration     | Website:  https://openfoam.org
    \\  /    A nd           | Version:  13
     \\/     M anipulation  |
\*---------------------------------------------------------------------------*/
FoamFile
{
    format      ascii;
    class       volScalarField;
    location    "45";
    object      nut;
}
// * * * * * * * * * * * * * * * * * * * * * * * * * * * * * * * * * * * * * //

dimensions      [0 2 -1 0 0 0 0];

internalField   nonuniform List<scalar> 
315000
(
2.05588e-13
5.3776e-11
1.2251e-09
2.19149e-09
3.16296e-09
4.13832e-09
5.11716e-09
6.099e-09
7.08288e-09
8.06722e-09
9.04986e-09
1.00281e-08
1.09988e-08
1.19585e-08
1.29035e-08
1.38303e-08
1.47349e-08
1.56136e-08
1.64629e-08
1.72793e-08
1.80594e-08
1.88003e-08
1.94991e-08
2.01531e-08
2.07601e-08
2.13179e-08
2.18247e-08
2.22788e-08
2.2679e-08
2.30241e-08
2.3313e-08
2.35451e-08
2.37197e-08
2.38365e-08
2.3895e-08
2.38952e-08
2.38372e-08
2.37209e-08
2.35468e-08
2.33153e-08
2.30269e-08
2.26824e-08
2.22828e-08
2.18293e-08
2.13232e-08
2.07661e-08
2.01598e-08
1.95066e-08
1.88086e-08
1.80685e-08
1.72891e-08
1.64735e-08
1.56249e-08
1.47469e-08
1.38429e-08
1.29168e-08
1.19722e-08
1.10129e-08
1.00426e-08
9.06451e-09
8.08192e-09
7.09745e-09
6.11325e-09
5.13087e-09
4.15119e-09
3.1746e-09
2.20129e-09
1.23201e-09
5.41684e-11
2.07288e-13
5.14445e-12
1.36825e-09
3.07866e-07
5.48825e-07
7.85536e-07
1.01861e-06
1.24848e-06
1.47533e-06
1.69917e-06
1.91981e-06
2.13694e-06
2.35011e-06
2.55883e-06
2.76254e-06
2.96067e-06
3.15265e-06
3.33795e-06
3.51601e-06
3.68637e-06
3.84856e-06
4.00216e-06
4.14681e-06
4.28217e-06
4.40796e-06
4.52393e-06
4.62986e-06
4.72559e-06
4.81096e-06
4.88587e-06
4.95022e-06
5.00393e-06
5.04697e-06
5.07928e-06
5.10084e-06
5.11164e-06
5.11167e-06
5.10093e-06
5.07943e-06
5.04719e-06
5.00422e-06
4.95058e-06
4.88631e-06
4.81148e-06
4.7262e-06
4.63056e-06
4.52472e-06
4.40886e-06
4.28317e-06
4.14792e-06
4.00339e-06
3.8499e-06
3.68782e-06
3.51758e-06
3.33962e-06
3.15443e-06
2.96254e-06
2.76449e-06
2.56086e-06
2.35219e-06
2.13904e-06
1.92192e-06
1.70125e-06
1.47735e-06
1.25039e-06
1.02036e-06
7.87056e-07
5.50032e-07
3.08645e-07
1.37222e-09
5.16024e-12
2.08786e-11
5.5615e-09
2.93705e-06
4.8978e-06
6.67168e-06
8.3132e-06
9.85451e-06
1.13155e-05
1.27085e-05
1.40415e-05
1.53194e-05
1.65451e-05
1.77202e-05
1.88457e-05
1.99218e-05
2.09485e-05
2.19256e-05
2.28528e-05
2.37298e-05
2.45561e-05
2.53315e-05
2.60556e-05
2.6728e-05
2.73487e-05
2.79174e-05
2.84341e-05
2.88988e-05
2.93114e-05
2.96721e-05
2.9981e-05
3.02382e-05
3.04438e-05
3.05979e-05
3.07005e-05
3.07519e-05
3.0752e-05
3.07008e-05
3.05982e-05
3.04443e-05
3.02389e-05
2.99819e-05
2.96733e-05
2.93128e-05
2.89004e-05
2.8436e-05
2.79195e-05
2.73511e-05
2.67308e-05
2.60587e-05
2.5335e-05
2.456e-05
2.37341e-05
2.28575e-05
2.19306e-05
2.09539e-05
1.99276e-05
1.88519e-05
1.77267e-05
1.65519e-05
1.53264e-05
1.40487e-05
1.27157e-05
1.13226e-05
9.86148e-06
8.31979e-06
6.67764e-06
4.90279e-06
2.94055e-06
5.56941e-09
2.09094e-11
3.3798e-11
9.00668e-09
4.54296e-06
7.35626e-06
9.83584e-06
1.2092e-05
1.41849e-05
1.61501e-05
1.80096e-05
1.97772e-05
2.14621e-05
2.307e-05
2.46048e-05
2.60689e-05
2.74641e-05
2.87914e-05
3.00515e-05
3.12448e-05
3.23716e-05
3.3432e-05
3.44257e-05
3.53528e-05
3.6213e-05
3.70061e-05
3.77321e-05
3.8391e-05
3.8983e-05
3.95081e-05
3.99667e-05
4.03591e-05
4.06855e-05
4.09462e-05
4.11415e-05
4.12716e-05
4.13366e-05
4.13366e-05
4.12717e-05
4.11417e-05
4.09464e-05
4.06858e-05
4.03595e-05
3.99673e-05
3.95088e-05
3.89837e-05
3.83919e-05
3.77332e-05
3.70073e-05
3.62144e-05
3.53545e-05
3.44277e-05
3.34341e-05
3.23741e-05
3.12475e-05
3.00544e-05
2.87946e-05
2.74676e-05
2.60727e-05
2.46088e-05
2.30742e-05
2.14665e-05
1.97818e-05
1.80142e-05
1.61548e-05
1.41895e-05
1.20963e-05
9.83981e-06
7.35966e-06
4.54545e-06
9.01295e-09
3.38228e-11
4.39277e-11
1.17114e-08
5.72481e-06
9.11011e-06
1.20583e-05
1.47228e-05
1.71836e-05
1.94869e-05
2.16609e-05
2.37234e-05
2.5686e-05
2.75565e-05
2.934e-05
3.10402e-05
3.26597e-05
3.42003e-05
3.56632e-05
3.70489e-05
3.83573e-05
3.95881e-05
4.07407e-05
4.18148e-05
4.28101e-05
4.37265e-05
4.4564e-05
4.53229e-05
4.60033e-05
4.66058e-05
4.7131e-05
4.75794e-05
4.79519e-05
4.82489e-05
4.84712e-05
4.86192e-05
4.86931e-05
4.86931e-05
4.86192e-05
4.84713e-05
4.82491e-05
4.79521e-05
4.75797e-05
4.71312e-05
4.66061e-05
4.60037e-05
4.53233e-05
4.45645e-05
4.37271e-05
4.28108e-05
4.18156e-05
4.07416e-05
3.95891e-05
3.83585e-05
3.70503e-05
3.56647e-05
3.4202e-05
3.26616e-05
3.10423e-05
2.93423e-05
2.75589e-05
2.56885e-05
2.3726e-05
2.16635e-05
1.94896e-05
1.71863e-05
1.47254e-05
1.20607e-05
9.11216e-06
5.72637e-06
1.17158e-08
4.39453e-11
5.09888e-11
1.35993e-08
6.5162e-06
1.0264e-05
1.35085e-05
1.64315e-05
1.91259e-05
2.16447e-05
2.40199e-05
2.62717e-05
2.84134e-05
3.04537e-05
3.23987e-05
3.42527e-05
3.60189e-05
3.76994e-05
3.9295e-05
4.08056e-05
4.22306e-05
4.35693e-05
4.48211e-05
4.59854e-05
4.70618e-05
4.80501e-05
4.89503e-05
4.97629e-05
5.04883e-05
5.11276e-05
5.16822e-05
5.21536e-05
5.25437e-05
5.28557e-05
5.30897e-05
5.32457e-05
5.33237e-05
5.33239e-05
5.32461e-05
5.30904e-05
5.28566e-05
5.25446e-05
5.21545e-05
5.16831e-05
5.11284e-05
5.0489e-05
4.97635e-05
4.8951e-05
4.80507e-05
4.70624e-05
4.5986e-05
4.48218e-05
4.357e-05
4.22313e-05
4.08064e-05
3.92959e-05
3.77004e-05
3.602e-05
3.42539e-05
3.24e-05
3.04551e-05
2.84149e-05
2.62733e-05
2.40215e-05
2.16464e-05
1.91276e-05
1.6433e-05
1.35099e-05
1.02653e-05
6.51722e-06
1.36024e-08
5.10017e-11
5.53862e-11
1.47766e-08
6.99775e-06
1.09595e-05
1.43789e-05
1.74549e-05
2.02881e-05
2.29353e-05
2.54307e-05
2.77961e-05
3.00453e-05
3.21879e-05
3.42305e-05
3.61777e-05
3.80327e-05
3.97977e-05
4.14727e-05
4.30573e-05
4.45505e-05
4.59513e-05
4.72587e-05
4.84717e-05
4.95895e-05
5.06115e-05
5.15371e-05
5.23663e-05
5.30992e-05
5.37368e-05
5.42827e-05
5.47412e-05
5.51302e-05
4.7187e-05
4.72879e-05
4.73578e-05
4.73934e-05
4.73935e-05
4.73579e-05
4.72881e-05
4.71873e-05
5.51309e-05
5.4742e-05
5.42837e-05
5.37379e-05
5.31002e-05
5.23672e-05
5.15379e-05
5.06122e-05
4.95902e-05
4.84723e-05
4.72593e-05
4.59519e-05
4.45512e-05
4.3058e-05
4.14735e-05
3.97985e-05
3.80336e-05
3.61786e-05
3.42315e-05
3.21891e-05
3.00465e-05
2.77973e-05
2.5432e-05
2.29366e-05
2.02894e-05
1.74561e-05
1.438e-05
1.09605e-05
6.99856e-06
1.47793e-08
5.53974e-11
5.78543e-11
1.54383e-08
7.26488e-06
1.13435e-05
1.48586e-05
1.80188e-05
2.09285e-05
2.36468e-05
2.62091e-05
2.86377e-05
3.09473e-05
3.31475e-05
3.52451e-05
3.7245e-05
3.91506e-05
4.09635e-05
4.26837e-05
4.43103e-05
4.58421e-05
4.7278e-05
4.86164e-05
4.98561e-05
5.09957e-05
5.20341e-05
5.29705e-05
5.38046e-05
5.45344e-05
4.70827e-05
4.73472e-05
4.75788e-05
4.77752e-05
4.79338e-05
4.80536e-05
4.81338e-05
4.81741e-05
4.8174e-05
4.81337e-05
4.80534e-05
4.79337e-05
4.77752e-05
4.75788e-05
4.73474e-05
4.7083e-05
5.45349e-05
5.38053e-05
5.29711e-05
5.20346e-05
5.09962e-05
4.98566e-05
4.8617e-05
4.72786e-05
4.58428e-05
4.43111e-05
4.26845e-05
4.09644e-05
3.91516e-05
3.72461e-05
3.52462e-05
3.31487e-05
3.09485e-05
2.86391e-05
2.62104e-05
2.36482e-05
2.09299e-05
1.80201e-05
1.48598e-05
1.13445e-05
7.26571e-06
1.5441e-08
5.78657e-11
5.91115e-11
1.57759e-08
7.40037e-06
1.15379e-05
1.51015e-05
1.83044e-05
2.12533e-05
2.40081e-05
2.66048e-05
2.90664e-05
3.14074e-05
3.36378e-05
3.57645e-05
3.77924e-05
3.97249e-05
4.15634e-05
4.33075e-05
4.49564e-05
4.65085e-05
4.79625e-05
4.93167e-05
5.05696e-05
5.172e-05
5.27671e-05
5.37108e-05
5.45492e-05
4.71399e-05
4.74549e-05
4.77358e-05
4.79798e-05
4.81853e-05
4.83508e-05
4.84757e-05
4.85592e-05
4.86011e-05
4.86011e-05
4.85592e-05
4.84757e-05
4.83508e-05
4.81852e-05
4.79798e-05
4.77358e-05
4.74549e-05
4.714e-05
5.45496e-05
5.37112e-05
5.27676e-05
5.17206e-05
5.05702e-05
4.93174e-05
4.79633e-05
4.65094e-05
4.49573e-05
4.33086e-05
4.15645e-05
3.97261e-05
3.77937e-05
3.57659e-05
3.36392e-05
3.14089e-05
2.90679e-05
2.66064e-05
2.40096e-05
2.12548e-05
1.83059e-05
1.51029e-05
1.15391e-05
7.4013e-06
1.57789e-08
5.91239e-11
5.96944e-11
1.59327e-08
7.46317e-06
1.1628e-05
1.52142e-05
1.8437e-05
2.14042e-05
2.41762e-05
2.67893e-05
2.92664e-05
3.16225e-05
3.38674e-05
3.60082e-05
3.80498e-05
3.99956e-05
4.18468e-05
4.36032e-05
4.52637e-05
4.68268e-05
4.8291e-05
4.96547e-05
5.09164e-05
5.20745e-05
5.31282e-05
5.40799e-05
5.49395e-05
4.73158e-05
4.76414e-05
4.79286e-05
4.81773e-05
4.83864e-05
4.85549e-05
4.86819e-05
4.87668e-05
4.88093e-05
4.88093e-05
4.87668e-05
4.86819e-05
4.85549e-05
4.83865e-05
4.81774e-05
4.79287e-05
4.76415e-05
4.73159e-05
5.49398e-05
5.40803e-05
5.31288e-05
5.20752e-05
5.09172e-05
4.96556e-05
4.82919e-05
4.68278e-05
4.52648e-05
4.36045e-05
4.18482e-05
3.99971e-05
3.80514e-05
3.60099e-05
3.38691e-05
3.16243e-05
2.92682e-05
2.67911e-05
2.4178e-05
2.1406e-05
1.84387e-05
1.52157e-05
1.16294e-05
7.46422e-06
1.59359e-08
5.97079e-11
5.99413e-11
1.59992e-08
7.48982e-06
1.16663e-05
1.5262e-05
1.84933e-05
2.14683e-05
2.42477e-05
2.68678e-05
2.93516e-05
3.1714e-05
3.39651e-05
3.61118e-05
3.81591e-05
4.01103e-05
4.19667e-05
4.37279e-05
4.53927e-05
4.69598e-05
4.84275e-05
4.97944e-05
5.10585e-05
5.22179e-05
5.32697e-05
5.42096e-05
5.50924e-05
4.74041e-05
4.7726e-05
4.80141e-05
4.82647e-05
4.84755e-05
4.86453e-05
4.87732e-05
4.88588e-05
4.89016e-05
4.89016e-05
4.88588e-05
4.87732e-05
4.86453e-05
4.84756e-05
4.82648e-05
4.80143e-05
4.77262e-05
4.74043e-05
5.50927e-05
5.42101e-05
5.32704e-05
5.22188e-05
5.10594e-05
4.97954e-05
4.84286e-05
4.6961e-05
4.53941e-05
4.37294e-05
4.19683e-05
4.0112e-05
3.81609e-05
3.61137e-05
3.3967e-05
3.1716e-05
2.93536e-05
2.68698e-05
2.42497e-05
2.14703e-05
1.84952e-05
1.52637e-05
1.16677e-05
7.49094e-06
1.60026e-08
5.99555e-11
6.00369e-11
1.6025e-08
7.50018e-06
1.16811e-05
1.52807e-05
1.85154e-05
2.14935e-05
2.42757e-05
2.68987e-05
2.93852e-05
3.17504e-05
3.40041e-05
3.61534e-05
3.82032e-05
4.0157e-05
4.20159e-05
4.37795e-05
4.54467e-05
4.70162e-05
4.84863e-05
4.98555e-05
5.1122e-05
5.22838e-05
5.33379e-05
5.428e-05
5.51655e-05
4.74372e-05
4.77601e-05
4.80491e-05
4.83004e-05
4.85119e-05
4.86821e-05
4.88104e-05
4.88962e-05
4.89392e-05
4.89392e-05
4.88963e-05
4.88105e-05
4.86822e-05
4.8512e-05
4.83006e-05
4.80493e-05
4.77602e-05
4.74373e-05
5.5166e-05
5.42806e-05
5.33387e-05
5.22847e-05
5.1123e-05
4.98566e-05
4.84875e-05
4.70175e-05
4.54482e-05
4.37811e-05
4.20176e-05
4.01588e-05
3.82051e-05
3.61553e-05
3.40061e-05
3.17524e-05
2.93874e-05
2.69008e-05
2.42778e-05
2.14955e-05
1.85173e-05
1.52824e-05
1.16827e-05
7.50136e-06
1.60286e-08
6.00517e-11
6.00717e-11
1.60344e-08
7.50396e-06
1.16866e-05
1.52875e-05
1.85234e-05
2.15027e-05
2.42861e-05
2.69101e-05
2.93977e-05
3.17639e-05
3.40186e-05
3.6169e-05
3.82199e-05
4.01747e-05
4.20346e-05
4.37993e-05
4.54675e-05
4.7038e-05
4.85091e-05
4.98792e-05
5.11464e-05
5.23084e-05
5.33614e-05
5.42992e-05
4.70811e-05
4.74428e-05
4.77705e-05
4.80615e-05
4.83136e-05
4.85255e-05
4.8696e-05
4.88244e-05
4.89103e-05
4.89534e-05
4.89534e-05
4.89104e-05
4.88245e-05
4.86961e-05
4.85256e-05
4.83137e-05
4.80616e-05
4.77707e-05
4.7443e-05
4.70813e-05
5.42999e-05
5.33623e-05
5.23093e-05
5.11474e-05
4.98803e-05
4.85104e-05
4.70394e-05
4.54691e-05
4.38009e-05
4.20363e-05
4.01765e-05
3.82218e-05
3.6171e-05
3.40207e-05
3.1766e-05
2.93999e-05
2.69123e-05
2.42882e-05
2.15048e-05
1.85254e-05
1.52893e-05
1.16881e-05
7.50516e-06
1.6038e-08
6.00866e-11
6.00836e-11
1.60376e-08
7.50526e-06
1.16885e-05
1.52898e-05
1.85262e-05
2.15059e-05
2.42897e-05
2.69141e-05
2.94021e-05
3.17686e-05
3.40237e-05
3.61744e-05
3.82257e-05
4.01809e-05
4.20412e-05
4.38063e-05
4.54749e-05
4.70457e-05
4.85172e-05
4.98876e-05
5.11551e-05
5.23175e-05
5.33708e-05
5.43088e-05
4.70853e-05
4.74471e-05
4.7775e-05
4.80661e-05
4.83183e-05
4.85303e-05
4.87008e-05
4.88293e-05
4.89153e-05
4.89583e-05
4.89583e-05
4.89153e-05
4.88294e-05
4.87009e-05
4.85304e-05
4.83185e-05
4.80663e-05
4.77752e-05
4.74474e-05
4.70855e-05
5.43094e-05
5.33716e-05
5.23184e-05
5.11562e-05
4.98888e-05
4.85185e-05
4.70472e-05
4.54764e-05
4.38079e-05
4.2043e-05
4.01828e-05
3.82277e-05
3.61765e-05
3.40259e-05
3.17708e-05
2.94043e-05
2.69163e-05
2.42919e-05
2.1508e-05
1.85282e-05
1.52917e-05
1.169e-05
7.50647e-06
1.60413e-08
6.00987e-11
6.00875e-11
1.60386e-08
7.50568e-06
1.16891e-05
1.52906e-05
1.85271e-05
2.1507e-05
2.42908e-05
2.69154e-05
2.94035e-05
3.17702e-05
3.40254e-05
3.61762e-05
3.82276e-05
4.01829e-05
4.20434e-05
4.38086e-05
4.54773e-05
4.70483e-05
4.85198e-05
4.98904e-05
5.1158e-05
5.23204e-05
5.33739e-05
5.43119e-05
4.70867e-05
4.74486e-05
4.77765e-05
4.80676e-05
4.83199e-05
4.85318e-05
4.87024e-05
4.88309e-05
4.89169e-05
4.89599e-05
4.89599e-05
4.89169e-05
4.8831e-05
4.87025e-05
4.85319e-05
4.832e-05
4.80678e-05
4.77767e-05
4.74488e-05
4.70869e-05
5.43126e-05
5.33747e-05
5.23214e-05
5.11591e-05
4.98915e-05
4.85211e-05
4.70497e-05
4.54789e-05
4.38102e-05
4.20452e-05
4.01848e-05
3.82296e-05
3.61783e-05
3.40275e-05
3.17723e-05
2.94057e-05
2.69176e-05
2.4293e-05
2.15091e-05
1.85291e-05
1.52924e-05
1.16907e-05
7.5069e-06
1.60424e-08
6.01026e-11
6.00886e-11
1.6039e-08
7.50581e-06
1.16893e-05
1.52908e-05
1.85274e-05
2.15073e-05
2.42912e-05
2.69158e-05
2.94039e-05
3.17706e-05
3.40259e-05
3.61768e-05
3.82282e-05
4.01836e-05
4.20441e-05
4.38093e-05
4.54781e-05
4.70491e-05
4.85207e-05
4.98912e-05
5.11589e-05
5.23213e-05
5.33748e-05
5.43129e-05
4.70871e-05
4.7449e-05
4.7777e-05
4.80681e-05
4.83203e-05
4.85323e-05
4.87029e-05
4.88314e-05
4.89173e-05
4.89604e-05
4.89604e-05
4.89174e-05
4.88315e-05
4.8703e-05
4.85324e-05
4.83205e-05
4.80683e-05
4.77772e-05
4.74493e-05
4.70874e-05
5.43136e-05
5.33756e-05
5.23223e-05
5.116e-05
4.98924e-05
4.8522e-05
4.70505e-05
4.54796e-05
4.38109e-05
4.20458e-05
4.01855e-05
3.82302e-05
3.61789e-05
3.40281e-05
3.17728e-05
2.94061e-05
2.6918e-05
2.42934e-05
2.15094e-05
1.85294e-05
1.52927e-05
1.16908e-05
7.50703e-06
1.60427e-08
6.01038e-11
6.0089e-11
1.60391e-08
7.50585e-06
1.16893e-05
1.52909e-05
1.85275e-05
2.15074e-05
2.42913e-05
2.69159e-05
2.9404e-05
3.17708e-05
3.40261e-05
3.61769e-05
3.82284e-05
4.01837e-05
4.20442e-05
4.38095e-05
4.54783e-05
4.70493e-05
4.85209e-05
4.98915e-05
5.11591e-05
5.23216e-05
5.33751e-05
5.43132e-05
4.70872e-05
4.74492e-05
4.77771e-05
4.80682e-05
4.83205e-05
4.85324e-05
4.8703e-05
4.88315e-05
4.89175e-05
4.89605e-05
4.89605e-05
4.89175e-05
4.88316e-05
4.87031e-05
4.85325e-05
4.83206e-05
4.80684e-05
4.77773e-05
4.74494e-05
4.70875e-05
5.43138e-05
5.33759e-05
5.23225e-05
5.11602e-05
4.98926e-05
4.85222e-05
4.70507e-05
4.54798e-05
4.38111e-05
4.2046e-05
4.01856e-05
3.82304e-05
3.6179e-05
3.40282e-05
3.1773e-05
2.94063e-05
2.69181e-05
2.42935e-05
2.15095e-05
1.85295e-05
1.52927e-05
1.16909e-05
7.50707e-06
1.60428e-08
6.01041e-11
6.0089e-11
1.60391e-08
7.50586e-06
1.16893e-05
1.52909e-05
1.85275e-05
2.15074e-05
2.42913e-05
2.69159e-05
2.94041e-05
3.17708e-05
3.40261e-05
3.6177e-05
3.82284e-05
4.01838e-05
4.20443e-05
4.38095e-05
4.54783e-05
4.70493e-05
4.8521e-05
4.98915e-05
5.11592e-05
5.23217e-05
5.33751e-05
5.43133e-05
4.70873e-05
4.74492e-05
4.77771e-05
4.80682e-05
4.83205e-05
4.85325e-05
4.87031e-05
4.88316e-05
4.89175e-05
4.89606e-05
4.89606e-05
4.89176e-05
4.88316e-05
4.87032e-05
4.85326e-05
4.83207e-05
4.80684e-05
4.77773e-05
4.74494e-05
4.70875e-05
5.43139e-05
5.3376e-05
5.23226e-05
5.11603e-05
4.98927e-05
4.85223e-05
4.70508e-05
4.54799e-05
4.38112e-05
4.20461e-05
4.01857e-05
3.82304e-05
3.61791e-05
3.40283e-05
3.1773e-05
2.94063e-05
2.69181e-05
2.42935e-05
2.15095e-05
1.85295e-05
1.52928e-05
1.16909e-05
7.50708e-06
1.60428e-08
6.01042e-11
6.00891e-11
1.60391e-08
7.50586e-06
1.16893e-05
1.52909e-05
1.85275e-05
2.15074e-05
2.42913e-05
2.69159e-05
2.94041e-05
3.17708e-05
3.40261e-05
3.6177e-05
3.82285e-05
4.01838e-05
4.20443e-05
4.38095e-05
4.54783e-05
4.70494e-05
4.8521e-05
4.98915e-05
5.11592e-05
5.23217e-05
5.33752e-05
5.43133e-05
4.70873e-05
4.74492e-05
4.77771e-05
4.80683e-05
4.83205e-05
4.85325e-05
4.87031e-05
4.88316e-05
4.89175e-05
4.89606e-05
4.89606e-05
4.89176e-05
4.88317e-05
4.87032e-05
4.85326e-05
4.83207e-05
4.80684e-05
4.77773e-05
4.74495e-05
4.70875e-05
5.43139e-05
5.3376e-05
5.23226e-05
5.11603e-05
4.98927e-05
4.85223e-05
4.70508e-05
4.54799e-05
4.38112e-05
4.20461e-05
4.01857e-05
3.82304e-05
3.61791e-05
3.40283e-05
3.1773e-05
2.94063e-05
2.69181e-05
2.42935e-05
2.15095e-05
1.85295e-05
1.52928e-05
1.16909e-05
7.50708e-06
1.60428e-08
6.01042e-11
6.00891e-11
1.60391e-08
7.50586e-06
1.16893e-05
1.52909e-05
1.85275e-05
2.15074e-05
2.42913e-05
2.69159e-05
2.94041e-05
3.17708e-05
3.40261e-05
3.6177e-05
3.82285e-05
4.01838e-05
4.20443e-05
4.38095e-05
4.54784e-05
4.70494e-05
4.8521e-05
4.98915e-05
5.11592e-05
5.23217e-05
5.33752e-05
5.43133e-05
4.70873e-05
4.74492e-05
4.77771e-05
4.80683e-05
4.83205e-05
4.85325e-05
4.87031e-05
4.88316e-05
4.89175e-05
4.89606e-05
4.89606e-05
4.89176e-05
4.88317e-05
4.87032e-05
4.85326e-05
4.83207e-05
4.80684e-05
4.77773e-05
4.74495e-05
4.70875e-05
5.43139e-05
5.3376e-05
5.23226e-05
5.11603e-05
4.98927e-05
4.85223e-05
4.70508e-05
4.54799e-05
4.38112e-05
4.20461e-05
4.01857e-05
3.82304e-05
3.61791e-05
3.40283e-05
3.1773e-05
2.94063e-05
2.69181e-05
2.42935e-05
2.15095e-05
1.85295e-05
1.52928e-05
1.16909e-05
7.50708e-06
1.60428e-08
6.01042e-11
6.00891e-11
1.60391e-08
7.50586e-06
1.16893e-05
1.52909e-05
1.85275e-05
2.15074e-05
2.42913e-05
2.69159e-05
2.94041e-05
3.17708e-05
3.40261e-05
3.6177e-05
3.82285e-05
4.01838e-05
4.20443e-05
4.38095e-05
4.54784e-05
4.70494e-05
4.8521e-05
4.98915e-05
5.11592e-05
5.23217e-05
5.33752e-05
5.43133e-05
4.70873e-05
4.74492e-05
4.77771e-05
4.80683e-05
4.83205e-05
4.85325e-05
4.87031e-05
4.88316e-05
4.89175e-05
4.89606e-05
4.89606e-05
4.89176e-05
4.88317e-05
4.87032e-05
4.85326e-05
4.83207e-05
4.80684e-05
4.77773e-05
4.74495e-05
4.70875e-05
5.43139e-05
5.3376e-05
5.23226e-05
5.11603e-05
4.98927e-05
4.85223e-05
4.70508e-05
4.54799e-05
4.38112e-05
4.20461e-05
4.01857e-05
3.82305e-05
3.61791e-05
3.40283e-05
3.1773e-05
2.94063e-05
2.69181e-05
2.42935e-05
2.15095e-05
1.85295e-05
1.52928e-05
1.16909e-05
7.50708e-06
1.60428e-08
6.01042e-11
6.00891e-11
1.60391e-08
7.50586e-06
1.16893e-05
1.52909e-05
1.85275e-05
2.15074e-05
2.42913e-05
2.69159e-05
2.94041e-05
3.17708e-05
3.40261e-05
3.6177e-05
3.82285e-05
4.01838e-05
4.20443e-05
4.38095e-05
4.54784e-05
4.70494e-05
4.8521e-05
4.98915e-05
5.11592e-05
5.23217e-05
5.33752e-05
5.43133e-05
4.70873e-05
4.74492e-05
4.77771e-05
4.80683e-05
4.83205e-05
4.85325e-05
4.87031e-05
4.88316e-05
4.89175e-05
4.89606e-05
4.89606e-05
4.89176e-05
4.88317e-05
4.87032e-05
4.85326e-05
4.83207e-05
4.80684e-05
4.77773e-05
4.74495e-05
4.70875e-05
5.43139e-05
5.3376e-05
5.23226e-05
5.11603e-05
4.98927e-05
4.85223e-05
4.70508e-05
4.54799e-05
4.38112e-05
4.20461e-05
4.01857e-05
3.82305e-05
3.61791e-05
3.40283e-05
3.1773e-05
2.94063e-05
2.69181e-05
2.42935e-05
2.15095e-05
1.85295e-05
1.52928e-05
1.16909e-05
7.50708e-06
1.60428e-08
6.01042e-11
6.00891e-11
1.60391e-08
7.50586e-06
1.16893e-05
1.52909e-05
1.85275e-05
2.15074e-05
2.42913e-05
2.69159e-05
2.94041e-05
3.17708e-05
3.40261e-05
3.6177e-05
3.82285e-05
4.01838e-05
4.20443e-05
4.38095e-05
4.54784e-05
4.70494e-05
4.8521e-05
4.98915e-05
5.11592e-05
5.23217e-05
5.33752e-05
5.43133e-05
4.70873e-05
4.74492e-05
4.77771e-05
4.80683e-05
4.83205e-05
4.85325e-05
4.87031e-05
4.88316e-05
4.89175e-05
4.89606e-05
4.89606e-05
4.89176e-05
4.88317e-05
4.87032e-05
4.85326e-05
4.83207e-05
4.80684e-05
4.77773e-05
4.74495e-05
4.70875e-05
5.43139e-05
5.3376e-05
5.23226e-05
5.11603e-05
4.98927e-05
4.85223e-05
4.70508e-05
4.54799e-05
4.38112e-05
4.20461e-05
4.01857e-05
3.82305e-05
3.61791e-05
3.40283e-05
3.1773e-05
2.94063e-05
2.69181e-05
2.42935e-05
2.15095e-05
1.85295e-05
1.52928e-05
1.16909e-05
7.50708e-06
1.60428e-08
6.01042e-11
6.00891e-11
1.60391e-08
7.50586e-06
1.16893e-05
1.52909e-05
1.85275e-05
2.15074e-05
2.42913e-05
2.69159e-05
2.94041e-05
3.17708e-05
3.40261e-05
3.6177e-05
3.82285e-05
4.01838e-05
4.20443e-05
4.38095e-05
4.54784e-05
4.70494e-05
4.8521e-05
4.98915e-05
5.11592e-05
5.23217e-05
5.33752e-05
5.43133e-05
4.70873e-05
4.74492e-05
4.77771e-05
4.80683e-05
4.83205e-05
4.85325e-05
4.87031e-05
4.88316e-05
4.89175e-05
4.89606e-05
4.89606e-05
4.89176e-05
4.88317e-05
4.87032e-05
4.85326e-05
4.83207e-05
4.80684e-05
4.77773e-05
4.74495e-05
4.70875e-05
5.43139e-05
5.3376e-05
5.23226e-05
5.11603e-05
4.98927e-05
4.85223e-05
4.70508e-05
4.54799e-05
4.38112e-05
4.20461e-05
4.01857e-05
3.82305e-05
3.61791e-05
3.40283e-05
3.1773e-05
2.94063e-05
2.69181e-05
2.42935e-05
2.15095e-05
1.85295e-05
1.52928e-05
1.16909e-05
7.50708e-06
1.60428e-08
6.01042e-11
6.00891e-11
1.60391e-08
7.50586e-06
1.16893e-05
1.52909e-05
1.85275e-05
2.15074e-05
2.42913e-05
2.69159e-05
2.94041e-05
3.17708e-05
3.40261e-05
3.6177e-05
3.82285e-05
4.01838e-05
4.20443e-05
4.38095e-05
4.54784e-05
4.70494e-05
4.8521e-05
4.98915e-05
5.11592e-05
5.23217e-05
5.33752e-05
5.43133e-05
4.70873e-05
4.74492e-05
4.77771e-05
4.80683e-05
4.83205e-05
4.85325e-05
4.87031e-05
4.88316e-05
4.89175e-05
4.89606e-05
4.89606e-05
4.89176e-05
4.88317e-05
4.87032e-05
4.85326e-05
4.83207e-05
4.80684e-05
4.77773e-05
4.74495e-05
4.70875e-05
5.43139e-05
5.3376e-05
5.23226e-05
5.11603e-05
4.98927e-05
4.85223e-05
4.70508e-05
4.54799e-05
4.38112e-05
4.20461e-05
4.01857e-05
3.82305e-05
3.61791e-05
3.40283e-05
3.1773e-05
2.94063e-05
2.69181e-05
2.42935e-05
2.15095e-05
1.85295e-05
1.52928e-05
1.16909e-05
7.50708e-06
1.60428e-08
6.01042e-11
6.00891e-11
1.60391e-08
7.50586e-06
1.16893e-05
1.52909e-05
1.85275e-05
2.15074e-05
2.42913e-05
2.69159e-05
2.94041e-05
3.17708e-05
3.40261e-05
3.6177e-05
3.82285e-05
4.01838e-05
4.20443e-05
4.38095e-05
4.54784e-05
4.70494e-05
4.8521e-05
4.98915e-05
5.11592e-05
5.23217e-05
5.33752e-05
5.43133e-05
4.70873e-05
4.74492e-05
4.77771e-05
4.80683e-05
4.83205e-05
4.85325e-05
4.87031e-05
4.88316e-05
4.89175e-05
4.89606e-05
4.89606e-05
4.89176e-05
4.88317e-05
4.87032e-05
4.85326e-05
4.83207e-05
4.80684e-05
4.77773e-05
4.74495e-05
4.70875e-05
5.43139e-05
5.3376e-05
5.23226e-05
5.11603e-05
4.98927e-05
4.85223e-05
4.70508e-05
4.54799e-05
4.38112e-05
4.20461e-05
4.01857e-05
3.82305e-05
3.61791e-05
3.40283e-05
3.1773e-05
2.94063e-05
2.69181e-05
2.42935e-05
2.15095e-05
1.85295e-05
1.52928e-05
1.16909e-05
7.50708e-06
1.60428e-08
6.01042e-11
6.00891e-11
1.60391e-08
7.50586e-06
1.16893e-05
1.52909e-05
1.85275e-05
2.15074e-05
2.42913e-05
2.69159e-05
2.94041e-05
3.17708e-05
3.40261e-05
3.6177e-05
3.82285e-05
4.01838e-05
4.20443e-05
4.38095e-05
4.54784e-05
4.70494e-05
4.8521e-05
4.98915e-05
5.11592e-05
5.23217e-05
5.33752e-05
5.43133e-05
4.70873e-05
4.74492e-05
4.77771e-05
4.80683e-05
4.83205e-05
4.85325e-05
4.87031e-05
4.88316e-05
4.89175e-05
4.89606e-05
4.89606e-05
4.89176e-05
4.88317e-05
4.87032e-05
4.85326e-05
4.83207e-05
4.80684e-05
4.77773e-05
4.74495e-05
4.70875e-05
5.43139e-05
5.3376e-05
5.23226e-05
5.11603e-05
4.98927e-05
4.85223e-05
4.70508e-05
4.54799e-05
4.38112e-05
4.20461e-05
4.01857e-05
3.82305e-05
3.61791e-05
3.40283e-05
3.1773e-05
2.94063e-05
2.69181e-05
2.42935e-05
2.15095e-05
1.85295e-05
1.52928e-05
1.16909e-05
7.50708e-06
1.60428e-08
6.01042e-11
6.00891e-11
1.60391e-08
7.50586e-06
1.16893e-05
1.52909e-05
1.85275e-05
2.15074e-05
2.42913e-05
2.69159e-05
2.94041e-05
3.17708e-05
3.40261e-05
3.6177e-05
3.82285e-05
4.01838e-05
4.20443e-05
4.38095e-05
4.54784e-05
4.70494e-05
4.8521e-05
4.98915e-05
5.11592e-05
5.23217e-05
5.33752e-05
5.43133e-05
4.70873e-05
4.74492e-05
4.77771e-05
4.80683e-05
4.83205e-05
4.85325e-05
4.87031e-05
4.88316e-05
4.89175e-05
4.89606e-05
4.89606e-05
4.89176e-05
4.88317e-05
4.87032e-05
4.85326e-05
4.83207e-05
4.80684e-05
4.77773e-05
4.74495e-05
4.70875e-05
5.43139e-05
5.3376e-05
5.23226e-05
5.11603e-05
4.98927e-05
4.85223e-05
4.70508e-05
4.54799e-05
4.38112e-05
4.20461e-05
4.01857e-05
3.82305e-05
3.61791e-05
3.40283e-05
3.1773e-05
2.94063e-05
2.69181e-05
2.42935e-05
2.15095e-05
1.85295e-05
1.52928e-05
1.16909e-05
7.50708e-06
1.60428e-08
6.01042e-11
6.00891e-11
1.60391e-08
7.50586e-06
1.16893e-05
1.52909e-05
1.85275e-05
2.15074e-05
2.42913e-05
2.69159e-05
2.94041e-05
3.17708e-05
3.40261e-05
3.6177e-05
3.82285e-05
4.01838e-05
4.20443e-05
4.38095e-05
4.54784e-05
4.70494e-05
4.8521e-05
4.98915e-05
5.11592e-05
5.23217e-05
5.33752e-05
5.43133e-05
4.70873e-05
4.74492e-05
4.77771e-05
4.80683e-05
4.83205e-05
4.85325e-05
4.87031e-05
4.88316e-05
4.89175e-05
4.89606e-05
4.89606e-05
4.89176e-05
4.88317e-05
4.87032e-05
4.85326e-05
4.83207e-05
4.80684e-05
4.77773e-05
4.74495e-05
4.70875e-05
5.43139e-05
5.3376e-05
5.23226e-05
5.11603e-05
4.98927e-05
4.85223e-05
4.70508e-05
4.54799e-05
4.38112e-05
4.20461e-05
4.01857e-05
3.82305e-05
3.61791e-05
3.40283e-05
3.1773e-05
2.94063e-05
2.69181e-05
2.42935e-05
2.15095e-05
1.85295e-05
1.52928e-05
1.16909e-05
7.50708e-06
1.60428e-08
6.01042e-11
6.00891e-11
1.60391e-08
7.50586e-06
1.16893e-05
1.52909e-05
1.85275e-05
2.15074e-05
2.42913e-05
2.69159e-05
2.94041e-05
3.17708e-05
3.40261e-05
3.6177e-05
3.82285e-05
4.01838e-05
4.20443e-05
4.38095e-05
4.54784e-05
4.70494e-05
4.8521e-05
4.98915e-05
5.11592e-05
5.23217e-05
5.33752e-05
5.43133e-05
4.70873e-05
4.74492e-05
4.77771e-05
4.80683e-05
4.83205e-05
4.85325e-05
4.87031e-05
4.88316e-05
4.89175e-05
4.89606e-05
4.89606e-05
4.89176e-05
4.88317e-05
4.87032e-05
4.85326e-05
4.83207e-05
4.80684e-05
4.77773e-05
4.74495e-05
4.70875e-05
5.43139e-05
5.3376e-05
5.23226e-05
5.11603e-05
4.98927e-05
4.85223e-05
4.70508e-05
4.54799e-05
4.38112e-05
4.20461e-05
4.01857e-05
3.82305e-05
3.61791e-05
3.40283e-05
3.1773e-05
2.94063e-05
2.69181e-05
2.42935e-05
2.15095e-05
1.85295e-05
1.52928e-05
1.16909e-05
7.50708e-06
1.60428e-08
6.01042e-11
6.00891e-11
1.60391e-08
7.50586e-06
1.16893e-05
1.52909e-05
1.85275e-05
2.15074e-05
2.42913e-05
2.69159e-05
2.94041e-05
3.17708e-05
3.40261e-05
3.6177e-05
3.82285e-05
4.01838e-05
4.20443e-05
4.38095e-05
4.54784e-05
4.70494e-05
4.8521e-05
4.98915e-05
5.11592e-05
5.23217e-05
5.33752e-05
5.43133e-05
4.70873e-05
4.74492e-05
4.77771e-05
4.80683e-05
4.83205e-05
4.85325e-05
4.87031e-05
4.88316e-05
4.89175e-05
4.89606e-05
4.89606e-05
4.89176e-05
4.88317e-05
4.87032e-05
4.85326e-05
4.83207e-05
4.80684e-05
4.77773e-05
4.74495e-05
4.70875e-05
5.43139e-05
5.3376e-05
5.23226e-05
5.11603e-05
4.98927e-05
4.85223e-05
4.70508e-05
4.54799e-05
4.38112e-05
4.20461e-05
4.01857e-05
3.82305e-05
3.61791e-05
3.40283e-05
3.1773e-05
2.94063e-05
2.69181e-05
2.42935e-05
2.15095e-05
1.85295e-05
1.52928e-05
1.16909e-05
7.50708e-06
1.60428e-08
6.01042e-11
6.00891e-11
1.60391e-08
7.50586e-06
1.16893e-05
1.52909e-05
1.85275e-05
2.15074e-05
2.42913e-05
2.69159e-05
2.94041e-05
3.17708e-05
3.40261e-05
3.6177e-05
3.82285e-05
4.01838e-05
4.20443e-05
4.38095e-05
4.54784e-05
4.70494e-05
4.8521e-05
4.98915e-05
5.11592e-05
5.23217e-05
5.33752e-05
5.43133e-05
4.70873e-05
4.74492e-05
4.77771e-05
4.80683e-05
4.83205e-05
4.85325e-05
4.87031e-05
4.88316e-05
4.89175e-05
4.89606e-05
4.89606e-05
4.89176e-05
4.88317e-05
4.87032e-05
4.85326e-05
4.83207e-05
4.80684e-05
4.77773e-05
4.74495e-05
4.70875e-05
5.43139e-05
5.3376e-05
5.23226e-05
5.11603e-05
4.98927e-05
4.85223e-05
4.70508e-05
4.54799e-05
4.38112e-05
4.20461e-05
4.01857e-05
3.82305e-05
3.61791e-05
3.40283e-05
3.1773e-05
2.94063e-05
2.69181e-05
2.42935e-05
2.15095e-05
1.85295e-05
1.52928e-05
1.16909e-05
7.50708e-06
1.60428e-08
6.01042e-11
6.00891e-11
1.60391e-08
7.50586e-06
1.16893e-05
1.52909e-05
1.85275e-05
2.15074e-05
2.42913e-05
2.69159e-05
2.94041e-05
3.17708e-05
3.40261e-05
3.6177e-05
3.82285e-05
4.01838e-05
4.20443e-05
4.38095e-05
4.54784e-05
4.70494e-05
4.8521e-05
4.98915e-05
5.11592e-05
5.23217e-05
5.33752e-05
5.43133e-05
4.70873e-05
4.74492e-05
4.77771e-05
4.80683e-05
4.83205e-05
4.85325e-05
4.87031e-05
4.88316e-05
4.89175e-05
4.89606e-05
4.89606e-05
4.89176e-05
4.88317e-05
4.87032e-05
4.85326e-05
4.83207e-05
4.80684e-05
4.77773e-05
4.74495e-05
4.70875e-05
5.43139e-05
5.3376e-05
5.23226e-05
5.11603e-05
4.98927e-05
4.85223e-05
4.70508e-05
4.54799e-05
4.38112e-05
4.20461e-05
4.01857e-05
3.82305e-05
3.61791e-05
3.40283e-05
3.1773e-05
2.94063e-05
2.69181e-05
2.42935e-05
2.15095e-05
1.85295e-05
1.52928e-05
1.16909e-05
7.50708e-06
1.60428e-08
6.01042e-11
6.00891e-11
1.60391e-08
7.50586e-06
1.16893e-05
1.52909e-05
1.85275e-05
2.15074e-05
2.42913e-05
2.69159e-05
2.94041e-05
3.17708e-05
3.40261e-05
3.6177e-05
3.82285e-05
4.01838e-05
4.20443e-05
4.38095e-05
4.54784e-05
4.70494e-05
4.8521e-05
4.98915e-05
5.11592e-05
5.23217e-05
5.33752e-05
5.43133e-05
4.70873e-05
4.74492e-05
4.77771e-05
4.80683e-05
4.83205e-05
4.85325e-05
4.87031e-05
4.88316e-05
4.89175e-05
4.89606e-05
4.89606e-05
4.89176e-05
4.88317e-05
4.87032e-05
4.85326e-05
4.83207e-05
4.80684e-05
4.77773e-05
4.74495e-05
4.70875e-05
5.43139e-05
5.3376e-05
5.23226e-05
5.11603e-05
4.98927e-05
4.85223e-05
4.70508e-05
4.54799e-05
4.38112e-05
4.20461e-05
4.01857e-05
3.82305e-05
3.61791e-05
3.40283e-05
3.1773e-05
2.94063e-05
2.69181e-05
2.42935e-05
2.15095e-05
1.85295e-05
1.52928e-05
1.16909e-05
7.50708e-06
1.60428e-08
6.01042e-11
6.00891e-11
1.60391e-08
7.50586e-06
1.16893e-05
1.52909e-05
1.85275e-05
2.15074e-05
2.42913e-05
2.69159e-05
2.94041e-05
3.17708e-05
3.40261e-05
3.6177e-05
3.82285e-05
4.01838e-05
4.20443e-05
4.38095e-05
4.54784e-05
4.70494e-05
4.8521e-05
4.98915e-05
5.11592e-05
5.23217e-05
5.33752e-05
5.43133e-05
4.70873e-05
4.74492e-05
4.77771e-05
4.80683e-05
4.83205e-05
4.85325e-05
4.87031e-05
4.88316e-05
4.89175e-05
4.89606e-05
4.89606e-05
4.89176e-05
4.88317e-05
4.87032e-05
4.85326e-05
4.83207e-05
4.80684e-05
4.77773e-05
4.74495e-05
4.70875e-05
5.43139e-05
5.3376e-05
5.23226e-05
5.11603e-05
4.98927e-05
4.85223e-05
4.70508e-05
4.54799e-05
4.38112e-05
4.20461e-05
4.01857e-05
3.82305e-05
3.61791e-05
3.40283e-05
3.1773e-05
2.94063e-05
2.69181e-05
2.42935e-05
2.15095e-05
1.85295e-05
1.52928e-05
1.16909e-05
7.50708e-06
1.60428e-08
6.01042e-11
6.00891e-11
1.60391e-08
7.50586e-06
1.16893e-05
1.52909e-05
1.85275e-05
2.15074e-05
2.42913e-05
2.69159e-05
2.94041e-05