/*--------------------------------*- C++ -*----------------------------------*\
  =========                 |
  \\      /  F ield         | OpenFOAM: The Open Source CFD Toolbox
   \\    /   O peration     | Website:  https://openfoam.org
    \\  /    A nd           | Version:  13
     \\/     M anipulation  |
\*---------------------------------------------------------------------------*/
FoamFile
{
    format      ascii;
    class       volScalarField;
    location    "45";
    object      rhok;
}
// * * * * * * * * * * * * * * * * * * * * * * * * * * * * * * * * * * * * * //

dimensions      [];

internalField   nonuniform List<scalar> 
315000
(
0.444392
0.420531
0.413355
0.411934
0.410922
0.409797
0.40863
0.407451
0.406273
0.405102
0.403939
0.402787
0.401647
0.400522
0.399412
0.398319
0.397245
0.396189
0.395155
0.394141
0.39315
0.392182
0.391236
0.390315
0.389418
0.388545
0.387697
0.386873
0.386074
0.385301
0.384551
0.383827
0.383126
0.382451
0.381799
0.381171
0.380566
0.379984
0.379425
0.378889
0.378374
0.37788
0.377407
0.376955
0.376522
0.376108
0.375713
0.375335
0.374975
0.374631
0.374303
0.37399
0.373692
0.373407
0.373135
0.372875
0.372627
0.37239
0.372162
0.371943
0.371733
0.37153
0.371334
0.371144
0.370959
0.370779
0.370602
0.370428
0.370256
0.370085
0.444392
0.420516
0.413339
0.411923
0.410912
0.409787
0.40862
0.407442
0.406264
0.405092
0.403929
0.402776
0.401636
0.40051
0.3994
0.398306
0.397231
0.396175
0.39514
0.394126
0.393134
0.392165
0.391219
0.390297
0.3894
0.388526
0.387678
0.386854
0.386055
0.385281
0.384532
0.383807
0.383107
0.382431
0.381779
0.381151
0.380546
0.379965
0.379406
0.37887
0.378355
0.377862
0.37739
0.376937
0.376505
0.376092
0.375697
0.37532
0.37496
0.374617
0.37429
0.373977
0.37368
0.373395
0.373124
0.372865
0.372618
0.372381
0.372154
0.371936
0.371726
0.371524
0.371329
0.37114
0.370955
0.370776
0.3706
0.370426
0.370255
0.370085
0.444392
0.420516
0.413338
0.411922
0.410911
0.409786
0.408619
0.407441
0.406263
0.405091
0.403927
0.402775
0.401634
0.400508
0.399398
0.398304
0.397228
0.396172
0.395136
0.394122
0.393129
0.39216
0.391214
0.390291
0.389393
0.388519
0.38767
0.386846
0.386047
0.385272
0.384522
0.383797
0.383097
0.382421
0.381768
0.38114
0.380535
0.379954
0.379395
0.378859
0.378344
0.377851
0.377378
0.376926
0.376494
0.376081
0.375686
0.37531
0.37495
0.374607
0.37428
0.373968
0.373671
0.373387
0.373116
0.372858
0.372611
0.372374
0.372148
0.37193
0.371721
0.37152
0.371325
0.371136
0.370952
0.370773
0.370598
0.370425
0.370254
0.370084
0.444392
0.420517
0.413342
0.411926
0.410914
0.409788
0.408622
0.407443
0.406265
0.405093
0.40393
0.402777
0.401638
0.400512
0.399402
0.398308
0.397233
0.396176
0.395141
0.394126
0.393133
0.392163
0.391217
0.390294
0.389395
0.388521
0.387671
0.386847
0.386046
0.385271
0.384521
0.383795
0.383094
0.382417
0.381765
0.381136
0.380531
0.379949
0.37939
0.378853
0.378338
0.377845
0.377372
0.37692
0.376488
0.376075
0.37568
0.375303
0.374944
0.374601
0.374274
0.373963
0.373665
0.373382
0.373111
0.372853
0.372606
0.37237
0.372144
0.371926
0.371718
0.371516
0.371322
0.371134
0.37095
0.370772
0.370596
0.370424
0.370253
0.370084
0.444392
0.420553
0.413388
0.411959
0.410934
0.409803
0.408634
0.407453
0.406273
0.405099
0.403936
0.402783
0.401644
0.400518
0.399409
0.398316
0.397241
0.396185
0.39515
0.394135
0.393143
0.392173
0.391226
0.390302
0.389403
0.388528
0.387678
0.386853
0.386052
0.385276
0.384525
0.383799
0.383097
0.382419
0.381766
0.381137
0.380531
0.379949
0.379389
0.378852
0.378337
0.377843
0.37737
0.376918
0.376485
0.376072
0.375677
0.3753
0.374941
0.374598
0.374271
0.373959
0.373662
0.373378
0.373108
0.37285
0.372603
0.372367
0.372141
0.371924
0.371715
0.371514
0.37132
0.371132
0.370949
0.37077
0.370595
0.370423
0.370253
0.370084
0.444354
0.418419
0.414368
0.412639
0.411213
0.409919
0.408682
0.407475
0.406285
0.405108
0.403944
0.402792
0.401653
0.400529
0.39942
0.398328
0.397253
0.396198
0.395163
0.394148
0.393155
0.392185
0.391238
0.390314
0.389414
0.388539
0.387688
0.386862
0.38606
0.385284
0.384532
0.383805
0.383102
0.382424
0.38177
0.38114
0.380534
0.379951
0.379391
0.378853
0.378338
0.377843
0.37737
0.376917
0.376485
0.376071
0.375676
0.375299
0.374939
0.374596
0.374269
0.373958
0.37366
0.373377
0.373106
0.372848
0.372601
0.372365
0.372139
0.371923
0.371714
0.371513
0.371319
0.371131
0.370948
0.37077
0.370595
0.370423
0.370253
0.370084
0.444355
0.418434
0.414378
0.412651
0.411223
0.409926
0.408688
0.40748
0.40629
0.405113
0.403949
0.402798
0.40166
0.400537
0.399429
0.398337
0.397263
0.396209
0.395174
0.394159
0.393167
0.392196
0.391249
0.390325
0.389425
0.388549
0.387698
0.386871
0.386069
0.385292
0.384539
0.383812
0.383109
0.38243
0.381776
0.381145
0.380538
0.379955
0.379394
0.378856
0.37834
0.377845
0.377372
0.376919
0.376485
0.376071
0.375676
0.375299
0.374939
0.374596
0.374269
0.373957
0.37366
0.373376
0.373105
0.372847
0.372601
0.372365
0.372139
0.371922
0.371713
0.371513
0.371318
0.37113
0.370948
0.370769
0.370595
0.370423
0.370253
0.370084
0.444355
0.418436
0.41438
0.412654
0.411226
0.40993
0.408692
0.407485
0.406295
0.405119
0.403956
0.402805
0.401668
0.400545
0.399438
0.398347
0.397273
0.396219
0.395184
0.39417
0.393177
0.392207
0.391259
0.390335
0.389435
0.388558
0.387707
0.386879
0.386077
0.385299
0.384546
0.383818
0.383115
0.382435
0.381781
0.38115
0.380542
0.379958
0.379397
0.378859
0.378342
0.377847
0.377374
0.37692
0.376487
0.376073
0.375677
0.3753
0.37494
0.374596
0.374269
0.373957
0.37366
0.373376
0.373105
0.372847
0.3726
0.372364
0.372138
0.371921
0.371713
0.371512
0.371318
0.37113
0.370947
0.370769
0.370594
0.370422
0.370253
0.370084
0.444355
0.418438
0.414384
0.412658
0.411232
0.409936
0.408699
0.407492
0.406303
0.405128
0.403965
0.402815
0.401678
0.400555
0.399447
0.398356
0.397283
0.396228
0.395193
0.394179
0.393186
0.392216
0.391268
0.390343
0.389442
0.388566
0.387714
0.386886
0.386083
0.385305
0.384552
0.383823
0.383119
0.38244
0.381785
0.381153
0.380546
0.379961
0.3794
0.378861
0.378344
0.377849
0.377375
0.376922
0.376488
0.376074
0.375678
0.3753
0.37494
0.374597
0.374269
0.373957
0.37366
0.373376
0.373105
0.372847
0.3726
0.372364
0.372138
0.371921
0.371713
0.371512
0.371318
0.37113
0.370947
0.370769
0.370594
0.370422
0.370253
0.370084
0.444355
0.418443
0.41439
0.412665
0.411239
0.409944
0.408707
0.4075
0.406311
0.405136
0.403973
0.402822
0.401685
0.400562
0.399455
0.398364
0.39729
0.396235
0.3952
0.394186
0.393193
0.392222
0.391274
0.390349
0.389448
0.388571
0.387719
0.386891
0.386088
0.385309
0.384556
0.383827
0.383123
0.382443
0.381788
0.381156
0.380548
0.379964
0.379402
0.378863
0.378346
0.377851
0.377376
0.376923
0.376489
0.376074
0.375679
0.375301
0.374941
0.374597
0.37427
0.373958
0.37366
0.373376
0.373105
0.372847
0.3726
0.372364
0.372138
0.371921
0.371713
0.371512
0.371318
0.37113
0.370947
0.370769
0.370594
0.370422
0.370253
0.370084
0.444355
0.418447
0.414394
0.412669
0.411243
0.409948
0.408712
0.407505
0.406316
0.40514
0.403978
0.402827
0.40169
0.400567
0.39946
0.398368
0.397295
0.39624
0.395205
0.39419
0.393197
0.392226
0.391278
0.390353
0.389451
0.388574
0.387722
0.386894
0.386091
0.385312
0.384558
0.383829
0.383125
0.382445
0.381789
0.381158
0.38055
0.379965
0.379403
0.378864
0.378347
0.377852
0.377377
0.376924
0.37649
0.376075
0.375679
0.375301
0.374941
0.374598
0.37427
0.373958
0.37366
0.373376
0.373106
0.372847
0.3726
0.372364
0.372138
0.371921
0.371713
0.371512
0.371318
0.37113
0.370947
0.370769
0.370594
0.370422
0.370253
0.370084
0.444355
0.418449
0.414397
0.412672
0.411246
0.409951
0.408714
0.407507
0.406318
0.405143
0.40398
0.40283
0.401693
0.40057
0.399462
0.398371
0.397298
0.396243
0.395207
0.394193
0.393199
0.392228
0.39128
0.390355
0.389454
0.388577
0.387724
0.386896
0.386092
0.385314
0.38456
0.383831
0.383126
0.382446
0.381791
0.381159
0.380551
0.379966
0.379404
0.378865
0.378348
0.377852
0.377378
0.376924
0.37649
0.376075
0.37568
0.375302
0.374941
0.374598
0.37427
0.373958
0.37366
0.373376
0.373106
0.372847
0.3726
0.372364
0.372138
0.371921
0.371713
0.371512
0.371318
0.37113
0.370947
0.370769
0.370594
0.370422
0.370253
0.370084
0.444355
0.41845
0.414398
0.412673
0.411247
0.409952
0.408715
0.407508
0.406319
0.405144
0.403981
0.40283
0.401693
0.400571
0.399463
0.398372
0.397298
0.396243
0.395208
0.394194
0.3932
0.392229
0.391281
0.390356
0.389455
0.388578
0.387725
0.386897
0.386093
0.385315
0.384561
0.383832
0.383127
0.382447
0.381791
0.38116
0.380551
0.379967
0.379405
0.378866
0.378348
0.377853
0.377378
0.376924
0.37649
0.376076
0.37568
0.375302
0.374942
0.374598
0.37427
0.373958
0.37366
0.373376
0.373106
0.372847
0.3726
0.372364
0.372138
0.371921
0.371713
0.371512
0.371318
0.37113
0.370947
0.370769
0.370594
0.370422
0.370253
0.370084
0.444355
0.418452
0.414399
0.412682
0.411258
0.409959
0.408719
0.407509
0.406319
0.405142
0.403979
0.402828
0.401691
0.400568
0.399461
0.39837
0.397297
0.396242
0.395208
0.394193
0.3932
0.392229
0.391281
0.390356
0.389455
0.388578
0.387725
0.386897
0.386094
0.385315
0.384561
0.383832
0.383128
0.382448
0.381792
0.38116
0.380552
0.379967
0.379405
0.378866
0.378349
0.377853
0.377378
0.376924
0.37649
0.376076
0.37568
0.375302
0.374942
0.374598
0.37427
0.373958
0.37366
0.373376
0.373106
0.372847
0.3726
0.372364
0.372138
0.371921
0.371713
0.371512
0.371318
0.37113
0.370947
0.370769
0.370594
0.370422
0.370253
0.370084
0.444393
0.420579
0.413413
0.411989
0.41097
0.409837
0.408665
0.407483
0.406304
0.405132
0.403971
0.402821
0.401685
0.400563
0.399456
0.398366
0.397294
0.39624
0.395205
0.394191
0.393199
0.392228
0.39128
0.390356
0.389455
0.388578
0.387725
0.386897
0.386094
0.385315
0.384561
0.383832
0.383128
0.382448
0.381792
0.38116
0.380552
0.379967
0.379405
0.378866
0.378349
0.377853
0.377379
0.376925
0.376491
0.376076
0.37568
0.375302
0.374942
0.374598
0.37427
0.373958
0.37366
0.373376
0.373106
0.372847
0.3726
0.372364
0.372138
0.371921
0.371713
0.371512
0.371318
0.37113
0.370947
0.370769
0.370594
0.370422
0.370253
0.370084
0.444393
0.42057
0.413386
0.411965
0.41095
0.409821
0.408652
0.407472
0.406294
0.405124
0.403964
0.402815
0.40168
0.400558
0.399452
0.398363
0.397291
0.396237
0.395204
0.39419
0.393198
0.392227
0.39128
0.390355
0.389454
0.388578
0.387725
0.386897
0.386094
0.385315
0.384561
0.383832
0.383128
0.382448
0.381792
0.38116
0.380552
0.379967
0.379405
0.378866
0.378349
0.377853
0.377379
0.376925
0.376491
0.376076
0.37568
0.375302
0.374942
0.374598
0.37427
0.373958
0.37366
0.373377
0.373106
0.372847
0.3726
0.372364
0.372138
0.371921
0.371713
0.371512
0.371318
0.37113
0.370947
0.370769
0.370594
0.370422
0.370253
0.370084
0.444393
0.420567
0.413382
0.411961
0.410946
0.409817
0.408648
0.407469
0.406291
0.405121
0.403961
0.402813
0.401678
0.400557
0.399451
0.398362
0.39729
0.396237
0.395203
0.394189
0.393197
0.392227
0.39128
0.390355
0.389454
0.388578
0.387725
0.386897
0.386094
0.385315
0.384561
0.383832
0.383128
0.382448
0.381792
0.38116
0.380552
0.379967
0.379405
0.378866
0.378349
0.377853
0.377379
0.376925
0.376491
0.376076
0.37568
0.375302
0.374942
0.374598
0.37427
0.373958
0.37366
0.373377
0.373106
0.372847
0.3726
0.372364
0.372138
0.371921
0.371713
0.371512
0.371318
0.37113
0.370947
0.370769
0.370594
0.370422
0.370253
0.370084
0.444393
0.420567
0.413382
0.41196
0.410945
0.409817
0.408648
0.407468
0.40629
0.40512
0.40396
0.402812
0.401677
0.400556
0.399451
0.398361
0.39729
0.396236
0.395203
0.394189
0.393197
0.392227
0.391279
0.390355
0.389454
0.388578
0.387725
0.386897
0.386094
0.385315
0.384561
0.383832
0.383128
0.382448
0.381792
0.38116
0.380552
0.379967
0.379405
0.378866
0.378349
0.377853
0.377379
0.376925
0.376491
0.376076
0.37568
0.375302
0.374942
0.374598
0.37427
0.373958
0.37366
0.373377
0.373106
0.372847
0.3726
0.372364
0.372138
0.371921
0.371713
0.371512
0.371318
0.37113
0.370947
0.370769
0.370594
0.370422
0.370253
0.370084
0.444393
0.420567
0.413382
0.41196
0.410945
0.409816
0.408647
0.407468
0.40629
0.40512
0.40396
0.402812
0.401677
0.400556
0.399451
0.398361
0.39729
0.396236
0.395203
0.394189
0.393197
0.392227
0.391279
0.390355
0.389454
0.388578
0.387725
0.386897
0.386094
0.385315
0.384562
0.383832
0.383128
0.382448
0.381792
0.38116
0.380552
0.379967
0.379405
0.378866
0.378349
0.377853
0.377379
0.376925
0.376491
0.376076
0.37568
0.375302
0.374942
0.374598
0.37427
0.373958
0.37366
0.373377
0.373106
0.372847
0.3726
0.372364
0.372138
0.371921
0.371713
0.371512
0.371318
0.37113
0.370947
0.370769
0.370594
0.370422
0.370253
0.370084
0.444393
0.420567
0.413382
0.41196
0.410945
0.409816
0.408647
0.407468
0.40629
0.40512
0.40396
0.402812
0.401677
0.400556
0.399451
0.398361
0.39729
0.396236
0.395203
0.394189
0.393197
0.392227
0.391279
0.390355
0.389454
0.388578
0.387725
0.386897
0.386094
0.385315
0.384562
0.383832
0.383128
0.382448
0.381792
0.38116
0.380552
0.379967
0.379405
0.378866
0.378349
0.377853
0.377379
0.376925
0.376491
0.376076
0.37568
0.375302
0.374942
0.374598
0.37427
0.373958
0.37366
0.373377
0.373106
0.372847
0.3726
0.372364
0.372138
0.371921
0.371713
0.371512
0.371318
0.37113
0.370947
0.370769
0.370594
0.370422
0.370253
0.370084
0.444393
0.420567
0.413382
0.41196
0.410945
0.409816
0.408647
0.407468
0.40629
0.40512
0.40396
0.402812
0.401677
0.400556
0.399451
0.398361
0.39729
0.396236
0.395203
0.394189
0.393197
0.392227
0.391279
0.390355
0.389454
0.388578
0.387725
0.386897
0.386094
0.385315
0.384562
0.383832
0.383128
0.382448
0.381792
0.38116
0.380552
0.379967
0.379405
0.378866
0.378349
0.377853
0.377379
0.376925
0.376491
0.376076
0.37568
0.375302
0.374942
0.374598
0.37427
0.373958
0.37366
0.373377
0.373106
0.372847
0.3726
0.372364
0.372138
0.371921
0.371713
0.371512
0.371318
0.37113
0.370947
0.370769
0.370594
0.370422
0.370253
0.370084
0.444393
0.420567
0.413382
0.41196
0.410945
0.409816
0.408647
0.407468
0.40629
0.40512
0.40396
0.402812
0.401677
0.400556
0.399451
0.398361
0.39729
0.396236
0.395203
0.394189
0.393197
0.392227
0.391279
0.390355
0.389454
0.388578
0.387725
0.386897
0.386094
0.385315
0.384562
0.383832
0.383128
0.382448
0.381792
0.38116
0.380552
0.379967
0.379405
0.378866
0.378349
0.377853
0.377379
0.376925
0.376491
0.376076
0.37568
0.375302
0.374942
0.374598
0.37427
0.373958
0.37366
0.373377
0.373106
0.372847
0.3726
0.372364
0.372138
0.371921
0.371713
0.371512
0.371318
0.37113
0.370947
0.370769
0.370594
0.370422
0.370253
0.370084
0.444393
0.420567
0.413382
0.41196
0.410945
0.409816
0.408647
0.407468
0.40629
0.40512
0.40396
0.402812
0.401677
0.400556
0.399451
0.398361
0.39729
0.396236
0.395203
0.394189
0.393197
0.392227
0.391279
0.390355
0.389454
0.388578
0.387725
0.386897
0.386094
0.385315
0.384562
0.383832
0.383128
0.382448
0.381792
0.38116
0.380552
0.379967
0.379405
0.378866
0.378349
0.377853
0.377379
0.376925
0.376491
0.376076
0.37568
0.375302
0.374942
0.374598
0.37427
0.373958
0.37366
0.373377
0.373106
0.372847
0.3726
0.372364
0.372138
0.371921
0.371713
0.371512
0.371318
0.37113
0.370947
0.370769
0.370594
0.370422
0.370253
0.370084
0.444393
0.420567
0.413382
0.41196
0.410945
0.409816
0.408647
0.407468
0.40629
0.40512
0.40396
0.402812
0.401677
0.400556
0.399451
0.398361
0.39729
0.396236
0.395203
0.394189
0.393197
0.392227
0.391279
0.390355
0.389454
0.388578
0.387725
0.386897
0.386094
0.385315
0.384562
0.383832
0.383128
0.382448
0.381792
0.38116
0.380552
0.379967
0.379405
0.378866
0.378349
0.377853
0.377379
0.376925
0.376491
0.376076
0.37568
0.375302
0.374942
0.374598
0.37427
0.373958
0.37366
0.373377
0.373106
0.372847
0.3726
0.372364
0.372138
0.371921
0.371713
0.371512
0.371318
0.37113
0.370947
0.370769
0.370594
0.370422
0.370253
0.370084
0.444393
0.420567
0.413382
0.41196
0.410945
0.409816
0.408647
0.407468
0.40629
0.40512
0.40396
0.402812
0.401677
0.400556
0.399451
0.398361
0.39729
0.396236
0.395203
0.394189
0.393197
0.392227
0.391279
0.390355
0.389454
0.388578
0.387725
0.386897
0.386094
0.385315
0.384562
0.383832
0.383128
0.382448
0.381792
0.38116
0.380552
0.379967
0.379405
0.378866
0.378349
0.377853
0.377379
0.376925
0.376491
0.376076
0.37568
0.375302
0.374942
0.374598
0.37427
0.373958
0.37366
0.373377
0.373106
0.372847
0.3726
0.372364
0.372138
0.371921
0.371713
0.371512
0.371318
0.37113
0.370947
0.370769
0.370594
0.370422
0.370253
0.370084
0.444393
0.420567
0.413382
0.41196
0.410945
0.409816
0.408647
0.407468
0.40629
0.40512
0.40396
0.402812
0.401677
0.400556
0.399451
0.398361
0.39729
0.396236
0.395203
0.394189
0.393197
0.392227
0.391279
0.390355
0.389454
0.388578
0.387725
0.386897
0.386094
0.385315
0.384562
0.383832
0.383128
0.382448
0.381792
0.38116
0.380552
0.379967
0.379405
0.378866
0.378349
0.377853
0.377379
0.376925
0.376491
0.376076
0.37568
0.375302
0.374942
0.374598
0.37427
0.373958
0.37366
0.373377
0.373106
0.372847
0.3726
0.372364
0.372138
0.371921
0.371713
0.371512
0.371318
0.37113
0.370947
0.370769
0.370594
0.370422
0.370253
0.370084
0.444393
0.420567
0.413382
0.41196
0.410945
0.409816
0.408647
0.407468
0.40629
0.40512
0.40396
0.402812
0.401677
0.400556
0.399451
0.398361
0.39729
0.396236
0.395203
0.394189
0.393197
0.392227
0.391279
0.390355
0.389454
0.388578
0.387725
0.386897
0.386094
0.385315
0.384562
0.383832
0.383128
0.382448
0.381792
0.38116
0.380552
0.379967
0.379405
0.378866
0.378349
0.377853
0.377379
0.376925
0.376491
0.376076
0.37568
0.375302
0.374942
0.374598
0.37427
0.373958
0.37366
0.373377
0.373106
0.372847
0.3726
0.372364
0.372138
0.371921
0.371713
0.371512
0.371318
0.37113
0.370947
0.370769
0.370594
0.370422
0.370253
0.370084
0.444393
0.420567
0.413382
0.41196
0.410945
0.409816
0.408647
0.407468
0.40629
0.40512
0.40396
0.402812
0.401677
0.400556
0.399451
0.398361
0.39729
0.396236
0.395203
0.394189
0.393197
0.392227
0.391279
0.390355
0.389454
0.388578
0.387725
0.386897
0.386094
0.385315
0.384562
0.383832
0.383128
0.382448
0.381792
0.38116
0.380552
0.379967
0.379405
0.378866
0.378349
0.377853
0.377379
0.376925
0.376491
0.376076
0.37568
0.375302
0.374942
0.374598
0.37427
0.373958
0.37366
0.373377
0.373106
0.372847
0.3726
0.372364
0.372138
0.371921
0.371713
0.371512
0.371318
0.37113
0.370947
0.370769
0.370594
0.370422
0.370253
0.370084
0.444393
0.420567
0.413382
0.41196
0.410945
0.409816
0.408647
0.407468
0.40629
0.40512
0.40396
0.402812
0.401677
0.400556
0.399451
0.398361
0.39729
0.396236
0.395203
0.394189
0.393197
0.392227
0.391279
0.390355
0.389454
0.388578
0.387725
0.386897
0.386094
0.385315
0.384562
0.383832
0.383128
0.382448
0.381792
0.38116
0.380552
0.379967
0.379405
0.378866
0.378349
0.377853
0.377379
0.376925
0.376491
0.376076
0.37568
0.375302
0.374942
0.374598
0.37427
0.373958
0.37366
0.373377
0.373106
0.372847
0.3726
0.372364
0.372138
0.371921
0.371713
0.371512
0.371318
0.37113
0.370947
0.370769
0.370594
0.370422
0.370253
0.370084
0.444393
0.420567
0.413382
0.41196
0.410945
0.409816
0.408647
0.407468
0.40629
0.40512
0.40396
0.402812
0.401677
0.400556
0.399451
0.398361
0.39729
0.396236
0.395203
0.394189
0.393197
0.392227
0.391279
0.390355
0.389454
0.388578
0.387725
0.386897
0.386094
0.385315
0.384562
0.383832
0.383128
0.382448
0.381792
0.38116
0.380552
0.379967
0.379405
0.378866
0.378349
0.377853
0.377379
0.376925
0.376491
0.376076
0.37568
0.375302
0.374942
0.374598
0.37427
0.373958
0.37366
0.373377
0.373106
0.372847
0.3726
0.372364
0.372138
0.371921
0.371713
0.371512
0.371318
0.37113
0.370947
0.370769
0.370594
0.370422
0.370253
0.370084
0.444393
0.420567
0.413382
0.41196
0.410945
0.409816
0.408647
0.407468
0.40629
0.40512
0.40396
0.402812
0.401677
0.400556
0.399451
0.398361
0.39729
0.396236
0.395203
0.394189
0.393197
0.392227
0.391279
0.390355
0.389454
0.388578
0.387725
0.386897
0.386094
0.385315
0.384562
0.383832
0.383128
0.382448
0.381792
0.38116
0.380552
0.379967
0.379405
0.378866
0.378349
0.377853
0.377379
0.376925
0.376491
0.376076
0.37568
0.375302
0.374942
0.374598
0.37427
0.373958
0.37366
0.373377
0.373106
0.372847
0.3726
0.372364
0.372138
0.371921
0.371713
0.371512
0.371318
0.37113
0.370947
0.370769
0.370594
0.370422
0.370253
0.370084
0.444393
0.420567
0.413382
0.41196
0.410945
0.409816
0.408647
0.407468
0.40629
0.40512
0.40396
0.402812
0.401677
0.400556
0.399451
0.398361
0.39729
0.396236
0.395203
0.394189
0.393197
0.392227
0.391279
0.390355
0.389454
0.388578
0.387725
0.386897
0.386094
0.385315
0.384562
0.383832
0.383128
0.382448
0.381792
0.38116
0.380552
0.379967
0.379405
0.378866
0.378349
0.377853
0.377379
0.376925
0.376491
0.376076
0.37568
0.375302
0.374942
0.374598
0.37427
0.373958
0.37366
0.373377
0.373106
0.372847
0.3726
0.372364
0.372138
0.371921
0.371713
0.371512
0.371318
0.37113
0.370947
0.370769
0.370594
0.370422
0.370253
0.370084
0.444393
0.420567
0.413382
0.41196
0.410945
0.409816
0.408647
0.407468
0.40629
0.40512
0.40396
0.402812
0.401677
0.400556
0.399451
0.398361
0.39729
0.396236
0.395203
0.394189
0.393197
0.392227
0.391279
0.390355
0.389454
0.388578
0.387725
0.386897
0.386094
0.385315
0.384562
0.383832
0.383128
0.382448
0.381792
0.38116
0.380552
0.379967
0.379405
0.378866
0.378349
0.377853
0.377379
0.376925
0.376491
0.376076
0.37568
0.375302
0.374942
0.374598
0.37427
0.373958
0.37366
0.373377
0.373106
0.372847
0.3726
0.372364
0.372138
0.371921
0.371713
0.371512
0.371318
0.37113
0.370947
0.370769
0.370594
0.370422
0.370253
0.370084
0.444393
0.420567
0.413382
0.41196
0.410945
0.409816
0.408647
0.407468
0.40629
0.40512
0.40396
0.402812
0.401677
0.400556
0.399451
0.398361
0.39729
0.396236
0.395203
0.394189
0.393197
0.392227
0.391279
0.390355
0.389454
0.388578
0.387725
0.386897
0.386094
0.385315
0.384562
0.383832
0.383128
0.382448
0.381792
0.38116
0.380552
0.379967
0.379405
0.378866
0.378349
0.377853
0.377379
0.376925
0.376491
0.376076
0.37568
0.375302
0.374942
0.374598
0.37427
0.373958
0.37366
0.373377
0.373106
0.372847
0.3726
0.372364
0.372138
0.371921
0.371713
0.371512
0.371318
0.37113
0.370947
0.370769
0.370594
0.370422
0.370253
0.370084
0.444393
0.420567
0.413382
0.41196
0.410945
0.409816
0.408647
0.407468
0.40629
0.40512
0.40396
0.402812
0.401677
0.400556
0.399451
0.398361
0.39729
0.396236
0.395203
0.394189
0.393197
0.392227
0.391279
0.390355
0.389454
0.388578
0.387725
0.386897
0.386094
0.385315
0.384562
0.383832
0.383128
0.382448
0.381792
0.38116
0.380552
0.379967
0.379405
0.378866
0.378349
0.377853
0.377379
0.376925
0.376491
0.376076
0.37568
0.375302
0.374942
0.374598
0.37427
0.373958
0.37366
0.373377
0.373106
0.372847
0.3726
0.372364
0.372138
0.371921
0.371713
0.371512
0.371318
0.37113
0.370947
0.370769
0.370594
0.370422
0.370253
0.370084
0.444393
0.420567
0.413382
0.41196
0.410945
0.409816
0.408647
0.407468
0.40629
0.40512
0.40396
0.402812
0.401677
0.400556
0.399451
0.398361
0.39729
0.396236
0.395203
0.394189
0.393197
0.392227
0.391279
0.390355
0.389454
0.388578
0.387725
0.386897
0.386094
0.385315
0.384562
0.383832
0.383128
0.382448
0.381792
0.38116
0.380552
0.379967
0.379405
0.378866
0.378349
0.377853
0.377379
0.376925
0.376491
0.376076
0.37568
0.375302
0.374942
0.374598
0.37427
0.373958
0.37366
0.373377
0.373106
0.372847
0.3726
0.372364
0.372138
0.371921
0.371713
0.371512
0.371318
0.37113
0.370947
0.370769
0.370594
0.370422
0.370253
0.370084
0.444393
0.420567
0.413382
0.41196
0.410945
0.409816
0.408647
0.407468
0.40629
0.40512
0.40396
0.402812
0.401677
0.400556
0.399451
0.398361
0.39729
0.396236
0.395203
0.394189
0.393197
0.392227
0.391279
0.390355
0.389454
0.388578
0.387725
0.386897
0.386094
0.385315
0.384562
0.383832
0.383128
0.382448
0.381792
0.38116
0.380552
0.379967
0.379405
0.378866
0.378349
0.377853
0.377379
0.376925
0.376491
0.376076
0.37568
0.375302
0.374942
0.374598
0.37427
0.373958
0.37366
0.373377
0.373106
0.372847
0.3726
0.372364
0.372138
0.371921
0.371713
0.371512
0.371318
0.37113
0.370947
0.370769
0.370594
0.370422
0.370253
0.370084
0.444393
0.420567
0.413382
0.41196
0.410945
0.409816
0.408647
0.407468
0.40629
0.40512
0.40396
0.402812
0.401677
0.400556
0.399451
0.398361
0.39729
0.396236
0.395203
0.394189
0.393197
0.392227
0.391279
0.390355
0.389454
0.388578
0.387725
0.386897
0.386094
0.385315
0.384562
0.383832
0.383128
0.382448
0.381792
0.38116
0.380552
0.379967
0.379405
0.378866
0.378349
0.377853
0.377379
0.376925
0.376491
0.376076
0.37568
0.375302
0.374942
0.374598
0.37427
0.373958
0.37366
0.373377
0.373106
0.372847
0.3726
0.372364
0.372138
0.371921
0.371713
0.371512
0.371318
0.37113
0.370947
0.370769
0.370594
0.370422
0.370253
0.370084
0.444393
0.420567
0.413382
0.41196
0.410945
0.409816
0.408647
0.407468
0.40629
0.40512
0.40396
0.402812
0.401677
0.400556
0.399451
0.398361
0.39729
0.396236
0.395203
0.394189
0.393197
0.392227
0.391279
0.390355
0.389454
0.388578
0.387725
0.386897
0.386094
0.385315
0.384562
0.383832
0.383128
0.382448
0.381792
0.38116
0.380552
0.379967
0.379405
0.378866
0.378349
0.377853
0.377379
0.376925
0.376491
0.376076
0.37568
0.375302
0.374942
0.374598
0.37427
0.373958
0.37366
0.373377
0.373106
0.372847
0.3726
0.372364
0.372138
0.371921
0.371713
0.371512
0.371318
0.37113
0.370947
0.370769
0.370594
0.370422
0.370253
0.370084
0.444393
0.420567
0.413382
0.41196
0.410945
0.409816
0.408647
0.407468
0.40629
0.40512
0.40396
0.402812
0.401677
0.400556
0.399451
0.398361
0.39729
0.396236
0.395203
0.394189
0.393197
0.392227
0.391279
0.390355
0.389454
0.388578
0.387725
0.386897
0.386094
0.385315
0.384562
0.383832
0.383128
0.382448
0.381792
0.38116
0.380552
0.379967
0.379405
0.378866
0.378349
0.377853
0.377379
0.376925
0.376491
0.376076
0.37568
0.375302
0.374942
0.374598
0.37427
0.373958
0.37366
0.373377
0.373106
0.372847
0.3726
0.372364
0.372138
0.371921
0.371713
0.371512
0.371318
0.37113
0.370947
0.370769
0.370594
0.370422
0.370253
0.370084
0.444393
0.420567
0.413382
0.41196
0.410945
0.409816
0.408647
0.407468
0.40629
0.40512
0.40396
0.402812
0.401677
0.400556
0.399451
0.398361
0.39729
0.396236
0.395203
0.394189
0.393197
0.392227
0.391279
0.390355
0.389454
0.388578
0.387725
0.386897
0.386094
0.385315
0.384562
0.383832
0.383128
0.382448
0.381792
0.38116
0.380552
0.379967
0.379405
0.378866
0.378349
0.377853
0.377379
0.376925
0.376491
0.376076
0.37568
0.375302
0.374942
0.374598
0.37427
0.373958
0.37366
0.373377
0.373106
0.372847
0.3726
0.372364
0.372138
0.371921
0.371713
0.371512
0.371318
0.37113
0.370947
0.370769
0.370594
0.370422
0.370253
0.370084
0.444393
0.420567
0.413382
0.41196
0.410945
0.409816
0.408647
0.407468
0.40629
0.40512
0.40396
0.402812
0.401677
0.400556
0.399451
0.398361
0.39729
0.396236
0.395203
0.394189
0.393197
0.392227
0.391279
0.390355
0.389454
0.388578
0.387725
0.386897
0.386094
0.385315
0.384562
0.383832
0.383128
0.382448
0.381792
0.38116
0.380552
0.379967
0.379405
0.378866
0.378349
0.377853
0.377379
0.376925
0.376491
0.376076
0.37568
0.375302
0.374942
0.374598
0.37427
0.373958
0.37366
0.373377
0.373106
0.372847
0.3726
0.372364
0.372138
0.371921
0.371713
0.371512
0.371318
0.37113
0.370947
0.370769
0.370594
0.370422
0.370253
0.370084
0.444393
0.420567
0.413382
0.41196
0.410945
0.409816
0.408647
0.407468
0.40629
0.40512
0.40396
0.402812
0.401677
0.400556
0.399451
0.398361
0.39729
0.396236
0.395203
0.394189
0.393197
0.392227
0.391279
0.390355
0.389454
0.388578
0.387725
0.386897
0.386094
0.385315
0.384562
0.383832
0.383128
0.382448
0.381792
0.38116
0.380552
0.379967
0.379405
0.378866
0.378349
0.377853
0.377379
0.376925
0.376491
0.376076
0.37568
0.375302
0.374942
0.374598
0.37427
0.373958
0.37366
0.373377
0.373106
0.372847
0.3726
0.372364
0.372138
0.371921
0.371713
0.371512
0.371318
0.37113
0.370947
0.370769
0.370594
0.370422
0.370253
0.370084
0.444393
0.420567
0.413382
0.41196
0.410945
0.409816
0.408647
0.407468
0.40629
0.40512
0.40396
0.402812
0.401677
0.400556
0.399451
0.398361
0.39729
0.396236
0.395203
0.394189
0.393197
0.392227
0.391279
0.390355
0.389454
0.388578
0.387725
0.386897
0.386094
0.385315
0.384562
0.383832
0.383128
0.382448
0.381792
0.38116
0.380552
0.379967
0.379405
0.378866
0.378349
0.377853
0.377379
0.376925
0.376491
0.376076
0.37568
0.375302
0.374942
0.374598
0.37427
0.373958
0.37366
0.373377
0.373106
0.372847
0.3726
0.372364
0.372138
0.371921
0.371713
0.371512
0.371318
0.37113
0.370947
0.370769
0.370594
0.370422
0.370253
0.370084
0.444393
0.420567
0.413382
0.41196
0.410945
0.409816
0.408647
0.407468
0.40629
0.40512
0.40396
0.402812
0.401677
0.400556
0.399451
0.398361
0.39729
0.396236
0.395203
0.394189
0.393197
0.392227
0.391279
0.390355
0.389454
0.388578
0.387725
0.386897
0.386094
0.385315
0.384562
0.383832
0.383128
0.382448
0.381792
0.38116
0.380552
0.379967
0.379405
0.378866
0.378349
0.377853
0.377379
0.376925
0.376491
0.376076
0.37568
0.375302
0.374942
0.374598
0.37427
0.373958
0.37366
0.373377
0.373106
0.372847
0.3726
0.372364
0.372138
0.371921
0.371713
0.371512
0.371318
0.37113
0.370947
0.370769
0.370594
0.370422
0.370253
0.370084
0.444393
0.420567
0.413382
0.41196
0.410945
0.409816
0.408647
0.407468
0.40629
0.40512
0.40396
0.402812
0.401677
0.400556
0.399451
0.398361
0.39729
0.396236
0.395203
0.394189
0.393197
0.392227
0.391279
0.390355
0.389454
0.388578
0.387725
0.386897
0.386094
0.385315
0.384562
0.383832
0.383128
0.382448
0.381792
0.38116
0.380552
0.379967
0.379405
0.378866
0.378349
0.377853
0.377379
0.376925
0.376491
0.376076
0.37568
0.375302
0.374942
0.374598
0.37427
0.373958
0.37366
0.373377
0.373106
0.372847
0.3726
0.372364
0.372138
0.371921
0.371713
0.371512
0.371318
0.37113
0.370947
0.370769
0.370594
0.370422
0.370253
0.370084
0.444393
0.420567
0.413382
0.41196
0.410945
0.409816
0.408647
0.407468
0.40629
0.40512
0.40396
0.402812
0.401677
0.400556
0.399451
0.398361
0.39729
0.396236
0.395203
0.394189
0.393197
0.392227
0.391279
0.390355
0.389454
0.388578
0.387725
0.386897
0.386094
0.385315
0.384562
0.383832
0.383128
0.382448
0.381792
0.38116
0.380552
0.379967
0.379405
0.378866
0.378349
0.377853
0.377379
0.376925
0.376491
0.376076
0.37568
0.375302
0.374942
0.374598
0.37427
0.373958
0.37366
0.373377
0.373106
0.372847
0.3726
0.372364
0.372138
0.371921
0.371713
0.371512
0.371318
0.37113
0.370947
0.370769
0.370594
0.370422
0.370253
0.370084
0.444393
0.420567
0.413382
0.41196
0.410945
0.409816
0.408647
0.407468
0.40629
0.40512
0.40396
0.402812
0.401677
0.400556
0.399451
0.398361
0.39729
0.396236
0.395203
0.394189
0.393197
0.392227
0.391279
0.390355
0.389454
0.388578
0.387725
0.386897
0.386094