/*--------------------------------*- C++ -*----------------------------------*\
  =========                 |
  \\      /  F ield         | OpenFOAM: The Open Source CFD Toolbox
   \\    /   O peration     | Website:  https://openfoam.org
    \\  /    A nd           | Version:  13
     \\/     M anipulation  |
\*---------------------------------------------------------------------------*/
FoamFile
{
    format      ascii;
    class       volScalarField;
    location    "155";
    object      rhok;
}
// * * * * * * * * * * * * * * * * * * * * * * * * * * * * * * * * * * * * * //

dimensions      [];

internalField   nonuniform List<scalar> 
315000
(
0.444628
0.42987
0.415089
0.413674
0.412934
0.412196
0.41146
0.410727
0.409996
0.409267
0.408541
0.407818
0.407098
0.40638
0.405664
0.404952
0.404242
0.403535
0.402831
0.40213
0.401431
0.400736
0.400043
0.399353
0.398666
0.397982
0.397301
0.396623
0.395948
0.395275
0.394606
0.393939
0.393276
0.392615
0.391957
0.391302
0.390649
0.39
0.389353
0.388709
0.388067
0.387428
0.386791
0.386157
0.385526
0.384896
0.384269
0.383645
0.383022
0.382402
0.381783
0.381167
0.380552
0.379939
0.379328
0.378718
0.37811
0.377504
0.376898
0.376294
0.375691
0.375089
0.374488
0.373888
0.373289
0.37269
0.372091
0.371493
0.370895
0.370298
0.444628
0.429868
0.415086
0.413672
0.412931
0.412193
0.411457
0.410724
0.409993
0.409264
0.408538
0.407815
0.407094
0.406377
0.405661
0.404949
0.404239
0.403532
0.402828
0.402126
0.401428
0.400732
0.40004
0.39935
0.398663
0.397979
0.397298
0.39662
0.395944
0.395272
0.394603
0.393936
0.393273
0.392612
0.391954
0.391299
0.390646
0.389997
0.38935
0.388706
0.388064
0.387425
0.386789
0.386155
0.385523
0.384894
0.384267
0.383642
0.38302
0.382399
0.381781
0.381165
0.38055
0.379937
0.379326
0.378717
0.378109
0.377502
0.376897
0.376293
0.37569
0.375088
0.374488
0.373887
0.373288
0.372689
0.372091
0.371493
0.370895
0.370298
0.444628
0.429867
0.415084
0.413669
0.412929
0.412191
0.411455
0.410721
0.40999
0.409262
0.408536
0.407813
0.407092
0.406374
0.405659
0.404946
0.404236
0.403529
0.402825
0.402124
0.401425
0.400729
0.400037
0.399347
0.39866
0.397976
0.397295
0.396617
0.395942
0.395269
0.3946
0.393933
0.39327
0.392609
0.391951
0.391296
0.390644
0.389994
0.389347
0.388703
0.388062
0.387423
0.386786
0.386152
0.385521
0.384892
0.384265
0.38364
0.383018
0.382398
0.381779
0.381163
0.380549
0.379936
0.379325
0.378715
0.378108
0.377501
0.376896
0.376292
0.375689
0.375088
0.374487
0.373887
0.373287
0.372689
0.372091
0.371493
0.370895
0.370298
0.444628
0.429866
0.415082
0.413667
0.412927
0.412189
0.411453
0.410719
0.409988
0.40926
0.408534
0.40781
0.40709
0.406371
0.405656
0.404944
0.404234
0.403527
0.402823
0.402121
0.401423
0.400727
0.400034
0.399344
0.398658
0.397974
0.397293
0.396614
0.395939
0.395267
0.394598
0.393931
0.393267
0.392607
0.391949
0.391294
0.390641
0.389992
0.389345
0.388701
0.388059
0.387421
0.386784
0.38615
0.385519
0.38489
0.384263
0.383639
0.383016
0.382396
0.381778
0.381161
0.380547
0.379934
0.379324
0.378714
0.378106
0.3775
0.376895
0.376291
0.375689
0.375087
0.374486
0.373886
0.373287
0.372688
0.37209
0.371493
0.370895
0.370298
0.444628
0.429865
0.41508
0.413666
0.412925
0.412187
0.411451
0.410717
0.409986
0.409258
0.408532
0.407808
0.407088
0.40637
0.405654
0.404942
0.404232
0.403525
0.40282
0.402119
0.401421
0.400725
0.400032
0.399342
0.398655
0.397971
0.39729
0.396612
0.395937
0.395265
0.394595
0.393929
0.393265
0.392605
0.391947
0.391292
0.39064
0.38999
0.389343
0.388699
0.388058
0.387419
0.386782
0.386149
0.385517
0.384888
0.384261
0.383637
0.383015
0.382395
0.381776
0.38116
0.380546
0.379933
0.379322
0.378713
0.378105
0.377499
0.376894
0.37629
0.375688
0.375086
0.374486
0.373886
0.373287
0.372688
0.37209
0.371492
0.370895
0.370298
0.444628
0.429865
0.415079
0.413664
0.412924
0.412185
0.411449
0.410716
0.409985
0.409256
0.40853
0.407807
0.407086
0.406368
0.405652
0.40494
0.40423
0.403523
0.402819
0.402117
0.401419
0.400723
0.40003
0.399341
0.398654
0.39797
0.397289
0.396611
0.395935
0.395263
0.394594
0.393927
0.393264
0.392603
0.391945
0.39129
0.390638
0.389988
0.389342
0.388698
0.388056
0.387417
0.386781
0.386147
0.385516
0.384887
0.38426
0.383636
0.383014
0.382393
0.381775
0.381159
0.380545
0.379932
0.379322
0.378712
0.378105
0.377498
0.376893
0.37629
0.375687
0.375086
0.374485
0.373885
0.373286
0.372688
0.37209
0.371492
0.370895
0.370298
0.444628
0.429864
0.415078
0.413663
0.412923
0.412184
0.411448
0.410715
0.409983
0.409255
0.408529
0.407805
0.407085
0.406367
0.405651
0.404939
0.404229
0.403522
0.402817
0.402116
0.401417
0.400722
0.400029
0.399339
0.398652
0.397968
0.397287
0.396609
0.395934
0.395262
0.394592
0.393926
0.393262
0.392602
0.391944
0.391289
0.390637
0.389987
0.38934
0.388696
0.388055
0.387416
0.38678
0.386146
0.385515
0.384886
0.384259
0.383635
0.383013
0.382392
0.381774
0.381158
0.380544
0.379932
0.379321
0.378712
0.378104
0.377498
0.376893
0.376289
0.375687
0.375085
0.374485
0.373885
0.373286
0.372688
0.37209
0.371492
0.370895
0.370298
0.444628
0.429864
0.415077
0.413662
0.412922
0.412183
0.411447
0.410714
0.409983
0.409254
0.408528
0.407804
0.407084
0.406366
0.40565
0.404938
0.404228
0.403521
0.402816
0.402115
0.401416
0.400721
0.400028
0.399338
0.398651
0.397967
0.397286
0.396608
0.395933
0.395261
0.394591
0.393925
0.393261
0.392601
0.391943
0.391288
0.390636
0.389986
0.389339
0.388695
0.388054
0.387415
0.386779
0.386145
0.385514
0.384885
0.384258
0.383634
0.383012
0.382392
0.381774
0.381158
0.380543
0.379931
0.37932
0.378711
0.378104
0.377497
0.376892
0.376289
0.375686
0.375085
0.374484
0.373885
0.373286
0.372687
0.372089
0.371492
0.370895
0.370298
0.444628
0.429864
0.415077
0.413662
0.412921
0.412183
0.411447
0.410713
0.409982
0.409253
0.408527
0.407804
0.407083
0.406365
0.40565
0.404937
0.404227
0.40352
0.402816
0.402114
0.401416
0.40072
0.400027
0.399337
0.398651
0.397967
0.397286
0.396607
0.395932
0.39526
0.394591
0.393924
0.393261
0.3926
0.391942
0.391287
0.390635
0.389986
0.389339
0.388695
0.388053
0.387415
0.386778
0.386145
0.385513
0.384884
0.384258
0.383633
0.383011
0.382391
0.381773
0.381157
0.380543
0.379931
0.37932
0.378711
0.378103
0.377497
0.376892
0.376289
0.375686
0.375085
0.374484
0.373885
0.373286
0.372687
0.372089
0.371492
0.370895
0.370298
0.444628
0.429863
0.415076
0.413662
0.412921
0.412182
0.411446
0.410713
0.409982
0.409253
0.408527
0.407803
0.407083
0.406364
0.405649
0.404936
0.404227
0.403519
0.402815
0.402114
0.401415
0.40072
0.400027
0.399337
0.39865
0.397966
0.397285
0.396607
0.395932
0.39526
0.39459
0.393924
0.39326
0.3926
0.391942
0.391287
0.390635
0.389985
0.389338
0.388694
0.388053
0.387414
0.386778
0.386144
0.385513
0.384884
0.384257
0.383633
0.383011
0.382391
0.381773
0.381157
0.380543
0.37993
0.37932
0.37871
0.378103
0.377497
0.376892
0.376288
0.375686
0.375085
0.374484
0.373884
0.373285
0.372687
0.372089
0.371492
0.370895
0.370298
0.444628
0.429863
0.415076
0.413661
0.412921
0.412182
0.411446
0.410712
0.409981
0.409253
0.408527
0.407803
0.407082
0.406364
0.405649
0.404936
0.404226
0.403519
0.402815
0.402114
0.401415
0.400719
0.400027
0.399337
0.39865
0.397966
0.397285
0.396607
0.395931
0.395259
0.39459
0.393923
0.39326
0.392599
0.391941
0.391286
0.390634
0.389985
0.389338
0.388694
0.388053
0.387414
0.386778
0.386144
0.385513
0.384884
0.384257
0.383633
0.383011
0.382391
0.381773
0.381157
0.380542
0.37993
0.379319
0.37871
0.378103
0.377497
0.376892
0.376288
0.375686
0.375084
0.374484
0.373884
0.373285
0.372687
0.372089
0.371492
0.370895
0.370298
0.444628
0.429863
0.415076
0.413661
0.412921
0.412182
0.411446
0.410712
0.409981
0.409253
0.408527
0.407803
0.407082
0.406364
0.405649
0.404936
0.404226
0.403519
0.402815
0.402113
0.401415
0.400719
0.400026
0.399337
0.39865
0.397966
0.397285
0.396607
0.395931
0.395259
0.39459
0.393923
0.39326
0.392599
0.391941
0.391286
0.390634
0.389985
0.389338
0.388694
0.388053
0.387414
0.386778
0.386144
0.385513
0.384884
0.384257
0.383633
0.383011
0.382391
0.381773
0.381157
0.380542
0.37993
0.379319
0.37871
0.378103
0.377497
0.376892
0.376288
0.375686
0.375084
0.374484
0.373884
0.373285
0.372687
0.372089
0.371492
0.370895
0.370298
0.444628
0.429863
0.415076
0.413661
0.412921
0.412182
0.411446
0.410712
0.409981
0.409253
0.408527
0.407803
0.407082
0.406364
0.405649
0.404936
0.404226
0.403519
0.402815
0.402113
0.401415
0.400719
0.400027
0.399337
0.39865
0.397966
0.397285
0.396607
0.395931
0.395259
0.39459
0.393923
0.39326
0.392599
0.391941
0.391286
0.390634
0.389985
0.389338
0.388694
0.388053
0.387414
0.386778
0.386144
0.385513
0.384884
0.384257
0.383633
0.383011
0.382391
0.381773
0.381157
0.380542
0.37993
0.379319
0.37871
0.378103
0.377497
0.376892
0.376288
0.375686
0.375084
0.374484
0.373884
0.373285
0.372687
0.372089
0.371492
0.370895
0.370298
0.444628
0.429863
0.415076
0.413662
0.412921
0.412182
0.411446
0.410713
0.409981
0.409253
0.408527
0.407803
0.407083
0.406364
0.405649
0.404936
0.404226
0.403519
0.402815
0.402114
0.401415
0.400719
0.400027
0.399337
0.39865
0.397966
0.397285
0.396607
0.395932
0.395259
0.39459
0.393924
0.39326
0.392599
0.391941
0.391286
0.390634
0.389985
0.389338
0.388694
0.388053
0.387414
0.386778
0.386144
0.385513
0.384884
0.384257
0.383633
0.383011
0.382391
0.381773
0.381157
0.380542
0.37993
0.379319
0.37871
0.378103
0.377497
0.376892
0.376288
0.375686
0.375084
0.374484
0.373884
0.373285
0.372687
0.372089
0.371492
0.370895
0.370298
0.444628
0.429864
0.415077
0.413662
0.412921
0.412183
0.411446
0.410713
0.409982
0.409253
0.408527
0.407804
0.407083
0.406365
0.405649
0.404937
0.404227
0.40352
0.402815
0.402114
0.401415
0.40072
0.400027
0.399337
0.39865
0.397966
0.397285
0.396607
0.395932
0.39526
0.39459
0.393924
0.39326
0.3926
0.391942
0.391287
0.390634
0.389985
0.389338
0.388694
0.388053
0.387414
0.386778
0.386144
0.385513
0.384884
0.384257
0.383633
0.383011
0.382391
0.381773
0.381157
0.380543
0.37993
0.379319
0.37871
0.378103
0.377497
0.376892
0.376288
0.375686
0.375085
0.374484
0.373884
0.373285
0.372687
0.372089
0.371492
0.370895
0.370298
0.444628
0.429864
0.415077
0.413662
0.412921
0.412183
0.411447
0.410713
0.409982
0.409253
0.408527
0.407804
0.407083
0.406365
0.40565
0.404937
0.404227
0.40352
0.402816
0.402114
0.401416
0.40072
0.400027
0.399337
0.39865
0.397966
0.397285
0.396607
0.395932
0.39526
0.39459
0.393924
0.39326
0.3926
0.391942
0.391287
0.390635
0.389985
0.389339
0.388695
0.388053
0.387414
0.386778
0.386144
0.385513
0.384884
0.384258
0.383633
0.383011
0.382391
0.381773
0.381157
0.380543
0.37993
0.37932
0.378711
0.378103
0.377497
0.376892
0.376288
0.375686
0.375085
0.374484
0.373884
0.373285
0.372687
0.372089
0.371492
0.370895
0.370298
0.444628
0.429864
0.415077
0.413662
0.412922
0.412183
0.411447
0.410713
0.409982
0.409254
0.408528
0.407804
0.407083
0.406365
0.40565
0.404937
0.404227
0.40352
0.402816
0.402115
0.401416
0.40072
0.400028
0.399338
0.398651
0.397967
0.397286
0.396608
0.395932
0.39526
0.394591
0.393924
0.393261
0.3926
0.391942
0.391287
0.390635
0.389986
0.389339
0.388695
0.388053
0.387415
0.386778
0.386145
0.385513
0.384884
0.384258
0.383633
0.383011
0.382391
0.381773
0.381157
0.380543
0.37993
0.37932
0.378711
0.378103
0.377497
0.376892
0.376289
0.375686
0.375085
0.374484
0.373885
0.373286
0.372687
0.372089
0.371492
0.370895
0.370298
0.444628
0.429864
0.415078
0.413663
0.412922
0.412184
0.411448
0.410714
0.409983
0.409254
0.408528
0.407805
0.407084
0.406366
0.40565
0.404938
0.404228
0.403521
0.402816
0.402115
0.401417
0.400721
0.400028
0.399338
0.398651
0.397967
0.397286
0.396608
0.395933
0.395261
0.394591
0.393925
0.393261
0.392601
0.391943
0.391288
0.390635
0.389986
0.389339
0.388695
0.388054
0.387415
0.386779
0.386145
0.385514
0.384885
0.384258
0.383634
0.383012
0.382391
0.381773
0.381157
0.380543
0.379931
0.37932
0.378711
0.378103
0.377497
0.376892
0.376289
0.375686
0.375085
0.374484
0.373885
0.373286
0.372687
0.372089
0.371492
0.370895
0.370298
0.444628
0.429864
0.415078
0.413663
0.412922
0.412184
0.411448
0.410714
0.409983
0.409255
0.408529
0.407805
0.407084
0.406366
0.405651
0.404938
0.404228
0.403521
0.402817
0.402116
0.401417
0.400721
0.400029
0.399339
0.398652
0.397968
0.397287
0.396609
0.395933
0.395261
0.394592
0.393925
0.393262
0.392601
0.391943
0.391288
0.390636
0.389986
0.38934
0.388696
0.388054
0.387415
0.386779
0.386145
0.385514
0.384885
0.384258
0.383634
0.383012
0.382392
0.381774
0.381158
0.380543
0.379931
0.37932
0.378711
0.378103
0.377497
0.376892
0.376289
0.375686
0.375085
0.374484
0.373885
0.373286
0.372687
0.372089
0.371492
0.370895
0.370298
0.444628
0.429865
0.415079
0.413664
0.412923
0.412185
0.411449
0.410715
0.409984
0.409255
0.408529
0.407806
0.407085
0.406367
0.405652
0.404939
0.404229
0.403522
0.402818
0.402116
0.401418
0.400722
0.400029
0.399339
0.398652
0.397968
0.397287
0.396609
0.395934
0.395262
0.394592
0.393926
0.393262
0.392602
0.391944
0.391289
0.390636
0.389987
0.38934
0.388696
0.388055
0.387416
0.38678
0.386146
0.385514
0.384885
0.384259
0.383634
0.383012
0.382392
0.381774
0.381158
0.380544
0.379931
0.37932
0.378711
0.378104
0.377498
0.376893
0.376289
0.375687
0.375085
0.374485
0.373885
0.373286
0.372687
0.372089
0.371492
0.370895
0.370298
0.444628
0.429865
0.415079
0.413664
0.412924
0.412185
0.411449
0.410716
0.409985
0.409256
0.40853
0.407806
0.407086
0.406368
0.405652
0.40494
0.40423
0.403523
0.402818
0.402117
0.401418
0.400723
0.40003
0.39934
0.398653
0.397969
0.397288
0.39661
0.395935
0.395262
0.394593
0.393927
0.393263
0.392602
0.391944
0.391289
0.390637
0.389988
0.389341
0.388697
0.388055
0.387416
0.38678
0.386146
0.385515
0.384886
0.384259
0.383635
0.383013
0.382392
0.381774
0.381158
0.380544
0.379932
0.379321
0.378712
0.378104
0.377498
0.376893
0.376289
0.375687
0.375085
0.374485
0.373885
0.373286
0.372687
0.37209
0.371492
0.370895
0.370298
0.444628
0.429865
0.41508
0.413665
0.412924
0.412186
0.41145
0.410716
0.409985
0.409257
0.408531
0.407807
0.407086
0.406368
0.405653
0.40494
0.40423
0.403523
0.402819
0.402118
0.401419
0.400723
0.400031
0.399341
0.398654
0.39797
0.397289
0.396611
0.395935
0.395263
0.394594
0.393927
0.393264
0.392603
0.391945
0.39129
0.390638
0.389988
0.389341
0.388697
0.388056
0.387417
0.386781
0.386147
0.385515
0.384886
0.38426
0.383635
0.383013
0.382393
0.381775
0.381159
0.380544
0.379932
0.379321
0.378712
0.378104
0.377498
0.376893
0.376289
0.375687
0.375085
0.374485
0.373885
0.373286
0.372688
0.37209
0.371492
0.370895
0.370298
0.444628
0.429865
0.41508
0.413666
0.412925
0.412186
0.41145
0.410717
0.409986
0.409257
0.408531
0.407808
0.407087
0.406369
0.405654
0.404941
0.404231
0.403524
0.40282
0.402118
0.40142
0.400724
0.400031
0.399341
0.398654
0.39797
0.397289
0.396611
0.395936
0.395264
0.394594
0.393928
0.393264
0.392603
0.391946
0.39129
0.390638
0.389989
0.389342
0.388698
0.388056
0.387417
0.386781
0.386147
0.385516
0.384887
0.38426
0.383636
0.383013
0.382393
0.381775
0.381159
0.380545
0.379932
0.379321
0.378712
0.378104
0.377498
0.376893
0.37629
0.375687
0.375086
0.374485
0.373885
0.373286
0.372688
0.37209
0.371492
0.370895
0.370298
0.444628
0.429866
0.415081
0.413666
0.412925
0.412187
0.411451
0.410718
0.409987
0.409258
0.408532
0.407809
0.407088
0.40637
0.405654
0.404942
0.404232
0.403525
0.40282
0.402119
0.40142
0.400725
0.400032
0.399342
0.398655
0.397971
0.39729
0.396612
0.395937
0.395264
0.394595
0.393928
0.393265
0.392604
0.391946
0.391291
0.390639
0.389989
0.389342
0.388698
0.388057
0.387418
0.386782
0.386148
0.385516
0.384887
0.384261
0.383636
0.383014
0.382394
0.381776
0.381159
0.380545
0.379932
0.379322
0.378712
0.378105
0.377498
0.376894
0.37629
0.375687
0.375086
0.374485
0.373885
0.373286
0.372688
0.37209
0.371492
0.370895
0.370298
0.444628
0.429866
0.415081
0.413667
0.412926
0.412188
0.411452
0.410718
0.409987
0.409259
0.408533
0.407809
0.407088
0.40637
0.405655
0.404942
0.404232
0.403525
0.402821
0.40212
0.401421
0.400725
0.400033
0.399343
0.398656
0.397972
0.397291
0.396613
0.395937
0.395265
0.394596
0.393929
0.393265
0.392605
0.391947
0.391292
0.390639
0.38999
0.389343
0.388699
0.388057
0.387418
0.386782
0.386148
0.385517
0.384888
0.384261
0.383637
0.383014
0.382394
0.381776
0.38116
0.380545
0.379933
0.379322
0.378713
0.378105
0.377499
0.376894
0.37629
0.375687
0.375086
0.374485
0.373885
0.373286
0.372688
0.37209
0.371492
0.370895
0.370298
0.444628
0.429866
0.415082
0.413667
0.412927
0.412188
0.411452
0.410719
0.409988
0.409259
0.408533
0.40781
0.407089
0.406371
0.405656
0.404943
0.404233
0.403526
0.402822
0.40212
0.401422
0.400726
0.400033
0.399343
0.398657
0.397972
0.397291
0.396613
0.395938
0.395266
0.394596
0.39393
0.393266
0.392605
0.391947
0.391292
0.39064
0.38999
0.389343
0.388699
0.388058
0.387419
0.386783
0.386149
0.385517
0.384888
0.384261
0.383637
0.383015
0.382394
0.381776
0.38116
0.380546
0.379933
0.379322
0.378713
0.378105
0.377499
0.376894
0.37629
0.375688
0.375086
0.374485
0.373886
0.373286
0.372688
0.37209
0.371492
0.370895
0.370298
0.444628
0.429867
0.415082
0.413668
0.412927
0.412189
0.411453
0.410719
0.409988
0.40926
0.408534
0.40781
0.40709
0.406372
0.405656
0.404944
0.404234
0.403527
0.402822
0.402121
0.401422
0.400727
0.400034
0.399344
0.398657
0.397973
0.397292
0.396614
0.395939
0.395266
0.394597
0.39393
0.393267
0.392606
0.391948
0.391293
0.39064
0.389991
0.389344
0.3887
0.388058
0.387419
0.386783
0.386149
0.385518
0.384889
0.384262
0.383637
0.383015
0.382395
0.381777
0.38116
0.380546
0.379933
0.379322
0.378713
0.378105
0.377499
0.376894
0.37629
0.375688
0.375086
0.374486
0.373886
0.373287
0.372688
0.37209
0.371492
0.370895
0.370298
0.444628
0.429867
0.415083
0.413668
0.412928
0.412189
0.411453
0.41072
0.409989
0.40926
0.408534
0.407811
0.40709
0.406372
0.405657
0.404944
0.404234
0.403527
0.402823
0.402122
0.401423
0.400727
0.400035
0.399345
0.398658
0.397974
0.397293
0.396614
0.395939
0.395267
0.394597
0.393931
0.393267
0.392606
0.391948
0.391293
0.390641
0.389991
0.389344
0.3887
0.388059
0.38742
0.386783
0.386149
0.385518
0.384889
0.384262
0.383638
0.383015
0.382395
0.381777
0.381161
0.380546
0.379934
0.379323
0.378713
0.378106
0.377499
0.376894
0.376291
0.375688
0.375086
0.374486
0.373886
0.373287
0.372688
0.37209
0.371492
0.370895
0.370298
0.444628
0.429867
0.415083
0.413669
0.412928
0.41219
0.411454
0.41072
0.409989
0.409261
0.408535
0.407812
0.407091
0.406373
0.405657
0.404945
0.404235
0.403528
0.402824
0.402122
0.401424
0.400728
0.400035
0.399345
0.398658
0.397974
0.397293
0.396615
0.39594
0.395267
0.394598
0.393931
0.393268
0.392607
0.391949
0.391294
0.390641
0.389992
0.389345
0.388701
0.388059
0.38742
0.386784
0.38615
0.385518
0.384889
0.384263
0.383638
0.383016
0.382395
0.381777
0.381161
0.380546
0.379934
0.379323
0.378714
0.378106
0.3775
0.376895
0.376291
0.375688
0.375086
0.374486
0.373886
0.373287
0.372688
0.37209
0.371492
0.370895
0.370298
0.444628
0.429867
0.415084
0.413669
0.412929
0.41219
0.411454
0.410721
0.40999
0.409261
0.408535
0.407812
0.407091
0.406373
0.405658
0.404945
0.404235
0.403528
0.402824
0.402123
0.401424
0.400728
0.400036
0.399346
0.398659
0.397975
0.397294
0.396615
0.39594
0.395268
0.394598
0.393932
0.393268
0.392607
0.391949
0.391294
0.390642
0.389992
0.389345
0.388701
0.388059
0.387421
0.386784
0.38615
0.385519
0.38489
0.384263
0.383638
0.383016
0.382396
0.381777
0.381161
0.380547
0.379934
0.379323
0.378714
0.378106
0.3775
0.376895
0.376291
0.375688
0.375087
0.374486
0.373886
0.373287
0.372688
0.37209
0.371492
0.370895
0.370298
0.444628
0.429867
0.415084
0.41367
0.412929
0.412191
0.411455
0.410721
0.40999
0.409262
0.408536
0.407812
0.407092
0.406374
0.405658
0.404946
0.404236
0.403529
0.402824
0.402123
0.401424
0.400729
0.400036
0.399346
0.398659
0.397975
0.397294
0.396616
0.39594
0.395268
0.394599
0.393932
0.393268
0.392608
0.39195
0.391294
0.390642
0.389992
0.389346
0.388701
0.38806
0.387421
0.386784
0.38615
0.385519
0.38489
0.384263
0.383639
0.383016
0.382396
0.381778
0.381161
0.380547
0.379934
0.379323
0.378714
0.378106
0.3775
0.376895
0.376291
0.375688
0.375087
0.374486
0.373886
0.373287
0.372688
0.37209
0.371492
0.370895
0.370298
0.444628
0.429868
0.415084
0.41367
0.412929
0.412191
0.411455
0.410722
0.409991
0.409262
0.408536
0.407813
0.407092
0.406374
0.405659
0.404946
0.404236
0.403529
0.402825
0.402123
0.401425
0.400729
0.400036
0.399346
0.398659
0.397975
0.397294
0.396616
0.395941
0.395268
0.394599
0.393932
0.393269
0.392608
0.39195
0.391295
0.390642
0.389993
0.389346
0.388702
0.38806
0.387421
0.386785
0.386151
0.385519
0.38489
0.384263
0.383639
0.383016
0.382396
0.381778
0.381162
0.380547
0.379934
0.379324
0.378714
0.378106
0.3775
0.376895
0.376291
0.375688
0.375087
0.374486
0.373886
0.373287
0.372688
0.37209
0.371492
0.370895
0.370298
0.444628
0.429868
0.415085
0.41367
0.412929
0.412191
0.411455
0.410722
0.409991
0.409262
0.408536
0.407813
0.407092
0.406374
0.405659
0.404946
0.404236
0.403529
0.402825
0.402124
0.401425
0.400729
0.400037
0.399347
0.39866
0.397976
0.397295
0.396616
0.395941
0.395269
0.394599
0.393933
0.393269
0.392608
0.39195
0.391295
0.390643
0.389993
0.389346
0.388702
0.38806
0.387421
0.386785
0.386151
0.385519
0.38489
0.384263
0.383639
0.383017
0.382396
0.381778
0.381162
0.380547
0.379935
0.379324
0.378714
0.378106
0.3775
0.376895
0.376291
0.375689
0.375087
0.374486
0.373886
0.373287
0.372688
0.37209
0.371492
0.370895
0.370298
0.444628
0.429868
0.415085
0.41367
0.41293
0.412191
0.411456
0.410722
0.409991
0.409263
0.408537
0.407813
0.407093
0.406374
0.405659
0.404946
0.404237
0.40353
0.402825
0.402124
0.401425
0.40073
0.400037
0.399347
0.39866
0.397976
0.397295
0.396617
0.395941
0.395269
0.394599
0.393933
0.393269
0.392608
0.39195
0.391295
0.390643
0.389993
0.389346
0.388702
0.38806
0.387422
0.386785
0.386151
0.38552
0.38489
0.384264
0.383639
0.383017
0.382396
0.381778
0.381162
0.380547
0.379935
0.379324
0.378714
0.378107
0.3775
0.376895
0.376291
0.375689
0.375087
0.374486
0.373886
0.373287
0.372688
0.37209
0.371493
0.370895
0.370298
0.444628
0.429868
0.415085
0.41367
0.41293
0.412192
0.411456
0.410722
0.409991
0.409263
0.408537
0.407813
0.407093
0.406375
0.405659
0.404947
0.404237
0.40353
0.402826
0.402124
0.401426
0.40073
0.400037
0.399347
0.39866
0.397976
0.397295
0.396617
0.395941
0.395269
0.3946
0.393933
0.393269
0.392609
0.391951
0.391295
0.390643
0.389993
0.389346
0.388702
0.388061
0.387422
0.386785
0.386151
0.38552
0.384891
0.384264
0.383639
0.383017
0.382396
0.381778
0.381162
0.380547
0.379935
0.379324
0.378714
0.378107
0.3775
0.376895
0.376291
0.375689
0.375087
0.374486
0.373886
0.373287
0.372688
0.37209
0.371493
0.370895
0.370298
0.444628
0.429868
0.415085
0.413671
0.41293
0.412192
0.411456
0.410722
0.409991
0.409263
0.408537
0.407814
0.407093
0.406375
0.405659
0.404947
0.404237
0.40353
0.402826
0.402124
0.401426
0.40073
0.400037
0.399347
0.39866
0.397976
0.397295
0.396617
0.395942
0.395269
0.3946
0.393933
0.39327
0.392609
0.391951
0.391296
0.390643
0.389993
0.389347
0.388702
0.388061
0.387422
0.386785
0.386151
0.38552
0.384891
0.384264
0.383639
0.383017
0.382397
0.381778
0.381162
0.380548
0.379935
0.379324
0.378715
0.378107
0.3775
0.376895
0.376291
0.375689
0.375087
0.374486
0.373886
0.373287
0.372688
0.37209
0.371493
0.370895
0.370298
0.444628
0.429868
0.415085
0.413671
0.41293
0.412192
0.411456
0.410723
0.409992
0.409263
0.408537
0.407814
0.407093
0.406375
0.40566
0.404947
0.404237
0.40353
0.402826
0.402124
0.401426
0.40073
0.400037
0.399347
0.39866
0.397976
0.397295
0.396617
0.395942
0.395269
0.3946
0.393933
0.39327
0.392609
0.391951
0.391296
0.390643
0.389994
0.389347
0.388702
0.388061
0.387422
0.386785
0.386151
0.38552
0.384891
0.384264
0.383639
0.383017
0.382397
0.381778
0.381162
0.380548
0.379935
0.379324
0.378715
0.378107
0.3775
0.376895
0.376291
0.375689
0.375087
0.374486
0.373886
0.373287
0.372688
0.37209
0.371493
0.370895
0.370298
0.444628
0.429868
0.415085
0.413671
0.41293
0.412192
0.411456
0.410723
0.409992
0.409263
0.408537
0.407814
0.407093
0.406375
0.40566
0.404947
0.404237
0.40353
0.402826
0.402124
0.401426
0.40073
0.400037
0.399347
0.398661
0.397976
0.397295
0.396617
0.395942
0.395269
0.3946
0.393933
0.39327
0.392609
0.391951
0.391296
0.390643
0.389994
0.389347
0.388703
0.388061
0.387422
0.386785
0.386151
0.38552
0.384891
0.384264
0.383639
0.383017
0.382397
0.381778
0.381162
0.380548
0.379935
0.379324
0.378715
0.378107
0.3775
0.376895
0.376291
0.375689
0.375087
0.374486
0.373886
0.373287
0.372688
0.37209
0.371493
0.370895
0.370298
0.444628
0.429868
0.415085
0.413671
0.41293
0.412192
0.411456
0.410723
0.409992
0.409263
0.408537
0.407814
0.407093
0.406375
0.40566
0.404947
0.404237
0.40353
0.402826
0.402124
0.401426
0.40073
0.400037
0.399348
0.398661
0.397977
0.397295
0.396617
0.395942
0.395269
0.3946
0.393933
0.39327
0.392609
0.391951
0.391296
0.390643
0.389994
0.389347
0.388703
0.388061
0.387422
0.386786
0.386152
0.38552
0.384891
0.384264
0.383639
0.383017
0.382397
0.381778
0.381162
0.380548
0.379935
0.379324
0.378715
0.378107
0.3775
0.376895
0.376291
0.375689
0.375087
0.374486
0.373886
0.373287
0.372688
0.37209
0.371493
0.370895
0.370298
0.444628
0.429868
0.415085
0.413671
0.41293
0.412192
0.411456
0.410723
0.409992
0.409263
0.408537
0.407814
0.407093
0.406375
0.40566
0.404947
0.404237
0.40353
0.402826
0.402125
0.401426
0.40073
0.400037
0.399348
0.398661
0.397977
0.397295
0.396617
0.395942
0.39527
0.3946
0.393933
0.39327
0.392609
0.391951
0.391296
0.390643
0.389994
0.389347
0.388703
0.388061
0.387422
0.386786
0.386152
0.38552
0.384891
0.384264
0.383639
0.383017
0.382397
0.381778
0.381162
0.380548
0.379935
0.379324
0.378715
0.378107
0.3775
0.376895
0.376291
0.375689
0.375087
0.374486
0.373886
0.373287
0.372688
0.37209
0.371493
0.370895
0.370298
0.444628
0.429868
0.415085
0.413671
0.41293
0.412192
0.411456
0.410723
0.409992
0.409263
0.408537
0.407814
0.407093
0.406375
0.40566
0.404947
0.404237
0.40353
0.402826
0.402125
0.401426
0.40073
0.400038
0.399348
0.398661
0.397977
0.397295
0.396617
0.395942
0.39527
0.3946
0.393933
0.39327
0.392609
0.391951
0.391296
0.390643
0.389994
0.389347
0.388703
0.388061
0.387422
0.386786
0.386152
0.38552
0.384891
0.384264
0.383639
0.383017
0.382397
0.381778
0.381162
0.380548
0.379935
0.379324
0.378715
0.378107
0.3775
0.376895
0.376291
0.375689
0.375087
0.374486
0.373886
0.373287
0.372688
0.37209
0.371493
0.370895
0.370298
0.444628
0.429868
0.415085
0.413671
0.41293
0.412192
0.411456
0.410723
0.409992
0.409263
0.408537
0.407814
0.407093
0.406375
0.40566
0.404947
0.404237
0.40353
0.402826
0.402125
0.401426
0.40073
0.400038
0.399348
0.398661
0.397977
0.397295
0.396617
0.395942
0.39527
0.3946
0.393934
0.39327
0.392609
0.391951
0.391296
0.390643
0.389994
0.389347
0.388703
0.388061
0.387422
0.386786
0.386152
0.38552
0.384891
0.384264
0.383639
0.383017
0.382397
0.381778
0.381162
0.380548
0.379935
0.379324
0.378715
0.378107
0.3775
0.376895
0.376291
0.375689
0.375087
0.374486
0.373886
0.373287
0.372688
0.37209
0.371493
0.370895
0.370298
0.444628
0.429868
0.415085
0.413671
0.41293
0.412192
0.411456
0.410723
0.409992
0.409263
0.408537
0.407814
0.407093
0.406375
0.40566
0.404947
0.404237
0.40353
0.402826
0.402125
0.401426
0.40073
0.400038
0.399348
0.398661
0.397977
0.397295
0.396617
0.395942
0.39527
0.3946
0.393934
0.39327
0.392609
0.391951
0.391296
0.390643
0.389994
0.389347
0.388703
0.388061
0.387422
0.386786
0.386152
0.38552
0.384891
0.384264
0.383639
0.383017
0.382397
0.381778
0.381162
0.380548
0.379935
0.379324
0.378715
0.378107
0.3775
0.376895
0.376291
0.375689
0.375087
0.374486
0.373886
0.373287
0.372688
0.37209
0.371493
0.370895
0.370298
0.444628
0.429868
0.415085
0.413671
0.41293
0.412192
0.411456
0.410723
0.409992
0.409263
0.408537
0.407814
0.407093
0.406375
0.40566
0.404947
0.404237
0.40353
0.402826
0.402125
0.401426
0.40073
0.400038
0.399348
0.398661
0.397977
0.397295
0.396617
0.395942
0.39527
0.3946
0.393934
0.39327
0.392609
0.391951
0.391296
0.390643
0.389994
0.389347
0.388703
0.388061
0.387422
0.386786
0.386152
0.38552
0.384891
0.384264
0.383639
0.383017
0.382397
0.381778
0.381162
0.380548
0.379935
0.379324
0.378715
0.378107
0.3775
0.376895
0.376291
0.375689
0.375087
0.374486
0.373886
0.373287
0.372688
0.37209
0.371493
0.370895
0.370298
0.444628
0.429868
0.415085
0.413671
0.41293
0.412192
0.411456
0.410723
0.409992
0.409263
0.408537
0.407814
0.407093
0.406375
0.40566
0.404947
0.404237
0.40353
0.402826
0.402125
0.401426
0.40073
0.400038
0.399348
0.398661
0.397977
0.397295
0.396617
0.395942
0.39527
0.3946
0.393934
0.39327
0.392609
0.391951
0.391296
0.390643
0.389994
0.389347
0.388703
0.388061
0.387422
0.386786
0.386152
0.38552
0.384891
0.384264
0.383639
0.383017
0.382397
0.381778
0.381162
0.380548
0.379935
0.379324
0.378715
0.378107
0.3775
0.376895
0.376291
0.375689
0.375087
0.374486
0.373886
0.373287
0.372688
0.37209
0.371493
0.370895
0.370298
0.444628
0.429868
0.415085
0.413671
0.41293
0.412192
0.411456
0.410723
0.409992
0.409263
0.408537
0.407814
0.407093
0.406375
0.40566
0.404947
0.404237
0.40353
0.402826
0.402125
0.401426
0.40073
0.400038
0.399348
0.398661
0.397977
0.397295
0.396617
0.395942
0.39527
0.3946
0.393934
0.39327
0.392609
0.391951
0.391296
0.390643
0.389994
0.389347
0.388703
0.388061
0.387422
0.386786
0.386152
0.38552
0.384891
0.384264
0.383639
0.383017
0.382397
0.381778
0.381162
0.380548
0.379935
0.379324
0.378715
0.378107
0.3775
0.376895
0.376291
0.375689
0.375087
0.374486
0.373886
0.373287
0.372688
0.37209
0.371493
0.370895
0.370298
0.444628
0.429868
0.415085
0.413671
0.41293
0.412192
0.411456
0.410723
0.409992
0.409263
0.408537
0.407814
0.407093
0.406375
0.40566
0.404947
0.404237
0.40353
0.402826
0.402125
0.401426
0.40073
0.400038
0.399348
0.398661
0.397977
0.397295
0.396617
0.395942
0.39527
0.3946
0.393934
0.39327
0.392609
0.391951
0.391296
0.390643
0.389994
0.389347
0.388703
0.388061
0.387422
0.386786
0.386152
0.38552
0.384891
0.384264
0.383639
0.383017
0.382397
0.381778
0.381162
0.380548
0.379935
0.379324
0.378715
0.378107
0.3775
0.376895
0.376291
0.375689
0.375087
0.374486
0.373886
0.373287
0.372688
0.37209
0.371493
0.370895
0.370298
0.444628
0.429868
0.415085
0.413671
0.41293
0.412192
0.411456
0.410723
0.409992
0.409263
0.408537
0.407814
0.407093
0.406375