/*--------------------------------*- C++ -*----------------------------------*\
  =========                 |
  \\      /  F ield         | OpenFOAM: The Open Source CFD Toolbox
   \\    /   O peration     | Website:  https://openfoam.org
    \\  /    A nd           | Version:  13
     \\/     M anipulation  |
\*---------------------------------------------------------------------------*/
FoamFile
{
    format      ascii;
    class       volScalarField;
    location    "3";
    object      difft;
}
// * * * * * * * * * * * * * * * * * * * * * * * * * * * * * * * * * * * * * //

dimensions      [0 2 -1 0 0 0 0];

internalField   nonuniform List<scalar> 
78750
(
4.51564e-10
7.22931e-08
1.74477e-06
3.4618e-06
5.03961e-06
5.09126e-06
4.96647e-06
4.5345e-06
4.03769e-06
3.57073e-06
3.1971e-06
2.88397e-06
2.69009e-06
2.53485e-06
2.44099e-06
2.44414e-06
2.46416e-06
2.49334e-06
2.55235e-06
2.61581e-06
2.67029e-06
2.73599e-06
2.79863e-06
2.85573e-06
2.89407e-06
2.92673e-06
2.9255e-06
2.91566e-06
2.90697e-06
2.89888e-06
2.87325e-06
2.80461e-06
2.319e-06
3.6788e-07
2.54827e-09
1.85105e-09
5.04917e-07
1.49593e-05
1.3706e-05
1.96314e-05
4.94337e-05
7.60294e-05
7.48786e-05
7.48797e-05
7.53932e-05
7.53733e-05
7.41794e-05
7.50062e-05
7.07895e-05
6.95715e-05
6.66494e-05
6.65854e-05
6.68063e-05
6.71535e-05
6.75171e-05
6.78414e-05
6.81079e-05
6.82824e-05
6.84007e-05
6.83836e-05
6.81319e-05
6.77912e-05
6.74017e-05
6.72269e-05
4.33929e-05
1.69096e-05
8.24212e-06
5.27645e-06
9.53768e-07
4.53122e-09
2.14867e-09
5.59693e-07
9.97354e-06
9.91765e-06
1.554e-05
3.92449e-05
6.73572e-05
6.75754e-05
6.80223e-05
6.86681e-05
6.94467e-05
7.02892e-05
7.11436e-05
7.19676e-05
7.27265e-05
7.33885e-05
7.39395e-05
7.43678e-05
7.46669e-05
7.48343e-05
7.48324e-05
7.46583e-05
7.43529e-05
7.39295e-05
7.33882e-05
7.2733e-05
7.20006e-05
7.12423e-05
7.05155e-05
2.82612e-05
1.19352e-05
6.50213e-06
4.39967e-06
8.025e-07
3.71143e-09
2.26305e-09
5.88027e-07
1.0624e-05
1.02558e-05
1.32505e-05
2.69244e-05
6.80317e-05
6.87389e-05
6.95816e-05
7.05479e-05
7.15932e-05
7.26605e-05
7.36965e-05
7.46571e-05
7.55073e-05
7.62173e-05
7.67681e-05
7.71494e-05
7.73588e-05
7.73657e-05
7.71586e-05
7.67679e-05
7.62057e-05
7.54868e-05
7.46427e-05
7.37141e-05
7.27492e-05
7.18101e-05
6.291e-05
2.3153e-05
1.03652e-05
5.72592e-06
4.16686e-06
7.40136e-07
3.1067e-09
2.27221e-09
5.949e-07
1.06641e-05
1.14291e-05
1.38159e-05
2.70989e-05
6.85318e-05
6.93812e-05
7.02623e-05
7.12855e-05
7.23822e-05
7.34892e-05
7.45487e-05
7.55128e-05
7.63448e-05
7.70197e-05
7.75166e-05
7.78231e-05
7.79342e-05
7.78366e-05
7.75225e-05
7.70238e-05
7.63552e-05
7.55376e-05
7.46e-05
7.358e-05
7.25426e-05
7.15441e-05
6.06669e-05
2.04426e-05
9.01443e-06
5.24752e-06
4.175e-06
7.09002e-07
2.86246e-09
2.30923e-09
6.03941e-07
1.04333e-05
1.10703e-05
1.30882e-05
2.40992e-05
5.82157e-05
6.95475e-05
7.04525e-05
7.14919e-05
7.26e-05
7.37123e-05
7.47708e-05
7.57281e-05
7.65482e-05
7.7204e-05
7.76803e-05
7.79551e-05
7.8016e-05
7.7856e-05
7.74748e-05
7.69071e-05
7.61702e-05
7.52898e-05
7.43001e-05
7.32455e-05
7.21784e-05
7.11493e-05
5.64697e-05
1.8561e-05
8.20709e-06
4.99374e-06
4.23708e-06
6.18345e-07
2.46467e-09
2.34474e-09
6.13974e-07
1.06131e-05
1.13306e-05
1.28678e-05
2.27019e-05
5.3739e-05
6.97451e-05
7.06221e-05
7.16455e-05
7.27434e-05
7.38472e-05
7.48966e-05
7.5842e-05
7.66465e-05
7.72848e-05
7.77418e-05
7.79909e-05
7.80191e-05
7.78218e-05
7.74151e-05
7.68216e-05
7.60619e-05
7.51633e-05
7.41623e-05
7.31041e-05
7.20408e-05
7.10169e-05
5.54937e-05
1.78963e-05
7.77626e-06
4.60015e-06
4.32648e-06
5.93933e-07
2.35834e-09
2.35806e-09
6.1433e-07
1.0446e-05
1.11517e-05
1.26332e-05
2.15168e-05
4.90044e-05
6.98491e-05
7.07193e-05
7.17412e-05
7.28368e-05
7.39353e-05
7.49758e-05
7.59089e-05
7.66966e-05
7.73123e-05
7.77393e-05
7.79671e-05
7.79588e-05
7.77406e-05
7.73104e-05
7.66903e-05
7.59023e-05
7.49754e-05
7.3947e-05
7.28671e-05
7.17981e-05
7.07873e-05
5.39129e-05
1.73307e-05
7.77414e-06
5.82048e-06
4.49379e-06
6.04074e-07
2.41265e-09
2.33765e-09
6.03996e-07
1.00317e-05
9.51961e-06
1.21055e-05
2.0617e-05
4.55301e-05
6.9819e-05
7.07379e-05
7.17803e-05
7.28841e-05
7.39842e-05
7.50221e-05
7.59498e-05
7.67302e-05
7.73367e-05
7.77526e-05
7.79678e-05
7.79488e-05
7.77208e-05
7.72821e-05
7.6656e-05
7.58645e-05
7.49363e-05
7.39107e-05
7.28376e-05
7.17785e-05
7.07689e-05
5.39314e-05
1.76257e-05
7.94381e-06
5.09552e-06
4.29117e-06
5.97046e-07
2.36455e-09
2.35459e-09
6.0814e-07
1.00911e-05
9.66421e-06
1.19437e-05
1.96658e-05
4.28773e-05
6.99328e-05
7.08329e-05
7.18642e-05
7.29593e-05
7.40501e-05
7.50774e-05
7.59928e-05
7.67596e-05
7.73516e-05
7.77525e-05
7.79537e-05
7.79299e-05
7.76925e-05
7.72357e-05
7.65893e-05
7.57803e-05
7.48346e-05
7.37912e-05
7.26974e-05
7.1607e-05
7.05683e-05
5.50838e-05
1.75873e-05
7.737e-06
4.9559e-06
3.91095e-06
5.66691e-07
2.2697e-09
2.35254e-09
6.08327e-07
9.94104e-06
9.66956e-06
1.20372e-05
1.94308e-05
4.17931e-05
6.99909e-05
7.09027e-05
7.19365e-05
7.3028e-05
7.41118e-05
7.51306e-05
7.60369e-05
7.67941e-05
7.73756e-05
7.77637e-05
7.79491e-05
7.79279e-05
7.76826e-05
7.72219e-05
7.65744e-05
7.57542e-05
7.48034e-05
7.3757e-05
7.266e-05
7.15639e-05
7.05083e-05
5.59001e-05
1.7545e-05
7.59307e-06
4.6164e-06
4.16654e-06
5.66744e-07
2.24305e-09
2.40569e-09
6.23638e-07
1.02601e-05
9.99507e-06
1.19952e-05
1.90967e-05
4.04732e-05
7.00434e-05
7.0948e-05
7.19833e-05
7.30765e-05
7.416e-05
7.51767e-05
7.60811e-05
7.68392e-05
7.74289e-05
7.78185e-05
7.7992e-05
7.79477e-05
7.76869e-05
7.7223e-05
7.65399e-05
7.56964e-05
7.4724e-05
7.36578e-05
7.25452e-05
7.14486e-05
7.04273e-05
5.63141e-05
1.73235e-05
7.73733e-06
5.63993e-06
4.69862e-06
6.09005e-07
2.35043e-09
2.42333e-09
6.29523e-07
1.03643e-05
1.03956e-05
1.20944e-05
1.9078e-05
3.95923e-05
7.01066e-05
7.1006e-05
7.20282e-05
7.31131e-05
7.41919e-05
7.52066e-05
7.61114e-05
7.68738e-05
7.7476e-05
7.7864e-05
7.80338e-05
7.79792e-05
7.76981e-05
7.72083e-05
7.65258e-05
7.56864e-05
7.47165e-05
7.3653e-05
7.25439e-05
7.14509e-05
7.04533e-05
5.78942e-05
1.76234e-05
7.85093e-06
5.91201e-06
4.37515e-06
5.85828e-07
2.28021e-09
2.42419e-09
6.29158e-07
1.05035e-05
1.13059e-05
1.23798e-05
1.87897e-05
3.87298e-05
7.01363e-05
7.10279e-05
7.20536e-05
7.31383e-05
7.42143e-05
7.52234e-05
7.61192e-05
7.68681e-05
7.74497e-05
7.78198e-05
7.7982e-05
7.79267e-05
7.76516e-05
7.71743e-05
7.65075e-05
7.5672e-05
7.46967e-05
7.36198e-05
7.24894e-05
7.13665e-05
7.0321e-05
5.78396e-05
1.70995e-05
7.32204e-06
5.00964e-06
4.3302e-06
5.72936e-07
2.25832e-09
2.3977e-09
6.17638e-07
1.00392e-05
9.46575e-06
1.16711e-05
1.84371e-05
3.80329e-05
7.0042e-05
7.10055e-05
7.20615e-05
7.31611e-05
7.42442e-05
7.52551e-05
7.61478e-05
7.68866e-05
7.7446e-05
7.78091e-05
7.79647e-05
7.79196e-05
7.76491e-05
7.7171e-05
7.65022e-05
7.56647e-05
7.46885e-05
7.36128e-05
7.24868e-05
7.13706e-05
7.03276e-05
5.80795e-05
1.74513e-05
7.48831e-06
5.00115e-06
4.63069e-06
6.04857e-07
2.33004e-09
2.42578e-09
6.26382e-07
1.01797e-05
1.00982e-05
1.18006e-05
1.84224e-05
3.76716e-05
7.01769e-05
7.10972e-05
7.2139e-05
7.3234e-05
7.43189e-05
7.53376e-05
7.62471e-05
7.69974e-05
7.75569e-05
7.79122e-05
7.80536e-05
7.79778e-05
7.76878e-05
7.71943e-05
7.65127e-05
7.56654e-05
7.46824e-05
7.36017e-05
7.24694e-05
7.13386e-05
7.02591e-05
5.84586e-05
1.72857e-05
7.32333e-06
4.64335e-06
4.09168e-06
5.69797e-07
2.23375e-09
2.42819e-09
6.28442e-07
1.02097e-05
1.02227e-05
1.196e-05
1.82945e-05
3.75486e-05
7.01909e-05
7.11336e-05
7.21838e-05
7.32817e-05
7.43683e-05
7.53912e-05
7.63123e-05
7.706e-05
7.76078e-05
7.79515e-05
7.80877e-05
7.80105e-05
7.77244e-05
7.72376e-05
7.65602e-05
7.57136e-05
7.47305e-05
7.36519e-05
7.25217e-05
7.1389e-05
7.02963e-05
5.7951e-05
1.71342e-05
7.01781e-06
4.427e-06
4.10788e-06
5.53293e-07
2.18124e-09
2.42374e-09
6.2565e-07
1.02556e-05
1.10186e-05
1.20326e-05
1.83627e-05
3.73397e-05
7.01916e-05
7.11389e-05
7.21934e-05
7.32908e-05
7.43717e-05
7.53852e-05
7.6292e-05
7.70262e-05
7.75552e-05
7.78872e-05
7.80137e-05
7.79296e-05
7.76403e-05
7.71463e-05
7.64584e-05
7.56021e-05
7.46198e-05
7.35641e-05
7.24828e-05
7.14837e-05
7.07746e-05
5.83917e-05
1.81398e-05
9.28098e-06
5.97675e-06
4.56092e-06
5.82183e-07
2.27502e-09
2.3781e-09
6.10876e-07
1.0109e-05
9.40483e-06
1.14191e-05
1.82911e-05
3.65229e-05
7.01243e-05
7.1117e-05
7.2189e-05
7.32922e-05
7.43727e-05
7.53815e-05
7.62766e-05
7.70259e-05
7.75725e-05
7.79179e-05
7.80473e-05
7.79607e-05
7.76613e-05
7.71582e-05
7.64669e-05
7.56122e-05
7.46335e-05
7.35785e-05
7.25088e-05
7.15477e-05
7.08364e-05
5.92876e-05
1.82603e-05
8.38414e-06
5.49552e-06
4.59241e-06
6.09766e-07
2.35029e-09
2.42903e-09
6.25375e-07
1.00748e-05
9.6939e-06
1.18487e-05
1.81888e-05
3.62933e-05
7.02216e-05
7.11811e-05
7.22334e-05
7.33236e-05
7.43933e-05
7.5392e-05
7.62773e-05
7.70188e-05
7.75775e-05
7.79231e-05
7.80383e-05
7.79377e-05
7.76297e-05
7.71192e-05
7.64217e-05
7.55586e-05
7.45581e-05
7.34546e-05
7.23199e-05
7.11913e-05
7.01408e-05
5.82201e-05
1.69031e-05
7.19659e-06
4.82831e-06
4.72882e-06
6.21432e-07
2.38169e-09
2.43847e-09
6.28198e-07
1.02965e-05
9.85854e-06
1.17957e-05
1.80065e-05
3.65413e-05
7.03223e-05
7.12532e-05
7.2292e-05
7.33711e-05
7.44293e-05
7.54154e-05
7.62868e-05
7.70126e-05
7.75744e-05
7.7922e-05
7.80353e-05
7.79441e-05
7.76403e-05
7.71334e-05
7.64382e-05
7.55768e-05
7.45803e-05
7.34926e-05
7.23451e-05
7.11915e-05
7.0135e-05
5.79792e-05
1.70558e-05
7.42527e-06
5.66908e-06
4.08225e-06
5.84617e-07
2.30995e-09
2.43249e-09
6.25545e-07
1.0199e-05
9.92795e-06
1.16367e-05
1.81988e-05
3.64203e-05
7.03411e-05
7.12897e-05
7.23322e-05
7.3408e-05
7.44601e-05
7.54383e-05
7.63006e-05
7.70156e-05
7.75665e-05
7.79119e-05
7.80483e-05
7.79721e-05
7.7676e-05
7.71713e-05
7.64743e-05
7.56074e-05
7.46006e-05
7.34955e-05
7.23314e-05
7.11644e-05
7.01029e-05
5.73199e-05
1.68207e-05
7.24248e-06
5.05133e-06
4.24335e-06
5.7367e-07
2.26962e-09
2.42177e-09
6.2102e-07
9.73702e-06
9.39372e-06
1.15729e-05
1.77632e-05
3.6113e-05
7.02762e-05
7.12759e-05
7.23409e-05
7.34266e-05
7.44824e-05
7.54604e-05
7.63189e-05
7.70235e-05
7.75498e-05
7.78823e-05
7.80154e-05
7.79261e-05
7.76207e-05
7.71112e-05
7.6414e-05
7.55519e-05
7.4555e-05
7.34618e-05
7.23209e-05
7.11919e-05
7.01542e-05
5.73906e-05
1.68587e-05
7.2158e-06
4.93552e-06
4.6625e-06
6.03972e-07
2.35024e-09
2.42724e-09
6.22892e-07
1.01216e-05
9.57971e-06
1.14754e-05
1.78225e-05
3.62851e-05
7.03394e-05
7.13204e-05
7.23814e-05
7.34718e-05
7.45357e-05
7.55246e-05
7.64003e-05
7.71199e-05
7.76505e-05
7.79743e-05
7.80836e-05
7.79769e-05
7.7659e-05
7.71408e-05
7.64388e-05
7.55765e-05
7.45849e-05
7.35013e-05
7.23702e-05
7.12405e-05
7.01491e-05
5.69576e-05
1.65954e-05
6.86954e-06
4.40572e-06
3.68705e-06
5.56752e-07
2.25725e-09
2.42955e-09
6.22226e-07
1.02829e-05
9.41458e-06
1.1444e-05
1.81941e-05
3.63591e-05
7.04282e-05
7.13885e-05
7.24382e-05
7.35216e-05
7.45817e-05
7.55701e-05
7.64491e-05
7.71682e-05
7.77088e-05
7.80427e-05
7.81548e-05
7.80497e-05
7.77323e-05
7.72138e-05
7.65103e-05
7.56433e-05
7.464e-05
7.35438e-05
7.24128e-05
7.13096e-05
7.03002e-05
5.69522e-05
1.67526e-05
7.23837e-06
4.92087e-06
4.25429e-06
5.77333e-07
2.26734e-09
2.44271e-09
6.26423e-07
9.77649e-06
9.55781e-06
1.16298e-05
1.76203e-05
3.65282e-05
7.04713e-05
7.14424e-05
7.24882e-05
7.3561e-05
7.46069e-05
7.5577e-05
7.64313e-05
7.71372e-05
7.76681e-05
7.79737e-05
7.80721e-05
7.79552e-05
7.76283e-05
7.71018e-05
7.63907e-05
7.55142e-05
7.44927e-05
7.33914e-05
7.22568e-05
7.11446e-05
7.01121e-05
5.61761e-05
1.65103e-05
7.15241e-06
4.87112e-06
4.54197e-06
5.95243e-07
2.31396e-09
2.44552e-09
6.28242e-07
1.03813e-05
1.00192e-05
1.16546e-05
1.79471e-05
3.62032e-05
7.05147e-05
7.14738e-05
7.25156e-05
7.35852e-05
7.46271e-05
7.55929e-05
7.64442e-05
7.7153e-05
7.76611e-05
7.7981e-05
7.80826e-05
7.79676e-05
7.76413e-05
7.71142e-05
7.64024e-05
7.55259e-05
7.45078e-05
7.34078e-05
7.22757e-05
7.11543e-05
7.00832e-05
5.55862e-05
1.61453e-05
6.87586e-06
4.62642e-06
3.93612e-06
5.58524e-07
2.2329e-09
2.45308e-09
6.31559e-07
1.02821e-05
1.01048e-05
1.15923e-05
1.81329e-05
3.59505e-05
7.04967e-05
7.1488e-05
7.25448e-05
7.36192e-05
7.466e-05
7.56213e-05
7.64664e-05
7.7167e-05
7.77033e-05
7.80294e-05
7.81334e-05
7.80158e-05
7.76811e-05
7.71427e-05
7.64246e-05
7.55441e-05
7.45213e-05
7.34133e-05
7.22658e-05
7.11216e-05
7.00417e-05
5.52213e-05
1.62421e-05
6.82086e-06
4.4681e-06
4.37489e-06
5.98729e-07
2.34912e-09
2.43843e-09
6.29163e-07
1.03992e-05
1.12e-05
1.19914e-05
1.80402e-05
3.61911e-05
7.06251e-05
7.16137e-05
7.26702e-05
7.37343e-05
7.47548e-05
7.56937e-05
7.65143e-05
7.71882e-05
7.76954e-05
7.80011e-05
7.81034e-05
7.79845e-05
7.76356e-05
7.70936e-05
7.63938e-05
7.55233e-05
7.45154e-05
7.34289e-05
7.2321e-05
7.13217e-05
7.06337e-05
5.6617e-05
1.74927e-05
9.08031e-06
5.96823e-06
4.57733e-06
5.92335e-07
2.31188e-09
2.46142e-09
6.31873e-07
1.02787e-05
1.06383e-05
1.16721e-05
1.82403e-05
3.68718e-05
7.06785e-05
7.16645e-05
7.2717e-05
7.3785e-05
7.48205e-05
7.5775e-05
7.66007e-05
7.7264e-05
7.77447e-05
7.80291e-05
7.8112e-05
7.79778e-05
7.76293e-05
7.70951e-05
7.63825e-05
7.54874e-05
7.44798e-05
7.33818e-05
7.22406e-05
7.11326e-05
7.01289e-05
5.46635e-05
1.60262e-05
7.08732e-06
5.05324e-06
4.4156e-06
5.80285e-07
2.2458e-09
2.43162e-09
6.23685e-07
1.00687e-05
9.33896e-06
1.15813e-05
1.80231e-05
3.62717e-05
7.07126e-05
7.17115e-05
7.27696e-05
7.38411e-05
7.48696e-05
7.58105e-05
7.66192e-05
7.72729e-05
7.77463e-05
7.80208e-05
7.80854e-05
7.79807e-05
7.76532e-05
7.71181e-05
7.63946e-05
7.55138e-05
7.45269e-05
7.34404e-05
7.23274e-05
7.12216e-05
7.01859e-05
5.4539e-05
1.62369e-05
7.03381e-06
4.79671e-06
4.40437e-06
5.85589e-07
2.28051e-09
2.45224e-09
6.28852e-07
1.00403e-05
9.91589e-06
1.14963e-05
1.78434e-05
3.66857e-05
7.07477e-05
7.17431e-05
7.27996e-05
7.38673e-05
7.48882e-05
7.58121e-05
7.66159e-05
7.72669e-05
7.77404e-05
7.80197e-05
7.80988e-05
7.79819e-05
7.76433e-05
7.71051e-05
7.63816e-05
7.55194e-05
7.45195e-05
7.34486e-05
7.23215e-05
7.11936e-05
7.01052e-05
5.48722e-05
1.60112e-05
6.79505e-06
4.48324e-06
4.43034e-06
5.88732e-07
2.26667e-09
2.44613e-09
6.27689e-07
1.02587e-05
9.43432e-06
1.14364e-05
1.81411e-05
3.60018e-05
7.07388e-05
7.17222e-05
7.2766e-05
7.38298e-05
7.48565e-05
7.57971e-05
7.66114e-05
7.72674e-05
7.77413e-05
7.80167e-05
7.80849e-05
7.79436e-05
7.75971e-05
7.70561e-05
7.6338e-05
7.54672e-05
7.44762e-05
7.34048e-05
7.22906e-05
7.11837e-05
7.01546e-05
5.44053e-05
1.59283e-05
6.91525e-06
5.32781e-06
3.99497e-06
5.62391e-07
2.24715e-09
2.48503e-09
6.38279e-07
1.01705e-05
1.00175e-05
1.18517e-05
1.78884e-05
3.58923e-05
7.08276e-05
7.18148e-05
7.28674e-05
7.39252e-05
7.49413e-05
7.58704e-05
7.66735e-05
7.73195e-05
7.77852e-05
7.80531e-05
7.8114e-05
7.79654e-05
7.76123e-05
7.7066e-05
7.63444e-05
7.54711e-05
7.44769e-05
7.33988e-05
7.22849e-05
7.1195e-05
7.01922e-05
5.32643e-05
1.60715e-05
7.21894e-06
5.57385e-06
4.04426e-06
5.53767e-07
2.18038e-09
2.46314e-09
6.32954e-07
1.04735e-05
1.02089e-05
1.13654e-05
1.76889e-05
3.61147e-05
7.0854e-05
7.18414e-05
7.28805e-05
7.39318e-05
7.49493e-05
7.58814e-05
7.66871e-05
7.73352e-05
7.78025e-05
7.80712e-05
7.81324e-05
7.79843e-05
7.76315e-05
7.70841e-05
7.63591e-05
7.5481e-05
7.44813e-05
7.34005e-05
7.22914e-05
7.11947e-05
7.0207e-05
5.33038e-05
1.59745e-05
7.09635e-06
5.60909e-06
3.93784e-06
5.41396e-07
2.13763e-09
2.46851e-09
6.34875e-07
1.01042e-05
1.08402e-05
1.19572e-05
1.79478e-05
3.60703e-05
7.08619e-05
7.18248e-05
7.28654e-05
7.39218e-05
7.49394e-05
7.58696e-05
7.66735e-05
7.73198e-05
7.77861e-05
7.80524e-05
7.81115e-05
7.79618e-05
7.76076e-05
7.70604e-05
7.63383e-05
7.54657e-05
7.44755e-05
7.34171e-05
7.23297e-05
7.13656e-05
7.07114e-05
5.41325e-05
1.69024e-05
9.02357e-06
5.73987e-06
4.28263e-06
5.48951e-07
2.18283e-09
2.45772e-09
6.29995e-07
1.00814e-05
9.28341e-06
1.13649e-05
1.77851e-05
3.55637e-05
7.08282e-05
7.18085e-05
7.2853e-05
7.39122e-05
7.4933e-05
7.58675e-05
7.6675e-05
7.73234e-05
7.77891e-05
7.80559e-05
7.81153e-05
7.79656e-05
7.76102e-05
7.70629e-05
7.63417e-05
7.54719e-05
7.44941e-05
7.34537e-05
7.24262e-05
7.1512e-05
7.08395e-05
5.40649e-05
1.68589e-05
7.75696e-06
5.16778e-06
4.3636e-06
5.64661e-07
2.21474e-09
2.45836e-09
6.29038e-07
1.00076e-05
9.58496e-06
1.15586e-05
1.76468e-05
3.54079e-05
7.0808e-05
7.18106e-05
7.28623e-05
7.39252e-05
7.49525e-05
7.59019e-05
7.67211e-05
7.7373e-05
7.78379e-05
7.81026e-05
7.81594e-05
7.8007e-05
7.76521e-05
7.71063e-05
7.6387e-05
7.55187e-05
7.45357e-05
7.34848e-05
7.24268e-05
7.14609e-05
7.06462e-05
5.32634e-05
1.64069e-05
7.3873e-06
5.10972e-06
4.62231e-06
5.9674e-07
2.27819e-09
2.49163e-09
6.38836e-07
1.04054e-05
9.76085e-06
1.16432e-05
1.77754e-05
3.53562e-05
7.10376e-05
7.19993e-05
7.30316e-05
7.40802e-05
7.50902e-05
7.60131e-05
7.68152e-05
7.74626e-05
7.79222e-05
7.8182e-05
7.8235e-05
7.80796e-05
7.77211e-05
7.71702e-05
7.64423e-05
7.55584e-05
7.45454e-05
7.34351e-05
7.22936e-05
7.11646e-05
7.00987e-05
5.16099e-05
1.55968e-05
6.77916e-06
4.36809e-06
3.71288e-06
5.40829e-07
2.17298e-09
2.50925e-09
6.42512e-07
1.01207e-05
1.02607e-05
1.16144e-05
1.77785e-05
3.5348e-05
7.10712e-05
7.20522e-05
7.30855e-05
7.41249e-05
7.51168e-05
7.60111e-05
7.67874e-05
7.74008e-05
7.7842e-05
7.8089e-05
7.8133e-05
7.79713e-05
7.76089e-05
7.70564e-05
7.633e-05
7.54524e-05
7.44542e-05
7.33746e-05
7.22467e-05
7.11407e-05
7.01552e-05
5.37447e-05
1.59451e-05
7.13053e-06
5.65504e-06
4.41759e-06
5.7473e-07
2.24389e-09
2.47425e-09
6.35346e-07
1.04663e-05
1.09538e-05
1.18273e-05
1.76069e-05
3.48041e-05
7.10253e-05
7.20216e-05
7.30666e-05
7.4115e-05
7.51164e-05
7.60265e-05
7.67914e-05
7.74142e-05
7.78566e-05
7.81048e-05
7.81496e-05
7.79886e-05
7.76269e-05
7.70758e-05
7.63508e-05
7.54738e-05
7.44729e-05
7.33824e-05
7.2254e-05
7.11684e-05
7.01945e-05
5.3687e-05
1.59899e-05
7.18465e-06
5.49698e-06
4.56569e-06
5.97825e-07
2.31021e-09
2.48787e-09
6.37352e-07
1.01854e-05
9.26869e-06
1.13084e-05
1.74385e-05
3.46086e-05
7.10298e-05
7.20215e-05
7.30661e-05
7.4117e-05
7.51237e-05
7.60418e-05
7.68316e-05
7.74618e-05
7.79098e-05
7.81601e-05
7.82039e-05
7.80396e-05
7.76727e-05
7.71144e-05
7.63802e-05
7.54908e-05
7.44734e-05
7.33625e-05
7.2219e-05
7.10937e-05
7.00646e-05
5.08891e-05
1.54984e-05
6.86956e-06
4.84447e-06
3.86326e-06
5.54775e-07
2.2318e-09
2.49049e-09
6.4135e-07
1.04644e-05
1.03608e-05
1.16068e-05
1.7445e-05
3.43711e-05
7.10043e-05
7.19684e-05
7.29961e-05
7.40374e-05
7.50389e-05
7.59533e-05
7.67411e-05
7.73707e-05
7.7819e-05
7.80702e-05
7.81159e-05
7.79549e-05
7.75928e-05
7.7042e-05
7.63196e-05
7.54498e-05
7.44675e-05
7.34079e-05
7.22953e-05
7.11963e-05
7.01551e-05
5.33435e-05
1.57116e-05
6.72436e-06
4.48994e-06
4.09908e-06
5.58004e-07
2.21763e-09
2.49255e-09
6.40689e-07
1.05263e-05
1.10096e-05
1.15559e-05
1.73387e-05
3.42324e-05
7.10092e-05
7.19793e-05
7.30054e-05
7.4041e-05
7.50373e-05
7.59507e-05
7.67456e-05
7.73844e-05
7.78363e-05
7.80873e-05
7.81314e-05
7.79691e-05
7.76073e-05
7.70587e-05
7.63412e-05
7.5477e-05
7.44955e-05
7.34259e-05
7.23179e-05
7.12371e-05
7.02376e-05
5.40205e-05
1.59889e-05
6.93498e-06
4.62678e-06
4.06681e-06
5.53934e-07
2.16506e-09
2.47702e-09
6.36692e-07
1.05157e-05
1.0773e-05
1.15671e-05
1.72942e-05
3.38832e-05
7.11302e-05
7.21125e-05
7.31514e-05
7.41891e-05
7.51769e-05
7.60732e-05
7.68445e-05
7.7451e-05
7.78747e-05
7.81117e-05
7.81488e-05
7.79821e-05
7.76163e-05
7.7063e-05
7.63396e-05
7.54675e-05
7.4473e-05
7.33862e-05
7.22668e-05
7.11558e-05
7.00993e-05
5.14908e-05
1.55489e-05
6.62005e-06
4.54262e-06
4.3809e-06
5.60491e-07
2.19991e-09
2.46804e-09
6.31212e-07
1.01392e-05
9.35292e-06
1.13322e-05
1.72135e-05
3.37361e-05
7.118e-05
7.21448e-05
7.31705e-05
7.42104e-05
7.52025e-05
7.60948e-05
7.68561e-05
7.74446e-05
7.78654e-05
7.80975e-05
7.81298e-05
7.79591e-05
7.75914e-05
7.70372e-05
7.63155e-05
7.54481e-05
7.44624e-05
7.33955e-05
7.22943e-05
7.12181e-05
7.02319e-05
5.2586e-05
1.58953e-05
6.97509e-06
4.96062e-06
4.60581e-06
6.00826e-07
2.29159e-09
2.4687e-09
6.31613e-07
1.0241e-05
9.49099e-06
1.12829e-05
1.72087e-05
3.36085e-05
7.11511e-05
7.21261e-05
7.31563e-05
7.41874e-05
7.51624e-05
7.60529e-05
7.68169e-05
7.74254e-05
7.78559e-05
7.80926e-05
7.81265e-05
7.79571e-05
7.75887e-05
7.70329e-05
7.63089e-05
7.54379e-05
7.44482e-05
7.33771e-05
7.22727e-05
7.1195e-05
7.02073e-05
5.30684e-05
1.58919e-05
6.9631e-06
4.61558e-06
3.72022e-06
5.49079e-07
2.19726e-09
2.49109e-09
6.36578e-07
1.02649e-05
9.61778e-06
1.13969e-05
1.71443e-05
3.34352e-05
7.11825e-05
7.21483e-05
7.31714e-05
7.41922e-05
7.51851e-05
7.60902e-05
7.6864e-05
7.74776e-05
7.7911e-05
7.81494e-05
7.81843e-05
7.80146e-05
7.76469e-05
7.70926e-05
7.63692e-05
7.54983e-05
7.45077e-05
7.34332e-05
7.232e-05
7.1224e-05
7.02015e-05
5.19968e-05
1.54677e-05
6.73078e-06
4.68732e-06
4.43676e-06
5.76723e-07
2.25791e-09
2.47613e-09
6.35056e-07
1.00688e-05
9.7538e-06
1.15401e-05
1.71615e-05
3.3251e-05
7.12941e-05
7.2276e-05
7.32949e-05
7.43145e-05
7.52874e-05
7.61685e-05
7.69244e-05
7.75413e-05
7.79839e-05
7.82258e-05
7.82624e-05
7.80936e-05
7.77261e-05
7.71717e-05
7.64489e-05
7.55782e-05
7.45863e-05
7.35101e-05
7.23976e-05
7.13092e-05
7.0293e-05
5.20615e-05
1.57689e-05
6.8057e-06
4.54814e-06
3.83618e-06
5.57594e-07
2.22017e-09
2.45288e-09
6.3155e-07
1.03189e-05
9.8863e-06
1.14995e-05
1.70968e-05
3.32271e-05
7.13203e-05
7.22905e-05
7.33081e-05
7.4324e-05
7.52883e-05
7.61538e-05
7.68993e-05
7.74961e-05
7.79083e-05
7.81353e-05
7.81616e-05
7.79859e-05
7.76136e-05
7.70581e-05
7.63387e-05
7.5482e-05
7.45038e-05
7.34292e-05
7.23193e-05
7.12264e-05
7.02019e-05
5.19248e-05
1.55667e-05
6.65564e-06
4.36696e-06
3.93959e-06
5.42664e-07
2.15937e-09
2.47401e-09
6.33216e-07
9.99938e-06
9.76692e-06
1.15358e-05
1.72881e-05
3.29534e-05
7.12223e-05
7.22062e-05
7.3232e-05
7.42575e-05
7.52361e-05
7.61245e-05
7.6896e-05
7.74945e-05
7.79208e-05
7.81511e-05
7.818e-05
7.80064e-05
7.76368e-05
7.70837e-05
7.63639e-05
7.55144e-05
7.45347e-05
7.34716e-05
7.23766e-05
7.13053e-05
7.03635e-05
5.23517e-05
1.58357e-05
7.20681e-06
5.66702e-06
4.21644e-06
5.55504e-07
2.18314e-09
2.47457e-09
6.35301e-07
1.03828e-05
9.67839e-06
1.12365e-05
1.69991e-05
3.28114e-05
7.12619e-05
7.22272e-05
7.32398e-05
7.42572e-05
7.52303e-05
7.61224e-05
7.69127e-05
7.75324e-05
7.7962e-05
7.81946e-05
7.82219e-05
7.80441e-05
7.7669e-05
7.71066e-05
7.63778e-05
7.55069e-05
7.45178e-05
7.34505e-05
7.23515e-05
7.12786e-05
7.03085e-05
5.24426e-05
1.58433e-05
7.01815e-06
4.94055e-06
4.33617e-06
5.65141e-07
2.23704e-09
2.4852e-09
6.37094e-07
1.02614e-05
1.00718e-05
1.13424e-05
1.69853e-05
3.29322e-05
7.1327e-05
7.23202e-05
7.33428e-05
7.43501e-05
7.53022e-05
7.61686e-05
7.69091e-05
7.74893e-05
7.79036e-05
7.81286e-05
7.81545e-05
7.79788e-05
7.76071e-05
7.705e-05
7.63245e-05
7.54532e-05
7.44636e-05
7.33919e-05
7.22839e-05
7.11947e-05
7.01793e-05
5.06132e-05
1.5539e-05
6.89986e-06
4.75944e-06
4.70755e-06
6.12119e-07
2.33852e-09
2.50139e-09
6.40742e-07
1.03593e-05
1.08042e-05
1.16172e-05
1.72663e-05
3.27254e-05
7.13904e-05
7.2363e-05
7.33754e-05
7.43758e-05
7.53168e-05
7.61687e-05
7.69088e-05
7.7511e-05
7.79334e-05
7.8166e-05
7.81994e-05
7.80308e-05
7.76651e-05
7.71115e-05
7.63844e-05
7.55022e-05
7.44931e-05
7.34024e-05
7.22772e-05
7.11622e-05
7.0094e-05
5.17305e-05
1.54779e-05
6.42069e-06
4.2106e-06
3.61377e-06
5.41412e-07
2.18921e-09
2.48611e-09
6.35068e-07
1.00433e-05
9.31115e-06
1.1272e-05
1.68518e-05
3.26482e-05
7.14129e-05
7.23771e-05
7.33666e-05
7.43557e-05
7.52932e-05
7.61574e-05
7.69281e-05
7.75422e-05
7.79729e-05
7.82109e-05
7.82478e-05
7.80798e-05
7.77075e-05
7.71468e-05
7.64201e-05
7.55514e-05
7.45778e-05
7.35383e-05
7.24966e-05
7.15624e-05
7.09485e-05
5.31615e-05
1.68842e-05
8.86786e-06
5.66277e-06
3.89201e-06
5.4693e-07
2.19717e-09
2.51313e-09
6.43284e-07
1.04137e-05
1.01657e-05
1.13337e-05
1.69479e-05
3.27057e-05
7.13921e-05
7.23592e-05
7.33578e-05
7.43469e-05
7.52783e-05
7.61408e-05
7.69098e-05
7.75194e-05
7.79425e-05
7.81632e-05
7.81866e-05
7.80193e-05
7.7659e-05
7.71275e-05
7.64216e-05
7.55707e-05
7.46122e-05
7.35973e-05
7.25706e-05
7.15736e-05
7.06652e-05
4.95886e-05
1.57285e-05
7.24584e-06
5.10092e-06
4.27949e-06
5.65207e-07
2.23092e-09
2.4775e-09
6.34795e-07
1.0452e-05
1.07285e-05
1.14471e-05
1.68381e-05
3.23198e-05
7.06656e-05
7.23743e-05
7.33746e-05
7.43627e-05
7.53096e-05
7.61751e-05
7.69293e-05
7.75237e-05
7.7939e-05
7.81444e-05
7.81677e-05
7.80062e-05
7.7667e-05
7.71371e-05
7.64441e-05
7.56072e-05
7.46771e-05
7.36861e-05
7.26784e-05
7.16933e-05
7.07801e-05
5.34263e-05
1.62418e-05
7.03194e-06
4.99492e-06
4.71468e-06
6.04763e-07
2.36438e-09
2.51586e-09
6.43413e-07
1.0139e-05
9.45097e-06
1.12326e-05
1.68837e-05
3.19601e-05
7.0415e-05
7.23204e-05
7.33237e-05
7.43238e-05
7.52786e-05
7.61454e-05
7.689e-05
7.74894e-05
7.7919e-05
7.81632e-05
7.82163e-05
7.80663e-05
7.77219e-05
7.71956e-05
7.65056e-05
7.56763e-05
7.47347e-05
7.37126e-05
7.26485e-05
7.15793e-05
7.05345e-05
5.31396e-05
1.60034e-05
6.72299e-06
4.31537e-06
3.85061e-06
5.61769e-07
2.21666e-09
2.55954e-09
6.55745e-07
1.03961e-05
1.01497e-05
1.13484e-05
1.67677e-05
3.19066e-05
6.99492e-05
7.24441e-05
7.3411e-05
7.43856e-05
7.53198e-05
7.61721e-05
7.69087e-05
7.75035e-05
7.79378e-05
7.82006e-05
7.825e-05
7.80894e-05
7.77407e-05
7.7213e-05
7.65238e-05
7.56969e-05
7.4767e-05
7.37567e-05
7.26969e-05
7.16489e-05
7.0685e-05
5.06209e-05
1.58837e-05
7.02157e-06
5.24418e-06
3.82739e-06
5.3409e-07
2.15228e-09
2.52612e-09
6.46642e-07
1.04119e-05
1.07877e-05
1.15957e-05
1.66929e-05
3.17703e-05
6.97493e-05
7.26298e-05
7.35954e-05
7.45551e-05
7.54548e-05
7.62714e-05
7.69789e-05
7.75454e-05
7.79531e-05
7.81892e-05
7.82242e-05
7.8071e-05
7.77212e-05
7.71899e-05
7.64954e-05
7.56607e-05
7.47161e-05
7.36906e-05
7.26603e-05
7.17239e-05
7.10853e-05
5.16984e-05
1.68306e-05
8.97079e-06
5.91151e-06
4.22123e-06
5.56359e-07
2.19279e-09
2.50176e-09
6.37271e-07
1.00413e-05
9.23708e-06
1.09886e-05
1.64476e-05
3.14867e-05
6.93885e-05
7.26008e-05
7.35816e-05
7.4559e-05
7.54671e-05
7.62913e-05
7.70014e-05
7.75665e-05
7.79682e-05
7.81902e-05
7.82333e-05
7.8071e-05
7.77163e-05
7.71823e-05
7.64857e-05
7.56505e-05
7.46958e-05
7.36738e-05
7.26219e-05
7.15947e-05
7.06622e-05
5.09502e-05
1.6192e-05
7.16374e-06
5.0091e-06
4.16396e-06
5.61844e-07
2.2004e-09
2.50867e-09
6.40756e-07
1.00536e-05
9.34284e-06
1.09363e-05
1.6403e-05
3.11576e-05
6.86003e-05
7.25588e-05
7.35732e-05
7.45787e-05
7.55155e-05
7.6369e-05
7.70977e-05
7.76755e-05
7.8083e-05
7.83062e-05
7.8335e-05
7.81681e-05
7.7813e-05
7.72799e-05
7.65838e-05
7.57453e-05
7.47826e-05
7.37444e-05
7.26831e-05
7.1646e-05
7.06896e-05
5.0681e-05
1.60437e-05
7.05064e-06
4.85848e-06
4.35477e-06
5.68799e-07
2.19871e-09
2.51847e-09
6.43387e-07
1.01399e-05
9.5248e-06
1.12473e-05
1.63317e-05
3.08509e-05
6.79247e-05
7.25707e-05
7.35683e-05
7.45767e-05
7.55308e-05
7.63881e-05
7.711e-05
7.76796e-05
7.80867e-05
7.83125e-05
7.8345e-05
7.81828e-05
7.78338e-05
7.73085e-05
7.66301e-05
7.58125e-05
7.48574e-05
7.38305e-05
7.27863e-05
7.17714e-05
7.08206e-05
5.1327e-05
1.61624e-05
6.99137e-06
4.71673e-06
4.47083e-06
5.81735e-07
2.2315e-09
2.55111e-09
6.50001e-07
1.01181e-05
9.50944e-06
1.11029e-05
1.62747e-05
3.07684e-05
6.80548e-05
7.25831e-05
7.35629e-05
7.45484e-05
7.54866e-05
7.63383e-05
7.70698e-05
7.76588e-05
7.80732e-05
7.83012e-05
7.83342e-05
7.8172e-05
7.78224e-05
7.72951e-05
7.6608e-05
7.5777e-05
7.48395e-05
7.38441e-05
7.2827e-05
7.18361e-05
7.08984e-05
5.14988e-05
1.63073e-05
6.94124e-06
4.54928e-06
3.71079e-06
5.40846e-07
2.12652e-09
2.55605e-09
6.53177e-07
1.01407e-05
9.49186e-06
1.11122e-05
1.62965e-05
3.03737e-05
6.67267e-05
7.26261e-05
7.35946e-05
7.45643e-05
7.54905e-05
7.63331e-05
7.70674e-05
7.76495e-05
7.80606e-05
7.82888e-05
7.83236e-05
7.81639e-05
7.78159e-05
7.72934e-05
7.66036e-05
7.57896e-05
7.48726e-05
7.38819e-05
7.28595e-05
7.18591e-05
7.09283e-05
5.2273e-05
1.64828e-05
7.05109e-06
4.61674e-06
3.58839e-06
5.18922e-07
2.08274e-09
2.54841e-09
6.49059e-07
1.01522e-05
9.58159e-06
1.10633e-05
1.61585e-05
3.01883e-05
6.66272e-05
7.26807e-05
7.36515e-05
7.46218e-05
7.55453e-05
7.63834e-05
7.7104e-05
7.76811e-05
7.80943e-05
7.8327e-05
7.83724e-05
7.82193e-05
7.78666e-05
7.73374e-05
7.6655e-05
7.58401e-05
7.49189e-05
7.3921e-05
7.28874e-05
7.18693e-05
7.09114e-05
5.1995e-05
1.61795e-05
6.81103e-06
4.4223e-06
3.60429e-06
5.26272e-07
2.12907e-09
2.60135e-09
6.62473e-07
1.02141e-05
9.76259e-06
1.10775e-05
1.60972e-05
2.99274e-05
6.59913e-05
7.27725e-05
7.37709e-05
7.47654e-05
7.57002e-05
7.65423e-05
7.72619e-05
7.78337e-05
7.82374e-05
7.84568e-05
7.84823e-05
7.83005e-05
7.79374e-05
7.74128e-05
7.67353e-05
7.5924e-05
7.50035e-05
7.40015e-05
7.29584e-05
7.19286e-05
7.09703e-05
5.24442e-05
1.6589e-05
7.01157e-06
4.68209e-06
4.31914e-06
5.66427e-07
2.23688e-09
2.61303e-09
6.67618e-07
1.03651e-05
1.0966e-05
1.13351e-05
1.60535e-05
2.96314e-05
6.52188e-05
7.28387e-05
7.38203e-05
7.48075e-05
7.57394e-05
7.658e-05
7.72978e-05
7.78666e-05
7.82665e-05
7.84827e-05
7.85014e-05
7.83071e-05
7.79485e-05
7.74291e-05
7.67593e-05
7.59545e-05
7.50369e-05
7.40327e-05
7.29813e-05
7.19357e-05
7.0952e-05
5.164e-05
1.64864e-05
6.98812e-06
4.69952e-06
4.52666e-06
5.89444e-07
2.25912e-09
2.60172e-09
6.61574e-07
1.01601e-05
9.26324e-06
1.0885e-05
1.58735e-05
2.93575e-05
6.4706e-05
7.28577e-05
7.38088e-05
7.47682e-05
7.56865e-05
7.65219e-05
7.72399e-05
7.78134e-05
7.82222e-05
7.84519e-05
7.84915e-05
7.83373e-05
7.80121e-05
7.75235e-05
7.68837e-05
7.61104e-05
7.5227e-05
7.42594e-05
7.32423e-05
7.22174e-05
7.12214e-05
5.20405e-05
1.69722e-05
7.08652e-06
4.57449e-06
3.83303e-06
5.57734e-07
2.20989e-09
2.64446e-09
6.72789e-07
1.01802e-05
9.50402e-06
1.10515e-05
1.58237e-05
2.91349e-05
6.41649e-05
7.29753e-05
7.39272e-05
7.48962e-05
7.58208e-05
7.66538e-05
7.73689e-05
7.79418e-05
7.8352e-05
7.85844e-05
7.86274e-05
7.84791e-05
7.81486e-05
7.76352e-05
7.69705e-05
7.61839e-05
7.52922e-05
7.43171e-05
7.32913e-05
7.22559e-05
7.12511e-05
5.37955e-05
1.70213e-05
7.00927e-06
4.45976e-06
4.27412e-06
5.7776e-07
2.25667e-09
2.65317e-09
6.74722e-07
1.03593e-05
9.87525e-06
1.10987e-05
1.58193e-05
2.89909e-05
6.35991e-05
7.30057e-05
7.39704e-05
7.49207e-05
7.58259e-05
7.66591e-05
7.7383e-05
7.79772e-05
7.84084e-05
7.86504e-05