/*--------------------------------*- C++ -*----------------------------------*\
  =========                 |
  \\      /  F ield         | OpenFOAM: The Open Source CFD Toolbox
   \\    /   O peration     | Website:  https://openfoam.org
    \\  /    A nd           | Version:  13
     \\/     M anipulation  |
\*---------------------------------------------------------------------------*/
FoamFile
{
    format      ascii;
    class       volScalarField;
    location    "3";
    object      nut;
}
// * * * * * * * * * * * * * * * * * * * * * * * * * * * * * * * * * * * * * //

dimensions      [0 2 -1 0 0 0 0];

internalField   nonuniform List<scalar> 
78750
(
2.52788e-10
5.50165e-08
1.3251e-06
2.49277e-06
3.54909e-06
3.6861e-06
3.4932e-06
3.17787e-06
2.86937e-06
2.57301e-06
2.317e-06
2.09071e-06
1.92471e-06
1.80031e-06
1.70075e-06
1.68021e-06
1.67234e-06
1.6801e-06
1.70799e-06
1.74774e-06
1.78549e-06
1.8298e-06
1.87529e-06
1.91713e-06
1.95552e-06
1.96558e-06
1.99009e-06
1.9835e-06
1.97288e-06
1.95607e-06
1.95181e-06
1.87287e-06
1.58229e-06
2.54926e-07
1.77872e-09
1.36873e-09
3.6239e-07
8.47317e-06
7.59666e-06
9.74956e-06
2.11291e-05
5.24406e-05
5.19112e-05
5.19217e-05
5.22115e-05
5.26672e-05
5.31979e-05
5.37907e-05
5.22037e-05
5.11035e-05
5.05073e-05
5.15285e-05
4.667e-05
4.66195e-05
4.67258e-05
4.68819e-05
4.70366e-05
4.71606e-05
4.72546e-05
4.72503e-05
4.71084e-05
4.68863e-05
4.65799e-05
4.61792e-05
2.61532e-05
1.01074e-05
4.8933e-06
3.54081e-06
5.8912e-07
3.03831e-09
1.51345e-09
3.94954e-07
7.00108e-06
7.61502e-06
9.45321e-06
1.94947e-05
4.67292e-05
4.68495e-05
4.71253e-05
4.75327e-05
4.80364e-05
4.85949e-05
4.91698e-05
4.973e-05
5.02498e-05
5.07113e-05
5.10988e-05
5.1403e-05
5.16213e-05
5.17528e-05
5.17662e-05
5.16616e-05
5.147e-05
5.11971e-05
5.08421e-05
5.0411e-05
4.99252e-05
4.94095e-05
4.88851e-05
1.82964e-05
7.61557e-06
4.17997e-06
3.40631e-06
5.78906e-07
2.64854e-09
1.58101e-09
4.06948e-07
7.2826e-06
6.63867e-06
8.44793e-06
1.58056e-05
4.00098e-05
4.7614e-05
4.8183e-05
4.88317e-05
4.95351e-05
5.02591e-05
5.09692e-05
5.16335e-05
5.22248e-05
5.27233e-05
5.31147e-05
5.33912e-05
5.3551e-05
5.3575e-05
5.34533e-05
5.31829e-05
5.2799e-05
5.23106e-05
5.17373e-05
5.11111e-05
5.04646e-05
4.98296e-05
3.77771e-05
1.46822e-05
6.6016e-06
3.80066e-06
3.28536e-06
5.33506e-07
2.2186e-09
1.59869e-09
4.16568e-07
7.38611e-06
7.04236e-06
8.94529e-06
1.65745e-05
4.09424e-05
4.81377e-05
4.87178e-05
4.93965e-05
5.01325e-05
5.08826e-05
5.16068e-05
5.22721e-05
5.28522e-05
5.33249e-05
5.36758e-05
5.38961e-05
5.39831e-05
5.39258e-05
5.37119e-05
5.33677e-05
5.29088e-05
5.23481e-05
5.1703e-05
5.10132e-05
5.03069e-05
4.96178e-05
3.55089e-05
1.26702e-05
5.62471e-06
3.30341e-06
2.56112e-06
4.73049e-07
1.97717e-09
1.63012e-09
4.22743e-07
7.28841e-06
6.96195e-06
8.65312e-06
1.52276e-05
3.57981e-05
4.82799e-05
4.88732e-05
4.95626e-05
5.03066e-05
5.10609e-05
5.17851e-05
5.24455e-05
5.30157e-05
5.34762e-05
5.38123e-05
5.40083e-05
5.40574e-05
5.39533e-05
5.36846e-05
5.32912e-05
5.27834e-05
5.21789e-05
5.15022e-05
5.07848e-05
5.00663e-05
4.93924e-05
3.25158e-05
1.14067e-05
5.42078e-06
3.9924e-06
3.10245e-06
4.47788e-07
1.79173e-09
1.65466e-09
4.29536e-07
7.39203e-06
7.02245e-06
8.55041e-06
1.46306e-05
3.37017e-05
4.84671e-05
4.90299e-05
4.97007e-05
5.04331e-05
5.11786e-05
5.18941e-05
5.2544e-05
5.31014e-05
5.3548e-05
5.38716e-05
5.4045e-05
5.4061e-05
5.39224e-05
5.36375e-05
5.32251e-05
5.26991e-05
5.20792e-05
5.13917e-05
5.06702e-05
4.99565e-05
4.93003e-05
3.16673e-05
1.08805e-05
5.23309e-06
3.94958e-06
3.24085e-06
4.39271e-07
1.71794e-09
1.67284e-09
4.34046e-07
7.42078e-06
7.254e-06
8.3959e-06
1.39327e-05
3.09665e-05
4.85326e-05
4.91066e-05
4.97823e-05
5.05149e-05
5.12569e-05
5.19657e-05
5.26058e-05
5.31499e-05
5.35789e-05
5.38818e-05
5.40327e-05
5.40255e-05
5.38705e-05
5.3569e-05
5.31379e-05
5.25919e-05
5.19524e-05
5.12472e-05
5.05119e-05
4.97917e-05
4.91326e-05
3.02208e-05
1.02585e-05
4.90527e-06
3.76717e-06
3.49493e-06
4.4367e-07
1.73589e-09
1.66557e-09
4.32599e-07
7.44421e-06
7.79438e-06
8.41163e-06
1.35052e-05
2.89369e-05
4.85345e-05
4.91275e-05
4.98157e-05
5.05544e-05
5.1298e-05
5.2005e-05
5.26408e-05
5.3178e-05
5.35969e-05
5.38845e-05
5.4032e-05
5.40178e-05
5.38537e-05
5.35469e-05
5.31103e-05
5.256e-05
5.19176e-05
5.12108e-05
5.04732e-05
4.9742e-05
4.90576e-05
3.00784e-05
1.04241e-05
5.05199e-06
3.37712e-06
3.07807e-06
4.41093e-07
1.73806e-09
1.67528e-09
4.34888e-07
7.462e-06
7.81661e-06
8.29819e-06
1.29202e-05
2.71885e-05
4.86176e-05
4.92022e-05
4.98829e-05
5.06149e-05
5.13516e-05
5.20509e-05
5.26781e-05
5.3206e-05
5.36148e-05
5.3892e-05
5.4031e-05
5.40161e-05
5.38439e-05
5.35245e-05
5.30723e-05
5.25081e-05
5.18539e-05
5.11373e-05
5.0393e-05
4.96637e-05
4.89965e-05
3.08679e-05
1.04203e-05
5.00191e-06
3.85254e-06
3.21677e-06
4.28067e-07
1.66902e-09
1.67017e-09
4.3348e-07
7.3139e-06
7.76496e-06
8.39577e-06
1.27936e-05
2.63705e-05
4.86768e-05
4.92557e-05
4.99333e-05
5.0662e-05
5.13941e-05
5.2088e-05
5.27092e-05
5.32306e-05
5.36326e-05
5.39028e-05
5.40366e-05
5.40111e-05
5.38327e-05
5.35045e-05
5.30489e-05
5.24838e-05
5.18302e-05
5.11222e-05
5.04079e-05
4.97626e-05
4.93266e-05
3.21809e-05
1.12343e-05
6.50287e-06
4.40781e-06
3.27159e-06
4.20206e-07
1.63378e-09
1.69214e-09
4.35561e-07
7.21665e-06
6.60956e-06
7.94576e-06
1.2378e-05
2.53611e-05
4.86546e-05
4.92685e-05
4.9959e-05
5.06929e-05
5.14267e-05
5.21209e-05
5.27424e-05
5.32658e-05
5.36725e-05
5.39412e-05
5.40592e-05
5.40238e-05
5.38342e-05
5.34926e-05
5.30241e-05
5.24439e-05
5.17738e-05
5.1045e-05
5.02968e-05
4.95704e-05
4.89194e-05
3.18702e-05
1.03368e-05
5.04878e-06
3.54685e-06
2.81811e-06
4.05426e-07
1.61847e-09
1.71246e-09
4.42206e-07
7.29594e-06
6.99165e-06
8.1646e-06
1.24121e-05
2.48239e-05
4.8759e-05
4.93398e-05
5.00074e-05
5.07248e-05
5.14511e-05
5.21421e-05
5.27633e-05
5.3289e-05
5.37009e-05
5.39646e-05
5.40733e-05
5.40299e-05
5.38345e-05
5.34861e-05
5.30154e-05
5.24327e-05
5.17613e-05
5.10303e-05
5.02765e-05
4.95465e-05
4.88897e-05
3.28303e-05
1.04318e-05
4.97157e-06
3.52568e-06
3.00908e-06
4.1591e-07
1.63497e-09
1.7109e-09
4.41496e-07
7.38524e-06
7.2705e-06
8.16105e-06
1.21397e-05
2.40889e-05
4.87442e-05
4.93491e-05
5.00203e-05
5.07383e-05
5.14632e-05
5.21505e-05
5.27655e-05
5.32822e-05
5.36823e-05
5.39381e-05
5.40481e-05
5.40064e-05
5.38163e-05
5.34792e-05
5.30112e-05
5.24267e-05
5.17442e-05
5.09956e-05
5.02231e-05
4.94726e-05
4.87843e-05
3.27093e-05
1.01351e-05
4.70987e-06
3.35928e-06
3.23282e-06
4.19638e-07
1.63761e-09
1.69594e-09
4.37556e-07
7.33402e-06
7.65458e-06
8.20196e-06
1.20325e-05
2.36954e-05
4.87229e-05
4.93282e-05
5.00147e-05
5.07473e-05
5.14785e-05
5.21679e-05
5.2781e-05
5.32917e-05
5.3682e-05
5.39431e-05
5.40505e-05
5.40042e-05
5.38104e-05
5.34739e-05
5.30058e-05
5.24224e-05
5.17458e-05
5.10068e-05
5.02373e-05
4.9478e-05
4.87683e-05
3.30655e-05
1.02953e-05
4.70509e-06
3.1345e-06
2.69805e-06
4.03707e-07
1.60993e-09
1.69728e-09
4.3628e-07
7.13515e-06
6.55153e-06
7.86534e-06
1.18485e-05
2.33542e-05
4.87279e-05
4.93597e-05
5.00597e-05
5.07978e-05
5.15347e-05
5.22355e-05
5.28588e-05
5.33727e-05
5.37585e-05
5.40027e-05
5.40982e-05
5.40428e-05
5.3839e-05
5.34938e-05
5.30198e-05
5.24355e-05
5.17683e-05
5.10297e-05
5.02596e-05
4.95008e-05
4.87962e-05
3.36256e-05
1.03752e-05
4.75112e-06
3.701e-06
3.0073e-06
4.06386e-07
1.60571e-09
1.70587e-09
4.39736e-07
7.3243e-06
6.97792e-06
7.94192e-06
1.18574e-05
2.32247e-05
4.87946e-05
4.94135e-05
5.01032e-05
5.08337e-05
5.15687e-05
5.22705e-05
5.28911e-05
5.34091e-05
5.38002e-05
5.4045e-05
5.41388e-05
5.40821e-05
5.38773e-05
5.35309e-05
5.30552e-05
5.24674e-05
5.17916e-05
5.10612e-05
5.03242e-05
4.96576e-05
4.9204e-05
3.44577e-05
1.10918e-05
6.26309e-06
4.21543e-06
3.29401e-06
4.18672e-07
1.60923e-09
1.71827e-09
4.43488e-07
7.28162e-06
7.22833e-06
8.29405e-06
1.18729e-05
2.30652e-05
4.87876e-05
4.94157e-05
5.01052e-05
5.08345e-05
5.15643e-05
5.2255e-05
5.28754e-05
5.33974e-05
5.37829e-05
5.40222e-05
5.4111e-05
5.40499e-05
5.38403e-05
5.34895e-05
5.30099e-05
5.242e-05
5.17467e-05
5.10264e-05
5.03134e-05
4.96848e-05
4.92365e-05
3.41489e-05
1.09171e-05
5.3303e-06
3.78835e-06
3.35971e-06
4.30747e-07
1.65147e-09
1.69545e-09
4.40047e-07
7.53205e-06
7.96253e-06
9.38775e-06
1.23959e-05
2.29562e-05
4.89588e-05
4.94616e-05
5.01164e-05
5.08381e-05
5.15648e-05
5.22534e-05
5.28742e-05
5.33783e-05
5.37599e-05
5.39988e-05
5.40897e-05
5.40357e-05
5.38332e-05
5.34843e-05
5.30047e-05
5.24145e-05
5.17412e-05
5.10198e-05
5.03031e-05
4.96485e-05
4.91072e-05
3.44763e-05
1.08562e-05
5.12288e-06
3.49749e-06
2.70709e-06
3.97182e-07
1.57598e-09
1.69725e-09
4.36017e-07
7.33344e-06
7.32848e-06
7.8241e-06
1.18368e-05
2.24313e-05
4.87683e-05
4.9408e-05
5.01118e-05
5.08462e-05
5.1572e-05
5.22528e-05
5.28578e-05
5.33615e-05
5.37365e-05
5.39661e-05
5.40604e-05
5.40066e-05
5.37903e-05
5.3433e-05
5.29461e-05
5.23461e-05
5.16553e-05
5.09033e-05
5.01239e-05
4.93437e-05
4.86159e-05
3.37091e-05
1.01059e-05
4.53702e-06
3.11085e-06
2.78481e-06
3.98884e-07
1.60766e-09
1.6934e-09
4.33639e-07
6.93357e-06
6.55683e-06
7.82736e-06
1.15649e-05
2.24414e-05
4.88271e-05
4.9466e-05
5.01567e-05
5.08792e-05
5.15959e-05
5.22691e-05
5.28685e-05
5.33719e-05
5.37329e-05
5.3969e-05
5.40741e-05
5.40092e-05
5.37962e-05
5.34413e-05
5.29565e-05
5.23583e-05
5.16678e-05
5.09107e-05
5.01277e-05
4.9356e-05
4.86587e-05
3.37905e-05
1.02069e-05
4.67887e-06
3.34325e-06
3.03157e-06
4.05484e-07
1.6089e-09
1.69459e-09
4.35158e-07
7.27454e-06
6.93261e-06
7.79601e-06
1.14858e-05
2.24492e-05
4.88343e-05
4.94754e-05
5.01719e-05
5.08977e-05
5.1613e-05
5.2282e-05
5.28748e-05
5.33686e-05
5.37467e-05
5.39929e-05
5.40937e-05
5.40349e-05
5.38253e-05
5.34715e-05
5.29851e-05
5.23829e-05
5.16868e-05
5.09246e-05
5.01278e-05
4.93562e-05
4.86419e-05
3.34511e-05
1.01091e-05
4.63623e-06
3.31167e-06
3.16556e-06
4.08014e-07
1.60255e-09
1.70784e-09
4.40069e-07
7.21214e-06
7.6735e-06
7.92275e-06
1.16894e-05
2.22408e-05
4.88261e-05
4.94688e-05
5.0176e-05
5.09083e-05
5.16267e-05
5.22962e-05
5.28874e-05
5.33779e-05
5.37544e-05
5.39855e-05
5.40648e-05
5.39967e-05
5.37808e-05
5.34236e-05
5.29368e-05
5.23373e-05
5.16474e-05
5.08952e-05
5.01153e-05
4.9347e-05
4.86307e-05
3.34242e-05
1.00546e-05
4.44023e-06
3.00608e-06
2.56023e-06
3.88433e-07
1.57529e-09
1.70569e-09
4.40482e-07
7.39964e-06
7.50029e-06
7.95996e-06
1.15434e-05
2.2282e-05
4.88571e-05
4.95007e-05
5.0208e-05
5.09431e-05
5.16672e-05
5.23458e-05
5.29506e-05
5.34468e-05
5.38118e-05
5.40359e-05
5.41107e-05
5.40349e-05
5.38126e-05
5.34515e-05
5.29643e-05
5.23683e-05
5.1687e-05
5.09525e-05
5.02105e-05
4.95345e-05
4.9059e-05
3.41893e-05
1.08625e-05
6.00417e-06
4.0037e-06
2.95648e-06
3.89807e-07
1.55566e-09
1.71372e-09
4.42267e-07
7.47031e-06
7.52448e-06
7.93825e-06
1.1706e-05
2.24466e-05
4.89152e-05
4.95483e-05
5.02478e-05
5.09779e-05
5.16999e-05
5.23803e-05
5.29939e-05
5.34936e-05
5.38603e-05
5.40847e-05
5.41597e-05
5.40839e-05
5.38608e-05
5.34978e-05
5.30069e-05
5.24052e-05
5.1716e-05
5.09682e-05
5.01968e-05
4.94445e-05
4.87533e-05
3.34256e-05
1.01127e-05
4.70088e-06
3.36646e-06
3.05599e-06
4.06858e-07
1.58374e-09
1.70209e-09
4.37968e-07
7.28125e-06
7.73749e-06
7.89596e-06
1.13612e-05
2.2421e-05
4.89718e-05
4.95974e-05
5.02847e-05
5.10045e-05
5.1715e-05
5.23815e-05
5.29774e-05
5.34595e-05
5.38138e-05
5.40308e-05
5.40984e-05
5.40159e-05
5.37872e-05
5.34196e-05
5.29252e-05
5.23222e-05
5.16384e-05
5.08923e-05
5.01109e-05
4.93296e-05
4.85869e-05
3.28604e-05
9.88909e-06
4.51925e-06
3.10665e-06
2.59644e-06
3.79656e-07
1.54297e-09
1.70153e-09
4.35392e-07
7.13934e-06
6.54958e-06
7.79867e-06
1.16449e-05
2.22722e-05
4.89512e-05
4.96011e-05
5.02962e-05
5.10169e-05
5.17246e-05
5.23844e-05
5.29663e-05
5.34445e-05
5.38089e-05
5.40329e-05
5.4104e-05
5.40231e-05
5.3795e-05
5.34275e-05
5.29326e-05
5.23277e-05
5.16382e-05
5.08907e-05
5.012e-05
4.93628e-05
4.86804e-05
3.28072e-05
9.84283e-06
4.54163e-06
3.64151e-06
2.9089e-06
3.86162e-07
1.53712e-09
1.71206e-09
4.39431e-07
7.22937e-06
6.80012e-06
7.82101e-06
1.16578e-05
2.24047e-05
4.8954e-05
4.96087e-05
5.03151e-05
5.10407e-05
5.17491e-05
5.24079e-05
5.299e-05
5.34742e-05
5.38458e-05
5.40735e-05
5.41449e-05
5.40602e-05
5.38224e-05
5.34472e-05
5.29419e-05
5.23242e-05
5.16277e-05
5.08995e-05
5.0166e-05
4.95074e-05
4.90717e-05
3.3382e-05
1.07495e-05
6.05956e-06
4.12195e-06
3.29058e-06
4.1734e-07
1.65054e-09
1.70908e-09
4.39754e-07
7.22674e-06
6.84713e-06
7.97654e-06
1.16752e-05
2.24048e-05
4.90659e-05
4.97001e-05
5.03944e-05
5.11095e-05
5.18072e-05
5.24534e-05
5.30205e-05
5.34881e-05
5.38425e-05
5.40631e-05
5.41316e-05
5.40423e-05
5.38012e-05
5.34358e-05
5.29288e-05
5.23254e-05
5.16455e-05
5.09244e-05
5.02048e-05
4.95632e-05
4.90935e-05
3.33968e-05
1.05546e-05
5.26425e-06
3.62482e-06
2.74569e-06
3.93807e-07
1.58057e-09
1.71899e-09
4.40925e-07
7.25744e-06
7.16393e-06
7.8396e-06
1.15271e-05
2.27316e-05
4.908e-05
4.97286e-05
5.04308e-05
5.11528e-05
5.18574e-05
5.25129e-05
5.30834e-05
5.3543e-05
5.3878e-05
5.40807e-05
5.41368e-05
5.40489e-05
5.38141e-05
5.34393e-05
5.29343e-05
5.2322e-05
5.16248e-05
5.08714e-05
5.01009e-05
4.93658e-05
4.8703e-05
3.2191e-05
9.74925e-06
4.55951e-06
3.38764e-06
3.12432e-06
4.08115e-07
1.59739e-09
1.69829e-09
4.36625e-07
7.36696e-06
7.36471e-06
7.81989e-06
1.18026e-05
2.24752e-05
4.91201e-05
4.97743e-05
5.04787e-05
5.11991e-05
5.1897e-05
5.25382e-05
5.30932e-05
5.3544e-05
5.38721e-05
5.40603e-05
5.41298e-05
5.4041e-05
5.37973e-05
5.34169e-05
5.29193e-05
5.23157e-05
5.16313e-05
5.08861e-05
5.01204e-05
4.93665e-05
4.86545e-05
3.19818e-05
9.765e-06
4.40459e-06
3.11347e-06
3.18927e-06
4.20701e-07
1.63644e-09
1.70331e-09
4.36768e-07
7.06791e-06
6.80371e-06
7.79024e-06
1.14923e-05
2.2277e-05
4.91095e-05
4.97831e-05
5.04942e-05
5.12155e-05
5.19104e-05
5.25444e-05
5.30981e-05
5.35482e-05
5.38782e-05
5.40737e-05
5.41343e-05
5.40367e-05
5.37879e-05
5.34126e-05
5.29215e-05
5.23258e-05
5.16416e-05
5.09124e-05
5.01734e-05
4.94993e-05
4.90397e-05
3.30194e-05
1.05557e-05
5.99635e-06
3.96244e-06
2.75411e-06
3.94646e-07
1.57278e-09
1.71426e-09
4.40799e-07
7.39372e-06
7.62024e-06
7.92164e-06
1.15592e-05
2.2561e-05
4.90863e-05
4.97749e-05
5.04722e-05
5.1189e-05
5.18863e-05
5.25294e-05
5.30889e-05
5.35414e-05
5.38691e-05
5.40602e-05
5.41062e-05
5.4006e-05
5.37635e-05
5.33861e-05
5.28865e-05
5.22825e-05
5.15981e-05
5.08629e-05
5.01049e-05
4.93623e-05
4.86835e-05
3.20598e-05
9.64612e-06
4.54571e-06
3.4983e-06
3.00825e-06
3.89906e-07
1.55548e-09
1.71715e-09
4.38824e-07
7.07787e-06
6.42593e-06
7.79949e-06
1.16486e-05
2.22424e-05
4.919e-05
4.9847e-05
5.05451e-05
5.12581e-05
5.19491e-05
5.25851e-05
5.31376e-05
5.35835e-05
5.3905e-05
5.40904e-05
5.41311e-05
5.40264e-05
5.37807e-05
5.34012e-05
5.29005e-05
5.22961e-05
5.16111e-05
5.08751e-05
5.01125e-05
4.93651e-05
4.86698e-05
3.15234e-05
9.72992e-06
4.5663e-06
3.31704e-06
3.0698e-06
4.03313e-07
1.58331e-09
1.71804e-09
4.41021e-07
7.3237e-06
6.84031e-06
7.73697e-06
1.14408e-05
2.20536e-05
4.91948e-05
4.98386e-05
5.05371e-05
5.12524e-05
5.19464e-05
5.25873e-05
5.31488e-05
5.36049e-05
5.3932e-05
5.4117e-05
5.41495e-05
5.40358e-05
5.37859e-05
5.34035e-05
5.29001e-05
5.22943e-05
5.16114e-05
5.0869e-05
5.01037e-05
4.93724e-05
4.87103e-05
3.15809e-05
9.71975e-06
4.56395e-06
3.33247e-06
2.93719e-06
3.93602e-07
1.5352e-09
1.73536e-09
4.45995e-07
7.08699e-06
7.12935e-06
7.88916e-06
1.14058e-05
2.2236e-05
4.91722e-05
4.98343e-05
5.05395e-05
5.1255e-05
5.19477e-05
5.25858e-05
5.31424e-05
5.35878e-05
5.39055e-05
5.40943e-05
5.41301e-05
5.40233e-05
5.37765e-05
5.33964e-05
5.28959e-05
5.22929e-05
5.1615e-05
5.089e-05
5.01922e-05
4.95832e-05
4.91424e-05
3.20556e-05
1.02108e-05
5.07348e-06
3.44314e-06
3.11966e-06
4.00673e-07
1.57257e-09
1.72419e-09
4.44131e-07
7.49933e-06
7.55644e-06
7.87115e-06
1.1516e-05
2.20504e-05
4.86643e-05
4.98436e-05
5.05329e-05
5.12443e-05
5.19368e-05
5.25743e-05
5.31253e-05
5.35619e-05
5.38842e-05
5.40808e-05
5.41247e-05
5.40198e-05
5.37728e-05
5.33925e-05
5.28925e-05
5.22922e-05
5.16183e-05
5.0922e-05
5.02348e-05
4.96084e-05
4.90812e-05
3.20404e-05
1.0096e-05
4.81156e-06
3.44866e-06
3.18067e-06
4.14566e-07
1.58917e-09
1.73315e-09
4.44594e-07
7.31961e-06
7.66782e-06
7.93786e-06
1.15253e-05
2.19548e-05
4.84134e-05
4.98483e-05
5.05438e-05
5.12591e-05
5.19578e-05
5.26083e-05
5.31721e-05
5.36224e-05
5.39444e-05
5.41285e-05
5.41669e-05
5.40596e-05
5.38123e-05
5.34327e-05
5.29335e-05
5.2333e-05
5.16557e-05
5.09335e-05
5.02072e-05
4.95243e-05
4.8894e-05
3.1314e-05
9.79879e-06
4.52503e-06
3.05283e-06
2.62523e-06
3.81335e-07
1.53735e-09
1.73064e-09
4.42703e-07
7.31966e-06
6.51406e-06
7.72753e-06
1.14345e-05
2.18938e-05
4.82796e-05
4.99747e-05
5.06665e-05
5.1373e-05
5.20593e-05
5.26946e-05
5.32431e-05
5.3683e-05
5.39991e-05
5.4179e-05
5.42141e-05
5.41036e-05
5.38525e-05
5.34679e-05
5.29611e-05
5.23487e-05
5.1653e-05
5.09056e-05
5.01623e-05
4.95014e-05
4.90709e-05
3.13044e-05
1.03143e-05
5.8747e-06
4.00389e-06
3.01333e-06
3.85517e-07
1.52424e-09
1.74312e-09
4.45747e-07
7.17838e-06
6.7705e-06
7.8262e-06
1.14881e-05
2.19087e-05
4.83109e-05
5.00014e-05
5.06951e-05
5.13971e-05
5.20711e-05
5.26832e-05
5.32089e-05
5.36358e-05
5.39413e-05
5.41133e-05
5.41426e-05
5.4028e-05
5.37746e-05
5.33893e-05
5.2884e-05
5.22758e-05
5.15881e-05
5.08523e-05
5.01005e-05
4.93752e-05
4.87339e-05
3.18968e-05
9.76554e-06
4.74409e-06
3.63642e-06
3.15241e-06
4.08141e-07
1.58087e-09
1.74689e-09
4.49074e-07
7.37633e-06
7.18147e-06
7.98165e-06
1.13852e-05
2.15793e-05
4.75877e-05
4.99915e-05
5.06863e-05
5.1392e-05
5.20702e-05
5.26849e-05
5.32211e-05
5.3651e-05
5.39577e-05
5.41303e-05
5.416e-05
5.40456e-05
5.37925e-05
5.34078e-05
5.29029e-05
5.22939e-05
5.16031e-05
5.08607e-05
5.00965e-05
4.9354e-05
4.86777e-05
3.17479e-05
9.6647e-06
4.50289e-06
3.19402e-06
2.64127e-06
3.87021e-07
1.56691e-09
1.74842e-09
4.49728e-07
7.47818e-06
7.56474e-06
7.94224e-06
1.13842e-05
2.15368e-05
4.75073e-05
4.99914e-05
5.06853e-05
5.13929e-05
5.2077e-05
5.27045e-05
5.3247e-05
5.36817e-05
5.39917e-05
5.41657e-05
5.41949e-05
5.40783e-05
5.38217e-05
5.34323e-05
5.29212e-05
5.23038e-05
5.15998e-05
5.0834e-05
5.00464e-05
4.92851e-05
4.85749e-05
2.98806e-05
9.33391e-06
4.32384e-06
3.08234e-06
2.8361e-06
3.7919e-07
1.51883e-09
1.74329e-09
4.47018e-07
7.35223e-06
6.82076e-06
7.82223e-06
1.13113e-05
2.13675e-05
4.71039e-05
4.99446e-05
5.06302e-05
5.13316e-05
5.20115e-05
5.26364e-05
5.31777e-05
5.36123e-05
5.39226e-05
5.40974e-05
5.41279e-05
5.40139e-05
5.37614e-05
5.3379e-05
5.28803e-05
5.22871e-05
5.16143e-05
5.08873e-05
5.01651e-05
4.95189e-05
4.90904e-05
3.23511e-05
1.0399e-05
5.98994e-06
4.10934e-06
3.10595e-06
3.98881e-07
1.56401e-09
1.74399e-09
4.46055e-07
7.34116e-06
6.89963e-06
7.76258e-06
1.12447e-05
2.13155e-05
4.69861e-05
4.99658e-05
5.06431e-05
5.13384e-05
5.20139e-05
5.26369e-05
5.31798e-05
5.36223e-05
5.39389e-05
5.4115e-05
5.41451e-05
5.40303e-05
5.37776e-05
5.33957e-05
5.28968e-05
5.22984e-05
5.1611e-05
5.08733e-05
5.01318e-05
4.94194e-05
4.87737e-05
3.21414e-05
9.76288e-06
4.49593e-06
3.19589e-06
2.93044e-06
3.98794e-07
1.5546e-09
1.72674e-09
4.42295e-07
7.46917e-06
7.02866e-06
7.70001e-06
1.1215e-05
2.11328e-05
4.65636e-05
5.00733e-05
5.07533e-05
5.1447e-05
5.21157e-05
5.27258e-05
5.32482e-05
5.36688e-05
5.39623e-05
5.41258e-05
5.41486e-05
5.40287e-05
5.37713e-05
5.33841e-05
5.28786e-05
5.22704e-05
5.15797e-05
5.08512e-05
5.01252e-05
4.94762e-05
4.9031e-05
3.10918e-05
1.02371e-05
5.79355e-06
4.0017e-06
3.34027e-06
4.11308e-07
1.58088e-09
1.71982e-09
4.39902e-07
7.25388e-06
7.55373e-06
7.92898e-06
1.1229e-05
2.1052e-05
4.63828e-05
5.00931e-05
5.07746e-05
5.14666e-05
5.21333e-05
5.27421e-05
5.32634e-05
5.36725e-05
5.39635e-05
5.41243e-05
5.41448e-05
5.40233e-05
5.37658e-05
5.33799e-05
5.28777e-05
5.22754e-05
5.15939e-05
5.08604e-05
5.01088e-05
4.93804e-05
4.87063e-05
3.08959e-05
9.6197e-06
4.55561e-06
3.30063e-06
2.66002e-06
3.88593e-07
1.55949e-09
1.71131e-09
4.34736e-07
6.9374e-06
6.31149e-06
7.51817e-06
1.10919e-05
2.09296e-05
4.61546e-05
5.00433e-05
5.07313e-05
5.14251e-05
5.20946e-05
5.27057e-05
5.32321e-05
5.36524e-05
5.39503e-05
5.41149e-05
5.4137e-05
5.40159e-05
5.37576e-05
5.33701e-05
5.28655e-05
5.226e-05
5.15747e-05
5.08366e-05
5.00792e-05
4.9341e-05
4.86529e-05
3.13458e-05
9.57931e-06
4.36323e-06
3.03429e-06
2.8136e-06
3.79482e-07
1.51258e-09
1.7141e-09
4.37387e-07
7.21682e-06
6.4157e-06
7.6378e-06
1.11194e-05
2.08688e-05
4.59355e-05
5.00737e-05
5.0751e-05
5.14458e-05
5.21227e-05
5.27427e-05
5.32744e-05
5.3698e-05
5.39979e-05
5.41638e-05
5.41866e-05
5.4066e-05
5.38085e-05
5.34221e-05
5.29188e-05
5.2314e-05
5.16285e-05
5.08878e-05
5.01235e-05
4.93709e-05
4.86571e-05
3.06286e-05
9.35158e-06
4.27661e-06
3.0839e-06
3.03845e-06
3.96447e-07
1.56566e-09
1.70438e-09
4.34282e-07
7.02609e-06
6.57833e-06
7.70982e-06
1.12617e-05
2.07713e-05
4.56097e-05
5.01738e-05
5.0848e-05
5.15325e-05
5.21915e-05
5.27915e-05
5.3311e-05
5.37357e-05
5.40406e-05
5.42087e-05
5.42324e-05
5.41118e-05
5.38539e-05
5.34671e-05
5.29637e-05
5.236e-05
5.16769e-05
5.0942e-05
5.019e-05
4.94631e-05
4.88043e-05
3.08098e-05
9.64175e-06
4.51585e-06
3.49612e-06
3.04638e-06
3.97501e-07
1.57261e-09
1.71218e-09
4.38046e-07
7.17241e-06
6.51319e-06
7.6165e-06
1.10816e-05
2.06924e-05
4.55325e-05
5.01654e-05
5.0846e-05
5.15318e-05
5.21879e-05
5.27823e-05
5.32952e-05
5.37039e-05
5.39886e-05
5.41449e-05
5.41611e-05
5.40359e-05
5.37756e-05
5.33892e-05
5.28908e-05
5.22997e-05
5.16319e-05
5.09134e-05
5.01934e-05
4.95501e-05
4.91219e-05
3.13515e-05
1.03073e-05
5.9066e-06
4.05599e-06
3.04525e-06
3.93977e-07
1.5386e-09
1.70851e-09
4.35446e-07
7.05401e-06
6.6019e-06
7.69228e-06
1.10374e-05
2.06431e-05
4.52246e-05
5.01063e-05
5.0789e-05
5.14804e-05
5.21464e-05
5.27569e-05
5.32871e-05
5.37053e-05
5.40003e-05
5.41612e-05
5.418e-05
5.40563e-05
5.37969e-05
5.34096e-05
5.29062e-05
5.23004e-05
5.16139e-05
5.08824e-05
5.01405e-05
4.94357e-05
4.88134e-05
3.09629e-05
9.66585e-06
4.70146e-06
3.54025e-06
3.09933e-06
4.01593e-07
1.57094e-09
1.72877e-09
4.40726e-07
7.08329e-06
6.45177e-06
7.52735e-06
1.1124e-05
2.05594e-05
4.51415e-05
5.01234e-05
5.07986e-05
5.1484e-05
5.21469e-05
5.27596e-05
5.32995e-05
5.37282e-05
5.40271e-05
5.41894e-05
5.42074e-05
5.40813e-05
5.38183e-05
5.34261e-05
5.29172e-05
5.2305e-05
5.16203e-05
5.08862e-05
5.01346e-05
4.94038e-05
4.8736e-05
3.10414e-05
9.59603e-06
4.53709e-06
3.34309e-06
3.28507e-06
4.20686e-07
1.61914e-09
1.74243e-09
4.47067e-07
7.38157e-06
6.70869e-06
7.61925e-06
1.11095e-05
2.06284e-05
4.51849e-05
5.01989e-05
5.08732e-05
5.15537e-05
5.22025e-05
5.27931e-05
5.32989e-05
5.36991e-05
5.39836e-05
5.41391e-05
5.41545e-05
5.40283e-05
5.37664e-05
5.33761e-05
5.287e-05
5.22633e-05
5.15774e-05
5.08391e-05
5.0082e-05
4.93456e-05
4.86512e-05
2.99986e-05
9.41609e-06
4.2786e-06
2.98673e-06
2.58263e-06
3.85662e-07
1.56285e-09
1.75056e-09
4.49177e-07
7.41816e-06
7.10183e-06
7.76733e-06
1.10941e-05
2.05081e-05
4.48309e-05
5.02004e-05
5.0881e-05
5.15622e-05
5.22057e-05
5.27928e-05
5.33053e-05
5.37202e-05
5.40131e-05
5.41745e-05
5.41953e-05
5.40742e-05
5.38169e-05
5.34288e-05
5.29201e-05
5.23023e-05
5.16104e-05
5.08803e-05
5.01557e-05
4.95148e-05
4.90978e-05
3.16051e-05
1.02806e-05
5.81449e-06
3.82511e-06
2.86157e-06
3.80239e-07
1.51212e-09
1.75294e-09
4.49105e-07
7.36899e-06
7.59964e-06
7.89544e-06
1.09912e-05
2.04677e-05
4.48271e-05
5.02322e-05
5.08848e-05
5.1558e-05
5.22109e-05
5.28099e-05
5.33292e-05
5.3743e-05
5.40348e-05
5.41887e-05
5.42024e-05
5.40819e-05
5.38347e-05
5.34586e-05
5.29578e-05
5.23494e-05
5.16753e-05
5.09743e-05
5.0293e-05
4.96992e-05
4.92675e-05
3.17948e-05
1.02406e-05
5.00918e-06
3.48128e-06
2.9346e-06
3.78735e-07
1.50848e-09
1.76649e-09
4.5048e-07
7.18696e-06
6.71222e-06
7.65943e-06
1.11334e-05
2.04223e-05
4.45694e-05
5.02271e-05
5.08982e-05
5.15731e-05
5.22231e-05
5.28157e-05
5.33252e-05
5.37336e-05
5.4021e-05
5.41724e-05
5.41904e-05
5.40697e-05
5.38165e-05
5.34296e-05
5.29349e-05
5.23458e-05
5.16918e-05
5.09973e-05
5.0298e-05
4.96235e-05
4.90066e-05
2.95098e-05
9.62374e-06
4.66269e-06
3.41008e-06
3.16395e-06
4.0387e-07
1.5572e-09
1.75884e-09
4.52083e-07
7.47397e-06
7.03164e-06
7.69954e-06
1.09798e-05
2.01837e-05
4.40179e-05
5.02423e-05
5.09029e-05
5.15749e-05
5.22217e-05
5.28138e-05
5.33234e-05
5.37308e-05
5.40169e-05
5.41695e-05
5.4182e-05
5.40585e-05
5.37981e-05
5.34239e-05
5.29432e-05
5.23723e-05
5.17297e-05
5.10439e-05
5.03461e-05
4.96595e-05
4.9e-05
3.17551e-05
9.74438e-06
4.41898e-06
3.0254e-06
2.58149e-06
3.81427e-07
1.55476e-09
1.77467e-09
4.55527e-07
7.41581e-06
7.61025e-06
8.00592e-06
1.09144e-05
2.00742e-05
4.38371e-05
5.02117e-05
5.08672e-05
5.15368e-05
5.21837e-05
5.27766e-05
5.32896e-05
5.37028e-05
5.40002e-05
5.41724e-05
5.42083e-05
5.41008e-05
5.38587e-05
5.3491e-05
5.3011e-05
5.24346e-05
5.17812e-05
5.10748e-05
5.03438e-05
4.96211e-05
4.89664e-05
3.18138e-05
9.8826e-06
4.67508e-06
3.70868e-06
2.87035e-06
3.91946e-07
1.55182e-09
1.78631e-09
4.54483e-07
7.28004e-06
6.82952e-06
7.6886e-06
1.09174e-05
2.00135e-05
4.36473e-05
5.03319e-05
5.09627e-05
5.16028e-05
5.22235e-05
5.27988e-05
5.33021e-05
5.37111e-05
5.40107e-05
5.41919e-05
5.42288e-05
5.4112e-05
5.38586e-05
5.34854e-05
5.30026e-05
5.24256e-05
5.17735e-05
5.10758e-05
5.03581e-05
4.96684e-05
4.90475e-05
3.02512e-05
9.67199e-06
4.4781e-06
3.35155e-06
2.98247e-06
3.80934e-07
1.50184e-09
1.78871e-09
4.57685e-07
7.38698e-06
7.02678e-06
7.61279e-06
1.08457e-05
1.98421e-05
4.33494e-05
5.03739e-05
5.10278e-05
5.16799e-05
5.23011e-05
5.28622e-05
5.33485e-05
5.37398e-05
5.40214e-05
5.41836e-05
5.42078e-05
5.40928e-05
5.38524e-05
5.34833e-05
5.30014e-05
5.24254e-05
5.17789e-05
5.10951e-05
5.04191e-05
4.98209e-05
4.93798e-05
3.12261e-05
1.02334e-05
5.07361e-06
3.49851e-06
3.11557e-06
4.00842e-07
1.57004e-09
1.7578e-09
4.51963e-07
7.43043e-06
7.63734e-06
7.81147e-06
1.07701e-05
1.96985e-05
4.30769e-05
5.03945e-05
5.10413e-05
5.16937e-05
5.2313e-05
5.2876e-05
5.33634e-05
5.37533e-05
5.40301e-05
5.41831e-05
5.42014e-05
5.40898e-05
5.38416e-05
5.34673e-05
5.29807e-05
5.23995e-05
5.1744e-05
5.10378e-05
5.03159e-05
4.96191e-05
4.89858e-05
3.06846e-05
9.8977e-06
4.62432e-06
3.29542e-06
2.97843e-06
4.00727e-07
1.573e-09
1.75918e-09
4.50107e-07
7.28583e-06
7.22669e-06
7.59292e-06
1.072e-05
1.95482e-05
4.26818e-05
5.03632e-05
5.10333e-05
5.17133e-05
5.23562e-05
5.29404e-05
5.34413e-05
5.38395e-05
5.41206e-05
5.4275e-05
5.42924e-05
5.41721e-05
5.39216e-05
5.35479e-05
5.30622e-05
5.24797e-05
5.18182e-05
5.10973e-05
5.0358e-05
4.96417e-05
4.89724e-05
3.04536e-05
9.77236e-06
4.50285e-06
3.2134e-06
3.16419e-06
4.11777e-07
1.60608e-09
1.75526e-09
4.45743e-07
7.0557e-06
6.27107e-06
7.36914e-06
1.06298e-05
1.93172e-05
4.21505e-05
5.03681e-05
5.10332e-05
5.17108e-05
5.23588e-05
5.29409e-05
5.34366e-05
5.3831e-05
5.41108e-05
5.42659e-05
5.42848e-05
5.41669e-05
5.392e-05
5.35523e-05
5.30783e-05
5.25066e-05
5.1847e-05
5.11355e-05
5.04111e-05
4.97016e-05
4.90306e-05
3.08566e-05
9.84838e-06
4.48584e-06
3.18491e-06
3.13376e-06
4.17804e-07
1.61651e-09
1.76217e-09
4.4742e-07
7.16516e-06
6.56642e-06
7.46151e-06
1.06093e-05
1.92804e-05
4.21791e-05
5.03831e-05
5.10313e-05
5.16921e-05
5.23295e-05
5.29141e-05
5.34213e-05
5.38255e-05
5.41111e-05
5.4269e-05
5.4289e-05
5.41711e-05
5.39232e-05
5.35516e-05
5.3067e-05
5.24869e-05
5.18364e-05
5.11429e-05
5.04305e-05
4.97214e-05
4.90535e-05
3.08511e-05
9.84927e-06
4.39642e-06
3.01372e-06
2.88806e-06
3.96198e-07
1.54577e-09
1.77661e-09
4.5046e-07
7.00531e-06
6.416e-06
7.43128e-06
1.06059e-05
1.90788e-05
4.13788e-05
5.04111e-05
5.10525e-05
5.17042e-05
5.2334e-05
5.29144e-05
5.34124e-05
5.38114e-05
5.40946e-05
5.42519e-05
5.42723e-05
5.41554e-05
5.39087e-05
5.35394e-05
5.30589e-05
5.24911e-05
5.18523e-05
5.11645e-05
5.04551e-05
4.97537e-05
4.90789e-05
3.13812e-05
9.95667e-06
4.41585e-06
2.95481e-06
2.66669e-06
3.66553e-07
1.44844e-09
1.77747e-09
4.51227e-07
7.13079e-06
6.49465e-06
7.41911e-06
1.05144e-05
1.8939e-05
4.12336e-05
5.0452e-05
5.10955e-05
5.17474e-05
5.23743e-05
5.29471e-05
5.34413e-05
5.38373e-05
5.41197e-05
5.42777e-05
5.42986e-05
5.41847e-05
5.3939e-05
5.35696e-05
5.30926e-05
5.25253e-05
5.18851e-05
5.11955e-05
5.0487e-05
4.97974e-05
4.91648e-05
3.13041e-05
9.94888e-06
4.61997e-06
3.61064e-06
2.90121e-06
3.66982e-07
1.45546e-09
1.83984e-09
4.68721e-07
7.31869e-06
6.76778e-06
7.58037e-06
1.05778e-05
1.88818e-05
4.09572e-05
5.05375e-05
5.11904e-05
5.18555e-05
5.24897e-05
5.30653e-05
5.35588e-05
5.39509e-05
5.42265e-05
5.43747e-05
5.43825e-05
5.42456e-05
5.39891e-05
5.36177e-05
5.31411e-05
5.25738e-05
5.19319e-05
5.12371e-05
5.05181e-05
4.9809e-05
4.91383e-05
3.13407e-05
1.00329e-05
4.5062e-06
3.22614e-06
3.12805e-06
3.97466e-07
1.54097e-09
1.84992e-09
4.7188e-07
7.38758e-06
6.99629e-06
7.62645e-06
1.05028e-05
1.87056e-05
4.04972e-05
5.05766e-05
5.12198e-05
5.1879e-05
5.25105e-05
5.30849e-05
5.35777e-05
5.39692e-05
5.42441e-05
5.43918e-05
5.4399e-05
5.42614e-05
5.40034e-05
5.36348e-05
5.31628e-05
5.25997e-05
5.19601e-05
5.12642e-05
5.05385e-05
4.98138e-05
4.91101e-05
3.07791e-05
9.89832e-06
4.37863e-06
2.96106e-06
2.54755e-06
3.71445e-07
1.50289e-09
1.83804e-09
4.69128e-07
7.46215e-06
7.59896e-06
7.65549e-06
1.04708e-05
1.85685e-05
4.01828e-05
5.05845e-05
5.12083e-05
5.18495e-05
5.24711e-05
5.30413e-05
5.35339e-05
5.39281e-05
5.42089e-05
5.43664e-05
5.4389e-05
5.42768e-05
5.40441e-05
5.36965e-05
5.32438e-05
5.27007e-05
5.2083e-05
5.14111e-05
5.07125e-05
5.00227e-05
4.93826e-05
3.12858e-05
1.03668e-05
4.81891e-06
3.75366e-06
2.89709e-06
3.81973e-07
1.51578e-09
1.84877e-09
4.67951e-07
7.18308e-06
6.40213e-06
7.40915e-06
1.03879e-05
1.84666e-05
3.99262e-05
5.06526e-05
5.12835e-05
5.19249e-05
5.25475e-05
5.31271e-05
5.36283e-05
5.40263e-05
5.43102e-05
5.44708e-05
5.44968e-05
5.43881e-05
5.41529e-05
5.37976e-05
5.33255e-05
5.27644e-05
5.21378e-05
5.1461e-05
5.07605e-05
5.0074e-05
4.94515e-05
3.23027e-05
1.04552e-05
4.87287e-06
3.89213e-06
3.20494e-06
4.12106e-07
1.61472e-09
1.84616e-09
4.67183e-07
7.28759e-06
6.55495e-06
7.45641e-06
1.03651e-05
1.83723e-05
3.96242e-05
5.06907e-05
5.13253e-05
5.19679e-05
5.25858e-05
5.31477e-05
5.36368e-05
5.40428e-05
5.43383e-05
5.45055e-05
5.45349e-05