/*--------------------------------*- C++ -*----------------------------------*\
  =========                 |
  \\      /  F ield         | OpenFOAM: The Open Source CFD Toolbox
   \\    /   O peration     | Website:  https://openfoam.org
    \\  /    A nd           | Version:  13
     \\/     M anipulation  |
\*---------------------------------------------------------------------------*/
FoamFile
{
    format      ascii;
    class       volScalarField;
    location    "3";
    object      omega;
}
// * * * * * * * * * * * * * * * * * * * * * * * * * * * * * * * * * * * * * //

dimensions      [0 0 -1 0 0 0 0];

internalField   nonuniform List<scalar> 
78750
(
678.67
75.4078
15.1502
15.1502
15.1502
15.1502
15.1502
15.1502
15.1502
15.1502
15.1502
15.1502
15.1502
15.1502
15.1502
15.1502
15.1502
15.1502
15.1502
15.1502
15.1502
15.1502
15.1502
15.1502
15.1502
15.1502
15.1502
15.1502
15.1502
15.1502
15.1502
15.1502
15.1502
75.4078
678.67
678.67
75.4078
2.66272
3.15147
3.21561
3.12436
2.66272
2.66272
2.66272
2.66272
2.66272
2.66272
2.66272
2.66272
2.66272
2.66272
2.66272
3.12548
3.14448
3.16219
3.17747
3.18945
3.19735
3.20039
3.19617
3.18339
3.1652
3.14263
3.12282
3.1318
3.18833
3.19622
2.66272
75.4078
678.67
678.67
75.4078
2.66272
2.66272
3.14469
3.1324
3.13257
3.14575
3.17091
3.20464
3.24367
3.28498
3.32622
3.36548
3.40113
3.43199
3.45735
3.47673
3.48991
3.49685
3.49596
3.48691
3.47169
3.45077
3.42423
3.39221
3.35612
3.31836
3.28232
3.24536
3.21596
3.2227
2.66272
75.4078
678.67
678.67
75.4078
2.66272
3.14275
3.12363
3.14059
3.17065
3.20497
3.24653
3.2938
3.34429
3.39531
3.44435
3.48937
3.5288
3.5614
3.58638
3.60334
3.61227
3.61185
3.60152
3.58275
3.55597
3.52182
3.48151
3.43681
3.39002
3.34424
3.30252
3.25754
3.20678
3.16809
2.66272
75.4078
678.67
678.67
75.4078
2.66272
3.31502
3.17073
3.16611
3.1948
3.23064
3.275
3.3252
3.3782
3.43106
3.48119
3.52645
3.56525
3.59646
3.61925
3.63315
3.63801
3.63325
3.61839
3.59493
3.56351
3.525
3.48059
3.43196
3.38204
3.33388
3.29036
3.24268
3.18788
3.16155
3.12434
75.4078
678.67
678.67
75.4078
2.66272
3.28422
3.15773
3.16571
3.19918
3.23724
3.28246
3.33332
3.3868
3.4399
3.48999
3.53495
3.57317
3.60354
3.62537
3.63798
3.64086
3.63352
3.61575
3.58925
3.55478
3.51344
3.46669
3.41653
3.3655
3.31651
3.27162
3.21987
3.15204
2.66272
2.66272
75.4078
678.67
678.67
75.4078
2.66272
3.33761
3.18133
3.17742
3.20767
3.2447
3.28891
3.33924
3.39238
3.44518
3.49491
3.5394
3.577
3.60665
3.62771
3.63945
3.64107
3.63217
3.61331
3.58578
3.55043
3.50842
3.46133
3.41122
3.36063
3.31231
3.26767
3.21588
3.14781
2.66272
2.66272
75.4078
678.67
678.67
75.4078
2.66272
3.32514
3.18847
3.1813
3.21124
3.24877
3.29297
3.34333
3.39638
3.44893
3.49825
3.54217
3.57905
3.60778
3.62767
3.63841
3.63858
3.62859
3.60865
3.57996
3.54341
3.50017
3.45182
3.40045
3.34868
3.29876
3.25358
3.20922
3.20035
3.38015
2.66272
75.4078
678.67
678.67
75.4078
2.66272
2.66272
3.12388
3.16547
3.20757
3.24902
3.29454
3.34551
3.39878
3.45131
3.50046
3.5441
3.58063
3.60893
3.62833
3.63852
3.63816
3.62773
3.60754
3.57864
3.5419
3.49858
3.45032
3.3993
3.3483
3.29992
3.25633
3.20946
3.16293
3.16636
2.66272
75.4078
678.67
678.67
75.4078
2.66272
2.66272
3.13867
3.17106
3.2125
3.25388
3.29889
3.34951
3.40242
3.45451
3.50313
3.54619
3.58208
3.60971
3.6284
3.63786
3.63709
3.62638
3.60568
3.57595
3.5384
3.49431
3.44531
3.39351
3.34149
3.29211
3.24722
3.19751
3.14279
2.66272
2.66272
75.4078
678.67
678.67
75.4078
2.66272
2.66272
3.13656
3.17206
3.21519
3.25765
3.3029
3.35339
3.40597
3.45763
3.5058
3.54839
3.58382
3.61097
3.62909
3.63782
3.63696
3.62586
3.60492
3.57504
3.5372
3.49294
3.44384
3.39198
3.33987
3.29005
3.24374
3.18924
2.66272
2.66272
2.66272
75.4078
678.67
678.67
75.4078
2.66272
3.14522
3.15566
3.17624
3.21709
3.25976
3.30534
3.35607
3.4087
3.46025
3.50821
3.5506
3.58592
3.61319
3.6314
3.63981
3.63807
3.62624
3.60486
3.57375
3.53485
3.48963
3.43965
3.38693
3.3341
3.28385
3.23864
3.1945
3.19028
3.38413
3.18695
75.4078
678.67
678.67
75.4078
2.66272
3.20747
3.16934
3.18107
3.22037
3.26285
3.30792
3.35811
3.41046
3.46185
3.50973
3.55209
3.58749
3.61508
3.63338
3.64158
3.63937
3.62682
3.60455
3.57317
3.53432
3.48914
3.43922
3.38662
3.334
3.28463
3.24151
3.20229
3.21034
3.45682
2.66272
75.4078
678.67
678.67
75.4078
2.66272
3.33871
3.19839
3.18684
3.22207
3.26445
3.30942
3.35966
3.41195
3.4632
3.51082
3.5528
3.58766
3.61446
3.63193
3.63959
3.63732
3.62493
3.6031
3.5724
3.53371
3.48828
3.43771
3.38409
3.33006
3.27884
3.23343
3.18763
3.15942
3.21495
2.66272
75.4078
678.67
678.67
75.4078
2.66272
2.66272
3.1249
3.16656
3.21588
3.26227
3.30922
3.36053
3.41337
3.46486
3.51252
3.55435
3.58883
3.61489
3.63183
3.63931
3.63713
3.62479
3.60287
3.57203
3.5332
3.48764
3.43702
3.3835
3.32982
3.27919
3.23554
3.19182
3.16177
3.1958
3.14778
75.4078
678.67
678.67
75.4078
2.66272
3.15141
3.16018
3.18006
3.22287
3.26706
3.31313
3.3641
3.41681
3.46836
3.51628
3.5587
3.59373
3.61992
3.63656
3.64328
3.63996
3.62674
3.60408
3.57265
3.5334
3.4876
3.43688
3.38331
3.32939
3.27784
3.23095
3.17793
3.12263
2.66272
2.66272
75.4078
678.67
678.67
75.4078
2.66272
3.19641
3.15782
3.1775
3.22311
3.2687
3.31532
3.36651
3.41925
3.47077
3.51875
3.56148
3.59653
3.62243
3.63872
3.64525
3.64183
3.62861
3.60602
3.57462
3.53531
3.48941
3.43862
3.38504
3.33119
3.27947
3.23103
3.17112
2.66272
2.66272
2.66272
75.4078
678.67
678.67
75.4078
2.66272
3.32189
3.18307
3.1812
3.22316
3.26888
3.31596
3.36731
3.41998
3.47124
3.51882
3.56096
3.59555
3.62079
3.63662
3.64281
3.63908
3.62561
3.60265
3.57077
3.53095
3.4846
3.43379
3.38102
3.32991
3.28646
3.26176
3.28926
3.58212
3.51799
2.66272
75.4078
678.67
678.67
75.4078
2.66272
2.66272
2.66272
3.16324
3.21819
3.26744
3.31569
3.36751
3.42031
3.47153
3.51895
3.56074
3.5956
3.62112
3.63717
3.64344
3.63971
3.62604
3.6029
3.57095
3.53115
3.48489
3.43432
3.38199
3.33267
3.29275
3.27065
3.27884
3.36481
3.36486
3.20186
75.4078
678.67
678.67
75.4078
2.66272
2.66272
3.14226
3.17579
3.2242
3.27113
3.31827
3.36944
3.42179
3.47259
3.51958
3.56091
3.59529
3.62094
3.63705
3.64289
3.63855
3.62444
3.601
3.56886
3.5289
3.48234
3.4307
3.37633
3.32178
3.2705
3.22579
3.18179
3.16225
3.18525
3.17434
75.4078
678.67
678.67
75.4078
2.66272
3.14135
3.16114
3.18411
3.22937
3.27519
3.32166
3.37231
3.42413
3.4744
3.52081
3.56152
3.59516
3.62093
3.63703
3.64282
3.63877
3.6249
3.60159
3.56949
3.52952
3.48293
3.43145
3.37645
3.32101
3.26872
3.22365
3.18426
3.20082
3.43359
2.66272
75.4078
678.67
678.67
75.4078
2.66272
3.14055
3.1535
3.18183
3.23021
3.27726
3.32397
3.37449
3.42607
3.47603
3.52208
3.56237
3.59553
3.62073
3.63676
3.64343
3.64008
3.62654
3.60333
3.57117
3.53097
3.48394
3.43168
3.37644
3.32071
3.26849
3.22337
3.18071
3.16495
3.24297
2.66272
75.4078
678.67
678.67
75.4078
2.66272
2.66272
3.12153
3.17026
3.22591
3.27597
3.32409
3.37523
3.42708
3.47713
3.52315
3.56331
3.59614
3.62061
3.63607
3.64225
3.63818
3.62417
3.60071
3.5685
3.52847
3.4819
3.43041
3.37608
3.32159
3.27082
3.22664
3.18314
3.15972
3.20316
3.16363
75.4078
678.67
678.67
75.4078
2.66272
2.66272
3.13091
3.17681
3.229
3.27764
3.32553
3.37694
3.42916
3.47961
3.52608
3.56687
3.60038
3.62511
3.64021
3.64536
3.64054
3.62598
3.60213
3.56969
3.52964
3.4833
3.4323
3.3787
3.32491
3.2733
3.22488
3.16719
2.66272
2.66272
2.66272
75.4078
678.67
678.67
75.4078
2.66272
2.66272
3.14299
3.18338
3.23386
3.28129
3.32853
3.3795
3.43142
3.48171
3.52818
3.56915
3.60286
3.62783
3.6432
3.64848
3.6437
3.62913
3.60525
3.57275
3.53255
3.48585
3.43438
3.38055
3.32721
3.27757
3.23449
3.19292
3.17026
3.19799
2.66272
75.4078
678.67
678.67
75.4078
2.66272
2.66272
3.13248
3.18012
3.23557
3.28432
3.33151
3.38207
3.43344
3.48308
3.52878
3.56878
3.60171
3.62603
3.64051
3.64509
3.63978
3.62482
3.60062
3.56784
3.52737
3.48027
3.42849
3.37431
3.32047
3.27016
3.22578
3.18114
3.15582
3.18906
3.13466
75.4078
678.67
678.67
75.4078
2.66272
3.1425
3.15809
3.18683
3.23778
3.28597
3.33301
3.38344
3.43462
3.48403
3.52948
3.56924
3.60204
3.62605
3.64076
3.64548
3.64024
3.62529
3.60105
3.5682
3.52765
3.48048
3.42851
3.37437
3.3203
3.26882
3.22202
3.17115
3.1221
2.66272
2.66272
75.4078
678.67
678.67
75.4078
2.66272
3.18545
3.15062
3.18189
3.23583
3.28581
3.33398
3.38494
3.43626
3.48556
3.53078
3.57029
3.60286
3.62768
3.64281
3.64768
3.64238
3.62714
3.60243
3.56918
3.52815
3.48031
3.42821
3.3737
3.31898
3.26696
3.21851
3.16084
2.66272
2.66272
2.66272
75.4078
678.67
678.67
75.4078
2.66272
3.32433
3.17865
3.18959
3.24191
3.2921
3.34048
3.39139
3.44215
3.49037
3.53431
3.57252
3.60381
3.6273
3.64145
3.64605
3.64074
3.62523
3.60036
3.56763
3.52694
3.47985
3.42846
3.37504
3.32364
3.28019
3.25588
3.28774
3.59471
3.53424
3.12731
75.4078
678.67
678.67
75.4078
2.66272
3.2824
3.17332
3.19212
3.24421
3.29449
3.34312
3.39417
3.44502
3.49353
3.53801
3.57646
3.60732
3.62968
3.64295
3.64677
3.6408
3.62506
3.60033
3.56738
3.52619
3.47926
3.42767
3.3734
3.31941
3.26906
3.22544
3.18643
3.1891
3.2569
2.66272
75.4078
678.67
678.67
75.4078
2.66272
2.66272
3.13545
3.18545
3.24398
3.29552
3.34438
3.3955
3.44646
3.49507
3.53934
3.57725
3.60783
3.62996
3.64289
3.64609
3.64045
3.62532
3.60082
3.56747
3.52685
3.48058
3.42947
3.37618
3.32291
3.27254
3.22692
3.179
3.1448
3.16459
2.66272
75.4078
678.67
678.67
75.4078
2.66272
3.13937
3.15584
3.19101
3.24575
3.29653
3.3452
3.39639
3.44744
3.49582
3.53933
3.57705
3.6075
3.6296
3.64264
3.64625
3.64056
3.62519
3.60052
3.56716
3.52701
3.48038
3.42973
3.37638
3.32269
3.27092
3.22168
3.1644
2.66272
2.66272
3.12101
75.4078
678.67
678.67
75.4078
2.66272
2.66272
3.14503
3.1872
3.24472
3.29604
3.34419
3.39485
3.44576
3.49442
3.53869
3.57682
3.60745
3.62957
3.64251
3.64581
3.6394
3.6235
3.59854
3.56524
3.52462
3.47808
3.42742
3.37427
3.32076
3.26987
3.22395
3.17901
3.17239
3.34134
2.66272
75.4078
678.67
678.67
75.4078
2.66272
3.1699
3.17263
3.19993
3.25166
3.30132
3.34924
3.39975
3.45021
3.49835
3.54212
3.57981
3.61004
3.63181
3.64441
3.64737
3.64063
3.62442
3.59919
3.56568
3.52492
3.47829
3.42752
3.37448
3.32174
3.27193
3.22745
3.18678
3.20063
3.43661
2.66272
75.4078
678.67
678.67
75.4078
2.66272
3.1989
3.16722
3.19719
3.25145
3.30193
3.35014
3.40056
3.45098
3.4992
3.54304
3.58076
3.61099
3.63274
3.64534
3.64835
3.64169
3.62552
3.60027
3.56662
3.52559
3.4786
3.42742
3.37445
3.32168
3.27223
3.22828
3.18809
3.18886
3.41945
2.66272
75.4078
678.67
678.67
75.4078
2.66272
3.30412
3.1913
3.20313
3.25234
3.30144
3.34913
3.39955
3.4501
3.49836
3.54223
3.57997
3.61021
3.63197
3.64455
3.6475
3.64074
3.62452
3.59927
3.56569
3.52483
3.47814
3.42749
3.37539
3.32593
3.28444
3.26106
3.29039
3.58508
3.50108
2.66272
75.4078
678.67
678.67
75.4078
2.66272
2.66272
3.14566
3.19345
3.25056
3.301
3.34875
3.39917
3.44978
3.49814
3.54211
3.57994
3.61024
3.632
3.64454
3.64741
3.64058
3.62432
3.59906
3.5655
3.52476
3.47836
3.42853
3.37815
3.33066
3.29198
3.2693
3.27341
3.34363
3.30504
2.66272
75.4078
678.67
678.67
75.4078
2.66272
2.66272
3.13834
3.18895
3.24889
3.30092
3.34929
3.39987
3.45055
3.49915
3.54375
3.58208
3.61252
3.63424
3.64668
3.64945
3.64254
3.62626
3.60108
3.5677
3.52714
3.48082
3.43069
3.37946
3.33132
3.29094
3.26132
3.24055
3.25053
3.25528
3.15753
75.4078
678.67
678.67
75.4078
2.66272
3.15422
3.1722
3.20583
3.25919
3.30902
3.35662
3.40681
3.45709
3.50509
3.54879
3.58634
3.61645
3.63788
3.65009
3.65268
3.64562
3.62919
3.60381
3.57013
3.52903
3.48166
3.42945
3.37486
3.32055
3.26937
3.22179
3.16754
2.66272
2.66272
2.66272
75.4078
678.67
678.67
75.4078
2.66272
3.20567
3.17555
3.2065
3.26151
3.31219
3.35983
3.4097
3.45939
3.50645
3.54867
3.58506
3.61388
3.63446
3.64611
3.64832
3.64101
3.62443
3.59899
3.56538
3.52452
3.47771
3.42664
3.37285
3.31918
3.26931
3.22551
3.18673
3.20504
3.44475
2.66272
75.4078
678.67
678.67
75.4078
2.66272
3.31723
3.19237
3.20522
3.25846
3.30993
3.3582
3.40848
3.45857
3.5061
3.5489
3.58524
3.61424
3.63494
3.64666
3.64889
3.64158
3.62499
3.59957
3.56598
3.52515
3.47828
3.42694
3.37301
3.3198
3.27045
3.22789
3.19269
3.21705
3.45995
3.18785
75.4078
678.67
678.67
75.4078
2.66272
2.66272
3.1478
3.19811
3.25819
3.31019
3.35829
3.40854
3.45876
3.5066
3.54992
3.58696
3.61643
3.63737
3.64915
3.65133
3.64387
3.62708
3.6014
3.56746
3.52612
3.4785
3.42604
3.37134
3.31701
3.26635
3.22066
3.17521
3.14948
3.17064
2.66272
75.4078
678.67
678.67
75.4078
2.66272
3.21264
3.17404
3.2035
3.25857
3.30892
3.35605
3.40581
3.45567
3.50319
3.54625
3.58316
3.61256
3.63349
3.6453
3.64755
3.64022
3.62363
3.59824
3.56474
3.52411
3.4777
3.42702
3.37402
3.3214
3.27134
3.22426
3.17049
2.66272
2.66272
2.66272
75.4078
678.67
678.67
75.4078
2.66272
3.35032
3.19633
3.20589
3.25884
3.30962
3.357
3.40656
3.45607
3.50331
3.54634
3.58361
3.61338
3.63442
3.64621
3.64839
3.64099
3.62441
3.59914
3.56591
3.52568
3.47971
3.42942
3.37692
3.32509
3.2765
3.23256
3.18731
3.15547
3.16502
2.66272
75.4078
678.67
678.67
75.4078
2.66272
3.27589
3.18374
3.20836
3.26353
3.31492
3.36303
3.41309
3.46256
3.50931
3.55148
3.58757
3.61598
3.63605
3.64739
3.64936
3.64185
3.62516
3.59974
3.56627
3.5257
3.47924
3.42835
3.37533
3.32225
3.27126
3.22285
3.16576
2.66272
2.66272
2.66272
75.4078
678.67
678.67
75.4078
2.66272
2.66272
3.15197
3.2059
3.26602
3.31752
3.36478
3.41426
3.46377
3.51059
3.55247
3.58789
3.61573
3.63563
3.64674
3.64845
3.64071
3.62387
3.59841
3.565
3.52455
3.47833
3.42791
3.3753
3.32308
3.2742
3.23054
3.18842
3.17347
3.24013
3.17776
75.4078
678.67
678.67
75.4078
2.66272
3.12216
3.15874
3.20591
3.26565
3.31711
3.36436
3.41376
3.46284
3.50905
3.55086
3.58665
3.6151
3.63526
3.64644
3.64815
3.64038
3.62353
3.59807
3.56461
3.52407
3.47765
3.42696
3.37408
3.32168
3.27283
3.22932
3.18623
3.15817
3.15393
2.66272
75.4078
678.67
678.67
75.4078
2.66272
3.13414
3.1685
3.20724
3.26601
3.31786
3.3649
3.41408
3.46298
3.50986
3.5524
3.58863
3.61733
3.63762
3.64891
3.65073
3.64304
3.62623
3.60075
3.56729
3.52675
3.48031
3.42947
3.37621
3.32306
3.27282
3.22675
3.1778
3.14275
3.15356
2.66272
75.4078
678.67
678.67
75.4078
2.66272
3.15257
3.17718
3.21407
3.27076
3.32299
3.37058
3.41963
3.46823
3.51438
3.55595
3.59163
3.62046
3.64103
3.65245
3.65434
3.64671
3.62991
3.60441
3.5709
3.53036
3.48399
3.43331
3.38039
3.32783
3.27825
3.23235
3.18184
3.13265
2.66272
2.66272
75.4078
678.67
678.67
75.4078
2.66272
3.1714
3.18507
3.21431
3.27191
3.32399
3.37155
3.42057
3.46891
3.51446
3.55528
3.59039
3.61832
3.63782
3.64859
3.65008
3.64221
3.62529
3.59972
3.56627
3.52608
3.48006
3.42966
3.377
3.32451
3.27482
3.22802
3.17309
2.66272
2.66272
2.66272
75.4078
678.67
678.67
75.4078
2.66272
3.15143
3.17366
3.20917
3.26755
3.3204
3.3682
3.41748
3.46628
3.51253
3.5544
3.59024
3.61838
3.63814
3.64905
3.65062
3.64279
3.62591
3.60042
3.56707
3.52683
3.48074
3.43055
3.37822
3.32629
3.27854
3.2372
3.20238
3.22583
3.45035
2.66272
75.4078
678.67
678.67
75.4078
2.66272
3.14955
3.16809
3.21067
3.27012
3.32188
3.36898
3.41782
3.46641
3.51271
3.55478
3.59115
3.61993
3.64008
3.6511
3.65254
3.64442
3.62717
3.60132
3.56755
3.52683
3.48051
3.43012
3.37765
3.32564
3.27742
3.23486
3.19615
3.18994
3.25966
2.66272
75.4078
678.67
678.67
75.4078
2.66272
3.19875
3.1721
3.20986
3.27239
3.32561
3.37339
3.42226
3.4702
3.51538
3.55599
3.59071
3.61812
3.63754
3.64827
3.64972
3.6418
3.62483
3.59927
3.56576
3.52523
3.47886
3.42818
3.3752
3.32245
3.27266
3.22664
3.17807
3.15001
3.18558
3.18234
75.4078
678.67
678.67
75.4078
2.66272
3.33701
3.20585
3.21951
3.27618
3.32812
3.37536
3.42382
3.4713
3.5159
3.55625
3.59101
3.61893
3.63879
3.64994
3.6518
3.64428
3.62768
3.60237
3.56889
3.52795
3.48074
3.42925
3.3756
3.32194
3.27035
3.2198
3.15573
2.66272
2.66272
2.66272
75.4078
678.67
678.67
75.4078
2.66272
2.66272
3.15709
3.21281
3.27628
3.32884
3.37546
3.42308
3.47042
3.51512
3.55583
3.59152
3.62
3.64018
3.65153
3.65354
3.64613
3.62953
3.60425
3.57108
3.53069
3.4846
3.43472
3.38343
3.33429
3.2933
3.2717
3.30864
3.61296
3.50949
2.66272
75.4078
678.67
678.67
75.4078
2.66272
3.21124
3.18157
3.21788
3.27728
3.32909
3.37551
3.42326
3.47041
3.51463
3.55512
3.59045
3.61862
3.6386
3.64969
3.65153
3.64419
3.62794
3.60343
3.57089
3.5312
3.48625
3.43807
3.38863
3.33967
3.29364
3.25228
3.21531
3.21886
3.28118
2.66272
75.4078
678.67
678.67
75.4078
2.66272
3.32475
3.20098
3.21776
3.2762
3.3289
3.37581
3.42371
3.47067
3.51522
3.55574
3.59091
3.61896
3.63882
3.64949
3.65114
3.64389
3.62809
3.60362
3.57135
3.53247
3.48879
3.44179
3.39349
3.34555
3.30055
3.2603
3.22089
3.20205
3.23986
3.16928
75.4078
678.67
678.67
75.4078
2.66272
2.66272
3.16307
3.21227
3.27309
3.32617
3.37346
3.42175
3.46928
3.51419
3.5549
3.58997
3.61807
3.63829
3.65
3.65275
3.64603
3.63031
3.60613
3.57424
3.53562
3.49145
3.44317
3.39261
3.34145
3.2917
3.24388
3.18845
3.12967
2.66272
2.66272
75.4078
678.67
678.67
75.4078
2.66272
3.23134
3.19624
3.227
3.28337
3.33302
3.37832
3.4253
3.47204
3.51639
3.55659
3.59118
3.61906
3.63945
3.65188
3.65456
3.6476
3.6318
3.60763
3.57583
3.53741
3.49361
3.44554
3.39482
3.34383
3.29513
3.24997
3.20504
3.18852
3.34048
2.66272
75.4078
678.67
678.67
75.4078
2.66272
3.34989
3.21385
3.23306
3.28993
3.34095
3.38686
3.43381
3.47994
3.52298
3.56154
3.5946
3.62111
3.64026
3.65152
3.65356
3.64655
3.63059
3.60624
3.57424
3.53549
3.49112
3.44265
3.39259
3.34413
3.3028
3.27922
3.31449
3.62739
3.56282
2.66272
75.4078
678.67
678.67
75.4078
2.66272
2.66272
3.152
3.21816
3.28553
3.33974
3.38664
3.43396
3.48052
3.52388
3.56254
3.59559
3.62198
3.64086
3.65163
3.65363
3.64629
3.63017
3.60575
3.57373
3.53499
3.4907
3.44257
3.39222
3.34198
3.29471
3.25214
3.21311
3.2107
3.2716
2.66272
75.4078
678.67
678.67
75.4078
2.66272
2.66272
3.16111
3.21916
3.28374
3.33713
3.38434
3.43281
3.48044
3.52509
3.56523
3.59941
3.62651
3.64572
3.65643
3.65809
3.65067
3.63457
3.6102
3.57818
3.53931
3.49461
3.44599
3.39544
3.34502
3.29731
3.25331
3.20997
3.19115
3.22031
2.66272
75.4078
678.67
678.67
75.4078
2.66272
3.12221
3.1747
3.22368
3.286
3.33796
3.38455
3.43259
3.48049
3.5258
3.5662
3.60025
3.62718
3.64641
3.65726
3.65914
3.652
3.63623
3.61227
3.58078
3.54229
3.4978
3.44958
3.3996
3.35003
3.30268
3.25776
3.20855
3.16893
3.16607
2.66272
75.4078
678.67
678.67
75.4078
2.66272
3.13693
3.18211
3.22627
3.28742
3.33919
3.3853
3.43264
3.4797
3.52414
3.56422
3.5985
3.62597
3.64543
3.65642
3.65836
3.65121
3.63541
3.61139
3.57975
3.54136
3.49785
3.45087
3.40212
3.35397
3.30819
3.26457
3.21515
3.16354
3.12191
2.66272
75.4078
678.67
678.67
75.4078
2.66272
3.15057
3.18446
3.22968
3.28995
3.3417
3.38763
3.43448
3.4807
3.52445
3.56413
3.59835
3.62555
3.64496
3.65595
3.65788
3.65074
3.63501
3.61115
3.57986
3.54235
3.49947
3.45248
3.40323
3.35425
3.30815
3.26585
3.21996
3.17448
3.13275
2.66272
75.4078
678.67
678.67
75.4078
2.66272
3.13861
3.18335
3.23085
3.29196
3.34385
3.38996
3.43694
3.4832
3.52685
3.56627
3.60012
3.62728
3.64692
3.65838
3.66092
3.65411
3.63814
3.61404
3.58284
3.54528
3.5023
3.45511
3.40549
3.35584
3.30888
3.26433
3.21359
3.15923
2.66272
2.66272
75.4078
678.67
678.67
75.4078
2.66272
3.20104
3.19148
3.23118
3.29395
3.34695
3.39391
3.44197
3.48909
3.53319
3.5728
3.60661
3.63354
3.65276
3.66361
3.66534
3.65771
3.64139
3.61749
3.58656
3.54921
3.50629
3.45891
3.40875
3.35825
3.31036
3.26561
3.21749
3.1767
3.16677
2.66272
75.4078
678.67
678.67
75.4078
2.66272
3.3721
3.23659
3.24524
3.29974
3.35055
3.39665
3.44428
3.49126
3.5353
3.57485
3.60853
3.63523
3.6541
3.66453
3.66587
3.65791
3.64188
3.6185
3.58808
3.55112
3.50839
3.46091
3.41029
3.35887
3.30957
3.26326
3.21374
3.17442
3.17862
3.14171
75.4078
678.67
678.67
75.4078
2.66272
2.66272
3.1833
3.2393
3.30172
3.35252
3.39722
3.4434
3.48934
3.5329
3.57229
3.60603
3.63299
3.65231
3.66339
3.66563
3.65905
3.64466
3.6227
3.59363
3.55809
3.51695
3.47127
3.4226
3.37299
3.32462
3.27716
3.22179
3.15671
2.66272
2.66272
75.4078
678.67
678.67
75.4078
2.66272
3.17778
3.20247
3.2431
3.30437
3.35742
3.40324
3.44943
3.49541
3.53888
3.578
3.61156
3.63849
3.65793
3.66925
3.67176
3.6654
3.65055
3.62765
3.59783
3.56192
3.52058
3.47472
3.42577
3.37569
3.32662
3.27889
3.22173
3.15509
2.66272
2.66272
75.4078
678.67
678.67
75.4078
2.66272
3.21059
3.21765
3.24717
3.30641
3.35834
3.4045
3.45101
3.49657
3.53962
3.57885
3.61286
3.64056
3.6607
3.67243
3.67514
3.66883
3.654
3.63119
3.60162
3.56601
3.52496
3.47938
3.4307
3.38091
3.33222
3.2851
3.22823
3.15293
2.66272
2.66272
75.4078
678.67
678.67
75.4078
2.66272
3.22209
3.21565
3.24509
3.30601
3.35903
3.40514
3.45136
3.49684
3.53984
3.57877
3.61229
3.63975
3.65981
3.67151
3.67407
3.66754
3.65295
3.63095
3.60222
3.56717
3.52651
3.4813
3.43309
3.38414
3.33629
3.2903
3.24345
3.23517
3.4035
2.66272
75.4078
678.67
678.67
75.4078
2.66272
3.22553
3.19061
3.23572
3.30219
3.35694
3.40344
3.44974
3.49536
3.53856
3.57788
3.6121
3.64005
3.66018
3.672
3.67481
3.66876
3.65513
3.63429
3.60645
3.57206
3.53187
3.48695
3.43899
3.39048
3.34409
3.30146
3.25974
3.23929
3.27647
2.66272
75.4078
678.67
678.67
75.4078
2.66272
3.38649
3.2185
3.24411
3.30887
3.36414
3.41016
3.45487
3.4984
3.53979
3.57792
3.61133
3.63841
3.65829
3.67032
3.67375
3.6687
3.65592
3.63551
3.6078
3.57333
3.53284
3.48741
3.43869
3.38911
3.34159
3.29831
3.25717
3.23883
3.26026
2.66272
75.4078
678.67
678.67
75.4078
2.66272
3.39737
3.22462
3.24782
3.31099
3.36521
3.41122
3.45595
3.49948
3.54079
3.5787
3.61176
3.6388
3.65898
3.67168
3.6761
3.67223
3.66036
3.64072
3.61366
3.57967
3.53942
3.49388
3.44453
3.3936
3.34361
3.29523
3.24125
3.1924
3.18953
3.14842
75.4078
678.67
678.67
75.4078
2.66272
3.40843
3.22672
3.24542
3.30729
3.3624
3.40909
3.45462
3.49929
3.54164
3.58018
3.61364
3.64099
3.66144
3.67444
3.67922
3.67579
3.66445
3.64542
3.61905
3.58582
3.54638
3.50163
3.45288
3.40208
3.35092
3.29878
3.2318
3.13603
2.66272
2.66272
75.4078
678.67
678.67
75.4078
2.66272
3.3288
3.20803
3.24636
3.31233
3.36685
3.41287
3.4579
3.50233
3.54453
3.58301
3.61651
3.644
3.6647
3.67806
3.68329
3.68039
3.66963
3.65122
3.62551
3.59292
3.55406
3.50979
3.46158
3.41162
3.36242
3.31619
3.27084
3.26665
3.4448
2.66272
75.4078
678.67
678.67
75.4078
2.66272
3.39707
3.23069
3.25565
3.31749
3.371
3.41657
3.46116
3.50526
3.54723
3.58556
3.61897
3.64646
3.66723
3.68076
3.68623
3.68364
3.67323
3.65519
3.62985
3.59763
3.55912
3.5152
3.46739
3.41786
3.36754
3.31606
3.2526
3.1799
3.16792
2.66272
75.4078
678.67
678.67
75.4078
2.66272
3.39887
3.22322
3.25522
3.32255
3.37778
3.42354
3.46764
3.51096
3.55217
3.58994
3.62301
3.65034
3.67118
3.68499
3.69099
3.68904
3.6793
3.66203
3.63748
3.60597
3.56798
3.52425
3.47628
3.42627
3.37638
3.32883
3.28183
3.27299
3.4455
2.66272
75.4078
678.67
678.67
75.4078
2.66272
3.40591
3.23315
3.25669
3.32298
3.38015
3.42781
3.47331
3.51739
3.55901
3.5963
3.62824
3.65455
3.67484
3.68842
3.69442
3.69258
3.68297
3.66579
3.64121
3.60947
3.57094
3.52632
3.47708
3.42541
3.37386
3.32485
3.27331
3.23572
3.25419
2.66272
75.4078
678.67
678.67
75.4078
2.66272
3.40267
3.22556
3.25539
3.32376
3.38102
3.42835
3.47381
3.51811
3.55979
3.59742
3.62975
3.65661
3.67755
3.69186
3.69888
3.69808
3.68941
3.67326
3.64969
3.61885
3.581
3.53675
3.48763
3.43583
3.38403
3.33424
3.27869
3.22243
3.19602
2.66272
75.4078
678.67
678.67
75.4078
2.66272
3.40523
3.24164
3.25679
3.32007
3.37677
3.42433
3.47017
3.51493
3.55727
3.59582
3.62942
3.6575
3.67928
3.69422
3.70196
3.70188
3.6939
3.67843
3.65554
3.62537
3.58818
3.54457
3.49607
3.44466
3.3925
3.34058
3.2766
3.19555
3.14602
3.1489
75.4078
678.67
678.67
75.4078
2.66272
3.26825
3.20094
3.25346
3.32438
3.38079
3.4273
3.47217
3.51624
3.55835
3.59708
3.63125
3.65991
3.68234
3.69804
3.70667
3.70763
3.70087
3.68677
3.66538
3.63681
3.60129
3.55934
3.51246
3.46243
3.41133
3.36133
3.30887
3.28566
3.42196
2.66272
75.4078
678.67
678.67
75.4078
2.66272
2.66272
3.17003
3.24895
3.32638
3.38469
3.43178
3.47672
3.52069
3.56268
3.60116
3.63503
3.66349
3.68587
3.70167
3.71054
3.71181
3.7054
3.69166
3.67057
3.64217
3.60661
3.56434
3.51687
3.46603
3.41411
3.36292
3.30744
3.2874
3.46811
2.66272
75.4078
678.67
678.67
75.4078
2.66272
2.66272
3.17031
3.25287
3.33383
3.39379
3.44148
3.48657
3.5301
3.57145
3.60945
3.6428
3.67026
3.69183
3.70736
3.7164
3.71817
3.71252
3.69968
3.67955
3.65209
3.61741
3.57601
3.52949
3.47987
3.42965
3.38213
3.33275
3.30176
3.32019
3.12929
75.4078
678.67
678.67
75.4078
2.66272
2.66272
3.18144
3.25826
3.33455
3.39408
3.44186
3.48703
3.53068
3.57192
3.60975
3.64325
3.67141
3.69379
3.71
3.71971
3.72212
3.71708
3.70476
3.68501
3.65772
3.62292
3.58091
3.53313
3.48112
3.42654
3.37019
3.29985
3.2134
3.1656
2.66272
75.4078
678.67
678.67
75.4078
2.66272
3.17852
3.18257
3.2547
3.33101
3.39021
3.43802
3.48349
3.52785
3.57046
3.6096
3.64375
3.67258
3.69599
3.71334
3.72423
3.72786
3.7241
3.71301
3.6944
3.66811
3.63411
3.59273
3.54551
3.4942
3.44114
3.38863
3.32946
3.27275
3.24556
2.66272
75.4078
678.67
678.67
75.4078
2.66272
3.40684
3.24418
3.26974
3.33809
3.3938
3.43997
3.48439
3.52798
3.57006
3.60905
3.64376
3.67362
3.69786
3.71593
3.7275
3.73188
3.72879
3.7182
3.70005
3.6742
3.64064
3.59984
3.55344
3.50332
3.45112
3.39727
3.33012
3.25003
3.20481
3.13771
75.4078
678.67
678.67
75.4078
2.66272
3.28768
3.22297
3.26741
3.33974
3.39588
3.44196
3.48619
3.52954
3.57148
3.61065
3.6459
3.67631
3.70115
3.7199
3.73225
3.7375
3.73534
3.72569
3.70838
3.68319
3.65
3.60919
3.56217
3.5105
3.45685
3.40062
3.32863
3.23262
3.14763
2.66272
75.4078
678.67
678.67
75.4078
2.66272
2.66272
3.17571
3.25594
3.33828
3.39746
3.44444
3.48901
3.53239
3.57425
3.61335
3.64856
3.67897
3.70387
3.72274
3.73529
3.74086
3.73885
3.72901
3.71152
3.686
3.65223
3.61068
3.56276
3.51005
3.45449
3.39523
3.3168
3.20481
2.66272
2.66272
75.4078
678.67
678.67
75.4078
2.66272
2.66272
3.1885
3.2642
3.34185
3.40014
3.44692
3.49145
3.53479
3.57668
3.61588
3.65129
3.68202
3.70733
3.72669
3.73972
3.7461
3.74503
3.73605
3.71928
3.69426
3.66068
3.61902
3.57056
3.51673
3.45932
3.39825
3.31881
3.20544
2.66272
2.66272
75.4078
678.67
678.67
75.4078
2.66272
2.66272
3.19375
3.27276
3.34868
3.40561
3.45157
3.49552
3.5384
3.57996
3.61894
3.65425
3.68495
3.71033
3.72984
3.74308
3.74967
3.74875
3.73982
3.72304
3.69787
3.66393
3.62169
3.57229
3.51719
3.45869
3.397
3.32526
3.27036
3.3471
2.66272
75.4078
678.67
678.67
75.4078
2.66272
2.66272
3.18891
3.2723
3.35038
3.40809
3.45429
3.49833
3.54118
3.58273
3.62177
3.65723
3.6882
3.71397
3.73397
3.74781
3.75509
3.75486
3.74658
3.73019
3.70509
3.67082
3.62782
3.57719
3.5205
3.4606
3.39978
3.33543
3.31197
3.47494
2.66272
75.4078
678.67
678.67
75.4078
2.66272
2.66272
3.18747
3.27426
3.3535
3.41117
3.45725
3.50126
3.54399
3.58537
3.62427
3.65962
3.69054
3.71632
3.73642
3.7504
3.75791
3.75795
3.74994
3.73386
3.70913
3.67533
3.63298
3.58328
3.5277
3.46833
3.40468
3.32633
3.23622
3.1933
2.66272
75.4078
678.67
678.67
75.4078
2.66272
2.66272
3.19066
3.27802
3.35702
3.41451
3.46048
3.5044
3.54705
3.58844
3.62744
3.66299
3.69423
3.72043
3.74106
3.75569
3.76395
3.76483
3.75776
3.74261
3.71872
3.68557
3.64364
3.59391
3.53777
3.47792
3.41606
3.34981
3.32317
3.47647
2.66272
75.4078
678.67
678.67
75.4078
2.66272
2.66272
3.18919
3.28048
3.36095
3.41803
3.46376
3.5076
3.55013
3.59142
3.63037
3.66597
3.69731
3.72371
3.74459
3.75955
3.7682
3.76948
3.76282
3.7481
3.72469
3.69212
3.65099
3.60237
3.54761
3.4888
3.42536
3.34733
3.26514
3.25123
3.19194
75.4078
678.67
678.67
75.4078
2.66272
2.66272
3.19242
3.27991
3.36344
3.42097
3.46676
3.51065
3.5532
3.59456
3.63365
3.66947
3.70114
3.72795
3.74935
3.76492
3.77426
3.77627
3.77041
3.75648
3.73385
3.702
3.66151
3.61336
3.5587
3.49931
3.43381
3.34818
3.23265
3.12112
2.66272
75.4078
678.67
678.67
75.4078
2.66272
2.66272
3.19533
3.28192
3.36666
3.42432
3.47001
3.51385
3.55625
3.59746
3.63644
3.67222
3.70392
3.73084
3.75241
3.76823
3.77786
3.78017
3.77442
3.7604
3.73763
3.70571
3.66534
3.61778
3.56439
3.50685
3.44561
3.37823
3.35181
3.51306
2.66272
75.4078
678.67
678.67
75.4078
2.66272
3.14035
3.20374
3.28424
3.36857
3.42666
3.47265
3.51672
3.55926
3.6006
3.63976
3.67578
3.70781
3.73515
3.75724
3.77362
3.7839
3.78705
3.78226
3.7691
3.74702
3.71557
3.67542
3.62763
3.57406
3.51634
3.45555
3.39057
3.3663
3.53546
2.66272
75.4078
678.67
678.67
75.4078
2.66272
3.36322
3.24507
3.29512
3.37273
3.42985
3.47579
3.5199
3.56244
3.60377
3.64292
3.67897
3.71106
3.7385
3.76073
3.77727
3.7877
3.7909
3.78603
3.77261
3.75006
3.71786
3.67662
3.62745
3.57195
3.51214
3.44701
3.36875
3.29285
3.25565
2.66272
75.4078
678.67
678.67
75.4078
2.66272
3.3893
3.26242
3.30467
3.37684
3.43276
3.47858
3.52278
3.56547
3.60695
3.64633
3.68268
3.71518
3.74313
3.76598
3.78325
3.79447
3.7985
3.79447
3.7818
3.7598
3.72781
3.68618
3.63575
3.57777
3.51474
3.44454
3.35813
3.27009
3.21568
3.16028
75.4078
678.67
678.67
75.4078
2.66272
2.66272
3.21173
3.2988
3.3793
3.43598
3.48152
3.5255
3.56805
3.60948
3.64889
3.68534
3.718
3.74619
3.76933
3.78694
3.79854
3.80293
3.7992
3.78679
3.765
3.73312
3.6915
3.64089
3.58234
3.51792
3.44421
3.35021
3.24997
3.18885
3.15082
75.4078
678.67
678.67
75.4078
2.66272
3.1839
3.23314
3.30438
3.38159
3.43849
3.48421
3.52816
3.57069
3.61219
3.65175
3.68848
3.72155
3.75025
3.77402
3.79236
3.80478
3.81035
3.80776
3.79606
3.77505
3.74384
3.70259
3.65201
3.59328
3.52867
3.45368
3.35542
3.23869
3.12635
2.66272
75.4078
678.67
678.67
75.4078
2.66272
2.66272
3.20263
3.29853
3.38263
3.44053
3.48656
3.53069
3.57327
3.61474
3.6543
3.69104
3.72417
3.753
3.77693
3.79546
3.80806
3.814
3.81182
3.80048
3.77987
3.74919
3.70871
3.65953
3.60352
3.54266
3.47424
3.39458
3.33435
3.31106
2.66272
75.4078
678.67
678.67
75.4078
2.66272
3.14374
3.20606
3.29446
3.38008
3.44048
3.48795
3.53276
3.57565
3.61734
3.65712
3.69416
3.72767
3.75696
3.78143
3.80056
3.81379
3.82046
3.81906
3.80845
3.78839
3.75804
3.71768
3.66849
3.61249
3.55195
3.48524
3.41272
3.36835
3.35088
3.16334
75.4078
678.67
678.67
75.4078
2.66272
3.37668
3.25671
3.31189
3.38858
3.4463
3.49323
3.53756
3.5796
3.62056
3.66004
3.69701
3.73058
3.76001
3.78468
3.80403
3.81747
3.82431
3.82297
3.81224
3.79188
3.76097
3.71965
3.66906
3.61121
3.54864
3.47902
3.40356
3.36563
3.36653
2.66272
75.4078
678.67
678.67
75.4078
2.66272
3.42053
3.27176
3.31451
3.38911
3.44688
3.49403
3.53871
3.58106
3.62242
3.66233
3.6998
3.73395
3.76406
3.78953
3.80981
3.82434
3.83243
3.83248
3.82337
3.80475
3.77563
3.73605
3.68701