/*--------------------------------*- C++ -*----------------------------------*\
  =========                 |
  \\      /  F ield         | OpenFOAM: The Open Source CFD Toolbox
   \\    /   O peration     | Website:  https://openfoam.org
    \\  /    A nd           | Version:  13
     \\/     M anipulation  |
\*---------------------------------------------------------------------------*/
FoamFile
{
    format      ascii;
    class       volScalarField;
    location    "3";
    object      p;
}
// * * * * * * * * * * * * * * * * * * * * * * * * * * * * * * * * * * * * * //

dimensions      [0 2 -2 0 0 0 0];

internalField   nonuniform List<scalar> 
78750
(
0
0.000229049
0.000825156
0.00147139
0.00192458
0.00237977
0.00285794
0.00319429
0.00348739
0.00378693
0.00407102
0.00434224
0.00454071
0.00472736
0.00491667
0.00509559
0.00525151
0.00535637
0.00543894
0.00555
0.00566991
0.00574405
0.00580413
0.00586176
0.00591084
0.00594413
0.00596784
0.0059881
0.00601222
0.00603062
0.00605926
0.00611222
0.00617418
0.00632945
0.00645745
-0.142776
-0.142778
-0.142775
-0.142729
-0.142645
-0.142494
-0.142268
-0.142019
-0.141776
-0.141543
-0.141319
-0.141107
-0.140908
-0.140724
-0.140559
-0.14041
-0.140279
-0.140162
-0.140059
-0.139969
-0.139894
-0.139833
-0.139787
-0.139754
-0.139735
-0.139728
-0.139733
-0.139749
-0.139773
-0.139792
-0.139802
-0.139778
-0.13973
-0.139673
-0.139621
-0.286231
-0.286222
-0.286205
-0.286192
-0.286165
-0.286122
-0.286061
-0.285987
-0.285906
-0.285822
-0.285736
-0.285651
-0.285565
-0.285481
-0.285398
-0.285319
-0.285242
-0.285168
-0.285099
-0.285034
-0.284973
-0.284919
-0.284872
-0.284831
-0.284797
-0.284769
-0.284748
-0.284734
-0.284729
-0.284732
-0.284735
-0.284727
-0.284707
-0.284675
-0.284665
-0.43102
-0.431014
-0.430998
-0.430979
-0.430956
-0.430922
-0.43087
-0.430808
-0.430745
-0.430682
-0.430621
-0.430562
-0.430507
-0.430453
-0.430402
-0.430354
-0.430309
-0.430268
-0.43023
-0.430197
-0.430167
-0.430141
-0.43012
-0.430104
-0.430092
-0.430085
-0.430083
-0.430085
-0.430091
-0.430097
-0.430099
-0.430096
-0.430089
-0.43008
-0.430077
-0.576174
-0.576171
-0.576161
-0.576153
-0.576142
-0.576121
-0.576089
-0.576049
-0.576007
-0.575963
-0.575918
-0.575873
-0.575828
-0.575784
-0.57574
-0.575697
-0.575656
-0.575617
-0.57558
-0.575546
-0.575516
-0.575488
-0.575465
-0.575446
-0.575431
-0.57542
-0.575414
-0.575411
-0.575413
-0.575416
-0.575417
-0.575416
-0.57541
-0.575406
-0.575411
-0.721481
-0.72148
-0.721469
-0.721461
-0.721452
-0.721437
-0.721412
-0.721381
-0.721347
-0.721313
-0.721277
-0.721242
-0.721206
-0.72117
-0.721134
-0.7211
-0.721066
-0.721034
-0.721003
-0.720974
-0.720947
-0.720923
-0.720902
-0.720883
-0.720868
-0.720856
-0.720847
-0.72084
-0.720837
-0.720833
-0.72083
-0.720828
-0.72083
-0.720813
-0.720821
-0.866976
-0.866976
-0.866966
-0.866959
-0.86695
-0.866936
-0.866913
-0.866883
-0.866849
-0.866814
-0.866779
-0.866743
-0.866706
-0.86667
-0.866633
-0.866596
-0.86656
-0.866526
-0.866492
-0.866459
-0.866429
-0.8664
-0.866373
-0.866349
-0.866326
-0.866307
-0.866289
-0.866273
-0.866261
-0.866251
-0.866242
-0.866236
-0.866231
-0.866223
-0.866239
-1.01246
-1.01246
-1.01245
-1.01245
-1.01244
-1.01243
-1.01241
-1.01238
-1.01234
-1.01231
-1.01228
-1.01224
-1.0122
-1.01217
-1.01213
-1.01209
-1.01206
-1.01202
-1.01199
-1.01195
-1.01192
-1.01189
-1.01186
-1.01183
-1.0118
-1.01178
-1.01176
-1.01173
-1.01171
-1.0117
-1.01168
-1.01167
-1.01167
-1.01166
-1.01167
-1.15795
-1.15796
-1.15795
-1.15794
-1.15793
-1.15792
-1.1579
-1.15787
-1.15784
-1.15781
-1.15777
-1.15774
-1.1577
-1.15767
-1.15763
-1.15759
-1.15756
-1.15752
-1.15749
-1.15745
-1.15742
-1.15739
-1.15736
-1.15733
-1.1573
-1.15728
-1.15726
-1.15724
-1.15722
-1.15721
-1.1572
-1.15719
-1.1572
-1.15721
-1.15722
-1.30338
-1.30339
-1.30338
-1.30337
-1.30337
-1.30335
-1.30333
-1.30331
-1.30328
-1.30325
-1.30321
-1.30318
-1.30315
-1.30311
-1.30308
-1.30304
-1.30301
-1.30297
-1.30294
-1.30291
-1.30288
-1.30285
-1.30282
-1.30279
-1.30276
-1.30274
-1.30272
-1.3027
-1.30268
-1.30267
-1.30265
-1.30265
-1.30265
-1.30264
-1.30265
-1.44874
-1.44875
-1.44874
-1.44874
-1.44873
-1.44872
-1.4487
-1.44867
-1.44865
-1.44862
-1.44859
-1.44855
-1.44852
-1.44849
-1.44846
-1.44843
-1.44839
-1.44836
-1.44833
-1.4483
-1.44827
-1.44824
-1.44821
-1.44818
-1.44816
-1.44813
-1.44811
-1.44809
-1.44807
-1.44806
-1.44805
-1.44804
-1.44804
-1.44802
-1.44804
-1.59401
-1.59401
-1.594
-1.594
-1.59399
-1.59398
-1.59397
-1.59395
-1.59392
-1.5939
-1.59387
-1.59384
-1.59381
-1.59378
-1.59375
-1.59372
-1.59369
-1.59366
-1.59363
-1.5936
-1.59358
-1.59355
-1.59352
-1.5935
-1.59347
-1.59345
-1.59343
-1.59341
-1.59339
-1.59338
-1.59337
-1.59336
-1.59337
-1.59337
-1.59338
-1.73922
-1.73923
-1.73922
-1.73922
-1.73921
-1.7392
-1.73918
-1.73917
-1.73914
-1.73912
-1.73909
-1.73907
-1.73904
-1.73902
-1.73899
-1.73896
-1.73893
-1.73891
-1.73888
-1.73885
-1.73883
-1.7388
-1.73878
-1.73875
-1.73873
-1.7387
-1.73868
-1.73866
-1.73864
-1.73863
-1.73861
-1.7386
-1.7386
-1.7386
-1.73863
-1.88435
-1.88436
-1.88434
-1.88434
-1.88434
-1.88433
-1.88432
-1.8843
-1.88428
-1.88426
-1.88424
-1.88422
-1.8842
-1.88417
-1.88415
-1.88413
-1.8841
-1.88408
-1.88405
-1.88403
-1.88401
-1.88398
-1.88396
-1.88394
-1.88392
-1.88389
-1.88387
-1.88386
-1.88384
-1.88383
-1.88381
-1.88381
-1.88381
-1.88379
-1.88378
-2.02943
-2.02943
-2.02942
-2.02942
-2.02942
-2.02942
-2.02941
-2.0294
-2.02938
-2.02937
-2.02935
-2.02933
-2.02931
-2.02929
-2.02927
-2.02925
-2.02923
-2.02921
-2.02919
-2.02917
-2.02915
-2.02913
-2.02911
-2.0291
-2.02908
-2.02906
-2.02904
-2.02903
-2.02902
-2.029
-2.02899
-2.02899
-2.029
-2.029
-2.02903
-2.17448
-2.17449
-2.17449
-2.17449
-2.17448
-2.17448
-2.17447
-2.17445
-2.17444
-2.17442
-2.17441
-2.17439
-2.17438
-2.17436
-2.17434
-2.17432
-2.17431
-2.17429
-2.17427
-2.17425
-2.17424
-2.17422
-2.1742
-2.17419
-2.17417
-2.17416
-2.17414
-2.17413
-2.17412
-2.17411
-2.1741
-2.17409
-2.1741
-2.17407
-2.1741
-2.3195
-2.3195
-2.3195
-2.3195
-2.31949
-2.31949
-2.31948
-2.31947
-2.31946
-2.31944
-2.31943
-2.31942
-2.3194
-2.31939
-2.31937
-2.31936
-2.31934
-2.31933
-2.31931
-2.3193
-2.31928
-2.31927
-2.31925
-2.31924
-2.31922
-2.31921
-2.31919
-2.31918
-2.31918
-2.31917
-2.31915
-2.31915
-2.31916
-2.31914
-2.31917
-2.46446
-2.46447
-2.46446
-2.46447
-2.46447
-2.46446
-2.46446
-2.46445
-2.46444
-2.46443
-2.46442
-2.4644
-2.46439
-2.46438
-2.46437
-2.46435
-2.46434
-2.46432
-2.46431
-2.4643
-2.46428
-2.46427
-2.46425
-2.46424
-2.46423
-2.46421
-2.4642
-2.46418
-2.46418
-2.46417
-2.46415
-2.46414
-2.46416
-2.46416
-2.46421
-2.60942
-2.60944
-2.60943
-2.60943
-2.60943
-2.60943
-2.60942
-2.60941
-2.6094
-2.60939
-2.60938
-2.60937
-2.60936
-2.60935
-2.60934
-2.60933
-2.60932
-2.6093
-2.60929
-2.60928
-2.60927
-2.60926
-2.60924
-2.60923
-2.60922
-2.6092
-2.60919
-2.60917
-2.60917
-2.60915
-2.60914
-2.60914
-2.60914
-2.60912
-2.60915
-2.75436
-2.75438
-2.75437
-2.75437
-2.75437
-2.75436
-2.75436
-2.75435
-2.75435
-2.75434
-2.75433
-2.75432
-2.75431
-2.7543
-2.75429
-2.75428
-2.75427
-2.75426
-2.75425
-2.75424
-2.75423
-2.75421
-2.7542
-2.75419
-2.75418
-2.75417
-2.75416
-2.75415
-2.75414
-2.75413
-2.75412
-2.75412
-2.75413
-2.7541
-2.75412
-2.89928
-2.8993
-2.8993
-2.8993
-2.8993
-2.8993
-2.89929
-2.89928
-2.89928
-2.89927
-2.89926
-2.89926
-2.89925
-2.89924
-2.89923
-2.89922
-2.89922
-2.89921
-2.8992
-2.89919
-2.89918
-2.89917
-2.89916
-2.89915
-2.89914
-2.89913
-2.89912
-2.89912
-2.89911
-2.8991
-2.89909
-2.89908
-2.89909
-2.89907
-2.8991
-3.0442
-3.04421
-3.0442
-3.0442
-3.0442
-3.0442
-3.0442
-3.04419
-3.04419
-3.04418
-3.04418
-3.04417
-3.04417
-3.04416
-3.04416
-3.04415
-3.04414
-3.04414
-3.04413
-3.04412
-3.04411
-3.04411
-3.0441
-3.04409
-3.04408
-3.04407
-3.04407
-3.04406
-3.04406
-3.04405
-3.04403
-3.04403
-3.04405
-3.04402
-3.04401
-3.18911
-3.18913
-3.18913
-3.18913
-3.18912
-3.18912
-3.18912
-3.18911
-3.18911
-3.1891
-3.1891
-3.18909
-3.18909
-3.18908
-3.18908
-3.18907
-3.18907
-3.18906
-3.18906
-3.18905
-3.18905
-3.18904
-3.18904
-3.18903
-3.18902
-3.18902
-3.18901
-3.189
-3.189
-3.18899
-3.18898
-3.18897
-3.18899
-3.18899
-3.18904
-3.33402
-3.33403
-3.33401
-3.33401
-3.33402
-3.33401
-3.33401
-3.33401
-3.334
-3.334
-3.334
-3.334
-3.33399
-3.33399
-3.33399
-3.33398
-3.33398
-3.33398
-3.33397
-3.33397
-3.33397
-3.33396
-3.33396
-3.33396
-3.33395
-3.33395
-3.33394
-3.33394
-3.33394
-3.33394
-3.33392
-3.33392
-3.33394
-3.33392
-3.33394
-3.47889
-3.4789
-3.4789
-3.4789
-3.4789
-3.4789
-3.4789
-3.4789
-3.4789
-3.4789
-3.4789
-3.4789
-3.47889
-3.47889
-3.47889
-3.47889
-3.47889
-3.47889
-3.47888
-3.47888
-3.47888
-3.47887
-3.47887
-3.47887
-3.47886
-3.47886
-3.47885
-3.47885
-3.47884
-3.47884
-3.47882
-3.47881
-3.47882
-3.47883
-3.47889
-3.6238
-3.62382
-3.62381
-3.62381
-3.62381
-3.62381
-3.6238
-3.6238
-3.6238
-3.6238
-3.6238
-3.62379
-3.62379
-3.62379
-3.62379
-3.62379
-3.62379
-3.62379
-3.62379
-3.62378
-3.62378
-3.62378
-3.62378
-3.62378
-3.62377
-3.62377
-3.62376
-3.62376
-3.62376
-3.62376
-3.62374
-3.62374
-3.62376
-3.62371
-3.62377
-3.76867
-3.76869
-3.76869
-3.76869
-3.7687
-3.7687
-3.76869
-3.76869
-3.76869
-3.76869
-3.76869
-3.76869
-3.76869
-3.76869
-3.76869
-3.76869
-3.76869
-3.76869
-3.76869
-3.76869
-3.76869
-3.76869
-3.76868
-3.76868
-3.76868
-3.76868
-3.76867
-3.76867
-3.76867
-3.76866
-3.76864
-3.76864
-3.76866
-3.76866
-3.76874
-3.91356
-3.91358
-3.91357
-3.91357
-3.91357
-3.91357
-3.91357
-3.91357
-3.91357
-3.91357
-3.91358
-3.91358
-3.91358
-3.91358
-3.91358
-3.91358
-3.91358
-3.91358
-3.91358
-3.91358
-3.91358
-3.91358
-3.91358
-3.91358
-3.91357
-3.91357
-3.91356
-3.91356
-3.91355
-3.91354
-3.91352
-3.91351
-3.91353
-3.91352
-3.91357
-4.05846
-4.05847
-4.05847
-4.05847
-4.05847
-4.05847
-4.05847
-4.05847
-4.05847
-4.05847
-4.05847
-4.05847
-4.05848
-4.05848
-4.05848
-4.05848
-4.05849
-4.05849
-4.05849
-4.05849
-4.05849
-4.05849
-4.05849
-4.05849
-4.05849
-4.05848
-4.05848
-4.05848
-4.05848
-4.05847
-4.05846
-4.05846
-4.05847
-4.05844
-4.05849
-4.20334
-4.20336
-4.20334
-4.20335
-4.20335
-4.20335
-4.20335
-4.20335
-4.20336
-4.20336
-4.20336
-4.20336
-4.20337
-4.20337
-4.20337
-4.20338
-4.20338
-4.20338
-4.20338
-4.20339
-4.20339
-4.20339
-4.20339
-4.20338
-4.20338
-4.20338
-4.20338
-4.20337
-4.20338
-4.20337
-4.20335
-4.20335
-4.20337
-4.20334
-4.20335
-4.34823
-4.34825
-4.34824
-4.34825
-4.34825
-4.34825
-4.34825
-4.34825
-4.34825
-4.34826
-4.34826
-4.34826
-4.34827
-4.34827
-4.34828
-4.34828
-4.34829
-4.34829
-4.34829
-4.3483
-4.3483
-4.3483
-4.3483
-4.3483
-4.3483
-4.3483
-4.34829
-4.34829
-4.34829
-4.34828
-4.34826
-4.34826
-4.34828
-4.34826
-4.34831
-4.49314
-4.49315
-4.49314
-4.49314
-4.49314
-4.49314
-4.49314
-4.49314
-4.49315
-4.49315
-4.49316
-4.49316
-4.49317
-4.49318
-4.49318
-4.49319
-4.49319
-4.4932
-4.4932
-4.49321
-4.49321
-4.49322
-4.49322
-4.49322
-4.49322
-4.49322
-4.49323
-4.49323
-4.49323
-4.49323
-4.49321
-4.49321
-4.49323
-4.4932
-4.49325
-4.63803
-4.63804
-4.63803
-4.63804
-4.63804
-4.63804
-4.63804
-4.63805
-4.63805
-4.63806
-4.63807
-4.63807
-4.63808
-4.63808
-4.63809
-4.6381
-4.6381
-4.63811
-4.63811
-4.63812
-4.63812
-4.63813
-4.63813
-4.63814
-4.63814
-4.63814
-4.63814
-4.63814
-4.63815
-4.63815
-4.63813
-4.63812
-4.63814
-4.63812
-4.63813
-4.78292
-4.78293
-4.78293
-4.78293
-4.78294
-4.78294
-4.78294
-4.78295
-4.78295
-4.78296
-4.78296
-4.78297
-4.78298
-4.78298
-4.78299
-4.783
-4.78301
-4.78301
-4.78302
-4.78303
-4.78303
-4.78304
-4.78304
-4.78304
-4.78305
-4.78305
-4.78305
-4.78306
-4.78307
-4.78306
-4.78304
-4.78304
-4.78307
-4.78304
-4.78304
-4.92783
-4.92785
-4.92784
-4.92785
-4.92785
-4.92785
-4.92785
-4.92786
-4.92786
-4.92787
-4.92787
-4.92788
-4.92788
-4.92789
-4.9279
-4.92791
-4.92791
-4.92792
-4.92792
-4.92793
-4.92793
-4.92794
-4.92794
-4.92794
-4.92795
-4.92795
-4.92795
-4.92795
-4.92795
-4.92794
-4.92792
-4.92792
-4.92794
-4.92793
-4.92802
-5.07272
-5.07276
-5.07275
-5.07276
-5.07276
-5.07276
-5.07276
-5.07276
-5.07277
-5.07277
-5.07278
-5.07278
-5.07279
-5.0728
-5.0728
-5.07281
-5.07281
-5.07282
-5.07283
-5.07283
-5.07283
-5.07284
-5.07284
-5.07284
-5.07284
-5.07284
-5.07284
-5.07285
-5.07285
-5.07284
-5.07282
-5.07282
-5.07285
-5.07279
-5.07281
-5.21765
-5.21768
-5.21766
-5.21766
-5.21767
-5.21767
-5.21767
-5.21767
-5.21768
-5.21768
-5.21769
-5.21769
-5.2177
-5.2177
-5.21771
-5.21772
-5.21772
-5.21773
-5.21773
-5.21774
-5.21774
-5.21775
-5.21775
-5.21775
-5.21775
-5.21775
-5.21775
-5.21775
-5.21775
-5.21774
-5.21772
-5.21772
-5.21774
-5.21773
-5.2178
-5.36255
-5.36259
-5.36259
-5.36259
-5.36259
-5.36259
-5.36258
-5.36259
-5.36259
-5.3626
-5.3626
-5.3626
-5.36261
-5.36261
-5.36262
-5.36262
-5.36263
-5.36264
-5.36264
-5.36264
-5.36265
-5.36265
-5.36265
-5.36265
-5.36265
-5.36265
-5.36265
-5.36265
-5.36265
-5.36264
-5.36262
-5.36262
-5.36264
-5.36262
-5.36268
-5.50747
-5.5075
-5.50748
-5.50749
-5.50749
-5.50749
-5.50749
-5.50749
-5.5075
-5.5075
-5.50751
-5.50751
-5.50752
-5.50752
-5.50753
-5.50753
-5.50754
-5.50755
-5.50755
-5.50756
-5.50756
-5.50756
-5.50757
-5.50757
-5.50757
-5.50757
-5.50757
-5.50757
-5.50757
-5.50756
-5.50753
-5.50752
-5.50755
-5.50751
-5.50755
-5.65239
-5.65242
-5.65241
-5.65241
-5.65241
-5.65241
-5.65241
-5.65241
-5.65241
-5.65242
-5.65242
-5.65242
-5.65243
-5.65243
-5.65244
-5.65244
-5.65245
-5.65246
-5.65246
-5.65246
-5.65247
-5.65247
-5.65247
-5.65247
-5.65247
-5.65247
-5.65247
-5.65247
-5.65247
-5.65246
-5.65244
-5.65243
-5.65246
-5.65245
-5.65251
-5.7973
-5.79732
-5.7973
-5.7973
-5.79731
-5.79731
-5.79731
-5.79731
-5.79732
-5.79732
-5.79733
-5.79733
-5.79734
-5.79734
-5.79735
-5.79735
-5.79736
-5.79736
-5.79737
-5.79737
-5.79738
-5.79738
-5.79738
-5.79738
-5.79738
-5.79738
-5.79738
-5.79738
-5.79739
-5.79739
-5.79736
-5.79736
-5.79738
-5.79734
-5.79739
-5.94221
-5.94222
-5.94221
-5.94221
-5.94222
-5.94222
-5.94222
-5.94222
-5.94223
-5.94223
-5.94224
-5.94224
-5.94225
-5.94225
-5.94226
-5.94226
-5.94227
-5.94227
-5.94227
-5.94228
-5.94228
-5.94228
-5.94228
-5.94228
-5.94228
-5.94227
-5.94227
-5.94227
-5.94226
-5.94225
-5.94222
-5.94221
-5.94224
-5.9422
-5.9423
-6.08712
-6.08715
-6.08714
-6.08714
-6.08715
-6.08714
-6.08714
-6.08714
-6.08715
-6.08715
-6.08716
-6.08716
-6.08717
-6.08717
-6.08718
-6.08718
-6.08719
-6.08719
-6.0872
-6.0872
-6.08721
-6.08721
-6.08721
-6.08722
-6.08722
-6.08722
-6.08722
-6.08723
-6.08724
-6.08723
-6.08721
-6.08722
-6.08725
-6.08717
-6.0872
-6.23203
-6.23205
-6.23204
-6.23205
-6.23205
-6.23205
-6.23205
-6.23205
-6.23206
-6.23206
-6.23207
-6.23207
-6.23208
-6.23208
-6.23209
-6.23209
-6.23209
-6.2321
-6.2321
-6.2321
-6.2321
-6.23211
-6.23211
-6.23211
-6.23211
-6.2321
-6.2321
-6.2321
-6.23211
-6.2321
-6.23207
-6.23206
-6.23208
-6.23209
-6.23216
-6.37695
-6.37698
-6.37698
-6.37699
-6.37699
-6.37698
-6.37698
-6.37698
-6.37699
-6.37699
-6.37699
-6.37699
-6.377
-6.377
-6.377
-6.37701
-6.37701
-6.37701
-6.37701
-6.37702
-6.37702
-6.37701
-6.37701
-6.37701
-6.377
-6.377
-6.37699
-6.37698
-6.37698
-6.37696
-6.37693
-6.37692
-6.37694
-6.37691
-6.37695
-6.52186
-6.52191
-6.52189
-6.5219
-6.5219
-6.5219
-6.5219
-6.5219
-6.52191
-6.52191
-6.52191
-6.52191
-6.52192
-6.52192
-6.52192
-6.52193
-6.52193
-6.52193
-6.52193
-6.52193
-6.52194
-6.52194
-6.52193
-6.52193
-6.52193
-6.52193
-6.52192
-6.52192
-6.52192
-6.52191
-6.52189
-6.52189
-6.52192
-6.52187
-6.52195
-6.66679
-6.66683
-6.66683
-6.66684
-6.66684
-6.66683
-6.66683
-6.66683
-6.66683
-6.66684
-6.66684
-6.66684
-6.66684
-6.66684
-6.66685
-6.66685
-6.66685
-6.66685
-6.66685
-6.66686
-6.66686
-6.66686
-6.66685
-6.66685
-6.66685
-6.66685
-6.66685
-6.66685
-6.66685
-6.66684
-6.66681
-6.6668
-6.66682
-6.66678
-6.66681
-6.81175
-6.81176
-6.81175
-6.81176
-6.81176
-6.81175
-6.81175
-6.81175
-6.81175
-6.81175
-6.81176
-6.81176
-6.81176
-6.81176
-6.81176
-6.81176
-6.81176
-6.81176
-6.81176
-6.81176
-6.81176
-6.81176
-6.81176
-6.81175
-6.81174
-6.81174
-6.81173
-6.81172
-6.81172
-6.81171
-6.81167
-6.81167
-6.8117
-6.81166
-6.81172
-6.95665
-6.95669
-6.95667
-6.95668
-6.95668
-6.95668
-6.95667
-6.95667
-6.95668
-6.95668
-6.95668
-6.95668
-6.95668
-6.95668
-6.95668
-6.95668
-6.95668
-6.95668
-6.95668
-6.95668
-6.95668
-6.95668
-6.95667
-6.95667
-6.95666
-6.95666
-6.95665
-6.95664
-6.95664
-6.95662
-6.95659
-6.95658
-6.95661
-6.9566
-6.95667
-7.10156
-7.10159
-7.10158
-7.10159
-7.10159
-7.10159
-7.10158
-7.10158
-7.10159
-7.10159
-7.10159
-7.10159
-7.10159
-7.1016
-7.1016
-7.1016
-7.1016
-7.1016
-7.1016
-7.1016
-7.1016
-7.1016
-7.10159
-7.10159
-7.10158
-7.10157
-7.10157
-7.10156
-7.10156
-7.10154
-7.10151
-7.1015
-7.10153
-7.10147
-7.10154
-7.24647
-7.2465
-7.24648
-7.24649
-7.2465
-7.2465
-7.24649
-7.2465
-7.2465
-7.24651
-7.24651
-7.24651
-7.24652
-7.24652
-7.24652
-7.24652
-7.24653
-7.24653
-7.24653
-7.24653
-7.24653
-7.24652
-7.24652
-7.24652
-7.24651
-7.24651
-7.2465
-7.2465
-7.24649
-7.24648
-7.24645
-7.24645
-7.24648
-7.24644
-7.24648
-7.39136
-7.39142
-7.39142
-7.39142
-7.39143
-7.39143
-7.39143
-7.39143
-7.39143
-7.39143
-7.39144
-7.39144
-7.39144
-7.39144
-7.39144
-7.39145
-7.39145
-7.39145
-7.39145
-7.39145
-7.39145
-7.39145
-7.39145
-7.39145
-7.39144
-7.39144
-7.39144
-7.39143
-7.39144
-7.39143
-7.3914
-7.3914
-7.39143
-7.39135
-7.39138
-7.53633
-7.53638
-7.53637
-7.53638
-7.53638
-7.53637
-7.53637
-7.53637
-7.53637
-7.53637
-7.53637
-7.53637
-7.53637
-7.53637
-7.53637
-7.53637
-7.53637
-7.53637
-7.53637
-7.53637
-7.53637
-7.53637
-7.53636
-7.53636
-7.53636
-7.53635
-7.53634
-7.53634
-7.53634
-7.53632
-7.53629
-7.53628
-7.53632
-7.53629
-7.53642
-7.68126
-7.68131
-7.68128
-7.68129
-7.68129
-7.68128
-7.68128
-7.68128
-7.68128
-7.68128
-7.68128
-7.68128
-7.68128
-7.68128
-7.68128
-7.68128
-7.68128
-7.68128
-7.68128
-7.68128
-7.68128
-7.68127
-7.68127
-7.68126
-7.68126
-7.68125
-7.68124
-7.68124
-7.68124
-7.68122
-7.68119
-7.68118
-7.68121
-7.6812
-7.68128
-7.82615
-7.82621
-7.82619
-7.8262
-7.8262
-7.8262
-7.82619
-7.82619
-7.82619
-7.82619
-7.82619
-7.82619
-7.82619
-7.82619
-7.82619
-7.82619
-7.82619
-7.82619
-7.82619
-7.82619
-7.82618
-7.82618
-7.82617
-7.82616
-7.82615
-7.82614
-7.82613
-7.82613
-7.82613
-7.82611
-7.82608
-7.82607
-7.8261
-7.82603
-7.82615
-7.97105
-7.97111
-7.97111
-7.97111
-7.97111
-7.97111
-7.9711
-7.9711
-7.9711
-7.9711
-7.9711
-7.9711
-7.9711
-7.9711
-7.97109
-7.97109
-7.97109
-7.97109
-7.97109
-7.97108
-7.97108
-7.97107
-7.97107
-7.97106
-7.97105
-7.97104
-7.97103
-7.97102
-7.97102
-7.971
-7.97096
-7.97096
-7.97099
-7.97095
-7.97108
-8.11596
-8.11601
-8.11599
-8.116
-8.116
-8.11599
-8.11599
-8.11599
-8.11599
-8.11599
-8.11599
-8.11599
-8.11599
-8.11599
-8.11599
-8.11599
-8.11599
-8.11599
-8.11599
-8.11598
-8.11598
-8.11598
-8.11597
-8.11596
-8.11595
-8.11594
-8.11593
-8.11592
-8.11592
-8.1159
-8.11586
-8.11585
-8.11589
-8.11591
-8.11606
-8.26085
-8.26089
-8.26087
-8.26088
-8.26089
-8.26088
-8.26087
-8.26087
-8.26088
-8.26088
-8.26087
-8.26087
-8.26087
-8.26087
-8.26087
-8.26087
-8.26087
-8.26087
-8.26086
-8.26086
-8.26085
-8.26085
-8.26084
-8.26084
-8.26083
-8.26082
-8.26081
-8.26081
-8.26081
-8.2608
-8.26076
-8.26076
-8.26079
-8.26071
-8.26079
-8.40572
-8.40577
-8.40575
-8.40576
-8.40576
-8.40576
-8.40575
-8.40575
-8.40576
-8.40576
-8.40575
-8.40575
-8.40575
-8.40575
-8.40575
-8.40575
-8.40574
-8.40574
-8.40574
-8.40573
-8.40573
-8.40572
-8.40571
-8.40571
-8.4057
-8.40569
-8.40568
-8.40567
-8.40566
-8.40565
-8.4056
-8.40558
-8.40562
-8.40557
-8.40562
-8.55059
-8.55065
-8.55064
-8.55065
-8.55065
-8.55064
-8.55063
-8.55063
-8.55063
-8.55063
-8.55062
-8.55062
-8.55062
-8.55061
-8.55061
-8.55061
-8.55061
-8.5506
-8.5506
-8.55059
-8.55059
-8.55058
-8.55057
-8.55057
-8.55056
-8.55055
-8.55054
-8.55053
-8.55054
-8.55053
-8.55049
-8.5505
-8.55054
-8.55047
-8.55052
-8.69547
-8.69552
-8.69548
-8.69549
-8.6955
-8.69549
-8.69548
-8.69548
-8.69548
-8.69548
-8.69548
-8.69548
-8.69547
-8.69547
-8.69547
-8.69546
-8.69546
-8.69545
-8.69545
-8.69544
-8.69543
-8.69542
-8.69542
-8.6954
-8.69539
-8.69538
-8.69537
-8.69536
-8.69536
-8.69534
-8.6953
-8.69529
-8.69531
-8.6953
-8.69546
-8.84031
-8.84037
-8.84034
-8.84035
-8.84035
-8.84035
-8.84034
-8.84034
-8.84034
-8.84034
-8.84033
-8.84033
-8.84032
-8.84032
-8.84031
-8.84031
-8.8403
-8.8403
-8.84029
-8.84028
-8.84027
-8.84026
-8.84025
-8.84024
-8.84023
-8.84022
-8.84021
-8.8402
-8.84019
-8.84018
-8.84014
-8.84013
-8.84017
-8.84009
-8.84009
-8.98517
-8.98524
-8.98523
-8.98524
-8.98524
-8.98523
-8.98522
-8.98521
-8.98521
-8.9852
-8.98519
-8.98518
-8.98518
-8.98517
-8.98516
-8.98516
-8.98515
-8.98514
-8.98513
-8.98512
-8.98511
-8.9851
-8.98509
-8.98507
-8.98506
-8.98505
-8.98503
-8.98502
-8.98501
-8.98499
-8.98495
-8.98494
-8.98497
-8.98497
-8.98514
-9.13005
-9.1301
-9.13005
-9.13006
-9.13006
-9.13006
-9.13005
-9.13005
-9.13004
-9.13004
-9.13003
-9.13002
-9.13001
-9.13
-9.12999
-9.12999
-9.12998
-9.12997
-9.12996
-9.12994
-9.12993
-9.12992
-9.12991
-9.12989
-9.12988
-9.12986
-9.12984
-9.12983
-9.12982
-9.1298
-9.12976
-9.12975
-9.12979
-9.12973
-9.12984
-9.27488
-9.27494
-9.27492
-9.27492
-9.27492
-9.27491
-9.2749
-9.2749
-9.27489
-9.27488
-9.27487
-9.27487
-9.27486
-9.27485
-9.27484
-9.27483
-9.27482
-9.27481
-9.27479
-9.27478
-9.27477
-9.27475
-9.27474
-9.27472
-9.27471
-9.27469
-9.27467
-9.27466
-9.27465
-9.27463
-9.27459
-9.27458
-9.27462
-9.27459
-9.27469
-9.41972
-9.41978
-9.41974
-9.41975
-9.41975
-9.41975
-9.41974
-9.41973
-9.41972
-9.41972
-9.41971
-9.4197
-9.41969
-9.41968
-9.41967
-9.41966
-9.41964
-9.41963
-9.41962
-9.41961
-9.41959
-9.41958
-9.41956
-9.41954
-9.41953
-9.41951
-9.41949
-9.41948
-9.41947
-9.41945
-9.4194
-9.41939
-9.41942
-9.41939
-9.41956
-9.56455
-9.5646
-9.56457
-9.56458
-9.56458
-9.56458
-9.56457
-9.56457
-9.56456
-9.56455
-9.56454
-9.56454
-9.56453
-9.56452
-9.56451
-9.56449
-9.56448
-9.56447
-9.56446
-9.56445
-9.56443
-9.56442
-9.5644
-9.56438
-9.56436
-9.56435
-9.56433
-9.56431
-9.5643
-9.56428
-9.56423
-9.56421
-9.56425
-9.56422
-9.56436
-9.70939
-9.70945
-9.70943
-9.70944
-9.70944
-9.70943
-9.70942
-9.70942
-9.70941
-9.7094
-9.70939
-9.70938
-9.70937
-9.70936
-9.70935
-9.70934
-9.70933
-9.70931
-9.7093
-9.70929
-9.70927
-9.70926
-9.70924
-9.70922
-9.70921
-9.70919
-9.70917
-9.70915
-9.70914
-9.70912
-9.70907
-9.70906
-9.7091
-9.70906
-9.70912
-9.85427
-9.85433
-9.85428
-9.85429
-9.8543
-9.85429
-9.85428
-9.85427
-9.85427
-9.85426
-9.85425
-9.85424
-9.85423
-9.85422
-9.85421
-9.8542
-9.85419
-9.85418
-9.85417
-9.85415
-9.85414
-9.85413
-9.85411
-9.85409
-9.85407
-9.85406
-9.85404
-9.85402
-9.85401
-9.85399
-9.85394
-9.85392
-9.85398
-9.85395
-9.85401
-9.99914
-9.9992
-9.99916
-9.99917
-9.99917
-9.99917
-9.99916
-9.99915
-9.99914
-9.99914
-9.99913
-9.99912
-9.99911
-9.9991
-9.99909
-9.99908
-9.99907
-9.99906
-9.99905
-9.99903
-9.99902
-9.99901
-9.99899
-9.99898
-9.99896
-9.99894
-9.99892
-9.99891
-9.99891
-9.99889
-9.99884
-9.99883
-9.99887
-9.99881
-9.99889
-10.144
-10.1441
-10.144
-10.1441
-10.1441
-10.1441
-10.144
-10.144
-10.144
-10.144
-10.144
-10.144
-10.144
-10.144
-10.144
-10.144
-10.144
-10.144
-10.144
-10.1439
-10.1439
-10.1439
-10.1439
-10.1439
-10.1439
-10.1439
-10.1438
-10.1438
-10.1438
-10.1438
-10.1438
-10.1438
-10.1438
-10.1437
-10.1438
-10.2889
-10.289
-10.2889
-10.289
-10.289
-10.289
-10.2889
-10.2889
-10.2889
-10.2889
-10.2889
-10.2889
-10.2889
-10.2889
-10.2889
-10.2889
-10.2889
-10.2889
-10.2889
-10.2889
-10.2888
-10.2888
-10.2888
-10.2888
-10.2888
-10.2888
-10.2888
-10.2888
-10.2887
-10.2887
-10.2887
-10.2887
-10.2887
-10.2886
-10.2887
-10.4339
-10.4339
-10.4339
-10.4339
-10.4339
-10.4339
-10.4339
-10.4339
-10.4339
-10.4339
-10.4339
-10.4339
-10.4339
-10.4339
-10.4338
-10.4338
-10.4338
-10.4338
-10.4338
-10.4338
-10.4338
-10.4338
-10.4338
-10.4337
-10.4337
-10.4337
-10.4337
-10.4337
-10.4337
-10.4337
-10.4336
-10.4336
-10.4337
-10.4336
-10.4335
-10.5788
-10.5789
-10.5789
-10.5789
-10.5789
-10.5789
-10.5789
-10.5789
-10.5788
-10.5788
-10.5788
-10.5788
-10.5788
-10.5788
-10.5788
-10.5788
-10.5788
-10.5788
-10.5788
-10.5787
-10.5787
-10.5787
-10.5787
-10.5787
-10.5787
-10.5787
-10.5786
-10.5786
-10.5786
-10.5786
-10.5785
-10.5785
-10.5786
-10.5786
-10.5788
-10.7238
-10.7239
-10.7238
-10.7239
-10.7239
-10.7239
-10.7238
-10.7238
-10.7238
-10.7238
-10.7238
-10.7238
-10.7238
-10.7238
-10.7238
-10.7238
-10.7238
-10.7238
-10.7238
-10.7237
-10.7237
-10.7237
-10.7237
-10.7237
-10.7237
-10.7237
-10.7236
-10.7236
-10.7236
-10.7236
-10.7235
-10.7235
-10.7236
-10.7235
-10.7236
-10.8689
-10.8689
-10.8689
-10.8689
-10.8689
-10.8689
-10.8689
-10.8689
-10.8689
-10.8689
-10.8688
-10.8688
-10.8688
-10.8688
-10.8688
-10.8688
-10.8688
-10.8688
-10.8688
-10.8688
-10.8687
-10.8687
-10.8687
-10.8687
-10.8687
-10.8686
-10.8686
-10.8686
-10.8686
-10.8686
-10.8685
-10.8685
-10.8685
-10.8685
-10.8687
-11.0139
-11.014
-11.0139
-11.014
-11.014
-11.014
-11.014
-11.0139
-11.0139
-11.0139
-11.0139
-11.0139
-11.0139
-11.0139
-11.0139
-11.0139
-11.0139
-11.0139
-11.0138
-11.0138
-11.0138
-11.0138
-11.0138
-11.0138
-11.0137
-11.0137
-11.0137
-11.0137
-11.0137
-11.0136
-11.0136
-11.0136
-11.0136
-11.0135
-11.0138
-11.159
-11.1591
-11.1591
-11.1591
-11.1591
-11.1591
-11.1591
-11.1591
-11.1591
-11.159
-11.159
-11.159
-11.159
-11.159
-11.159
-11.159
-11.159
-11.159
-11.1589
-11.1589
-11.1589
-11.1589
-11.1589
-11.1589
-11.1588
-11.1588
-11.1588
-11.1588
-11.1588
-11.1587
-11.1587
-11.1587
-11.1587
-11.1586
-11.1588
-11.3042
-11.3042
-11.3042
-11.3042
-11.3042
-11.3042
-11.3042
-11.3042
-11.3042
-11.3042
-11.3042
-11.3042
-11.3042
-11.3042
-11.3042
-11.3042
-11.3042
-11.3041
-11.3041
-11.3041
-11.3041
-11.3041
-11.3041
-11.304
-11.304
-11.304
-11.304
-11.304
-11.304
-11.3039
-11.3039
-11.3039
-11.3039
-11.3039
-11.304
-11.4494
-11.4495
-11.4494
-11.4494
-11.4494
-11.4494
-11.4494
-11.4494
-11.4494
-11.4494
-11.4494
-11.4494
-11.4494
-11.4494
-11.4494
-11.4494
-11.4494
-11.4493
-11.4493
-11.4493
-11.4493
-11.4493
-11.4493
-11.4493
-11.4492
-11.4492
-11.4492
-11.4492
-11.4492
-11.4491
-11.4491
-11.4491
-11.4491
-11.449
-11.4491
-11.5947
-11.5947
-11.5947
-11.5947
-11.5947
-11.5947
-11.5947
-11.5947
-11.5947
-11.5947
-11.5947
-11.5947
-11.5947
-11.5947
-11.5947
-11.5946
-11.5946
-11.5946
-11.5946
-11.5946
-11.5946
-11.5946
-11.5946
-11.5945
-11.5945
-11.5945
-11.5945
-11.5945
-11.5945
-11.5945
-11.5944
-11.5944
-11.5944
-11.5943
-11.5943
-11.74
-11.7401
-11.74
-11.7401
-11.7401
-11.7401
-11.74
-11.74
-11.74
-11.74
-11.74
-11.74
-11.74
-11.74
-11.74
-11.74
-11.7399
-11.7399
-11.7399
-11.7399
-11.7399
-11.7399
-11.7399
-11.7399
-11.7398
-11.7398
-11.7398
-11.7398
-11.7398
-11.7398
-11.7397
-11.7397
-11.7397
-11.7397
-11.7397
-11.8854
-11.8854
-11.8854
-11.8854
-11.8854
-11.8854
-11.8854
-11.8854
-11.8854
-11.8854
-11.8854
-11.8854
-11.8854
-11.8853
-11.8853
-11.8853
-11.8853
-11.8853
-11.8853
-11.8853
-11.8853
-11.8852
-11.8852
-11.8852
-11.8852
-11.8852
-11.8852
-11.8852
-11.8851
-11.8851
-11.8851
-11.885
-11.8851
-11.885
-11.8849
-12.0307
-12.0308
-12.0308
-12.0308
-12.0308
-12.0308
-12.0308
-12.0308
-12.0308
-12.0308
-12.0308
-12.0308
-12.0307
-12.0307
-12.0307
-12.0307
-12.0307
-12.0307
-12.0307
-12.0306
-12.0306
-12.0306
-12.0306
-12.0306
-12.0306
-12.0305
-12.0305
-12.0305
-12.0305
-12.0305
-12.0304
-12.0304
-12.0304
-12.0304
-12.0306
-12.1762
-12.1763
-12.1763
-12.1763
-12.1763
-12.1763
-12.1763
-12.1763
-12.1763
-12.1762
-12.1762
-12.1762
-12.1762
-12.1762
-12.1762
-12.1762
-12.1761
-12.1761
-12.1761
-12.1761
-12.1761
-12.1761
-12.176
-12.176
-12.176
-12.176
-12.1759
-12.1759
-12.1759
-12.1759
-12.1758
-12.1758
-12.1758
-12.1758
-12.176
-12.3217
-12.3218
-12.3218
-12.3218
-12.3218
-12.3218
-12.3218
-12.3218
-12.3218
-12.3217
-12.3217
-12.3217
-12.3217
-12.3217
-12.3217
-12.3217
-12.3216
-12.3216
-12.3216
-12.3216
-12.3216
-12.3216
-12.3215
-12.3215
-12.3215
-12.3215
-12.3214
-12.3214
-12.3214
-12.3214
-12.3213
-12.3213
-12.3213
-12.3212
-12.3213
-12.4673
-12.4674
-12.4673
-12.4673
-12.4673
-12.4673
-12.4673
-12.4673
-12.4673
-12.4673
-12.4673
-12.4673
-12.4673
-12.4673
-12.4672
-12.4672
-12.4672
-12.4672
-12.4672
-12.4672
-12.4671
-12.4671
-12.4671
-12.4671
-12.467
-12.467
-12.467
-12.467
-12.4669
-12.4669
-12.4668
-12.4668
-12.4669
-12.4668
-12.467
-12.6129
-12.613
-12.6129
-12.613
-12.613
-12.6129
-12.6129
-12.6129
-12.6129
-12.6129
-12.6129
-12.6129
-12.6129
-12.6128
-12.6128
-12.6128
-12.6128
-12.6128
-12.6128
-12.6127
-12.6127
-12.6127
-12.6127
-12.6127
-12.6126
-12.6126
-12.6126
-12.6126
-12.6125
-12.6125
-12.6124
-12.6124
-12.6124
-12.6123
-12.6125
-12.7585
-12.7586
-12.7586
-12.7586
-12.7586
-12.7586
-12.7586
-12.7586
-12.7586
-12.7586
-12.7585
-12.7585
-12.7585
-12.7585
-12.7585
-12.7585
-12.7585
-12.7584
-12.7584
-12.7584
-12.7584
-12.7584
-12.7583
-12.7583
-12.7583
-12.7583
-12.7582
-12.7582
-12.7582
-12.7582
-12.7581
-12.7581
-12.7581
-12.758
-12.7581
-12.9042
-12.9043
-12.9043
-12.9043
-12.9043
-12.9043
-12.9043
-12.9043
-12.9043
-12.9042
-12.9042
-12.9042
-12.9042
-12.9042
-12.9042
-12.9042
-12.9041
-12.9041
-12.9041
-12.9041
-12.9041
-12.904
-12.904
-12.904
-12.904
-12.9039
-12.9039
-12.9039
-12.9039
-12.9038
-12.9037
-12.9037
-12.9037
-12.9037
-12.9039
-13.05
-13.05
-13.05
-13.05
-13.05
-13.05
-13.05
-13.05
-13.05
-13.05
-13.05
-13.0499
-13.0499
-13.0499
-13.0499
-13.0499
-13.0499
-13.0498
-13.0498
-13.0498
-13.0498
-13.0498
-13.0497
-13.0497
-13.0497
-13.0496
-13.0496
-13.0496
-13.0496
-13.0495
-13.0494
-13.0494
-13.0495
-13.0493
-13.0495
-13.1957
-13.1958
-13.1958
-13.1958
-13.1958
-13.1958
-13.1958
-13.1958
-13.1958
-13.1957
-13.1957
-13.1957
-13.1957
-13.1957
-13.1957
-13.1956
-13.1956
-13.1956
-13.1956
-13.1956
-13.1955
-13.1955
-13.1955
-13.1955
-13.1954
-13.1954
-13.1954
-13.1953
-13.1953
-13.1953
-13.1952
-13.1952
-13.1952
-13.1951
-13.1952
-13.3415
-13.3416
-13.3416
-13.3416
-13.3416
-13.3416
-13.3416
-13.3416
-13.3416
-13.3416
-13.3415
-13.3415
-13.3415
-13.3415
-13.3415
-13.3414
-13.3414
-13.3414
-13.3414
-13.3413
-13.3413
-13.3413
-13.3413
-13.3412
-13.3412
-13.3412
-13.3411
-13.3411
-13.3411
-13.341
-13.3409
-13.3409
-13.3409
-13.3409
-13.341
-13.4874
-13.4875
-13.4874
-13.4874
-13.4874
-13.4874
-13.4874
-13.4874
-13.4874
-13.4874
-13.4874
-13.4873
-13.4873
-13.4873
-13.4873