/*--------------------------------*- C++ -*----------------------------------*\
  =========                 |
  \\      /  F ield         | OpenFOAM: The Open Source CFD Toolbox
   \\    /   O peration     | Website:  https://openfoam.org
    \\  /    A nd           | Version:  13
     \\/     M anipulation  |
\*---------------------------------------------------------------------------*/
FoamFile
{
    format      ascii;
    class       volVectorField;
    location    "3";
    object      U;
}
// * * * * * * * * * * * * * * * * * * * * * * * * * * * * * * * * * * * * * //

dimensions      [0 1 -1 0 0 0 0];

internalField   nonuniform List<vector> 
78750
(
(0.00265452 -0.012562 -0.00124105)
(0.00369878 -0.0275446 -0.00184153)
(0.0109825 -0.0253693 -0.000655856)
(0.015417 -0.0173434 0.000456911)
(0.0182284 -0.00758519 0.00107334)
(0.021564 -0.0015824 0.00192491)
(0.0221958 0.00102472 0.00150155)
(0.0216026 0.00117231 0.000222432)
(0.0231157 0.00109159 -3.42284e-05)
(0.0227103 0.000825735 -0.000409887)
(0.0229295 0.000822972 -0.000295005)
(0.0224721 0.000866355 -0.000253999)
(0.0232708 0.00056344 -0.000325979)
(0.02359 0.000115456 -0.000383794)
(0.023601 -0.000294456 -0.000454381)
(0.0240162 -0.000526572 -0.000289873)
(0.0239355 -0.000708167 7.57711e-05)
(0.0245318 -0.000903256 0.000386312)
(0.0249222 -0.00118294 0.000436949)
(0.0251412 -0.00125162 0.000821482)
(0.0252349 -0.00131219 0.00109375)
(0.02539 -0.00144555 0.00122365)
(0.0257869 -0.00142947 0.00164734)
(0.0257792 -0.00145189 0.00200054)
(0.0260495 -0.00149278 0.00221606)
(0.0263348 -0.00139588 0.00258283)
(0.0265745 -0.00126374 0.00287984)
(0.0266341 -0.00052984 0.00320075)
(0.026683 -0.000335607 0.00306009)
(0.0263109 0.0020831 0.00338207)
(0.0254807 0.00416187 0.0033724)
(0.0239186 0.00966259 0.00386223)
(0.0188982 0.0174176 0.0046223)
(0.0143604 0.0229629 0.00505776)
(0.00372369 0.0276987 0.00392714)
(0.000168714 -0.0304031 0.000302539)
(0.00108881 -0.0456165 -0.000410462)
(0.0026009 -0.0396769 -0.000790529)
(0.00376034 -0.0279058 -0.00036304)
(0.00439177 -0.0142914 0.00076978)
(0.00509248 -0.00639616 0.00120353)
(0.00567562 -0.00281373 0.00105961)
(0.0060717 -0.00142127 0.000794879)
(0.00641642 -0.000823627 0.000585167)
(0.00678247 -0.000587875 0.00049711)
(0.00711075 -0.000525537 0.000507256)
(0.00746245 -0.000458393 0.000623352)
(0.00777573 -0.000502303 0.000788594)
(0.00807045 -0.000659396 0.000966017)
(0.00833808 -0.000921789 0.00114256)
(0.00858917 -0.00125559 0.00131498)
(0.00884 -0.0015582 0.0014828)
(0.0090797 -0.00186343 0.00164268)
(0.00929323 -0.00221128 0.00180005)
(0.0095158 -0.00250396 0.00195708)
(0.0097495 -0.00274093 0.00210774)
(0.00998733 -0.00301313 0.00225166)
(0.0102405 -0.00327768 0.00238884)
(0.0105098 -0.00350569 0.00251436)
(0.0107895 -0.00368133 0.00262345)
(0.0111009 -0.00376252 0.00270134)
(0.0114212 -0.00362758 0.00272537)
(0.0117512 -0.00289304 0.00273409)
(0.0120246 -0.00111119 0.00276303)
(0.0122125 0.00227172 0.00284488)
(0.0121889 0.00886793 0.00314871)
(0.0117035 0.0232397 0.00391981)
(0.00993089 0.0472582 0.0044865)
(0.0060737 0.0737365 0.00426703)
(0.00107225 0.0694292 0.00320688)
(1.68983e-05 -0.038277 0.000564028)
(0.000939075 -0.0540369 -0.000294398)
(0.00119493 -0.0447524 -0.000662781)
(0.00138062 -0.0295578 -0.000206937)
(0.00155033 -0.0154299 0.000156024)
(0.0017711 -0.00784564 7.12228e-05)
(0.00203733 -0.00495161 -8.89553e-05)
(0.00229602 -0.00375491 -0.000146798)
(0.00257657 -0.00321004 -0.000108925)
(0.00285096 -0.00303604 -2.93165e-05)
(0.0031271 -0.00307598 7.08199e-05)
(0.00341734 -0.00319367 0.000190257)
(0.00371668 -0.00335012 0.00033014)
(0.00401312 -0.00353446 0.000486622)
(0.00429849 -0.00374374 0.000656511)
(0.00456322 -0.0039689 0.000837314)
(0.00480774 -0.00420621 0.00102671)
(0.00503624 -0.0044586 0.00122195)
(0.0052477 -0.0047281 0.00142002)
(0.0054424 -0.00501465 0.00161755)
(0.00562459 -0.00532144 0.00181091)
(0.00579285 -0.00564952 0.00199721)
(0.0059482 -0.00598812 0.00217134)
(0.00609095 -0.00632664 0.00232559)
(0.00621756 -0.00663901 0.00245364)
(0.00632851 -0.00686167 0.00254616)
(0.00642258 -0.00686141 0.00259118)
(0.00648895 -0.00641318 0.00263674)
(0.00652315 -0.00496526 0.00275486)
(0.00647353 -0.00118738 0.00307294)
(0.00619814 0.00755249 0.00366872)
(0.00562114 0.0267192 0.00435586)
(0.00438151 0.0568109 0.00457159)
(0.00281083 0.0875316 0.0040703)
(0.00071584 0.0783298 0.00310706)
(-3.80184e-06 -0.0371304 0.000570886)
(0.00022398 -0.0567214 -0.000294352)
(0.000435624 -0.0486377 -0.000673414)
(0.000735428 -0.0345654 -0.000412523)
(0.00112705 -0.0206419 -4.7308e-05)
(0.00158791 -0.0117001 -6.67552e-05)
(0.0019477 -0.00823838 -0.000226971)
(0.00222195 -0.00681888 -0.000300655)
(0.00249452 -0.00608567 -0.000284541)
(0.00276264 -0.00570306 -0.000236447)
(0.0030022 -0.00555831 -0.000175645)
(0.00322499 -0.00551965 -9.08642e-05)
(0.00343666 -0.00550418 1.78625e-05)
(0.00362678 -0.00551717 0.000147954)
(0.00380133 -0.00556411 0.000293966)
(0.00396183 -0.00564485 0.000451883)
(0.00410908 -0.00575343 0.000621466)
(0.00424401 -0.00588666 0.000802651)
(0.00436659 -0.0060429 0.000991153)
(0.00447855 -0.00621801 0.001183)
(0.00458109 -0.00640931 0.00137466)
(0.0046688 -0.00662192 0.00156024)
(0.00474379 -0.0068438 0.00173468)
(0.00480311 -0.00706145 0.00188989)
(0.00484645 -0.00724506 0.0020156)
(0.00486863 -0.00732008 0.00210083)
(0.00486809 -0.00715046 0.0021641)
(0.00482337 -0.00646627 0.0022305)
(0.00473092 -0.00478299 0.00234056)
(0.00454623 -0.000319491 0.00265633)
(0.00419974 0.010089 0.0032239)
(0.0036826 0.0311616 0.0037692)
(0.00282661 0.0633346 0.00387575)
(0.0017274 0.0926196 0.0033414)
(0.000404441 0.0818307 0.00255532)
(0.000106588 -0.0375794 0.000370021)
(0.000389877 -0.0578685 -0.000599425)
(0.000435653 -0.0494177 -0.000939329)
(0.000542986 -0.0351617 -0.000748427)
(0.000676002 -0.0215532 -0.000464491)
(0.000951996 -0.0128795 -0.000444994)
(0.00118686 -0.00942715 -0.000520453)
(0.00136791 -0.0079212 -0.000539974)
(0.00154313 -0.00714054 -0.000498706)
(0.00171344 -0.00676333 -0.000437901)
(0.00188643 -0.00660111 -0.000367281)
(0.00204461 -0.00655503 -0.000283661)
(0.00219395 -0.00656124 -0.000179275)
(0.00234047 -0.00658993 -5.87757e-05)
(0.00247798 -0.00664653 7.51199e-05)
(0.00260797 -0.00673302 0.000219229)
(0.00272939 -0.0068491 0.000373014)
(0.00284153 -0.00699265 0.000535281)
(0.0029451 -0.0071591 0.00070363)
(0.00304012 -0.00734565 0.000875571)
(0.00312627 -0.00755126 0.00104821)
(0.00320287 -0.00777373 0.00121756)
(0.0032689 -0.00800637 0.0013784)
(0.00332272 -0.00823268 0.00152446)
(0.00336264 -0.00841684 0.00164791)
(0.00338653 -0.00848514 0.00174099)
(0.0033908 -0.00830071 0.00181326)
(0.0033678 -0.0075973 0.00188504)
(0.00329377 -0.00589721 0.00199959)
(0.00313613 -0.00120491 0.00231141)
(0.00284328 0.010976 0.00287247)
(0.00239816 0.0346997 0.0033011)
(0.0019601 0.0688479 0.00331208)
(0.00138827 0.102653 0.00311492)
(0.000532552 0.0829581 0.00201186)
(0.000142224 -0.0394784 0.000175295)
(0.000377079 -0.0613134 -0.000813583)
(0.000358055 -0.052577 -0.00106709)
(0.000468586 -0.0381643 -0.000865645)
(0.000582353 -0.0243726 -0.000587402)
(0.000798891 -0.0151435 -0.000526198)
(0.0009876 -0.0112088 -0.000572566)
(0.00112999 -0.00949676 -0.000585793)
(0.00125627 -0.00861891 -0.000550534)
(0.00137987 -0.00816835 -0.000494528)
(0.00149787 -0.00793606 -0.000427172)
(0.00160784 -0.00780915 -0.000346959)
(0.00170763 -0.00773957 -0.00025333)
(0.00180542 -0.00770774 -0.000148265)
(0.00189266 -0.00770711 -3.43387e-05)
(0.00197151 -0.00773028 9.21353e-05)
(0.00204584 -0.00777671 0.000224966)
(0.00211003 -0.0078564 0.000363923)
(0.00216616 -0.00796947 0.000507679)
(0.00221502 -0.0081078 0.000654392)
(0.00225587 -0.00826595 0.00080182)
(0.0022876 -0.00844133 0.000946882)
(0.002309 -0.0086281 0.00108537)
(0.00231802 -0.0088097 0.00121234)
(0.00231214 -0.00894878 0.00132219)
(0.00228941 -0.00897074 0.00140988)
(0.00224673 -0.00873871 0.00148105)
(0.00217669 -0.00799031 0.00155532)
(0.00205233 -0.00620787 0.00167746)
(0.00181611 -0.00118949 0.00198436)
(0.00149473 0.012352 0.00253598)
(0.00127041 0.0372806 0.00292994)
(0.000771703 0.0702635 0.00286158)
(0.000882127 0.100963 0.00256154)
(0.000565244 0.0822839 0.00175921)
(0.000232125 -0.0406895 -3.29403e-05)
(0.000422262 -0.0629762 -0.00100768)
(0.000281875 -0.0543898 -0.0012301)
(0.000326549 -0.0399776 -0.00102319)
(0.000365135 -0.0260006 -0.000720981)
(0.000521873 -0.0163896 -0.000604906)
(0.000679917 -0.0121374 -0.00061204)
(0.000791855 -0.0103101 -0.00060948)
(0.000881204 -0.00940494 -0.000571946)
(0.000969331 -0.00894369 -0.000516833)
(0.00105393 -0.00870159 -0.00045245)
(0.00113239 -0.00856269 -0.000377643)
(0.00120486 -0.00847785 -0.000292293)
(0.0012706 -0.00842825 -0.000197853)
(0.00133483 -0.00840761 -9.68983e-05)
(0.00139077 -0.00841472 8.10739e-06)
(0.00143971 -0.00844867 0.000120193)
(0.00148609 -0.00851319 0.00023639)
(0.00152541 -0.00860979 0.000356219)
(0.00155872 -0.00873123 0.00047778)
(0.00158579 -0.0088719 0.000599711)
(0.00160564 -0.00902856 0.000720033)
(0.00161704 -0.00919431 0.000835611)
(0.00161786 -0.00935132 0.000942477)
(0.00160474 -0.00946089 0.00103626)
(0.00157602 -0.009448 0.00111338)
(0.00152801 -0.00918177 0.00117641)
(0.00145145 -0.00841157 0.00123897)
(0.00131819 -0.00661192 0.00133956)
(0.00106633 -0.00152071 0.00158691)
(0.000765609 0.0127929 0.00205009)
(0.000681506 0.0390507 0.0024033)
(0.000616482 0.0754304 0.0025212)
(0.00104942 0.100823 0.00212836)
(0.000728564 0.0821982 0.00135161)
(0.000270987 -0.0423496 -3.9349e-05)
(0.000428709 -0.065139 -0.000893289)
(0.000170526 -0.0563142 -0.00113265)
(0.000121933 -0.0418236 -0.000990732)
(9.68226e-05 -0.0277261 -0.000740601)
(0.000212405 -0.0178292 -0.0006181)
(0.000361441 -0.0132167 -0.000604721)
(0.000468252 -0.0112355 -0.00059306)
(0.000544801 -0.010275 -0.000554676)
(0.000616634 -0.00977876 -0.00050085)
(0.000683666 -0.00950424 -0.000439543)
(0.000743515 -0.00933202 -0.000370144)
(0.000796917 -0.00921353 -0.000292877)
(0.00084459 -0.00913072 -0.000209158)
(0.00088617 -0.00907657 -0.000120676)
(0.000925371 -0.00904853 -2.93013e-05)
(0.000957518 -0.00904985 6.34494e-05)
(0.000982894 -0.00908536 0.000160172)
(0.00100501 -0.0091532 0.000259459)
(0.0010209 -0.00924603 0.000360041)
(0.0010311 -0.00935929 0.00046082)
(0.00103494 -0.0094901 0.000560427)
(0.00103105 -0.00963084 0.000656567)
(0.00101724 -0.00976191 0.000746407)
(0.000991084 -0.00984189 0.000826904)
(0.000948151 -0.00979528 0.000895598)
(0.00088509 -0.00948841 0.000955218)
(0.000796072 -0.00868417 0.00101508)
(0.000640595 -0.00684639 0.00111168)
(0.000345079 -0.00162343 0.00134372)
(7.441e-06 0.0134088 0.00178124)
(0.000151003 0.0404464 0.00212116)
(0.000546549 0.0715122 0.00217609)
(0.0011558 0.0991176 0.00193795)
(0.000770105 0.0811361 0.00120664)
(0.000331305 -0.0434783 -0.000108306)
(0.000462285 -0.0663684 -0.000917697)
(0.000150113 -0.057408 -0.00112038)
(8.73507e-05 -0.0430071 -0.000975064)
(4.78655e-05 -0.0289712 -0.000739306)
(0.000147227 -0.0189756 -0.000607127)
(0.000284097 -0.0140695 -0.000580476)
(0.000379746 -0.0119461 -0.000566015)
(0.000441061 -0.0109336 -0.000531226)
(0.000495829 -0.0104105 -0.000482512)
(0.000547055 -0.0101143 -0.000427478)
(0.000592177 -0.00992084 -0.00036592)
(0.000632144 -0.00978129 -0.000298275)
(0.00066785 -0.0096777 -0.000225971)
(0.000699785 -0.00960329 -0.000150604)
(0.000727602 -0.00955496 -7.3616e-05)
(0.000754469 -0.00953315 3.77242e-06)
(0.00077646 -0.00954547 8.12404e-05)
(0.000793716 -0.00959416 0.000161141)
(0.000809441 -0.0096706 0.000240847)
(0.000821093 -0.00976829 0.000320087)
(0.000828657 -0.00988296 0.000397658)
(0.000830791 -0.0100071 0.000471681)
(0.000825102 -0.0101209 0.000539913)
(0.000810389 -0.0101822 0.000600084)
(0.000780954 -0.0101144 0.000650126)
(0.000734806 -0.00978322 0.000691314)
(0.000667935 -0.0089606 0.000727294)
(0.000535643 -0.0071202 0.000779769)
(0.000273044 -0.00193754 0.000909712)
(7.03821e-05 0.0125979 0.0011794)
(0.000434346 0.0376221 0.00144765)
(0.000919116 0.0715473 0.00157897)
(0.00151516 0.101424 0.00147577)
(0.000898961 0.0808471 0.000898386)
(0.0003886 -0.0446106 -0.0001321)
(0.00050753 -0.0678093 -0.000872294)
(0.000129921 -0.0589438 -0.00104324)
(3.12795e-05 -0.0445529 -0.000914529)
(-5.62832e-05 -0.0304161 -0.000695849)
(9.9255e-06 -0.0200306 -0.000569246)
(0.000134359 -0.014772 -0.000540029)
(0.000222915 -0.0125157 -0.000524031)
(0.000275876 -0.0114638 -0.000491016)
(0.000320227 -0.0109264 -0.000445693)
(0.000361178 -0.0106202 -0.000395391)
(0.000396162 -0.0104168 -0.000340122)
(0.000426343 -0.0102666 -0.000280405)
(0.000452806 -0.0101521 -0.000217587)
(0.000476225 -0.0100669 -0.000153082)
(0.000496578 -0.0100083 -8.808e-05)
(0.000516432 -0.00997616 -2.3517e-05)
(0.000533136 -0.00997925 4.02757e-05)
(0.000546489 -0.010021 0.000104898)
(0.000558918 -0.0100919 0.000169023)
(0.000568623 -0.0101847 0.000232315)
(0.000575361 -0.0102958 0.000293852)
(0.000577843 -0.0104179 0.000352253)
(0.000573694 -0.0105312 0.000405892)
(0.000560909 -0.0105923 0.000453285)
(0.000534384 -0.0105245 0.000493094)
(0.000492705 -0.0101944 0.000525817)
(0.000431257 -0.00938047 0.000553553)
(0.00030386 -0.00758918 0.000590396)
(3.82619e-05 -0.00254657 0.00067887)
(-0.000195161 0.0122184 0.000858867)
(0.000142911 0.0384131 0.00104475)
(0.00064553 0.0722309 0.00117464)
(0.00155142 0.101486 0.00111601)
(0.00111184 0.0813061 0.000602602)
(0.000453539 -0.0456154 -0.00014114)
(0.000573869 -0.0687259 -0.00083997)
(0.0001329 -0.0595748 -0.00100381)
(1.79192e-05 -0.0451054 -0.000870463)
(-0.000110513 -0.0311924 -0.0006663)
(-6.21244e-05 -0.020769 -0.000548015)
(6.15545e-05 -0.0153546 -0.000515602)
(0.000151263 -0.0130129 -0.000496944)
(0.000204167 -0.0119272 -0.000465059)
(0.00024648 -0.0113753 -0.000423019)
(0.000284583 -0.0110577 -0.000377004)
(0.000316352 -0.0108433 -0.000326848)
(0.000343138 -0.0106823 -0.00027302)
(0.000366215 -0.0105571 -0.00021677)
(0.000386424 -0.010462 -0.000159382)
(0.00040428 -0.0103948 -0.000101846)
(0.000419918 -0.0103559 -4.4867e-05)
(0.000434992 -0.0103477 1.11466e-05)
(0.000447015 -0.010379 6.62768e-05)
(0.000456127 -0.0104459 0.000121855)
(0.000464059 -0.0105345 0.000176323)
(0.000468598 -0.0106413 0.000229021)
(0.00046874 -0.0107596 0.000278842)
(0.000461931 -0.0108702 0.000324476)
(0.000445525 -0.01093 0.00036482)
(0.000414318 -0.0108627 0.000399013)
(0.000367423 -0.010535 0.000427511)
(0.000299934 -0.00973165 0.000451662)
(0.000161193 -0.00798903 0.000482304)
(-0.000132242 -0.00306809 0.000556395)
(-0.00038815 0.011714 0.000716848)
(4.43986e-05 0.0377379 0.000873179)
(0.000418303 0.070931 0.000991223)
(0.00140279 0.0999832 0.000935209)
(0.00110684 0.080643 0.000530272)
(0.000476692 -0.0465128 -0.000101396)
(0.000589437 -0.0696007 -0.00073846)
(0.000107654 -0.0606036 -0.000876186)
(-2.21943e-05 -0.0461568 -0.000782226)
(-0.00016823 -0.0320509 -0.000594979)
(-0.000138789 -0.0214654 -0.00048227)
(-1.93531e-05 -0.0158503 -0.0004546)
(6.75024e-05 -0.0134168 -0.00044029)
(0.000115998 -0.0123034 -0.000412834)
(0.000152307 -0.0117433 -0.000375917)
(0.00018383 -0.0114201 -0.000335832)
(0.000209086 -0.0111999 -0.000292571)
(0.00022957 -0.011033 -0.000246622)
(0.000246673 -0.010902 -0.000199185)
(0.00026131 -0.0108014 -0.000151469)
(0.000274059 -0.0107298 -0.000104369)
(0.000285036 -0.0106871 -5.84519e-05)
(0.000295637 -0.0106747 -1.40063e-05)
(0.000304417 -0.010701 2.89363e-05)
(0.000311241 -0.0107636 7.11421e-05)
(0.000317133 -0.0108494 0.000111608)
(0.000320448 -0.0109546 0.000149768)
(0.000320129 -0.0110722 0.000184792)
(0.000313583 -0.011183 0.000215849)
(0.000297649 -0.0112439 0.000242462)
(0.000267196 -0.0111789 0.000264406)
(0.000221419 -0.0108545 0.000281996)
(0.000154786 -0.0100604 0.00029529)
(1.34083e-05 -0.00835835 0.00030841)
(-0.000286879 -0.00350803 0.000342441)
(-0.000517994 0.0116104 0.000438766)
(3.44049e-06 0.037852 0.000577948)
(0.000632033 0.0730644 0.000698767)
(0.00173207 0.0989008 0.00068641)
(0.00124383 0.0806836 0.00034751)
(0.000562585 -0.0471352 -8.91506e-05)
(0.000655251 -0.0705024 -0.000600801)
(8.65413e-05 -0.0611154 -0.000746345)
(-0.000102878 -0.0467002 -0.000698097)
(-0.000252884 -0.0326164 -0.000539503)
(-0.000210101 -0.0220469 -0.000438987)
(-7.91036e-05 -0.0163073 -0.000413303)
(1.63092e-05 -0.0137937 -0.000400451)
(7.01789e-05 -0.0126488 -0.000376453)
(0.000109461 -0.0120761 -0.000344113)
(0.000142558 -0.0117447 -0.000309105)
(0.000168689 -0.0115173 -0.000271468)
(0.000189598 -0.0113437 -0.000231664)
(0.000206904 -0.0112064 -0.000190801)
(0.000221693 -0.0111001 -0.000150005)
(0.000234627 -0.0110236 -0.000110125)
(0.000245881 -0.010977 -7.17119e-05)
(0.000256716 -0.0109615 -3.50825e-05)
(0.000266086 -0.0109859 -4.17489e-07)
(0.000273906 -0.0110478 3.27366e-05)
(0.000280925 -0.0111339 6.35718e-05)
(0.000285629 -0.0112403 9.15278e-05)
(0.000286777 -0.0113601 0.000115917)
(0.000281549 -0.0114742 0.000136202)
(0.000266314 -0.0115393 0.00015235)
(0.000235399 -0.0114798 0.000164639)
(0.000188067 -0.0111635 0.000173361)
(0.000119991 -0.0103823 0.000177213)
(-2.74408e-05 -0.00872768 0.000174491)
(-0.000352322 -0.00402658 0.000172283)
(-0.000619282 0.0110082 0.000200532)
(-8.89239e-05 0.0372199 0.000306889)
(0.000649516 0.0711793 0.000448772)
(0.00203209 0.101676 0.000410592)
(0.00149988 0.0795942 0.000125114)
(0.000582185 -0.0476788 -7.173e-05)
(0.000664597 -0.0706385 -0.000573894)
(8.6245e-05 -0.0613479 -0.000684886)
(-7.63312e-05 -0.0471467 -0.000589003)
(-0.000243081 -0.0333027 -0.00044574)
(-0.00022313 -0.0225994 -0.000360977)
(-0.000104619 -0.0166966 -0.000344466)
(-1.68276e-05 -0.0141089 -0.000337357)
(3.04577e-05 -0.0129368 -0.000318565)
(6.2154e-05 -0.012354 -0.000291627)
(8.7347e-05 -0.0120162 -0.000262177)
(0.000105771 -0.0117837 -0.000230427)
(0.000119202 -0.0116058 -0.000196838)
(0.000129302 -0.011465 -0.000162425)
(0.000137174 -0.011356 -0.000128209)
(0.00014347 -0.0112775 -9.49608e-05)
(0.0001484 -0.0112296 -6.31869e-05)
(0.000152844 -0.0112137 -3.32003e-05)
(0.000156083 -0.0112379 -5.2045e-06)
(0.000157867 -0.0112999 2.0977e-05)
(0.000158587 -0.0113876 4.46956e-05)
(0.000156974 -0.0114967 6.54498e-05)
(0.000151602 -0.0116201 8.27653e-05)
(0.000139463 -0.0117386 9.64691e-05)
(0.000116162 -0.011809 0.000106992)
(7.60463e-05 -0.0117539 0.00011533)
(1.81336e-05 -0.0114433 0.000122546)
(-6.38124e-05 -0.010675 0.000128408)
(-0.000230202 -0.00904304 0.000132203)
(-0.00057977 -0.00433368 0.00014157)
(-0.000855129 0.0110634 0.000184299)
(-0.000226746 0.0382933 0.000282546)
(0.000461259 0.0721496 0.000399645)
(0.00193916 0.0993597 0.000361619)
(0.00149706 0.0795938 8.47696e-05)
(0.000614121 -0.0481608 -2.72921e-05)
(0.000743227 -0.0712516 -0.000489167)
(0.000131625 -0.0623458 -0.000590552)
(-4.18193e-05 -0.047597 -0.000518349)
(-0.000220409 -0.0337126 -0.000382295)
(-0.000216998 -0.0229574 -0.000308499)
(-0.000103291 -0.0169708 -0.000298179)
(-1.92473e-05 -0.0143343 -0.000295239)
(2.5293e-05 -0.0131461 -0.000280585)
(5.37122e-05 -0.0125592 -0.000258027)
(7.55034e-05 -0.0122191 -0.00023301)
(9.08484e-05 -0.0119844 -0.000205773)
(0.000101443 -0.0118043 -0.000176706)
(0.000108899 -0.0116612 -0.000146709)
(0.000114258 -0.0115499 -0.000116707)
(0.000118135 -0.0114693 -8.74363e-05)
(0.000120773 -0.0114195 -5.94241e-05)
(0.000122864 -0.0114015 -3.30465e-05)
(0.000123868 -0.0114229 -8.63245e-06)
(0.000123443 -0.0114821 1.37815e-05)
(0.000121695 -0.0115675 3.35472e-05)
(0.000117411 -0.0116748 5.01106e-05)
(0.000108938 -0.0117962 6.30264e-05)
(9.29652e-05 -0.0119124 7.22533e-05)
(6.47458e-05 -0.0119794 7.84911e-05)
(1.83953e-05 -0.0119199 8.31595e-05)
(-4.69768e-05 -0.0116046 8.80982e-05)
(-0.000139421 -0.0108357 9.36322e-05)
(-0.00032148 -0.00922244 9.73317e-05)
(-0.000694386 -0.00460256 0.000104071)
(-0.000956813 0.0104437 0.000154923)
(-0.000224616 0.0369844 0.000287373)
(0.000701089 0.0712358 0.000414935)
(0.00231116 0.100431 0.000370849)
(0.00167961 0.0794958 4.31166e-05)
(0.000634056 -0.0483063 -3.97735e-05)
(0.00077357 -0.0720394 -0.000414147)
(0.000153838 -0.0629637 -0.000501739)
(-9.72988e-05 -0.0482436 -0.00045105)
(-0.000301188 -0.0341112 -0.00031676)
(-0.000290343 -0.023263 -0.000246575)
(-0.000169062 -0.017178 -0.000240938)
(-8.01162e-05 -0.0144993 -0.000240947)
(-3.32308e-05 -0.0133013 -0.000229712)
(-4.1234e-06 -0.0127151 -0.000211456)
(1.73242e-05 -0.0123762 -0.000191275)
(3.1649e-05 -0.0121422 -0.00016944)
(4.07675e-05 -0.011962 -0.000146248)
(4.64845e-05 -0.0118184 -0.000122458)
(4.99877e-05 -0.0117065 -9.88777e-05)
(5.2e-05 -0.0116256 -7.61934e-05)
(5.28807e-05 -0.0115763 -5.49618e-05)
(5.32355e-05 -0.0115596 -3.56507e-05)
(5.28507e-05 -0.0115819 -1.86912e-05)
(5.14502e-05 -0.0116412 -4.38771e-06)
(4.89571e-05 -0.0117276 6.61652e-06)
(4.43294e-05 -0.0118363 1.37754e-05)
(3.58629e-05 -0.0119595 1.67682e-05)
(2.01792e-05 -0.0120779 1.58112e-05)
(-7.79016e-06 -0.0121494 1.19672e-05)
(-5.38386e-05 -0.0120961 7.11888e-06)
(-0.0001188 -0.0117855 3.32594e-06)
(-0.000211831 -0.0110233 1.21154e-06)
(-0.000397787 -0.00944017 -1.26536e-06)
(-0.00078883 -0.00490027 -1.60346e-06)
(-0.00110742 0.0102035 4.86743e-05)
(-0.000385189 0.0376971 0.000212702)
(0.000538601 0.0717756 0.000377013)
(0.0023514 0.100582 0.00032804)
(0.0018553 0.080004 7.51987e-06)
(0.000631985 -0.048542 -1.80665e-05)
(0.000745152 -0.0721837 -0.000321587)
(0.000108126 -0.0627812 -0.000420149)
(-0.000140687 -0.0487034 -0.000371042)
(-0.000377725 -0.0343636 -0.00027463)
(-0.000373758 -0.0234997 -0.000219458)
(-0.000245286 -0.017371 -0.000215741)
(-0.000146294 -0.0146711 -0.000215857)
(-9.02548e-05 -0.0134647 -0.000206134)
(-5.37463e-05 -0.0128753 -0.000190407)
(-2.67837e-05 -0.0125341 -0.000173019)
(-7.80932e-06 -0.0122978 -0.000154152)
(5.2516e-06 -0.0121153 -0.00013401)
(1.43336e-05 -0.0119695 -0.000113226)
(2.07097e-05 -0.0118554 -9.25054e-05)
(2.51357e-05 -0.0117728 -7.24944e-05)
(2.79712e-05 -0.011722 -5.37872e-05)
(2.97021e-05 -0.0117045 -3.69465e-05)
(3.01551e-05 -0.0117255 -2.25287e-05)
(2.90419e-05 -0.0117834 -1.1015e-05)
(2.6159e-05 -0.0118687 -3.12236e-06)
(2.04492e-05 -0.011977 5.60863e-07)
(1.00471e-05 -0.0121003 -2.61786e-07)
(-8.65815e-06 -0.0122197 -5.29383e-06)
(-4.12439e-05 -0.0122939 -1.33798e-05)
(-9.40201e-05 -0.0122451 -2.24403e-05)
(-0.000167976 -0.0119387 -3.00372e-05)
(-0.000273457 -0.0111814 -3.48419e-05)
(-0.00048148 -0.00960803 -3.67528e-05)
(-0.000917857 -0.00508407 -3.12524e-05)
(-0.00124712 0.0101379 2.55354e-05)
(-0.000503871 0.0368508 0.000184143)
(0.000319042 0.0713869 0.000364099)
(0.00225154 0.09918 0.000347383)
(0.00183154 0.0793362 9.73589e-05)
(0.000766136 -0.0487302 -1.91656e-06)
(0.000854232 -0.0724132 -0.000268293)
(8.37899e-05 -0.0632101 -0.000369889)
(-0.000208153 -0.048445 -0.000323976)
(-0.000440738 -0.0346059 -0.000227848)
(-0.000438914 -0.0237538 -0.000176575)
(-0.000299605 -0.0176181 -0.000171313)
(-0.000194768 -0.0148917 -0.000171744)
(-0.00013654 -0.0136657 -0.000164179)
(-9.93747e-05 -0.0130636 -0.000151741)
(-7.27815e-05 -0.0127132 -0.000137969)
(-5.4478e-05 -0.0124693 -0.000122961)
(-4.22815e-05 -0.0122801 -0.000106821)
(-3.41372e-05 -0.0121283 -9.00334e-05)
(-2.86787e-05 -0.012009 -7.31926e-05)
(-2.5093e-05 -0.0119218 -5.69006e-05)
(-2.29627e-05 -0.0118673 -4.17864e-05)
(-2.1877e-05 -0.011847 -2.85027e-05)
(-2.18636e-05 -0.0118648 -1.77216e-05)
(-2.31048e-05 -0.011919 -1.01128e-05)
(-2.58487e-05 -0.0120018 -6.47332e-06)
(-3.10851e-05 -0.0121084 -7.43005e-06)
(-4.07689e-05 -0.0122302 -1.32065e-05)
(-5.86791e-05 -0.0123482 -2.3317e-05)
(-9.07222e-05 -0.0124211 -3.63528e-05)
(-0.000143661 -0.0123708 -4.99145e-05)
(-0.000218528 -0.0120611 -6.10388e-05)
(-0.000326349 -0.0113014 -6.72505e-05)
(-0.000538353 -0.00972608 -6.63619e-05)
(-0.00097182 -0.00513802 -4.85388e-05)
(-0.0013182 0.0101224 3.3303e-05)
(-0.000432972 0.0380706 0.00020816)
(0.000672724 0.0713237 0.000363995)
(0.00261444 0.100231 0.000341591)
(0.00194552 0.0788073 8.66783e-05)
(0.000794167 -0.0487416 -1.48814e-05)
(0.000926951 -0.0722653 -0.000260059)
(0.000133824 -0.0637086 -0.000317192)
(-0.000161951 -0.0490794 -0.000286108)
(-0.000396869 -0.0347872 -0.000189334)
(-0.000384234 -0.0240543 -0.000139056)
(-0.000243726 -0.0178423 -0.000136778)
(-0.00014019 -0.0150558 -0.000141138)
(-8.55562e-05 -0.0138082 -0.000137957)
(-5.25844e-05 -0.0131989 -0.000129815)
(-2.98188e-05 -0.0128451 -0.000120077)
(-1.49032e-05 -0.0125988 -0.000108971)
(-5.64118e-06 -0.0124078 -9.65866e-05)
(6.06981e-08 -0.0122543 -8.33585e-05)
(3.56091e-06 -0.0121336 -6.98632e-05)
(5.60753e-06 -0.0120455 -5.67496e-05)
(6.53389e-06 -0.0119905 -4.47468e-05)
(6.69356e-06 -0.0119698 -3.46621e-05)
(6.05753e-06 -0.0119875 -2.73645e-05)
(4.45559e-06 -0.0120421 -2.37493e-05)
(1.6106e-06 -0.0121257 -2.47781e-05)
(-3.56882e-06 -0.0122335 -3.11748e-05)
(-1.32277e-05 -0.012357 -4.31659e-05)
(-3.14495e-05 -0.012477 -6.01558e-05)
(-6.4549e-05 -0.0125524 -8.0526e-05)
(-0.000119628 -0.0125058 -0.000101585)
(-0.000196993 -0.0122019 -0.00012015)
(-0.000306649 -0.0114498 -0.000133742)
(-0.000522637 -0.00989318 -0.000140518)
(-0.000962723 -0.00538439 -0.000132654)
(-0.00130478 0.0096556 -6.10458e-05)
(-0.000442389 0.0368216 0.000119131)
(0.000730592 0.0710977 0.000302481)
(0.00272709 0.100197 0.000275064)
(0.00210696 0.0779918 4.09216e-05)
(0.000832133 -0.0490171 2.53617e-05)
(0.000965091 -0.0727125 -0.000205837)
(0.000185766 -0.0633763 -0.00026411)
(-0.000130606 -0.0494607 -0.000212283)
(-0.000390598 -0.0348583 -0.000128565)
(-0.000389849 -0.0242562 -8.42016e-05)
(-0.000263584 -0.0179517 -8.91883e-05)
(-0.00016496 -0.0151389 -9.73479e-05)
(-0.0001126 -0.0138889 -9.74884e-05)
(-8.22664e-05 -0.0132824 -9.31235e-05)
(-6.22244e-05 -0.0129315 -8.74397e-05)
(-5.00119e-05 -0.0126881 -8.06742e-05)
(-4.34334e-05 -0.0124998 -7.28488e-05)
(-4.03531e-05 -0.0123487 -6.42962e-05)
(-3.93781e-05 -0.01223 -5.55189e-05)
(-3.97414e-05 -0.0121435 -4.71673e-05)
(-4.10997e-05 -0.0120902 -4.00353e-05)
(-4.31331e-05 -0.012072 -3.50421e-05)
(-4.57776e-05 -0.0120925 -3.3195e-05)
(-4.91931e-05 -0.01215 -3.5581e-05)
(-5.36847e-05 -0.0122381 -4.32785e-05)
(-6.02511e-05 -0.0123512 -5.70681e-05)
(-7.10435e-05 -0.0124802 -7.70976e-05)
(-9.01887e-05 -0.0126061 -0.000102542)
(-0.000124209 -0.0126884 -0.000131481)
(-0.00018049 -0.0126507 -0.000160957)
(-0.00025992 -0.0123588 -0.000187616)
(-0.000374514 -0.0116235 -0.000208264)
(-0.00060413 -0.0100923 -0.000218609)
(-0.0010738 -0.00559285 -0.000211349)
(-0.00142463 0.00985845 -0.000142305)
(-0.000487488 0.0376618 3.32265e-05)
(0.000637748 0.0718891 0.000220672)
(0.00274749 0.0992613 0.000241081)
(0.00205415 0.0778535 4.85626e-05)
(0.000935585 -0.0490912 -2.27966e-06)
(0.00111013 -0.0733827 -0.000187191)
(0.000211804 -0.0639979 -0.000222446)
(-0.000168232 -0.049224 -0.000151791)
(-0.000431448 -0.0353344 -7.1132e-05)
(-0.000426121 -0.0243574 -3.78105e-05)
(-0.000284546 -0.0180367 -5.05734e-05)
(-0.000180183 -0.0152268 -6.31951e-05)
(-0.000123258 -0.013976 -6.69153e-05)
(-8.97265e-05 -0.0133694 -6.61192e-05)
(-6.75941e-05 -0.0130186 -6.39217e-05)
(-5.393e-05 -0.0127753 -6.05073e-05)
(-4.64134e-05 -0.0125871 -5.57812e-05)
(-4.28008e-05 -0.0124362 -4.99453e-05)
(-4.16196e-05 -0.0123176 -4.34101e-05)
(-4.20335e-05 -0.0122312 -3.68021e-05)
(-4.36619e-05 -0.012178 -3.0962e-05)
(-4.62284e-05 -0.0121601 -2.69016e-05)
(-4.97306e-05 -0.0121806 -2.57496e-05)
(-5.44736e-05 -0.0122378 -2.87557e-05)
(-6.09758e-05 -0.0123256 -3.7156e-05)
(-7.04439e-05 -0.0124387 -5.18457e-05)
(-8.52993e-05 -0.0125678 -7.30117e-05)
(-0.000110008 -0.0126941 -9.97814e-05)
(-0.000151658 -0.0127778 -0.000130114)
(-0.000218271 -0.0127434 -0.000160812)
(-0.000311112 -0.0124567 -0.000187987)
(-0.000443654 -0.0117293 -0.000206657)
(-0.000700622 -0.0102075 -0.000207309)
(-0.00122438 -0.00573068 -0.000172338)
(-0.00162788 0.00965984 -5.92291e-05)
(-0.000603954 0.0372995 0.000112289)
(0.000719789 0.0714505 0.000277059)
(0.00313002 0.0997229 0.000291575)
(0.00239984 0.0783643 9.39092e-05)
(0.000953945 -0.0493595 9.83595e-06)
(0.0011038 -0.0729053 -0.000175626)
(0.000170066 -0.0638858 -0.000171444)
(-0.000149993 -0.0496506 -0.000103935)
(-0.000451503 -0.0355679 1.63406e-06)
(-0.000457737 -0.0244236 2.96745e-05)
(-0.000318154 -0.0181025 6.8241e-06)
(-0.000213597 -0.0152916 -1.20654e-05)
(-0.000157319 -0.0140436 -2.04828e-05)
(-0.0001251 -0.0134384 -2.43705e-05)
(-0.000104793 -0.0130881 -2.69362e-05)
(-9.29455e-05 -0.012845 -2.84787e-05)
(-8.72124e-05 -0.0126565 -2.8869e-05)
(-8.53047e-05 -0.0125051 -2.82116e-05)
(-8.57122e-05 -0.0123859 -2.68322e-05)
(-8.75532e-05 -0.012299 -2.53336e-05)
(-9.03991e-05 -0.0122456 -2.46204e-05)
(-9.39915e-05 -0.0122282 -2.58204e-05)
(-9.82565e-05 -0.0122485 -3.02345e-05)
(-0.000103405 -0.0123042 -3.9297e-05)
(-0.00010994 -0.0123907 -5.43596e-05)
(-0.000119053 -0.0125025 -7.63417e-05)
(-0.000133241 -0.0126302 -0.000105316)
(-0.00015709 -0.012755 -0.000140179)
(-0.000197948 -0.0128377 -0.000178598)
(-0.000264211 -0.0128038 -0.000217117)
(-0.000357589 -0.0125192 -0.00025176)
(-0.000492981 -0.0117964 -0.000277299)
(-0.000757266 -0.0102754 -0.000283774)
(-0.00129324 -0.00576345 -0.000253872)
(-0.00168657 0.00970411 -0.000134654)
(-0.000622059 0.0373773 6.46716e-05)
(0.000652376 0.0714948 0.000249338)
(0.00278539 0.0991065 0.000261549)
(0.00212623 0.0775868 0.000125342)
(0.0010548 -0.0493202 9.25848e-06)
(0.00123008 -0.0742073 -0.000204093)
(0.00021418 -0.0643218 -0.000203192)
(-0.000217994 -0.0500623 -0.000107895)
(-0.000524533 -0.0354166 -9.84531e-06)
(-0.000518146 -0.0245971 1.99232e-05)
(-0.000361936 -0.0182149 7.19399e-06)
(-0.000242807 -0.0153866 -6.3752e-06)
(-0.00017736 -0.0141299 -1.39033e-05)
(-0.000138165 -0.0135208 -1.87113e-05)
(-0.000112296 -0.0131686 -2.26417e-05)
(-9.58768e-05 -0.0129242 -2.57077e-05)
(-8.63477e-05 -0.0127349 -2.76182e-05)
(-8.1229e-05 -0.0125829 -2.83598e-05)
(-7.88642e-05 -0.0124634 -2.81895e-05)
(-7.82458e-05 -0.0123766 -2.77083e-05)
(-7.88717e-05 -0.0123236 -2.78914e-05)
(-8.04264e-05 -0.012307 -2.99951e-05)
(-8.27736e-05 -0.0123283 -3.54901e-05)
(-8.61065e-05 -0.0123852 -4.59945e-05)
(-9.09587e-05 -0.0124727 -6.30168e-05)