/*--------------------------------*- C++ -*----------------------------------*\
  =========                 |
  \\      /  F ield         | OpenFOAM: The Open Source CFD Toolbox
   \\    /   O peration     | Website:  https://openfoam.org
    \\  /    A nd           | Version:  13
     \\/     M anipulation  |
\*---------------------------------------------------------------------------*/
FoamFile
{
    format      ascii;
    class       volScalarField;
    location    "18";
    object      nut;
}
// * * * * * * * * * * * * * * * * * * * * * * * * * * * * * * * * * * * * * //

dimensions      [0 2 -1 0 0 0 0];

internalField   nonuniform List<scalar> 
78750
(
1.33391e-15
3.42572e-13
7.75064e-12
1.41029e-11
2.08653e-11
2.81105e-11
3.58565e-11
4.40547e-11
5.25886e-11
6.12797e-11
6.98992e-11
7.8183e-11
8.58492e-11
9.26163e-11
9.82217e-11
1.02439e-10
1.05094e-10
1.06073e-10
1.05335e-10
1.0291e-10
9.89004e-11
9.34721e-11
8.68443e-11
7.92746e-11
7.10424e-11
6.24303e-11
5.37054e-11
4.51013e-11
3.68027e-11
2.89324e-11
2.15439e-11
1.46196e-11
8.07811e-12
3.5964e-13
1.40566e-15
2.92746e-14
7.63664e-12
1.08235e-09
1.98462e-09
2.94504e-09
3.9775e-09
5.0861e-09
6.26432e-09
7.49521e-09
8.75251e-09
1.00024e-08
1.12058e-08
1.23208e-08
1.33059e-08
1.41218e-08
1.47351e-08
1.51198e-08
1.52592e-08
1.51472e-08
1.47886e-08
1.41988e-08
1.34027e-08
1.2433e-08
1.13283e-08
1.013e-08
8.88e-09
7.61773e-09
6.37761e-09
5.18664e-09
4.06259e-09
3.01267e-09
2.03328e-09
1.11058e-09
7.84728e-12
3.00979e-14
8.59224e-14
2.24182e-11
3.1846e-09
5.87911e-09
8.81192e-09
1.20477e-08
1.56151e-08
1.95026e-08
2.36575e-08
2.79884e-08
3.23707e-08
3.66554e-08
4.0678e-08
4.42693e-08
4.7268e-08
4.9533e-08
5.09541e-08
5.14612e-08
5.10288e-08
4.96784e-08
4.74768e-08
4.45308e-08
4.09794e-08
3.69825e-08
3.27086e-08
2.83228e-08
2.39754e-08
1.97928e-08
1.58689e-08
1.22591e-08
8.97711e-09
5.99586e-09
3.25119e-09
2.29097e-11
8.7837e-14
1.70431e-13
4.44812e-11
6.32571e-09
1.17134e-08
1.76355e-08
2.42439e-08
3.16143e-08
3.9736e-08
4.85073e-08
5.77397e-08
6.71691e-08
7.64712e-08
8.52763e-08
9.31919e-08
9.98365e-08
1.04872e-07
1.08033e-07
1.09149e-07
1.08159e-07
1.05118e-07
1.00189e-07
9.36339e-08
8.57853e-08
7.70229e-08
6.77382e-08
5.83023e-08
4.90412e-08
4.02223e-08
3.20383e-08
2.45952e-08
1.79082e-08
1.19047e-08
6.434e-09
4.52771e-11
1.73526e-13
2.63181e-13
6.87181e-11
9.77821e-09
1.81283e-08
2.73428e-08
3.76705e-08
4.92388e-08
6.20364e-08
7.59057e-08
9.05487e-08
1.05546e-07
1.2038e-07
1.34454e-07
1.47128e-07
1.57777e-07
1.6585e-07
1.70912e-07
1.72686e-07
1.71075e-07
1.66168e-07
1.58234e-07
1.477e-07
1.35115e-07
1.21097e-07
1.06287e-07
9.12832e-08
7.66047e-08
6.26744e-08
4.97956e-08
3.81316e-08
2.76999e-08
1.83779e-08
9.91886e-09
6.975e-11
2.6719e-13
3.45046e-13
9.01355e-11
1.28309e-08
2.38008e-08
3.59271e-08
4.95442e-08
6.48233e-08
8.17496e-08
1.00112e-07
1.19513e-07
1.39392e-07
1.59063e-07
1.77728e-07
1.94534e-07
2.08648e-07
2.1934e-07
2.26036e-07
2.28372e-07
2.2622e-07
2.19699e-07
2.09165e-07
1.95182e-07
1.78477e-07
1.59877e-07
1.40236e-07
1.20351e-07
1.00913e-07
8.24817e-08
6.54632e-08
5.00743e-08
3.63372e-08
2.40867e-08
1.29915e-08
9.13124e-11
3.49616e-13
4.05992e-13
1.06102e-10
1.51084e-08
2.80331e-08
4.23326e-08
5.84043e-08
7.64515e-08
9.64549e-08
1.18162e-07
1.41096e-07
1.64592e-07
1.87836e-07
2.09886e-07
2.29728e-07
2.46383e-07
2.58989e-07
2.66877e-07
2.69621e-07
2.67071e-07
2.59368e-07
2.46928e-07
2.30413e-07
2.10677e-07
1.88698e-07
1.65486e-07
1.41986e-07
1.19013e-07
9.72351e-08
7.71342e-08
5.89701e-08
4.27698e-08
2.83373e-08
1.52788e-08
1.0735e-10
4.1084e-13
4.45256e-13
1.16404e-10
1.65793e-08
3.07668e-08
4.64702e-08
6.41281e-08
8.39635e-08
1.05954e-07
1.29818e-07
1.55028e-07
1.8085e-07
2.06389e-07
2.30607e-07
2.52393e-07
2.7067e-07
2.84497e-07
2.93144e-07
2.96146e-07
2.93342e-07
2.84884e-07
2.71225e-07
2.53091e-07
2.31415e-07
2.07269e-07
1.81764e-07
1.55938e-07
1.30689e-07
1.06754e-07
8.4664e-08
6.47086e-08
4.69185e-08
3.10782e-08
1.67534e-08
1.17679e-10
4.50209e-13
4.67532e-13
1.22258e-10
1.7416e-08
3.2322e-08
4.88246e-08
6.73854e-08
8.82388e-08
1.1136e-07
1.36451e-07
1.62955e-07
1.90098e-07
2.1694e-07
2.42387e-07
2.65272e-07
2.84467e-07
2.98985e-07
3.0806e-07
3.11208e-07
3.08259e-07
2.99373e-07
2.85026e-07
2.65974e-07
2.43199e-07
2.17825e-07
1.91017e-07
1.63871e-07
1.37329e-07
1.12166e-07
8.89449e-08
6.79705e-08
4.92763e-08
3.26355e-08
1.7591e-08
1.2354e-10
4.7251e-13
4.78818e-13
1.25229e-10
1.78411e-08
3.31124e-08
5.00212e-08
6.90412e-08
9.04124e-08
1.14109e-07
1.39824e-07
1.66985e-07
1.948e-07
2.22303e-07
2.48375e-07
2.71819e-07
2.91479e-07
3.06347e-07
3.15639e-07
3.1886e-07
3.15838e-07
3.06735e-07
2.92037e-07
2.7252e-07
2.49187e-07
2.23189e-07
1.9572e-07
1.67902e-07
1.40702e-07
1.14916e-07
9.11194e-08
6.96271e-08
5.04734e-08
3.3426e-08
1.80161e-08
1.26511e-10
4.83796e-13
4.83984e-13
1.26592e-10
1.80362e-08
3.34753e-08
5.05708e-08
6.98019e-08
9.14111e-08
1.15372e-07
1.41374e-07
1.68838e-07
1.96962e-07
2.24769e-07
2.51128e-07
2.74828e-07
2.94702e-07
3.09731e-07
3.19123e-07
3.22377e-07
3.19321e-07
3.10118e-07
2.9526e-07
2.75529e-07
2.51939e-07
2.25654e-07
1.97881e-07
1.69754e-07
1.42252e-07
1.16179e-07
9.21179e-08
7.03875e-08
5.10227e-08
3.37887e-08
1.82111e-08
1.27872e-10
4.88957e-13
4.86142e-13
1.27162e-10
1.8118e-08
3.36273e-08
5.08012e-08
7.01207e-08
9.18298e-08
1.15902e-07
1.42024e-07
1.69615e-07
1.97869e-07
2.25804e-07
2.52283e-07
2.76091e-07
2.96055e-07
3.11151e-07
3.20585e-07
3.23854e-07
3.20783e-07
3.11538e-07
2.96613e-07
2.76792e-07
2.53094e-07
2.26688e-07
1.98787e-07
1.70531e-07
1.42902e-07
1.16708e-07
9.25364e-08
7.07061e-08
5.12528e-08
3.39405e-08
1.82927e-08
1.28441e-10
4.91111e-13
4.8697e-13
1.27381e-10
1.81495e-08
3.3686e-08
5.089e-08
7.02436e-08
9.19913e-08
1.16106e-07
1.42275e-07
1.69915e-07
1.98219e-07
2.26203e-07
2.52729e-07
2.76579e-07
2.96578e-07
3.117e-07
3.2115e-07
3.24424e-07
3.21348e-07
3.12087e-07
2.97135e-07
2.77279e-07
2.5354e-07
2.27087e-07
1.99137e-07
1.70831e-07
1.43153e-07
1.16912e-07
9.26977e-08
7.08289e-08
5.13415e-08
3.39991e-08
1.83242e-08
1.2866e-10
4.91938e-13
4.87265e-13
1.27459e-10
1.81607e-08
3.37069e-08
5.09217e-08
7.02875e-08
9.2049e-08
1.16179e-07
1.42365e-07
1.70022e-07
1.98344e-07
2.26346e-07
2.52888e-07
2.76753e-07
2.96765e-07
3.11896e-07
3.21352e-07
3.24628e-07
3.2155e-07
3.12283e-07
2.97322e-07
2.77454e-07
2.53699e-07
2.2723e-07
1.99262e-07
1.70938e-07
1.43242e-07
1.16985e-07
9.27553e-08
7.08728e-08
5.13732e-08
3.40199e-08
1.83354e-08
1.28738e-10
4.92232e-13
4.87363e-13
1.27485e-10
1.81645e-08
3.37138e-08
5.09322e-08
7.03021e-08
9.20681e-08
1.16203e-07
1.42395e-07
1.70058e-07
1.98385e-07
2.26393e-07
2.52942e-07
2.76811e-07
2.96827e-07
3.11962e-07
3.21419e-07
3.24696e-07
3.21617e-07
3.12349e-07
2.97384e-07
2.77512e-07
2.53752e-07
2.27277e-07
1.99304e-07
1.70974e-07
1.43272e-07
1.17009e-07
9.27744e-08
7.08873e-08
5.13837e-08
3.40269e-08
1.83391e-08
1.28764e-10
4.92329e-13
4.87393e-13
1.27493e-10
1.81656e-08
3.3716e-08
5.09355e-08
7.03067e-08
9.20741e-08
1.16211e-07
1.42404e-07
1.70069e-07
1.98398e-07
2.26408e-07
2.52958e-07
2.76829e-07
2.96846e-07
3.11982e-07
3.2144e-07
3.24717e-07
3.21638e-07
3.12369e-07
2.97404e-07
2.7753e-07
2.53769e-07
2.27292e-07
1.99317e-07
1.70985e-07
1.43281e-07
1.17017e-07
9.27804e-08
7.08919e-08
5.13869e-08
3.4029e-08
1.83403e-08
1.28772e-10
4.9236e-13
4.87402e-13
1.27495e-10
1.8166e-08
3.37166e-08
5.09364e-08
7.0308e-08
9.20759e-08
1.16213e-07
1.42407e-07
1.70072e-07
1.98402e-07
2.26413e-07
2.52963e-07
2.76835e-07
2.96852e-07
3.11988e-07
3.21446e-07
3.24724e-07
3.21645e-07
3.12375e-07
2.97409e-07
2.77535e-07
2.53774e-07
2.27296e-07
1.99321e-07
1.70988e-07
1.43284e-07
1.17019e-07
9.27822e-08
7.08932e-08
5.13879e-08
3.40297e-08
1.83406e-08
1.28774e-10
4.92368e-13
4.87404e-13
1.27496e-10
1.81661e-08
3.37168e-08
5.09367e-08
7.03084e-08
9.20763e-08
1.16214e-07
1.42407e-07
1.70073e-07
1.98403e-07
2.26414e-07
2.52964e-07
2.76836e-07
2.96854e-07
3.1199e-07
3.21448e-07
3.24725e-07
3.21646e-07
3.12377e-07
2.97411e-07
2.77537e-07
2.53775e-07
2.27298e-07
1.99322e-07
1.70989e-07
1.43285e-07
1.1702e-07
9.27826e-08
7.08936e-08
5.13882e-08
3.40298e-08
1.83407e-08
1.28775e-10
4.92371e-13
4.87405e-13
1.27496e-10
1.81661e-08
3.37168e-08
5.09367e-08
7.03084e-08
9.20765e-08
1.16214e-07
1.42408e-07
1.70073e-07
1.98404e-07
2.26414e-07
2.52965e-07
2.76837e-07
2.96854e-07
3.1199e-07
3.21448e-07
3.24726e-07
3.21647e-07
3.12377e-07
2.97411e-07
2.77537e-07
2.53775e-07
2.27298e-07
1.99322e-07
1.70989e-07
1.43285e-07
1.1702e-07
9.27828e-08
7.08936e-08
5.13882e-08
3.40299e-08
1.83407e-08
1.28775e-10
4.92371e-13
4.87405e-13
1.27496e-10
1.81661e-08
3.37168e-08
5.09368e-08
7.03085e-08
9.20765e-08
1.16214e-07
1.42408e-07
1.70074e-07
1.98404e-07
2.26414e-07
2.52965e-07
2.76837e-07
2.96854e-07
3.1199e-07
3.21448e-07
3.24726e-07
3.21647e-07
3.12377e-07
2.97411e-07
2.77537e-07
2.53776e-07
2.27298e-07
1.99322e-07
1.70989e-07
1.43285e-07
1.1702e-07
9.27828e-08
7.08937e-08
5.13883e-08
3.40299e-08
1.83407e-08
1.28775e-10
4.92372e-13
4.87405e-13
1.27496e-10
1.81661e-08
3.37168e-08
5.09368e-08
7.03085e-08
9.20765e-08
1.16214e-07
1.42408e-07
1.70074e-07
1.98404e-07
2.26414e-07
2.52965e-07
2.76837e-07
2.96854e-07
3.1199e-07
3.21448e-07
3.24726e-07
3.21647e-07
3.12377e-07
2.97411e-07
2.77537e-07
2.53776e-07
2.27298e-07
1.99322e-07
1.70989e-07
1.43285e-07
1.1702e-07
9.27828e-08
7.08937e-08
5.13883e-08
3.40299e-08
1.83407e-08
1.28775e-10
4.92372e-13
4.87405e-13
1.27496e-10
1.81661e-08
3.37168e-08
5.09368e-08
7.03085e-08
9.20765e-08
1.16214e-07
1.42408e-07
1.70074e-07
1.98404e-07
2.26414e-07
2.52965e-07
2.76837e-07
2.96854e-07
3.1199e-07
3.21448e-07
3.24726e-07
3.21647e-07
3.12377e-07
2.97411e-07
2.77537e-07
2.53776e-07
2.27298e-07
1.99322e-07
1.70989e-07
1.43285e-07
1.1702e-07
9.27828e-08
7.08937e-08
5.13883e-08
3.40299e-08
1.83407e-08
1.28775e-10
4.92372e-13
4.87405e-13
1.27496e-10
1.81661e-08
3.37168e-08
5.09368e-08
7.03085e-08
9.20765e-08
1.16214e-07
1.42408e-07
1.70074e-07
1.98404e-07
2.26414e-07
2.52965e-07
2.76837e-07
2.96854e-07
3.1199e-07
3.21448e-07
3.24726e-07
3.21647e-07
3.12377e-07
2.97411e-07
2.77537e-07
2.53776e-07
2.27298e-07
1.99322e-07
1.70989e-07
1.43285e-07
1.1702e-07
9.27828e-08
7.08937e-08
5.13883e-08
3.40299e-08
1.83407e-08
1.28775e-10
4.92372e-13
4.87405e-13
1.27496e-10
1.81661e-08
3.37168e-08
5.09368e-08
7.03085e-08
9.20765e-08
1.16214e-07
1.42408e-07
1.70074e-07
1.98404e-07
2.26414e-07
2.52965e-07
2.76837e-07
2.96854e-07
3.1199e-07
3.21448e-07
3.24726e-07
3.21647e-07
3.12377e-07
2.97411e-07
2.77537e-07
2.53776e-07
2.27298e-07
1.99322e-07
1.70989e-07
1.43285e-07
1.1702e-07
9.27828e-08
7.08937e-08
5.13883e-08
3.40299e-08
1.83407e-08
1.28775e-10
4.92372e-13
4.87405e-13
1.27496e-10
1.81661e-08
3.37168e-08
5.09368e-08
7.03085e-08
9.20765e-08
1.16214e-07
1.42408e-07
1.70074e-07
1.98404e-07
2.26414e-07
2.52965e-07
2.76837e-07
2.96854e-07
3.1199e-07
3.21448e-07
3.24726e-07
3.21647e-07
3.12377e-07
2.97411e-07
2.77537e-07
2.53776e-07
2.27298e-07
1.99322e-07
1.70989e-07
1.43285e-07
1.1702e-07
9.27828e-08
7.08937e-08
5.13883e-08
3.40299e-08
1.83407e-08
1.28775e-10
4.92372e-13
4.87405e-13
1.27496e-10
1.81661e-08
3.37168e-08
5.09368e-08
7.03085e-08
9.20765e-08
1.16214e-07
1.42408e-07
1.70074e-07
1.98404e-07
2.26414e-07
2.52965e-07
2.76837e-07
2.96854e-07
3.1199e-07
3.21448e-07
3.24726e-07
3.21647e-07
3.12377e-07
2.97411e-07
2.77537e-07
2.53776e-07
2.27298e-07
1.99322e-07
1.70989e-07
1.43285e-07
1.1702e-07
9.27828e-08
7.08937e-08
5.13883e-08
3.40299e-08
1.83407e-08
1.28775e-10
4.92372e-13
4.87405e-13
1.27496e-10
1.81661e-08
3.37168e-08
5.09368e-08
7.03085e-08
9.20765e-08
1.16214e-07
1.42408e-07
1.70074e-07
1.98404e-07
2.26414e-07
2.52965e-07
2.76837e-07
2.96854e-07
3.1199e-07
3.21448e-07
3.24726e-07
3.21647e-07
3.12377e-07
2.97411e-07
2.77537e-07
2.53776e-07
2.27298e-07
1.99322e-07
1.70989e-07
1.43285e-07
1.1702e-07
9.27828e-08
7.08937e-08
5.13883e-08
3.40299e-08
1.83407e-08
1.28775e-10
4.92372e-13
4.87405e-13
1.27496e-10
1.81661e-08
3.37168e-08
5.09368e-08
7.03085e-08
9.20765e-08
1.16214e-07
1.42408e-07
1.70074e-07
1.98404e-07
2.26414e-07
2.52965e-07
2.76837e-07
2.96854e-07
3.1199e-07
3.21448e-07
3.24726e-07
3.21647e-07
3.12377e-07
2.97411e-07
2.77537e-07
2.53776e-07
2.27298e-07
1.99322e-07
1.70989e-07
1.43285e-07
1.1702e-07
9.27828e-08
7.08937e-08
5.13883e-08
3.40299e-08
1.83407e-08
1.28775e-10
4.92372e-13
4.87405e-13
1.27496e-10
1.81661e-08
3.37168e-08
5.09368e-08
7.03085e-08
9.20765e-08
1.16214e-07
1.42408e-07
1.70074e-07
1.98404e-07
2.26414e-07
2.52965e-07
2.76837e-07
2.96854e-07
3.1199e-07
3.21448e-07
3.24726e-07
3.21647e-07
3.12377e-07
2.97411e-07
2.77537e-07
2.53776e-07
2.27298e-07
1.99322e-07
1.70989e-07
1.43285e-07
1.1702e-07
9.27828e-08
7.08937e-08
5.13883e-08
3.40299e-08
1.83407e-08
1.28775e-10
4.92372e-13
4.87405e-13
1.27496e-10
1.81661e-08
3.37168e-08
5.09368e-08
7.03085e-08
9.20765e-08
1.16214e-07
1.42408e-07
1.70074e-07
1.98404e-07
2.26414e-07
2.52965e-07
2.76837e-07
2.96854e-07
3.1199e-07
3.21448e-07
3.24726e-07
3.21647e-07
3.12377e-07
2.97411e-07
2.77537e-07
2.53776e-07
2.27298e-07
1.99322e-07
1.70989e-07
1.43285e-07
1.1702e-07
9.27828e-08
7.08937e-08
5.13883e-08
3.40299e-08
1.83407e-08
1.28775e-10
4.92372e-13
4.87405e-13
1.27496e-10
1.81661e-08
3.37168e-08
5.09368e-08
7.03085e-08
9.20765e-08
1.16214e-07
1.42408e-07
1.70074e-07
1.98404e-07
2.26414e-07
2.52965e-07
2.76837e-07
2.96854e-07
3.1199e-07
3.21448e-07
3.24726e-07
3.21647e-07
3.12377e-07
2.97411e-07
2.77537e-07
2.53776e-07
2.27298e-07
1.99322e-07
1.70989e-07
1.43285e-07
1.1702e-07
9.27828e-08
7.08937e-08
5.13883e-08
3.40299e-08
1.83407e-08
1.28775e-10
4.92372e-13
4.87405e-13
1.27496e-10
1.81661e-08
3.37168e-08
5.09368e-08
7.03085e-08
9.20765e-08
1.16214e-07
1.42408e-07
1.70074e-07
1.98404e-07
2.26414e-07
2.52965e-07
2.76837e-07
2.96854e-07
3.1199e-07
3.21448e-07
3.24726e-07
3.21647e-07
3.12377e-07
2.97411e-07
2.77537e-07
2.53776e-07
2.27298e-07
1.99322e-07
1.70989e-07
1.43285e-07
1.1702e-07
9.27828e-08
7.08937e-08
5.13883e-08
3.40299e-08
1.83407e-08
1.28775e-10
4.92372e-13
4.87405e-13
1.27496e-10
1.81661e-08
3.37168e-08
5.09368e-08
7.03085e-08
9.20765e-08
1.16214e-07
1.42408e-07
1.70074e-07
1.98404e-07
2.26414e-07
2.52965e-07
2.76837e-07
2.96854e-07
3.1199e-07
3.21448e-07
3.24726e-07
3.21647e-07
3.12377e-07
2.97411e-07
2.77537e-07
2.53776e-07
2.27298e-07
1.99322e-07
1.70989e-07
1.43285e-07
1.1702e-07
9.27828e-08
7.08937e-08
5.13883e-08
3.40299e-08
1.83407e-08
1.28775e-10
4.92372e-13
4.87405e-13
1.27496e-10
1.81661e-08
3.37168e-08
5.09368e-08
7.03085e-08
9.20765e-08
1.16214e-07
1.42408e-07
1.70074e-07
1.98404e-07
2.26414e-07
2.52965e-07
2.76837e-07
2.96854e-07
3.1199e-07
3.21448e-07
3.24726e-07
3.21647e-07
3.12377e-07
2.97411e-07
2.77537e-07
2.53776e-07
2.27298e-07
1.99322e-07
1.70989e-07
1.43285e-07
1.1702e-07
9.27828e-08
7.08937e-08
5.13883e-08
3.40299e-08
1.83407e-08
1.28775e-10
4.92372e-13
4.87405e-13
1.27496e-10
1.81661e-08
3.37168e-08
5.09368e-08
7.03085e-08
9.20765e-08
1.16214e-07
1.42408e-07
1.70074e-07
1.98404e-07
2.26414e-07
2.52965e-07
2.76837e-07
2.96854e-07
3.1199e-07
3.21448e-07
3.24726e-07
3.21647e-07
3.12377e-07
2.97411e-07
2.77537e-07
2.53776e-07
2.27298e-07
1.99322e-07
1.70989e-07
1.43285e-07
1.1702e-07
9.27828e-08
7.08937e-08
5.13883e-08
3.40299e-08
1.83407e-08
1.28775e-10
4.92372e-13
4.87405e-13
1.27496e-10
1.81661e-08
3.37168e-08
5.09368e-08
7.03085e-08
9.20765e-08
1.16214e-07
1.42408e-07
1.70074e-07
1.98404e-07
2.26414e-07
2.52965e-07
2.76837e-07
2.96854e-07
3.1199e-07
3.21448e-07
3.24726e-07
3.21647e-07
3.12377e-07
2.97411e-07
2.77537e-07
2.53776e-07
2.27298e-07
1.99322e-07
1.70989e-07
1.43285e-07
1.1702e-07
9.27828e-08
7.08937e-08
5.13883e-08
3.40299e-08
1.83407e-08
1.28775e-10
4.92372e-13
4.87405e-13
1.27496e-10
1.81661e-08
3.37168e-08
5.09368e-08
7.03085e-08
9.20765e-08
1.16214e-07
1.42408e-07
1.70074e-07
1.98404e-07
2.26414e-07
2.52965e-07
2.76837e-07
2.96854e-07
3.1199e-07
3.21448e-07
3.24726e-07
3.21647e-07
3.12377e-07
2.97411e-07
2.77537e-07
2.53776e-07
2.27298e-07
1.99322e-07
1.70989e-07
1.43285e-07
1.1702e-07
9.27828e-08
7.08937e-08
5.13883e-08
3.40299e-08
1.83407e-08
1.28775e-10
4.92372e-13
4.87405e-13
1.27496e-10
1.81661e-08
3.37168e-08
5.09368e-08
7.03085e-08
9.20765e-08
1.16214e-07
1.42408e-07
1.70074e-07
1.98404e-07
2.26414e-07
2.52965e-07
2.76837e-07
2.96854e-07
3.1199e-07
3.21448e-07
3.24726e-07
3.21647e-07
3.12377e-07
2.97411e-07
2.77537e-07
2.53776e-07
2.27298e-07
1.99322e-07
1.70989e-07
1.43285e-07
1.1702e-07
9.27828e-08
7.08937e-08
5.13883e-08
3.40299e-08
1.83407e-08
1.28775e-10
4.92372e-13
4.87405e-13
1.27496e-10
1.81661e-08
3.37168e-08
5.09368e-08
7.03085e-08
9.20765e-08
1.16214e-07
1.42408e-07
1.70074e-07
1.98404e-07
2.26414e-07
2.52965e-07
2.76837e-07
2.96854e-07
3.1199e-07
3.21448e-07
3.24726e-07
3.21647e-07
3.12377e-07
2.97411e-07
2.77537e-07
2.53776e-07
2.27298e-07
1.99322e-07
1.70989e-07
1.43285e-07
1.1702e-07
9.27828e-08
7.08937e-08
5.13883e-08
3.40299e-08
1.83407e-08
1.28775e-10
4.92372e-13
4.87405e-13
1.27496e-10
1.81661e-08
3.37168e-08
5.09368e-08
7.03085e-08
9.20765e-08
1.16214e-07
1.42408e-07
1.70074e-07
1.98404e-07
2.26414e-07
2.52965e-07
2.76837e-07
2.96854e-07
3.1199e-07
3.21448e-07
3.24726e-07
3.21647e-07
3.12377e-07
2.97411e-07
2.77537e-07
2.53776e-07
2.27298e-07
1.99322e-07
1.70989e-07
1.43285e-07
1.1702e-07
9.27828e-08
7.08937e-08
5.13883e-08
3.40299e-08
1.83407e-08
1.28775e-10
4.92372e-13
4.87405e-13
1.27496e-10
1.81661e-08
3.37168e-08
5.09368e-08
7.03085e-08
9.20765e-08
1.16214e-07
1.42408e-07
1.70074e-07
1.98404e-07
2.26414e-07
2.52965e-07
2.76837e-07
2.96854e-07
3.1199e-07
3.21448e-07
3.24726e-07
3.21647e-07
3.12377e-07
2.97411e-07
2.77537e-07
2.53776e-07
2.27298e-07
1.99322e-07
1.70989e-07
1.43285e-07
1.1702e-07
9.27828e-08
7.08937e-08
5.13883e-08
3.40299e-08
1.83407e-08
1.28775e-10
4.92372e-13
4.87405e-13
1.27496e-10
1.81661e-08
3.37168e-08
5.09368e-08
7.03085e-08
9.20765e-08
1.16214e-07
1.42408e-07
1.70074e-07
1.98404e-07
2.26414e-07
2.52965e-07
2.76837e-07
2.96854e-07
3.1199e-07
3.21448e-07
3.24726e-07
3.21647e-07
3.12377e-07
2.97411e-07
2.77537e-07
2.53776e-07
2.27298e-07
1.99322e-07
1.70989e-07
1.43285e-07
1.1702e-07
9.27828e-08
7.08937e-08
5.13883e-08
3.40299e-08
1.83407e-08
1.28775e-10
4.92372e-13
4.87405e-13
1.27496e-10
1.81661e-08
3.37168e-08
5.09368e-08
7.03085e-08
9.20765e-08
1.16214e-07
1.42408e-07
1.70074e-07
1.98404e-07
2.26414e-07
2.52965e-07
2.76837e-07
2.96854e-07
3.1199e-07
3.21448e-07
3.24726e-07
3.21647e-07
3.12377e-07
2.97411e-07
2.77537e-07
2.53776e-07
2.27298e-07
1.99322e-07
1.70989e-07
1.43285e-07
1.1702e-07
9.27828e-08
7.08937e-08
5.13883e-08
3.40299e-08
1.83407e-08
1.28775e-10
4.92372e-13
4.87405e-13
1.27496e-10
1.81661e-08
3.37168e-08
5.09368e-08
7.03085e-08
9.20765e-08
1.16214e-07
1.42408e-07
1.70074e-07
1.98404e-07
2.26414e-07
2.52965e-07
2.76837e-07
2.96854e-07
3.1199e-07
3.21448e-07
3.24726e-07
3.21647e-07
3.12377e-07
2.97411e-07
2.77537e-07
2.53776e-07
2.27298e-07
1.99322e-07
1.70989e-07
1.43285e-07
1.1702e-07
9.27828e-08
7.08937e-08
5.13883e-08
3.40299e-08
1.83407e-08
1.28775e-10
4.92372e-13
4.87405e-13
1.27496e-10
1.81661e-08
3.37168e-08
5.09368e-08
7.03085e-08
9.20765e-08
1.16214e-07
1.42408e-07
1.70074e-07
1.98404e-07
2.26414e-07
2.52965e-07
2.76837e-07
2.96854e-07
3.1199e-07
3.21448e-07
3.24726e-07
3.21647e-07
3.12377e-07
2.97411e-07
2.77537e-07
2.53776e-07
2.27298e-07
1.99322e-07
1.70989e-07
1.43285e-07
1.1702e-07
9.27828e-08
7.08937e-08
5.13883e-08
3.40299e-08
1.83407e-08
1.28775e-10
4.92372e-13
4.87405e-13
1.27496e-10
1.81661e-08
3.37168e-08
5.09368e-08
7.03085e-08
9.20765e-08
1.16214e-07
1.42408e-07
1.70074e-07
1.98404e-07
2.26414e-07
2.52965e-07
2.76837e-07
2.96854e-07
3.1199e-07
3.21448e-07
3.24726e-07
3.21647e-07
3.12377e-07
2.97411e-07
2.77537e-07
2.53776e-07
2.27298e-07
1.99322e-07
1.70989e-07
1.43285e-07
1.1702e-07
9.27828e-08
7.08937e-08
5.13883e-08
3.40299e-08
1.83407e-08
1.28775e-10
4.92372e-13
4.87405e-13
1.27496e-10
1.81661e-08
3.37168e-08
5.09368e-08
7.03085e-08
9.20765e-08
1.16214e-07
1.42408e-07
1.70074e-07
1.98404e-07
2.26414e-07
2.52965e-07
2.76837e-07
2.96854e-07
3.1199e-07
3.21448e-07
3.24726e-07
3.21647e-07
3.12377e-07
2.97411e-07
2.77537e-07
2.53776e-07
2.27298e-07
1.99322e-07
1.70989e-07
1.43285e-07
1.1702e-07
9.27828e-08
7.08937e-08
5.13883e-08
3.40299e-08
1.83407e-08
1.28775e-10
4.92372e-13
4.87405e-13
1.27496e-10
1.81661e-08
3.37168e-08
5.09368e-08
7.03085e-08
9.20765e-08
1.16214e-07
1.42408e-07
1.70074e-07
1.98404e-07
2.26414e-07
2.52965e-07
2.76837e-07
2.96854e-07
3.1199e-07
3.21448e-07
3.24726e-07
3.21647e-07
3.12377e-07
2.97411e-07
2.77537e-07
2.53776e-07
2.27298e-07
1.99322e-07
1.70989e-07
1.43285e-07
1.1702e-07
9.27828e-08
7.08937e-08
5.13883e-08
3.40299e-08
1.83407e-08
1.28775e-10
4.92372e-13
4.87405e-13
1.27496e-10
1.81661e-08
3.37168e-08
5.09368e-08
7.03085e-08
9.20765e-08
1.16214e-07
1.42408e-07
1.70074e-07
1.98404e-07
2.26414e-07
2.52965e-07
2.76837e-07
2.96854e-07
3.1199e-07
3.21448e-07
3.24726e-07
3.21647e-07
3.12377e-07
2.97411e-07
2.77537e-07
2.53776e-07
2.27298e-07
1.99322e-07
1.70989e-07
1.43285e-07
1.1702e-07
9.27828e-08
7.08937e-08
5.13883e-08
3.40299e-08
1.83407e-08
1.28775e-10
4.92372e-13
4.87405e-13
1.27496e-10
1.81661e-08
3.37168e-08
5.09368e-08
7.03085e-08
9.20765e-08
1.16214e-07
1.42408e-07
1.70074e-07
1.98404e-07
2.26414e-07
2.52965e-07
2.76837e-07
2.96854e-07
3.1199e-07
3.21448e-07
3.24726e-07
3.21647e-07
3.12377e-07
2.97411e-07
2.77537e-07
2.53776e-07
2.27298e-07
1.99322e-07
1.70989e-07
1.43285e-07
1.1702e-07
9.27828e-08
7.08937e-08
5.13883e-08
3.40299e-08
1.83407e-08
1.28775e-10
4.92372e-13
4.87405e-13
1.27496e-10
1.81661e-08
3.37168e-08
5.09368e-08
7.03085e-08
9.20765e-08
1.16214e-07
1.42408e-07
1.70074e-07
1.98404e-07
2.26414e-07
2.52965e-07
2.76837e-07
2.96854e-07
3.1199e-07
3.21448e-07
3.24726e-07
3.21647e-07
3.12377e-07
2.97411e-07
2.77537e-07
2.53776e-07
2.27298e-07
1.99322e-07
1.70989e-07
1.43285e-07
1.1702e-07
9.27828e-08
7.08937e-08
5.13883e-08
3.40299e-08
1.83407e-08
1.28775e-10
4.92372e-13
4.87405e-13
1.27496e-10
1.81661e-08
3.37168e-08
5.09368e-08
7.03085e-08
9.20765e-08
1.16214e-07
1.42408e-07
1.70074e-07
1.98404e-07
2.26414e-07
2.52965e-07
2.76837e-07
2.96854e-07
3.1199e-07
3.21448e-07
3.24726e-07
3.21647e-07
3.12377e-07
2.97411e-07
2.77537e-07
2.53776e-07
2.27298e-07
1.99322e-07
1.70989e-07
1.43285e-07
1.1702e-07
9.27828e-08
7.08937e-08
5.13883e-08
3.40299e-08
1.83407e-08
1.28775e-10
4.92372e-13
4.87405e-13
1.27496e-10
1.81661e-08
3.37168e-08
5.09368e-08
7.03085e-08
9.20765e-08
1.16214e-07
1.42408e-07
1.70074e-07
1.98404e-07
2.26414e-07
2.52965e-07
2.76837e-07
2.96854e-07
3.1199e-07
3.21448e-07
3.24726e-07
3.21647e-07
3.12377e-07
2.97411e-07
2.77537e-07
2.53776e-07
2.27298e-07
1.99322e-07
1.70989e-07
1.43285e-07
1.1702e-07
9.27828e-08
7.08937e-08
5.13883e-08
3.40299e-08
1.83407e-08
1.28775e-10
4.92372e-13
4.87405e-13
1.27496e-10
1.81661e-08
3.37168e-08
5.09368e-08
7.03085e-08
9.20765e-08
1.16214e-07
1.42408e-07
1.70074e-07
1.98404e-07
2.26414e-07
2.52965e-07
2.76837e-07
2.96854e-07
3.1199e-07
3.21448e-07
3.24726e-07
3.21647e-07
3.12377e-07
2.97411e-07
2.77537e-07
2.53776e-07
2.27298e-07
1.99322e-07
1.70989e-07
1.43285e-07
1.1702e-07
9.27828e-08
7.08937e-08
5.13883e-08
3.40299e-08
1.83407e-08
1.28775e-10
4.92372e-13
4.87405e-13
1.27496e-10
1.81661e-08
3.37168e-08
5.09368e-08
7.03085e-08
9.20765e-08
1.16214e-07
1.42408e-07
1.70074e-07
1.98404e-07
2.26414e-07
2.52965e-07
2.76837e-07
2.96854e-07
3.1199e-07
3.21448e-07
3.24726e-07
3.21647e-07
3.12377e-07
2.97411e-07
2.77537e-07
2.53776e-07
2.27298e-07
1.99322e-07
1.70989e-07
1.43285e-07
1.1702e-07
9.27828e-08
7.08937e-08
5.13883e-08
3.40299e-08
1.83407e-08
1.28775e-10
4.92372e-13
4.87405e-13
1.27496e-10
1.81661e-08
3.37168e-08
5.09368e-08
7.03085e-08
9.20765e-08
1.16214e-07
1.42408e-07
1.70074e-07
1.98404e-07
2.26414e-07
2.52965e-07
2.76837e-07
2.96854e-07
3.1199e-07
3.21448e-07
3.24726e-07
3.21647e-07
3.12377e-07
2.97411e-07
2.77537e-07
2.53776e-07
2.27298e-07
1.99322e-07
1.70989e-07
1.43285e-07
1.1702e-07
9.27828e-08
7.08937e-08
5.13883e-08
3.40299e-08
1.83407e-08
1.28775e-10
4.92372e-13
4.87405e-13
1.27496e-10
1.81661e-08
3.37168e-08
5.09368e-08
7.03085e-08
9.20765e-08
1.16214e-07
1.42408e-07
1.70074e-07
1.98404e-07
2.26414e-07
2.52965e-07
2.76837e-07
2.96854e-07
3.1199e-07
3.21448e-07
3.24726e-07
3.21647e-07
3.12377e-07
2.97411e-07
2.77537e-07
2.53776e-07
2.27298e-07
1.99322e-07
1.70989e-07
1.43285e-07
1.1702e-07
9.27828e-08
7.08937e-08
5.13883e-08
3.40299e-08
1.83407e-08
1.28775e-10
4.92372e-13
4.87405e-13
1.27496e-10
1.81661e-08
3.37168e-08
5.09368e-08
7.03085e-08
9.20765e-08
1.16214e-07
1.42408e-07
1.70074e-07
1.98404e-07
2.26414e-07
2.52965e-07
2.76837e-07
2.96854e-07
3.1199e-07
3.21448e-07
3.24726e-07
3.21647e-07
3.12377e-07
2.97411e-07
2.77537e-07
2.53776e-07
2.27298e-07
1.99322e-07
1.70989e-07
1.43285e-07
1.1702e-07
9.27828e-08
7.08937e-08
5.13883e-08
3.40299e-08
1.83407e-08
1.28775e-10
4.92372e-13
4.87405e-13
1.27496e-10
1.81661e-08
3.37168e-08
5.09368e-08
7.03085e-08
9.20765e-08
1.16214e-07
1.42408e-07
1.70074e-07
1.98404e-07
2.26414e-07
2.52965e-07
2.76837e-07
2.96854e-07
3.1199e-07
3.21448e-07
3.24726e-07
3.21647e-07
3.12377e-07
2.97411e-07
2.77537e-07
2.53776e-07
2.27298e-07
1.99322e-07
1.70989e-07
1.43285e-07
1.1702e-07
9.27828e-08
7.08937e-08
5.13883e-08
3.40299e-08
1.83407e-08
1.28775e-10
4.92372e-13
4.87405e-13
1.27496e-10
1.81661e-08
3.37168e-08
5.09368e-08
7.03085e-08
9.20765e-08
1.16214e-07
1.42408e-07
1.70074e-07
1.98404e-07
2.26414e-07
2.52965e-07
2.76837e-07
2.96854e-07
3.1199e-07
3.21448e-07
3.24726e-07
3.21647e-07
3.12377e-07
2.97411e-07
2.77537e-07
2.53776e-07
2.27298e-07
1.99322e-07
1.70989e-07
1.43285e-07
1.1702e-07
9.27828e-08
7.08937e-08
5.13883e-08
3.40299e-08
1.83407e-08
1.28775e-10
4.92372e-13
4.87405e-13
1.27496e-10
1.81661e-08
3.37168e-08
5.09368e-08
7.03085e-08
9.20765e-08
1.16214e-07
1.42408e-07
1.70074e-07
1.98404e-07
2.26414e-07
2.52965e-07
2.76837e-07
2.96854e-07
3.1199e-07
3.21448e-07
3.24726e-07
3.21647e-07
3.12377e-07
2.97411e-07
2.77537e-07
2.53776e-07
2.27298e-07
1.99322e-07
1.70989e-07
1.43285e-07
1.1702e-07
9.27828e-08
7.08937e-08
5.13883e-08
3.40299e-08
1.83407e-08
1.28775e-10
4.92372e-13
4.87405e-13
1.27496e-10
1.81661e-08
3.37168e-08
5.09368e-08
7.03085e-08
9.20765e-08
1.16214e-07
1.42408e-07
1.70074e-07
1.98404e-07
2.26414e-07
2.52965e-07
2.76837e-07
2.96854e-07
3.1199e-07
3.21448e-07
3.24726e-07
3.21647e-07
3.12377e-07
2.97411e-07
2.77537e-07
2.53776e-07
2.27298e-07
1.99322e-07
1.70989e-07
1.43285e-07
1.1702e-07
9.27828e-08
7.08937e-08
5.13883e-08
3.40299e-08
1.83407e-08
1.28775e-10
4.92372e-13
4.87405e-13
1.27496e-10
1.81661e-08
3.37168e-08
5.09368e-08
7.03085e-08
9.20765e-08
1.16214e-07
1.42408e-07
1.70074e-07
1.98404e-07
2.26414e-07
2.52965e-07
2.76837e-07
2.96854e-07
3.1199e-07
3.21448e-07
3.24726e-07
3.21647e-07
3.12377e-07
2.97411e-07
2.77537e-07
2.53776e-07
2.27298e-07
1.99322e-07
1.70989e-07
1.43285e-07
1.1702e-07
9.27828e-08
7.08937e-08
5.13883e-08
3.40299e-08
1.83407e-08
1.28775e-10
4.92372e-13
4.87405e-13
1.27496e-10
1.81661e-08
3.37168e-08
5.09368e-08
7.03085e-08
9.20765e-08
1.16214e-07
1.42408e-07
1.70074e-07
1.98404e-07
2.26414e-07
2.52965e-07
2.76837e-07
2.96854e-07
3.1199e-07
3.21448e-07
3.24726e-07
3.21647e-07
3.12377e-07
2.97411e-07
2.77537e-07
2.53776e-07
2.27298e-07
1.99322e-07
1.70989e-07
1.43285e-07
1.1702e-07
9.27828e-08
7.08937e-08
5.13883e-08
3.40299e-08
1.83407e-08
1.28775e-10
4.92372e-13
4.87405e-13
1.27496e-10
1.81661e-08
3.37168e-08
5.09368e-08
7.03085e-08
9.20765e-08
1.16214e-07
1.42408e-07
1.70074e-07
1.98404e-07
2.26414e-07
2.52965e-07
2.76837e-07
2.96854e-07
3.1199e-07
3.21448e-07
3.24726e-07
3.21647e-07
3.12377e-07
2.97411e-07
2.77537e-07
2.53776e-07
2.27298e-07
1.99322e-07
1.70989e-07
1.43285e-07
1.1702e-07
9.27828e-08
7.08937e-08
5.13883e-08
3.40299e-08
1.83407e-08
1.28775e-10
4.92372e-13
4.87405e-13
1.27496e-10
1.81661e-08
3.37168e-08
5.09368e-08
7.03085e-08
9.20765e-08
1.16214e-07
1.42408e-07
1.70074e-07
1.98404e-07
2.26414e-07
2.52965e-07
2.76837e-07
2.96854e-07
3.1199e-07
3.21448e-07
3.24726e-07
3.21647e-07
3.12377e-07
2.97411e-07
2.77537e-07
2.53776e-07
2.27298e-07
1.99322e-07
1.70989e-07
1.43285e-07
1.1702e-07
9.27828e-08
7.08937e-08
5.13883e-08
3.40299e-08
1.83407e-08
1.28775e-10
4.92372e-13
4.87405e-13
1.27496e-10
1.81661e-08
3.37168e-08
5.09368e-08
7.03085e-08
9.20765e-08
1.16214e-07
1.42408e-07
1.70074e-07
1.98404e-07
2.26414e-07
2.52965e-07
2.76837e-07
2.96854e-07
3.1199e-07
3.21448e-07
3.24726e-07
3.21647e-07
3.12377e-07
2.97411e-07
2.77537e-07
2.53776e-07
2.27298e-07
1.99322e-07
1.70989e-07
1.43285e-07
1.1702e-07
9.27828e-08
7.08937e-08
5.13883e-08
3.40299e-08
1.83407e-08
1.28775e-10
4.92372e-13
4.87405e-13
1.27496e-10
1.81661e-08
3.37168e-08
5.09368e-08
7.03085e-08
9.20765e-08
1.16214e-07
1.42408e-07
1.70074e-07
1.98404e-07
2.26414e-07
2.52965e-07
2.76837e-07
2.96854e-07
3.1199e-07
3.21448e-07
3.24726e-07
3.21647e-07
3.12377e-07
2.97411e-07
2.77537e-07
2.53776e-07
2.27298e-07
1.99322e-07
1.70989e-07
1.43285e-07
1.1702e-07
9.27828e-08
7.08937e-08
5.13883e-08
3.40299e-08
1.83407e-08
1.28775e-10
4.92372e-13
4.87405e-13
1.27496e-10
1.81661e-08
3.37168e-08
5.09368e-08
7.03085e-08
9.20765e-08
1.16214e-07
1.42408e-07
1.70074e-07
1.98404e-07
2.26414e-07
2.52965e-07
2.76837e-07
2.96854e-07
3.1199e-07
3.21448e-07
3.24726e-07
3.21647e-07
3.12377e-07
2.97411e-07
2.77537e-07
2.53776e-07
2.27298e-07
1.99322e-07
1.70989e-07
1.43285e-07
1.1702e-07
9.27828e-08
7.08937e-08
5.13883e-08
3.40299e-08
1.83407e-08
1.28775e-10
4.92372e-13
4.87405e-13
1.27496e-10
1.81661e-08
3.37168e-08
5.09368e-08
7.03085e-08
9.20765e-08
1.16214e-07
1.42408e-07
1.70074e-07
1.98404e-07
2.26414e-07
2.52965e-07
2.76837e-07
2.96854e-07
3.1199e-07
3.21448e-07
3.24726e-07
3.21647e-07
3.12377e-07
2.97411e-07
2.77537e-07
2.53776e-07
2.27298e-07
1.99322e-07
1.70989e-07
1.43285e-07
1.1702e-07
9.27828e-08
7.08937e-08
5.13883e-08
3.40299e-08
1.83407e-08
1.28775e-10
4.92372e-13
4.87405e-13
1.27496e-10
1.81661e-08
3.37168e-08
5.09368e-08
7.03085e-08
9.20765e-08
1.16214e-07