/*--------------------------------*- C++ -*----------------------------------*\
  =========                 |
  \\      /  F ield         | OpenFOAM: The Open Source CFD Toolbox
   \\    /   O peration     | Website:  https://openfoam.org
    \\  /    A nd           | Version:  13
     \\/     M anipulation  |
\*---------------------------------------------------------------------------*/
FoamFile
{
    format      ascii;
    class       volScalarField;
    location    "330";
    object      k;
}
// * * * * * * * * * * * * * * * * * * * * * * * * * * * * * * * * * * * * * //

dimensions      [0 2 -2 0 0 0 0];

internalField   nonuniform List<scalar> 
78750
(
2.22045e-16
7.73394e-16
3.45174e-15
6.25318e-15
9.20708e-15
1.23339e-14
1.56348e-14
1.9086e-14
2.26389e-14
2.62218e-14
2.97451e-14
3.31068e-14
3.61997e-14
3.89174e-14
4.11619e-14
4.28491e-14
4.39141e-14
4.4315e-14
4.40359e-14
4.30872e-14
4.15056e-14
3.93516e-14
3.67056e-14
3.36634e-14
3.03299e-14
2.68128e-14
2.32152e-14
1.96289e-14
1.61283e-14
1.27651e-14
9.56491e-15
6.52677e-15
3.62549e-15
8.18484e-16
2.22045e-16
5.81074e-16
1.67587e-14
8.35162e-14
1.52569e-13
2.25258e-13
3.02383e-13
3.84095e-13
4.69844e-13
5.58405e-13
6.47954e-13
7.36197e-13
8.20524e-13
8.98181e-13
9.66448e-13
1.02281e-12
1.06512e-12
1.09171e-12
1.10152e-12
1.09415e-12
1.06989e-12
1.02968e-12
9.75103e-13
9.08227e-13
8.31519e-13
7.47677e-13
6.59458e-13
5.695e-13
4.80144e-13
3.93276e-13
3.10188e-13
2.31487e-13
1.57064e-13
8.61267e-14
1.73115e-14
6.00625e-16
1.60379e-15
4.6274e-14
2.31097e-13
4.24672e-13
6.32497e-13
8.58229e-13
1.10325e-12
1.36643e-12
1.64408e-12
1.93019e-12
2.21677e-12
2.49447e-12
2.75314e-12
2.9826e-12
3.17328e-12
3.31694e-12
3.40718e-12
3.43992e-12
3.41364e-12
3.32953e-12
3.19136e-12
3.00526e-12
2.77927e-12
2.52283e-12
2.2461e-12
1.95925e-12
1.67177e-12
1.39178e-12
1.12551e-12
8.76841e-13
6.47102e-13
4.35031e-13
2.37017e-13
4.75146e-14
1.64754e-15
3.04552e-15
8.78806e-14
4.39221e-13
8.08904e-13
1.20869e-12
1.64665e-12
2.12625e-12
2.6458e-12
3.19831e-12
3.77179e-12
4.35001e-12
4.91352e-12
5.44101e-12
5.91078e-12
6.30231e-12
6.59774e-12
6.78322e-12
6.84983e-12
6.79436e-12
6.61944e-12
6.3334e-12
5.94967e-12
5.48574e-12
4.96193e-12
4.39988e-12
3.82101e-12
3.24497e-12
2.68831e-12
2.16336e-12
1.67749e-12
1.23273e-12
8.25833e-13
4.48828e-13
8.98864e-14
3.11618e-15
4.65753e-15
1.34396e-13
6.71837e-13
1.23807e-12
1.8517e-12
2.52556e-12
3.26534e-12
4.06866e-12
4.92481e-12
5.81526e-12
6.71466e-12
7.59256e-12
8.4154e-12
9.14894e-12
9.7607e-12
1.02224e-11
1.05119e-11
1.06153e-11
1.05273e-11
1.02523e-11
9.80359e-12
9.20256e-12
8.47703e-12
7.65921e-12
6.78327e-12
5.88289e-12
4.98883e-12
4.12687e-12
3.31604e-12
2.56759e-12
1.88434e-12
1.26098e-12
6.84784e-13
1.37095e-13
4.75258e-15
6.22904e-15
1.79741e-13
8.98548e-13
1.65609e-12
2.47746e-12
3.38e-12
4.37146e-12
5.44869e-12
6.59737e-12
7.79261e-12
9.00033e-12
1.01795e-11
1.12851e-11
1.22707e-11
1.30927e-11
1.37129e-11
1.41016e-11
1.42397e-11
1.41205e-11
1.37497e-11
1.31454e-11
1.23365e-11
1.13607e-11
1.02613e-11
9.0845e-12
7.87554e-12
6.67583e-12
5.51996e-12
4.43346e-12
3.43131e-12
2.51722e-12
1.68392e-12
9.1423e-13
1.83008e-13
6.3441e-15
7.62718e-15
2.20087e-13
1.10025e-12
2.02787e-12
3.03374e-12
4.13916e-12
5.35362e-12
6.6733e-12
8.08064e-12
9.54511e-12
1.10249e-11
1.24699e-11
1.38244e-11
1.50321e-11
1.60391e-11
1.67987e-11
1.72744e-11
1.74429e-11
1.7296e-11
1.68407e-11
1.60994e-11
1.51074e-11
1.3911e-11
1.25634e-11
1.11212e-11
9.63996e-12
8.17034e-12
6.75473e-12
5.4244e-12
4.19764e-12
3.07899e-12
2.05947e-12
1.11801e-12
2.23786e-13
7.75749e-15
8.7809e-15
2.53386e-13
1.26673e-12
2.3347e-12
3.49274e-12
4.7654e-12
6.16361e-12
7.68296e-12
9.30322e-12
1.09892e-11
1.26929e-11
1.43563e-11
1.59156e-11
1.73056e-11
1.84646e-11
1.93385e-11
1.98856e-11
2.0079e-11
1.99092e-11
1.93844e-11
1.85303e-11
1.73878e-11
1.601e-11
1.44584e-11
1.2798e-11
1.10927e-11
9.40107e-12
7.77174e-12
6.24071e-12
4.82904e-12
3.54191e-12
2.36897e-12
1.28597e-12
2.57389e-13
8.92195e-15
9.66791e-15
2.78995e-13
1.3948e-12
2.57072e-12
3.84577e-12
5.24702e-12
6.78647e-12
8.45928e-12
1.02432e-11
1.20994e-11
1.39749e-11
1.58061e-11
1.75226e-11
1.90527e-11
2.03282e-11
2.129e-11
2.18918e-11
2.21042e-11
2.19167e-11
2.13385e-11
2.03977e-11
1.91395e-11
1.76224e-11
1.5914e-11
1.40859e-11
1.22086e-11
1.03464e-11
8.55293e-12
6.86776e-12
5.31405e-12
3.8975e-12
2.60672e-12
1.41498e-12
2.83195e-13
9.81585e-15
1.03042e-14
2.97374e-13
1.48673e-12
2.74014e-12
4.09919e-12
5.59272e-12
7.23355e-12
9.01648e-12
1.09178e-11
1.28961e-11
1.4895e-11
1.68465e-11
1.86758e-11
2.03063e-11
2.16655e-11
2.26902e-11
2.33312e-11
2.35571e-11
2.33569e-11
2.27402e-11
2.17372e-11
2.03959e-11
1.87788e-11
1.69579e-11
1.50096e-11
1.30089e-11
1.10243e-11
9.11309e-12
7.31736e-12
5.66179e-12
4.15244e-12
2.77716e-12
1.50746e-12
3.01687e-13
1.04561e-14
1.07306e-14
3.09697e-13
1.5484e-12
2.85378e-12
4.26917e-12
5.8246e-12
7.53342e-12
9.39022e-12
1.13702e-11
1.34305e-11
1.55121e-11
1.75444e-11
1.94492e-11
2.11471e-11
2.25623e-11
2.36291e-11
2.42964e-11
2.45314e-11
2.43225e-11
2.368e-11
2.26353e-11
2.12383e-11
1.9554e-11
1.76577e-11
1.56287e-11
1.35452e-11
1.14786e-11
9.48845e-12
7.61861e-12
5.89477e-12
4.32323e-12
2.89133e-12
1.5694e-12
3.14067e-13
1.08845e-14
1.0998e-14
3.1743e-13
1.58711e-12
2.92512e-12
4.37589e-12
5.97019e-12
7.7217e-12
9.62487e-12
1.16543e-11
1.3766e-11
1.58996e-11
1.79825e-11
1.99349e-11
2.16749e-11
2.31254e-11
2.42186e-11
2.49023e-11
2.5143e-11
2.49287e-11
2.427e-11
2.31989e-11
2.17669e-11
2.00405e-11
1.80968e-11
1.60171e-11
1.38817e-11
1.17636e-11
9.7239e-12
7.80755e-12
6.04088e-12
4.43033e-12
2.96292e-12
1.60824e-12
3.21826e-13
1.11528e-14
1.11553e-14
3.21983e-13
1.60991e-12
2.96714e-12
4.43875e-12
6.05594e-12
7.8326e-12
9.76309e-12
1.18217e-11
1.39636e-11
1.61278e-11
1.82406e-11
2.02209e-11
2.19859e-11
2.3457e-11
2.45659e-11
2.52593e-11
2.55032e-11
2.52857e-11
2.46174e-11
2.35309e-11
2.20782e-11
2.0327e-11
1.83553e-11
1.62458e-11
1.40798e-11
1.19314e-11
9.86247e-12
7.91874e-12
6.12686e-12
4.49334e-12
3.00503e-12
1.63108e-12
3.26388e-13
1.13105e-14
1.12423e-14
3.24503e-13
1.62254e-12
2.99042e-12
4.47357e-12
6.10345e-12
7.89404e-12
9.83967e-12
1.19144e-11
1.40732e-11
1.62543e-11
1.83836e-11
2.03794e-11
2.21582e-11
2.36408e-11
2.47583e-11
2.5457e-11
2.57028e-11
2.54835e-11
2.48099e-11
2.37148e-11
2.22506e-11
2.04857e-11
1.84985e-11
1.63724e-11
1.41894e-11
1.20242e-11
9.93918e-12
7.98029e-12
6.17444e-12
4.52821e-12
3.02834e-12
1.64372e-12
3.2891e-13
1.13976e-14
1.12877e-14
3.2582e-13
1.62914e-12
3.00259e-12
4.49177e-12
6.12827e-12
7.92615e-12
9.87969e-12
1.19629e-11
1.41304e-11
1.63204e-11
1.84584e-11
2.04622e-11
2.22482e-11
2.37368e-11
2.48588e-11
2.55604e-11
2.58071e-11
2.55869e-11
2.49104e-11
2.38108e-11
2.23407e-11
2.05685e-11
1.85733e-11
1.64386e-11
1.42467e-11
1.20727e-11
9.97923e-12
8.01242e-12
6.19928e-12
4.54642e-12
3.0405e-12
1.65032e-12
3.30226e-13
1.1443e-14
1.13101e-14
3.26469e-13
1.6324e-12
3.00859e-12
4.50076e-12
6.14053e-12
7.94201e-12
9.89946e-12
1.19868e-11
1.41587e-11
1.6353e-11
1.84953e-11
2.05032e-11
2.22927e-11
2.37843e-11
2.49085e-11
2.56114e-11
2.58586e-11
2.56379e-11
2.49601e-11
2.38583e-11
2.23852e-11
2.06095e-11
1.86102e-11
1.64712e-11
1.4275e-11
1.20967e-11
9.99901e-12
8.02828e-12
6.21154e-12
4.5554e-12
3.0465e-12
1.65357e-12
3.30875e-13
1.14653e-14
1.13206e-14
3.26773e-13
1.63392e-12
3.01141e-12
4.50497e-12
6.14628e-12
7.94944e-12
9.90872e-12
1.1998e-11
1.41719e-11
1.63683e-11
1.85126e-11
2.05224e-11
2.23136e-11
2.38065e-11
2.49318e-11
2.56353e-11
2.58828e-11
2.56619e-11
2.49834e-11
2.38805e-11
2.24061e-11
2.06287e-11
1.86275e-11
1.64865e-11
1.42882e-11
1.21079e-11
1.00083e-11
8.03571e-12
6.21728e-12
4.5596e-12
3.04931e-12
1.6551e-12
3.31178e-13
1.14758e-14
1.13252e-14
3.26909e-13
1.6346e-12
3.01266e-12
4.50684e-12
6.14884e-12
7.95275e-12
9.91285e-12
1.2003e-11
1.41778e-11
1.63752e-11
1.85203e-11
2.05309e-11
2.23229e-11
2.38164e-11
2.49421e-11
2.5646e-11
2.58935e-11
2.56725e-11
2.49938e-11
2.38904e-11
2.24153e-11
2.06372e-11
1.86352e-11
1.64933e-11
1.42941e-11
1.21129e-11
1.00124e-11
8.03901e-12
6.21983e-12
4.56147e-12
3.05056e-12
1.65577e-12
3.31313e-13
1.14804e-14
1.13272e-14
3.26966e-13
1.63489e-12
3.01319e-12
4.50763e-12
6.14992e-12
7.95415e-12
9.9146e-12
1.20051e-11
1.41803e-11
1.63781e-11
1.85236e-11
2.05345e-11
2.23268e-11
2.38206e-11
2.49465e-11
2.56505e-11
2.58981e-11
2.5677e-11
2.49982e-11
2.38946e-11
2.24193e-11
2.06408e-11
1.86385e-11
1.64962e-11
1.42966e-11
1.2115e-11
1.00141e-11
8.04041e-12
6.22091e-12
4.56227e-12
3.05109e-12
1.65606e-12
3.3137e-13
1.14824e-14
1.1328e-14
3.26989e-13
1.63501e-12
3.01341e-12
4.50796e-12
6.15036e-12
7.95472e-12
9.9153e-12
1.2006e-11
1.41813e-11
1.63792e-11
1.85249e-11
2.0536e-11
2.23284e-11
2.38223e-11
2.49483e-11
2.56523e-11
2.59e-11
2.56789e-11
2.49999e-11
2.38963e-11
2.24209e-11
2.06423e-11
1.86398e-11
1.64974e-11
1.42977e-11
1.21158e-11
1.00148e-11
8.04097e-12
6.22135e-12
4.56259e-12
3.0513e-12
1.65618e-12
3.31393e-13
1.14832e-14
1.13283e-14
3.26998e-13
1.63505e-12
3.01349e-12
4.50808e-12
6.15053e-12
7.95494e-12
9.91558e-12
1.20063e-11
1.41817e-11
1.63797e-11
1.85254e-11
2.05366e-11
2.2329e-11
2.3823e-11
2.4949e-11
2.56531e-11
2.59007e-11
2.56796e-11
2.50006e-11
2.3897e-11
2.24215e-11
2.06428e-11
1.86403e-11
1.64978e-11
1.4298e-11
1.21162e-11
1.00151e-11
8.04119e-12
6.22152e-12
4.56271e-12
3.05139e-12
1.65622e-12
3.31402e-13
1.14835e-14
1.13284e-14
3.27001e-13
1.63507e-12
3.01352e-12
4.50813e-12
6.15059e-12
7.95502e-12
9.91568e-12
1.20064e-11
1.41819e-11
1.63798e-11
1.85256e-11
2.05368e-11
2.23292e-11
2.38232e-11
2.49493e-11
2.56533e-11
2.59009e-11
2.56798e-11
2.50009e-11
2.38972e-11
2.24217e-11
2.06431e-11
1.86405e-11
1.6498e-11
1.42982e-11
1.21163e-11
1.00152e-11
8.04127e-12
6.22158e-12
4.56276e-12
3.05142e-12
1.65624e-12
3.31405e-13
1.14836e-14
1.13284e-14
3.27003e-13
1.63508e-12
3.01353e-12
4.50814e-12
6.15062e-12
7.95505e-12
9.91572e-12
1.20065e-11
1.41819e-11
1.63799e-11
1.85257e-11
2.05368e-11
2.23293e-11
2.38233e-11
2.49494e-11
2.56534e-11
2.5901e-11
2.56799e-11
2.5001e-11
2.38973e-11
2.24218e-11
2.06431e-11
1.86406e-11
1.64981e-11
1.42982e-11
1.21163e-11
1.00152e-11
8.0413e-12
6.2216e-12
4.56277e-12
3.05143e-12
1.65624e-12
3.31406e-13
1.14836e-14
1.13285e-14
3.27003e-13
1.63508e-12
3.01354e-12
4.50815e-12
6.15062e-12
7.95506e-12
9.91573e-12
1.20065e-11
1.41819e-11
1.63799e-11
1.85257e-11
2.05369e-11
2.23293e-11
2.38234e-11
2.49494e-11
2.56534e-11
2.59011e-11
2.568e-11
2.5001e-11
2.38973e-11
2.24218e-11
2.06432e-11
1.86406e-11
1.64981e-11
1.42983e-11
1.21164e-11
1.00153e-11
8.04131e-12
6.22161e-12
4.56278e-12
3.05143e-12
1.65625e-12
3.31407e-13
1.14836e-14
1.13285e-14
3.27003e-13
1.63508e-12
3.01354e-12
4.50815e-12
6.15063e-12
7.95506e-12
9.91573e-12
1.20065e-11
1.41819e-11
1.63799e-11
1.85257e-11
2.05369e-11
2.23294e-11
2.38234e-11
2.49494e-11
2.56535e-11
2.59011e-11
2.568e-11
2.5001e-11
2.38973e-11
2.24218e-11
2.06432e-11
1.86406e-11
1.64981e-11
1.42983e-11
1.21164e-11
1.00153e-11
8.04132e-12
6.22161e-12
4.56278e-12
3.05143e-12
1.65625e-12
3.31407e-13
1.14836e-14
1.13285e-14
3.27003e-13
1.63508e-12
3.01354e-12
4.50815e-12
6.15063e-12
7.95506e-12
9.91573e-12
1.20065e-11
1.41819e-11
1.63799e-11
1.85257e-11
2.05369e-11
2.23294e-11
2.38234e-11
2.49494e-11
2.56535e-11
2.59011e-11
2.568e-11
2.5001e-11
2.38973e-11
2.24218e-11
2.06432e-11
1.86406e-11
1.64981e-11
1.42983e-11
1.21164e-11
1.00153e-11
8.04132e-12
6.22161e-12
4.56278e-12
3.05143e-12
1.65625e-12
3.31407e-13
1.14836e-14
1.13285e-14
3.27003e-13
1.63508e-12
3.01354e-12
4.50815e-12
6.15063e-12
7.95506e-12
9.91573e-12
1.20065e-11
1.41819e-11
1.63799e-11
1.85257e-11
2.05369e-11
2.23294e-11
2.38234e-11
2.49494e-11
2.56535e-11
2.59011e-11
2.568e-11
2.5001e-11
2.38973e-11
2.24218e-11
2.06432e-11
1.86406e-11
1.64981e-11
1.42983e-11
1.21164e-11
1.00153e-11
8.04132e-12
6.22161e-12
4.56278e-12
3.05143e-12
1.65625e-12
3.31407e-13
1.14836e-14
1.13285e-14
3.27003e-13
1.63508e-12
3.01354e-12
4.50815e-12
6.15063e-12
7.95506e-12
9.91573e-12
1.20065e-11
1.41819e-11
1.63799e-11
1.85257e-11
2.05369e-11
2.23294e-11
2.38234e-11
2.49494e-11
2.56535e-11
2.59011e-11
2.568e-11
2.5001e-11
2.38973e-11
2.24218e-11
2.06432e-11
1.86406e-11
1.64981e-11
1.42983e-11
1.21164e-11
1.00153e-11
8.04132e-12
6.22161e-12
4.56278e-12
3.05143e-12
1.65625e-12
3.31407e-13
1.14836e-14
1.13285e-14
3.27003e-13
1.63508e-12
3.01354e-12
4.50815e-12
6.15063e-12
7.95506e-12
9.91573e-12
1.20065e-11
1.41819e-11
1.63799e-11
1.85257e-11
2.05369e-11
2.23294e-11
2.38234e-11
2.49494e-11
2.56535e-11
2.59011e-11
2.568e-11
2.5001e-11
2.38973e-11
2.24218e-11
2.06432e-11
1.86406e-11
1.64981e-11
1.42983e-11
1.21164e-11
1.00153e-11
8.04132e-12
6.22161e-12
4.56278e-12
3.05143e-12
1.65625e-12
3.31407e-13
1.14836e-14
1.13285e-14
3.27003e-13
1.63508e-12
3.01354e-12
4.50815e-12
6.15063e-12
7.95506e-12
9.91573e-12
1.20065e-11
1.41819e-11
1.63799e-11
1.85257e-11
2.05369e-11
2.23294e-11
2.38234e-11
2.49494e-11
2.56535e-11
2.59011e-11
2.568e-11
2.5001e-11
2.38973e-11
2.24218e-11
2.06432e-11
1.86406e-11
1.64981e-11
1.42983e-11
1.21164e-11
1.00153e-11
8.04132e-12
6.22161e-12
4.56278e-12
3.05143e-12
1.65625e-12
3.31407e-13
1.14836e-14
1.13285e-14
3.27003e-13
1.63508e-12
3.01354e-12
4.50815e-12
6.15063e-12
7.95506e-12
9.91573e-12
1.20065e-11
1.41819e-11
1.63799e-11
1.85257e-11
2.05369e-11
2.23294e-11
2.38234e-11
2.49494e-11
2.56535e-11
2.59011e-11
2.568e-11
2.5001e-11
2.38973e-11
2.24218e-11
2.06432e-11
1.86406e-11
1.64981e-11
1.42983e-11
1.21164e-11
1.00153e-11
8.04132e-12
6.22161e-12
4.56278e-12
3.05143e-12
1.65625e-12
3.31407e-13
1.14836e-14
1.13285e-14
3.27003e-13
1.63508e-12
3.01354e-12
4.50815e-12
6.15063e-12
7.95506e-12
9.91573e-12
1.20065e-11
1.41819e-11
1.63799e-11
1.85257e-11
2.05369e-11
2.23294e-11
2.38234e-11
2.49494e-11
2.56535e-11
2.59011e-11
2.568e-11
2.5001e-11
2.38973e-11
2.24218e-11
2.06432e-11
1.86406e-11
1.64981e-11
1.42983e-11
1.21164e-11
1.00153e-11
8.04132e-12
6.22161e-12
4.56278e-12
3.05143e-12
1.65625e-12
3.31407e-13
1.14836e-14
1.13285e-14
3.27003e-13
1.63508e-12
3.01354e-12
4.50815e-12
6.15063e-12
7.95506e-12
9.91573e-12
1.20065e-11
1.41819e-11
1.63799e-11
1.85257e-11
2.05369e-11
2.23294e-11
2.38234e-11
2.49494e-11
2.56535e-11
2.59011e-11
2.568e-11
2.5001e-11
2.38973e-11
2.24218e-11
2.06432e-11
1.86406e-11
1.64981e-11
1.42983e-11
1.21164e-11
1.00153e-11
8.04132e-12
6.22161e-12
4.56278e-12
3.05143e-12
1.65625e-12
3.31407e-13
1.14836e-14
1.13285e-14
3.27003e-13
1.63508e-12
3.01354e-12
4.50815e-12
6.15063e-12
7.95506e-12
9.91573e-12
1.20065e-11
1.41819e-11
1.63799e-11
1.85257e-11
2.05369e-11
2.23294e-11
2.38234e-11
2.49494e-11
2.56535e-11
2.59011e-11
2.568e-11
2.5001e-11
2.38973e-11
2.24218e-11
2.06432e-11
1.86406e-11
1.64981e-11
1.42983e-11
1.21164e-11
1.00153e-11
8.04132e-12
6.22161e-12
4.56278e-12
3.05143e-12
1.65625e-12
3.31407e-13
1.14836e-14
1.13285e-14
3.27003e-13
1.63508e-12
3.01354e-12
4.50815e-12
6.15063e-12
7.95506e-12
9.91573e-12
1.20065e-11
1.41819e-11
1.63799e-11
1.85257e-11
2.05369e-11
2.23294e-11
2.38234e-11
2.49494e-11
2.56535e-11
2.59011e-11
2.568e-11
2.5001e-11
2.38973e-11
2.24218e-11
2.06432e-11
1.86406e-11
1.64981e-11
1.42983e-11
1.21164e-11
1.00153e-11
8.04132e-12
6.22161e-12
4.56278e-12
3.05143e-12
1.65625e-12
3.31407e-13
1.14836e-14
1.13285e-14
3.27003e-13
1.63508e-12
3.01354e-12
4.50815e-12
6.15063e-12
7.95506e-12
9.91573e-12
1.20065e-11
1.41819e-11
1.63799e-11
1.85257e-11
2.05369e-11
2.23294e-11
2.38234e-11
2.49494e-11
2.56535e-11
2.59011e-11
2.568e-11
2.5001e-11
2.38973e-11
2.24218e-11
2.06432e-11
1.86406e-11
1.64981e-11
1.42983e-11
1.21164e-11
1.00153e-11
8.04132e-12
6.22161e-12
4.56278e-12
3.05143e-12
1.65625e-12
3.31407e-13
1.14836e-14
1.13285e-14
3.27003e-13
1.63508e-12
3.01354e-12
4.50815e-12
6.15063e-12
7.95506e-12
9.91573e-12
1.20065e-11
1.41819e-11
1.63799e-11
1.85257e-11
2.05369e-11
2.23294e-11
2.38234e-11
2.49494e-11
2.56535e-11
2.59011e-11
2.568e-11
2.5001e-11
2.38973e-11
2.24218e-11
2.06432e-11
1.86406e-11
1.64981e-11
1.42983e-11
1.21164e-11
1.00153e-11
8.04132e-12
6.22161e-12
4.56278e-12
3.05143e-12
1.65625e-12
3.31407e-13
1.14836e-14
1.13285e-14
3.27003e-13
1.63508e-12
3.01354e-12
4.50815e-12
6.15063e-12
7.95506e-12
9.91573e-12
1.20065e-11
1.41819e-11
1.63799e-11
1.85257e-11
2.05369e-11
2.23294e-11
2.38234e-11
2.49494e-11
2.56535e-11
2.59011e-11
2.568e-11
2.5001e-11
2.38973e-11
2.24218e-11
2.06432e-11
1.86406e-11
1.64981e-11
1.42983e-11
1.21164e-11
1.00153e-11
8.04132e-12
6.22161e-12
4.56278e-12
3.05143e-12
1.65625e-12
3.31407e-13
1.14836e-14
1.13285e-14
3.27003e-13
1.63508e-12
3.01354e-12
4.50815e-12
6.15063e-12
7.95506e-12
9.91573e-12
1.20065e-11
1.41819e-11
1.63799e-11
1.85257e-11
2.05369e-11
2.23294e-11
2.38234e-11
2.49494e-11
2.56535e-11
2.59011e-11
2.568e-11
2.5001e-11
2.38973e-11
2.24218e-11
2.06432e-11
1.86406e-11
1.64981e-11
1.42983e-11
1.21164e-11
1.00153e-11
8.04132e-12
6.22161e-12
4.56278e-12
3.05143e-12
1.65625e-12
3.31407e-13
1.14836e-14
1.13285e-14
3.27003e-13
1.63508e-12
3.01354e-12
4.50815e-12
6.15063e-12
7.95506e-12
9.91573e-12
1.20065e-11
1.41819e-11
1.63799e-11
1.85257e-11
2.05369e-11
2.23294e-11
2.38234e-11
2.49494e-11
2.56535e-11
2.59011e-11
2.568e-11
2.5001e-11
2.38973e-11
2.24218e-11
2.06432e-11
1.86406e-11
1.64981e-11
1.42983e-11
1.21164e-11
1.00153e-11
8.04132e-12
6.22161e-12
4.56278e-12
3.05143e-12
1.65625e-12
3.31407e-13
1.14836e-14
1.13285e-14
3.27003e-13
1.63508e-12
3.01354e-12
4.50815e-12
6.15063e-12
7.95506e-12
9.91573e-12
1.20065e-11
1.41819e-11
1.63799e-11
1.85257e-11
2.05369e-11
2.23294e-11
2.38234e-11
2.49494e-11
2.56535e-11
2.59011e-11
2.568e-11
2.5001e-11
2.38973e-11
2.24218e-11
2.06432e-11
1.86406e-11
1.64981e-11
1.42983e-11
1.21164e-11
1.00153e-11
8.04132e-12
6.22161e-12
4.56278e-12
3.05143e-12
1.65625e-12
3.31407e-13
1.14836e-14
1.13285e-14
3.27003e-13
1.63508e-12
3.01354e-12
4.50815e-12
6.15063e-12
7.95506e-12
9.91573e-12
1.20065e-11
1.41819e-11
1.63799e-11
1.85257e-11
2.05369e-11
2.23294e-11
2.38234e-11
2.49494e-11
2.56535e-11
2.59011e-11
2.568e-11
2.5001e-11
2.38973e-11
2.24218e-11
2.06432e-11
1.86406e-11
1.64981e-11
1.42983e-11
1.21164e-11
1.00153e-11
8.04132e-12
6.22161e-12
4.56278e-12
3.05143e-12
1.65625e-12
3.31407e-13
1.14836e-14
1.13285e-14
3.27003e-13
1.63508e-12
3.01354e-12
4.50815e-12
6.15063e-12
7.95506e-12
9.91573e-12
1.20065e-11
1.41819e-11
1.63799e-11
1.85257e-11
2.05369e-11
2.23294e-11
2.38234e-11
2.49494e-11
2.56535e-11
2.59011e-11
2.568e-11
2.5001e-11
2.38973e-11
2.24218e-11
2.06432e-11
1.86406e-11
1.64981e-11
1.42983e-11
1.21164e-11
1.00153e-11
8.04132e-12
6.22161e-12
4.56278e-12
3.05143e-12
1.65625e-12
3.31407e-13
1.14836e-14
1.13285e-14
3.27003e-13
1.63508e-12
3.01354e-12
4.50815e-12
6.15063e-12
7.95506e-12
9.91573e-12
1.20065e-11
1.41819e-11
1.63799e-11
1.85257e-11
2.05369e-11
2.23294e-11
2.38234e-11
2.49494e-11
2.56535e-11
2.59011e-11
2.568e-11
2.5001e-11
2.38973e-11
2.24218e-11
2.06432e-11
1.86406e-11
1.64981e-11
1.42983e-11
1.21164e-11
1.00153e-11
8.04132e-12
6.22161e-12
4.56278e-12
3.05143e-12
1.65625e-12
3.31407e-13
1.14836e-14
1.13285e-14
3.27003e-13
1.63508e-12
3.01354e-12
4.50815e-12
6.15063e-12
7.95506e-12
9.91573e-12
1.20065e-11
1.41819e-11
1.63799e-11
1.85257e-11
2.05369e-11
2.23294e-11
2.38234e-11
2.49494e-11
2.56535e-11
2.59011e-11
2.568e-11
2.5001e-11
2.38973e-11
2.24218e-11
2.06432e-11
1.86406e-11
1.64981e-11
1.42983e-11
1.21164e-11
1.00153e-11
8.04132e-12
6.22161e-12
4.56278e-12
3.05143e-12
1.65625e-12
3.31407e-13
1.14836e-14
1.13285e-14
3.27003e-13
1.63508e-12
3.01354e-12
4.50815e-12
6.15063e-12
7.95506e-12
9.91573e-12
1.20065e-11
1.41819e-11
1.63799e-11
1.85257e-11
2.05369e-11
2.23294e-11
2.38234e-11
2.49494e-11
2.56535e-11
2.59011e-11
2.568e-11
2.5001e-11
2.38973e-11
2.24218e-11
2.06432e-11
1.86406e-11
1.64981e-11
1.42983e-11
1.21164e-11
1.00153e-11
8.04132e-12
6.22161e-12
4.56278e-12
3.05143e-12
1.65625e-12
3.31407e-13
1.14836e-14
1.13285e-14
3.27003e-13
1.63508e-12
3.01354e-12
4.50815e-12
6.15063e-12
7.95506e-12
9.91573e-12
1.20065e-11
1.41819e-11
1.63799e-11
1.85257e-11
2.05369e-11
2.23294e-11
2.38234e-11
2.49494e-11
2.56535e-11
2.59011e-11
2.568e-11
2.5001e-11
2.38973e-11
2.24218e-11
2.06432e-11
1.86406e-11
1.64981e-11
1.42983e-11
1.21164e-11
1.00153e-11
8.04132e-12
6.22161e-12
4.56278e-12
3.05143e-12
1.65625e-12
3.31407e-13
1.14836e-14
1.13285e-14
3.27003e-13
1.63508e-12
3.01354e-12
4.50815e-12
6.15063e-12
7.95506e-12
9.91573e-12
1.20065e-11
1.41819e-11
1.63799e-11
1.85257e-11
2.05369e-11
2.23294e-11
2.38234e-11
2.49494e-11
2.56535e-11
2.59011e-11
2.568e-11
2.5001e-11
2.38973e-11
2.24218e-11
2.06432e-11
1.86406e-11
1.64981e-11
1.42983e-11
1.21164e-11
1.00153e-11
8.04132e-12
6.22161e-12
4.56278e-12
3.05143e-12
1.65625e-12
3.31407e-13
1.14836e-14
1.13285e-14
3.27003e-13
1.63508e-12
3.01354e-12
4.50815e-12
6.15063e-12
7.95506e-12
9.91573e-12
1.20065e-11
1.41819e-11
1.63799e-11
1.85257e-11
2.05369e-11
2.23294e-11
2.38234e-11
2.49494e-11
2.56535e-11
2.59011e-11
2.568e-11
2.5001e-11
2.38973e-11
2.24218e-11
2.06432e-11
1.86406e-11
1.64981e-11
1.42983e-11
1.21164e-11
1.00153e-11
8.04132e-12
6.22161e-12
4.56278e-12
3.05143e-12
1.65625e-12
3.31407e-13
1.14836e-14
1.13285e-14
3.27003e-13
1.63508e-12
3.01354e-12
4.50815e-12
6.15063e-12
7.95506e-12
9.91573e-12
1.20065e-11
1.41819e-11
1.63799e-11
1.85257e-11
2.05369e-11
2.23294e-11
2.38234e-11
2.49494e-11
2.56535e-11
2.59011e-11
2.568e-11
2.5001e-11
2.38973e-11
2.24218e-11
2.06432e-11
1.86406e-11
1.64981e-11
1.42983e-11
1.21164e-11
1.00153e-11
8.04132e-12
6.22161e-12
4.56278e-12
3.05143e-12
1.65625e-12
3.31407e-13
1.14836e-14
1.13285e-14
3.27003e-13
1.63508e-12
3.01354e-12
4.50815e-12
6.15063e-12
7.95506e-12
9.91573e-12
1.20065e-11
1.41819e-11
1.63799e-11
1.85257e-11
2.05369e-11
2.23294e-11
2.38234e-11
2.49494e-11
2.56535e-11
2.59011e-11
2.568e-11
2.5001e-11
2.38973e-11
2.24218e-11
2.06432e-11
1.86406e-11
1.64981e-11
1.42983e-11
1.21164e-11
1.00153e-11
8.04132e-12
6.22161e-12
4.56278e-12
3.05143e-12
1.65625e-12
3.31407e-13
1.14836e-14
1.13285e-14
3.27003e-13
1.63508e-12
3.01354e-12
4.50815e-12
6.15063e-12
7.95506e-12
9.91573e-12
1.20065e-11
1.41819e-11
1.63799e-11
1.85257e-11
2.05369e-11
2.23294e-11
2.38234e-11
2.49494e-11
2.56535e-11
2.59011e-11
2.568e-11
2.5001e-11
2.38973e-11
2.24218e-11
2.06432e-11
1.86406e-11
1.64981e-11
1.42983e-11
1.21164e-11
1.00153e-11
8.04132e-12
6.22161e-12
4.56278e-12
3.05143e-12
1.65625e-12
3.31407e-13
1.14836e-14
1.13285e-14
3.27003e-13
1.63508e-12
3.01354e-12
4.50815e-12
6.15063e-12
7.95506e-12
9.91573e-12
1.20065e-11
1.41819e-11
1.63799e-11
1.85257e-11
2.05369e-11
2.23294e-11
2.38234e-11
2.49494e-11
2.56535e-11
2.59011e-11
2.568e-11
2.5001e-11
2.38973e-11
2.24218e-11
2.06432e-11
1.86406e-11
1.64981e-11
1.42983e-11
1.21164e-11
1.00153e-11
8.04132e-12
6.22161e-12
4.56278e-12
3.05143e-12
1.65625e-12
3.31407e-13
1.14836e-14
1.13285e-14
3.27003e-13
1.63508e-12
3.01354e-12
4.50815e-12
6.15063e-12
7.95506e-12
9.91573e-12
1.20065e-11
1.41819e-11
1.63799e-11
1.85257e-11
2.05369e-11
2.23294e-11
2.38234e-11
2.49494e-11
2.56535e-11
2.59011e-11
2.568e-11
2.5001e-11
2.38973e-11
2.24218e-11
2.06432e-11
1.86406e-11
1.64981e-11
1.42983e-11
1.21164e-11
1.00153e-11
8.04132e-12
6.22161e-12
4.56278e-12
3.05143e-12
1.65625e-12
3.31407e-13
1.14836e-14
1.13285e-14
3.27003e-13
1.63508e-12
3.01354e-12
4.50815e-12
6.15063e-12
7.95506e-12
9.91573e-12
1.20065e-11
1.41819e-11
1.63799e-11
1.85257e-11
2.05369e-11
2.23294e-11
2.38234e-11
2.49494e-11
2.56535e-11
2.59011e-11
2.568e-11
2.5001e-11
2.38973e-11
2.24218e-11
2.06432e-11
1.86406e-11
1.64981e-11
1.42983e-11
1.21164e-11
1.00153e-11
8.04132e-12
6.22161e-12
4.56278e-12
3.05143e-12
1.65625e-12
3.31407e-13
1.14836e-14
1.13285e-14
3.27003e-13
1.63508e-12
3.01354e-12
4.50815e-12
6.15063e-12
7.95506e-12
9.91573e-12
1.20065e-11
1.41819e-11
1.63799e-11
1.85257e-11
2.05369e-11
2.23294e-11
2.38234e-11
2.49494e-11
2.56535e-11
2.59011e-11
2.568e-11
2.5001e-11
2.38973e-11
2.24218e-11
2.06432e-11
1.86406e-11
1.64981e-11
1.42983e-11
1.21164e-11
1.00153e-11
8.04132e-12
6.22161e-12
4.56278e-12
3.05143e-12
1.65625e-12
3.31407e-13
1.14836e-14
1.13285e-14
3.27003e-13
1.63508e-12
3.01354e-12
4.50815e-12
6.15063e-12
7.95506e-12
9.91573e-12
1.20065e-11
1.41819e-11
1.63799e-11
1.85257e-11
2.05369e-11
2.23294e-11
2.38234e-11
2.49494e-11
2.56535e-11
2.59011e-11
2.568e-11
2.5001e-11
2.38973e-11
2.24218e-11
2.06432e-11
1.86406e-11
1.64981e-11
1.42983e-11
1.21164e-11
1.00153e-11
8.04132e-12
6.22161e-12
4.56278e-12
3.05143e-12
1.65625e-12
3.31407e-13
1.14836e-14
1.13285e-14
3.27003e-13
1.63508e-12
3.01354e-12
4.50815e-12
6.15063e-12
7.95506e-12
9.91573e-12
1.20065e-11
1.41819e-11
1.63799e-11
1.85257e-11
2.05369e-11
2.23294e-11
2.38234e-11
2.49494e-11
2.56535e-11
2.59011e-11
2.568e-11
2.5001e-11
2.38973e-11
2.24218e-11
2.06432e-11
1.86406e-11
1.64981e-11
1.42983e-11
1.21164e-11
1.00153e-11
8.04132e-12
6.22161e-12
4.56278e-12
3.05143e-12
1.65625e-12
3.31407e-13
1.14836e-14
1.13285e-14
3.27003e-13
1.63508e-12
3.01354e-12
4.50815e-12
6.15063e-12
7.95506e-12
9.91573e-12
1.20065e-11
1.41819e-11
1.63799e-11
1.85257e-11
2.05369e-11
2.23294e-11
2.38234e-11
2.49494e-11
2.56535e-11
2.59011e-11
2.568e-11
2.5001e-11
2.38973e-11
2.24218e-11
2.06432e-11
1.86406e-11
1.64981e-11
1.42983e-11
1.21164e-11
1.00153e-11
8.04132e-12
6.22161e-12
4.56278e-12
3.05143e-12
1.65625e-12
3.31407e-13
1.14836e-14
1.13285e-14
3.27003e-13
1.63508e-12
3.01354e-12
4.50815e-12
6.15063e-12
7.95506e-12
9.91573e-12
1.20065e-11
1.41819e-11
1.63799e-11
1.85257e-11
2.05369e-11
2.23294e-11
2.38234e-11
2.49494e-11
2.56535e-11
2.59011e-11
2.568e-11
2.5001e-11
2.38973e-11
2.24218e-11
2.06432e-11
1.86406e-11
1.64981e-11
1.42983e-11
1.21164e-11
1.00153e-11
8.04132e-12
6.22161e-12
4.56278e-12
3.05143e-12
1.65625e-12
3.31407e-13
1.14836e-14
1.13285e-14
3.27003e-13
1.63508e-12
3.01354e-12
4.50815e-12
6.15063e-12
7.95506e-12
9.91573e-12
1.20065e-11
1.41819e-11
1.63799e-11
1.85257e-11
2.05369e-11
2.23294e-11
2.38234e-11
2.49494e-11
2.56535e-11
2.59011e-11
2.568e-11
2.5001e-11
2.38973e-11
2.24218e-11
2.06432e-11
1.86406e-11
1.64981e-11
1.42983e-11
1.21164e-11
1.00153e-11
8.04132e-12
6.22161e-12
4.56278e-12
3.05143e-12
1.65625e-12
3.31407e-13
1.14836e-14
1.13285e-14
3.27003e-13
1.63508e-12
3.01354e-12
4.50815e-12
6.15063e-12
7.95506e-12
9.91573e-12
1.20065e-11
1.41819e-11
1.63799e-11
1.85257e-11
2.05369e-11
2.23294e-11
2.38234e-11
2.49494e-11
2.56535e-11
2.59011e-11
2.568e-11
2.5001e-11
2.38973e-11
2.24218e-11
2.06432e-11
1.86406e-11
1.64981e-11
1.42983e-11
1.21164e-11
1.00153e-11
8.04132e-12
6.22161e-12
4.56278e-12
3.05143e-12
1.65625e-12
3.31407e-13
1.14836e-14
1.13285e-14
3.27003e-13
1.63508e-12
3.01354e-12
4.50815e-12
6.15063e-12
7.95506e-12
9.91573e-12
1.20065e-11
1.41819e-11
1.63799e-11
1.85257e-11
2.05369e-11
2.23294e-11
2.38234e-11
2.49494e-11
2.56535e-11
2.59011e-11
2.568e-11
2.5001e-11
2.38973e-11
2.24218e-11
2.06432e-11
1.86406e-11
1.64981e-11
1.42983e-11
1.21164e-11
1.00153e-11
8.04132e-12
6.22161e-12
4.56278e-12
3.05143e-12
1.65625e-12
3.31407e-13
1.14836e-14
1.13285e-14
3.27003e-13
1.63508e-12
3.01354e-12
4.50815e-12
6.15063e-12
7.95506e-12
9.91573e-12
1.20065e-11
1.41819e-11
1.63799e-11
1.85257e-11
2.05369e-11
2.23294e-11
2.38234e-11
2.49494e-11
2.56535e-11
2.59011e-11
2.568e-11
2.5001e-11
2.38973e-11
2.24218e-11
2.06432e-11
1.86406e-11
1.64981e-11
1.42983e-11
1.21164e-11
1.00153e-11
8.04132e-12
6.22161e-12
4.56278e-12
3.05143e-12
1.65625e-12
3.31407e-13
1.14836e-14
1.13285e-14
3.27003e-13
1.63508e-12
3.01354e-12
4.50815e-12
6.15063e-12
7.95506e-12
9.91573e-12
1.20065e-11
1.41819e-11
1.63799e-11
1.85257e-11
2.05369e-11
2.23294e-11
2.38234e-11
2.49494e-11
2.56535e-11
2.59011e-11
2.568e-11
2.5001e-11
2.38973e-11
2.24218e-11
2.06432e-11
1.86406e-11
1.64981e-11
1.42983e-11
1.21164e-11
1.00153e-11
8.04132e-12
6.22161e-12
4.56278e-12
3.05143e-12
1.65625e-12
3.31407e-13
1.14836e-14
1.13285e-14
3.27003e-13
1.63508e-12
3.01354e-12
4.50815e-12
6.15063e-12
7.95506e-12
9.91573e-12
1.20065e-11
1.41819e-11
1.63799e-11
1.85257e-11
2.05369e-11
2.23294e-11
2.38234e-11
2.49494e-11
2.56535e-11
2.59011e-11
2.568e-11
2.5001e-11
2.38973e-11
2.24218e-11
2.06432e-11
1.86406e-11
1.64981e-11
1.42983e-11
1.21164e-11
1.00153e-11
8.04132e-12
6.22161e-12
4.56278e-12
3.05143e-12
1.65625e-12
3.31407e-13
1.14836e-14
1.13285e-14
3.27003e-13
1.63508e-12
3.01354e-12
4.50815e-12
6.15063e-12
7.95506e-12
9.91573e-12
1.20065e-11
1.41819e-11
1.63799e-11
1.85257e-11
2.05369e-11
2.23294e-11
2.38234e-11
2.49494e-11
2.56535e-11
2.59011e-11
2.568e-11
2.5001e-11
2.38973e-11
2.24218e-11
2.06432e-11
1.86406e-11
1.64981e-11
1.42983e-11
1.21164e-11
1.00153e-11
8.04132e-12
6.22161e-12
4.56278e-12
3.05143e-12
1.65625e-12
3.31407e-13
1.14836e-14
1.13285e-14
3.27003e-13
1.63508e-12
3.01354e-12
4.50815e-12
6.15063e-12
7.95506e-12
9.91573e-12
1.20065e-11
1.41819e-11
1.63799e-11
1.85257e-11
2.05369e-11
2.23294e-11
2.38234e-11
2.49494e-11
2.56535e-11
2.59011e-11
2.568e-11
2.5001e-11
2.38973e-11
2.24218e-11
2.06432e-11
1.86406e-11
1.64981e-11
1.42983e-11
1.21164e-11
1.00153e-11
8.04132e-12
6.22161e-12
4.56278e-12
3.05143e-12
1.65625e-12
3.31407e-13
1.14836e-14
1.13285e-14
3.27003e-13
1.63508e-12
3.01354e-12
4.50815e-12
6.15063e-12
7.95506e-12
9.91573e-12
1.20065e-11
1.41819e-11
1.63799e-11
1.85257e-11
2.05369e-11
2.23294e-11
2.38234e-11
2.49494e-11
2.56535e-11
2.59011e-11
2.568e-11
2.5001e-11
2.38973e-11
2.24218e-11
2.06432e-11
1.86406e-11
1.64981e-11
1.42983e-11
1.21164e-11
1.00153e-11
8.04132e-12
6.22161e-12
4.56278e-12
3.05143e-12
1.65625e-12
3.31407e-13
1.14836e-14
1.13285e-14
3.27003e-13
1.63508e-12
3.01354e-12
4.50815e-12
6.15063e-12
7.95506e-12
9.91573e-12
1.20065e-11
1.41819e-11
1.63799e-11
1.85257e-11
2.05369e-11
2.23294e-11
2.38234e-11
2.49494e-11
2.56535e-11
2.59011e-11
2.568e-11
2.5001e-11
2.38973e-11
2.24218e-11
2.06432e-11
1.86406e-11
1.64981e-11
1.42983e-11
1.21164e-11
1.00153e-11
8.04132e-12
6.22161e-12
4.56278e-12
3.05143e-12
1.65625e-12
3.31407e-13
1.14836e-14
1.13285e-14
3.27003e-13
1.63508e-12
3.01354e-12
4.50815e-12
6.15063e-12
7.95506e-12
9.91573e-12
1.20065e-11
1.41819e-11
1.63799e-11
1.85257e-11
2.05369e-11