/*--------------------------------*- C++ -*----------------------------------*\
  =========                 |
  \\      /  F ield         | OpenFOAM: The Open Source CFD Toolbox
   \\    /   O peration     | Website:  https://openfoam.org
    \\  /    A nd           | Version:  13
     \\/     M anipulation  |
\*---------------------------------------------------------------------------*/
FoamFile
{
    format      ascii;
    class       volScalarField;
    location    "117.5";
    object      nut;
}
// * * * * * * * * * * * * * * * * * * * * * * * * * * * * * * * * * * * * * //

dimensions      [0 2 -1 0 0 0 0];

internalField   nonuniform List<scalar> 
315000
(
4.52923e-15
1.18619e-12
2.70688e-11
4.85917e-11
7.04712e-11
9.2755e-11
1.15502e-10
1.38763e-10
1.62575e-10
1.86951e-10
2.11882e-10
2.37336e-10
2.63257e-10
2.89567e-10
3.16168e-10
3.42943e-10
3.6976e-10
3.96475e-10
4.22933e-10
4.48972e-10
4.74427e-10
4.99129e-10
5.22909e-10
5.45604e-10
5.67052e-10
5.87099e-10
6.05598e-10
6.22415e-10
6.37423e-10
6.5051e-10
6.61577e-10
6.70541e-10
6.77334e-10
6.81902e-10
6.84212e-10
6.84245e-10
6.82002e-10
6.77499e-10
6.7077e-10
6.61868e-10
6.50861e-10
6.3783e-10
6.22876e-10
6.0611e-10
5.87656e-10
5.67651e-10
5.4624e-10
5.23577e-10
4.99823e-10
4.75142e-10
4.49704e-10
4.23675e-10
3.97221e-10
3.70506e-10
3.43682e-10
3.16896e-10
2.90278e-10
2.63947e-10
2.37999e-10
2.12514e-10
1.87547e-10
1.63132e-10
1.39276e-10
1.15965e-10
9.31624e-11
7.08157e-11
4.8862e-11
2.72456e-11
1.19556e-12
4.56862e-15
1.13349e-13
3.01861e-11
6.87459e-09
1.24354e-08
1.80638e-08
2.37856e-08
2.96221e-08
3.55897e-08
4.1699e-08
4.79542e-08
5.43534e-08
6.08881e-08
6.75437e-08
7.43e-08
8.11311e-08
8.80068e-08
9.48926e-08
1.01751e-07
1.08542e-07
1.15224e-07
1.21755e-07
1.2809e-07
1.34187e-07
1.40003e-07
1.45499e-07
1.50634e-07
1.55371e-07
1.59675e-07
1.63516e-07
1.66864e-07
1.69695e-07
1.71987e-07
1.73723e-07
1.7489e-07
1.75479e-07
1.75486e-07
1.74911e-07
1.73758e-07
1.72035e-07
1.69756e-07
1.66938e-07
1.63601e-07
1.59772e-07
1.55478e-07
1.5075e-07
1.45624e-07
1.40137e-07
1.34326e-07
1.28235e-07
1.21904e-07
1.15377e-07
1.08697e-07
1.01906e-07
9.50475e-08
8.81599e-08
8.12814e-08
7.44463e-08
6.7685e-08
6.10231e-08
5.44811e-08
4.80736e-08
4.1809e-08
3.56893e-08
2.97101e-08
2.38608e-08
1.81248e-08
1.24804e-08
6.90139e-09
3.03128e-11
1.1384e-13
4.55953e-13
1.21602e-10
7.0473e-08
1.27359e-07
1.84825e-07
2.43191e-07
3.0272e-07
3.63611e-07
4.25996e-07
4.89929e-07
5.5539e-07
6.22281e-07
6.90432e-07
7.59607e-07
8.29512e-07
8.99803e-07
9.70099e-07
1.03999e-06
1.10905e-06
1.17685e-06
1.24294e-06
1.30689e-06
1.36828e-06
1.4267e-06
1.48175e-06
1.53307e-06
1.58031e-06
1.62315e-06
1.6613e-06
1.69451e-06
1.72254e-06
1.7452e-06
1.76235e-06
1.77387e-06
1.77967e-06
1.77973e-06
1.77403e-06
1.76262e-06
1.74557e-06
1.72301e-06
1.69507e-06
1.66196e-06
1.6239e-06
1.58114e-06
1.53398e-06
1.48272e-06
1.42773e-06
1.36936e-06
1.30802e-06
1.2441e-06
1.17803e-06
1.11025e-06
1.0412e-06
9.71304e-07
9.00994e-07
8.3068e-07
7.60742e-07
6.91524e-07
6.23321e-07
5.5637e-07
4.9084e-07
4.26829e-07
3.64359e-07
3.03374e-07
2.43743e-07
1.85266e-07
1.27678e-07
7.06596e-08
1.21941e-10
4.57254e-13
8.55545e-13
2.28192e-10
1.32006e-07
2.38192e-07
3.4533e-07
4.54121e-07
5.65142e-07
6.78827e-07
7.95451e-07
9.15128e-07
1.0378e-06
1.16326e-06
1.29112e-06
1.42086e-06
1.55186e-06
1.68339e-06
1.81467e-06
1.9449e-06
2.07324e-06
2.19889e-06
2.32104e-06
2.43892e-06
2.55177e-06
2.65889e-06
2.7596e-06
2.85327e-06
2.93933e-06
3.01723e-06
3.08648e-06
3.14668e-06
3.19743e-06
3.23842e-06
3.26941e-06
3.29021e-06
3.30067e-06
3.30075e-06
3.29043e-06
3.26979e-06
3.23895e-06
3.1981e-06
3.14749e-06
3.08743e-06
3.01829e-06
2.94051e-06
2.85457e-06
2.76099e-06
2.66037e-06
2.55332e-06
2.44054e-06
2.32271e-06
2.2006e-06
2.07498e-06
1.94664e-06
1.81641e-06
1.68511e-06
1.55355e-06
1.4225e-06
1.2927e-06
1.16476e-06
1.03922e-06
9.16443e-07
7.96652e-07
6.79902e-07
5.6608e-07
4.5491e-07
3.45957e-07
2.38645e-07
1.32269e-07
2.28674e-10
8.57391e-13
1.31084e-12
3.49657e-10
2.01836e-07
3.63472e-07
5.26178e-07
6.91142e-07
8.59318e-07
1.03141e-06
1.20784e-06
1.38875e-06
1.57403e-06
1.76325e-06
1.95578e-06
2.15075e-06
2.34712e-06
2.54379e-06
2.73955e-06
2.93322e-06
3.1236e-06
3.30954e-06
3.48992e-06
3.66365e-06
3.8297e-06
3.98708e-06
4.13486e-06
4.27217e-06
4.3982e-06
4.51219e-06
4.61348e-06
4.70147e-06
4.77562e-06
4.8355e-06
4.88074e-06
4.91109e-06
4.92635e-06
4.92644e-06
4.91136e-06
4.88119e-06
4.83612e-06
4.77641e-06
4.70242e-06
4.6146e-06
4.51346e-06
4.3996e-06
4.2737e-06
4.13651e-06
3.98883e-06
3.83154e-06
3.66557e-06
3.4919e-06
3.31157e-06
3.12566e-06
2.93529e-06
2.74162e-06
2.54584e-06
2.34914e-06
2.15271e-06
1.95768e-06
1.76506e-06
1.57573e-06
1.39034e-06
1.20928e-06
1.0327e-06
8.60449e-07
6.92093e-07
5.26935e-07
3.64019e-07
2.02155e-07
3.50244e-10
1.31309e-12
1.79659e-12
4.79269e-10
2.76005e-07
4.95909e-07
7.16584e-07
9.39761e-07
1.16681e-06
1.39869e-06
1.63597e-06
1.87881e-06
2.12696e-06
2.37981e-06
2.63639e-06
2.89551e-06
3.15576e-06
3.41567e-06
3.6737e-06
3.92834e-06
4.17811e-06
4.42157e-06
4.65733e-06
4.88407e-06
5.10051e-06
5.30545e-06
5.49773e-06
5.67624e-06
5.84002e-06
5.98815e-06
6.11978e-06
6.23414e-06
6.33054e-06
6.4084e-06
6.46724e-06
6.5067e-06
6.52654e-06
6.52663e-06
6.50698e-06
6.46771e-06
6.40906e-06
6.33139e-06
6.23516e-06
6.12097e-06
5.98949e-06
5.84151e-06
5.67787e-06
5.49948e-06
5.30732e-06
5.10248e-06
4.88611e-06
4.65944e-06
4.42374e-06
4.18032e-06
3.93057e-06
3.67593e-06
3.41788e-06
3.15794e-06
2.89763e-06
2.63844e-06
2.38177e-06
2.12881e-06
1.88053e-06
1.63755e-06
1.4001e-06
1.16804e-06
9.40802e-07
7.17414e-07
4.96511e-07
2.76357e-07
4.79922e-10
1.7991e-12
2.2775e-12
6.0761e-10
3.49099e-07
6.25795e-07
9.02539e-07
1.18163e-06
1.46485e-06
1.75343e-06
2.04804e-06
2.34885e-06
2.65548e-06
2.9671e-06
3.28249e-06
3.60013e-06
3.91834e-06
4.23534e-06
4.54932e-06
4.85854e-06
5.16127e-06
5.45586e-06
5.74073e-06
6.01437e-06
6.27545e-06
6.52264e-06
6.75466e-06
6.9702e-06
7.16805e-06
7.34703e-06
7.50608e-06
7.64425e-06
7.76069e-06
7.85472e-06
7.92576e-06
7.97338e-06
7.99732e-06
7.99741e-06
7.97367e-06
7.92623e-06
7.85537e-06
7.76153e-06
7.64525e-06
7.50725e-06
7.34836e-06
7.16952e-06
6.97182e-06
6.7564e-06
6.5245e-06
6.2774e-06
6.01641e-06
5.74284e-06
5.45803e-06
5.16348e-06
4.86077e-06
4.55156e-06
4.23756e-06
3.92054e-06
3.60228e-06
3.28457e-06
2.96909e-06
2.65736e-06
2.3506e-06
2.04965e-06
1.75487e-06
1.46612e-06
1.1827e-06
9.0339e-07
6.26414e-07
3.49462e-07
6.08289e-10
2.28012e-12
2.71954e-12
7.25606e-10
4.16003e-07
7.44147e-07
1.07133e-06
1.4004e-06
1.73354e-06
2.07221e-06
2.41721e-06
2.76868e-06
3.12614e-06
3.48859e-06
3.85456e-06
4.22232e-06
4.58994e-06
4.95543e-06
5.3168e-06
5.67209e-06
6.01941e-06
6.35703e-06
6.68334e-06
6.9968e-06
7.29588e-06
7.57905e-06
7.8448e-06
8.09163e-06
8.31811e-06
8.52292e-06
8.70484e-06
8.8628e-06
8.99587e-06
9.10328e-06
9.1844e-06
9.23878e-06
9.26608e-06
9.26617e-06
9.23904e-06
9.18485e-06
9.1039e-06
8.99666e-06
8.86375e-06
8.70595e-06
8.52418e-06
8.31952e-06
8.09317e-06
7.84646e-06
7.58082e-06
7.29775e-06
6.99875e-06
6.68536e-06
6.35911e-06
6.02153e-06
5.67423e-06
5.31895e-06
4.95758e-06
4.59206e-06
4.2244e-06
3.85658e-06
3.49052e-06
3.12797e-06
2.77039e-06
2.41878e-06
2.07362e-06
1.73477e-06
1.40144e-06
1.07216e-06
7.44753e-07
4.1636e-07
7.2628e-10
2.72215e-12
3.09795e-12
8.26645e-10
4.73072e-07
8.4471e-07
1.21428e-06
1.58515e-06
1.95983e-06
2.34001e-06
2.72659e-06
3.11969e-06
3.51876e-06
3.92264e-06
4.32971e-06
4.73806e-06
5.14559e-06
5.55016e-06
5.94962e-06
6.3419e-06
6.72511e-06
7.09745e-06
7.45723e-06
7.80276e-06
8.13238e-06
8.44438e-06
8.73708e-06
9.00883e-06
9.25806e-06
9.48333e-06
9.68334e-06
9.85694e-06
1.00031e-05
1.01211e-05
1.02102e-05
1.02698e-05
1.02998e-05
1.02999e-05
1.02701e-05
1.02106e-05
1.01217e-05
1.00039e-05
9.85783e-06
9.68438e-06
9.48451e-06
9.25937e-06
9.01026e-06
8.73863e-06
8.44604e-06
8.13413e-06
7.80459e-06
7.45912e-06
7.0994e-06
6.7271e-06
6.34392e-06
5.95165e-06
5.55218e-06
5.14759e-06
4.74002e-06
4.33162e-06
3.92447e-06
3.52049e-06
3.12131e-06
2.72808e-06
2.34136e-06
1.961e-06
1.58614e-06
1.21507e-06
8.45288e-07
4.73414e-07
8.27295e-10
3.10048e-12
3.40074e-12
9.07518e-10
5.18611e-07
9.24708e-07
1.32771e-06
1.73141e-06
2.13863e-06
2.55123e-06
2.97017e-06
3.39559e-06
3.82688e-06
4.26277e-06
4.70152e-06
5.1411e-06
5.57928e-06
6.01382e-06
6.44248e-06
6.86317e-06
7.27394e-06
7.67293e-06
8.05837e-06
8.42846e-06
8.78142e-06
9.11541e-06
9.42864e-06
9.71933e-06
9.98584e-06
1.02266e-05
1.04403e-05
1.06258e-05
1.07819e-05
1.09078e-05
1.10029e-05
1.10666e-05
1.10986e-05
1.10987e-05
1.10669e-05
1.10033e-05
1.09084e-05
1.07826e-05
1.06266e-05
1.04413e-05
1.02277e-05
9.98706e-06
9.72067e-06
9.43009e-06
9.11696e-06
8.78305e-06
8.43017e-06
8.06014e-06
7.67476e-06
7.2758e-06
6.86506e-06
6.44439e-06
6.01572e-06
5.58116e-06
5.14294e-06
4.70332e-06
4.2645e-06
3.82852e-06
3.39713e-06
2.97158e-06
2.5525e-06
2.13974e-06
1.73235e-06
1.32846e-06
9.25253e-07
5.18934e-07
9.08138e-10
3.40316e-12
3.62806e-12
9.68254e-10
5.52733e-07
9.84513e-07
1.41236e-06
1.8404e-06
2.27168e-06
2.7082e-06
3.151e-06
3.60022e-06
4.05518e-06
4.51456e-06
4.97654e-06
5.43898e-06
5.8996e-06
6.35606e-06
6.8061e-06
7.24759e-06
7.67854e-06
8.09703e-06
8.50123e-06
8.88927e-06
9.25927e-06
9.60931e-06
9.93749e-06
1.0242e-05
1.0521e-05
1.07731e-05
1.09968e-05
1.11908e-05
1.13542e-05
1.14859e-05
1.15853e-05
1.16519e-05
1.16854e-05
1.16855e-05
1.16522e-05
1.15857e-05
1.14864e-05
1.13548e-05
1.11916e-05
1.09977e-05
1.07742e-05
1.05222e-05
1.02432e-05
9.93885e-06
9.61077e-06
9.26081e-06
8.89089e-06
8.50291e-06
8.09876e-06
7.6803e-06
7.24938e-06
6.8079e-06
6.35786e-06
5.90138e-06
5.44073e-06
4.97824e-06
4.5162e-06
4.05674e-06
3.60167e-06
3.15234e-06
2.70941e-06
2.27273e-06
1.84129e-06
1.41307e-06
9.8503e-07
5.5304e-07
9.68846e-10
3.63037e-12
3.78875e-12
1.01121e-09
5.76828e-07
1.02668e-06
1.47197e-06
1.91707e-06
2.36521e-06
2.81849e-06
3.27798e-06
3.74383e-06
4.21534e-06
4.69114e-06
5.16933e-06
5.64774e-06
6.12402e-06
6.59579e-06
7.06077e-06
7.5168e-06
7.96184e-06
8.39397e-06
8.81128e-06
9.21186e-06
9.59376e-06
9.95499e-06
1.02936e-05
1.06077e-05
1.08955e-05
1.11555e-05
1.13861e-05
1.15861e-05
1.17545e-05
1.18903e-05
1.19927e-05
1.20614e-05
1.20958e-05
1.20959e-05
1.20616e-05
1.19931e-05
1.18907e-05
1.17551e-05
1.15869e-05
1.1387e-05
1.11565e-05
1.08966e-05
1.06089e-05
1.02949e-05
9.95639e-06
9.59524e-06
9.21341e-06
8.81288e-06
8.39562e-06
7.96354e-06
7.51851e-06
7.0625e-06
6.59752e-06
6.12574e-06
5.64942e-06
5.17097e-06
4.69271e-06
4.21684e-06
3.74523e-06
3.27927e-06
2.81965e-06
2.36623e-06
1.91793e-06
1.47265e-06
1.02717e-06
5.77122e-07
1.01178e-09
3.79099e-12
3.89611e-12
1.03992e-09
5.92918e-07
1.05481e-06
1.51171e-06
1.96817e-06
2.42753e-06
2.89195e-06
3.36255e-06
3.83947e-06
4.32199e-06
4.80872e-06
5.29771e-06
5.78676e-06
6.27348e-06
6.75546e-06
7.23041e-06
7.69614e-06
8.15061e-06
8.59184e-06
9.01791e-06
9.42687e-06
9.81672e-06
1.01854e-05
1.0531e-05
1.08516e-05
1.11452e-05
1.14104e-05
1.16457e-05
1.18497e-05
1.20214e-05
1.21599e-05
1.22644e-05
1.23344e-05
1.23695e-05
1.23696e-05
1.23346e-05
1.22647e-05
1.21604e-05
1.2022e-05
1.18504e-05
1.16465e-05
1.14114e-05
1.11463e-05
1.08527e-05
1.05323e-05
1.01868e-05
9.81816e-06
9.42838e-06
9.01948e-06
8.59345e-06
8.15226e-06
7.69782e-06
7.2321e-06
6.75715e-06
6.27515e-06
5.7884e-06
5.29931e-06
4.81025e-06
4.32346e-06
3.84084e-06
3.36381e-06
2.89308e-06
2.42852e-06
1.96901e-06
1.51237e-06
1.05529e-06
5.93204e-07
1.04048e-09
3.8983e-12
3.96412e-12
1.05811e-09
6.0311e-07
1.07262e-06
1.53686e-06
2.00051e-06
2.46697e-06
2.93845e-06
3.4161e-06
3.90004e-06
4.38956e-06
4.88323e-06
5.37909e-06
5.87491e-06
6.36828e-06
6.85677e-06
7.33808e-06
7.81001e-06
8.27049e-06
8.71754e-06
9.14921e-06
9.56353e-06
9.95847e-06
1.0332e-05
1.0682e-05
1.10067e-05
1.13041e-05
1.15726e-05
1.18109e-05
1.20175e-05
1.21913e-05
1.23315e-05
1.24373e-05
1.25082e-05
1.25438e-05
1.25438e-05
1.25084e-05
1.24377e-05
1.2332e-05
1.21919e-05
1.20182e-05
1.18117e-05
1.15736e-05
1.13052e-05
1.10078e-05
1.06833e-05
1.03333e-05
9.9599e-06
9.56502e-06
9.15076e-06
8.71913e-06
8.27212e-06
7.81166e-06
7.33975e-06
6.85844e-06
6.36993e-06
5.87654e-06
5.38068e-06
4.88475e-06
4.39101e-06
3.90139e-06
3.41734e-06
2.93957e-06
2.46795e-06
2.00134e-06
1.53752e-06
1.07309e-06
6.03393e-07
1.05866e-09
3.96628e-12
4.0051e-12
1.06908e-09
6.09253e-07
1.08335e-06
1.55202e-06
2.02001e-06
2.49075e-06
2.96651e-06
3.44841e-06
3.93661e-06
4.43038e-06
4.92826e-06
5.4283e-06
5.92824e-06
6.42566e-06
6.91812e-06
7.40331e-06
7.87902e-06
8.34318e-06
8.79379e-06
9.22889e-06
9.6465e-06
1.00446e-05
1.0421e-05
1.07738e-05
1.11009e-05
1.14007e-05
1.16713e-05
1.19113e-05
1.21195e-05
1.22947e-05
1.24359e-05
1.25426e-05
1.2614e-05
1.26498e-05
1.26498e-05
1.26142e-05
1.25429e-05
1.24364e-05
1.22953e-05
1.21202e-05
1.19122e-05
1.16722e-05
1.14017e-05
1.11021e-05
1.0775e-05
1.04223e-05
1.0046e-05
9.64798e-06
9.23044e-06
8.79538e-06
8.3448e-06
7.88067e-06
7.40497e-06
6.91978e-06
6.4273e-06
5.92986e-06
5.42988e-06
4.92978e-06
4.43182e-06
3.93796e-06
3.44965e-06
2.96762e-06
2.49173e-06
2.02083e-06
1.55268e-06
1.08383e-06
6.09534e-07
1.06963e-09
4.00725e-12
4.02865e-12
1.07539e-09
6.12785e-07
1.08952e-06
1.56074e-06
2.03123e-06
2.50444e-06
2.98266e-06
3.46703e-06
3.9577e-06
4.45393e-06
4.95427e-06
5.45674e-06
5.95908e-06
6.45886e-06
6.95364e-06
7.44109e-06
7.91902e-06
8.38533e-06
8.83803e-06
9.27515e-06
9.69468e-06
1.00946e-05
1.04727e-05
1.08271e-05
1.11558e-05
1.14568e-05
1.17287e-05
1.19698e-05
1.21789e-05
1.23548e-05
1.24967e-05
1.26038e-05
1.26755e-05
1.27115e-05
1.27116e-05
1.26757e-05
1.26041e-05
1.24972e-05
1.23554e-05
1.21796e-05
1.19706e-05
1.17296e-05
1.14579e-05
1.11569e-05
1.08284e-05
1.04741e-05
1.0096e-05
9.69616e-06
9.27669e-06
8.83962e-06
8.38696e-06
7.92067e-06
7.44275e-06
6.9553e-06
6.4605e-06
5.96069e-06
5.45831e-06
4.95578e-06
4.45537e-06
3.95905e-06
3.46827e-06
2.98377e-06
2.50542e-06
2.03205e-06
1.5614e-06
1.09e-06
6.13066e-07
1.07593e-09
4.03079e-12
4.04158e-12
1.07885e-09
6.14727e-07
1.09292e-06
1.56554e-06
2.0374e-06
2.51198e-06
2.99157e-06
3.4773e-06
3.96934e-06
4.46694e-06
4.96864e-06
5.47247e-06
5.97615e-06
6.47725e-06
6.97333e-06
7.46206e-06
7.94123e-06
8.40875e-06
8.86262e-06
9.30087e-06
9.72148e-06
1.01224e-05
1.05015e-05
1.08568e-05
1.11863e-05
1.14881e-05
1.17607e-05
1.20024e-05
1.2212e-05
1.23884e-05
1.25307e-05
1.2638e-05
1.27099e-05
1.2746e-05
1.2746e-05
1.27101e-05
1.26383e-05
1.25311e-05
1.2389e-05
1.22127e-05
1.20032e-05
1.17616e-05
1.14892e-05
1.11875e-05
1.08581e-05
1.05029e-05
1.01238e-05
9.72297e-06
9.30241e-06
8.86421e-06
8.41037e-06
7.94288e-06
7.46372e-06
6.97499e-06
6.4789e-06
5.97777e-06
5.47405e-06
4.97016e-06
4.46838e-06
3.97069e-06
3.47854e-06
2.99268e-06
2.51296e-06
2.03822e-06
1.56619e-06
1.09339e-06
6.15009e-07
1.0794e-09
4.04373e-12
4.04839e-12
1.08068e-09
6.15751e-07
1.09471e-06
1.56807e-06
2.04066e-06
2.51596e-06
2.99627e-06
3.48274e-06
3.9755e-06
4.47384e-06
4.97627e-06
5.48082e-06
5.98522e-06
6.48702e-06
6.9838e-06
7.47322e-06
7.95305e-06
8.42123e-06
8.87573e-06
9.31459e-06
9.73579e-06
1.01373e-05
1.05169e-05
1.08727e-05
1.12026e-05
1.15049e-05
1.17778e-05
1.20199e-05
1.22298e-05
1.24064e-05
1.25488e-05
1.26563e-05
1.27283e-05
1.27644e-05
1.27645e-05
1.27285e-05
1.26566e-05
1.25493e-05
1.2407e-05
1.22305e-05
1.20207e-05
1.17788e-05
1.1506e-05
1.12038e-05
1.0874e-05
1.05183e-05
1.01387e-05
9.73728e-06
9.31614e-06
8.87732e-06
8.42286e-06
7.95471e-06
7.47488e-06
6.98547e-06
6.48868e-06
5.98684e-06
5.4824e-06
4.97778e-06
4.47528e-06
3.97685e-06
3.48398e-06
2.99739e-06
2.51694e-06
2.04148e-06
1.56872e-06
1.09518e-06
6.16032e-07
1.08123e-09
4.05055e-12
4.05183e-12
1.0816e-09
6.16268e-07
1.09561e-06
1.56935e-06
2.04231e-06
2.51798e-06
2.99866e-06
3.48549e-06
3.97864e-06
4.47734e-06
4.98015e-06
5.48508e-06
5.98984e-06
6.49202e-06
6.98915e-06
7.47892e-06
7.95911e-06
8.42762e-06
8.88245e-06
9.32162e-06
9.74313e-06
1.01449e-05
1.05248e-05
1.08809e-05
1.1211e-05
1.15135e-05
1.17866e-05
1.20288e-05
1.22389e-05
1.24156e-05
1.25582e-05
1.26657e-05
1.27378e-05
1.27739e-05
1.2774e-05
1.2738e-05
1.26661e-05
1.25586e-05
1.24162e-05
1.22396e-05
1.20297e-05
1.17876e-05
1.15146e-05
1.12122e-05
1.08821e-05
1.05262e-05
1.01463e-05
9.74462e-06
9.32317e-06
8.88405e-06
8.42925e-06
7.96076e-06
7.48059e-06
6.99082e-06
6.49367e-06
5.99147e-06
5.48666e-06
4.98167e-06
4.47879e-06
3.97999e-06
3.48674e-06
2.99978e-06
2.51896e-06
2.04313e-06
1.57001e-06
1.09609e-06
6.1655e-07
1.08215e-09
4.05399e-12
4.0535e-12
1.08205e-09
6.1652e-07
1.09605e-06
1.56997e-06
2.04311e-06
2.51897e-06
2.99982e-06
3.48684e-06
3.98017e-06
4.47906e-06
4.98205e-06
5.48716e-06
5.99211e-06
6.49447e-06
6.99179e-06
7.48173e-06
7.96209e-06
8.43077e-06
8.88576e-06
9.3251e-06
9.74676e-06
1.01487e-05
1.05287e-05
1.08849e-05
1.12152e-05
1.15178e-05
1.1791e-05
1.20333e-05
1.22434e-05
1.24202e-05
1.25628e-05
1.26704e-05
1.27425e-05
1.27786e-05
1.27787e-05
1.27427e-05
1.26707e-05
1.25633e-05
1.24208e-05
1.22441e-05
1.20341e-05
1.17919e-05
1.15188e-05
1.12164e-05
1.08862e-05
1.05301e-05
1.01501e-05
9.74825e-06
9.32665e-06
8.88736e-06
8.4324e-06
7.96375e-06
7.4834e-06
6.99346e-06
6.49613e-06
5.99374e-06
5.48875e-06
4.98357e-06
4.48051e-06
3.98152e-06
3.48809e-06
3.00094e-06
2.51995e-06
2.04394e-06
1.57063e-06
1.09653e-06
6.16803e-07
1.0826e-09
4.05566e-12
4.05429e-12
1.08226e-09
6.16638e-07
1.09626e-06
1.57027e-06
2.04349e-06
2.51943e-06
3.00037e-06
3.48748e-06
3.98089e-06
4.47987e-06
4.98295e-06
5.48815e-06
5.99319e-06
6.49563e-06
6.99303e-06
7.48306e-06
7.9635e-06
8.43226e-06
8.88734e-06
9.32675e-06
9.74848e-06
1.01505e-05
1.05306e-05
1.08868e-05
1.12172e-05
1.15198e-05
1.1793e-05
1.20354e-05
1.22456e-05
1.24224e-05
1.2565e-05
1.26726e-05
1.27447e-05
1.27809e-05
1.2781e-05
1.27449e-05
1.2673e-05
1.25655e-05
1.2423e-05
1.22463e-05
1.20362e-05
1.1794e-05
1.15209e-05
1.12184e-05
1.08881e-05
1.0532e-05
1.01519e-05
9.74998e-06
9.3283e-06
8.88894e-06
8.4339e-06
7.96516e-06
7.48473e-06
6.9947e-06
6.49729e-06
5.99482e-06
5.48973e-06
4.98447e-06
4.48132e-06
3.98224e-06
3.48872e-06
3.00149e-06
2.52041e-06
2.04431e-06
1.57092e-06
1.09674e-06
6.16921e-07
1.08281e-09
4.05645e-12
4.05464e-12
1.08235e-09
6.16692e-07
1.09635e-06
1.5704e-06
2.04366e-06
2.51964e-06
3.00062e-06
3.48776e-06
3.98122e-06
4.48024e-06
4.98336e-06
5.4886e-06
5.99368e-06
6.49616e-06
6.9936e-06
7.48367e-06
7.96415e-06
8.43295e-06
8.88806e-06
9.32751e-06
9.74927e-06
1.01513e-05
1.05315e-05
1.08877e-05
1.12181e-05
1.15207e-05
1.1794e-05
1.20364e-05
1.22466e-05
1.24234e-05
1.2566e-05
1.26737e-05
1.27458e-05
1.27819e-05
1.2782e-05
1.2746e-05
1.2674e-05
1.25665e-05
1.2424e-05
1.22473e-05
1.20372e-05
1.1795e-05
1.15218e-05
1.12193e-05
1.0889e-05
1.05328e-05
1.01527e-05
9.75077e-06
9.32906e-06
8.88966e-06
8.43458e-06
7.96581e-06
7.48534e-06
6.99527e-06
6.49782e-06
5.99531e-06
5.49018e-06
4.98488e-06
4.48169e-06
3.98257e-06
3.48901e-06
3.00174e-06
2.52062e-06
2.04449e-06
1.57106e-06
1.09683e-06
6.16974e-07
1.08291e-09
4.0568e-12
4.05479e-12
1.08239e-09
6.16715e-07
1.09639e-06
1.57046e-06
2.04373e-06
2.51973e-06
3.00073e-06
3.48789e-06
3.98136e-06
4.4804e-06
4.98354e-06
5.4888e-06
5.99389e-06
6.49639e-06
6.99385e-06
7.48394e-06
7.96444e-06
8.43325e-06
8.88838e-06
9.32784e-06
9.74962e-06
1.01517e-05
1.05318e-05
1.08881e-05
1.12185e-05
1.15212e-05
1.17944e-05
1.20368e-05
1.2247e-05
1.24239e-05
1.25665e-05
1.26741e-05
1.27462e-05
1.27824e-05
1.27825e-05
1.27464e-05
1.26745e-05
1.2567e-05
1.24245e-05
1.22477e-05
1.20377e-05
1.17954e-05
1.15222e-05
1.12197e-05
1.08894e-05
1.05332e-05
1.01531e-05
9.75112e-06
9.3294e-06
8.88998e-06
8.43489e-06
7.9661e-06
7.48561e-06
6.99553e-06
6.49805e-06
5.99552e-06
5.49038e-06
4.98506e-06
4.48185e-06
3.98272e-06
3.48914e-06
3.00185e-06
2.52071e-06
2.04456e-06
1.57111e-06
1.09687e-06
6.16998e-07
1.08295e-09
4.05696e-12
4.05486e-12
1.08241e-09
6.16725e-07
1.09641e-06
1.57048e-06
2.04377e-06
2.51977e-06
3.00078e-06
3.48794e-06
3.98142e-06
4.48047e-06
4.98361e-06
5.48888e-06
5.99399e-06
6.49649e-06
6.99396e-06
7.48405e-06
7.96456e-06
8.43338e-06
8.88852e-06
9.32799e-06
9.74977e-06
1.01518e-05
1.0532e-05
1.08883e-05
1.12187e-05
1.15213e-05
1.17946e-05
1.2037e-05
1.22472e-05
1.24241e-05
1.25667e-05
1.26743e-05
1.27464e-05
1.27826e-05
1.27827e-05
1.27466e-05
1.26747e-05
1.25672e-05
1.24247e-05
1.22479e-05
1.20378e-05
1.17956e-05
1.15224e-05
1.12198e-05
1.08895e-05
1.05334e-05
1.01532e-05
9.75127e-06
9.32954e-06
8.89012e-06
8.43502e-06
7.96622e-06
7.48573e-06
6.99563e-06
6.49815e-06
5.99562e-06
5.49047e-06
4.98514e-06
4.48192e-06
3.98278e-06
3.48919e-06
3.0019e-06
2.52075e-06
2.04459e-06
1.57114e-06
1.09689e-06
6.17008e-07
1.08296e-09
4.05702e-12
4.05489e-12
1.08242e-09
6.16729e-07
1.09642e-06
1.57049e-06
2.04378e-06
2.51979e-06
3.00079e-06
3.48797e-06
3.98145e-06
4.4805e-06
4.98364e-06
5.48892e-06
5.99402e-06
6.49654e-06
6.99401e-06
7.4841e-06
7.96461e-06
8.43343e-06
8.88857e-06
9.32805e-06
9.74984e-06
1.01519e-05
1.05321e-05
1.08884e-05
1.12187e-05
1.15214e-05
1.17947e-05
1.20371e-05
1.22473e-05
1.24241e-05
1.25668e-05
1.26744e-05
1.27465e-05
1.27827e-05
1.27827e-05
1.27467e-05
1.26747e-05
1.25672e-05
1.24247e-05
1.2248e-05
1.20379e-05
1.17956e-05
1.15225e-05
1.12199e-05
1.08896e-05
1.05334e-05
1.01533e-05
9.75133e-06
9.3296e-06
8.89017e-06
8.43507e-06
7.96627e-06
7.48578e-06
6.99568e-06
6.49819e-06
5.99565e-06
5.4905e-06
4.98517e-06
4.48195e-06
3.9828e-06
3.48921e-06
3.00192e-06
2.52077e-06
2.04461e-06
1.57115e-06
1.09689e-06
6.17012e-07
1.08297e-09
4.05705e-12
4.0549e-12
1.08242e-09
6.1673e-07
1.09642e-06
1.5705e-06
2.04378e-06
2.51979e-06
3.0008e-06
3.48798e-06
3.98146e-06
4.48051e-06
4.98366e-06
5.48893e-06
5.99404e-06
6.49655e-06
6.99402e-06
7.48412e-06
7.96463e-06
8.43346e-06
8.8886e-06
9.32807e-06
9.74986e-06
1.01519e-05
1.05321e-05
1.08884e-05
1.12188e-05
1.15214e-05
1.17947e-05
1.20371e-05
1.22473e-05
1.24242e-05
1.25668e-05
1.26744e-05
1.27465e-05
1.27827e-05
1.27828e-05
1.27467e-05
1.26748e-05
1.25673e-05
1.24248e-05
1.2248e-05
1.20379e-05
1.17957e-05
1.15225e-05
1.12199e-05
1.08896e-05
1.05335e-05
1.01533e-05
9.75136e-06
9.32962e-06
8.8902e-06
8.43509e-06
7.96629e-06
7.48579e-06
6.9957e-06
6.49821e-06
5.99567e-06
5.49052e-06
4.98518e-06
4.48196e-06
3.98281e-06
3.48922e-06
3.00192e-06
2.52077e-06
2.04461e-06
1.57115e-06
1.0969e-06
6.17013e-07
1.08297e-09
4.05706e-12
4.0549e-12
1.08242e-09
6.16731e-07
1.09642e-06
1.5705e-06
2.04379e-06
2.51979e-06
3.00081e-06
3.48798e-06
3.98146e-06
4.48051e-06
4.98366e-06
5.48894e-06
5.99405e-06
6.49656e-06
6.99403e-06
7.48413e-06
7.96464e-06
8.43346e-06
8.88861e-06
9.32808e-06
9.74987e-06
1.01519e-05
1.05321e-05
1.08884e-05
1.12188e-05
1.15215e-05
1.17947e-05
1.20371e-05
1.22473e-05
1.24242e-05
1.25668e-05
1.26745e-05
1.27465e-05
1.27827e-05
1.27828e-05
1.27468e-05
1.26748e-05
1.25673e-05
1.24248e-05
1.2248e-05
1.2038e-05
1.17957e-05
1.15225e-05
1.122e-05
1.08897e-05
1.05335e-05
1.01533e-05
9.75137e-06
9.32963e-06
8.89021e-06
8.4351e-06
7.9663e-06
7.4858e-06
6.9957e-06
6.49822e-06
5.99568e-06
5.49052e-06
4.98519e-06
4.48196e-06
3.98282e-06
3.48923e-06
3.00193e-06
2.52078e-06
2.04461e-06
1.57115e-06
1.0969e-06
6.17014e-07
1.08298e-09
4.05706e-12
4.0549e-12
1.08242e-09
6.16731e-07
1.09642e-06
1.5705e-06
2.04379e-06
2.5198e-06
3.00081e-06
3.48798e-06
3.98146e-06
4.48051e-06
4.98366e-06
5.48894e-06
5.99405e-06
6.49656e-06
6.99403e-06
7.48413e-06
7.96464e-06
8.43347e-06
8.88861e-06
9.32808e-06
9.74987e-06
1.01519e-05
1.05321e-05
1.08884e-05
1.12188e-05
1.15215e-05
1.17947e-05
1.20371e-05
1.22473e-05
1.24242e-05
1.25668e-05
1.26745e-05
1.27466e-05
1.27827e-05
1.27828e-05
1.27468e-05
1.26748e-05
1.25673e-05
1.24248e-05
1.2248e-05
1.2038e-05
1.17957e-05
1.15225e-05
1.122e-05
1.08897e-05
1.05335e-05
1.01533e-05
9.75137e-06
9.32964e-06
8.89021e-06
8.4351e-06
7.9663e-06
7.48581e-06
6.99571e-06
6.49822e-06
5.99568e-06
5.49052e-06
4.98519e-06
4.48196e-06
3.98282e-06
3.48923e-06
3.00193e-06
2.52078e-06
2.04461e-06
1.57116e-06
1.0969e-06
6.17014e-07
1.08298e-09
4.05707e-12
4.0549e-12
1.08242e-09
6.16731e-07
1.09642e-06
1.5705e-06
2.04379e-06
2.5198e-06
3.00081e-06
3.48798e-06
3.98146e-06
4.48051e-06
4.98366e-06
5.48894e-06
5.99405e-06
6.49656e-06
6.99403e-06
7.48413e-06
7.96464e-06
8.43347e-06
8.88861e-06
9.32808e-06
9.74988e-06
1.01519e-05
1.05321e-05
1.08884e-05
1.12188e-05
1.15215e-05
1.17947e-05
1.20371e-05
1.22473e-05
1.24242e-05
1.25668e-05
1.26745e-05
1.27466e-05
1.27827e-05
1.27828e-05
1.27468e-05
1.26748e-05
1.25673e-05
1.24248e-05
1.2248e-05
1.2038e-05
1.17957e-05
1.15225e-05
1.122e-05
1.08897e-05
1.05335e-05
1.01533e-05
9.75137e-06
9.32964e-06
8.89021e-06
8.43511e-06
7.9663e-06
7.48581e-06
6.99571e-06
6.49822e-06
5.99568e-06
5.49052e-06
4.98519e-06
4.48196e-06
3.98282e-06
3.48923e-06
3.00193e-06
2.52078e-06
2.04461e-06
1.57116e-06
1.0969e-06
6.17014e-07
1.08298e-09
4.05707e-12
4.0549e-12
1.08242e-09
6.16731e-07
1.09642e-06
1.5705e-06
2.04379e-06
2.5198e-06
3.00081e-06
3.48798e-06
3.98146e-06
4.48051e-06
4.98367e-06
5.48894e-06
5.99405e-06
6.49656e-06
6.99403e-06
7.48413e-06
7.96464e-06
8.43347e-06
8.88861e-06
9.32808e-06
9.74988e-06
1.01519e-05
1.05321e-05
1.08884e-05
1.12188e-05
1.15215e-05
1.17947e-05
1.20371e-05
1.22473e-05
1.24242e-05
1.25668e-05
1.26745e-05
1.27466e-05
1.27827e-05
1.27828e-05
1.27468e-05
1.26748e-05
1.25673e-05
1.24248e-05
1.2248e-05
1.2038e-05
1.17957e-05
1.15225e-05
1.122e-05
1.08897e-05
1.05335e-05
1.01533e-05
9.75137e-06
9.32964e-06
8.89021e-06
8.43511e-06
7.9663e-06
7.48581e-06
6.99571e-06
6.49822e-06
5.99568e-06
5.49052e-06
4.98519e-06
4.48196e-06
3.98282e-06
3.48923e-06
3.00193e-06
2.52078e-06
2.04461e-06
1.57116e-06
1.0969e-06
6.17014e-07
1.08298e-09
4.05707e-12
4.0549e-12
1.08242e-09
6.16731e-07
1.09642e-06
1.5705e-06
2.04379e-06
2.5198e-06
3.00081e-06
3.48798e-06
3.98146e-06
4.48051e-06
4.98367e-06
5.48894e-06
5.99405e-06
6.49656e-06
6.99403e-06
7.48413e-06
7.96464e-06
8.43347e-06
8.88861e-06
9.32808e-06
9.74988e-06
1.01519e-05
1.05321e-05
1.08884e-05
1.12188e-05
1.15215e-05
1.17947e-05
1.20371e-05
1.22473e-05
1.24242e-05
1.25668e-05
1.26745e-05
1.27466e-05
1.27827e-05
1.27828e-05
1.27468e-05
1.26748e-05
1.25673e-05
1.24248e-05
1.2248e-05
1.2038e-05
1.17957e-05
1.15225e-05
1.122e-05
1.08897e-05
1.05335e-05
1.01533e-05
9.75137e-06
9.32964e-06
8.89021e-06
8.43511e-06
7.9663e-06
7.48581e-06
6.99571e-06
6.49822e-06
5.99568e-06
5.49053e-06
4.98519e-06
4.48196e-06
3.98282e-06
3.48923e-06
3.00193e-06
2.52078e-06
2.04461e-06
1.57116e-06
1.0969e-06
6.17014e-07
1.08298e-09
4.05707e-12
4.0549e-12
1.08242e-09
6.16731e-07
1.09642e-06
1.5705e-06
2.04379e-06
2.5198e-06
3.00081e-06
3.48798e-06
3.98146e-06
4.48051e-06
4.98367e-06
5.48894e-06
5.99405e-06
6.49656e-06
6.99403e-06
7.48413e-06
7.96464e-06
8.43347e-06
8.88861e-06
9.32808e-06
9.74988e-06
1.01519e-05
1.05321e-05
1.08884e-05
1.12188e-05
1.15215e-05
1.17947e-05
1.20371e-05
1.22473e-05
1.24242e-05
1.25668e-05
1.26745e-05
1.27466e-05
1.27827e-05
1.27828e-05
1.27468e-05
1.26748e-05
1.25673e-05
1.24248e-05
1.2248e-05
1.2038e-05
1.17957e-05
1.15225e-05
1.122e-05
1.08897e-05
1.05335e-05
1.01533e-05
9.75137e-06
9.32964e-06
8.89021e-06
8.43511e-06
7.9663e-06
7.48581e-06
6.99571e-06
6.49822e-06
5.99568e-06
5.49053e-06
4.98519e-06
4.48196e-06
3.98282e-06
3.48923e-06
3.00193e-06
2.52078e-06
2.04461e-06
1.57116e-06
1.0969e-06
6.17014e-07
1.08298e-09
4.05707e-12
4.0549e-12
1.08242e-09
6.16731e-07
1.09642e-06
1.5705e-06
2.04379e-06
2.5198e-06
3.00081e-06
3.48798e-06
3.98146e-06
4.48051e-06
4.98367e-06
5.48894e-06
5.99405e-06
6.49656e-06
6.99403e-06
7.48413e-06
7.96464e-06
8.43347e-06
8.88861e-06
9.32808e-06
9.74988e-06
1.01519e-05
1.05321e-05
1.08884e-05
1.12188e-05
1.15215e-05
1.17947e-05
1.20371e-05
1.22473e-05
1.24242e-05
1.25668e-05
1.26745e-05
1.27466e-05
1.27827e-05
1.27828e-05
1.27468e-05
1.26748e-05
1.25673e-05
1.24248e-05
1.2248e-05
1.2038e-05
1.17957e-05
1.15225e-05
1.122e-05
1.08897e-05
1.05335e-05
1.01533e-05
9.75137e-06
9.32964e-06
8.89021e-06
8.43511e-06
7.9663e-06
7.48581e-06
6.99571e-06
6.49822e-06
5.99568e-06
5.49053e-06
4.98519e-06
4.48196e-06
3.98282e-06
3.48923e-06
3.00193e-06
2.52078e-06
2.04461e-06
1.57116e-06
1.0969e-06
6.17014e-07
1.08298e-09
4.05707e-12
4.0549e-12
1.08242e-09
6.16731e-07
1.09642e-06
1.5705e-06
2.04379e-06
2.5198e-06
3.00081e-06
3.48798e-06
3.98146e-06
4.48051e-06
4.98367e-06
5.48894e-06
5.99405e-06
6.49656e-06
6.99403e-06
7.48413e-06
7.96464e-06
8.43347e-06
8.88861e-06
9.32808e-06
9.74988e-06
1.01519e-05
1.05321e-05
1.08884e-05
1.12188e-05
1.15215e-05
1.17947e-05
1.20371e-05
1.22473e-05
1.24242e-05
1.25668e-05
1.26745e-05
1.27466e-05
1.27827e-05
1.27828e-05
1.27468e-05
1.26748e-05
1.25673e-05
1.24248e-05
1.2248e-05
1.2038e-05
1.17957e-05
1.15225e-05
1.122e-05
1.08897e-05
1.05335e-05
1.01533e-05
9.75137e-06
9.32964e-06
8.89021e-06
8.43511e-06
7.9663e-06
7.48581e-06
6.99571e-06
6.49822e-06
5.99568e-06
5.49053e-06
4.98519e-06
4.48196e-06
3.98282e-06
3.48923e-06
3.00193e-06
2.52078e-06
2.04461e-06
1.57116e-06
1.0969e-06
6.17014e-07
1.08298e-09
4.05707e-12
4.0549e-12
1.08242e-09
6.16731e-07
1.09642e-06
1.5705e-06
2.04379e-06
2.5198e-06
3.00081e-06
3.48798e-06
3.98146e-06
4.48051e-06
4.98367e-06
5.48894e-06
5.99405e-06
6.49656e-06
6.99403e-06
7.48413e-06
7.96464e-06
8.43347e-06
8.88861e-06
9.32808e-06
9.74988e-06
1.01519e-05
1.05321e-05
1.08884e-05
1.12188e-05
1.15215e-05
1.17947e-05
1.20371e-05
1.22473e-05
1.24242e-05
1.25668e-05
1.26745e-05
1.27466e-05
1.27827e-05
1.27828e-05
1.27468e-05
1.26748e-05
1.25673e-05
1.24248e-05
1.2248e-05
1.2038e-05
1.17957e-05
1.15225e-05
1.122e-05
1.08897e-05
1.05335e-05
1.01533e-05
9.75137e-06
9.32964e-06
8.89021e-06
8.43511e-06
7.9663e-06
7.48581e-06
6.99571e-06
6.49822e-06
5.99568e-06
5.49053e-06
4.98519e-06
4.48196e-06
3.98282e-06
3.48923e-06
3.00193e-06
2.52078e-06
2.04461e-06
1.57116e-06
1.0969e-06
6.17014e-07
1.08298e-09
4.05707e-12
4.0549e-12
1.08242e-09
6.16731e-07
1.09642e-06
1.5705e-06
2.04379e-06
2.5198e-06
3.00081e-06
3.48798e-06
3.98146e-06
4.48051e-06
4.98367e-06
5.48894e-06
5.99405e-06
6.49656e-06
6.99403e-06
7.48413e-06
7.96464e-06