/*--------------------------------*- C++ -*----------------------------------*\
  =========                 |
  \\      /  F ield         | OpenFOAM: The Open Source CFD Toolbox
   \\    /   O peration     | Website:  https://openfoam.org
    \\  /    A nd           | Version:  13
     \\/     M anipulation  |
\*---------------------------------------------------------------------------*/
FoamFile
{
    format      ascii;
    class       volScalarField;
    location    "185";
    object      nut;
}
// * * * * * * * * * * * * * * * * * * * * * * * * * * * * * * * * * * * * * //

dimensions      [0 2 -1 0 0 0 0];

internalField   nonuniform List<scalar> 
315000
(
1.80598e-16
4.73142e-14
1.0801e-12
1.93981e-12
2.81522e-12
3.70887e-12
4.62373e-12
5.56244e-12
6.52699e-12
7.51849e-12
8.53712e-12
9.58206e-12
1.06515e-11
1.17427e-11
1.28518e-11
1.39745e-11
1.51053e-11
1.62381e-11
1.73665e-11
1.84832e-11
1.95808e-11
2.06515e-11
2.16876e-11
2.2681e-11
2.3624e-11
2.45091e-11
2.5329e-11
2.60768e-11
2.67462e-11
2.73315e-11
2.78276e-11
2.82302e-11
2.85357e-11
2.87416e-11
2.88459e-11
2.88477e-11
2.8747e-11
2.85447e-11
2.82426e-11
2.78433e-11
2.73504e-11
2.67681e-11
2.61015e-11
2.53563e-11
2.45387e-11
2.36557e-11
2.27144e-11
2.17225e-11
2.06876e-11
1.96177e-11
1.85207e-11
1.74042e-11
1.62758e-11
1.51425e-11
1.40111e-11
1.28875e-11
1.17772e-11
1.06846e-11
9.61354e-12
8.56679e-12
7.54616e-12
6.55249e-12
5.58561e-12
4.64438e-12
3.7268e-12
2.83015e-12
1.95132e-12
1.08749e-12
4.76987e-14
1.82201e-16
4.52459e-15
1.20536e-12
2.74672e-10
4.97216e-10
7.22946e-10
9.53052e-10
1.18855e-09
1.43027e-09
1.67876e-09
1.93437e-09
2.19716e-09
2.46692e-09
2.7432e-09
3.02528e-09
3.31219e-09
3.60276e-09
3.89557e-09
4.18907e-09
4.48152e-09
4.77107e-09
5.05575e-09
5.33355e-09
5.60241e-09
5.86027e-09
6.1051e-09
6.33492e-09
6.54783e-09
6.74204e-09
6.91591e-09
7.06794e-09
7.1968e-09
7.30136e-09
7.38071e-09
7.43414e-09
7.46117e-09
7.46157e-09
7.43533e-09
7.38269e-09
7.30411e-09
7.20029e-09
7.07213e-09
6.92078e-09
6.74753e-09
6.55388e-09
6.34148e-09
6.11211e-09
5.86767e-09
5.61012e-09
5.34151e-09
5.06389e-09
4.77931e-09
4.4898e-09
4.19732e-09
3.90371e-09
3.61073e-09
3.31994e-09
3.03274e-09
2.75033e-09
2.47366e-09
2.20346e-09
1.9402e-09
1.68407e-09
1.43501e-09
1.1927e-09
9.56552e-10
7.25749e-10
4.99258e-10
2.75872e-10
1.21097e-12
4.54622e-15
1.82961e-14
4.88123e-12
2.83638e-09
5.14085e-09
7.48254e-09
9.87616e-09
1.23345e-08
1.48681e-08
1.74847e-08
2.01893e-08
2.29834e-08
2.58657e-08
2.88316e-08
3.18732e-08
3.49799e-08
3.81382e-08
4.13321e-08
4.45434e-08
4.77523e-08
5.09372e-08
5.40756e-08
5.7144e-08
6.01187e-08
6.29759e-08
6.56921e-08
6.82446e-08
7.06115e-08
7.27723e-08
7.4708e-08
7.64013e-08
7.78371e-08
7.90025e-08
7.98869e-08
8.04822e-08
8.07831e-08
8.07867e-08
8.0493e-08
7.99048e-08
7.90273e-08
7.78686e-08
7.64391e-08
7.47517e-08
7.28216e-08
7.06659e-08
6.83035e-08
6.57549e-08
6.3042e-08
6.01875e-08
5.72148e-08
5.41479e-08
5.10102e-08
4.78254e-08
4.4616e-08
4.14034e-08
3.82077e-08
3.50471e-08
3.19376e-08
2.88927e-08
2.59231e-08
2.30366e-08
2.0238e-08
1.75287e-08
1.4907e-08
1.2368e-08
9.90405e-09
7.5045e-09
5.15655e-09
2.8454e-09
4.89741e-12
1.83578e-14
3.50087e-14
9.34069e-12
5.42891e-09
9.84727e-09
1.43507e-08
1.89738e-08
2.37469e-08
2.86956e-08
3.384e-08
3.91933e-08
4.47625e-08
5.05469e-08
5.65388e-08
6.27233e-08
6.90785e-08
7.5576e-08
8.21815e-08
8.88553e-08
9.55533e-08
1.02228e-07
1.08829e-07
1.15304e-07
1.21599e-07
1.27662e-07
1.33438e-07
1.38878e-07
1.43931e-07
1.48551e-07
1.52694e-07
1.56323e-07
1.59403e-07
1.61904e-07
1.63802e-07
1.6508e-07
1.65725e-07
1.65732e-07
1.65099e-07
1.63833e-07
1.61946e-07
1.59457e-07
1.56388e-07
1.5277e-07
1.48635e-07
1.44024e-07
1.38979e-07
1.33546e-07
1.27774e-07
1.21716e-07
1.15424e-07
1.08951e-07
1.02351e-07
9.56766e-08
8.89771e-08
8.23009e-08
7.56921e-08
6.91902e-08
6.28298e-08
5.66393e-08
5.06407e-08
4.48491e-08
3.92722e-08
3.39106e-08
2.87577e-08
2.38e-08
1.90177e-08
1.4385e-08
9.8716e-09
5.4428e-09
9.36554e-12
3.51034e-14
5.49082e-14
1.46511e-11
8.51654e-09
1.54562e-08
2.25455e-08
2.98459e-08
3.74124e-08
4.52915e-08
5.35204e-08
6.21253e-08
7.11211e-08
8.05099e-08
9.02817e-08
1.00414e-07
1.10871e-07
1.21607e-07
1.32564e-07
1.43675e-07
1.54867e-07
1.66057e-07
1.77159e-07
1.88084e-07
1.98739e-07
2.0903e-07
2.18862e-07
2.28143e-07
2.36783e-07
2.44697e-07
2.51807e-07
2.58042e-07
2.63339e-07
2.67644e-07
2.70914e-07
2.73116e-07
2.74226e-07
2.74235e-07
2.73142e-07
2.70957e-07
2.67704e-07
2.63414e-07
2.58133e-07
2.51912e-07
2.44815e-07
2.36912e-07
2.28282e-07
2.1901e-07
2.09186e-07
1.98901e-07
1.8825e-07
1.77328e-07
1.66226e-07
1.55036e-07
1.43842e-07
1.32727e-07
1.21765e-07
1.11023e-07
1.00558e-07
9.0418e-08
8.06368e-08
7.12378e-08
6.22313e-08
5.36149e-08
4.53743e-08
3.7483e-08
2.99041e-08
2.25908e-08
1.54882e-08
8.53474e-09
1.46837e-11
5.50326e-14
7.71016e-14
2.0574e-11
1.196e-08
2.17118e-08
3.16872e-08
4.19788e-08
5.26697e-08
6.38311e-08
7.55199e-08
8.77772e-08
1.00627e-07
1.14075e-07
1.28108e-07
1.42694e-07
1.57785e-07
1.73313e-07
1.89194e-07
2.05332e-07
2.21618e-07
2.37934e-07
2.54156e-07
2.7015e-07
2.85779e-07
3.00901e-07
3.15373e-07
3.29053e-07
3.41803e-07
3.53495e-07
3.64008e-07
3.73234e-07
3.81075e-07
3.87452e-07
3.92296e-07
3.95557e-07
3.97202e-07
3.97212e-07
3.95589e-07
3.92348e-07
3.87525e-07
3.81168e-07
3.73345e-07
3.64137e-07
3.53639e-07
3.41962e-07
3.29224e-07
3.15555e-07
3.01092e-07
2.85977e-07
2.70352e-07
2.54361e-07
2.38141e-07
2.21824e-07
2.05536e-07
1.89393e-07
1.73506e-07
1.5797e-07
1.4287e-07
1.28273e-07
1.14229e-07
1.00768e-07
8.79055e-08
7.56344e-08
6.39311e-08
5.27548e-08
4.20486e-08
3.17414e-08
2.17501e-08
1.19817e-08
2.06129e-11
7.72505e-14
1.00227e-13
2.67459e-11
1.55475e-08
2.82277e-08
4.12073e-08
5.46116e-08
6.85529e-08
8.31272e-08
9.84117e-08
1.14462e-07
1.31311e-07
1.48967e-07
1.67414e-07
1.86609e-07
2.06486e-07
2.26956e-07
2.47907e-07
2.69212e-07
2.90725e-07
3.12291e-07
3.33745e-07
3.54913e-07
3.7561e-07
3.95645e-07
4.14828e-07
4.32967e-07
4.49878e-07
4.65388e-07
4.79337e-07
4.91578e-07
5.01984e-07
5.10445e-07
5.16873e-07
5.212e-07
5.23382e-07
5.23394e-07
5.21236e-07
5.16933e-07
5.10528e-07
5.02088e-07
4.91704e-07
4.79482e-07
4.65551e-07
4.50057e-07
4.3316e-07
4.15033e-07
3.95861e-07
3.75833e-07
3.55142e-07
3.33978e-07
3.12525e-07
2.90958e-07
2.69442e-07
2.48133e-07
2.27174e-07
2.06696e-07
1.86808e-07
1.67602e-07
1.49142e-07
1.31472e-07
1.14607e-07
9.85411e-08
8.32401e-08
6.86488e-08
5.46902e-08
4.12683e-08
2.82707e-08
1.55719e-08
2.67897e-11
1.00395e-13
1.22942e-13
3.28086e-11
1.90707e-08
3.46249e-08
5.0551e-08
6.7006e-08
8.41303e-08
1.02044e-07
1.20843e-07
1.40596e-07
1.61344e-07
1.83097e-07
2.05832e-07
2.29497e-07
2.54007e-07
2.7925e-07
3.05086e-07
3.31355e-07
3.57877e-07
3.84461e-07
4.10903e-07
4.36989e-07
4.6249e-07
4.87172e-07
5.10798e-07
5.33133e-07
5.53952e-07
5.73042e-07
5.90205e-07
6.05264e-07
6.18063e-07
6.28468e-07
6.36371e-07
6.4169e-07
6.44369e-07
6.44382e-07
6.41728e-07
6.36434e-07
6.28556e-07
6.18175e-07
6.05399e-07
5.90361e-07
5.73217e-07
5.54144e-07
5.33341e-07
5.11018e-07
4.87403e-07
4.6273e-07
4.37235e-07
4.11154e-07
3.84713e-07
3.58128e-07
3.31603e-07
3.05329e-07
2.79486e-07
2.54234e-07
2.29712e-07
2.06035e-07
1.83286e-07
1.61518e-07
1.40753e-07
1.20982e-07
1.02166e-07
8.42335e-08
6.70905e-08
5.06164e-08
3.46709e-08
1.90968e-08
3.28556e-11
1.23122e-13
1.44148e-13
3.84687e-11
2.23593e-08
4.05943e-08
5.92674e-08
7.85645e-08
9.86521e-08
1.19672e-07
1.41736e-07
1.64927e-07
1.89289e-07
2.14834e-07
2.41533e-07
2.69322e-07
2.98098e-07
3.27726e-07
3.5804e-07
3.88848e-07
4.1994e-07
4.51089e-07
4.82058e-07
5.12594e-07
5.42433e-07
5.713e-07
5.98919e-07
6.25018e-07
6.49334e-07
6.71622e-07
6.91654e-07
7.09223e-07
7.2415e-07
7.36283e-07
7.45496e-07
7.51695e-07
7.54817e-07
7.54831e-07
7.51735e-07
7.45562e-07
7.36374e-07
7.24266e-07
7.09362e-07
6.91815e-07
6.71803e-07
6.49534e-07
6.25233e-07
5.99148e-07
5.7154e-07
5.42682e-07
5.1285e-07
4.82318e-07
4.51351e-07
4.20201e-07
3.89106e-07
3.58293e-07
3.27972e-07
2.98334e-07
2.69546e-07
2.41745e-07
2.15031e-07
1.8947e-07
1.6509e-07
1.41882e-07
1.19798e-07
9.87595e-08
7.86523e-08
5.93352e-08
4.0642e-08
2.23863e-08
3.85174e-11
1.44335e-13
1.63065e-13
4.35184e-11
2.52928e-08
4.59179e-08
6.70389e-08
8.88677e-08
1.11593e-07
1.35376e-07
1.60344e-07
1.86587e-07
2.14158e-07
2.43064e-07
2.73272e-07
3.04707e-07
3.37249e-07
3.70742e-07
4.04994e-07
4.39786e-07
4.7488e-07
5.1002e-07
5.44937e-07
5.79347e-07
6.12953e-07
6.45448e-07
6.76523e-07
7.05874e-07
7.33208e-07
7.58251e-07
7.80749e-07
8.00476e-07
8.17232e-07
8.30846e-07
8.41183e-07
8.48137e-07
8.51638e-07
8.51651e-07
8.48177e-07
8.4125e-07
8.30939e-07
8.17349e-07
8.00617e-07
7.80912e-07
7.58434e-07
7.3341e-07
7.06092e-07
6.76755e-07
6.45692e-07
6.13206e-07
5.79607e-07
5.45201e-07
5.10286e-07
4.75146e-07
4.40049e-07
4.05251e-07
3.70992e-07
3.3749e-07
3.04936e-07
2.73488e-07
2.43265e-07
2.14342e-07
1.86754e-07
1.60492e-07
1.35505e-07
1.11702e-07
8.89567e-08
6.71077e-08
4.59662e-08
2.53201e-08
4.35678e-11
1.63255e-13
1.79245e-13
4.78378e-11
2.78017e-08
5.04703e-08
7.36835e-08
9.76753e-08
1.22654e-07
1.48796e-07
1.76242e-07
2.0509e-07
2.35395e-07
2.67165e-07
3.00361e-07
3.34896e-07
3.70636e-07
4.07407e-07
4.44994e-07
4.83157e-07
5.2163e-07
5.60134e-07
5.98373e-07
6.36039e-07
6.72806e-07
7.0834e-07
7.42307e-07
7.74374e-07
8.04227e-07
8.31567e-07
8.56122e-07
8.77645e-07
8.95921e-07
9.10769e-07
9.22038e-07
9.29619e-07
9.33435e-07
9.33448e-07
9.29659e-07
9.22105e-07
9.10861e-07
8.96039e-07
8.77786e-07
8.56285e-07
8.3175e-07
8.04429e-07
7.74592e-07
7.42539e-07
7.08584e-07
6.73059e-07
6.36299e-07
5.98638e-07
5.604e-07
5.21896e-07
4.8342e-07
4.45252e-07
4.07657e-07
3.70877e-07
3.35125e-07
3.00577e-07
2.67366e-07
2.3558e-07
2.05257e-07
1.7639e-07
1.48925e-07
1.22763e-07
9.77641e-08
7.37519e-08
5.05182e-08
2.78288e-08
4.7887e-11
1.79435e-13
1.92539e-13
5.13873e-11
2.98633e-08
5.42105e-08
7.91422e-08
1.04911e-07
1.3174e-07
1.5982e-07
1.893e-07
2.20286e-07
2.52835e-07
2.86954e-07
3.22599e-07
3.59674e-07
3.98033e-07
4.37484e-07
4.77797e-07
5.1871e-07
5.59939e-07
6.01182e-07
6.42124e-07
6.82435e-07
7.21767e-07
7.59766e-07
7.96074e-07
8.30341e-07
8.6223e-07
8.91427e-07
9.17642e-07
9.40615e-07
9.60119e-07
9.7596e-07
9.87982e-07
9.96068e-07
1.00014e-06
1.00015e-06
9.96108e-07
9.88048e-07
9.76051e-07
9.60234e-07
9.40754e-07
9.17803e-07
8.91608e-07
8.6243e-07
8.30557e-07
7.96304e-07
7.60007e-07
7.22018e-07
6.82692e-07
6.42386e-07
6.01446e-07
5.60202e-07
5.18971e-07
4.78053e-07
4.37733e-07
3.98272e-07
3.59902e-07
3.22814e-07
2.87154e-07
2.53018e-07
2.20451e-07
1.89447e-07
1.59947e-07
1.31848e-07
1.04998e-07
7.92097e-08
5.42577e-08
2.989e-08
5.14358e-11
1.92726e-13
2.03049e-13
5.41936e-11
3.14932e-08
5.71674e-08
8.34577e-08
1.10631e-07
1.38923e-07
1.68535e-07
1.99624e-07
2.32301e-07
2.66625e-07
3.02602e-07
3.40183e-07
3.79265e-07
4.19692e-07
4.6126e-07
5.03724e-07
5.46806e-07
5.90205e-07
6.33605e-07
6.76674e-07
7.19064e-07
7.60411e-07
8.00345e-07
8.3849e-07
8.74481e-07
9.07967e-07
9.38618e-07
9.66133e-07
9.9024e-07
1.0107e-06
1.02732e-06
1.03993e-06
1.04841e-06
1.05268e-06
1.05269e-06
1.04845e-06
1.04e-06
1.02741e-06
1.01082e-06
9.90377e-07
9.66291e-07
9.38796e-07
9.08163e-07
8.74694e-07
8.38717e-07
8.00583e-07
7.60658e-07
7.19317e-07
6.76932e-07
6.33866e-07
5.90465e-07
5.47063e-07
5.03977e-07
4.61506e-07
4.19928e-07
3.7949e-07
3.40395e-07
3.02799e-07
2.66806e-07
2.32464e-07
1.99769e-07
1.68661e-07
1.39029e-07
1.10717e-07
8.35238e-08
5.72136e-08
3.15193e-08
5.42412e-11
2.03232e-13
2.11051e-13
5.6331e-11
3.27347e-08
5.94196e-08
8.67448e-08
1.14988e-07
1.44396e-07
1.75176e-07
2.07492e-07
2.41459e-07
2.77137e-07
3.14531e-07
3.53589e-07
3.94203e-07
4.36209e-07
4.79392e-07
5.23495e-07
5.6823e-07
6.13283e-07
6.58326e-07
7.03013e-07
7.46985e-07
7.89865e-07
8.31269e-07
8.70811e-07
9.08112e-07
9.42809e-07
9.74565e-07
1.00307e-06
1.02804e-06
1.04923e-06
1.06644e-06
1.07949e-06
1.08827e-06
1.09269e-06
1.0927e-06
1.08831e-06
1.07956e-06
1.06652e-06
1.04934e-06
1.02817e-06
1.00322e-06
9.7474e-07
9.43003e-07
9.08321e-07
8.71034e-07
8.31504e-07
7.90109e-07
7.47235e-07
7.03268e-07
6.58582e-07
6.13539e-07
5.68483e-07
5.23744e-07
4.79633e-07
4.36441e-07
3.94425e-07
3.53798e-07
3.14725e-07
2.77315e-07
2.41619e-07
2.07634e-07
1.75299e-07
1.44499e-07
1.15072e-07
8.68096e-08
5.94649e-08
3.27602e-08
5.63776e-11
2.11231e-13
2.16929e-13
5.7901e-11
3.36467e-08
6.10742e-08
8.91598e-08
1.1819e-07
1.48417e-07
1.80057e-07
2.13277e-07
2.48193e-07
2.84869e-07
3.23308e-07
3.63456e-07
4.05199e-07
4.48368e-07
4.92742e-07
5.38054e-07
5.84008e-07
6.30281e-07
6.76534e-07
7.22414e-07
7.67551e-07
8.11561e-07
8.54048e-07
8.94618e-07
9.32883e-07
9.68473e-07
1.00104e-06
1.03027e-06
1.05587e-06
1.0776e-06
1.09524e-06
1.10863e-06
1.11763e-06
1.12216e-06
1.12217e-06
1.11767e-06
1.10869e-06
1.09533e-06
1.07771e-06
1.056e-06
1.03042e-06
1.00121e-06
9.68664e-07
9.33089e-07
8.94838e-07
8.54279e-07
8.11801e-07
7.67798e-07
7.22665e-07
6.76787e-07
6.30533e-07
5.84258e-07
5.383e-07
4.9298e-07
4.48598e-07
4.05418e-07
3.63662e-07
3.23499e-07
2.85044e-07
2.48352e-07
2.13417e-07
1.80178e-07
1.4852e-07
1.18273e-07
8.92235e-08
6.11186e-08
3.36718e-08
5.79468e-11
2.17106e-13
2.21097e-13
5.90146e-11
3.42937e-08
6.2248e-08
9.08733e-08
1.20462e-07
1.51272e-07
1.83523e-07
2.17385e-07
2.52978e-07
2.90364e-07
3.29547e-07
3.70471e-07
4.1302e-07
4.5702e-07
5.02243e-07
5.48418e-07
5.95242e-07
6.42385e-07
6.89502e-07
7.36233e-07
7.82202e-07
8.27017e-07
8.70278e-07
9.11581e-07
9.50534e-07
9.86761e-07
1.01991e-06
1.04966e-06
1.07571e-06
1.09782e-06
1.11577e-06
1.12939e-06
1.13855e-06
1.14316e-06
1.14317e-06
1.13859e-06
1.12946e-06
1.11586e-06
1.09793e-06
1.07584e-06
1.04981e-06
1.02008e-06
9.8695e-07
9.50738e-07
9.11798e-07
8.70506e-07
8.27255e-07
7.82446e-07
7.36481e-07
6.89752e-07
6.42634e-07
5.95489e-07
5.48661e-07
5.02478e-07
4.57247e-07
4.13237e-07
3.70675e-07
3.29736e-07
2.90537e-07
2.53134e-07
2.17523e-07
1.83643e-07
1.51373e-07
1.20544e-07
9.0936e-08
6.22916e-08
3.43183e-08
5.90597e-11
2.21271e-13
2.23953e-13
5.97781e-11
3.47373e-08
6.30529e-08
9.20486e-08
1.22021e-07
1.53231e-07
1.85902e-07
2.20206e-07
2.56264e-07
2.9414e-07
3.33837e-07
3.75297e-07
4.18401e-07
4.62974e-07
5.08784e-07
5.55555e-07
6.0298e-07
6.50725e-07
6.9844e-07
7.4576e-07
7.92304e-07
8.37677e-07
8.81472e-07
9.23283e-07
9.62713e-07
9.9938e-07
1.03293e-06
1.06303e-06
1.0894e-06
1.11178e-06
1.12994e-06
1.14373e-06
1.15299e-06
1.15766e-06
1.15767e-06
1.15303e-06
1.14379e-06
1.13003e-06
1.11189e-06
1.08953e-06
1.06319e-06
1.0331e-06
9.99567e-07
9.62915e-07
9.23498e-07
8.81698e-07
8.37912e-07
7.92546e-07
7.46006e-07
6.98687e-07
6.50972e-07
6.03225e-07
5.55796e-07
5.09018e-07
4.63199e-07
4.18616e-07
3.75498e-07
3.34024e-07
2.94312e-07
2.56419e-07
2.20343e-07
1.86021e-07
1.53331e-07
1.22101e-07
9.21106e-08
6.30961e-08
3.47616e-08
5.98226e-11
2.24126e-13
2.25848e-13
6.02846e-11
3.50316e-08
6.35871e-08
9.28287e-08
1.23056e-07
1.54532e-07
1.87483e-07
2.22081e-07
2.5845e-07
2.96652e-07
3.36692e-07
3.78509e-07
4.21986e-07
4.66942e-07
5.13145e-07
5.60316e-07
6.08143e-07
6.56291e-07
7.04406e-07
7.52121e-07
7.99052e-07
8.44798e-07
8.88952e-07
9.31104e-07
9.70854e-07
1.00782e-06
1.04164e-06
1.07198e-06
1.09856e-06
1.12111e-06
1.13942e-06
1.15332e-06
1.16266e-06
1.16736e-06
1.16737e-06
1.16269e-06
1.15338e-06
1.13951e-06
1.12122e-06
1.09869e-06
1.07213e-06
1.0418e-06
1.008e-06
9.71055e-07
9.31318e-07
8.89177e-07
8.45032e-07
7.99292e-07
7.52366e-07
7.04653e-07
6.56537e-07
6.08387e-07
5.60555e-07
5.13377e-07
4.67166e-07
4.22199e-07
3.7871e-07
3.36878e-07
2.96823e-07
2.58604e-07
2.22218e-07
1.87601e-07
1.54632e-07
1.23136e-07
9.28902e-08
6.36299e-08
3.50558e-08
6.03288e-11
2.2602e-13
2.27066e-13
6.06101e-11
3.52208e-08
6.39305e-08
9.33304e-08
1.23721e-07
1.5537e-07
1.885e-07
2.23289e-07
2.59858e-07
2.98272e-07
3.38533e-07
3.80583e-07
4.243e-07
4.69505e-07
5.15962e-07
5.63393e-07
6.11482e-07
6.59892e-07
7.08268e-07
7.5624e-07
8.03421e-07
8.49411e-07
8.93799e-07
9.36173e-07
9.76131e-07
1.01329e-06
1.04728e-06
1.07779e-06
1.1045e-06
1.12717e-06
1.14558e-06
1.15954e-06
1.16893e-06
1.17365e-06
1.17366e-06
1.16896e-06
1.1596e-06
1.14566e-06
1.12728e-06
1.10463e-06
1.07793e-06
1.04745e-06
1.01347e-06
9.76331e-07
9.36387e-07
8.94023e-07
8.49644e-07
8.03661e-07
7.56483e-07
7.08513e-07
6.60137e-07
6.11725e-07
5.63631e-07
5.16194e-07
4.69728e-07
4.24512e-07
3.80782e-07
3.38719e-07
2.98442e-07
2.60012e-07
2.23425e-07
1.88618e-07
1.55468e-07
1.23801e-07
9.33916e-08
6.39731e-08
3.52448e-08
6.06541e-11
2.27236e-13
2.27824e-13
6.0813e-11
3.53388e-08
6.41446e-08
9.36432e-08
1.24136e-07
1.55892e-07
1.89135e-07
2.24043e-07
2.60738e-07
2.99284e-07
3.39685e-07
3.8188e-07
4.25749e-07
4.71111e-07
5.17729e-07
5.65323e-07
6.13577e-07
6.62152e-07
7.10693e-07
7.58827e-07
8.06167e-07
8.52311e-07
8.96847e-07
9.39362e-07
9.79451e-07
1.01673e-06
1.05084e-06
1.08144e-06
1.10824e-06
1.13098e-06
1.14945e-06
1.16346e-06
1.17287e-06
1.17761e-06
1.17762e-06
1.17291e-06
1.16352e-06
1.14953e-06
1.13109e-06
1.10837e-06
1.08159e-06
1.051e-06
1.01691e-06
9.79651e-07
9.39574e-07
8.97071e-07
8.52544e-07
8.06406e-07
7.5907e-07
7.10938e-07
6.62397e-07
6.13819e-07
5.6556e-07
5.1796e-07
4.71333e-07
4.25961e-07
3.82079e-07
3.3987e-07
2.99454e-07
2.60891e-07
2.24179e-07
1.89252e-07
1.5599e-07
1.24216e-07
9.37042e-08
6.41871e-08
3.53627e-08
6.08568e-11
2.27994e-13
2.28283e-13
6.09357e-11
3.54101e-08
6.42742e-08
9.38325e-08
1.24388e-07
1.56208e-07
1.8952e-07
2.245e-07
2.61272e-07
2.99899e-07
3.40384e-07
3.82668e-07
4.2663e-07
4.72087e-07
5.18804e-07
5.66498e-07
6.14853e-07
6.6353e-07
7.12171e-07
7.60405e-07
8.07843e-07
8.54081e-07
8.98708e-07
9.41309e-07
9.8148e-07
1.01883e-06
1.05301e-06
1.08367e-06
1.11053e-06
1.13332e-06
1.15182e-06
1.16585e-06
1.17529e-06
1.18004e-06
1.18005e-06
1.17533e-06
1.16591e-06
1.1519e-06
1.13342e-06
1.11066e-06
1.08382e-06
1.05318e-06
1.01902e-06
9.81679e-07
9.41521e-07
8.98931e-07
8.54313e-07
8.08081e-07
7.60647e-07
7.12416e-07
6.63774e-07
6.15095e-07
5.66735e-07
5.19035e-07
4.7231e-07
4.26842e-07
3.82868e-07
3.40569e-07
3.00068e-07
2.61425e-07
2.24636e-07
1.89637e-07
1.56307e-07
1.24467e-07
9.38934e-08
6.43165e-08
3.5434e-08
6.09794e-11
2.28452e-13
2.28552e-13
6.10077e-11
3.5452e-08
6.43503e-08
9.39438e-08
1.24536e-07
1.56395e-07
1.89747e-07
2.2477e-07
2.61586e-07
3.00261e-07
3.40797e-07
3.83134e-07
4.27151e-07
4.72665e-07
5.1944e-07
5.67193e-07
6.15609e-07
6.64346e-07
7.13047e-07
7.61341e-07
8.08837e-07
8.55132e-07
8.99812e-07
9.42465e-07
9.82684e-07
1.02008e-06
1.0543e-06
1.085e-06
1.11189e-06
1.1347e-06
1.15322e-06
1.16728e-06
1.17672e-06
1.18148e-06
1.18149e-06
1.17676e-06
1.16734e-06
1.15331e-06
1.13481e-06
1.11201e-06
1.08515e-06
1.05447e-06
1.02027e-06
9.82883e-07
9.42677e-07
9.00036e-07
8.55363e-07
8.09075e-07
7.61583e-07
7.13292e-07
6.6459e-07
6.1585e-07
5.6743e-07
5.1967e-07
4.72887e-07
4.27362e-07
3.83333e-07
3.40982e-07
3.0043e-07
2.61739e-07
2.24905e-07
1.89864e-07
1.56493e-07
1.24615e-07
9.40046e-08
6.43926e-08
3.54759e-08
6.10514e-11
2.28722e-13
2.28706e-13
6.10489e-11
3.5476e-08
6.43938e-08
9.40074e-08
1.2462e-07
1.56501e-07
1.89876e-07
2.24924e-07
2.61767e-07
3.00469e-07
3.41033e-07
3.83401e-07
4.27449e-07
4.72996e-07
5.19805e-07
5.67593e-07
6.16044e-07
6.64816e-07
7.13552e-07
7.6188e-07
8.0941e-07
8.55737e-07
9.0045e-07
9.43132e-07
9.8338e-07
1.0208e-06
1.05504e-06
1.08577e-06
1.11267e-06
1.1355e-06
1.15404e-06
1.1681e-06
1.17756e-06
1.18231e-06
1.18232e-06
1.17759e-06
1.16816e-06
1.15412e-06
1.13561e-06
1.1128e-06
1.08591e-06
1.05521e-06
1.02099e-06
9.83579e-07
9.43344e-07
9.00673e-07
8.55969e-07
8.09648e-07
7.62122e-07
7.13796e-07
6.6506e-07
6.16285e-07
5.6783e-07
5.20036e-07
4.73218e-07
4.27661e-07
3.836e-07
3.41218e-07
3.00638e-07
2.61919e-07
2.25059e-07
1.89993e-07
1.56599e-07
1.247e-07
9.40682e-08
6.44361e-08
3.54998e-08
6.10926e-11
2.28875e-13
2.28791e-13
6.10718e-11
3.54893e-08
6.4418e-08
9.40427e-08
1.24667e-07
1.5656e-07
1.89949e-07
2.2501e-07
2.61867e-07
3.00585e-07
3.41165e-07
3.8355e-07
4.27617e-07
4.73182e-07
5.2001e-07
5.67817e-07
6.16287e-07
6.65079e-07
7.13835e-07
7.62182e-07
8.09731e-07
8.56078e-07
9.00808e-07
9.43507e-07
9.83771e-07
1.02121e-06
1.05546e-06
1.0862e-06
1.11311e-06
1.13595e-06
1.1545e-06
1.16856e-06
1.17802e-06
1.18278e-06
1.18279e-06
1.17806e-06
1.16863e-06
1.15458e-06
1.13606e-06
1.11324e-06
1.08635e-06
1.05563e-06
1.02139e-06
9.8397e-07
9.43719e-07
9.01031e-07
8.56309e-07
8.09969e-07
7.62425e-07
7.14079e-07
6.65323e-07
6.16529e-07
5.68054e-07
5.2024e-07
4.73404e-07
4.27828e-07
3.83749e-07
3.4135e-07
3.00754e-07
2.6202e-07
2.25145e-07
1.90065e-07
1.56658e-07
1.24747e-07
9.41035e-08
6.44603e-08
3.55131e-08
6.11154e-11
2.28961e-13
2.28838e-13
6.10841e-11
3.54965e-08
6.4431e-08
9.40619e-08
1.24693e-07
1.56592e-07
1.89988e-07
2.25056e-07
2.61922e-07
3.00647e-07
3.41237e-07
3.83631e-07
4.27707e-07
4.73283e-07
5.20121e-07
5.67939e-07
6.1642e-07
6.65223e-07
7.1399e-07
7.62348e-07
8.09907e-07
8.56264e-07
9.01004e-07
9.43713e-07
9.83985e-07
1.02143e-06
1.05569e-06
1.08643e-06
1.11336e-06
1.1362e-06
1.15475e-06
1.16882e-06
1.17828e-06
1.18304e-06
1.18305e-06
1.17832e-06
1.16888e-06
1.15483e-06
1.13631e-06
1.11348e-06
1.08658e-06
1.05586e-06
1.02162e-06
9.84184e-07
9.43925e-07
9.01227e-07
8.56495e-07
8.10145e-07
7.6259e-07
7.14234e-07
6.65467e-07
6.16662e-07
5.68176e-07
5.20352e-07
4.73505e-07
4.27919e-07
3.8383e-07
3.41422e-07
3.00817e-07
2.62074e-07
2.25191e-07
1.90105e-07
1.56691e-07
1.24772e-07
9.41227e-08
6.44733e-08
3.55203e-08
6.11278e-11
2.29007e-13
2.28862e-13
6.10906e-11
3.55003e-08
6.44379e-08
9.4072e-08
1.24706e-07
1.56609e-07
1.90008e-07
2.25081e-07
2.6195e-07
3.00681e-07
3.41275e-07
3.83674e-07
4.27756e-07
4.73337e-07
5.2018e-07
5.68004e-07
6.16491e-07
6.65299e-07
7.14072e-07
7.62436e-07
8.10001e-07
8.56363e-07
9.01108e-07
9.43822e-07
9.84099e-07
1.02155e-06
1.05582e-06
1.08656e-06
1.11349e-06
1.13633e-06
1.15488e-06
1.16895e-06
1.17842e-06
1.18317e-06
1.18319e-06
1.17845e-06
1.16902e-06
1.15497e-06
1.13644e-06
1.11361e-06
1.08671e-06
1.05598e-06
1.02173e-06
9.84298e-07
9.44034e-07
9.01331e-07
8.56594e-07
8.10239e-07
7.62678e-07
7.14316e-07
6.65543e-07
6.16732e-07
5.68241e-07
5.20411e-07
4.73558e-07
4.27967e-07
3.83873e-07
3.4146e-07
3.0085e-07
2.62103e-07
2.25216e-07
1.90125e-07
1.56707e-07
1.24786e-07
9.41328e-08
6.44802e-08
3.55241e-08
6.11343e-11
2.29031e-13
2.28874e-13
6.1094e-11
3.55022e-08
6.44415e-08
9.40772e-08
1.24713e-07
1.56618e-07
1.90019e-07
2.25094e-07
2.61965e-07
3.00698e-07
3.41295e-07
3.83697e-07
4.27781e-07
4.73364e-07
5.20211e-07
5.68038e-07
6.16527e-07
6.65339e-07
7.14115e-07
7.62481e-07
8.10049e-07
8.56414e-07
9.01162e-07
9.43879e-07
9.84158e-07
1.02161e-06
1.05588e-06
1.08663e-06
1.11355e-06
1.1364e-06
1.15495e-06
1.16903e-06
1.17849e-06
1.18325e-06
1.18326e-06
1.17852e-06
1.16909e-06
1.15504e-06
1.13651e-06
1.11368e-06
1.08677e-06
1.05605e-06
1.0218e-06
9.84357e-07
9.44091e-07
9.01385e-07
8.56646e-07
8.10287e-07
7.62723e-07
7.14359e-07
6.65583e-07
6.16769e-07
5.68275e-07
5.20441e-07
4.73586e-07
4.27992e-07
3.83895e-07
3.4148e-07
3.00867e-07
2.62118e-07
2.25229e-07
1.90136e-07
1.56716e-07
1.24792e-07
9.41379e-08
6.44838e-08
3.55261e-08
6.11377e-11
2.29044e-13
2.28881e-13
6.10957e-11
3.55032e-08
6.44433e-08
9.40798e-08
1.24716e-07
1.56622e-07
1.90024e-07
2.251e-07
2.61973e-07
3.00707e-07
3.41305e-07
3.83708e-07
4.27793e-07
4.73378e-07
5.20226e-07
5.68055e-07
6.16546e-07
6.65359e-07
7.14136e-07
7.62504e-07
8.10074e-07
8.5644e-07
9.0119e-07
9.43908e-07
9.84188e-07
1.02164e-06
1.05591e-06
1.08666e-06
1.11359e-06
1.13644e-06
1.15499e-06
1.16906e-06
1.17852e-06
1.18328e-06
1.1833e-06
1.17856e-06
1.16912e-06
1.15507e-06
1.13654e-06
1.11372e-06
1.08681e-06
1.05608e-06
1.02183e-06
9.84387e-07
9.4412e-07
9.01413e-07
8.56672e-07
8.10312e-07
7.62747e-07
7.1438e-07
6.65603e-07
6.16787e-07
5.68292e-07
5.20457e-07
4.736e-07
4.28004e-07
3.83907e-07
3.4149e-07
3.00876e-07
2.62125e-07
2.25235e-07
1.90141e-07
1.56721e-07
1.24796e-07
9.41405e-08
6.44856e-08
3.5527e-08
6.11393e-11
2.2905e-13
2.28884e-13
6.10965e-11
3.55037e-08
6.44441e-08
9.4081e-08
1.24718e-07
1.56625e-07
1.90027e-07
2.25103e-07
2.61976e-07
3.00711e-07
3.4131e-07
3.83713e-07
4.27799e-07
4.73385e-07
5.20234e-07
5.68063e-07
6.16555e-07
6.65369e-07
7.14147e-07
7.62516e-07
8.10086e-07
8.56453e-07
9.01203e-07
9.43922e-07
9.84203e-07
1.02166e-06
1.05593e-06
1.08667e-06
1.1136e-06
1.13645e-06
1.15501e-06
1.16908e-06
1.17854e-06
1.1833e-06
1.18331e-06
1.17858e-06
1.16914e-06
1.15509e-06
1.13656e-06
1.11373e-06
1.08682e-06
1.05609e-06
1.02184e-06
9.84402e-07
9.44134e-07
9.01426e-07
8.56685e-07
8.10324e-07
7.62758e-07
7.14391e-07
6.65613e-07
6.16796e-07
5.683e-07
5.20464e-07
4.73607e-07
4.2801e-07
3.83912e-07
3.41494e-07
3.0088e-07
2.62129e-07
2.25238e-07
1.90144e-07
1.56723e-07
1.24798e-07
9.41418e-08
6.44864e-08
3.55275e-08
6.11402e-11
2.29053e-13
2.28885e-13
6.10969e-11
3.55039e-08
6.44445e-08
9.40816e-08
1.24719e-07
1.56626e-07
1.90028e-07
2.25105e-07
2.61978e-07
3.00713e-07
3.41312e-07
3.83716e-07
4.27802e-07
4.73388e-07
5.20238e-07
5.68067e-07
6.16559e-07
6.65374e-07
7.14152e-07
7.62521e-07
8.10092e-07
8.56459e-07
9.0121e-07
9.43929e-07
9.8421e-07
1.02167e-06
1.05594e-06
1.08668e-06
1.11361e-06
1.13646e-06
1.15501e-06
1.16909e-06
1.17855e-06
1.18331e-06
1.18332e-06
1.17859e-06
1.16915e-06
1.1551e-06
1.13657e-06
1.11374e-06
1.08683e-06
1.0561e-06
1.02185e-06
9.84409e-07
9.44141e-07
9.01433e-07
8.56691e-07
8.1033e-07
7.62764e-07
7.14396e-07
6.65618e-07
6.16801e-07
5.68304e-07
5.20468e-07
4.7361e-07
4.28013e-07
3.83915e-07
3.41497e-07
3.00882e-07
2.62131e-07
2.2524e-07
1.90145e-07
1.56724e-07
1.24798e-07
9.41424e-08
6.44868e-08
3.55277e-08
6.11405e-11
2.29054e-13
2.28886e-13
6.10971e-11
3.5504e-08
6.44447e-08
9.40819e-08
1.24719e-07
1.56626e-07
1.90029e-07
2.25105e-07
2.61979e-07
3.00714e-07
3.41313e-07
3.83717e-07
4.27804e-07
4.7339e-07
5.20239e-07
5.68069e-07
6.16561e-07
6.65376e-07
7.14155e-07
7.62524e-07
8.10095e-07
8.56462e-07
9.01213e-07
9.43932e-07
9.84214e-07
1.02167e-06
1.05594e-06
1.08669e-06
1.11362e-06
1.13647e-06
1.15502e-06
1.16909e-06
1.17855e-06
1.18331e-06
1.18333e-06
1.17859e-06
1.16915e-06
1.1551e-06
1.13657e-06
1.11374e-06
1.08684e-06
1.05611e-06
1.02185e-06
9.84413e-07
9.44144e-07
9.01436e-07
8.56694e-07
8.10333e-07
7.62766e-07
7.14399e-07
6.6562e-07
6.16803e-07
5.68306e-07
5.2047e-07
4.73612e-07
4.28015e-07
3.83916e-07
3.41498e-07
3.00883e-07
2.62131e-07
2.2524e-07
1.90146e-07
1.56724e-07
1.24799e-07
9.41427e-08
6.4487e-08
3.55279e-08
6.11407e-11
2.29055e-13
2.28886e-13
6.10971e-11
3.55041e-08
6.44448e-08
9.40821e-08
1.2472e-07
1.56626e-07
1.90029e-07
2.25106e-07
2.61979e-07
3.00714e-07
3.41314e-07
3.83718e-07
4.27804e-07
4.73391e-07
5.2024e-07
5.6807e-07
6.16562e-07
6.65377e-07
7.14156e-07
7.62525e-07
8.10096e-07
8.56464e-07
9.01215e-07
9.43934e-07
9.84215e-07
1.02167e-06
1.05594e-06
1.08669e-06
1.11362e-06
1.13647e-06
1.15502e-06
1.16909e-06
1.17856e-06
1.18332e-06
1.18333e-06
1.17859e-06
1.16915e-06
1.1551e-06
1.13657e-06
1.11375e-06
1.08684e-06
1.05611e-06
1.02186e-06
9.84414e-07
9.44146e-07
9.01438e-07
8.56695e-07
8.10334e-07
7.62767e-07
7.144e-07
6.65621e-07
6.16804e-07
5.68307e-07
5.20471e-07
4.73613e-07
4.28015e-07
3.83917e-07
3.41498e-07
3.00883e-07
2.62132e-07
2.25241e-07
1.90146e-07
1.56724e-07
1.24799e-07
9.41428e-08
6.44871e-08
3.55279e-08
6.11408e-11
2.29055e-13
2.28886e-13
6.10972e-11
3.55041e-08
6.44449e-08
9.40821e-08
1.2472e-07
1.56626e-07
1.90029e-07
2.25106e-07
2.61979e-07
3.00714e-07
3.41314e-07
3.83718e-07
4.27805e-07
4.73391e-07
5.2024e-07
5.6807e-07
6.16563e-07
6.65378e-07
7.14156e-07
7.62526e-07
8.10097e-07
8.56464e-07
9.01215e-07
9.43934e-07
9.84216e-07
1.02167e-06
1.05594e-06
1.08669e-06
1.11362e-06
1.13647e-06
1.15502e-06
1.16909e-06
1.17856e-06
1.18332e-06
1.18333e-06
1.17859e-06
1.16916e-06
1.1551e-06
1.13658e-06
1.11375e-06
1.08684e-06
1.05611e-06
1.02186e-06
9.84415e-07
9.44146e-07
9.01438e-07
8.56696e-07
8.10335e-07
7.62768e-07
7.144e-07
6.65621e-07
6.16804e-07
5.68307e-07
5.20471e-07
4.73613e-07
4.28016e-07
3.83917e-07
3.41499e-07
3.00884e-07
2.62132e-07
2.25241e-07
1.90146e-07
1.56725e-07
1.24799e-07
9.41429e-08
6.44872e-08
3.55279e-08
6.11408e-11
2.29056e-13
2.28886e-13
6.10972e-11
3.55041e-08
6.44449e-08
9.40821e-08
1.2472e-07
1.56626e-07
1.90029e-07
2.25106e-07
2.6198e-07
3.00714e-07
3.41314e-07
3.83718e-07
4.27805e-07
4.73391e-07
5.20241e-07
5.6807e-07
6.16563e-07
6.65378e-07
7.14156e-07
7.62526e-07
8.10097e-07
8.56465e-07
9.01215e-07
9.43935e-07
9.84216e-07
1.02167e-06
1.05594e-06
1.08669e-06
1.11362e-06
1.13647e-06
1.15502e-06
1.16909e-06
1.17856e-06
1.18332e-06
1.18333e-06
1.17859e-06
1.16916e-06
1.1551e-06
1.13658e-06
1.11375e-06
1.08684e-06
1.05611e-06
1.02186e-06
9.84415e-07
9.44147e-07
9.01438e-07
8.56696e-07
8.10335e-07
7.62768e-07
7.14401e-07
6.65622e-07
6.16804e-07
5.68307e-07
5.20471e-07
4.73613e-07
4.28016e-07
3.83917e-07
3.41499e-07
3.00884e-07
2.62132e-07
2.25241e-07
1.90146e-07
1.56725e-07
1.24799e-07
9.41429e-08
6.44872e-08
3.55279e-08
6.11409e-11
2.29056e-13
2.28886e-13
6.10972e-11
3.55041e-08
6.44449e-08
9.40822e-08
1.2472e-07
1.56626e-07
1.90029e-07
2.25106e-07
2.6198e-07
3.00715e-07
3.41314e-07
3.83718e-07
4.27805e-07
4.73391e-07
5.20241e-07
5.6807e-07
6.16563e-07
6.65378e-07
7.14157e-07
7.62526e-07
8.10097e-07
8.56465e-07
9.01216e-07
9.43935e-07
9.84216e-07
1.02167e-06
1.05594e-06
1.08669e-06
1.11362e-06
1.13647e-06
1.15502e-06
1.16909e-06
1.17856e-06
1.18332e-06
1.18333e-06
1.17859e-06
1.16916e-06
1.1551e-06
1.13658e-06
1.11375e-06
1.08684e-06
1.05611e-06
1.02186e-06
9.84416e-07
9.44147e-07
9.01439e-07
8.56696e-07
8.10335e-07
7.62768e-07
7.14401e-07
6.65622e-07
6.16805e-07
5.68307e-07
5.20471e-07
4.73613e-07
4.28016e-07
3.83917e-07
3.41499e-07
3.00884e-07
2.62132e-07
2.25241e-07
1.90146e-07
1.56725e-07
1.24799e-07
9.41429e-08
6.44872e-08
3.55279e-08
6.11409e-11
2.29056e-13
2.28886e-13
6.10972e-11
3.55041e-08
6.44449e-08
9.40822e-08
1.2472e-07
1.56626e-07
1.90029e-07
2.25106e-07
2.6198e-07
3.00715e-07
3.41314e-07
3.83718e-07
4.27805e-07
4.73391e-07
5.20241e-07