/*--------------------------------*- C++ -*----------------------------------*\
  =========                 |
  \\      /  F ield         | OpenFOAM: The Open Source CFD Toolbox
   \\    /   O peration     | Website:  https://openfoam.org
    \\  /    A nd           | Version:  13
     \\/     M anipulation  |
\*---------------------------------------------------------------------------*/
FoamFile
{
    format      ascii;
    class       volScalarField;
    location    "18";
    object      k;
}
// * * * * * * * * * * * * * * * * * * * * * * * * * * * * * * * * * * * * * //

dimensions      [0 2 -2 0 0 0 0];

internalField   nonuniform List<scalar> 
78750
(
9.05285e-13
2.58326e-11
1.17424e-10
2.13663e-10
3.16115e-10
4.2588e-10
5.43234e-10
6.67439e-10
7.96729e-10
9.28402e-10
1.05899e-09
1.18449e-09
1.30064e-09
1.40316e-09
1.48808e-09
1.55198e-09
1.5922e-09
1.60703e-09
1.59585e-09
1.55911e-09
1.49836e-09
1.41613e-09
1.31571e-09
1.20103e-09
1.07631e-09
9.45835e-10
8.13649e-10
6.83295e-10
5.57569e-10
4.38333e-10
3.26395e-10
2.2149e-10
1.22385e-10
2.71197e-11
9.53982e-13
1.98678e-11
5.75862e-10
2.882e-09
5.28448e-09
7.84182e-09
1.0591e-08
1.35429e-08
1.66801e-08
1.99577e-08
2.33055e-08
2.66336e-08
2.98378e-08
3.2807e-08
3.54298e-08
3.76025e-08
3.92356e-08
4.02598e-08
4.0631e-08
4.03327e-08
3.93779e-08
3.78074e-08
3.56876e-08
3.31057e-08
3.01641e-08
2.69734e-08
2.3645e-08
2.02839e-08
1.69818e-08
1.38106e-08
1.08175e-08
8.0219e-09
5.41405e-09
2.95717e-09
5.91746e-10
2.04266e-11
5.8313e-11
1.69051e-09
8.4797e-09
1.56544e-08
2.34637e-08
3.20796e-08
4.15786e-08
5.193e-08
6.29935e-08
7.45253e-08
8.61942e-08
9.76031e-08
1.08314e-07
1.17877e-07
1.25862e-07
1.31892e-07
1.35677e-07
1.37027e-07
1.35875e-07
1.3228e-07
1.26417e-07
1.18573e-07
1.09117e-07
9.8474e-08
8.7094e-08
7.54158e-08
6.38399e-08
5.27028e-08
4.22546e-08
3.26426e-08
2.39035e-08
1.59653e-08
8.65702e-09
1.72757e-09
5.96123e-11
1.15666e-10
3.35423e-09
1.68436e-08
3.11894e-08
4.69583e-08
6.45547e-08
8.41802e-08
1.05806e-07
1.29161e-07
1.53745e-07
1.78853e-07
2.03622e-07
2.27067e-07
2.48144e-07
2.65837e-07
2.79245e-07
2.87662e-07
2.90633e-07
2.87998e-07
2.799e-07
2.66777e-07
2.49321e-07
2.28422e-07
2.0509e-07
1.80368e-07
1.55243e-07
1.30583e-07
1.07101e-07
8.53091e-08
6.54902e-08
4.76845e-08
3.16989e-08
1.71319e-08
3.41425e-09
1.17767e-10
1.78613e-10
5.18188e-09
2.60367e-08
4.82707e-08
7.28062e-08
1.00306e-07
1.31109e-07
1.65186e-07
2.02116e-07
2.41106e-07
2.81039e-07
3.20539e-07
3.58014e-07
3.9176e-07
4.20117e-07
4.41611e-07
4.5509e-07
4.59815e-07
4.55525e-07
4.42458e-07
4.21333e-07
3.93285e-07
3.59772e-07
3.22448e-07
2.83013e-07
2.43062e-07
2.03977e-07
1.66885e-07
1.32592e-07
1.01534e-07
7.37571e-08
4.89354e-08
2.64112e-08
5.25969e-09
1.81334e-10
2.34172e-10
6.79692e-09
3.41652e-08
6.33749e-08
9.56639e-08
1.31922e-07
1.72606e-07
2.17676e-07
2.66572e-07
3.1823e-07
3.71162e-07
4.2354e-07
4.73241e-07
5.17989e-07
5.55573e-07
5.84041e-07
6.01871e-07
6.08091e-07
6.02362e-07
5.84998e-07
5.56949e-07
5.19716e-07
4.75235e-07
4.25709e-07
3.7341e-07
3.20462e-07
2.68702e-07
2.19626e-07
1.7431e-07
1.33334e-07
9.67559e-08
6.41362e-08
3.45927e-08
6.88567e-09
2.37274e-10
2.75535e-10
8.00091e-09
4.02296e-08
7.46445e-08
1.1272e-07
1.55515e-07
2.03569e-07
2.56833e-07
3.14632e-07
3.75698e-07
4.38261e-07
5.00156e-07
5.58867e-07
6.11701e-07
6.56049e-07
6.89616e-07
7.1062e-07
7.17925e-07
7.11137e-07
6.90625e-07
6.575e-07
6.13524e-07
5.60975e-07
5.02451e-07
4.40643e-07
3.78068e-07
3.16898e-07
2.5891e-07
2.05387e-07
1.57021e-07
1.13884e-07
7.54545e-08
4.06833e-08
8.09507e-09
2.78825e-10
3.02182e-10
8.77776e-09
4.4146e-08
8.19233e-08
1.23737e-07
1.70755e-07
2.23572e-07
2.82125e-07
3.45669e-07
4.12795e-07
4.81553e-07
5.49558e-07
6.14044e-07
6.72051e-07
7.20718e-07
7.57537e-07
7.80561e-07
7.88555e-07
7.81088e-07
7.58566e-07
7.22198e-07
6.7391e-07
6.16194e-07
5.51901e-07
4.83986e-07
4.1522e-07
3.47989e-07
2.84255e-07
2.25437e-07
1.72301e-07
1.24931e-07
8.27526e-08
4.46097e-08
8.87395e-09
3.05544e-10
3.173e-10
9.21921e-09
4.63739e-08
8.60645e-08
1.30006e-07
1.79429e-07
2.34956e-07
2.9652e-07
3.63331e-07
4.33903e-07
5.06178e-07
5.7765e-07
6.4541e-07
7.06347e-07
7.57457e-07
7.96114e-07
8.20278e-07
8.28659e-07
8.20807e-07
7.97147e-07
7.58944e-07
7.08215e-07
6.47572e-07
5.80006e-07
5.08626e-07
4.36343e-07
3.65668e-07
2.98667e-07
2.36835e-07
1.80987e-07
1.31209e-07
8.68992e-08
4.684e-08
9.3159e-09
3.20679e-10
3.24959e-10
9.44325e-09
4.75058e-08
8.8169e-08
1.33193e-07
1.83838e-07
2.40743e-07
3.0384e-07
3.72312e-07
4.44635e-07
5.18699e-07
5.91932e-07
6.61354e-07
7.23778e-07
7.76128e-07
8.15716e-07
8.40458e-07
8.49035e-07
8.40988e-07
8.16749e-07
7.77614e-07
7.25646e-07
6.63516e-07
5.94289e-07
5.21148e-07
4.47077e-07
3.74652e-07
3.05988e-07
2.42626e-07
1.85398e-07
1.34397e-07
8.90041e-08
4.79719e-08
9.53993e-09
3.28338e-10
3.28466e-10
9.54599e-09
4.80255e-08
8.91354e-08
1.34656e-07
1.85863e-07
2.43402e-07
3.07203e-07
3.7644e-07
4.49568e-07
5.24454e-07
5.98497e-07
6.68683e-07
7.31791e-07
7.84711e-07
8.24727e-07
8.49735e-07
8.58401e-07
8.50263e-07
8.25759e-07
7.86196e-07
7.33657e-07
6.70844e-07
6.00853e-07
5.26902e-07
4.52009e-07
3.78778e-07
3.09351e-07
2.45284e-07
1.87422e-07
1.35859e-07
8.99698e-08
4.84911e-08
9.64256e-09
3.3184e-10
3.2993e-10
9.58897e-09
4.82432e-08
8.95403e-08
1.35269e-07
1.86712e-07
2.44517e-07
3.08614e-07
3.78171e-07
4.51638e-07
5.26869e-07
6.01252e-07
6.71759e-07
7.35154e-07
7.88313e-07
8.28509e-07
8.53628e-07
8.62333e-07
8.54157e-07
8.2954e-07
7.89797e-07
7.37019e-07
6.73919e-07
6.03607e-07
5.29316e-07
4.54077e-07
3.80508e-07
3.10761e-07
2.46399e-07
1.88271e-07
1.36472e-07
9.03742e-08
4.87084e-08
9.68548e-09
3.33302e-10
3.30492e-10
9.60552e-09
4.83271e-08
8.96963e-08
1.35506e-07
1.87039e-07
2.44947e-07
3.09158e-07
3.78839e-07
4.52437e-07
5.27801e-07
6.02316e-07
6.72947e-07
7.36452e-07
7.89704e-07
8.2997e-07
8.55132e-07
8.63851e-07
8.55661e-07
8.31001e-07
7.91188e-07
7.38318e-07
6.75106e-07
6.0467e-07
5.30247e-07
4.54875e-07
3.81176e-07
3.11304e-07
2.46828e-07
1.88598e-07
1.36708e-07
9.053e-08
4.87921e-08
9.70198e-09
3.33864e-10
3.30692e-10
9.61141e-09
4.8357e-08
8.9752e-08
1.3559e-07
1.87156e-07
2.45101e-07
3.09352e-07
3.79078e-07
4.52722e-07
5.28134e-07
6.02696e-07
6.73372e-07
7.36917e-07
7.90202e-07
8.30493e-07
8.5567e-07
8.64394e-07
8.56199e-07
8.31523e-07
7.91686e-07
7.38782e-07
6.7553e-07
6.0505e-07
5.3058e-07
4.55161e-07
3.81414e-07
3.11499e-07
2.46982e-07
1.88714e-07
1.36792e-07
9.05856e-08
4.8822e-08
9.70787e-09
3.34063e-10
3.30759e-10
9.61337e-09
4.83669e-08
8.97705e-08
1.35618e-07
1.87195e-07
2.45152e-07
3.09417e-07
3.79157e-07
4.52817e-07
5.28245e-07
6.02823e-07
6.73513e-07
7.37072e-07
7.90368e-07
8.30667e-07
8.5585e-07
8.64575e-07
8.56378e-07
8.31698e-07
7.91851e-07
7.38937e-07
6.75672e-07
6.05176e-07
5.30691e-07
4.55255e-07
3.81494e-07
3.11563e-07
2.47033e-07
1.88753e-07
1.3682e-07
9.06041e-08
4.88319e-08
9.70982e-09
3.34129e-10
3.30779e-10
9.61397e-09
4.837e-08
8.97763e-08
1.35627e-07
1.87207e-07
2.45168e-07
3.09437e-07
3.79182e-07
4.52847e-07
5.2828e-07
6.02862e-07
6.73557e-07
7.3712e-07
7.9042e-07
8.30721e-07
8.55905e-07
8.64632e-07
8.56434e-07
8.31752e-07
7.91903e-07
7.38985e-07
6.75716e-07
6.05216e-07
5.30725e-07
4.55285e-07
3.81518e-07
3.11583e-07
2.47048e-07
1.88765e-07
1.36829e-07
9.06098e-08
4.8835e-08
9.71042e-09
3.3415e-10
3.30785e-10
9.61415e-09
4.83709e-08
8.9778e-08
1.3563e-07
1.87211e-07
2.45172e-07
3.09443e-07
3.79189e-07
4.52855e-07
5.2829e-07
6.02874e-07
6.7357e-07
7.37134e-07
7.90435e-07
8.30737e-07
8.55922e-07
8.64648e-07
8.5645e-07
8.31768e-07
7.91918e-07
7.38999e-07
6.75729e-07
6.05227e-07
5.30736e-07
4.55294e-07
3.81526e-07
3.11589e-07
2.47053e-07
1.88769e-07
1.36832e-07
9.06115e-08
4.88359e-08
9.7106e-09
3.34156e-10
3.30787e-10
9.6142e-09
4.83712e-08
8.97784e-08
1.3563e-07
1.87212e-07
2.45174e-07
3.09444e-07
3.79191e-07
4.52858e-07
5.28293e-07
6.02877e-07
6.73574e-07
7.37138e-07
7.90439e-07
8.30741e-07
8.55926e-07
8.64653e-07
8.56455e-07
8.31772e-07
7.91922e-07
7.39003e-07
6.75732e-07
6.0523e-07
5.30738e-07
4.55296e-07
3.81528e-07
3.11591e-07
2.47054e-07
1.8877e-07
1.36832e-07
9.0612e-08
4.88361e-08
9.71065e-09
3.34157e-10
3.30787e-10
9.61421e-09
4.83712e-08
8.97785e-08
1.3563e-07
1.87212e-07
2.45174e-07
3.09445e-07
3.79192e-07
4.52858e-07
5.28294e-07
6.02878e-07
6.73575e-07
7.37139e-07
7.9044e-07
8.30742e-07
8.55928e-07
8.64654e-07
8.56456e-07
8.31773e-07
7.91924e-07
7.39004e-07
6.75733e-07
6.05231e-07
5.30739e-07
4.55297e-07
3.81528e-07
3.11591e-07
2.47055e-07
1.8877e-07
1.36833e-07
9.06121e-08
4.88362e-08
9.71066e-09
3.34158e-10
3.30787e-10
9.61421e-09
4.83713e-08
8.97786e-08
1.3563e-07
1.87212e-07
2.45174e-07
3.09445e-07
3.79192e-07
4.52859e-07
5.28294e-07
6.02878e-07
6.73575e-07
7.37139e-07
7.9044e-07
8.30743e-07
8.55928e-07
8.64654e-07
8.56456e-07
8.31774e-07
7.91924e-07
7.39004e-07
6.75734e-07
6.05231e-07
5.30739e-07
4.55297e-07
3.81528e-07
3.11591e-07
2.47055e-07
1.8877e-07
1.36833e-07
9.06121e-08
4.88362e-08
9.71066e-09
3.34158e-10
3.30787e-10
9.61422e-09
4.83713e-08
8.97786e-08
1.3563e-07
1.87212e-07
2.45174e-07
3.09445e-07
3.79192e-07
4.52859e-07
5.28294e-07
6.02878e-07
6.73575e-07
7.37139e-07
7.9044e-07
8.30743e-07
8.55928e-07
8.64655e-07
8.56456e-07
8.31774e-07
7.91924e-07
7.39004e-07
6.75734e-07
6.05231e-07
5.30739e-07
4.55297e-07
3.81528e-07
3.11591e-07
2.47055e-07
1.8877e-07
1.36833e-07
9.06121e-08
4.88362e-08
9.71066e-09
3.34158e-10
3.30787e-10
9.61422e-09
4.83713e-08
8.97786e-08
1.3563e-07
1.87212e-07
2.45174e-07
3.09445e-07
3.79192e-07
4.52859e-07
5.28294e-07
6.02878e-07
6.73575e-07
7.37139e-07
7.9044e-07
8.30743e-07
8.55928e-07
8.64655e-07
8.56456e-07
8.31774e-07
7.91924e-07
7.39004e-07
6.75734e-07
6.05232e-07
5.30739e-07
4.55297e-07
3.81528e-07
3.11591e-07
2.47055e-07
1.8877e-07
1.36833e-07
9.06121e-08
4.88362e-08
9.71066e-09
3.34158e-10
3.30787e-10
9.61422e-09
4.83713e-08
8.97786e-08
1.3563e-07
1.87212e-07
2.45174e-07
3.09445e-07
3.79192e-07
4.52859e-07
5.28294e-07
6.02878e-07
6.73575e-07
7.37139e-07
7.9044e-07
8.30743e-07
8.55928e-07
8.64655e-07
8.56456e-07
8.31774e-07
7.91924e-07
7.39004e-07
6.75734e-07
6.05232e-07
5.30739e-07
4.55297e-07
3.81528e-07
3.11591e-07
2.47055e-07
1.8877e-07
1.36833e-07
9.06121e-08
4.88362e-08
9.71066e-09
3.34158e-10
3.30787e-10
9.61422e-09
4.83713e-08
8.97786e-08
1.3563e-07
1.87212e-07
2.45174e-07
3.09445e-07
3.79192e-07
4.52859e-07
5.28294e-07
6.02878e-07
6.73575e-07
7.37139e-07
7.9044e-07
8.30743e-07
8.55928e-07
8.64655e-07
8.56456e-07
8.31774e-07
7.91924e-07
7.39004e-07
6.75734e-07
6.05232e-07
5.30739e-07
4.55297e-07
3.81528e-07
3.11591e-07
2.47055e-07
1.8877e-07
1.36833e-07
9.06121e-08
4.88362e-08
9.71066e-09
3.34158e-10
3.30787e-10
9.61422e-09
4.83713e-08
8.97786e-08
1.3563e-07
1.87212e-07
2.45174e-07
3.09445e-07
3.79192e-07
4.52859e-07
5.28294e-07
6.02878e-07
6.73575e-07
7.37139e-07
7.9044e-07
8.30743e-07
8.55928e-07
8.64655e-07
8.56456e-07
8.31774e-07
7.91924e-07
7.39004e-07
6.75734e-07
6.05232e-07
5.30739e-07
4.55297e-07
3.81528e-07
3.11591e-07
2.47055e-07
1.8877e-07
1.36833e-07
9.06121e-08
4.88362e-08
9.71066e-09
3.34158e-10
3.30787e-10
9.61422e-09
4.83713e-08
8.97786e-08
1.3563e-07
1.87212e-07
2.45174e-07
3.09445e-07
3.79192e-07
4.52859e-07
5.28294e-07
6.02878e-07
6.73575e-07
7.37139e-07
7.9044e-07
8.30743e-07
8.55928e-07
8.64655e-07
8.56456e-07
8.31774e-07
7.91924e-07
7.39004e-07
6.75734e-07
6.05232e-07
5.30739e-07
4.55297e-07
3.81528e-07
3.11591e-07
2.47055e-07
1.8877e-07
1.36833e-07
9.06121e-08
4.88362e-08
9.71066e-09
3.34158e-10
3.30787e-10
9.61422e-09
4.83713e-08
8.97786e-08
1.3563e-07
1.87212e-07
2.45174e-07
3.09445e-07
3.79192e-07
4.52859e-07
5.28294e-07
6.02878e-07
6.73575e-07
7.37139e-07
7.9044e-07
8.30743e-07
8.55928e-07
8.64655e-07
8.56456e-07
8.31774e-07
7.91924e-07
7.39004e-07
6.75734e-07
6.05232e-07
5.30739e-07
4.55297e-07
3.81528e-07
3.11591e-07
2.47055e-07
1.8877e-07
1.36833e-07
9.06121e-08
4.88362e-08
9.71066e-09
3.34158e-10
3.30787e-10
9.61422e-09
4.83713e-08
8.97786e-08
1.3563e-07
1.87212e-07
2.45174e-07
3.09445e-07
3.79192e-07
4.52859e-07
5.28294e-07
6.02878e-07
6.73575e-07
7.37139e-07
7.9044e-07
8.30743e-07
8.55928e-07
8.64655e-07
8.56456e-07
8.31774e-07
7.91924e-07
7.39004e-07
6.75734e-07
6.05232e-07
5.30739e-07
4.55297e-07
3.81528e-07
3.11591e-07
2.47055e-07
1.8877e-07
1.36833e-07
9.06121e-08
4.88362e-08
9.71066e-09
3.34158e-10
3.30787e-10
9.61422e-09
4.83713e-08
8.97786e-08
1.3563e-07
1.87212e-07
2.45174e-07
3.09445e-07
3.79192e-07
4.52859e-07
5.28294e-07
6.02878e-07
6.73575e-07
7.37139e-07
7.9044e-07
8.30743e-07
8.55928e-07
8.64655e-07
8.56456e-07
8.31774e-07
7.91924e-07
7.39004e-07
6.75734e-07
6.05232e-07
5.30739e-07
4.55297e-07
3.81528e-07
3.11591e-07
2.47055e-07
1.8877e-07
1.36833e-07
9.06121e-08
4.88362e-08
9.71066e-09
3.34158e-10
3.30787e-10
9.61422e-09
4.83713e-08
8.97786e-08
1.3563e-07
1.87212e-07
2.45174e-07
3.09445e-07
3.79192e-07
4.52859e-07
5.28294e-07
6.02878e-07
6.73575e-07
7.37139e-07
7.9044e-07
8.30743e-07
8.55928e-07
8.64655e-07
8.56456e-07
8.31774e-07
7.91924e-07
7.39004e-07
6.75734e-07
6.05232e-07
5.30739e-07
4.55297e-07
3.81528e-07
3.11591e-07
2.47055e-07
1.8877e-07
1.36833e-07
9.06121e-08
4.88362e-08
9.71066e-09
3.34158e-10
3.30787e-10
9.61422e-09
4.83713e-08
8.97786e-08
1.3563e-07
1.87212e-07
2.45174e-07
3.09445e-07
3.79192e-07
4.52859e-07
5.28294e-07
6.02878e-07
6.73575e-07
7.37139e-07
7.9044e-07
8.30743e-07
8.55928e-07
8.64655e-07
8.56456e-07
8.31774e-07
7.91924e-07
7.39004e-07
6.75734e-07
6.05232e-07
5.30739e-07
4.55297e-07
3.81528e-07
3.11591e-07
2.47055e-07
1.8877e-07
1.36833e-07
9.06121e-08
4.88362e-08
9.71066e-09
3.34158e-10
3.30787e-10
9.61422e-09
4.83713e-08
8.97786e-08
1.3563e-07
1.87212e-07
2.45174e-07
3.09445e-07
3.79192e-07
4.52859e-07
5.28294e-07
6.02878e-07
6.73575e-07
7.37139e-07
7.9044e-07
8.30743e-07
8.55928e-07
8.64655e-07
8.56456e-07
8.31774e-07
7.91924e-07
7.39004e-07
6.75734e-07
6.05232e-07
5.30739e-07
4.55297e-07
3.81528e-07
3.11591e-07
2.47055e-07
1.8877e-07
1.36833e-07
9.06121e-08
4.88362e-08
9.71066e-09
3.34158e-10
3.30787e-10
9.61422e-09
4.83713e-08
8.97786e-08
1.3563e-07
1.87212e-07
2.45174e-07
3.09445e-07
3.79192e-07
4.52859e-07
5.28294e-07
6.02878e-07
6.73575e-07
7.37139e-07
7.9044e-07
8.30743e-07
8.55928e-07
8.64655e-07
8.56456e-07
8.31774e-07
7.91924e-07
7.39004e-07
6.75734e-07
6.05232e-07
5.30739e-07
4.55297e-07
3.81528e-07
3.11591e-07
2.47055e-07
1.8877e-07
1.36833e-07
9.06121e-08
4.88362e-08
9.71066e-09
3.34158e-10
3.30787e-10
9.61422e-09
4.83713e-08
8.97786e-08
1.3563e-07
1.87212e-07
2.45174e-07
3.09445e-07
3.79192e-07
4.52859e-07
5.28294e-07
6.02878e-07
6.73575e-07
7.37139e-07
7.9044e-07
8.30743e-07
8.55928e-07
8.64655e-07
8.56456e-07
8.31774e-07
7.91924e-07
7.39004e-07
6.75734e-07
6.05232e-07
5.30739e-07
4.55297e-07
3.81528e-07
3.11591e-07
2.47055e-07
1.8877e-07
1.36833e-07
9.06121e-08
4.88362e-08
9.71066e-09
3.34158e-10
3.30787e-10
9.61422e-09
4.83713e-08
8.97786e-08
1.3563e-07
1.87212e-07
2.45174e-07
3.09445e-07
3.79192e-07
4.52859e-07
5.28294e-07
6.02878e-07
6.73575e-07
7.37139e-07
7.9044e-07
8.30743e-07
8.55928e-07
8.64655e-07
8.56456e-07
8.31774e-07
7.91924e-07
7.39004e-07
6.75734e-07
6.05232e-07
5.30739e-07
4.55297e-07
3.81528e-07
3.11591e-07
2.47055e-07
1.8877e-07
1.36833e-07
9.06121e-08
4.88362e-08
9.71066e-09
3.34158e-10
3.30787e-10
9.61422e-09
4.83713e-08
8.97786e-08
1.3563e-07
1.87212e-07
2.45174e-07
3.09445e-07
3.79192e-07
4.52859e-07
5.28294e-07
6.02878e-07
6.73575e-07
7.37139e-07
7.9044e-07
8.30743e-07
8.55928e-07
8.64655e-07
8.56456e-07
8.31774e-07
7.91924e-07
7.39004e-07
6.75734e-07
6.05232e-07
5.30739e-07
4.55297e-07
3.81528e-07
3.11591e-07
2.47055e-07
1.8877e-07
1.36833e-07
9.06121e-08
4.88362e-08
9.71066e-09
3.34158e-10
3.30787e-10
9.61422e-09
4.83713e-08
8.97786e-08
1.3563e-07
1.87212e-07
2.45174e-07
3.09445e-07
3.79192e-07
4.52859e-07
5.28294e-07
6.02878e-07
6.73575e-07
7.37139e-07
7.9044e-07
8.30743e-07
8.55928e-07
8.64655e-07
8.56456e-07
8.31774e-07
7.91924e-07
7.39004e-07
6.75734e-07
6.05232e-07
5.30739e-07
4.55297e-07
3.81528e-07
3.11591e-07
2.47055e-07
1.8877e-07
1.36833e-07
9.06121e-08
4.88362e-08
9.71066e-09
3.34158e-10
3.30787e-10
9.61422e-09
4.83713e-08
8.97786e-08
1.3563e-07
1.87212e-07
2.45174e-07
3.09445e-07
3.79192e-07
4.52859e-07
5.28294e-07
6.02878e-07
6.73575e-07
7.37139e-07
7.9044e-07
8.30743e-07
8.55928e-07
8.64655e-07
8.56456e-07
8.31774e-07
7.91924e-07
7.39004e-07
6.75734e-07
6.05232e-07
5.30739e-07
4.55297e-07
3.81528e-07
3.11591e-07
2.47055e-07
1.8877e-07
1.36833e-07
9.06121e-08
4.88362e-08
9.71066e-09
3.34158e-10
3.30787e-10
9.61422e-09
4.83713e-08
8.97786e-08
1.3563e-07
1.87212e-07
2.45174e-07
3.09445e-07
3.79192e-07
4.52859e-07
5.28294e-07
6.02878e-07
6.73575e-07
7.37139e-07
7.9044e-07
8.30743e-07
8.55928e-07
8.64655e-07
8.56456e-07
8.31774e-07
7.91924e-07
7.39004e-07
6.75734e-07
6.05232e-07
5.30739e-07
4.55297e-07
3.81528e-07
3.11591e-07
2.47055e-07
1.8877e-07
1.36833e-07
9.06121e-08
4.88362e-08
9.71066e-09
3.34158e-10
3.30787e-10
9.61422e-09
4.83713e-08
8.97786e-08
1.3563e-07
1.87212e-07
2.45174e-07
3.09445e-07
3.79192e-07
4.52859e-07
5.28294e-07
6.02878e-07
6.73575e-07
7.37139e-07
7.9044e-07
8.30743e-07
8.55928e-07
8.64655e-07
8.56456e-07
8.31774e-07
7.91924e-07
7.39004e-07
6.75734e-07
6.05232e-07
5.30739e-07
4.55297e-07
3.81528e-07
3.11591e-07
2.47055e-07
1.8877e-07
1.36833e-07
9.06121e-08
4.88362e-08
9.71066e-09
3.34158e-10
3.30787e-10
9.61422e-09
4.83713e-08
8.97786e-08
1.3563e-07
1.87212e-07
2.45174e-07
3.09445e-07
3.79192e-07
4.52859e-07
5.28294e-07
6.02878e-07
6.73575e-07
7.37139e-07
7.9044e-07
8.30743e-07
8.55928e-07
8.64655e-07
8.56456e-07
8.31774e-07
7.91924e-07
7.39004e-07
6.75734e-07
6.05232e-07
5.30739e-07
4.55297e-07
3.81528e-07
3.11591e-07
2.47055e-07
1.8877e-07
1.36833e-07
9.06121e-08
4.88362e-08
9.71066e-09
3.34158e-10
3.30787e-10
9.61422e-09
4.83713e-08
8.97786e-08
1.3563e-07
1.87212e-07
2.45174e-07
3.09445e-07
3.79192e-07
4.52859e-07
5.28294e-07
6.02878e-07
6.73575e-07
7.37139e-07
7.9044e-07
8.30743e-07
8.55928e-07
8.64655e-07
8.56456e-07
8.31774e-07
7.91924e-07
7.39004e-07
6.75734e-07
6.05232e-07
5.30739e-07
4.55297e-07
3.81528e-07
3.11591e-07
2.47055e-07
1.8877e-07
1.36833e-07
9.06121e-08
4.88362e-08
9.71066e-09
3.34158e-10
3.30787e-10
9.61422e-09
4.83713e-08
8.97786e-08
1.3563e-07
1.87212e-07
2.45174e-07
3.09445e-07
3.79192e-07
4.52859e-07
5.28294e-07
6.02878e-07
6.73575e-07
7.37139e-07
7.9044e-07
8.30743e-07
8.55928e-07
8.64655e-07
8.56456e-07
8.31774e-07
7.91924e-07
7.39004e-07
6.75734e-07
6.05232e-07
5.30739e-07
4.55297e-07
3.81528e-07
3.11591e-07
2.47055e-07
1.8877e-07
1.36833e-07
9.06121e-08
4.88362e-08
9.71066e-09
3.34158e-10
3.30787e-10
9.61422e-09
4.83713e-08
8.97786e-08
1.3563e-07
1.87212e-07
2.45174e-07
3.09445e-07
3.79192e-07
4.52859e-07
5.28294e-07
6.02878e-07
6.73575e-07
7.37139e-07
7.9044e-07
8.30743e-07
8.55928e-07
8.64655e-07
8.56456e-07
8.31774e-07
7.91924e-07
7.39004e-07
6.75734e-07
6.05232e-07
5.30739e-07
4.55297e-07
3.81528e-07
3.11591e-07
2.47055e-07
1.8877e-07
1.36833e-07
9.06121e-08
4.88362e-08
9.71066e-09
3.34158e-10
3.30787e-10
9.61422e-09
4.83713e-08
8.97786e-08
1.3563e-07
1.87212e-07
2.45174e-07
3.09445e-07
3.79192e-07
4.52859e-07
5.28294e-07
6.02878e-07
6.73575e-07
7.37139e-07
7.9044e-07
8.30743e-07
8.55928e-07
8.64655e-07
8.56456e-07
8.31774e-07
7.91924e-07
7.39004e-07
6.75734e-07
6.05232e-07
5.30739e-07
4.55297e-07
3.81528e-07
3.11591e-07
2.47055e-07
1.8877e-07
1.36833e-07
9.06121e-08
4.88362e-08
9.71066e-09
3.34158e-10
3.30787e-10
9.61422e-09
4.83713e-08
8.97786e-08
1.3563e-07
1.87212e-07
2.45174e-07
3.09445e-07
3.79192e-07
4.52859e-07
5.28294e-07
6.02878e-07
6.73575e-07
7.37139e-07
7.9044e-07
8.30743e-07
8.55928e-07
8.64655e-07
8.56456e-07
8.31774e-07
7.91924e-07
7.39004e-07
6.75734e-07
6.05232e-07
5.30739e-07
4.55297e-07
3.81528e-07
3.11591e-07
2.47055e-07
1.8877e-07
1.36833e-07
9.06121e-08
4.88362e-08
9.71066e-09
3.34158e-10
3.30787e-10
9.61422e-09
4.83713e-08
8.97786e-08
1.3563e-07
1.87212e-07
2.45174e-07
3.09445e-07
3.79192e-07
4.52859e-07
5.28294e-07
6.02878e-07
6.73575e-07
7.37139e-07
7.9044e-07
8.30743e-07
8.55928e-07
8.64655e-07
8.56456e-07
8.31774e-07
7.91924e-07
7.39004e-07
6.75734e-07
6.05232e-07
5.30739e-07
4.55297e-07
3.81528e-07
3.11591e-07
2.47055e-07
1.8877e-07
1.36833e-07
9.06121e-08
4.88362e-08
9.71066e-09
3.34158e-10
3.30787e-10
9.61422e-09
4.83713e-08
8.97786e-08
1.3563e-07
1.87212e-07
2.45174e-07
3.09445e-07
3.79192e-07
4.52859e-07
5.28294e-07
6.02878e-07
6.73575e-07
7.37139e-07
7.9044e-07
8.30743e-07
8.55928e-07
8.64655e-07
8.56456e-07
8.31774e-07
7.91924e-07
7.39004e-07
6.75734e-07
6.05232e-07
5.30739e-07
4.55297e-07
3.81528e-07
3.11591e-07
2.47055e-07
1.8877e-07
1.36833e-07
9.06121e-08
4.88362e-08
9.71066e-09
3.34158e-10
3.30787e-10
9.61422e-09
4.83713e-08
8.97786e-08
1.3563e-07
1.87212e-07
2.45174e-07
3.09445e-07
3.79192e-07
4.52859e-07
5.28294e-07
6.02878e-07
6.73575e-07
7.37139e-07
7.9044e-07
8.30743e-07
8.55928e-07
8.64655e-07
8.56456e-07
8.31774e-07
7.91924e-07
7.39004e-07
6.75734e-07
6.05232e-07
5.30739e-07
4.55297e-07
3.81528e-07
3.11591e-07
2.47055e-07
1.8877e-07
1.36833e-07
9.06121e-08
4.88362e-08
9.71066e-09
3.34158e-10
3.30787e-10
9.61422e-09
4.83713e-08
8.97786e-08
1.3563e-07
1.87212e-07
2.45174e-07
3.09445e-07
3.79192e-07
4.52859e-07
5.28294e-07
6.02878e-07
6.73575e-07
7.37139e-07
7.9044e-07
8.30743e-07
8.55928e-07
8.64655e-07
8.56456e-07
8.31774e-07
7.91924e-07
7.39004e-07
6.75734e-07
6.05232e-07
5.30739e-07
4.55297e-07
3.81528e-07
3.11591e-07
2.47055e-07
1.8877e-07
1.36833e-07
9.06121e-08
4.88362e-08
9.71066e-09
3.34158e-10
3.30787e-10
9.61422e-09
4.83713e-08
8.97786e-08
1.3563e-07
1.87212e-07
2.45174e-07
3.09445e-07
3.79192e-07
4.52859e-07
5.28294e-07
6.02878e-07
6.73575e-07
7.37139e-07
7.9044e-07
8.30743e-07
8.55928e-07
8.64655e-07
8.56456e-07
8.31774e-07
7.91924e-07
7.39004e-07
6.75734e-07
6.05232e-07
5.30739e-07
4.55297e-07
3.81528e-07
3.11591e-07
2.47055e-07
1.8877e-07
1.36833e-07
9.06121e-08
4.88362e-08
9.71066e-09
3.34158e-10
3.30787e-10
9.61422e-09
4.83713e-08
8.97786e-08
1.3563e-07
1.87212e-07
2.45174e-07
3.09445e-07
3.79192e-07
4.52859e-07
5.28294e-07
6.02878e-07
6.73575e-07
7.37139e-07
7.9044e-07
8.30743e-07
8.55928e-07
8.64655e-07
8.56456e-07
8.31774e-07
7.91924e-07
7.39004e-07
6.75734e-07
6.05232e-07
5.30739e-07
4.55297e-07
3.81528e-07
3.11591e-07
2.47055e-07
1.8877e-07
1.36833e-07
9.06121e-08
4.88362e-08
9.71066e-09
3.34158e-10
3.30787e-10
9.61422e-09
4.83713e-08
8.97786e-08
1.3563e-07
1.87212e-07
2.45174e-07
3.09445e-07
3.79192e-07
4.52859e-07
5.28294e-07
6.02878e-07
6.73575e-07
7.37139e-07
7.9044e-07
8.30743e-07
8.55928e-07
8.64655e-07
8.56456e-07
8.31774e-07
7.91924e-07
7.39004e-07
6.75734e-07
6.05232e-07
5.30739e-07
4.55297e-07
3.81528e-07
3.11591e-07
2.47055e-07
1.8877e-07
1.36833e-07
9.06121e-08
4.88362e-08
9.71066e-09
3.34158e-10
3.30787e-10
9.61422e-09
4.83713e-08
8.97786e-08
1.3563e-07
1.87212e-07
2.45174e-07
3.09445e-07
3.79192e-07
4.52859e-07
5.28294e-07
6.02878e-07
6.73575e-07
7.37139e-07
7.9044e-07
8.30743e-07
8.55928e-07
8.64655e-07
8.56456e-07
8.31774e-07
7.91924e-07
7.39004e-07
6.75734e-07
6.05232e-07
5.30739e-07
4.55297e-07
3.81528e-07
3.11591e-07
2.47055e-07
1.8877e-07
1.36833e-07
9.06121e-08
4.88362e-08
9.71066e-09
3.34158e-10
3.30787e-10
9.61422e-09
4.83713e-08
8.97786e-08
1.3563e-07
1.87212e-07
2.45174e-07
3.09445e-07
3.79192e-07
4.52859e-07
5.28294e-07
6.02878e-07
6.73575e-07
7.37139e-07
7.9044e-07
8.30743e-07
8.55928e-07
8.64655e-07
8.56456e-07
8.31774e-07
7.91924e-07
7.39004e-07
6.75734e-07
6.05232e-07
5.30739e-07
4.55297e-07
3.81528e-07
3.11591e-07
2.47055e-07
1.8877e-07
1.36833e-07
9.06121e-08
4.88362e-08
9.71066e-09
3.34158e-10
3.30787e-10
9.61422e-09
4.83713e-08
8.97786e-08
1.3563e-07
1.87212e-07
2.45174e-07
3.09445e-07
3.79192e-07
4.52859e-07
5.28294e-07
6.02878e-07
6.73575e-07
7.37139e-07
7.9044e-07
8.30743e-07
8.55928e-07
8.64655e-07
8.56456e-07
8.31774e-07
7.91924e-07
7.39004e-07
6.75734e-07
6.05232e-07
5.30739e-07
4.55297e-07
3.81528e-07
3.11591e-07
2.47055e-07
1.8877e-07
1.36833e-07
9.06121e-08
4.88362e-08
9.71066e-09
3.34158e-10
3.30787e-10
9.61422e-09
4.83713e-08
8.97786e-08
1.3563e-07
1.87212e-07
2.45174e-07
3.09445e-07
3.79192e-07
4.52859e-07
5.28294e-07
6.02878e-07
6.73575e-07
7.37139e-07
7.9044e-07
8.30743e-07
8.55928e-07
8.64655e-07
8.56456e-07
8.31774e-07
7.91924e-07
7.39004e-07
6.75734e-07
6.05232e-07
5.30739e-07
4.55297e-07
3.81528e-07
3.11591e-07
2.47055e-07
1.8877e-07
1.36833e-07
9.06121e-08
4.88362e-08
9.71066e-09
3.34158e-10
3.30787e-10
9.61422e-09
4.83713e-08
8.97786e-08
1.3563e-07
1.87212e-07
2.45174e-07
3.09445e-07
3.79192e-07
4.52859e-07
5.28294e-07
6.02878e-07
6.73575e-07
7.37139e-07
7.9044e-07
8.30743e-07
8.55928e-07
8.64655e-07
8.56456e-07
8.31774e-07
7.91924e-07
7.39004e-07
6.75734e-07
6.05232e-07
5.30739e-07
4.55297e-07
3.81528e-07
3.11591e-07
2.47055e-07
1.8877e-07
1.36833e-07
9.06121e-08
4.88362e-08
9.71066e-09
3.34158e-10
3.30787e-10
9.61422e-09
4.83713e-08
8.97786e-08
1.3563e-07
1.87212e-07
2.45174e-07
3.09445e-07
3.79192e-07
4.52859e-07
5.28294e-07
6.02878e-07
6.73575e-07
7.37139e-07
7.9044e-07
8.30743e-07
8.55928e-07
8.64655e-07
8.56456e-07
8.31774e-07
7.91924e-07
7.39004e-07
6.75734e-07
6.05232e-07
5.30739e-07
4.55297e-07
3.81528e-07
3.11591e-07
2.47055e-07
1.8877e-07
1.36833e-07
9.06121e-08
4.88362e-08
9.71066e-09
3.34158e-10
3.30787e-10
9.61422e-09
4.83713e-08
8.97786e-08
1.3563e-07
1.87212e-07
2.45174e-07
3.09445e-07
3.79192e-07
4.52859e-07
5.28294e-07
6.02878e-07
6.73575e-07
7.37139e-07
7.9044e-07
8.30743e-07
8.55928e-07
8.64655e-07
8.56456e-07
8.31774e-07
7.91924e-07
7.39004e-07
6.75734e-07
6.05232e-07
5.30739e-07
4.55297e-07
3.81528e-07
3.11591e-07
2.47055e-07
1.8877e-07
1.36833e-07
9.06121e-08
4.88362e-08
9.71066e-09
3.34158e-10
3.30787e-10
9.61422e-09
4.83713e-08
8.97786e-08
1.3563e-07
1.87212e-07
2.45174e-07
3.09445e-07
3.79192e-07
4.52859e-07
5.28294e-07
6.02878e-07
6.73575e-07
7.37139e-07
7.9044e-07
8.30743e-07
8.55928e-07
8.64655e-07
8.56456e-07
8.31774e-07
7.91924e-07
7.39004e-07
6.75734e-07
6.05232e-07
5.30739e-07
4.55297e-07
3.81528e-07
3.11591e-07
2.47055e-07
1.8877e-07
1.36833e-07
9.06121e-08
4.88362e-08
9.71066e-09
3.34158e-10
3.30787e-10
9.61422e-09
4.83713e-08
8.97786e-08
1.3563e-07
1.87212e-07
2.45174e-07
3.09445e-07
3.79192e-07
4.52859e-07
5.28294e-07
6.02878e-07
6.73575e-07
7.37139e-07
7.9044e-07
8.30743e-07
8.55928e-07
8.64655e-07
8.56456e-07
8.31774e-07
7.91924e-07
7.39004e-07
6.75734e-07
6.05232e-07
5.30739e-07
4.55297e-07
3.81528e-07
3.11591e-07
2.47055e-07
1.8877e-07
1.36833e-07
9.06121e-08
4.88362e-08
9.71066e-09
3.34158e-10
3.30787e-10
9.61422e-09
4.83713e-08
8.97786e-08
1.3563e-07
1.87212e-07
2.45174e-07
3.09445e-07
3.79192e-07
4.52859e-07
5.28294e-07
6.02878e-07
6.73575e-07
7.37139e-07
7.9044e-07
8.30743e-07
8.55928e-07
8.64655e-07
8.56456e-07
8.31774e-07
7.91924e-07
7.39004e-07
6.75734e-07
6.05232e-07
5.30739e-07
4.55297e-07
3.81528e-07
3.11591e-07
2.47055e-07
1.8877e-07
1.36833e-07
9.06121e-08
4.88362e-08
9.71066e-09
3.34158e-10
3.30787e-10
9.61422e-09
4.83713e-08
8.97786e-08
1.3563e-07
1.87212e-07
2.45174e-07
3.09445e-07
3.79192e-07
4.52859e-07
5.28294e-07
6.02878e-07
6.73575e-07
7.37139e-07
7.9044e-07
8.30743e-07
8.55928e-07
8.64655e-07
8.56456e-07
8.31774e-07
7.91924e-07
7.39004e-07
6.75734e-07
6.05232e-07
5.30739e-07
4.55297e-07
3.81528e-07
3.11591e-07
2.47055e-07
1.8877e-07
1.36833e-07
9.06121e-08
4.88362e-08
9.71066e-09
3.34158e-10
3.30787e-10
9.61422e-09
4.83713e-08
8.97786e-08
1.3563e-07
1.87212e-07
2.45174e-07
3.09445e-07
3.79192e-07
4.52859e-07
5.28294e-07
6.02878e-07
6.73575e-07
7.37139e-07
7.9044e-07
8.30743e-07
8.55928e-07
8.64655e-07
8.56456e-07
8.31774e-07
7.91924e-07
7.39004e-07
6.75734e-07
6.05232e-07
5.30739e-07
4.55297e-07
3.81528e-07
3.11591e-07
2.47055e-07
1.8877e-07
1.36833e-07
9.06121e-08
4.88362e-08
9.71066e-09
3.34158e-10
3.30787e-10
9.61422e-09
4.83713e-08
8.97786e-08
1.3563e-07
1.87212e-07
2.45174e-07
3.09445e-07
3.79192e-07
4.52859e-07
5.28294e-07
6.02878e-07
6.73575e-07
7.37139e-07
7.9044e-07
8.30743e-07
8.55928e-07
8.64655e-07
8.56456e-07
8.31774e-07
7.91924e-07
7.39004e-07
6.75734e-07
6.05232e-07
5.30739e-07
4.55297e-07
3.81528e-07
3.11591e-07
2.47055e-07
1.8877e-07
1.36833e-07
9.06121e-08
4.88362e-08
9.71066e-09
3.34158e-10
3.30787e-10
9.61422e-09
4.83713e-08
8.97786e-08
1.3563e-07
1.87212e-07
2.45174e-07
3.09445e-07
3.79192e-07
4.52859e-07
5.28294e-07
6.02878e-07
6.73575e-07
7.37139e-07
7.9044e-07
8.30743e-07
8.55928e-07
8.64655e-07
8.56456e-07
8.31774e-07
7.91924e-07
7.39004e-07
6.75734e-07
6.05232e-07
5.30739e-07
4.55297e-07
3.81528e-07
3.11591e-07
2.47055e-07
1.8877e-07
1.36833e-07
9.06121e-08
4.88362e-08
9.71066e-09
3.34158e-10
3.30787e-10
9.61422e-09
4.83713e-08
8.97786e-08
1.3563e-07
1.87212e-07
2.45174e-07
3.09445e-07
3.79192e-07
4.52859e-07
5.28294e-07
6.02878e-07
6.73575e-07
7.37139e-07
7.9044e-07
8.30743e-07
8.55928e-07
8.64655e-07
8.56456e-07
8.31774e-07
7.91924e-07
7.39004e-07
6.75734e-07
6.05232e-07
5.30739e-07
4.55297e-07
3.81528e-07
3.11591e-07
2.47055e-07
1.8877e-07
1.36833e-07
9.06121e-08
4.88362e-08
9.71066e-09
3.34158e-10
3.30787e-10
9.61422e-09
4.83713e-08
8.97786e-08
1.3563e-07
1.87212e-07
2.45174e-07
3.09445e-07
3.79192e-07
4.52859e-07
5.28294e-07
6.02878e-07
6.73575e-07
7.37139e-07
7.9044e-07
8.30743e-07
8.55928e-07
8.64655e-07
8.56456e-07
8.31774e-07
7.91924e-07
7.39004e-07
6.75734e-07
6.05232e-07
5.30739e-07
4.55297e-07
3.81528e-07
3.11591e-07
2.47055e-07
1.8877e-07
1.36833e-07
9.06121e-08
4.88362e-08
9.71066e-09
3.34158e-10
3.30787e-10
9.61422e-09
4.83713e-08
8.97786e-08
1.3563e-07
1.87212e-07
2.45174e-07
3.09445e-07
3.79192e-07
4.52859e-07
5.28294e-07
6.02878e-07
6.73575e-07
7.37139e-07
7.9044e-07
8.30743e-07
8.55928e-07
8.64655e-07
8.56456e-07
8.31774e-07
7.91924e-07
7.39004e-07
6.75734e-07
6.05232e-07
5.30739e-07
4.55297e-07
3.81528e-07
3.11591e-07
2.47055e-07
1.8877e-07
1.36833e-07
9.06121e-08
4.88362e-08
9.71066e-09
3.34158e-10
3.30787e-10
9.61422e-09
4.83713e-08
8.97786e-08
1.3563e-07
1.87212e-07
2.45174e-07
3.09445e-07
3.79192e-07
4.52859e-07
5.28294e-07
6.02878e-07
6.73575e-07
7.37139e-07