/*--------------------------------*- C++ -*----------------------------------*\
  =========                 |
  \\      /  F ield         | OpenFOAM: The Open Source CFD Toolbox
   \\    /   O peration     | Website:  https://openfoam.org
    \\  /    A nd           | Version:  13
     \\/     M anipulation  |
\*---------------------------------------------------------------------------*/
FoamFile
{
    format      ascii;
    class       volScalarField;
    location    "250";
    object      k;
}
// * * * * * * * * * * * * * * * * * * * * * * * * * * * * * * * * * * * * * //

dimensions      [0 2 -2 0 0 0 0];

internalField   nonuniform List<scalar> 
78750
(
8.44783e-15
2.40072e-13
1.08749e-12
1.97311e-12
2.90732e-12
3.89722e-12
4.94349e-12
6.03879e-12
7.16763e-12
8.30717e-12
9.42874e-12
1.04997e-11
1.14856e-11
1.23523e-11
1.30683e-11
1.36067e-11
1.39464e-11
1.40741e-11
1.39847e-11
1.36815e-11
1.31764e-11
1.24887e-11
1.16444e-11
1.06743e-11
9.61215e-12
8.49236e-12
7.34802e-12
6.20855e-12
5.09765e-12
4.03173e-12
3.0188e-12
2.05824e-12
1.14149e-12
2.54094e-13
8.98039e-15
1.83626e-13
5.30046e-12
2.64308e-11
4.83031e-11
7.13527e-11
9.58407e-11
1.2182e-10
1.49117e-10
1.77342e-10
2.05911e-10
2.34087e-10
2.61032e-10
2.85862e-10
3.07699e-10
3.25735e-10
3.39275e-10
3.47785e-10
3.50922e-10
3.48556e-10
3.40782e-10
3.27905e-10
3.10432e-10
2.89032e-10
2.64501e-10
2.37707e-10
2.09536e-10
1.80836e-10
1.52358e-10
1.24707e-10
9.82933e-11
7.33089e-11
4.9714e-11
2.725e-11
5.4738e-12
1.89751e-13
5.15453e-13
1.48813e-11
7.43554e-11
1.36687e-10
2.03673e-10
2.76514e-10
3.55668e-10
4.40775e-10
5.30645e-10
6.23324e-10
7.16224e-10
8.06295e-10
8.90237e-10
9.64726e-10
1.02665e-09
1.07331e-09
1.10262e-09
1.11325e-09
1.1047e-09
1.07736e-09
1.03247e-09
9.72021e-10
8.98646e-10
8.15421e-10
7.25657e-10
6.32668e-10
5.39539e-10
4.48914e-10
3.62811e-10
2.82485e-10
2.08357e-10
1.40009e-10
7.62539e-11
1.52791e-11
5.29467e-13
9.98182e-13
2.88161e-11
1.44077e-10
2.65437e-10
3.96811e-10
5.40894e-10
6.98854e-10
8.70148e-10
1.05247e-09
1.24188e-09
1.43298e-09
1.61934e-09
1.79387e-09
1.94938e-09
2.07904e-09
2.17691e-09
2.23835e-09
2.26041e-09
2.24202e-09
2.18404e-09
2.08927e-09
1.96218e-09
1.80858e-09
1.63525e-09
1.44936e-09
1.25804e-09
1.06779e-09
8.84092e-10
7.11021e-10
5.51003e-10
4.04687e-10
2.70982e-10
1.47224e-10
2.9473e-11
1.02131e-12
1.55113e-12
4.47748e-11
2.23902e-10
4.12773e-10
6.17684e-10
8.43004e-10
1.09068e-09
1.35996e-09
1.64724e-09
1.94632e-09
2.24865e-09
2.54398e-09
2.82097e-09
3.06804e-09
3.27419e-09
3.42981e-09
3.52744e-09
3.56227e-09
3.53257e-09
3.4398e-09
3.2885e-09
3.08593e-09
2.84152e-09
2.5662e-09
2.27151e-09
1.96884e-09
1.66855e-09
1.37931e-09
1.10754e-09
8.56964e-10
6.28522e-10
4.20373e-10
2.28197e-10
4.56698e-11
1.58264e-12
2.09087e-12
6.03532e-11
3.01818e-10
5.56524e-10
8.3306e-10
1.13739e-09
1.47221e-09
1.83649e-09
2.22543e-09
2.63058e-09
3.04037e-09
3.44085e-09
3.8166e-09
4.15184e-09
4.43158e-09
4.64273e-09
4.77506e-09
4.82206e-09
4.78138e-09
4.65501e-09
4.44919e-09
4.17384e-09
3.84187e-09
3.46816e-09
3.06847e-09
2.65825e-09
2.25158e-09
1.86023e-09
1.49284e-09
1.15445e-09
8.46268e-10
5.65759e-10
3.0702e-10
6.14362e-11
2.12899e-12
2.55622e-12
7.37891e-11
3.6903e-10
6.80509e-10
1.01878e-09
1.39118e-09
1.80101e-09
2.24707e-09
2.72344e-09
3.21977e-09
3.72189e-09
4.21267e-09
4.6732e-09
5.08409e-09
5.42695e-09
5.68567e-09
5.84772e-09
5.90508e-09
5.85488e-09
5.6996e-09
5.44691e-09
5.10903e-09
4.70185e-09
4.24363e-09
3.75373e-09
3.25112e-09
2.75305e-09
2.27393e-09
1.82433e-09
1.41042e-09
1.03365e-09
6.90883e-10
3.74858e-10
7.50017e-11
2.59889e-12
2.91568e-12
8.41744e-11
4.21001e-10
7.76381e-10
1.16238e-09
1.58741e-09
2.05525e-09
2.56453e-09
3.10849e-09
3.67531e-09
4.2488e-09
4.80938e-09
5.33542e-09
5.80478e-09
6.19638e-09
6.49183e-09
6.6768e-09
6.74211e-09
6.68449e-09
6.5068e-09
6.21783e-09
5.83157e-09
5.36621e-09
4.84264e-09
4.28301e-09
3.70898e-09
3.14028e-09
2.59334e-09
2.08025e-09
1.60802e-09
1.17828e-09
7.87445e-10
4.27204e-10
8.54644e-11
2.96108e-12
3.16638e-12
9.14234e-11
4.57296e-10
8.4334e-10
1.26269e-09
1.72449e-09
2.23287e-09
2.78632e-09
3.37753e-09
3.99363e-09
4.61702e-09
5.22639e-09
5.79823e-09
6.30845e-09
6.73413e-09
7.05525e-09
7.25621e-09
7.32704e-09
7.26419e-09
7.07079e-09
6.75639e-09
6.33627e-09
5.83019e-09
5.26092e-09
4.65252e-09
4.02857e-09
3.41051e-09
2.81621e-09
2.25877e-09
1.74582e-09
1.27913e-09
8.54763e-10
4.6369e-10
9.27526e-11
3.21317e-12
3.32526e-12
9.60218e-11
4.80335e-10
8.85848e-10
1.32637e-09
1.81152e-09
2.34565e-09
2.92718e-09
3.54841e-09
4.19584e-09
4.85093e-09
5.49132e-09
6.09228e-09
6.62848e-09
7.07581e-09
7.41323e-09
7.62434e-09
7.69867e-09
7.63247e-09
7.42904e-09
7.09846e-09
6.65678e-09
6.1248e-09
5.52646e-09
4.88705e-09
4.23138e-09
3.58196e-09
2.95757e-09
2.37198e-09
1.83319e-09
1.34305e-09
8.97426e-10
4.86808e-10
9.73673e-11
3.37262e-12
3.41734e-12
9.86896e-11
4.93711e-10
9.1053e-10
1.36335e-09
1.86207e-09
2.41116e-09
3.00901e-09
3.64769e-09
4.31332e-09
4.98685e-09
5.64528e-09
6.26317e-09
6.81446e-09
7.27438e-09
7.62128e-09
7.83829e-09
7.91463e-09
7.84647e-09
7.6372e-09
7.29719e-09
6.84296e-09
6.29591e-09
5.68066e-09
5.02323e-09
4.3491e-09
3.68146e-09
3.03959e-09
2.43765e-09
1.88386e-09
1.38012e-09
9.22159e-10
5.00208e-10
1.0004e-10
3.46487e-12
3.46645e-12
1.00114e-10
5.00859e-10
9.23721e-10
1.38312e-09
1.88909e-09
2.44619e-09
3.05275e-09
3.70077e-09
4.37615e-09
5.05954e-09
5.72762e-09
6.35456e-09
6.91394e-09
7.3806e-09
7.73256e-09
7.95272e-09
8.03013e-09
7.96091e-09
7.74851e-09
7.40345e-09
6.9425e-09
6.38738e-09
5.76308e-09
5.09599e-09
4.412e-09
3.73461e-09
3.0834e-09
2.47272e-09
1.91092e-09
1.3999e-09
9.35359e-10
5.07358e-10
1.01465e-10
3.514e-12
3.4907e-12
1.00818e-10
5.04395e-10
9.30247e-10
1.3929e-09
1.90246e-09
2.46352e-09
3.07441e-09
3.72705e-09
4.40725e-09
5.09554e-09
5.76839e-09
6.39982e-09
6.9632e-09
7.43319e-09
7.78766e-09
8.00938e-09
8.08733e-09
8.01758e-09
7.80362e-09
7.45606e-09
6.99178e-09
6.43265e-09
5.80386e-09
5.132e-09
4.44312e-09
3.7609e-09
3.10506e-09
2.49006e-09
1.92429e-09
1.40968e-09
9.41882e-10
5.1089e-10
1.02169e-10
3.53823e-12
3.50184e-12
1.01142e-10
5.06024e-10
9.33254e-10
1.39741e-09
1.90862e-09
2.47151e-09
3.08439e-09
3.73916e-09
4.42159e-09
5.11212e-09
5.78718e-09
6.42068e-09
6.98591e-09
7.45744e-09
7.81307e-09
8.0355e-09
8.11369e-09
8.0437e-09
7.82902e-09
7.4803e-09
7.01448e-09
6.45351e-09
5.82265e-09
5.14858e-09
4.45745e-09
3.77301e-09
3.11503e-09
2.49804e-09
1.93044e-09
1.41418e-09
9.44883e-10
5.12516e-10
1.02492e-10
3.54935e-12
3.50663e-12
1.01282e-10
5.06725e-10
9.34549e-10
1.39935e-09
1.91128e-09
2.47495e-09
3.08869e-09
3.74438e-09
4.42777e-09
5.11928e-09
5.79528e-09
6.42968e-09
6.9957e-09
7.46789e-09
7.82402e-09
8.04676e-09
8.12506e-09
8.05496e-09
7.83998e-09
7.49075e-09
7.02427e-09
6.4625e-09
5.83075e-09
5.15573e-09
4.46363e-09
3.77823e-09
3.11933e-09
2.50148e-09
1.9331e-09
1.41612e-09
9.46175e-10
5.13215e-10
1.02631e-10
3.55412e-12
3.50857e-12
1.01338e-10
5.07009e-10
9.35074e-10
1.40013e-09
1.91235e-09
2.47634e-09
3.09043e-09
3.7465e-09
4.43027e-09
5.12217e-09
5.79857e-09
6.43332e-09
6.99967e-09
7.47213e-09
7.82846e-09
8.05132e-09
8.12966e-09
8.05952e-09
7.84441e-09
7.49499e-09
7.02823e-09
6.46614e-09
5.83403e-09
5.15862e-09
4.46613e-09
3.78034e-09
3.12107e-09
2.50287e-09
1.93417e-09
1.4169e-09
9.46698e-10
5.13498e-10
1.02687e-10
3.55605e-12
3.50931e-12
1.0136e-10
5.07117e-10
9.35274e-10
1.40043e-09
1.91276e-09
2.47687e-09
3.0911e-09
3.7473e-09
4.43122e-09
5.12328e-09
5.79982e-09
6.43472e-09
7.00118e-09
7.47374e-09
7.83015e-09
8.05307e-09
8.13142e-09
8.06127e-09
7.84611e-09
7.4966e-09
7.02975e-09
6.46753e-09
5.83528e-09
5.15973e-09
4.46708e-09
3.78114e-09
3.12173e-09
2.5034e-09
1.93458e-09
1.4172e-09
9.46897e-10
5.13606e-10
1.02709e-10
3.55678e-12
3.50957e-12
1.01368e-10
5.07157e-10
9.35346e-10
1.40054e-09
1.91291e-09
2.47707e-09
3.09134e-09
3.74759e-09
4.43157e-09
5.12368e-09
5.80027e-09
6.43522e-09
7.00173e-09
7.47433e-09
7.83076e-09
8.0537e-09
8.13205e-09
8.0619e-09
7.84672e-09
7.49719e-09
7.03029e-09
6.46803e-09
5.83573e-09
5.16013e-09
4.46743e-09
3.78143e-09
3.12197e-09
2.50359e-09
1.93472e-09
1.41731e-09
9.46969e-10
5.13645e-10
1.02716e-10
3.55705e-12
3.50966e-12
1.0137e-10
5.0717e-10
9.35371e-10
1.40058e-09
1.91296e-09
2.47713e-09
3.09142e-09
3.74769e-09
4.43169e-09
5.12382e-09
5.80043e-09
6.43539e-09
7.00192e-09
7.47453e-09
7.83097e-09
8.05391e-09
8.13227e-09
8.06211e-09
7.84693e-09
7.49739e-09
7.03048e-09
6.46821e-09
5.83589e-09
5.16026e-09
4.46754e-09
3.78153e-09
3.12205e-09
2.50366e-09
1.93477e-09
1.41735e-09
9.46994e-10
5.13658e-10
1.02719e-10
3.55714e-12
3.50969e-12
1.01371e-10
5.07174e-10
9.35379e-10
1.40059e-09
1.91298e-09
2.47715e-09
3.09145e-09
3.74773e-09
4.43173e-09
5.12386e-09
5.80048e-09
6.43545e-09
7.00198e-09
7.4746e-09
7.83104e-09
8.05398e-09
8.13234e-09
8.06218e-09
7.847e-09
7.49745e-09
7.03054e-09
6.46826e-09
5.83594e-09
5.16031e-09
4.46758e-09
3.78157e-09
3.12208e-09
2.50368e-09
1.93479e-09
1.41736e-09
9.47002e-10
5.13662e-10
1.0272e-10
3.55717e-12
3.5097e-12
1.01371e-10
5.07176e-10
9.35381e-10
1.40059e-09
1.91299e-09
2.47716e-09
3.09145e-09
3.74774e-09
4.43174e-09
5.12387e-09
5.8005e-09
6.43546e-09
7.002e-09
7.47462e-09
7.83106e-09
8.05401e-09
8.13237e-09
8.0622e-09
7.84702e-09
7.49747e-09
7.03056e-09
6.46828e-09
5.83595e-09
5.16032e-09
4.46759e-09
3.78158e-09
3.12209e-09
2.50369e-09
1.9348e-09
1.41736e-09
9.47004e-10
5.13664e-10
1.0272e-10
3.55717e-12
3.5097e-12
1.01372e-10
5.07176e-10
9.35382e-10
1.4006e-09
1.91299e-09
2.47716e-09
3.09146e-09
3.74774e-09
4.43174e-09
5.12388e-09
5.8005e-09
6.43547e-09
7.002e-09
7.47462e-09
7.83107e-09
8.05401e-09
8.13237e-09
8.06221e-09
7.84702e-09
7.49748e-09
7.03057e-09
6.46829e-09
5.83596e-09
5.16033e-09
4.4676e-09
3.78158e-09
3.12209e-09
2.50369e-09
1.9348e-09
1.41737e-09
9.47005e-10
5.13664e-10
1.0272e-10
3.55718e-12
3.5097e-12
1.01372e-10
5.07176e-10
9.35382e-10
1.4006e-09
1.91299e-09
2.47716e-09
3.09146e-09
3.74774e-09
4.43174e-09
5.12388e-09
5.8005e-09
6.43547e-09
7.002e-09
7.47462e-09
7.83107e-09
8.05401e-09
8.13237e-09
8.06221e-09
7.84703e-09
7.49748e-09
7.03057e-09
6.46829e-09
5.83596e-09
5.16033e-09
4.4676e-09
3.78158e-09
3.12209e-09
2.50369e-09
1.9348e-09
1.41737e-09
9.47005e-10
5.13664e-10
1.0272e-10
3.55718e-12
3.5097e-12
1.01372e-10
5.07176e-10
9.35382e-10
1.4006e-09
1.91299e-09
2.47716e-09
3.09146e-09
3.74774e-09
4.43174e-09
5.12388e-09
5.8005e-09
6.43547e-09
7.002e-09
7.47462e-09
7.83107e-09
8.05401e-09
8.13238e-09
8.06221e-09
7.84703e-09
7.49748e-09
7.03057e-09
6.46829e-09
5.83596e-09
5.16033e-09
4.4676e-09
3.78158e-09
3.12209e-09
2.50369e-09
1.9348e-09
1.41737e-09
9.47005e-10
5.13664e-10
1.0272e-10
3.55718e-12
3.5097e-12
1.01372e-10
5.07176e-10
9.35382e-10
1.4006e-09
1.91299e-09
2.47716e-09
3.09146e-09
3.74774e-09
4.43174e-09
5.12388e-09
5.8005e-09
6.43547e-09
7.002e-09
7.47462e-09
7.83107e-09
8.05401e-09
8.13238e-09
8.06221e-09
7.84703e-09
7.49748e-09
7.03057e-09
6.46829e-09
5.83596e-09
5.16033e-09
4.4676e-09
3.78158e-09
3.12209e-09
2.50369e-09
1.9348e-09
1.41737e-09
9.47005e-10
5.13664e-10
1.0272e-10
3.55718e-12
3.5097e-12
1.01372e-10
5.07176e-10
9.35382e-10
1.4006e-09
1.91299e-09
2.47716e-09
3.09146e-09
3.74774e-09
4.43174e-09
5.12388e-09
5.8005e-09
6.43547e-09
7.002e-09
7.47462e-09
7.83107e-09
8.05401e-09
8.13238e-09
8.06221e-09
7.84703e-09
7.49748e-09
7.03057e-09
6.46829e-09
5.83596e-09
5.16033e-09
4.4676e-09
3.78158e-09
3.12209e-09
2.50369e-09
1.9348e-09
1.41737e-09
9.47005e-10
5.13664e-10
1.0272e-10
3.55718e-12
3.5097e-12
1.01372e-10
5.07176e-10
9.35382e-10
1.4006e-09
1.91299e-09
2.47716e-09
3.09146e-09
3.74774e-09
4.43174e-09
5.12388e-09
5.8005e-09
6.43547e-09
7.002e-09
7.47462e-09
7.83107e-09
8.05401e-09
8.13238e-09
8.06221e-09
7.84703e-09
7.49748e-09
7.03057e-09
6.46829e-09
5.83596e-09
5.16033e-09
4.4676e-09
3.78158e-09
3.12209e-09
2.50369e-09
1.9348e-09
1.41737e-09
9.47005e-10
5.13664e-10
1.0272e-10
3.55718e-12
3.5097e-12
1.01372e-10
5.07176e-10
9.35382e-10
1.4006e-09
1.91299e-09
2.47716e-09
3.09146e-09
3.74774e-09
4.43174e-09
5.12388e-09
5.8005e-09
6.43547e-09
7.002e-09
7.47462e-09
7.83107e-09
8.05401e-09
8.13238e-09
8.06221e-09
7.84703e-09
7.49748e-09
7.03057e-09
6.46829e-09
5.83596e-09
5.16033e-09
4.4676e-09
3.78158e-09
3.12209e-09
2.50369e-09
1.9348e-09
1.41737e-09
9.47005e-10
5.13664e-10
1.0272e-10
3.55718e-12
3.5097e-12
1.01372e-10
5.07176e-10
9.35382e-10
1.4006e-09
1.91299e-09
2.47716e-09
3.09146e-09
3.74774e-09
4.43174e-09
5.12388e-09
5.8005e-09
6.43547e-09
7.002e-09
7.47462e-09
7.83107e-09
8.05401e-09
8.13238e-09
8.06221e-09
7.84703e-09
7.49748e-09
7.03057e-09
6.46829e-09
5.83596e-09
5.16033e-09
4.4676e-09
3.78158e-09
3.12209e-09
2.50369e-09
1.9348e-09
1.41737e-09
9.47005e-10
5.13664e-10
1.0272e-10
3.55718e-12
3.5097e-12
1.01372e-10
5.07176e-10
9.35382e-10
1.4006e-09
1.91299e-09
2.47716e-09
3.09146e-09
3.74774e-09
4.43174e-09
5.12388e-09
5.8005e-09
6.43547e-09
7.002e-09
7.47462e-09
7.83107e-09
8.05401e-09
8.13238e-09
8.06221e-09
7.84703e-09
7.49748e-09
7.03057e-09
6.46829e-09
5.83596e-09
5.16033e-09
4.4676e-09
3.78158e-09
3.12209e-09
2.50369e-09
1.9348e-09
1.41737e-09
9.47005e-10
5.13664e-10
1.0272e-10
3.55718e-12
3.5097e-12
1.01372e-10
5.07176e-10
9.35382e-10
1.4006e-09
1.91299e-09
2.47716e-09
3.09146e-09
3.74774e-09
4.43174e-09
5.12388e-09
5.8005e-09
6.43547e-09
7.002e-09
7.47462e-09
7.83107e-09
8.05401e-09
8.13238e-09
8.06221e-09
7.84703e-09
7.49748e-09
7.03057e-09
6.46829e-09
5.83596e-09
5.16033e-09
4.4676e-09
3.78158e-09
3.12209e-09
2.50369e-09
1.9348e-09
1.41737e-09
9.47005e-10
5.13664e-10
1.0272e-10
3.55718e-12
3.5097e-12
1.01372e-10
5.07176e-10
9.35382e-10
1.4006e-09
1.91299e-09
2.47716e-09
3.09146e-09
3.74774e-09
4.43174e-09
5.12388e-09
5.8005e-09
6.43547e-09
7.002e-09
7.47462e-09
7.83107e-09
8.05401e-09
8.13238e-09
8.06221e-09
7.84703e-09
7.49748e-09
7.03057e-09
6.46829e-09
5.83596e-09
5.16033e-09
4.4676e-09
3.78158e-09
3.12209e-09
2.50369e-09
1.9348e-09
1.41737e-09
9.47005e-10
5.13664e-10
1.0272e-10
3.55718e-12
3.5097e-12
1.01372e-10
5.07176e-10
9.35382e-10
1.4006e-09
1.91299e-09
2.47716e-09
3.09146e-09
3.74774e-09
4.43174e-09
5.12388e-09
5.8005e-09
6.43547e-09
7.002e-09
7.47462e-09
7.83107e-09
8.05401e-09
8.13238e-09
8.06221e-09
7.84703e-09
7.49748e-09
7.03057e-09
6.46829e-09
5.83596e-09
5.16033e-09
4.4676e-09
3.78158e-09
3.12209e-09
2.50369e-09
1.9348e-09
1.41737e-09
9.47005e-10
5.13664e-10
1.0272e-10
3.55718e-12
3.5097e-12
1.01372e-10
5.07176e-10
9.35382e-10
1.4006e-09
1.91299e-09
2.47716e-09
3.09146e-09
3.74774e-09
4.43174e-09
5.12388e-09
5.8005e-09
6.43547e-09
7.002e-09
7.47462e-09
7.83107e-09
8.05401e-09
8.13238e-09
8.06221e-09
7.84703e-09
7.49748e-09
7.03057e-09
6.46829e-09
5.83596e-09
5.16033e-09
4.4676e-09
3.78158e-09
3.12209e-09
2.50369e-09
1.9348e-09
1.41737e-09
9.47005e-10
5.13664e-10
1.0272e-10
3.55718e-12
3.5097e-12
1.01372e-10
5.07176e-10
9.35382e-10
1.4006e-09
1.91299e-09
2.47716e-09
3.09146e-09
3.74774e-09
4.43174e-09
5.12388e-09
5.8005e-09
6.43547e-09
7.002e-09
7.47462e-09
7.83107e-09
8.05401e-09
8.13238e-09
8.06221e-09
7.84703e-09
7.49748e-09
7.03057e-09
6.46829e-09
5.83596e-09
5.16033e-09
4.4676e-09
3.78158e-09
3.12209e-09
2.50369e-09
1.9348e-09
1.41737e-09
9.47005e-10
5.13664e-10
1.0272e-10
3.55718e-12
3.5097e-12
1.01372e-10
5.07176e-10
9.35382e-10
1.4006e-09
1.91299e-09
2.47716e-09
3.09146e-09
3.74774e-09
4.43174e-09
5.12388e-09
5.8005e-09
6.43547e-09
7.002e-09
7.47462e-09
7.83107e-09
8.05401e-09
8.13238e-09
8.06221e-09
7.84703e-09
7.49748e-09
7.03057e-09
6.46829e-09
5.83596e-09
5.16033e-09
4.4676e-09
3.78158e-09
3.12209e-09
2.50369e-09
1.9348e-09
1.41737e-09
9.47005e-10
5.13664e-10
1.0272e-10
3.55718e-12
3.5097e-12
1.01372e-10
5.07176e-10
9.35382e-10
1.4006e-09
1.91299e-09
2.47716e-09
3.09146e-09
3.74774e-09
4.43174e-09
5.12388e-09
5.8005e-09
6.43547e-09
7.002e-09
7.47462e-09
7.83107e-09
8.05401e-09
8.13238e-09
8.06221e-09
7.84703e-09
7.49748e-09
7.03057e-09
6.46829e-09
5.83596e-09
5.16033e-09
4.4676e-09
3.78158e-09
3.12209e-09
2.50369e-09
1.9348e-09
1.41737e-09
9.47005e-10
5.13664e-10
1.0272e-10
3.55718e-12
3.5097e-12
1.01372e-10
5.07176e-10
9.35382e-10
1.4006e-09
1.91299e-09
2.47716e-09
3.09146e-09
3.74774e-09
4.43174e-09
5.12388e-09
5.8005e-09
6.43547e-09
7.002e-09
7.47462e-09
7.83107e-09
8.05401e-09
8.13238e-09
8.06221e-09
7.84703e-09
7.49748e-09
7.03057e-09
6.46829e-09
5.83596e-09
5.16033e-09
4.4676e-09
3.78158e-09
3.12209e-09
2.50369e-09
1.9348e-09
1.41737e-09
9.47005e-10
5.13664e-10
1.0272e-10
3.55718e-12
3.5097e-12
1.01372e-10
5.07176e-10
9.35382e-10
1.4006e-09
1.91299e-09
2.47716e-09
3.09146e-09
3.74774e-09
4.43174e-09
5.12388e-09
5.8005e-09
6.43547e-09
7.002e-09
7.47462e-09
7.83107e-09
8.05401e-09
8.13238e-09
8.06221e-09
7.84703e-09
7.49748e-09
7.03057e-09
6.46829e-09
5.83596e-09
5.16033e-09
4.4676e-09
3.78158e-09
3.12209e-09
2.50369e-09
1.9348e-09
1.41737e-09
9.47005e-10
5.13664e-10
1.0272e-10
3.55718e-12
3.5097e-12
1.01372e-10
5.07176e-10
9.35382e-10
1.4006e-09
1.91299e-09
2.47716e-09
3.09146e-09
3.74774e-09
4.43174e-09
5.12388e-09
5.8005e-09
6.43547e-09
7.002e-09
7.47462e-09
7.83107e-09
8.05401e-09
8.13238e-09
8.06221e-09
7.84703e-09
7.49748e-09
7.03057e-09
6.46829e-09
5.83596e-09
5.16033e-09
4.4676e-09
3.78158e-09
3.12209e-09
2.50369e-09
1.9348e-09
1.41737e-09
9.47005e-10
5.13664e-10
1.0272e-10
3.55718e-12
3.5097e-12
1.01372e-10
5.07176e-10
9.35382e-10
1.4006e-09
1.91299e-09
2.47716e-09
3.09146e-09
3.74774e-09
4.43174e-09
5.12388e-09
5.8005e-09
6.43547e-09
7.002e-09
7.47462e-09
7.83107e-09
8.05401e-09
8.13238e-09
8.06221e-09
7.84703e-09
7.49748e-09
7.03057e-09
6.46829e-09
5.83596e-09
5.16033e-09
4.4676e-09
3.78158e-09
3.12209e-09
2.50369e-09
1.9348e-09
1.41737e-09
9.47005e-10
5.13664e-10
1.0272e-10
3.55718e-12
3.5097e-12
1.01372e-10
5.07176e-10
9.35382e-10
1.4006e-09
1.91299e-09
2.47716e-09
3.09146e-09
3.74774e-09
4.43174e-09
5.12388e-09
5.8005e-09
6.43547e-09
7.002e-09
7.47462e-09
7.83107e-09
8.05401e-09
8.13238e-09
8.06221e-09
7.84703e-09
7.49748e-09
7.03057e-09
6.46829e-09
5.83596e-09
5.16033e-09
4.4676e-09
3.78158e-09
3.12209e-09
2.50369e-09
1.9348e-09
1.41737e-09
9.47005e-10
5.13664e-10
1.0272e-10
3.55718e-12
3.5097e-12
1.01372e-10
5.07176e-10
9.35382e-10
1.4006e-09
1.91299e-09
2.47716e-09
3.09146e-09
3.74774e-09
4.43174e-09
5.12388e-09
5.8005e-09
6.43547e-09
7.002e-09
7.47462e-09
7.83107e-09
8.05401e-09
8.13238e-09
8.06221e-09
7.84703e-09
7.49748e-09
7.03057e-09
6.46829e-09
5.83596e-09
5.16033e-09
4.4676e-09
3.78158e-09
3.12209e-09
2.50369e-09
1.9348e-09
1.41737e-09
9.47005e-10
5.13664e-10
1.0272e-10
3.55718e-12
3.5097e-12
1.01372e-10
5.07176e-10
9.35382e-10
1.4006e-09
1.91299e-09
2.47716e-09
3.09146e-09
3.74774e-09
4.43174e-09
5.12388e-09
5.8005e-09
6.43547e-09
7.002e-09
7.47462e-09
7.83107e-09
8.05401e-09
8.13238e-09
8.06221e-09
7.84703e-09
7.49748e-09
7.03057e-09
6.46829e-09
5.83596e-09
5.16033e-09
4.4676e-09
3.78158e-09
3.12209e-09
2.50369e-09
1.9348e-09
1.41737e-09
9.47005e-10
5.13664e-10
1.0272e-10
3.55718e-12
3.5097e-12
1.01372e-10
5.07176e-10
9.35382e-10
1.4006e-09
1.91299e-09
2.47716e-09
3.09146e-09
3.74774e-09
4.43174e-09
5.12388e-09
5.8005e-09
6.43547e-09
7.002e-09
7.47462e-09
7.83107e-09
8.05401e-09
8.13238e-09
8.06221e-09
7.84703e-09
7.49748e-09
7.03057e-09
6.46829e-09
5.83596e-09
5.16033e-09
4.4676e-09
3.78158e-09
3.12209e-09
2.50369e-09
1.9348e-09
1.41737e-09
9.47005e-10
5.13664e-10
1.0272e-10
3.55718e-12
3.5097e-12
1.01372e-10
5.07176e-10
9.35382e-10
1.4006e-09
1.91299e-09
2.47716e-09
3.09146e-09
3.74774e-09
4.43174e-09
5.12388e-09
5.8005e-09
6.43547e-09
7.002e-09
7.47462e-09
7.83107e-09
8.05401e-09
8.13238e-09
8.06221e-09
7.84703e-09
7.49748e-09
7.03057e-09
6.46829e-09
5.83596e-09
5.16033e-09
4.4676e-09
3.78158e-09
3.12209e-09
2.50369e-09
1.9348e-09
1.41737e-09
9.47005e-10
5.13664e-10
1.0272e-10
3.55718e-12
3.5097e-12
1.01372e-10
5.07176e-10
9.35382e-10
1.4006e-09
1.91299e-09
2.47716e-09
3.09146e-09
3.74774e-09
4.43174e-09
5.12388e-09
5.8005e-09
6.43547e-09
7.002e-09
7.47462e-09
7.83107e-09
8.05401e-09
8.13238e-09
8.06221e-09
7.84703e-09
7.49748e-09
7.03057e-09
6.46829e-09
5.83596e-09
5.16033e-09
4.4676e-09
3.78158e-09
3.12209e-09
2.50369e-09
1.9348e-09
1.41737e-09
9.47005e-10
5.13664e-10
1.0272e-10
3.55718e-12
3.5097e-12
1.01372e-10
5.07176e-10
9.35382e-10
1.4006e-09
1.91299e-09
2.47716e-09
3.09146e-09
3.74774e-09
4.43174e-09
5.12388e-09
5.8005e-09
6.43547e-09
7.002e-09
7.47462e-09
7.83107e-09
8.05401e-09
8.13238e-09
8.06221e-09
7.84703e-09
7.49748e-09
7.03057e-09
6.46829e-09
5.83596e-09
5.16033e-09
4.4676e-09
3.78158e-09
3.12209e-09
2.50369e-09
1.9348e-09
1.41737e-09
9.47005e-10
5.13664e-10
1.0272e-10
3.55718e-12
3.5097e-12
1.01372e-10
5.07176e-10
9.35382e-10
1.4006e-09
1.91299e-09
2.47716e-09
3.09146e-09
3.74774e-09
4.43174e-09
5.12388e-09
5.8005e-09
6.43547e-09
7.002e-09
7.47462e-09
7.83107e-09
8.05401e-09
8.13238e-09
8.06221e-09
7.84703e-09
7.49748e-09
7.03057e-09
6.46829e-09
5.83596e-09
5.16033e-09
4.4676e-09
3.78158e-09
3.12209e-09
2.50369e-09
1.9348e-09
1.41737e-09
9.47005e-10
5.13664e-10
1.0272e-10
3.55718e-12
3.5097e-12
1.01372e-10
5.07176e-10
9.35382e-10
1.4006e-09
1.91299e-09
2.47716e-09
3.09146e-09
3.74774e-09
4.43174e-09
5.12388e-09
5.8005e-09
6.43547e-09
7.002e-09
7.47462e-09
7.83107e-09
8.05401e-09
8.13238e-09
8.06221e-09
7.84703e-09
7.49748e-09
7.03057e-09
6.46829e-09
5.83596e-09
5.16033e-09
4.4676e-09
3.78158e-09
3.12209e-09
2.50369e-09
1.9348e-09
1.41737e-09
9.47005e-10
5.13664e-10
1.0272e-10
3.55718e-12
3.5097e-12
1.01372e-10
5.07176e-10
9.35382e-10
1.4006e-09
1.91299e-09
2.47716e-09
3.09146e-09
3.74774e-09
4.43174e-09
5.12388e-09
5.8005e-09
6.43547e-09
7.002e-09
7.47462e-09
7.83107e-09
8.05401e-09
8.13238e-09
8.06221e-09
7.84703e-09
7.49748e-09
7.03057e-09
6.46829e-09
5.83596e-09
5.16033e-09
4.4676e-09
3.78158e-09
3.12209e-09
2.50369e-09
1.9348e-09
1.41737e-09
9.47005e-10
5.13664e-10
1.0272e-10
3.55718e-12
3.5097e-12
1.01372e-10
5.07176e-10
9.35382e-10
1.4006e-09
1.91299e-09
2.47716e-09
3.09146e-09
3.74774e-09
4.43174e-09
5.12388e-09
5.8005e-09
6.43547e-09
7.002e-09
7.47462e-09
7.83107e-09
8.05401e-09
8.13238e-09
8.06221e-09
7.84703e-09
7.49748e-09
7.03057e-09
6.46829e-09
5.83596e-09
5.16033e-09
4.4676e-09
3.78158e-09
3.12209e-09
2.50369e-09
1.9348e-09
1.41737e-09
9.47005e-10
5.13664e-10
1.0272e-10
3.55718e-12
3.5097e-12
1.01372e-10
5.07176e-10
9.35382e-10
1.4006e-09
1.91299e-09
2.47716e-09
3.09146e-09
3.74774e-09
4.43174e-09
5.12388e-09
5.8005e-09
6.43547e-09
7.002e-09
7.47462e-09
7.83107e-09
8.05401e-09
8.13238e-09
8.06221e-09
7.84703e-09
7.49748e-09
7.03057e-09
6.46829e-09
5.83596e-09
5.16033e-09
4.4676e-09
3.78158e-09
3.12209e-09
2.50369e-09
1.9348e-09
1.41737e-09
9.47005e-10
5.13664e-10
1.0272e-10
3.55718e-12
3.5097e-12
1.01372e-10
5.07176e-10
9.35382e-10
1.4006e-09
1.91299e-09
2.47716e-09
3.09146e-09
3.74774e-09
4.43174e-09
5.12388e-09
5.8005e-09
6.43547e-09
7.002e-09
7.47462e-09
7.83107e-09
8.05401e-09
8.13238e-09
8.06221e-09
7.84703e-09
7.49748e-09
7.03057e-09
6.46829e-09
5.83596e-09
5.16033e-09
4.4676e-09
3.78158e-09
3.12209e-09
2.50369e-09
1.9348e-09
1.41737e-09
9.47005e-10
5.13664e-10
1.0272e-10
3.55718e-12
3.5097e-12
1.01372e-10
5.07176e-10
9.35382e-10
1.4006e-09
1.91299e-09
2.47716e-09
3.09146e-09
3.74774e-09
4.43174e-09
5.12388e-09
5.8005e-09
6.43547e-09
7.002e-09
7.47462e-09
7.83107e-09
8.05401e-09
8.13238e-09
8.06221e-09
7.84703e-09
7.49748e-09
7.03057e-09
6.46829e-09
5.83596e-09
5.16033e-09
4.4676e-09
3.78158e-09
3.12209e-09
2.50369e-09
1.9348e-09
1.41737e-09
9.47005e-10
5.13664e-10
1.0272e-10
3.55718e-12
3.5097e-12
1.01372e-10
5.07176e-10
9.35382e-10
1.4006e-09
1.91299e-09
2.47716e-09
3.09146e-09
3.74774e-09
4.43174e-09
5.12388e-09
5.8005e-09
6.43547e-09
7.002e-09
7.47462e-09
7.83107e-09
8.05401e-09
8.13238e-09
8.06221e-09
7.84703e-09
7.49748e-09
7.03057e-09
6.46829e-09
5.83596e-09
5.16033e-09
4.4676e-09
3.78158e-09
3.12209e-09
2.50369e-09
1.9348e-09
1.41737e-09
9.47005e-10
5.13664e-10
1.0272e-10
3.55718e-12
3.5097e-12
1.01372e-10
5.07176e-10
9.35382e-10
1.4006e-09
1.91299e-09
2.47716e-09
3.09146e-09
3.74774e-09
4.43174e-09
5.12388e-09
5.8005e-09
6.43547e-09
7.002e-09
7.47462e-09
7.83107e-09
8.05401e-09
8.13238e-09
8.06221e-09
7.84703e-09
7.49748e-09
7.03057e-09
6.46829e-09
5.83596e-09
5.16033e-09
4.4676e-09
3.78158e-09
3.12209e-09
2.50369e-09
1.9348e-09
1.41737e-09
9.47005e-10
5.13664e-10
1.0272e-10
3.55718e-12
3.5097e-12
1.01372e-10
5.07176e-10
9.35382e-10
1.4006e-09
1.91299e-09
2.47716e-09
3.09146e-09
3.74774e-09
4.43174e-09
5.12388e-09
5.8005e-09
6.43547e-09
7.002e-09
7.47462e-09
7.83107e-09
8.05401e-09
8.13238e-09
8.06221e-09
7.84703e-09
7.49748e-09
7.03057e-09
6.46829e-09
5.83596e-09
5.16033e-09
4.4676e-09
3.78158e-09
3.12209e-09
2.50369e-09
1.9348e-09
1.41737e-09
9.47005e-10
5.13664e-10
1.0272e-10
3.55718e-12
3.5097e-12
1.01372e-10
5.07176e-10
9.35382e-10
1.4006e-09
1.91299e-09
2.47716e-09
3.09146e-09
3.74774e-09
4.43174e-09
5.12388e-09
5.8005e-09
6.43547e-09
7.002e-09
7.47462e-09
7.83107e-09
8.05401e-09
8.13238e-09
8.06221e-09
7.84703e-09
7.49748e-09
7.03057e-09
6.46829e-09
5.83596e-09
5.16033e-09
4.4676e-09
3.78158e-09
3.12209e-09
2.50369e-09
1.9348e-09
1.41737e-09
9.47005e-10
5.13664e-10
1.0272e-10
3.55718e-12
3.5097e-12
1.01372e-10
5.07176e-10
9.35382e-10
1.4006e-09
1.91299e-09
2.47716e-09
3.09146e-09
3.74774e-09
4.43174e-09
5.12388e-09
5.8005e-09
6.43547e-09
7.002e-09
7.47462e-09
7.83107e-09
8.05401e-09
8.13238e-09
8.06221e-09
7.84703e-09
7.49748e-09
7.03057e-09
6.46829e-09
5.83596e-09
5.16033e-09
4.4676e-09
3.78158e-09
3.12209e-09
2.50369e-09
1.9348e-09
1.41737e-09
9.47005e-10
5.13664e-10
1.0272e-10
3.55718e-12
3.5097e-12
1.01372e-10
5.07176e-10
9.35382e-10
1.4006e-09
1.91299e-09
2.47716e-09
3.09146e-09
3.74774e-09
4.43174e-09
5.12388e-09
5.8005e-09
6.43547e-09
7.002e-09
7.47462e-09
7.83107e-09
8.05401e-09
8.13238e-09
8.06221e-09
7.84703e-09
7.49748e-09
7.03057e-09
6.46829e-09
5.83596e-09
5.16033e-09
4.4676e-09
3.78158e-09
3.12209e-09
2.50369e-09
1.9348e-09
1.41737e-09
9.47005e-10
5.13664e-10
1.0272e-10
3.55718e-12
3.5097e-12
1.01372e-10
5.07176e-10
9.35382e-10
1.4006e-09
1.91299e-09
2.47716e-09
3.09146e-09
3.74774e-09
4.43174e-09
5.12388e-09
5.8005e-09
6.43547e-09
7.002e-09
7.47462e-09
7.83107e-09
8.05401e-09
8.13238e-09
8.06221e-09
7.84703e-09
7.49748e-09
7.03057e-09
6.46829e-09
5.83596e-09
5.16033e-09
4.4676e-09
3.78158e-09
3.12209e-09
2.50369e-09
1.9348e-09
1.41737e-09
9.47005e-10
5.13664e-10
1.0272e-10
3.55718e-12
3.5097e-12
1.01372e-10
5.07176e-10
9.35382e-10
1.4006e-09
1.91299e-09
2.47716e-09
3.09146e-09
3.74774e-09
4.43174e-09
5.12388e-09
5.8005e-09
6.43547e-09
7.002e-09
7.47462e-09
7.83107e-09
8.05401e-09
8.13238e-09
8.06221e-09
7.84703e-09
7.49748e-09
7.03057e-09
6.46829e-09
5.83596e-09
5.16033e-09
4.4676e-09
3.78158e-09
3.12209e-09
2.50369e-09
1.9348e-09
1.41737e-09
9.47005e-10
5.13664e-10
1.0272e-10
3.55718e-12
3.5097e-12
1.01372e-10
5.07176e-10
9.35382e-10
1.4006e-09
1.91299e-09
2.47716e-09
3.09146e-09
3.74774e-09
4.43174e-09
5.12388e-09
5.8005e-09
6.43547e-09
7.002e-09
7.47462e-09
7.83107e-09
8.05401e-09
8.13238e-09
8.06221e-09
7.84703e-09
7.49748e-09
7.03057e-09
6.46829e-09
5.83596e-09
5.16033e-09
4.4676e-09
3.78158e-09
3.12209e-09
2.50369e-09
1.9348e-09
1.41737e-09
9.47005e-10
5.13664e-10
1.0272e-10
3.55718e-12
3.5097e-12
1.01372e-10
5.07176e-10
9.35382e-10
1.4006e-09
1.91299e-09
2.47716e-09
3.09146e-09
3.74774e-09
4.43174e-09
5.12388e-09
5.8005e-09
6.43547e-09
7.002e-09
7.47462e-09
7.83107e-09
8.05401e-09
8.13238e-09
8.06221e-09
7.84703e-09
7.49748e-09
7.03057e-09
6.46829e-09
5.83596e-09
5.16033e-09
4.4676e-09
3.78158e-09
3.12209e-09
2.50369e-09
1.9348e-09
1.41737e-09
9.47005e-10
5.13664e-10
1.0272e-10
3.55718e-12
3.5097e-12
1.01372e-10
5.07176e-10
9.35382e-10
1.4006e-09
1.91299e-09
2.47716e-09
3.09146e-09
3.74774e-09
4.43174e-09
5.12388e-09
5.8005e-09
6.43547e-09
7.002e-09
7.47462e-09
7.83107e-09
8.05401e-09
8.13238e-09
8.06221e-09
7.84703e-09
7.49748e-09
7.03057e-09
6.46829e-09
5.83596e-09
5.16033e-09
4.4676e-09
3.78158e-09
3.12209e-09
2.50369e-09
1.9348e-09
1.41737e-09
9.47005e-10
5.13664e-10
1.0272e-10
3.55718e-12
3.5097e-12
1.01372e-10
5.07176e-10
9.35382e-10
1.4006e-09
1.91299e-09
2.47716e-09
3.09146e-09
3.74774e-09
4.43174e-09
5.12388e-09
5.8005e-09
6.43547e-09
7.002e-09
7.47462e-09
7.83107e-09
8.05401e-09
8.13238e-09
8.06221e-09
7.84703e-09
7.49748e-09
7.03057e-09
6.46829e-09
5.83596e-09
5.16033e-09
4.4676e-09
3.78158e-09
3.12209e-09
2.50369e-09
1.9348e-09
1.41737e-09
9.47005e-10
5.13664e-10
1.0272e-10
3.55718e-12
3.5097e-12
1.01372e-10
5.07176e-10
9.35382e-10
1.4006e-09
1.91299e-09
2.47716e-09
3.09146e-09
3.74774e-09
4.43174e-09
5.12388e-09
5.8005e-09
6.43547e-09
7.002e-09
7.47462e-09
7.83107e-09
8.05401e-09
8.13238e-09
8.06221e-09
7.84703e-09
7.49748e-09
7.03057e-09
6.46829e-09
5.83596e-09
5.16033e-09
4.4676e-09
3.78158e-09
3.12209e-09
2.50369e-09
1.9348e-09
1.41737e-09
9.47005e-10
5.13664e-10
1.0272e-10
3.55718e-12
3.5097e-12
1.01372e-10
5.07176e-10
9.35382e-10
1.4006e-09
1.91299e-09
2.47716e-09
3.09146e-09
3.74774e-09
4.43174e-09
5.12388e-09
5.8005e-09
6.43547e-09
7.002e-09
7.47462e-09
7.83107e-09
8.05401e-09
8.13238e-09
8.06221e-09
7.84703e-09
7.49748e-09
7.03057e-09
6.46829e-09
5.83596e-09
5.16033e-09
4.4676e-09
3.78158e-09
3.12209e-09
2.50369e-09
1.9348e-09
1.41737e-09
9.47005e-10
5.13664e-10
1.0272e-10
3.55718e-12
3.5097e-12
1.01372e-10
5.07176e-10
9.35382e-10
1.4006e-09
1.91299e-09
2.47716e-09
3.09146e-09
3.74774e-09
4.43174e-09
5.12388e-09
5.8005e-09
6.43547e-09
7.002e-09
7.47462e-09
7.83107e-09
8.05401e-09
8.13238e-09
8.06221e-09
7.84703e-09
7.49748e-09
7.03057e-09
6.46829e-09
5.83596e-09
5.16033e-09
4.4676e-09
3.78158e-09
3.12209e-09
2.50369e-09
1.9348e-09
1.41737e-09
9.47005e-10
5.13664e-10
1.0272e-10
3.55718e-12
3.5097e-12
1.01372e-10
5.07176e-10
9.35382e-10
1.4006e-09
1.91299e-09
2.47716e-09
3.09146e-09
3.74774e-09
4.43174e-09
5.12388e-09
5.8005e-09
6.43547e-09
7.002e-09
7.47462e-09
7.83107e-09
8.05401e-09
8.13238e-09
8.06221e-09
7.84703e-09
7.49748e-09
7.03057e-09
6.46829e-09
5.83596e-09
5.16033e-09
4.4676e-09
3.78158e-09
3.12209e-09
2.50369e-09
1.9348e-09
1.41737e-09
9.47005e-10
5.13664e-10