/*--------------------------------*- C++ -*----------------------------------*\
  =========                 |
  \\      /  F ield         | OpenFOAM: The Open Source CFD Toolbox
   \\    /   O peration     | Website:  https://openfoam.org
    \\  /    A nd           | Version:  13
     \\/     M anipulation  |
\*---------------------------------------------------------------------------*/
FoamFile
{
    format      ascii;
    class       volScalarField;
    location    "162.5";
    object      rhok;
}
// * * * * * * * * * * * * * * * * * * * * * * * * * * * * * * * * * * * * * //

dimensions      [];

internalField   nonuniform List<scalar> 
315000
(
0.44463
0.429952
0.41525
0.413843
0.413106
0.412372
0.411639
0.410909
0.410181
0.409456
0.408733
0.408013
0.407295
0.406579
0.405866
0.405155
0.404448
0.403742
0.40304
0.40234
0.401642
0.400948
0.400256
0.399566
0.39888
0.398196
0.397515
0.396836
0.39616
0.395487
0.394817
0.394149
0.393484
0.392821
0.392161
0.391504
0.390849
0.390197
0.389547
0.388899
0.388254
0.387611
0.386971
0.386333
0.385697
0.385063
0.384431
0.383801
0.383173
0.382547
0.381923
0.381301
0.38068
0.380061
0.379443
0.378827
0.378212
0.377599
0.376986
0.376375
0.375765
0.375155
0.374547
0.373939
0.373332
0.372725
0.372119
0.371513
0.370907
0.370302
0.44463
0.42995
0.415247
0.41384
0.413104
0.412369
0.411637
0.410906
0.410179
0.409453
0.40873
0.40801
0.407292
0.406576
0.405863
0.405153
0.404445
0.403739
0.403037
0.402337
0.401639
0.400945
0.400253
0.399563
0.398877
0.398193
0.397512
0.396833
0.396157
0.395484
0.394814
0.394146
0.393481
0.392818
0.392158
0.391501
0.390846
0.390194
0.389544
0.388897
0.388252
0.387609
0.386968
0.38633
0.385694
0.385061
0.384429
0.383799
0.383171
0.382545
0.381921
0.381299
0.380678
0.380059
0.379442
0.378826
0.378211
0.377597
0.376985
0.376374
0.375764
0.375155
0.374546
0.373938
0.373331
0.372725
0.372119
0.371513
0.370907
0.370302
0.44463
0.429949
0.415245
0.413838
0.413101
0.412367
0.411634
0.410904
0.410176
0.409451
0.408728
0.408007
0.407289
0.406574
0.405861
0.40515
0.404442
0.403737
0.403034
0.402334
0.401637
0.400942
0.40025
0.399561
0.398874
0.39819
0.397509
0.396831
0.396155
0.395482
0.394811
0.394144
0.393478
0.392816
0.392156
0.391499
0.390844
0.390192
0.389542
0.388894
0.388249
0.387607
0.386966
0.386328
0.385692
0.385059
0.384427
0.383797
0.38317
0.382544
0.38192
0.381297
0.380677
0.380058
0.37944
0.378824
0.37821
0.377596
0.376984
0.376373
0.375763
0.375154
0.374545
0.373938
0.373331
0.372724
0.372118
0.371513
0.370907
0.370302
0.44463
0.429948
0.415244
0.413836
0.413099
0.412365
0.411632
0.410902
0.410174
0.409449
0.408726
0.408005
0.407287
0.406571
0.405858
0.405148
0.40444
0.403735
0.403032
0.402332
0.401634
0.40094
0.400248
0.399559
0.398872
0.398188
0.397507
0.396828
0.396153
0.39548
0.394809
0.394141
0.393476
0.392814
0.392154
0.391497
0.390842
0.390189
0.38954
0.388892
0.388247
0.387605
0.386964
0.386326
0.385691
0.385057
0.384425
0.383796
0.383168
0.382542
0.381918
0.381296
0.380676
0.380057
0.379439
0.378823
0.378209
0.377595
0.376983
0.376372
0.375762
0.375153
0.374545
0.373937
0.37333
0.372724
0.372118
0.371512
0.370907
0.370302
0.44463
0.429948
0.415242
0.413835
0.413098
0.412363
0.411631
0.4109
0.410173
0.409447
0.408724
0.408003
0.407285
0.40657
0.405856
0.405146
0.404438
0.403733
0.40303
0.40233
0.401633
0.400938
0.400246
0.399557
0.39887
0.398186
0.397505
0.396826
0.396151
0.395478
0.394807
0.394139
0.393474
0.392812
0.392152
0.391495
0.39084
0.390188
0.389538
0.388891
0.388246
0.387603
0.386963
0.386325
0.385689
0.385055
0.384424
0.383794
0.383167
0.382541
0.381917
0.381295
0.380674
0.380056
0.379438
0.378822
0.378208
0.377595
0.376983
0.376372
0.375762
0.375153
0.374544
0.373937
0.37333
0.372724
0.372118
0.371512
0.370907
0.370302
0.44463
0.429947
0.415241
0.413833
0.413097
0.412362
0.411629
0.410899
0.410171
0.409446
0.408722
0.408002
0.407284
0.406568
0.405855
0.405144
0.404436
0.403731
0.403028
0.402328
0.401631
0.400936
0.400244
0.399555
0.398868
0.398184
0.397503
0.396825
0.396149
0.395476
0.394806
0.394138
0.393473
0.39281
0.39215
0.391493
0.390838
0.390186
0.389537
0.388889
0.388244
0.387602
0.386962
0.386324
0.385688
0.385054
0.384423
0.383793
0.383166
0.38254
0.381916
0.381294
0.380674
0.380055
0.379437
0.378822
0.378207
0.377594
0.376982
0.376371
0.375761
0.375152
0.374544
0.373936
0.37333
0.372723
0.372117
0.371512
0.370907
0.370302
0.44463
0.429946
0.41524
0.413832
0.413095
0.412361
0.411628
0.410898
0.41017
0.409444
0.408721
0.408001
0.407282
0.406567
0.405854
0.405143
0.404435
0.40373
0.403027
0.402327
0.40163
0.400935
0.400243
0.399554
0.398867
0.398183
0.397502
0.396823
0.396148
0.395475
0.394804
0.394137
0.393471
0.392809
0.392149
0.391492
0.390837
0.390185
0.389535
0.388888
0.388243
0.387601
0.38696
0.386323
0.385687
0.385053
0.384422
0.383792
0.383165
0.382539
0.381915
0.381293
0.380673
0.380054
0.379437
0.378821
0.378207
0.377593
0.376981
0.37637
0.375761
0.375152
0.374544
0.373936
0.373329
0.372723
0.372117
0.371512
0.370907
0.370302
0.44463
0.429946
0.415239
0.413832
0.413095
0.41236
0.411627
0.410897
0.410169
0.409443
0.40872
0.408
0.407281
0.406566
0.405853
0.405142
0.404434
0.403729
0.403026
0.402326
0.401629
0.400934
0.400242
0.399553
0.398866
0.398182
0.397501
0.396822
0.396147
0.395474
0.394803
0.394136
0.39347
0.392808
0.392148
0.391491
0.390836
0.390184
0.389534
0.388887
0.388242
0.3876
0.38696
0.386322
0.385686
0.385052
0.384421
0.383791
0.383164
0.382538
0.381915
0.381293
0.380672
0.380053
0.379436
0.37882
0.378206
0.377593
0.376981
0.37637
0.37576
0.375151
0.374543
0.373936
0.373329
0.372723
0.372117
0.371512
0.370907
0.370302
0.44463
0.429946
0.415238
0.413831
0.413094
0.412359
0.411627
0.410896
0.410168
0.409443
0.40872
0.407999
0.407281
0.406565
0.405852
0.405141
0.404433
0.403728
0.403025
0.402325
0.401628
0.400933
0.400241
0.399552
0.398865
0.398181
0.3975
0.396822
0.396146
0.395473
0.394803
0.394135
0.39347
0.392807
0.392148
0.39149
0.390836
0.390183
0.389534
0.388886
0.388242
0.387599
0.386959
0.386321
0.385685
0.385052
0.38442
0.383791
0.383163
0.382538
0.381914
0.381292
0.380672
0.380053
0.379436
0.37882
0.378206
0.377593
0.376981
0.37637
0.37576
0.375151
0.374543
0.373936
0.373329
0.372723
0.372117
0.371512
0.370907
0.370302
0.44463
0.429946
0.415238
0.413831
0.413094
0.412359
0.411626
0.410896
0.410168
0.409442
0.408719
0.407999
0.40728
0.406565
0.405851
0.405141
0.404433
0.403727
0.403025
0.402325
0.401627
0.400933
0.400241
0.399551
0.398865
0.398181
0.3975
0.396821
0.396145
0.395472
0.394802
0.394134
0.393469
0.392807
0.392147
0.39149
0.390835
0.390183
0.389533
0.388886
0.388241
0.387599
0.386959
0.386321
0.385685
0.385051
0.38442
0.38379
0.383163
0.382537
0.381914
0.381292
0.380671
0.380053
0.379436
0.37882
0.378205
0.377592
0.37698
0.37637
0.37576
0.375151
0.374543
0.373936
0.373329
0.372723
0.372117
0.371512
0.370907
0.370302
0.44463
0.429945
0.415238
0.41383
0.413093
0.412358
0.411626
0.410896
0.410168
0.409442
0.408719
0.407998
0.40728
0.406564
0.405851
0.405141
0.404433
0.403727
0.403024
0.402324
0.401627
0.400932
0.40024
0.399551
0.398864
0.39818
0.397499
0.396821
0.396145
0.395472
0.394802
0.394134
0.393469
0.392807
0.392147
0.391489
0.390835
0.390183
0.389533
0.388886
0.388241
0.387598
0.386958
0.38632
0.385685
0.385051
0.38442
0.38379
0.383163
0.382537
0.381914
0.381292
0.380671
0.380053
0.379435
0.37882
0.378205
0.377592
0.37698
0.37637
0.37576
0.375151
0.374543
0.373936
0.373329
0.372723
0.372117
0.371512
0.370907
0.370302
0.44463
0.429945
0.415238
0.41383
0.413093
0.412358
0.411626
0.410896
0.410168
0.409442
0.408719
0.407998
0.40728
0.406564
0.405851
0.40514
0.404432
0.403727
0.403024
0.402324
0.401627
0.400932
0.40024
0.399551
0.398864
0.39818
0.397499
0.396821
0.396145
0.395472
0.394802
0.394134
0.393469
0.392806
0.392147
0.391489
0.390835
0.390183
0.389533
0.388886
0.388241
0.387598
0.386958
0.38632
0.385685
0.385051
0.38442
0.38379
0.383163
0.382537
0.381913
0.381291
0.380671
0.380052
0.379435
0.37882
0.378205
0.377592
0.37698
0.376369
0.37576
0.375151
0.374543
0.373935
0.373329
0.372723
0.372117
0.371512
0.370907
0.370302
0.44463
0.429945
0.415238
0.41383
0.413093
0.412358
0.411626
0.410896
0.410168
0.409442
0.408719
0.407998
0.40728
0.406564
0.405851
0.40514
0.404432
0.403727
0.403024
0.402324
0.401627
0.400932
0.40024
0.399551
0.398864
0.39818
0.397499
0.396821
0.396145
0.395472
0.394802
0.394134
0.393469
0.392806
0.392147
0.391489
0.390835
0.390182
0.389533
0.388886
0.388241
0.387598
0.386958
0.38632
0.385685
0.385051
0.38442
0.38379
0.383163
0.382537
0.381913
0.381291
0.380671
0.380052
0.379435
0.37882
0.378205
0.377592
0.37698
0.376369
0.37576
0.375151
0.374543
0.373935
0.373329
0.372723
0.372117
0.371512
0.370907
0.370302
0.44463
0.429946
0.415238
0.41383
0.413093
0.412359
0.411626
0.410896
0.410168
0.409442
0.408719
0.407998
0.40728
0.406564
0.405851
0.405141
0.404433
0.403727
0.403024
0.402324
0.401627
0.400932
0.40024
0.399551
0.398864
0.39818
0.397499
0.396821
0.396145
0.395472
0.394802
0.394134
0.393469
0.392806
0.392147
0.391489
0.390835
0.390183
0.389533
0.388886
0.388241
0.387598
0.386958
0.38632
0.385685
0.385051
0.38442
0.38379
0.383163
0.382537
0.381913
0.381291
0.380671
0.380052
0.379435
0.37882
0.378205
0.377592
0.37698
0.376369
0.37576
0.375151
0.374543
0.373935
0.373329
0.372723
0.372117
0.371512
0.370907
0.370302
0.44463
0.429946
0.415238
0.413831
0.413094
0.412359
0.411626
0.410896
0.410168
0.409442
0.408719
0.407998
0.40728
0.406564
0.405851
0.405141
0.404433
0.403727
0.403025
0.402325
0.401627
0.400932
0.40024
0.399551
0.398865
0.398181
0.397499
0.396821
0.396145
0.395472
0.394802
0.394134
0.393469
0.392807
0.392147
0.39149
0.390835
0.390183
0.389533
0.388886
0.388241
0.387599
0.386958
0.38632
0.385685
0.385051
0.38442
0.38379
0.383163
0.382537
0.381914
0.381292
0.380671
0.380053
0.379435
0.37882
0.378205
0.377592
0.37698
0.37637
0.37576
0.375151
0.374543
0.373936
0.373329
0.372723
0.372117
0.371512
0.370907
0.370302
0.44463
0.429946
0.415238
0.413831
0.413094
0.412359
0.411626
0.410896
0.410168
0.409443
0.408719
0.407999
0.40728
0.406565
0.405852
0.405141
0.404433
0.403728
0.403025
0.402325
0.401627
0.400933
0.400241
0.399551
0.398865
0.398181
0.3975
0.396821
0.396146
0.395472
0.394802
0.394134
0.393469
0.392807
0.392147
0.39149
0.390835
0.390183
0.389533
0.388886
0.388241
0.387599
0.386959
0.386321
0.385685
0.385051
0.38442
0.38379
0.383163
0.382537
0.381914
0.381292
0.380671
0.380053
0.379436
0.37882
0.378205
0.377592
0.37698
0.37637
0.37576
0.375151
0.374543
0.373936
0.373329
0.372723
0.372117
0.371512
0.370907
0.370302
0.44463
0.429946
0.415239
0.413831
0.413094
0.412359
0.411627
0.410896
0.410169
0.409443
0.40872
0.407999
0.407281
0.406565
0.405852
0.405141
0.404433
0.403728
0.403025
0.402325
0.401628
0.400933
0.400241
0.399552
0.398865
0.398181
0.3975
0.396822
0.396146
0.395473
0.394802
0.394135
0.39347
0.392807
0.392147
0.39149
0.390835
0.390183
0.389534
0.388886
0.388242
0.387599
0.386959
0.386321
0.385685
0.385052
0.38442
0.383791
0.383163
0.382538
0.381914
0.381292
0.380672
0.380053
0.379436
0.37882
0.378206
0.377592
0.376981
0.37637
0.37576
0.375151
0.374543
0.373936
0.373329
0.372723
0.372117
0.371512
0.370907
0.370302
0.44463
0.429946
0.415239
0.413832
0.413094
0.41236
0.411627
0.410897
0.410169
0.409443
0.40872
0.408
0.407281
0.406566
0.405852
0.405142
0.404434
0.403728
0.403026
0.402326
0.401628
0.400934
0.400242
0.399552
0.398866
0.398182
0.397501
0.396822
0.396146
0.395473
0.394803
0.394135
0.39347
0.392808
0.392148
0.391491
0.390836
0.390184
0.389534
0.388887
0.388242
0.387599
0.386959
0.386321
0.385686
0.385052
0.38442
0.383791
0.383164
0.382538
0.381914
0.381292
0.380672
0.380053
0.379436
0.37882
0.378206
0.377593
0.376981
0.37637
0.37576
0.375151
0.374543
0.373936
0.373329
0.372723
0.372117
0.371512
0.370907
0.370302
0.44463
0.429946
0.415239
0.413832
0.413095
0.41236
0.411628
0.410897
0.410169
0.409444
0.408721
0.408
0.407282
0.406566
0.405853
0.405142
0.404434
0.403729
0.403026
0.402326
0.401629
0.400934
0.400242
0.399553
0.398866
0.398182
0.397501
0.396823
0.396147
0.395474
0.394803
0.394136
0.393471
0.392808
0.392148
0.391491
0.390836
0.390184
0.389534
0.388887
0.388242
0.3876
0.38696
0.386322
0.385686
0.385052
0.384421
0.383791
0.383164
0.382538
0.381914
0.381292
0.380672
0.380053
0.379436
0.37882
0.378206
0.377593
0.376981
0.37637
0.37576
0.375151
0.374543
0.373936
0.373329
0.372723
0.372117
0.371512
0.370907
0.370302
0.44463
0.429947
0.41524
0.413832
0.413095
0.412361
0.411628
0.410898
0.41017
0.409444
0.408721
0.408001
0.407282
0.406567
0.405853
0.405143
0.404435
0.40373
0.403027
0.402327
0.401629
0.400935
0.400243
0.399553
0.398867
0.398183
0.397502
0.396823
0.396147
0.395474
0.394804
0.394136
0.393471
0.392809
0.392149
0.391491
0.390837
0.390185
0.389535
0.388888
0.388243
0.3876
0.38696
0.386322
0.385686
0.385053
0.384421
0.383792
0.383164
0.382539
0.381915
0.381293
0.380672
0.380054
0.379436
0.378821
0.378206
0.377593
0.376981
0.37637
0.37576
0.375151
0.374543
0.373936
0.373329
0.372723
0.372117
0.371512
0.370907
0.370302
0.44463
0.429947
0.41524
0.413833
0.413096
0.412361
0.411629
0.410898
0.41017
0.409445
0.408722
0.408001
0.407283
0.406567
0.405854
0.405143
0.404436
0.40373
0.403027
0.402327
0.40163
0.400935
0.400243
0.399554
0.398867
0.398183
0.397502
0.396824
0.396148
0.395475
0.394804
0.394137
0.393472
0.392809
0.392149
0.391492
0.390837
0.390185
0.389535
0.388888
0.388243
0.387601
0.38696
0.386322
0.385687
0.385053
0.384422
0.383792
0.383165
0.382539
0.381915
0.381293
0.380673
0.380054
0.379437
0.378821
0.378206
0.377593
0.376981
0.37637
0.375761
0.375152
0.374543
0.373936
0.373329
0.372723
0.372117
0.371512
0.370907
0.370302
0.44463
0.429947
0.415241
0.413833
0.413096
0.412362
0.411629
0.410899
0.410171
0.409446
0.408722
0.408002
0.407284
0.406568
0.405855
0.405144
0.404436
0.403731
0.403028
0.402328
0.401631
0.400936
0.400244
0.399555
0.398868
0.398184
0.397503
0.396824
0.396149
0.395475
0.394805
0.394137
0.393472
0.39281
0.39215
0.391493
0.390838
0.390186
0.389536
0.388889
0.388244
0.387601
0.386961
0.386323
0.385687
0.385053
0.384422
0.383792
0.383165
0.382539
0.381915
0.381293
0.380673
0.380054
0.379437
0.378821
0.378207
0.377593
0.376981
0.376371
0.375761
0.375152
0.374544
0.373936
0.373329
0.372723
0.372117
0.371512
0.370907
0.370302
0.44463
0.429947
0.415241
0.413834
0.413097
0.412362
0.41163
0.4109
0.410172
0.409446
0.408723
0.408002
0.407284
0.406568
0.405855
0.405145
0.404437
0.403731
0.403029
0.402329
0.401631
0.400936
0.400244
0.399555
0.398869
0.398185
0.397503
0.396825
0.396149
0.395476
0.394806
0.394138
0.393473
0.39281
0.39215
0.391493
0.390838
0.390186
0.389536
0.388889
0.388244
0.387602
0.386961
0.386323
0.385688
0.385054
0.384422
0.383793
0.383165
0.38254
0.381916
0.381294
0.380673
0.380054
0.379437
0.378821
0.378207
0.377594
0.376982
0.376371
0.375761
0.375152
0.374544
0.373936
0.373329
0.372723
0.372117
0.371512
0.370907
0.370302
0.44463
0.429948
0.415242
0.413835
0.413098
0.412363
0.41163
0.4109
0.410172
0.409447
0.408724
0.408003
0.407285
0.406569
0.405856
0.405145
0.404437
0.403732
0.403029
0.402329
0.401632
0.400937
0.400245
0.399556
0.398869
0.398185
0.397504
0.396826
0.39615
0.395477
0.394806
0.394138
0.393473
0.392811
0.392151
0.391494
0.390839
0.390187
0.389537
0.38889
0.388245
0.387602
0.386962
0.386324
0.385688
0.385054
0.384423
0.383793
0.383166
0.38254
0.381916
0.381294
0.380674
0.380055
0.379437
0.378822
0.378207
0.377594
0.376982
0.376371
0.375761
0.375152
0.374544
0.373936
0.37333
0.372723
0.372117
0.371512
0.370907
0.370302
0.44463
0.429948
0.415242
0.413835
0.413098
0.412363
0.411631
0.410901
0.410173
0.409447
0.408724
0.408004
0.407285
0.40657
0.405857
0.405146
0.404438
0.403733
0.40303
0.40233
0.401632
0.400938
0.400246
0.399556
0.39887
0.398186
0.397505
0.396826
0.39615
0.395477
0.394807
0.394139
0.393474
0.392811
0.392151
0.391494
0.390839
0.390187
0.389537
0.38889
0.388245
0.387603
0.386962
0.386324
0.385688
0.385055
0.384423
0.383794
0.383166
0.38254
0.381916
0.381294
0.380674
0.380055
0.379438
0.378822
0.378207
0.377594
0.376982
0.376371
0.375761
0.375152
0.374544
0.373937
0.37333
0.372723
0.372118
0.371512
0.370907
0.370302
0.44463
0.429948
0.415243
0.413836
0.413099
0.412364
0.411631
0.410901
0.410173
0.409448
0.408725
0.408004
0.407286
0.40657
0.405857
0.405147
0.404439
0.403733
0.403031
0.40233
0.401633
0.400938
0.400246
0.399557
0.39887
0.398186
0.397505
0.396827
0.396151
0.395478
0.394807
0.39414
0.393474
0.392812
0.392152
0.391495
0.39084
0.390188
0.389538
0.388891
0.388246
0.387603
0.386963
0.386325
0.385689
0.385055
0.384424
0.383794
0.383166
0.382541
0.381917
0.381295
0.380674
0.380055
0.379438
0.378822
0.378208
0.377594
0.376982
0.376371
0.375761
0.375152
0.374544
0.373937
0.37333
0.372723
0.372118
0.371512
0.370907
0.370302
0.44463
0.429948
0.415243
0.413836
0.413099
0.412364
0.411632
0.410902
0.410174
0.409448
0.408725
0.408005
0.407286
0.406571
0.405858
0.405147
0.404439
0.403734
0.403031
0.402331
0.401634
0.400939
0.400247
0.399558
0.398871
0.398187
0.397506
0.396827
0.396151
0.395478
0.394808
0.39414
0.393475
0.392812
0.392152
0.391495
0.39084
0.390188
0.389538
0.388891
0.388246
0.387603
0.386963
0.386325
0.385689
0.385055
0.384424
0.383794
0.383167
0.382541
0.381917
0.381295
0.380674
0.380056
0.379438
0.378822
0.378208
0.377595
0.376982
0.376371
0.375762
0.375152
0.374544
0.373937
0.37333
0.372724
0.372118
0.371512
0.370907
0.370302
0.44463
0.429948
0.415244
0.413836
0.4131
0.412365
0.411632
0.410902
0.410174
0.409449
0.408726
0.408005
0.407287
0.406571
0.405858
0.405148
0.40444
0.403734
0.403032
0.402331
0.401634
0.400939
0.400247
0.399558
0.398871
0.398187
0.397506
0.396828
0.396152
0.395479
0.394808
0.394141
0.393475
0.392813
0.392153
0.391496
0.390841
0.390189
0.389539
0.388891
0.388246
0.387604
0.386963
0.386325
0.38569
0.385056
0.384424
0.383795
0.383167
0.382541
0.381917
0.381295
0.380675
0.380056
0.379438
0.378823
0.378208
0.377595
0.376983
0.376372
0.375762
0.375153
0.374544
0.373937
0.37333
0.372724
0.372118
0.371512
0.370907
0.370302
0.44463
0.429949
0.415244
0.413837
0.4131
0.412365
0.411633
0.410903
0.410175
0.409449
0.408726
0.408006
0.407287
0.406572
0.405859
0.405148
0.40444
0.403735
0.403032
0.402332
0.401635
0.40094
0.400248
0.399558
0.398872
0.398188
0.397507
0.396828
0.396152
0.395479
0.394809
0.394141
0.393476
0.392813
0.392153
0.391496
0.390841
0.390189
0.389539
0.388892
0.388247
0.387604
0.386964
0.386326
0.38569
0.385056
0.384425
0.383795
0.383167
0.382542
0.381918
0.381295
0.380675
0.380056
0.379439
0.378823
0.378208
0.377595
0.376983
0.376372
0.375762
0.375153
0.374544
0.373937
0.37333
0.372724
0.372118
0.371512
0.370907
0.370302
0.44463
0.429949
0.415244
0.413837
0.4131
0.412366
0.411633
0.410903
0.410175
0.40945
0.408727
0.408006
0.407288
0.406572
0.405859
0.405148
0.404441
0.403735
0.403032
0.402332
0.401635
0.40094
0.400248
0.399559
0.398872
0.398188
0.397507
0.396829
0.396153
0.39548
0.394809
0.394141
0.393476
0.392814
0.392154
0.391496
0.390842
0.390189
0.389539
0.388892
0.388247
0.387604
0.386964
0.386326
0.38569
0.385056
0.384425
0.383795
0.383168
0.382542
0.381918
0.381296
0.380675
0.380056
0.379439
0.378823
0.378208
0.377595
0.376983
0.376372
0.375762
0.375153
0.374545
0.373937
0.37333
0.372724
0.372118
0.371512
0.370907
0.370302
0.44463
0.429949
0.415245
0.413838
0.413101
0.412366
0.411633
0.410903
0.410175
0.40945
0.408727
0.408006
0.407288
0.406573
0.405859
0.405149
0.404441
0.403736
0.403033
0.402333
0.401635
0.400941
0.400249
0.399559
0.398873
0.398189
0.397507
0.396829
0.396153
0.39548
0.394809
0.394142
0.393477
0.392814
0.392154
0.391497
0.390842
0.39019
0.38954
0.388892
0.388247
0.387605
0.386964
0.386326
0.38569
0.385057
0.384425
0.383795
0.383168
0.382542
0.381918
0.381296
0.380675
0.380056
0.379439
0.378823
0.378208
0.377595
0.376983
0.376372
0.375762
0.375153
0.374545
0.373937
0.37333
0.372724
0.372118
0.371512
0.370907
0.370302
0.44463
0.429949
0.415245
0.413838
0.413101
0.412366
0.411634
0.410904
0.410176
0.40945
0.408727
0.408007
0.407288
0.406573
0.40586
0.405149
0.404441
0.403736
0.403033
0.402333
0.401636
0.400941
0.400249
0.39956
0.398873
0.398189
0.397508
0.396829
0.396153
0.39548
0.39481
0.394142
0.393477
0.392814
0.392154
0.391497
0.390842
0.39019
0.38954
0.388893
0.388248
0.387605
0.386965
0.386326
0.385691
0.385057
0.384425
0.383796
0.383168
0.382542
0.381918
0.381296
0.380675
0.380057
0.379439
0.378823
0.378209
0.377595
0.376983
0.376372
0.375762
0.375153
0.374545
0.373937
0.37333
0.372724
0.372118
0.371512
0.370907
0.370302
0.44463
0.429949
0.415245
0.413838
0.413101
0.412366
0.411634
0.410904
0.410176
0.409451
0.408727
0.408007
0.407289
0.406573
0.40586
0.405149
0.404441
0.403736
0.403033
0.402333
0.401636
0.400941
0.400249
0.39956
0.398873
0.398189
0.397508
0.396829
0.396154
0.39548
0.39481
0.394142
0.393477
0.392814
0.392155
0.391497
0.390842
0.39019
0.38954
0.388893
0.388248
0.387605
0.386965
0.386327
0.385691
0.385057
0.384425
0.383796
0.383168
0.382542
0.381918
0.381296
0.380676
0.380057
0.379439
0.378823
0.378209
0.377595
0.376983
0.376372
0.375762
0.375153
0.374545
0.373937
0.37333
0.372724
0.372118
0.371512
0.370907
0.370302
0.44463
0.429949
0.415245
0.413838
0.413101
0.412367
0.411634
0.410904
0.410176
0.409451
0.408728
0.408007
0.407289
0.406573
0.40586
0.40515
0.404442
0.403736
0.403034
0.402334
0.401636
0.400941
0.400249
0.39956
0.398873
0.398189
0.397508
0.39683
0.396154
0.395481
0.39481
0.394142
0.393477
0.392815
0.392155
0.391497
0.390843
0.39019
0.38954
0.388893
0.388248
0.387605
0.386965
0.386327
0.385691
0.385057
0.384426
0.383796
0.383168
0.382542
0.381918
0.381296
0.380676
0.380057
0.379439
0.378823
0.378209
0.377595
0.376983
0.376372
0.375762
0.375153
0.374545
0.373937
0.37333
0.372724
0.372118
0.371512
0.370907
0.370302
0.44463
0.429949
0.415246
0.413838
0.413101
0.412367
0.411634
0.410904
0.410176
0.409451
0.408728
0.408007
0.407289
0.406573
0.40586
0.40515
0.404442
0.403736
0.403034
0.402334
0.401636
0.400942
0.40025
0.39956
0.398874
0.39819
0.397508
0.39683
0.396154
0.395481
0.39481
0.394143
0.393477
0.392815
0.392155
0.391498
0.390843
0.39019
0.389541
0.388893
0.388248
0.387605
0.386965
0.386327
0.385691
0.385057
0.384426
0.383796
0.383168
0.382543
0.381919
0.381296
0.380676
0.380057
0.379439
0.378823
0.378209
0.377596
0.376983
0.376372
0.375762
0.375153
0.374545
0.373937
0.37333
0.372724
0.372118
0.371512
0.370907
0.370302
0.44463
0.429949
0.415246
0.413838
0.413102
0.412367
0.411634
0.410904
0.410177
0.409451
0.408728
0.408007
0.407289
0.406574
0.40586
0.40515
0.404442
0.403737
0.403034
0.402334
0.401636
0.400942
0.40025
0.39956
0.398874
0.39819
0.397509
0.39683
0.396154
0.395481
0.394811
0.394143
0.393478
0.392815
0.392155
0.391498
0.390843
0.39019
0.389541
0.388893
0.388248
0.387606
0.386965
0.386327
0.385691
0.385057
0.384426
0.383796
0.383168
0.382543
0.381919
0.381296
0.380676
0.380057
0.37944
0.378824
0.378209
0.377596
0.376983
0.376372
0.375762
0.375153
0.374545
0.373937
0.37333
0.372724
0.372118
0.371512
0.370907
0.370302
0.44463
0.42995
0.415246
0.413839
0.413102
0.412367
0.411635
0.410904
0.410177
0.409451
0.408728
0.408007
0.407289
0.406574
0.405861
0.40515
0.404442
0.403737
0.403034
0.402334
0.401637
0.400942
0.40025
0.39956
0.398874
0.39819
0.397509
0.39683
0.396154
0.395481
0.394811
0.394143
0.393478
0.392815
0.392155
0.391498
0.390843
0.390191
0.389541
0.388893
0.388248
0.387606
0.386965
0.386327
0.385691
0.385057
0.384426
0.383796
0.383168
0.382543
0.381919
0.381296
0.380676
0.380057
0.37944
0.378824
0.378209
0.377596
0.376983
0.376372
0.375762
0.375153
0.374545
0.373937
0.37333
0.372724
0.372118
0.371512
0.370907
0.370302
0.44463
0.42995
0.415246
0.413839
0.413102
0.412367
0.411635
0.410905
0.410177
0.409451
0.408728
0.408008
0.407289
0.406574
0.405861
0.40515
0.404442
0.403737
0.403034
0.402334
0.401637
0.400942
0.40025
0.399561
0.398874
0.39819
0.397509
0.39683
0.396154
0.395481
0.394811
0.394143
0.393478
0.392815
0.392155
0.391498
0.390843
0.390191
0.389541
0.388893
0.388248
0.387606
0.386965
0.386327
0.385691
0.385058
0.384426
0.383796
0.383169
0.382543
0.381919
0.381297
0.380676
0.380057
0.37944
0.378824
0.378209
0.377596
0.376983
0.376372
0.375762
0.375153
0.374545
0.373937
0.37333
0.372724
0.372118
0.371512
0.370907
0.370302
0.44463
0.42995
0.415246
0.413839
0.413102
0.412367
0.411635
0.410905
0.410177
0.409451
0.408728
0.408008
0.407289
0.406574
0.405861
0.40515
0.404442
0.403737
0.403034
0.402334
0.401637
0.400942
0.40025
0.399561
0.398874
0.39819
0.397509
0.39683
0.396154
0.395481
0.394811
0.394143
0.393478
0.392815
0.392155
0.391498
0.390843
0.390191
0.389541
0.388893
0.388248
0.387606
0.386965
0.386327
0.385691
0.385058
0.384426
0.383796
0.383169
0.382543
0.381919
0.381297
0.380676
0.380057
0.37944
0.378824
0.378209
0.377596
0.376983
0.376372
0.375762
0.375153
0.374545
0.373937
0.37333
0.372724
0.372118
0.371512
0.370907
0.370302
0.44463
0.42995
0.415246
0.413839
0.413102
0.412367
0.411635
0.410905
0.410177
0.409451
0.408728
0.408008
0.40729
0.406574
0.405861
0.40515
0.404442
0.403737
0.403034
0.402334
0.401637
0.400942
0.40025
0.399561
0.398874
0.39819
0.397509
0.39683
0.396154
0.395481
0.394811
0.394143
0.393478
0.392815
0.392155
0.391498
0.390843
0.390191
0.389541
0.388893
0.388248
0.387606
0.386965
0.386327
0.385691
0.385058
0.384426
0.383796
0.383169
0.382543
0.381919
0.381297
0.380676
0.380057
0.37944
0.378824
0.378209
0.377596
0.376984
0.376372
0.375762
0.375153
0.374545
0.373937
0.37333
0.372724
0.372118
0.371512
0.370907
0.370302
0.44463
0.42995
0.415246
0.413839
0.413102
0.412367
0.411635
0.410905
0.410177
0.409451
0.408728
0.408008
0.40729
0.406574
0.405861
0.40515
0.404442
0.403737
0.403034
0.402334
0.401637
0.400942
0.40025
0.399561
0.398874
0.39819
0.397509
0.39683
0.396154
0.395481
0.394811
0.394143
0.393478
0.392815
0.392155
0.391498
0.390843
0.390191
0.389541
0.388893
0.388248
0.387606
0.386965
0.386327
0.385691
0.385058
0.384426
0.383796
0.383169
0.382543
0.381919
0.381297
0.380676
0.380057
0.37944
0.378824
0.378209
0.377596
0.376984
0.376372
0.375762
0.375153
0.374545
0.373937
0.37333
0.372724
0.372118
0.371512
0.370907
0.370302
0.44463
0.42995
0.415246
0.413839
0.413102
0.412367
0.411635
0.410905
0.410177
0.409451
0.408728
0.408008
0.40729
0.406574
0.405861
0.40515
0.404442
0.403737
0.403034
0.402334
0.401637
0.400942
0.40025
0.399561
0.398874
0.39819
0.397509
0.39683
0.396154
0.395481
0.394811
0.394143
0.393478
0.392815
0.392155
0.391498
0.390843
0.390191
0.389541
0.388893
0.388248
0.387606
0.386965
0.386327
0.385691
0.385058
0.384426
0.383796
0.383169
0.382543
0.381919
0.381297
0.380676
0.380057
0.37944
0.378824
0.378209
0.377596
0.376984
0.376372
0.375762
0.375153
0.374545
0.373937
0.37333
0.372724
0.372118
0.371512
0.370907
0.370302
0.44463
0.42995
0.415246
0.413839
0.413102
0.412367
0.411635
0.410905
0.410177
0.409451
0.408728
0.408008
0.40729
0.406574
0.405861
0.40515
0.404442
0.403737
0.403034
0.402334
0.401637
0.400942
0.40025
0.399561
0.398874
0.39819
0.397509
0.39683
0.396154
0.395481
0.394811
0.394143
0.393478
0.392815
0.392155
0.391498
0.390843
0.390191
0.389541
0.388893
0.388248
0.387606
0.386965
0.386327
0.385691
0.385058
0.384426
0.383796
0.383169
0.382543
0.381919
0.381297
0.380676
0.380057
0.37944
0.378824
0.378209
0.377596
0.376984
0.376372
0.375762
0.375153
0.374545
0.373937
0.37333
0.372724
0.372118
0.371512
0.370907
0.370302
0.44463
0.42995
0.415246
0.413839
0.413102
0.412367
0.411635
0.410905
0.410177
0.409451
0.408728
0.408008
0.40729
0.406574
0.405861
0.40515
0.404442
0.403737
0.403034
0.402334
0.401637
0.400942
0.40025
0.399561
0.398874
0.39819
0.397509
0.39683
0.396154
0.395481
0.394811
0.394143
0.393478
0.392815
0.392155
0.391498
0.390843
0.390191
0.389541
0.388894
0.388248
0.387606
0.386965
0.386327
0.385691
0.385058
0.384426
0.383796
0.383169
0.382543
0.381919
0.381297
0.380676
0.380057
0.37944
0.378824
0.378209
0.377596
0.376984
0.376372
0.375762
0.375153
0.374545
0.373937
0.37333
0.372724
0.372118
0.371512
0.370907
0.370302
0.44463
0.42995
0.415246
0.413839
0.413102
0.412367
0.411635
0.410905
0.410177
0.409451
0.408728
0.408008
0.40729
0.406574
0.405861
0.40515
0.404442
0.403737
0.403034
0.402334
0.401637
0.400942
0.40025
0.399561
0.398874
0.39819
0.397509
0.39683
0.396154
0.395481
0.394811
0.394143
0.393478
0.392815
0.392155
0.391498
0.390843
0.390191
0.389541
0.388894
0.388248
0.387606
0.386965
0.386327
0.385691
0.385058
0.384426
0.383796
0.383169
0.382543
0.381919
0.381297
0.380676
0.380057
0.37944
0.378824
0.378209
0.377596
0.376984
0.376372
0.375762
0.375153
0.374545
0.373937
0.37333
0.372724
0.372118
0.371512
0.370907
0.370302
0.44463
0.42995
0.415246
0.413839
0.413102
0.412367
0.411635
0.410905
0.410177
0.409451
0.408728
0.408008
0.40729
0.406574
0.405861
0.40515
0.404442
0.403737
0.403034
0.402334
0.401637
0.400942
0.40025
0.399561
0.398874
0.39819
0.397509
0.39683
0.396154
0.395481
0.394811
0.394143
0.393478
0.392815
0.392155
0.391498
0.390843
0.390191
0.389541
0.388894
0.388248
0.387606
0.386965
0.386327
0.385691
0.385058
0.384426
0.383796
0.383169
0.382543
0.381919
0.381297
0.380676
0.380057
0.37944
0.378824
0.378209
0.377596
0.376984
0.376372
0.375762
0.375153
0.374545
0.373937
0.37333
0.372724
0.372118
0.371512
0.370907
0.370302
0.44463
0.42995
0.415246
0.413839
0.413102
0.412367
0.411635
0.410905
0.410177
0.409451
0.408728
0.408008
0.40729
0.406574
0.405861
0.40515
0.404442
0.403737
0.403034
0.402334
0.401637
0.400942
0.40025
0.399561
0.398874
0.39819
0.397509
0.39683
0.396154
0.395481
0.394811
0.394143
0.393478
0.392815
0.392155
0.391498
0.390843
0.390191
0.389541
0.388894
0.388248
0.387606
0.386965
0.386327
0.385691
0.385058
0.384426
0.383796
0.383169
0.382543
0.381919
0.381297
0.380676
0.380057
0.37944
0.378824
0.378209
0.377596
0.376984
0.376372
0.375762
0.375153
0.374545
0.373937
0.37333
0.372724
0.372118
0.371512
0.370907
0.370302
0.44463
0.42995
0.415246
0.413839
0.413102
0.412367
0.411635
0.410905
0.410177
0.409451
0.408728
0.408008
0.40729
0.406574
0.405861