/*--------------------------------*- C++ -*----------------------------------*\
  =========                 |
  \\      /  F ield         | OpenFOAM: The Open Source CFD Toolbox
   \\    /   O peration     | Website:  https://openfoam.org
    \\  /    A nd           | Version:  13
     \\/     M anipulation  |
\*---------------------------------------------------------------------------*/
FoamFile
{
    format      ascii;
    class       volScalarField;
    location    "177.5";
    object      nut;
}
// * * * * * * * * * * * * * * * * * * * * * * * * * * * * * * * * * * * * * //

dimensions      [0 2 -1 0 0 0 0];

internalField   nonuniform List<scalar> 
315000
(
2.55666e-16
6.6979e-14
1.52898e-12
2.74591e-12
3.98499e-12
5.24974e-12
6.54431e-12
7.87241e-12
9.23678e-12
1.06389e-11
1.20791e-11
1.3556e-11
1.50671e-11
1.66083e-11
1.81744e-11
1.97589e-11
2.13542e-11
2.29518e-11
2.45423e-11
2.61157e-11
2.76615e-11
2.91688e-11
3.06265e-11
3.20238e-11
3.33496e-11
3.45934e-11
3.57452e-11
3.67953e-11
3.77351e-11
3.85566e-11
3.92527e-11
3.98176e-11
4.02462e-11
4.05348e-11
4.0681e-11
4.06835e-11
4.05422e-11
4.02585e-11
3.98346e-11
3.92744e-11
3.85827e-11
3.77654e-11
3.68295e-11
3.57829e-11
3.46344e-11
3.33934e-11
3.20701e-11
3.06749e-11
2.92188e-11
2.77127e-11
2.61677e-11
2.45947e-11
2.30041e-11
2.14061e-11
1.98099e-11
1.82241e-11
1.66565e-11
1.51133e-11
1.36e-11
1.21206e-11
1.06777e-11
9.27254e-12
7.90492e-12
6.57332e-12
5.27495e-12
4.00599e-12
2.76214e-12
1.53941e-12
6.75223e-14
2.57932e-16
6.40439e-15
1.7061e-12
3.88767e-10
7.03734e-10
1.02318e-09
1.34879e-09
1.68198e-09
2.02389e-09
2.37533e-09
2.73673e-09
3.10819e-09
3.48939e-09
3.87967e-09
4.278e-09
4.683e-09
5.09298e-09
5.50597e-09
5.91975e-09
6.33185e-09
6.73967e-09
7.14046e-09
7.53137e-09
7.90953e-09
8.27206e-09
8.61612e-09
8.93895e-09
9.23792e-09
9.51054e-09
9.75452e-09
9.96779e-09
1.01485e-08
1.02951e-08
1.04064e-08
1.04813e-08
1.05192e-08
1.05197e-08
1.04829e-08
1.04091e-08
1.02989e-08
1.01533e-08
9.97356e-09
9.76121e-09
9.51808e-09
9.24625e-09
8.94799e-09
8.62579e-09
8.28226e-09
7.92018e-09
7.54237e-09
7.15171e-09
6.75108e-09
6.34332e-09
5.93117e-09
5.51727e-09
5.10406e-09
4.69377e-09
4.28838e-09
3.88959e-09
3.49878e-09
3.11698e-09
2.74487e-09
2.38274e-09
2.03053e-09
1.68778e-09
1.35369e-09
1.02711e-09
7.06599e-10
3.90452e-10
1.71398e-12
6.43479e-15
2.58783e-14
6.90392e-12
4.01147e-09
7.2702e-09
1.05811e-08
1.39647e-08
1.74391e-08
2.1019e-08
2.47151e-08
2.85342e-08
3.24784e-08
3.65455e-08
4.07288e-08
4.50169e-08
4.93945e-08
5.38425e-08
5.83382e-08
6.28559e-08
6.73673e-08
7.18423e-08
7.62492e-08
8.05551e-08
8.47271e-08
8.87319e-08
9.25369e-08
9.61107e-08
9.9423e-08
1.02445e-07
1.05152e-07
1.07518e-07
1.09525e-07
1.11152e-07
1.12387e-07
1.13219e-07
1.13639e-07
1.13643e-07
1.13233e-07
1.12412e-07
1.11186e-07
1.09567e-07
1.0757e-07
1.05211e-07
1.02513e-07
9.94972e-08
9.61911e-08
9.26228e-08
8.88224e-08
8.48213e-08
8.06523e-08
7.63484e-08
7.19426e-08
6.74678e-08
6.29557e-08
5.84365e-08
5.39385e-08
4.94874e-08
4.51059e-08
4.08133e-08
3.6625e-08
3.25522e-08
2.86018e-08
2.47762e-08
2.1073e-08
1.74858e-08
1.40036e-08
1.06117e-08
7.29209e-09
4.02406e-09
6.92653e-12
2.59646e-14
4.94324e-14
1.31888e-11
7.66469e-09
1.39011e-08
2.02562e-08
2.67781e-08
3.35094e-08
4.04859e-08
4.7735e-08
5.52752e-08
6.31153e-08
7.12537e-08
7.96789e-08
8.83692e-08
9.72929e-08
1.06409e-07
1.1567e-07
1.25018e-07
1.34392e-07
1.43725e-07
1.52946e-07
1.61982e-07
1.70761e-07
1.79207e-07
1.87249e-07
1.94815e-07
2.01839e-07
2.08256e-07
2.14008e-07
2.19043e-07
2.23314e-07
2.26781e-07
2.29412e-07
2.31183e-07
2.32076e-07
2.32085e-07
2.31208e-07
2.29453e-07
2.26838e-07
2.23387e-07
2.19131e-07
2.1411e-07
2.0837e-07
2.01964e-07
1.94951e-07
1.87394e-07
1.7936e-07
1.70919e-07
1.62146e-07
1.53112e-07
1.43892e-07
1.3456e-07
1.25184e-07
1.15833e-07
1.06568e-07
9.74459e-08
8.85153e-08
7.9817e-08
7.13828e-08
6.32345e-08
5.53839e-08
4.78325e-08
4.05716e-08
3.35829e-08
2.68388e-08
2.03037e-08
1.39349e-08
7.68396e-09
1.32233e-11
4.95641e-14
7.7366e-14
2.0643e-11
1.19978e-08
2.17706e-08
3.17506e-08
4.20235e-08
5.26656e-08
6.37416e-08
7.53023e-08
8.73834e-08
1.00004e-07
1.13165e-07
1.26852e-07
1.41029e-07
1.55647e-07
1.70638e-07
1.85921e-07
2.014e-07
2.16972e-07
2.32522e-07
2.47932e-07
2.63077e-07
2.77831e-07
2.92065e-07
3.05651e-07
3.18461e-07
3.30376e-07
3.41281e-07
3.51071e-07
3.59649e-07
3.66932e-07
3.72848e-07
3.7734e-07
3.80363e-07
3.81888e-07
3.819e-07
3.80398e-07
3.77397e-07
3.72927e-07
3.67032e-07
3.59769e-07
3.5121e-07
3.41438e-07
3.30549e-07
3.18648e-07
3.05849e-07
2.92274e-07
2.78048e-07
2.633e-07
2.48159e-07
2.32751e-07
2.172e-07
2.01626e-07
1.86142e-07
1.70853e-07
1.55854e-07
1.41226e-07
1.27037e-07
1.13338e-07
1.00163e-07
8.75284e-08
7.5432e-08
6.38553e-08
5.27627e-08
4.21034e-08
3.18129e-08
2.18147e-08
1.20229e-08
2.0688e-11
7.75377e-14
1.08407e-13
2.8927e-11
1.68125e-08
3.05142e-08
4.45232e-08
5.89685e-08
7.39652e-08
8.96108e-08
1.05983e-07
1.23136e-07
1.41102e-07
1.59884e-07
1.79462e-07
1.99787e-07
2.20787e-07
2.42364e-07
2.644e-07
2.86757e-07
3.09283e-07
3.31815e-07
3.5418e-07
3.76199e-07
3.97683e-07
4.18441e-07
4.3828e-07
4.57008e-07
4.74444e-07
4.90414e-07
5.04759e-07
5.17335e-07
5.28017e-07
5.36697e-07
5.43287e-07
5.47723e-07
5.49959e-07
5.49973e-07
5.47765e-07
5.43357e-07
5.36793e-07
5.28139e-07
5.17481e-07
5.04928e-07
4.90604e-07
4.74653e-07
4.57235e-07
4.38521e-07
4.18694e-07
3.97946e-07
3.76469e-07
3.54454e-07
3.32091e-07
3.09559e-07
2.8703e-07
2.64668e-07
2.42624e-07
2.21037e-07
2.00025e-07
1.79686e-07
1.60093e-07
1.41294e-07
1.23311e-07
1.06139e-07
8.97472e-08
7.40815e-08
5.90641e-08
4.45975e-08
3.05667e-08
1.68424e-08
2.89806e-11
1.08612e-13
1.40649e-13
3.75318e-11
2.18121e-08
3.95906e-08
5.77783e-08
7.65486e-08
9.60565e-08
1.16433e-07
1.37783e-07
1.60179e-07
1.83663e-07
2.08241e-07
2.33884e-07
2.60528e-07
2.88074e-07
3.16393e-07
3.45324e-07
3.74686e-07
4.04278e-07
4.33886e-07
4.63284e-07
4.92234e-07
5.2049e-07
5.47796e-07
5.73896e-07
5.98539e-07
6.2148e-07
6.42493e-07
6.61367e-07
6.77913e-07
6.91965e-07
7.03383e-07
7.12051e-07
7.17884e-07
7.20823e-07
7.20839e-07
7.17931e-07
7.12129e-07
7.0349e-07
6.92102e-07
6.78077e-07
6.61556e-07
6.42706e-07
6.21715e-07
5.98792e-07
5.74167e-07
5.4808e-07
5.20785e-07
4.92537e-07
4.63592e-07
4.34196e-07
4.04588e-07
3.74993e-07
3.45625e-07
3.16685e-07
2.88355e-07
2.60796e-07
2.34137e-07
2.08476e-07
1.8388e-07
1.60376e-07
1.37958e-07
1.16586e-07
9.6187e-08
7.66557e-08
5.78614e-08
3.96493e-08
2.18454e-08
3.75917e-11
1.40878e-13
1.72208e-13
4.59548e-11
2.67046e-08
4.8469e-08
7.07388e-08
9.37309e-08
1.17638e-07
1.42623e-07
1.68815e-07
1.96304e-07
2.2514e-07
2.55329e-07
2.86831e-07
3.19566e-07
3.53406e-07
3.88188e-07
4.23711e-07
4.59748e-07
4.96052e-07
5.32358e-07
5.6839e-07
6.0386e-07
6.38463e-07
6.7189e-07
7.03826e-07
7.33965e-07
7.62013e-07
7.87693e-07
8.10751e-07
8.30958e-07
8.48115e-07
8.62051e-07
8.72629e-07
8.79745e-07
8.83329e-07
8.83346e-07
8.79795e-07
8.72712e-07
8.62165e-07
8.4826e-07
8.31133e-07
8.10953e-07
7.8792e-07
7.62263e-07
7.34236e-07
7.04114e-07
6.72192e-07
6.38778e-07
6.04183e-07
5.6872e-07
5.32689e-07
4.96383e-07
4.60077e-07
4.24033e-07
3.88502e-07
3.53708e-07
3.19854e-07
2.87103e-07
2.55582e-07
2.25373e-07
1.96515e-07
1.69003e-07
1.42787e-07
1.17778e-07
9.38454e-08
7.08277e-08
4.85316e-08
2.67401e-08
4.60188e-11
1.72453e-13
2.01537e-13
5.37832e-11
3.12503e-08
5.67151e-08
8.2772e-08
1.09677e-07
1.37658e-07
1.66907e-07
1.97574e-07
2.29763e-07
2.63532e-07
2.98882e-07
3.35765e-07
3.74081e-07
4.13675e-07
4.5435e-07
4.95867e-07
5.37957e-07
5.80327e-07
6.2267e-07
6.64665e-07
7.05975e-07
7.46249e-07
7.85128e-07
8.22252e-07
8.57266e-07
8.89833e-07
9.19635e-07
9.46383e-07
9.69814e-07
9.89701e-07
1.00585e-06
1.0181e-06
1.02635e-06
1.0305e-06
1.03051e-06
1.0264e-06
1.01819e-06
1.00597e-06
9.8985e-07
9.69994e-07
9.46591e-07
9.19869e-07
8.9009e-07
8.57544e-07
8.22549e-07
7.85441e-07
7.46574e-07
7.06309e-07
6.65005e-07
6.23013e-07
5.8067e-07
5.38296e-07
4.96201e-07
4.54675e-07
4.13988e-07
3.74379e-07
3.36047e-07
2.99145e-07
2.63773e-07
2.29983e-07
1.97769e-07
1.67077e-07
1.37803e-07
1.09796e-07
8.28637e-08
5.67796e-08
3.12869e-08
5.38494e-11
2.01791e-13
2.27544e-13
6.07253e-11
3.52805e-08
6.40237e-08
9.34337e-08
1.23802e-07
1.55386e-07
1.88402e-07
2.2302e-07
2.59355e-07
2.97469e-07
3.37362e-07
3.78973e-07
4.22183e-07
4.66815e-07
5.12639e-07
5.59381e-07
6.06734e-07
6.54368e-07
7.01937e-07
7.4908e-07
7.95421e-07
8.40569e-07
8.84124e-07
9.25688e-07
9.64867e-07
1.00129e-06
1.0346e-06
1.06449e-06
1.09066e-06
1.11287e-06
1.13089e-06
1.14457e-06
1.15377e-06
1.15839e-06
1.15841e-06
1.15382e-06
1.14466e-06
1.13101e-06
1.11302e-06
1.09084e-06
1.0647e-06
1.03484e-06
1.00155e-06
9.65148e-07
9.25987e-07
8.84439e-07
8.40896e-07
7.95758e-07
7.49423e-07
7.02284e-07
6.54715e-07
6.07077e-07
5.59718e-07
5.12968e-07
4.67132e-07
4.22486e-07
3.79258e-07
3.37628e-07
2.97714e-07
2.59578e-07
2.23217e-07
1.88574e-07
1.55532e-07
1.23921e-07
9.35261e-08
6.40886e-08
3.53173e-08
6.0792e-11
2.278e-13
2.49612e-13
6.66169e-11
3.87002e-08
7.02238e-08
1.02477e-07
1.35779e-07
1.70415e-07
2.06622e-07
2.44583e-07
2.84426e-07
3.26212e-07
3.69939e-07
4.15538e-07
4.62873e-07
5.11743e-07
5.61891e-07
6.13015e-07
6.64775e-07
7.16808e-07
7.68736e-07
8.20165e-07
8.70688e-07
9.1988e-07
9.67309e-07
1.01255e-06
1.05517e-06
1.09477e-06
1.13098e-06
1.16345e-06
1.19188e-06
1.21599e-06
1.23556e-06
1.25041e-06
1.26039e-06
1.26541e-06
1.26542e-06
1.26044e-06
1.25049e-06
1.23568e-06
1.21614e-06
1.19206e-06
1.16366e-06
1.13121e-06
1.09503e-06
1.05545e-06
1.01284e-06
9.67622e-07
9.20205e-07
8.71022e-07
8.20507e-07
7.69081e-07
7.17153e-07
6.65117e-07
6.13351e-07
5.62219e-07
5.12059e-07
4.63175e-07
4.15823e-07
3.70205e-07
3.26456e-07
2.84647e-07
2.4478e-07
2.06793e-07
1.7056e-07
1.35898e-07
1.02568e-07
7.0288e-08
3.87366e-08
6.6683e-11
2.49867e-13
2.67571e-13
7.14118e-11
4.14831e-08
7.52684e-08
1.09833e-07
1.45522e-07
1.8264e-07
2.2144e-07
2.62119e-07
3.04811e-07
3.4958e-07
3.96421e-07
4.45255e-07
4.95933e-07
5.48235e-07
6.01883e-07
6.56547e-07
7.11864e-07
7.67443e-07
8.2288e-07
8.77756e-07
9.31636e-07
9.84072e-07
1.03461e-06
1.08278e-06
1.12816e-06
1.1703e-06
1.20882e-06
1.24336e-06
1.27358e-06
1.29922e-06
1.32002e-06
1.33579e-06
1.3464e-06
1.35173e-06
1.35175e-06
1.34645e-06
1.33587e-06
1.32013e-06
1.29936e-06
1.27376e-06
1.24356e-06
1.20905e-06
1.17055e-06
1.12843e-06
1.08307e-06
1.03491e-06
9.84393e-07
9.31967e-07
8.78093e-07
8.2322e-07
7.67783e-07
7.12201e-07
6.56879e-07
6.02207e-07
5.48547e-07
4.96231e-07
4.45537e-07
3.96684e-07
3.49822e-07
3.05029e-07
2.62313e-07
2.21609e-07
1.82783e-07
1.45639e-07
1.09923e-07
7.53314e-08
4.15188e-08
7.14767e-11
2.67821e-13
2.81606e-13
7.51599e-11
4.36584e-08
7.92113e-08
1.15583e-07
1.53137e-07
1.92194e-07
2.33021e-07
2.75825e-07
3.20744e-07
3.67845e-07
4.1712e-07
4.68482e-07
5.2177e-07
5.76752e-07
6.33129e-07
6.90553e-07
7.4864e-07
8.06979e-07
8.65145e-07
9.22699e-07
9.79186e-07
1.03414e-06
1.08708e-06
1.13753e-06
1.18503e-06
1.22915e-06
1.26946e-06
1.30559e-06
1.33721e-06
1.36401e-06
1.38576e-06
1.40225e-06
1.41334e-06
1.41892e-06
1.41893e-06
1.41339e-06
1.40234e-06
1.38588e-06
1.36416e-06
1.33738e-06
1.30579e-06
1.26968e-06
1.2294e-06
1.1853e-06
1.13782e-06
1.08738e-06
1.03445e-06
9.7951e-07
9.23029e-07
8.65479e-07
8.07313e-07
7.48971e-07
6.9088e-07
6.33447e-07
5.77059e-07
5.22063e-07
4.68759e-07
4.17378e-07
3.68083e-07
3.20959e-07
2.76016e-07
2.33187e-07
1.92334e-07
1.53251e-07
1.15671e-07
7.92727e-08
4.36932e-08
7.52234e-11
2.81852e-13
2.92157e-13
7.79779e-11
4.52939e-08
8.21756e-08
1.19906e-07
1.58863e-07
1.99379e-07
2.41732e-07
2.86135e-07
3.32731e-07
3.81588e-07
4.32695e-07
4.85961e-07
5.41216e-07
5.98215e-07
6.56646e-07
7.16148e-07
7.76318e-07
8.36732e-07
8.96949e-07
9.56514e-07
1.01496e-06
1.0718e-06
1.12654e-06
1.1787e-06
1.2278e-06
1.27339e-06
1.31504e-06
1.35237e-06
1.38502e-06
1.41271e-06
1.43517e-06
1.4522e-06
1.46365e-06
1.46941e-06
1.46942e-06
1.4637e-06
1.45228e-06
1.43528e-06
1.41285e-06
1.38519e-06
1.35256e-06
1.31526e-06
1.27364e-06
1.22807e-06
1.17899e-06
1.12684e-06
1.07211e-06
1.01528e-06
9.56839e-07
8.97277e-07
8.3706e-07
7.76644e-07
7.16469e-07
6.56959e-07
5.98517e-07
5.41504e-07
4.86233e-07
4.32949e-07
3.81821e-07
3.32942e-07
2.86322e-07
2.41894e-07
1.99516e-07
1.58974e-07
1.19992e-07
8.22357e-08
4.53279e-08
7.80401e-11
2.92397e-13
2.99795e-13
8.00184e-11
4.64783e-08
8.43224e-08
1.23037e-07
1.6301e-07
2.04584e-07
2.48043e-07
2.93607e-07
3.41421e-07
3.91554e-07
4.43993e-07
4.98642e-07
5.55327e-07
6.13792e-07
6.73717e-07
7.34729e-07
7.96413e-07
8.58335e-07
9.20042e-07
9.81069e-07
1.04093e-06
1.09915e-06
1.1552e-06
1.2086e-06
1.25886e-06
1.30552e-06
1.34814e-06
1.38633e-06
1.41975e-06
1.44807e-06
1.47105e-06
1.48847e-06
1.50018e-06
1.50606e-06
1.50608e-06
1.50022e-06
1.48855e-06
1.47116e-06
1.44821e-06
1.41991e-06
1.38653e-06
1.34836e-06
1.30576e-06
1.25912e-06
1.20888e-06
1.15549e-06
1.09945e-06
1.04125e-06
9.81388e-07
9.20365e-07
8.58659e-07
7.96735e-07
7.35045e-07
6.74026e-07
6.1409e-07
5.55611e-07
4.98911e-07
4.44243e-07
3.91784e-07
3.41629e-07
2.93791e-07
2.48203e-07
2.04719e-07
1.6312e-07
1.23121e-07
8.43813e-08
4.65116e-08
8.00794e-11
3.00031e-13
3.05127e-13
8.14433e-11
4.73054e-08
8.58217e-08
1.25224e-07
1.65907e-07
2.08221e-07
2.52455e-07
2.98832e-07
3.475e-07
3.98527e-07
4.519e-07
5.07522e-07
5.6521e-07
6.24706e-07
6.85681e-07
7.47753e-07
8.10502e-07
8.73484e-07
9.36239e-07
9.98292e-07
1.05916e-06
1.11833e-06
1.17531e-06
1.22958e-06
1.28066e-06
1.32807e-06
1.37137e-06
1.41017e-06
1.44412e-06
1.47289e-06
1.49623e-06
1.51392e-06
1.52582e-06
1.5318e-06
1.53181e-06
1.52586e-06
1.514e-06
1.49634e-06
1.47303e-06
1.44428e-06
1.41036e-06
1.37159e-06
1.3283e-06
1.28091e-06
1.22986e-06
1.1756e-06
1.11863e-06
1.05947e-06
9.98608e-07
9.36558e-07
8.73804e-07
8.1082e-07
7.48066e-07
6.85985e-07
6.25e-07
5.65491e-07
5.07787e-07
4.52148e-07
3.98754e-07
3.47705e-07
2.99014e-07
2.52613e-07
2.08355e-07
1.66016e-07
1.25307e-07
8.58797e-08
4.73382e-08
8.15034e-11
3.0536e-13
3.08721e-13
8.2404e-11
4.78632e-08
8.68329e-08
1.26699e-07
1.67862e-07
2.10676e-07
2.55434e-07
3.02361e-07
3.51607e-07
4.03241e-07
4.57248e-07
5.13529e-07
5.71899e-07
6.32095e-07
6.93784e-07
7.56577e-07
8.20051e-07
8.83754e-07
9.47221e-07
1.00997e-06
1.07152e-06
1.13135e-06
1.18895e-06
1.24382e-06
1.29545e-06
1.34337e-06
1.38714e-06
1.42636e-06
1.46067e-06
1.48974e-06
1.51333e-06
1.53121e-06
1.54323e-06
1.54927e-06
1.54929e-06
1.54328e-06
1.53129e-06
1.51344e-06
1.48988e-06
1.46083e-06
1.42655e-06
1.38736e-06
1.34361e-06
1.29571e-06
1.24409e-06
1.18924e-06
1.13165e-06
1.07183e-06
1.01029e-06
9.47538e-07
8.84071e-07
8.20366e-07
7.56887e-07
6.94086e-07
6.32387e-07
5.72178e-07
5.13792e-07
4.57493e-07
4.03466e-07
3.51811e-07
3.02542e-07
2.55591e-07
2.10808e-07
1.67969e-07
1.26781e-07
8.68902e-08
4.78956e-08
8.24634e-11
3.08952e-13
3.11064e-13
8.30302e-11
4.82268e-08
8.74923e-08
1.27661e-07
1.69138e-07
2.12279e-07
2.57379e-07
3.04666e-07
3.54291e-07
4.06322e-07
4.60746e-07
5.1746e-07
5.76278e-07
6.36935e-07
6.99093e-07
7.62362e-07
8.26312e-07
8.90491e-07
9.54428e-07
1.01764e-06
1.07964e-06
1.1399e-06
1.19792e-06
1.25318e-06
1.30517e-06
1.35343e-06
1.39751e-06
1.437e-06
1.47155e-06
1.50083e-06
1.52458e-06
1.54259e-06
1.55469e-06
1.56077e-06
1.56079e-06
1.55473e-06
1.54266e-06
1.52469e-06
1.50096e-06
1.47171e-06
1.43719e-06
1.39772e-06
1.35367e-06
1.30543e-06
1.25345e-06
1.1982e-06
1.1402e-06
1.07994e-06
1.01795e-06
9.54743e-07
8.90806e-07
8.26625e-07
7.6267e-07
6.99393e-07
6.37225e-07
5.76555e-07
5.17721e-07
4.6099e-07
4.06546e-07
3.54493e-07
3.04846e-07
2.57535e-07
2.1241e-07
1.69244e-07
1.27742e-07
8.75491e-08
4.82589e-08
8.30892e-11
3.11292e-13
3.12541e-13
8.34252e-11
4.84563e-08
8.79083e-08
1.28268e-07
1.69943e-07
2.13291e-07
2.58608e-07
3.06124e-07
3.55989e-07
4.08273e-07
4.62961e-07
5.19951e-07
5.79055e-07
6.40004e-07
7.02462e-07
7.66034e-07
8.30289e-07
8.94771e-07
9.59009e-07
1.02252e-06
1.0848e-06
1.14534e-06
1.20362e-06
1.25913e-06
1.31136e-06
1.35984e-06
1.40412e-06
1.44378e-06
1.47848e-06
1.50789e-06
1.53175e-06
1.54983e-06
1.56199e-06
1.5681e-06
1.56811e-06
1.56203e-06
1.54991e-06
1.53185e-06
1.50803e-06
1.47864e-06
1.44397e-06
1.40433e-06
1.36007e-06
1.31162e-06
1.2594e-06
1.20391e-06
1.14564e-06
1.0851e-06
1.02283e-06
9.59323e-07
8.95085e-07
8.30601e-07
7.66341e-07
7.02761e-07
6.40293e-07
5.7933e-07
5.20211e-07
4.63204e-07
4.08496e-07
3.5619e-07
3.06302e-07
2.58763e-07
2.13421e-07
1.70049e-07
1.28349e-07
8.79649e-08
4.84882e-08
8.34839e-11
3.12768e-13
3.13443e-13
8.36666e-11
4.85965e-08
8.81627e-08
1.2864e-07
1.70436e-07
2.1391e-07
2.59361e-07
3.07016e-07
3.57029e-07
4.09469e-07
4.6432e-07
5.2148e-07
5.8076e-07
6.41892e-07
7.04535e-07
7.68294e-07
8.32738e-07
8.97408e-07
9.61832e-07
1.02552e-06
1.08798e-06
1.1487e-06
1.20714e-06
1.26281e-06
1.31519e-06
1.3638e-06
1.4082e-06
1.44797e-06
1.48277e-06
1.51226e-06
1.53618e-06
1.55431e-06
1.5665e-06
1.57263e-06
1.57264e-06
1.56654e-06
1.55439e-06
1.53628e-06
1.51239e-06
1.48293e-06
1.44816e-06
1.40841e-06
1.36403e-06
1.31544e-06
1.26308e-06
1.20743e-06
1.14899e-06
1.08829e-06
1.02583e-06
9.62145e-07
8.97722e-07
8.33049e-07
7.68601e-07
7.04833e-07
6.4218e-07
5.81036e-07
5.2174e-07
4.64563e-07
4.09692e-07
3.5723e-07
3.07195e-07
2.59515e-07
2.1404e-07
1.70541e-07
1.2872e-07
8.82191e-08
4.86284e-08
8.37252e-11
3.1367e-13
3.13978e-13
8.38097e-11
4.86797e-08
8.83136e-08
1.2886e-07
1.70728e-07
2.14278e-07
2.59808e-07
3.07547e-07
3.57648e-07
4.10181e-07
4.6513e-07
5.22391e-07
5.81777e-07
6.43017e-07
7.05771e-07
7.69644e-07
8.34201e-07
8.98984e-07
9.6352e-07
1.02732e-06
1.08989e-06
1.15071e-06
1.20925e-06
1.26501e-06
1.31748e-06
1.36617e-06
1.41064e-06
1.45049e-06
1.48534e-06
1.51487e-06
1.53883e-06
1.557e-06
1.5692e-06
1.57534e-06
1.57536e-06
1.56925e-06
1.55708e-06
1.53894e-06
1.51501e-06
1.4855e-06
1.45067e-06
1.41085e-06
1.3664e-06
1.31773e-06
1.26528e-06
1.20954e-06
1.151e-06
1.09019e-06
1.02763e-06
9.63833e-07
8.99297e-07
8.34512e-07
7.6995e-07
7.0607e-07
6.43305e-07
5.82052e-07
5.22651e-07
4.65372e-07
4.10403e-07
3.57849e-07
3.07725e-07
2.59962e-07
2.14408e-07
1.70834e-07
1.28941e-07
8.83699e-08
4.87115e-08
8.38682e-11
3.14205e-13
3.14286e-13
8.38921e-11
4.87275e-08
8.84004e-08
1.28987e-07
1.70896e-07
2.1449e-07
2.60065e-07
3.07853e-07
3.58005e-07
4.10592e-07
4.65597e-07
5.22918e-07
5.82366e-07
6.43669e-07
7.06488e-07
7.70426e-07
8.3505e-07
8.99899e-07
9.64501e-07
1.02837e-06
1.091e-06
1.15187e-06
1.21048e-06
1.26629e-06
1.31881e-06
1.36755e-06
1.41207e-06
1.45195e-06
1.48683e-06
1.5164e-06
1.54038e-06
1.55856e-06
1.57078e-06
1.57693e-06
1.57694e-06
1.57083e-06
1.55864e-06
1.54049e-06
1.51653e-06
1.48699e-06
1.45213e-06
1.41228e-06
1.36778e-06
1.31906e-06
1.26656e-06
1.21076e-06
1.15217e-06
1.0913e-06
1.02868e-06
9.64813e-07
9.00212e-07
8.3536e-07
7.70732e-07
7.06786e-07
6.43957e-07
5.82641e-07
5.23178e-07
4.65839e-07
4.10814e-07
3.58206e-07
3.08031e-07
2.6022e-07
2.1462e-07
1.71002e-07
1.29067e-07
8.84567e-08
4.87593e-08
8.39504e-11
3.14512e-13
3.14458e-13
8.39381e-11
4.87543e-08
8.84489e-08
1.29058e-07
1.70991e-07
2.14608e-07
2.6021e-07
3.08025e-07
3.58206e-07
4.10823e-07
4.6586e-07
5.23215e-07
5.82697e-07
6.44036e-07
7.06892e-07
7.70867e-07
8.35528e-07
9.00415e-07
9.65054e-07
1.02896e-06
1.09162e-06
1.15253e-06
1.21117e-06
1.26702e-06
1.31956e-06
1.36833e-06
1.41287e-06
1.45278e-06
1.48768e-06
1.51726e-06
1.54126e-06
1.55945e-06
1.57168e-06
1.57782e-06
1.57784e-06
1.57172e-06
1.55953e-06
1.54137e-06
1.5174e-06
1.48784e-06
1.45296e-06
1.41308e-06
1.36856e-06
1.31982e-06
1.26729e-06
1.21146e-06
1.15283e-06
1.09192e-06
1.02927e-06
9.65366e-07
9.00728e-07
8.35839e-07
7.71173e-07
7.0719e-07
6.44324e-07
5.82971e-07
5.23474e-07
4.66102e-07
4.11045e-07
3.58407e-07
3.08203e-07
2.60364e-07
2.14738e-07
1.71096e-07
1.29138e-07
8.85052e-08
4.8786e-08
8.39964e-11
3.14684e-13
3.14551e-13
8.39631e-11
4.87688e-08
8.84754e-08
1.29096e-07
1.71042e-07
2.14673e-07
2.60288e-07
3.08118e-07
3.58315e-07
4.10949e-07
4.66004e-07
5.23377e-07
5.82878e-07
6.44237e-07
7.07113e-07
7.71109e-07
8.3579e-07
9.00698e-07
9.65357e-07
1.02928e-06
1.09197e-06
1.1529e-06
1.21155e-06
1.26742e-06
1.31998e-06
1.36876e-06
1.41332e-06
1.45323e-06
1.48815e-06
1.51774e-06
1.54174e-06
1.55994e-06
1.57217e-06
1.57832e-06
1.57833e-06
1.57222e-06
1.56002e-06
1.54185e-06
1.51787e-06
1.48831e-06
1.45342e-06
1.41353e-06
1.36899e-06
1.32023e-06
1.26768e-06
1.21184e-06
1.15319e-06
1.09227e-06
1.02959e-06
9.6567e-07
9.01011e-07
8.36101e-07
7.71415e-07
7.07411e-07
6.44524e-07
5.83152e-07
5.23636e-07
4.66246e-07
4.11171e-07
3.58516e-07
3.08296e-07
2.60443e-07
2.14803e-07
1.71147e-07
1.29177e-07
8.85316e-08
4.88006e-08
8.40214e-11
3.14777e-13
3.146e-13
8.39763e-11
4.87765e-08
8.84893e-08
1.29117e-07
1.71069e-07
2.14707e-07
2.6033e-07
3.08168e-07
3.58373e-07
4.11016e-07
4.6608e-07
5.23463e-07
5.82974e-07
6.44344e-07
7.07231e-07
7.71238e-07
8.3593e-07
9.00849e-07
9.6552e-07
1.02945e-06
1.09215e-06
1.15309e-06
1.21176e-06
1.26763e-06
1.3202e-06
1.36899e-06
1.41355e-06
1.45348e-06
1.4884e-06
1.51799e-06
1.542e-06
1.5602e-06
1.57243e-06
1.57858e-06
1.5786e-06
1.57248e-06
1.56028e-06
1.54211e-06
1.51813e-06
1.48856e-06
1.45366e-06
1.41376e-06
1.36922e-06
1.32045e-06
1.2679e-06
1.21204e-06
1.15339e-06
1.09245e-06
1.02976e-06
9.65832e-07
9.01162e-07
8.36241e-07
7.71543e-07
7.07529e-07
6.44631e-07
5.83249e-07
5.23722e-07
4.66322e-07
4.11238e-07
3.58574e-07
3.08346e-07
2.60484e-07
2.14837e-07
1.71174e-07
1.29197e-07
8.85456e-08
4.88083e-08
8.40347e-11
3.14827e-13
3.14626e-13
8.39831e-11
4.87805e-08
8.84965e-08
1.29127e-07
1.71083e-07
2.14725e-07
2.60352e-07
3.08194e-07
3.58403e-07
4.1105e-07
4.6612e-07
5.23507e-07
5.83024e-07
6.44399e-07
7.07292e-07
7.71305e-07
8.36003e-07
9.00928e-07
9.65604e-07
1.02954e-06
1.09225e-06
1.15319e-06
1.21186e-06
1.26774e-06
1.32032e-06
1.36911e-06
1.41368e-06
1.4536e-06
1.48853e-06
1.51813e-06
1.54214e-06
1.56034e-06
1.57257e-06
1.57872e-06
1.57874e-06
1.57262e-06
1.56042e-06
1.54224e-06
1.51826e-06
1.48869e-06
1.45379e-06
1.41389e-06
1.36934e-06
1.32057e-06
1.26801e-06
1.21215e-06
1.15349e-06
1.09255e-06
1.02985e-06
9.65916e-07
9.01241e-07
8.36314e-07
7.7161e-07
7.0759e-07
6.44687e-07
5.83299e-07
5.23767e-07
4.66361e-07
4.11272e-07
3.58604e-07
3.08371e-07
2.60506e-07
2.14855e-07
1.71188e-07
1.29208e-07
8.85528e-08
4.88122e-08
8.40415e-11
3.14852e-13
3.14638e-13
8.39865e-11
4.87825e-08
8.85001e-08
1.29132e-07
1.7109e-07
2.14734e-07
2.60362e-07
3.08206e-07
3.58418e-07
4.11068e-07
4.66139e-07
5.2353e-07
5.83049e-07
6.44427e-07
7.07323e-07
7.71339e-07
8.3604e-07
9.00968e-07
9.65647e-07
1.02959e-06
1.09229e-06
1.15324e-06
1.21192e-06
1.2678e-06
1.32038e-06
1.36917e-06
1.41374e-06
1.45367e-06
1.48859e-06
1.5182e-06
1.54221e-06
1.56041e-06
1.57264e-06
1.57879e-06
1.57881e-06
1.57269e-06
1.56049e-06
1.54231e-06
1.51833e-06
1.48876e-06
1.45386e-06
1.41395e-06
1.36941e-06
1.32063e-06
1.26807e-06
1.2122e-06
1.15354e-06
1.0926e-06
1.0299e-06
9.65959e-07
9.01281e-07
8.36351e-07
7.71644e-07
7.07621e-07
6.44715e-07
5.83324e-07
5.23789e-07
4.66381e-07
4.1129e-07
3.58619e-07
3.08384e-07
2.60517e-07
2.14863e-07
1.71195e-07
1.29213e-07
8.85564e-08
4.88142e-08
8.40449e-11
3.14865e-13
3.14645e-13
8.39882e-11
4.87834e-08
8.85019e-08
1.29135e-07
1.71094e-07
2.14738e-07
2.60368e-07
3.08213e-07
3.58426e-07
4.11076e-07
4.66149e-07
5.23541e-07
5.83062e-07
6.44441e-07
7.07338e-07
7.71355e-07
8.36058e-07
9.00987e-07
9.65668e-07
1.02961e-06
1.09232e-06
1.15327e-06
1.21195e-06
1.26783e-06
1.32041e-06
1.3692e-06
1.41377e-06
1.4537e-06
1.48863e-06
1.51823e-06
1.54224e-06
1.56044e-06
1.57268e-06
1.57883e-06
1.57884e-06
1.57272e-06
1.56052e-06
1.54235e-06
1.51836e-06
1.48879e-06
1.45389e-06
1.41398e-06
1.36944e-06
1.32066e-06
1.26809e-06
1.21223e-06
1.15356e-06
1.09262e-06
1.02992e-06
9.6598e-07
9.013e-07
8.36369e-07
7.71661e-07
7.07636e-07
6.44729e-07
5.83336e-07
5.238e-07
4.66391e-07
4.11298e-07
3.58626e-07
3.08391e-07
2.60522e-07
2.14868e-07
1.71199e-07
1.29216e-07
8.85582e-08
4.88152e-08
8.40466e-11
3.14871e-13
3.14648e-13
8.3989e-11
4.87839e-08
8.85027e-08
1.29136e-07
1.71095e-07
2.1474e-07
2.6037e-07
3.08216e-07
3.58429e-07
4.11081e-07
4.66154e-07
5.23546e-07
5.83068e-07
6.44448e-07
7.07345e-07
7.71363e-07
8.36067e-07
9.00997e-07
9.65678e-07
1.02962e-06
1.09233e-06
1.15328e-06
1.21196e-06
1.26784e-06
1.32042e-06
1.36922e-06
1.41379e-06
1.45372e-06
1.48864e-06
1.51825e-06
1.54226e-06
1.56046e-06
1.57269e-06
1.57884e-06
1.57886e-06
1.57274e-06
1.56054e-06
1.54236e-06
1.51838e-06
1.4888e-06
1.4539e-06
1.414e-06
1.36945e-06
1.32067e-06
1.26811e-06
1.21224e-06
1.15358e-06
1.09263e-06
1.02993e-06
9.65991e-07
9.0131e-07
8.36378e-07
7.71669e-07
7.07643e-07
6.44735e-07
5.83342e-07
5.23806e-07
4.66396e-07
4.11303e-07
3.5863e-07
3.08394e-07
2.60524e-07
2.1487e-07
1.71201e-07
1.29217e-07
8.8559e-08
4.88157e-08
8.40474e-11
3.14874e-13
3.14649e-13
8.39894e-11
4.87841e-08
8.85031e-08
1.29137e-07
1.71096e-07
2.14741e-07
2.60371e-07
3.08217e-07
3.58431e-07
4.11082e-07
4.66156e-07
5.23549e-07
5.8307e-07
6.44451e-07
7.07349e-07
7.71367e-07
8.36071e-07
9.01001e-07
9.65683e-07
1.02963e-06
1.09233e-06
1.15329e-06
1.21196e-06
1.26785e-06
1.32043e-06
1.36923e-06
1.41379e-06
1.45372e-06
1.48865e-06
1.51825e-06
1.54226e-06
1.56047e-06
1.5727e-06
1.57885e-06
1.57887e-06
1.57275e-06
1.56054e-06
1.54237e-06
1.51839e-06
1.48881e-06
1.45391e-06
1.414e-06
1.36946e-06
1.32068e-06
1.26811e-06
1.21225e-06
1.15358e-06
1.09264e-06
1.02994e-06
9.65995e-07
9.01314e-07
8.36382e-07
7.71673e-07
7.07647e-07
6.44739e-07
5.83345e-07
5.23808e-07
4.66398e-07
4.11305e-07
3.58632e-07
3.08395e-07
2.60526e-07
2.14871e-07
1.71201e-07
1.29218e-07
8.85594e-08
4.88159e-08
8.40477e-11
3.14875e-13
3.1465e-13
8.39895e-11
4.87842e-08
8.85033e-08
1.29137e-07
1.71096e-07
2.14741e-07
2.60372e-07
3.08218e-07
3.58432e-07
4.11083e-07
4.66157e-07
5.2355e-07
5.83072e-07
6.44452e-07
7.0735e-07
7.71369e-07
8.36073e-07
9.01003e-07
9.65685e-07
1.02963e-06
1.09234e-06
1.15329e-06
1.21197e-06
1.26785e-06
1.32043e-06
1.36923e-06
1.4138e-06
1.45373e-06
1.48865e-06
1.51826e-06
1.54227e-06
1.56047e-06
1.5727e-06
1.57886e-06
1.57887e-06
1.57275e-06
1.56055e-06
1.54237e-06
1.51839e-06
1.48881e-06
1.45391e-06
1.41401e-06
1.36946e-06
1.32068e-06
1.26812e-06
1.21225e-06
1.15358e-06
1.09264e-06
1.02994e-06
9.65998e-07
9.01316e-07
8.36384e-07
7.71675e-07
7.07648e-07
6.4474e-07
5.83346e-07
5.23809e-07
4.66399e-07
4.11305e-07
3.58632e-07
3.08396e-07
2.60526e-07
2.14871e-07
1.71202e-07
1.29218e-07
8.85596e-08
4.8816e-08
8.40479e-11
3.14876e-13
3.1465e-13
8.39896e-11
4.87842e-08
8.85034e-08
1.29137e-07
1.71096e-07
2.14742e-07
2.60372e-07
3.08218e-07
3.58432e-07
4.11084e-07
4.66158e-07
5.2355e-07
5.83072e-07
6.44453e-07
7.07351e-07
7.7137e-07
8.36074e-07
9.01004e-07
9.65686e-07
1.02963e-06
1.09234e-06
1.15329e-06
1.21197e-06
1.26785e-06
1.32043e-06
1.36923e-06
1.4138e-06
1.45373e-06
1.48866e-06
1.51826e-06
1.54227e-06
1.56047e-06
1.57271e-06
1.57886e-06
1.57887e-06
1.57275e-06
1.56055e-06
1.54238e-06
1.51839e-06
1.48882e-06
1.45392e-06
1.41401e-06
1.36946e-06
1.32068e-06
1.26812e-06
1.21225e-06
1.15359e-06
1.09264e-06
1.02994e-06
9.65999e-07
9.01317e-07
8.36384e-07
7.71675e-07
7.07649e-07
6.44741e-07
5.83347e-07
5.2381e-07
4.66399e-07
4.11306e-07
3.58633e-07
3.08396e-07
2.60526e-07
2.14871e-07
1.71202e-07
1.29218e-07
8.85597e-08
4.8816e-08
8.4048e-11
3.14876e-13
3.1465e-13
8.39896e-11
4.87843e-08
8.85034e-08
1.29137e-07
1.71097e-07
2.14742e-07
2.60372e-07
3.08218e-07
3.58432e-07
4.11084e-07
4.66158e-07
5.2355e-07
5.83073e-07
6.44453e-07
7.07351e-07
7.7137e-07
8.36074e-07
9.01005e-07
9.65687e-07
1.02963e-06
1.09234e-06
1.15329e-06
1.21197e-06
1.26785e-06
1.32043e-06
1.36923e-06
1.4138e-06
1.45373e-06
1.48866e-06
1.51826e-06
1.54227e-06
1.56047e-06
1.57271e-06
1.57886e-06
1.57887e-06
1.57275e-06
1.56055e-06
1.54238e-06
1.51839e-06
1.48882e-06
1.45392e-06
1.41401e-06
1.36946e-06
1.32068e-06
1.26812e-06
1.21225e-06
1.15359e-06
1.09264e-06
1.02994e-06
9.65999e-07
9.01318e-07
8.36385e-07
7.71676e-07
7.07649e-07
6.44741e-07
5.83347e-07
5.2381e-07
4.664e-07
4.11306e-07
3.58633e-07
3.08396e-07
2.60527e-07
2.14872e-07
1.71202e-07
1.29218e-07
8.85597e-08
4.8816e-08
8.4048e-11
3.14876e-13
3.1465e-13
8.39897e-11
4.87843e-08
8.85034e-08
1.29137e-07
1.71097e-07
2.14742e-07
2.60372e-07
3.08218e-07
3.58432e-07
4.11084e-07
4.66158e-07
5.23551e-07
5.83073e-07
6.44453e-07
7.07351e-07
7.7137e-07
8.36074e-07
9.01005e-07
9.65687e-07
1.02963e-06
1.09234e-06
1.15329e-06
1.21197e-06
1.26785e-06
1.32043e-06
1.36923e-06
1.4138e-06
1.45373e-06
1.48866e-06
1.51826e-06
1.54227e-06
1.56048e-06
1.57271e-06
1.57886e-06
1.57887e-06
1.57275e-06
1.56055e-06
1.54238e-06
1.51839e-06
1.48882e-06
1.45392e-06
1.41401e-06
1.36946e-06
1.32068e-06
1.26812e-06
1.21225e-06
1.15359e-06
1.09264e-06
1.02994e-06
9.65999e-07
9.01318e-07
8.36385e-07
7.71676e-07
7.07649e-07
6.44741e-07
5.83347e-07
5.2381e-07
4.664e-07
4.11306e-07
3.58633e-07
3.08396e-07
2.60527e-07
2.14872e-07
1.71202e-07
1.29218e-07
8.85597e-08
4.8816e-08
8.4048e-11
3.14876e-13
3.1465e-13
8.39897e-11
4.87843e-08
8.85034e-08
1.29137e-07
1.71097e-07
2.14742e-07
2.60372e-07
3.08218e-07
3.58432e-07
4.11084e-07
4.66158e-07
5.23551e-07
5.83073e-07
6.44453e-07
7.07351e-07
7.7137e-07
8.36074e-07
9.01005e-07
9.65687e-07
1.02963e-06
1.09234e-06
1.15329e-06
1.21197e-06
1.26785e-06
1.32043e-06
1.36923e-06
1.4138e-06
1.45373e-06
1.48866e-06
1.51826e-06
1.54227e-06
1.56048e-06
1.57271e-06
1.57886e-06
1.57887e-06
1.57275e-06
1.56055e-06
1.54238e-06
1.51839e-06
1.48882e-06
1.45392e-06
1.41401e-06
1.36946e-06
1.32068e-06
1.26812e-06
1.21225e-06
1.15359e-06
1.09264e-06
1.02994e-06
9.65999e-07
9.01318e-07
8.36385e-07
7.71676e-07
7.07649e-07
6.44741e-07
5.83347e-07
5.2381e-07
4.664e-07
4.11306e-07
3.58633e-07
3.08396e-07
2.60527e-07
2.14872e-07
1.71202e-07
1.29218e-07
8.85597e-08
4.8816e-08
8.4048e-11
3.14876e-13
3.1465e-13
8.39897e-11
4.87843e-08
8.85034e-08
1.29137e-07
1.71097e-07
2.14742e-07
2.60372e-07
3.08218e-07
3.58432e-07
4.11084e-07
4.66158e-07
5.23551e-07
5.83073e-07
6.44453e-07
7.07351e-07