/*--------------------------------*- C++ -*----------------------------------*\
  =========                 |
  \\      /  F ield         | OpenFOAM: The Open Source CFD Toolbox
   \\    /   O peration     | Website:  https://openfoam.org
    \\  /    A nd           | Version:  13
     \\/     M anipulation  |
\*---------------------------------------------------------------------------*/
FoamFile
{
    format      ascii;
    class       volScalarField;
    location    "300";
    object      k;
}
// * * * * * * * * * * * * * * * * * * * * * * * * * * * * * * * * * * * * * //

dimensions      [0 2 -2 0 0 0 0];

internalField   nonuniform List<scalar> 
78750
(
2.34976e-16
6.67281e-15
3.02106e-14
5.47952e-14
8.07024e-14
1.0812e-13
1.37062e-13
1.67322e-13
1.98474e-13
2.29891e-13
2.60785e-13
2.90264e-13
3.17386e-13
3.41219e-13
3.60902e-13
3.75698e-13
3.85037e-13
3.88553e-13
3.86105e-13
3.77785e-13
3.63914e-13
3.45024e-13
3.21819e-13
2.95141e-13
2.6591e-13
2.35069e-13
2.03524e-13
1.72079e-13
1.41386e-13
1.11898e-13
8.38369e-14
5.71915e-14
3.17325e-14
7.06862e-15
2.50029e-16
5.09499e-15
1.46968e-13
7.32456e-13
1.33808e-12
1.97562e-12
2.65208e-12
3.3688e-12
4.12097e-12
4.89783e-12
5.68338e-12
6.4575e-12
7.19729e-12
7.87858e-12
8.47751e-12
8.97202e-12
9.34319e-12
9.57648e-12
9.66256e-12
9.5979e-12
9.38503e-12
9.03229e-12
8.55344e-12
7.96671e-12
7.29374e-12
6.55821e-12
5.7843e-12
4.99515e-12
4.21133e-12
3.44935e-12
2.72055e-12
2.03026e-12
1.37751e-12
7.55357e-13
1.51817e-13
5.26647e-15
1.41055e-14
4.07005e-13
2.03268e-12
3.73531e-12
5.56322e-12
7.54856e-12
9.70349e-12
1.2018e-11
1.44598e-11
1.69759e-11
1.94962e-11
2.19383e-11
2.42131e-11
2.6231e-11
2.79079e-11
2.91713e-11
2.99649e-11
3.02528e-11
3.00218e-11
2.92821e-11
2.80671e-11
2.64304e-11
2.44431e-11
2.2188e-11
1.97544e-11
1.72318e-11
1.47035e-11
1.22412e-11
9.89945e-12
7.71247e-12
5.69185e-12
3.82656e-12
2.08484e-12
4.17935e-13
1.44908e-14
2.68922e-14
7.76005e-13
3.87843e-12
7.14268e-12
1.06725e-11
1.45391e-11
1.87731e-11
2.33595e-11
2.82366e-11
3.32986e-11
3.84024e-11
4.33762e-11
4.8032e-11
5.21784e-11
5.56341e-11
5.82418e-11
5.98788e-11
6.04669e-11
5.99774e-11
5.84336e-11
5.59091e-11
5.25223e-11
4.84276e-11
4.38043e-11
3.88435e-11
3.3734e-11
2.86493e-11
2.37355e-11
1.91014e-11
1.4812e-11
1.08852e-11
7.2925e-12
3.96347e-12
7.93761e-13
2.75177e-14
4.12761e-14
1.19103e-12
5.95375e-12
1.09714e-11
1.64086e-11
2.23791e-11
2.89331e-11
3.60496e-11
4.36338e-11
5.15214e-11
5.94881e-11
6.72641e-11
7.45524e-11
8.10497e-11
8.64683e-11
9.05575e-11
9.31224e-11
9.40379e-11
9.32588e-11
9.08231e-11
8.68489e-11
8.15254e-11
7.50993e-11
6.78556e-11
6.0097e-11
5.21216e-11
4.4202e-11
3.65663e-11
2.93832e-11
2.27522e-11
1.66985e-11
1.11748e-11
6.06873e-12
1.215e-12
4.21204e-14
5.5316e-14
1.5961e-12
7.97884e-12
1.47053e-11
2.19978e-11
3.00106e-11
3.88121e-11
4.83745e-11
5.85707e-11
6.91796e-11
7.98991e-11
9.03654e-11
1.00177e-10
1.08926e-10
1.16221e-10
1.21726e-10
1.25175e-10
1.26401e-10
1.25343e-10
1.22052e-10
1.16689e-10
1.0951e-10
1.00849e-10
9.10916e-11
8.06465e-11
6.99161e-11
5.92674e-11
4.90075e-11
3.93628e-11
3.04663e-11
2.2351e-11
1.49524e-11
8.11815e-12
1.62512e-12
5.63383e-14
6.77174e-14
1.95394e-12
9.76771e-12
1.80025e-11
2.69313e-11
3.67433e-11
4.75224e-11
5.92349e-11
7.17248e-11
8.47213e-11
9.78539e-11
1.10676e-10
1.22697e-10
1.33414e-10
1.4235e-10
1.4909e-10
1.53312e-10
1.54807e-10
1.53503e-10
1.49463e-10
1.42884e-10
1.34081e-10
1.23464e-10
1.11505e-10
9.87069e-11
8.55617e-11
7.25195e-11
5.99563e-11
4.81495e-11
3.72614e-11
2.73322e-11
1.82824e-11
9.9251e-12
1.98671e-12
6.88719e-14
7.77757e-14
2.24425e-12
1.12192e-11
2.06776e-11
3.09331e-11
4.22031e-11
5.45844e-11
6.80378e-11
8.23842e-11
9.73124e-11
1.12396e-10
1.27124e-10
1.4093e-10
1.53237e-10
1.63498e-10
1.71236e-10
1.76079e-10
1.77791e-10
1.76287e-10
1.7164e-10
1.64078e-10
1.53962e-10
1.41763e-10
1.28025e-10
1.13323e-10
9.82251e-11
8.3247e-11
6.88206e-11
5.52643e-11
4.27643e-11
3.13666e-11
2.09797e-11
1.13888e-11
2.27954e-12
7.9019e-14
8.53009e-14
2.46155e-12
1.23059e-11
2.26803e-11
3.39289e-11
4.62902e-11
5.98702e-11
7.4626e-11
9.03612e-11
1.06734e-10
1.23277e-10
1.39429e-10
1.54569e-10
1.68065e-10
1.79316e-10
1.87798e-10
1.93106e-10
1.94979e-10
1.93324e-10
1.88223e-10
1.79925e-10
1.68826e-10
1.55444e-10
1.40375e-10
1.24251e-10
1.07692e-10
9.12669e-11
7.54474e-11
6.05831e-11
4.6878e-11
3.43825e-11
2.29959e-11
1.24828e-11
2.49835e-12
8.65977e-14
9.0507e-14
2.61197e-12
1.30585e-11
2.40672e-11
3.60035e-11
4.91203e-11
6.35304e-11
7.91879e-11
9.58845e-11
1.13258e-10
1.30811e-10
1.47949e-10
1.64012e-10
1.7833e-10
1.90266e-10
1.99264e-10
2.04892e-10
2.06876e-10
2.05116e-10
1.997e-10
1.90891e-10
1.79112e-10
1.64911e-10
1.4892e-10
1.31811e-10
1.14242e-10
9.68144e-11
8.0031e-11
6.42616e-11
4.97229e-11
3.6468e-11
2.43901e-11
1.32392e-11
2.64957e-12
9.1832e-14
9.38461e-14
2.70851e-12
1.35417e-11
2.49577e-11
3.73356e-11
5.09377e-11
6.58807e-11
8.21174e-11
9.94314e-11
1.17447e-10
1.35649e-10
1.53419e-10
1.70076e-10
1.84922e-10
1.97297e-10
2.06625e-10
2.12459e-10
2.14514e-10
2.12687e-10
2.07068e-10
1.97931e-10
1.85714e-10
1.70987e-10
1.54404e-10
1.36662e-10
1.18444e-10
1.00373e-10
8.29712e-11
6.66211e-11
5.15474e-11
3.78053e-11
2.5284e-11
1.37241e-11
2.74647e-12
9.51837e-14
9.58377e-14
2.76614e-12
1.38303e-11
2.54896e-11
3.81312e-11
5.20232e-11
6.72846e-11
8.38672e-11
1.0155e-10
1.19949e-10
1.38539e-10
1.56687e-10
1.73698e-10
1.88859e-10
2.01497e-10
2.11023e-10
2.16979e-10
2.19076e-10
2.17208e-10
2.11468e-10
2.02135e-10
1.89657e-10
1.74614e-10
1.57678e-10
1.39558e-10
1.20952e-10
1.02497e-10
8.47257e-11
6.80288e-11
5.26359e-11
3.86031e-11
2.58172e-11
1.40134e-11
2.80423e-12
9.71798e-14
9.69462e-14
2.79824e-12
1.39911e-11
2.57862e-11
3.85748e-11
5.26283e-11
6.80673e-11
8.48428e-11
1.02731e-10
1.21344e-10
1.4015e-10
1.5851e-10
1.75718e-10
1.91055e-10
2.03839e-10
2.13474e-10
2.19499e-10
2.21619e-10
2.19729e-10
2.1392e-10
2.04478e-10
1.91854e-10
1.76636e-10
1.59502e-10
1.41171e-10
1.22349e-10
1.03681e-10
8.5703e-11
6.88129e-11
5.32421e-11
3.90473e-11
2.6114e-11
1.41743e-11
2.83636e-12
9.82893e-14
9.75241e-14
2.81499e-12
1.40751e-11
2.5941e-11
3.88064e-11
5.29443e-11
6.8476e-11
8.53523e-11
1.03348e-10
1.22073e-10
1.40992e-10
1.59461e-10
1.76773e-10
1.92202e-10
2.05062e-10
2.14755e-10
2.20816e-10
2.22947e-10
2.21045e-10
2.15201e-10
2.05701e-10
1.93001e-10
1.77691e-10
1.60454e-10
1.42013e-10
1.23079e-10
1.04298e-10
8.62129e-11
6.92219e-11
5.35583e-11
3.9279e-11
2.62688e-11
1.42583e-11
2.8531e-12
9.8867e-14
9.78072e-14
2.82321e-12
1.41163e-11
2.60169e-11
3.89201e-11
5.30994e-11
6.86766e-11
8.56024e-11
1.03651e-10
1.22431e-10
1.41405e-10
1.59929e-10
1.7729e-10
1.92765e-10
2.05662e-10
2.15383e-10
2.21462e-10
2.23599e-10
2.21691e-10
2.1583e-10
2.06302e-10
1.93564e-10
1.78209e-10
1.60922e-10
1.42427e-10
1.23436e-10
1.04601e-10
8.6463e-11
6.94225e-11
5.37133e-11
3.93925e-11
2.63447e-11
1.42994e-11
2.8613e-12
9.91496e-14
9.7938e-14
2.82701e-12
1.41354e-11
2.60521e-11
3.89727e-11
5.31712e-11
6.87695e-11
8.57181e-11
1.03791e-10
1.22596e-10
1.41596e-10
1.60145e-10
1.7753e-10
1.93025e-10
2.0594e-10
2.15674e-10
2.21761e-10
2.23901e-10
2.2199e-10
2.16121e-10
2.0658e-10
1.93825e-10
1.78449e-10
1.61138e-10
1.42618e-10
1.23602e-10
1.04741e-10
8.65786e-11
6.95153e-11
5.3785e-11
3.94451e-11
2.63798e-11
1.43185e-11
2.86509e-12
9.92801e-14
9.79952e-14
2.82867e-12
1.41437e-11
2.60675e-11
3.89957e-11
5.32026e-11
6.88101e-11
8.57688e-11
1.03853e-10
1.22669e-10
1.4168e-10
1.6024e-10
1.77635e-10
1.93139e-10
2.06062e-10
2.15802e-10
2.21892e-10
2.24034e-10
2.22121e-10
2.16248e-10
2.06701e-10
1.93939e-10
1.78554e-10
1.61233e-10
1.42701e-10
1.23674e-10
1.04802e-10
8.66293e-11
6.95558e-11
5.38163e-11
3.9468e-11
2.63951e-11
1.43268e-11
2.86675e-12
9.9337e-14
9.80188e-14
2.82936e-12
1.41472e-11
2.60739e-11
3.90053e-11
5.32157e-11
6.8827e-11
8.57899e-11
1.03878e-10
1.22699e-10
1.41715e-10
1.60279e-10
1.77679e-10
1.93187e-10
2.06113e-10
2.15855e-10
2.21946e-10
2.24088e-10
2.22175e-10
2.16301e-10
2.06752e-10
1.93986e-10
1.78597e-10
1.61272e-10
1.42736e-10
1.23704e-10
1.04828e-10
8.66503e-11
6.95727e-11
5.38294e-11
3.94776e-11
2.64015e-11
1.43302e-11
2.86743e-12
9.93606e-14
9.80282e-14
2.82963e-12
1.41486e-11
2.60764e-11
3.9009e-11
5.32208e-11
6.88337e-11
8.57982e-11
1.03888e-10
1.22711e-10
1.41728e-10
1.60294e-10
1.77696e-10
1.93206e-10
2.06133e-10
2.15876e-10
2.21968e-10
2.2411e-10
2.22197e-10
2.16322e-10
2.06772e-10
1.94005e-10
1.78615e-10
1.61287e-10
1.4275e-10
1.23716e-10
1.04838e-10
8.66586e-11
6.95793e-11
5.38345e-11
3.94813e-11
2.6404e-11
1.43316e-11
2.8677e-12
9.93699e-14
9.80317e-14
2.82973e-12
1.41491e-11
2.60774e-11
3.90105e-11
5.32228e-11
6.88362e-11
8.58013e-11
1.03892e-10
1.22715e-10
1.41734e-10
1.603e-10
1.77703e-10
1.93213e-10
2.0614e-10
2.15884e-10
2.21976e-10
2.24118e-10
2.22205e-10
2.1633e-10
2.0678e-10
1.94012e-10
1.78621e-10
1.61293e-10
1.42755e-10
1.23721e-10
1.04842e-10
8.66617e-11
6.95818e-11
5.38364e-11
3.94827e-11
2.6405e-11
1.43321e-11
2.8678e-12
9.93734e-14
9.80329e-14
2.82977e-12
1.41493e-11
2.60777e-11
3.9011e-11
5.32235e-11
6.88371e-11
8.58025e-11
1.03893e-10
1.22717e-10
1.41736e-10
1.60302e-10
1.77705e-10
1.93215e-10
2.06143e-10
2.15887e-10
2.21979e-10
2.24121e-10
2.22208e-10
2.16333e-10
2.06782e-10
1.94014e-10
1.78623e-10
1.61295e-10
1.42757e-10
1.23722e-10
1.04843e-10
8.66628e-11
6.95827e-11
5.38371e-11
3.94832e-11
2.64053e-11
1.43323e-11
2.86784e-12
9.93746e-14
9.80334e-14
2.82978e-12
1.41493e-11
2.60778e-11
3.90112e-11
5.32237e-11
6.88374e-11
8.58028e-11
1.03894e-10
1.22717e-10
1.41736e-10
1.60303e-10
1.77706e-10
1.93216e-10
2.06144e-10
2.15887e-10
2.2198e-10
2.24122e-10
2.22209e-10
2.16334e-10
2.06783e-10
1.94015e-10
1.78624e-10
1.61296e-10
1.42758e-10
1.23723e-10
1.04843e-10
8.66632e-11
6.9583e-11
5.38374e-11
3.94834e-11
2.64054e-11
1.43323e-11
2.86785e-12
9.9375e-14
9.80335e-14
2.82978e-12
1.41494e-11
2.60779e-11
3.90112e-11
5.32238e-11
6.88375e-11
8.5803e-11
1.03894e-10
1.22718e-10
1.41736e-10
1.60303e-10
1.77706e-10
1.93216e-10
2.06144e-10
2.15888e-10
2.2198e-10
2.24123e-10
2.22209e-10
2.16334e-10
2.06783e-10
1.94016e-10
1.78625e-10
1.61296e-10
1.42758e-10
1.23723e-10
1.04844e-10
8.66633e-11
6.95831e-11
5.38374e-11
3.94835e-11
2.64055e-11
1.43324e-11
2.86786e-12
9.93752e-14
9.80336e-14
2.82979e-12
1.41494e-11
2.60779e-11
3.90112e-11
5.32238e-11
6.88376e-11
8.5803e-11
1.03894e-10
1.22718e-10
1.41736e-10
1.60303e-10
1.77706e-10
1.93216e-10
2.06144e-10
2.15888e-10
2.2198e-10
2.24123e-10
2.22209e-10
2.16334e-10
2.06784e-10
1.94016e-10
1.78625e-10
1.61296e-10
1.42758e-10
1.23723e-10
1.04844e-10
8.66634e-11
6.95832e-11
5.38375e-11
3.94835e-11
2.64055e-11
1.43324e-11
2.86786e-12
9.93752e-14
9.80336e-14
2.82979e-12
1.41494e-11
2.60779e-11
3.90112e-11
5.32238e-11
6.88376e-11
8.5803e-11
1.03894e-10
1.22718e-10
1.41736e-10
1.60303e-10
1.77706e-10
1.93216e-10
2.06144e-10
2.15888e-10
2.2198e-10
2.24123e-10
2.22209e-10
2.16334e-10
2.06784e-10
1.94016e-10
1.78625e-10
1.61296e-10
1.42758e-10
1.23723e-10
1.04844e-10
8.66634e-11
6.95832e-11
5.38375e-11
3.94835e-11
2.64055e-11
1.43324e-11
2.86786e-12
9.93752e-14
9.80336e-14
2.82979e-12
1.41494e-11
2.60779e-11
3.90112e-11
5.32238e-11
6.88376e-11
8.5803e-11
1.03894e-10
1.22718e-10
1.41736e-10
1.60303e-10
1.77706e-10
1.93216e-10
2.06144e-10
2.15888e-10
2.2198e-10
2.24123e-10
2.22209e-10
2.16334e-10
2.06784e-10
1.94016e-10
1.78625e-10
1.61297e-10
1.42758e-10
1.23723e-10
1.04844e-10
8.66634e-11
6.95832e-11
5.38375e-11
3.94835e-11
2.64055e-11
1.43324e-11
2.86786e-12
9.93752e-14
9.80336e-14
2.82979e-12
1.41494e-11
2.60779e-11
3.90112e-11
5.32238e-11
6.88376e-11
8.5803e-11
1.03894e-10
1.22718e-10
1.41736e-10
1.60303e-10
1.77706e-10
1.93216e-10
2.06144e-10
2.15888e-10
2.2198e-10
2.24123e-10
2.22209e-10
2.16334e-10
2.06784e-10
1.94016e-10
1.78625e-10
1.61297e-10
1.42758e-10
1.23723e-10
1.04844e-10
8.66634e-11
6.95832e-11
5.38375e-11
3.94835e-11
2.64055e-11
1.43324e-11
2.86786e-12
9.93752e-14
9.80336e-14
2.82979e-12
1.41494e-11
2.60779e-11
3.90112e-11
5.32238e-11
6.88376e-11
8.5803e-11
1.03894e-10
1.22718e-10
1.41736e-10
1.60303e-10
1.77706e-10
1.93216e-10
2.06144e-10
2.15888e-10
2.2198e-10
2.24123e-10
2.22209e-10
2.16334e-10
2.06784e-10
1.94016e-10
1.78625e-10
1.61297e-10
1.42758e-10
1.23723e-10
1.04844e-10
8.66634e-11
6.95832e-11
5.38375e-11
3.94835e-11
2.64055e-11
1.43324e-11
2.86786e-12
9.93752e-14
9.80336e-14
2.82979e-12
1.41494e-11
2.60779e-11
3.90112e-11
5.32238e-11
6.88376e-11
8.5803e-11
1.03894e-10
1.22718e-10
1.41736e-10
1.60303e-10
1.77706e-10
1.93216e-10
2.06144e-10
2.15888e-10
2.2198e-10
2.24123e-10
2.22209e-10
2.16334e-10
2.06784e-10
1.94016e-10
1.78625e-10
1.61297e-10
1.42758e-10
1.23723e-10
1.04844e-10
8.66634e-11
6.95832e-11
5.38375e-11
3.94835e-11
2.64055e-11
1.43324e-11
2.86786e-12
9.93752e-14
9.80336e-14
2.82979e-12
1.41494e-11
2.60779e-11
3.90112e-11
5.32238e-11
6.88376e-11
8.5803e-11
1.03894e-10
1.22718e-10
1.41736e-10
1.60303e-10
1.77706e-10
1.93216e-10
2.06144e-10
2.15888e-10
2.2198e-10
2.24123e-10
2.22209e-10
2.16334e-10
2.06784e-10
1.94016e-10
1.78625e-10
1.61297e-10
1.42758e-10
1.23723e-10
1.04844e-10
8.66634e-11
6.95832e-11
5.38375e-11
3.94835e-11
2.64055e-11
1.43324e-11
2.86786e-12
9.93752e-14
9.80336e-14
2.82979e-12
1.41494e-11
2.60779e-11
3.90112e-11
5.32238e-11
6.88376e-11
8.5803e-11
1.03894e-10
1.22718e-10
1.41736e-10
1.60303e-10
1.77706e-10
1.93216e-10
2.06144e-10
2.15888e-10
2.2198e-10
2.24123e-10
2.22209e-10
2.16334e-10
2.06784e-10
1.94016e-10
1.78625e-10
1.61297e-10
1.42758e-10
1.23723e-10
1.04844e-10
8.66634e-11
6.95832e-11
5.38375e-11
3.94835e-11
2.64055e-11
1.43324e-11
2.86786e-12
9.93752e-14
9.80336e-14
2.82979e-12
1.41494e-11
2.60779e-11
3.90112e-11
5.32238e-11
6.88376e-11
8.5803e-11
1.03894e-10
1.22718e-10
1.41736e-10
1.60303e-10
1.77706e-10
1.93216e-10
2.06144e-10
2.15888e-10
2.2198e-10
2.24123e-10
2.22209e-10
2.16334e-10
2.06784e-10
1.94016e-10
1.78625e-10
1.61297e-10
1.42758e-10
1.23723e-10
1.04844e-10
8.66634e-11
6.95832e-11
5.38375e-11
3.94835e-11
2.64055e-11
1.43324e-11
2.86786e-12
9.93752e-14
9.80336e-14
2.82979e-12
1.41494e-11
2.60779e-11
3.90112e-11
5.32238e-11
6.88376e-11
8.5803e-11
1.03894e-10
1.22718e-10
1.41736e-10
1.60303e-10
1.77706e-10
1.93216e-10
2.06144e-10
2.15888e-10
2.2198e-10
2.24123e-10
2.22209e-10
2.16334e-10
2.06784e-10
1.94016e-10
1.78625e-10
1.61297e-10
1.42758e-10
1.23723e-10
1.04844e-10
8.66634e-11
6.95832e-11
5.38375e-11
3.94835e-11
2.64055e-11
1.43324e-11
2.86786e-12
9.93752e-14
9.80336e-14
2.82979e-12
1.41494e-11
2.60779e-11
3.90112e-11
5.32238e-11
6.88376e-11
8.5803e-11
1.03894e-10
1.22718e-10
1.41736e-10
1.60303e-10
1.77706e-10
1.93216e-10
2.06144e-10
2.15888e-10
2.2198e-10
2.24123e-10
2.22209e-10
2.16334e-10
2.06784e-10
1.94016e-10
1.78625e-10
1.61297e-10
1.42758e-10
1.23723e-10
1.04844e-10
8.66634e-11
6.95832e-11
5.38375e-11
3.94835e-11
2.64055e-11
1.43324e-11
2.86786e-12
9.93752e-14
9.80336e-14
2.82979e-12
1.41494e-11
2.60779e-11
3.90112e-11
5.32238e-11
6.88376e-11
8.5803e-11
1.03894e-10
1.22718e-10
1.41736e-10
1.60303e-10
1.77706e-10
1.93216e-10
2.06144e-10
2.15888e-10
2.2198e-10
2.24123e-10
2.22209e-10
2.16334e-10
2.06784e-10
1.94016e-10
1.78625e-10
1.61297e-10
1.42758e-10
1.23723e-10
1.04844e-10
8.66634e-11
6.95832e-11
5.38375e-11
3.94835e-11
2.64055e-11
1.43324e-11
2.86786e-12
9.93752e-14
9.80336e-14
2.82979e-12
1.41494e-11
2.60779e-11
3.90112e-11
5.32238e-11
6.88376e-11
8.5803e-11
1.03894e-10
1.22718e-10
1.41736e-10
1.60303e-10
1.77706e-10
1.93216e-10
2.06144e-10
2.15888e-10
2.2198e-10
2.24123e-10
2.22209e-10
2.16334e-10
2.06784e-10
1.94016e-10
1.78625e-10
1.61297e-10
1.42758e-10
1.23723e-10
1.04844e-10
8.66634e-11
6.95832e-11
5.38375e-11
3.94835e-11
2.64055e-11
1.43324e-11
2.86786e-12
9.93752e-14
9.80336e-14
2.82979e-12
1.41494e-11
2.60779e-11
3.90112e-11
5.32238e-11
6.88376e-11
8.5803e-11
1.03894e-10
1.22718e-10
1.41736e-10
1.60303e-10
1.77706e-10
1.93216e-10
2.06144e-10
2.15888e-10
2.2198e-10
2.24123e-10
2.22209e-10
2.16334e-10
2.06784e-10
1.94016e-10
1.78625e-10
1.61297e-10
1.42758e-10
1.23723e-10
1.04844e-10
8.66634e-11
6.95832e-11
5.38375e-11
3.94835e-11
2.64055e-11
1.43324e-11
2.86786e-12
9.93752e-14
9.80336e-14
2.82979e-12
1.41494e-11
2.60779e-11
3.90112e-11
5.32238e-11
6.88376e-11
8.5803e-11
1.03894e-10
1.22718e-10
1.41736e-10
1.60303e-10
1.77706e-10
1.93216e-10
2.06144e-10
2.15888e-10
2.2198e-10
2.24123e-10
2.22209e-10
2.16334e-10
2.06784e-10
1.94016e-10
1.78625e-10
1.61297e-10
1.42758e-10
1.23723e-10
1.04844e-10
8.66634e-11
6.95832e-11
5.38375e-11
3.94835e-11
2.64055e-11
1.43324e-11
2.86786e-12
9.93752e-14
9.80336e-14
2.82979e-12
1.41494e-11
2.60779e-11
3.90112e-11
5.32238e-11
6.88376e-11
8.5803e-11
1.03894e-10
1.22718e-10
1.41736e-10
1.60303e-10
1.77706e-10
1.93216e-10
2.06144e-10
2.15888e-10
2.2198e-10
2.24123e-10
2.22209e-10
2.16334e-10
2.06784e-10
1.94016e-10
1.78625e-10
1.61297e-10
1.42758e-10
1.23723e-10
1.04844e-10
8.66634e-11
6.95832e-11
5.38375e-11
3.94835e-11
2.64055e-11
1.43324e-11
2.86786e-12
9.93752e-14
9.80336e-14
2.82979e-12
1.41494e-11
2.60779e-11
3.90112e-11
5.32238e-11
6.88376e-11
8.5803e-11
1.03894e-10
1.22718e-10
1.41736e-10
1.60303e-10
1.77706e-10
1.93216e-10
2.06144e-10
2.15888e-10
2.2198e-10
2.24123e-10
2.22209e-10
2.16334e-10
2.06784e-10
1.94016e-10
1.78625e-10
1.61297e-10
1.42758e-10
1.23723e-10
1.04844e-10
8.66634e-11
6.95832e-11
5.38375e-11
3.94835e-11
2.64055e-11
1.43324e-11
2.86786e-12
9.93752e-14
9.80336e-14
2.82979e-12
1.41494e-11
2.60779e-11
3.90112e-11
5.32238e-11
6.88376e-11
8.5803e-11
1.03894e-10
1.22718e-10
1.41736e-10
1.60303e-10
1.77706e-10
1.93216e-10
2.06144e-10
2.15888e-10
2.2198e-10
2.24123e-10
2.22209e-10
2.16334e-10
2.06784e-10
1.94016e-10
1.78625e-10
1.61297e-10
1.42758e-10
1.23723e-10
1.04844e-10
8.66634e-11
6.95832e-11
5.38375e-11
3.94835e-11
2.64055e-11
1.43324e-11
2.86786e-12
9.93752e-14
9.80336e-14
2.82979e-12
1.41494e-11
2.60779e-11
3.90112e-11
5.32238e-11
6.88376e-11
8.5803e-11
1.03894e-10
1.22718e-10
1.41736e-10
1.60303e-10
1.77706e-10
1.93216e-10
2.06144e-10
2.15888e-10
2.2198e-10
2.24123e-10
2.22209e-10
2.16334e-10
2.06784e-10
1.94016e-10
1.78625e-10
1.61297e-10
1.42758e-10
1.23723e-10
1.04844e-10
8.66634e-11
6.95832e-11
5.38375e-11
3.94835e-11
2.64055e-11
1.43324e-11
2.86786e-12
9.93752e-14
9.80336e-14
2.82979e-12
1.41494e-11
2.60779e-11
3.90112e-11
5.32238e-11
6.88376e-11
8.5803e-11
1.03894e-10
1.22718e-10
1.41736e-10
1.60303e-10
1.77706e-10
1.93216e-10
2.06144e-10
2.15888e-10
2.2198e-10
2.24123e-10
2.22209e-10
2.16334e-10
2.06784e-10
1.94016e-10
1.78625e-10
1.61297e-10
1.42758e-10
1.23723e-10
1.04844e-10
8.66634e-11
6.95832e-11
5.38375e-11
3.94835e-11
2.64055e-11
1.43324e-11
2.86786e-12
9.93752e-14
9.80336e-14
2.82979e-12
1.41494e-11
2.60779e-11
3.90112e-11
5.32238e-11
6.88376e-11
8.5803e-11
1.03894e-10
1.22718e-10
1.41736e-10
1.60303e-10
1.77706e-10
1.93216e-10
2.06144e-10
2.15888e-10
2.2198e-10
2.24123e-10
2.22209e-10
2.16334e-10
2.06784e-10
1.94016e-10
1.78625e-10
1.61297e-10
1.42758e-10
1.23723e-10
1.04844e-10
8.66634e-11
6.95832e-11
5.38375e-11
3.94835e-11
2.64055e-11
1.43324e-11
2.86786e-12
9.93752e-14
9.80336e-14
2.82979e-12
1.41494e-11
2.60779e-11
3.90112e-11
5.32238e-11
6.88376e-11
8.5803e-11
1.03894e-10
1.22718e-10
1.41736e-10
1.60303e-10
1.77706e-10
1.93216e-10
2.06144e-10
2.15888e-10
2.2198e-10
2.24123e-10
2.22209e-10
2.16334e-10
2.06784e-10
1.94016e-10
1.78625e-10
1.61297e-10
1.42758e-10
1.23723e-10
1.04844e-10
8.66634e-11
6.95832e-11
5.38375e-11
3.94835e-11
2.64055e-11
1.43324e-11
2.86786e-12
9.93752e-14
9.80336e-14
2.82979e-12
1.41494e-11
2.60779e-11
3.90112e-11
5.32238e-11
6.88376e-11
8.5803e-11
1.03894e-10
1.22718e-10
1.41736e-10
1.60303e-10
1.77706e-10
1.93216e-10
2.06144e-10
2.15888e-10
2.2198e-10
2.24123e-10
2.22209e-10
2.16334e-10
2.06784e-10
1.94016e-10
1.78625e-10
1.61297e-10
1.42758e-10
1.23723e-10
1.04844e-10
8.66634e-11
6.95832e-11
5.38375e-11
3.94835e-11
2.64055e-11
1.43324e-11
2.86786e-12
9.93752e-14
9.80336e-14
2.82979e-12
1.41494e-11
2.60779e-11
3.90112e-11
5.32238e-11
6.88376e-11
8.5803e-11
1.03894e-10
1.22718e-10
1.41736e-10
1.60303e-10
1.77706e-10
1.93216e-10
2.06144e-10
2.15888e-10
2.2198e-10
2.24123e-10
2.22209e-10
2.16334e-10
2.06784e-10
1.94016e-10
1.78625e-10
1.61297e-10
1.42758e-10
1.23723e-10
1.04844e-10
8.66634e-11
6.95832e-11
5.38375e-11
3.94835e-11
2.64055e-11
1.43324e-11
2.86786e-12
9.93752e-14
9.80336e-14
2.82979e-12
1.41494e-11
2.60779e-11
3.90112e-11
5.32238e-11
6.88376e-11
8.5803e-11
1.03894e-10
1.22718e-10
1.41736e-10
1.60303e-10
1.77706e-10
1.93216e-10
2.06144e-10
2.15888e-10
2.2198e-10
2.24123e-10
2.22209e-10
2.16334e-10
2.06784e-10
1.94016e-10
1.78625e-10
1.61297e-10
1.42758e-10
1.23723e-10
1.04844e-10
8.66634e-11
6.95832e-11
5.38375e-11
3.94835e-11
2.64055e-11
1.43324e-11
2.86786e-12
9.93752e-14
9.80336e-14
2.82979e-12
1.41494e-11
2.60779e-11
3.90112e-11
5.32238e-11
6.88376e-11
8.5803e-11
1.03894e-10
1.22718e-10
1.41736e-10
1.60303e-10
1.77706e-10
1.93216e-10
2.06144e-10
2.15888e-10
2.2198e-10
2.24123e-10
2.22209e-10
2.16334e-10
2.06784e-10
1.94016e-10
1.78625e-10
1.61297e-10
1.42758e-10
1.23723e-10
1.04844e-10
8.66634e-11
6.95832e-11
5.38375e-11
3.94835e-11
2.64055e-11
1.43324e-11
2.86786e-12
9.93752e-14
9.80336e-14
2.82979e-12
1.41494e-11
2.60779e-11
3.90112e-11
5.32238e-11
6.88376e-11
8.5803e-11
1.03894e-10
1.22718e-10
1.41736e-10
1.60303e-10
1.77706e-10
1.93216e-10
2.06144e-10
2.15888e-10
2.2198e-10
2.24123e-10
2.22209e-10
2.16334e-10
2.06784e-10
1.94016e-10
1.78625e-10
1.61297e-10
1.42758e-10
1.23723e-10
1.04844e-10
8.66634e-11
6.95832e-11
5.38375e-11
3.94835e-11
2.64055e-11
1.43324e-11
2.86786e-12
9.93752e-14
9.80336e-14
2.82979e-12
1.41494e-11
2.60779e-11
3.90112e-11
5.32238e-11
6.88376e-11
8.5803e-11
1.03894e-10
1.22718e-10
1.41736e-10
1.60303e-10
1.77706e-10
1.93216e-10
2.06144e-10
2.15888e-10
2.2198e-10
2.24123e-10
2.22209e-10
2.16334e-10
2.06784e-10
1.94016e-10
1.78625e-10
1.61297e-10
1.42758e-10
1.23723e-10
1.04844e-10
8.66634e-11
6.95832e-11
5.38375e-11
3.94835e-11
2.64055e-11
1.43324e-11
2.86786e-12
9.93752e-14
9.80336e-14
2.82979e-12
1.41494e-11
2.60779e-11
3.90112e-11
5.32238e-11
6.88376e-11
8.5803e-11
1.03894e-10
1.22718e-10
1.41736e-10
1.60303e-10
1.77706e-10
1.93216e-10
2.06144e-10
2.15888e-10
2.2198e-10
2.24123e-10
2.22209e-10
2.16334e-10
2.06784e-10
1.94016e-10
1.78625e-10
1.61297e-10
1.42758e-10
1.23723e-10
1.04844e-10
8.66634e-11
6.95832e-11
5.38375e-11
3.94835e-11
2.64055e-11
1.43324e-11
2.86786e-12
9.93752e-14
9.80336e-14
2.82979e-12
1.41494e-11
2.60779e-11
3.90112e-11
5.32238e-11
6.88376e-11
8.5803e-11
1.03894e-10
1.22718e-10
1.41736e-10
1.60303e-10
1.77706e-10
1.93216e-10
2.06144e-10
2.15888e-10
2.2198e-10
2.24123e-10
2.22209e-10
2.16334e-10
2.06784e-10
1.94016e-10
1.78625e-10
1.61297e-10
1.42758e-10
1.23723e-10
1.04844e-10
8.66634e-11
6.95832e-11
5.38375e-11
3.94835e-11
2.64055e-11
1.43324e-11
2.86786e-12
9.93752e-14
9.80336e-14
2.82979e-12
1.41494e-11
2.60779e-11
3.90112e-11
5.32238e-11
6.88376e-11
8.5803e-11
1.03894e-10
1.22718e-10
1.41736e-10
1.60303e-10
1.77706e-10
1.93216e-10
2.06144e-10
2.15888e-10
2.2198e-10
2.24123e-10
2.22209e-10
2.16334e-10
2.06784e-10
1.94016e-10
1.78625e-10
1.61297e-10
1.42758e-10
1.23723e-10
1.04844e-10
8.66634e-11
6.95832e-11
5.38375e-11
3.94835e-11
2.64055e-11
1.43324e-11
2.86786e-12
9.93752e-14
9.80336e-14
2.82979e-12
1.41494e-11
2.60779e-11
3.90112e-11
5.32238e-11
6.88376e-11
8.5803e-11
1.03894e-10
1.22718e-10
1.41736e-10
1.60303e-10
1.77706e-10
1.93216e-10
2.06144e-10
2.15888e-10
2.2198e-10
2.24123e-10
2.22209e-10
2.16334e-10
2.06784e-10
1.94016e-10
1.78625e-10
1.61297e-10
1.42758e-10
1.23723e-10
1.04844e-10
8.66634e-11
6.95832e-11
5.38375e-11
3.94835e-11
2.64055e-11
1.43324e-11
2.86786e-12
9.93752e-14
9.80336e-14
2.82979e-12
1.41494e-11
2.60779e-11
3.90112e-11
5.32238e-11
6.88376e-11
8.5803e-11
1.03894e-10
1.22718e-10
1.41736e-10
1.60303e-10
1.77706e-10
1.93216e-10
2.06144e-10
2.15888e-10
2.2198e-10
2.24123e-10
2.22209e-10
2.16334e-10
2.06784e-10
1.94016e-10
1.78625e-10
1.61297e-10
1.42758e-10
1.23723e-10
1.04844e-10
8.66634e-11
6.95832e-11
5.38375e-11
3.94835e-11
2.64055e-11
1.43324e-11
2.86786e-12
9.93752e-14
9.80336e-14
2.82979e-12
1.41494e-11
2.60779e-11
3.90112e-11
5.32238e-11
6.88376e-11
8.5803e-11
1.03894e-10
1.22718e-10
1.41736e-10
1.60303e-10
1.77706e-10
1.93216e-10
2.06144e-10
2.15888e-10
2.2198e-10
2.24123e-10
2.22209e-10
2.16334e-10
2.06784e-10
1.94016e-10
1.78625e-10
1.61297e-10
1.42758e-10
1.23723e-10
1.04844e-10
8.66634e-11
6.95832e-11
5.38375e-11
3.94835e-11
2.64055e-11
1.43324e-11
2.86786e-12
9.93752e-14
9.80336e-14
2.82979e-12
1.41494e-11
2.60779e-11
3.90112e-11
5.32238e-11
6.88376e-11
8.5803e-11
1.03894e-10
1.22718e-10
1.41736e-10
1.60303e-10
1.77706e-10
1.93216e-10
2.06144e-10
2.15888e-10
2.2198e-10
2.24123e-10
2.22209e-10
2.16334e-10
2.06784e-10
1.94016e-10
1.78625e-10
1.61297e-10
1.42758e-10
1.23723e-10
1.04844e-10
8.66634e-11
6.95832e-11
5.38375e-11
3.94835e-11
2.64055e-11
1.43324e-11
2.86786e-12
9.93752e-14
9.80336e-14
2.82979e-12
1.41494e-11
2.60779e-11
3.90112e-11
5.32238e-11
6.88376e-11
8.5803e-11
1.03894e-10
1.22718e-10
1.41736e-10
1.60303e-10
1.77706e-10
1.93216e-10
2.06144e-10
2.15888e-10
2.2198e-10
2.24123e-10
2.22209e-10
2.16334e-10
2.06784e-10
1.94016e-10
1.78625e-10
1.61297e-10
1.42758e-10
1.23723e-10
1.04844e-10
8.66634e-11
6.95832e-11
5.38375e-11
3.94835e-11
2.64055e-11
1.43324e-11
2.86786e-12
9.93752e-14
9.80336e-14
2.82979e-12
1.41494e-11
2.60779e-11
3.90112e-11
5.32238e-11
6.88376e-11
8.5803e-11
1.03894e-10
1.22718e-10
1.41736e-10
1.60303e-10
1.77706e-10
1.93216e-10
2.06144e-10
2.15888e-10
2.2198e-10
2.24123e-10
2.22209e-10
2.16334e-10
2.06784e-10
1.94016e-10
1.78625e-10
1.61297e-10
1.42758e-10
1.23723e-10
1.04844e-10
8.66634e-11
6.95832e-11
5.38375e-11
3.94835e-11
2.64055e-11
1.43324e-11
2.86786e-12
9.93752e-14
9.80336e-14
2.82979e-12
1.41494e-11
2.60779e-11
3.90112e-11
5.32238e-11
6.88376e-11
8.5803e-11
1.03894e-10
1.22718e-10
1.41736e-10
1.60303e-10
1.77706e-10
1.93216e-10
2.06144e-10
2.15888e-10
2.2198e-10
2.24123e-10
2.22209e-10
2.16334e-10
2.06784e-10
1.94016e-10
1.78625e-10
1.61297e-10
1.42758e-10
1.23723e-10
1.04844e-10
8.66634e-11
6.95832e-11
5.38375e-11
3.94835e-11
2.64055e-11
1.43324e-11
2.86786e-12
9.93752e-14
9.80336e-14
2.82979e-12
1.41494e-11
2.60779e-11
3.90112e-11
5.32238e-11
6.88376e-11
8.5803e-11
1.03894e-10
1.22718e-10
1.41736e-10
1.60303e-10
1.77706e-10
1.93216e-10
2.06144e-10
2.15888e-10
2.2198e-10
2.24123e-10
2.22209e-10
2.16334e-10
2.06784e-10
1.94016e-10
1.78625e-10
1.61297e-10
1.42758e-10
1.23723e-10
1.04844e-10
8.66634e-11
6.95832e-11
5.38375e-11
3.94835e-11
2.64055e-11
1.43324e-11
2.86786e-12
9.93752e-14
9.80336e-14
2.82979e-12
1.41494e-11
2.60779e-11
3.90112e-11
5.32238e-11
6.88376e-11
8.5803e-11
1.03894e-10
1.22718e-10
1.41736e-10
1.60303e-10
1.77706e-10
1.93216e-10
2.06144e-10
2.15888e-10
2.2198e-10
2.24123e-10
2.22209e-10
2.16334e-10
2.06784e-10
1.94016e-10
1.78625e-10
1.61297e-10
1.42758e-10
1.23723e-10
1.04844e-10
8.66634e-11
6.95832e-11
5.38375e-11
3.94835e-11
2.64055e-11
1.43324e-11
2.86786e-12
9.93752e-14
9.80336e-14
2.82979e-12
1.41494e-11
2.60779e-11
3.90112e-11
5.32238e-11
6.88376e-11
8.5803e-11
1.03894e-10
1.22718e-10
1.41736e-10
1.60303e-10
1.77706e-10
1.93216e-10
2.06144e-10
2.15888e-10
2.2198e-10
2.24123e-10
2.22209e-10
2.16334e-10
2.06784e-10
1.94016e-10
1.78625e-10
1.61297e-10
1.42758e-10
1.23723e-10
1.04844e-10
8.66634e-11
6.95832e-11
5.38375e-11
3.94835e-11
2.64055e-11
1.43324e-11
2.86786e-12
9.93752e-14
9.80336e-14
2.82979e-12
1.41494e-11
2.60779e-11
3.90112e-11
5.32238e-11
6.88376e-11
8.5803e-11
1.03894e-10
1.22718e-10
1.41736e-10
1.60303e-10
1.77706e-10
1.93216e-10
2.06144e-10
2.15888e-10
2.2198e-10
2.24123e-10
2.22209e-10
2.16334e-10
2.06784e-10
1.94016e-10
1.78625e-10
1.61297e-10
1.42758e-10
1.23723e-10
1.04844e-10
8.66634e-11
6.95832e-11
5.38375e-11
3.94835e-11
2.64055e-11
1.43324e-11
2.86786e-12
9.93752e-14
9.80336e-14
2.82979e-12
1.41494e-11
2.60779e-11
3.90112e-11
5.32238e-11
6.88376e-11
8.5803e-11
1.03894e-10
1.22718e-10
1.41736e-10
1.60303e-10
1.77706e-10
1.93216e-10
2.06144e-10
2.15888e-10
2.2198e-10
2.24123e-10
2.22209e-10
2.16334e-10
2.06784e-10
1.94016e-10
1.78625e-10
1.61297e-10
1.42758e-10
1.23723e-10
1.04844e-10
8.66634e-11
6.95832e-11
5.38375e-11
3.94835e-11
2.64055e-11
1.43324e-11
2.86786e-12
9.93752e-14
9.80336e-14
2.82979e-12
1.41494e-11
2.60779e-11
3.90112e-11
5.32238e-11
6.88376e-11
8.5803e-11
1.03894e-10
1.22718e-10
1.41736e-10
1.60303e-10
1.77706e-10
1.93216e-10
2.06144e-10
2.15888e-10
2.2198e-10
2.24123e-10
2.22209e-10
2.16334e-10
2.06784e-10
1.94016e-10
1.78625e-10
1.61297e-10
1.42758e-10
1.23723e-10
1.04844e-10
8.66634e-11
6.95832e-11
5.38375e-11
3.94835e-11
2.64055e-11
1.43324e-11
2.86786e-12
9.93752e-14
9.80336e-14
2.82979e-12
1.41494e-11
2.60779e-11
3.90112e-11
5.32238e-11
6.88376e-11
8.5803e-11
1.03894e-10
1.22718e-10
1.41736e-10
1.60303e-10
1.77706e-10
1.93216e-10
2.06144e-10
2.15888e-10
2.2198e-10
2.24123e-10
2.22209e-10
2.16334e-10
2.06784e-10
1.94016e-10
1.78625e-10
1.61297e-10
1.42758e-10
1.23723e-10
1.04844e-10
8.66634e-11
6.95832e-11
5.38375e-11
3.94835e-11
2.64055e-11
1.43324e-11
2.86786e-12
9.93752e-14
9.80336e-14
2.82979e-12
1.41494e-11
2.60779e-11
3.90112e-11
5.32238e-11
6.88376e-11
8.5803e-11
1.03894e-10
1.22718e-10
1.41736e-10
1.60303e-10
1.77706e-10
1.93216e-10
2.06144e-10
2.15888e-10
2.2198e-10
2.24123e-10
2.22209e-10
2.16334e-10
2.06784e-10
1.94016e-10
1.78625e-10
1.61297e-10
1.42758e-10
1.23723e-10
1.04844e-10
8.66634e-11
6.95832e-11
5.38375e-11
3.94835e-11
2.64055e-11
1.43324e-11
2.86786e-12
9.93752e-14
9.80336e-14
2.82979e-12
1.41494e-11
2.60779e-11
3.90112e-11
5.32238e-11
6.88376e-11
8.5803e-11
1.03894e-10
1.22718e-10
1.41736e-10
1.60303e-10
1.77706e-10
1.93216e-10
2.06144e-10
2.15888e-10
2.2198e-10
2.24123e-10
2.22209e-10
2.16334e-10
2.06784e-10
1.94016e-10
1.78625e-10
1.61297e-10
1.42758e-10
1.23723e-10
1.04844e-10
8.66634e-11
6.95832e-11
5.38375e-11
3.94835e-11
2.64055e-11
1.43324e-11
2.86786e-12
9.93752e-14
9.80336e-14
2.82979e-12
1.41494e-11
2.60779e-11
3.90112e-11
5.32238e-11
6.88376e-11
8.5803e-11
1.03894e-10