/*--------------------------------*- C++ -*----------------------------------*\
  =========                 |
  \\      /  F ield         | OpenFOAM: The Open Source CFD Toolbox
   \\    /   O peration     | Website:  https://openfoam.org
    \\  /    A nd           | Version:  13
     \\/     M anipulation  |
\*---------------------------------------------------------------------------*/
FoamFile
{
    format      ascii;
    class       volScalarField;
    location    "195";
    object      rhok;
}
// * * * * * * * * * * * * * * * * * * * * * * * * * * * * * * * * * * * * * //

dimensions      [];

internalField   nonuniform List<scalar> 
315000
(
0.444654
0.430933
0.417704
0.413703
0.412903
0.412329
0.411687
0.411018
0.410338
0.409654
0.408969
0.408284
0.4076
0.406916
0.406232
0.40555
0.404868
0.404188
0.403508
0.402829
0.402151
0.401474
0.400798
0.400124
0.39945
0.398777
0.398106
0.397435
0.396766
0.396098
0.395432
0.394766
0.394102
0.393439
0.392778
0.392117
0.391458
0.390801
0.390144
0.389489
0.388835
0.388183
0.387532
0.386882
0.386233
0.385586
0.384939
0.384294
0.38365
0.383007
0.382365
0.381725
0.381085
0.380446
0.379808
0.379171
0.378535
0.377899
0.377265
0.376631
0.375997
0.375364
0.374732
0.3741
0.373468
0.372837
0.372206
0.371575
0.370945
0.370314
0.444654
0.430927
0.417694
0.413695
0.412898
0.412325
0.411683
0.411015
0.410336
0.409652
0.408967
0.408283
0.407598
0.406914
0.406231
0.405549
0.404868
0.404187
0.403507
0.402828
0.40215
0.401473
0.400798
0.400123
0.399449
0.398776
0.398105
0.397434
0.396765
0.396097
0.395431
0.394765
0.394101
0.393438
0.392776
0.392116
0.391457
0.390799
0.390143
0.389488
0.388834
0.388182
0.387531
0.386881
0.386232
0.385584
0.384938
0.384293
0.383649
0.383006
0.382364
0.381724
0.381084
0.380445
0.379807
0.37917
0.378534
0.377899
0.377264
0.37663
0.375996
0.375364
0.374731
0.374099
0.373468
0.372837
0.372206
0.371575
0.370945
0.370314
0.444654
0.430928
0.417696
0.413709
0.412907
0.412328
0.411685
0.411017
0.410337
0.409653
0.408968
0.408283
0.407599
0.406915
0.406231
0.405549
0.404867
0.404187
0.403507
0.402828
0.40215
0.401473
0.400797
0.400122
0.399448
0.398776
0.398104
0.397434
0.396765
0.396097
0.39543
0.394764
0.3941
0.393437
0.392776
0.392115
0.391456
0.390798
0.390142
0.389487
0.388833
0.388181
0.387529
0.38688
0.386231
0.385583
0.384937
0.384292
0.383648
0.383005
0.382363
0.381723
0.381083
0.380444
0.379806
0.379169
0.378533
0.377898
0.377263
0.376629
0.375996
0.375363
0.374731
0.374099
0.373468
0.372837
0.372206
0.371575
0.370945
0.370314
0.444653
0.430862
0.416515
0.414257
0.413288
0.412484
0.411749
0.411042
0.410347
0.409657
0.408969
0.408283
0.407598
0.406914
0.406231
0.405548
0.404866
0.404186
0.403506
0.402827
0.402149
0.401472
0.400796
0.400121
0.399447
0.398775
0.398103
0.397433
0.396764
0.396096
0.395429
0.394763
0.394099
0.393436
0.392774
0.392114
0.391455
0.390797
0.390141
0.389486
0.388832
0.38818
0.387528
0.386878
0.38623
0.385582
0.384936
0.384291
0.383647
0.383004
0.382363
0.381722
0.381082
0.380443
0.379806
0.379169
0.378533
0.377897
0.377263
0.376629
0.375995
0.375363
0.374731
0.374099
0.373467
0.372836
0.372206
0.371575
0.370945
0.370314
0.444653
0.430859
0.416506
0.414248
0.413283
0.412479
0.411744
0.411038
0.410343
0.409653
0.408966
0.40828
0.407595
0.406911
0.406228
0.405545
0.404864
0.404183
0.403503
0.402824
0.402147
0.40147
0.400794
0.400119
0.399445
0.398773
0.398101
0.397431
0.396762
0.396094
0.395427
0.394761
0.394097
0.393434
0.392773
0.392112
0.391454
0.390796
0.390139
0.389484
0.388831
0.388178
0.387527
0.386877
0.386229
0.385581
0.384935
0.38429
0.383646
0.383003
0.382362
0.381721
0.381081
0.380443
0.379805
0.379168
0.378532
0.377897
0.377262
0.376628
0.375995
0.375362
0.37473
0.374098
0.373467
0.372836
0.372205
0.371575
0.370944
0.370314
0.444653
0.430858
0.416506
0.414247
0.413285
0.412483
0.411746
0.411038
0.410341
0.40965
0.408962
0.408276
0.407591
0.406907
0.406224
0.405541
0.40486
0.404179
0.403499
0.402821
0.402143
0.401466
0.40079
0.400115
0.399442
0.398769
0.398098
0.397428
0.396759
0.396091
0.395424
0.394759
0.394095
0.393432
0.39277
0.39211
0.391451
0.390794
0.390138
0.389483
0.388829
0.388177
0.387526
0.386876
0.386227
0.38558
0.384934
0.384289
0.383645
0.383002
0.382361
0.38172
0.38108
0.380442
0.379804
0.379167
0.378531
0.377896
0.377262
0.376628
0.375995
0.375362
0.37473
0.374098
0.373467
0.372836
0.372205
0.371575
0.370944
0.370314
0.444654
0.430923
0.417685
0.413692
0.412893
0.412317
0.411674
0.411003
0.410323
0.409639
0.408954
0.408269
0.407584
0.4069
0.406217
0.405535
0.404854
0.404173
0.403494
0.402815
0.402137
0.401461
0.400785
0.400111
0.399437
0.398765
0.398093
0.397423
0.396755
0.396087
0.395421
0.394755
0.394091
0.393429
0.392768
0.392107
0.391449
0.390791
0.390135
0.38948
0.388827
0.388175
0.387524
0.386874
0.386226
0.385578
0.384932
0.384287
0.383644
0.383001
0.38236
0.381719
0.38108
0.380441
0.379803
0.379167
0.378531
0.377896
0.377261
0.376627
0.375994
0.375362
0.374729
0.374098
0.373467
0.372836
0.372205
0.371575
0.370944
0.370314
0.444654
0.430917
0.417674
0.413672
0.412874
0.412301
0.411659
0.410991
0.410312
0.409629
0.408944
0.40826
0.407576
0.406892
0.406209
0.405527
0.404846
0.404166
0.403487
0.402808
0.402131
0.401455
0.400779
0.400105
0.399432
0.39876
0.398089
0.397419
0.39675
0.396083
0.395416
0.394752
0.394088
0.393425
0.392764
0.392104
0.391446
0.390789
0.390133
0.389478
0.388825
0.388173
0.387522
0.386872
0.386224
0.385577
0.384931
0.384286
0.383643
0.383
0.382359
0.381718
0.381079
0.38044
0.379803
0.379166
0.37853
0.377895
0.377261
0.376627
0.375994
0.375361
0.374729
0.374098
0.373466
0.372836
0.372205
0.371575
0.370944
0.370314
0.444654
0.430913
0.417666
0.413663
0.412865
0.412292
0.41165
0.410982
0.410303
0.40962
0.408936
0.408251
0.407567
0.406884
0.406202
0.40552
0.404839
0.404159
0.40348
0.402802
0.402125
0.401449
0.400773
0.400099
0.399426
0.398754
0.398084
0.397414
0.396746
0.396079
0.395413
0.394748
0.394084
0.393422
0.392761
0.392102
0.391443
0.390786
0.39013
0.389476
0.388823
0.388171
0.38752
0.386871
0.386222
0.385575
0.38493
0.384285
0.383641
0.382999
0.382358
0.381717
0.381078
0.380439
0.379802
0.379165
0.37853
0.377894
0.37726
0.376626
0.375993
0.375361
0.374729
0.374097
0.373466
0.372835
0.372205
0.371574
0.370944
0.370314
0.444653
0.43091
0.41766
0.413657
0.412858
0.412285
0.411644
0.410975
0.410296
0.409613
0.408929
0.408245
0.407561
0.406878
0.406195
0.405514
0.404833
0.404153
0.403474
0.402796
0.402119
0.401443
0.400768
0.400095
0.399422
0.39875
0.39808
0.39741
0.396742
0.396075
0.395409
0.394745
0.394081
0.393419
0.392759
0.392099
0.391441
0.390784
0.390128
0.389474
0.388821
0.388169
0.387519
0.386869
0.386221
0.385574
0.384929
0.384284
0.38364
0.382998
0.382357
0.381717
0.381077
0.380439
0.379801
0.379165
0.378529
0.377894
0.37726
0.376626
0.375993
0.375361
0.374729
0.374097
0.373466
0.372835
0.372205
0.371574
0.370944
0.370314
0.444653
0.430907
0.417656
0.413652
0.412854
0.41228
0.411639
0.41097
0.410291
0.409608
0.408924
0.40824
0.407556
0.406873
0.406191
0.405509
0.404828
0.404149
0.40347
0.402792
0.402115
0.401439
0.400765
0.400091
0.399418
0.398747
0.398076
0.397407
0.396739
0.396072
0.395407
0.394742
0.394079
0.393417
0.392757
0.392097
0.391439
0.390782
0.390127
0.389473
0.38882
0.388168
0.387517
0.386868
0.38622
0.385573
0.384928
0.384283
0.38364
0.382998
0.382356
0.381716
0.381077
0.380438
0.379801
0.379165
0.378529
0.377894
0.37726
0.376626
0.375993
0.37536
0.374729
0.374097
0.373466
0.372835
0.372205
0.371574
0.370944
0.370314
0.444653
0.430906
0.417653
0.413649
0.41285
0.412277
0.411635
0.410967
0.410288
0.409605
0.408921
0.408236
0.407553
0.40687
0.406187
0.405506
0.404825
0.404146
0.403467
0.402789
0.402113
0.401437
0.400762
0.400089
0.399416
0.398745
0.398074
0.397405
0.396737
0.39607
0.395405
0.394741
0.394078
0.393416
0.392755
0.392096
0.391438
0.390781
0.390126
0.389472
0.388819
0.388167
0.387517
0.386868
0.38622
0.385573
0.384927
0.384283
0.383639
0.382997
0.382356
0.381716
0.381076
0.380438
0.379801
0.379164
0.378529
0.377894
0.377259
0.376626
0.375993
0.37536
0.374728
0.374097
0.373466
0.372835
0.372205
0.371574
0.370944
0.370314
0.444653
0.430905
0.417652
0.413647
0.412849
0.412275
0.411634
0.410965
0.410286
0.409603
0.408919
0.408235
0.407551
0.406868
0.406186
0.405504
0.404824
0.404144
0.403466
0.402788
0.402111
0.401436
0.400761
0.400087
0.399415
0.398743
0.398073
0.397404
0.396736
0.39607
0.395404
0.39474
0.394077
0.393415
0.392755
0.392095
0.391437
0.390781
0.390125
0.389471
0.388818
0.388167
0.387516
0.386867
0.386219
0.385572
0.384927
0.384282
0.383639
0.382997
0.382356
0.381715
0.381076
0.380438
0.379801
0.379164
0.378528
0.377893
0.377259
0.376626
0.375993
0.37536
0.374728
0.374097
0.373466
0.372835
0.372205
0.371574
0.370944
0.370314
0.444653
0.430905
0.417651
0.413647
0.412848
0.412275
0.411633
0.410965
0.410286
0.409603
0.408919
0.408234
0.407551
0.406868
0.406185
0.405504
0.404824
0.404144
0.403465
0.402788
0.402111
0.401435
0.400761
0.400087
0.399414
0.398743
0.398073
0.397404
0.396736
0.396069
0.395404
0.39474
0.394077
0.393415
0.392754
0.392095
0.391437
0.390781
0.390125
0.389471
0.388818
0.388167
0.387516
0.386867
0.386219
0.385572
0.384927
0.384282
0.383639
0.382997
0.382356
0.381715
0.381076
0.380438
0.379801
0.379164
0.378528
0.377893
0.377259
0.376626
0.375993
0.37536
0.374728
0.374097
0.373466
0.372835
0.372205
0.371574
0.370944
0.370314
0.444653
0.430905
0.417652
0.413647
0.412849
0.412275
0.411634
0.410965
0.410286
0.409603
0.408919
0.408235
0.407551
0.406868
0.406186
0.405504
0.404824
0.404144
0.403466
0.402788
0.402111
0.401435
0.400761
0.400087
0.399415
0.398743
0.398073
0.397404
0.396736
0.396069
0.395404
0.39474
0.394077
0.393415
0.392755
0.392095
0.391437
0.390781
0.390125
0.389471
0.388818
0.388167
0.387516
0.386867
0.386219
0.385572
0.384927
0.384282
0.383639
0.382997
0.382356
0.381715
0.381076
0.380438
0.379801
0.379164
0.378528
0.377893
0.377259
0.376626
0.375993
0.37536
0.374728
0.374097
0.373466
0.372835
0.372205
0.371574
0.370944
0.370314
0.444653
0.430906
0.417652
0.413648
0.412849
0.412276
0.411634
0.410966
0.410287
0.409604
0.40892
0.408235
0.407552
0.406869
0.406186
0.405505
0.404824
0.404145
0.403466
0.402788
0.402112
0.401436
0.400761
0.400088
0.399415
0.398744
0.398074
0.397404
0.396737
0.39607
0.395404
0.39474
0.394077
0.393415
0.392755
0.392096
0.391438
0.390781
0.390126
0.389471
0.388818
0.388167
0.387516
0.386867
0.386219
0.385573
0.384927
0.384283
0.383639
0.382997
0.382356
0.381716
0.381076
0.380438
0.379801
0.379164
0.378528
0.377894
0.377259
0.376626
0.375993
0.37536
0.374728
0.374097
0.373466
0.372835
0.372205
0.371574
0.370944
0.370314
0.444653
0.430906
0.417653
0.413648
0.41285
0.412276
0.411635
0.410966
0.410287
0.409604
0.40892
0.408236
0.407552
0.406869
0.406187
0.405505
0.404825
0.404145
0.403467
0.402789
0.402112
0.401436
0.400762
0.400088
0.399416
0.398744
0.398074
0.397405
0.396737
0.39607
0.395405
0.39474
0.394077
0.393416
0.392755
0.392096
0.391438
0.390781
0.390126
0.389472
0.388819
0.388167
0.387517
0.386868
0.38622
0.385573
0.384927
0.384283
0.383639
0.382997
0.382356
0.381716
0.381077
0.380438
0.379801
0.379164
0.378529
0.377894
0.377259
0.376626
0.375993
0.37536
0.374728
0.374097
0.373466
0.372835
0.372205
0.371574
0.370944
0.370314
0.444653
0.430906
0.417653
0.413648
0.41285
0.412276
0.411635
0.410967
0.410287
0.409604
0.40892
0.408236
0.407553
0.40687
0.406187
0.405506
0.404825
0.404146
0.403467
0.402789
0.402113
0.401437
0.400762
0.400089
0.399416
0.398745
0.398074
0.397405
0.396737
0.396071
0.395405
0.394741
0.394078
0.393416
0.392755
0.392096
0.391438
0.390782
0.390126
0.389472
0.388819
0.388167
0.387517
0.386868
0.38622
0.385573
0.384927
0.384283
0.38364
0.382997
0.382356
0.381716
0.381077
0.380438
0.379801
0.379164
0.378529
0.377894
0.37726
0.376626
0.375993
0.37536
0.374729
0.374097
0.373466
0.372835
0.372205
0.371574
0.370944
0.370314
0.444653
0.430906
0.417653
0.413649
0.41285
0.412277
0.411636
0.410967
0.410288
0.409605
0.408921
0.408237
0.407553
0.40687
0.406188
0.405507
0.404826
0.404147
0.403468
0.40279
0.402113
0.401438
0.400763
0.400089
0.399417
0.398745
0.398075
0.397406
0.396738
0.396071
0.395406
0.394741
0.394078
0.393417
0.392756
0.392097
0.391439
0.390782
0.390127
0.389472
0.388819
0.388168
0.387517
0.386868
0.38622
0.385573
0.384928
0.384283
0.38364
0.382998
0.382356
0.381716
0.381077
0.380439
0.379801
0.379165
0.378529
0.377894
0.37726
0.376626
0.375993
0.375361
0.374729
0.374097
0.373466
0.372835
0.372205
0.371574
0.370944
0.370314
0.444653
0.430907
0.417655
0.413651
0.412852
0.412279
0.411638
0.410969
0.41029
0.409607
0.408923
0.408239
0.407555
0.406872
0.40619
0.405509
0.404828
0.404148
0.40347
0.402792
0.402115
0.401439
0.400765
0.400091
0.399418
0.398747
0.398077
0.397407
0.396739
0.396072
0.395407
0.394743
0.394079
0.393418
0.392757
0.392098
0.39144
0.390783
0.390127
0.389473
0.38882
0.388168
0.387518
0.386869
0.386221
0.385574
0.384928
0.384284
0.38364
0.382998
0.382357
0.381716
0.381077
0.380439
0.379801
0.379165
0.378529
0.377894
0.37726
0.376626
0.375993
0.375361
0.374729
0.374097
0.373466
0.372835
0.372205
0.371574
0.370944
0.370314
0.444653
0.430909
0.417658
0.413654
0.412856
0.412283
0.411642
0.410973
0.410294
0.409611
0.408927
0.408243
0.407559
0.406876
0.406194
0.405512
0.404832
0.404152
0.403473
0.402795
0.402118
0.401442
0.400768
0.400094
0.399421
0.398749
0.398079
0.39741
0.396741
0.396075
0.395409
0.394744
0.394081
0.393419
0.392758
0.392099
0.391441
0.390784
0.390128
0.389474
0.388821
0.388169
0.387519
0.38687
0.386221
0.385575
0.384929
0.384284
0.383641
0.382998
0.382357
0.381717
0.381078
0.380439
0.379802
0.379165
0.378529
0.377894
0.37726
0.376626
0.375993
0.375361
0.374729
0.374097
0.373466
0.372835
0.372205
0.371574
0.370944
0.370314
0.444653
0.430912
0.417663
0.41366
0.412862
0.412289
0.411647
0.410979
0.4103
0.409617
0.408933
0.408248
0.407565
0.406882
0.406199
0.405518
0.404837
0.404157
0.403478
0.4028
0.402123
0.401447
0.400772
0.400098
0.399425
0.398753
0.398082
0.397413
0.396745
0.396077
0.395412
0.394747
0.394084
0.393421
0.392761
0.392101
0.391443
0.390786
0.39013
0.389476
0.388822
0.388171
0.38752
0.386871
0.386222
0.385575
0.38493
0.384285
0.383641
0.382999
0.382358
0.381717
0.381078
0.38044
0.379802
0.379166
0.37853
0.377895
0.37726
0.376627
0.375994
0.375361
0.374729
0.374097
0.373466
0.372835
0.372205
0.371574
0.370944
0.370314
0.444654
0.430915
0.417669
0.413666
0.412868
0.412295
0.411654
0.410985
0.410306
0.409623
0.408939
0.408255
0.407571
0.406887
0.406205
0.405523
0.404842
0.404162
0.403483
0.402805
0.402128
0.401451
0.400776
0.400102
0.399429
0.398757
0.398086
0.397416
0.396748
0.396081
0.395415
0.39475
0.394086
0.393424
0.392763
0.392103
0.391445
0.390787
0.390132
0.389477
0.388824
0.388172
0.387521
0.386872
0.386223
0.385576
0.38493
0.384286
0.383642
0.383
0.382358
0.381718
0.381079
0.38044
0.379803
0.379166
0.37853
0.377895
0.377261
0.376627
0.375994
0.375361
0.374729
0.374098
0.373466
0.372836
0.372205
0.371575
0.370944
0.370314
0.444654
0.430917
0.417674
0.413672
0.412874
0.412301
0.411659
0.410991
0.410311
0.409628
0.408944
0.40826
0.407576
0.406892
0.40621
0.405528
0.404847
0.404166
0.403487
0.402809
0.402132
0.401455
0.40078
0.400105
0.399432
0.39876
0.398089
0.397419
0.396751
0.396083
0.395417
0.394752
0.394088
0.393426
0.392765
0.392105
0.391446
0.390789
0.390133
0.389478
0.388825
0.388173
0.387522
0.386873
0.386224
0.385577
0.384931
0.384286
0.383643
0.383
0.382359
0.381718
0.381079
0.38044
0.379803
0.379166
0.37853
0.377895
0.377261
0.376627
0.375994
0.375361
0.374729
0.374098
0.373466
0.372836
0.372205
0.371575
0.370944
0.370314
0.444654
0.430918
0.417677
0.413687
0.412885
0.412306
0.411664
0.410995
0.410316
0.409632
0.408947
0.408263
0.407578
0.406895
0.406212
0.40553
0.404849
0.404168
0.403489
0.402811
0.402133
0.401457
0.400781
0.400107
0.399434
0.398761
0.39809
0.39742
0.396752
0.396084
0.395418
0.394753
0.394089
0.393427
0.392765
0.392106
0.391447
0.39079
0.390134
0.389479
0.388826
0.388173
0.387523
0.386873
0.386225
0.385577
0.384932
0.384287
0.383643
0.383001
0.382359
0.381719
0.381079
0.380441
0.379803
0.379166
0.37853
0.377895
0.377261
0.376627
0.375994
0.375361
0.374729
0.374098
0.373467
0.372836
0.372205
0.371575
0.370944
0.370314
0.444653
0.430853
0.416496
0.414236
0.413267
0.412463
0.411728
0.411021
0.410326
0.409636
0.408948
0.408262
0.407578
0.406894
0.406211
0.405529
0.404848
0.404167
0.403488
0.402809
0.402132
0.401456
0.40078
0.400106
0.399433
0.39876
0.398089
0.39742
0.396751
0.396083
0.395417
0.394752
0.394089
0.393426
0.392765
0.392105
0.391447
0.390789
0.390133
0.389479
0.388825
0.388173
0.387522
0.386873
0.386225
0.385577
0.384932
0.384287
0.383643
0.383001
0.382359
0.381719
0.381079
0.380441
0.379803
0.379166
0.378531
0.377895
0.377261
0.376627
0.375994
0.375362
0.374729
0.374098
0.373467
0.372836
0.372205
0.371575
0.370944
0.370314
0.444652
0.430848
0.416485
0.414225
0.413259
0.412455
0.41172
0.411013
0.410319
0.409629
0.408942
0.408257
0.407572
0.406889
0.406206
0.405524
0.404843
0.404163
0.403484
0.402805
0.402128
0.401452
0.400777
0.400102
0.399429
0.398757
0.398087
0.397417
0.396748
0.396081
0.395415
0.39475
0.394087
0.393424
0.392763
0.392104
0.391445
0.390788
0.390132
0.389478
0.388825
0.388173
0.387522
0.386872
0.386224
0.385577
0.384931
0.384286
0.383643
0.383
0.382359
0.381719
0.381079
0.380441
0.379803
0.379166
0.378531
0.377895
0.377261
0.376627
0.375994
0.375362
0.374729
0.374098
0.373467
0.372836
0.372205
0.371575
0.370944
0.370314
0.444652
0.430844
0.416477
0.414217
0.413251
0.412447
0.411712
0.411006
0.410311
0.409622
0.408935
0.408249
0.407565
0.406882
0.406199
0.405518
0.404837
0.404157
0.403478
0.4028
0.402123
0.401447
0.400772
0.400098
0.399425
0.398753
0.398083
0.397413
0.396745
0.396078
0.395412
0.394748
0.394084
0.393422
0.392761
0.392102
0.391444
0.390787
0.390131
0.389477
0.388823
0.388172
0.387521
0.386872
0.386223
0.385576
0.384931
0.384286
0.383643
0.383
0.382359
0.381718
0.381079
0.380441
0.379803
0.379166
0.37853
0.377895
0.377261
0.376627
0.375994
0.375362
0.374729
0.374098
0.373467
0.372836
0.372205
0.371575
0.370944
0.370314
0.444652
0.430841
0.416471
0.41421
0.413244
0.41244
0.411706
0.410999
0.410304
0.409615
0.408928
0.408243
0.407559
0.406876
0.406194
0.405512
0.404831
0.404152
0.403473
0.402795
0.402118
0.401443
0.400768
0.400094
0.399421
0.39875
0.398079
0.39741
0.396742
0.396075
0.39541
0.394745
0.394082
0.39342
0.39276
0.3921
0.391442
0.390785
0.39013
0.389475
0.388822
0.388171
0.38752
0.386871
0.386223
0.385576
0.38493
0.384286
0.383642
0.383
0.382358
0.381718
0.381079
0.38044
0.379803
0.379166
0.37853
0.377895
0.377261
0.376627
0.375994
0.375362
0.374729
0.374098
0.373467
0.372836
0.372205
0.371575
0.370944
0.370314
0.444652
0.430839
0.416467
0.414206
0.413239
0.412436
0.411701
0.410994
0.4103
0.40961
0.408924
0.408239
0.407555
0.406872
0.406189
0.405508
0.404827
0.404148
0.403469
0.402792
0.402115
0.401439
0.400765
0.400091
0.399419
0.398747
0.398077
0.397408
0.39674
0.396073
0.395408
0.394744
0.394081
0.393419
0.392758
0.392099
0.391441
0.390784
0.390129
0.389475
0.388822
0.38817
0.38752
0.38687
0.386222
0.385576
0.38493
0.384285
0.383642
0.383
0.382358
0.381718
0.381079
0.38044
0.379803
0.379166
0.37853
0.377895
0.377261
0.376627
0.375994
0.375362
0.374729
0.374098
0.373467
0.372836
0.372205
0.371575
0.370944
0.370314
0.444652
0.430838
0.416464
0.414203
0.413237
0.412433
0.411698
0.410992
0.410297
0.409608
0.408921
0.408236
0.407552
0.406869
0.406187
0.405505
0.404825
0.404145
0.403467
0.402789
0.402113
0.401437
0.400763
0.400089
0.399417
0.398746
0.398075
0.397406
0.396739
0.396072
0.395407
0.394742
0.39408
0.393418
0.392757
0.392098
0.39144
0.390784
0.390128
0.389474
0.388821
0.38817
0.387519
0.38687
0.386222
0.385575
0.38493
0.384285
0.383642
0.382999
0.382358
0.381718
0.381079
0.38044
0.379803
0.379166
0.37853
0.377895
0.377261
0.376627
0.375994
0.375362
0.374729
0.374098
0.373467
0.372836
0.372205
0.371575
0.370944
0.370314
0.444652
0.430837
0.416463
0.414202
0.413235
0.412432
0.411697
0.41099
0.410295
0.409606
0.40892
0.408234
0.40755
0.406867
0.406185
0.405504
0.404824
0.404144
0.403466
0.402788
0.402112
0.401436
0.400762
0.400088
0.399416
0.398745
0.398075
0.397406
0.396738
0.396071
0.395406
0.394742
0.394079
0.393417
0.392757
0.392098
0.39144
0.390783
0.390128
0.389474
0.388821
0.388169
0.387519
0.38687
0.386222
0.385575
0.38493
0.384285
0.383642
0.382999
0.382358
0.381718
0.381079
0.38044
0.379803
0.379166
0.37853
0.377895
0.377261
0.376627
0.375994
0.375362
0.374729
0.374098
0.373467
0.372836
0.372205
0.371575
0.370944
0.370314
0.444652
0.430837
0.416463
0.414201
0.413235
0.412431
0.411696
0.410989
0.410295
0.409606
0.408919
0.408234
0.40755
0.406867
0.406185
0.405503
0.404823
0.404144
0.403465
0.402788
0.402111
0.401436
0.400761
0.400088
0.399415
0.398744
0.398074
0.397405
0.396738
0.396071
0.395406
0.394742
0.394079
0.393417
0.392757
0.392098
0.39144
0.390783
0.390128
0.389474
0.388821
0.388169
0.387519
0.38687
0.386222
0.385575
0.38493
0.384285
0.383642
0.382999
0.382358
0.381718
0.381079
0.38044
0.379803
0.379166
0.37853
0.377895
0.377261
0.376627
0.375994
0.375362
0.37473
0.374098
0.373467
0.372836
0.372205
0.371575
0.370944
0.370314
0.444652
0.430837
0.416462
0.414201
0.413235
0.412431
0.411696
0.410989
0.410295
0.409605
0.408919
0.408234
0.40755
0.406867
0.406184
0.405503
0.404823
0.404143
0.403465
0.402787
0.402111
0.401435
0.400761
0.400088
0.399415
0.398744
0.398074
0.397405
0.396738
0.396071
0.395406
0.394742
0.394079
0.393417
0.392757
0.392098
0.39144
0.390783
0.390128
0.389474
0.388821
0.388169
0.387519
0.38687
0.386222
0.385575
0.38493
0.384285
0.383642
0.382999
0.382358
0.381718
0.381079
0.38044
0.379803
0.379166
0.37853
0.377895
0.377261
0.376627
0.375994
0.375362
0.37473
0.374098
0.373467
0.372836
0.372205
0.371575
0.370944
0.370314
0.444652
0.430837
0.416462
0.414201
0.413235
0.412431
0.411696
0.410989
0.410294
0.409605
0.408919
0.408234
0.40755
0.406866
0.406184
0.405503
0.404823
0.404143
0.403465
0.402787
0.402111
0.401435
0.400761
0.400088
0.399415
0.398744
0.398074
0.397405
0.396738
0.396071
0.395406
0.394742
0.394079
0.393417
0.392757
0.392098
0.39144
0.390783
0.390128
0.389474
0.388821
0.38817
0.387519
0.38687
0.386222
0.385575
0.38493
0.384285
0.383642
0.383
0.382358
0.381718
0.381079
0.38044
0.379803
0.379166
0.37853
0.377895
0.377261
0.376627
0.375994
0.375362
0.37473
0.374098
0.373467
0.372836
0.372205
0.371575
0.370944
0.370314
0.444652
0.430837
0.416462
0.414201
0.413235
0.412431
0.411696
0.410989
0.410295
0.409605
0.408919
0.408234
0.40755
0.406867
0.406184
0.405503
0.404823
0.404143
0.403465
0.402787
0.402111
0.401435
0.400761
0.400088
0.399415
0.398744
0.398074
0.397405
0.396738
0.396071
0.395406
0.394742
0.394079
0.393417
0.392757
0.392098
0.39144
0.390783
0.390128
0.389474
0.388821
0.38817
0.387519
0.38687
0.386222
0.385575
0.38493
0.384285
0.383642
0.383
0.382358
0.381718
0.381079
0.38044
0.379803
0.379166
0.37853
0.377895
0.377261
0.376627
0.375994
0.375362
0.37473
0.374098
0.373467
0.372836
0.372205
0.371575
0.370944
0.370314
0.444652
0.430837
0.416462
0.414201
0.413235
0.412431
0.411696
0.410989
0.410295
0.409605
0.408919
0.408234
0.40755
0.406867
0.406184
0.405503
0.404823
0.404143
0.403465
0.402787
0.402111
0.401435
0.400761
0.400088
0.399415
0.398744
0.398074
0.397405
0.396738
0.396071
0.395406
0.394742
0.394079
0.393417
0.392757
0.392098
0.39144
0.390783
0.390128
0.389474
0.388821
0.38817
0.387519
0.38687
0.386222
0.385575
0.38493
0.384285
0.383642
0.383
0.382358
0.381718
0.381079
0.38044
0.379803
0.379166
0.378531
0.377895
0.377261
0.376627
0.375994
0.375362
0.37473
0.374098
0.373467
0.372836
0.372205
0.371575
0.370944
0.370314
0.444652
0.430837
0.416462
0.414201
0.413235
0.412431
0.411696
0.410989
0.410295
0.409605
0.408919
0.408234
0.40755
0.406867
0.406184
0.405503
0.404823
0.404144
0.403465
0.402788
0.402111
0.401436
0.400761
0.400088
0.399415
0.398744
0.398074
0.397405
0.396738
0.396071
0.395406
0.394742
0.394079
0.393417
0.392757
0.392098
0.39144
0.390783
0.390128
0.389474
0.388821
0.38817
0.387519
0.38687
0.386222
0.385575
0.38493
0.384285
0.383642
0.383
0.382358
0.381718
0.381079
0.38044
0.379803
0.379166
0.378531
0.377895
0.377261
0.376627
0.375994
0.375362
0.37473
0.374098
0.373467
0.372836
0.372205
0.371575
0.370944
0.370314
0.444652
0.430837
0.416463
0.414201
0.413235
0.412431
0.411696
0.410989
0.410295
0.409605
0.408919
0.408234
0.40755
0.406867
0.406185
0.405503
0.404823
0.404144
0.403465
0.402788
0.402111
0.401436
0.400761
0.400088
0.399416
0.398744
0.398074
0.397405
0.396738
0.396071
0.395406
0.394742
0.394079
0.393417
0.392757
0.392098
0.39144
0.390784
0.390128
0.389474
0.388821
0.38817
0.387519
0.38687
0.386222
0.385575
0.38493
0.384285
0.383642
0.383
0.382358
0.381718
0.381079
0.380441
0.379803
0.379166
0.378531
0.377895
0.377261
0.376627
0.375994
0.375362
0.37473
0.374098
0.373467
0.372836
0.372205
0.371575
0.370944
0.370314
0.444652
0.430837
0.416463
0.414201
0.413235
0.412431
0.411696
0.410989
0.410295
0.409605
0.408919
0.408234
0.40755
0.406867
0.406185
0.405503
0.404823
0.404144
0.403465
0.402788
0.402111
0.401436
0.400761
0.400088
0.399416
0.398744
0.398074
0.397405
0.396738
0.396071
0.395406
0.394742
0.394079
0.393417
0.392757
0.392098
0.39144
0.390784
0.390128
0.389474
0.388821
0.38817
0.387519
0.38687
0.386222
0.385576
0.38493
0.384285
0.383642
0.383
0.382358
0.381718
0.381079
0.380441
0.379803
0.379166
0.378531
0.377896
0.377261
0.376627
0.375994
0.375362
0.37473
0.374098
0.373467
0.372836
0.372205
0.371575
0.370944
0.370314
0.444652
0.430837
0.416463
0.414201
0.413235
0.412431
0.411696
0.410989
0.410295
0.409605
0.408919
0.408234
0.40755
0.406867
0.406185
0.405503
0.404823
0.404144
0.403465
0.402788
0.402111
0.401436
0.400761
0.400088
0.399416
0.398744
0.398074
0.397406
0.396738
0.396071
0.395406
0.394742
0.394079
0.393417
0.392757
0.392098
0.39144
0.390784
0.390128
0.389474
0.388821
0.38817
0.387519
0.38687
0.386222
0.385576
0.38493
0.384285
0.383642
0.383
0.382358
0.381718
0.381079
0.380441
0.379803
0.379166
0.378531
0.377896
0.377261
0.376627
0.375994
0.375362
0.37473
0.374098
0.373467
0.372836
0.372205
0.371575
0.370944
0.370314
0.444652
0.430837
0.416463
0.414201
0.413235
0.412431
0.411696
0.410989
0.410295
0.409605
0.408919
0.408234
0.40755
0.406867
0.406185
0.405503
0.404823
0.404144
0.403465
0.402788
0.402111
0.401436
0.400761
0.400088
0.399416
0.398744
0.398074
0.397406
0.396738
0.396071
0.395406
0.394742
0.394079
0.393417
0.392757
0.392098
0.39144
0.390784
0.390128
0.389474
0.388821
0.38817
0.387519
0.38687
0.386222
0.385576
0.38493
0.384285
0.383642
0.383
0.382358
0.381718
0.381079
0.380441
0.379803
0.379166
0.378531
0.377896
0.377261
0.376627
0.375994
0.375362
0.37473
0.374098
0.373467
0.372836
0.372205
0.371575
0.370944
0.370314
0.444652
0.430837
0.416463
0.414201
0.413235
0.412431
0.411696
0.410989
0.410295
0.409606
0.408919
0.408234
0.40755
0.406867
0.406185
0.405503
0.404823
0.404144
0.403465
0.402788
0.402111
0.401436
0.400761
0.400088
0.399416
0.398744
0.398074
0.397406
0.396738
0.396071
0.395406
0.394742
0.394079
0.393417
0.392757
0.392098
0.39144
0.390784
0.390128
0.389474
0.388821
0.38817
0.387519
0.38687
0.386222
0.385576
0.38493
0.384285
0.383642
0.383
0.382358
0.381718
0.381079
0.380441
0.379803
0.379166
0.378531
0.377896
0.377261
0.376627
0.375994
0.375362
0.37473
0.374098
0.373467
0.372836
0.372205
0.371575
0.370944
0.370314
0.444652
0.430837
0.416463
0.414201
0.413235
0.412431
0.411696
0.410989
0.410295
0.409606
0.408919
0.408234
0.40755
0.406867
0.406185
0.405503
0.404823
0.404144
0.403465
0.402788
0.402111
0.401436
0.400761
0.400088
0.399416
0.398744
0.398074
0.397406
0.396738
0.396071
0.395406
0.394742
0.394079
0.393418
0.392757
0.392098
0.39144
0.390784
0.390128
0.389474
0.388821
0.38817
0.387519
0.38687
0.386222
0.385576
0.38493
0.384285
0.383642
0.383
0.382359
0.381718
0.381079
0.380441
0.379803
0.379166
0.378531
0.377896
0.377261
0.376627
0.375994
0.375362
0.37473
0.374098
0.373467
0.372836
0.372205
0.371575
0.370944
0.370314
0.444652
0.430837
0.416463
0.414201
0.413235
0.412431
0.411696
0.410989
0.410295
0.409606
0.408919
0.408234
0.40755
0.406867
0.406185
0.405503
0.404823
0.404144
0.403465
0.402788
0.402111
0.401436
0.400761
0.400088
0.399416
0.398744
0.398074
0.397406
0.396738
0.396071
0.395406
0.394742
0.394079
0.393418
0.392757
0.392098
0.39144
0.390784
0.390128
0.389474
0.388821
0.38817
0.387519
0.38687
0.386222
0.385576
0.38493
0.384285
0.383642
0.383
0.382359
0.381718
0.381079
0.380441
0.379803
0.379166
0.378531
0.377896
0.377261
0.376627
0.375994
0.375362
0.37473
0.374098
0.373467
0.372836
0.372205
0.371575
0.370944
0.370314
0.444652
0.430837
0.416463
0.414201
0.413235
0.412431
0.411696
0.410989
0.410295
0.409606
0.408919
0.408234
0.40755
0.406867
0.406185
0.405503
0.404823
0.404144
0.403465
0.402788
0.402111
0.401436
0.400761
0.400088
0.399416
0.398744
0.398074
0.397406
0.396738
0.396071
0.395406
0.394742
0.394079
0.393418
0.392757
0.392098
0.39144
0.390784
0.390128
0.389474
0.388821
0.38817
0.387519
0.38687
0.386222
0.385576
0.38493
0.384285
0.383642
0.383
0.382359
0.381718
0.381079
0.380441
0.379803
0.379166
0.378531
0.377896
0.377261
0.376627
0.375994
0.375362
0.37473
0.374098
0.373467
0.372836
0.372205
0.371575
0.370944
0.370314
0.444652
0.430837
0.416463
0.414201
0.413235
0.412431
0.411696
0.410989
0.410295
0.409606
0.408919
0.408234
0.40755
0.406867
0.406185
0.405503
0.404823
0.404144
0.403465
0.402788
0.402111
0.401436
0.400761
0.400088
0.399416
0.398744
0.398074
0.397406
0.396738
0.396071
0.395406
0.394742
0.394079
0.393418
0.392757
0.392098
0.39144
0.390784
0.390128
0.389474
0.388821
0.38817
0.387519
0.38687
0.386222
0.385576
0.38493
0.384285
0.383642
0.383
0.382359
0.381718
0.381079
0.380441
0.379803
0.379166
0.378531
0.377896
0.377261
0.376627
0.375994
0.375362
0.37473
0.374098
0.373467
0.372836
0.372205
0.371575
0.370944
0.370314
0.444652
0.430837
0.416463
0.414201
0.413235
0.412431
0.411696
0.410989