/*--------------------------------*- C++ -*----------------------------------*\
  =========                 |
  \\      /  F ield         | OpenFOAM: The Open Source CFD Toolbox
   \\    /   O peration     | Website:  https://openfoam.org
    \\  /    A nd           | Version:  13
     \\/     M anipulation  |
\*---------------------------------------------------------------------------*/
FoamFile
{
    format      ascii;
    class       volScalarField;
    location    "32";
    object      k;
}
// * * * * * * * * * * * * * * * * * * * * * * * * * * * * * * * * * * * * * //

dimensions      [0 2 -2 0 0 0 0];

internalField   nonuniform List<scalar> 
78750
(
2.22045e-16
1.58073e-15
7.11491e-15
1.28985e-14
1.89946e-14
2.54466e-14
3.22571e-14
3.93777e-14
4.67079e-14
5.40999e-14
6.13689e-14
6.83047e-14
7.46857e-14
8.02928e-14
8.49235e-14
8.84044e-14
9.06016e-14
9.14288e-14
9.08528e-14
8.88956e-14
8.56326e-14
8.11885e-14
7.57294e-14
6.94529e-14
6.25755e-14
5.53192e-14
4.78967e-14
4.04977e-14
3.32753e-14
2.63361e-14
1.97328e-14
1.34629e-14
7.47331e-15
1.67374e-15
2.22045e-16
1.19892e-15
3.45801e-14
1.72331e-13
3.14816e-13
4.64804e-13
6.23944e-13
7.92547e-13
9.69481e-13
1.15221e-12
1.33699e-12
1.51906e-12
1.69306e-12
1.85329e-12
1.99415e-12
2.11045e-12
2.19774e-12
2.25261e-12
2.27285e-12
2.25765e-12
2.20758e-12
2.12463e-12
2.01201e-12
1.87402e-12
1.71575e-12
1.54275e-12
1.36073e-12
1.17511e-12
9.90736e-13
8.11495e-13
6.40052e-13
4.77659e-13
3.24093e-13
1.77718e-13
3.57208e-14
1.23927e-15
3.31171e-15
9.55532e-14
4.77203e-13
8.7692e-13
1.30605e-12
1.77214e-12
2.27806e-12
2.82144e-12
3.3947e-12
3.9854e-12
4.57709e-12
5.15042e-12
5.68447e-12
6.15819e-12
6.55186e-12
6.84845e-12
7.03476e-12
7.10235e-12
7.04811e-12
6.87446e-12
6.58921e-12
6.20498e-12
5.73842e-12
5.209e-12
4.63767e-12
4.04543e-12
3.45188e-12
2.87379e-12
2.32403e-12
1.81059e-12
1.33622e-12
8.98321e-13
4.89434e-13
9.81165e-14
3.40209e-15
6.29531e-15
1.81655e-13
9.07896e-13
1.67203e-12
2.49837e-12
3.40357e-12
4.3948e-12
5.46857e-12
6.61041e-12
7.79557e-12
8.99051e-12
1.0155e-11
1.12451e-11
1.22159e-11
1.3025e-11
1.36355e-11
1.40188e-11
1.41565e-11
1.40418e-11
1.36804e-11
1.30893e-11
1.22963e-11
1.13376e-11
1.02551e-11
9.09365e-12
7.89736e-12
6.70691e-12
5.55647e-12
4.47155e-12
3.46736e-12
2.54808e-12
1.70705e-12
9.27769e-13
1.85805e-13
6.44148e-15
9.63673e-15
2.78072e-13
1.39005e-12
2.56157e-12
3.83108e-12
5.22516e-12
6.75556e-12
8.41734e-12
1.01884e-11
1.20303e-11
1.38907e-11
1.57066e-11
1.74086e-11
1.89259e-11
2.01912e-11
2.11462e-11
2.17451e-11
2.19589e-11
2.17769e-11
2.12081e-11
2.028e-11
1.90368e-11
1.75361e-11
1.58445e-11
1.40327e-11
1.21703e-11
1.03209e-11
8.53783e-12
6.86052e-12
5.31217e-12
3.89867e-12
2.60899e-12
1.41685e-12
2.8366e-13
9.83355e-15
1.28951e-14
3.72088e-13
1.86008e-12
3.42823e-12
5.12841e-12
6.99657e-12
9.04867e-12
1.12782e-11
1.36556e-11
1.61293e-11
1.86287e-11
2.10692e-11
2.3357e-11
2.53969e-11
2.7098e-11
2.83815e-11
2.91858e-11
2.94717e-11
2.92249e-11
2.84575e-11
2.7207e-11
2.55331e-11
2.35136e-11
2.12385e-11
1.8803e-11
1.6301e-11
1.3818e-11
1.14258e-11
9.17704e-12
7.10279e-12
5.21074e-12
3.48583e-12
1.89255e-12
3.78852e-13
1.31334e-14
1.57878e-14
4.55557e-13
2.27737e-12
4.19737e-12
6.27924e-12
8.56706e-12
1.10805e-11
1.38115e-11
1.67239e-11
1.97545e-11
2.28168e-11
2.58067e-11
2.86098e-11
3.11088e-11
3.31925e-11
3.47643e-11
3.57486e-11
3.60974e-11
3.57933e-11
3.48512e-11
3.33172e-11
3.12645e-11
2.87888e-11
2.60003e-11
2.30159e-11
1.99507e-11
1.69095e-11
1.398e-11
1.12269e-11
8.68805e-12
6.37284e-12
4.26273e-12
2.31412e-12
4.6321e-13
1.60574e-14
1.81624e-14
5.24094e-13
2.62003e-12
4.82888e-12
7.22394e-12
9.85595e-12
1.27475e-11
1.58895e-11
1.92401e-11
2.27265e-11
2.62494e-11
2.96889e-11
3.29132e-11
3.57875e-11
3.81839e-11
3.99911e-11
4.11223e-11
4.15222e-11
4.1171e-11
4.00859e-11
3.83198e-11
3.59573e-11
3.31084e-11
2.98999e-11
2.64664e-11
2.29403e-11
1.94422e-11
1.60729e-11
1.29068e-11
9.9874e-12
7.32549e-12
4.89966e-12
2.65976e-12
5.32364e-13
1.84538e-14
1.99731e-14
5.76372e-13
2.88146e-12
5.31067e-12
7.9446e-12
1.08391e-11
1.4019e-11
1.74742e-11
2.11587e-11
2.49925e-11
2.88663e-11
3.26483e-11
3.61934e-11
3.93535e-11
4.19879e-11
4.39742e-11
4.52171e-11
4.56558e-11
4.52684e-11
4.40742e-11
4.21311e-11
3.95325e-11
3.63992e-11
3.28707e-11
2.90951e-11
2.52179e-11
2.13716e-11
1.76673e-11
1.41866e-11
1.09773e-11
8.05126e-12
5.3849e-12
2.92306e-12
5.8503e-13
2.02781e-14
2.12576e-14
6.13478e-13
3.06707e-12
5.65273e-12
8.45624e-12
1.1537e-11
1.49216e-11
1.85991e-11
2.25207e-11
2.66011e-11
3.07238e-11
3.47488e-11
3.85216e-11
4.18844e-11
4.46876e-11
4.68009e-11
4.81229e-11
4.85889e-11
4.81758e-11
4.69039e-11
4.48352e-11
4.20689e-11
3.87337e-11
3.49781e-11
3.09597e-11
2.68332e-11
2.27401e-11
1.8798e-11
1.50941e-11
1.16792e-11
8.56586e-12
5.72893e-12
3.10973e-12
6.22354e-13
2.15703e-14
2.21068e-14
6.38023e-13
3.1899e-12
5.8791e-12
8.79484e-12
1.19989e-11
1.55189e-11
1.93436e-11
2.3422e-11
2.76655e-11
3.19531e-11
3.61389e-11
4.00622e-11
4.35591e-11
4.6474e-11
4.86712e-11
5.00455e-11
5.05295e-11
5.00992e-11
4.87759e-11
4.6624e-11
4.37466e-11
4.02777e-11
3.63718e-11
3.21927e-11
2.79014e-11
2.36448e-11
1.95456e-11
1.56941e-11
1.21432e-11
8.90598e-12
5.9563e-12
3.23309e-12
6.47008e-13
2.24233e-14
2.26311e-14
6.53189e-13
3.26583e-12
6.01903e-12
9.00415e-12
1.22845e-11
1.58882e-11
1.98038e-11
2.39792e-11
2.83236e-11
3.2713e-11
3.69982e-11
4.10147e-11
4.45944e-11
4.75783e-11
4.98274e-11
5.12339e-11
5.1729e-11
5.12881e-11
4.99328e-11
4.77294e-11
4.47833e-11
4.12318e-11
3.72329e-11
3.29544e-11
2.85612e-11
2.42037e-11
2.00072e-11
1.60645e-11
1.24297e-11
9.11598e-12
6.09666e-12
3.30923e-12
6.62218e-13
2.29492e-14
2.29342e-14
6.61964e-13
3.30979e-12
6.10004e-12
9.12533e-12
1.24498e-11
1.6102e-11
2.00703e-11
2.43018e-11
2.87046e-11
3.31531e-11
3.74958e-11
4.15661e-11
4.51939e-11
4.82177e-11
5.04968e-11
5.1922e-11
5.24234e-11
5.19763e-11
5.06026e-11
4.83693e-11
4.53834e-11
4.17839e-11
3.77312e-11
3.33952e-11
2.8943e-11
2.4527e-11
2.02743e-11
1.62788e-11
1.25954e-11
9.23742e-12
6.17783e-12
3.35326e-12
6.71008e-13
2.32529e-14
2.30988e-14
6.66733e-13
3.33369e-12
6.14409e-12
9.19123e-12
1.25397e-11
1.62183e-11
2.02152e-11
2.44773e-11
2.89119e-11
3.33924e-11
3.77664e-11
4.18661e-11
4.552e-11
4.85655e-11
5.08609e-11
5.22962e-11
5.28011e-11
5.23506e-11
5.09668e-11
4.87172e-11
4.57097e-11
4.20841e-11
3.80021e-11
3.36348e-11
2.91505e-11
2.47027e-11
2.04194e-11
1.63953e-11
1.26854e-11
9.30338e-12
6.22191e-12
3.37716e-12
6.75779e-13
2.34176e-14
2.3183e-14
6.69175e-13
3.34593e-12
6.16666e-12
9.22499e-12
1.25858e-11
1.62778e-11
2.02894e-11
2.45672e-11
2.9018e-11
3.3515e-11
3.79051e-11
4.20198e-11
4.5687e-11
4.87436e-11
5.10474e-11
5.24879e-11
5.29946e-11
5.25423e-11
5.11534e-11
4.88955e-11
4.58768e-11
4.22379e-11
3.81409e-11
3.37575e-11
2.92568e-11
2.47926e-11
2.04937e-11
1.64549e-11
1.27315e-11
9.33714e-12
6.24447e-12
3.3894e-12
6.78218e-13
2.35017e-14
2.32237e-14
6.70355e-13
3.35185e-12
6.17758e-12
9.24132e-12
1.2608e-11
1.63066e-11
2.03254e-11
2.46107e-11
2.90694e-11
3.35744e-11
3.79722e-11
4.20942e-11
4.57679e-11
4.88299e-11
5.11377e-11
5.25807e-11
5.30882e-11
5.26352e-11
5.12437e-11
4.89817e-11
4.59577e-11
4.23123e-11
3.8208e-11
3.38169e-11
2.93082e-11
2.48362e-11
2.05297e-11
1.64837e-11
1.27538e-11
9.35346e-12
6.25537e-12
3.39531e-12
6.79396e-13
2.35423e-14
2.32423e-14
6.70896e-13
3.35457e-12
6.18258e-12
9.24881e-12
1.26183e-11
1.63199e-11
2.03419e-11
2.46306e-11
2.9093e-11
3.36016e-11
3.8003e-11
4.21283e-11
4.5805e-11
4.88695e-11
5.11791e-11
5.26233e-11
5.31312e-11
5.26777e-11
5.12851e-11
4.90213e-11
4.59948e-11
4.23464e-11
3.82388e-11
3.38441e-11
2.93317e-11
2.48561e-11
2.05461e-11
1.64969e-11
1.2764e-11
9.36094e-12
6.26037e-12
3.39802e-12
6.79935e-13
2.35609e-14
2.32504e-14
6.71131e-13
3.35575e-12
6.18476e-12
9.25207e-12
1.26227e-11
1.63256e-11
2.0349e-11
2.46393e-11
2.91033e-11
3.36134e-11
3.80164e-11
4.21432e-11
4.58211e-11
4.88867e-11
5.11972e-11
5.26418e-11
5.31499e-11
5.26962e-11
5.13031e-11
4.90385e-11
4.60109e-11
4.23612e-11
3.82522e-11
3.38559e-11
2.9342e-11
2.48648e-11
2.05533e-11
1.65026e-11
1.27684e-11
9.36419e-12
6.26254e-12
3.39919e-12
6.8017e-13
2.35689e-14
2.32538e-14
6.71229e-13
3.35624e-12
6.18567e-12
9.25342e-12
1.26246e-11
1.6328e-11
2.0352e-11
2.46429e-11
2.91075e-11
3.36183e-11
3.80219e-11
4.21493e-11
4.58278e-11
4.88938e-11
5.12047e-11
5.26495e-11
5.31577e-11
5.27039e-11
5.13106e-11
4.90456e-11
4.60176e-11
4.23674e-11
3.82577e-11
3.38608e-11
2.93462e-11
2.48684e-11
2.05563e-11
1.6505e-11
1.27702e-11
9.36553e-12
6.26344e-12
3.39968e-12
6.80267e-13
2.35723e-14
2.32551e-14
6.71267e-13
3.35643e-12
6.18602e-12
9.25396e-12
1.26253e-11
1.6329e-11
2.03532e-11
2.46444e-11
2.91092e-11
3.36203e-11
3.80241e-11
4.21518e-11
4.58305e-11
4.88967e-11
5.12076e-11
5.26526e-11
5.31607e-11
5.2707e-11
5.13136e-11
4.90485e-11
4.60202e-11
4.23698e-11
3.82599e-11
3.38628e-11
2.93479e-11
2.48698e-11
2.05574e-11
1.6506e-11
1.2771e-11
9.36607e-12
6.26379e-12
3.39987e-12
6.80305e-13
2.35736e-14
2.32556e-14
6.71282e-13
3.35651e-12
6.18616e-12
9.25416e-12
1.26256e-11
1.63293e-11
2.03536e-11
2.46449e-11
2.91099e-11
3.3621e-11
3.8025e-11
4.21527e-11
4.58315e-11
4.88977e-11
5.12087e-11
5.26537e-11
5.31619e-11
5.27081e-11
5.13147e-11
4.90495e-11
4.60213e-11
4.23708e-11
3.82607e-11
3.38635e-11
2.93485e-11
2.48703e-11
2.05579e-11
1.65063e-11
1.27712e-11
9.36627e-12
6.26393e-12
3.39995e-12
6.80319e-13
2.35741e-14
2.32558e-14
6.71287e-13
3.35653e-12
6.18621e-12
9.25423e-12
1.26257e-11
1.63294e-11
2.03538e-11
2.46451e-11
2.91101e-11
3.36213e-11
3.80253e-11
4.2153e-11
4.58319e-11
4.88981e-11
5.12092e-11
5.26541e-11
5.31623e-11
5.27085e-11
5.13151e-11
4.90499e-11
4.60216e-11
4.23711e-11
3.8261e-11
3.38638e-11
2.93488e-11
2.48705e-11
2.0558e-11
1.65064e-11
1.27713e-11
9.36634e-12
6.26398e-12
3.39997e-12
6.80325e-13
2.35742e-14
2.32558e-14
6.71289e-13
3.35654e-12
6.18622e-12
9.25426e-12
1.26257e-11
1.63295e-11
2.03538e-11
2.46452e-11
2.91102e-11
3.36214e-11
3.80254e-11
4.21531e-11
4.5832e-11
4.88982e-11
5.12093e-11
5.26543e-11
5.31625e-11
5.27087e-11
5.13152e-11
4.905e-11
4.60217e-11
4.23712e-11
3.82611e-11
3.38639e-11
2.93489e-11
2.48706e-11
2.05581e-11
1.65065e-11
1.27714e-11
9.36637e-12
6.26399e-12
3.39998e-12
6.80326e-13
2.35743e-14
2.32559e-14
6.71289e-13
3.35654e-12
6.18623e-12
9.25427e-12
1.26257e-11
1.63295e-11
2.03539e-11
2.46452e-11
2.91102e-11
3.36214e-11
3.80254e-11
4.21532e-11
4.5832e-11
4.88983e-11
5.12093e-11
5.26543e-11
5.31625e-11
5.27087e-11
5.13153e-11
4.90501e-11
4.60218e-11
4.23713e-11
3.82612e-11
3.38639e-11
2.93489e-11
2.48706e-11
2.05581e-11
1.65065e-11
1.27714e-11
9.36637e-12
6.264e-12
3.39999e-12
6.80327e-13
2.35743e-14
2.32559e-14
6.7129e-13
3.35655e-12
6.18623e-12
9.25427e-12
1.26257e-11
1.63295e-11
2.03539e-11
2.46452e-11
2.91102e-11
3.36214e-11
3.80254e-11
4.21532e-11
4.5832e-11
4.88983e-11
5.12094e-11
5.26543e-11
5.31625e-11
5.27088e-11
5.13153e-11
4.90501e-11
4.60218e-11
4.23713e-11
3.82612e-11
3.38639e-11
2.93489e-11
2.48706e-11
2.05581e-11
1.65065e-11
1.27714e-11
9.36638e-12
6.264e-12
3.39999e-12
6.80327e-13
2.35743e-14
2.32559e-14
6.7129e-13
3.35655e-12
6.18623e-12
9.25427e-12
1.26257e-11
1.63295e-11
2.03539e-11
2.46452e-11
2.91102e-11
3.36214e-11
3.80254e-11
4.21532e-11
4.5832e-11
4.88983e-11
5.12094e-11
5.26543e-11
5.31625e-11
5.27088e-11
5.13153e-11
4.90501e-11
4.60218e-11
4.23713e-11
3.82612e-11
3.38639e-11
2.93489e-11
2.48706e-11
2.05581e-11
1.65065e-11
1.27714e-11
9.36638e-12
6.264e-12
3.39999e-12
6.80327e-13
2.35743e-14
2.32559e-14
6.7129e-13
3.35655e-12
6.18623e-12
9.25427e-12
1.26257e-11
1.63295e-11
2.03539e-11
2.46452e-11
2.91102e-11
3.36214e-11
3.80254e-11
4.21532e-11
4.5832e-11
4.88983e-11
5.12094e-11
5.26543e-11
5.31625e-11
5.27088e-11
5.13153e-11
4.90501e-11
4.60218e-11
4.23713e-11
3.82612e-11
3.38639e-11
2.93489e-11
2.48706e-11
2.05581e-11
1.65065e-11
1.27714e-11
9.36638e-12
6.264e-12
3.39999e-12
6.80327e-13
2.35743e-14
2.32559e-14
6.7129e-13
3.35655e-12
6.18623e-12
9.25427e-12
1.26257e-11
1.63295e-11
2.03539e-11
2.46452e-11
2.91102e-11
3.36214e-11
3.80254e-11
4.21532e-11
4.5832e-11
4.88983e-11
5.12094e-11
5.26543e-11
5.31625e-11
5.27088e-11
5.13153e-11
4.90501e-11
4.60218e-11
4.23713e-11
3.82612e-11
3.38639e-11
2.93489e-11
2.48706e-11
2.05581e-11
1.65065e-11
1.27714e-11
9.36638e-12
6.264e-12
3.39999e-12
6.80327e-13
2.35743e-14
2.32559e-14
6.7129e-13
3.35655e-12
6.18623e-12
9.25427e-12
1.26257e-11
1.63295e-11
2.03539e-11
2.46452e-11
2.91102e-11
3.36214e-11
3.80254e-11
4.21532e-11
4.5832e-11
4.88983e-11
5.12094e-11
5.26543e-11
5.31625e-11
5.27088e-11
5.13153e-11
4.90501e-11
4.60218e-11
4.23713e-11
3.82612e-11
3.38639e-11
2.93489e-11
2.48706e-11
2.05581e-11
1.65065e-11
1.27714e-11
9.36638e-12
6.264e-12
3.39999e-12
6.80327e-13
2.35743e-14
2.32559e-14
6.7129e-13
3.35655e-12
6.18623e-12
9.25427e-12
1.26257e-11
1.63295e-11
2.03539e-11
2.46452e-11
2.91102e-11
3.36214e-11
3.80254e-11
4.21532e-11
4.5832e-11
4.88983e-11
5.12094e-11
5.26543e-11
5.31625e-11
5.27088e-11
5.13153e-11
4.90501e-11
4.60218e-11
4.23713e-11
3.82612e-11
3.38639e-11
2.93489e-11
2.48706e-11
2.05581e-11
1.65065e-11
1.27714e-11
9.36638e-12
6.264e-12
3.39999e-12
6.80327e-13
2.35743e-14
2.32559e-14
6.7129e-13
3.35655e-12
6.18623e-12
9.25427e-12
1.26257e-11
1.63295e-11
2.03539e-11
2.46452e-11
2.91102e-11
3.36214e-11
3.80254e-11
4.21532e-11
4.5832e-11
4.88983e-11
5.12094e-11
5.26543e-11
5.31625e-11
5.27088e-11
5.13153e-11
4.90501e-11
4.60218e-11
4.23713e-11
3.82612e-11
3.38639e-11
2.93489e-11
2.48706e-11
2.05581e-11
1.65065e-11
1.27714e-11
9.36638e-12
6.264e-12
3.39999e-12
6.80327e-13
2.35743e-14
2.32559e-14
6.7129e-13
3.35655e-12
6.18623e-12
9.25427e-12
1.26257e-11
1.63295e-11
2.03539e-11
2.46452e-11
2.91102e-11
3.36214e-11
3.80254e-11
4.21532e-11
4.5832e-11
4.88983e-11
5.12094e-11
5.26543e-11
5.31625e-11
5.27088e-11
5.13153e-11
4.90501e-11
4.60218e-11
4.23713e-11
3.82612e-11
3.38639e-11
2.93489e-11
2.48706e-11
2.05581e-11
1.65065e-11
1.27714e-11
9.36638e-12
6.264e-12
3.39999e-12
6.80327e-13
2.35743e-14
2.32559e-14
6.7129e-13
3.35655e-12
6.18623e-12
9.25427e-12
1.26257e-11
1.63295e-11
2.03539e-11
2.46452e-11
2.91102e-11
3.36214e-11
3.80254e-11
4.21532e-11
4.5832e-11
4.88983e-11
5.12094e-11
5.26543e-11
5.31625e-11
5.27088e-11
5.13153e-11
4.90501e-11
4.60218e-11
4.23713e-11
3.82612e-11
3.38639e-11
2.93489e-11
2.48706e-11
2.05581e-11
1.65065e-11
1.27714e-11
9.36638e-12
6.264e-12
3.39999e-12
6.80327e-13
2.35743e-14
2.32559e-14
6.7129e-13
3.35655e-12
6.18623e-12
9.25427e-12
1.26257e-11
1.63295e-11
2.03539e-11
2.46452e-11
2.91102e-11
3.36214e-11
3.80254e-11
4.21532e-11
4.5832e-11
4.88983e-11
5.12094e-11
5.26543e-11
5.31625e-11
5.27088e-11
5.13153e-11
4.90501e-11
4.60218e-11
4.23713e-11
3.82612e-11
3.38639e-11
2.93489e-11
2.48706e-11
2.05581e-11
1.65065e-11
1.27714e-11
9.36638e-12
6.264e-12
3.39999e-12
6.80327e-13
2.35743e-14
2.32559e-14
6.7129e-13
3.35655e-12
6.18623e-12
9.25427e-12
1.26257e-11
1.63295e-11
2.03539e-11
2.46452e-11
2.91102e-11
3.36214e-11
3.80254e-11
4.21532e-11
4.5832e-11
4.88983e-11
5.12094e-11
5.26543e-11
5.31625e-11
5.27088e-11
5.13153e-11
4.90501e-11
4.60218e-11
4.23713e-11
3.82612e-11
3.38639e-11
2.93489e-11
2.48706e-11
2.05581e-11
1.65065e-11
1.27714e-11
9.36638e-12
6.264e-12
3.39999e-12
6.80327e-13
2.35743e-14
2.32559e-14
6.7129e-13
3.35655e-12
6.18623e-12
9.25427e-12
1.26257e-11
1.63295e-11
2.03539e-11
2.46452e-11
2.91102e-11
3.36214e-11
3.80254e-11
4.21532e-11
4.5832e-11
4.88983e-11
5.12094e-11
5.26543e-11
5.31625e-11
5.27088e-11
5.13153e-11
4.90501e-11
4.60218e-11
4.23713e-11
3.82612e-11
3.38639e-11
2.93489e-11
2.48706e-11
2.05581e-11
1.65065e-11
1.27714e-11
9.36638e-12
6.264e-12
3.39999e-12
6.80327e-13
2.35743e-14
2.32559e-14
6.7129e-13
3.35655e-12
6.18623e-12
9.25427e-12
1.26257e-11
1.63295e-11
2.03539e-11
2.46452e-11
2.91102e-11
3.36214e-11
3.80254e-11
4.21532e-11
4.5832e-11
4.88983e-11
5.12094e-11
5.26543e-11
5.31625e-11
5.27088e-11
5.13153e-11
4.90501e-11
4.60218e-11
4.23713e-11
3.82612e-11
3.38639e-11
2.93489e-11
2.48706e-11
2.05581e-11
1.65065e-11
1.27714e-11
9.36638e-12
6.264e-12
3.39999e-12
6.80327e-13
2.35743e-14
2.32559e-14
6.7129e-13
3.35655e-12
6.18623e-12
9.25427e-12
1.26257e-11
1.63295e-11
2.03539e-11
2.46452e-11
2.91102e-11
3.36214e-11
3.80254e-11
4.21532e-11
4.5832e-11
4.88983e-11
5.12094e-11
5.26543e-11
5.31625e-11
5.27088e-11
5.13153e-11
4.90501e-11
4.60218e-11
4.23713e-11
3.82612e-11
3.38639e-11
2.93489e-11
2.48706e-11
2.05581e-11
1.65065e-11
1.27714e-11
9.36638e-12
6.264e-12
3.39999e-12
6.80327e-13
2.35743e-14
2.32559e-14
6.7129e-13
3.35655e-12
6.18623e-12
9.25427e-12
1.26257e-11
1.63295e-11
2.03539e-11
2.46452e-11
2.91102e-11
3.36214e-11
3.80254e-11
4.21532e-11
4.5832e-11
4.88983e-11
5.12094e-11
5.26543e-11
5.31625e-11
5.27088e-11
5.13153e-11
4.90501e-11
4.60218e-11
4.23713e-11
3.82612e-11
3.38639e-11
2.93489e-11
2.48706e-11
2.05581e-11
1.65065e-11
1.27714e-11
9.36638e-12
6.264e-12
3.39999e-12
6.80327e-13
2.35743e-14
2.32559e-14
6.7129e-13
3.35655e-12
6.18623e-12
9.25427e-12
1.26257e-11
1.63295e-11
2.03539e-11
2.46452e-11
2.91102e-11
3.36214e-11
3.80254e-11
4.21532e-11
4.5832e-11
4.88983e-11
5.12094e-11
5.26543e-11
5.31625e-11
5.27088e-11
5.13153e-11
4.90501e-11
4.60218e-11
4.23713e-11
3.82612e-11
3.38639e-11
2.93489e-11
2.48706e-11
2.05581e-11
1.65065e-11
1.27714e-11
9.36638e-12
6.264e-12
3.39999e-12
6.80327e-13
2.35743e-14
2.32559e-14
6.7129e-13
3.35655e-12
6.18623e-12
9.25427e-12
1.26257e-11
1.63295e-11
2.03539e-11
2.46452e-11
2.91102e-11
3.36214e-11
3.80254e-11
4.21532e-11
4.5832e-11
4.88983e-11
5.12094e-11
5.26543e-11
5.31625e-11
5.27088e-11
5.13153e-11
4.90501e-11
4.60218e-11
4.23713e-11
3.82612e-11
3.38639e-11
2.93489e-11
2.48706e-11
2.05581e-11
1.65065e-11
1.27714e-11
9.36638e-12
6.264e-12
3.39999e-12
6.80327e-13
2.35743e-14
2.32559e-14
6.7129e-13
3.35655e-12
6.18623e-12
9.25427e-12
1.26257e-11
1.63295e-11
2.03539e-11
2.46452e-11
2.91102e-11
3.36214e-11
3.80254e-11
4.21532e-11
4.5832e-11
4.88983e-11
5.12094e-11
5.26543e-11
5.31625e-11
5.27088e-11
5.13153e-11
4.90501e-11
4.60218e-11
4.23713e-11
3.82612e-11
3.38639e-11
2.93489e-11
2.48706e-11
2.05581e-11
1.65065e-11
1.27714e-11
9.36638e-12
6.264e-12
3.39999e-12
6.80327e-13
2.35743e-14
2.32559e-14
6.7129e-13
3.35655e-12
6.18623e-12
9.25427e-12
1.26257e-11
1.63295e-11
2.03539e-11
2.46452e-11
2.91102e-11
3.36214e-11
3.80254e-11
4.21532e-11
4.5832e-11
4.88983e-11
5.12094e-11
5.26543e-11
5.31625e-11
5.27088e-11
5.13153e-11
4.90501e-11
4.60218e-11
4.23713e-11
3.82612e-11
3.38639e-11
2.93489e-11
2.48706e-11
2.05581e-11
1.65065e-11
1.27714e-11
9.36638e-12
6.264e-12
3.39999e-12
6.80327e-13
2.35743e-14
2.32559e-14
6.7129e-13
3.35655e-12
6.18623e-12
9.25427e-12
1.26257e-11
1.63295e-11
2.03539e-11
2.46452e-11
2.91102e-11
3.36214e-11
3.80254e-11
4.21532e-11
4.5832e-11
4.88983e-11
5.12094e-11
5.26543e-11
5.31625e-11
5.27088e-11
5.13153e-11
4.90501e-11
4.60218e-11
4.23713e-11
3.82612e-11
3.38639e-11
2.93489e-11
2.48706e-11
2.05581e-11
1.65065e-11
1.27714e-11
9.36638e-12
6.264e-12
3.39999e-12
6.80327e-13
2.35743e-14
2.32559e-14
6.7129e-13
3.35655e-12
6.18623e-12
9.25427e-12
1.26257e-11
1.63295e-11
2.03539e-11
2.46452e-11
2.91102e-11
3.36214e-11
3.80254e-11
4.21532e-11
4.5832e-11
4.88983e-11
5.12094e-11
5.26543e-11
5.31625e-11
5.27088e-11
5.13153e-11
4.90501e-11
4.60218e-11
4.23713e-11
3.82612e-11
3.38639e-11
2.93489e-11
2.48706e-11
2.05581e-11
1.65065e-11
1.27714e-11
9.36638e-12
6.264e-12
3.39999e-12
6.80327e-13
2.35743e-14
2.32559e-14
6.7129e-13
3.35655e-12
6.18623e-12
9.25427e-12
1.26257e-11
1.63295e-11
2.03539e-11
2.46452e-11
2.91102e-11
3.36214e-11
3.80254e-11
4.21532e-11
4.5832e-11
4.88983e-11
5.12094e-11
5.26543e-11
5.31625e-11
5.27088e-11
5.13153e-11
4.90501e-11
4.60218e-11
4.23713e-11
3.82612e-11
3.38639e-11
2.93489e-11
2.48706e-11
2.05581e-11
1.65065e-11
1.27714e-11
9.36638e-12
6.264e-12
3.39999e-12
6.80327e-13
2.35743e-14
2.32559e-14
6.7129e-13
3.35655e-12
6.18623e-12
9.25427e-12
1.26257e-11
1.63295e-11
2.03539e-11
2.46452e-11
2.91102e-11
3.36214e-11
3.80254e-11
4.21532e-11
4.5832e-11
4.88983e-11
5.12094e-11
5.26543e-11
5.31625e-11
5.27088e-11
5.13153e-11
4.90501e-11
4.60218e-11
4.23713e-11
3.82612e-11
3.38639e-11
2.93489e-11
2.48706e-11
2.05581e-11
1.65065e-11
1.27714e-11
9.36638e-12
6.264e-12
3.39999e-12
6.80327e-13
2.35743e-14
2.32559e-14
6.7129e-13
3.35655e-12
6.18623e-12
9.25427e-12
1.26257e-11
1.63295e-11
2.03539e-11
2.46452e-11
2.91102e-11
3.36214e-11
3.80254e-11
4.21532e-11
4.5832e-11
4.88983e-11
5.12094e-11
5.26543e-11
5.31625e-11
5.27088e-11
5.13153e-11
4.90501e-11
4.60218e-11
4.23713e-11
3.82612e-11
3.38639e-11
2.93489e-11
2.48706e-11
2.05581e-11
1.65065e-11
1.27714e-11
9.36638e-12
6.264e-12
3.39999e-12
6.80327e-13
2.35743e-14
2.32559e-14
6.7129e-13
3.35655e-12
6.18623e-12
9.25427e-12
1.26257e-11
1.63295e-11
2.03539e-11
2.46452e-11
2.91102e-11
3.36214e-11
3.80254e-11
4.21532e-11
4.5832e-11
4.88983e-11
5.12094e-11
5.26543e-11
5.31625e-11
5.27088e-11
5.13153e-11
4.90501e-11
4.60218e-11
4.23713e-11
3.82612e-11
3.38639e-11
2.93489e-11
2.48706e-11
2.05581e-11
1.65065e-11
1.27714e-11
9.36638e-12
6.264e-12
3.39999e-12
6.80327e-13
2.35743e-14
2.32559e-14
6.7129e-13
3.35655e-12
6.18623e-12
9.25427e-12
1.26257e-11
1.63295e-11
2.03539e-11
2.46452e-11
2.91102e-11
3.36214e-11
3.80254e-11
4.21532e-11
4.5832e-11
4.88983e-11
5.12094e-11
5.26543e-11
5.31625e-11
5.27088e-11
5.13153e-11
4.90501e-11
4.60218e-11
4.23713e-11
3.82612e-11
3.38639e-11
2.93489e-11
2.48706e-11
2.05581e-11
1.65065e-11
1.27714e-11
9.36638e-12
6.264e-12
3.39999e-12
6.80327e-13
2.35743e-14
2.32559e-14
6.7129e-13
3.35655e-12
6.18623e-12
9.25427e-12
1.26257e-11
1.63295e-11
2.03539e-11
2.46452e-11
2.91102e-11
3.36214e-11
3.80254e-11
4.21532e-11
4.5832e-11
4.88983e-11
5.12094e-11
5.26543e-11
5.31625e-11
5.27088e-11
5.13153e-11
4.90501e-11
4.60218e-11
4.23713e-11
3.82612e-11
3.38639e-11
2.93489e-11
2.48706e-11
2.05581e-11
1.65065e-11
1.27714e-11
9.36638e-12
6.264e-12
3.39999e-12
6.80327e-13
2.35743e-14
2.32559e-14
6.7129e-13
3.35655e-12
6.18623e-12
9.25427e-12
1.26257e-11
1.63295e-11
2.03539e-11
2.46452e-11
2.91102e-11
3.36214e-11
3.80254e-11
4.21532e-11
4.5832e-11
4.88983e-11
5.12094e-11
5.26543e-11
5.31625e-11
5.27088e-11
5.13153e-11
4.90501e-11
4.60218e-11
4.23713e-11
3.82612e-11
3.38639e-11
2.93489e-11
2.48706e-11
2.05581e-11
1.65065e-11
1.27714e-11
9.36638e-12
6.264e-12
3.39999e-12
6.80327e-13
2.35743e-14
2.32559e-14
6.7129e-13
3.35655e-12
6.18623e-12
9.25427e-12
1.26257e-11
1.63295e-11
2.03539e-11
2.46452e-11
2.91102e-11
3.36214e-11
3.80254e-11
4.21532e-11
4.5832e-11
4.88983e-11
5.12094e-11
5.26543e-11
5.31625e-11
5.27088e-11
5.13153e-11
4.90501e-11
4.60218e-11
4.23713e-11
3.82612e-11
3.38639e-11
2.93489e-11
2.48706e-11
2.05581e-11
1.65065e-11
1.27714e-11
9.36638e-12
6.264e-12
3.39999e-12
6.80327e-13
2.35743e-14
2.32559e-14
6.7129e-13
3.35655e-12
6.18623e-12
9.25427e-12
1.26257e-11
1.63295e-11
2.03539e-11
2.46452e-11
2.91102e-11
3.36214e-11
3.80254e-11
4.21532e-11
4.5832e-11
4.88983e-11
5.12094e-11
5.26543e-11
5.31625e-11
5.27088e-11
5.13153e-11
4.90501e-11
4.60218e-11
4.23713e-11
3.82612e-11
3.38639e-11
2.93489e-11
2.48706e-11
2.05581e-11
1.65065e-11
1.27714e-11
9.36638e-12
6.264e-12
3.39999e-12
6.80327e-13
2.35743e-14
2.32559e-14
6.7129e-13
3.35655e-12
6.18623e-12
9.25427e-12
1.26257e-11
1.63295e-11
2.03539e-11
2.46452e-11
2.91102e-11
3.36214e-11
3.80254e-11
4.21532e-11
4.5832e-11
4.88983e-11
5.12094e-11
5.26543e-11
5.31625e-11
5.27088e-11
5.13153e-11
4.90501e-11
4.60218e-11
4.23713e-11
3.82612e-11
3.38639e-11
2.93489e-11
2.48706e-11
2.05581e-11
1.65065e-11
1.27714e-11
9.36638e-12
6.264e-12
3.39999e-12
6.80327e-13
2.35743e-14
2.32559e-14
6.7129e-13
3.35655e-12
6.18623e-12
9.25427e-12
1.26257e-11
1.63295e-11
2.03539e-11
2.46452e-11
2.91102e-11
3.36214e-11
3.80254e-11
4.21532e-11
4.5832e-11
4.88983e-11
5.12094e-11
5.26543e-11
5.31625e-11
5.27088e-11
5.13153e-11
4.90501e-11
4.60218e-11
4.23713e-11
3.82612e-11
3.38639e-11
2.93489e-11
2.48706e-11
2.05581e-11
1.65065e-11
1.27714e-11
9.36638e-12
6.264e-12
3.39999e-12
6.80327e-13
2.35743e-14
2.32559e-14
6.7129e-13
3.35655e-12
6.18623e-12
9.25427e-12
1.26257e-11
1.63295e-11
2.03539e-11
2.46452e-11
2.91102e-11
3.36214e-11
3.80254e-11
4.21532e-11
4.5832e-11
4.88983e-11
5.12094e-11
5.26543e-11
5.31625e-11
5.27088e-11
5.13153e-11
4.90501e-11
4.60218e-11
4.23713e-11
3.82612e-11
3.38639e-11
2.93489e-11
2.48706e-11
2.05581e-11
1.65065e-11
1.27714e-11
9.36638e-12
6.264e-12
3.39999e-12
6.80327e-13
2.35743e-14
2.32559e-14
6.7129e-13
3.35655e-12
6.18623e-12
9.25427e-12
1.26257e-11
1.63295e-11
2.03539e-11
2.46452e-11
2.91102e-11
3.36214e-11
3.80254e-11
4.21532e-11
4.5832e-11
4.88983e-11
5.12094e-11
5.26543e-11
5.31625e-11
5.27088e-11
5.13153e-11
4.90501e-11
4.60218e-11
4.23713e-11
3.82612e-11
3.38639e-11
2.93489e-11
2.48706e-11
2.05581e-11
1.65065e-11
1.27714e-11
9.36638e-12
6.264e-12
3.39999e-12
6.80327e-13
2.35743e-14
2.32559e-14
6.7129e-13
3.35655e-12
6.18623e-12
9.25427e-12
1.26257e-11
1.63295e-11
2.03539e-11
2.46452e-11
2.91102e-11
3.36214e-11
3.80254e-11
4.21532e-11
4.5832e-11
4.88983e-11
5.12094e-11
5.26543e-11
5.31625e-11
5.27088e-11
5.13153e-11
4.90501e-11
4.60218e-11
4.23713e-11
3.82612e-11
3.38639e-11
2.93489e-11
2.48706e-11
2.05581e-11
1.65065e-11
1.27714e-11
9.36638e-12
6.264e-12
3.39999e-12
6.80327e-13
2.35743e-14
2.32559e-14
6.7129e-13
3.35655e-12
6.18623e-12
9.25427e-12
1.26257e-11
1.63295e-11
2.03539e-11
2.46452e-11
2.91102e-11
3.36214e-11
3.80254e-11
4.21532e-11
4.5832e-11
4.88983e-11
5.12094e-11
5.26543e-11
5.31625e-11
5.27088e-11
5.13153e-11
4.90501e-11
4.60218e-11
4.23713e-11
3.82612e-11
3.38639e-11
2.93489e-11
2.48706e-11
2.05581e-11
1.65065e-11
1.27714e-11
9.36638e-12
6.264e-12
3.39999e-12
6.80327e-13
2.35743e-14
2.32559e-14
6.7129e-13
3.35655e-12
6.18623e-12
9.25427e-12
1.26257e-11
1.63295e-11
2.03539e-11
2.46452e-11
2.91102e-11
3.36214e-11
3.80254e-11
4.21532e-11
4.5832e-11
4.88983e-11
5.12094e-11
5.26543e-11
5.31625e-11
5.27088e-11
5.13153e-11
4.90501e-11
4.60218e-11
4.23713e-11
3.82612e-11
3.38639e-11
2.93489e-11
2.48706e-11
2.05581e-11
1.65065e-11
1.27714e-11
9.36638e-12
6.264e-12
3.39999e-12
6.80327e-13
2.35743e-14
2.32559e-14
6.7129e-13
3.35655e-12
6.18623e-12
9.25427e-12
1.26257e-11
1.63295e-11
2.03539e-11
2.46452e-11
2.91102e-11
3.36214e-11
3.80254e-11
4.21532e-11
4.5832e-11
4.88983e-11
5.12094e-11
5.26543e-11
5.31625e-11
5.27088e-11
5.13153e-11
4.90501e-11
4.60218e-11
4.23713e-11
3.82612e-11
3.38639e-11
2.93489e-11
2.48706e-11
2.05581e-11
1.65065e-11
1.27714e-11
9.36638e-12
6.264e-12
3.39999e-12
6.80327e-13
2.35743e-14
2.32559e-14
6.7129e-13
3.35655e-12
6.18623e-12
9.25427e-12
1.26257e-11
1.63295e-11
2.03539e-11
2.46452e-11
2.91102e-11
3.36214e-11
3.80254e-11
4.21532e-11
4.5832e-11
4.88983e-11
5.12094e-11
5.26543e-11
5.31625e-11
5.27088e-11
5.13153e-11
4.90501e-11
4.60218e-11
4.23713e-11
3.82612e-11
3.38639e-11
2.93489e-11
2.48706e-11
2.05581e-11
1.65065e-11
1.27714e-11
9.36638e-12
6.264e-12
3.39999e-12
6.80327e-13
2.35743e-14
2.32559e-14
6.7129e-13
3.35655e-12
6.18623e-12
9.25427e-12
1.26257e-11
1.63295e-11
2.03539e-11
2.46452e-11
2.91102e-11
3.36214e-11
3.80254e-11
4.21532e-11
4.5832e-11
4.88983e-11
5.12094e-11
5.26543e-11
5.31625e-11
5.27088e-11
5.13153e-11
4.90501e-11
4.60218e-11
4.23713e-11
3.82612e-11
3.38639e-11
2.93489e-11
2.48706e-11
2.05581e-11
1.65065e-11
1.27714e-11
9.36638e-12
6.264e-12
3.39999e-12
6.80327e-13
2.35743e-14
2.32559e-14
6.7129e-13
3.35655e-12
6.18623e-12
9.25427e-12
1.26257e-11
1.63295e-11
2.03539e-11
2.46452e-11
2.91102e-11
3.36214e-11
3.80254e-11
4.21532e-11
4.5832e-11
4.88983e-11
5.12094e-11
5.26543e-11
5.31625e-11
5.27088e-11
5.13153e-11
4.90501e-11
4.60218e-11
4.23713e-11
3.82612e-11
3.38639e-11
2.93489e-11
2.48706e-11
2.05581e-11
1.65065e-11
1.27714e-11
9.36638e-12
6.264e-12
3.39999e-12
6.80327e-13
2.35743e-14
2.32559e-14
6.7129e-13
3.35655e-12
6.18623e-12
9.25427e-12
1.26257e-11
1.63295e-11
2.03539e-11
2.46452e-11
2.91102e-11
3.36214e-11
3.80254e-11
4.21532e-11
4.5832e-11
4.88983e-11
5.12094e-11
5.26543e-11
5.31625e-11
5.27088e-11
5.13153e-11
4.90501e-11
4.60218e-11
4.23713e-11
3.82612e-11
3.38639e-11
2.93489e-11
2.48706e-11
2.05581e-11
1.65065e-11
1.27714e-11
9.36638e-12
6.264e-12
3.39999e-12
6.80327e-13
2.35743e-14
2.32559e-14
6.7129e-13
3.35655e-12
6.18623e-12
9.25427e-12
1.26257e-11
1.63295e-11
2.03539e-11
2.46452e-11
2.91102e-11
3.36214e-11
3.80254e-11
4.21532e-11
4.5832e-11
4.88983e-11
5.12094e-11
5.26543e-11
5.31625e-11
5.27088e-11
5.13153e-11
4.90501e-11
4.60218e-11
4.23713e-11
3.82612e-11
3.38639e-11
2.93489e-11
2.48706e-11
2.05581e-11
1.65065e-11
1.27714e-11
9.36638e-12
6.264e-12
3.39999e-12
6.80327e-13
2.35743e-14
2.32559e-14
6.7129e-13
3.35655e-12
6.18623e-12
9.25427e-12
1.26257e-11
1.63295e-11
2.03539e-11
2.46452e-11
2.91102e-11
3.36214e-11
3.80254e-11
4.21532e-11
4.5832e-11
4.88983e-11
5.12094e-11
5.26543e-11
5.31625e-11
5.27088e-11
5.13153e-11
4.90501e-11
4.60218e-11
4.23713e-11
3.82612e-11
3.38639e-11
2.93489e-11
2.48706e-11
2.05581e-11
1.65065e-11
1.27714e-11
9.36638e-12
6.264e-12
3.39999e-12
6.80327e-13
2.35743e-14
2.32559e-14
6.7129e-13
3.35655e-12
6.18623e-12
9.25427e-12
1.26257e-11
1.63295e-11
2.03539e-11
2.46452e-11
2.91102e-11
3.36214e-11
3.80254e-11
4.21532e-11
4.5832e-11
4.88983e-11
5.12094e-11
5.26543e-11
5.31625e-11
5.27088e-11
5.13153e-11
4.90501e-11
4.60218e-11
4.23713e-11
3.82612e-11
3.38639e-11
2.93489e-11
2.48706e-11
2.05581e-11
1.65065e-11
1.27714e-11
9.36638e-12
6.264e-12
3.39999e-12
6.80327e-13
2.35743e-14
2.32559e-14
6.7129e-13
3.35655e-12
6.18623e-12
9.25427e-12
1.26257e-11
1.63295e-11
2.03539e-11
2.46452e-11
2.91102e-11
3.36214e-11
3.80254e-11
4.21532e-11
4.5832e-11
4.88983e-11
5.12094e-11
5.26543e-11
5.31625e-11
5.27088e-11
5.13153e-11
4.90501e-11
4.60218e-11
4.23713e-11
3.82612e-11
3.38639e-11
2.93489e-11
2.48706e-11
2.05581e-11
1.65065e-11
1.27714e-11
9.36638e-12
6.264e-12
3.39999e-12
6.80327e-13
2.35743e-14
2.32559e-14
6.7129e-13
3.35655e-12
6.18623e-12
9.25427e-12
1.26257e-11
1.63295e-11
2.03539e-11
2.46452e-11
2.91102e-11
3.36214e-11
3.80254e-11
4.21532e-11
4.5832e-11
4.88983e-11
5.12094e-11