/*--------------------------------*- C++ -*----------------------------------*\
  =========                 |
  \\      /  F ield         | OpenFOAM: The Open Source CFD Toolbox
   \\    /   O peration     | Website:  https://openfoam.org
    \\  /    A nd           | Version:  13
     \\/     M anipulation  |
\*---------------------------------------------------------------------------*/
FoamFile
{
    format      ascii;
    class       volScalarField;
    location    "182.5";
    object      rhok;
}
// * * * * * * * * * * * * * * * * * * * * * * * * * * * * * * * * * * * * * //

dimensions      [];

internalField   nonuniform List<scalar> 
315000
(
0.444653
0.430905
0.417653
0.413646
0.412844
0.412269
0.411624
0.410952
0.410269
0.40958
0.408891
0.408201
0.407511
0.406821
0.406132
0.405444
0.404756
0.40407
0.403384
0.402699
0.402016
0.401334
0.400653
0.399973
0.399295
0.398618
0.397942
0.397268
0.396596
0.395925
0.395256
0.394588
0.393922
0.393258
0.392595
0.391935
0.391276
0.390618
0.389963
0.389309
0.388657
0.388006
0.387358
0.386711
0.386065
0.385421
0.384779
0.384138
0.383499
0.382861
0.382224
0.381589
0.380955
0.380322
0.37969
0.37906
0.37843
0.377802
0.377174
0.376547
0.375921
0.375296
0.374672
0.374047
0.373424
0.372801
0.372178
0.371555
0.370933
0.37031
0.444653
0.430901
0.417661
0.413679
0.412883
0.412304
0.411659
0.410984
0.410298
0.409608
0.408915
0.408222
0.40753
0.406838
0.406146
0.405456
0.404767
0.404079
0.403392
0.402706
0.402021
0.401338
0.400656
0.399976
0.399297
0.398619
0.397943
0.397269
0.396596
0.395925
0.395255
0.394587
0.393921
0.393257
0.392594
0.391933
0.391274
0.390617
0.389961
0.389307
0.388655
0.388005
0.387356
0.386709
0.386063
0.38542
0.384777
0.384136
0.383497
0.382859
0.382223
0.381587
0.380954
0.380321
0.379689
0.379059
0.378429
0.377801
0.377173
0.376547
0.375921
0.375296
0.374671
0.374047
0.373423
0.3728
0.372177
0.371555
0.370932
0.37031
0.444633
0.430058
0.415412
0.414002
0.413258
0.412527
0.411805
0.411089
0.410377
0.409668
0.408963
0.408261
0.407561
0.406863
0.406167
0.405473
0.404781
0.40409
0.403401
0.402713
0.402027
0.401343
0.40066
0.399979
0.399299
0.398621
0.397944
0.397269
0.396596
0.395925
0.395255
0.394587
0.393921
0.393256
0.392593
0.391932
0.391273
0.390616
0.38996
0.389306
0.388654
0.388003
0.387355
0.386707
0.386062
0.385418
0.384776
0.384135
0.383496
0.382858
0.382221
0.381586
0.380952
0.38032
0.379688
0.379058
0.378428
0.3778
0.377173
0.376546
0.37592
0.375295
0.37467
0.374046
0.373423
0.3728
0.372177
0.371555
0.370932
0.37031
0.444652
0.430842
0.416497
0.414246
0.413283
0.412479
0.41174
0.411028
0.410326
0.409628
0.408932
0.408237
0.407543
0.40685
0.406157
0.405466
0.404775
0.404086
0.403398
0.402711
0.402026
0.401342
0.400659
0.399978
0.399298
0.39862
0.397944
0.397269
0.396595
0.395924
0.395254
0.394586
0.39392
0.393255
0.392592
0.391931
0.391272
0.390614
0.389959
0.389305
0.388653
0.388002
0.387353
0.386706
0.386061
0.385417
0.384775
0.384134
0.383495
0.382857
0.38222
0.381585
0.380951
0.380319
0.379687
0.379057
0.378428
0.377799
0.377172
0.376545
0.37592
0.375294
0.37467
0.374046
0.373423
0.3728
0.372177
0.371554
0.370932
0.37031
0.444652
0.430841
0.416495
0.414244
0.413285
0.412482
0.411743
0.411029
0.410326
0.409628
0.408932
0.408236
0.407542
0.406849
0.406156
0.405465
0.404774
0.404085
0.403397
0.40271
0.402025
0.40134
0.400658
0.399977
0.399297
0.398619
0.397942
0.397267
0.396594
0.395922
0.395253
0.394585
0.393918
0.393254
0.392591
0.39193
0.391271
0.390613
0.389957
0.389303
0.388651
0.388001
0.387352
0.386705
0.38606
0.385416
0.384773
0.384133
0.383494
0.382856
0.382219
0.381584
0.38095
0.380318
0.379687
0.379056
0.378427
0.377799
0.377171
0.376545
0.375919
0.375294
0.37467
0.374046
0.373422
0.372799
0.372177
0.371554
0.370932
0.37031
0.444633
0.430056
0.415406
0.413993
0.413256
0.412527
0.411803
0.411085
0.410372
0.409663
0.408958
0.408255
0.407555
0.406858
0.406162
0.405468
0.404776
0.404085
0.403396
0.402709
0.402023
0.401338
0.400656
0.399974
0.399295
0.398616
0.39794
0.397265
0.396592
0.39592
0.395251
0.394583
0.393916
0.393252
0.392589
0.391928
0.391269
0.390612
0.389956
0.389302
0.38865
0.388
0.387351
0.386704
0.386058
0.385415
0.384772
0.384132
0.383493
0.382855
0.382218
0.381583
0.38095
0.380317
0.379686
0.379056
0.378426
0.377798
0.377171
0.376544
0.375919
0.375294
0.374669
0.374045
0.373422
0.372799
0.372177
0.371554
0.370932
0.37031
0.444653
0.430896
0.417651
0.413666
0.412867
0.412291
0.411645
0.41097
0.410284
0.409594
0.408901
0.408209
0.407517
0.406825
0.406135
0.405445
0.404756
0.404068
0.403381
0.402696
0.402012
0.401329
0.400647
0.399967
0.399288
0.398611
0.397935
0.397261
0.396588
0.395917
0.395248
0.39458
0.393914
0.39325
0.392587
0.391926
0.391267
0.39061
0.389955
0.389301
0.388649
0.387998
0.38735
0.386703
0.386057
0.385414
0.384772
0.384131
0.383492
0.382854
0.382218
0.381583
0.380949
0.380317
0.379685
0.379055
0.378426
0.377798
0.37717
0.376544
0.375918
0.375293
0.374669
0.374045
0.373422
0.372799
0.372176
0.371554
0.370932
0.37031
0.444653
0.43089
0.417623
0.413614
0.412814
0.412239
0.411596
0.410924
0.410241
0.409554
0.408866
0.408177
0.407488
0.406799
0.406111
0.405424
0.404737
0.404052
0.403367
0.402683
0.402
0.401319
0.400638
0.399959
0.399281
0.398605
0.39793
0.397256
0.396584
0.395913
0.395244
0.394577
0.393911
0.393247
0.392585
0.391924
0.391266
0.390608
0.389953
0.389299
0.388648
0.387997
0.387349
0.386702
0.386057
0.385413
0.384771
0.38413
0.383491
0.382853
0.382217
0.381582
0.380948
0.380316
0.379685
0.379055
0.378425
0.377797
0.37717
0.376544
0.375918
0.375293
0.374669
0.374045
0.373422
0.372799
0.372176
0.371554
0.370932
0.37031
0.444653
0.430881
0.417606
0.413595
0.412795
0.412219
0.411576
0.410905
0.410223
0.409536
0.408848
0.40816
0.407472
0.406785
0.406098
0.405411
0.404726
0.404041
0.403357
0.402674
0.401992
0.401312
0.400632
0.399953
0.399276
0.3986
0.397926
0.397252
0.396581
0.39591
0.395242
0.394575
0.393909
0.393245
0.392583
0.391923
0.391264
0.390607
0.389952
0.389298
0.388647
0.387996
0.387348
0.386701
0.386056
0.385412
0.38477
0.38413
0.383491
0.382853
0.382217
0.381582
0.380948
0.380316
0.379684
0.379054
0.378425
0.377797
0.37717
0.376543
0.375918
0.375293
0.374668
0.374045
0.373422
0.372799
0.372176
0.371554
0.370932
0.37031
0.444653
0.430878
0.417598
0.413585
0.412784
0.412209
0.411565
0.410894
0.410212
0.409526
0.408839
0.408151
0.407464
0.406777
0.40609
0.405404
0.404719
0.404035
0.403352
0.402669
0.401988
0.401307
0.400628
0.39995
0.399273
0.398597
0.397923
0.39725
0.396578
0.395908
0.39524
0.394573
0.393908
0.393244
0.392582
0.391922
0.391263
0.390606
0.389951
0.389298
0.388646
0.387996
0.387347
0.3867
0.386055
0.385412
0.38477
0.384129
0.38349
0.382852
0.382216
0.381581
0.380948
0.380315
0.379684
0.379054
0.378425
0.377797
0.377169
0.376543
0.375918
0.375293
0.374668
0.374045
0.373421
0.372799
0.372176
0.371554
0.370932
0.37031
0.444653
0.430876
0.417594
0.41358
0.412779
0.412204
0.41156
0.410889
0.410208
0.409522
0.408834
0.408147
0.407459
0.406772
0.406086
0.405401
0.404716
0.404032
0.403349
0.402666
0.401985
0.401305
0.400626
0.399948
0.399271
0.398596
0.397921
0.397249
0.396577
0.395907
0.395239
0.394572
0.393907
0.393243
0.392581
0.391921
0.391263
0.390606
0.389951
0.389297
0.388645
0.387995
0.387347
0.3867
0.386055
0.385411
0.384769
0.384129
0.38349
0.382852
0.382216
0.381581
0.380947
0.380315
0.379684
0.379054
0.378425
0.377797
0.377169
0.376543
0.375917
0.375293
0.374668
0.374045
0.373421
0.372799
0.372176
0.371554
0.370932
0.37031
0.444653
0.430875
0.417592
0.413578
0.412777
0.412202
0.411558
0.410887
0.410205
0.409519
0.408832
0.408145
0.407457
0.406771
0.406084
0.405399
0.404714
0.40403
0.403347
0.402665
0.401984
0.401304
0.400625
0.399947
0.39927
0.398595
0.397921
0.397248
0.396577
0.395907
0.395238
0.394572
0.393906
0.393243
0.392581
0.391921
0.391262
0.390605
0.38995
0.389297
0.388645
0.387995
0.387347
0.3867
0.386055
0.385411
0.384769
0.384129
0.38349
0.382852
0.382216
0.381581
0.380947
0.380315
0.379684
0.379054
0.378425
0.377796
0.377169
0.376543
0.375917
0.375292
0.374668
0.374045
0.373421
0.372799
0.372176
0.371554
0.370932
0.37031
0.444653
0.430875
0.417592
0.413577
0.412777
0.412201
0.411557
0.410887
0.410205
0.409519
0.408831
0.408144
0.407457
0.40677
0.406084
0.405398
0.404714
0.40403
0.403347
0.402665
0.401984
0.401303
0.400624
0.399947
0.39927
0.398594
0.39792
0.397248
0.396576
0.395906
0.395238
0.394571
0.393906
0.393243
0.392581
0.391921
0.391262
0.390605
0.38995
0.389297
0.388645
0.387995
0.387347
0.3867
0.386055
0.385411
0.384769
0.384129
0.38349
0.382852
0.382216
0.381581
0.380947
0.380315
0.379684
0.379054
0.378425
0.377796
0.377169
0.376543
0.375917
0.375292
0.374668
0.374044
0.373421
0.372799
0.372176
0.371554
0.370932
0.37031
0.444653
0.430875
0.417592
0.413578
0.412777
0.412201
0.411558
0.410887
0.410205
0.409519
0.408832
0.408144
0.407457
0.40677
0.406084
0.405399
0.404714
0.40403
0.403347
0.402665
0.401984
0.401304
0.400625
0.399947
0.39927
0.398594
0.39792
0.397248
0.396576
0.395907
0.395238
0.394571
0.393906
0.393243
0.392581
0.391921
0.391262
0.390605
0.38995
0.389297
0.388645
0.387995
0.387347
0.3867
0.386055
0.385411
0.384769
0.384129
0.38349
0.382852
0.382216
0.381581
0.380947
0.380315
0.379684
0.379054
0.378425
0.377796
0.377169
0.376543
0.375917
0.375292
0.374668
0.374044
0.373421
0.372799
0.372176
0.371554
0.370932
0.37031
0.444653
0.430876
0.417593
0.413579
0.412778
0.412202
0.411559
0.410888
0.410206
0.40952
0.408833
0.408145
0.407458
0.406771
0.406085
0.405399
0.404715
0.404031
0.403348
0.402665
0.401984
0.401304
0.400625
0.399947
0.39927
0.398595
0.397921
0.397248
0.396577
0.395907
0.395238
0.394572
0.393907
0.393243
0.392581
0.391921
0.391262
0.390605
0.38995
0.389297
0.388645
0.387995
0.387347
0.3867
0.386055
0.385411
0.384769
0.384129
0.38349
0.382852
0.382216
0.381581
0.380947
0.380315
0.379684
0.379054
0.378425
0.377796
0.377169
0.376543
0.375917
0.375292
0.374668
0.374045
0.373421
0.372799
0.372176
0.371554
0.370932
0.37031
0.444653
0.430876
0.417594
0.41358
0.41278
0.412204
0.411561
0.41089
0.410208
0.409522
0.408834
0.408147
0.407459
0.406772
0.406086
0.4054
0.404716
0.404032
0.403348
0.402666
0.401985
0.401305
0.400626
0.399948
0.399271
0.398595
0.397921
0.397248
0.396577
0.395907
0.395239
0.394572
0.393907
0.393243
0.392581
0.391921
0.391263
0.390606
0.389951
0.389297
0.388645
0.387995
0.387347
0.3867
0.386055
0.385411
0.384769
0.384129
0.38349
0.382852
0.382216
0.381581
0.380947
0.380315
0.379684
0.379054
0.378425
0.377797
0.377169
0.376543
0.375917
0.375293
0.374668
0.374045
0.373421
0.372799
0.372176
0.371554
0.370932
0.37031
0.444653
0.430876
0.417595
0.413582
0.412781
0.412206
0.411562
0.410891
0.410209
0.409523
0.408835
0.408148
0.40746
0.406773
0.406087
0.405401
0.404716
0.404032
0.403349
0.402667
0.401985
0.401305
0.400626
0.399948
0.399271
0.398596
0.397922
0.397249
0.396577
0.395907
0.395239
0.394572
0.393907
0.393244
0.392582
0.391921
0.391263
0.390606
0.389951
0.389297
0.388646
0.387996
0.387347
0.3867
0.386055
0.385412
0.38477
0.384129
0.38349
0.382852
0.382216
0.381581
0.380948
0.380315
0.379684
0.379054
0.378425
0.377797
0.377169
0.376543
0.375917
0.375293
0.374668
0.374045
0.373421
0.372799
0.372176
0.371554
0.370932
0.37031
0.444653
0.430876
0.417594
0.41358
0.412779
0.412204
0.411561
0.41089
0.410208
0.409522
0.408834
0.408147
0.407459
0.406773
0.406086
0.405401
0.404716
0.404032
0.403349
0.402667
0.401985
0.401305
0.400626
0.399948
0.399271
0.398596
0.397922
0.397249
0.396578
0.395908
0.395239
0.394573
0.393907
0.393244
0.392582
0.391922
0.391263
0.390606
0.389951
0.389298
0.388646
0.387996
0.387347
0.386701
0.386055
0.385412
0.38477
0.384129
0.38349
0.382853
0.382216
0.381581
0.380948
0.380315
0.379684
0.379054
0.378425
0.377797
0.37717
0.376543
0.375918
0.375293
0.374668
0.374045
0.373421
0.372799
0.372176
0.371554
0.370932
0.37031
0.444653
0.430876
0.417593
0.413579
0.412778
0.412203
0.411559
0.410888
0.410207
0.409521
0.408833
0.408146
0.407459
0.406772
0.406086
0.4054
0.404716
0.404032
0.403349
0.402667
0.401985
0.401305
0.400626
0.399948
0.399271
0.398596
0.397922
0.397249
0.396578
0.395908
0.39524
0.394573
0.393908
0.393244
0.392582
0.391922
0.391263
0.390607
0.389951
0.389298
0.388646
0.387996
0.387348
0.386701
0.386056
0.385412
0.38477
0.384129
0.38349
0.382853
0.382217
0.381582
0.380948
0.380316
0.379684
0.379054
0.378425
0.377797
0.37717
0.376543
0.375918
0.375293
0.374668
0.374045
0.373422
0.372799
0.372176
0.371554
0.370932
0.37031
0.444653
0.430876
0.417593
0.413579
0.412778
0.412203
0.41156
0.410889
0.410207
0.409521
0.408834
0.408146
0.407459
0.406773
0.406086
0.405401
0.404716
0.404032
0.403349
0.402667
0.401986
0.401306
0.400627
0.399949
0.399272
0.398597
0.397922
0.39725
0.396578
0.395908
0.39524
0.394573
0.393908
0.393245
0.392583
0.391922
0.391264
0.390607
0.389952
0.389298
0.388647
0.387996
0.387348
0.386701
0.386056
0.385412
0.38477
0.38413
0.383491
0.382853
0.382217
0.381582
0.380948
0.380316
0.379685
0.379054
0.378425
0.377797
0.37717
0.376543
0.375918
0.375293
0.374669
0.374045
0.373422
0.372799
0.372176
0.371554
0.370932
0.37031
0.444653
0.430877
0.417596
0.413582
0.412782
0.412206
0.411563
0.410892
0.41021
0.409524
0.408837
0.408149
0.407462
0.406775
0.406089
0.405404
0.404719
0.404035
0.403351
0.402669
0.401988
0.401308
0.400628
0.39995
0.399273
0.398598
0.397924
0.397251
0.396579
0.395909
0.395241
0.394574
0.393909
0.393245
0.392583
0.391923
0.391264
0.390607
0.389952
0.389299
0.388647
0.387997
0.387348
0.386702
0.386056
0.385413
0.384771
0.38413
0.383491
0.382853
0.382217
0.381582
0.380948
0.380316
0.379685
0.379055
0.378425
0.377797
0.37717
0.376544
0.375918
0.375293
0.374669
0.374045
0.373422
0.372799
0.372176
0.371554
0.370932
0.37031
0.444653
0.43088
0.417603
0.413591
0.41279
0.412215
0.411572
0.410901
0.410219
0.409533
0.408845
0.408157
0.40747
0.406782
0.406096
0.40541
0.404725
0.40404
0.403356
0.402674
0.401992
0.401311
0.400632
0.399953
0.399276
0.3986
0.397926
0.397253
0.396581
0.395911
0.395243
0.394575
0.39391
0.393246
0.392584
0.391924
0.391265
0.390608
0.389953
0.389299
0.388648
0.387997
0.387349
0.386702
0.386057
0.385413
0.384771
0.38413
0.383491
0.382854
0.382217
0.381582
0.380949
0.380316
0.379685
0.379055
0.378426
0.377797
0.37717
0.376544
0.375918
0.375293
0.374669
0.374045
0.373422
0.372799
0.372176
0.371554
0.370932
0.37031
0.444653
0.430889
0.417621
0.413611
0.412812
0.412237
0.411593
0.410922
0.410239
0.409552
0.408863
0.408174
0.407486
0.406797
0.406109
0.405422
0.404736
0.40405
0.403366
0.402682
0.402
0.401318
0.400638
0.399959
0.399281
0.398605
0.39793
0.397256
0.396584
0.395914
0.395245
0.394577
0.393912
0.393248
0.392586
0.391925
0.391266
0.390609
0.389954
0.3893
0.388648
0.387998
0.387349
0.386703
0.386057
0.385414
0.384771
0.384131
0.383492
0.382854
0.382218
0.381583
0.380949
0.380317
0.379685
0.379055
0.378426
0.377798
0.37717
0.376544
0.375918
0.375293
0.374669
0.374045
0.373422
0.372799
0.372176
0.371554
0.370932
0.37031
0.444653
0.430894
0.417647
0.413662
0.412865
0.412286
0.41164
0.410966
0.41028
0.40959
0.408898
0.408205
0.407513
0.406822
0.406131
0.405442
0.404753
0.404065
0.403379
0.402694
0.40201
0.401327
0.400645
0.399965
0.399287
0.39861
0.397934
0.39726
0.396587
0.395916
0.395247
0.39458
0.393914
0.39325
0.392587
0.391926
0.391267
0.39061
0.389955
0.389301
0.388649
0.387999
0.38735
0.386703
0.386058
0.385414
0.384772
0.384131
0.383492
0.382854
0.382218
0.381583
0.380949
0.380317
0.379685
0.379055
0.378426
0.377798
0.377171
0.376544
0.375918
0.375293
0.374669
0.374045
0.373422
0.372799
0.372176
0.371554
0.370932
0.37031
0.444633
0.43005
0.415396
0.413984
0.41324
0.412509
0.411787
0.41107
0.410359
0.40965
0.408946
0.408244
0.407544
0.406847
0.406152
0.405458
0.404767
0.404077
0.403388
0.402701
0.402016
0.401332
0.40065
0.399969
0.39929
0.398612
0.397936
0.397262
0.396589
0.395918
0.395249
0.394581
0.393915
0.39325
0.392588
0.391927
0.391268
0.390611
0.389955
0.389302
0.388649
0.387999
0.38735
0.386703
0.386058
0.385414
0.384772
0.384132
0.383492
0.382855
0.382218
0.381583
0.38095
0.380317
0.379686
0.379055
0.378426
0.377798
0.377171
0.376544
0.375919
0.375294
0.374669
0.374045
0.373422
0.372799
0.372177
0.371554
0.370932
0.37031
0.444652
0.430828
0.416466
0.414211
0.413246
0.412442
0.411703
0.410991
0.41029
0.409593
0.408899
0.408205
0.407513
0.406821
0.406131
0.405441
0.404753
0.404065
0.403379
0.402693
0.402009
0.401327
0.400645
0.399965
0.399287
0.39861
0.397934
0.39726
0.396588
0.395917
0.395248
0.39458
0.393914
0.39325
0.392588
0.391927
0.391268
0.390611
0.389955
0.389302
0.38865
0.387999
0.387351
0.386704
0.386058
0.385415
0.384772
0.384132
0.383493
0.382855
0.382219
0.381584
0.38095
0.380317
0.379686
0.379056
0.378426
0.377798
0.377171
0.376544
0.375919
0.375294
0.374669
0.374045
0.373422
0.372799
0.372177
0.371554
0.370932
0.37031
0.444652
0.430821
0.416432
0.414168
0.4132
0.412394
0.411657
0.410947
0.410249
0.409556
0.408864
0.408174
0.407485
0.406797
0.406109
0.405422
0.404736
0.40405
0.403366
0.402682
0.402
0.401318
0.400638
0.399959
0.399281
0.398605
0.39793
0.397257
0.396585
0.395914
0.395246
0.394578
0.393913
0.393249
0.392587
0.391926
0.391267
0.39061
0.389955
0.389301
0.388649
0.387999
0.387351
0.386704
0.386058
0.385415
0.384773
0.384132
0.383493
0.382855
0.382219
0.381584
0.38095
0.380317
0.379686
0.379056
0.378427
0.377798
0.377171
0.376544
0.375919
0.375294
0.374669
0.374046
0.373422
0.372799
0.372177
0.371554
0.370932
0.37031
0.444652
0.430813
0.416413
0.414148
0.413179
0.412373
0.411636
0.410927
0.410229
0.409537
0.408847
0.408158
0.40747
0.406782
0.406096
0.40541
0.404725
0.40404
0.403357
0.402674
0.401992
0.401312
0.400632
0.399954
0.399277
0.398601
0.397927
0.397254
0.396582
0.395912
0.395244
0.394577
0.393912
0.393248
0.392586
0.391926
0.391267
0.39061
0.389955
0.389301
0.388649
0.387999
0.387351
0.386704
0.386059
0.385415
0.384773
0.384132
0.383493
0.382855
0.382219
0.381584
0.38095
0.380318
0.379686
0.379056
0.378427
0.377798
0.377171
0.376545
0.375919
0.375294
0.374669
0.374046
0.373422
0.372799
0.372177
0.371554
0.370932
0.37031
0.444651
0.430809
0.416406
0.41414
0.413171
0.412365
0.411627
0.410918
0.410221
0.409529
0.408839
0.40815
0.407462
0.406776
0.406089
0.405404
0.404719
0.404035
0.403352
0.40267
0.401989
0.401308
0.400629
0.399951
0.399275
0.398599
0.397925
0.397252
0.396581
0.395911
0.395243
0.394576
0.393911
0.393247
0.392586
0.391925
0.391267
0.39061
0.389955
0.389301
0.388649
0.387999
0.387351
0.386704
0.386059
0.385415
0.384773
0.384132
0.383493
0.382855
0.382219
0.381584
0.38095
0.380318
0.379686
0.379056
0.378427
0.377799
0.377171
0.376545
0.375919
0.375294
0.37467
0.374046
0.373422
0.372799
0.372177
0.371554
0.370932
0.37031
0.444651
0.430808
0.416403
0.414137
0.413168
0.412361
0.411624
0.410915
0.410218
0.409525
0.408836
0.408147
0.40746
0.406773
0.406087
0.405401
0.404717
0.404033
0.40335
0.402668
0.401987
0.401307
0.400628
0.39995
0.399274
0.398598
0.397924
0.397252
0.396581
0.395911
0.395243
0.394576
0.393911
0.393247
0.392585
0.391925
0.391267
0.39061
0.389955
0.389301
0.388649
0.387999
0.387351
0.386704
0.386059
0.385415
0.384773
0.384132
0.383493
0.382856
0.382219
0.381584
0.38095
0.380318
0.379686
0.379056
0.378427
0.377799
0.377171
0.376545
0.375919
0.375294
0.37467
0.374046
0.373422
0.372799
0.372177
0.371554
0.370932
0.37031
0.444651
0.430808
0.416402
0.414136
0.413167
0.41236
0.411623
0.410914
0.410217
0.409524
0.408835
0.408146
0.407459
0.406772
0.406086
0.405401
0.404716
0.404032
0.403349
0.402668
0.401987
0.401307
0.400628
0.39995
0.399273
0.398598
0.397924
0.397252
0.39658
0.395911
0.395243
0.394576
0.393911
0.393247
0.392586
0.391925
0.391267
0.39061
0.389955
0.389301
0.38865
0.387999
0.387351
0.386704
0.386059
0.385415
0.384773
0.384133
0.383493
0.382856
0.382219
0.381584
0.380951
0.380318
0.379687
0.379056
0.378427
0.377799
0.377171
0.376545
0.375919
0.375294
0.37467
0.374046
0.373422
0.372799
0.372177
0.371554
0.370932
0.37031
0.444651
0.430808
0.416402
0.414136
0.413166
0.41236
0.411623
0.410914
0.410216
0.409524
0.408834
0.408146
0.407459
0.406772
0.406086
0.4054
0.404716
0.404032
0.403349
0.402667
0.401987
0.401307
0.400628
0.39995
0.399274
0.398598
0.397924
0.397252
0.396581
0.395911
0.395243
0.394576
0.393911
0.393247
0.392586
0.391925
0.391267
0.39061
0.389955
0.389302
0.38865
0.388
0.387351
0.386704
0.386059
0.385415
0.384773
0.384133
0.383494
0.382856
0.382219
0.381584
0.380951
0.380318
0.379687
0.379056
0.378427
0.377799
0.377172
0.376545
0.375919
0.375294
0.37467
0.374046
0.373422
0.372799
0.372177
0.371554
0.370932
0.37031
0.444651
0.430808
0.416402
0.414136
0.413167
0.41236
0.411623
0.410914
0.410217
0.409524
0.408835
0.408146
0.407459
0.406772
0.406086
0.405401
0.404716
0.404032
0.40335
0.402668
0.401987
0.401307
0.400628
0.39995
0.399274
0.398598
0.397924
0.397252
0.396581
0.395911
0.395243
0.394576
0.393911
0.393248
0.392586
0.391926
0.391267
0.39061
0.389955
0.389302
0.38865
0.388
0.387351
0.386704
0.386059
0.385416
0.384773
0.384133
0.383494
0.382856
0.38222
0.381585
0.380951
0.380318
0.379687
0.379057
0.378427
0.377799
0.377172
0.376545
0.375919
0.375294
0.37467
0.374046
0.373422
0.372799
0.372177
0.371554
0.370932
0.37031
0.444651
0.430808
0.416402
0.414136
0.413167
0.412361
0.411623
0.410914
0.410217
0.409524
0.408835
0.408146
0.407459
0.406772
0.406086
0.405401
0.404716
0.404032
0.40335
0.402668
0.401987
0.401307
0.400628
0.39995
0.399274
0.398599
0.397925
0.397252
0.396581
0.395911
0.395243
0.394576
0.393911
0.393248
0.392586
0.391926
0.391267
0.39061
0.389955
0.389302
0.38865
0.388
0.387351
0.386705
0.386059
0.385416
0.384774
0.384133
0.383494
0.382856
0.38222
0.381585
0.380951
0.380318
0.379687
0.379057
0.378427
0.377799
0.377172
0.376545
0.375919
0.375294
0.37467
0.374046
0.373422
0.372799
0.372177
0.371554
0.370932
0.37031
0.444651
0.430808
0.416403
0.414136
0.413167
0.412361
0.411623
0.410914
0.410217
0.409525
0.408835
0.408146
0.407459
0.406772
0.406086
0.405401
0.404716
0.404033
0.40335
0.402668
0.401987
0.401307
0.400628
0.39995
0.399274
0.398599
0.397925
0.397252
0.396581
0.395911
0.395243
0.394576
0.393911
0.393248
0.392586
0.391926
0.391267
0.390611
0.389955
0.389302
0.38865
0.388
0.387352
0.386705
0.386059
0.385416
0.384774
0.384133
0.383494
0.382856
0.38222
0.381585
0.380951
0.380318
0.379687
0.379057
0.378427
0.377799
0.377172
0.376545
0.375919
0.375294
0.37467
0.374046
0.373422
0.3728
0.372177
0.371554
0.370932
0.37031
0.444651
0.430808
0.416403
0.414136
0.413167
0.412361
0.411623
0.410914
0.410217
0.409525
0.408835
0.408146
0.407459
0.406772
0.406086
0.405401
0.404716
0.404033
0.40335
0.402668
0.401987
0.401307
0.400628
0.399951
0.399274
0.398599
0.397925
0.397252
0.396581
0.395911
0.395243
0.394577
0.393912
0.393248
0.392586
0.391926
0.391268
0.390611
0.389956
0.389302
0.38865
0.388
0.387352
0.386705
0.38606
0.385416
0.384774
0.384133
0.383494
0.382856
0.38222
0.381585
0.380951
0.380318
0.379687
0.379057
0.378427
0.377799
0.377172
0.376545
0.375919
0.375294
0.37467
0.374046
0.373423
0.3728
0.372177
0.371554
0.370932
0.37031
0.444651
0.430808
0.416403
0.414136
0.413167
0.412361
0.411623
0.410914
0.410217
0.409525
0.408835
0.408147
0.407459
0.406772
0.406086
0.405401
0.404717
0.404033
0.40335
0.402668
0.401987
0.401307
0.400628
0.399951
0.399274
0.398599
0.397925
0.397252
0.396581
0.395912
0.395243
0.394577
0.393912
0.393248
0.392586
0.391926
0.391268
0.390611
0.389956
0.389302
0.38865
0.388
0.387352
0.386705
0.38606
0.385416
0.384774
0.384133
0.383494
0.382856
0.38222
0.381585
0.380951
0.380318
0.379687
0.379057
0.378427
0.377799
0.377172
0.376545
0.375919
0.375294
0.37467
0.374046
0.373423
0.3728
0.372177
0.371554
0.370932
0.37031
0.444651
0.430808
0.416403
0.414136
0.413167
0.412361
0.411623
0.410914
0.410217
0.409525
0.408835
0.408147
0.407459
0.406772
0.406086
0.405401
0.404717
0.404033
0.40335
0.402668
0.401987
0.401307
0.400628
0.399951
0.399274
0.398599
0.397925
0.397252
0.396581
0.395912
0.395243
0.394577
0.393912
0.393248
0.392586
0.391926
0.391268
0.390611
0.389956
0.389302
0.38865
0.388
0.387352
0.386705
0.38606
0.385416
0.384774
0.384133
0.383494
0.382856
0.38222
0.381585
0.380951
0.380318
0.379687
0.379057
0.378427
0.377799
0.377172
0.376545
0.375919
0.375294
0.37467
0.374046
0.373423
0.3728
0.372177
0.371554
0.370932
0.37031
0.444651
0.430808
0.416403
0.414136
0.413167
0.412361
0.411624
0.410914
0.410217
0.409525
0.408835
0.408147
0.407459
0.406772
0.406086
0.405401
0.404717
0.404033
0.40335
0.402668
0.401987
0.401307
0.400628
0.399951
0.399274
0.398599
0.397925
0.397253
0.396581
0.395912
0.395243
0.394577
0.393912
0.393248
0.392586
0.391926
0.391268
0.390611
0.389956
0.389302
0.38865
0.388
0.387352
0.386705
0.38606
0.385416
0.384774
0.384133
0.383494
0.382856
0.38222
0.381585
0.380951
0.380319
0.379687
0.379057
0.378428
0.377799
0.377172
0.376545
0.375919
0.375294
0.37467
0.374046
0.373423
0.3728
0.372177
0.371554
0.370932
0.37031
0.444651
0.430808
0.416403
0.414136
0.413167
0.412361
0.411624
0.410914
0.410217
0.409525
0.408835
0.408147
0.407459
0.406772
0.406086
0.405401
0.404717
0.404033
0.40335
0.402668
0.401987
0.401307
0.400629
0.399951
0.399274
0.398599
0.397925
0.397253
0.396581
0.395912
0.395243
0.394577
0.393912
0.393248
0.392586
0.391926
0.391268
0.390611
0.389956
0.389302
0.38865
0.388
0.387352
0.386705
0.38606
0.385416
0.384774
0.384133
0.383494
0.382856
0.38222
0.381585
0.380951
0.380319
0.379687
0.379057
0.378428
0.377799
0.377172
0.376545
0.375919
0.375294
0.37467
0.374046
0.373423
0.3728
0.372177
0.371554
0.370932
0.37031
0.444651
0.430808
0.416403
0.414136
0.413167
0.412361
0.411624
0.410914
0.410217
0.409525
0.408835
0.408147
0.407459
0.406773
0.406086
0.405401
0.404717
0.404033
0.40335
0.402668
0.401987
0.401307
0.400629
0.399951
0.399274
0.398599
0.397925
0.397253
0.396581
0.395912
0.395244
0.394577
0.393912
0.393248
0.392586
0.391926
0.391268
0.390611
0.389956
0.389302
0.38865
0.388
0.387352
0.386705
0.38606
0.385416
0.384774
0.384133
0.383494
0.382856
0.38222
0.381585
0.380951
0.380319
0.379687
0.379057
0.378428
0.377799
0.377172
0.376545
0.375919
0.375294
0.37467
0.374046
0.373423
0.3728
0.372177
0.371554
0.370932
0.37031
0.444651
0.430808
0.416403
0.414136
0.413167
0.412361
0.411624
0.410914
0.410217
0.409525
0.408835
0.408147
0.407459
0.406773
0.406087
0.405401
0.404717
0.404033
0.40335
0.402668
0.401987
0.401307
0.400629
0.399951
0.399274
0.398599
0.397925
0.397253
0.396581
0.395912
0.395244
0.394577
0.393912
0.393248
0.392586
0.391926
0.391268
0.390611
0.389956
0.389302
0.38865
0.388
0.387352
0.386705
0.38606
0.385416
0.384774
0.384133
0.383494
0.382856
0.38222
0.381585
0.380951
0.380319
0.379687
0.379057
0.378428
0.377799
0.377172
0.376545
0.375919
0.375294
0.37467
0.374046
0.373423
0.3728
0.372177
0.371554
0.370932
0.37031
0.444651
0.430808
0.416403
0.414136
0.413167
0.412361
0.411624
0.410914
0.410217
0.409525
0.408835
0.408147
0.407459
0.406773
0.406087
0.405401
0.404717
0.404033
0.40335
0.402668
0.401987
0.401307
0.400629
0.399951
0.399274
0.398599
0.397925
0.397253
0.396581
0.395912
0.395244
0.394577
0.393912
0.393248
0.392586
0.391926
0.391268
0.390611
0.389956
0.389302
0.388651
0.388
0.387352
0.386705
0.38606
0.385416
0.384774
0.384133
0.383494
0.382856
0.38222
0.381585
0.380951
0.380319
0.379687
0.379057
0.378428
0.377799
0.377172
0.376545
0.375919
0.375294
0.37467
0.374046
0.373423
0.3728
0.372177
0.371554
0.370932
0.37031
0.444651
0.430808
0.416403
0.414136
0.413167
0.412361
0.411624
0.410914
0.410217
0.409525
0.408835
0.408147
0.407459
0.406773
0.406087
0.405401
0.404717
0.404033
0.40335
0.402668
0.401987
0.401307
0.400629
0.399951
0.399274
0.398599
0.397925
0.397253
0.396581
0.395912
0.395244
0.394577
0.393912
0.393248
0.392586
0.391926
0.391268
0.390611
0.389956
0.389302
0.388651
0.388
0.387352
0.386705
0.38606
0.385416
0.384774
0.384133
0.383494
0.382856
0.38222
0.381585
0.380951
0.380319
0.379687
0.379057
0.378428
0.377799
0.377172
0.376545
0.375919
0.375294
0.37467
0.374046
0.373423
0.3728
0.372177
0.371554
0.370932
0.37031
0.444651
0.430808
0.416403
0.414136
0.413167
0.412361
0.411624
0.410914
0.410217
0.409525
0.408835
0.408147
0.407459
0.406773
0.406087
0.405401
0.404717
0.404033
0.40335
0.402668
0.401987
0.401307
0.400629
0.399951
0.399274
0.398599
0.397925
0.397253
0.396581
0.395912
0.395244
0.394577
0.393912
0.393248
0.392587
0.391926
0.391268
0.390611
0.389956
0.389302
0.388651
0.388
0.387352
0.386705
0.38606
0.385416
0.384774
0.384133
0.383494
0.382856
0.38222
0.381585
0.380951
0.380319
0.379687
0.379057
0.378428
0.377799
0.377172
0.376545
0.375919
0.375294
0.37467
0.374046
0.373423
0.3728
0.372177
0.371554
0.370932
0.37031
0.444651
0.430808
0.416403
0.414136
0.413167
0.412361
0.411624
0.410914
0.410217
0.409525
0.408835
0.408147
0.407459
0.406773
0.406087
0.405401
0.404717
0.404033
0.40335
0.402668
0.401987
0.401307
0.400629
0.399951
0.399274
0.398599
0.397925
0.397253
0.396581
0.395912
0.395244
0.394577
0.393912
0.393248
0.392587
0.391926
0.391268
0.390611
0.389956
0.389302
0.388651
0.388
0.387352
0.386705
0.38606
0.385416
0.384774
0.384133
0.383494
0.382856
0.38222
0.381585
0.380951
0.380319
0.379687
0.379057
0.378428
0.377799
0.377172
0.376545
0.375919
0.375294
0.37467
0.374046
0.373423
0.3728
0.372177
0.371554
0.370932
0.37031
0.444651
0.430808
0.416403
0.414136
0.413167
0.412361
0.411624
0.410914
0.410217
0.409525
0.408835
0.408147
0.407459
0.406773
0.406087
0.405401
0.404717
0.404033
0.40335
0.402668
0.401987
0.401307
0.400629
0.399951
0.399274
0.398599
0.397925
0.397253
0.396581
0.395912
0.395244
0.394577
0.393912
0.393248
0.392587
0.391926
0.391268
0.390611
0.389956
0.389302
0.388651
0.388
0.387352
0.386705
0.38606
0.385416
0.384774
0.384133
0.383494
0.382856
0.38222
0.381585
0.380951
0.380319
0.379687
0.379057
0.378428
0.377799
0.377172
0.376545
0.375919
0.375294
0.37467
0.374046
0.373423
0.3728
0.372177
0.371554
0.370932
0.37031
0.444651
0.430808
0.416403
0.414136
0.413167
0.412361
0.411624
0.410915
0.410217
0.409525
0.408835
0.408147
0.407459
0.406773
0.406087
0.405401