/*--------------------------------*- C++ -*----------------------------------*\
  =========                 |
  \\      /  F ield         | OpenFOAM: The Open Source CFD Toolbox
   \\    /   O peration     | Website:  https://openfoam.org
    \\  /    A nd           | Version:  13
     \\/     M anipulation  |
\*---------------------------------------------------------------------------*/
FoamFile
{
    format      ascii;
    class       volScalarField;
    location    "42";
    object      nut;
}
// * * * * * * * * * * * * * * * * * * * * * * * * * * * * * * * * * * * * * //

dimensions      [0 2 -1 0 0 0 0];

internalField   nonuniform List<scalar> 
78750
(
3.27176e-19
2.94458e-18
1.46562e-17
1.46562e-17
1.46562e-17
1.46562e-17
1.46562e-17
1.46562e-17
1.46562e-17
1.46562e-17
1.46562e-17
1.46562e-17
1.46562e-17
1.46562e-17
1.46562e-17
1.46562e-17
1.46562e-17
1.46562e-17
1.46562e-17
1.46562e-17
1.46562e-17
1.46562e-17
1.46562e-17
1.46562e-17
1.46562e-17
1.46562e-17
1.46562e-17
1.46562e-17
1.46562e-17
1.46562e-17
1.46562e-17
1.46562e-17
1.46562e-17
2.94458e-18
3.27176e-19
3.27176e-19
2.94458e-18
8.33901e-17
1.04059e-16
1.39921e-16
1.7981e-16
2.23195e-16
2.6939e-16
3.1748e-16
3.66316e-16
4.14547e-16
4.60688e-16
5.03202e-16
5.40586e-16
5.71458e-16
5.94634e-16
6.09204e-16
6.14586e-16
6.10557e-16
5.97274e-16
5.75262e-16
5.45377e-16
5.08762e-16
4.66773e-16
4.20901e-16
3.72683e-16
3.23618e-16
2.75076e-16
2.28236e-16
1.84033e-16
1.43166e-16
1.06163e-16
8.33901e-17
2.94458e-18
3.27176e-19
3.27176e-19
2.94458e-18
1.43029e-16
2.45131e-16
3.56692e-16
4.79249e-16
6.13222e-16
7.5773e-16
9.10561e-16
1.06826e-15
1.22633e-15
1.37955e-15
1.52227e-15
1.64886e-15
1.75405e-15
1.83329e-15
1.88306e-15
1.90111e-15
1.88661e-15
1.84021e-15
1.76399e-15
1.66132e-15
1.53663e-15
1.39514e-15
1.24246e-15
1.08424e-15
9.25781e-16
7.71666e-16
6.25459e-16
4.8949e-16
3.6474e-16
2.50876e-16
1.46335e-16
2.94458e-18
3.27176e-19
3.27176e-19
2.94458e-18
2.50555e-16
4.50674e-16
6.68594e-16
9.08333e-16
1.17153e-15
1.45706e-15
1.76097e-15
2.0766e-15
2.39494e-15
2.70525e-15
2.99577e-15
3.25453e-15
3.4702e-15
3.63295e-15
3.73512e-15
3.77181e-15
3.74124e-15
3.64486e-15
3.48727e-15
3.27587e-15
3.02031e-15
2.73181e-15
2.42229e-15
2.10359e-15
1.78655e-15
1.48035e-15
1.19185e-15
9.25208e-16
6.81725e-16
4.59892e-16
2.55745e-16
2.94458e-18
3.27176e-19
3.27176e-19
2.94458e-18
3.72219e-16
6.81548e-16
1.01727e-15
1.3864e-15
1.792e-15
2.23273e-15
2.70269e-15
3.19166e-15
3.68569e-15
4.16802e-15
4.62017e-15
5.02331e-15
5.35955e-15
5.61332e-15
5.77248e-15
5.82928e-15
5.78091e-15
5.62972e-15
5.38306e-15
5.05269e-15
4.65394e-15
4.20453e-15
3.72327e-15
3.2287e-15
2.73774e-15
2.26459e-15
1.81975e-15
1.40939e-15
1.03514e-15
6.94114e-16
3.7939e-16
2.94458e-18
3.27176e-19
3.27176e-19
3.66454e-18
4.95895e-16
9.09785e-16
1.35913e-15
1.8534e-15
2.3968e-15
2.98758e-15
3.61786e-15
4.27391e-15
4.937e-15
5.58459e-15
6.19181e-15
6.73327e-15
7.18488e-15
7.52563e-15
7.73918e-15
7.81508e-15
7.74955e-15
7.54581e-15
7.21379e-15
6.7694e-15
6.23333e-15
5.62948e-15
4.98319e-15
4.31941e-15
3.6609e-15
3.02668e-15
2.4308e-15
1.88153e-15
1.38093e-15
9.25039e-16
5.04502e-16
3.72864e-18
3.27176e-19
3.27176e-19
4.45312e-18
6.07813e-16
1.11616e-15
1.66802e-15
2.27508e-15
2.94251e-15
3.6682e-15
4.44243e-15
5.24838e-15
6.06302e-15
6.8586e-15
7.60458e-15
8.26974e-15
8.82445e-15
9.24289e-15
9.50497e-15
9.59784e-15
9.51691e-15
9.26612e-15
8.85774e-15
8.31135e-15
7.6524e-15
6.91029e-15
6.1162e-15
5.30076e-15
4.49196e-15
3.71315e-15
2.98158e-15
2.30735e-15
1.693e-15
1.1336e-15
6.17631e-16
4.52607e-18
3.27176e-19
3.27176e-19
5.12593e-18
7.03302e-16
1.29222e-15
1.93147e-15
2.6346e-15
3.40765e-15
4.24814e-15
5.14484e-15
6.07825e-15
7.02168e-15
7.94302e-15
8.80686e-15
9.57705e-15
1.02193e-14
1.07036e-14
1.10069e-14
1.11141e-14
1.102e-14
1.07292e-14
1.0256e-14
9.62292e-15
8.85958e-15
8e-15
7.0803e-15
6.13597e-15
5.1994e-15
4.29763e-15
3.45063e-15
2.67008e-15
1.95888e-15
1.31133e-15
7.14042e-16
5.20561e-18
3.27176e-19
3.27176e-19
5.67095e-18
7.80661e-16
1.43484e-15
2.14486e-15
2.92579e-15
3.78433e-15
4.71774e-15
5.71355e-15
6.75008e-15
7.7977e-15
8.82075e-15
9.77991e-15
1.0635e-14
1.1348e-14
1.18856e-14
1.22221e-14
1.23409e-14
1.22361e-14
1.1913e-14
1.13872e-14
1.0684e-14
9.83624e-15
8.88164e-15
7.86034e-15
6.81174e-15
5.77182e-15
4.77058e-15
3.8302e-15
2.96362e-15
2.17405e-15
1.45516e-15
7.92068e-16
5.75549e-18
3.27176e-19
3.27176e-19
6.09069e-18
8.40248e-16
1.54469e-15
2.30922e-15
3.15006e-15
4.07444e-15
5.07939e-15
6.1515e-15
7.26742e-15
8.39526e-15
9.49659e-15
1.05291e-14
1.14496e-14
1.2217e-14
1.27956e-14
1.31576e-14
1.32853e-14
1.31723e-14
1.28242e-14
1.2258e-14
1.15008e-14
1.0588e-14
9.56021e-15
8.46069e-15
7.33183e-15
6.21235e-15
5.13456e-15
4.1223e-15
3.18951e-15
2.33963e-15
1.56584e-15
8.52107e-16
6.17852e-18
3.27176e-19
3.27176e-19
6.398e-18
8.83883e-16
1.62513e-15
2.42957e-15
3.31429e-15
4.28687e-15
5.3442e-15
6.47217e-15
7.64622e-15
8.83278e-15
9.99143e-15
1.10776e-14
1.20459e-14
1.28532e-14
1.34618e-14
1.38424e-14
1.39766e-14
1.38576e-14
1.34912e-14
1.28953e-14
1.20986e-14
1.11381e-14
1.00568e-14
8.90004e-15
7.71243e-15
6.53472e-15
5.40089e-15
4.33602e-15
3.35478e-15
2.46078e-15
1.64682e-15
8.96027e-16
6.48791e-18
3.27176e-19
3.27176e-19
6.61188e-18
9.14259e-16
1.68113e-15
2.51336e-15
3.42861e-15
4.43475e-15
5.52855e-15
6.69541e-15
7.90991e-15
9.13735e-15
1.03359e-14
1.14595e-14
1.24611e-14
1.3296e-14
1.39255e-14
1.43191e-14
1.44578e-14
1.43345e-14
1.39553e-14
1.33388e-14
1.25146e-14
1.1521e-14
1.04024e-14
9.20573e-15
7.97722e-15
6.75898e-15
5.58616e-15
4.48469e-15
3.46973e-15
2.54503e-15
1.70313e-15
9.2657e-16
6.70301e-18
3.27176e-19
3.27176e-19
6.75343e-18
9.34367e-16
1.7182e-15
2.56882e-15
3.50429e-15
4.53264e-15
5.65059e-15
6.84319e-15
8.08448e-15
9.33897e-15
1.05639e-14
1.17123e-14
1.27359e-14
1.35892e-14
1.42324e-14
1.46347e-14
1.47763e-14
1.46502e-14
1.42626e-14
1.36324e-14
1.27899e-14
1.17743e-14
1.0631e-14
9.408e-15
8.15242e-15
6.90735e-15
5.70872e-15
4.58303e-15
3.54577e-15
2.60076e-15
1.74037e-15
9.46769e-16
6.84521e-18
3.27176e-19
3.27176e-19
6.84258e-18
9.47035e-16
1.74156e-15
2.60377e-15
3.55197e-15
4.59432e-15
5.72747e-15
6.9363e-15
8.19447e-15
9.466e-15
1.07076e-14
1.18715e-14
1.2909e-14
1.37739e-14
1.44258e-14
1.48334e-14
1.49769e-14
1.4849e-14
1.44561e-14
1.38173e-14
1.29633e-14
1.19339e-14
1.0775e-14
9.53537e-15
8.26274e-15
7.00077e-15
5.78588e-15
4.64494e-15
3.59364e-15
2.63584e-15
1.76381e-15
9.59481e-16
6.93468e-18
3.27176e-19
3.27176e-19
6.89605e-18
9.54636e-16
1.75557e-15
2.62474e-15
3.58059e-15
4.63133e-15
5.77362e-15
6.99218e-15
8.26047e-15
9.54224e-15
1.07938e-14
1.19671e-14
1.30129e-14
1.38847e-14
1.45418e-14
1.49527e-14
1.50973e-14
1.49684e-14
1.45722e-14
1.39282e-14
1.30673e-14
1.20296e-14
1.08614e-14
9.61178e-15
8.32891e-15
7.0568e-15
5.83216e-15
4.68206e-15
3.62234e-15
2.65687e-15
1.77787e-15
9.67102e-16
6.98829e-18
3.27176e-19
3.27176e-19
6.92665e-18
9.58987e-16
1.76359e-15
2.63674e-15
3.59697e-15
4.65252e-15
5.80003e-15
7.02416e-15
8.29826e-15
9.58588e-15
1.08432e-14
1.20218e-14
1.30724e-14
1.39481e-14
1.46082e-14
1.5021e-14
1.51662e-14
1.50367e-14
1.46387e-14
1.39917e-14
1.31269e-14
1.20844e-14
1.09109e-14
9.6555e-15
8.36677e-15
7.08885e-15
5.85863e-15
4.7033e-15
3.63875e-15
2.6689e-15
1.78591e-15
9.71459e-16
7.01894e-18
3.27176e-19
3.27176e-19
6.94337e-18
9.61365e-16
1.76798e-15
2.6433e-15
3.60592e-15
4.6641e-15
5.81447e-15
7.04165e-15
8.31891e-15
9.60974e-15
1.08702e-14
1.20517e-14
1.31049e-14
1.39828e-14
1.46446e-14
1.50583e-14
1.52039e-14
1.5074e-14
1.4675e-14
1.40264e-14
1.31594e-14
1.21144e-14
1.09379e-14
9.67938e-15
8.38745e-15
7.10637e-15
5.8731e-15
4.7149e-15
3.64772e-15
2.67547e-15
1.79029e-15
9.73839e-16
7.03567e-18
3.27176e-19
3.27176e-19
6.9521e-18
9.62608e-16
1.77027e-15
2.64673e-15
3.6106e-15
4.67016e-15
5.82202e-15
7.05079e-15
8.32971e-15
9.62222e-15
1.08843e-14
1.20673e-14
1.31219e-14
1.4001e-14
1.46635e-14
1.50779e-14
1.52236e-14
1.50935e-14
1.4694e-14
1.40446e-14
1.31764e-14
1.213e-14
1.0952e-14
9.69187e-15
8.39826e-15
7.11552e-15
5.88065e-15
4.72096e-15
3.65241e-15
2.6789e-15
1.79259e-15
9.75082e-16
7.0444e-18
3.27176e-19
3.27176e-19
6.95647e-18
9.63231e-16
1.77142e-15
2.64845e-15
3.61294e-15
4.67319e-15
5.8258e-15
7.05537e-15
8.33512e-15
9.62846e-15
1.08913e-14
1.20752e-14
1.31304e-14
1.401e-14
1.46731e-14
1.50876e-14
1.52335e-14
1.51033e-14
1.47035e-14
1.40537e-14
1.3185e-14
1.21378e-14
1.09591e-14
9.69812e-15
8.40367e-15
7.1201e-15
5.88443e-15
4.72399e-15
3.65475e-15
2.68061e-15
1.79373e-15
9.75704e-16
7.04877e-18
3.27176e-19
3.27176e-19
6.95857e-18
9.63529e-16
1.77197e-15
2.64927e-15
3.61407e-15
4.67465e-15
5.82761e-15
7.05756e-15
8.33772e-15
9.63146e-15
1.08947e-14
1.20789e-14
1.31345e-14
1.40144e-14
1.46776e-14
1.50923e-14
1.52382e-14
1.5108e-14
1.47081e-14
1.4058e-14
1.3189e-14
1.21416e-14
1.09625e-14
9.70112e-15
8.40627e-15
7.1223e-15
5.88625e-15
4.72545e-15
3.65587e-15
2.68144e-15
1.79428e-15
9.76002e-16
7.05086e-18
3.27176e-19
3.27176e-19
6.95954e-18
9.63667e-16
1.77222e-15
2.64965e-15
3.61459e-15
4.67532e-15
5.82845e-15
7.05858e-15
8.33891e-15
9.63284e-15
1.08963e-14
1.20807e-14
1.31364e-14
1.40164e-14
1.46797e-14
1.50945e-14
1.52404e-14
1.51101e-14
1.47102e-14
1.406e-14
1.31909e-14
1.21433e-14
1.0964e-14
9.7025e-15
8.40747e-15
7.12331e-15
5.88709e-15
4.72612e-15
3.65639e-15
2.68182e-15
1.79454e-15
9.76139e-16
7.05182e-18
3.27176e-19
3.27176e-19
6.95996e-18
9.63728e-16
1.77234e-15
2.64982e-15
3.61482e-15
4.67561e-15
5.82882e-15
7.05903e-15
8.33945e-15
9.63346e-15
1.0897e-14
1.20814e-14
1.31372e-14
1.40173e-14
1.46807e-14
1.50954e-14
1.52413e-14
1.51111e-14
1.47111e-14
1.40609e-14
1.31918e-14
1.21441e-14
1.09647e-14
9.70311e-15
8.408e-15
7.12376e-15
5.88746e-15
4.72642e-15
3.65662e-15
2.68199e-15
1.79465e-15
9.762e-16
7.05225e-18
3.27176e-19
3.27176e-19
6.96015e-18
9.63754e-16
1.77238e-15
2.64989e-15
3.61492e-15
4.67574e-15
5.82898e-15
7.05922e-15
8.33967e-15
9.63372e-15
1.08973e-14
1.20818e-14
1.31376e-14
1.40177e-14
1.46811e-14
1.50959e-14
1.52418e-14
1.51115e-14
1.47115e-14
1.40613e-14
1.31921e-14
1.21444e-14
1.0965e-14
9.70338e-15
8.40823e-15
7.12395e-15
5.88761e-15
4.72655e-15
3.65672e-15
2.68206e-15
1.7947e-15
9.76226e-16
7.05243e-18
3.27176e-19
3.27176e-19
6.96022e-18
9.63765e-16
1.7724e-15
2.64992e-15
3.61496e-15
4.67579e-15
5.82904e-15
7.0593e-15
8.33977e-15
9.63383e-15
1.08974e-14
1.20819e-14
1.31377e-14
1.40178e-14
1.46812e-14
1.5096e-14
1.52419e-14
1.51117e-14
1.47117e-14
1.40615e-14
1.31923e-14
1.21446e-14
1.09651e-14
9.70348e-15
8.40832e-15
7.12403e-15
5.88768e-15
4.7266e-15
3.65676e-15
2.68209e-15
1.79472e-15
9.76237e-16
7.05251e-18
3.27176e-19
3.27176e-19
6.96025e-18
9.63769e-16
1.77241e-15
2.64993e-15
3.61497e-15
4.67581e-15
5.82907e-15
7.05933e-15
8.3398e-15
9.63387e-15
1.08974e-14
1.2082e-14
1.31378e-14
1.40179e-14
1.46813e-14
1.50961e-14
1.5242e-14
1.51117e-14
1.47117e-14
1.40615e-14
1.31923e-14
1.21446e-14
1.09652e-14
9.70353e-15
8.40836e-15
7.12406e-15
5.88771e-15
4.72662e-15
3.65678e-15
2.6821e-15
1.79473e-15
9.76241e-16
7.05254e-18
3.27176e-19
3.27176e-19
6.96026e-18
9.63771e-16
1.77241e-15
2.64994e-15
3.61498e-15
4.67582e-15
5.82908e-15
7.05934e-15
8.33982e-15
9.63389e-15
1.08975e-14
1.2082e-14
1.31378e-14
1.40179e-14
1.46813e-14
1.50961e-14
1.5242e-14
1.51118e-14
1.47118e-14
1.40616e-14
1.31923e-14
1.21446e-14
1.09652e-14
9.70354e-15
8.40837e-15
7.12407e-15
5.88772e-15
4.72663e-15
3.65678e-15
2.6821e-15
1.79473e-15
9.76243e-16
7.05255e-18
3.27176e-19
3.27176e-19
6.96027e-18
9.63772e-16
1.77242e-15
2.64994e-15
3.61498e-15
4.67583e-15
5.82908e-15
7.05935e-15
8.33982e-15
9.63389e-15
1.08975e-14
1.2082e-14
1.31378e-14
1.40179e-14
1.46813e-14
1.50961e-14
1.5242e-14
1.51118e-14
1.47118e-14
1.40616e-14
1.31924e-14
1.21446e-14
1.09652e-14
9.70355e-15
8.40838e-15
7.12408e-15
5.88772e-15
4.72663e-15
3.65678e-15
2.68211e-15
1.79473e-15
9.76243e-16
7.05255e-18
3.27176e-19
3.27176e-19
6.96027e-18
9.63772e-16
1.77242e-15
2.64994e-15
3.61498e-15
4.67583e-15
5.82909e-15
7.05935e-15
8.33982e-15
9.6339e-15
1.08975e-14
1.2082e-14
1.31378e-14
1.40179e-14
1.46813e-14
1.50961e-14
1.5242e-14
1.51118e-14
1.47118e-14
1.40616e-14
1.31924e-14
1.21447e-14
1.09652e-14
9.70355e-15
8.40838e-15
7.12408e-15
5.88772e-15
4.72663e-15
3.65679e-15
2.68211e-15
1.79473e-15
9.76243e-16
7.05255e-18
3.27176e-19
3.27176e-19
6.96027e-18
9.63772e-16
1.77242e-15
2.64994e-15
3.61498e-15
4.67583e-15
5.82909e-15
7.05935e-15
8.33983e-15
9.6339e-15
1.08975e-14
1.2082e-14
1.31378e-14
1.40179e-14
1.46813e-14
1.50961e-14
1.5242e-14
1.51118e-14
1.47118e-14
1.40616e-14
1.31924e-14
1.21447e-14
1.09652e-14
9.70355e-15
8.40838e-15
7.12408e-15
5.88772e-15
4.72663e-15
3.65679e-15
2.68211e-15
1.79473e-15
9.76244e-16
7.05255e-18
3.27176e-19
3.27176e-19
6.96027e-18
9.63772e-16
1.77242e-15
2.64994e-15
3.61498e-15
4.67583e-15
5.82909e-15
7.05935e-15
8.33983e-15
9.6339e-15
1.08975e-14
1.2082e-14
1.31378e-14
1.40179e-14
1.46813e-14
1.50961e-14
1.5242e-14
1.51118e-14
1.47118e-14
1.40616e-14
1.31924e-14
1.21447e-14
1.09652e-14
9.70355e-15
8.40838e-15
7.12408e-15
5.88772e-15
4.72663e-15
3.65679e-15
2.68211e-15
1.79473e-15
9.76244e-16
7.05255e-18
3.27176e-19
3.27176e-19
6.96027e-18
9.63772e-16
1.77242e-15
2.64994e-15
3.61498e-15
4.67583e-15
5.82909e-15
7.05935e-15
8.33983e-15
9.6339e-15
1.08975e-14
1.2082e-14
1.31378e-14
1.40179e-14
1.46813e-14
1.50961e-14
1.5242e-14
1.51118e-14
1.47118e-14
1.40616e-14
1.31924e-14
1.21447e-14
1.09652e-14
9.70355e-15
8.40838e-15
7.12408e-15
5.88772e-15
4.72663e-15
3.65679e-15
2.68211e-15
1.79473e-15
9.76244e-16
7.05255e-18
3.27176e-19
3.27176e-19
6.96027e-18
9.63772e-16
1.77242e-15
2.64994e-15
3.61498e-15
4.67583e-15
5.82909e-15
7.05935e-15
8.33983e-15
9.6339e-15
1.08975e-14
1.2082e-14
1.31378e-14
1.40179e-14
1.46813e-14
1.50961e-14
1.5242e-14
1.51118e-14
1.47118e-14
1.40616e-14
1.31924e-14
1.21447e-14
1.09652e-14
9.70355e-15
8.40838e-15
7.12408e-15
5.88772e-15
4.72663e-15
3.65679e-15
2.68211e-15
1.79473e-15
9.76244e-16
7.05255e-18
3.27176e-19
3.27176e-19
6.96027e-18
9.63772e-16
1.77242e-15
2.64994e-15
3.61498e-15
4.67583e-15
5.82909e-15
7.05935e-15
8.33983e-15
9.6339e-15
1.08975e-14
1.2082e-14
1.31378e-14
1.40179e-14
1.46813e-14
1.50961e-14
1.5242e-14
1.51118e-14
1.47118e-14
1.40616e-14
1.31924e-14
1.21447e-14
1.09652e-14
9.70355e-15
8.40838e-15
7.12408e-15
5.88772e-15
4.72663e-15
3.65679e-15
2.68211e-15
1.79473e-15
9.76244e-16
7.05255e-18
3.27176e-19
3.27176e-19
6.96027e-18
9.63772e-16
1.77242e-15
2.64994e-15
3.61498e-15
4.67583e-15
5.82909e-15
7.05935e-15
8.33983e-15
9.6339e-15
1.08975e-14
1.2082e-14
1.31378e-14
1.40179e-14
1.46813e-14
1.50961e-14
1.5242e-14
1.51118e-14
1.47118e-14
1.40616e-14
1.31924e-14
1.21447e-14
1.09652e-14
9.70355e-15
8.40838e-15
7.12408e-15
5.88772e-15
4.72663e-15
3.65679e-15
2.68211e-15
1.79473e-15
9.76244e-16
7.05255e-18
3.27176e-19
3.27176e-19
6.96027e-18
9.63772e-16
1.77242e-15
2.64994e-15
3.61498e-15
4.67583e-15
5.82909e-15
7.05935e-15
8.33983e-15
9.6339e-15
1.08975e-14
1.2082e-14
1.31378e-14
1.40179e-14
1.46813e-14
1.50961e-14
1.5242e-14
1.51118e-14
1.47118e-14
1.40616e-14
1.31924e-14
1.21447e-14
1.09652e-14
9.70355e-15
8.40838e-15
7.12408e-15
5.88772e-15
4.72663e-15
3.65679e-15
2.68211e-15
1.79473e-15
9.76244e-16
7.05255e-18
3.27176e-19
3.27176e-19
6.96027e-18
9.63772e-16
1.77242e-15
2.64994e-15
3.61498e-15
4.67583e-15
5.82909e-15
7.05935e-15
8.33983e-15
9.6339e-15
1.08975e-14
1.2082e-14
1.31378e-14
1.40179e-14
1.46813e-14
1.50961e-14
1.5242e-14
1.51118e-14
1.47118e-14
1.40616e-14
1.31924e-14
1.21447e-14
1.09652e-14
9.70355e-15
8.40838e-15
7.12408e-15
5.88772e-15
4.72663e-15
3.65679e-15
2.68211e-15
1.79473e-15
9.76244e-16
7.05255e-18
3.27176e-19
3.27176e-19
6.96027e-18
9.63772e-16
1.77242e-15
2.64994e-15
3.61498e-15
4.67583e-15
5.82909e-15
7.05935e-15
8.33983e-15
9.6339e-15
1.08975e-14
1.2082e-14
1.31378e-14
1.40179e-14
1.46813e-14
1.50961e-14
1.5242e-14
1.51118e-14
1.47118e-14
1.40616e-14
1.31924e-14
1.21447e-14
1.09652e-14
9.70355e-15
8.40838e-15
7.12408e-15
5.88772e-15
4.72663e-15
3.65679e-15
2.68211e-15
1.79473e-15
9.76244e-16
7.05255e-18
3.27176e-19
3.27176e-19
6.96027e-18
9.63772e-16
1.77242e-15
2.64994e-15
3.61498e-15
4.67583e-15
5.82909e-15
7.05935e-15
8.33983e-15
9.6339e-15
1.08975e-14
1.2082e-14
1.31378e-14
1.40179e-14
1.46813e-14
1.50961e-14
1.5242e-14
1.51118e-14
1.47118e-14
1.40616e-14
1.31924e-14
1.21447e-14
1.09652e-14
9.70355e-15
8.40838e-15
7.12408e-15
5.88772e-15
4.72663e-15
3.65679e-15
2.68211e-15
1.79473e-15
9.76244e-16
7.05255e-18
3.27176e-19
3.27176e-19
6.96027e-18
9.63772e-16
1.77242e-15
2.64994e-15
3.61498e-15
4.67583e-15
5.82909e-15
7.05935e-15
8.33983e-15
9.6339e-15
1.08975e-14
1.2082e-14
1.31378e-14
1.40179e-14
1.46813e-14
1.50961e-14
1.5242e-14
1.51118e-14
1.47118e-14
1.40616e-14
1.31924e-14
1.21447e-14
1.09652e-14
9.70355e-15
8.40838e-15
7.12408e-15
5.88772e-15
4.72663e-15
3.65679e-15
2.68211e-15
1.79473e-15
9.76244e-16
7.05255e-18
3.27176e-19
3.27176e-19
6.96027e-18
9.63772e-16
1.77242e-15
2.64994e-15
3.61498e-15
4.67583e-15
5.82909e-15
7.05935e-15
8.33983e-15
9.6339e-15
1.08975e-14
1.2082e-14
1.31378e-14
1.40179e-14
1.46813e-14
1.50961e-14
1.5242e-14
1.51118e-14
1.47118e-14
1.40616e-14
1.31924e-14
1.21447e-14
1.09652e-14
9.70355e-15
8.40838e-15
7.12408e-15
5.88772e-15
4.72663e-15
3.65679e-15
2.68211e-15
1.79473e-15
9.76244e-16
7.05255e-18
3.27176e-19
3.27176e-19
6.96027e-18
9.63772e-16
1.77242e-15
2.64994e-15
3.61498e-15
4.67583e-15
5.82909e-15
7.05935e-15
8.33983e-15
9.6339e-15
1.08975e-14
1.2082e-14
1.31378e-14
1.40179e-14
1.46813e-14
1.50961e-14
1.5242e-14
1.51118e-14
1.47118e-14
1.40616e-14
1.31924e-14
1.21447e-14
1.09652e-14
9.70355e-15
8.40838e-15
7.12408e-15
5.88772e-15
4.72663e-15
3.65679e-15
2.68211e-15
1.79473e-15
9.76244e-16
7.05255e-18
3.27176e-19
3.27176e-19
6.96027e-18
9.63772e-16
1.77242e-15
2.64994e-15
3.61498e-15
4.67583e-15
5.82909e-15
7.05935e-15
8.33983e-15
9.6339e-15
1.08975e-14
1.2082e-14
1.31378e-14
1.40179e-14
1.46813e-14
1.50961e-14
1.5242e-14
1.51118e-14
1.47118e-14
1.40616e-14
1.31924e-14
1.21447e-14
1.09652e-14
9.70355e-15
8.40838e-15
7.12408e-15
5.88772e-15
4.72663e-15
3.65679e-15
2.68211e-15
1.79473e-15
9.76244e-16
7.05255e-18
3.27176e-19
3.27176e-19
6.96027e-18
9.63772e-16
1.77242e-15
2.64994e-15
3.61498e-15
4.67583e-15
5.82909e-15
7.05935e-15
8.33983e-15
9.6339e-15
1.08975e-14
1.2082e-14
1.31378e-14
1.40179e-14
1.46813e-14
1.50961e-14
1.5242e-14
1.51118e-14
1.47118e-14
1.40616e-14
1.31924e-14
1.21447e-14
1.09652e-14
9.70355e-15
8.40838e-15
7.12408e-15
5.88772e-15
4.72663e-15
3.65679e-15
2.68211e-15
1.79473e-15
9.76244e-16
7.05255e-18
3.27176e-19
3.27176e-19
6.96027e-18
9.63772e-16
1.77242e-15
2.64994e-15
3.61498e-15
4.67583e-15
5.82909e-15
7.05935e-15
8.33983e-15
9.6339e-15
1.08975e-14
1.2082e-14
1.31378e-14
1.40179e-14
1.46813e-14
1.50961e-14
1.5242e-14
1.51118e-14
1.47118e-14
1.40616e-14
1.31924e-14
1.21447e-14
1.09652e-14
9.70355e-15
8.40838e-15
7.12408e-15
5.88772e-15
4.72663e-15
3.65679e-15
2.68211e-15
1.79473e-15
9.76244e-16
7.05255e-18
3.27176e-19
3.27176e-19
6.96027e-18
9.63772e-16
1.77242e-15
2.64994e-15
3.61498e-15
4.67583e-15
5.82909e-15
7.05935e-15
8.33983e-15
9.6339e-15
1.08975e-14
1.2082e-14
1.31378e-14
1.40179e-14
1.46813e-14
1.50961e-14
1.5242e-14
1.51118e-14
1.47118e-14
1.40616e-14
1.31924e-14
1.21447e-14
1.09652e-14
9.70355e-15
8.40838e-15
7.12408e-15
5.88772e-15
4.72663e-15
3.65679e-15
2.68211e-15
1.79473e-15
9.76244e-16
7.05255e-18
3.27176e-19
3.27176e-19
6.96027e-18
9.63772e-16
1.77242e-15
2.64994e-15
3.61498e-15
4.67583e-15
5.82909e-15
7.05935e-15
8.33983e-15
9.6339e-15
1.08975e-14
1.2082e-14
1.31378e-14
1.40179e-14
1.46813e-14
1.50961e-14
1.5242e-14
1.51118e-14
1.47118e-14
1.40616e-14
1.31924e-14
1.21447e-14
1.09652e-14
9.70355e-15
8.40838e-15
7.12408e-15
5.88772e-15
4.72663e-15
3.65679e-15
2.68211e-15
1.79473e-15
9.76244e-16
7.05255e-18
3.27176e-19
3.27176e-19
6.96027e-18
9.63772e-16
1.77242e-15
2.64994e-15
3.61498e-15
4.67583e-15
5.82909e-15
7.05935e-15
8.33983e-15
9.6339e-15
1.08975e-14
1.2082e-14
1.31378e-14
1.40179e-14
1.46813e-14
1.50961e-14
1.5242e-14
1.51118e-14
1.47118e-14
1.40616e-14
1.31924e-14
1.21447e-14
1.09652e-14
9.70355e-15
8.40838e-15
7.12408e-15
5.88772e-15
4.72663e-15
3.65679e-15
2.68211e-15
1.79473e-15
9.76244e-16
7.05255e-18
3.27176e-19
3.27176e-19
6.96027e-18
9.63772e-16
1.77242e-15
2.64994e-15
3.61498e-15
4.67583e-15
5.82909e-15
7.05935e-15
8.33983e-15
9.6339e-15
1.08975e-14
1.2082e-14
1.31378e-14
1.40179e-14
1.46813e-14
1.50961e-14
1.5242e-14
1.51118e-14
1.47118e-14
1.40616e-14
1.31924e-14
1.21447e-14
1.09652e-14
9.70355e-15
8.40838e-15
7.12408e-15
5.88772e-15
4.72663e-15
3.65679e-15
2.68211e-15
1.79473e-15
9.76244e-16
7.05255e-18
3.27176e-19
3.27176e-19
6.96027e-18
9.63772e-16
1.77242e-15
2.64994e-15
3.61498e-15
4.67583e-15
5.82909e-15
7.05935e-15
8.33983e-15
9.6339e-15
1.08975e-14
1.2082e-14
1.31378e-14
1.40179e-14
1.46813e-14
1.50961e-14
1.5242e-14
1.51118e-14
1.47118e-14
1.40616e-14
1.31924e-14
1.21447e-14
1.09652e-14
9.70355e-15
8.40838e-15
7.12408e-15
5.88772e-15
4.72663e-15
3.65679e-15
2.68211e-15
1.79473e-15
9.76244e-16
7.05255e-18
3.27176e-19
3.27176e-19
6.96027e-18
9.63772e-16
1.77242e-15
2.64994e-15
3.61498e-15
4.67583e-15
5.82909e-15
7.05935e-15
8.33983e-15
9.6339e-15
1.08975e-14
1.2082e-14
1.31378e-14
1.40179e-14
1.46813e-14
1.50961e-14
1.5242e-14
1.51118e-14
1.47118e-14
1.40616e-14
1.31924e-14
1.21447e-14
1.09652e-14
9.70355e-15
8.40838e-15
7.12408e-15
5.88772e-15
4.72663e-15
3.65679e-15
2.68211e-15
1.79473e-15
9.76244e-16
7.05255e-18
3.27176e-19
3.27176e-19
6.96027e-18
9.63772e-16
1.77242e-15
2.64994e-15
3.61498e-15
4.67583e-15
5.82909e-15
7.05935e-15
8.33983e-15
9.6339e-15
1.08975e-14
1.2082e-14
1.31378e-14
1.40179e-14
1.46813e-14
1.50961e-14
1.5242e-14
1.51118e-14
1.47118e-14
1.40616e-14
1.31924e-14
1.21447e-14
1.09652e-14
9.70355e-15
8.40838e-15
7.12408e-15
5.88772e-15
4.72663e-15
3.65679e-15
2.68211e-15
1.79473e-15
9.76244e-16
7.05255e-18
3.27176e-19
3.27176e-19
6.96027e-18
9.63772e-16
1.77242e-15
2.64994e-15
3.61498e-15
4.67583e-15
5.82909e-15
7.05935e-15
8.33983e-15
9.6339e-15
1.08975e-14
1.2082e-14
1.31378e-14
1.40179e-14
1.46813e-14
1.50961e-14
1.5242e-14
1.51118e-14
1.47118e-14
1.40616e-14
1.31924e-14
1.21447e-14
1.09652e-14
9.70355e-15
8.40838e-15
7.12408e-15
5.88772e-15
4.72663e-15
3.65679e-15
2.68211e-15
1.79473e-15
9.76244e-16
7.05255e-18
3.27176e-19
3.27176e-19
6.96027e-18
9.63772e-16
1.77242e-15
2.64994e-15
3.61498e-15
4.67583e-15
5.82909e-15
7.05935e-15
8.33983e-15
9.6339e-15
1.08975e-14
1.2082e-14
1.31378e-14
1.40179e-14
1.46813e-14
1.50961e-14
1.5242e-14
1.51118e-14
1.47118e-14
1.40616e-14
1.31924e-14
1.21447e-14
1.09652e-14
9.70355e-15
8.40838e-15
7.12408e-15
5.88772e-15
4.72663e-15
3.65679e-15
2.68211e-15
1.79473e-15
9.76244e-16
7.05255e-18
3.27176e-19
3.27176e-19
6.96027e-18
9.63772e-16
1.77242e-15
2.64994e-15
3.61498e-15
4.67583e-15
5.82909e-15
7.05935e-15
8.33983e-15
9.6339e-15
1.08975e-14
1.2082e-14
1.31378e-14
1.40179e-14
1.46813e-14
1.50961e-14
1.5242e-14
1.51118e-14
1.47118e-14
1.40616e-14
1.31924e-14
1.21447e-14
1.09652e-14
9.70355e-15
8.40838e-15
7.12408e-15
5.88772e-15
4.72663e-15
3.65679e-15
2.68211e-15
1.79473e-15
9.76244e-16
7.05255e-18
3.27176e-19
3.27176e-19
6.96027e-18
9.63772e-16
1.77242e-15
2.64994e-15
3.61498e-15
4.67583e-15
5.82909e-15
7.05935e-15
8.33983e-15
9.6339e-15
1.08975e-14
1.2082e-14
1.31378e-14
1.40179e-14
1.46813e-14
1.50961e-14
1.5242e-14
1.51118e-14
1.47118e-14
1.40616e-14
1.31924e-14
1.21447e-14
1.09652e-14
9.70355e-15
8.40838e-15
7.12408e-15
5.88772e-15
4.72663e-15
3.65679e-15
2.68211e-15
1.79473e-15
9.76244e-16
7.05255e-18
3.27176e-19
3.27176e-19
6.96027e-18
9.63772e-16
1.77242e-15
2.64994e-15
3.61498e-15
4.67583e-15
5.82909e-15
7.05935e-15
8.33983e-15
9.6339e-15
1.08975e-14
1.2082e-14
1.31378e-14
1.40179e-14
1.46813e-14
1.50961e-14
1.5242e-14
1.51118e-14
1.47118e-14
1.40616e-14
1.31924e-14
1.21447e-14
1.09652e-14
9.70355e-15
8.40838e-15
7.12408e-15
5.88772e-15
4.72663e-15
3.65679e-15
2.68211e-15
1.79473e-15
9.76244e-16
7.05255e-18
3.27176e-19
3.27176e-19
6.96027e-18
9.63772e-16
1.77242e-15
2.64994e-15
3.61498e-15
4.67583e-15
5.82909e-15
7.05935e-15
8.33983e-15
9.6339e-15
1.08975e-14
1.2082e-14
1.31378e-14
1.40179e-14
1.46813e-14
1.50961e-14
1.5242e-14
1.51118e-14
1.47118e-14
1.40616e-14
1.31924e-14
1.21447e-14
1.09652e-14
9.70355e-15
8.40838e-15
7.12408e-15
5.88772e-15
4.72663e-15
3.65679e-15
2.68211e-15
1.79473e-15
9.76244e-16
7.05255e-18
3.27176e-19
3.27176e-19
6.96027e-18
9.63772e-16
1.77242e-15
2.64994e-15
3.61498e-15
4.67583e-15
5.82909e-15
7.05935e-15
8.33983e-15
9.6339e-15
1.08975e-14
1.2082e-14
1.31378e-14
1.40179e-14
1.46813e-14
1.50961e-14
1.5242e-14
1.51118e-14
1.47118e-14
1.40616e-14
1.31924e-14
1.21447e-14
1.09652e-14
9.70355e-15
8.40838e-15
7.12408e-15
5.88772e-15
4.72663e-15
3.65679e-15
2.68211e-15
1.79473e-15
9.76244e-16
7.05255e-18
3.27176e-19
3.27176e-19
6.96027e-18
9.63772e-16
1.77242e-15
2.64994e-15
3.61498e-15
4.67583e-15
5.82909e-15
7.05935e-15
8.33983e-15
9.6339e-15
1.08975e-14
1.2082e-14
1.31378e-14
1.40179e-14
1.46813e-14
1.50961e-14
1.5242e-14
1.51118e-14
1.47118e-14
1.40616e-14
1.31924e-14
1.21447e-14
1.09652e-14
9.70355e-15
8.40838e-15
7.12408e-15
5.88772e-15
4.72663e-15
3.65679e-15
2.68211e-15
1.79473e-15
9.76244e-16
7.05255e-18
3.27176e-19
3.27176e-19
6.96027e-18
9.63772e-16
1.77242e-15
2.64994e-15
3.61498e-15
4.67583e-15
5.82909e-15
7.05935e-15
8.33983e-15
9.6339e-15
1.08975e-14
1.2082e-14
1.31378e-14
1.40179e-14
1.46813e-14
1.50961e-14
1.5242e-14
1.51118e-14
1.47118e-14
1.40616e-14
1.31924e-14
1.21447e-14
1.09652e-14
9.70355e-15
8.40838e-15
7.12408e-15
5.88772e-15
4.72663e-15
3.65679e-15
2.68211e-15
1.79473e-15
9.76244e-16
7.05255e-18
3.27176e-19
3.27176e-19
6.96027e-18
9.63772e-16
1.77242e-15
2.64994e-15
3.61498e-15
4.67583e-15
5.82909e-15
7.05935e-15
8.33983e-15
9.6339e-15
1.08975e-14
1.2082e-14
1.31378e-14
1.40179e-14
1.46813e-14
1.50961e-14
1.5242e-14
1.51118e-14
1.47118e-14
1.40616e-14
1.31924e-14
1.21447e-14
1.09652e-14
9.70355e-15
8.40838e-15
7.12408e-15
5.88772e-15
4.72663e-15
3.65679e-15
2.68211e-15
1.79473e-15
9.76244e-16
7.05255e-18
3.27176e-19
3.27176e-19
6.96027e-18
9.63772e-16
1.77242e-15
2.64994e-15
3.61498e-15
4.67583e-15
5.82909e-15
7.05935e-15
8.33983e-15
9.6339e-15
1.08975e-14
1.2082e-14
1.31378e-14
1.40179e-14
1.46813e-14
1.50961e-14
1.5242e-14
1.51118e-14
1.47118e-14
1.40616e-14
1.31924e-14
1.21447e-14
1.09652e-14
9.70355e-15
8.40838e-15
7.12408e-15
5.88772e-15
4.72663e-15
3.65679e-15
2.68211e-15
1.79473e-15
9.76244e-16
7.05255e-18
3.27176e-19
3.27176e-19
6.96027e-18
9.63772e-16
1.77242e-15
2.64994e-15
3.61498e-15
4.67583e-15
5.82909e-15
7.05935e-15
8.33983e-15
9.6339e-15
1.08975e-14
1.2082e-14
1.31378e-14
1.40179e-14
1.46813e-14
1.50961e-14
1.5242e-14
1.51118e-14
1.47118e-14
1.40616e-14
1.31924e-14
1.21447e-14
1.09652e-14
9.70355e-15
8.40838e-15
7.12408e-15
5.88772e-15
4.72663e-15
3.65679e-15
2.68211e-15
1.79473e-15
9.76244e-16
7.05255e-18
3.27176e-19
3.27176e-19
6.96027e-18
9.63772e-16
1.77242e-15
2.64994e-15
3.61498e-15
4.67583e-15
5.82909e-15
7.05935e-15
8.33983e-15
9.6339e-15
1.08975e-14
1.2082e-14
1.31378e-14
1.40179e-14
1.46813e-14
1.50961e-14
1.5242e-14
1.51118e-14
1.47118e-14
1.40616e-14
1.31924e-14
1.21447e-14
1.09652e-14
9.70355e-15
8.40838e-15
7.12408e-15
5.88772e-15
4.72663e-15
3.65679e-15
2.68211e-15
1.79473e-15
9.76244e-16
7.05255e-18
3.27176e-19
3.27176e-19
6.96027e-18
9.63772e-16
1.77242e-15
2.64994e-15
3.61498e-15
4.67583e-15
5.82909e-15
7.05935e-15
8.33983e-15
9.6339e-15
1.08975e-14
1.2082e-14
1.31378e-14
1.40179e-14
1.46813e-14
1.50961e-14
1.5242e-14
1.51118e-14
1.47118e-14
1.40616e-14
1.31924e-14
1.21447e-14
1.09652e-14
9.70355e-15
8.40838e-15
7.12408e-15
5.88772e-15
4.72663e-15
3.65679e-15
2.68211e-15
1.79473e-15
9.76244e-16
7.05255e-18
3.27176e-19
3.27176e-19
6.96027e-18
9.63772e-16
1.77242e-15
2.64994e-15
3.61498e-15
4.67583e-15
5.82909e-15
7.05935e-15
8.33983e-15
9.6339e-15
1.08975e-14
1.2082e-14
1.31378e-14
1.40179e-14
1.46813e-14
1.50961e-14
1.5242e-14
1.51118e-14
1.47118e-14
1.40616e-14
1.31924e-14
1.21447e-14
1.09652e-14
9.70355e-15
8.40838e-15
7.12408e-15
5.88772e-15
4.72663e-15
3.65679e-15
2.68211e-15
1.79473e-15
9.76244e-16
7.05255e-18
3.27176e-19
3.27176e-19
6.96027e-18
9.63772e-16
1.77242e-15
2.64994e-15
3.61498e-15
4.67583e-15
5.82909e-15
7.05935e-15
8.33983e-15
9.6339e-15
1.08975e-14
1.2082e-14
1.31378e-14
1.40179e-14
1.46813e-14
1.50961e-14
1.5242e-14
1.51118e-14
1.47118e-14
1.40616e-14
1.31924e-14
1.21447e-14
1.09652e-14
9.70355e-15
8.40838e-15
7.12408e-15
5.88772e-15
4.72663e-15
3.65679e-15
2.68211e-15
1.79473e-15
9.76244e-16
7.05255e-18
3.27176e-19
3.27176e-19
6.96027e-18
9.63772e-16
1.77242e-15
2.64994e-15
3.61498e-15
4.67583e-15
5.82909e-15
7.05935e-15
8.33983e-15
9.6339e-15
1.08975e-14
1.2082e-14
1.31378e-14
1.40179e-14
1.46813e-14
1.50961e-14
1.5242e-14
1.51118e-14
1.47118e-14
1.40616e-14
1.31924e-14
1.21447e-14
1.09652e-14
9.70355e-15
8.40838e-15
7.12408e-15
5.88772e-15
4.72663e-15
3.65679e-15
2.68211e-15
1.79473e-15
9.76244e-16
7.05255e-18
3.27176e-19
3.27176e-19
6.96027e-18
9.63772e-16
1.77242e-15
2.64994e-15
3.61498e-15
4.67583e-15
5.82909e-15
7.05935e-15
8.33983e-15
9.6339e-15
1.08975e-14
1.2082e-14
1.31378e-14
1.40179e-14
1.46813e-14
1.50961e-14
1.5242e-14
1.51118e-14
1.47118e-14
1.40616e-14
1.31924e-14
1.21447e-14
1.09652e-14
9.70355e-15
8.40838e-15
7.12408e-15
5.88772e-15
4.72663e-15
3.65679e-15
2.68211e-15
1.79473e-15
9.76244e-16
7.05255e-18
3.27176e-19
3.27176e-19
6.96027e-18
9.63772e-16
1.77242e-15
2.64994e-15
3.61498e-15
4.67583e-15
5.82909e-15
7.05935e-15
8.33983e-15
9.6339e-15
1.08975e-14
1.2082e-14
1.31378e-14
1.40179e-14
1.46813e-14
1.50961e-14
1.5242e-14
1.51118e-14
1.47118e-14
1.40616e-14
1.31924e-14
1.21447e-14
1.09652e-14
9.70355e-15
8.40838e-15
7.12408e-15
5.88772e-15
4.72663e-15
3.65679e-15
2.68211e-15
1.79473e-15
9.76244e-16
7.05255e-18
3.27176e-19
3.27176e-19
6.96027e-18
9.63772e-16
1.77242e-15
2.64994e-15
3.61498e-15
4.67583e-15
5.82909e-15
7.05935e-15
8.33983e-15
9.6339e-15
1.08975e-14
1.2082e-14
1.31378e-14
1.40179e-14