/*--------------------------------*- C++ -*----------------------------------*\
  =========                 |
  \\      /  F ield         | OpenFOAM: The Open Source CFD Toolbox
   \\    /   O peration     | Website:  https://openfoam.org
    \\  /    A nd           | Version:  13
     \\/     M anipulation  |
\*---------------------------------------------------------------------------*/
FoamFile
{
    format      ascii;
    class       volScalarField;
    location    "107.5";
    object      rhok;
}
// * * * * * * * * * * * * * * * * * * * * * * * * * * * * * * * * * * * * * //

dimensions      [];

internalField   nonuniform List<scalar> 
315000
(
0.444616
0.429358
0.41406
0.412594
0.411825
0.411057
0.41029
0.409524
0.40876
0.407998
0.407237
0.406477
0.40572
0.404965
0.404213
0.403463
0.402716
0.401972
0.401231
0.400494
0.399761
0.399031
0.398306
0.397585
0.39687
0.396158
0.395452
0.394752
0.394056
0.393366
0.392682
0.392004
0.391331
0.390665
0.390005
0.389351
0.388703
0.388061
0.387426
0.386797
0.386174
0.385557
0.384947
0.384342
0.383744
0.383151
0.382565
0.381984
0.381408
0.380838
0.380274
0.379714
0.37916
0.37861
0.378064
0.377523
0.376986
0.376452
0.375923
0.375396
0.374873
0.374352
0.373834
0.373318
0.372804
0.372292
0.371781
0.371271
0.370762
0.370254
0.444615
0.429354
0.414052
0.412586
0.411817
0.411049
0.410282
0.409517
0.408752
0.40799
0.407229
0.406469
0.405712
0.404957
0.404205
0.403455
0.402708
0.401964
0.401223
0.400486
0.399753
0.399024
0.398298
0.397578
0.396862
0.396151
0.395445
0.394744
0.394049
0.393359
0.392675
0.391996
0.391324
0.390658
0.389998
0.389343
0.388696
0.388054
0.387419
0.38679
0.386167
0.38555
0.38494
0.384336
0.383737
0.383145
0.382559
0.381978
0.381403
0.380833
0.380269
0.379709
0.379155
0.378605
0.37806
0.377519
0.376982
0.376449
0.375919
0.375393
0.37487
0.37435
0.373832
0.373316
0.372803
0.372291
0.37178
0.371271
0.370762
0.370253
0.444615
0.429348
0.414043
0.412577
0.411808
0.41104
0.410273
0.409507
0.408743
0.40798
0.40722
0.40646
0.405703
0.404949
0.404196
0.403446
0.402699
0.401956
0.401215
0.400478
0.399745
0.399016
0.398291
0.397571
0.396855
0.396144
0.395438
0.394737
0.394042
0.393352
0.392668
0.39199
0.391318
0.390652
0.389991
0.389337
0.38869
0.388048
0.387413
0.386784
0.386161
0.385545
0.384935
0.38433
0.383732
0.38314
0.382554
0.381973
0.381398
0.380829
0.380264
0.379705
0.379151
0.378601
0.378056
0.377515
0.376979
0.376446
0.375917
0.375391
0.374868
0.374348
0.37383
0.373315
0.372801
0.37229
0.371779
0.37127
0.370761
0.370253
0.444615
0.429346
0.414038
0.412571
0.411802
0.411034
0.410267
0.409502
0.408738
0.407975
0.407214
0.406455
0.405698
0.404943
0.404191
0.403441
0.402694
0.40195
0.40121
0.400473
0.39974
0.399011
0.398286
0.397566
0.39685
0.396139
0.395433
0.394732
0.394037
0.393347
0.392663
0.391985
0.391313
0.390647
0.389987
0.389333
0.388685
0.388044
0.387408
0.38678
0.386157
0.385541
0.38493
0.384326
0.383728
0.383136
0.38255
0.381969
0.381395
0.380825
0.380261
0.379702
0.379148
0.378598
0.378053
0.377513
0.376976
0.376444
0.375914
0.375389
0.374866
0.374346
0.373829
0.373314
0.3728
0.372289
0.371779
0.371269
0.370761
0.370253
0.444615
0.429345
0.414037
0.41257
0.411801
0.411033
0.410266
0.4095
0.408736
0.407973
0.407212
0.406453
0.405696
0.404941
0.404189
0.403439
0.402692
0.401948
0.401208
0.400471
0.399738
0.399008
0.398283
0.397563
0.396847
0.396136
0.39543
0.394729
0.394034
0.393344
0.39266
0.391982
0.39131
0.390644
0.389983
0.389329
0.388682
0.38804
0.387405
0.386776
0.386154
0.385537
0.384927
0.384323
0.383725
0.383133
0.382547
0.381967
0.381392
0.380822
0.380258
0.379699
0.379145
0.378596
0.378051
0.377511
0.376974
0.376442
0.375913
0.375387
0.374865
0.374345
0.373828
0.373313
0.3728
0.372288
0.371778
0.371269
0.370761
0.370253
0.444615
0.429347
0.414039
0.412572
0.411802
0.411034
0.410267
0.409501
0.408737
0.407974
0.407213
0.406454
0.405696
0.404941
0.404189
0.403439
0.402692
0.401948
0.401207
0.40047
0.399737
0.399007
0.398282
0.397562
0.396846
0.396135
0.395428
0.394728
0.394032
0.393342
0.392658
0.39198
0.391308
0.390641
0.389981
0.389327
0.388679
0.388038
0.387403
0.386774
0.386151
0.385535
0.384925
0.384321
0.383723
0.383131
0.382545
0.381964
0.38139
0.38082
0.380256
0.379697
0.379144
0.378594
0.37805
0.377509
0.376973
0.37644
0.375912
0.375386
0.374864
0.374344
0.373827
0.373312
0.372799
0.372288
0.371778
0.371269
0.370761
0.370253
0.444615
0.429347
0.41404
0.412573
0.411804
0.411035
0.410268
0.409502
0.408738
0.407975
0.407214
0.406454
0.405697
0.404942
0.404189
0.403439
0.402692
0.401948
0.401207
0.40047
0.399736
0.399007
0.398282
0.397561
0.396845
0.396134
0.395427
0.394726
0.394031
0.393341
0.392657
0.391979
0.391306
0.39064
0.38998
0.389326
0.388678
0.388036
0.387401
0.386772
0.38615
0.385533
0.384923
0.384319
0.383721
0.383129
0.382543
0.381963
0.381388
0.380819
0.380255
0.379696
0.379142
0.378593
0.378049
0.377508
0.376972
0.37644
0.375911
0.375385
0.374863
0.374343
0.373826
0.373311
0.372798
0.372287
0.371777
0.371269
0.370761
0.370253
0.444615
0.429348
0.414041
0.412574
0.411805
0.411036
0.410269
0.409503
0.408739
0.407976
0.407215
0.406455
0.405698
0.404942
0.40419
0.403439
0.402692
0.401948
0.401207
0.40047
0.399736
0.399006
0.398281
0.39756
0.396844
0.396133
0.395427
0.394726
0.39403
0.39334
0.392656
0.391977
0.391305
0.390639
0.389978
0.389324
0.388677
0.388035
0.3874
0.386771
0.386149
0.385532
0.384922
0.384318
0.38372
0.383128
0.382542
0.381962
0.381387
0.380818
0.380254
0.379695
0.379142
0.378592
0.378048
0.377508
0.376971
0.376439
0.37591
0.375385
0.374862
0.374343
0.373826
0.373311
0.372798
0.372287
0.371777
0.371268
0.37076
0.370253
0.444615
0.429348
0.414042
0.412575
0.411806
0.411038
0.410271
0.409505
0.40874
0.407977
0.407216
0.406456
0.405699
0.404943
0.40419
0.40344
0.402693
0.401948
0.401207
0.40047
0.399736
0.399006
0.398281
0.39756
0.396844
0.396132
0.395426
0.394725
0.39403
0.39334
0.392655
0.391977
0.391304
0.390638
0.389978
0.389324
0.388676
0.388035
0.387399
0.386771
0.386148
0.385532
0.384922
0.384318
0.38372
0.383128
0.382542
0.381962
0.381387
0.380818
0.380254
0.379695
0.379141
0.378592
0.378047
0.377507
0.376971
0.376439
0.37591
0.375385
0.374862
0.374343
0.373826
0.373311
0.372798
0.372287
0.371777
0.371268
0.37076
0.370253
0.444615
0.429351
0.414047
0.41258
0.411811
0.411043
0.410275
0.409509
0.408745
0.407982
0.40722
0.40646
0.405702
0.404947
0.404194
0.403443
0.402695
0.401951
0.401209
0.400472
0.399738
0.399008
0.398282
0.397561
0.396845
0.396133
0.395427
0.394726
0.39403
0.39334
0.392655
0.391977
0.391304
0.390638
0.389978
0.389324
0.388676
0.388034
0.387399
0.38677
0.386148
0.385532
0.384921
0.384317
0.38372
0.383128
0.382542
0.381961
0.381387
0.380818
0.380254
0.379695
0.379141
0.378592
0.378047
0.377507
0.376971
0.376439
0.37591
0.375384
0.374862
0.374343
0.373826
0.373311
0.372798
0.372287
0.371777
0.371268
0.37076
0.370253
0.444616
0.429356
0.414054
0.412588
0.411818
0.41105
0.410283
0.409517
0.408752
0.407988
0.407227
0.406467
0.405709
0.404953
0.404199
0.403448
0.4027
0.401955
0.401213
0.400475
0.399741
0.399011
0.398285
0.397563
0.396847
0.396135
0.395428
0.394727
0.394031
0.393341
0.392656
0.391978
0.391305
0.390639
0.389978
0.389324
0.388676
0.388035
0.3874
0.386771
0.386148
0.385532
0.384922
0.384318
0.38372
0.383128
0.382542
0.381961
0.381387
0.380818
0.380254
0.379695
0.379141
0.378592
0.378047
0.377507
0.376971
0.376439
0.37591
0.375384
0.374862
0.374343
0.373826
0.373311
0.372798
0.372287
0.371777
0.371268
0.37076
0.370253
0.444616
0.429354
0.414058
0.412592
0.411823
0.411055
0.410287
0.409521
0.408757
0.407993
0.407231
0.406471
0.405713
0.404957
0.404203
0.403452
0.402704
0.401959
0.401217
0.400478
0.399744
0.399013
0.398287
0.397566
0.396849
0.396137
0.39543
0.394728
0.394032
0.393342
0.392657
0.391979
0.391306
0.390639
0.389979
0.389325
0.388677
0.388035
0.3874
0.386771
0.386148
0.385532
0.384922
0.384318
0.38372
0.383128
0.382542
0.381962
0.381387
0.380818
0.380254
0.379695
0.379141
0.378592
0.378048
0.377507
0.376971
0.376439
0.37591
0.375385
0.374862
0.374343
0.373826
0.373311
0.372798
0.372287
0.371777
0.371268
0.37076
0.370253
0.444616
0.429359
0.41406
0.412593
0.411824
0.411056
0.410288
0.409522
0.408757
0.407994
0.407232
0.406472
0.405714
0.404957
0.404204
0.403453
0.402704
0.401959
0.401217
0.400479
0.399745
0.399014
0.398288
0.397566
0.39685
0.396138
0.395431
0.394729
0.394033
0.393343
0.392658
0.391979
0.391307
0.39064
0.38998
0.389325
0.388678
0.388036
0.387401
0.386772
0.386149
0.385533
0.384922
0.384318
0.38372
0.383128
0.382542
0.381962
0.381387
0.380818
0.380254
0.379695
0.379141
0.378592
0.378048
0.377507
0.376971
0.376439
0.37591
0.375385
0.374862
0.374343
0.373826
0.373311
0.372798
0.372287
0.371777
0.371268
0.37076
0.370253
0.444616
0.429355
0.414054
0.412588
0.411819
0.41105
0.410283
0.409517
0.408752
0.407989
0.407227
0.406467
0.40571
0.404954
0.4042
0.40345
0.402702
0.401957
0.401215
0.400477
0.399743
0.399013
0.398287
0.397566
0.396849
0.396137
0.395431
0.394729
0.394033
0.393343
0.392658
0.39198
0.391307
0.39064
0.38998
0.389326
0.388678
0.388036
0.387401
0.386772
0.386149
0.385533
0.384923
0.384319
0.383721
0.383129
0.382543
0.381962
0.381388
0.380818
0.380254
0.379696
0.379142
0.378593
0.378048
0.377508
0.376971
0.376439
0.37591
0.375385
0.374862
0.374343
0.373826
0.373311
0.372798
0.372287
0.371777
0.371268
0.37076
0.370253
0.444615
0.429351
0.414048
0.412581
0.411812
0.411044
0.410276
0.409511
0.408746
0.407983
0.407221
0.406462
0.405704
0.404949
0.404196
0.403445
0.402698
0.401953
0.401212
0.400474
0.39974
0.399011
0.398285
0.397564
0.396848
0.396136
0.39543
0.394728
0.394033
0.393343
0.392658
0.39198
0.391307
0.39064
0.38998
0.389326
0.388678
0.388037
0.387401
0.386772
0.38615
0.385533
0.384923
0.384319
0.383721
0.383129
0.382543
0.381963
0.381388
0.380819
0.380255
0.379696
0.379142
0.378593
0.378048
0.377508
0.376972
0.376439
0.37591
0.375385
0.374863
0.374343
0.373826
0.373311
0.372798
0.372287
0.371777
0.371269
0.370761
0.370253
0.444615
0.429348
0.414042
0.412575
0.411806
0.411038
0.410271
0.409505
0.40874
0.407977
0.407216
0.406457
0.405699
0.404944
0.404191
0.403441
0.402694
0.40195
0.401209
0.400471
0.399738
0.399008
0.398283
0.397562
0.396846
0.396135
0.395428
0.394727
0.394032
0.393342
0.392657
0.391979
0.391307
0.39064
0.38998
0.389326
0.388678
0.388037
0.387401
0.386772
0.38615
0.385533
0.384923
0.384319
0.383721
0.383129
0.382543
0.381963
0.381388
0.380819
0.380255
0.379696
0.379142
0.378593
0.378048
0.377508
0.376972
0.376439
0.375911
0.375385
0.374863
0.374343
0.373826
0.373311
0.372798
0.372287
0.371777
0.371269
0.370761
0.370253
0.444615
0.429346
0.414038
0.412571
0.411802
0.411034
0.410267
0.409501
0.408737
0.407974
0.407213
0.406454
0.405696
0.404941
0.404189
0.403439
0.402691
0.401947
0.401207
0.400469
0.399736
0.399007
0.398281
0.397561
0.396845
0.396133
0.395427
0.394726
0.394031
0.393341
0.392657
0.391979
0.391306
0.39064
0.38998
0.389326
0.388678
0.388037
0.387401
0.386773
0.38615
0.385534
0.384923
0.384319
0.383722
0.38313
0.382543
0.381963
0.381388
0.380819
0.380255
0.379696
0.379142
0.378593
0.378049
0.377508
0.376972
0.37644
0.375911
0.375385
0.374863
0.374343
0.373826
0.373311
0.372798
0.372287
0.371777
0.371269
0.370761
0.370253
0.444615
0.429347
0.41404
0.412573
0.411804
0.411036
0.410269
0.409503
0.408739
0.407976
0.407214
0.406455
0.405698
0.404943
0.40419
0.40344
0.402692
0.401948
0.401207
0.40047
0.399737
0.399007
0.398282
0.397561
0.396845
0.396134
0.395428
0.394727
0.394031
0.393342
0.392657
0.391979
0.391307
0.39064
0.38998
0.389326
0.388678
0.388037
0.387402
0.386773
0.38615
0.385534
0.384924
0.38432
0.383722
0.38313
0.382544
0.381963
0.381389
0.380819
0.380255
0.379697
0.379143
0.378593
0.378049
0.377508
0.376972
0.37644
0.375911
0.375385
0.374863
0.374343
0.373826
0.373311
0.372799
0.372287
0.371777
0.371269
0.370761
0.370253
0.444615
0.429351
0.414047
0.41258
0.411811
0.411043
0.410275
0.40951
0.408745
0.407982
0.407221
0.406461
0.405703
0.404948
0.404195
0.403445
0.402697
0.401953
0.401212
0.400474
0.39974
0.39901
0.398285
0.397564
0.396848
0.396136
0.39543
0.394729
0.394033
0.393343
0.392659
0.39198
0.391308
0.390641
0.389981
0.389327
0.388679
0.388038
0.387402
0.386773
0.386151
0.385534
0.384924
0.38432
0.383722
0.38313
0.382544
0.381964
0.381389
0.38082
0.380256
0.379697
0.379143
0.378594
0.378049
0.377509
0.376972
0.37644
0.375911
0.375386
0.374863
0.374343
0.373826
0.373312
0.372799
0.372287
0.371777
0.371269
0.370761
0.370253
0.444616
0.429354
0.414054
0.412588
0.411818
0.41105
0.410283
0.409517
0.408753
0.407989
0.407228
0.406468
0.40571
0.404955
0.404201
0.403451
0.402703
0.401958
0.401217
0.400479
0.399745
0.399015
0.398289
0.397567
0.396851
0.396139
0.395433
0.394731
0.394035
0.393345
0.392661
0.391982
0.391309
0.390643
0.389982
0.389328
0.38868
0.388039
0.387403
0.386774
0.386152
0.385535
0.384925
0.384321
0.383723
0.383131
0.382545
0.381964
0.381389
0.38082
0.380256
0.379697
0.379143
0.378594
0.378049
0.377509
0.376973
0.37644
0.375911
0.375386
0.374863
0.374344
0.373826
0.373312
0.372799
0.372287
0.371778
0.371269
0.370761
0.370253
0.444616
0.429359
0.414059
0.412593
0.411824
0.411055
0.410288
0.409522
0.408757
0.407994
0.407232
0.406472
0.405714
0.404959
0.404205
0.403454
0.402706
0.401961
0.40122
0.400482
0.399747
0.399017
0.398291
0.39757
0.396853
0.396141
0.395434
0.394733
0.394037
0.393347
0.392662
0.391983
0.39131
0.390644
0.389983
0.389329
0.388681
0.388039
0.387404
0.386775
0.386152
0.385536
0.384925
0.384321
0.383723
0.383131
0.382545
0.381965
0.38139
0.38082
0.380256
0.379697
0.379143
0.378594
0.378049
0.377509
0.376973
0.37644
0.375911
0.375386
0.374863
0.374344
0.373827
0.373312
0.372799
0.372287
0.371778
0.371269
0.370761
0.370253
0.444616
0.429356
0.414057
0.412591
0.411822
0.411054
0.410287
0.409521
0.408756
0.407993
0.407231
0.406472
0.405714
0.404958
0.404205
0.403454
0.402706
0.401961
0.40122
0.400482
0.399747
0.399017
0.398291
0.39757
0.396853
0.396141
0.395435
0.394733
0.394037
0.393347
0.392662
0.391984
0.391311
0.390644
0.389984
0.38933
0.388682
0.38804
0.387405
0.386776
0.386153
0.385536
0.384926
0.384322
0.383724
0.383132
0.382545
0.381965
0.38139
0.380821
0.380257
0.379698
0.379144
0.378594
0.37805
0.377509
0.376973
0.37644
0.375912
0.375386
0.374863
0.374344
0.373827
0.373312
0.372799
0.372288
0.371778
0.371269
0.370761
0.370253
0.444616
0.429355
0.414054
0.412588
0.411819
0.41105
0.410283
0.409518
0.408753
0.40799
0.407228
0.406469
0.405711
0.404955
0.404202
0.403452
0.402704
0.401959
0.401218
0.40048
0.399746
0.399016
0.39829
0.397569
0.396853
0.396141
0.395434
0.394733
0.394037
0.393347
0.392663
0.391984
0.391311
0.390645
0.389984
0.38933
0.388682
0.38804
0.387405
0.386776
0.386153
0.385537
0.384926
0.384322
0.383724
0.383132
0.382546
0.381965
0.38139
0.380821
0.380257
0.379698
0.379144
0.378595
0.37805
0.377509
0.376973
0.376441
0.375912
0.375386
0.374864
0.374344
0.373827
0.373312
0.372799
0.372288
0.371778
0.371269
0.370761
0.370253
0.444615
0.429353
0.414053
0.412586
0.411817
0.411049
0.410282
0.409517
0.408752
0.407989
0.407228
0.406468
0.40571
0.404955
0.404202
0.403451
0.402703
0.401959
0.401217
0.40048
0.399746
0.399016
0.39829
0.397569
0.396853
0.396141
0.395435
0.394733
0.394038
0.393347
0.392663
0.391984
0.391312
0.390645
0.389985
0.38933
0.388682
0.388041
0.387405
0.386776
0.386154
0.385537
0.384927
0.384323
0.383724
0.383132
0.382546
0.381966
0.381391
0.380821
0.380257
0.379698
0.379144
0.378595
0.37805
0.37751
0.376973
0.376441
0.375912
0.375386
0.374864
0.374344
0.373827
0.373312
0.372799
0.372288
0.371778
0.371269
0.370761
0.370253
0.444616
0.429356
0.414056
0.41259
0.411821
0.411053
0.410286
0.40952
0.408755
0.407992
0.407231
0.406471
0.405713
0.404958
0.404204
0.403454
0.402706
0.401961
0.40122
0.400482
0.399748
0.399018
0.398292
0.397571
0.396854
0.396143
0.395436
0.394735
0.394039
0.393349
0.392664
0.391985
0.391313
0.390646
0.389986
0.389331
0.388683
0.388041
0.387406
0.386777
0.386154
0.385538
0.384927
0.384323
0.383725
0.383133
0.382546
0.381966
0.381391
0.380822
0.380257
0.379698
0.379144
0.378595
0.37805
0.37751
0.376973
0.376441
0.375912
0.375386
0.374864
0.374344
0.373827
0.373312
0.372799
0.372288
0.371778
0.371269
0.370761
0.370253
0.444616
0.429356
0.41406
0.412594
0.411825
0.411057
0.41029
0.409524
0.40876
0.407996
0.407235
0.406475
0.405717
0.404962
0.404208
0.403458
0.40271
0.401965
0.401223
0.400485
0.399751
0.399021
0.398295
0.397574
0.396857
0.396145
0.395438
0.394737
0.394041
0.39335
0.392666
0.391987
0.391314
0.390647
0.389987
0.389332
0.388684
0.388042
0.387407
0.386778
0.386155
0.385538
0.384928
0.384324
0.383725
0.383133
0.382547
0.381966
0.381391
0.380822
0.380258
0.379699
0.379145
0.378595
0.37805
0.37751
0.376974
0.376441
0.375912
0.375386
0.374864
0.374344
0.373827
0.373312
0.372799
0.372288
0.371778
0.371269
0.370761
0.370253
0.444616
0.42936
0.414063
0.412597
0.411828
0.41106
0.410293
0.409527
0.408763
0.407999
0.407238
0.406478
0.40572
0.404964
0.404211
0.40346
0.402712
0.401968
0.401226
0.400488
0.399754
0.399024
0.398298
0.397576
0.396859
0.396147
0.39544
0.394739
0.394043
0.393352
0.392668
0.391989
0.391316
0.390649
0.389988
0.389334
0.388685
0.388044
0.387408
0.386779
0.386156
0.385539
0.384929
0.384324
0.383726
0.383134
0.382547
0.381967
0.381392
0.380822
0.380258
0.379699
0.379145
0.378595
0.378051
0.37751
0.376974
0.376441
0.375912
0.375387
0.374864
0.374344
0.373827
0.373312
0.372799
0.372288
0.371778
0.371269
0.370761
0.370253
0.444616
0.42936
0.414064
0.412598
0.411829
0.411061
0.410294
0.409528
0.408764
0.408001
0.407239
0.406479
0.405722
0.404966
0.404213
0.403462
0.402714
0.40197
0.401228
0.40049
0.399756
0.399026
0.3983
0.397578
0.396861
0.396149
0.395443
0.394741
0.394045
0.393354
0.392669
0.39199
0.391317
0.39065
0.38999
0.389335
0.388687
0.388045
0.387409
0.38678
0.386157
0.38554
0.384929
0.384325
0.383727
0.383134
0.382548
0.381967
0.381392
0.380823
0.380258
0.379699
0.379145
0.378596
0.378051
0.37751
0.376974
0.376441
0.375912
0.375387
0.374864
0.374344
0.373827
0.373312
0.372799
0.372288
0.371778
0.371269
0.370761
0.370253
0.444616
0.42936
0.414065
0.412599
0.41183
0.411063
0.410296
0.40953
0.408766
0.408003
0.407241
0.406482
0.405724
0.404968
0.404215
0.403465
0.402717
0.401972
0.401231
0.400493
0.399759
0.399028
0.398302
0.397581
0.396864
0.396152
0.395445
0.394743
0.394047
0.393356
0.392671
0.391992
0.391319
0.390652
0.389991
0.389336
0.388688
0.388046
0.38741
0.386781
0.386157
0.385541
0.38493
0.384325
0.383727
0.383135
0.382548
0.381968
0.381392
0.380823
0.380259
0.379699
0.379145
0.378596
0.378051
0.37751
0.376974
0.376441
0.375912
0.375387
0.374864
0.374344
0.373827
0.373312
0.372799
0.372288
0.371778
0.371269
0.370761
0.370253
0.444616
0.429362
0.414068
0.412603
0.411834
0.411066
0.410299
0.409533
0.408769
0.408006
0.407245
0.406485
0.405727
0.404972
0.404219
0.403468
0.40272
0.401975
0.401234
0.400496
0.399761
0.399031
0.398305
0.397583
0.396866
0.396154
0.395447
0.394745
0.394049
0.393358
0.392673
0.391994
0.39132
0.390653
0.389992
0.389337
0.388689
0.388047
0.387411
0.386781
0.386158
0.385541
0.38493
0.384326
0.383728
0.383135
0.382549
0.381968
0.381393
0.380823
0.380259
0.3797
0.379145
0.378596
0.378051
0.37751
0.376974
0.376441
0.375912
0.375387
0.374864
0.374344
0.373827
0.373312
0.372799
0.372288
0.371778
0.371269
0.370761
0.370253
0.444616
0.429364
0.414071
0.412606
0.411837
0.411069
0.410302
0.409536
0.408772
0.408009
0.407248
0.406488
0.40573
0.404975
0.404221
0.403471
0.402723
0.401978
0.401236
0.400498
0.399764
0.399033
0.398307
0.397585
0.396868
0.396156
0.395449
0.394747
0.39405
0.393359
0.392674
0.391995
0.391321
0.390654
0.389993
0.389338
0.38869
0.388047
0.387411
0.386782
0.386159
0.385542
0.384931
0.384326
0.383728
0.383135
0.382549
0.381968
0.381393
0.380823
0.380259
0.3797
0.379145
0.378596
0.378051
0.377511
0.376974
0.376441
0.375912
0.375387
0.374864
0.374344
0.373827
0.373312
0.372799
0.372288
0.371778
0.371269
0.370761
0.370253
0.444616
0.429365
0.414073
0.412608
0.411839
0.411071
0.410304
0.409538
0.408774
0.408011
0.40725
0.40649
0.405732
0.404977
0.404223
0.403472
0.402724
0.40198
0.401238
0.4005
0.399765
0.399035
0.398308
0.397587
0.396869
0.396157
0.39545
0.394748
0.394051
0.39336
0.392675
0.391996
0.391322
0.390655
0.389994
0.389339
0.38869
0.388048
0.387412
0.386782
0.386159
0.385542
0.384931
0.384326
0.383728
0.383135
0.382549
0.381968
0.381393
0.380823
0.380259
0.3797
0.379146
0.378596
0.378051
0.377511
0.376974
0.376441
0.375912
0.375387
0.374864
0.374344
0.373827
0.373312
0.372799
0.372288
0.371778
0.371269
0.370761
0.370253
0.444616
0.429365
0.414074
0.412609
0.41184
0.411072
0.410305
0.409539
0.408775
0.408012
0.407251
0.406491
0.405733
0.404977
0.404224
0.403473
0.402725
0.40198
0.401239
0.4005
0.399766
0.399035
0.398309
0.397587
0.39687
0.396158
0.39545
0.394748
0.394052
0.393361
0.392675
0.391996
0.391322
0.390655
0.389994
0.389339
0.38869
0.388048
0.387412
0.386782
0.386159
0.385542
0.384931
0.384327
0.383728
0.383136
0.382549
0.381968
0.381393
0.380823
0.380259
0.3797
0.379146
0.378596
0.378051
0.377511
0.376974
0.376441
0.375912
0.375387
0.374864
0.374344
0.373827
0.373312
0.372799
0.372288
0.371778
0.371269
0.370761
0.370253
0.444616
0.429366
0.414075
0.412609
0.41184
0.411072
0.410306
0.40954
0.408776
0.408013
0.407251
0.406491
0.405734
0.404978
0.404225
0.403474
0.402726
0.401981
0.401239
0.400501
0.399766
0.399036
0.398309
0.397588
0.39687
0.396158
0.395451
0.394748
0.394052
0.393361
0.392675
0.391996
0.391323
0.390655
0.389994
0.389339
0.38869
0.388048
0.387412
0.386782
0.386159
0.385542
0.384931
0.384327
0.383728
0.383136
0.382549
0.381968
0.381393
0.380823
0.380259
0.3797
0.379146
0.378596
0.378051
0.377511
0.376974
0.376441
0.375912
0.375387
0.374864
0.374344
0.373827
0.373312
0.372799
0.372288
0.371778
0.371269
0.370761
0.370253
0.444616
0.429366
0.414075
0.412609
0.41184
0.411072
0.410306
0.40954
0.408776
0.408013
0.407251
0.406492
0.405734
0.404978
0.404225
0.403474
0.402726
0.401981
0.401239
0.400501
0.399766
0.399036
0.39831
0.397588
0.39687
0.396158
0.395451
0.394749
0.394052
0.393361
0.392676
0.391996
0.391323
0.390655
0.389994
0.389339
0.38869
0.388048
0.387412
0.386782
0.386159
0.385542
0.384931
0.384327
0.383728
0.383136
0.382549
0.381968
0.381393
0.380823
0.380259
0.3797
0.379146
0.378596
0.378051
0.377511
0.376974
0.376441
0.375912
0.375387
0.374864
0.374344
0.373827
0.373312
0.372799
0.372288
0.371778
0.371269
0.370761
0.370253
0.444616
0.429366
0.414075
0.412609
0.41184
0.411073
0.410306
0.40954
0.408776
0.408013
0.407251
0.406492
0.405734
0.404978
0.404225
0.403474
0.402726
0.401981
0.401239
0.400501
0.399766
0.399036
0.39831
0.397588
0.39687
0.396158
0.395451
0.394749
0.394052
0.393361
0.392676
0.391996
0.391323
0.390655
0.389994
0.389339
0.38869
0.388048
0.387412
0.386782
0.386159
0.385542
0.384931
0.384327
0.383728
0.383136
0.382549
0.381968
0.381393
0.380823
0.380259
0.3797
0.379146
0.378596
0.378051
0.377511
0.376974
0.376441
0.375912
0.375387
0.374864
0.374344
0.373827
0.373312
0.372799
0.372288
0.371778
0.371269
0.370761
0.370253
0.444616
0.429366
0.414075
0.412609
0.41184
0.411073
0.410306
0.40954
0.408776
0.408013
0.407251
0.406492
0.405734
0.404978
0.404225
0.403474
0.402726
0.401981
0.401239
0.400501
0.399766
0.399036
0.39831
0.397588
0.39687
0.396158
0.395451
0.394749
0.394052
0.393361
0.392676
0.391996
0.391323
0.390655
0.389994
0.389339
0.38869
0.388048
0.387412
0.386782
0.386159
0.385542
0.384931
0.384327
0.383728
0.383136
0.382549
0.381968
0.381393
0.380823
0.380259
0.3797
0.379146
0.378596
0.378051
0.377511
0.376974
0.376441
0.375912
0.375387
0.374864
0.374344
0.373827
0.373312
0.372799
0.372288
0.371778
0.371269
0.370761
0.370253
0.444616
0.429366
0.414075
0.412609
0.41184
0.411073
0.410306
0.40954
0.408776
0.408013
0.407251
0.406492
0.405734
0.404978
0.404225
0.403474
0.402726
0.401981
0.401239
0.400501
0.399766
0.399036
0.39831
0.397588
0.39687
0.396158
0.395451
0.394749
0.394052
0.393361
0.392676
0.391996
0.391323
0.390655
0.389994
0.389339
0.38869
0.388048
0.387412
0.386782
0.386159
0.385542
0.384931
0.384327
0.383728
0.383136
0.382549
0.381968
0.381393
0.380823
0.380259
0.3797
0.379146
0.378596
0.378051
0.377511
0.376974
0.376441
0.375912
0.375387
0.374864
0.374344
0.373827
0.373312
0.372799
0.372288
0.371778
0.371269
0.370761
0.370253
0.444616
0.429366
0.414075
0.412609
0.41184
0.411073
0.410306
0.40954
0.408776
0.408013
0.407251
0.406492
0.405734
0.404978
0.404225
0.403474
0.402726
0.401981
0.401239
0.400501
0.399766
0.399036
0.39831
0.397588
0.39687
0.396158
0.395451
0.394749
0.394052
0.393361
0.392676
0.391996
0.391323
0.390655
0.389994
0.389339
0.38869
0.388048
0.387412
0.386782
0.386159
0.385542
0.384931
0.384327
0.383728
0.383136
0.382549
0.381968
0.381393
0.380823
0.380259
0.3797
0.379146
0.378596
0.378051
0.377511
0.376974
0.376441
0.375912
0.375387
0.374864
0.374344
0.373827
0.373312
0.372799
0.372288
0.371778
0.371269
0.370761
0.370253
0.444616
0.429366
0.414075
0.412609
0.41184
0.411073
0.410306
0.40954
0.408776
0.408013
0.407251
0.406492
0.405734
0.404978
0.404225
0.403474
0.402726
0.401981
0.401239
0.400501
0.399766
0.399036
0.39831
0.397588
0.39687
0.396158
0.395451
0.394749
0.394052
0.393361
0.392676
0.391996
0.391323
0.390655
0.389994
0.389339
0.38869
0.388048
0.387412
0.386782
0.386159
0.385542
0.384931
0.384327
0.383728
0.383136
0.382549
0.381968
0.381393
0.380823
0.380259
0.3797
0.379146
0.378596
0.378051
0.377511
0.376974
0.376441
0.375912
0.375387
0.374864
0.374344
0.373827
0.373312
0.372799
0.372288
0.371778
0.371269
0.370761
0.370253
0.444616
0.429366
0.414075
0.412609
0.41184
0.411073
0.410306
0.40954
0.408776
0.408013
0.407251
0.406492
0.405734
0.404978
0.404225
0.403474
0.402726
0.401981
0.401239
0.400501
0.399766
0.399036
0.39831
0.397588
0.39687
0.396158
0.395451
0.394749
0.394052
0.393361
0.392676
0.391996
0.391323
0.390655
0.389994
0.389339
0.38869
0.388048
0.387412
0.386782
0.386159
0.385542
0.384931
0.384327
0.383728
0.383136
0.382549
0.381968
0.381393
0.380823
0.380259
0.3797
0.379146
0.378596
0.378051
0.377511
0.376974
0.376441
0.375912
0.375387
0.374864
0.374344
0.373827
0.373312
0.372799
0.372288
0.371778
0.371269
0.370761
0.370253
0.444616
0.429366
0.414075
0.412609
0.41184
0.411073
0.410306
0.40954
0.408776
0.408013
0.407251
0.406492
0.405734
0.404978
0.404225
0.403474
0.402726
0.401981
0.401239
0.400501
0.399766
0.399036
0.39831
0.397588
0.39687
0.396158
0.395451
0.394749
0.394052
0.393361
0.392676
0.391996
0.391323
0.390655
0.389994
0.389339
0.38869
0.388048
0.387412
0.386782
0.386159
0.385542
0.384931
0.384327
0.383728
0.383136
0.382549
0.381968
0.381393
0.380823
0.380259
0.3797
0.379146
0.378596
0.378051
0.377511
0.376974
0.376441
0.375912
0.375387
0.374864
0.374344
0.373827
0.373312
0.372799
0.372288
0.371778
0.371269
0.370761
0.370253
0.444616
0.429366
0.414075
0.412609
0.41184
0.411073
0.410306
0.40954
0.408776
0.408013
0.407251
0.406492
0.405734
0.404978
0.404225
0.403474
0.402726
0.401981
0.401239
0.400501
0.399766
0.399036
0.39831
0.397588
0.39687
0.396158
0.395451
0.394749
0.394052
0.393361
0.392676
0.391996
0.391323
0.390655
0.389994
0.389339
0.38869
0.388048
0.387412
0.386782
0.386159
0.385542
0.384931
0.384327
0.383728
0.383136
0.382549
0.381968
0.381393
0.380823
0.380259
0.3797
0.379146
0.378596
0.378051
0.377511
0.376974
0.376441
0.375912
0.375387
0.374864
0.374344
0.373827
0.373312
0.372799
0.372288
0.371778
0.371269
0.370761
0.370253
0.444616
0.429366
0.414075
0.412609
0.41184
0.411073
0.410306
0.40954
0.408776
0.408013
0.407251
0.406492
0.405734
0.404978
0.404225
0.403474
0.402726
0.401981
0.401239
0.400501
0.399766
0.399036
0.39831
0.397588
0.39687
0.396158
0.395451
0.394749
0.394052
0.393361
0.392676
0.391996
0.391323
0.390655
0.389994
0.389339
0.38869
0.388048
0.387412
0.386782
0.386159
0.385542
0.384931
0.384327
0.383728
0.383136
0.382549
0.381968
0.381393
0.380823
0.380259
0.3797
0.379146
0.378596
0.378051
0.377511
0.376974
0.376441
0.375912
0.375387
0.374864
0.374344
0.373827
0.373312
0.372799
0.372288
0.371778
0.371269
0.370761
0.370253
0.444616
0.429366
0.414075
0.412609
0.41184
0.411073
0.410306
0.40954
0.408776
0.408013
0.407251
0.406492
0.405734
0.404978
0.404225
0.403474
0.402726
0.401981
0.401239
0.400501
0.399766
0.399036
0.39831
0.397588
0.39687
0.396158
0.395451
0.394749
0.394052
0.393361
0.392676
0.391996
0.391323
0.390655
0.389994
0.389339
0.38869
0.388048
0.387412
0.386782
0.386159
0.385542
0.384931
0.384327
0.383728
0.383136
0.382549
0.381968
0.381393
0.380823
0.380259
0.3797
0.379146
0.378596
0.378051
0.377511
0.376974
0.376441
0.375912
0.375387
0.374864
0.374344
0.373827
0.373312
0.372799
0.372288
0.371778
0.371269
0.370761
0.370253
0.444616
0.429366
0.414075
0.412609
0.41184
0.411073
0.410306
0.40954
0.408776
0.408013
0.407251
0.406492
0.405734
0.404978
0.404225
0.403474
0.402726
0.401981
0.401239
0.400501
0.399766
0.399036
0.39831
0.397588
0.39687
0.396158
0.395451
0.394749
0.394052
0.393361
0.392676
0.391996
0.391323
0.390655
0.389994
0.389339
0.38869
0.388048
0.387412
0.386782
0.386159
0.385542
0.384931
0.384327
0.383728
0.383136
0.382549
0.381968
0.381393
0.380823
0.380259
0.3797
0.379146
0.378596
0.378051
0.377511
0.376974
0.376441
0.375912
0.375387
0.374864
0.374344
0.373827
0.373312
0.372799
0.372288
0.371778
0.371269
0.370761
0.370253
0.444616
0.429366
0.414075
0.412609
0.41184
0.411073
0.410306
0.40954
0.408776
0.408013
0.407251
0.406492
0.405734
0.404978
0.404225
0.403474
0.402726
0.401981
0.401239
0.400501
0.399766
0.399036
0.39831
0.397588
0.39687
0.396158
0.395451
0.394749
0.394052
0.393361
0.392676
0.391996
0.391323
0.390655
0.389994
0.389339
0.38869
0.388048
0.387412
0.386782
0.386159
0.385542
0.384931
0.384327
0.383728
0.383136
0.382549
0.381968
0.381393
0.380823
0.380259
0.3797
0.379146
0.378596
0.378051
0.377511
0.376974
0.376441
0.375912
0.375387
0.374864
0.374344
0.373827
0.373312
0.372799
0.372288
0.371778
0.371269
0.370761
0.370253
0.444616
0.429366
0.414075
0.412609
0.41184
0.411073
0.410306
0.40954