/*--------------------------------*- C++ -*----------------------------------*\
  =========                 |
  \\      /  F ield         | OpenFOAM: The Open Source CFD Toolbox
   \\    /   O peration     | Website:  https://openfoam.org
    \\  /    A nd           | Version:  13
     \\/     M anipulation  |
\*---------------------------------------------------------------------------*/
FoamFile
{
    format      ascii;
    class       volScalarField;
    location    "17";
    object      k;
}
// * * * * * * * * * * * * * * * * * * * * * * * * * * * * * * * * * * * * * //

dimensions      [0 2 -2 0 0 0 0];

internalField   nonuniform List<scalar> 
78750
(
1.66224e-12
4.74643e-11
2.15877e-10
3.93001e-10
5.81853e-10
7.84554e-10
1.00166e-09
1.2318e-09
1.4717e-09
1.71628e-09
1.95904e-09
2.19249e-09
2.40861e-09
2.59941e-09
2.75744e-09
2.87629e-09
2.95101e-09
2.97842e-09
2.95734e-09
2.88866e-09
2.77529e-09
2.62194e-09
2.43484e-09
2.22131e-09
1.98927e-09
1.74675e-09
1.50132e-09
1.2596e-09
1.02682e-09
8.06437e-10
5.9994e-10
4.06793e-10
2.24634e-10
4.974e-11
1.74837e-12
3.65292e-11
1.05951e-09
5.30571e-09
9.73428e-09
1.44566e-08
1.95433e-08
2.50159e-08
3.08423e-08
3.69379e-08
4.31715e-08
4.93737e-08
5.5349e-08
6.08881e-08
6.57822e-08
6.98362e-08
7.28822e-08
7.47905e-08
7.54785e-08
7.49159e-08
7.31271e-08
7.01891e-08
6.62267e-08
6.1404e-08
5.59134e-08
4.99626e-08
4.37609e-08
3.75053e-08
3.13677e-08
2.54829e-08
1.9939e-08
1.47714e-08
9.96098e-09
5.43736e-09
1.08736e-09
3.75084e-11
1.0779e-10
3.12717e-09
1.56967e-08
2.90014e-08
4.35189e-08
5.95801e-08
7.73335e-08
9.67232e-08
1.17484e-07
1.39152e-07
1.611e-07
1.82576e-07
2.0275e-07
2.20768e-07
2.35813e-07
2.47172e-07
2.54291e-07
2.56818e-07
2.54626e-07
2.47825e-07
2.36752e-07
2.21947e-07
2.04113e-07
1.84059e-07
1.62637e-07
1.40679e-07
1.1894e-07
9.80572e-08
7.85035e-08
6.05564e-08
4.42828e-08
2.95418e-08
1.60052e-08
3.19171e-09
1.10052e-10
2.12997e-10
6.18201e-09
3.10653e-08
5.75727e-08
8.67861e-08
1.19476e-07
1.56027e-07
1.96381e-07
2.40022e-07
2.85991e-07
3.32958e-07
3.79306e-07
4.23177e-07
4.626e-07
4.95664e-07
5.20691e-07
5.36376e-07
5.41884e-07
5.36924e-07
5.2176e-07
4.972e-07
4.64528e-07
4.25405e-07
3.8173e-07
3.35471e-07
2.88487e-07
2.42405e-07
1.98565e-07
1.5794e-07
1.21068e-07
8.80249e-08
5.84433e-08
3.15588e-08
6.28482e-09
2.16593e-10
3.25972e-10
9.46565e-09
4.75913e-08
8.82973e-08
1.33321e-07
1.83903e-07
2.40665e-07
3.03523e-07
3.71658e-07
4.43545e-07
5.17086e-07
5.89735e-07
6.58549e-07
7.20392e-07
7.72239e-07
8.11451e-07
8.35983e-07
8.4454e-07
8.36669e-07
8.1279e-07
7.74167e-07
7.22815e-07
6.61354e-07
5.92793e-07
5.20265e-07
4.46715e-07
3.74697e-07
3.06319e-07
2.43122e-07
1.8595e-07
1.34913e-07
8.94128e-08
4.82211e-08
9.59669e-09
3.30552e-10
4.22967e-10
1.22882e-08
6.18025e-08
1.14711e-07
1.73312e-07
2.39239e-07
3.13299e-07
3.95359e-07
4.84305e-07
5.78095e-07
6.7396e-07
7.68567e-07
8.58076e-07
9.38411e-07
1.00567e-06
1.05646e-06
1.08819e-06
1.09921e-06
1.08895e-06
1.05794e-06
1.0078e-06
9.41093e-07
8.61186e-07
7.71964e-07
6.77499e-07
5.81636e-07
4.87712e-07
3.98505e-07
3.16071e-07
2.41552e-07
1.7511e-07
1.15969e-07
6.25105e-08
1.24355e-08
4.28114e-10
4.92859e-10
1.43249e-08
7.20632e-08
1.33778e-07
2.02173e-07
2.79157e-07
3.65661e-07
4.61504e-07
5.65336e-07
6.74732e-07
7.86429e-07
8.96538e-07
1.00059e-06
1.09387e-06
1.17187e-06
1.23072e-06
1.26744e-06
1.28015e-06
1.26822e-06
1.23225e-06
1.17409e-06
1.09666e-06
1.00383e-06
9.00078e-07
7.90123e-07
6.78434e-07
5.68907e-07
4.64808e-07
3.68579e-07
2.81593e-07
2.04067e-07
1.35101e-07
7.28062e-08
1.44794e-08
4.98257e-10
5.36254e-10
1.55914e-08
7.84496e-08
1.45645e-07
2.20132e-07
3.03991e-07
3.98227e-07
5.02617e-07
6.15665e-07
7.34694e-07
8.56139e-07
9.75763e-07
1.08872e-06
1.1899e-06
1.27446e-06
1.3382e-06
1.37794e-06
1.39169e-06
1.37874e-06
1.33975e-06
1.27669e-06
1.19272e-06
1.09199e-06
9.79345e-07
8.59879e-07
7.38447e-07
6.19289e-07
5.05976e-07
4.01195e-07
3.06472e-07
2.2206e-07
1.4699e-07
7.92034e-08
1.57482e-08
5.4173e-10
5.59904e-10
1.62829e-08
8.19398e-08
1.52131e-07
2.29948e-07
3.17563e-07
4.16021e-07
5.25077e-07
6.43148e-07
7.67422e-07
8.94165e-07
1.01895e-06
1.13674e-06
1.2422e-06
1.33029e-06
1.39668e-06
1.43805e-06
1.45235e-06
1.43885e-06
1.39823e-06
1.33252e-06
1.24502e-06
1.14001e-06
1.02254e-06
8.9791e-07
7.71182e-07
6.46781e-07
5.28445e-07
4.19e-07
3.20053e-07
2.31882e-07
1.53479e-07
8.26948e-08
1.64399e-08
5.6539e-10
5.71388e-10
1.66193e-08
8.36395e-08
1.5529e-07
2.34729e-07
3.24175e-07
4.24689e-07
5.36017e-07
6.56535e-07
7.83361e-07
9.1268e-07
1.03998e-06
1.1601e-06
1.26764e-06
1.35745e-06
1.42512e-06
1.46729e-06
1.48185e-06
1.46808e-06
1.42666e-06
1.35968e-06
1.27045e-06
1.16337e-06
1.04356e-06
9.1642e-07
7.87116e-07
6.60164e-07
5.39384e-07
4.27667e-07
3.26663e-07
2.36662e-07
1.56636e-07
8.43933e-08
1.6776e-08
5.76865e-10
5.76416e-10
1.67669e-08
8.43862e-08
1.56678e-07
2.3683e-07
3.27081e-07
4.285e-07
5.40828e-07
6.62421e-07
7.90369e-07
9.20821e-07
1.04922e-06
1.17038e-06
1.27883e-06
1.36939e-06
1.43762e-06
1.48014e-06
1.49482e-06
1.48093e-06
1.43917e-06
1.37162e-06
1.28164e-06
1.17364e-06
1.0528e-06
9.24557e-07
7.9412e-07
6.66046e-07
5.44191e-07
4.31475e-07
3.29567e-07
2.38761e-07
1.58023e-07
8.51389e-08
1.69234e-08
5.81886e-10
5.78423e-10
1.68259e-08
8.46851e-08
1.57233e-07
2.37671e-07
3.28245e-07
4.30026e-07
5.42755e-07
6.6478e-07
7.93179e-07
9.24086e-07
1.05293e-06
1.1745e-06
1.28332e-06
1.37418e-06
1.44264e-06
1.4853e-06
1.50002e-06
1.48609e-06
1.44418e-06
1.37641e-06
1.28612e-06
1.17776e-06
1.0565e-06
9.27819e-07
7.96928e-07
6.68404e-07
5.46117e-07
4.33e-07
3.3073e-07
2.39601e-07
1.58578e-07
8.54373e-08
1.69823e-08
5.83889e-10
5.79159e-10
1.68475e-08
8.47951e-08
1.57438e-07
2.37981e-07
3.28673e-07
4.30589e-07
5.43465e-07
6.65649e-07
7.94214e-07
9.25289e-07
1.0543e-06
1.17602e-06
1.28497e-06
1.37595e-06
1.44449e-06
1.4872e-06
1.50194e-06
1.48799e-06
1.44603e-06
1.37817e-06
1.28778e-06
1.17928e-06
1.05787e-06
9.29021e-07
7.97962e-07
6.69272e-07
5.46826e-07
4.33562e-07
3.31158e-07
2.39911e-07
1.58782e-07
8.5547e-08
1.70039e-08
5.84623e-10
5.79408e-10
1.68549e-08
8.48325e-08
1.57508e-07
2.38086e-07
3.28819e-07
4.3078e-07
5.43707e-07
6.65945e-07
7.94567e-07
9.25699e-07
1.05476e-06
1.17654e-06
1.28553e-06
1.37655e-06
1.44512e-06
1.48785e-06
1.5026e-06
1.48864e-06
1.44666e-06
1.37877e-06
1.28834e-06
1.1798e-06
1.05833e-06
9.29431e-07
7.98315e-07
6.69568e-07
5.47068e-07
4.33753e-07
3.31304e-07
2.40016e-07
1.58851e-07
8.55843e-08
1.70112e-08
5.84872e-10
5.79487e-10
1.68572e-08
8.48443e-08
1.5753e-07
2.3812e-07
3.28865e-07
4.30841e-07
5.43784e-07
6.66039e-07
7.94679e-07
9.25829e-07
1.05491e-06
1.1767e-06
1.28571e-06
1.37674e-06
1.44532e-06
1.48805e-06
1.5028e-06
1.48884e-06
1.44686e-06
1.37897e-06
1.28852e-06
1.17996e-06
1.05848e-06
9.29562e-07
7.98427e-07
6.69662e-07
5.47145e-07
4.33814e-07
3.3135e-07
2.40049e-07
1.58873e-07
8.55961e-08
1.70136e-08
5.8495e-10
5.7951e-10
1.68579e-08
8.48478e-08
1.57536e-07
2.3813e-07
3.28879e-07
4.30859e-07
5.43807e-07
6.66067e-07
7.94713e-07
9.25868e-07
1.05495e-06
1.17675e-06
1.28577e-06
1.3768e-06
1.44538e-06
1.48811e-06
1.50287e-06
1.4889e-06
1.44692e-06
1.37902e-06
1.28857e-06
1.18001e-06
1.05853e-06
9.296e-07
7.9846e-07
6.6969e-07
5.47167e-07
4.33832e-07
3.31363e-07
2.40059e-07
1.5888e-07
8.55996e-08
1.70143e-08
5.84973e-10
5.79517e-10
1.68581e-08
8.48488e-08
1.57538e-07
2.38133e-07
3.28883e-07
4.30864e-07
5.43813e-07
6.66075e-07
7.94722e-07
9.25879e-07
1.05497e-06
1.17677e-06
1.28578e-06
1.37681e-06
1.4454e-06
1.48813e-06
1.50288e-06
1.48892e-06
1.44694e-06
1.37904e-06
1.28859e-06
1.18003e-06
1.05854e-06
9.29611e-07
7.98469e-07
6.69698e-07
5.47174e-07
4.33837e-07
3.31367e-07
2.40062e-07
1.58882e-07
8.56006e-08
1.70145e-08
5.8498e-10
5.79518e-10
1.68582e-08
8.48491e-08
1.57538e-07
2.38133e-07
3.28884e-07
4.30865e-07
5.43815e-07
6.66077e-07
7.94724e-07
9.25882e-07
1.05497e-06
1.17677e-06
1.28579e-06
1.37682e-06
1.4454e-06
1.48814e-06
1.50289e-06
1.48892e-06
1.44694e-06
1.37904e-06
1.28859e-06
1.18003e-06
1.05854e-06
9.29614e-07
7.98472e-07
6.697e-07
5.47175e-07
4.33838e-07
3.31368e-07
2.40063e-07
1.58882e-07
8.56009e-08
1.70145e-08
5.84982e-10
5.79519e-10
1.68582e-08
8.48491e-08
1.57539e-07
2.38133e-07
3.28884e-07
4.30865e-07
5.43815e-07
6.66078e-07
7.94725e-07
9.25882e-07
1.05497e-06
1.17677e-06
1.28579e-06
1.37682e-06
1.4454e-06
1.48814e-06
1.50289e-06
1.48893e-06
1.44695e-06
1.37904e-06
1.28859e-06
1.18003e-06
1.05854e-06
9.29615e-07
7.98473e-07
6.697e-07
5.47176e-07
4.33838e-07
3.31369e-07
2.40063e-07
1.58882e-07
8.56009e-08
1.70145e-08
5.84982e-10
5.79519e-10
1.68582e-08
8.48491e-08
1.57539e-07
2.38133e-07
3.28884e-07
4.30866e-07
5.43815e-07
6.66078e-07
7.94725e-07
9.25883e-07
1.05497e-06
1.17677e-06
1.28579e-06
1.37682e-06
1.4454e-06
1.48814e-06
1.50289e-06
1.48893e-06
1.44695e-06
1.37904e-06
1.28859e-06
1.18003e-06
1.05854e-06
9.29615e-07
7.98473e-07
6.697e-07
5.47176e-07
4.33839e-07
3.31369e-07
2.40063e-07
1.58882e-07
8.56009e-08
1.70145e-08
5.84982e-10
5.79519e-10
1.68582e-08
8.48491e-08
1.57539e-07
2.38133e-07
3.28884e-07
4.30866e-07
5.43815e-07
6.66078e-07
7.94725e-07
9.25883e-07
1.05497e-06
1.17677e-06
1.28579e-06
1.37682e-06
1.4454e-06
1.48814e-06
1.50289e-06
1.48893e-06
1.44695e-06
1.37904e-06
1.28859e-06
1.18003e-06
1.05854e-06
9.29615e-07
7.98473e-07
6.697e-07
5.47176e-07
4.33839e-07
3.31369e-07
2.40063e-07
1.58882e-07
8.56009e-08
1.70145e-08
5.84982e-10
5.79519e-10
1.68582e-08
8.48491e-08
1.57539e-07
2.38133e-07
3.28884e-07
4.30866e-07
5.43815e-07
6.66078e-07
7.94725e-07
9.25883e-07
1.05497e-06
1.17677e-06
1.28579e-06
1.37682e-06
1.4454e-06
1.48814e-06
1.50289e-06
1.48893e-06
1.44695e-06
1.37904e-06
1.28859e-06
1.18003e-06
1.05854e-06
9.29615e-07
7.98473e-07
6.697e-07
5.47176e-07
4.33839e-07
3.31369e-07
2.40063e-07
1.58882e-07
8.5601e-08
1.70145e-08
5.84982e-10
5.79519e-10
1.68582e-08
8.48491e-08
1.57539e-07
2.38133e-07
3.28884e-07
4.30866e-07
5.43815e-07
6.66078e-07
7.94725e-07
9.25883e-07
1.05497e-06
1.17677e-06
1.28579e-06
1.37682e-06
1.4454e-06
1.48814e-06
1.50289e-06
1.48893e-06
1.44695e-06
1.37904e-06
1.28859e-06
1.18003e-06
1.05854e-06
9.29615e-07
7.98473e-07
6.697e-07
5.47176e-07
4.33839e-07
3.31369e-07
2.40063e-07
1.58882e-07
8.5601e-08
1.70145e-08
5.84982e-10
5.79519e-10
1.68582e-08
8.48491e-08
1.57539e-07
2.38133e-07
3.28884e-07
4.30866e-07
5.43815e-07
6.66078e-07
7.94725e-07
9.25883e-07
1.05497e-06
1.17677e-06
1.28579e-06
1.37682e-06
1.4454e-06
1.48814e-06
1.50289e-06
1.48893e-06
1.44695e-06
1.37904e-06
1.28859e-06
1.18003e-06
1.05854e-06
9.29615e-07
7.98473e-07
6.697e-07
5.47176e-07
4.33839e-07
3.31369e-07
2.40063e-07
1.58882e-07
8.5601e-08
1.70145e-08
5.84982e-10
5.79519e-10
1.68582e-08
8.48491e-08
1.57539e-07
2.38133e-07
3.28884e-07
4.30866e-07
5.43815e-07
6.66078e-07
7.94725e-07
9.25883e-07
1.05497e-06
1.17677e-06
1.28579e-06
1.37682e-06
1.4454e-06
1.48814e-06
1.50289e-06
1.48893e-06
1.44695e-06
1.37904e-06
1.28859e-06
1.18003e-06
1.05854e-06
9.29615e-07
7.98473e-07
6.697e-07
5.47176e-07
4.33839e-07
3.31369e-07
2.40063e-07
1.58882e-07
8.5601e-08
1.70145e-08
5.84982e-10
5.79519e-10
1.68582e-08
8.48491e-08
1.57539e-07
2.38133e-07
3.28884e-07
4.30866e-07
5.43815e-07
6.66078e-07
7.94725e-07
9.25883e-07
1.05497e-06
1.17677e-06
1.28579e-06
1.37682e-06
1.4454e-06
1.48814e-06
1.50289e-06
1.48893e-06
1.44695e-06
1.37904e-06
1.28859e-06
1.18003e-06
1.05854e-06
9.29615e-07
7.98473e-07
6.697e-07
5.47176e-07
4.33839e-07
3.31369e-07
2.40063e-07
1.58882e-07
8.5601e-08
1.70145e-08
5.84982e-10
5.79519e-10
1.68582e-08
8.48491e-08
1.57539e-07
2.38133e-07
3.28884e-07
4.30866e-07
5.43815e-07
6.66078e-07
7.94725e-07
9.25883e-07
1.05497e-06
1.17677e-06
1.28579e-06
1.37682e-06
1.4454e-06
1.48814e-06
1.50289e-06
1.48893e-06
1.44695e-06
1.37904e-06
1.28859e-06
1.18003e-06
1.05854e-06
9.29615e-07
7.98473e-07
6.697e-07
5.47176e-07
4.33839e-07
3.31369e-07
2.40063e-07
1.58882e-07
8.5601e-08
1.70145e-08
5.84982e-10
5.79519e-10
1.68582e-08
8.48491e-08
1.57539e-07
2.38133e-07
3.28884e-07
4.30866e-07
5.43815e-07
6.66078e-07
7.94725e-07
9.25883e-07
1.05497e-06
1.17677e-06
1.28579e-06
1.37682e-06
1.4454e-06
1.48814e-06
1.50289e-06
1.48893e-06
1.44695e-06
1.37904e-06
1.28859e-06
1.18003e-06
1.05854e-06
9.29615e-07
7.98473e-07
6.697e-07
5.47176e-07
4.33839e-07
3.31369e-07
2.40063e-07
1.58882e-07
8.5601e-08
1.70145e-08
5.84982e-10
5.79519e-10
1.68582e-08
8.48491e-08
1.57539e-07
2.38133e-07
3.28884e-07
4.30866e-07
5.43815e-07
6.66078e-07
7.94725e-07
9.25883e-07
1.05497e-06
1.17677e-06
1.28579e-06
1.37682e-06
1.4454e-06
1.48814e-06
1.50289e-06
1.48893e-06
1.44695e-06
1.37904e-06
1.28859e-06
1.18003e-06
1.05854e-06
9.29615e-07
7.98473e-07
6.697e-07
5.47176e-07
4.33839e-07
3.31369e-07
2.40063e-07
1.58882e-07
8.5601e-08
1.70145e-08
5.84982e-10
5.79519e-10
1.68582e-08
8.48491e-08
1.57539e-07
2.38133e-07
3.28884e-07
4.30866e-07
5.43815e-07
6.66078e-07
7.94725e-07
9.25883e-07
1.05497e-06
1.17677e-06
1.28579e-06
1.37682e-06
1.4454e-06
1.48814e-06
1.50289e-06
1.48893e-06
1.44695e-06
1.37904e-06
1.28859e-06
1.18003e-06
1.05854e-06
9.29615e-07
7.98473e-07
6.697e-07
5.47176e-07
4.33839e-07
3.31369e-07
2.40063e-07
1.58882e-07
8.5601e-08
1.70145e-08
5.84982e-10
5.79519e-10
1.68582e-08
8.48491e-08
1.57539e-07
2.38133e-07
3.28884e-07
4.30866e-07
5.43815e-07
6.66078e-07
7.94725e-07
9.25883e-07
1.05497e-06
1.17677e-06
1.28579e-06
1.37682e-06
1.4454e-06
1.48814e-06
1.50289e-06
1.48893e-06
1.44695e-06
1.37904e-06
1.28859e-06
1.18003e-06
1.05854e-06
9.29615e-07
7.98473e-07
6.697e-07
5.47176e-07
4.33839e-07
3.31369e-07
2.40063e-07
1.58882e-07
8.5601e-08
1.70145e-08
5.84982e-10
5.79519e-10
1.68582e-08
8.48491e-08
1.57539e-07
2.38133e-07
3.28884e-07
4.30866e-07
5.43815e-07
6.66078e-07
7.94725e-07
9.25883e-07
1.05497e-06
1.17677e-06
1.28579e-06
1.37682e-06
1.4454e-06
1.48814e-06
1.50289e-06
1.48893e-06
1.44695e-06
1.37904e-06
1.28859e-06
1.18003e-06
1.05854e-06
9.29615e-07
7.98473e-07
6.697e-07
5.47176e-07
4.33839e-07
3.31369e-07
2.40063e-07
1.58882e-07
8.5601e-08
1.70145e-08
5.84982e-10
5.79519e-10
1.68582e-08
8.48491e-08
1.57539e-07
2.38133e-07
3.28884e-07
4.30866e-07
5.43815e-07
6.66078e-07
7.94725e-07
9.25883e-07
1.05497e-06
1.17677e-06
1.28579e-06
1.37682e-06
1.4454e-06
1.48814e-06
1.50289e-06
1.48893e-06
1.44695e-06
1.37904e-06
1.28859e-06
1.18003e-06
1.05854e-06
9.29615e-07
7.98473e-07
6.697e-07
5.47176e-07
4.33839e-07
3.31369e-07
2.40063e-07
1.58882e-07
8.5601e-08
1.70145e-08
5.84982e-10
5.79519e-10
1.68582e-08
8.48491e-08
1.57539e-07
2.38133e-07
3.28884e-07
4.30866e-07
5.43815e-07
6.66078e-07
7.94725e-07
9.25883e-07
1.05497e-06
1.17677e-06
1.28579e-06
1.37682e-06
1.4454e-06
1.48814e-06
1.50289e-06
1.48893e-06
1.44695e-06
1.37904e-06
1.28859e-06
1.18003e-06
1.05854e-06
9.29615e-07
7.98473e-07
6.697e-07
5.47176e-07
4.33839e-07
3.31369e-07
2.40063e-07
1.58882e-07
8.5601e-08
1.70145e-08
5.84982e-10
5.79519e-10
1.68582e-08
8.48491e-08
1.57539e-07
2.38133e-07
3.28884e-07
4.30866e-07
5.43815e-07
6.66078e-07
7.94725e-07
9.25883e-07
1.05497e-06
1.17677e-06
1.28579e-06
1.37682e-06
1.4454e-06
1.48814e-06
1.50289e-06
1.48893e-06
1.44695e-06
1.37904e-06
1.28859e-06
1.18003e-06
1.05854e-06
9.29615e-07
7.98473e-07
6.697e-07
5.47176e-07
4.33839e-07
3.31369e-07
2.40063e-07
1.58882e-07
8.5601e-08
1.70145e-08
5.84982e-10
5.79519e-10
1.68582e-08
8.48491e-08
1.57539e-07
2.38133e-07
3.28884e-07
4.30866e-07
5.43815e-07
6.66078e-07
7.94725e-07
9.25883e-07
1.05497e-06
1.17677e-06
1.28579e-06
1.37682e-06
1.4454e-06
1.48814e-06
1.50289e-06
1.48893e-06
1.44695e-06
1.37904e-06
1.28859e-06
1.18003e-06
1.05854e-06
9.29615e-07
7.98473e-07
6.697e-07
5.47176e-07
4.33839e-07
3.31369e-07
2.40063e-07
1.58882e-07
8.5601e-08
1.70145e-08
5.84982e-10
5.79519e-10
1.68582e-08
8.48491e-08
1.57539e-07
2.38133e-07
3.28884e-07
4.30866e-07
5.43815e-07
6.66078e-07
7.94725e-07
9.25883e-07
1.05497e-06
1.17677e-06
1.28579e-06
1.37682e-06
1.4454e-06
1.48814e-06
1.50289e-06
1.48893e-06
1.44695e-06
1.37904e-06
1.28859e-06
1.18003e-06
1.05854e-06
9.29615e-07
7.98473e-07
6.697e-07
5.47176e-07
4.33839e-07
3.31369e-07
2.40063e-07
1.58882e-07
8.5601e-08
1.70145e-08
5.84982e-10
5.79519e-10
1.68582e-08
8.48491e-08
1.57539e-07
2.38133e-07
3.28884e-07
4.30866e-07
5.43815e-07
6.66078e-07
7.94725e-07
9.25883e-07
1.05497e-06
1.17677e-06
1.28579e-06
1.37682e-06
1.4454e-06
1.48814e-06
1.50289e-06
1.48893e-06
1.44695e-06
1.37904e-06
1.28859e-06
1.18003e-06
1.05854e-06
9.29615e-07
7.98473e-07
6.697e-07
5.47176e-07
4.33839e-07
3.31369e-07
2.40063e-07
1.58882e-07
8.5601e-08
1.70145e-08
5.84982e-10
5.79519e-10
1.68582e-08
8.48491e-08
1.57539e-07
2.38133e-07
3.28884e-07
4.30866e-07
5.43815e-07
6.66078e-07
7.94725e-07
9.25883e-07
1.05497e-06
1.17677e-06
1.28579e-06
1.37682e-06
1.4454e-06
1.48814e-06
1.50289e-06
1.48893e-06
1.44695e-06
1.37904e-06
1.28859e-06
1.18003e-06
1.05854e-06
9.29615e-07
7.98473e-07
6.697e-07
5.47176e-07
4.33839e-07
3.31369e-07
2.40063e-07
1.58882e-07
8.5601e-08
1.70145e-08
5.84982e-10
5.79519e-10
1.68582e-08
8.48491e-08
1.57539e-07
2.38133e-07
3.28884e-07
4.30866e-07
5.43815e-07
6.66078e-07
7.94725e-07
9.25883e-07
1.05497e-06
1.17677e-06
1.28579e-06
1.37682e-06
1.4454e-06
1.48814e-06
1.50289e-06
1.48893e-06
1.44695e-06
1.37904e-06
1.28859e-06
1.18003e-06
1.05854e-06
9.29615e-07
7.98473e-07
6.697e-07
5.47176e-07
4.33839e-07
3.31369e-07
2.40063e-07
1.58882e-07
8.5601e-08
1.70145e-08
5.84982e-10
5.79519e-10
1.68582e-08
8.48491e-08
1.57539e-07
2.38133e-07
3.28884e-07
4.30866e-07
5.43815e-07
6.66078e-07
7.94725e-07
9.25883e-07
1.05497e-06
1.17677e-06
1.28579e-06
1.37682e-06
1.4454e-06
1.48814e-06
1.50289e-06
1.48893e-06
1.44695e-06
1.37904e-06
1.28859e-06
1.18003e-06
1.05854e-06
9.29615e-07
7.98473e-07
6.697e-07
5.47176e-07
4.33839e-07
3.31369e-07
2.40063e-07
1.58882e-07
8.5601e-08
1.70145e-08
5.84982e-10
5.79519e-10
1.68582e-08
8.48491e-08
1.57539e-07
2.38133e-07
3.28884e-07
4.30866e-07
5.43815e-07
6.66078e-07
7.94725e-07
9.25883e-07
1.05497e-06
1.17677e-06
1.28579e-06
1.37682e-06
1.4454e-06
1.48814e-06
1.50289e-06
1.48893e-06
1.44695e-06
1.37904e-06
1.28859e-06
1.18003e-06
1.05854e-06
9.29615e-07
7.98473e-07
6.697e-07
5.47176e-07
4.33839e-07
3.31369e-07
2.40063e-07
1.58882e-07
8.5601e-08
1.70145e-08
5.84982e-10
5.79519e-10
1.68582e-08
8.48491e-08
1.57539e-07
2.38133e-07
3.28884e-07
4.30866e-07
5.43815e-07
6.66078e-07
7.94725e-07
9.25883e-07
1.05497e-06
1.17677e-06
1.28579e-06
1.37682e-06
1.4454e-06
1.48814e-06
1.50289e-06
1.48893e-06
1.44695e-06
1.37904e-06
1.28859e-06
1.18003e-06
1.05854e-06
9.29615e-07
7.98473e-07
6.697e-07
5.47176e-07
4.33839e-07
3.31369e-07
2.40063e-07
1.58882e-07
8.5601e-08
1.70145e-08
5.84982e-10
5.79519e-10
1.68582e-08
8.48491e-08
1.57539e-07
2.38133e-07
3.28884e-07
4.30866e-07
5.43815e-07
6.66078e-07
7.94725e-07
9.25883e-07
1.05497e-06
1.17677e-06
1.28579e-06
1.37682e-06
1.4454e-06
1.48814e-06
1.50289e-06
1.48893e-06
1.44695e-06
1.37904e-06
1.28859e-06
1.18003e-06
1.05854e-06
9.29615e-07
7.98473e-07
6.697e-07
5.47176e-07
4.33839e-07
3.31369e-07
2.40063e-07
1.58882e-07
8.5601e-08
1.70145e-08
5.84982e-10
5.79519e-10
1.68582e-08
8.48491e-08
1.57539e-07
2.38133e-07
3.28884e-07
4.30866e-07
5.43815e-07
6.66078e-07
7.94725e-07
9.25883e-07
1.05497e-06
1.17677e-06
1.28579e-06
1.37682e-06
1.4454e-06
1.48814e-06
1.50289e-06
1.48893e-06
1.44695e-06
1.37904e-06
1.28859e-06
1.18003e-06
1.05854e-06
9.29615e-07
7.98473e-07
6.697e-07
5.47176e-07
4.33839e-07
3.31369e-07
2.40063e-07
1.58882e-07
8.5601e-08
1.70145e-08
5.84982e-10
5.79519e-10
1.68582e-08
8.48491e-08
1.57539e-07
2.38133e-07
3.28884e-07
4.30866e-07
5.43815e-07
6.66078e-07
7.94725e-07
9.25883e-07
1.05497e-06
1.17677e-06
1.28579e-06
1.37682e-06
1.4454e-06
1.48814e-06
1.50289e-06
1.48893e-06
1.44695e-06
1.37904e-06
1.28859e-06
1.18003e-06
1.05854e-06
9.29615e-07
7.98473e-07
6.697e-07
5.47176e-07
4.33839e-07
3.31369e-07
2.40063e-07
1.58882e-07
8.5601e-08
1.70145e-08
5.84982e-10
5.79519e-10
1.68582e-08
8.48491e-08
1.57539e-07
2.38133e-07
3.28884e-07
4.30866e-07
5.43815e-07
6.66078e-07
7.94725e-07
9.25883e-07
1.05497e-06
1.17677e-06
1.28579e-06
1.37682e-06
1.4454e-06
1.48814e-06
1.50289e-06
1.48893e-06
1.44695e-06
1.37904e-06
1.28859e-06
1.18003e-06
1.05854e-06
9.29615e-07
7.98473e-07
6.697e-07
5.47176e-07
4.33839e-07
3.31369e-07
2.40063e-07
1.58882e-07
8.5601e-08
1.70145e-08
5.84982e-10
5.79519e-10
1.68582e-08
8.48491e-08
1.57539e-07
2.38133e-07
3.28884e-07
4.30866e-07
5.43815e-07
6.66078e-07
7.94725e-07
9.25883e-07
1.05497e-06
1.17677e-06
1.28579e-06
1.37682e-06
1.4454e-06
1.48814e-06
1.50289e-06
1.48893e-06
1.44695e-06
1.37904e-06
1.28859e-06
1.18003e-06
1.05854e-06
9.29615e-07
7.98473e-07
6.697e-07
5.47176e-07
4.33839e-07
3.31369e-07
2.40063e-07
1.58882e-07
8.5601e-08
1.70145e-08
5.84982e-10
5.79519e-10
1.68582e-08
8.48491e-08
1.57539e-07
2.38133e-07
3.28884e-07
4.30866e-07
5.43815e-07
6.66078e-07
7.94725e-07
9.25883e-07
1.05497e-06
1.17677e-06
1.28579e-06
1.37682e-06
1.4454e-06
1.48814e-06
1.50289e-06
1.48893e-06
1.44695e-06
1.37904e-06
1.28859e-06
1.18003e-06
1.05854e-06
9.29615e-07
7.98473e-07
6.697e-07
5.47176e-07
4.33839e-07
3.31369e-07
2.40063e-07
1.58882e-07
8.5601e-08
1.70145e-08
5.84982e-10
5.79519e-10
1.68582e-08
8.48491e-08
1.57539e-07
2.38133e-07
3.28884e-07
4.30866e-07
5.43815e-07
6.66078e-07
7.94725e-07
9.25883e-07
1.05497e-06
1.17677e-06
1.28579e-06
1.37682e-06
1.4454e-06
1.48814e-06
1.50289e-06
1.48893e-06
1.44695e-06
1.37904e-06
1.28859e-06
1.18003e-06
1.05854e-06
9.29615e-07
7.98473e-07
6.697e-07
5.47176e-07
4.33839e-07
3.31369e-07
2.40063e-07
1.58882e-07
8.5601e-08
1.70145e-08
5.84982e-10
5.79519e-10
1.68582e-08
8.48491e-08
1.57539e-07
2.38133e-07
3.28884e-07
4.30866e-07
5.43815e-07
6.66078e-07
7.94725e-07
9.25883e-07
1.05497e-06
1.17677e-06
1.28579e-06
1.37682e-06
1.4454e-06
1.48814e-06
1.50289e-06
1.48893e-06
1.44695e-06
1.37904e-06
1.28859e-06
1.18003e-06
1.05854e-06
9.29615e-07
7.98473e-07
6.697e-07
5.47176e-07
4.33839e-07
3.31369e-07
2.40063e-07
1.58882e-07
8.5601e-08
1.70145e-08
5.84982e-10
5.79519e-10
1.68582e-08
8.48491e-08
1.57539e-07
2.38133e-07
3.28884e-07
4.30866e-07
5.43815e-07
6.66078e-07
7.94725e-07
9.25883e-07
1.05497e-06
1.17677e-06
1.28579e-06
1.37682e-06
1.4454e-06
1.48814e-06
1.50289e-06
1.48893e-06
1.44695e-06
1.37904e-06
1.28859e-06
1.18003e-06
1.05854e-06
9.29615e-07
7.98473e-07
6.697e-07
5.47176e-07
4.33839e-07
3.31369e-07
2.40063e-07
1.58882e-07
8.5601e-08
1.70145e-08
5.84982e-10
5.79519e-10
1.68582e-08
8.48491e-08
1.57539e-07
2.38133e-07
3.28884e-07
4.30866e-07
5.43815e-07
6.66078e-07
7.94725e-07
9.25883e-07
1.05497e-06
1.17677e-06
1.28579e-06
1.37682e-06
1.4454e-06
1.48814e-06
1.50289e-06
1.48893e-06
1.44695e-06
1.37904e-06
1.28859e-06
1.18003e-06
1.05854e-06
9.29615e-07
7.98473e-07
6.697e-07
5.47176e-07
4.33839e-07
3.31369e-07
2.40063e-07
1.58882e-07
8.5601e-08
1.70145e-08
5.84982e-10
5.79519e-10
1.68582e-08
8.48491e-08
1.57539e-07
2.38133e-07
3.28884e-07
4.30866e-07
5.43815e-07
6.66078e-07
7.94725e-07
9.25883e-07
1.05497e-06
1.17677e-06
1.28579e-06
1.37682e-06
1.4454e-06
1.48814e-06
1.50289e-06
1.48893e-06
1.44695e-06
1.37904e-06
1.28859e-06
1.18003e-06
1.05854e-06
9.29615e-07
7.98473e-07
6.697e-07
5.47176e-07
4.33839e-07
3.31369e-07
2.40063e-07
1.58882e-07
8.5601e-08
1.70145e-08
5.84982e-10
5.79519e-10
1.68582e-08
8.48491e-08
1.57539e-07
2.38133e-07
3.28884e-07
4.30866e-07
5.43815e-07
6.66078e-07
7.94725e-07
9.25883e-07
1.05497e-06
1.17677e-06
1.28579e-06
1.37682e-06
1.4454e-06
1.48814e-06
1.50289e-06
1.48893e-06
1.44695e-06
1.37904e-06
1.28859e-06
1.18003e-06
1.05854e-06
9.29615e-07
7.98473e-07
6.697e-07
5.47176e-07
4.33839e-07
3.31369e-07
2.40063e-07
1.58882e-07
8.5601e-08
1.70145e-08
5.84982e-10
5.79519e-10
1.68582e-08
8.48491e-08
1.57539e-07
2.38133e-07
3.28884e-07
4.30866e-07
5.43815e-07
6.66078e-07
7.94725e-07
9.25883e-07
1.05497e-06
1.17677e-06
1.28579e-06
1.37682e-06
1.4454e-06
1.48814e-06
1.50289e-06
1.48893e-06
1.44695e-06
1.37904e-06
1.28859e-06
1.18003e-06
1.05854e-06
9.29615e-07
7.98473e-07
6.697e-07
5.47176e-07
4.33839e-07
3.31369e-07
2.40063e-07
1.58882e-07
8.5601e-08
1.70145e-08
5.84982e-10
5.79519e-10
1.68582e-08
8.48491e-08
1.57539e-07
2.38133e-07
3.28884e-07
4.30866e-07
5.43815e-07
6.66078e-07
7.94725e-07
9.25883e-07
1.05497e-06
1.17677e-06
1.28579e-06
1.37682e-06
1.4454e-06
1.48814e-06
1.50289e-06
1.48893e-06
1.44695e-06
1.37904e-06
1.28859e-06
1.18003e-06
1.05854e-06
9.29615e-07
7.98473e-07
6.697e-07
5.47176e-07
4.33839e-07
3.31369e-07
2.40063e-07
1.58882e-07
8.5601e-08
1.70145e-08
5.84982e-10
5.79519e-10
1.68582e-08
8.48491e-08
1.57539e-07
2.38133e-07
3.28884e-07
4.30866e-07
5.43815e-07
6.66078e-07
7.94725e-07
9.25883e-07
1.05497e-06
1.17677e-06
1.28579e-06
1.37682e-06
1.4454e-06
1.48814e-06
1.50289e-06
1.48893e-06
1.44695e-06
1.37904e-06
1.28859e-06
1.18003e-06
1.05854e-06
9.29615e-07
7.98473e-07
6.697e-07
5.47176e-07
4.33839e-07
3.31369e-07
2.40063e-07
1.58882e-07
8.5601e-08
1.70145e-08
5.84982e-10
5.79519e-10
1.68582e-08
8.48491e-08
1.57539e-07
2.38133e-07
3.28884e-07
4.30866e-07
5.43815e-07
6.66078e-07
7.94725e-07
9.25883e-07
1.05497e-06
1.17677e-06
1.28579e-06
1.37682e-06
1.4454e-06
1.48814e-06
1.50289e-06
1.48893e-06
1.44695e-06
1.37904e-06
1.28859e-06
1.18003e-06
1.05854e-06
9.29615e-07
7.98473e-07
6.697e-07
5.47176e-07
4.33839e-07
3.31369e-07
2.40063e-07
1.58882e-07
8.5601e-08
1.70145e-08
5.84982e-10
5.79519e-10
1.68582e-08
8.48491e-08
1.57539e-07
2.38133e-07
3.28884e-07
4.30866e-07
5.43815e-07
6.66078e-07
7.94725e-07
9.25883e-07
1.05497e-06
1.17677e-06
1.28579e-06
1.37682e-06
1.4454e-06
1.48814e-06
1.50289e-06
1.48893e-06
1.44695e-06
1.37904e-06
1.28859e-06
1.18003e-06
1.05854e-06
9.29615e-07
7.98473e-07
6.697e-07
5.47176e-07
4.33839e-07
3.31369e-07
2.40063e-07
1.58882e-07
8.5601e-08
1.70145e-08
5.84982e-10
5.79519e-10
1.68582e-08
8.48491e-08
1.57539e-07
2.38133e-07
3.28884e-07
4.30866e-07
5.43815e-07
6.66078e-07
7.94725e-07
9.25883e-07
1.05497e-06
1.17677e-06
1.28579e-06
1.37682e-06
1.4454e-06
1.48814e-06
1.50289e-06
1.48893e-06
1.44695e-06
1.37904e-06
1.28859e-06
1.18003e-06
1.05854e-06
9.29615e-07
7.98473e-07
6.697e-07
5.47176e-07
4.33839e-07
3.31369e-07
2.40063e-07
1.58882e-07
8.5601e-08
1.70145e-08
5.84982e-10
5.79519e-10
1.68582e-08
8.48491e-08
1.57539e-07
2.38133e-07
3.28884e-07
4.30866e-07
5.43815e-07
6.66078e-07
7.94725e-07
9.25883e-07
1.05497e-06
1.17677e-06
1.28579e-06
1.37682e-06
1.4454e-06
1.48814e-06
1.50289e-06
1.48893e-06
1.44695e-06
1.37904e-06
1.28859e-06
1.18003e-06
1.05854e-06
9.29615e-07
7.98473e-07
6.697e-07
5.47176e-07
4.33839e-07
3.31369e-07
2.40063e-07
1.58882e-07
8.5601e-08
1.70145e-08
5.84982e-10
5.79519e-10
1.68582e-08
8.48491e-08
1.57539e-07
2.38133e-07
3.28884e-07
4.30866e-07
5.43815e-07
6.66078e-07
7.94725e-07
9.25883e-07
1.05497e-06
1.17677e-06
1.28579e-06
1.37682e-06
1.4454e-06
1.48814e-06
1.50289e-06
1.48893e-06
1.44695e-06
1.37904e-06
1.28859e-06
1.18003e-06
1.05854e-06
9.29615e-07
7.98473e-07
6.697e-07
5.47176e-07
4.33839e-07
3.31369e-07
2.40063e-07
1.58882e-07
8.5601e-08
1.70145e-08
5.84982e-10
5.79519e-10
1.68582e-08
8.48491e-08
1.57539e-07
2.38133e-07
3.28884e-07
4.30866e-07
5.43815e-07
6.66078e-07
7.94725e-07
9.25883e-07
1.05497e-06
1.17677e-06
1.28579e-06
1.37682e-06
1.4454e-06
1.48814e-06
1.50289e-06
1.48893e-06
1.44695e-06
1.37904e-06
1.28859e-06
1.18003e-06
1.05854e-06
9.29615e-07
7.98473e-07
6.697e-07
5.47176e-07
4.33839e-07
3.31369e-07
2.40063e-07
1.58882e-07
8.5601e-08
1.70145e-08
5.84982e-10
5.79519e-10
1.68582e-08
8.48491e-08
1.57539e-07
2.38133e-07
3.28884e-07
4.30866e-07
5.43815e-07
6.66078e-07
7.94725e-07
9.25883e-07
1.05497e-06
1.17677e-06
1.28579e-06
1.37682e-06
1.4454e-06
1.48814e-06
1.50289e-06
1.48893e-06
1.44695e-06
1.37904e-06
1.28859e-06
1.18003e-06
1.05854e-06
9.29615e-07
7.98473e-07
6.697e-07
5.47176e-07
4.33839e-07
3.31369e-07
2.40063e-07
1.58882e-07
8.5601e-08
1.70145e-08
5.84982e-10
5.79519e-10
1.68582e-08
8.48491e-08
1.57539e-07
2.38133e-07
3.28884e-07
4.30866e-07
5.43815e-07
6.66078e-07
7.94725e-07
9.25883e-07
1.05497e-06
1.17677e-06
1.28579e-06
1.37682e-06
1.4454e-06
1.48814e-06
1.50289e-06
1.48893e-06
1.44695e-06
1.37904e-06
1.28859e-06
1.18003e-06
1.05854e-06
9.29615e-07
7.98473e-07
6.697e-07
5.47176e-07
4.33839e-07
3.31369e-07
2.40063e-07
1.58882e-07
8.5601e-08
1.70145e-08
5.84982e-10
5.79519e-10
1.68582e-08
8.48491e-08
1.57539e-07
2.38133e-07
3.28884e-07
4.30866e-07
5.43815e-07
6.66078e-07
7.94725e-07
9.25883e-07
1.05497e-06
1.17677e-06
1.28579e-06
1.37682e-06
1.4454e-06
1.48814e-06
1.50289e-06
1.48893e-06
1.44695e-06
1.37904e-06
1.28859e-06
1.18003e-06
1.05854e-06
9.29615e-07
7.98473e-07
6.697e-07
5.47176e-07
4.33839e-07
3.31369e-07
2.40063e-07
1.58882e-07
8.5601e-08
1.70145e-08
5.84982e-10
5.79519e-10
1.68582e-08
8.48491e-08
1.57539e-07
2.38133e-07
3.28884e-07
4.30866e-07
5.43815e-07
6.66078e-07
7.94725e-07
9.25883e-07
1.05497e-06
1.17677e-06
1.28579e-06
1.37682e-06
1.4454e-06
1.48814e-06
1.50289e-06
1.48893e-06
1.44695e-06
1.37904e-06
1.28859e-06
1.18003e-06
1.05854e-06
9.29615e-07
7.98473e-07
6.697e-07
5.47176e-07
4.33839e-07
3.31369e-07
2.40063e-07
1.58882e-07
8.5601e-08
1.70145e-08
5.84982e-10
5.79519e-10
1.68582e-08
8.48491e-08
1.57539e-07
2.38133e-07
3.28884e-07
4.30866e-07
5.43815e-07
6.66078e-07
7.94725e-07
9.25883e-07
1.05497e-06
1.17677e-06
1.28579e-06
1.37682e-06
1.4454e-06
1.48814e-06
1.50289e-06
1.48893e-06
1.44695e-06
1.37904e-06
1.28859e-06
1.18003e-06
1.05854e-06
9.29615e-07
7.98473e-07
6.697e-07
5.47176e-07
4.33839e-07
3.31369e-07
2.40063e-07
1.58882e-07
8.5601e-08
1.70145e-08
5.84982e-10
5.79519e-10
1.68582e-08
8.48491e-08
1.57539e-07
2.38133e-07
3.28884e-07
4.30866e-07
5.43815e-07
6.66078e-07
7.94725e-07
9.25883e-07
1.05497e-06
1.17677e-06
1.28579e-06
1.37682e-06
1.4454e-06
1.48814e-06
1.50289e-06
1.48893e-06
1.44695e-06
1.37904e-06
1.28859e-06
1.18003e-06
1.05854e-06
9.29615e-07
7.98473e-07
6.697e-07
5.47176e-07
4.33839e-07
3.31369e-07
2.40063e-07
1.58882e-07
8.5601e-08
1.70145e-08
5.84982e-10
5.79519e-10
1.68582e-08
8.48491e-08
1.57539e-07
2.38133e-07
3.28884e-07
4.30866e-07
5.43815e-07
6.66078e-07
7.94725e-07
9.25883e-07
1.05497e-06
1.17677e-06
1.28579e-06
1.37682e-06
1.4454e-06
1.48814e-06
1.50289e-06