/*--------------------------------*- C++ -*----------------------------------*\
  =========                 |
  \\      /  F ield         | OpenFOAM: The Open Source CFD Toolbox
   \\    /   O peration     | Website:  https://openfoam.org
    \\  /    A nd           | Version:  13
     \\/     M anipulation  |
\*---------------------------------------------------------------------------*/
FoamFile
{
    format      ascii;
    class       volScalarField;
    location    "240";
    object      nut;
}
// * * * * * * * * * * * * * * * * * * * * * * * * * * * * * * * * * * * * * //

dimensions      [0 2 -1 0 0 0 0];

internalField   nonuniform List<scalar> 
78750
(
2.51417e-17
6.43242e-15
1.45068e-13
2.63255e-13
3.88001e-13
5.20278e-13
6.60194e-13
8.06771e-13
9.57936e-13
1.11062e-12
1.26098e-12
1.4046e-12
1.53687e-12
1.65318e-12
1.74928e-12
1.82154e-12
1.86714e-12
1.88427e-12
1.87223e-12
1.83149e-12
1.76365e-12
1.67131e-12
1.55798e-12
1.42781e-12
1.28534e-12
1.13521e-12
9.81874e-13
8.29285e-13
6.80628e-13
5.38097e-13
4.02761e-13
2.7452e-13
1.5221e-13
6.80484e-15
2.67124e-17
5.47012e-16
1.42154e-13
2.00799e-11
3.67046e-11
5.42352e-11
7.28737e-11
9.26624e-11
1.1347e-10
1.34999e-10
1.56803e-10
1.78318e-10
1.98902e-10
2.17876e-10
2.34568e-10
2.48357e-10
2.58709e-10
2.65215e-10
2.67612e-10
2.658e-10
2.59851e-10
2.5e-10
2.36637e-10
2.20276e-10
2.01527e-10
1.81057e-10
1.59545e-10
1.37641e-10
1.1592e-10
9.48432e-11
7.47255e-11
5.57115e-11
3.77691e-11
2.06979e-11
1.4677e-13
5.65128e-16
1.54323e-15
4.01097e-13
5.67701e-11
1.04385e-10
1.55591e-10
2.11317e-10
2.71921e-10
3.3713e-10
4.06033e-10
4.7713e-10
5.48431e-10
6.17589e-10
6.82064e-10
7.39295e-10
7.86879e-10
8.2274e-10
8.45268e-10
8.53432e-10
8.46854e-10
8.2583e-10
7.91314e-10
7.44849e-10
6.88466e-10
6.24535e-10
5.55608e-10
4.84236e-10
4.12794e-10
3.43314e-10
2.77346e-10
2.1585e-10
1.59146e-10
1.06905e-10
5.82101e-11
4.11747e-13
1.5849e-15
3.00325e-15
7.80502e-13
1.10543e-10
2.03713e-10
3.04651e-10
4.15454e-10
5.37039e-10
6.68997e-10
8.09558e-10
9.55671e-10
1.10318e-09
1.2471e-09
1.38196e-09
1.50216e-09
1.60241e-09
1.67809e-09
1.72561e-09
1.74266e-09
1.72841e-09
1.68355e-09
1.61024e-09
1.51195e-09
1.39321e-09
1.25927e-09
1.11571e-09
9.68021e-10
8.21255e-10
6.7964e-10
5.46321e-10
4.23162e-10
3.10653e-10
2.07937e-10
1.1294e-10
7.98161e-13
3.0723e-15
4.68141e-15
1.21653e-12
1.72329e-10
3.17795e-10
4.75766e-10
6.49655e-10
8.41003e-10
1.04924e-09
1.2716e-09
1.50327e-09
1.73763e-09
1.96671e-09
2.18169e-09
2.37355e-09
2.53369e-09
2.65462e-09
2.73049e-09
2.75754e-09
2.73443e-09
2.66228e-09
2.54467e-09
2.38726e-09
2.19744e-09
1.98373e-09
1.75513e-09
1.5205e-09
1.2879e-09
1.06404e-09
8.53878e-10
6.60313e-10
4.84035e-10
3.23591e-10
1.75603e-10
1.24061e-12
4.77555e-15
6.3146e-15
1.64095e-12
2.32468e-10
4.28804e-10
6.42199e-10
8.77331e-10
1.13633e-09
1.41845e-09
1.71997e-09
2.03435e-09
2.3526e-09
2.66386e-09
2.95611e-09
3.21701e-09
3.43482e-09
3.59928e-09
3.70237e-09
3.73897e-09
3.70721e-09
3.60869e-09
3.4483e-09
3.23385e-09
2.97545e-09
2.68476e-09
2.37409e-09
2.0555e-09
1.73995e-09
1.43657e-09
1.15207e-09
8.90334e-10
6.52261e-10
4.35834e-10
2.36426e-10
1.67003e-12
6.42827e-15
7.70894e-15
2.00347e-12
2.83851e-10
5.23645e-10
7.84377e-10
1.0718e-09
1.38856e-09
1.73374e-09
2.10281e-09
2.48775e-09
2.87754e-09
3.25886e-09
3.61697e-09
3.93671e-09
4.20366e-09
4.40518e-09
4.53143e-09
4.57608e-09
4.53689e-09
4.41582e-09
4.21889e-09
3.95575e-09
3.63883e-09
3.28248e-09
2.90181e-09
2.51163e-09
2.12536e-09
1.75418e-09
1.40629e-09
1.08643e-09
7.95671e-10
5.31516e-10
2.8827e-10
2.03591e-12
7.83575e-15
8.76923e-15
2.27934e-12
3.22972e-10
5.9586e-10
8.92645e-10
1.21991e-09
1.58067e-09
1.97391e-09
2.39445e-09
2.83318e-09
3.27751e-09
3.71226e-09
4.12058e-09
4.48518e-09
4.78958e-09
5.01934e-09
5.16321e-09
5.21398e-09
5.16906e-09
5.03073e-09
4.80589e-09
4.50556e-09
4.14398e-09
3.73754e-09
3.30349e-09
2.85874e-09
2.41858e-09
1.99576e-09
1.59961e-09
1.23551e-09
9.04673e-10
6.04224e-10
3.27658e-10
2.31373e-12
8.90362e-15
9.49383e-15
2.46806e-12
3.4975e-10
6.45296e-10
9.66772e-10
1.32133e-09
1.71224e-09
2.13843e-09
2.59427e-09
3.06988e-09
3.55163e-09
4.02302e-09
4.4658e-09
4.86119e-09
5.19128e-09
5.44042e-09
5.59636e-09
5.6513e-09
5.60242e-09
5.4522e-09
5.20817e-09
4.88228e-09
4.49003e-09
4.04919e-09
3.57852e-09
3.09633e-09
2.61923e-09
2.16102e-09
1.73182e-09
1.33744e-09
9.79173e-10
6.53906e-10
3.54566e-10
2.50339e-12
9.63191e-15
9.94227e-15
2.58497e-12
3.66352e-10
6.75951e-10
1.01274e-09
1.38424e-09
1.79387e-09
2.24051e-09
2.71828e-09
3.2168e-09
3.7218e-09
4.21597e-09
4.68016e-09
5.09468e-09
5.44075e-09
5.70192e-09
5.86536e-09
5.92287e-09
5.87151e-09
5.71388e-09
5.45789e-09
5.1161e-09
4.70476e-09
4.24254e-09
3.7491e-09
3.24366e-09
2.74361e-09
2.26344e-09
1.81372e-09
1.40056e-09
1.0253e-09
6.84661e-10
3.71219e-10
2.62067e-12
1.00818e-14
1.01955e-14
2.65106e-12
3.75744e-10
6.93294e-10
1.03876e-09
1.41984e-09
1.84007e-09
2.2983e-09
2.78849e-09
3.3e-09
3.81817e-09
4.32526e-09
4.80159e-09
5.22695e-09
5.58207e-09
5.85006e-09
6.01775e-09
6.0767e-09
6.02393e-09
5.86209e-09
5.59931e-09
5.24849e-09
4.82633e-09
4.35198e-09
3.84563e-09
3.32701e-09
2.81397e-09
2.32135e-09
1.86003e-09
1.43624e-09
1.05137e-09
7.02035e-10
3.80624e-10
2.68686e-12
1.03354e-14
1.03268e-14
2.68538e-12
3.80625e-10
7.02309e-10
1.05228e-09
1.43835e-09
1.8641e-09
2.32835e-09
2.82501e-09
3.34328e-09
3.86831e-09
4.38212e-09
4.86477e-09
5.29578e-09
5.65561e-09
5.92715e-09
6.09705e-09
6.15676e-09
6.10324e-09
5.93921e-09
5.67288e-09
5.31736e-09
4.88955e-09
4.40889e-09
3.89582e-09
3.37033e-09
2.85053e-09
2.35144e-09
1.88408e-09
1.45477e-09
1.0649e-09
7.11053e-10
3.85505e-10
2.72118e-12
1.04667e-14
1.03897e-14
2.70186e-12
3.82971e-10
7.06642e-10
1.05878e-09
1.44725e-09
1.87565e-09
2.34281e-09
2.84258e-09
3.3641e-09
3.89243e-09
4.40947e-09
4.89517e-09
5.3289e-09
5.691e-09
5.96424e-09
6.1352e-09
6.19527e-09
6.1414e-09
5.9763e-09
5.70827e-09
5.35048e-09
4.91996e-09
4.43625e-09
3.91994e-09
3.39115e-09
2.8681e-09
2.3659e-09
1.89563e-09
1.46367e-09
1.0714e-09
7.15383e-10
3.87848e-10
2.73763e-12
1.05296e-14
1.04178e-14
2.70922e-12
3.84019e-10
7.08579e-10
1.06169e-09
1.45122e-09
1.88082e-09
2.34927e-09
2.85043e-09
3.37341e-09
3.90322e-09
4.42171e-09
4.90877e-09
5.34371e-09
5.70683e-09
5.98084e-09
6.15227e-09
6.2125e-09
6.15847e-09
5.9929e-09
5.7241e-09
5.36529e-09
4.93355e-09
4.44848e-09
3.93073e-09
3.40046e-09
2.87595e-09
2.37236e-09
1.90079e-09
1.46764e-09
1.0743e-09
7.17316e-10
3.88894e-10
2.74498e-12
1.05576e-14
1.04295e-14
2.71229e-12
3.84457e-10
7.09388e-10
1.0629e-09
1.45289e-09
1.88297e-09
2.35197e-09
2.85372e-09
3.37731e-09
3.90773e-09
4.42683e-09
4.91446e-09
5.34991e-09
5.71345e-09
5.98778e-09
6.15941e-09
6.21971e-09
6.16561e-09
5.99984e-09
5.73072e-09
5.37149e-09
4.93924e-09
4.4536e-09
3.93524e-09
3.40435e-09
2.87923e-09
2.37506e-09
1.90295e-09
1.4693e-09
1.07551e-09
7.18124e-10
3.89331e-10
2.74804e-12
1.05693e-14
1.04341e-14
2.71349e-12
3.84629e-10
7.09706e-10
1.06338e-09
1.45354e-09
1.88382e-09
2.35303e-09
2.85501e-09
3.37883e-09
3.9095e-09
4.42884e-09
4.91669e-09
5.35234e-09
5.71605e-09
5.99051e-09
6.16222e-09
6.22254e-09
6.16841e-09
6.00256e-09
5.73332e-09
5.37392e-09
4.94147e-09
4.45561e-09
3.93701e-09
3.40588e-09
2.88052e-09
2.37611e-09
1.90379e-09
1.46995e-09
1.07599e-09
7.1844e-10
3.89502e-10
2.74924e-12
1.05738e-14
1.04358e-14
2.71394e-12
3.84692e-10
7.09823e-10
1.06355e-09
1.45378e-09
1.88414e-09
2.35343e-09
2.85548e-09
3.3794e-09
3.91016e-09
4.42958e-09
4.91752e-09
5.35325e-09
5.71701e-09
5.99152e-09
6.16325e-09
6.22359e-09
6.16945e-09
6.00357e-09
5.73428e-09
5.37482e-09
4.9423e-09
4.45635e-09
3.93766e-09
3.40644e-09
2.88099e-09
2.37651e-09
1.90411e-09
1.47019e-09
1.07616e-09
7.18557e-10
3.89565e-10
2.74968e-12
1.05755e-14
1.04364e-14
2.71409e-12
3.84715e-10
7.09864e-10
1.06362e-09
1.45387e-09
1.88424e-09
2.35356e-09
2.85565e-09
3.3796e-09
3.91039e-09
4.42984e-09
4.91781e-09
5.35356e-09
5.71735e-09
5.99187e-09
6.16362e-09
6.22395e-09
6.16981e-09
6.00392e-09
5.73462e-09
5.37513e-09
4.94258e-09
4.45661e-09
3.93789e-09
3.40664e-09
2.88116e-09
2.37664e-09
1.90422e-09
1.47028e-09
1.07622e-09
7.18598e-10
3.89587e-10
2.74983e-12
1.05761e-14
1.04366e-14
2.71414e-12
3.84722e-10
7.09878e-10
1.06364e-09
1.45389e-09
1.88428e-09
2.35361e-09
2.8557e-09
3.37966e-09
3.91047e-09
4.42993e-09
4.9179e-09
5.35367e-09
5.71746e-09
5.99199e-09
6.16374e-09
6.22408e-09
6.16993e-09
6.00404e-09
5.73473e-09
5.37524e-09
4.94268e-09
4.45669e-09
3.93797e-09
3.40671e-09
2.88121e-09
2.37669e-09
1.90425e-09
1.4703e-09
1.07624e-09
7.18611e-10
3.89594e-10
2.74988e-12
1.05763e-14
1.04367e-14
2.71416e-12
3.84724e-10
7.09882e-10
1.06364e-09
1.4539e-09
1.88429e-09
2.35362e-09
2.85572e-09
3.37968e-09
3.91049e-09
4.42996e-09
4.91793e-09
5.3537e-09
5.7175e-09
5.99202e-09
6.16377e-09
6.22411e-09
6.16997e-09
6.00408e-09
5.73476e-09
5.37527e-09
4.94271e-09
4.45672e-09
3.93799e-09
3.40673e-09
2.88123e-09
2.3767e-09
1.90426e-09
1.47031e-09
1.07625e-09
7.18616e-10
3.89597e-10
2.7499e-12
1.05764e-14
1.04367e-14
2.71417e-12
3.84725e-10
7.09884e-10
1.06364e-09
1.45391e-09
1.8843e-09
2.35363e-09
2.85573e-09
3.37969e-09
3.9105e-09
4.42997e-09
4.91794e-09
5.35371e-09
5.71751e-09
5.99203e-09
6.16379e-09
6.22413e-09
6.16998e-09
6.00409e-09
5.73477e-09
5.37528e-09
4.94272e-09
4.45673e-09
3.938e-09
3.40673e-09
2.88124e-09
2.37671e-09
1.90427e-09
1.47032e-09
1.07625e-09
7.18617e-10
3.89597e-10
2.74991e-12
1.05764e-14
1.04367e-14
2.71417e-12
3.84725e-10
7.09884e-10
1.06364e-09
1.45391e-09
1.8843e-09
2.35363e-09
2.85573e-09
3.37969e-09
3.9105e-09
4.42997e-09
4.91794e-09
5.35371e-09
5.71751e-09
5.99204e-09
6.16379e-09
6.22413e-09
6.16998e-09
6.00409e-09
5.73478e-09
5.37528e-09
4.94272e-09
4.45673e-09
3.938e-09
3.40673e-09
2.88124e-09
2.37671e-09
1.90427e-09
1.47032e-09
1.07625e-09
7.18617e-10
3.89597e-10
2.74991e-12
1.05764e-14
1.04367e-14
2.71417e-12
3.84725e-10
7.09884e-10
1.06364e-09
1.45391e-09
1.8843e-09
2.35363e-09
2.85573e-09
3.37969e-09
3.9105e-09
4.42997e-09
4.91794e-09
5.35371e-09
5.71751e-09
5.99204e-09
6.16379e-09
6.22413e-09
6.16998e-09
6.00409e-09
5.73478e-09
5.37529e-09
4.94272e-09
4.45673e-09
3.938e-09
3.40673e-09
2.88124e-09
2.37671e-09
1.90427e-09
1.47032e-09
1.07625e-09
7.18617e-10
3.89598e-10
2.74991e-12
1.05764e-14
1.04367e-14
2.71417e-12
3.84725e-10
7.09884e-10
1.06364e-09
1.45391e-09
1.8843e-09
2.35363e-09
2.85573e-09
3.37969e-09
3.9105e-09
4.42997e-09
4.91795e-09
5.35371e-09
5.71751e-09
5.99204e-09
6.16379e-09
6.22413e-09
6.16999e-09
6.00409e-09
5.73478e-09
5.37529e-09
4.94272e-09
4.45673e-09
3.938e-09
3.40673e-09
2.88124e-09
2.37671e-09
1.90427e-09
1.47032e-09
1.07625e-09
7.18617e-10
3.89598e-10
2.74991e-12
1.05764e-14
1.04367e-14
2.71417e-12
3.84725e-10
7.09884e-10
1.06364e-09
1.45391e-09
1.8843e-09
2.35363e-09
2.85573e-09
3.37969e-09
3.9105e-09
4.42997e-09
4.91795e-09
5.35371e-09
5.71751e-09
5.99204e-09
6.16379e-09
6.22413e-09
6.16999e-09
6.00409e-09
5.73478e-09
5.37529e-09
4.94272e-09
4.45673e-09
3.938e-09
3.40673e-09
2.88124e-09
2.37671e-09
1.90427e-09
1.47032e-09
1.07625e-09
7.18617e-10
3.89598e-10
2.74991e-12
1.05764e-14
1.04367e-14
2.71417e-12
3.84725e-10
7.09884e-10
1.06364e-09
1.45391e-09
1.8843e-09
2.35363e-09
2.85573e-09
3.37969e-09
3.9105e-09
4.42997e-09
4.91795e-09
5.35371e-09
5.71751e-09
5.99204e-09
6.16379e-09
6.22413e-09
6.16999e-09
6.00409e-09
5.73478e-09
5.37529e-09
4.94272e-09
4.45673e-09
3.938e-09
3.40673e-09
2.88124e-09
2.37671e-09
1.90427e-09
1.47032e-09
1.07625e-09
7.18617e-10
3.89598e-10
2.74991e-12
1.05764e-14
1.04367e-14
2.71417e-12
3.84725e-10
7.09884e-10
1.06364e-09
1.45391e-09
1.8843e-09
2.35363e-09
2.85573e-09
3.37969e-09
3.9105e-09
4.42997e-09
4.91795e-09
5.35371e-09
5.71751e-09
5.99204e-09
6.16379e-09
6.22413e-09
6.16999e-09
6.00409e-09
5.73478e-09
5.37529e-09
4.94272e-09
4.45673e-09
3.938e-09
3.40673e-09
2.88124e-09
2.37671e-09
1.90427e-09
1.47032e-09
1.07625e-09
7.18617e-10
3.89598e-10
2.74991e-12
1.05764e-14
1.04367e-14
2.71417e-12
3.84725e-10
7.09884e-10
1.06364e-09
1.45391e-09
1.8843e-09
2.35363e-09
2.85573e-09
3.37969e-09
3.9105e-09
4.42997e-09
4.91795e-09
5.35371e-09
5.71751e-09
5.99204e-09
6.16379e-09
6.22413e-09
6.16999e-09
6.00409e-09
5.73478e-09
5.37529e-09
4.94272e-09
4.45673e-09
3.938e-09
3.40673e-09
2.88124e-09
2.37671e-09
1.90427e-09
1.47032e-09
1.07625e-09
7.18617e-10
3.89598e-10
2.74991e-12
1.05764e-14
1.04367e-14
2.71417e-12
3.84725e-10
7.09884e-10
1.06364e-09
1.45391e-09
1.8843e-09
2.35363e-09
2.85573e-09
3.37969e-09
3.9105e-09
4.42997e-09
4.91795e-09
5.35371e-09
5.71751e-09
5.99204e-09
6.16379e-09
6.22413e-09
6.16999e-09
6.00409e-09
5.73478e-09
5.37529e-09
4.94272e-09
4.45673e-09
3.938e-09
3.40673e-09
2.88124e-09
2.37671e-09
1.90427e-09
1.47032e-09
1.07625e-09
7.18617e-10
3.89598e-10
2.74991e-12
1.05764e-14
1.04367e-14
2.71417e-12
3.84725e-10
7.09884e-10
1.06364e-09
1.45391e-09
1.8843e-09
2.35363e-09
2.85573e-09
3.37969e-09
3.9105e-09
4.42997e-09
4.91795e-09
5.35371e-09
5.71751e-09
5.99204e-09
6.16379e-09
6.22413e-09
6.16999e-09
6.00409e-09
5.73478e-09
5.37529e-09
4.94272e-09
4.45673e-09
3.938e-09
3.40673e-09
2.88124e-09
2.37671e-09
1.90427e-09
1.47032e-09
1.07625e-09
7.18617e-10
3.89598e-10
2.74991e-12
1.05764e-14
1.04367e-14
2.71417e-12
3.84725e-10
7.09884e-10
1.06364e-09
1.45391e-09
1.8843e-09
2.35363e-09
2.85573e-09
3.37969e-09
3.9105e-09
4.42997e-09
4.91795e-09
5.35371e-09
5.71751e-09
5.99204e-09
6.16379e-09
6.22413e-09
6.16999e-09
6.00409e-09
5.73478e-09
5.37529e-09
4.94272e-09
4.45673e-09
3.938e-09
3.40673e-09
2.88124e-09
2.37671e-09
1.90427e-09
1.47032e-09
1.07625e-09
7.18617e-10
3.89598e-10
2.74991e-12
1.05764e-14
1.04367e-14
2.71417e-12
3.84725e-10
7.09884e-10
1.06364e-09
1.45391e-09
1.8843e-09
2.35363e-09
2.85573e-09
3.37969e-09
3.9105e-09
4.42997e-09
4.91795e-09
5.35371e-09
5.71751e-09
5.99204e-09
6.16379e-09
6.22413e-09
6.16999e-09
6.00409e-09
5.73478e-09
5.37529e-09
4.94272e-09
4.45673e-09
3.938e-09
3.40673e-09
2.88124e-09
2.37671e-09
1.90427e-09
1.47032e-09
1.07625e-09
7.18617e-10
3.89598e-10
2.74991e-12
1.05764e-14
1.04367e-14
2.71417e-12
3.84725e-10
7.09884e-10
1.06364e-09
1.45391e-09
1.8843e-09
2.35363e-09
2.85573e-09
3.37969e-09
3.9105e-09
4.42997e-09
4.91795e-09
5.35371e-09
5.71751e-09
5.99204e-09
6.16379e-09
6.22413e-09
6.16999e-09
6.00409e-09
5.73478e-09
5.37529e-09
4.94272e-09
4.45673e-09
3.938e-09
3.40673e-09
2.88124e-09
2.37671e-09
1.90427e-09
1.47032e-09
1.07625e-09
7.18617e-10
3.89598e-10
2.74991e-12
1.05764e-14
1.04367e-14
2.71417e-12
3.84725e-10
7.09884e-10
1.06364e-09
1.45391e-09
1.8843e-09
2.35363e-09
2.85573e-09
3.37969e-09
3.9105e-09
4.42997e-09
4.91795e-09
5.35371e-09
5.71751e-09
5.99204e-09
6.16379e-09
6.22413e-09
6.16999e-09
6.00409e-09
5.73478e-09
5.37529e-09
4.94272e-09
4.45673e-09
3.938e-09
3.40673e-09
2.88124e-09
2.37671e-09
1.90427e-09
1.47032e-09
1.07625e-09
7.18617e-10
3.89598e-10
2.74991e-12
1.05764e-14
1.04367e-14
2.71417e-12
3.84725e-10
7.09884e-10
1.06364e-09
1.45391e-09
1.8843e-09
2.35363e-09
2.85573e-09
3.37969e-09
3.9105e-09
4.42997e-09
4.91795e-09
5.35371e-09
5.71751e-09
5.99204e-09
6.16379e-09
6.22413e-09
6.16999e-09
6.00409e-09
5.73478e-09
5.37529e-09
4.94272e-09
4.45673e-09
3.938e-09
3.40673e-09
2.88124e-09
2.37671e-09
1.90427e-09
1.47032e-09
1.07625e-09
7.18617e-10
3.89598e-10
2.74991e-12
1.05764e-14
1.04367e-14
2.71417e-12
3.84725e-10
7.09884e-10
1.06364e-09
1.45391e-09
1.8843e-09
2.35363e-09
2.85573e-09
3.37969e-09
3.9105e-09
4.42997e-09
4.91795e-09
5.35371e-09
5.71751e-09
5.99204e-09
6.16379e-09
6.22413e-09
6.16999e-09
6.00409e-09
5.73478e-09
5.37529e-09
4.94272e-09
4.45673e-09
3.938e-09
3.40673e-09
2.88124e-09
2.37671e-09
1.90427e-09
1.47032e-09
1.07625e-09
7.18617e-10
3.89598e-10
2.74991e-12
1.05764e-14
1.04367e-14
2.71417e-12
3.84725e-10
7.09884e-10
1.06364e-09
1.45391e-09
1.8843e-09
2.35363e-09
2.85573e-09
3.37969e-09
3.9105e-09
4.42997e-09
4.91795e-09
5.35371e-09
5.71751e-09
5.99204e-09
6.16379e-09
6.22413e-09
6.16999e-09
6.00409e-09
5.73478e-09
5.37529e-09
4.94272e-09
4.45673e-09
3.938e-09
3.40673e-09
2.88124e-09
2.37671e-09
1.90427e-09
1.47032e-09
1.07625e-09
7.18617e-10
3.89598e-10
2.74991e-12
1.05764e-14
1.04367e-14
2.71417e-12
3.84725e-10
7.09884e-10
1.06364e-09
1.45391e-09
1.8843e-09
2.35363e-09
2.85573e-09
3.37969e-09
3.9105e-09
4.42997e-09
4.91795e-09
5.35371e-09
5.71751e-09
5.99204e-09
6.16379e-09
6.22413e-09
6.16999e-09
6.00409e-09
5.73478e-09
5.37529e-09
4.94272e-09
4.45673e-09
3.938e-09
3.40673e-09
2.88124e-09
2.37671e-09
1.90427e-09
1.47032e-09
1.07625e-09
7.18617e-10
3.89598e-10
2.74991e-12
1.05764e-14
1.04367e-14
2.71417e-12
3.84725e-10
7.09884e-10
1.06364e-09
1.45391e-09
1.8843e-09
2.35363e-09
2.85573e-09
3.37969e-09
3.9105e-09
4.42997e-09
4.91795e-09
5.35371e-09
5.71751e-09
5.99204e-09
6.16379e-09
6.22413e-09
6.16999e-09
6.00409e-09
5.73478e-09
5.37529e-09
4.94272e-09
4.45673e-09
3.938e-09
3.40673e-09
2.88124e-09
2.37671e-09
1.90427e-09
1.47032e-09
1.07625e-09
7.18617e-10
3.89598e-10
2.74991e-12
1.05764e-14
1.04367e-14
2.71417e-12
3.84725e-10
7.09884e-10
1.06364e-09
1.45391e-09
1.8843e-09
2.35363e-09
2.85573e-09
3.37969e-09
3.9105e-09
4.42997e-09
4.91795e-09
5.35371e-09
5.71751e-09
5.99204e-09
6.16379e-09
6.22413e-09
6.16999e-09
6.00409e-09
5.73478e-09
5.37529e-09
4.94272e-09
4.45673e-09
3.938e-09
3.40673e-09
2.88124e-09
2.37671e-09
1.90427e-09
1.47032e-09
1.07625e-09
7.18617e-10
3.89598e-10
2.74991e-12
1.05764e-14
1.04367e-14
2.71417e-12
3.84725e-10
7.09884e-10
1.06364e-09
1.45391e-09
1.8843e-09
2.35363e-09
2.85573e-09
3.37969e-09
3.9105e-09
4.42997e-09
4.91795e-09
5.35371e-09
5.71751e-09
5.99204e-09
6.16379e-09
6.22413e-09
6.16999e-09
6.00409e-09
5.73478e-09
5.37529e-09
4.94272e-09
4.45673e-09
3.938e-09
3.40673e-09
2.88124e-09
2.37671e-09
1.90427e-09
1.47032e-09
1.07625e-09
7.18617e-10
3.89598e-10
2.74991e-12
1.05764e-14
1.04367e-14
2.71417e-12
3.84725e-10
7.09884e-10
1.06364e-09
1.45391e-09
1.8843e-09
2.35363e-09
2.85573e-09
3.37969e-09
3.9105e-09
4.42997e-09
4.91795e-09
5.35371e-09
5.71751e-09
5.99204e-09
6.16379e-09
6.22413e-09
6.16999e-09
6.00409e-09
5.73478e-09
5.37529e-09
4.94272e-09
4.45673e-09
3.938e-09
3.40673e-09
2.88124e-09
2.37671e-09
1.90427e-09
1.47032e-09
1.07625e-09
7.18617e-10
3.89598e-10
2.74991e-12
1.05764e-14
1.04367e-14
2.71417e-12
3.84725e-10
7.09884e-10
1.06364e-09
1.45391e-09
1.8843e-09
2.35363e-09
2.85573e-09
3.37969e-09
3.9105e-09
4.42997e-09
4.91795e-09
5.35371e-09
5.71751e-09
5.99204e-09
6.16379e-09
6.22413e-09
6.16999e-09
6.00409e-09
5.73478e-09
5.37529e-09
4.94272e-09
4.45673e-09
3.938e-09
3.40673e-09
2.88124e-09
2.37671e-09
1.90427e-09
1.47032e-09
1.07625e-09
7.18617e-10
3.89598e-10
2.74991e-12
1.05764e-14
1.04367e-14
2.71417e-12
3.84725e-10
7.09884e-10
1.06364e-09
1.45391e-09
1.8843e-09
2.35363e-09
2.85573e-09
3.37969e-09
3.9105e-09
4.42997e-09
4.91795e-09
5.35371e-09
5.71751e-09
5.99204e-09
6.16379e-09
6.22413e-09
6.16999e-09
6.00409e-09
5.73478e-09
5.37529e-09
4.94272e-09
4.45673e-09
3.938e-09
3.40673e-09
2.88124e-09
2.37671e-09
1.90427e-09
1.47032e-09
1.07625e-09
7.18617e-10
3.89598e-10
2.74991e-12
1.05764e-14
1.04367e-14
2.71417e-12
3.84725e-10
7.09884e-10
1.06364e-09
1.45391e-09
1.8843e-09
2.35363e-09
2.85573e-09
3.37969e-09
3.9105e-09
4.42997e-09
4.91795e-09
5.35371e-09
5.71751e-09
5.99204e-09
6.16379e-09
6.22413e-09
6.16999e-09
6.00409e-09
5.73478e-09
5.37529e-09
4.94272e-09
4.45673e-09
3.938e-09
3.40673e-09
2.88124e-09
2.37671e-09
1.90427e-09
1.47032e-09
1.07625e-09
7.18617e-10
3.89598e-10
2.74991e-12
1.05764e-14
1.04367e-14
2.71417e-12
3.84725e-10
7.09884e-10
1.06364e-09
1.45391e-09
1.8843e-09
2.35363e-09
2.85573e-09
3.37969e-09
3.9105e-09
4.42997e-09
4.91795e-09
5.35371e-09
5.71751e-09
5.99204e-09
6.16379e-09
6.22413e-09
6.16999e-09
6.00409e-09
5.73478e-09
5.37529e-09
4.94272e-09
4.45673e-09
3.938e-09
3.40673e-09
2.88124e-09
2.37671e-09
1.90427e-09
1.47032e-09
1.07625e-09
7.18617e-10
3.89598e-10
2.74991e-12
1.05764e-14
1.04367e-14
2.71417e-12
3.84725e-10
7.09884e-10
1.06364e-09
1.45391e-09
1.8843e-09
2.35363e-09
2.85573e-09
3.37969e-09
3.9105e-09
4.42997e-09
4.91795e-09
5.35371e-09
5.71751e-09
5.99204e-09
6.16379e-09
6.22413e-09
6.16999e-09
6.00409e-09
5.73478e-09
5.37529e-09
4.94272e-09
4.45673e-09
3.938e-09
3.40673e-09
2.88124e-09
2.37671e-09
1.90427e-09
1.47032e-09
1.07625e-09
7.18617e-10
3.89598e-10
2.74991e-12
1.05764e-14
1.04367e-14
2.71417e-12
3.84725e-10
7.09884e-10
1.06364e-09
1.45391e-09
1.8843e-09
2.35363e-09
2.85573e-09
3.37969e-09
3.9105e-09
4.42997e-09
4.91795e-09
5.35371e-09
5.71751e-09
5.99204e-09
6.16379e-09
6.22413e-09
6.16999e-09
6.00409e-09
5.73478e-09
5.37529e-09
4.94272e-09
4.45673e-09
3.938e-09
3.40673e-09
2.88124e-09
2.37671e-09
1.90427e-09
1.47032e-09
1.07625e-09
7.18617e-10
3.89598e-10
2.74991e-12
1.05764e-14
1.04367e-14
2.71417e-12
3.84725e-10
7.09884e-10
1.06364e-09
1.45391e-09
1.8843e-09
2.35363e-09
2.85573e-09
3.37969e-09
3.9105e-09
4.42997e-09
4.91795e-09
5.35371e-09
5.71751e-09
5.99204e-09
6.16379e-09
6.22413e-09
6.16999e-09
6.00409e-09
5.73478e-09
5.37529e-09
4.94272e-09
4.45673e-09
3.938e-09
3.40673e-09
2.88124e-09
2.37671e-09
1.90427e-09
1.47032e-09
1.07625e-09
7.18617e-10
3.89598e-10
2.74991e-12
1.05764e-14
1.04367e-14
2.71417e-12
3.84725e-10
7.09884e-10
1.06364e-09
1.45391e-09
1.8843e-09
2.35363e-09
2.85573e-09
3.37969e-09
3.9105e-09
4.42997e-09
4.91795e-09
5.35371e-09
5.71751e-09
5.99204e-09
6.16379e-09
6.22413e-09
6.16999e-09
6.00409e-09
5.73478e-09
5.37529e-09
4.94272e-09
4.45673e-09
3.938e-09
3.40673e-09
2.88124e-09
2.37671e-09
1.90427e-09
1.47032e-09
1.07625e-09
7.18617e-10
3.89598e-10
2.74991e-12
1.05764e-14
1.04367e-14
2.71417e-12
3.84725e-10
7.09884e-10
1.06364e-09
1.45391e-09
1.8843e-09
2.35363e-09
2.85573e-09
3.37969e-09
3.9105e-09
4.42997e-09
4.91795e-09
5.35371e-09
5.71751e-09
5.99204e-09
6.16379e-09
6.22413e-09
6.16999e-09
6.00409e-09
5.73478e-09
5.37529e-09
4.94272e-09
4.45673e-09
3.938e-09
3.40673e-09
2.88124e-09
2.37671e-09
1.90427e-09
1.47032e-09
1.07625e-09
7.18617e-10
3.89598e-10
2.74991e-12
1.05764e-14
1.04367e-14
2.71417e-12
3.84725e-10
7.09884e-10
1.06364e-09
1.45391e-09
1.8843e-09
2.35363e-09
2.85573e-09
3.37969e-09
3.9105e-09
4.42997e-09
4.91795e-09
5.35371e-09
5.71751e-09
5.99204e-09
6.16379e-09
6.22413e-09
6.16999e-09
6.00409e-09
5.73478e-09
5.37529e-09
4.94272e-09
4.45673e-09
3.938e-09
3.40673e-09
2.88124e-09
2.37671e-09
1.90427e-09
1.47032e-09
1.07625e-09
7.18617e-10
3.89598e-10
2.74991e-12
1.05764e-14
1.04367e-14
2.71417e-12
3.84725e-10
7.09884e-10
1.06364e-09
1.45391e-09
1.8843e-09
2.35363e-09
2.85573e-09
3.37969e-09
3.9105e-09
4.42997e-09
4.91795e-09
5.35371e-09
5.71751e-09
5.99204e-09
6.16379e-09
6.22413e-09
6.16999e-09
6.00409e-09
5.73478e-09
5.37529e-09
4.94272e-09
4.45673e-09
3.938e-09
3.40673e-09
2.88124e-09
2.37671e-09
1.90427e-09
1.47032e-09
1.07625e-09
7.18617e-10
3.89598e-10
2.74991e-12
1.05764e-14
1.04367e-14
2.71417e-12
3.84725e-10
7.09884e-10
1.06364e-09
1.45391e-09
1.8843e-09
2.35363e-09
2.85573e-09
3.37969e-09
3.9105e-09
4.42997e-09
4.91795e-09
5.35371e-09
5.71751e-09
5.99204e-09
6.16379e-09
6.22413e-09
6.16999e-09
6.00409e-09
5.73478e-09
5.37529e-09
4.94272e-09
4.45673e-09
3.938e-09
3.40673e-09
2.88124e-09
2.37671e-09
1.90427e-09
1.47032e-09
1.07625e-09
7.18617e-10
3.89598e-10
2.74991e-12
1.05764e-14
1.04367e-14
2.71417e-12
3.84725e-10
7.09884e-10
1.06364e-09
1.45391e-09
1.8843e-09
2.35363e-09
2.85573e-09
3.37969e-09
3.9105e-09
4.42997e-09
4.91795e-09
5.35371e-09
5.71751e-09
5.99204e-09
6.16379e-09
6.22413e-09
6.16999e-09
6.00409e-09
5.73478e-09
5.37529e-09
4.94272e-09
4.45673e-09
3.938e-09
3.40673e-09
2.88124e-09
2.37671e-09
1.90427e-09
1.47032e-09
1.07625e-09
7.18617e-10
3.89598e-10
2.74991e-12
1.05764e-14
1.04367e-14
2.71417e-12
3.84725e-10
7.09884e-10
1.06364e-09
1.45391e-09
1.8843e-09
2.35363e-09
2.85573e-09
3.37969e-09
3.9105e-09
4.42997e-09
4.91795e-09
5.35371e-09
5.71751e-09
5.99204e-09
6.16379e-09
6.22413e-09
6.16999e-09
6.00409e-09
5.73478e-09
5.37529e-09
4.94272e-09
4.45673e-09
3.938e-09
3.40673e-09
2.88124e-09
2.37671e-09
1.90427e-09
1.47032e-09
1.07625e-09
7.18617e-10
3.89598e-10
2.74991e-12
1.05764e-14
1.04367e-14
2.71417e-12
3.84725e-10
7.09884e-10
1.06364e-09
1.45391e-09
1.8843e-09
2.35363e-09
2.85573e-09
3.37969e-09
3.9105e-09
4.42997e-09
4.91795e-09
5.35371e-09
5.71751e-09
5.99204e-09
6.16379e-09
6.22413e-09
6.16999e-09
6.00409e-09
5.73478e-09
5.37529e-09
4.94272e-09
4.45673e-09
3.938e-09
3.40673e-09
2.88124e-09
2.37671e-09
1.90427e-09
1.47032e-09
1.07625e-09
7.18617e-10
3.89598e-10
2.74991e-12
1.05764e-14
1.04367e-14
2.71417e-12
3.84725e-10
7.09884e-10
1.06364e-09
1.45391e-09
1.8843e-09
2.35363e-09
2.85573e-09
3.37969e-09
3.9105e-09
4.42997e-09
4.91795e-09
5.35371e-09
5.71751e-09
5.99204e-09
6.16379e-09
6.22413e-09
6.16999e-09
6.00409e-09
5.73478e-09
5.37529e-09
4.94272e-09
4.45673e-09
3.938e-09
3.40673e-09
2.88124e-09
2.37671e-09
1.90427e-09
1.47032e-09
1.07625e-09
7.18617e-10
3.89598e-10
2.74991e-12
1.05764e-14
1.04367e-14
2.71417e-12
3.84725e-10
7.09884e-10
1.06364e-09
1.45391e-09
1.8843e-09
2.35363e-09
2.85573e-09
3.37969e-09
3.9105e-09
4.42997e-09
4.91795e-09
5.35371e-09
5.71751e-09
5.99204e-09
6.16379e-09
6.22413e-09
6.16999e-09
6.00409e-09
5.73478e-09
5.37529e-09
4.94272e-09
4.45673e-09
3.938e-09
3.40673e-09
2.88124e-09
2.37671e-09
1.90427e-09
1.47032e-09
1.07625e-09
7.18617e-10
3.89598e-10
2.74991e-12
1.05764e-14
1.04367e-14
2.71417e-12
3.84725e-10
7.09884e-10
1.06364e-09
1.45391e-09
1.8843e-09
2.35363e-09
2.85573e-09
3.37969e-09
3.9105e-09
4.42997e-09
4.91795e-09
5.35371e-09
5.71751e-09
5.99204e-09
6.16379e-09
6.22413e-09
6.16999e-09
6.00409e-09
5.73478e-09
5.37529e-09
4.94272e-09
4.45673e-09
3.938e-09
3.40673e-09
2.88124e-09
2.37671e-09
1.90427e-09
1.47032e-09
1.07625e-09
7.18617e-10
3.89598e-10
2.74991e-12
1.05764e-14
1.04367e-14
2.71417e-12
3.84725e-10
7.09884e-10
1.06364e-09
1.45391e-09
1.8843e-09
2.35363e-09
2.85573e-09
3.37969e-09
3.9105e-09
4.42997e-09
4.91795e-09
5.35371e-09
5.71751e-09
5.99204e-09
6.16379e-09
6.22413e-09
6.16999e-09
6.00409e-09
5.73478e-09
5.37529e-09
4.94272e-09
4.45673e-09
3.938e-09
3.40673e-09
2.88124e-09
2.37671e-09
1.90427e-09
1.47032e-09
1.07625e-09
7.18617e-10
3.89598e-10
2.74991e-12
1.05764e-14
1.04367e-14
2.71417e-12
3.84725e-10
7.09884e-10
1.06364e-09
1.45391e-09
1.8843e-09
2.35363e-09
2.85573e-09
3.37969e-09
3.9105e-09
4.42997e-09
4.91795e-09
5.35371e-09
5.71751e-09
5.99204e-09
6.16379e-09
6.22413e-09
6.16999e-09
6.00409e-09
5.73478e-09
5.37529e-09
4.94272e-09
4.45673e-09
3.938e-09
3.40673e-09
2.88124e-09
2.37671e-09
1.90427e-09
1.47032e-09
1.07625e-09
7.18617e-10
3.89598e-10
2.74991e-12
1.05764e-14
1.04367e-14
2.71417e-12
3.84725e-10
7.09884e-10
1.06364e-09
1.45391e-09
1.8843e-09
2.35363e-09
2.85573e-09
3.37969e-09
3.9105e-09
4.42997e-09
4.91795e-09
5.35371e-09
5.71751e-09
5.99204e-09
6.16379e-09
6.22413e-09
6.16999e-09
6.00409e-09
5.73478e-09
5.37529e-09
4.94272e-09
4.45673e-09
3.938e-09
3.40673e-09
2.88124e-09
2.37671e-09
1.90427e-09
1.47032e-09
1.07625e-09
7.18617e-10
3.89598e-10
2.74991e-12
1.05764e-14
1.04367e-14
2.71417e-12
3.84725e-10
7.09884e-10
1.06364e-09
1.45391e-09
1.8843e-09
2.35363e-09
2.85573e-09
3.37969e-09
3.9105e-09
4.42997e-09
4.91795e-09
5.35371e-09
5.71751e-09
5.99204e-09
6.16379e-09
6.22413e-09
6.16999e-09
6.00409e-09
5.73478e-09
5.37529e-09
4.94272e-09
4.45673e-09
3.938e-09
3.40673e-09
2.88124e-09
2.37671e-09
1.90427e-09
1.47032e-09
1.07625e-09
7.18617e-10
3.89598e-10
2.74991e-12
1.05764e-14
1.04367e-14
2.71417e-12
3.84725e-10
7.09884e-10
1.06364e-09
1.45391e-09
1.8843e-09
2.35363e-09
2.85573e-09
3.37969e-09
3.9105e-09
4.42997e-09
4.91795e-09
5.35371e-09
5.71751e-09
5.99204e-09
6.16379e-09
6.22413e-09
6.16999e-09
6.00409e-09
5.73478e-09
5.37529e-09
4.94272e-09
4.45673e-09
3.938e-09
3.40673e-09
2.88124e-09
2.37671e-09
1.90427e-09
1.47032e-09
1.07625e-09
7.18617e-10
3.89598e-10
2.74991e-12
1.05764e-14
1.04367e-14
2.71417e-12
3.84725e-10
7.09884e-10
1.06364e-09
1.45391e-09
1.8843e-09
2.35363e-09
2.85573e-09
3.37969e-09
3.9105e-09
4.42997e-09
4.91795e-09
5.35371e-09
5.71751e-09
5.99204e-09
6.16379e-09
6.22413e-09
6.16999e-09
6.00409e-09
5.73478e-09
5.37529e-09
4.94272e-09
4.45673e-09
3.938e-09
3.40673e-09
2.88124e-09
2.37671e-09
1.90427e-09
1.47032e-09
1.07625e-09
7.18617e-10
3.89598e-10
2.74991e-12
1.05764e-14
1.04367e-14
2.71417e-12
3.84725e-10
7.09884e-10
1.06364e-09
1.45391e-09
1.8843e-09
2.35363e-09
2.85573e-09
3.37969e-09
3.9105e-09
4.42997e-09
4.91795e-09
5.35371e-09
5.71751e-09
5.99204e-09
6.16379e-09
6.22413e-09
6.16999e-09
6.00409e-09
5.73478e-09
5.37529e-09
4.94272e-09
4.45673e-09
3.938e-09
3.40673e-09
2.88124e-09
2.37671e-09
1.90427e-09
1.47032e-09
1.07625e-09
7.18617e-10
3.89598e-10
2.74991e-12
1.05764e-14
1.04367e-14
2.71417e-12
3.84725e-10
7.09884e-10
1.06364e-09
1.45391e-09
1.8843e-09
2.35363e-09
2.85573e-09
3.37969e-09
3.9105e-09
4.42997e-09
4.91795e-09
5.35371e-09
5.71751e-09
5.99204e-09
6.16379e-09
6.22413e-09
6.16999e-09
6.00409e-09
5.73478e-09
5.37529e-09
4.94272e-09
4.45673e-09
3.938e-09
3.40673e-09
2.88124e-09
2.37671e-09
1.90427e-09
1.47032e-09
1.07625e-09
7.18617e-10
3.89598e-10
2.74991e-12
1.05764e-14
1.04367e-14
2.71417e-12
3.84725e-10
7.09884e-10
1.06364e-09
1.45391e-09
1.8843e-09
2.35363e-09
2.85573e-09
3.37969e-09
3.9105e-09
4.42997e-09
4.91795e-09
5.35371e-09
5.71751e-09
5.99204e-09
6.16379e-09
6.22413e-09
6.16999e-09
6.00409e-09
5.73478e-09
5.37529e-09
4.94272e-09
4.45673e-09
3.938e-09
3.40673e-09
2.88124e-09
2.37671e-09
1.90427e-09
1.47032e-09
1.07625e-09
7.18617e-10
3.89598e-10
2.74991e-12
1.05764e-14
1.04367e-14
2.71417e-12
3.84725e-10
7.09884e-10
1.06364e-09
1.45391e-09
1.8843e-09
2.35363e-09
2.85573e-09
3.37969e-09
3.9105e-09
4.42997e-09
4.91795e-09
5.35371e-09
5.71751e-09
5.99204e-09
6.16379e-09
6.22413e-09
6.16999e-09
6.00409e-09
5.73478e-09
5.37529e-09
4.94272e-09
4.45673e-09
3.938e-09
3.40673e-09
2.88124e-09
2.37671e-09
1.90427e-09
1.47032e-09
1.07625e-09
7.18617e-10
3.89598e-10
2.74991e-12
1.05764e-14
1.04367e-14
2.71417e-12
3.84725e-10
7.09884e-10
1.06364e-09
1.45391e-09
1.8843e-09
2.35363e-09
2.85573e-09
3.37969e-09
3.9105e-09
4.42997e-09
4.91795e-09
5.35371e-09
5.71751e-09
5.99204e-09
6.16379e-09