/*--------------------------------*- C++ -*----------------------------------*\
  =========                 |
  \\      /  F ield         | OpenFOAM: The Open Source CFD Toolbox
   \\    /   O peration     | Website:  https://openfoam.org
    \\  /    A nd           | Version:  13
     \\/     M anipulation  |
\*---------------------------------------------------------------------------*/
FoamFile
{
    format      ascii;
    class       volScalarField;
    location    "450";
    object      k;
}
// * * * * * * * * * * * * * * * * * * * * * * * * * * * * * * * * * * * * * //

dimensions      [0 2 -2 0 0 0 0];

internalField   nonuniform List<scalar> 
78750
(
2.22045e-16
2.22045e-16
2.22045e-16
2.22045e-16
2.22045e-16
2.22045e-16
2.22045e-16
2.22045e-16
2.22045e-16
2.22045e-16
2.22045e-16
2.22045e-16
2.22045e-16
2.22045e-16
2.22045e-16
2.22045e-16
2.22045e-16
2.22045e-16
2.22045e-16
2.22045e-16
2.22045e-16
2.22045e-16
2.22045e-16
2.22045e-16
2.22045e-16
2.22045e-16
2.22045e-16
2.22045e-16
2.22045e-16
2.22045e-16
2.22045e-16
2.22045e-16
2.22045e-16
2.22045e-16
2.22045e-16
2.22045e-16
2.22045e-16
2.22045e-16
2.22045e-16
2.22045e-16
2.22045e-16
2.22045e-16
2.22045e-16
2.22045e-16
2.22045e-16
2.22045e-16
2.22045e-16
2.22045e-16
2.22045e-16
2.22045e-16
2.22045e-16
2.22045e-16
2.22045e-16
2.22045e-16
2.22045e-16
2.22045e-16
2.22045e-16
2.22045e-16
2.22045e-16
2.22045e-16
2.22045e-16
2.22045e-16
2.22045e-16
2.22045e-16
2.22045e-16
2.22045e-16
2.22045e-16
2.22045e-16
2.22045e-16
2.22045e-16
2.22045e-16
2.22045e-16
2.22045e-16
2.22045e-16
2.22045e-16
2.22045e-16
2.33277e-16
2.65376e-16
3.0431e-16
3.47432e-16
3.92422e-16
4.37102e-16
4.79379e-16
5.1728e-16
5.49011e-16
5.73043e-16
5.8819e-16
5.93688e-16
5.8926e-16
5.75135e-16
5.52024e-16
5.21064e-16
4.83746e-16
4.41835e-16
3.97287e-16
3.52187e-16
3.08705e-16
2.69139e-16
2.36052e-16
2.22045e-16
2.22045e-16
2.22045e-16
2.22045e-16
2.22045e-16
2.22045e-16
2.22045e-16
2.22045e-16
2.22045e-16
2.22045e-16
2.50778e-16
3.09742e-16
3.809e-16
4.62242e-16
5.51457e-16
6.45764e-16
7.41898e-16
8.36212e-16
9.24853e-16
1.00398e-15
1.07003e-15
1.1199e-15
1.15122e-15
1.16246e-15
1.15307e-15
1.12351e-15
1.0752e-15
1.01045e-15
9.32296e-16
8.44268e-16
7.50195e-16
6.53944e-16
5.59194e-16
4.69257e-16
3.86967e-16
3.14654e-16
2.54198e-16
2.22045e-16
2.22045e-16
2.22045e-16
2.22045e-16
2.22045e-16
2.22045e-16
2.22045e-16
2.56501e-16
3.43445e-16
4.46007e-16
5.63325e-16
6.93782e-16
8.34765e-16
9.82597e-16
1.13263e-15
1.27949e-15
1.41733e-15
1.54031e-15
1.6429e-15
1.72033e-15
1.76888e-15
1.7862e-15
1.77143e-15
1.72529e-15
1.65002e-15
1.54921e-15
1.42756e-15
1.29055e-15
1.14403e-15
9.93833e-16
8.454e-16
7.03443e-16
5.7172e-16
4.52928e-16
3.48765e-16
2.60093e-16
2.22045e-16
2.22045e-16
2.22045e-16
2.22045e-16
2.22045e-16
2.22045e-16
3.14803e-16
4.40607e-16
5.83904e-16
7.44732e-16
9.21752e-16
1.112e-15
1.31089e-15
1.5124e-15
1.70944e-15
1.8943e-15
2.05915e-15
2.19662e-15
2.30033e-15
2.3653e-15
2.38839e-15
2.36844e-15
2.30644e-15
2.20538e-15
2.07009e-15
1.90688e-15
1.72306e-15
1.52642e-15
1.32471e-15
1.12508e-15
9.33655e-16
7.55108e-16
5.92512e-16
4.47283e-16
3.19378e-16
2.22045e-16
2.22045e-16
2.22045e-16
2.22045e-16
2.22045e-16
2.34252e-16
3.74772e-16
5.33103e-16
7.11498e-16
9.10592e-16
1.12904e-15
1.36339e-15
1.6081e-15
1.85588e-15
2.09805e-15
2.32517e-15
2.52766e-15
2.69649e-15
2.8238e-15
2.90353e-15
2.93177e-15
2.90715e-15
2.83086e-15
2.70659e-15
2.54029e-15
2.33969e-15
2.11375e-15
1.87204e-15
1.62404e-15
1.37846e-15
1.14275e-15
9.22526e-16
7.214e-16
5.40831e-16
3.80286e-16
2.37535e-16
2.22045e-16
2.22045e-16
2.22045e-16
2.22045e-16
2.61947e-16
4.2767e-16
6.13235e-16
8.21473e-16
1.05328e-15
1.30723e-15
1.57937e-15
1.86338e-15
2.15082e-15
2.43168e-15
2.69504e-15
2.92981e-15
3.12553e-15
3.2731e-15
3.36547e-15
3.39813e-15
3.36948e-15
3.2809e-15
3.13671e-15
2.94379e-15
2.7111e-15
2.44904e-15
2.16868e-15
1.88098e-15
1.59602e-15
1.32234e-15
1.06643e-15
8.3236e-16
6.21702e-16
4.33667e-16
2.65482e-16
2.22045e-16
2.22045e-16
2.22045e-16
2.22045e-16
2.8469e-16
4.71073e-16
6.78956e-16
9.11649e-16
1.17027e-15
1.45329e-15
1.7564e-15
2.0726e-15
2.39253e-15
2.70509e-15
2.99815e-15
3.25938e-15
3.47715e-15
3.64132e-15
3.74405e-15
3.78033e-15
3.74835e-15
3.64969e-15
3.48914e-15
3.27438e-15
3.01538e-15
2.72371e-15
2.41168e-15
2.09145e-15
1.77423e-15
1.46946e-15
1.18432e-15
9.23272e-16
6.87975e-16
4.77434e-16
2.88406e-16
2.22045e-16
2.22045e-16
2.22045e-16
2.22045e-16
3.02498e-16
5.05055e-16
7.30409e-16
9.82244e-16
1.26184e-15
1.56762e-15
1.89497e-15
2.23636e-15
2.58173e-15
2.91911e-15
3.23542e-15
3.51736e-15
3.75238e-15
3.92956e-15
4.0404e-15
4.07949e-15
4.04491e-15
3.93834e-15
3.76497e-15
3.53309e-15
3.25348e-15
2.93862e-15
2.6018e-15
2.25612e-15
1.91364e-15
1.58456e-15
1.27655e-15
9.9439e-16
7.39817e-16
5.1167e-16
3.06337e-16
2.22045e-16
2.22045e-16
2.22045e-16
2.22045e-16
3.15809e-16
5.30453e-16
7.68864e-16
1.035e-15
1.33028e-15
1.65307e-15
1.99852e-15
2.35874e-15
2.72311e-15
3.07904e-15
3.41273e-15
3.71016e-15
3.95808e-15
4.14496e-15
4.26186e-15
4.30306e-15
4.26652e-15
4.15403e-15
3.97106e-15
3.72637e-15
3.43136e-15
3.09917e-15
2.74381e-15
2.37911e-15
2.01777e-15
1.67051e-15
1.34542e-15
1.0475e-15
7.7853e-16
5.37235e-16
3.19726e-16
2.22045e-16
2.22045e-16
2.22045e-16
2.22045e-16
3.25303e-16
5.4857e-16
7.96293e-16
1.07263e-15
1.37909e-15
1.71401e-15
2.07238e-15
2.44602e-15
2.82396e-15
3.19311e-15
3.53919e-15
3.84766e-15
4.10479e-15
4.2986e-15
4.41982e-15
4.46251e-15
4.42457e-15
4.30784e-15
4.11802e-15
3.8642e-15
3.55818e-15
3.21363e-15
2.84505e-15
2.46679e-15
2.09199e-15
1.73178e-15
1.39451e-15
1.08535e-15
8.06119e-16
5.55454e-16
3.29267e-16
2.22045e-16
2.22045e-16
2.22045e-16
2.22045e-16
3.31767e-16
5.60903e-16
8.14965e-16
1.09825e-15
1.41232e-15
1.75549e-15
2.12266e-15
2.50544e-15
2.8926e-15
3.27076e-15
3.62528e-15
3.94127e-15
4.20466e-15
4.40318e-15
4.52734e-15
4.57104e-15
4.53214e-15
4.41253e-15
4.21805e-15
3.958e-15
3.64449e-15
3.29152e-15
2.91394e-15
2.52644e-15
2.14249e-15
1.77346e-15
1.42791e-15
1.1111e-15
8.24886e-16
5.67845e-16
3.35756e-16
2.22045e-16
2.22045e-16
2.22045e-16
2.22045e-16
3.35969e-16
5.68919e-16
8.27102e-16
1.1149e-15
1.43392e-15
1.78246e-15
2.15534e-15
2.54406e-15
2.93722e-15
3.32124e-15
3.68124e-15
4.00212e-15
4.26957e-15
4.47116e-15
4.59722e-15
4.64158e-15
4.60205e-15
4.48057e-15
4.28304e-15
4.01895e-15
3.70057e-15
3.34212e-15
2.9587e-15
2.56519e-15
2.1753e-15
1.80054e-15
1.44959e-15
1.12782e-15
8.37073e-16
5.75892e-16
3.3997e-16
2.22045e-16
2.22045e-16
2.22045e-16
2.22045e-16
3.38578e-16
5.73898e-16
8.34639e-16
1.12524e-15
1.44733e-15
1.7992e-15
2.17564e-15
2.56805e-15
2.96493e-15
3.35258e-15
3.71599e-15
4.0399e-15
4.30988e-15
4.51337e-15
4.64062e-15
4.68539e-15
4.64547e-15
4.52281e-15
4.3234e-15
4.05679e-15
3.73539e-15
3.37354e-15
2.98648e-15
2.58925e-15
2.19566e-15
1.81734e-15
1.46305e-15
1.1382e-15
8.44635e-16
5.80885e-16
3.42584e-16
2.22045e-16
2.22045e-16
2.22045e-16
2.22045e-16
3.40128e-16
5.76854e-16
8.39115e-16
1.13138e-15
1.4553e-15
1.80915e-15
2.18769e-15
2.58229e-15
2.98139e-15
3.3712e-15
3.73663e-15
4.06234e-15
4.33382e-15
4.53844e-15
4.66639e-15
4.7114e-15
4.67125e-15
4.5479e-15
4.34737e-15
4.07926e-15
3.75606e-15
3.39219e-15
3.00297e-15
2.60353e-15
2.20774e-15
1.82731e-15
1.47104e-15
1.14435e-15
8.49123e-16
5.83848e-16
3.44135e-16
2.22045e-16
2.22045e-16
2.22045e-16
2.22045e-16
3.41009e-16
5.78535e-16
8.41661e-16
1.13488e-15
1.45983e-15
1.8148e-15
2.19455e-15
2.59039e-15
2.99075e-15
3.38178e-15
3.74837e-15
4.0751e-15
4.34744e-15
4.5527e-15
4.68104e-15
4.72619e-15
4.68591e-15
4.56216e-15
4.36099e-15
4.09204e-15
3.76781e-15
3.40279e-15
3.01235e-15
2.61164e-15
2.21461e-15
1.83298e-15
1.47558e-15
1.14785e-15
8.51672e-16
5.85531e-16
3.45016e-16
2.22045e-16
2.22045e-16
2.22045e-16
2.22045e-16
3.41489e-16
5.79451e-16
8.43047e-16
1.13678e-15
1.4623e-15
1.81789e-15
2.19828e-15
2.59481e-15
2.99585e-15
3.38755e-15
3.75476e-15
4.08206e-15
4.35485e-15
4.56047e-15
4.68903e-15
4.73425e-15
4.69389e-15
4.56993e-15
4.36841e-15
4.099e-15
3.77422e-15
3.40857e-15
3.01745e-15
2.61606e-15
2.21835e-15
1.83607e-15
1.47805e-15
1.14976e-15
8.5306e-16
5.86447e-16
3.45496e-16
2.22045e-16
2.22045e-16
2.22045e-16
2.22045e-16
3.4174e-16
5.7993e-16
8.43772e-16
1.13777e-15
1.46359e-15
1.8195e-15
2.20023e-15
2.59712e-15
2.99852e-15
3.39057e-15
3.7581e-15
4.08569e-15
4.35873e-15
4.56453e-15
4.6932e-15
4.73846e-15
4.69807e-15
4.57399e-15
4.37229e-15
4.10263e-15
3.77756e-15
3.41159e-15
3.02012e-15
2.61837e-15
2.2203e-15
1.83768e-15
1.47935e-15
1.15075e-15
8.53785e-16
5.86926e-16
3.45746e-16
2.22045e-16
2.22045e-16
2.22045e-16
2.22045e-16
3.41866e-16
5.80171e-16
8.44136e-16
1.13827e-15
1.46423e-15
1.82031e-15
2.20121e-15
2.59827e-15
2.99985e-15
3.39208e-15
3.75978e-15
4.08752e-15
4.36068e-15
4.56657e-15
4.6953e-15
4.74058e-15
4.70016e-15
4.57603e-15
4.37424e-15
4.10446e-15
3.77924e-15
3.4131e-15
3.02146e-15
2.61953e-15
2.22128e-15
1.83849e-15
1.47999e-15
1.15125e-15
8.54149e-16
5.87166e-16
3.45872e-16
2.22045e-16
2.22045e-16
2.22045e-16
2.22045e-16
3.41927e-16
5.80287e-16
8.44312e-16
1.13851e-15
1.46455e-15
1.8207e-15
2.20169e-15
2.59883e-15
3.0005e-15
3.39281e-15
3.76059e-15
4.0884e-15
4.36162e-15
4.56755e-15
4.69631e-15
4.7416e-15
4.70118e-15
4.57702e-15
4.37518e-15
4.10534e-15
3.78005e-15
3.41384e-15
3.02211e-15
2.62009e-15
2.22176e-15
1.83888e-15
1.48031e-15
1.15149e-15
8.54325e-16
5.87282e-16
3.45932e-16
2.22045e-16
2.22045e-16
2.22045e-16
2.22045e-16
3.41955e-16
5.80341e-16
8.44394e-16
1.13863e-15
1.46469e-15
1.82088e-15
2.20191e-15
2.59909e-15
3.0008e-15
3.39316e-15
3.76097e-15
4.08881e-15
4.36206e-15
4.56801e-15
4.69678e-15
4.74208e-15
4.70165e-15
4.57748e-15
4.37562e-15
4.10575e-15
3.78043e-15
3.41418e-15
3.02241e-15
2.62035e-15
2.22198e-15
1.83906e-15
1.48045e-15
1.15161e-15
8.54407e-16
5.87336e-16
3.45961e-16
2.22045e-16
2.22045e-16
2.22045e-16
2.22045e-16
3.41968e-16
5.80365e-16
8.4443e-16
1.13868e-15
1.46476e-15
1.82096e-15
2.20201e-15
2.59921e-15
3.00094e-15
3.39331e-15
3.76114e-15
4.08899e-15
4.36226e-15
4.56821e-15
4.69699e-15
4.74229e-15
4.70186e-15
4.57768e-15
4.37582e-15
4.10594e-15
3.7806e-15
3.41433e-15
3.02254e-15
2.62047e-15
2.22208e-15
1.83914e-15
1.48052e-15
1.15166e-15
8.54443e-16
5.8736e-16
3.45973e-16
2.22045e-16
2.22045e-16
2.22045e-16
2.22045e-16
3.41973e-16
5.80375e-16
8.44446e-16
1.1387e-15
1.46479e-15
1.82099e-15
2.20205e-15
2.59926e-15
3.00099e-15
3.39337e-15
3.76121e-15
4.08907e-15
4.36234e-15
4.5683e-15
4.69708e-15
4.74238e-15
4.70195e-15
4.57777e-15
4.3759e-15
4.10602e-15
3.78067e-15
3.41439e-15
3.0226e-15
2.62052e-15
2.22212e-15
1.83918e-15
1.48055e-15
1.15168e-15
8.54459e-16
5.8737e-16
3.45979e-16
2.22045e-16
2.22045e-16
2.22045e-16
2.22045e-16
3.41975e-16
5.8038e-16
8.44453e-16
1.13871e-15
1.4648e-15
1.82101e-15
2.20207e-15
2.59928e-15
3.00102e-15
3.3934e-15
3.76125e-15
4.08911e-15
4.36238e-15
4.56834e-15
4.69712e-15
4.74242e-15
4.70199e-15
4.57781e-15
4.37594e-15
4.10605e-15
3.7807e-15
3.41442e-15
3.02263e-15
2.62054e-15
2.22214e-15
1.83919e-15
1.48056e-15
1.15169e-15
8.54466e-16
5.87374e-16
3.45981e-16
2.22045e-16
2.22045e-16
2.22045e-16
2.22045e-16
3.41976e-16
5.80382e-16
8.44456e-16
1.13871e-15
1.4648e-15
1.82102e-15
2.20207e-15
2.59929e-15
3.00103e-15
3.39341e-15
3.76126e-15
4.08912e-15
4.36239e-15
4.56836e-15
4.69714e-15
4.74244e-15
4.702e-15
4.57782e-15
4.37595e-15
4.10606e-15
3.78072e-15
3.41443e-15
3.02264e-15
2.62055e-15
2.22215e-15
1.8392e-15
1.48056e-15
1.15169e-15
8.54468e-16
5.87376e-16
3.45982e-16
2.22045e-16
2.22045e-16
2.22045e-16
2.22045e-16
3.41977e-16
5.80382e-16
8.44457e-16
1.13871e-15
1.4648e-15
1.82102e-15
2.20208e-15
2.5993e-15
3.00103e-15
3.39342e-15
3.76126e-15
4.08912e-15
4.3624e-15
4.56836e-15
4.69714e-15
4.74244e-15
4.70201e-15
4.57783e-15
4.37596e-15
4.10607e-15
3.78072e-15
3.41444e-15
3.02264e-15
2.62055e-15
2.22215e-15
1.8392e-15
1.48056e-15
1.15169e-15
8.54469e-16
5.87377e-16
3.45982e-16
2.22045e-16
2.22045e-16
2.22045e-16
2.22045e-16
3.41977e-16
5.80383e-16
8.44457e-16
1.13871e-15
1.46481e-15
1.82102e-15
2.20208e-15
2.5993e-15
3.00103e-15
3.39342e-15
3.76126e-15
4.08913e-15
4.3624e-15
4.56836e-15
4.69715e-15
4.74244e-15
4.70201e-15
4.57783e-15
4.37596e-15
4.10607e-15
3.78072e-15
3.41444e-15
3.02264e-15
2.62056e-15
2.22215e-15
1.8392e-15
1.48056e-15
1.15169e-15
8.5447e-16
5.87377e-16
3.45982e-16
2.22045e-16
2.22045e-16
2.22045e-16
2.22045e-16
3.41977e-16
5.80383e-16
8.44457e-16
1.13871e-15
1.46481e-15
1.82102e-15
2.20208e-15
2.5993e-15
3.00104e-15
3.39342e-15
3.76126e-15
4.08913e-15
4.3624e-15
4.56836e-15
4.69715e-15
4.74245e-15
4.70201e-15
4.57783e-15
4.37596e-15
4.10607e-15
3.78072e-15
3.41444e-15
3.02264e-15
2.62056e-15
2.22215e-15
1.8392e-15
1.48056e-15
1.15169e-15
8.5447e-16
5.87377e-16
3.45982e-16
2.22045e-16
2.22045e-16
2.22045e-16
2.22045e-16
3.41977e-16
5.80383e-16
8.44457e-16
1.13871e-15
1.46481e-15
1.82102e-15
2.20208e-15
2.5993e-15
3.00104e-15
3.39342e-15
3.76127e-15
4.08913e-15
4.3624e-15
4.56836e-15
4.69715e-15
4.74245e-15
4.70201e-15
4.57783e-15
4.37596e-15
4.10607e-15
3.78072e-15
3.41444e-15
3.02264e-15
2.62056e-15
2.22215e-15
1.8392e-15
1.48057e-15
1.15169e-15
8.5447e-16
5.87377e-16
3.45982e-16
2.22045e-16
2.22045e-16
2.22045e-16
2.22045e-16
3.41977e-16
5.80383e-16
8.44457e-16
1.13871e-15
1.46481e-15
1.82102e-15
2.20208e-15
2.5993e-15
3.00104e-15
3.39342e-15
3.76127e-15
4.08913e-15
4.3624e-15
4.56837e-15
4.69715e-15
4.74245e-15
4.70201e-15
4.57783e-15
4.37596e-15
4.10607e-15
3.78072e-15
3.41444e-15
3.02264e-15
2.62056e-15
2.22215e-15
1.8392e-15
1.48057e-15
1.15169e-15
8.5447e-16
5.87377e-16
3.45982e-16
2.22045e-16
2.22045e-16
2.22045e-16
2.22045e-16
3.41977e-16
5.80383e-16
8.44457e-16
1.13871e-15
1.46481e-15
1.82102e-15
2.20208e-15
2.5993e-15
3.00104e-15
3.39342e-15
3.76127e-15
4.08913e-15
4.3624e-15
4.56837e-15
4.69715e-15
4.74245e-15
4.70201e-15
4.57783e-15
4.37596e-15
4.10607e-15
3.78072e-15
3.41444e-15
3.02264e-15
2.62056e-15
2.22215e-15
1.8392e-15
1.48057e-15
1.15169e-15
8.5447e-16
5.87377e-16
3.45982e-16
2.22045e-16
2.22045e-16
2.22045e-16
2.22045e-16
3.41977e-16
5.80383e-16
8.44457e-16
1.13871e-15
1.46481e-15
1.82102e-15
2.20208e-15
2.5993e-15
3.00104e-15
3.39342e-15
3.76127e-15
4.08913e-15
4.3624e-15
4.56837e-15
4.69715e-15
4.74245e-15
4.70201e-15
4.57783e-15
4.37596e-15
4.10607e-15
3.78072e-15
3.41444e-15
3.02264e-15
2.62056e-15
2.22215e-15
1.8392e-15
1.48057e-15
1.15169e-15
8.5447e-16
5.87377e-16
3.45982e-16
2.22045e-16
2.22045e-16
2.22045e-16
2.22045e-16
3.41977e-16
5.80383e-16
8.44457e-16
1.13871e-15
1.46481e-15
1.82102e-15
2.20208e-15
2.5993e-15
3.00104e-15
3.39342e-15
3.76127e-15
4.08913e-15
4.3624e-15
4.56837e-15
4.69715e-15
4.74245e-15
4.70201e-15
4.57783e-15
4.37596e-15
4.10607e-15
3.78072e-15
3.41444e-15
3.02264e-15
2.62056e-15
2.22215e-15
1.8392e-15
1.48057e-15
1.15169e-15
8.5447e-16
5.87377e-16
3.45982e-16
2.22045e-16
2.22045e-16
2.22045e-16
2.22045e-16
3.41977e-16
5.80383e-16
8.44457e-16
1.13871e-15
1.46481e-15
1.82102e-15
2.20208e-15
2.5993e-15
3.00104e-15
3.39342e-15
3.76127e-15
4.08913e-15
4.3624e-15
4.56837e-15
4.69715e-15
4.74245e-15
4.70201e-15
4.57783e-15
4.37596e-15
4.10607e-15
3.78072e-15
3.41444e-15
3.02264e-15
2.62056e-15
2.22215e-15
1.8392e-15
1.48057e-15
1.15169e-15
8.5447e-16
5.87377e-16
3.45982e-16
2.22045e-16
2.22045e-16
2.22045e-16
2.22045e-16
3.41977e-16
5.80383e-16
8.44457e-16
1.13871e-15
1.46481e-15
1.82102e-15
2.20208e-15
2.5993e-15
3.00104e-15
3.39342e-15
3.76127e-15
4.08913e-15
4.3624e-15
4.56837e-15
4.69715e-15
4.74245e-15
4.70201e-15
4.57783e-15
4.37596e-15
4.10607e-15
3.78072e-15
3.41444e-15
3.02264e-15
2.62056e-15
2.22215e-15
1.8392e-15
1.48057e-15
1.15169e-15
8.5447e-16
5.87377e-16
3.45982e-16
2.22045e-16
2.22045e-16
2.22045e-16
2.22045e-16
3.41977e-16
5.80383e-16
8.44457e-16
1.13871e-15
1.46481e-15
1.82102e-15
2.20208e-15
2.5993e-15
3.00104e-15
3.39342e-15
3.76127e-15
4.08913e-15
4.3624e-15
4.56837e-15
4.69715e-15
4.74245e-15
4.70201e-15
4.57783e-15
4.37596e-15
4.10607e-15
3.78072e-15
3.41444e-15
3.02264e-15
2.62056e-15
2.22215e-15
1.8392e-15
1.48057e-15
1.15169e-15
8.5447e-16
5.87377e-16
3.45982e-16
2.22045e-16
2.22045e-16
2.22045e-16
2.22045e-16
3.41977e-16
5.80383e-16
8.44457e-16
1.13871e-15
1.46481e-15
1.82102e-15
2.20208e-15
2.5993e-15
3.00104e-15
3.39342e-15
3.76127e-15
4.08913e-15
4.3624e-15
4.56837e-15
4.69715e-15
4.74245e-15
4.70201e-15
4.57783e-15
4.37596e-15
4.10607e-15
3.78072e-15
3.41444e-15
3.02264e-15
2.62056e-15
2.22215e-15
1.8392e-15
1.48057e-15
1.15169e-15
8.5447e-16
5.87377e-16
3.45982e-16
2.22045e-16
2.22045e-16
2.22045e-16
2.22045e-16
3.41977e-16
5.80383e-16
8.44457e-16
1.13871e-15
1.46481e-15
1.82102e-15
2.20208e-15
2.5993e-15
3.00104e-15
3.39342e-15
3.76127e-15
4.08913e-15
4.3624e-15
4.56837e-15
4.69715e-15
4.74245e-15
4.70201e-15
4.57783e-15
4.37596e-15
4.10607e-15
3.78072e-15
3.41444e-15
3.02264e-15
2.62056e-15
2.22215e-15
1.8392e-15
1.48057e-15
1.15169e-15
8.5447e-16
5.87377e-16
3.45982e-16
2.22045e-16
2.22045e-16
2.22045e-16
2.22045e-16
3.41977e-16
5.80383e-16
8.44457e-16
1.13871e-15
1.46481e-15
1.82102e-15
2.20208e-15
2.5993e-15
3.00104e-15
3.39342e-15
3.76127e-15
4.08913e-15
4.3624e-15
4.56837e-15
4.69715e-15
4.74245e-15
4.70201e-15
4.57783e-15
4.37596e-15
4.10607e-15
3.78072e-15
3.41444e-15
3.02264e-15
2.62056e-15
2.22215e-15
1.8392e-15
1.48057e-15
1.15169e-15
8.5447e-16
5.87377e-16
3.45982e-16
2.22045e-16
2.22045e-16
2.22045e-16
2.22045e-16
3.41977e-16
5.80383e-16
8.44457e-16
1.13871e-15
1.46481e-15
1.82102e-15
2.20208e-15
2.5993e-15
3.00104e-15
3.39342e-15
3.76127e-15
4.08913e-15
4.3624e-15
4.56837e-15
4.69715e-15
4.74245e-15
4.70201e-15
4.57783e-15
4.37596e-15
4.10607e-15
3.78072e-15
3.41444e-15
3.02264e-15
2.62056e-15
2.22215e-15
1.8392e-15
1.48057e-15
1.15169e-15
8.5447e-16
5.87377e-16
3.45982e-16
2.22045e-16
2.22045e-16
2.22045e-16
2.22045e-16
3.41977e-16
5.80383e-16
8.44457e-16
1.13871e-15
1.46481e-15
1.82102e-15
2.20208e-15
2.5993e-15
3.00104e-15
3.39342e-15
3.76127e-15
4.08913e-15
4.3624e-15
4.56837e-15
4.69715e-15
4.74245e-15
4.70201e-15
4.57783e-15
4.37596e-15
4.10607e-15
3.78072e-15
3.41444e-15
3.02264e-15
2.62056e-15
2.22215e-15
1.8392e-15
1.48057e-15
1.15169e-15
8.5447e-16
5.87377e-16
3.45982e-16
2.22045e-16
2.22045e-16
2.22045e-16
2.22045e-16
3.41977e-16
5.80383e-16
8.44457e-16
1.13871e-15
1.46481e-15
1.82102e-15
2.20208e-15
2.5993e-15
3.00104e-15
3.39342e-15
3.76127e-15
4.08913e-15
4.3624e-15
4.56837e-15
4.69715e-15
4.74245e-15
4.70201e-15
4.57783e-15
4.37596e-15
4.10607e-15
3.78072e-15
3.41444e-15
3.02264e-15
2.62056e-15
2.22215e-15
1.8392e-15
1.48057e-15
1.15169e-15
8.5447e-16
5.87377e-16
3.45982e-16
2.22045e-16
2.22045e-16
2.22045e-16
2.22045e-16
3.41977e-16
5.80383e-16
8.44457e-16
1.13871e-15
1.46481e-15
1.82102e-15
2.20208e-15
2.5993e-15
3.00104e-15
3.39342e-15
3.76127e-15
4.08913e-15
4.3624e-15
4.56837e-15
4.69715e-15
4.74245e-15
4.70201e-15
4.57783e-15
4.37596e-15
4.10607e-15
3.78072e-15
3.41444e-15
3.02264e-15
2.62056e-15
2.22215e-15
1.8392e-15
1.48057e-15
1.15169e-15
8.5447e-16
5.87377e-16
3.45982e-16
2.22045e-16
2.22045e-16
2.22045e-16
2.22045e-16
3.41977e-16
5.80383e-16
8.44457e-16
1.13871e-15
1.46481e-15
1.82102e-15
2.20208e-15
2.5993e-15
3.00104e-15
3.39342e-15
3.76127e-15
4.08913e-15
4.3624e-15
4.56837e-15
4.69715e-15
4.74245e-15
4.70201e-15
4.57783e-15
4.37596e-15
4.10607e-15
3.78072e-15
3.41444e-15
3.02264e-15
2.62056e-15
2.22215e-15
1.8392e-15
1.48057e-15
1.15169e-15
8.5447e-16
5.87377e-16
3.45982e-16
2.22045e-16
2.22045e-16
2.22045e-16
2.22045e-16
3.41977e-16
5.80383e-16
8.44457e-16
1.13871e-15
1.46481e-15
1.82102e-15
2.20208e-15
2.5993e-15
3.00104e-15
3.39342e-15
3.76127e-15
4.08913e-15
4.3624e-15
4.56837e-15
4.69715e-15
4.74245e-15
4.70201e-15
4.57783e-15
4.37596e-15
4.10607e-15
3.78072e-15
3.41444e-15
3.02264e-15
2.62056e-15
2.22215e-15
1.8392e-15
1.48057e-15
1.15169e-15
8.5447e-16
5.87377e-16
3.45982e-16
2.22045e-16
2.22045e-16
2.22045e-16
2.22045e-16
3.41977e-16
5.80383e-16
8.44457e-16
1.13871e-15
1.46481e-15
1.82102e-15
2.20208e-15
2.5993e-15
3.00104e-15
3.39342e-15
3.76127e-15
4.08913e-15
4.3624e-15
4.56837e-15
4.69715e-15
4.74245e-15
4.70201e-15
4.57783e-15
4.37596e-15
4.10607e-15
3.78072e-15
3.41444e-15
3.02264e-15
2.62056e-15
2.22215e-15
1.8392e-15
1.48057e-15
1.15169e-15
8.5447e-16
5.87377e-16
3.45982e-16
2.22045e-16
2.22045e-16
2.22045e-16
2.22045e-16
3.41977e-16
5.80383e-16
8.44457e-16
1.13871e-15
1.46481e-15
1.82102e-15
2.20208e-15
2.5993e-15
3.00104e-15
3.39342e-15
3.76127e-15
4.08913e-15
4.3624e-15
4.56837e-15
4.69715e-15
4.74245e-15
4.70201e-15
4.57783e-15
4.37596e-15
4.10607e-15
3.78072e-15
3.41444e-15
3.02264e-15
2.62056e-15
2.22215e-15
1.8392e-15
1.48057e-15
1.15169e-15
8.5447e-16
5.87377e-16
3.45982e-16
2.22045e-16
2.22045e-16
2.22045e-16
2.22045e-16
3.41977e-16
5.80383e-16
8.44457e-16
1.13871e-15
1.46481e-15
1.82102e-15
2.20208e-15
2.5993e-15
3.00104e-15
3.39342e-15
3.76127e-15
4.08913e-15
4.3624e-15
4.56837e-15
4.69715e-15
4.74245e-15
4.70201e-15
4.57783e-15
4.37596e-15
4.10607e-15
3.78072e-15
3.41444e-15
3.02264e-15
2.62056e-15
2.22215e-15
1.8392e-15
1.48057e-15
1.15169e-15
8.5447e-16
5.87377e-16
3.45982e-16
2.22045e-16
2.22045e-16
2.22045e-16
2.22045e-16
3.41977e-16
5.80383e-16
8.44457e-16
1.13871e-15
1.46481e-15
1.82102e-15
2.20208e-15
2.5993e-15
3.00104e-15
3.39342e-15
3.76127e-15
4.08913e-15
4.3624e-15
4.56837e-15
4.69715e-15
4.74245e-15
4.70201e-15
4.57783e-15
4.37596e-15
4.10607e-15
3.78072e-15
3.41444e-15
3.02264e-15
2.62056e-15
2.22215e-15
1.8392e-15
1.48057e-15
1.15169e-15
8.5447e-16
5.87377e-16
3.45982e-16
2.22045e-16
2.22045e-16
2.22045e-16
2.22045e-16
3.41977e-16
5.80383e-16
8.44457e-16
1.13871e-15
1.46481e-15
1.82102e-15
2.20208e-15
2.5993e-15
3.00104e-15
3.39342e-15
3.76127e-15
4.08913e-15
4.3624e-15
4.56837e-15
4.69715e-15
4.74245e-15
4.70201e-15
4.57783e-15
4.37596e-15
4.10607e-15
3.78072e-15
3.41444e-15
3.02264e-15
2.62056e-15
2.22215e-15
1.8392e-15
1.48057e-15
1.15169e-15
8.5447e-16
5.87377e-16
3.45982e-16
2.22045e-16
2.22045e-16
2.22045e-16
2.22045e-16
3.41977e-16
5.80383e-16
8.44457e-16
1.13871e-15
1.46481e-15
1.82102e-15
2.20208e-15
2.5993e-15
3.00104e-15
3.39342e-15
3.76127e-15
4.08913e-15
4.3624e-15
4.56837e-15
4.69715e-15
4.74245e-15
4.70201e-15
4.57783e-15
4.37596e-15
4.10607e-15
3.78072e-15
3.41444e-15
3.02264e-15
2.62056e-15
2.22215e-15
1.8392e-15
1.48057e-15
1.15169e-15
8.5447e-16
5.87377e-16
3.45982e-16
2.22045e-16
2.22045e-16
2.22045e-16
2.22045e-16
3.41977e-16
5.80383e-16
8.44457e-16
1.13871e-15
1.46481e-15
1.82102e-15
2.20208e-15
2.5993e-15
3.00104e-15
3.39342e-15
3.76127e-15
4.08913e-15
4.3624e-15
4.56837e-15
4.69715e-15
4.74245e-15
4.70201e-15
4.57783e-15
4.37596e-15
4.10607e-15
3.78072e-15
3.41444e-15
3.02264e-15
2.62056e-15
2.22215e-15
1.8392e-15
1.48057e-15
1.15169e-15
8.5447e-16
5.87377e-16
3.45982e-16
2.22045e-16
2.22045e-16
2.22045e-16
2.22045e-16
3.41977e-16
5.80383e-16
8.44457e-16
1.13871e-15
1.46481e-15
1.82102e-15
2.20208e-15
2.5993e-15
3.00104e-15
3.39342e-15
3.76127e-15
4.08913e-15
4.3624e-15
4.56837e-15
4.69715e-15
4.74245e-15
4.70201e-15
4.57783e-15
4.37596e-15
4.10607e-15
3.78072e-15
3.41444e-15
3.02264e-15
2.62056e-15
2.22215e-15
1.8392e-15
1.48057e-15
1.15169e-15
8.5447e-16
5.87377e-16
3.45982e-16
2.22045e-16
2.22045e-16
2.22045e-16
2.22045e-16
3.41977e-16
5.80383e-16
8.44457e-16
1.13871e-15
1.46481e-15
1.82102e-15
2.20208e-15
2.5993e-15
3.00104e-15
3.39342e-15
3.76127e-15
4.08913e-15
4.3624e-15
4.56837e-15
4.69715e-15
4.74245e-15
4.70201e-15
4.57783e-15
4.37596e-15
4.10607e-15
3.78072e-15
3.41444e-15
3.02264e-15
2.62056e-15
2.22215e-15
1.8392e-15
1.48057e-15
1.15169e-15
8.5447e-16
5.87377e-16
3.45982e-16
2.22045e-16
2.22045e-16
2.22045e-16
2.22045e-16
3.41977e-16
5.80383e-16
8.44457e-16
1.13871e-15
1.46481e-15
1.82102e-15
2.20208e-15
2.5993e-15
3.00104e-15
3.39342e-15
3.76127e-15
4.08913e-15
4.3624e-15
4.56837e-15
4.69715e-15
4.74245e-15
4.70201e-15
4.57783e-15
4.37596e-15
4.10607e-15
3.78072e-15
3.41444e-15
3.02264e-15
2.62056e-15
2.22215e-15
1.8392e-15
1.48057e-15
1.15169e-15
8.5447e-16
5.87377e-16
3.45982e-16
2.22045e-16
2.22045e-16
2.22045e-16
2.22045e-16
3.41977e-16
5.80383e-16
8.44457e-16
1.13871e-15
1.46481e-15
1.82102e-15
2.20208e-15
2.5993e-15
3.00104e-15
3.39342e-15
3.76127e-15
4.08913e-15
4.3624e-15
4.56837e-15
4.69715e-15
4.74245e-15
4.70201e-15
4.57783e-15
4.37596e-15
4.10607e-15
3.78072e-15
3.41444e-15
3.02264e-15
2.62056e-15
2.22215e-15
1.8392e-15
1.48057e-15
1.15169e-15
8.5447e-16
5.87377e-16
3.45982e-16
2.22045e-16
2.22045e-16
2.22045e-16
2.22045e-16
3.41977e-16
5.80383e-16
8.44457e-16
1.13871e-15
1.46481e-15
1.82102e-15
2.20208e-15
2.5993e-15
3.00104e-15
3.39342e-15
3.76127e-15
4.08913e-15
4.3624e-15
4.56837e-15
4.69715e-15
4.74245e-15
4.70201e-15
4.57783e-15
4.37596e-15
4.10607e-15
3.78072e-15
3.41444e-15
3.02264e-15
2.62056e-15
2.22215e-15
1.8392e-15
1.48057e-15
1.15169e-15
8.5447e-16
5.87377e-16
3.45982e-16
2.22045e-16
2.22045e-16
2.22045e-16
2.22045e-16
3.41977e-16
5.80383e-16
8.44457e-16
1.13871e-15
1.46481e-15
1.82102e-15
2.20208e-15
2.5993e-15
3.00104e-15
3.39342e-15
3.76127e-15
4.08913e-15
4.3624e-15
4.56837e-15
4.69715e-15
4.74245e-15
4.70201e-15
4.57783e-15
4.37596e-15
4.10607e-15
3.78072e-15
3.41444e-15
3.02264e-15
2.62056e-15
2.22215e-15
1.8392e-15
1.48057e-15
1.15169e-15
8.5447e-16
5.87377e-16
3.45982e-16
2.22045e-16
2.22045e-16
2.22045e-16
2.22045e-16
3.41977e-16
5.80383e-16
8.44457e-16
1.13871e-15
1.46481e-15
1.82102e-15
2.20208e-15
2.5993e-15
3.00104e-15
3.39342e-15
3.76127e-15
4.08913e-15
4.3624e-15
4.56837e-15
4.69715e-15
4.74245e-15
4.70201e-15
4.57783e-15
4.37596e-15
4.10607e-15
3.78072e-15
3.41444e-15
3.02264e-15
2.62056e-15
2.22215e-15
1.8392e-15
1.48057e-15
1.15169e-15
8.5447e-16
5.87377e-16
3.45982e-16
2.22045e-16
2.22045e-16
2.22045e-16
2.22045e-16
3.41977e-16
5.80383e-16
8.44457e-16
1.13871e-15
1.46481e-15
1.82102e-15
2.20208e-15
2.5993e-15
3.00104e-15
3.39342e-15
3.76127e-15
4.08913e-15
4.3624e-15
4.56837e-15
4.69715e-15
4.74245e-15
4.70201e-15
4.57783e-15
4.37596e-15
4.10607e-15
3.78072e-15
3.41444e-15
3.02264e-15
2.62056e-15
2.22215e-15
1.8392e-15
1.48057e-15
1.15169e-15
8.5447e-16
5.87377e-16
3.45982e-16
2.22045e-16
2.22045e-16
2.22045e-16
2.22045e-16
3.41977e-16
5.80383e-16
8.44457e-16
1.13871e-15
1.46481e-15
1.82102e-15
2.20208e-15
2.5993e-15
3.00104e-15
3.39342e-15
3.76127e-15
4.08913e-15
4.3624e-15
4.56837e-15
4.69715e-15
4.74245e-15
4.70201e-15
4.57783e-15
4.37596e-15
4.10607e-15
3.78072e-15
3.41444e-15
3.02264e-15
2.62056e-15
2.22215e-15
1.8392e-15
1.48057e-15
1.15169e-15
8.5447e-16
5.87377e-16
3.45982e-16
2.22045e-16
2.22045e-16
2.22045e-16
2.22045e-16
3.41977e-16
5.80383e-16
8.44457e-16
1.13871e-15
1.46481e-15
1.82102e-15
2.20208e-15
2.5993e-15
3.00104e-15
3.39342e-15
3.76127e-15
4.08913e-15
4.3624e-15
4.56837e-15
4.69715e-15
4.74245e-15
4.70201e-15
4.57783e-15
4.37596e-15
4.10607e-15
3.78072e-15
3.41444e-15
3.02264e-15
2.62056e-15
2.22215e-15
1.8392e-15
1.48057e-15
1.15169e-15
8.5447e-16
5.87377e-16
3.45982e-16
2.22045e-16
2.22045e-16
2.22045e-16
2.22045e-16
3.41977e-16
5.80383e-16
8.44457e-16
1.13871e-15
1.46481e-15
1.82102e-15
2.20208e-15
2.5993e-15
3.00104e-15
3.39342e-15
3.76127e-15
4.08913e-15
4.3624e-15
4.56837e-15
4.69715e-15
4.74245e-15
4.70201e-15
4.57783e-15
4.37596e-15
4.10607e-15
3.78072e-15
3.41444e-15
3.02264e-15
2.62056e-15
2.22215e-15
1.8392e-15
1.48057e-15
1.15169e-15
8.5447e-16
5.87377e-16
3.45982e-16
2.22045e-16
2.22045e-16
2.22045e-16
2.22045e-16
3.41977e-16
5.80383e-16
8.44457e-16
1.13871e-15
1.46481e-15
1.82102e-15
2.20208e-15
2.5993e-15
3.00104e-15
3.39342e-15
3.76127e-15
4.08913e-15
4.3624e-15
4.56837e-15
4.69715e-15
4.74245e-15
4.70201e-15
4.57783e-15
4.37596e-15
4.10607e-15
3.78072e-15
3.41444e-15
3.02264e-15
2.62056e-15
2.22215e-15
1.8392e-15
1.48057e-15
1.15169e-15
8.5447e-16
5.87377e-16
3.45982e-16
2.22045e-16
2.22045e-16
2.22045e-16
2.22045e-16
3.41977e-16
5.80383e-16
8.44457e-16
1.13871e-15
1.46481e-15
1.82102e-15
2.20208e-15
2.5993e-15
3.00104e-15
3.39342e-15
3.76127e-15
4.08913e-15
4.3624e-15
4.56837e-15
4.69715e-15
4.74245e-15
4.70201e-15
4.57783e-15
4.37596e-15
4.10607e-15
3.78072e-15
3.41444e-15
3.02264e-15
2.62056e-15
2.22215e-15
1.8392e-15
1.48057e-15
1.15169e-15
8.5447e-16
5.87377e-16
3.45982e-16
2.22045e-16
2.22045e-16
2.22045e-16
2.22045e-16
3.41977e-16
5.80383e-16
8.44457e-16
1.13871e-15
1.46481e-15
1.82102e-15
2.20208e-15
2.5993e-15
3.00104e-15
3.39342e-15
3.76127e-15
4.08913e-15
4.3624e-15
4.56837e-15
4.69715e-15
4.74245e-15
4.70201e-15
4.57783e-15
4.37596e-15
4.10607e-15
3.78072e-15
3.41444e-15
3.02264e-15
2.62056e-15
2.22215e-15
1.8392e-15
1.48057e-15
1.15169e-15
8.5447e-16
5.87377e-16
3.45982e-16
2.22045e-16
2.22045e-16
2.22045e-16
2.22045e-16
3.41977e-16
5.80383e-16
8.44457e-16
1.13871e-15
1.46481e-15
1.82102e-15
2.20208e-15
2.5993e-15
3.00104e-15
3.39342e-15
3.76127e-15
4.08913e-15
4.3624e-15
4.56837e-15
4.69715e-15
4.74245e-15
4.70201e-15
4.57783e-15
4.37596e-15
4.10607e-15
3.78072e-15
3.41444e-15
3.02264e-15
2.62056e-15
2.22215e-15
1.8392e-15
1.48057e-15
1.15169e-15
8.5447e-16
5.87377e-16
3.45982e-16
2.22045e-16
2.22045e-16
2.22045e-16
2.22045e-16
3.41977e-16
5.80383e-16
8.44457e-16
1.13871e-15
1.46481e-15
1.82102e-15
2.20208e-15
2.5993e-15
3.00104e-15
3.39342e-15
3.76127e-15
4.08913e-15
4.3624e-15
4.56837e-15
4.69715e-15
4.74245e-15
4.70201e-15
4.57783e-15
4.37596e-15
4.10607e-15
3.78072e-15
3.41444e-15
3.02264e-15
2.62056e-15
2.22215e-15
1.8392e-15
1.48057e-15
1.15169e-15
8.5447e-16
5.87377e-16
3.45982e-16
2.22045e-16
2.22045e-16
2.22045e-16
2.22045e-16
3.41977e-16
5.80383e-16
8.44457e-16
1.13871e-15
1.46481e-15
1.82102e-15
2.20208e-15
2.5993e-15
3.00104e-15
3.39342e-15
3.76127e-15
4.08913e-15
4.3624e-15
4.56837e-15
4.69715e-15
4.74245e-15
4.70201e-15
4.57783e-15
4.37596e-15
4.10607e-15
3.78072e-15
3.41444e-15
3.02264e-15
2.62056e-15
2.22215e-15
1.8392e-15
1.48057e-15
1.15169e-15
8.5447e-16
5.87377e-16
3.45982e-16
2.22045e-16
2.22045e-16
2.22045e-16
2.22045e-16
3.41977e-16
5.80383e-16
8.44457e-16
1.13871e-15
1.46481e-15
1.82102e-15
2.20208e-15
2.5993e-15
3.00104e-15
3.39342e-15
3.76127e-15
4.08913e-15
4.3624e-15
4.56837e-15
4.69715e-15