/*--------------------------------*- C++ -*----------------------------------*\
  =========                 |
  \\      /  F ield         | OpenFOAM: The Open Source CFD Toolbox
   \\    /   O peration     | Website:  https://openfoam.org
    \\  /    A nd           | Version:  13
     \\/     M anipulation  |
\*---------------------------------------------------------------------------*/
FoamFile
{
    format      ascii;
    class       volScalarField;
    location    "450";
    object      nut;
}
// * * * * * * * * * * * * * * * * * * * * * * * * * * * * * * * * * * * * * //

dimensions      [0 2 -1 0 0 0 0];

internalField   nonuniform List<scalar> 
78750
(
3.27176e-19
2.94458e-18
1.46562e-17
1.46562e-17
1.46562e-17
1.46562e-17
1.46562e-17
1.46562e-17
1.46562e-17
1.46562e-17
1.46562e-17
1.46562e-17
1.46562e-17
1.46562e-17
1.46562e-17
1.46562e-17
1.46562e-17
1.46562e-17
1.46562e-17
1.46562e-17
1.46562e-17
1.46562e-17
1.46562e-17
1.46562e-17
1.46562e-17
1.46562e-17
1.46562e-17
1.46562e-17
1.46562e-17
1.46562e-17
1.46562e-17
1.46562e-17
1.46562e-17
2.94458e-18
3.27176e-19
3.27176e-19
2.94458e-18
8.33901e-17
8.33901e-17
8.33901e-17
8.33901e-17
8.33901e-17
8.33901e-17
8.33901e-17
8.33901e-17
8.33901e-17
8.33901e-17
8.33901e-17
8.33901e-17
8.33901e-17
8.33901e-17
8.33901e-17
8.33901e-17
8.33901e-17
8.33901e-17
8.33901e-17
8.33901e-17
8.33901e-17
8.33901e-17
8.33901e-17
8.33901e-17
8.33901e-17
8.33901e-17
8.33901e-17
8.33901e-17
8.33901e-17
8.33901e-17
8.33901e-17
2.94458e-18
3.27176e-19
3.27176e-19
2.94458e-18
8.33901e-17
8.33901e-17
8.33901e-17
8.33901e-17
8.76084e-17
9.96634e-17
1.14285e-16
1.3048e-16
1.47376e-16
1.64156e-16
1.80033e-16
1.94267e-16
2.06184e-16
2.1521e-16
2.20898e-16
2.22963e-16
2.213e-16
2.15995e-16
2.07316e-16
1.95689e-16
1.81673e-16
1.65933e-16
1.49203e-16
1.32266e-16
1.15936e-16
1.01077e-16
8.86505e-17
8.33901e-17
8.33901e-17
8.33901e-17
8.33901e-17
2.94458e-18
3.27176e-19
3.27176e-19
2.94458e-18
8.33901e-17
8.33901e-17
9.41811e-17
1.16325e-16
1.43049e-16
1.73597e-16
2.07103e-16
2.4252e-16
2.78624e-16
3.14044e-16
3.47334e-16
3.77052e-16
4.01855e-16
4.20585e-16
4.32347e-16
4.36568e-16
4.33042e-16
4.2194e-16
4.03798e-16
3.79482e-16
3.50129e-16
3.17069e-16
2.8174e-16
2.45592e-16
2.10008e-16
1.76232e-16
1.45328e-16
1.1817e-16
9.54656e-17
8.33901e-17
8.33901e-17
2.94458e-18
3.27176e-19
3.27176e-19
2.94458e-18
8.33901e-17
9.63305e-17
1.28983e-16
1.675e-16
2.1156e-16
2.60554e-16
3.13501e-16
3.6902e-16
4.25367e-16
4.80518e-16
5.32288e-16
5.78473e-16
6.17002e-16
6.46079e-16
6.64314e-16
6.70818e-16
6.65272e-16
6.47943e-16
6.19673e-16
5.81813e-16
5.36129e-16
4.84674e-16
4.29647e-16
3.7324e-16
3.17494e-16
2.64182e-16
2.14713e-16
1.701e-16
1.30981e-16
9.76793e-17
8.33901e-17
2.94458e-18
3.27176e-19
3.27176e-19
2.94458e-18
8.33901e-17
1.18226e-16
1.65472e-16
2.19289e-16
2.79688e-16
3.46169e-16
4.17617e-16
4.9231e-16
5.6799e-16
6.41991e-16
7.11415e-16
7.73325e-16
8.24955e-16
8.63901e-16
8.88303e-16
8.96973e-16
8.89482e-16
8.66195e-16
8.28242e-16
7.77436e-16
7.16141e-16
6.47104e-16
5.73254e-16
4.97501e-16
4.22532e-16
3.50639e-16
2.83585e-16
2.22521e-16
1.67979e-16
1.19944e-16
8.33901e-17
2.94458e-18
3.27176e-19
3.27176e-19
2.94458e-18
8.79745e-17
1.40748e-16
2.0021e-16
2.67207e-16
3.41978e-16
4.24019e-16
5.12028e-16
6.03933e-16
6.96986e-16
7.87934e-16
8.7323e-16
9.49276e-16
1.01268e-15
1.06049e-15
1.09044e-15
1.10104e-15
1.0918e-15
1.06314e-15
1.01648e-15
9.54021e-16
8.78683e-16
7.93831e-16
7.03056e-16
6.09916e-16
5.1769e-16
4.29165e-16
3.4646e-16
2.70926e-16
2.03112e-16
1.42818e-16
8.92075e-17
2.94458e-18
3.27176e-19
3.27176e-19
2.94458e-18
9.83755e-17
1.60614e-16
2.30304e-16
3.08509e-16
3.95566e-16
4.90936e-16
5.93142e-16
6.99802e-16
8.07751e-16
9.1323e-16
1.01214e-15
1.10031e-15
1.17381e-15
1.22923e-15
1.26392e-15
1.27619e-15
1.26543e-15
1.23216e-15
1.17801e-15
1.10555e-15
1.01817e-15
9.1975e-16
8.1446e-16
7.06411e-16
5.99393e-16
4.96613e-16
4.00504e-16
3.12597e-16
2.33484e-16
1.62866e-16
9.97031e-17
2.94458e-18
3.27176e-19
3.27176e-19
2.94458e-18
1.06917e-16
1.76914e-16
2.54986e-16
3.42375e-16
4.395e-16
5.4579e-16
6.59626e-16
7.78375e-16
8.98528e-16
1.01591e-15
1.12597e-15
1.22408e-15
1.30586e-15
1.36752e-15
1.4061e-15
1.41972e-15
1.40772e-15
1.37066e-15
1.31037e-15
1.22971e-15
1.13244e-15
1.0229e-15
9.0572e-16
7.85457e-16
6.66321e-16
5.51866e-16
4.44779e-16
3.4674e-16
2.58373e-16
1.79303e-16
1.08312e-16
2.94458e-18
3.27176e-19
3.27176e-19
2.94458e-18
1.13605e-16
1.89676e-16
2.74309e-16
3.68887e-16
4.73892e-16
5.88729e-16
7.11667e-16
8.39877e-16
9.69582e-16
1.09629e-15
1.21508e-15
1.32097e-15
1.40923e-15
1.47577e-15
1.51739e-15
1.53208e-15
1.51909e-15
1.47907e-15
1.41395e-15
1.32687e-15
1.22186e-15
1.10362e-15
9.7712e-16
8.47298e-16
7.1868e-16
5.9509e-16
4.79415e-16
3.73449e-16
2.77842e-16
1.92161e-16
1.15047e-16
2.94458e-18
3.27176e-19
3.27176e-19
2.94458e-18
1.18604e-16
1.99215e-16
2.88751e-16
3.88701e-16
4.99594e-16
6.20818e-16
7.50557e-16
8.85837e-16
1.02268e-15
1.15635e-15
1.28167e-15
1.39337e-15
1.48648e-15
1.55666e-15
1.60057e-15
1.61604e-15
1.60232e-15
1.56007e-15
1.49135e-15
1.39946e-15
1.28866e-15
1.16391e-15
1.03045e-15
8.93488e-16
7.57785e-16
6.27371e-16
5.05281e-16
3.93394e-16
2.92381e-16
2.01762e-16
1.20075e-16
2.94458e-18
3.27176e-19
3.27176e-19
2.94458e-18
1.22169e-16
2.06018e-16
2.99052e-16
4.02834e-16
5.17926e-16
6.43705e-16
7.78295e-16
9.18618e-16
1.06055e-15
1.19919e-15
1.32916e-15
1.44501e-15
1.54158e-15
1.61436e-15
1.65989e-15
1.67592e-15
1.66167e-15
1.61783e-15
1.54655e-15
1.45122e-15
1.3363e-15
1.2069e-15
1.06848e-15
9.26416e-16
7.8566e-16
6.5038e-16
5.23716e-16
4.07609e-16
3.02743e-16
2.08604e-16
1.23658e-16
2.94458e-18
3.27176e-19
3.27176e-19
2.94458e-18
1.24597e-16
2.1065e-16
3.06065e-16
4.12455e-16
5.30405e-16
6.59285e-16
7.97178e-16
9.40933e-16
1.08633e-15
1.22835e-15
1.3615e-15
1.48017e-15
1.57908e-15
1.65364e-15
1.70027e-15
1.71668e-15
1.70207e-15
1.65715e-15
1.58411e-15
1.48645e-15
1.36871e-15
1.23615e-15
1.09435e-15
9.48819e-16
8.04625e-16
6.66034e-16
5.36258e-16
4.17279e-16
3.0979e-16
2.13257e-16
1.26095e-16
2.94458e-18
3.27176e-19
3.27176e-19
2.94458e-18
1.26175e-16
2.13661e-16
3.10623e-16
4.18708e-16
5.38517e-16
6.69412e-16
8.09451e-16
9.55438e-16
1.10309e-15
1.24731e-15
1.38251e-15
1.50302e-15
1.60346e-15
1.67917e-15
1.72651e-15
1.74317e-15
1.72833e-15
1.6827e-15
1.60852e-15
1.50934e-15
1.38977e-15
1.25515e-15
1.11116e-15
9.63373e-16
8.16944e-16
6.76202e-16
5.44403e-16
4.23559e-16
3.14367e-16
2.16279e-16
1.27677e-16
2.94458e-18
3.27176e-19
3.27176e-19
2.94458e-18
1.27155e-16
2.1553e-16
3.13453e-16
4.22591e-16
5.43554e-16
6.75701e-16
8.17073e-16
9.64445e-16
1.1135e-15
1.25908e-15
1.39556e-15
1.51721e-15
1.6186e-15
1.69502e-15
1.74281e-15
1.75962e-15
1.74463e-15
1.69857e-15
1.62368e-15
1.52355e-15
1.40285e-15
1.26695e-15
1.12159e-15
9.72407e-16
8.2459e-16
6.82512e-16
5.49458e-16
4.27456e-16
3.17207e-16
2.18155e-16
1.28659e-16
2.94458e-18
3.27176e-19
3.27176e-19
2.94458e-18
1.27737e-16
2.16641e-16
3.15134e-16
4.24898e-16
5.46546e-16
6.79436e-16
8.216e-16
9.69795e-16
1.11968e-15
1.26607e-15
1.40331e-15
1.52564e-15
1.62759e-15
1.70444e-15
1.75249e-15
1.76939e-15
1.75431e-15
1.70799e-15
1.63268e-15
1.53199e-15
1.41061e-15
1.27396e-15
1.12778e-15
9.7777e-16
8.29129e-16
6.86258e-16
5.52459e-16
4.29769e-16
3.18893e-16
2.19267e-16
1.29242e-16
2.94458e-18
3.27176e-19
3.27176e-19
2.94458e-18
1.28068e-16
2.17272e-16
3.1609e-16
4.26209e-16
5.48247e-16
6.8156e-16
8.24174e-16
9.72837e-16
1.12319e-15
1.27005e-15
1.40772e-15
1.53043e-15
1.6327e-15
1.70979e-15
1.75799e-15
1.77495e-15
1.75982e-15
1.71335e-15
1.6378e-15
1.53679e-15
1.41502e-15
1.27794e-15
1.1313e-15
9.80818e-16
8.31709e-16
6.88386e-16
5.54163e-16
4.31083e-16
3.1985e-16
2.19899e-16
1.29573e-16
2.94458e-18
3.27176e-19
3.27176e-19
2.94458e-18
1.28248e-16
2.17616e-16
3.16611e-16
4.26923e-16
5.49173e-16
6.82717e-16
8.25576e-16
9.74495e-16
1.12511e-15
1.27221e-15
1.41012e-15
1.53304e-15
1.63549e-15
1.71271e-15
1.76099e-15
1.77797e-15
1.76282e-15
1.71626e-15
1.64058e-15
1.5394e-15
1.41743e-15
1.28011e-15
1.13322e-15
9.82478e-16
8.33113e-16
6.89545e-16
5.55092e-16
4.31798e-16
3.20372e-16
2.20243e-16
1.29753e-16
2.94458e-18
3.27176e-19
3.27176e-19
2.94458e-18
1.28342e-16
2.17796e-16
3.16883e-16
4.27297e-16
5.49658e-16
6.83322e-16
8.2631e-16
9.75361e-16
1.12611e-15
1.27335e-15
1.41138e-15
1.5344e-15
1.63695e-15
1.71423e-15
1.76256e-15
1.77956e-15
1.76439e-15
1.71779e-15
1.64204e-15
1.54077e-15
1.41868e-15
1.28124e-15
1.13422e-15
9.83345e-16
8.33847e-16
6.9015e-16
5.55577e-16
4.32172e-16
3.20644e-16
2.20423e-16
1.29847e-16
2.94458e-18
3.27176e-19
3.27176e-19
2.94458e-18
1.2839e-16
2.17886e-16
3.1702e-16
4.27485e-16
5.49901e-16
6.83626e-16
8.26678e-16
9.75796e-16
1.12661e-15
1.27392e-15
1.41201e-15
1.53509e-15
1.63768e-15
1.715e-15
1.76335e-15
1.78035e-15
1.76517e-15
1.71856e-15
1.64277e-15
1.54145e-15
1.41932e-15
1.28181e-15
1.13473e-15
9.83781e-16
8.34216e-16
6.90454e-16
5.5582e-16
4.32359e-16
3.20781e-16
2.20513e-16
1.29894e-16
2.94458e-18
3.27176e-19
3.27176e-19
2.94458e-18
1.28412e-16
2.1793e-16
3.17086e-16
4.27575e-16
5.50019e-16
6.83773e-16
8.26856e-16
9.76007e-16
1.12685e-15
1.27419e-15
1.41231e-15
1.53542e-15
1.63803e-15
1.71537e-15
1.76373e-15
1.78073e-15
1.76555e-15
1.71893e-15
1.64312e-15
1.54178e-15
1.41962e-15
1.28208e-15
1.13497e-15
9.83991e-16
8.34394e-16
6.90601e-16
5.55937e-16
4.3245e-16
3.20846e-16
2.20557e-16
1.29917e-16
2.94458e-18
3.27176e-19
3.27176e-19
2.94458e-18
1.28423e-16
2.1795e-16
3.17117e-16
4.27617e-16
5.50074e-16
6.83841e-16
8.26938e-16
9.76104e-16
1.12697e-15
1.27432e-15
1.41245e-15
1.53558e-15
1.6382e-15
1.71554e-15
1.7639e-15
1.78091e-15
1.76573e-15
1.7191e-15
1.64329e-15
1.54194e-15
1.41976e-15
1.28221e-15
1.13508e-15
9.84089e-16
8.34476e-16
6.90669e-16
5.55992e-16
4.32492e-16
3.20877e-16
2.20577e-16
1.29927e-16
2.94458e-18
3.27176e-19
3.27176e-19
2.94458e-18
1.28428e-16
2.17959e-16
3.17131e-16
4.27636e-16
5.50098e-16
6.83871e-16
8.26975e-16
9.76148e-16
1.12702e-15
1.27438e-15
1.41252e-15
1.53564e-15
1.63827e-15
1.71562e-15
1.76398e-15
1.78099e-15
1.76581e-15
1.71917e-15
1.64336e-15
1.54201e-15
1.41982e-15
1.28227e-15
1.13513e-15
9.84132e-16
8.34514e-16
6.907e-16
5.56017e-16
4.32511e-16
3.20891e-16
2.20586e-16
1.29932e-16
2.94458e-18
3.27176e-19
3.27176e-19
2.94458e-18
1.2843e-16
2.17963e-16
3.17136e-16
4.27644e-16
5.50109e-16
6.83885e-16
8.26992e-16
9.76167e-16
1.12704e-15
1.2744e-15
1.41255e-15
1.53567e-15
1.6383e-15
1.71565e-15
1.76402e-15
1.78103e-15
1.76584e-15
1.71921e-15
1.64339e-15
1.54204e-15
1.41985e-15
1.28229e-15
1.13516e-15
9.84151e-16
8.3453e-16
6.90713e-16
5.56027e-16
4.32519e-16
3.20897e-16
2.2059e-16
1.29934e-16
2.94458e-18
3.27176e-19
3.27176e-19
2.94458e-18
1.28431e-16
2.17965e-16
3.17139e-16
4.27648e-16
5.50113e-16
6.8389e-16
8.26998e-16
9.76175e-16
1.12705e-15
1.27441e-15
1.41256e-15
1.53569e-15
1.63831e-15
1.71567e-15
1.76403e-15
1.78104e-15
1.76586e-15
1.71922e-15
1.64341e-15
1.54205e-15
1.41986e-15
1.28231e-15
1.13516e-15
9.84159e-16
8.34536e-16
6.90719e-16
5.56032e-16
4.32522e-16
3.20899e-16
2.20592e-16
1.29935e-16
2.94458e-18
3.27176e-19
3.27176e-19
2.94458e-18
1.28431e-16
2.17966e-16
3.1714e-16
4.27649e-16
5.50115e-16
6.83892e-16
8.27001e-16
9.76178e-16
1.12705e-15
1.27441e-15
1.41256e-15
1.53569e-15
1.63832e-15
1.71567e-15
1.76404e-15
1.78105e-15
1.76586e-15
1.71923e-15
1.64341e-15
1.54205e-15
1.41987e-15
1.28231e-15
1.13517e-15
9.84163e-16
8.34539e-16
6.90721e-16
5.56033e-16
4.32524e-16
3.209e-16
2.20592e-16
1.29935e-16
2.94458e-18
3.27176e-19
3.27176e-19
2.94458e-18
1.28431e-16
2.17966e-16
3.1714e-16
4.2765e-16
5.50116e-16
6.83893e-16
8.27002e-16
9.7618e-16
1.12705e-15
1.27442e-15
1.41256e-15
1.53569e-15
1.63832e-15
1.71567e-15
1.76404e-15
1.78105e-15
1.76587e-15
1.71923e-15
1.64342e-15
1.54206e-15
1.41987e-15
1.28231e-15
1.13517e-15
9.84164e-16
8.3454e-16
6.90722e-16
5.56034e-16
4.32524e-16
3.20901e-16
2.20593e-16
1.29936e-16
2.94458e-18
3.27176e-19
3.27176e-19
2.94458e-18
1.28431e-16
2.17966e-16
3.17141e-16
4.2765e-16
5.50116e-16
6.83894e-16
8.27002e-16
9.7618e-16
1.12706e-15
1.27442e-15
1.41256e-15
1.53569e-15
1.63832e-15
1.71567e-15
1.76404e-15
1.78105e-15
1.76587e-15
1.71923e-15
1.64342e-15
1.54206e-15
1.41987e-15
1.28231e-15
1.13517e-15
9.84164e-16
8.3454e-16
6.90722e-16
5.56034e-16
4.32525e-16
3.20901e-16
2.20593e-16
1.29936e-16
2.94458e-18
3.27176e-19
3.27176e-19
2.94458e-18
1.28431e-16
2.17966e-16
3.17141e-16
4.2765e-16
5.50116e-16
6.83894e-16
8.27003e-16
9.7618e-16
1.12706e-15
1.27442e-15
1.41256e-15
1.53569e-15
1.63832e-15
1.71567e-15
1.76404e-15
1.78105e-15
1.76587e-15
1.71923e-15
1.64342e-15
1.54206e-15
1.41987e-15
1.28231e-15
1.13517e-15
9.84164e-16
8.34541e-16
6.90722e-16
5.56034e-16
4.32525e-16
3.20901e-16
2.20593e-16
1.29936e-16
2.94458e-18
3.27176e-19
3.27176e-19
2.94458e-18
1.28431e-16
2.17966e-16
3.17141e-16
4.2765e-16
5.50116e-16
6.83894e-16
8.27003e-16
9.7618e-16
1.12706e-15
1.27442e-15
1.41256e-15
1.53569e-15
1.63832e-15
1.71567e-15
1.76404e-15
1.78105e-15
1.76587e-15
1.71923e-15
1.64342e-15
1.54206e-15
1.41987e-15
1.28231e-15
1.13517e-15
9.84165e-16
8.34541e-16
6.90722e-16
5.56034e-16
4.32525e-16
3.20901e-16
2.20593e-16
1.29936e-16
2.94458e-18
3.27176e-19
3.27176e-19
2.94458e-18
1.28431e-16
2.17966e-16
3.17141e-16
4.2765e-16
5.50116e-16
6.83894e-16
8.27003e-16
9.7618e-16
1.12706e-15
1.27442e-15
1.41256e-15
1.53569e-15
1.63832e-15
1.71567e-15
1.76404e-15
1.78105e-15
1.76587e-15
1.71923e-15
1.64342e-15
1.54206e-15
1.41987e-15
1.28231e-15
1.13517e-15
9.84165e-16
8.34541e-16
6.90722e-16
5.56034e-16
4.32525e-16
3.20901e-16
2.20593e-16
1.29936e-16
2.94458e-18
3.27176e-19
3.27176e-19
2.94458e-18
1.28431e-16
2.17966e-16
3.17141e-16
4.2765e-16
5.50116e-16
6.83894e-16
8.27003e-16
9.7618e-16
1.12706e-15
1.27442e-15
1.41256e-15
1.53569e-15
1.63832e-15
1.71567e-15
1.76404e-15
1.78105e-15
1.76587e-15
1.71923e-15
1.64342e-15
1.54206e-15
1.41987e-15
1.28231e-15
1.13517e-15
9.84165e-16
8.34541e-16
6.90722e-16
5.56034e-16
4.32525e-16
3.20901e-16
2.20593e-16
1.29936e-16
2.94458e-18
3.27176e-19
3.27176e-19
2.94458e-18
1.28431e-16
2.17966e-16
3.17141e-16
4.2765e-16
5.50116e-16
6.83894e-16
8.27003e-16
9.7618e-16
1.12706e-15
1.27442e-15
1.41256e-15
1.53569e-15
1.63832e-15
1.71567e-15
1.76404e-15
1.78105e-15
1.76587e-15
1.71923e-15
1.64342e-15
1.54206e-15
1.41987e-15
1.28231e-15
1.13517e-15
9.84165e-16
8.34541e-16
6.90722e-16
5.56034e-16
4.32525e-16
3.20901e-16
2.20593e-16
1.29936e-16
2.94458e-18
3.27176e-19
3.27176e-19
2.94458e-18
1.28431e-16
2.17966e-16
3.17141e-16
4.2765e-16
5.50116e-16
6.83894e-16
8.27003e-16
9.7618e-16
1.12706e-15
1.27442e-15
1.41256e-15
1.53569e-15
1.63832e-15
1.71567e-15
1.76404e-15
1.78105e-15
1.76587e-15
1.71923e-15
1.64342e-15
1.54206e-15
1.41987e-15
1.28231e-15
1.13517e-15
9.84165e-16
8.34541e-16
6.90722e-16
5.56034e-16
4.32525e-16
3.20901e-16
2.20593e-16
1.29936e-16
2.94458e-18
3.27176e-19
3.27176e-19
2.94458e-18
1.28431e-16
2.17966e-16
3.17141e-16
4.2765e-16
5.50116e-16
6.83894e-16
8.27003e-16
9.7618e-16
1.12706e-15
1.27442e-15
1.41256e-15
1.53569e-15
1.63832e-15
1.71567e-15
1.76404e-15
1.78105e-15
1.76587e-15
1.71923e-15
1.64342e-15
1.54206e-15
1.41987e-15
1.28231e-15
1.13517e-15
9.84165e-16
8.34541e-16
6.90722e-16
5.56034e-16
4.32525e-16
3.20901e-16
2.20593e-16
1.29936e-16
2.94458e-18
3.27176e-19
3.27176e-19
2.94458e-18
1.28431e-16
2.17966e-16
3.17141e-16
4.2765e-16
5.50116e-16
6.83894e-16
8.27003e-16
9.7618e-16
1.12706e-15
1.27442e-15
1.41256e-15
1.53569e-15
1.63832e-15
1.71567e-15
1.76404e-15
1.78105e-15
1.76587e-15
1.71923e-15
1.64342e-15
1.54206e-15
1.41987e-15
1.28231e-15
1.13517e-15
9.84165e-16
8.34541e-16
6.90722e-16
5.56034e-16
4.32525e-16
3.20901e-16
2.20593e-16
1.29936e-16
2.94458e-18
3.27176e-19
3.27176e-19
2.94458e-18
1.28431e-16
2.17966e-16
3.17141e-16
4.2765e-16
5.50116e-16
6.83894e-16
8.27003e-16
9.7618e-16
1.12706e-15
1.27442e-15
1.41256e-15
1.53569e-15
1.63832e-15
1.71567e-15
1.76404e-15
1.78105e-15
1.76587e-15
1.71923e-15
1.64342e-15
1.54206e-15
1.41987e-15
1.28231e-15
1.13517e-15
9.84165e-16
8.34541e-16
6.90722e-16
5.56034e-16
4.32525e-16
3.20901e-16
2.20593e-16
1.29936e-16
2.94458e-18
3.27176e-19
3.27176e-19
2.94458e-18
1.28431e-16
2.17966e-16
3.17141e-16
4.2765e-16
5.50116e-16
6.83894e-16
8.27003e-16
9.7618e-16
1.12706e-15
1.27442e-15
1.41256e-15
1.53569e-15
1.63832e-15
1.71567e-15
1.76404e-15
1.78105e-15
1.76587e-15
1.71923e-15
1.64342e-15
1.54206e-15
1.41987e-15
1.28231e-15
1.13517e-15
9.84165e-16
8.34541e-16
6.90722e-16
5.56034e-16
4.32525e-16
3.20901e-16
2.20593e-16
1.29936e-16
2.94458e-18
3.27176e-19
3.27176e-19
2.94458e-18
1.28431e-16
2.17966e-16
3.17141e-16
4.2765e-16
5.50116e-16
6.83894e-16
8.27003e-16
9.7618e-16
1.12706e-15
1.27442e-15
1.41256e-15
1.53569e-15
1.63832e-15
1.71567e-15
1.76404e-15
1.78105e-15
1.76587e-15
1.71923e-15
1.64342e-15
1.54206e-15
1.41987e-15
1.28231e-15
1.13517e-15
9.84165e-16
8.34541e-16
6.90722e-16
5.56034e-16
4.32525e-16
3.20901e-16
2.20593e-16
1.29936e-16
2.94458e-18
3.27176e-19
3.27176e-19
2.94458e-18
1.28431e-16
2.17966e-16
3.17141e-16
4.2765e-16
5.50116e-16
6.83894e-16
8.27003e-16
9.7618e-16
1.12706e-15
1.27442e-15
1.41256e-15
1.53569e-15
1.63832e-15
1.71567e-15
1.76404e-15
1.78105e-15
1.76587e-15
1.71923e-15
1.64342e-15
1.54206e-15
1.41987e-15
1.28231e-15
1.13517e-15
9.84165e-16
8.34541e-16
6.90722e-16
5.56034e-16
4.32525e-16
3.20901e-16
2.20593e-16
1.29936e-16
2.94458e-18
3.27176e-19
3.27176e-19
2.94458e-18
1.28431e-16
2.17966e-16
3.17141e-16
4.2765e-16
5.50116e-16
6.83894e-16
8.27003e-16
9.7618e-16
1.12706e-15
1.27442e-15
1.41256e-15
1.53569e-15
1.63832e-15
1.71567e-15
1.76404e-15
1.78105e-15
1.76587e-15
1.71923e-15
1.64342e-15
1.54206e-15
1.41987e-15
1.28231e-15
1.13517e-15
9.84165e-16
8.34541e-16
6.90722e-16
5.56034e-16
4.32525e-16
3.20901e-16
2.20593e-16
1.29936e-16
2.94458e-18
3.27176e-19
3.27176e-19
2.94458e-18
1.28431e-16
2.17966e-16
3.17141e-16
4.2765e-16
5.50116e-16
6.83894e-16
8.27003e-16
9.7618e-16
1.12706e-15
1.27442e-15
1.41256e-15
1.53569e-15
1.63832e-15
1.71567e-15
1.76404e-15
1.78105e-15
1.76587e-15
1.71923e-15
1.64342e-15
1.54206e-15
1.41987e-15
1.28231e-15
1.13517e-15
9.84165e-16
8.34541e-16
6.90722e-16
5.56034e-16
4.32525e-16
3.20901e-16
2.20593e-16
1.29936e-16
2.94458e-18
3.27176e-19
3.27176e-19
2.94458e-18
1.28431e-16
2.17966e-16
3.17141e-16
4.2765e-16
5.50116e-16
6.83894e-16
8.27003e-16
9.7618e-16
1.12706e-15
1.27442e-15
1.41256e-15
1.53569e-15
1.63832e-15
1.71567e-15
1.76404e-15
1.78105e-15
1.76587e-15
1.71923e-15
1.64342e-15
1.54206e-15
1.41987e-15
1.28231e-15
1.13517e-15
9.84165e-16
8.34541e-16
6.90722e-16
5.56034e-16
4.32525e-16
3.20901e-16
2.20593e-16
1.29936e-16
2.94458e-18
3.27176e-19
3.27176e-19
2.94458e-18
1.28431e-16
2.17966e-16
3.17141e-16
4.2765e-16
5.50116e-16
6.83894e-16
8.27003e-16
9.7618e-16
1.12706e-15
1.27442e-15
1.41256e-15
1.53569e-15
1.63832e-15
1.71567e-15
1.76404e-15
1.78105e-15
1.76587e-15
1.71923e-15
1.64342e-15
1.54206e-15
1.41987e-15
1.28231e-15
1.13517e-15
9.84165e-16
8.34541e-16
6.90722e-16
5.56034e-16
4.32525e-16
3.20901e-16
2.20593e-16
1.29936e-16
2.94458e-18
3.27176e-19
3.27176e-19
2.94458e-18
1.28431e-16
2.17966e-16
3.17141e-16
4.2765e-16
5.50116e-16
6.83894e-16
8.27003e-16
9.7618e-16
1.12706e-15
1.27442e-15
1.41256e-15
1.53569e-15
1.63832e-15
1.71567e-15
1.76404e-15
1.78105e-15
1.76587e-15
1.71923e-15
1.64342e-15
1.54206e-15
1.41987e-15
1.28231e-15
1.13517e-15
9.84165e-16
8.34541e-16
6.90722e-16
5.56034e-16
4.32525e-16
3.20901e-16
2.20593e-16
1.29936e-16
2.94458e-18
3.27176e-19
3.27176e-19
2.94458e-18
1.28431e-16
2.17966e-16
3.17141e-16
4.2765e-16
5.50116e-16
6.83894e-16
8.27003e-16
9.7618e-16
1.12706e-15
1.27442e-15
1.41256e-15
1.53569e-15
1.63832e-15
1.71567e-15
1.76404e-15
1.78105e-15
1.76587e-15
1.71923e-15
1.64342e-15
1.54206e-15
1.41987e-15
1.28231e-15
1.13517e-15
9.84165e-16
8.34541e-16
6.90722e-16
5.56034e-16
4.32525e-16
3.20901e-16
2.20593e-16
1.29936e-16
2.94458e-18
3.27176e-19
3.27176e-19
2.94458e-18
1.28431e-16
2.17966e-16
3.17141e-16
4.2765e-16
5.50116e-16
6.83894e-16
8.27003e-16
9.7618e-16
1.12706e-15
1.27442e-15
1.41256e-15
1.53569e-15
1.63832e-15
1.71567e-15
1.76404e-15
1.78105e-15
1.76587e-15
1.71923e-15
1.64342e-15
1.54206e-15
1.41987e-15
1.28231e-15
1.13517e-15
9.84165e-16
8.34541e-16
6.90722e-16
5.56034e-16
4.32525e-16
3.20901e-16
2.20593e-16
1.29936e-16
2.94458e-18
3.27176e-19
3.27176e-19
2.94458e-18
1.28431e-16
2.17966e-16
3.17141e-16
4.2765e-16
5.50116e-16
6.83894e-16
8.27003e-16
9.7618e-16
1.12706e-15
1.27442e-15
1.41256e-15
1.53569e-15
1.63832e-15
1.71567e-15
1.76404e-15
1.78105e-15
1.76587e-15
1.71923e-15
1.64342e-15
1.54206e-15
1.41987e-15
1.28231e-15
1.13517e-15
9.84165e-16
8.34541e-16
6.90722e-16
5.56034e-16
4.32525e-16
3.20901e-16
2.20593e-16
1.29936e-16
2.94458e-18
3.27176e-19
3.27176e-19
2.94458e-18
1.28431e-16
2.17966e-16
3.17141e-16
4.2765e-16
5.50116e-16
6.83894e-16
8.27003e-16
9.7618e-16
1.12706e-15
1.27442e-15
1.41256e-15
1.53569e-15
1.63832e-15
1.71567e-15
1.76404e-15
1.78105e-15
1.76587e-15
1.71923e-15
1.64342e-15
1.54206e-15
1.41987e-15
1.28231e-15
1.13517e-15
9.84165e-16
8.34541e-16
6.90722e-16
5.56034e-16
4.32525e-16
3.20901e-16
2.20593e-16
1.29936e-16
2.94458e-18
3.27176e-19
3.27176e-19
2.94458e-18
1.28431e-16
2.17966e-16
3.17141e-16
4.2765e-16
5.50116e-16
6.83894e-16
8.27003e-16
9.7618e-16
1.12706e-15
1.27442e-15
1.41256e-15
1.53569e-15
1.63832e-15
1.71567e-15
1.76404e-15
1.78105e-15
1.76587e-15
1.71923e-15
1.64342e-15
1.54206e-15
1.41987e-15
1.28231e-15
1.13517e-15
9.84165e-16
8.34541e-16
6.90722e-16
5.56034e-16
4.32525e-16
3.20901e-16
2.20593e-16
1.29936e-16
2.94458e-18
3.27176e-19
3.27176e-19
2.94458e-18
1.28431e-16
2.17966e-16
3.17141e-16
4.2765e-16
5.50116e-16
6.83894e-16
8.27003e-16
9.7618e-16
1.12706e-15
1.27442e-15
1.41256e-15
1.53569e-15
1.63832e-15
1.71567e-15
1.76404e-15
1.78105e-15
1.76587e-15
1.71923e-15
1.64342e-15
1.54206e-15
1.41987e-15
1.28231e-15
1.13517e-15
9.84165e-16
8.34541e-16
6.90722e-16
5.56034e-16
4.32525e-16
3.20901e-16
2.20593e-16
1.29936e-16
2.94458e-18
3.27176e-19
3.27176e-19
2.94458e-18
1.28431e-16
2.17966e-16
3.17141e-16
4.2765e-16
5.50116e-16
6.83894e-16
8.27003e-16
9.7618e-16
1.12706e-15
1.27442e-15
1.41256e-15
1.53569e-15
1.63832e-15
1.71567e-15
1.76404e-15
1.78105e-15
1.76587e-15
1.71923e-15
1.64342e-15
1.54206e-15
1.41987e-15
1.28231e-15
1.13517e-15
9.84165e-16
8.34541e-16
6.90722e-16
5.56034e-16
4.32525e-16
3.20901e-16
2.20593e-16
1.29936e-16
2.94458e-18
3.27176e-19
3.27176e-19
2.94458e-18
1.28431e-16
2.17966e-16
3.17141e-16
4.2765e-16
5.50116e-16
6.83894e-16
8.27003e-16
9.7618e-16
1.12706e-15
1.27442e-15
1.41256e-15
1.53569e-15
1.63832e-15
1.71567e-15
1.76404e-15
1.78105e-15
1.76587e-15
1.71923e-15
1.64342e-15
1.54206e-15
1.41987e-15
1.28231e-15
1.13517e-15
9.84165e-16
8.34541e-16
6.90722e-16
5.56034e-16
4.32525e-16
3.20901e-16
2.20593e-16
1.29936e-16
2.94458e-18
3.27176e-19
3.27176e-19
2.94458e-18
1.28431e-16
2.17966e-16
3.17141e-16
4.2765e-16
5.50116e-16
6.83894e-16
8.27003e-16
9.7618e-16
1.12706e-15
1.27442e-15
1.41256e-15
1.53569e-15
1.63832e-15
1.71567e-15
1.76404e-15
1.78105e-15
1.76587e-15
1.71923e-15
1.64342e-15
1.54206e-15
1.41987e-15
1.28231e-15
1.13517e-15
9.84165e-16
8.34541e-16
6.90722e-16
5.56034e-16
4.32525e-16
3.20901e-16
2.20593e-16
1.29936e-16
2.94458e-18
3.27176e-19
3.27176e-19
2.94458e-18
1.28431e-16
2.17966e-16
3.17141e-16
4.2765e-16
5.50116e-16
6.83894e-16
8.27003e-16
9.7618e-16
1.12706e-15
1.27442e-15
1.41256e-15
1.53569e-15
1.63832e-15
1.71567e-15
1.76404e-15
1.78105e-15
1.76587e-15
1.71923e-15
1.64342e-15
1.54206e-15
1.41987e-15
1.28231e-15
1.13517e-15
9.84165e-16
8.34541e-16
6.90722e-16
5.56034e-16
4.32525e-16
3.20901e-16
2.20593e-16
1.29936e-16
2.94458e-18
3.27176e-19
3.27176e-19
2.94458e-18
1.28431e-16
2.17966e-16
3.17141e-16
4.2765e-16
5.50116e-16
6.83894e-16
8.27003e-16
9.7618e-16
1.12706e-15
1.27442e-15
1.41256e-15
1.53569e-15
1.63832e-15
1.71567e-15
1.76404e-15
1.78105e-15
1.76587e-15
1.71923e-15
1.64342e-15
1.54206e-15
1.41987e-15
1.28231e-15
1.13517e-15
9.84165e-16
8.34541e-16
6.90722e-16
5.56034e-16
4.32525e-16
3.20901e-16
2.20593e-16
1.29936e-16
2.94458e-18
3.27176e-19
3.27176e-19
2.94458e-18
1.28431e-16
2.17966e-16
3.17141e-16
4.2765e-16
5.50116e-16
6.83894e-16
8.27003e-16
9.7618e-16
1.12706e-15
1.27442e-15
1.41256e-15
1.53569e-15
1.63832e-15
1.71567e-15
1.76404e-15
1.78105e-15
1.76587e-15
1.71923e-15
1.64342e-15
1.54206e-15
1.41987e-15
1.28231e-15
1.13517e-15
9.84165e-16
8.34541e-16
6.90722e-16
5.56034e-16
4.32525e-16
3.20901e-16
2.20593e-16
1.29936e-16
2.94458e-18
3.27176e-19
3.27176e-19
2.94458e-18
1.28431e-16
2.17966e-16
3.17141e-16
4.2765e-16
5.50116e-16
6.83894e-16
8.27003e-16
9.7618e-16
1.12706e-15
1.27442e-15
1.41256e-15
1.53569e-15
1.63832e-15
1.71567e-15
1.76404e-15
1.78105e-15
1.76587e-15
1.71923e-15
1.64342e-15
1.54206e-15
1.41987e-15
1.28231e-15
1.13517e-15
9.84165e-16
8.34541e-16
6.90722e-16
5.56034e-16
4.32525e-16
3.20901e-16
2.20593e-16
1.29936e-16
2.94458e-18
3.27176e-19
3.27176e-19
2.94458e-18
1.28431e-16
2.17966e-16
3.17141e-16
4.2765e-16
5.50116e-16
6.83894e-16
8.27003e-16
9.7618e-16
1.12706e-15
1.27442e-15
1.41256e-15
1.53569e-15
1.63832e-15
1.71567e-15
1.76404e-15
1.78105e-15
1.76587e-15
1.71923e-15
1.64342e-15
1.54206e-15
1.41987e-15
1.28231e-15
1.13517e-15
9.84165e-16
8.34541e-16
6.90722e-16
5.56034e-16
4.32525e-16
3.20901e-16
2.20593e-16
1.29936e-16
2.94458e-18
3.27176e-19
3.27176e-19
2.94458e-18
1.28431e-16
2.17966e-16
3.17141e-16
4.2765e-16
5.50116e-16
6.83894e-16
8.27003e-16
9.7618e-16
1.12706e-15
1.27442e-15
1.41256e-15
1.53569e-15
1.63832e-15
1.71567e-15
1.76404e-15
1.78105e-15
1.76587e-15
1.71923e-15
1.64342e-15
1.54206e-15
1.41987e-15
1.28231e-15
1.13517e-15
9.84165e-16
8.34541e-16
6.90722e-16
5.56034e-16
4.32525e-16
3.20901e-16
2.20593e-16
1.29936e-16
2.94458e-18
3.27176e-19
3.27176e-19
2.94458e-18
1.28431e-16
2.17966e-16
3.17141e-16
4.2765e-16
5.50116e-16
6.83894e-16
8.27003e-16
9.7618e-16
1.12706e-15
1.27442e-15
1.41256e-15
1.53569e-15
1.63832e-15
1.71567e-15
1.76404e-15
1.78105e-15
1.76587e-15
1.71923e-15
1.64342e-15
1.54206e-15
1.41987e-15
1.28231e-15
1.13517e-15
9.84165e-16
8.34541e-16
6.90722e-16
5.56034e-16
4.32525e-16
3.20901e-16
2.20593e-16
1.29936e-16
2.94458e-18
3.27176e-19
3.27176e-19
2.94458e-18
1.28431e-16
2.17966e-16
3.17141e-16
4.2765e-16
5.50116e-16
6.83894e-16
8.27003e-16
9.7618e-16
1.12706e-15
1.27442e-15
1.41256e-15
1.53569e-15
1.63832e-15
1.71567e-15
1.76404e-15
1.78105e-15
1.76587e-15
1.71923e-15
1.64342e-15
1.54206e-15
1.41987e-15
1.28231e-15
1.13517e-15
9.84165e-16
8.34541e-16
6.90722e-16
5.56034e-16
4.32525e-16
3.20901e-16
2.20593e-16
1.29936e-16
2.94458e-18
3.27176e-19
3.27176e-19
2.94458e-18
1.28431e-16
2.17966e-16
3.17141e-16
4.2765e-16
5.50116e-16
6.83894e-16
8.27003e-16
9.7618e-16
1.12706e-15
1.27442e-15
1.41256e-15
1.53569e-15
1.63832e-15
1.71567e-15
1.76404e-15
1.78105e-15
1.76587e-15
1.71923e-15
1.64342e-15
1.54206e-15
1.41987e-15
1.28231e-15
1.13517e-15
9.84165e-16
8.34541e-16
6.90722e-16
5.56034e-16
4.32525e-16
3.20901e-16
2.20593e-16
1.29936e-16
2.94458e-18
3.27176e-19
3.27176e-19
2.94458e-18
1.28431e-16
2.17966e-16
3.17141e-16
4.2765e-16
5.50116e-16
6.83894e-16
8.27003e-16
9.7618e-16
1.12706e-15
1.27442e-15
1.41256e-15
1.53569e-15
1.63832e-15
1.71567e-15
1.76404e-15
1.78105e-15
1.76587e-15
1.71923e-15
1.64342e-15
1.54206e-15
1.41987e-15
1.28231e-15
1.13517e-15
9.84165e-16
8.34541e-16
6.90722e-16
5.56034e-16
4.32525e-16
3.20901e-16
2.20593e-16
1.29936e-16
2.94458e-18
3.27176e-19
3.27176e-19
2.94458e-18
1.28431e-16
2.17966e-16
3.17141e-16
4.2765e-16
5.50116e-16
6.83894e-16
8.27003e-16
9.7618e-16
1.12706e-15
1.27442e-15
1.41256e-15
1.53569e-15
1.63832e-15
1.71567e-15
1.76404e-15
1.78105e-15
1.76587e-15
1.71923e-15
1.64342e-15
1.54206e-15
1.41987e-15
1.28231e-15
1.13517e-15
9.84165e-16
8.34541e-16
6.90722e-16
5.56034e-16
4.32525e-16
3.20901e-16
2.20593e-16
1.29936e-16
2.94458e-18
3.27176e-19
3.27176e-19
2.94458e-18
1.28431e-16
2.17966e-16
3.17141e-16
4.2765e-16
5.50116e-16
6.83894e-16
8.27003e-16
9.7618e-16
1.12706e-15
1.27442e-15
1.41256e-15
1.53569e-15
1.63832e-15
1.71567e-15
1.76404e-15
1.78105e-15
1.76587e-15
1.71923e-15
1.64342e-15
1.54206e-15
1.41987e-15
1.28231e-15
1.13517e-15
9.84165e-16
8.34541e-16
6.90722e-16
5.56034e-16
4.32525e-16
3.20901e-16
2.20593e-16
1.29936e-16
2.94458e-18
3.27176e-19
3.27176e-19
2.94458e-18
1.28431e-16
2.17966e-16
3.17141e-16
4.2765e-16
5.50116e-16
6.83894e-16
8.27003e-16
9.7618e-16
1.12706e-15
1.27442e-15
1.41256e-15
1.53569e-15
1.63832e-15
1.71567e-15
1.76404e-15
1.78105e-15
1.76587e-15
1.71923e-15
1.64342e-15
1.54206e-15
1.41987e-15
1.28231e-15
1.13517e-15
9.84165e-16
8.34541e-16
6.90722e-16
5.56034e-16
4.32525e-16
3.20901e-16
2.20593e-16
1.29936e-16
2.94458e-18
3.27176e-19
3.27176e-19
2.94458e-18
1.28431e-16
2.17966e-16
3.17141e-16
4.2765e-16
5.50116e-16
6.83894e-16
8.27003e-16
9.7618e-16
1.12706e-15
1.27442e-15
1.41256e-15
1.53569e-15
1.63832e-15
1.71567e-15
1.76404e-15
1.78105e-15
1.76587e-15
1.71923e-15
1.64342e-15
1.54206e-15
1.41987e-15
1.28231e-15
1.13517e-15
9.84165e-16
8.34541e-16
6.90722e-16
5.56034e-16
4.32525e-16
3.20901e-16
2.20593e-16
1.29936e-16
2.94458e-18
3.27176e-19
3.27176e-19
2.94458e-18
1.28431e-16
2.17966e-16
3.17141e-16
4.2765e-16
5.50116e-16
6.83894e-16
8.27003e-16
9.7618e-16
1.12706e-15
1.27442e-15
1.41256e-15
1.53569e-15
1.63832e-15
1.71567e-15
1.76404e-15
1.78105e-15
1.76587e-15
1.71923e-15
1.64342e-15
1.54206e-15
1.41987e-15
1.28231e-15
1.13517e-15
9.84165e-16
8.34541e-16
6.90722e-16
5.56034e-16
4.32525e-16
3.20901e-16
2.20593e-16
1.29936e-16
2.94458e-18
3.27176e-19
3.27176e-19
2.94458e-18
1.28431e-16
2.17966e-16
3.17141e-16
4.2765e-16
5.50116e-16
6.83894e-16
8.27003e-16
9.7618e-16
1.12706e-15
1.27442e-15
1.41256e-15
1.53569e-15
1.63832e-15
1.71567e-15
1.76404e-15
1.78105e-15
1.76587e-15
1.71923e-15
1.64342e-15
1.54206e-15
1.41987e-15
1.28231e-15
1.13517e-15
9.84165e-16
8.34541e-16
6.90722e-16
5.56034e-16
4.32525e-16
3.20901e-16
2.20593e-16
1.29936e-16
2.94458e-18
3.27176e-19
3.27176e-19
2.94458e-18
1.28431e-16
2.17966e-16
3.17141e-16
4.2765e-16
5.50116e-16
6.83894e-16