/*--------------------------------*- C++ -*----------------------------------*\
  =========                 |
  \\      /  F ield         | OpenFOAM: The Open Source CFD Toolbox
   \\    /   O peration     | Website:  https://openfoam.org
    \\  /    A nd           | Version:  13
     \\/     M anipulation  |
\*---------------------------------------------------------------------------*/
FoamFile
{
    format      ascii;
    class       volScalarField;
    location    "22";
    object      nut;
}
// * * * * * * * * * * * * * * * * * * * * * * * * * * * * * * * * * * * * * //

dimensions      [0 2 -1 0 0 0 0];

internalField   nonuniform List<scalar> 
78750
(
9.98386e-17
2.55677e-14
5.77068e-13
1.04784e-12
1.5457e-12
2.07485e-12
2.63593e-12
3.2251e-12
3.83402e-12
4.45025e-12
5.05806e-12
5.6395e-12
6.17556e-12
6.64738e-12
7.03749e-12
7.33089e-12
7.51597e-12
7.58528e-12
7.53596e-12
7.36996e-12
7.09384e-12
6.71847e-12
6.25827e-12
5.73031e-12
5.15327e-12
4.54621e-12
3.92732e-12
3.31271e-12
2.71531e-12
2.14396e-12
1.60285e-12
1.0914e-12
6.04658e-13
2.70048e-14
1.05892e-16
2.17764e-15
5.66442e-13
8.00778e-11
1.46478e-10
2.16643e-10
2.91425e-10
3.71023e-10
4.54922e-10
5.41918e-10
6.30193e-10
7.17446e-10
8.01042e-10
8.78191e-10
9.46126e-10
1.00228e-09
1.04446e-09
1.07096e-09
1.08069e-09
1.07326e-09
1.04894e-09
1.00874e-09
9.5425e-10
8.87608e-10
8.11333e-10
7.28169e-10
6.40915e-10
5.52233e-10
4.64475e-10
3.79517e-10
2.98628e-10
2.22378e-10
1.50609e-10
8.24747e-11
5.84335e-13
2.24778e-15
6.2207e-15
1.61825e-12
2.2923e-10
4.21841e-10
6.2949e-10
8.56099e-10
1.10324e-09
1.36985e-09
1.65223e-09
1.9442e-09
2.23754e-09
2.52252e-09
2.78856e-09
3.02497e-09
3.2217e-09
3.37003e-09
3.46321e-09
3.4969e-09
3.46952e-09
3.38232e-09
3.23933e-09
3.04704e-09
2.81398e-09
2.55008e-09
2.26599e-09
1.97233e-09
1.67896e-09
1.39426e-09
1.12462e-09
8.73936e-10
6.43456e-10
4.31731e-10
2.34877e-10
1.65998e-12
6.3838e-15
1.22356e-14
3.18273e-12
4.5117e-10
8.32253e-10
1.24634e-09
1.70242e-09
2.20456e-09
2.75125e-09
3.33525e-09
3.94389e-09
4.55978e-09
5.16198e-09
5.72733e-09
6.23208e-09
6.6536e-09
6.97211e-09
7.17214e-09
7.24377e-09
7.18339e-09
6.99401e-09
6.68496e-09
6.27125e-09
5.77232e-09
5.21058e-09
4.60976e-09
3.9931e-09
3.38179e-09
2.79353e-09
2.24136e-09
1.73292e-09
1.27005e-09
8.48918e-10
4.60615e-10
3.25225e-12
1.2507e-14
1.91585e-14
4.98359e-12
7.06652e-10
1.30467e-09
1.95636e-09
2.67657e-09
3.47224e-09
4.34135e-09
5.27263e-09
6.24593e-09
7.2334e-09
8.20123e-09
9.11178e-09
9.92618e-09
1.06072e-08
1.11221e-08
1.14453e-08
1.15602e-08
1.1461e-08
1.11527e-08
1.0651e-08
9.98092e-09
9.17461e-09
8.26906e-09
7.30307e-09
6.31444e-09
5.33732e-09
4.4e-09
3.52316e-09
2.71864e-09
1.98893e-09
1.32746e-09
7.19507e-10
5.07802e-12
1.95269e-14
2.57944e-14
6.71068e-12
9.51744e-10
1.75787e-09
2.6375e-09
3.6111e-09
4.68835e-09
5.86677e-09
7.13116e-09
8.45424e-09
9.79814e-09
1.11167e-08
1.23584e-08
1.34699e-08
1.43999e-08
1.51031e-08
1.55442e-08
1.57004e-08
1.55634e-08
1.51404e-08
1.44532e-08
1.35365e-08
1.24349e-08
1.11992e-08
9.88289e-09
8.53756e-09
7.20977e-09
5.93795e-09
4.75007e-09
3.66197e-09
2.67678e-09
1.78526e-09
9.67136e-10
6.82361e-12
2.62349e-14
3.12923e-14
8.1428e-12
1.15509e-09
2.13395e-09
3.20286e-09
4.38697e-09
5.69831e-09
7.13397e-09
8.67556e-09
1.02898e-08
1.19305e-08
1.35413e-08
1.50591e-08
1.64183e-08
1.75558e-08
1.84161e-08
1.89554e-08
1.91457e-08
1.89768e-08
1.84577e-08
1.76154e-08
1.64927e-08
1.51445e-08
1.36335e-08
1.20252e-08
1.03829e-08
8.76333e-09
7.21341e-09
5.7671e-09
4.44358e-09
3.24646e-09
2.16427e-09
1.17208e-09
8.26736e-12
3.17781e-14
3.53028e-14
9.18858e-12
1.30369e-09
2.40885e-09
3.61623e-09
4.95448e-09
6.43733e-09
8.06161e-09
9.80656e-09
1.16346e-08
1.34933e-08
1.53189e-08
1.70396e-08
1.8581e-08
1.98712e-08
2.0847e-08
2.14585e-08
2.16737e-08
2.14811e-08
2.08911e-08
1.99343e-08
1.86598e-08
1.71301e-08
1.54166e-08
1.35937e-08
1.17332e-08
9.89953e-09
8.1457e-09
6.51009e-09
5.01428e-09
3.66222e-09
2.44076e-09
1.32153e-09
9.3193e-12
3.58126e-14
3.791e-14
9.86926e-12
1.40049e-09
2.58797e-09
3.88566e-09
5.3245e-09
6.91936e-09
8.66689e-09
1.05448e-08
1.25127e-08
1.45141e-08
1.64803e-08
1.8334e-08
1.99947e-08
2.13851e-08
2.24365e-08
2.30953e-08
2.33267e-08
2.31185e-08
2.24818e-08
2.14499e-08
2.00757e-08
1.84269e-08
1.65806e-08
1.46172e-08
1.2614e-08
1.06403e-08
8.75323e-09
6.99402e-09
5.38581e-09
3.93275e-09
2.6206e-09
1.41871e-09
1.00027e-11
3.84302e-14
3.9436e-14
1.02682e-11
1.45728e-09
2.69307e-09
4.04378e-09
5.54172e-09
7.20242e-09
9.02244e-09
1.09786e-08
1.30288e-08
1.51143e-08
1.71633e-08
1.90953e-08
2.08264e-08
2.22757e-08
2.33718e-08
2.40583e-08
2.42993e-08
2.40818e-08
2.34175e-08
2.23412e-08
2.09082e-08
1.91892e-08
1.72647e-08
1.52184e-08
1.31311e-08
1.10751e-08
9.10967e-09
7.27782e-09
5.60361e-09
4.09129e-09
2.72595e-09
1.47561e-09
1.04025e-11
3.99597e-14
4.02476e-14
1.04806e-11
1.48755e-09
2.7491e-09
4.12811e-09
5.65758e-09
7.35343e-09
9.21217e-09
1.12101e-08
1.33043e-08
1.54347e-08
1.7528e-08
1.9502e-08
2.12707e-08
2.27516e-08
2.38715e-08
2.4573e-08
2.4819e-08
2.45965e-08
2.39174e-08
2.28173e-08
2.13528e-08
1.95962e-08
1.76298e-08
1.55393e-08
1.3407e-08
1.1307e-08
9.29969e-09
7.42907e-09
5.71964e-09
4.17572e-09
2.78204e-09
1.50591e-09
1.06151e-11
4.07718e-14
4.0643e-14
1.05843e-11
1.50233e-09
2.77647e-09
4.1693e-09
5.71419e-09
7.42724e-09
9.30492e-09
1.13234e-08
1.34391e-08
1.55915e-08
1.77065e-08
1.97009e-08
2.14881e-08
2.29845e-08
2.4116e-08
2.48248e-08
2.50733e-08
2.48484e-08
2.41619e-08
2.30502e-08
2.15702e-08
1.97952e-08
1.78083e-08
1.56961e-08
1.35419e-08
1.14202e-08
9.3925e-09
7.50292e-09
5.77628e-09
4.21693e-09
2.80941e-09
1.52068e-09
1.07187e-11
4.1167e-14
4.08207e-14
1.0631e-11
1.50899e-09
2.78881e-09
4.18787e-09
5.73972e-09
7.46052e-09
9.34676e-09
1.13744e-08
1.34999e-08
1.56622e-08
1.7787e-08
1.97907e-08
2.15862e-08
2.30896e-08
2.42264e-08
2.49385e-08
2.51881e-08
2.4962e-08
2.42723e-08
2.31553e-08
2.16684e-08
1.9885e-08
1.78889e-08
1.57668e-08
1.36027e-08
1.14713e-08
9.43434e-09
7.5362e-09
5.8018e-09
4.23548e-09
2.82173e-09
1.52733e-09
1.07653e-11
4.13445e-14
4.08949e-14
1.06505e-11
1.51178e-09
2.79397e-09
4.19565e-09
5.75041e-09
7.47446e-09
9.36428e-09
1.13958e-08
1.35253e-08
1.56919e-08
1.78208e-08
1.98284e-08
2.16274e-08
2.31336e-08
2.42727e-08
2.49861e-08
2.52362e-08
2.50097e-08
2.43186e-08
2.31994e-08
2.17095e-08
1.99227e-08
1.79226e-08
1.57964e-08
1.36281e-08
1.14927e-08
9.45184e-09
7.55013e-09
5.81248e-09
4.24325e-09
2.82688e-09
1.53011e-09
1.07847e-11
4.14185e-14
4.09239e-14
1.06581e-11
1.51287e-09
2.79599e-09
4.19869e-09
5.75459e-09
7.47991e-09
9.37113e-09
1.14042e-08
1.35353e-08
1.57034e-08
1.7834e-08
1.98431e-08
2.16435e-08
2.31509e-08
2.42908e-08
2.50048e-08
2.5255e-08
2.50283e-08
2.43367e-08
2.32166e-08
2.17256e-08
1.99374e-08
1.79358e-08
1.5808e-08
1.36381e-08
1.15011e-08
9.45869e-09
7.55557e-09
5.81665e-09
4.24628e-09
2.8289e-09
1.5312e-09
1.07923e-11
4.14474e-14
4.09344e-14
1.06609e-11
1.51327e-09
2.79673e-09
4.1998e-09
5.75612e-09
7.48191e-09
9.37364e-09
1.14073e-08
1.3539e-08
1.57077e-08
1.78388e-08
1.98485e-08
2.16494e-08
2.31572e-08
2.42975e-08
2.50116e-08
2.5262e-08
2.50352e-08
2.43433e-08
2.32229e-08
2.17315e-08
1.99428e-08
1.79406e-08
1.58123e-08
1.36417e-08
1.15041e-08
9.46119e-09
7.55756e-09
5.81818e-09
4.24739e-09
2.82963e-09
1.5316e-09
1.07951e-11
4.14579e-14
4.09381e-14
1.06619e-11
1.51341e-09
2.79699e-09
4.20018e-09
5.75665e-09
7.4826e-09
9.37451e-09
1.14083e-08
1.35402e-08
1.57092e-08
1.78405e-08
1.98504e-08
2.16514e-08
2.31594e-08
2.42998e-08
2.5014e-08
2.52643e-08
2.50375e-08
2.43456e-08
2.32251e-08
2.17335e-08
1.99446e-08
1.79423e-08
1.58137e-08
1.3643e-08
1.15052e-08
9.46206e-09
7.55825e-09
5.8187e-09
4.24777e-09
2.82989e-09
1.53173e-09
1.07961e-11
4.14615e-14
4.09393e-14
1.06622e-11
1.51345e-09
2.79707e-09
4.20031e-09
5.75682e-09
7.48282e-09
9.37479e-09
1.14087e-08
1.35406e-08
1.57096e-08
1.7841e-08
1.9851e-08
2.16521e-08
2.31601e-08
2.43005e-08
2.50147e-08
2.52651e-08
2.50383e-08
2.43464e-08
2.32258e-08
2.17342e-08
1.99452e-08
1.79428e-08
1.58142e-08
1.36434e-08
1.15055e-08
9.46234e-09
7.55847e-09
5.81887e-09
4.2479e-09
2.82997e-09
1.53178e-09
1.07964e-11
4.14627e-14
4.09396e-14
1.06623e-11
1.51346e-09
2.79709e-09
4.20035e-09
5.75687e-09
7.48289e-09
9.37488e-09
1.14088e-08
1.35408e-08
1.57098e-08
1.78412e-08
1.98512e-08
2.16523e-08
2.31603e-08
2.43007e-08
2.5015e-08
2.52654e-08
2.50385e-08
2.43466e-08
2.3226e-08
2.17344e-08
1.99454e-08
1.7943e-08
1.58144e-08
1.36435e-08
1.15056e-08
9.46243e-09
7.55854e-09
5.81893e-09
4.24794e-09
2.83e-09
1.53179e-09
1.07965e-11
4.14631e-14
4.09397e-14
1.06623e-11
1.51347e-09
2.7971e-09
4.20036e-09
5.75689e-09
7.48291e-09
9.37491e-09
1.14088e-08
1.35408e-08
1.57098e-08
1.78413e-08
1.98512e-08
2.16523e-08
2.31604e-08
2.43008e-08
2.5015e-08
2.52654e-08
2.50386e-08
2.43467e-08
2.32261e-08
2.17344e-08
1.99455e-08
1.79431e-08
1.58144e-08
1.36436e-08
1.15057e-08
9.46246e-09
7.55856e-09
5.81894e-09
4.24795e-09
2.83e-09
1.5318e-09
1.07965e-11
4.14632e-14
4.09398e-14
1.06623e-11
1.51347e-09
2.7971e-09
4.20036e-09
5.75689e-09
7.48292e-09
9.37491e-09
1.14088e-08
1.35408e-08
1.57098e-08
1.78413e-08
1.98512e-08
2.16524e-08
2.31604e-08
2.43008e-08
2.50151e-08
2.52655e-08
2.50386e-08
2.43467e-08
2.32261e-08
2.17345e-08
1.99455e-08
1.79431e-08
1.58144e-08
1.36436e-08
1.15057e-08
9.46246e-09
7.55857e-09
5.81895e-09
4.24795e-09
2.83001e-09
1.5318e-09
1.07965e-11
4.14632e-14
4.09398e-14
1.06623e-11
1.51347e-09
2.7971e-09
4.20036e-09
5.75689e-09
7.48292e-09
9.37492e-09
1.14088e-08
1.35408e-08
1.57099e-08
1.78413e-08
1.98512e-08
2.16524e-08
2.31604e-08
2.43008e-08
2.50151e-08
2.52655e-08
2.50386e-08
2.43467e-08
2.32261e-08
2.17345e-08
1.99455e-08
1.79431e-08
1.58144e-08
1.36436e-08
1.15057e-08
9.46246e-09
7.55857e-09
5.81895e-09
4.24795e-09
2.83001e-09
1.5318e-09
1.07965e-11
4.14632e-14
4.09398e-14
1.06623e-11
1.51347e-09
2.7971e-09
4.20036e-09
5.75689e-09
7.48292e-09
9.37492e-09
1.14088e-08
1.35408e-08
1.57099e-08
1.78413e-08
1.98512e-08
2.16524e-08
2.31604e-08
2.43008e-08
2.50151e-08
2.52655e-08
2.50386e-08
2.43467e-08
2.32261e-08
2.17345e-08
1.99455e-08
1.79431e-08
1.58144e-08
1.36436e-08
1.15057e-08
9.46247e-09
7.55857e-09
5.81895e-09
4.24795e-09
2.83001e-09
1.5318e-09
1.07965e-11
4.14632e-14
4.09398e-14
1.06623e-11
1.51347e-09
2.7971e-09
4.20036e-09
5.75689e-09
7.48292e-09
9.37492e-09
1.14088e-08
1.35408e-08
1.57099e-08
1.78413e-08
1.98512e-08
2.16524e-08
2.31604e-08
2.43008e-08
2.50151e-08
2.52655e-08
2.50386e-08
2.43467e-08
2.32261e-08
2.17345e-08
1.99455e-08
1.79431e-08
1.58144e-08
1.36436e-08
1.15057e-08
9.46247e-09
7.55857e-09
5.81895e-09
4.24795e-09
2.83001e-09
1.5318e-09
1.07965e-11
4.14632e-14
4.09398e-14
1.06623e-11
1.51347e-09
2.7971e-09
4.20036e-09
5.75689e-09
7.48292e-09
9.37492e-09
1.14088e-08
1.35408e-08
1.57099e-08
1.78413e-08
1.98512e-08
2.16524e-08
2.31604e-08
2.43008e-08
2.50151e-08
2.52655e-08
2.50386e-08
2.43467e-08
2.32261e-08
2.17345e-08
1.99455e-08
1.79431e-08
1.58144e-08
1.36436e-08
1.15057e-08
9.46247e-09
7.55857e-09
5.81895e-09
4.24795e-09
2.83001e-09
1.5318e-09
1.07965e-11
4.14632e-14
4.09398e-14
1.06623e-11
1.51347e-09
2.7971e-09
4.20036e-09
5.75689e-09
7.48292e-09
9.37492e-09
1.14088e-08
1.35408e-08
1.57099e-08
1.78413e-08
1.98512e-08
2.16524e-08
2.31604e-08
2.43008e-08
2.50151e-08
2.52655e-08
2.50386e-08
2.43467e-08
2.32261e-08
2.17345e-08
1.99455e-08
1.79431e-08
1.58144e-08
1.36436e-08
1.15057e-08
9.46247e-09
7.55857e-09
5.81895e-09
4.24795e-09
2.83001e-09
1.5318e-09
1.07965e-11
4.14632e-14
4.09398e-14
1.06623e-11
1.51347e-09
2.7971e-09
4.20036e-09
5.75689e-09
7.48292e-09
9.37492e-09
1.14088e-08
1.35408e-08
1.57099e-08
1.78413e-08
1.98512e-08
2.16524e-08
2.31604e-08
2.43008e-08
2.50151e-08
2.52655e-08
2.50386e-08
2.43467e-08
2.32261e-08
2.17345e-08
1.99455e-08
1.79431e-08
1.58144e-08
1.36436e-08
1.15057e-08
9.46247e-09
7.55857e-09
5.81895e-09
4.24795e-09
2.83001e-09
1.5318e-09
1.07965e-11
4.14632e-14
4.09398e-14
1.06623e-11
1.51347e-09
2.7971e-09
4.20036e-09
5.75689e-09
7.48292e-09
9.37492e-09
1.14088e-08
1.35408e-08
1.57099e-08
1.78413e-08
1.98512e-08
2.16524e-08
2.31604e-08
2.43008e-08
2.50151e-08
2.52655e-08
2.50386e-08
2.43467e-08
2.32261e-08
2.17345e-08
1.99455e-08
1.79431e-08
1.58144e-08
1.36436e-08
1.15057e-08
9.46247e-09
7.55857e-09
5.81895e-09
4.24795e-09
2.83001e-09
1.5318e-09
1.07965e-11
4.14632e-14
4.09398e-14
1.06623e-11
1.51347e-09
2.7971e-09
4.20036e-09
5.75689e-09
7.48292e-09
9.37492e-09
1.14088e-08
1.35408e-08
1.57099e-08
1.78413e-08
1.98512e-08
2.16524e-08
2.31604e-08
2.43008e-08
2.50151e-08
2.52655e-08
2.50386e-08
2.43467e-08
2.32261e-08
2.17345e-08
1.99455e-08
1.79431e-08
1.58144e-08
1.36436e-08
1.15057e-08
9.46247e-09
7.55857e-09
5.81895e-09
4.24795e-09
2.83001e-09
1.5318e-09
1.07965e-11
4.14632e-14
4.09398e-14
1.06623e-11
1.51347e-09
2.7971e-09
4.20036e-09
5.75689e-09
7.48292e-09
9.37492e-09
1.14088e-08
1.35408e-08
1.57099e-08
1.78413e-08
1.98512e-08
2.16524e-08
2.31604e-08
2.43008e-08
2.50151e-08
2.52655e-08
2.50386e-08
2.43467e-08
2.32261e-08
2.17345e-08
1.99455e-08
1.79431e-08
1.58144e-08
1.36436e-08
1.15057e-08
9.46247e-09
7.55857e-09
5.81895e-09
4.24795e-09
2.83001e-09
1.5318e-09
1.07965e-11
4.14632e-14
4.09398e-14
1.06623e-11
1.51347e-09
2.7971e-09
4.20036e-09
5.75689e-09
7.48292e-09
9.37492e-09
1.14088e-08
1.35408e-08
1.57099e-08
1.78413e-08
1.98512e-08
2.16524e-08
2.31604e-08
2.43008e-08
2.50151e-08
2.52655e-08
2.50386e-08
2.43467e-08
2.32261e-08
2.17345e-08
1.99455e-08
1.79431e-08
1.58144e-08
1.36436e-08
1.15057e-08
9.46247e-09
7.55857e-09
5.81895e-09
4.24795e-09
2.83001e-09
1.5318e-09
1.07965e-11
4.14632e-14
4.09398e-14
1.06623e-11
1.51347e-09
2.7971e-09
4.20036e-09
5.75689e-09
7.48292e-09
9.37492e-09
1.14088e-08
1.35408e-08
1.57099e-08
1.78413e-08
1.98512e-08
2.16524e-08
2.31604e-08
2.43008e-08
2.50151e-08
2.52655e-08
2.50386e-08
2.43467e-08
2.32261e-08
2.17345e-08
1.99455e-08
1.79431e-08
1.58144e-08
1.36436e-08
1.15057e-08
9.46247e-09
7.55857e-09
5.81895e-09
4.24795e-09
2.83001e-09
1.5318e-09
1.07965e-11
4.14632e-14
4.09398e-14
1.06623e-11
1.51347e-09
2.7971e-09
4.20036e-09
5.75689e-09
7.48292e-09
9.37492e-09
1.14088e-08
1.35408e-08
1.57099e-08
1.78413e-08
1.98512e-08
2.16524e-08
2.31604e-08
2.43008e-08
2.50151e-08
2.52655e-08
2.50386e-08
2.43467e-08
2.32261e-08
2.17345e-08
1.99455e-08
1.79431e-08
1.58144e-08
1.36436e-08
1.15057e-08
9.46247e-09
7.55857e-09
5.81895e-09
4.24795e-09
2.83001e-09
1.5318e-09
1.07965e-11
4.14632e-14
4.09398e-14
1.06623e-11
1.51347e-09
2.7971e-09
4.20036e-09
5.75689e-09
7.48292e-09
9.37492e-09
1.14088e-08
1.35408e-08
1.57099e-08
1.78413e-08
1.98512e-08
2.16524e-08
2.31604e-08
2.43008e-08
2.50151e-08
2.52655e-08
2.50386e-08
2.43467e-08
2.32261e-08
2.17345e-08
1.99455e-08
1.79431e-08
1.58144e-08
1.36436e-08
1.15057e-08
9.46247e-09
7.55857e-09
5.81895e-09
4.24795e-09
2.83001e-09
1.5318e-09
1.07965e-11
4.14632e-14
4.09398e-14
1.06623e-11
1.51347e-09
2.7971e-09
4.20036e-09
5.75689e-09
7.48292e-09
9.37492e-09
1.14088e-08
1.35408e-08
1.57099e-08
1.78413e-08
1.98512e-08
2.16524e-08
2.31604e-08
2.43008e-08
2.50151e-08
2.52655e-08
2.50386e-08
2.43467e-08
2.32261e-08
2.17345e-08
1.99455e-08
1.79431e-08
1.58144e-08
1.36436e-08
1.15057e-08
9.46247e-09
7.55857e-09
5.81895e-09
4.24795e-09
2.83001e-09
1.5318e-09
1.07965e-11
4.14632e-14
4.09398e-14
1.06623e-11
1.51347e-09
2.7971e-09
4.20036e-09
5.75689e-09
7.48292e-09
9.37492e-09
1.14088e-08
1.35408e-08
1.57099e-08
1.78413e-08
1.98512e-08
2.16524e-08
2.31604e-08
2.43008e-08
2.50151e-08
2.52655e-08
2.50386e-08
2.43467e-08
2.32261e-08
2.17345e-08
1.99455e-08
1.79431e-08
1.58144e-08
1.36436e-08
1.15057e-08
9.46247e-09
7.55857e-09
5.81895e-09
4.24795e-09
2.83001e-09
1.5318e-09
1.07965e-11
4.14632e-14
4.09398e-14
1.06623e-11
1.51347e-09
2.7971e-09
4.20036e-09
5.75689e-09
7.48292e-09
9.37492e-09
1.14088e-08
1.35408e-08
1.57099e-08
1.78413e-08
1.98512e-08
2.16524e-08
2.31604e-08
2.43008e-08
2.50151e-08
2.52655e-08
2.50386e-08
2.43467e-08
2.32261e-08
2.17345e-08
1.99455e-08
1.79431e-08
1.58144e-08
1.36436e-08
1.15057e-08
9.46247e-09
7.55857e-09
5.81895e-09
4.24795e-09
2.83001e-09
1.5318e-09
1.07965e-11
4.14632e-14
4.09398e-14
1.06623e-11
1.51347e-09
2.7971e-09
4.20036e-09
5.75689e-09
7.48292e-09
9.37492e-09
1.14088e-08
1.35408e-08
1.57099e-08
1.78413e-08
1.98512e-08
2.16524e-08
2.31604e-08
2.43008e-08
2.50151e-08
2.52655e-08
2.50386e-08
2.43467e-08
2.32261e-08
2.17345e-08
1.99455e-08
1.79431e-08
1.58144e-08
1.36436e-08
1.15057e-08
9.46247e-09
7.55857e-09
5.81895e-09
4.24795e-09
2.83001e-09
1.5318e-09
1.07965e-11
4.14632e-14
4.09398e-14
1.06623e-11
1.51347e-09
2.7971e-09
4.20036e-09
5.75689e-09
7.48292e-09
9.37492e-09
1.14088e-08
1.35408e-08
1.57099e-08
1.78413e-08
1.98512e-08
2.16524e-08
2.31604e-08
2.43008e-08
2.50151e-08
2.52655e-08
2.50386e-08
2.43467e-08
2.32261e-08
2.17345e-08
1.99455e-08
1.79431e-08
1.58144e-08
1.36436e-08
1.15057e-08
9.46247e-09
7.55857e-09
5.81895e-09
4.24795e-09
2.83001e-09
1.5318e-09
1.07965e-11
4.14632e-14
4.09398e-14
1.06623e-11
1.51347e-09
2.7971e-09
4.20036e-09
5.75689e-09
7.48292e-09
9.37492e-09
1.14088e-08
1.35408e-08
1.57099e-08
1.78413e-08
1.98512e-08
2.16524e-08
2.31604e-08
2.43008e-08
2.50151e-08
2.52655e-08
2.50386e-08
2.43467e-08
2.32261e-08
2.17345e-08
1.99455e-08
1.79431e-08
1.58144e-08
1.36436e-08
1.15057e-08
9.46247e-09
7.55857e-09
5.81895e-09
4.24795e-09
2.83001e-09
1.5318e-09
1.07965e-11
4.14632e-14
4.09398e-14
1.06623e-11
1.51347e-09
2.7971e-09
4.20036e-09
5.75689e-09
7.48292e-09
9.37492e-09
1.14088e-08
1.35408e-08
1.57099e-08
1.78413e-08
1.98512e-08
2.16524e-08
2.31604e-08
2.43008e-08
2.50151e-08
2.52655e-08
2.50386e-08
2.43467e-08
2.32261e-08
2.17345e-08
1.99455e-08
1.79431e-08
1.58144e-08
1.36436e-08
1.15057e-08
9.46247e-09
7.55857e-09
5.81895e-09
4.24795e-09
2.83001e-09
1.5318e-09
1.07965e-11
4.14632e-14
4.09398e-14
1.06623e-11
1.51347e-09
2.7971e-09
4.20036e-09
5.75689e-09
7.48292e-09
9.37492e-09
1.14088e-08
1.35408e-08
1.57099e-08
1.78413e-08
1.98512e-08
2.16524e-08
2.31604e-08
2.43008e-08
2.50151e-08
2.52655e-08
2.50386e-08
2.43467e-08
2.32261e-08
2.17345e-08
1.99455e-08
1.79431e-08
1.58144e-08
1.36436e-08
1.15057e-08
9.46247e-09
7.55857e-09
5.81895e-09
4.24795e-09
2.83001e-09
1.5318e-09
1.07965e-11
4.14632e-14
4.09398e-14
1.06623e-11
1.51347e-09
2.7971e-09
4.20036e-09
5.75689e-09
7.48292e-09
9.37492e-09
1.14088e-08
1.35408e-08
1.57099e-08
1.78413e-08
1.98512e-08
2.16524e-08
2.31604e-08
2.43008e-08
2.50151e-08
2.52655e-08
2.50386e-08
2.43467e-08
2.32261e-08
2.17345e-08
1.99455e-08
1.79431e-08
1.58144e-08
1.36436e-08
1.15057e-08
9.46247e-09
7.55857e-09
5.81895e-09
4.24795e-09
2.83001e-09
1.5318e-09
1.07965e-11
4.14632e-14
4.09398e-14
1.06623e-11
1.51347e-09
2.7971e-09
4.20036e-09
5.75689e-09
7.48292e-09
9.37492e-09
1.14088e-08
1.35408e-08
1.57099e-08
1.78413e-08
1.98512e-08
2.16524e-08
2.31604e-08
2.43008e-08
2.50151e-08
2.52655e-08
2.50386e-08
2.43467e-08
2.32261e-08
2.17345e-08
1.99455e-08
1.79431e-08
1.58144e-08
1.36436e-08
1.15057e-08
9.46247e-09
7.55857e-09
5.81895e-09
4.24795e-09
2.83001e-09
1.5318e-09
1.07965e-11
4.14632e-14
4.09398e-14
1.06623e-11
1.51347e-09
2.7971e-09
4.20036e-09
5.75689e-09
7.48292e-09
9.37492e-09
1.14088e-08
1.35408e-08
1.57099e-08
1.78413e-08
1.98512e-08
2.16524e-08
2.31604e-08
2.43008e-08
2.50151e-08
2.52655e-08
2.50386e-08
2.43467e-08
2.32261e-08
2.17345e-08
1.99455e-08
1.79431e-08
1.58144e-08
1.36436e-08
1.15057e-08
9.46247e-09
7.55857e-09
5.81895e-09
4.24795e-09
2.83001e-09
1.5318e-09
1.07965e-11
4.14632e-14
4.09398e-14
1.06623e-11
1.51347e-09
2.7971e-09
4.20036e-09
5.75689e-09
7.48292e-09
9.37492e-09
1.14088e-08
1.35408e-08
1.57099e-08
1.78413e-08
1.98512e-08
2.16524e-08
2.31604e-08
2.43008e-08
2.50151e-08
2.52655e-08
2.50386e-08
2.43467e-08
2.32261e-08
2.17345e-08
1.99455e-08
1.79431e-08
1.58144e-08
1.36436e-08
1.15057e-08
9.46247e-09
7.55857e-09
5.81895e-09
4.24795e-09
2.83001e-09
1.5318e-09
1.07965e-11
4.14632e-14
4.09398e-14
1.06623e-11
1.51347e-09
2.7971e-09
4.20036e-09
5.75689e-09
7.48292e-09
9.37492e-09
1.14088e-08
1.35408e-08
1.57099e-08
1.78413e-08
1.98512e-08
2.16524e-08
2.31604e-08
2.43008e-08
2.50151e-08
2.52655e-08
2.50386e-08
2.43467e-08
2.32261e-08
2.17345e-08
1.99455e-08
1.79431e-08
1.58144e-08
1.36436e-08
1.15057e-08
9.46247e-09
7.55857e-09
5.81895e-09
4.24795e-09
2.83001e-09
1.5318e-09
1.07965e-11
4.14632e-14
4.09398e-14
1.06623e-11
1.51347e-09
2.7971e-09
4.20036e-09
5.75689e-09
7.48292e-09
9.37492e-09
1.14088e-08
1.35408e-08
1.57099e-08
1.78413e-08
1.98512e-08
2.16524e-08
2.31604e-08
2.43008e-08
2.50151e-08
2.52655e-08
2.50386e-08
2.43467e-08
2.32261e-08
2.17345e-08
1.99455e-08
1.79431e-08
1.58144e-08
1.36436e-08
1.15057e-08
9.46247e-09
7.55857e-09
5.81895e-09
4.24795e-09
2.83001e-09
1.5318e-09
1.07965e-11
4.14632e-14
4.09398e-14
1.06623e-11
1.51347e-09
2.7971e-09
4.20036e-09
5.75689e-09
7.48292e-09
9.37492e-09
1.14088e-08
1.35408e-08
1.57099e-08
1.78413e-08
1.98512e-08
2.16524e-08
2.31604e-08
2.43008e-08
2.50151e-08
2.52655e-08
2.50386e-08
2.43467e-08
2.32261e-08
2.17345e-08
1.99455e-08
1.79431e-08
1.58144e-08
1.36436e-08
1.15057e-08
9.46247e-09
7.55857e-09
5.81895e-09
4.24795e-09
2.83001e-09
1.5318e-09
1.07965e-11
4.14632e-14
4.09398e-14
1.06623e-11
1.51347e-09
2.7971e-09
4.20036e-09
5.75689e-09
7.48292e-09
9.37492e-09
1.14088e-08
1.35408e-08
1.57099e-08
1.78413e-08
1.98512e-08
2.16524e-08
2.31604e-08
2.43008e-08
2.50151e-08
2.52655e-08
2.50386e-08
2.43467e-08
2.32261e-08
2.17345e-08
1.99455e-08
1.79431e-08
1.58144e-08
1.36436e-08
1.15057e-08
9.46247e-09
7.55857e-09
5.81895e-09
4.24795e-09
2.83001e-09
1.5318e-09
1.07965e-11
4.14632e-14
4.09398e-14
1.06623e-11
1.51347e-09
2.7971e-09
4.20036e-09
5.75689e-09
7.48292e-09
9.37492e-09
1.14088e-08
1.35408e-08
1.57099e-08
1.78413e-08
1.98512e-08
2.16524e-08
2.31604e-08
2.43008e-08
2.50151e-08
2.52655e-08
2.50386e-08
2.43467e-08
2.32261e-08
2.17345e-08
1.99455e-08
1.79431e-08
1.58144e-08
1.36436e-08
1.15057e-08
9.46247e-09
7.55857e-09
5.81895e-09
4.24795e-09
2.83001e-09
1.5318e-09
1.07965e-11
4.14632e-14
4.09398e-14
1.06623e-11
1.51347e-09
2.7971e-09
4.20036e-09
5.75689e-09
7.48292e-09
9.37492e-09
1.14088e-08
1.35408e-08
1.57099e-08
1.78413e-08
1.98512e-08
2.16524e-08
2.31604e-08
2.43008e-08
2.50151e-08
2.52655e-08
2.50386e-08
2.43467e-08
2.32261e-08
2.17345e-08
1.99455e-08
1.79431e-08
1.58144e-08
1.36436e-08
1.15057e-08
9.46247e-09
7.55857e-09
5.81895e-09
4.24795e-09
2.83001e-09
1.5318e-09
1.07965e-11
4.14632e-14
4.09398e-14
1.06623e-11
1.51347e-09
2.7971e-09
4.20036e-09
5.75689e-09
7.48292e-09
9.37492e-09
1.14088e-08
1.35408e-08
1.57099e-08
1.78413e-08
1.98512e-08
2.16524e-08
2.31604e-08
2.43008e-08
2.50151e-08
2.52655e-08
2.50386e-08
2.43467e-08
2.32261e-08
2.17345e-08
1.99455e-08
1.79431e-08
1.58144e-08
1.36436e-08
1.15057e-08
9.46247e-09
7.55857e-09
5.81895e-09
4.24795e-09
2.83001e-09
1.5318e-09
1.07965e-11
4.14632e-14
4.09398e-14
1.06623e-11
1.51347e-09
2.7971e-09
4.20036e-09
5.75689e-09
7.48292e-09
9.37492e-09
1.14088e-08
1.35408e-08
1.57099e-08
1.78413e-08
1.98512e-08
2.16524e-08
2.31604e-08
2.43008e-08
2.50151e-08
2.52655e-08
2.50386e-08
2.43467e-08
2.32261e-08
2.17345e-08
1.99455e-08
1.79431e-08
1.58144e-08
1.36436e-08
1.15057e-08
9.46247e-09
7.55857e-09
5.81895e-09
4.24795e-09
2.83001e-09
1.5318e-09
1.07965e-11
4.14632e-14
4.09398e-14
1.06623e-11
1.51347e-09
2.7971e-09
4.20036e-09
5.75689e-09
7.48292e-09
9.37492e-09
1.14088e-08
1.35408e-08
1.57099e-08
1.78413e-08
1.98512e-08
2.16524e-08
2.31604e-08
2.43008e-08
2.50151e-08
2.52655e-08
2.50386e-08
2.43467e-08
2.32261e-08
2.17345e-08
1.99455e-08
1.79431e-08
1.58144e-08
1.36436e-08
1.15057e-08
9.46247e-09
7.55857e-09
5.81895e-09
4.24795e-09
2.83001e-09
1.5318e-09
1.07965e-11
4.14632e-14
4.09398e-14
1.06623e-11
1.51347e-09
2.7971e-09
4.20036e-09
5.75689e-09
7.48292e-09
9.37492e-09
1.14088e-08
1.35408e-08
1.57099e-08
1.78413e-08
1.98512e-08
2.16524e-08
2.31604e-08
2.43008e-08
2.50151e-08
2.52655e-08
2.50386e-08
2.43467e-08
2.32261e-08
2.17345e-08
1.99455e-08
1.79431e-08
1.58144e-08
1.36436e-08
1.15057e-08
9.46247e-09
7.55857e-09
5.81895e-09
4.24795e-09
2.83001e-09
1.5318e-09
1.07965e-11
4.14632e-14
4.09398e-14
1.06623e-11
1.51347e-09
2.7971e-09
4.20036e-09
5.75689e-09
7.48292e-09
9.37492e-09
1.14088e-08
1.35408e-08
1.57099e-08
1.78413e-08
1.98512e-08
2.16524e-08
2.31604e-08
2.43008e-08
2.50151e-08
2.52655e-08
2.50386e-08
2.43467e-08
2.32261e-08
2.17345e-08
1.99455e-08
1.79431e-08
1.58144e-08
1.36436e-08
1.15057e-08
9.46247e-09
7.55857e-09
5.81895e-09
4.24795e-09
2.83001e-09
1.5318e-09
1.07965e-11
4.14632e-14
4.09398e-14
1.06623e-11
1.51347e-09
2.7971e-09
4.20036e-09
5.75689e-09
7.48292e-09
9.37492e-09
1.14088e-08
1.35408e-08
1.57099e-08
1.78413e-08
1.98512e-08
2.16524e-08
2.31604e-08
2.43008e-08
2.50151e-08
2.52655e-08
2.50386e-08
2.43467e-08
2.32261e-08
2.17345e-08
1.99455e-08
1.79431e-08
1.58144e-08
1.36436e-08
1.15057e-08
9.46247e-09
7.55857e-09
5.81895e-09
4.24795e-09
2.83001e-09
1.5318e-09
1.07965e-11
4.14632e-14
4.09398e-14
1.06623e-11
1.51347e-09
2.7971e-09
4.20036e-09
5.75689e-09
7.48292e-09
9.37492e-09
1.14088e-08
1.35408e-08
1.57099e-08
1.78413e-08
1.98512e-08
2.16524e-08
2.31604e-08
2.43008e-08
2.50151e-08
2.52655e-08
2.50386e-08
2.43467e-08
2.32261e-08
2.17345e-08
1.99455e-08
1.79431e-08
1.58144e-08
1.36436e-08
1.15057e-08
9.46247e-09
7.55857e-09
5.81895e-09
4.24795e-09
2.83001e-09
1.5318e-09
1.07965e-11
4.14632e-14
4.09398e-14
1.06623e-11
1.51347e-09
2.7971e-09
4.20036e-09
5.75689e-09
7.48292e-09
9.37492e-09
1.14088e-08
1.35408e-08
1.57099e-08
1.78413e-08
1.98512e-08
2.16524e-08
2.31604e-08
2.43008e-08
2.50151e-08
2.52655e-08
2.50386e-08
2.43467e-08
2.32261e-08
2.17345e-08
1.99455e-08
1.79431e-08
1.58144e-08
1.36436e-08
1.15057e-08
9.46247e-09
7.55857e-09
5.81895e-09
4.24795e-09
2.83001e-09
1.5318e-09
1.07965e-11
4.14632e-14
4.09398e-14
1.06623e-11
1.51347e-09
2.7971e-09
4.20036e-09
5.75689e-09
7.48292e-09
9.37492e-09
1.14088e-08
1.35408e-08
1.57099e-08
1.78413e-08
1.98512e-08
2.16524e-08
2.31604e-08
2.43008e-08
2.50151e-08
2.52655e-08
2.50386e-08
2.43467e-08
2.32261e-08
2.17345e-08
1.99455e-08
1.79431e-08
1.58144e-08
1.36436e-08
1.15057e-08
9.46247e-09
7.55857e-09
5.81895e-09
4.24795e-09
2.83001e-09
1.5318e-09
1.07965e-11
4.14632e-14
4.09398e-14
1.06623e-11
1.51347e-09
2.7971e-09
4.20036e-09
5.75689e-09
7.48292e-09
9.37492e-09
1.14088e-08
1.35408e-08
1.57099e-08
1.78413e-08
1.98512e-08
2.16524e-08
2.31604e-08
2.43008e-08
2.50151e-08
2.52655e-08
2.50386e-08
2.43467e-08
2.32261e-08
2.17345e-08
1.99455e-08
1.79431e-08
1.58144e-08
1.36436e-08
1.15057e-08
9.46247e-09
7.55857e-09
5.81895e-09
4.24795e-09
2.83001e-09
1.5318e-09
1.07965e-11
4.14632e-14
4.09398e-14
1.06623e-11
1.51347e-09
2.7971e-09
4.20036e-09
5.75689e-09
7.48292e-09
9.37492e-09
1.14088e-08
1.35408e-08
1.57099e-08
1.78413e-08
1.98512e-08
2.16524e-08
2.31604e-08
2.43008e-08
2.50151e-08
2.52655e-08
2.50386e-08
2.43467e-08
2.32261e-08
2.17345e-08
1.99455e-08
1.79431e-08
1.58144e-08
1.36436e-08
1.15057e-08
9.46247e-09
7.55857e-09
5.81895e-09
4.24795e-09
2.83001e-09
1.5318e-09
1.07965e-11
4.14632e-14
4.09398e-14
1.06623e-11
1.51347e-09
2.7971e-09
4.20036e-09
5.75689e-09
7.48292e-09
9.37492e-09
1.14088e-08
1.35408e-08
1.57099e-08
1.78413e-08
1.98512e-08
2.16524e-08
2.31604e-08
2.43008e-08
2.50151e-08
2.52655e-08
2.50386e-08
2.43467e-08
2.32261e-08
2.17345e-08
1.99455e-08
1.79431e-08
1.58144e-08
1.36436e-08
1.15057e-08
9.46247e-09
7.55857e-09
5.81895e-09
4.24795e-09
2.83001e-09
1.5318e-09
1.07965e-11
4.14632e-14
4.09398e-14
1.06623e-11
1.51347e-09
2.7971e-09
4.20036e-09
5.75689e-09
7.48292e-09
9.37492e-09
1.14088e-08
1.35408e-08
1.57099e-08
1.78413e-08
1.98512e-08
2.16524e-08
2.31604e-08
2.43008e-08
2.50151e-08
2.52655e-08
2.50386e-08
2.43467e-08
2.32261e-08
2.17345e-08
1.99455e-08
1.79431e-08
1.58144e-08
1.36436e-08
1.15057e-08
9.46247e-09
7.55857e-09
5.81895e-09
4.24795e-09
2.83001e-09
1.5318e-09
1.07965e-11
4.14632e-14
4.09398e-14
1.06623e-11
1.51347e-09
2.7971e-09
4.20036e-09
5.75689e-09
7.48292e-09
9.37492e-09
1.14088e-08
1.35408e-08
1.57099e-08
1.78413e-08
1.98512e-08
2.16524e-08
2.31604e-08
2.43008e-08
2.50151e-08
2.52655e-08
2.50386e-08
2.43467e-08
2.32261e-08
2.17345e-08
1.99455e-08
1.79431e-08
1.58144e-08
1.36436e-08
1.15057e-08
9.46247e-09
7.55857e-09
5.81895e-09
4.24795e-09
2.83001e-09
1.5318e-09
1.07965e-11
4.14632e-14
4.09398e-14
1.06623e-11
1.51347e-09
2.7971e-09
4.20036e-09
5.75689e-09
7.48292e-09
9.37492e-09
1.14088e-08
1.35408e-08
1.57099e-08
1.78413e-08
1.98512e-08
2.16524e-08
2.31604e-08
2.43008e-08
2.50151e-08
2.52655e-08
2.50386e-08
2.43467e-08
2.32261e-08
2.17345e-08
1.99455e-08
1.79431e-08
1.58144e-08
1.36436e-08
1.15057e-08
9.46247e-09
7.55857e-09
5.81895e-09
4.24795e-09
2.83001e-09
1.5318e-09
1.07965e-11
4.14632e-14
4.09398e-14
1.06623e-11
1.51347e-09
2.7971e-09
4.20036e-09
5.75689e-09
7.48292e-09
9.37492e-09
1.14088e-08
1.35408e-08
1.57099e-08
1.78413e-08
1.98512e-08
2.16524e-08
2.31604e-08
2.43008e-08
2.50151e-08
2.52655e-08
2.50386e-08
2.43467e-08
2.32261e-08
2.17345e-08
1.99455e-08
1.79431e-08
1.58144e-08
1.36436e-08
1.15057e-08
9.46247e-09
7.55857e-09
5.81895e-09
4.24795e-09
2.83001e-09
1.5318e-09
1.07965e-11
4.14632e-14
4.09398e-14
1.06623e-11
1.51347e-09
2.7971e-09
4.20036e-09
5.75689e-09
7.48292e-09
9.37492e-09
1.14088e-08
1.35408e-08
1.57099e-08
1.78413e-08
1.98512e-08
2.16524e-08
2.31604e-08
2.43008e-08
2.50151e-08
2.52655e-08
2.50386e-08
2.43467e-08
2.32261e-08
2.17345e-08
1.99455e-08
1.79431e-08
1.58144e-08
1.36436e-08
1.15057e-08
9.46247e-09
7.55857e-09
5.81895e-09
4.24795e-09
2.83001e-09
1.5318e-09
1.07965e-11
4.14632e-14
4.09398e-14
1.06623e-11
1.51347e-09
2.7971e-09
4.20036e-09
5.75689e-09
7.48292e-09
9.37492e-09
1.14088e-08
1.35408e-08
1.57099e-08
1.78413e-08
1.98512e-08
2.16524e-08
2.31604e-08
2.43008e-08
2.50151e-08
2.52655e-08
2.50386e-08
2.43467e-08
2.32261e-08
2.17345e-08
1.99455e-08
1.79431e-08
1.58144e-08
1.36436e-08
1.15057e-08
9.46247e-09
7.55857e-09
5.81895e-09
4.24795e-09
2.83001e-09
1.5318e-09
1.07965e-11
4.14632e-14
4.09398e-14
1.06623e-11
1.51347e-09
2.7971e-09
4.20036e-09
5.75689e-09
7.48292e-09
9.37492e-09
1.14088e-08