/*--------------------------------*- C++ -*----------------------------------*\
  =========                 |
  \\      /  F ield         | OpenFOAM: The Open Source CFD Toolbox
   \\    /   O peration     | Website:  https://openfoam.org
    \\  /    A nd           | Version:  13
     \\/     M anipulation  |
\*---------------------------------------------------------------------------*/
FoamFile
{
    format      ascii;
    class       volScalarField;
    location    "140";
    object      rhok;
}
// * * * * * * * * * * * * * * * * * * * * * * * * * * * * * * * * * * * * * //

dimensions      [];

internalField   nonuniform List<scalar> 
315000
(
0.444624
0.429693
0.414741
0.413311
0.412562
0.411816
0.411073
0.410332
0.409593
0.408858
0.408125
0.407395
0.406668
0.405944
0.405223
0.404505
0.40379
0.403078
0.40237
0.401665
0.400962
0.400263
0.399568
0.398876
0.398187
0.397501
0.396819
0.396141
0.395465
0.394794
0.394125
0.39346
0.392799
0.392141
0.391486
0.390835
0.390187
0.389543
0.388902
0.388264
0.387629
0.386998
0.38637
0.385744
0.385122
0.384503
0.383887
0.383274
0.382663
0.382055
0.38145
0.380847
0.380246
0.379648
0.379052
0.378458
0.377866
0.377275
0.376687
0.3761
0.375514
0.37493
0.374347
0.373765
0.373184
0.372604
0.372025
0.371446
0.370867
0.370288
0.444624
0.429692
0.414739
0.413308
0.412559
0.411813
0.411069
0.410328
0.40959
0.408854
0.408122
0.407392
0.406665
0.405941
0.40522
0.404502
0.403787
0.403075
0.402366
0.401661
0.400959
0.40026
0.399564
0.398872
0.398183
0.397498
0.396815
0.396137
0.395462
0.39479
0.394121
0.393457
0.392795
0.392137
0.391483
0.390831
0.390184
0.389539
0.388898
0.38826
0.387626
0.386994
0.386366
0.385741
0.385119
0.3845
0.383884
0.383271
0.38266
0.382052
0.381447
0.380844
0.380244
0.379645
0.379049
0.378456
0.377864
0.377274
0.376685
0.376098
0.375513
0.374929
0.374346
0.373764
0.373184
0.372603
0.372024
0.371445
0.370867
0.370288
0.444624
0.429691
0.414736
0.413306
0.412557
0.41181
0.411067
0.410326
0.409587
0.408852
0.408119
0.407389
0.406662
0.405938
0.405216
0.404498
0.403783
0.403072
0.402363
0.401658
0.400955
0.400256
0.399561
0.398869
0.39818
0.397494
0.396812
0.396133
0.395458
0.394786
0.394118
0.393453
0.392792
0.392134
0.391479
0.390828
0.39018
0.389536
0.388895
0.388257
0.387623
0.386991
0.386363
0.385738
0.385116
0.384497
0.383881
0.383268
0.382658
0.38205
0.381445
0.380842
0.380242
0.379643
0.379048
0.378454
0.377862
0.377272
0.376684
0.376097
0.375512
0.374928
0.374345
0.373764
0.373183
0.372603
0.372024
0.371445
0.370866
0.370288
0.444624
0.42969
0.414734
0.413303
0.412554
0.411808
0.411064
0.410323
0.409585
0.408849
0.408116
0.407386
0.406659
0.405935
0.405214
0.404496
0.403781
0.403069
0.40236
0.401655
0.400952
0.400253
0.399558
0.398866
0.398177
0.397491
0.396809
0.39613
0.395455
0.394783
0.394115
0.39345
0.392789
0.392131
0.391476
0.390825
0.390178
0.389533
0.388892
0.388255
0.38762
0.386989
0.386361
0.385736
0.385114
0.384495
0.383879
0.383266
0.382655
0.382048
0.381443
0.38084
0.38024
0.379642
0.379046
0.378452
0.377861
0.377271
0.376682
0.376096
0.375511
0.374927
0.374344
0.373763
0.373182
0.372602
0.372023
0.371445
0.370866
0.370288
0.444624
0.429689
0.414732
0.413301
0.412552
0.411806
0.411062
0.410321
0.409583
0.408847
0.408114
0.407384
0.406657
0.405933
0.405211
0.404493
0.403778
0.403066
0.402358
0.401652
0.40095
0.400251
0.399555
0.398863
0.398174
0.397489
0.396807
0.396128
0.395453
0.394781
0.394113
0.393448
0.392786
0.392129
0.391474
0.390823
0.390175
0.389531
0.38889
0.388252
0.387618
0.386987
0.386359
0.385734
0.385112
0.384493
0.383877
0.383264
0.382654
0.382046
0.381441
0.380838
0.380238
0.37964
0.379045
0.378451
0.377859
0.377269
0.376681
0.376095
0.37551
0.374926
0.374344
0.373762
0.373182
0.372602
0.372023
0.371444
0.370866
0.370288
0.444624
0.429688
0.414731
0.4133
0.412551
0.411804
0.411061
0.410319
0.409581
0.408845
0.408112
0.407382
0.406655
0.405931
0.40521
0.404492
0.403776
0.403065
0.402356
0.40165
0.400948
0.400249
0.399553
0.398861
0.398172
0.397487
0.396805
0.396126
0.395451
0.394779
0.394111
0.393446
0.392785
0.392127
0.391472
0.390821
0.390173
0.389529
0.388888
0.38825
0.387616
0.386985
0.386357
0.385732
0.38511
0.384491
0.383876
0.383263
0.382652
0.382045
0.38144
0.380837
0.380237
0.379639
0.379043
0.37845
0.377858
0.377269
0.376681
0.376094
0.375509
0.374925
0.374343
0.373762
0.373181
0.372602
0.372023
0.371444
0.370866
0.370288
0.444624
0.429688
0.41473
0.413299
0.41255
0.411803
0.411059
0.410318
0.40958
0.408844
0.408111
0.407381
0.406654
0.40593
0.405208
0.40449
0.403775
0.403063
0.402354
0.401649
0.400947
0.400248
0.399552
0.39886
0.398171
0.397485
0.396803
0.396125
0.395449
0.394778
0.394109
0.393444
0.392783
0.392125
0.391471
0.39082
0.390172
0.389528
0.388887
0.388249
0.387615
0.386984
0.386356
0.385731
0.385109
0.38449
0.383874
0.383261
0.382651
0.382044
0.381439
0.380836
0.380236
0.379638
0.379043
0.378449
0.377858
0.377268
0.37668
0.376094
0.375509
0.374925
0.374343
0.373761
0.373181
0.372601
0.372022
0.371444
0.370866
0.370288
0.444624
0.429687
0.414729
0.413298
0.412549
0.411803
0.411059
0.410317
0.409579
0.408843
0.40811
0.40738
0.406653
0.405929
0.405207
0.404489
0.403774
0.403062
0.402354
0.401648
0.400946
0.400247
0.399551
0.398859
0.39817
0.397484
0.396802
0.396124
0.395448
0.394777
0.394108
0.393443
0.392782
0.392124
0.39147
0.390819
0.390171
0.389527
0.388886
0.388248
0.387614
0.386983
0.386355
0.38573
0.385108
0.384489
0.383874
0.383261
0.38265
0.382043
0.381438
0.380835
0.380235
0.379638
0.379042
0.378449
0.377857
0.377267
0.376679
0.376093
0.375508
0.374925
0.374342
0.373761
0.373181
0.372601
0.372022
0.371444
0.370866
0.370288
0.444624
0.429687
0.414729
0.413298
0.412549
0.411802
0.411058
0.410317
0.409579
0.408843
0.40811
0.40738
0.406652
0.405928
0.405207
0.404489
0.403774
0.403062
0.402353
0.401647
0.400945
0.400246
0.399551
0.398858
0.398169
0.397484
0.396802
0.396123
0.395448
0.394776
0.394108
0.393443
0.392781
0.392124
0.391469
0.390818
0.39017
0.389526
0.388885
0.388248
0.387613
0.386982
0.386354
0.385729
0.385108
0.384489
0.383873
0.38326
0.38265
0.382042
0.381437
0.380835
0.380235
0.379637
0.379042
0.378448
0.377857
0.377267
0.376679
0.376093
0.375508
0.374924
0.374342
0.373761
0.373181
0.372601
0.372022
0.371444
0.370866
0.370288
0.444624
0.429687
0.414729
0.413298
0.412549
0.411802
0.411058
0.410317
0.409578
0.408843
0.40811
0.40738
0.406652
0.405928
0.405207
0.404489
0.403774
0.403062
0.402353
0.401647
0.400945
0.400246
0.39955
0.398858
0.398169
0.397483
0.396801
0.396123
0.395447
0.394776
0.394107
0.393443
0.392781
0.392123
0.391469
0.390818
0.39017
0.389526
0.388885
0.388247
0.387613
0.386982
0.386354
0.385729
0.385107
0.384489
0.383873
0.38326
0.38265
0.382042
0.381437
0.380835
0.380235
0.379637
0.379041
0.378448
0.377856
0.377267
0.376679
0.376093
0.375508
0.374924
0.374342
0.373761
0.37318
0.372601
0.372022
0.371444
0.370866
0.370288
0.444624
0.429687
0.414729
0.413298
0.412549
0.411802
0.411058
0.410317
0.409578
0.408843
0.40811
0.40738
0.406652
0.405928
0.405207
0.404489
0.403774
0.403062
0.402353
0.401647
0.400945
0.400246
0.39955
0.398858
0.398169
0.397483
0.396801
0.396123
0.395447
0.394776
0.394107
0.393442
0.392781
0.392123
0.391469
0.390818
0.39017
0.389526
0.388885
0.388247
0.387613
0.386982
0.386354
0.385729
0.385107
0.384488
0.383873
0.38326
0.382649
0.382042
0.381437
0.380835
0.380235
0.379637
0.379041
0.378448
0.377856
0.377267
0.376679
0.376093
0.375508
0.374924
0.374342
0.373761
0.37318
0.372601
0.372022
0.371444
0.370866
0.370288
0.444624
0.429687
0.414729
0.413298
0.412549
0.411802
0.411058
0.410317
0.409579
0.408843
0.40811
0.40738
0.406652
0.405928
0.405207
0.404489
0.403774
0.403062
0.402353
0.401647
0.400945
0.400246
0.39955
0.398858
0.398169
0.397483
0.396801
0.396123
0.395447
0.394776
0.394107
0.393442
0.392781
0.392123
0.391469
0.390818
0.39017
0.389526
0.388885
0.388247
0.387613
0.386982
0.386354
0.385729
0.385107
0.384488
0.383873
0.38326
0.382649
0.382042
0.381437
0.380835
0.380235
0.379637
0.379041
0.378448
0.377856
0.377267
0.376679
0.376093
0.375508
0.374924
0.374342
0.373761
0.37318
0.372601
0.372022
0.371444
0.370866
0.370288
0.444624
0.429687
0.414729
0.413298
0.412549
0.411802
0.411059
0.410317
0.409579
0.408843
0.40811
0.40738
0.406653
0.405928
0.405207
0.404489
0.403774
0.403062
0.402353
0.401647
0.400945
0.400246
0.39955
0.398858
0.398169
0.397484
0.396802
0.396123
0.395448
0.394776
0.394107
0.393443
0.392781
0.392123
0.391469
0.390818
0.39017
0.389526
0.388885
0.388247
0.387613
0.386982
0.386354
0.385729
0.385107
0.384488
0.383873
0.38326
0.382649
0.382042
0.381437
0.380835
0.380235
0.379637
0.379041
0.378448
0.377856
0.377267
0.376679
0.376093
0.375508
0.374924
0.374342
0.373761
0.37318
0.372601
0.372022
0.371444
0.370866
0.370288
0.444624
0.429687
0.414729
0.413298
0.412549
0.411803
0.411059
0.410317
0.409579
0.408843
0.40811
0.40738
0.406653
0.405929
0.405207
0.404489
0.403774
0.403062
0.402353
0.401648
0.400945
0.400246
0.399551
0.398858
0.398169
0.397484
0.396802
0.396123
0.395448
0.394776
0.394108
0.393443
0.392781
0.392123
0.391469
0.390818
0.39017
0.389526
0.388885
0.388247
0.387613
0.386982
0.386354
0.385729
0.385107
0.384489
0.383873
0.38326
0.38265
0.382042
0.381437
0.380835
0.380235
0.379637
0.379041
0.378448
0.377856
0.377267
0.376679
0.376093
0.375508
0.374924
0.374342
0.373761
0.37318
0.372601
0.372022
0.371444
0.370866
0.370288
0.444624
0.429687
0.414729
0.413298
0.412549
0.411803
0.411059
0.410318
0.409579
0.408843
0.40811
0.40738
0.406653
0.405929
0.405207
0.404489
0.403774
0.403062
0.402353
0.401648
0.400946
0.400247
0.399551
0.398859
0.39817
0.397484
0.396802
0.396123
0.395448
0.394776
0.394108
0.393443
0.392782
0.392124
0.391469
0.390818
0.39017
0.389526
0.388885
0.388248
0.387613
0.386982
0.386354
0.385729
0.385108
0.384489
0.383873
0.38326
0.38265
0.382042
0.381437
0.380835
0.380235
0.379637
0.379041
0.378448
0.377857
0.377267
0.376679
0.376093
0.375508
0.374924
0.374342
0.373761
0.37318
0.372601
0.372022
0.371444
0.370866
0.370288
0.444624
0.429687
0.414729
0.413298
0.412549
0.411803
0.411059
0.410318
0.409579
0.408844
0.408111
0.40738
0.406653
0.405929
0.405208
0.40449
0.403774
0.403063
0.402354
0.401648
0.400946
0.400247
0.399551
0.398859
0.39817
0.397484
0.396802
0.396124
0.395448
0.394776
0.394108
0.393443
0.392782
0.392124
0.391469
0.390818
0.390171
0.389526
0.388885
0.388248
0.387613
0.386982
0.386354
0.38573
0.385108
0.384489
0.383873
0.38326
0.38265
0.382042
0.381437
0.380835
0.380235
0.379637
0.379042
0.378448
0.377857
0.377267
0.376679
0.376093
0.375508
0.374924
0.374342
0.373761
0.373181
0.372601
0.372022
0.371444
0.370866
0.370288
0.444624
0.429688
0.41473
0.413299
0.41255
0.411803
0.411059
0.410318
0.40958
0.408844
0.408111
0.407381
0.406654
0.405929
0.405208
0.40449
0.403775
0.403063
0.402354
0.401649
0.400946
0.400247
0.399552
0.398859
0.39817
0.397485
0.396803
0.396124
0.395449
0.394777
0.394109
0.393444
0.392782
0.392124
0.39147
0.390819
0.390171
0.389527
0.388886
0.388248
0.387614
0.386983
0.386355
0.38573
0.385108
0.384489
0.383873
0.38326
0.38265
0.382043
0.381438
0.380835
0.380235
0.379637
0.379042
0.378448
0.377857
0.377267
0.376679
0.376093
0.375508
0.374924
0.374342
0.373761
0.373181
0.372601
0.372022
0.371444
0.370866
0.370288
0.444624
0.429688
0.41473
0.413299
0.41255
0.411804
0.41106
0.410319
0.40958
0.408844
0.408111
0.407381
0.406654
0.40593
0.405209
0.40449
0.403775
0.403063
0.402355
0.401649
0.400947
0.400248
0.399552
0.39886
0.398171
0.397485
0.396803
0.396124
0.395449
0.394777
0.394109
0.393444
0.392783
0.392125
0.39147
0.390819
0.390171
0.389527
0.388886
0.388249
0.387614
0.386983
0.386355
0.38573
0.385108
0.38449
0.383874
0.383261
0.38265
0.382043
0.381438
0.380835
0.380235
0.379638
0.379042
0.378449
0.377857
0.377267
0.376679
0.376093
0.375508
0.374925
0.374342
0.373761
0.373181
0.372601
0.372022
0.371444
0.370866
0.370288
0.444624
0.429688
0.414731
0.4133
0.412551
0.411804
0.411061
0.410319
0.409581
0.408845
0.408112
0.407382
0.406655
0.405931
0.405209
0.404491
0.403776
0.403064
0.402355
0.40165
0.400947
0.400248
0.399553
0.39886
0.398171
0.397486
0.396804
0.396125
0.39545
0.394778
0.39411
0.393445
0.392783
0.392125
0.391471
0.39082
0.390172
0.389528
0.388887
0.388249
0.387615
0.386983
0.386355
0.385731
0.385109
0.38449
0.383874
0.383261
0.382651
0.382043
0.381438
0.380836
0.380236
0.379638
0.379042
0.378449
0.377857
0.377268
0.37668
0.376093
0.375508
0.374925
0.374342
0.373761
0.373181
0.372601
0.372022
0.371444
0.370866
0.370288
0.444624
0.429688
0.414731
0.4133
0.412552
0.411805
0.411061
0.41032
0.409582
0.408846
0.408113
0.407383
0.406656
0.405931
0.40521
0.404492
0.403777
0.403065
0.402356
0.40165
0.400948
0.400249
0.399553
0.398861
0.398172
0.397487
0.396804
0.396126
0.39545
0.394779
0.39411
0.393445
0.392784
0.392126
0.391471
0.39082
0.390173
0.389528
0.388887
0.38825
0.387615
0.386984
0.386356
0.385731
0.385109
0.38449
0.383875
0.383261
0.382651
0.382044
0.381439
0.380836
0.380236
0.379638
0.379043
0.378449
0.377857
0.377268
0.37668
0.376093
0.375508
0.374925
0.374343
0.373761
0.373181
0.372601
0.372022
0.371444
0.370866
0.370288
0.444624
0.429689
0.414732
0.413301
0.412552
0.411806
0.411062
0.410321
0.409582
0.408847
0.408114
0.407384
0.406656
0.405932
0.405211
0.404493
0.403778
0.403066
0.402357
0.401651
0.400949
0.40025
0.399554
0.398862
0.398173
0.397487
0.396805
0.396127
0.395451
0.394779
0.394111
0.393446
0.392785
0.392127
0.391472
0.390821
0.390173
0.389529
0.388888
0.38825
0.387616
0.386985
0.386357
0.385732
0.38511
0.384491
0.383875
0.383262
0.382652
0.382044
0.381439
0.380836
0.380236
0.379639
0.379043
0.378449
0.377858
0.377268
0.37668
0.376094
0.375509
0.374925
0.374343
0.373761
0.373181
0.372601
0.372022
0.371444
0.370866
0.370288
0.444624
0.429689
0.414733
0.413302
0.412553
0.411807
0.411063
0.410322
0.409583
0.408847
0.408115
0.407384
0.406657
0.405933
0.405212
0.404494
0.403779
0.403067
0.402358
0.401652
0.40095
0.400251
0.399555
0.398863
0.398174
0.397488
0.396806
0.396127
0.395452
0.39478
0.394112
0.393447
0.392785
0.392127
0.391473
0.390822
0.390174
0.38953
0.388889
0.388251
0.387616
0.386985
0.386357
0.385732
0.38511
0.384491
0.383876
0.383262
0.382652
0.382044
0.381439
0.380837
0.380237
0.379639
0.379043
0.37845
0.377858
0.377268
0.37668
0.376094
0.375509
0.374925
0.374343
0.373762
0.373181
0.372601
0.372023
0.371444
0.370866
0.370288
0.444624
0.42969
0.414734
0.413303
0.412554
0.411808
0.411064
0.410323
0.409584
0.408848
0.408115
0.407385
0.406658
0.405934
0.405213
0.404495
0.403779
0.403067
0.402359
0.401653
0.400951
0.400252
0.399556
0.398864
0.398175
0.397489
0.396807
0.396128
0.395453
0.394781
0.394113
0.393448
0.392786
0.392128
0.391474
0.390822
0.390175
0.38953
0.388889
0.388251
0.387617
0.386986
0.386358
0.385733
0.385111
0.384492
0.383876
0.383263
0.382653
0.382045
0.38144
0.380837
0.380237
0.379639
0.379044
0.37845
0.377858
0.377269
0.376681
0.376094
0.375509
0.374925
0.374343
0.373762
0.373181
0.372602
0.372023
0.371444
0.370866
0.370288
0.444624
0.42969
0.414734
0.413304
0.412555
0.411808
0.411065
0.410323
0.409585
0.408849
0.408116
0.407386
0.406659
0.405935
0.405214
0.404495
0.40378
0.403068
0.40236
0.401654
0.400952
0.400253
0.399557
0.398865
0.398176
0.39749
0.396808
0.396129
0.395454
0.394782
0.394113
0.393448
0.392787
0.392129
0.391474
0.390823
0.390175
0.389531
0.38889
0.388252
0.387618
0.386986
0.386358
0.385733
0.385111
0.384492
0.383877
0.383263
0.382653
0.382045
0.38144
0.380838
0.380237
0.37964
0.379044
0.37845
0.377859
0.377269
0.376681
0.376094
0.375509
0.374926
0.374343
0.373762
0.373181
0.372602
0.372023
0.371444
0.370866
0.370288
0.444624
0.42969
0.414735
0.413304
0.412556
0.411809
0.411065
0.410324
0.409586
0.40885
0.408117
0.407387
0.40666
0.405936
0.405214
0.404496
0.403781
0.403069
0.40236
0.401655
0.400953
0.400254
0.399558
0.398865
0.398176
0.397491
0.396809
0.39613
0.395454
0.394783
0.394114
0.393449
0.392788
0.39213
0.391475
0.390824
0.390176
0.389532
0.388891
0.388253
0.387618
0.386987
0.386359
0.385734
0.385112
0.384493
0.383877
0.383264
0.382653
0.382046
0.381441
0.380838
0.380238
0.37964
0.379044
0.378451
0.377859
0.377269
0.376681
0.376095
0.375509
0.374926
0.374343
0.373762
0.373181
0.372602
0.372023
0.371444
0.370866
0.370288
0.444624
0.429691
0.414736
0.413305
0.412556
0.41181
0.411066
0.410325
0.409587
0.408851
0.408118
0.407388
0.406661
0.405937
0.405215
0.404497
0.403782
0.40307
0.402361
0.401656
0.400953
0.400254
0.399559
0.398866
0.398177
0.397492
0.396809
0.396131
0.395455
0.394783
0.394115
0.39345
0.392788
0.39213
0.391476
0.390825
0.390177
0.389532
0.388891
0.388253
0.387619
0.386988
0.386359
0.385734
0.385112
0.384494
0.383877
0.383264
0.382654
0.382046
0.381441
0.380838
0.380238
0.37964
0.379045
0.378451
0.377859
0.377269
0.376681
0.376095
0.37551
0.374926
0.374343
0.373762
0.373182
0.372602
0.372023
0.371444
0.370866
0.370288
0.444624
0.429691
0.414736
0.413306
0.412557
0.411811
0.411067
0.410326
0.409587
0.408852
0.408119
0.407389
0.406662
0.405937
0.405216
0.404498
0.403783
0.403071
0.402362
0.401657
0.400954
0.400255
0.399559
0.398867
0.398178
0.397492
0.39681
0.396131
0.395456
0.394784
0.394116
0.393451
0.392789
0.392131
0.391476
0.390825
0.390177
0.389533
0.388892
0.388254
0.387619
0.386988
0.38636
0.385735
0.385113
0.384494
0.383878
0.383265
0.382654
0.382047
0.381441
0.380839
0.380239
0.379641
0.379045
0.378451
0.377859
0.37727
0.376681
0.376095
0.37551
0.374926
0.374344
0.373762
0.373182
0.372602
0.372023
0.371444
0.370866
0.370288
0.444624
0.429691
0.414737
0.413307
0.412558
0.411811
0.411068
0.410327
0.409588
0.408852
0.40812
0.40739
0.406662
0.405938
0.405217
0.404499
0.403784
0.403072
0.402363
0.401657
0.400955
0.400256
0.39956
0.398868
0.398179
0.397493
0.396811
0.396132
0.395457
0.394785
0.394116
0.393451
0.39279
0.392132
0.391477
0.390826
0.390178
0.389533
0.388892
0.388255
0.38762
0.386989
0.38636
0.385735
0.385113
0.384494
0.383878
0.383265
0.382655
0.382047
0.381442
0.380839
0.380239
0.379641
0.379045
0.378451
0.37786
0.37727
0.376682
0.376095
0.37551
0.374926
0.374344
0.373762
0.373182
0.372602
0.372023
0.371444
0.370866
0.370288
0.444624
0.429692
0.414738
0.413307
0.412558
0.411812
0.411068
0.410327
0.409589
0.408853
0.40812
0.40739
0.406663
0.405939
0.405218
0.404499
0.403784
0.403072
0.402364
0.401658
0.400956
0.400257
0.399561
0.398869
0.398179
0.397494
0.396812
0.396133
0.395457
0.394785
0.394117
0.393452
0.39279
0.392132
0.391478
0.390826
0.390179
0.389534
0.388893
0.388255
0.38762
0.386989
0.386361
0.385736
0.385114
0.384495
0.383879
0.383266
0.382655
0.382047
0.381442
0.380839
0.380239
0.379641
0.379045
0.378452
0.37786
0.37727
0.376682
0.376095
0.37551
0.374926
0.374344
0.373762
0.373182
0.372602
0.372023
0.371444
0.370866
0.370288
0.444624
0.429692
0.414738
0.413308
0.412559
0.411813
0.411069
0.410328
0.409589
0.408854
0.408121
0.407391
0.406664
0.40594
0.405218
0.4045
0.403785
0.403073
0.402364
0.401659
0.400956
0.400257
0.399562
0.398869
0.39818
0.397494
0.396812
0.396133
0.395458
0.394786
0.394118
0.393453
0.392791
0.392133
0.391478
0.390827
0.390179
0.389535
0.388893
0.388256
0.387621
0.38699
0.386361
0.385736
0.385114
0.384495
0.383879
0.383266
0.382655
0.382048
0.381442
0.38084
0.380239
0.379641
0.379046
0.378452
0.37786
0.37727
0.376682
0.376095
0.37551
0.374927
0.374344
0.373763
0.373182
0.372602
0.372023
0.371444
0.370866
0.370288
0.444624
0.429692
0.414739
0.413308
0.412559
0.411813
0.411069
0.410328
0.40959
0.408854
0.408121
0.407391
0.406664
0.40594
0.405219
0.404501
0.403786
0.403074
0.402365
0.401659
0.400957
0.400258
0.399562
0.39887
0.398181
0.397495
0.396813
0.396134
0.395459
0.394787
0.394118
0.393453
0.392792
0.392133
0.391479
0.390827
0.390179
0.389535
0.388894
0.388256
0.387621
0.38699
0.386362
0.385737
0.385115
0.384496
0.38388
0.383266
0.382656
0.382048
0.381443
0.38084
0.38024
0.379642
0.379046
0.378452
0.37786
0.37727
0.376682
0.376096
0.375511
0.374927
0.374344
0.373763
0.373182
0.372602
0.372023
0.371444
0.370866
0.370288
0.444624
0.429693
0.414739
0.413309
0.41256
0.411814
0.41107
0.410329
0.40959
0.408855
0.408122
0.407392
0.406665
0.405941
0.405219
0.404501
0.403786
0.403074
0.402365
0.40166
0.400957
0.400258
0.399563
0.39887
0.398181
0.397496
0.396813
0.396134
0.395459
0.394787
0.394119
0.393454
0.392792
0.392134
0.391479
0.390828
0.39018
0.389535
0.388894
0.388256
0.387622
0.38699
0.386362
0.385737
0.385115
0.384496
0.38388
0.383267
0.382656
0.382048
0.381443
0.38084
0.38024
0.379642
0.379046
0.378452
0.377861
0.377271
0.376682
0.376096
0.375511
0.374927
0.374344
0.373763
0.373182
0.372602
0.372023
0.371445
0.370866
0.370288
0.444624
0.429693
0.41474
0.413309
0.41256
0.411814
0.41107
0.410329
0.409591
0.408855
0.408122
0.407392
0.406665
0.405941
0.40522
0.404502
0.403787
0.403075
0.402366
0.40166
0.400958
0.400259
0.399563
0.398871
0.398182
0.397496
0.396814
0.396135
0.395459
0.394787
0.394119
0.393454
0.392792
0.392134
0.391479
0.390828
0.39018
0.389536
0.388894
0.388257
0.387622
0.386991
0.386362
0.385737
0.385115
0.384496
0.38388
0.383267
0.382656
0.382048
0.381443
0.38084
0.38024
0.379642
0.379046
0.378452
0.377861
0.377271
0.376682
0.376096
0.375511
0.374927
0.374344
0.373763
0.373182
0.372602
0.372023
0.371445
0.370866
0.370288
0.444624
0.429693
0.41474
0.413309
0.412561
0.411814
0.411071
0.41033
0.409591
0.408856
0.408123
0.407393
0.406666
0.405941
0.40522
0.404502
0.403787
0.403075
0.402366
0.401661
0.400958
0.400259
0.399563
0.398871
0.398182
0.397496
0.396814
0.396135
0.39546
0.394788
0.394119
0.393454
0.392793
0.392134
0.39148
0.390828
0.39018
0.389536
0.388895
0.388257
0.387622
0.386991
0.386363
0.385737
0.385115
0.384496
0.38388
0.383267
0.382656
0.382049
0.381443
0.380841
0.38024
0.379642
0.379046
0.378453
0.377861
0.377271
0.376683
0.376096
0.375511
0.374927
0.374344
0.373763
0.373182
0.372602
0.372023
0.371445
0.370866
0.370288
0.444624
0.429693
0.41474
0.41331
0.412561
0.411815
0.411071
0.41033
0.409591
0.408856
0.408123
0.407393
0.406666
0.405942
0.40522
0.404502
0.403787
0.403075
0.402366
0.401661
0.400958
0.400259
0.399564
0.398871
0.398182
0.397496
0.396814
0.396135
0.39546
0.394788
0.394119
0.393454
0.392793
0.392135
0.39148
0.390829
0.390181
0.389536
0.388895
0.388257
0.387622
0.386991
0.386363
0.385738
0.385116
0.384496
0.38388
0.383267
0.382657
0.382049
0.381443
0.380841
0.38024
0.379642
0.379046
0.378453
0.377861
0.377271
0.376683
0.376096
0.375511
0.374927
0.374344
0.373763
0.373182
0.372602
0.372023
0.371445
0.370866
0.370288
0.444624
0.429693
0.41474
0.41331
0.412561
0.411815
0.411071
0.41033
0.409592
0.408856
0.408123
0.407393
0.406666
0.405942
0.405221
0.404502
0.403787
0.403075
0.402367
0.401661
0.400959
0.40026
0.399564
0.398871
0.398182
0.397497
0.396814
0.396136
0.39546
0.394788
0.39412
0.393455
0.392793
0.392135
0.39148
0.390829
0.390181
0.389536
0.388895
0.388257
0.387623
0.386991
0.386363
0.385738
0.385116
0.384497
0.38388
0.383267
0.382657
0.382049
0.381444
0.380841
0.38024
0.379642
0.379046
0.378453
0.377861
0.377271
0.376683
0.376096
0.375511
0.374927
0.374344
0.373763
0.373182
0.372602
0.372023
0.371445
0.370866
0.370288
0.444624
0.429693
0.41474
0.41331
0.412561
0.411815
0.411071
0.41033
0.409592
0.408856
0.408123
0.407393
0.406666
0.405942
0.405221
0.404503
0.403787
0.403076
0.402367
0.401661
0.400959
0.40026
0.399564
0.398872
0.398182
0.397497
0.396814
0.396136
0.39546
0.394788
0.39412
0.393455
0.392793
0.392135
0.39148
0.390829
0.390181
0.389536
0.388895
0.388257
0.387623
0.386991
0.386363
0.385738
0.385116
0.384497
0.383881
0.383267
0.382657
0.382049
0.381444
0.380841
0.38024
0.379642
0.379047
0.378453
0.377861
0.377271
0.376683
0.376096
0.375511
0.374927
0.374344
0.373763
0.373182
0.372602
0.372023
0.371445
0.370866
0.370288
0.444624
0.429693
0.41474
0.41331
0.412561
0.411815
0.411071
0.41033
0.409592
0.408856
0.408123
0.407393
0.406666
0.405942
0.405221
0.404503
0.403788
0.403076
0.402367
0.401661
0.400959
0.40026
0.399564
0.398872
0.398183
0.397497
0.396815
0.396136
0.39546
0.394788
0.39412
0.393455
0.392793
0.392135
0.39148
0.390829
0.390181
0.389536
0.388895
0.388257
0.387623
0.386991
0.386363
0.385738
0.385116
0.384497
0.383881
0.383267
0.382657
0.382049
0.381444
0.380841
0.38024
0.379642
0.379047
0.378453
0.377861
0.377271
0.376683
0.376096
0.375511
0.374927
0.374344
0.373763
0.373182
0.372602
0.372023
0.371445
0.370866
0.370288
0.444624
0.429693
0.41474
0.41331
0.412561
0.411815
0.411071
0.41033
0.409592
0.408856
0.408123
0.407393
0.406666
0.405942
0.405221
0.404503
0.403788
0.403076
0.402367
0.401661
0.400959
0.40026
0.399564
0.398872
0.398183
0.397497
0.396815
0.396136
0.39546
0.394788
0.39412
0.393455
0.392793
0.392135
0.39148
0.390829
0.390181
0.389536
0.388895
0.388257
0.387623
0.386991
0.386363
0.385738
0.385116
0.384497
0.383881
0.383267
0.382657
0.382049
0.381444
0.380841
0.380241
0.379642
0.379047
0.378453
0.377861
0.377271
0.376683
0.376096
0.375511
0.374927
0.374344
0.373763
0.373182
0.372602
0.372023
0.371445
0.370866
0.370288
0.444624
0.429693
0.41474
0.41331
0.412561
0.411815
0.411071
0.41033
0.409592
0.408856
0.408123
0.407393
0.406666
0.405942
0.405221
0.404503
0.403788
0.403076
0.402367
0.401661
0.400959
0.40026
0.399564
0.398872
0.398183
0.397497
0.396815
0.396136
0.39546
0.394788
0.39412
0.393455
0.392793
0.392135
0.39148
0.390829
0.390181
0.389536
0.388895
0.388257
0.387623
0.386991
0.386363
0.385738
0.385116
0.384497
0.383881
0.383267
0.382657
0.382049
0.381444
0.380841
0.380241
0.379642
0.379047
0.378453
0.377861
0.377271
0.376683
0.376096
0.375511
0.374927
0.374344
0.373763
0.373182
0.372602
0.372023
0.371445
0.370866
0.370288
0.444624
0.429693
0.414741
0.41331
0.412561
0.411815
0.411071
0.41033
0.409592
0.408856
0.408123
0.407393
0.406666
0.405942
0.405221
0.404503
0.403788
0.403076
0.402367
0.401661
0.400959
0.40026
0.399564
0.398872
0.398183
0.397497
0.396815
0.396136
0.39546
0.394788
0.39412
0.393455
0.392793
0.392135
0.39148
0.390829
0.390181
0.389536
0.388895
0.388257
0.387623
0.386991
0.386363
0.385738
0.385116
0.384497
0.383881
0.383267
0.382657
0.382049
0.381444
0.380841
0.380241
0.379642
0.379047
0.378453
0.377861
0.377271
0.376683
0.376096
0.375511
0.374927
0.374344
0.373763
0.373182
0.372602
0.372023
0.371445
0.370866
0.370288
0.444624
0.429693
0.414741
0.41331
0.412561
0.411815
0.411071
0.41033
0.409592
0.408856
0.408123
0.407393
0.406666
0.405942
0.405221
0.404503
0.403788
0.403076
0.402367
0.401661
0.400959
0.40026
0.399564
0.398872
0.398183
0.397497
0.396815
0.396136
0.39546
0.394788
0.39412
0.393455
0.392793
0.392135
0.39148
0.390829
0.390181
0.389537
0.388895
0.388257
0.387623
0.386991
0.386363
0.385738
0.385116
0.384497
0.383881
0.383267
0.382657
0.382049
0.381444
0.380841
0.380241
0.379642
0.379047
0.378453
0.377861
0.377271
0.376683
0.376096
0.375511
0.374927
0.374344
0.373763
0.373182
0.372602
0.372023
0.371445
0.370866
0.370288
0.444624
0.429693
0.414741
0.41331
0.412561
0.411815
0.411071
0.41033
0.409592
0.408856
0.408123
0.407393
0.406666
0.405942
0.405221
0.404503
0.403788
0.403076
0.402367
0.401661
0.400959
0.40026
0.399564
0.398872
0.398183
0.397497
0.396815
0.396136
0.39546
0.394788
0.39412
0.393455
0.392793
0.392135
0.39148
0.390829
0.390181
0.389537
0.388895
0.388257
0.387623
0.386991
0.386363
0.385738
0.385116
0.384497
0.383881
0.383267
0.382657
0.382049
0.381444
0.380841
0.380241
0.379642
0.379047
0.378453
0.377861
0.377271
0.376683
0.376096
0.375511
0.374927
0.374344
0.373763
0.373182
0.372602
0.372023
0.371445
0.370866
0.370288
0.444624
0.429693
0.414741
0.41331
0.412561
0.411815
0.411071
0.41033
0.409592
0.408856
0.408123
0.407393
0.406666
0.405942
0.405221
0.404503
0.403788
0.403076
0.402367
0.401661
0.400959
0.40026
0.399564
0.398872
0.398183
0.397497
0.396815
0.396136
0.39546
0.394788
0.39412
0.393455
0.392793
0.392135
0.39148
0.390829
0.390181
0.389537
0.388895
0.388257
0.387623
0.386991
0.386363
0.385738
0.385116
0.384497
0.383881
0.383267
0.382657
0.382049
0.381444
0.380841
0.380241
0.379642
0.379047
0.378453
0.377861
0.377271
0.376683
0.376096
0.375511
0.374927
0.374344
0.373763
0.373182
0.372602
0.372023
0.371445
0.370866
0.370288
0.444624
0.429693
0.414741
0.41331
0.412561
0.411815
0.411071
0.41033
0.409592
0.408856
0.408123
0.407393
0.406666
0.405942
0.405221
0.404503
0.403788
0.403076
0.402367
0.401661
0.400959
0.40026
0.399564
0.398872
0.398183
0.397497
0.396815
0.396136
0.39546
0.394788
0.39412
0.393455
0.392793
0.392135
0.39148
0.390829
0.390181
0.389537
0.388895
0.388257
0.387623
0.386991
0.386363
0.385738
0.385116
0.384497
0.383881
0.383267
0.382657
0.382049
0.381444
0.380841
0.380241
0.379642
0.379047
0.378453
0.377861
0.377271
0.376683
0.376096
0.375511
0.374927
0.374344
0.373763
0.373182
0.372602
0.372023
0.371445
0.370866
0.370288
0.444624
0.429693
0.414741
0.41331
0.412561
0.411815
0.411071
0.41033
0.409592
0.408856
0.408123
0.407393
0.406666
0.405942
0.405221
0.404503
0.403788
0.403076
0.402367
0.401661
0.400959
0.40026
0.399564
0.398872
0.398183
0.397497
0.396815
0.396136
0.39546
0.394788
0.39412
0.393455
0.392793
0.392135
0.39148
0.390829
0.390181
0.389537
0.388895
0.388257
0.387623
0.386991
0.386363
0.385738
0.385116
0.384497
0.383881
0.383267
0.382657
0.382049
0.381444
0.380841
0.380241
0.379642
0.379047
0.378453
0.377861
0.377271
0.376683
0.376096
0.375511
0.374927
0.374344
0.373763
0.373182
0.372602
0.372023
0.371445
0.370866
0.370288
0.444624
0.429693
0.414741
0.41331
0.412561
0.411815
0.411071
0.41033
0.409592
0.408856
0.408123
0.407393
0.406666
0.405942
0.405221
0.404503
0.403788
0.403076
0.402367
0.401661
0.400959
0.40026
0.399564
0.398872
0.398183
0.397497
0.396815
0.396136
0.39546
0.394788
0.39412
0.393455
0.392793
0.392135
0.39148
0.390829
0.390181
0.389537
0.388895
0.388257
0.387623
0.386991
0.386363
0.385738
0.385116
0.384497
0.383881
0.383267
0.382657
0.382049
0.381444
0.380841
0.380241
0.379642
0.379047
0.378453
0.377861
0.377271
0.376683
0.376096
0.375511
0.374927
0.374344
0.373763
0.373182
0.372602
0.372023
0.371445
0.370866
0.370288
0.444624
0.429693
0.414741
0.41331
0.412561
0.411815
0.411071