/*--------------------------------*- C++ -*----------------------------------*\
  =========                 |
  \\      /  F ield         | OpenFOAM: The Open Source CFD Toolbox
   \\    /   O peration     | Website:  https://openfoam.org
    \\  /    A nd           | Version:  13
     \\/     M anipulation  |
\*---------------------------------------------------------------------------*/
FoamFile
{
    format      ascii;
    class       volScalarField;
    location    "34";
    object      k;
}
// * * * * * * * * * * * * * * * * * * * * * * * * * * * * * * * * * * * * * //

dimensions      [0 2 -2 0 0 0 0];

internalField   nonuniform List<scalar> 
78750
(
2.22045e-16
3.81961e-16
1.6757e-15
3.03127e-15
4.46171e-15
5.97641e-15
7.57566e-15
9.24792e-15
1.09695e-14
1.27056e-14
1.44128e-14
1.60419e-14
1.75405e-14
1.88575e-14
1.99451e-14
2.07627e-14
2.12787e-14
2.1473e-14
2.13378e-14
2.08781e-14
2.01117e-14
1.90679e-14
1.77857e-14
1.63115e-14
1.46962e-14
1.2992e-14
1.12487e-14
9.51095e-15
7.81481e-15
6.18533e-15
4.63509e-15
3.16383e-15
1.75989e-15
4.03809e-16
2.22045e-16
2.8155e-16
8.11928e-15
4.04617e-14
7.39163e-14
1.09133e-13
1.465e-13
1.8609e-13
2.27637e-13
2.70547e-13
3.13936e-13
3.56692e-13
3.97552e-13
4.35179e-13
4.68257e-13
4.95568e-13
5.16066e-13
5.2895e-13
5.33704e-13
5.30133e-13
5.18376e-13
4.98896e-13
4.7245e-13
4.40046e-13
4.02878e-13
3.62254e-13
3.19509e-13
2.75922e-13
2.32627e-13
1.90538e-13
1.50281e-13
1.12151e-13
7.60936e-14
4.17262e-14
8.38709e-15
2.91021e-16
7.76566e-16
2.24061e-14
1.11898e-13
2.0563e-13
3.06266e-13
4.15577e-13
5.34234e-13
6.61686e-13
7.96151e-13
9.34712e-13
1.07351e-12
1.208e-12
1.33329e-12
1.44442e-12
1.53677e-12
1.60635e-12
1.65005e-12
1.66591e-12
1.65318e-12
1.61244e-12
1.54552e-12
1.45538e-12
1.34593e-12
1.22173e-12
1.08771e-12
9.48783e-13
8.09552e-13
6.73955e-13
5.45006e-13
4.24586e-13
3.13335e-13
2.10644e-13
1.14764e-13
2.30065e-14
7.97738e-16
1.47345e-15
4.25176e-14
2.12502e-13
3.91365e-13
5.848e-13
7.96716e-13
1.02879e-12
1.28021e-12
1.54758e-12
1.82511e-12
2.10493e-12
2.37765e-12
2.63293e-12
2.86028e-12
3.04977e-12
3.19275e-12
3.28251e-12
3.31475e-12
3.2879e-12
3.20324e-12
3.06481e-12
2.87909e-12
2.65456e-12
2.40106e-12
2.12906e-12
1.84891e-12
1.57015e-12
1.30076e-12
1.04674e-12
8.11631e-13
5.96424e-13
3.9955e-13
2.17147e-13
4.34874e-14
1.50761e-15
2.25162e-15
6.49731e-14
3.248e-13
5.98557e-13
8.95235e-13
1.22105e-12
1.57876e-12
1.96721e-12
2.38122e-12
2.81182e-12
3.24677e-12
3.67132e-12
4.06925e-12
4.424e-12
4.71986e-12
4.94313e-12
5.08317e-12
5.13315e-12
5.0906e-12
4.9576e-12
4.74059e-12
4.44991e-12
4.09904e-12
3.70353e-12
3.27992e-12
2.84451e-12
2.41216e-12
1.99534e-12
1.60327e-12
1.24136e-12
9.11011e-13
6.09624e-13
3.31056e-13
6.62771e-14
2.29755e-15
3.01014e-15
8.68605e-14
4.34233e-13
8.00337e-13
1.1973e-12
1.63352e-12
2.11273e-12
2.63343e-12
3.18868e-12
3.76645e-12
4.35027e-12
4.92032e-12
5.45475e-12
5.93125e-12
6.32864e-12
6.62846e-12
6.81635e-12
6.88313e-12
6.82548e-12
6.64622e-12
6.35408e-12
5.96305e-12
5.49131e-12
4.95985e-12
4.39095e-12
3.80653e-12
3.2266e-12
2.66787e-12
2.1427e-12
1.65831e-12
1.21651e-12
8.13781e-13
4.4181e-13
8.84389e-14
3.06574e-15
3.68635e-15
1.06374e-13
5.31789e-13
9.80159e-13
1.46637e-12
2.00072e-12
2.58781e-12
3.2258e-12
3.90618e-12
4.61421e-12
5.32967e-12
6.02827e-12
6.68321e-12
7.26712e-12
7.75402e-12
8.12127e-12
8.35128e-12
8.43278e-12
8.36173e-12
8.14161e-12
7.78316e-12
7.30354e-12
6.72508e-12
6.07354e-12
5.37625e-12
4.66008e-12
3.94957e-12
3.26518e-12
2.62204e-12
2.02901e-12
1.48825e-12
9.95437e-13
5.4038e-13
1.08163e-13
3.74936e-15
4.24699e-15
1.22555e-13
6.12693e-13
1.12927e-12
1.68943e-12
2.30506e-12
2.98146e-12
3.71649e-12
4.50037e-12
5.31608e-12
6.14034e-12
6.94513e-12
7.69958e-12
8.37215e-12
8.93291e-12
9.35579e-12
9.6205e-12
9.71409e-12
9.63192e-12
9.37802e-12
8.96476e-12
8.41196e-12
7.74534e-12
6.9946e-12
6.19123e-12
5.3662e-12
4.54776e-12
3.75949e-12
3.0188e-12
2.33588e-12
1.71324e-12
1.14586e-12
6.22009e-13
1.24494e-13
4.31529e-15
4.68131e-15
1.35095e-13
6.75399e-13
1.24483e-12
1.86229e-12
2.54089e-12
3.28646e-12
4.09664e-12
4.96065e-12
5.8597e-12
6.76817e-12
7.65513e-12
8.48657e-12
9.22772e-12
9.8456e-12
1.03115e-11
1.0603e-11
1.07059e-11
1.06151e-11
1.0335e-11
9.87929e-12
9.26983e-12
8.53497e-12
7.70746e-12
6.82199e-12
5.91271e-12
5.01074e-12
4.14207e-12
3.32589e-12
2.57341e-12
1.88738e-12
1.26229e-12
6.85188e-13
1.37132e-13
4.75307e-15
4.99607e-15
1.44186e-13
7.20874e-13
1.32863e-12
1.98765e-12
2.7119e-12
3.50762e-12
4.37228e-12
5.29437e-12
6.25385e-12
7.22334e-12
8.16986e-12
9.0571e-12
9.84793e-12
1.05072e-11
1.10042e-11
1.13151e-11
1.14247e-11
1.13276e-11
1.10285e-11
1.0542e-11
9.89148e-12
9.10714e-12
8.22397e-12
7.27899e-12
6.30865e-12
5.34614e-12
4.41922e-12
3.54834e-12
2.74546e-12
2.01352e-12
1.34662e-12
7.30944e-13
1.46282e-13
5.06988e-15
5.20966e-15
1.50359e-13
7.5176e-13
1.38555e-12
2.07279e-12
2.82805e-12
3.65783e-12
4.55949e-12
5.52103e-12
6.52154e-12
7.53248e-12
8.51944e-12
9.44455e-12
1.02691e-11
1.09565e-11
1.14746e-11
1.17987e-11
1.19128e-11
1.18114e-11
1.14993e-11
1.09919e-11
1.03135e-11
9.49553e-12
8.57455e-12
7.58916e-12
6.57735e-12
5.57375e-12
4.60728e-12
3.69927e-12
2.86218e-12
2.09909e-12
1.40382e-12
7.61979e-13
1.52485e-13
5.28457e-15
5.34559e-15
1.54289e-13
7.71434e-13
1.42181e-12
2.12703e-12
2.90204e-12
3.75352e-12
4.67875e-12
5.66542e-12
6.69207e-12
7.7294e-12
8.74213e-12
9.69137e-12
1.05374e-11
1.12426e-11
1.17742e-11
1.21067e-11
1.22237e-11
1.21195e-11
1.17992e-11
1.12785e-11
1.05822e-11
9.74283e-12
8.79776e-12
7.78663e-12
6.7484e-12
5.71863e-12
4.72697e-12
3.79532e-12
2.93646e-12
2.15353e-12
1.44021e-12
7.81723e-13
1.5643e-13
5.421e-15
5.42686e-15
1.56641e-13
7.83211e-13
1.44352e-12
2.15949e-12
2.94633e-12
3.8108e-12
4.75015e-12
5.75186e-12
6.79416e-12
7.8473e-12
8.87545e-12
9.83913e-12
1.0698e-11
1.1414e-11
1.19536e-11
1.2291e-11
1.24098e-11
1.23039e-11
1.19787e-11
1.14499e-11
1.0743e-11
9.89082e-12
8.93132e-12
7.90477e-12
6.85074e-12
5.80529e-12
4.79856e-12
3.85276e-12
2.98088e-12
2.18609e-12
1.46198e-12
7.93526e-13
1.58787e-13
5.50247e-15
5.47262e-15
1.57966e-13
7.89851e-13
1.45575e-12
2.1778e-12
2.97131e-12
3.8431e-12
4.79041e-12
5.8006e-12
6.85173e-12
7.91379e-12
8.95063e-12
9.92246e-12
1.07886e-11
1.15106e-11
1.20547e-11
1.2395e-11
1.25147e-11
1.24079e-11
1.20799e-11
1.15466e-11
1.08337e-11
9.97423e-12
9.0066e-12
7.97136e-12
6.9084e-12
5.85412e-12
4.8389e-12
3.88513e-12
3.0059e-12
2.20443e-12
1.47423e-12
8.00173e-13
1.60114e-13
5.54829e-15
5.49695e-15
1.58671e-13
7.93385e-13
1.46227e-12
2.18754e-12
2.9846e-12
3.86029e-12
4.81184e-12
5.82656e-12
6.88239e-12
7.94919e-12
8.99066e-12
9.96682e-12
1.08368e-11
1.1562e-11
1.21086e-11
1.24503e-11
1.25706e-11
1.24633e-11
1.21338e-11
1.15981e-11
1.08819e-11
1.00186e-11
9.04666e-12
8.00679e-12
6.93909e-12
5.88011e-12
4.86036e-12
3.90234e-12
3.01921e-12
2.21418e-12
1.48075e-12
8.03707e-13
1.60819e-13
5.57262e-15
5.50919e-15
1.59026e-13
7.95165e-13
1.46555e-12
2.19245e-12
2.9913e-12
3.86896e-12
4.82264e-12
5.83963e-12
6.89783e-12
7.96703e-12
9.01083e-12
9.98918e-12
1.08612e-11
1.15879e-11
1.21357e-11
1.24782e-11
1.25987e-11
1.24912e-11
1.21609e-11
1.1624e-11
1.09062e-11
1.0041e-11
9.06685e-12
8.02464e-12
6.95454e-12
5.89319e-12
4.87116e-12
3.91101e-12
3.02591e-12
2.21909e-12
1.48403e-12
8.05486e-13
1.61173e-13
5.58485e-15
5.51504e-15
1.59196e-13
7.96017e-13
1.46712e-12
2.1948e-12
2.99451e-12
3.8731e-12
4.8278e-12
5.84589e-12
6.90522e-12
7.97556e-12
9.02048e-12
9.99988e-12
1.08728e-11
1.16003e-11
1.21487e-11
1.24916e-11
1.26122e-11
1.25045e-11
1.21739e-11
1.16364e-11
1.09179e-11
1.00517e-11
9.07649e-12
8.03317e-12
6.96193e-12
5.89944e-12
4.87633e-12
3.91515e-12
3.02911e-12
2.22143e-12
1.48559e-12
8.06335e-13
1.61343e-13
5.59068e-15
5.51769e-15
1.59273e-13
7.96403e-13
1.46783e-12
2.19587e-12
2.99596e-12
3.87499e-12
4.83015e-12
5.84873e-12
6.90858e-12
7.97944e-12
9.02487e-12
1.00047e-11
1.08781e-11
1.1606e-11
1.21546e-11
1.24976e-11
1.26183e-11
1.25106e-11
1.21798e-11
1.1642e-11
1.09232e-11
1.00566e-11
9.08088e-12
8.03705e-12
6.96529e-12
5.90228e-12
4.87867e-12
3.91703e-12
3.03057e-12
2.2225e-12
1.48631e-12
8.06721e-13
1.61419e-13
5.59332e-15
5.51883e-15
1.59306e-13
7.96571e-13
1.46814e-12
2.19633e-12
2.99659e-12
3.8758e-12
4.83117e-12
5.84996e-12
6.91004e-12
7.98112e-12
9.02677e-12
1.00068e-11
1.08804e-11
1.16084e-11
1.21572e-11
1.25003e-11
1.26209e-11
1.25132e-11
1.21823e-11
1.16445e-11
1.09254e-11
1.00587e-11
9.08278e-12
8.03873e-12
6.96674e-12
5.90352e-12
4.87969e-12
3.91785e-12
3.03119e-12
2.22296e-12
1.48661e-12
8.06888e-13
1.61453e-13
5.59447e-15
5.51931e-15
1.5932e-13
7.9664e-13
1.46827e-12
2.19652e-12
2.99685e-12
3.87614e-12
4.83159e-12
5.85047e-12
6.91064e-12
7.98181e-12
9.02756e-12
1.00077e-11
1.08813e-11
1.16094e-11
1.21582e-11
1.25014e-11
1.2622e-11
1.25143e-11
1.21834e-11
1.16455e-11
1.09264e-11
1.00595e-11
9.08357e-12
8.03942e-12
6.96734e-12
5.90402e-12
4.88011e-12
3.91818e-12
3.03146e-12
2.22315e-12
1.48674e-12
8.06957e-13
1.61466e-13
5.59494e-15
5.5195e-15
1.59326e-13
7.96668e-13
1.46832e-12
2.1966e-12
2.99696e-12
3.87627e-12
4.83176e-12
5.85068e-12
6.91088e-12
7.98209e-12
9.02787e-12
1.00081e-11
1.08817e-11
1.16098e-11
1.21586e-11
1.25018e-11
1.26225e-11
1.25147e-11
1.21838e-11
1.16459e-11
1.09268e-11
1.00599e-11
9.08388e-12
8.0397e-12
6.96758e-12
5.90423e-12
4.88027e-12
3.91832e-12
3.03156e-12
2.22323e-12
1.48679e-12
8.06985e-13
1.61472e-13
5.59512e-15
5.51957e-15
1.59328e-13
7.96678e-13
1.46834e-12
2.19663e-12
2.997e-12
3.87632e-12
4.83182e-12
5.85075e-12
6.91097e-12
7.98219e-12
9.02799e-12
1.00082e-11
1.08818e-11
1.161e-11
1.21588e-11
1.2502e-11
1.26226e-11
1.25149e-11
1.2184e-11
1.16461e-11
1.09269e-11
1.006e-11
9.084e-12
8.0398e-12
6.96767e-12
5.9043e-12
4.88034e-12
3.91837e-12
3.0316e-12
2.22325e-12
1.48681e-12
8.06995e-13
1.61474e-13
5.59519e-15
5.51959e-15
1.59328e-13
7.96682e-13
1.46835e-12
2.19664e-12
2.99701e-12
3.87634e-12
4.83184e-12
5.85078e-12
6.911e-12
7.98223e-12
9.02803e-12
1.00082e-11
1.08819e-11
1.161e-11
1.21589e-11
1.2502e-11
1.26227e-11
1.2515e-11
1.2184e-11
1.16461e-11
1.0927e-11
1.00601e-11
9.08404e-12
8.03984e-12
6.9677e-12
5.90433e-12
4.88036e-12
3.91839e-12
3.03161e-12
2.22326e-12
1.48682e-12
8.06999e-13
1.61475e-13
5.59522e-15
5.5196e-15
1.59329e-13
7.96683e-13
1.46835e-12
2.19664e-12
2.99702e-12
3.87635e-12
4.83185e-12
5.85079e-12
6.91101e-12
7.98225e-12
9.02804e-12
1.00083e-11
1.08819e-11
1.16101e-11
1.21589e-11
1.2502e-11
1.26227e-11
1.2515e-11
1.21841e-11
1.16461e-11
1.0927e-11
1.00601e-11
9.08405e-12
8.03985e-12
6.96771e-12
5.90434e-12
4.88037e-12
3.91839e-12
3.03162e-12
2.22327e-12
1.48682e-12
8.07e-13
1.61475e-13
5.59523e-15
5.51961e-15
1.59329e-13
7.96684e-13
1.46835e-12
2.19664e-12
2.99702e-12
3.87635e-12
4.83186e-12
5.85079e-12
6.91102e-12
7.98225e-12
9.02805e-12
1.00083e-11
1.08819e-11
1.16101e-11
1.21589e-11
1.2502e-11
1.26227e-11
1.2515e-11
1.21841e-11
1.16461e-11
1.0927e-11
1.00601e-11
9.08406e-12
8.03986e-12
6.96772e-12
5.90434e-12
4.88037e-12
3.91839e-12
3.03162e-12
2.22327e-12
1.48682e-12
8.07001e-13
1.61475e-13
5.59523e-15
5.51961e-15
1.59329e-13
7.96684e-13
1.46835e-12
2.19664e-12
2.99702e-12
3.87635e-12
4.83186e-12
5.85079e-12
6.91102e-12
7.98225e-12
9.02805e-12
1.00083e-11
1.08819e-11
1.16101e-11
1.21589e-11
1.2502e-11
1.26227e-11
1.2515e-11
1.21841e-11
1.16461e-11
1.0927e-11
1.00601e-11
9.08406e-12
8.03986e-12
6.96772e-12
5.90434e-12
4.88037e-12
3.9184e-12
3.03162e-12
2.22327e-12
1.48682e-12
8.07001e-13
1.61475e-13
5.59523e-15
5.51961e-15
1.59329e-13
7.96684e-13
1.46835e-12
2.19664e-12
2.99702e-12
3.87635e-12
4.83186e-12
5.85079e-12
6.91102e-12
7.98225e-12
9.02805e-12
1.00083e-11
1.08819e-11
1.16101e-11
1.21589e-11
1.2502e-11
1.26227e-11
1.2515e-11
1.21841e-11
1.16461e-11
1.0927e-11
1.00601e-11
9.08406e-12
8.03986e-12
6.96772e-12
5.90435e-12
4.88037e-12
3.9184e-12
3.03162e-12
2.22327e-12
1.48682e-12
8.07001e-13
1.61475e-13
5.59523e-15
5.51961e-15
1.59329e-13
7.96684e-13
1.46835e-12
2.19664e-12
2.99702e-12
3.87635e-12
4.83186e-12
5.8508e-12
6.91102e-12
7.98225e-12
9.02805e-12
1.00083e-11
1.08819e-11
1.16101e-11
1.21589e-11
1.25021e-11
1.26227e-11
1.2515e-11
1.21841e-11
1.16461e-11
1.0927e-11
1.00601e-11
9.08406e-12
8.03986e-12
6.96772e-12
5.90435e-12
4.88037e-12
3.9184e-12
3.03162e-12
2.22327e-12
1.48682e-12
8.07001e-13
1.61475e-13
5.59523e-15
5.51961e-15
1.59329e-13
7.96684e-13
1.46835e-12
2.19664e-12
2.99702e-12
3.87635e-12
4.83186e-12
5.8508e-12
6.91102e-12
7.98225e-12
9.02805e-12
1.00083e-11
1.08819e-11
1.16101e-11
1.21589e-11
1.25021e-11
1.26227e-11
1.2515e-11
1.21841e-11
1.16461e-11
1.0927e-11
1.00601e-11
9.08406e-12
8.03986e-12
6.96772e-12
5.90435e-12
4.88037e-12
3.9184e-12
3.03162e-12
2.22327e-12
1.48682e-12
8.07001e-13
1.61475e-13
5.59523e-15
5.51961e-15
1.59329e-13
7.96684e-13
1.46835e-12
2.19664e-12
2.99702e-12
3.87635e-12
4.83186e-12
5.8508e-12
6.91102e-12
7.98225e-12
9.02805e-12
1.00083e-11
1.08819e-11
1.16101e-11
1.21589e-11
1.25021e-11
1.26227e-11
1.2515e-11
1.21841e-11
1.16461e-11
1.0927e-11
1.00601e-11
9.08406e-12
8.03986e-12
6.96772e-12
5.90435e-12
4.88037e-12
3.9184e-12
3.03162e-12
2.22327e-12
1.48682e-12
8.07001e-13
1.61475e-13
5.59523e-15
5.51961e-15
1.59329e-13
7.96684e-13
1.46835e-12
2.19664e-12
2.99702e-12
3.87635e-12
4.83186e-12
5.8508e-12
6.91102e-12
7.98225e-12
9.02805e-12
1.00083e-11
1.08819e-11
1.16101e-11
1.21589e-11
1.25021e-11
1.26227e-11
1.2515e-11
1.21841e-11
1.16461e-11
1.0927e-11
1.00601e-11
9.08406e-12
8.03986e-12
6.96772e-12
5.90435e-12
4.88037e-12
3.9184e-12
3.03162e-12
2.22327e-12
1.48682e-12
8.07001e-13
1.61475e-13
5.59523e-15
5.51961e-15
1.59329e-13
7.96684e-13
1.46835e-12
2.19664e-12
2.99702e-12
3.87635e-12
4.83186e-12
5.8508e-12
6.91102e-12
7.98225e-12
9.02805e-12
1.00083e-11
1.08819e-11
1.16101e-11
1.21589e-11
1.25021e-11
1.26227e-11
1.2515e-11
1.21841e-11
1.16461e-11
1.0927e-11
1.00601e-11
9.08406e-12
8.03986e-12
6.96772e-12
5.90435e-12
4.88037e-12
3.9184e-12
3.03162e-12
2.22327e-12
1.48682e-12
8.07001e-13
1.61475e-13
5.59523e-15
5.51961e-15
1.59329e-13
7.96684e-13
1.46835e-12
2.19664e-12
2.99702e-12
3.87635e-12
4.83186e-12
5.8508e-12
6.91102e-12
7.98225e-12
9.02805e-12
1.00083e-11
1.08819e-11
1.16101e-11
1.21589e-11
1.25021e-11
1.26227e-11
1.2515e-11
1.21841e-11
1.16461e-11
1.0927e-11
1.00601e-11
9.08406e-12
8.03986e-12
6.96772e-12
5.90435e-12
4.88037e-12
3.9184e-12
3.03162e-12
2.22327e-12
1.48682e-12
8.07001e-13
1.61475e-13
5.59523e-15
5.51961e-15
1.59329e-13
7.96684e-13
1.46835e-12
2.19664e-12
2.99702e-12
3.87635e-12
4.83186e-12
5.8508e-12
6.91102e-12
7.98225e-12
9.02805e-12
1.00083e-11
1.08819e-11
1.16101e-11
1.21589e-11
1.25021e-11
1.26227e-11
1.2515e-11
1.21841e-11
1.16461e-11
1.0927e-11
1.00601e-11
9.08406e-12
8.03986e-12
6.96772e-12
5.90435e-12
4.88037e-12
3.9184e-12
3.03162e-12
2.22327e-12
1.48682e-12
8.07001e-13
1.61475e-13
5.59523e-15
5.51961e-15
1.59329e-13
7.96684e-13
1.46835e-12
2.19664e-12
2.99702e-12
3.87635e-12
4.83186e-12
5.8508e-12
6.91102e-12
7.98225e-12
9.02805e-12
1.00083e-11
1.08819e-11
1.16101e-11
1.21589e-11
1.25021e-11
1.26227e-11
1.2515e-11
1.21841e-11
1.16461e-11
1.0927e-11
1.00601e-11
9.08406e-12
8.03986e-12
6.96772e-12
5.90435e-12
4.88037e-12
3.9184e-12
3.03162e-12
2.22327e-12
1.48682e-12
8.07001e-13
1.61475e-13
5.59523e-15
5.51961e-15
1.59329e-13
7.96684e-13
1.46835e-12
2.19664e-12
2.99702e-12
3.87635e-12
4.83186e-12
5.8508e-12
6.91102e-12
7.98225e-12
9.02805e-12
1.00083e-11
1.08819e-11
1.16101e-11
1.21589e-11
1.25021e-11
1.26227e-11
1.2515e-11
1.21841e-11
1.16461e-11
1.0927e-11
1.00601e-11
9.08406e-12
8.03986e-12
6.96772e-12
5.90435e-12
4.88037e-12
3.9184e-12
3.03162e-12
2.22327e-12
1.48682e-12
8.07001e-13
1.61475e-13
5.59523e-15
5.51961e-15
1.59329e-13
7.96684e-13
1.46835e-12
2.19664e-12
2.99702e-12
3.87635e-12
4.83186e-12
5.8508e-12
6.91102e-12
7.98225e-12
9.02805e-12
1.00083e-11
1.08819e-11
1.16101e-11
1.21589e-11
1.25021e-11
1.26227e-11
1.2515e-11
1.21841e-11
1.16461e-11
1.0927e-11
1.00601e-11
9.08406e-12
8.03986e-12
6.96772e-12
5.90435e-12
4.88037e-12
3.9184e-12
3.03162e-12
2.22327e-12
1.48682e-12
8.07001e-13
1.61475e-13
5.59523e-15
5.51961e-15
1.59329e-13
7.96684e-13
1.46835e-12
2.19664e-12
2.99702e-12
3.87635e-12
4.83186e-12
5.8508e-12
6.91102e-12
7.98225e-12
9.02805e-12
1.00083e-11
1.08819e-11
1.16101e-11
1.21589e-11
1.25021e-11
1.26227e-11
1.2515e-11
1.21841e-11
1.16461e-11
1.0927e-11
1.00601e-11
9.08406e-12
8.03986e-12
6.96772e-12
5.90435e-12
4.88037e-12
3.9184e-12
3.03162e-12
2.22327e-12
1.48682e-12
8.07001e-13
1.61475e-13
5.59523e-15
5.51961e-15
1.59329e-13
7.96684e-13
1.46835e-12
2.19664e-12
2.99702e-12
3.87635e-12
4.83186e-12
5.8508e-12
6.91102e-12
7.98225e-12
9.02805e-12
1.00083e-11
1.08819e-11
1.16101e-11
1.21589e-11
1.25021e-11
1.26227e-11
1.2515e-11
1.21841e-11
1.16461e-11
1.0927e-11
1.00601e-11
9.08406e-12
8.03986e-12
6.96772e-12
5.90435e-12
4.88037e-12
3.9184e-12
3.03162e-12
2.22327e-12
1.48682e-12
8.07001e-13
1.61475e-13
5.59523e-15
5.51961e-15
1.59329e-13
7.96684e-13
1.46835e-12
2.19664e-12
2.99702e-12
3.87635e-12
4.83186e-12
5.8508e-12
6.91102e-12
7.98225e-12
9.02805e-12
1.00083e-11
1.08819e-11
1.16101e-11
1.21589e-11
1.25021e-11
1.26227e-11
1.2515e-11
1.21841e-11
1.16461e-11
1.0927e-11
1.00601e-11
9.08406e-12
8.03986e-12
6.96772e-12
5.90435e-12
4.88037e-12
3.9184e-12
3.03162e-12
2.22327e-12
1.48682e-12
8.07001e-13
1.61475e-13
5.59523e-15
5.51961e-15
1.59329e-13
7.96684e-13
1.46835e-12
2.19664e-12
2.99702e-12
3.87635e-12
4.83186e-12
5.8508e-12
6.91102e-12
7.98225e-12
9.02805e-12
1.00083e-11
1.08819e-11
1.16101e-11
1.21589e-11
1.25021e-11
1.26227e-11
1.2515e-11
1.21841e-11
1.16461e-11
1.0927e-11
1.00601e-11
9.08406e-12
8.03986e-12
6.96772e-12
5.90435e-12
4.88037e-12
3.9184e-12
3.03162e-12
2.22327e-12
1.48682e-12
8.07001e-13
1.61475e-13
5.59523e-15
5.51961e-15
1.59329e-13
7.96684e-13
1.46835e-12
2.19664e-12
2.99702e-12
3.87635e-12
4.83186e-12
5.8508e-12
6.91102e-12
7.98225e-12
9.02805e-12
1.00083e-11
1.08819e-11
1.16101e-11
1.21589e-11
1.25021e-11
1.26227e-11
1.2515e-11
1.21841e-11
1.16461e-11
1.0927e-11
1.00601e-11
9.08406e-12
8.03986e-12
6.96772e-12
5.90435e-12
4.88037e-12
3.9184e-12
3.03162e-12
2.22327e-12
1.48682e-12
8.07001e-13
1.61475e-13
5.59523e-15
5.51961e-15
1.59329e-13
7.96684e-13
1.46835e-12
2.19664e-12
2.99702e-12
3.87635e-12
4.83186e-12
5.8508e-12
6.91102e-12
7.98225e-12
9.02805e-12
1.00083e-11
1.08819e-11
1.16101e-11
1.21589e-11
1.25021e-11
1.26227e-11
1.2515e-11
1.21841e-11
1.16461e-11
1.0927e-11
1.00601e-11
9.08406e-12
8.03986e-12
6.96772e-12
5.90435e-12
4.88037e-12
3.9184e-12
3.03162e-12
2.22327e-12
1.48682e-12
8.07001e-13
1.61475e-13
5.59523e-15
5.51961e-15
1.59329e-13
7.96684e-13
1.46835e-12
2.19664e-12
2.99702e-12
3.87635e-12
4.83186e-12
5.8508e-12
6.91102e-12
7.98225e-12
9.02805e-12
1.00083e-11
1.08819e-11
1.16101e-11
1.21589e-11
1.25021e-11
1.26227e-11
1.2515e-11
1.21841e-11
1.16461e-11
1.0927e-11
1.00601e-11
9.08406e-12
8.03986e-12
6.96772e-12
5.90435e-12
4.88037e-12
3.9184e-12
3.03162e-12
2.22327e-12
1.48682e-12
8.07001e-13
1.61475e-13
5.59523e-15
5.51961e-15
1.59329e-13
7.96684e-13
1.46835e-12
2.19664e-12
2.99702e-12
3.87635e-12
4.83186e-12
5.8508e-12
6.91102e-12
7.98225e-12
9.02805e-12
1.00083e-11
1.08819e-11
1.16101e-11
1.21589e-11
1.25021e-11
1.26227e-11
1.2515e-11
1.21841e-11
1.16461e-11
1.0927e-11
1.00601e-11
9.08406e-12
8.03986e-12
6.96772e-12
5.90435e-12
4.88037e-12
3.9184e-12
3.03162e-12
2.22327e-12
1.48682e-12
8.07001e-13
1.61475e-13
5.59523e-15
5.51961e-15
1.59329e-13
7.96684e-13
1.46835e-12
2.19664e-12
2.99702e-12
3.87635e-12
4.83186e-12
5.8508e-12
6.91102e-12
7.98225e-12
9.02805e-12
1.00083e-11
1.08819e-11
1.16101e-11
1.21589e-11
1.25021e-11
1.26227e-11
1.2515e-11
1.21841e-11
1.16461e-11
1.0927e-11
1.00601e-11
9.08406e-12
8.03986e-12
6.96772e-12
5.90435e-12
4.88037e-12
3.9184e-12
3.03162e-12
2.22327e-12
1.48682e-12
8.07001e-13
1.61475e-13
5.59523e-15
5.51961e-15
1.59329e-13
7.96684e-13
1.46835e-12
2.19664e-12
2.99702e-12
3.87635e-12
4.83186e-12
5.8508e-12
6.91102e-12
7.98225e-12
9.02805e-12
1.00083e-11
1.08819e-11
1.16101e-11
1.21589e-11
1.25021e-11
1.26227e-11
1.2515e-11
1.21841e-11
1.16461e-11
1.0927e-11
1.00601e-11
9.08406e-12
8.03986e-12
6.96772e-12
5.90435e-12
4.88037e-12
3.9184e-12
3.03162e-12
2.22327e-12
1.48682e-12
8.07001e-13
1.61475e-13
5.59523e-15
5.51961e-15
1.59329e-13
7.96684e-13
1.46835e-12
2.19664e-12
2.99702e-12
3.87635e-12
4.83186e-12
5.8508e-12
6.91102e-12
7.98225e-12
9.02805e-12
1.00083e-11
1.08819e-11
1.16101e-11
1.21589e-11
1.25021e-11
1.26227e-11
1.2515e-11
1.21841e-11
1.16461e-11
1.0927e-11
1.00601e-11
9.08406e-12
8.03986e-12
6.96772e-12
5.90435e-12
4.88037e-12
3.9184e-12
3.03162e-12
2.22327e-12
1.48682e-12
8.07001e-13
1.61475e-13
5.59523e-15
5.51961e-15
1.59329e-13
7.96684e-13
1.46835e-12
2.19664e-12
2.99702e-12
3.87635e-12
4.83186e-12
5.8508e-12
6.91102e-12
7.98225e-12
9.02805e-12
1.00083e-11
1.08819e-11
1.16101e-11
1.21589e-11
1.25021e-11
1.26227e-11
1.2515e-11
1.21841e-11
1.16461e-11
1.0927e-11
1.00601e-11
9.08406e-12
8.03986e-12
6.96772e-12
5.90435e-12
4.88037e-12
3.9184e-12
3.03162e-12
2.22327e-12
1.48682e-12
8.07001e-13
1.61475e-13
5.59523e-15
5.51961e-15
1.59329e-13
7.96684e-13
1.46835e-12
2.19664e-12
2.99702e-12
3.87635e-12
4.83186e-12
5.8508e-12
6.91102e-12
7.98225e-12
9.02805e-12
1.00083e-11
1.08819e-11
1.16101e-11
1.21589e-11
1.25021e-11
1.26227e-11
1.2515e-11
1.21841e-11
1.16461e-11
1.0927e-11
1.00601e-11
9.08406e-12
8.03986e-12
6.96772e-12
5.90435e-12
4.88037e-12
3.9184e-12
3.03162e-12
2.22327e-12
1.48682e-12
8.07001e-13
1.61475e-13
5.59523e-15
5.51961e-15
1.59329e-13
7.96684e-13
1.46835e-12
2.19664e-12
2.99702e-12
3.87635e-12
4.83186e-12
5.8508e-12
6.91102e-12
7.98225e-12
9.02805e-12
1.00083e-11
1.08819e-11
1.16101e-11
1.21589e-11
1.25021e-11
1.26227e-11
1.2515e-11
1.21841e-11
1.16461e-11
1.0927e-11
1.00601e-11
9.08406e-12
8.03986e-12
6.96772e-12
5.90435e-12
4.88037e-12
3.9184e-12
3.03162e-12
2.22327e-12
1.48682e-12
8.07001e-13
1.61475e-13
5.59523e-15
5.51961e-15
1.59329e-13
7.96684e-13
1.46835e-12
2.19664e-12
2.99702e-12
3.87635e-12
4.83186e-12
5.8508e-12
6.91102e-12
7.98225e-12
9.02805e-12
1.00083e-11
1.08819e-11
1.16101e-11
1.21589e-11
1.25021e-11
1.26227e-11
1.2515e-11
1.21841e-11
1.16461e-11
1.0927e-11
1.00601e-11
9.08406e-12
8.03986e-12
6.96772e-12
5.90435e-12
4.88037e-12
3.9184e-12
3.03162e-12
2.22327e-12
1.48682e-12
8.07001e-13
1.61475e-13
5.59523e-15
5.51961e-15
1.59329e-13
7.96684e-13
1.46835e-12
2.19664e-12
2.99702e-12
3.87635e-12
4.83186e-12
5.8508e-12
6.91102e-12
7.98225e-12
9.02805e-12
1.00083e-11
1.08819e-11
1.16101e-11
1.21589e-11
1.25021e-11
1.26227e-11
1.2515e-11
1.21841e-11
1.16461e-11
1.0927e-11
1.00601e-11
9.08406e-12
8.03986e-12
6.96772e-12
5.90435e-12
4.88037e-12
3.9184e-12
3.03162e-12
2.22327e-12
1.48682e-12
8.07001e-13
1.61475e-13
5.59523e-15
5.51961e-15
1.59329e-13
7.96684e-13
1.46835e-12
2.19664e-12
2.99702e-12
3.87635e-12
4.83186e-12
5.8508e-12
6.91102e-12
7.98225e-12
9.02805e-12
1.00083e-11
1.08819e-11
1.16101e-11
1.21589e-11
1.25021e-11
1.26227e-11
1.2515e-11
1.21841e-11
1.16461e-11
1.0927e-11
1.00601e-11
9.08406e-12
8.03986e-12
6.96772e-12
5.90435e-12
4.88037e-12
3.9184e-12
3.03162e-12
2.22327e-12
1.48682e-12
8.07001e-13
1.61475e-13
5.59523e-15
5.51961e-15
1.59329e-13
7.96684e-13
1.46835e-12
2.19664e-12
2.99702e-12
3.87635e-12
4.83186e-12
5.8508e-12
6.91102e-12
7.98225e-12
9.02805e-12
1.00083e-11
1.08819e-11
1.16101e-11
1.21589e-11
1.25021e-11
1.26227e-11
1.2515e-11
1.21841e-11
1.16461e-11
1.0927e-11
1.00601e-11
9.08406e-12
8.03986e-12
6.96772e-12
5.90435e-12
4.88037e-12
3.9184e-12
3.03162e-12
2.22327e-12
1.48682e-12
8.07001e-13
1.61475e-13
5.59523e-15
5.51961e-15
1.59329e-13
7.96684e-13
1.46835e-12
2.19664e-12
2.99702e-12
3.87635e-12
4.83186e-12
5.8508e-12
6.91102e-12
7.98225e-12
9.02805e-12
1.00083e-11
1.08819e-11
1.16101e-11
1.21589e-11
1.25021e-11
1.26227e-11
1.2515e-11
1.21841e-11
1.16461e-11
1.0927e-11
1.00601e-11
9.08406e-12
8.03986e-12
6.96772e-12
5.90435e-12
4.88037e-12
3.9184e-12
3.03162e-12
2.22327e-12
1.48682e-12
8.07001e-13
1.61475e-13
5.59523e-15
5.51961e-15
1.59329e-13
7.96684e-13
1.46835e-12
2.19664e-12
2.99702e-12
3.87635e-12
4.83186e-12
5.8508e-12
6.91102e-12
7.98225e-12
9.02805e-12
1.00083e-11
1.08819e-11
1.16101e-11
1.21589e-11
1.25021e-11
1.26227e-11
1.2515e-11
1.21841e-11
1.16461e-11
1.0927e-11
1.00601e-11
9.08406e-12
8.03986e-12
6.96772e-12
5.90435e-12
4.88037e-12
3.9184e-12
3.03162e-12
2.22327e-12
1.48682e-12
8.07001e-13
1.61475e-13
5.59523e-15
5.51961e-15
1.59329e-13
7.96684e-13
1.46835e-12
2.19664e-12
2.99702e-12
3.87635e-12
4.83186e-12
5.8508e-12
6.91102e-12
7.98225e-12
9.02805e-12
1.00083e-11
1.08819e-11
1.16101e-11
1.21589e-11
1.25021e-11
1.26227e-11
1.2515e-11
1.21841e-11
1.16461e-11
1.0927e-11
1.00601e-11
9.08406e-12
8.03986e-12
6.96772e-12
5.90435e-12
4.88037e-12
3.9184e-12
3.03162e-12
2.22327e-12
1.48682e-12
8.07001e-13
1.61475e-13
5.59523e-15
5.51961e-15
1.59329e-13
7.96684e-13
1.46835e-12
2.19664e-12
2.99702e-12
3.87635e-12
4.83186e-12
5.8508e-12
6.91102e-12
7.98225e-12
9.02805e-12
1.00083e-11
1.08819e-11
1.16101e-11
1.21589e-11
1.25021e-11
1.26227e-11
1.2515e-11
1.21841e-11
1.16461e-11
1.0927e-11
1.00601e-11
9.08406e-12
8.03986e-12
6.96772e-12
5.90435e-12
4.88037e-12
3.9184e-12
3.03162e-12
2.22327e-12
1.48682e-12
8.07001e-13
1.61475e-13
5.59523e-15
5.51961e-15
1.59329e-13
7.96684e-13
1.46835e-12
2.19664e-12
2.99702e-12
3.87635e-12
4.83186e-12
5.8508e-12
6.91102e-12
7.98225e-12
9.02805e-12
1.00083e-11
1.08819e-11
1.16101e-11
1.21589e-11
1.25021e-11
1.26227e-11
1.2515e-11
1.21841e-11
1.16461e-11
1.0927e-11
1.00601e-11
9.08406e-12
8.03986e-12
6.96772e-12
5.90435e-12
4.88037e-12
3.9184e-12
3.03162e-12
2.22327e-12
1.48682e-12
8.07001e-13
1.61475e-13
5.59523e-15
5.51961e-15
1.59329e-13
7.96684e-13
1.46835e-12
2.19664e-12
2.99702e-12
3.87635e-12
4.83186e-12
5.8508e-12
6.91102e-12
7.98225e-12
9.02805e-12
1.00083e-11
1.08819e-11
1.16101e-11
1.21589e-11
1.25021e-11
1.26227e-11
1.2515e-11
1.21841e-11
1.16461e-11
1.0927e-11
1.00601e-11
9.08406e-12
8.03986e-12
6.96772e-12
5.90435e-12
4.88037e-12
3.9184e-12
3.03162e-12
2.22327e-12
1.48682e-12
8.07001e-13
1.61475e-13
5.59523e-15
5.51961e-15
1.59329e-13
7.96684e-13
1.46835e-12
2.19664e-12
2.99702e-12
3.87635e-12
4.83186e-12
5.8508e-12
6.91102e-12
7.98225e-12
9.02805e-12
1.00083e-11
1.08819e-11
1.16101e-11
1.21589e-11
1.25021e-11
1.26227e-11
1.2515e-11
1.21841e-11
1.16461e-11
1.0927e-11
1.00601e-11
9.08406e-12
8.03986e-12
6.96772e-12
5.90435e-12
4.88037e-12
3.9184e-12
3.03162e-12
2.22327e-12
1.48682e-12
8.07001e-13
1.61475e-13
5.59523e-15
5.51961e-15
1.59329e-13
7.96684e-13
1.46835e-12
2.19664e-12
2.99702e-12
3.87635e-12
4.83186e-12
5.8508e-12
6.91102e-12
7.98225e-12
9.02805e-12
1.00083e-11
1.08819e-11
1.16101e-11
1.21589e-11
1.25021e-11
1.26227e-11
1.2515e-11
1.21841e-11
1.16461e-11
1.0927e-11
1.00601e-11
9.08406e-12
8.03986e-12
6.96772e-12
5.90435e-12
4.88037e-12
3.9184e-12
3.03162e-12
2.22327e-12
1.48682e-12
8.07001e-13
1.61475e-13
5.59523e-15
5.51961e-15
1.59329e-13
7.96684e-13
1.46835e-12
2.19664e-12
2.99702e-12
3.87635e-12
4.83186e-12
5.8508e-12
6.91102e-12
7.98225e-12
9.02805e-12
1.00083e-11
1.08819e-11
1.16101e-11
1.21589e-11
1.25021e-11
1.26227e-11
1.2515e-11
1.21841e-11
1.16461e-11
1.0927e-11
1.00601e-11
9.08406e-12
8.03986e-12
6.96772e-12
5.90435e-12
4.88037e-12
3.9184e-12
3.03162e-12
2.22327e-12
1.48682e-12
8.07001e-13
1.61475e-13
5.59523e-15
5.51961e-15
1.59329e-13
7.96684e-13
1.46835e-12
2.19664e-12
2.99702e-12
3.87635e-12
4.83186e-12
5.8508e-12
6.91102e-12
7.98225e-12
9.02805e-12
1.00083e-11
1.08819e-11
1.16101e-11
1.21589e-11
1.25021e-11
1.26227e-11
1.2515e-11
1.21841e-11
1.16461e-11
1.0927e-11
1.00601e-11
9.08406e-12
8.03986e-12
6.96772e-12
5.90435e-12
4.88037e-12
3.9184e-12
3.03162e-12
2.22327e-12
1.48682e-12
8.07001e-13
1.61475e-13
5.59523e-15
5.51961e-15
1.59329e-13
7.96684e-13
1.46835e-12
2.19664e-12
2.99702e-12
3.87635e-12
4.83186e-12
5.8508e-12
6.91102e-12
7.98225e-12
9.02805e-12
1.00083e-11
1.08819e-11
1.16101e-11
1.21589e-11
1.25021e-11
1.26227e-11
1.2515e-11
1.21841e-11
1.16461e-11
1.0927e-11
1.00601e-11
9.08406e-12
8.03986e-12
6.96772e-12
5.90435e-12
4.88037e-12
3.9184e-12
3.03162e-12
2.22327e-12
1.48682e-12
8.07001e-13
1.61475e-13
5.59523e-15
5.51961e-15
1.59329e-13
7.96684e-13
1.46835e-12
2.19664e-12
2.99702e-12
3.87635e-12
4.83186e-12
5.8508e-12
6.91102e-12
7.98225e-12
9.02805e-12
1.00083e-11
1.08819e-11
1.16101e-11
1.21589e-11
1.25021e-11
1.26227e-11
1.2515e-11
1.21841e-11
1.16461e-11
1.0927e-11
1.00601e-11
9.08406e-12
8.03986e-12
6.96772e-12
5.90435e-12
4.88037e-12
3.9184e-12
3.03162e-12
2.22327e-12
1.48682e-12
8.07001e-13
1.61475e-13
5.59523e-15
5.51961e-15
1.59329e-13
7.96684e-13
1.46835e-12
2.19664e-12
2.99702e-12
3.87635e-12
4.83186e-12
5.8508e-12
6.91102e-12
7.98225e-12
9.02805e-12
1.00083e-11
1.08819e-11
1.16101e-11
1.21589e-11
1.25021e-11
1.26227e-11
1.2515e-11
1.21841e-11
1.16461e-11
1.0927e-11
1.00601e-11
9.08406e-12
8.03986e-12
6.96772e-12
5.90435e-12
4.88037e-12
3.9184e-12
3.03162e-12
2.22327e-12
1.48682e-12
8.07001e-13
1.61475e-13
5.59523e-15
5.51961e-15
1.59329e-13
7.96684e-13
1.46835e-12
2.19664e-12
2.99702e-12
3.87635e-12
4.83186e-12
5.8508e-12
6.91102e-12
7.98225e-12
9.02805e-12
1.00083e-11
1.08819e-11
1.16101e-11
1.21589e-11
1.25021e-11
1.26227e-11
1.2515e-11
1.21841e-11
1.16461e-11
1.0927e-11
1.00601e-11
9.08406e-12
8.03986e-12
6.96772e-12
5.90435e-12
4.88037e-12
3.9184e-12
3.03162e-12
2.22327e-12
1.48682e-12
8.07001e-13
1.61475e-13
5.59523e-15
5.51961e-15
1.59329e-13
7.96684e-13
1.46835e-12
2.19664e-12
2.99702e-12
3.87635e-12
4.83186e-12
5.8508e-12
6.91102e-12
7.98225e-12
9.02805e-12
1.00083e-11
1.08819e-11
1.16101e-11
1.21589e-11
1.25021e-11
1.26227e-11
1.2515e-11
1.21841e-11
1.16461e-11
1.0927e-11
1.00601e-11
9.08406e-12
8.03986e-12
6.96772e-12
5.90435e-12
4.88037e-12
3.9184e-12
3.03162e-12
2.22327e-12
1.48682e-12
8.07001e-13
1.61475e-13
5.59523e-15
5.51961e-15
1.59329e-13
7.96684e-13
1.46835e-12
2.19664e-12
2.99702e-12
3.87635e-12
4.83186e-12
5.8508e-12
6.91102e-12
7.98225e-12
9.02805e-12
1.00083e-11
1.08819e-11
1.16101e-11
1.21589e-11
1.25021e-11
1.26227e-11