/*--------------------------------*- C++ -*----------------------------------*\
  =========                 |
  \\      /  F ield         | OpenFOAM: The Open Source CFD Toolbox
   \\    /   O peration     | Website:  https://openfoam.org
    \\  /    A nd           | Version:  13
     \\/     M anipulation  |
\*---------------------------------------------------------------------------*/
FoamFile
{
    format      ascii;
    class       volScalarField;
    location    "34";
    object      nut;
}
// * * * * * * * * * * * * * * * * * * * * * * * * * * * * * * * * * * * * * //

dimensions      [0 2 -1 0 0 0 0];

internalField   nonuniform List<scalar> 
78750
(
3.27176e-19
5.06528e-18
1.10606e-16
2.0008e-16
2.94498e-16
3.94476e-16
5.00036e-16
6.10414e-16
7.24045e-16
8.38639e-16
9.51328e-16
1.05885e-15
1.15777e-15
1.2447e-15
1.31649e-15
1.37045e-15
1.40452e-15
1.41734e-15
1.40841e-15
1.37807e-15
1.32748e-15
1.25859e-15
1.17395e-15
1.07665e-15
9.70033e-16
8.57541e-16
7.42476e-16
6.27776e-16
5.15821e-16
4.08266e-16
3.05942e-16
2.0883e-16
1.16162e-16
5.355e-18
3.27176e-19
4.14855e-19
1.07672e-16
1.51956e-14
2.77597e-14
4.09856e-14
5.5019e-14
6.98872e-14
8.54905e-14
1.01605e-13
1.179e-13
1.33958e-13
1.49303e-13
1.63434e-13
1.75857e-13
1.86113e-13
1.93812e-13
1.9865e-13
2.00435e-13
1.99094e-13
1.94679e-13
1.87363e-13
1.77431e-13
1.65262e-13
1.51303e-13
1.36046e-13
1.19993e-13
1.03624e-13
8.73643e-14
7.15576e-14
5.64389e-14
4.21188e-14
2.85774e-14
1.56705e-14
1.11223e-16
4.28811e-19
1.14425e-18
2.97132e-16
4.2024e-14
7.72257e-14
1.1502e-13
1.56072e-13
2.00634e-13
2.485e-13
2.98999e-13
3.51036e-13
4.03163e-13
4.53672e-13
5.00723e-13
5.42458e-13
5.77142e-13
6.03272e-13
6.19686e-13
6.2564e-13
6.20861e-13
6.05562e-13
5.80429e-13
5.46578e-13
5.05473e-13
4.58829e-13
4.08495e-13
3.56321e-13
3.04032e-13
2.53108e-13
2.0468e-13
1.59456e-13
1.17675e-13
7.91087e-14
4.31001e-14
3.05095e-16
1.17544e-18
2.17108e-18
5.63835e-16
7.98062e-14
1.46979e-13
2.19625e-13
2.99211e-13
3.86369e-13
4.80789e-13
5.81201e-13
6.85429e-13
7.90519e-13
8.92939e-13
9.88812e-13
1.07419e-12
1.14536e-12
1.19906e-12
1.23277e-12
1.24487e-12
1.23479e-12
1.203e-12
1.15101e-12
1.08126e-12
9.96936e-13
9.01732e-13
7.99579e-13
6.9437e-13
5.89677e-13
4.88509e-13
3.93108e-13
3.04813e-13
2.2399e-13
1.50053e-13
8.15507e-14
5.76696e-16
2.22142e-18
3.3177e-18
8.61623e-16
1.2198e-13
2.24791e-13
3.3621e-13
4.58573e-13
5.92913e-13
7.38796e-13
8.9428e-13
1.05599e-12
1.21934e-12
1.37878e-12
1.52823e-12
1.66146e-12
1.77257e-12
1.85642e-12
1.90901e-12
1.92778e-12
1.9118e-12
1.86185e-12
1.78035e-12
1.67119e-12
1.53942e-12
1.39088e-12
1.23179e-12
1.06827e-12
9.059e-13
7.49361e-13
6.02115e-13
4.66201e-13
3.42135e-13
2.28948e-13
1.2433e-13
8.78915e-16
3.38537e-18
4.43536e-18
1.15188e-15
1.63079e-13
3.00571e-13
4.49653e-13
6.13477e-13
7.93449e-13
9.88999e-13
1.19753e-12
1.41451e-12
1.63377e-12
1.84785e-12
2.04856e-12
2.22751e-12
2.37675e-12
2.48935e-12
2.55992e-12
2.585e-12
2.56335e-12
2.49602e-12
2.38631e-12
2.23946e-12
2.06229e-12
1.8627e-12
1.64905e-12
1.42956e-12
1.21177e-12
1.00193e-12
8.04702e-13
6.22789e-13
4.56869e-13
3.0562e-13
1.65924e-13
1.17281e-15
4.51727e-18
5.43172e-18
1.41065e-15
1.99716e-13
3.68104e-13
5.50702e-13
7.51382e-13
9.71868e-13
1.21147e-12
1.46699e-12
1.73289e-12
2.00159e-12
2.26395e-12
2.50992e-12
2.72921e-12
2.91206e-12
3.04999e-12
3.13637e-12
3.16698e-12
3.14029e-12
3.05763e-12
2.92301e-12
2.74289e-12
2.52564e-12
2.28095e-12
2.01908e-12
1.75012e-12
1.48328e-12
1.22626e-12
9.84723e-13
7.62004e-13
5.5892e-13
3.73842e-13
2.02943e-13
1.43437e-15
5.52457e-18
6.25781e-18
1.62523e-15
2.301e-13
4.24102e-13
6.34474e-13
8.65679e-13
1.11971e-12
1.39575e-12
1.69014e-12
1.99648e-12
2.30604e-12
2.60828e-12
2.89162e-12
3.14421e-12
3.3548e-12
3.51362e-12
3.61303e-12
3.64818e-12
3.61732e-12
3.52197e-12
3.36677e-12
3.15916e-12
2.90881e-12
2.62686e-12
2.32515e-12
2.01531e-12
1.70794e-12
1.4119e-12
1.13373e-12
8.77254e-13
6.43416e-13
4.30334e-13
2.33599e-13
1.65095e-15
6.35845e-18
6.89777e-18
1.79152e-15
2.5365e-13
4.67502e-13
6.99394e-13
9.54246e-13
1.23425e-12
1.53852e-12
1.863e-12
2.20064e-12
2.54182e-12
2.87493e-12
3.18718e-12
3.46552e-12
3.69757e-12
3.87253e-12
3.98201e-12
4.02066e-12
3.98655e-12
3.88136e-12
3.71022e-12
3.48134e-12
3.20536e-12
2.89458e-12
2.56204e-12
2.22055e-12
1.88181e-12
1.55558e-12
1.24906e-12
9.66458e-13
7.08817e-13
4.7406e-13
2.57326e-13
1.81854e-15
7.00351e-18
7.36155e-18
1.91209e-15
2.70728e-13
4.98975e-13
7.46472e-13
1.01847e-12
1.31731e-12
1.64204e-12
1.98833e-12
2.34867e-12
2.71277e-12
3.06824e-12
3.40144e-12
3.69845e-12
3.94603e-12
4.13269e-12
4.24945e-12
4.29062e-12
4.25414e-12
4.14181e-12
3.95911e-12
3.7148e-12
3.42024e-12
3.08856e-12
2.73367e-12
2.36925e-12
2.00777e-12
1.65966e-12
1.3326e-12
1.03107e-12
7.56188e-13
5.0573e-13
2.7451e-13
1.93987e-15
7.47032e-18
7.67628e-18
1.99394e-15
2.82328e-13
5.20352e-13
7.78447e-13
1.06209e-12
1.37372e-12
1.71234e-12
2.07345e-12
2.4492e-12
2.82886e-12
3.19952e-12
3.54695e-12
3.85662e-12
4.11476e-12
4.30934e-12
4.43105e-12
4.47392e-12
4.43583e-12
4.31864e-12
4.12808e-12
3.87328e-12
3.5661e-12
3.22022e-12
2.85015e-12
2.47016e-12
2.09325e-12
1.73029e-12
1.38928e-12
1.07491e-12
7.88324e-13
5.27213e-13
2.86166e-13
2.02214e-15
7.78665e-18
7.87656e-18
2.04607e-15
2.89717e-13
5.33969e-13
7.98816e-13
1.08988e-12
1.40965e-12
1.75713e-12
2.12768e-12
2.51325e-12
2.90282e-12
3.28315e-12
3.63965e-12
3.95739e-12
4.22224e-12
4.42187e-12
4.54672e-12
4.59067e-12
4.55154e-12
4.43126e-12
4.23569e-12
3.9742e-12
3.65897e-12
3.30405e-12
2.92431e-12
2.5344e-12
2.14766e-12
1.77524e-12
1.42535e-12
1.1028e-12
8.08771e-13
5.40881e-13
2.9358e-13
2.07445e-15
7.98768e-18
7.99631e-18
2.07725e-15
2.94139e-13
5.42121e-13
8.1101e-13
1.10651e-12
1.43117e-12
1.78394e-12
2.16014e-12
2.55159e-12
2.9471e-12
3.33322e-12
3.69514e-12
4.01771e-12
4.28658e-12
4.48924e-12
4.61596e-12
4.66056e-12
4.62081e-12
4.49867e-12
4.30009e-12
4.0346e-12
3.71455e-12
3.35421e-12
2.96868e-12
2.57283e-12
2.18021e-12
1.80213e-12
1.44693e-12
1.11949e-12
8.20998e-13
5.49053e-13
2.98013e-13
2.10571e-15
8.10772e-18
8.06374e-18
2.09483e-15
2.96633e-13
5.46717e-13
8.17884e-13
1.11589e-12
1.4433e-12
1.79906e-12
2.17845e-12
2.57321e-12
2.97207e-12
3.36146e-12
3.72643e-12
4.05173e-12
4.32286e-12
4.52722e-12
4.65501e-12
4.69996e-12
4.65986e-12
4.53667e-12
4.3364e-12
4.06865e-12
3.74588e-12
3.38248e-12
2.99369e-12
2.59449e-12
2.19855e-12
1.81728e-12
1.45908e-12
1.12888e-12
8.27885e-13
5.53655e-13
3.00509e-13
2.1233e-15
8.17524e-18
8.09959e-18
2.10418e-15
2.9796e-13
5.49163e-13
8.21544e-13
1.12088e-12
1.44975e-12
1.80711e-12
2.1882e-12
2.58472e-12
2.98536e-12
3.37649e-12
3.7431e-12
4.06984e-12
4.34218e-12
4.54745e-12
4.6758e-12
4.72094e-12
4.68065e-12
4.5569e-12
4.35572e-12
4.08677e-12
3.76255e-12
3.39752e-12
3.00699e-12
2.60601e-12
2.20831e-12
1.82533e-12
1.46555e-12
1.13388e-12
8.31547e-13
5.56103e-13
3.01837e-13
2.13265e-15
8.21108e-18
8.11763e-18
2.10888e-15
2.98629e-13
5.50396e-13
8.23388e-13
1.1234e-12
1.45301e-12
1.81117e-12
2.19311e-12
2.59052e-12
2.99206e-12
3.38407e-12
3.75149e-12
4.07897e-12
4.35192e-12
4.55764e-12
4.68627e-12
4.73152e-12
4.69113e-12
4.56709e-12
4.36546e-12
4.0959e-12
3.77095e-12
3.4051e-12
3.0137e-12
2.61182e-12
2.21322e-12
1.82939e-12
1.4688e-12
1.1364e-12
8.33391e-13
5.57335e-13
3.02505e-13
2.13736e-15
8.2291e-18
8.12624e-18
2.11113e-15
2.98948e-13
5.50985e-13
8.2427e-13
1.1246e-12
1.45456e-12
1.81311e-12
2.19546e-12
2.59329e-12
2.99526e-12
3.38769e-12
3.75551e-12
4.08333e-12
4.35657e-12
4.56251e-12
4.69128e-12
4.73657e-12
4.69614e-12
4.57197e-12
4.37012e-12
4.10027e-12
3.77497e-12
3.40873e-12
3.0169e-12
2.61459e-12
2.21557e-12
1.83133e-12
1.47036e-12
1.1376e-12
8.34271e-13
5.57923e-13
3.02824e-13
2.1396e-15
8.23769e-18
8.13014e-18
2.11216e-15
2.99094e-13
5.51253e-13
8.24671e-13
1.12515e-12
1.45527e-12
1.81399e-12
2.19652e-12
2.59456e-12
2.99672e-12
3.38934e-12
3.75734e-12
4.08532e-12
4.35869e-12
4.56473e-12
4.69356e-12
4.73887e-12
4.69842e-12
4.57418e-12
4.37224e-12
4.10225e-12
3.7768e-12
3.41037e-12
3.01836e-12
2.61585e-12
2.21664e-12
1.83221e-12
1.47106e-12
1.13815e-12
8.34671e-13
5.5819e-13
3.02969e-13
2.14062e-15
8.24159e-18
8.13183e-18
2.1126e-15
2.99157e-13
5.51369e-13
8.24844e-13
1.12539e-12
1.45558e-12
1.81437e-12
2.19699e-12
2.5951e-12
2.99735e-12
3.39005e-12
3.75813e-12
4.08618e-12
4.35961e-12
4.56569e-12
4.69455e-12
4.73987e-12
4.6994e-12
4.57514e-12
4.37315e-12
4.10311e-12
3.77759e-12
3.41109e-12
3.01899e-12
2.6164e-12
2.2171e-12
1.83259e-12
1.47137e-12
1.13838e-12
8.34845e-13
5.58306e-13
3.03031e-13
2.14106e-15
8.24327e-18
8.13253e-18
2.11278e-15
2.99183e-13
5.51417e-13
8.24916e-13
1.12549e-12
1.45571e-12
1.81453e-12
2.19718e-12
2.59533e-12
2.99761e-12
3.39035e-12
3.75846e-12
4.08654e-12
4.35999e-12
4.56609e-12
4.69496e-12
4.74028e-12
4.69981e-12
4.57554e-12
4.37353e-12
4.10347e-12
3.77791e-12
3.41138e-12
3.01925e-12
2.61662e-12
2.21729e-12
1.83275e-12
1.4715e-12
1.13848e-12
8.34916e-13
5.58354e-13
3.03057e-13
2.14124e-15
8.24397e-18
8.13281e-18
2.11285e-15
2.99193e-13
5.51436e-13
8.24945e-13
1.12552e-12
1.45576e-12
1.81459e-12
2.19725e-12
2.59542e-12
2.99772e-12
3.39047e-12
3.75859e-12
4.08668e-12
4.36014e-12
4.56625e-12
4.69512e-12
4.74044e-12
4.69998e-12
4.5757e-12
4.37368e-12
4.10361e-12
3.77804e-12
3.4115e-12
3.01935e-12
2.61671e-12
2.21736e-12
1.83281e-12
1.47155e-12
1.13852e-12
8.34945e-13
5.58373e-13
3.03068e-13
2.14131e-15
8.24424e-18
8.13291e-18
2.11288e-15
2.99197e-13
5.51443e-13
8.24956e-13
1.12554e-12
1.45578e-12
1.81462e-12
2.19728e-12
2.59545e-12
2.99776e-12
3.39051e-12
3.75863e-12
4.08673e-12
4.3602e-12
4.56631e-12
4.69518e-12
4.74051e-12
4.70004e-12
4.57576e-12
4.37374e-12
4.10366e-12
3.77809e-12
3.41155e-12
3.01939e-12
2.61675e-12
2.21739e-12
1.83284e-12
1.47156e-12
1.13853e-12
8.34955e-13
5.5838e-13
3.03071e-13
2.14134e-15
8.24435e-18
8.13295e-18
2.11289e-15
2.99198e-13
5.51446e-13
8.2496e-13
1.12554e-12
1.45578e-12
1.81463e-12
2.19729e-12
2.59546e-12
2.99777e-12
3.39053e-12
3.75865e-12
4.08675e-12
4.36022e-12
4.56633e-12
4.6952e-12
4.74053e-12
4.70006e-12
4.57578e-12
4.37376e-12
4.10368e-12
3.77811e-12
3.41156e-12
3.01941e-12
2.61676e-12
2.2174e-12
1.83285e-12
1.47157e-12
1.13854e-12
8.34959e-13
5.58383e-13
3.03073e-13
2.14135e-15
8.24438e-18
8.13296e-18
2.11289e-15
2.99199e-13
5.51447e-13
8.24961e-13
1.12555e-12
1.45578e-12
1.81463e-12
2.1973e-12
2.59547e-12
2.99778e-12
3.39053e-12
3.75866e-12
4.08676e-12
4.36022e-12
4.56634e-12
4.69521e-12
4.74054e-12
4.70007e-12
4.57579e-12
4.37377e-12
4.10369e-12
3.77812e-12
3.41157e-12
3.01941e-12
2.61676e-12
2.21741e-12
1.83285e-12
1.47157e-12
1.13854e-12
8.34961e-13
5.58383e-13
3.03073e-13
2.14136e-15
8.2444e-18
8.13297e-18
2.1129e-15
2.99199e-13
5.51447e-13
8.24961e-13
1.12555e-12
1.45579e-12
1.81463e-12
2.1973e-12
2.59547e-12
2.99778e-12
3.39053e-12
3.75866e-12
4.08676e-12
4.36023e-12
4.56634e-12
4.69521e-12
4.74054e-12
4.70007e-12
4.57579e-12
4.37377e-12
4.10369e-12
3.77812e-12
3.41157e-12
3.01941e-12
2.61677e-12
2.21741e-12
1.83285e-12
1.47157e-12
1.13854e-12
8.34961e-13
5.58384e-13
3.03074e-13
2.14136e-15
8.2444e-18
8.13297e-18
2.1129e-15
2.99199e-13
5.51447e-13
8.24962e-13
1.12555e-12
1.45579e-12
1.81463e-12
2.1973e-12
2.59547e-12
2.99778e-12
3.39053e-12
3.75866e-12
4.08676e-12
4.36023e-12
4.56634e-12
4.69521e-12
4.74054e-12
4.70007e-12
4.57579e-12
4.37377e-12
4.10369e-12
3.77812e-12
3.41157e-12
3.01941e-12
2.61677e-12
2.21741e-12
1.83285e-12
1.47158e-12
1.13854e-12
8.34961e-13
5.58384e-13
3.03074e-13
2.14136e-15
8.2444e-18
8.13297e-18
2.1129e-15
2.99199e-13
5.51447e-13
8.24962e-13
1.12555e-12
1.45579e-12
1.81463e-12
2.1973e-12
2.59547e-12
2.99778e-12
3.39053e-12
3.75866e-12
4.08676e-12
4.36023e-12
4.56634e-12
4.69521e-12
4.74054e-12
4.70007e-12
4.57579e-12
4.37377e-12
4.10369e-12
3.77812e-12
3.41157e-12
3.01941e-12
2.61677e-12
2.21741e-12
1.83285e-12
1.47158e-12
1.13854e-12
8.34961e-13
5.58384e-13
3.03074e-13
2.14136e-15
8.2444e-18
8.13297e-18
2.1129e-15
2.99199e-13
5.51447e-13
8.24962e-13
1.12555e-12
1.45579e-12
1.81463e-12
2.1973e-12
2.59547e-12
2.99778e-12
3.39054e-12
3.75866e-12
4.08676e-12
4.36023e-12
4.56634e-12
4.69521e-12
4.74054e-12
4.70007e-12
4.57579e-12
4.37377e-12
4.10369e-12
3.77812e-12
3.41157e-12
3.01941e-12
2.61677e-12
2.21741e-12
1.83285e-12
1.47158e-12
1.13854e-12
8.34961e-13
5.58384e-13
3.03074e-13
2.14136e-15
8.2444e-18
8.13297e-18
2.1129e-15
2.99199e-13
5.51447e-13
8.24962e-13
1.12555e-12
1.45579e-12
1.81463e-12
2.1973e-12
2.59547e-12
2.99778e-12
3.39054e-12
3.75866e-12
4.08676e-12
4.36023e-12
4.56634e-12
4.69521e-12
4.74054e-12
4.70007e-12
4.57579e-12
4.37377e-12
4.10369e-12
3.77812e-12
3.41157e-12
3.01941e-12
2.61677e-12
2.21741e-12
1.83285e-12
1.47158e-12
1.13854e-12
8.34961e-13
5.58384e-13
3.03074e-13
2.14136e-15
8.2444e-18
8.13297e-18
2.1129e-15
2.99199e-13
5.51447e-13
8.24962e-13
1.12555e-12
1.45579e-12
1.81463e-12
2.1973e-12
2.59547e-12
2.99778e-12
3.39054e-12
3.75866e-12
4.08676e-12
4.36023e-12
4.56634e-12
4.69521e-12
4.74054e-12
4.70007e-12
4.57579e-12
4.37377e-12
4.10369e-12
3.77812e-12
3.41157e-12
3.01941e-12
2.61677e-12
2.21741e-12
1.83285e-12
1.47158e-12
1.13854e-12
8.34961e-13
5.58384e-13
3.03074e-13
2.14136e-15
8.2444e-18
8.13297e-18
2.1129e-15
2.99199e-13
5.51447e-13
8.24962e-13
1.12555e-12
1.45579e-12
1.81463e-12
2.1973e-12
2.59547e-12
2.99778e-12
3.39054e-12
3.75866e-12
4.08676e-12
4.36023e-12
4.56634e-12
4.69521e-12
4.74054e-12
4.70007e-12
4.57579e-12
4.37377e-12
4.10369e-12
3.77812e-12
3.41157e-12
3.01941e-12
2.61677e-12
2.21741e-12
1.83285e-12
1.47158e-12
1.13854e-12
8.34961e-13
5.58384e-13
3.03074e-13
2.14136e-15
8.2444e-18
8.13297e-18
2.1129e-15
2.99199e-13
5.51447e-13
8.24962e-13
1.12555e-12
1.45579e-12
1.81463e-12
2.1973e-12
2.59547e-12
2.99778e-12
3.39054e-12
3.75866e-12
4.08676e-12
4.36023e-12
4.56634e-12
4.69521e-12
4.74054e-12
4.70007e-12
4.57579e-12
4.37377e-12
4.10369e-12
3.77812e-12
3.41157e-12
3.01941e-12
2.61677e-12
2.21741e-12
1.83285e-12
1.47158e-12
1.13854e-12
8.34961e-13
5.58384e-13
3.03074e-13
2.14136e-15
8.2444e-18
8.13297e-18
2.1129e-15
2.99199e-13
5.51447e-13
8.24962e-13
1.12555e-12
1.45579e-12
1.81463e-12
2.1973e-12
2.59547e-12
2.99778e-12
3.39054e-12
3.75866e-12
4.08676e-12
4.36023e-12
4.56634e-12
4.69521e-12
4.74054e-12
4.70007e-12
4.57579e-12
4.37377e-12
4.10369e-12
3.77812e-12
3.41157e-12
3.01941e-12
2.61677e-12
2.21741e-12
1.83285e-12
1.47158e-12
1.13854e-12
8.34961e-13
5.58384e-13
3.03074e-13
2.14136e-15
8.2444e-18
8.13297e-18
2.1129e-15
2.99199e-13
5.51447e-13
8.24962e-13
1.12555e-12
1.45579e-12
1.81463e-12
2.1973e-12
2.59547e-12
2.99778e-12
3.39054e-12
3.75866e-12
4.08676e-12
4.36023e-12
4.56634e-12
4.69521e-12
4.74054e-12
4.70007e-12
4.57579e-12
4.37377e-12
4.10369e-12
3.77812e-12
3.41157e-12
3.01941e-12
2.61677e-12
2.21741e-12
1.83285e-12
1.47158e-12
1.13854e-12
8.34961e-13
5.58384e-13
3.03074e-13
2.14136e-15
8.2444e-18
8.13297e-18
2.1129e-15
2.99199e-13
5.51447e-13
8.24962e-13
1.12555e-12
1.45579e-12
1.81463e-12
2.1973e-12
2.59547e-12
2.99778e-12
3.39054e-12
3.75866e-12
4.08676e-12
4.36023e-12
4.56634e-12
4.69521e-12
4.74054e-12
4.70007e-12
4.57579e-12
4.37377e-12
4.10369e-12
3.77812e-12
3.41157e-12
3.01941e-12
2.61677e-12
2.21741e-12
1.83285e-12
1.47158e-12
1.13854e-12
8.34961e-13
5.58384e-13
3.03074e-13
2.14136e-15
8.2444e-18
8.13297e-18
2.1129e-15
2.99199e-13
5.51447e-13
8.24962e-13
1.12555e-12
1.45579e-12
1.81463e-12
2.1973e-12
2.59547e-12
2.99778e-12
3.39054e-12
3.75866e-12
4.08676e-12
4.36023e-12
4.56634e-12
4.69521e-12
4.74054e-12
4.70007e-12
4.57579e-12
4.37377e-12
4.10369e-12
3.77812e-12
3.41157e-12
3.01941e-12
2.61677e-12
2.21741e-12
1.83285e-12
1.47158e-12
1.13854e-12
8.34961e-13
5.58384e-13
3.03074e-13
2.14136e-15
8.2444e-18
8.13297e-18
2.1129e-15
2.99199e-13
5.51447e-13
8.24962e-13
1.12555e-12
1.45579e-12
1.81463e-12
2.1973e-12
2.59547e-12
2.99778e-12
3.39054e-12
3.75866e-12
4.08676e-12
4.36023e-12
4.56634e-12
4.69521e-12
4.74054e-12
4.70007e-12
4.57579e-12
4.37377e-12
4.10369e-12
3.77812e-12
3.41157e-12
3.01941e-12
2.61677e-12
2.21741e-12
1.83285e-12
1.47158e-12
1.13854e-12
8.34961e-13
5.58384e-13
3.03074e-13
2.14136e-15
8.2444e-18
8.13297e-18
2.1129e-15
2.99199e-13
5.51447e-13
8.24962e-13
1.12555e-12
1.45579e-12
1.81463e-12
2.1973e-12
2.59547e-12
2.99778e-12
3.39054e-12
3.75866e-12
4.08676e-12
4.36023e-12
4.56634e-12
4.69521e-12
4.74054e-12
4.70007e-12
4.57579e-12
4.37377e-12
4.10369e-12
3.77812e-12
3.41157e-12
3.01941e-12
2.61677e-12
2.21741e-12
1.83285e-12
1.47158e-12
1.13854e-12
8.34961e-13
5.58384e-13
3.03074e-13
2.14136e-15
8.2444e-18
8.13297e-18
2.1129e-15
2.99199e-13
5.51447e-13
8.24962e-13
1.12555e-12
1.45579e-12
1.81463e-12
2.1973e-12
2.59547e-12
2.99778e-12
3.39054e-12
3.75866e-12
4.08676e-12
4.36023e-12
4.56634e-12
4.69521e-12
4.74054e-12
4.70007e-12
4.57579e-12
4.37377e-12
4.10369e-12
3.77812e-12
3.41157e-12
3.01941e-12
2.61677e-12
2.21741e-12
1.83285e-12
1.47158e-12
1.13854e-12
8.34961e-13
5.58384e-13
3.03074e-13
2.14136e-15
8.2444e-18
8.13297e-18
2.1129e-15
2.99199e-13
5.51447e-13
8.24962e-13
1.12555e-12
1.45579e-12
1.81463e-12
2.1973e-12
2.59547e-12
2.99778e-12
3.39054e-12
3.75866e-12
4.08676e-12
4.36023e-12
4.56634e-12
4.69521e-12
4.74054e-12
4.70007e-12
4.57579e-12
4.37377e-12
4.10369e-12
3.77812e-12
3.41157e-12
3.01941e-12
2.61677e-12
2.21741e-12
1.83285e-12
1.47158e-12
1.13854e-12
8.34961e-13
5.58384e-13
3.03074e-13
2.14136e-15
8.2444e-18
8.13297e-18
2.1129e-15
2.99199e-13
5.51447e-13
8.24962e-13
1.12555e-12
1.45579e-12
1.81463e-12
2.1973e-12
2.59547e-12
2.99778e-12
3.39054e-12
3.75866e-12
4.08676e-12
4.36023e-12
4.56634e-12
4.69521e-12
4.74054e-12
4.70007e-12
4.57579e-12
4.37377e-12
4.10369e-12
3.77812e-12
3.41157e-12
3.01941e-12
2.61677e-12
2.21741e-12
1.83285e-12
1.47158e-12
1.13854e-12
8.34961e-13
5.58384e-13
3.03074e-13
2.14136e-15
8.2444e-18
8.13297e-18
2.1129e-15
2.99199e-13
5.51447e-13
8.24962e-13
1.12555e-12
1.45579e-12
1.81463e-12
2.1973e-12
2.59547e-12
2.99778e-12
3.39054e-12
3.75866e-12
4.08676e-12
4.36023e-12
4.56634e-12
4.69521e-12
4.74054e-12
4.70007e-12
4.57579e-12
4.37377e-12
4.10369e-12
3.77812e-12
3.41157e-12
3.01941e-12
2.61677e-12
2.21741e-12
1.83285e-12
1.47158e-12
1.13854e-12
8.34961e-13
5.58384e-13
3.03074e-13
2.14136e-15
8.2444e-18
8.13297e-18
2.1129e-15
2.99199e-13
5.51447e-13
8.24962e-13
1.12555e-12
1.45579e-12
1.81463e-12
2.1973e-12
2.59547e-12
2.99778e-12
3.39054e-12
3.75866e-12
4.08676e-12
4.36023e-12
4.56634e-12
4.69521e-12
4.74054e-12
4.70007e-12
4.57579e-12
4.37377e-12
4.10369e-12
3.77812e-12
3.41157e-12
3.01941e-12
2.61677e-12
2.21741e-12
1.83285e-12
1.47158e-12
1.13854e-12
8.34961e-13
5.58384e-13
3.03074e-13
2.14136e-15
8.2444e-18
8.13297e-18
2.1129e-15
2.99199e-13
5.51447e-13
8.24962e-13
1.12555e-12
1.45579e-12
1.81463e-12
2.1973e-12
2.59547e-12
2.99778e-12
3.39054e-12
3.75866e-12
4.08676e-12
4.36023e-12
4.56634e-12
4.69521e-12
4.74054e-12
4.70007e-12
4.57579e-12
4.37377e-12
4.10369e-12
3.77812e-12
3.41157e-12
3.01941e-12
2.61677e-12
2.21741e-12
1.83285e-12
1.47158e-12
1.13854e-12
8.34961e-13
5.58384e-13
3.03074e-13
2.14136e-15
8.2444e-18
8.13297e-18
2.1129e-15
2.99199e-13
5.51447e-13
8.24962e-13
1.12555e-12
1.45579e-12
1.81463e-12
2.1973e-12
2.59547e-12
2.99778e-12
3.39054e-12
3.75866e-12
4.08676e-12
4.36023e-12
4.56634e-12
4.69521e-12
4.74054e-12
4.70007e-12
4.57579e-12
4.37377e-12
4.10369e-12
3.77812e-12
3.41157e-12
3.01941e-12
2.61677e-12
2.21741e-12
1.83285e-12
1.47158e-12
1.13854e-12
8.34961e-13
5.58384e-13
3.03074e-13
2.14136e-15
8.2444e-18
8.13297e-18
2.1129e-15
2.99199e-13
5.51447e-13
8.24962e-13
1.12555e-12
1.45579e-12
1.81463e-12
2.1973e-12
2.59547e-12
2.99778e-12
3.39054e-12
3.75866e-12
4.08676e-12
4.36023e-12
4.56634e-12
4.69521e-12
4.74054e-12
4.70007e-12
4.57579e-12
4.37377e-12
4.10369e-12
3.77812e-12
3.41157e-12
3.01941e-12
2.61677e-12
2.21741e-12
1.83285e-12
1.47158e-12
1.13854e-12
8.34961e-13
5.58384e-13
3.03074e-13
2.14136e-15
8.2444e-18
8.13297e-18
2.1129e-15
2.99199e-13
5.51447e-13
8.24962e-13
1.12555e-12
1.45579e-12
1.81463e-12
2.1973e-12
2.59547e-12
2.99778e-12
3.39054e-12
3.75866e-12
4.08676e-12
4.36023e-12
4.56634e-12
4.69521e-12
4.74054e-12
4.70007e-12
4.57579e-12
4.37377e-12
4.10369e-12
3.77812e-12
3.41157e-12
3.01941e-12
2.61677e-12
2.21741e-12
1.83285e-12
1.47158e-12
1.13854e-12
8.34961e-13
5.58384e-13
3.03074e-13
2.14136e-15
8.2444e-18
8.13297e-18
2.1129e-15
2.99199e-13
5.51447e-13
8.24962e-13
1.12555e-12
1.45579e-12
1.81463e-12
2.1973e-12
2.59547e-12
2.99778e-12
3.39054e-12
3.75866e-12
4.08676e-12
4.36023e-12
4.56634e-12
4.69521e-12
4.74054e-12
4.70007e-12
4.57579e-12
4.37377e-12
4.10369e-12
3.77812e-12
3.41157e-12
3.01941e-12
2.61677e-12
2.21741e-12
1.83285e-12
1.47158e-12
1.13854e-12
8.34961e-13
5.58384e-13
3.03074e-13
2.14136e-15
8.2444e-18
8.13297e-18
2.1129e-15
2.99199e-13
5.51447e-13
8.24962e-13
1.12555e-12
1.45579e-12
1.81463e-12
2.1973e-12
2.59547e-12
2.99778e-12
3.39054e-12
3.75866e-12
4.08676e-12
4.36023e-12
4.56634e-12
4.69521e-12
4.74054e-12
4.70007e-12
4.57579e-12
4.37377e-12
4.10369e-12
3.77812e-12
3.41157e-12
3.01941e-12
2.61677e-12
2.21741e-12
1.83285e-12
1.47158e-12
1.13854e-12
8.34961e-13
5.58384e-13
3.03074e-13
2.14136e-15
8.2444e-18
8.13297e-18
2.1129e-15
2.99199e-13
5.51447e-13
8.24962e-13
1.12555e-12
1.45579e-12
1.81463e-12
2.1973e-12
2.59547e-12
2.99778e-12
3.39054e-12
3.75866e-12
4.08676e-12
4.36023e-12
4.56634e-12
4.69521e-12
4.74054e-12
4.70007e-12
4.57579e-12
4.37377e-12
4.10369e-12
3.77812e-12
3.41157e-12
3.01941e-12
2.61677e-12
2.21741e-12
1.83285e-12
1.47158e-12
1.13854e-12
8.34961e-13
5.58384e-13
3.03074e-13
2.14136e-15
8.2444e-18
8.13297e-18
2.1129e-15
2.99199e-13
5.51447e-13
8.24962e-13
1.12555e-12
1.45579e-12
1.81463e-12
2.1973e-12
2.59547e-12
2.99778e-12
3.39054e-12
3.75866e-12
4.08676e-12
4.36023e-12
4.56634e-12
4.69521e-12
4.74054e-12
4.70007e-12
4.57579e-12
4.37377e-12
4.10369e-12
3.77812e-12
3.41157e-12
3.01941e-12
2.61677e-12
2.21741e-12
1.83285e-12
1.47158e-12
1.13854e-12
8.34961e-13
5.58384e-13
3.03074e-13
2.14136e-15
8.2444e-18
8.13297e-18
2.1129e-15
2.99199e-13
5.51447e-13
8.24962e-13
1.12555e-12
1.45579e-12
1.81463e-12
2.1973e-12
2.59547e-12
2.99778e-12
3.39054e-12
3.75866e-12
4.08676e-12
4.36023e-12
4.56634e-12
4.69521e-12
4.74054e-12
4.70007e-12
4.57579e-12
4.37377e-12
4.10369e-12
3.77812e-12
3.41157e-12
3.01941e-12
2.61677e-12
2.21741e-12
1.83285e-12
1.47158e-12
1.13854e-12
8.34961e-13
5.58384e-13
3.03074e-13
2.14136e-15
8.2444e-18
8.13297e-18
2.1129e-15
2.99199e-13
5.51447e-13
8.24962e-13
1.12555e-12
1.45579e-12
1.81463e-12
2.1973e-12
2.59547e-12
2.99778e-12
3.39054e-12
3.75866e-12
4.08676e-12
4.36023e-12
4.56634e-12
4.69521e-12
4.74054e-12
4.70007e-12
4.57579e-12
4.37377e-12
4.10369e-12
3.77812e-12
3.41157e-12
3.01941e-12
2.61677e-12
2.21741e-12
1.83285e-12
1.47158e-12
1.13854e-12
8.34961e-13
5.58384e-13
3.03074e-13
2.14136e-15
8.2444e-18
8.13297e-18
2.1129e-15
2.99199e-13
5.51447e-13
8.24962e-13
1.12555e-12
1.45579e-12
1.81463e-12
2.1973e-12
2.59547e-12
2.99778e-12
3.39054e-12
3.75866e-12
4.08676e-12
4.36023e-12
4.56634e-12
4.69521e-12
4.74054e-12
4.70007e-12
4.57579e-12
4.37377e-12
4.10369e-12
3.77812e-12
3.41157e-12
3.01941e-12
2.61677e-12
2.21741e-12
1.83285e-12
1.47158e-12
1.13854e-12
8.34961e-13
5.58384e-13
3.03074e-13
2.14136e-15
8.2444e-18
8.13297e-18
2.1129e-15
2.99199e-13
5.51447e-13
8.24962e-13
1.12555e-12
1.45579e-12
1.81463e-12
2.1973e-12
2.59547e-12
2.99778e-12
3.39054e-12
3.75866e-12
4.08676e-12
4.36023e-12
4.56634e-12
4.69521e-12
4.74054e-12
4.70007e-12
4.57579e-12
4.37377e-12
4.10369e-12
3.77812e-12
3.41157e-12
3.01941e-12
2.61677e-12
2.21741e-12
1.83285e-12
1.47158e-12
1.13854e-12
8.34961e-13
5.58384e-13
3.03074e-13
2.14136e-15
8.2444e-18
8.13297e-18
2.1129e-15
2.99199e-13
5.51447e-13
8.24962e-13
1.12555e-12
1.45579e-12
1.81463e-12
2.1973e-12
2.59547e-12
2.99778e-12
3.39054e-12
3.75866e-12
4.08676e-12
4.36023e-12
4.56634e-12
4.69521e-12
4.74054e-12
4.70007e-12
4.57579e-12
4.37377e-12
4.10369e-12
3.77812e-12
3.41157e-12
3.01941e-12
2.61677e-12
2.21741e-12
1.83285e-12
1.47158e-12
1.13854e-12
8.34961e-13
5.58384e-13
3.03074e-13
2.14136e-15
8.2444e-18
8.13297e-18
2.1129e-15
2.99199e-13
5.51447e-13
8.24962e-13
1.12555e-12
1.45579e-12
1.81463e-12
2.1973e-12
2.59547e-12
2.99778e-12
3.39054e-12
3.75866e-12
4.08676e-12
4.36023e-12
4.56634e-12
4.69521e-12
4.74054e-12
4.70007e-12
4.57579e-12
4.37377e-12
4.10369e-12
3.77812e-12
3.41157e-12
3.01941e-12
2.61677e-12
2.21741e-12
1.83285e-12
1.47158e-12
1.13854e-12
8.34961e-13
5.58384e-13
3.03074e-13
2.14136e-15
8.2444e-18
8.13297e-18
2.1129e-15
2.99199e-13
5.51447e-13
8.24962e-13
1.12555e-12
1.45579e-12
1.81463e-12
2.1973e-12
2.59547e-12
2.99778e-12
3.39054e-12
3.75866e-12
4.08676e-12
4.36023e-12
4.56634e-12
4.69521e-12
4.74054e-12
4.70007e-12
4.57579e-12
4.37377e-12
4.10369e-12
3.77812e-12
3.41157e-12
3.01941e-12
2.61677e-12
2.21741e-12
1.83285e-12
1.47158e-12
1.13854e-12
8.34961e-13
5.58384e-13
3.03074e-13
2.14136e-15
8.2444e-18
8.13297e-18
2.1129e-15
2.99199e-13
5.51447e-13
8.24962e-13
1.12555e-12
1.45579e-12
1.81463e-12
2.1973e-12
2.59547e-12
2.99778e-12
3.39054e-12
3.75866e-12
4.08676e-12
4.36023e-12
4.56634e-12
4.69521e-12
4.74054e-12
4.70007e-12
4.57579e-12
4.37377e-12
4.10369e-12
3.77812e-12
3.41157e-12
3.01941e-12
2.61677e-12
2.21741e-12
1.83285e-12
1.47158e-12
1.13854e-12
8.34961e-13
5.58384e-13
3.03074e-13
2.14136e-15
8.2444e-18
8.13297e-18
2.1129e-15
2.99199e-13
5.51447e-13
8.24962e-13
1.12555e-12
1.45579e-12
1.81463e-12
2.1973e-12
2.59547e-12
2.99778e-12
3.39054e-12
3.75866e-12
4.08676e-12
4.36023e-12
4.56634e-12
4.69521e-12
4.74054e-12
4.70007e-12
4.57579e-12
4.37377e-12
4.10369e-12
3.77812e-12
3.41157e-12
3.01941e-12
2.61677e-12
2.21741e-12
1.83285e-12
1.47158e-12
1.13854e-12
8.34961e-13
5.58384e-13
3.03074e-13
2.14136e-15
8.2444e-18
8.13297e-18
2.1129e-15
2.99199e-13
5.51447e-13
8.24962e-13
1.12555e-12
1.45579e-12
1.81463e-12
2.1973e-12
2.59547e-12
2.99778e-12
3.39054e-12
3.75866e-12
4.08676e-12
4.36023e-12
4.56634e-12
4.69521e-12
4.74054e-12
4.70007e-12
4.57579e-12
4.37377e-12
4.10369e-12
3.77812e-12
3.41157e-12
3.01941e-12
2.61677e-12
2.21741e-12
1.83285e-12
1.47158e-12
1.13854e-12
8.34961e-13
5.58384e-13
3.03074e-13
2.14136e-15
8.2444e-18
8.13297e-18
2.1129e-15
2.99199e-13
5.51447e-13
8.24962e-13
1.12555e-12
1.45579e-12
1.81463e-12
2.1973e-12
2.59547e-12
2.99778e-12
3.39054e-12
3.75866e-12
4.08676e-12
4.36023e-12
4.56634e-12
4.69521e-12
4.74054e-12
4.70007e-12
4.57579e-12
4.37377e-12
4.10369e-12
3.77812e-12
3.41157e-12
3.01941e-12
2.61677e-12
2.21741e-12
1.83285e-12
1.47158e-12
1.13854e-12
8.34961e-13
5.58384e-13
3.03074e-13
2.14136e-15
8.2444e-18
8.13297e-18
2.1129e-15
2.99199e-13
5.51447e-13
8.24962e-13
1.12555e-12
1.45579e-12
1.81463e-12
2.1973e-12
2.59547e-12
2.99778e-12
3.39054e-12
3.75866e-12
4.08676e-12
4.36023e-12
4.56634e-12
4.69521e-12
4.74054e-12
4.70007e-12
4.57579e-12
4.37377e-12
4.10369e-12
3.77812e-12
3.41157e-12
3.01941e-12
2.61677e-12
2.21741e-12
1.83285e-12
1.47158e-12
1.13854e-12
8.34961e-13
5.58384e-13
3.03074e-13
2.14136e-15
8.2444e-18
8.13297e-18
2.1129e-15
2.99199e-13
5.51447e-13
8.24962e-13
1.12555e-12
1.45579e-12
1.81463e-12
2.1973e-12
2.59547e-12
2.99778e-12
3.39054e-12
3.75866e-12
4.08676e-12
4.36023e-12
4.56634e-12
4.69521e-12
4.74054e-12
4.70007e-12
4.57579e-12
4.37377e-12
4.10369e-12
3.77812e-12
3.41157e-12
3.01941e-12
2.61677e-12
2.21741e-12
1.83285e-12
1.47158e-12
1.13854e-12
8.34961e-13
5.58384e-13
3.03074e-13
2.14136e-15
8.2444e-18
8.13297e-18
2.1129e-15
2.99199e-13
5.51447e-13
8.24962e-13
1.12555e-12
1.45579e-12
1.81463e-12
2.1973e-12
2.59547e-12
2.99778e-12
3.39054e-12
3.75866e-12
4.08676e-12
4.36023e-12
4.56634e-12
4.69521e-12
4.74054e-12
4.70007e-12
4.57579e-12
4.37377e-12
4.10369e-12
3.77812e-12
3.41157e-12
3.01941e-12
2.61677e-12
2.21741e-12
1.83285e-12
1.47158e-12
1.13854e-12
8.34961e-13
5.58384e-13
3.03074e-13
2.14136e-15
8.2444e-18
8.13297e-18
2.1129e-15
2.99199e-13
5.51447e-13
8.24962e-13
1.12555e-12
1.45579e-12
1.81463e-12
2.1973e-12
2.59547e-12
2.99778e-12
3.39054e-12
3.75866e-12
4.08676e-12
4.36023e-12
4.56634e-12
4.69521e-12
4.74054e-12
4.70007e-12
4.57579e-12
4.37377e-12
4.10369e-12
3.77812e-12
3.41157e-12
3.01941e-12
2.61677e-12
2.21741e-12
1.83285e-12
1.47158e-12
1.13854e-12
8.34961e-13
5.58384e-13
3.03074e-13
2.14136e-15
8.2444e-18
8.13297e-18
2.1129e-15
2.99199e-13
5.51447e-13
8.24962e-13
1.12555e-12
1.45579e-12
1.81463e-12
2.1973e-12
2.59547e-12
2.99778e-12
3.39054e-12
3.75866e-12
4.08676e-12
4.36023e-12
4.56634e-12
4.69521e-12
4.74054e-12
4.70007e-12
4.57579e-12
4.37377e-12
4.10369e-12
3.77812e-12
3.41157e-12
3.01941e-12
2.61677e-12
2.21741e-12
1.83285e-12
1.47158e-12
1.13854e-12
8.34961e-13
5.58384e-13
3.03074e-13
2.14136e-15
8.2444e-18
8.13297e-18
2.1129e-15
2.99199e-13
5.51447e-13
8.24962e-13
1.12555e-12
1.45579e-12
1.81463e-12
2.1973e-12
2.59547e-12
2.99778e-12
3.39054e-12
3.75866e-12
4.08676e-12
4.36023e-12
4.56634e-12
4.69521e-12
4.74054e-12
4.70007e-12
4.57579e-12
4.37377e-12
4.10369e-12
3.77812e-12
3.41157e-12
3.01941e-12
2.61677e-12
2.21741e-12
1.83285e-12
1.47158e-12
1.13854e-12
8.34961e-13
5.58384e-13
3.03074e-13
2.14136e-15
8.2444e-18
8.13297e-18
2.1129e-15
2.99199e-13
5.51447e-13
8.24962e-13
1.12555e-12
1.45579e-12
1.81463e-12
2.1973e-12
2.59547e-12
2.99778e-12
3.39054e-12
3.75866e-12
4.08676e-12
4.36023e-12
4.56634e-12
4.69521e-12
4.74054e-12
4.70007e-12
4.57579e-12
4.37377e-12
4.10369e-12
3.77812e-12
3.41157e-12
3.01941e-12
2.61677e-12
2.21741e-12
1.83285e-12
1.47158e-12
1.13854e-12
8.34961e-13
5.58384e-13
3.03074e-13
2.14136e-15
8.2444e-18
8.13297e-18
2.1129e-15
2.99199e-13
5.51447e-13
8.24962e-13
1.12555e-12
1.45579e-12
1.81463e-12
2.1973e-12
2.59547e-12
2.99778e-12
3.39054e-12
3.75866e-12
4.08676e-12
4.36023e-12
4.56634e-12
4.69521e-12
4.74054e-12
4.70007e-12
4.57579e-12
4.37377e-12
4.10369e-12
3.77812e-12
3.41157e-12
3.01941e-12
2.61677e-12
2.21741e-12
1.83285e-12
1.47158e-12
1.13854e-12
8.34961e-13
5.58384e-13
3.03074e-13
2.14136e-15
8.2444e-18
8.13297e-18
2.1129e-15
2.99199e-13
5.51447e-13
8.24962e-13
1.12555e-12
1.45579e-12
1.81463e-12
2.1973e-12
2.59547e-12
2.99778e-12
3.39054e-12
3.75866e-12