/*--------------------------------*- C++ -*----------------------------------*\
  =========                 |
  \\      /  F ield         | OpenFOAM: The Open Source CFD Toolbox
   \\    /   O peration     | Website:  https://openfoam.org
    \\  /    A nd           | Version:  13
     \\/     M anipulation  |
\*---------------------------------------------------------------------------*/
FoamFile
{
    format      ascii;
    class       volScalarField;
    location    "400";
    object      nut;
}
// * * * * * * * * * * * * * * * * * * * * * * * * * * * * * * * * * * * * * //

dimensions      [0 2 -1 0 0 0 0];

internalField   nonuniform List<scalar> 
78750
(
3.27176e-19
2.94458e-18
1.46562e-17
1.46562e-17
1.46562e-17
1.46562e-17
1.46562e-17
1.46562e-17
1.46562e-17
1.46562e-17
1.46562e-17
1.46562e-17
1.51103e-17
1.61493e-17
1.70469e-17
1.77336e-17
1.81701e-17
1.83349e-17
1.82202e-17
1.78312e-17
1.71866e-17
1.63222e-17
1.53015e-17
1.46562e-17
1.46562e-17
1.46562e-17
1.46562e-17
1.46562e-17
1.46562e-17
1.46562e-17
1.46562e-17
1.46562e-17
1.46562e-17
2.94458e-18
3.27176e-19
3.27176e-19
2.94458e-18
2.09275e-16
3.68595e-16
5.37455e-16
7.17349e-16
9.08389e-16
1.10915e-15
1.31668e-15
1.52668e-15
1.73376e-15
1.93179e-15
2.11426e-15
2.27473e-15
2.40726e-15
2.50675e-15
2.56929e-15
2.59236e-15
2.57503e-15
2.51796e-15
2.42341e-15
2.29507e-15
2.13787e-15
1.95764e-15
1.76078e-15
1.55377e-15
1.34281e-15
1.13341e-15
9.30021e-16
7.35728e-16
5.52094e-16
3.79094e-16
2.15223e-16
2.94458e-18
3.27176e-19
3.27176e-19
4.02621e-18
5.46405e-16
9.99742e-16
1.48691e-15
2.01648e-15
2.59164e-15
3.2097e-15
3.86196e-15
4.53423e-15
5.20776e-15
5.86047e-15
6.46854e-15
7.00795e-15
7.45623e-15
7.79397e-15
8.00612e-15
8.08308e-15
8.02128e-15
7.8235e-15
7.49863e-15
7.06107e-15
6.52979e-15
5.92697e-15
5.27651e-15
4.60236e-15
3.92683e-15
3.26909e-15
2.64379e-15
2.06009e-15
1.52115e-15
1.02407e-15
5.60395e-16
4.13027e-18
3.27176e-19
3.27176e-19
7.43859e-18
1.03116e-15
1.89519e-15
2.83025e-15
3.85522e-15
4.97822e-15
6.19523e-15
7.48983e-15
8.83389e-15
1.01893e-14
1.15104e-14
1.27473e-14
1.38488e-14
1.4767e-14
1.54598e-14
1.58947e-14
1.60509e-14
1.59208e-14
1.55105e-14
1.48397e-14
1.39397e-14
1.28518e-14
1.16236e-14
1.03059e-14
8.94893e-15
7.59886e-15
6.29453e-15
5.06489e-15
3.92725e-15
2.88637e-15
1.93471e-15
1.05359e-15
7.6045e-18
3.27176e-19
3.27176e-19
1.12412e-17
1.57098e-15
2.89151e-15
4.32338e-15
5.89664e-15
7.62458e-15
9.50161e-15
1.15027e-14
1.35844e-14
1.56874e-14
1.77405e-14
1.9665e-14
2.13808e-14
2.28119e-14
2.38919e-14
2.45693e-14
2.4811e-14
2.46052e-14
2.39618e-14
2.2912e-14
2.15059e-14
1.98088e-14
1.7896e-14
1.58475e-14
1.37421e-14
1.1652e-14
9.63732e-15
7.74277e-15
5.99458e-15
4.39944e-15
2.94486e-15
1.60113e-15
1.14635e-17
3.27176e-19
3.27176e-19
1.49537e-17
2.09789e-15
3.8634e-15
5.77862e-15
7.88416e-15
1.01981e-14
1.27131e-14
1.53957e-14
1.81876e-14
2.10092e-14
2.37647e-14
2.63482e-14
2.86519e-14
3.05732e-14
3.20229e-14
3.29314e-14
3.32543e-14
3.29755e-14
3.21088e-14
3.06962e-14
2.88056e-14
2.65249e-14
2.39557e-14
2.12058e-14
1.83812e-14
1.55788e-14
1.28794e-14
1.03428e-14
8.00385e-15
5.87137e-15
3.92828e-15
2.13445e-15
1.52228e-17
3.27176e-19
3.27176e-19
1.82983e-17
2.57255e-15
4.73863e-15
7.08852e-15
9.67215e-15
1.25118e-14
1.55985e-14
1.88912e-14
2.23183e-14
2.5782e-14
2.91645e-14
3.2336e-14
3.51637e-14
3.75219e-14
3.93006e-14
4.04147e-14
4.08095e-14
4.04654e-14
3.93993e-14
3.76633e-14
3.53405e-14
3.25391e-14
2.93841e-14
2.60079e-14
2.25408e-14
1.91016e-14
1.57895e-14
1.26778e-14
9.80928e-15
7.1946e-15
4.81269e-15
2.6142e-15
1.86046e-17
3.27176e-19
3.27176e-19
2.11343e-17
2.97505e-15
5.48069e-15
8.19887e-15
1.11874e-14
1.4472e-14
1.80424e-14
2.1851e-14
2.5815e-14
2.98213e-14
3.37334e-14
3.74013e-14
4.06714e-14
4.33981e-14
4.54545e-14
4.67418e-14
4.71971e-14
4.67976e-14
4.55631e-14
4.35537e-14
4.08659e-14
3.76248e-14
3.3975e-14
3.00698e-14
2.60598e-14
2.20823e-14
1.82523e-14
1.46543e-14
1.13378e-14
8.31509e-15
5.5617e-15
3.02052e-15
2.14685e-17
3.27176e-19
3.27176e-19
2.34109e-17
3.29818e-15
6.07639e-15
9.09014e-15
1.24035e-14
1.60451e-14
2.00035e-14
2.42258e-14
2.86203e-14
3.30615e-14
3.73982e-14
4.14639e-14
4.50884e-14
4.81104e-14
5.0389e-14
5.1815e-14
5.23185e-14
5.18745e-14
5.05048e-14
4.82763e-14
4.52958e-14
4.17022e-14
3.76558e-14
3.33264e-14
2.88812e-14
2.44723e-14
2.0227e-14
1.62392e-14
1.25636e-14
9.21363e-15
6.16235e-15
3.34637e-15
2.37649e-17
3.27176e-19
3.27176e-19
2.51428e-17
3.54403e-15
6.52962e-15
9.76822e-15
1.33287e-14
1.72419e-14
2.14952e-14
2.60322e-14
3.07541e-14
3.5526e-14
4.01855e-14
4.45536e-14
4.84476e-14
5.16939e-14
5.41415e-14
5.56728e-14
5.62128e-14
5.57348e-14
5.42621e-14
5.18668e-14
4.86637e-14
4.4802e-14
4.0454e-14
3.58022e-14
3.1026e-14
2.62891e-14
2.17281e-14
1.74439e-14
1.34952e-14
9.89658e-15
6.61887e-15
3.59401e-15
2.55098e-17
3.27176e-19
3.27176e-19
2.63912e-17
3.7213e-15
6.85641e-15
1.02571e-14
1.39958e-14
1.81047e-14
2.25708e-14
2.73346e-14
3.22925e-14
3.73028e-14
4.21949e-14
4.67811e-14
5.08692e-14
5.42772e-14
5.68464e-14
5.84535e-14
5.90198e-14
5.85171e-14
5.69702e-14
5.44546e-14
5.10909e-14
4.70359e-14
4.24704e-14
3.75861e-14
3.25713e-14
2.7598e-14
2.28096e-14
1.83117e-14
1.41664e-14
1.03885e-14
6.9477e-15
3.77238e-15
2.67662e-17
3.27176e-19
3.27176e-19
2.72442e-17
3.84245e-15
7.07975e-15
1.05913e-14
1.44517e-14
1.86944e-14
2.33059e-14
2.82247e-14
3.33438e-14
3.8517e-14
4.35682e-14
4.83033e-14
5.2524e-14
5.60425e-14
5.86948e-14
6.03537e-14
6.09378e-14
6.04183e-14
5.88205e-14
5.62226e-14
5.27491e-14
4.85619e-14
4.38478e-14
3.88046e-14
3.36269e-14
2.8492e-14
2.35481e-14
1.89044e-14
1.46246e-14
1.07244e-14
7.17221e-15
3.89414e-15
2.76237e-17
3.27176e-19
3.27176e-19
2.77969e-17
3.92097e-15
7.22451e-15
1.08078e-14
1.47472e-14
1.90766e-14
2.37823e-14
2.88016e-14
3.40253e-14
3.93041e-14
4.44583e-14
4.92899e-14
5.35967e-14
5.71867e-14
5.98929e-14
6.15852e-14
6.21809e-14
6.16503e-14
6.00195e-14
5.73682e-14
5.38236e-14
4.95507e-14
4.47402e-14
3.9594e-14
3.43106e-14
2.90711e-14
2.40265e-14
1.92882e-14
1.49214e-14
1.09419e-14
7.31757e-15
3.97298e-15
2.81786e-17
3.27176e-19
3.27176e-19
2.81368e-17
3.96928e-15
7.31358e-15
1.09411e-14
1.49291e-14
1.93118e-14
2.40755e-14
2.91567e-14
3.44447e-14
3.97885e-14
4.50061e-14
4.98971e-14
5.42567e-14
5.78908e-14
6.063e-14
6.2343e-14
6.29457e-14
6.24084e-14
6.07573e-14
5.80731e-14
5.44846e-14
5.01589e-14
4.52891e-14
4.00795e-14
3.47311e-14
2.94272e-14
2.43206e-14
1.95242e-14
1.51039e-14
1.10757e-14
7.40693e-15
4.02144e-15
2.85196e-17
3.27176e-19
3.27176e-19
2.83356e-17
3.99754e-15
7.36568e-15
1.10191e-14
1.50354e-14
1.94494e-14
2.4247e-14
2.93643e-14
3.469e-14
4.00718e-14
4.53265e-14
5.02523e-14
5.46429e-14
5.83027e-14
6.10613e-14
6.27863e-14
6.33931e-14
6.28518e-14
6.11887e-14
5.84853e-14
5.48711e-14
5.05146e-14
4.56101e-14
4.03634e-14
3.4977e-14
2.96354e-14
2.44926e-14
1.96622e-14
1.52105e-14
1.11538e-14
7.45915e-15
4.04975e-15
2.87188e-17
3.27176e-19
3.27176e-19
2.84462e-17
4.01328e-15
7.3947e-15
1.10625e-14
1.50947e-14
1.9526e-14
2.43425e-14
2.948e-14
3.48266e-14
4.02296e-14
4.5505e-14
5.04501e-14
5.48579e-14
5.8532e-14
6.13014e-14
6.30331e-14
6.36423e-14
6.30987e-14
6.1429e-14
5.87148e-14
5.50864e-14
5.07126e-14
4.57888e-14
4.05214e-14
3.51138e-14
2.97512e-14
2.45882e-14
1.97389e-14
1.52699e-14
1.11973e-14
7.4882e-15
4.06551e-15
2.88295e-17
3.27176e-19
3.27176e-19
2.85049e-17
4.02163e-15
7.4101e-15
1.10855e-14
1.51261e-14
1.95667e-14
2.43933e-14
2.95414e-14
3.48992e-14
4.03134e-14
4.55998e-14
5.05551e-14
5.49721e-14
5.86538e-14
6.1429e-14
6.31642e-14
6.37745e-14
6.32297e-14
6.15565e-14
5.88367e-14
5.52006e-14
5.08177e-14
4.58836e-14
4.06053e-14
3.51865e-14
2.98127e-14
2.4639e-14
1.97797e-14
1.53013e-14
1.12203e-14
7.50361e-15
4.07386e-15
2.88883e-17
3.27176e-19
3.27176e-19
2.85347e-17
4.02587e-15
7.41791e-15
1.10972e-14
1.51421e-14
1.95873e-14
2.4419e-14
2.95726e-14
3.49359e-14
4.03559e-14
4.56478e-14
5.06084e-14
5.503e-14
5.87156e-14
6.14936e-14
6.32307e-14
6.38416e-14
6.32962e-14
6.16212e-14
5.88984e-14
5.52585e-14
5.0871e-14
4.59317e-14
4.06478e-14
3.52233e-14
2.98439e-14
2.46648e-14
1.98003e-14
1.53173e-14
1.1232e-14
7.51142e-15
4.07809e-15
2.8918e-17
3.27176e-19
3.27176e-19
2.85491e-17
4.02792e-15
7.4217e-15
1.11029e-14
1.51498e-14
1.95973e-14
2.44315e-14
2.95877e-14
3.49538e-14
4.03765e-14
4.56711e-14
5.06342e-14
5.50581e-14
5.87456e-14
6.1525e-14
6.32629e-14
6.38742e-14
6.33285e-14
6.16526e-14
5.89284e-14
5.52866e-14
5.08969e-14
4.5955e-14
4.06684e-14
3.52411e-14
2.9859e-14
2.46772e-14
1.98103e-14
1.5325e-14
1.12377e-14
7.5152e-15
4.08014e-15
2.89324e-17
3.27176e-19
3.27176e-19
2.85558e-17
4.02888e-15
7.42345e-15
1.11055e-14
1.51534e-14
1.9602e-14
2.44372e-14
2.95947e-14
3.49621e-14
4.03861e-14
4.5682e-14
5.06463e-14
5.50711e-14
5.87595e-14
6.15396e-14
6.32779e-14
6.38893e-14
6.33434e-14
6.16672e-14
5.89423e-14
5.52997e-14
5.09089e-14
4.59658e-14
4.0678e-14
3.52494e-14
2.9866e-14
2.4683e-14
1.98149e-14
1.53286e-14
1.12403e-14
7.51696e-15
4.08109e-15
2.89391e-17
3.27176e-19
3.27176e-19
2.85588e-17
4.0293e-15
7.42424e-15
1.11067e-14
1.5155e-14
1.96041e-14
2.44398e-14
2.95978e-14
3.49658e-14
4.03903e-14
4.56868e-14
5.06516e-14
5.5077e-14
5.87657e-14
6.15461e-14
6.32846e-14
6.3896e-14
6.33501e-14
6.16737e-14
5.89485e-14
5.53055e-14
5.09142e-14
4.59707e-14
4.06823e-14
3.52531e-14
2.98691e-14
2.46856e-14
1.9817e-14
1.53302e-14
1.12415e-14
7.51774e-15
4.08152e-15
2.8942e-17
3.27176e-19
3.27176e-19
2.85601e-17
4.02948e-15
7.42457e-15
1.11072e-14
1.51557e-14
1.96049e-14
2.44409e-14
2.95991e-14
3.49674e-14
4.03922e-14
4.56889e-14
5.06539e-14
5.50794e-14
5.87684e-14
6.15489e-14
6.32874e-14
6.38989e-14
6.3353e-14
6.16765e-14
5.89512e-14
5.5308e-14
5.09165e-14
4.59727e-14
4.06841e-14
3.52547e-14
2.98705e-14
2.46867e-14
1.98179e-14
1.53309e-14
1.1242e-14
7.51808e-15
4.0817e-15
2.89433e-17
3.27176e-19
3.27176e-19
2.85606e-17
4.02956e-15
7.42471e-15
1.11074e-14
1.5156e-14
1.96053e-14
2.44414e-14
2.95997e-14
3.4968e-14
4.03929e-14
4.56897e-14
5.06548e-14
5.50805e-14
5.87695e-14
6.155e-14
6.32886e-14
6.39001e-14
6.33542e-14
6.16776e-14
5.89523e-14
5.5309e-14
5.09175e-14
4.59736e-14
4.06849e-14
3.52553e-14
2.9871e-14
2.46872e-14
1.98183e-14
1.53312e-14
1.12422e-14
7.51822e-15
4.08177e-15
2.89438e-17
3.27176e-19
3.27176e-19
2.85608e-17
4.02959e-15
7.42477e-15
1.11075e-14
1.51561e-14
1.96055e-14
2.44416e-14
2.95999e-14
3.49683e-14
4.03932e-14
4.569e-14
5.06552e-14
5.50809e-14
5.87699e-14
6.15505e-14
6.32891e-14
6.39006e-14
6.33546e-14
6.16781e-14
5.89527e-14
5.53094e-14
5.09179e-14
4.59739e-14
4.06852e-14
3.52556e-14
2.98712e-14
2.46873e-14
1.98184e-14
1.53313e-14
1.12423e-14
7.51827e-15
4.0818e-15
2.8944e-17
3.27176e-19
3.27176e-19
2.85609e-17
4.0296e-15
7.42479e-15
1.11075e-14
1.51561e-14
1.96055e-14
2.44416e-14
2.96e-14
3.49684e-14
4.03933e-14
4.56902e-14
5.06554e-14
5.5081e-14
5.87701e-14
6.15506e-14
6.32893e-14
6.39008e-14
6.33548e-14
6.16782e-14
5.89529e-14
5.53096e-14
5.0918e-14
4.5974e-14
4.06853e-14
3.52557e-14
2.98713e-14
2.46874e-14
1.98185e-14
1.53313e-14
1.12423e-14
7.51829e-15
4.08182e-15
2.89441e-17
3.27176e-19
3.27176e-19
2.85609e-17
4.0296e-15
7.4248e-15
1.11075e-14
1.51561e-14
1.96055e-14
2.44417e-14
2.96e-14
3.49684e-14
4.03934e-14
4.56902e-14
5.06554e-14
5.50811e-14
5.87701e-14
6.15507e-14
6.32893e-14
6.39008e-14
6.33549e-14
6.16783e-14
5.8953e-14
5.53096e-14
5.09181e-14
4.59741e-14
4.06853e-14
3.52557e-14
2.98713e-14
2.46874e-14
1.98185e-14
1.53313e-14
1.12423e-14
7.5183e-15
4.08182e-15
2.89441e-17
3.27176e-19
3.27176e-19
2.85609e-17
4.02961e-15
7.4248e-15
1.11075e-14
1.51561e-14
1.96055e-14
2.44417e-14
2.96e-14
3.49684e-14
4.03934e-14
4.56902e-14
5.06554e-14
5.50811e-14
5.87701e-14
6.15507e-14
6.32893e-14
6.39009e-14
6.33549e-14
6.16783e-14
5.8953e-14
5.53097e-14
5.09181e-14
4.59741e-14
4.06853e-14
3.52557e-14
2.98714e-14
2.46874e-14
1.98185e-14
1.53314e-14
1.12423e-14
7.5183e-15
4.08182e-15
2.89442e-17
3.27176e-19
3.27176e-19
2.85609e-17
4.02961e-15
7.4248e-15
1.11075e-14
1.51561e-14
1.96055e-14
2.44417e-14
2.96e-14
3.49684e-14
4.03934e-14
4.56902e-14
5.06554e-14
5.50811e-14
5.87701e-14
6.15507e-14
6.32894e-14
6.39009e-14
6.33549e-14
6.16783e-14
5.8953e-14
5.53097e-14
5.09181e-14
4.59741e-14
4.06853e-14
3.52557e-14
2.98714e-14
2.46875e-14
1.98185e-14
1.53314e-14
1.12423e-14
7.5183e-15
4.08182e-15
2.89442e-17
3.27176e-19
3.27176e-19
2.85609e-17
4.02961e-15
7.4248e-15
1.11075e-14
1.51561e-14
1.96055e-14
2.44417e-14
2.96e-14
3.49684e-14
4.03934e-14
4.56902e-14
5.06554e-14
5.50811e-14
5.87701e-14
6.15507e-14
6.32894e-14
6.39009e-14
6.33549e-14
6.16783e-14
5.8953e-14
5.53097e-14
5.09181e-14
4.59741e-14
4.06853e-14
3.52557e-14
2.98714e-14
2.46875e-14
1.98185e-14
1.53314e-14
1.12423e-14
7.5183e-15
4.08182e-15
2.89442e-17
3.27176e-19
3.27176e-19
2.85609e-17
4.02961e-15
7.4248e-15
1.11075e-14
1.51561e-14
1.96055e-14
2.44417e-14
2.96001e-14
3.49684e-14
4.03934e-14
4.56902e-14
5.06555e-14
5.50811e-14
5.87701e-14
6.15507e-14
6.32894e-14
6.39009e-14
6.33549e-14
6.16783e-14
5.8953e-14
5.53097e-14
5.09181e-14
4.59741e-14
4.06853e-14
3.52557e-14
2.98714e-14
2.46875e-14
1.98185e-14
1.53314e-14
1.12423e-14
7.5183e-15
4.08182e-15
2.89442e-17
3.27176e-19
3.27176e-19
2.85609e-17
4.02961e-15
7.4248e-15
1.11075e-14
1.51561e-14
1.96055e-14
2.44417e-14
2.96001e-14
3.49684e-14
4.03934e-14
4.56902e-14
5.06555e-14
5.50811e-14
5.87701e-14
6.15507e-14
6.32894e-14
6.39009e-14
6.33549e-14
6.16783e-14
5.8953e-14
5.53097e-14
5.09181e-14
4.59741e-14
4.06853e-14
3.52557e-14
2.98714e-14
2.46875e-14
1.98185e-14
1.53314e-14
1.12423e-14
7.5183e-15
4.08182e-15
2.89442e-17
3.27176e-19
3.27176e-19
2.85609e-17
4.02961e-15
7.4248e-15
1.11075e-14
1.51561e-14
1.96055e-14
2.44417e-14
2.96001e-14
3.49684e-14
4.03934e-14
4.56902e-14
5.06555e-14
5.50811e-14
5.87701e-14
6.15507e-14
6.32894e-14
6.39009e-14
6.33549e-14
6.16783e-14
5.8953e-14
5.53097e-14
5.09181e-14
4.59741e-14
4.06853e-14
3.52557e-14
2.98714e-14
2.46875e-14
1.98185e-14
1.53314e-14
1.12423e-14
7.5183e-15
4.08182e-15
2.89442e-17
3.27176e-19
3.27176e-19
2.85609e-17
4.02961e-15
7.4248e-15
1.11075e-14
1.51561e-14
1.96055e-14
2.44417e-14
2.96001e-14
3.49684e-14
4.03934e-14
4.56902e-14
5.06555e-14
5.50811e-14
5.87701e-14
6.15507e-14
6.32894e-14
6.39009e-14
6.33549e-14
6.16783e-14
5.8953e-14
5.53097e-14
5.09181e-14
4.59741e-14
4.06853e-14
3.52557e-14
2.98714e-14
2.46875e-14
1.98185e-14
1.53314e-14
1.12423e-14
7.5183e-15
4.08182e-15
2.89442e-17
3.27176e-19
3.27176e-19
2.85609e-17
4.02961e-15
7.4248e-15
1.11075e-14
1.51561e-14
1.96055e-14
2.44417e-14
2.96001e-14
3.49684e-14
4.03934e-14
4.56902e-14
5.06555e-14
5.50811e-14
5.87701e-14
6.15507e-14
6.32894e-14
6.39009e-14
6.33549e-14
6.16783e-14
5.8953e-14
5.53097e-14
5.09181e-14
4.59741e-14
4.06853e-14
3.52557e-14
2.98714e-14
2.46875e-14
1.98185e-14
1.53314e-14
1.12423e-14
7.5183e-15
4.08182e-15
2.89442e-17
3.27176e-19
3.27176e-19
2.85609e-17
4.02961e-15
7.4248e-15
1.11075e-14
1.51561e-14
1.96055e-14
2.44417e-14
2.96001e-14
3.49684e-14
4.03934e-14
4.56902e-14
5.06555e-14
5.50811e-14
5.87701e-14
6.15507e-14
6.32894e-14
6.39009e-14
6.33549e-14
6.16783e-14
5.8953e-14
5.53097e-14
5.09181e-14
4.59741e-14
4.06853e-14
3.52557e-14
2.98714e-14
2.46875e-14
1.98185e-14
1.53314e-14
1.12423e-14
7.5183e-15
4.08182e-15
2.89442e-17
3.27176e-19
3.27176e-19
2.85609e-17
4.02961e-15
7.4248e-15
1.11075e-14
1.51561e-14
1.96055e-14
2.44417e-14
2.96001e-14
3.49684e-14
4.03934e-14
4.56902e-14
5.06555e-14
5.50811e-14
5.87701e-14
6.15507e-14
6.32894e-14
6.39009e-14
6.33549e-14
6.16783e-14
5.8953e-14
5.53097e-14
5.09181e-14
4.59741e-14
4.06853e-14
3.52557e-14
2.98714e-14
2.46875e-14
1.98185e-14
1.53314e-14
1.12423e-14
7.5183e-15
4.08182e-15
2.89442e-17
3.27176e-19
3.27176e-19
2.85609e-17
4.02961e-15
7.4248e-15
1.11075e-14
1.51561e-14
1.96055e-14
2.44417e-14
2.96001e-14
3.49684e-14
4.03934e-14
4.56902e-14
5.06555e-14
5.50811e-14
5.87701e-14
6.15507e-14
6.32894e-14
6.39009e-14
6.33549e-14
6.16783e-14
5.8953e-14
5.53097e-14
5.09181e-14
4.59741e-14
4.06853e-14
3.52557e-14
2.98714e-14
2.46875e-14
1.98185e-14
1.53314e-14
1.12423e-14
7.5183e-15
4.08182e-15
2.89442e-17
3.27176e-19
3.27176e-19
2.85609e-17
4.02961e-15
7.4248e-15
1.11075e-14
1.51561e-14
1.96055e-14
2.44417e-14
2.96001e-14
3.49684e-14
4.03934e-14
4.56902e-14
5.06555e-14
5.50811e-14
5.87701e-14
6.15507e-14
6.32894e-14
6.39009e-14
6.33549e-14
6.16783e-14
5.8953e-14
5.53097e-14
5.09181e-14
4.59741e-14
4.06853e-14
3.52557e-14
2.98714e-14
2.46875e-14
1.98185e-14
1.53314e-14
1.12423e-14
7.5183e-15
4.08182e-15
2.89442e-17
3.27176e-19
3.27176e-19
2.85609e-17
4.02961e-15
7.4248e-15
1.11075e-14
1.51561e-14
1.96055e-14
2.44417e-14
2.96001e-14
3.49684e-14
4.03934e-14
4.56902e-14
5.06555e-14
5.50811e-14
5.87701e-14
6.15507e-14
6.32894e-14
6.39009e-14
6.33549e-14
6.16783e-14
5.8953e-14
5.53097e-14
5.09181e-14
4.59741e-14
4.06853e-14
3.52557e-14
2.98714e-14
2.46875e-14
1.98185e-14
1.53314e-14
1.12423e-14
7.5183e-15
4.08182e-15
2.89442e-17
3.27176e-19
3.27176e-19
2.85609e-17
4.02961e-15
7.4248e-15
1.11075e-14
1.51561e-14
1.96055e-14
2.44417e-14
2.96001e-14
3.49684e-14
4.03934e-14
4.56902e-14
5.06555e-14
5.50811e-14
5.87701e-14
6.15507e-14
6.32894e-14
6.39009e-14
6.33549e-14
6.16783e-14
5.8953e-14
5.53097e-14
5.09181e-14
4.59741e-14
4.06853e-14
3.52557e-14
2.98714e-14
2.46875e-14
1.98185e-14
1.53314e-14
1.12423e-14
7.5183e-15
4.08182e-15
2.89442e-17
3.27176e-19
3.27176e-19
2.85609e-17
4.02961e-15
7.4248e-15
1.11075e-14
1.51561e-14
1.96055e-14
2.44417e-14
2.96001e-14
3.49684e-14
4.03934e-14
4.56902e-14
5.06555e-14
5.50811e-14
5.87701e-14
6.15507e-14
6.32894e-14
6.39009e-14
6.33549e-14
6.16783e-14
5.8953e-14
5.53097e-14
5.09181e-14
4.59741e-14
4.06853e-14
3.52557e-14
2.98714e-14
2.46875e-14
1.98185e-14
1.53314e-14
1.12423e-14
7.5183e-15
4.08182e-15
2.89442e-17
3.27176e-19
3.27176e-19
2.85609e-17
4.02961e-15
7.4248e-15
1.11075e-14
1.51561e-14
1.96055e-14
2.44417e-14
2.96001e-14
3.49684e-14
4.03934e-14
4.56902e-14
5.06555e-14
5.50811e-14
5.87701e-14
6.15507e-14
6.32894e-14
6.39009e-14
6.33549e-14
6.16783e-14
5.8953e-14
5.53097e-14
5.09181e-14
4.59741e-14
4.06853e-14
3.52557e-14
2.98714e-14
2.46875e-14
1.98185e-14
1.53314e-14
1.12423e-14
7.5183e-15
4.08182e-15
2.89442e-17
3.27176e-19
3.27176e-19
2.85609e-17
4.02961e-15
7.4248e-15
1.11075e-14
1.51561e-14
1.96055e-14
2.44417e-14
2.96001e-14
3.49684e-14
4.03934e-14
4.56902e-14
5.06555e-14
5.50811e-14
5.87701e-14
6.15507e-14
6.32894e-14
6.39009e-14
6.33549e-14
6.16783e-14
5.8953e-14
5.53097e-14
5.09181e-14
4.59741e-14
4.06853e-14
3.52557e-14
2.98714e-14
2.46875e-14
1.98185e-14
1.53314e-14
1.12423e-14
7.5183e-15
4.08182e-15
2.89442e-17
3.27176e-19
3.27176e-19
2.85609e-17
4.02961e-15
7.4248e-15
1.11075e-14
1.51561e-14
1.96055e-14
2.44417e-14
2.96001e-14
3.49684e-14
4.03934e-14
4.56902e-14
5.06555e-14
5.50811e-14
5.87701e-14
6.15507e-14
6.32894e-14
6.39009e-14
6.33549e-14
6.16783e-14
5.8953e-14
5.53097e-14
5.09181e-14
4.59741e-14
4.06853e-14
3.52557e-14
2.98714e-14
2.46875e-14
1.98185e-14
1.53314e-14
1.12423e-14
7.5183e-15
4.08182e-15
2.89442e-17
3.27176e-19
3.27176e-19
2.85609e-17
4.02961e-15
7.4248e-15
1.11075e-14
1.51561e-14
1.96055e-14
2.44417e-14
2.96001e-14
3.49684e-14
4.03934e-14
4.56902e-14
5.06555e-14
5.50811e-14
5.87701e-14
6.15507e-14
6.32894e-14
6.39009e-14
6.33549e-14
6.16783e-14
5.8953e-14
5.53097e-14
5.09181e-14
4.59741e-14
4.06853e-14
3.52557e-14
2.98714e-14
2.46875e-14
1.98185e-14
1.53314e-14
1.12423e-14
7.5183e-15
4.08182e-15
2.89442e-17
3.27176e-19
3.27176e-19
2.85609e-17
4.02961e-15
7.4248e-15
1.11075e-14
1.51561e-14
1.96055e-14
2.44417e-14
2.96001e-14
3.49684e-14
4.03934e-14
4.56902e-14
5.06555e-14
5.50811e-14
5.87701e-14
6.15507e-14
6.32894e-14
6.39009e-14
6.33549e-14
6.16783e-14
5.8953e-14
5.53097e-14
5.09181e-14
4.59741e-14
4.06853e-14
3.52557e-14
2.98714e-14
2.46875e-14
1.98185e-14
1.53314e-14
1.12423e-14
7.5183e-15
4.08182e-15
2.89442e-17
3.27176e-19
3.27176e-19
2.85609e-17
4.02961e-15
7.4248e-15
1.11075e-14
1.51561e-14
1.96055e-14
2.44417e-14
2.96001e-14
3.49684e-14
4.03934e-14
4.56902e-14
5.06555e-14
5.50811e-14
5.87701e-14
6.15507e-14
6.32894e-14
6.39009e-14
6.33549e-14
6.16783e-14
5.8953e-14
5.53097e-14
5.09181e-14
4.59741e-14
4.06853e-14
3.52557e-14
2.98714e-14
2.46875e-14
1.98185e-14
1.53314e-14
1.12423e-14
7.5183e-15
4.08182e-15
2.89442e-17
3.27176e-19
3.27176e-19
2.85609e-17
4.02961e-15
7.4248e-15
1.11075e-14
1.51561e-14
1.96055e-14
2.44417e-14
2.96001e-14
3.49684e-14
4.03934e-14
4.56902e-14
5.06555e-14
5.50811e-14
5.87701e-14
6.15507e-14
6.32894e-14
6.39009e-14
6.33549e-14
6.16783e-14
5.8953e-14
5.53097e-14
5.09181e-14
4.59741e-14
4.06853e-14
3.52557e-14
2.98714e-14
2.46875e-14
1.98185e-14
1.53314e-14
1.12423e-14
7.5183e-15
4.08182e-15
2.89442e-17
3.27176e-19
3.27176e-19
2.85609e-17
4.02961e-15
7.4248e-15
1.11075e-14
1.51561e-14
1.96055e-14
2.44417e-14
2.96001e-14
3.49684e-14
4.03934e-14
4.56902e-14
5.06555e-14
5.50811e-14
5.87701e-14
6.15507e-14
6.32894e-14
6.39009e-14
6.33549e-14
6.16783e-14
5.8953e-14
5.53097e-14
5.09181e-14
4.59741e-14
4.06853e-14
3.52557e-14
2.98714e-14
2.46875e-14
1.98185e-14
1.53314e-14
1.12423e-14
7.5183e-15
4.08182e-15
2.89442e-17
3.27176e-19
3.27176e-19
2.85609e-17
4.02961e-15
7.4248e-15
1.11075e-14
1.51561e-14
1.96055e-14
2.44417e-14
2.96001e-14
3.49684e-14
4.03934e-14
4.56902e-14
5.06555e-14
5.50811e-14
5.87701e-14
6.15507e-14
6.32894e-14
6.39009e-14
6.33549e-14
6.16783e-14
5.8953e-14
5.53097e-14
5.09181e-14
4.59741e-14
4.06853e-14
3.52557e-14
2.98714e-14
2.46875e-14
1.98185e-14
1.53314e-14
1.12423e-14
7.5183e-15
4.08182e-15
2.89442e-17
3.27176e-19
3.27176e-19
2.85609e-17
4.02961e-15
7.4248e-15
1.11075e-14
1.51561e-14
1.96055e-14
2.44417e-14
2.96001e-14
3.49684e-14
4.03934e-14
4.56902e-14
5.06555e-14
5.50811e-14
5.87701e-14
6.15507e-14
6.32894e-14
6.39009e-14
6.33549e-14
6.16783e-14
5.8953e-14
5.53097e-14
5.09181e-14
4.59741e-14
4.06853e-14
3.52557e-14
2.98714e-14
2.46875e-14
1.98185e-14
1.53314e-14
1.12423e-14
7.5183e-15
4.08182e-15
2.89442e-17
3.27176e-19
3.27176e-19
2.85609e-17
4.02961e-15
7.4248e-15
1.11075e-14
1.51561e-14
1.96055e-14
2.44417e-14
2.96001e-14
3.49684e-14
4.03934e-14
4.56902e-14
5.06555e-14
5.50811e-14
5.87701e-14
6.15507e-14
6.32894e-14
6.39009e-14
6.33549e-14
6.16783e-14
5.8953e-14
5.53097e-14
5.09181e-14
4.59741e-14
4.06853e-14
3.52557e-14
2.98714e-14
2.46875e-14
1.98185e-14
1.53314e-14
1.12423e-14
7.5183e-15
4.08182e-15
2.89442e-17
3.27176e-19
3.27176e-19
2.85609e-17
4.02961e-15
7.4248e-15
1.11075e-14
1.51561e-14
1.96055e-14
2.44417e-14
2.96001e-14
3.49684e-14
4.03934e-14
4.56902e-14
5.06555e-14
5.50811e-14
5.87701e-14
6.15507e-14
6.32894e-14
6.39009e-14
6.33549e-14
6.16783e-14
5.8953e-14
5.53097e-14
5.09181e-14
4.59741e-14
4.06853e-14
3.52557e-14
2.98714e-14
2.46875e-14
1.98185e-14
1.53314e-14
1.12423e-14
7.5183e-15
4.08182e-15
2.89442e-17
3.27176e-19
3.27176e-19
2.85609e-17
4.02961e-15
7.4248e-15
1.11075e-14
1.51561e-14
1.96055e-14
2.44417e-14
2.96001e-14
3.49684e-14
4.03934e-14
4.56902e-14
5.06555e-14
5.50811e-14
5.87701e-14
6.15507e-14
6.32894e-14
6.39009e-14
6.33549e-14
6.16783e-14
5.8953e-14
5.53097e-14
5.09181e-14
4.59741e-14
4.06853e-14
3.52557e-14
2.98714e-14
2.46875e-14
1.98185e-14
1.53314e-14
1.12423e-14
7.5183e-15
4.08182e-15
2.89442e-17
3.27176e-19
3.27176e-19
2.85609e-17
4.02961e-15
7.4248e-15
1.11075e-14
1.51561e-14
1.96055e-14
2.44417e-14
2.96001e-14
3.49684e-14
4.03934e-14
4.56902e-14
5.06555e-14
5.50811e-14
5.87701e-14
6.15507e-14
6.32894e-14
6.39009e-14
6.33549e-14
6.16783e-14
5.8953e-14
5.53097e-14
5.09181e-14
4.59741e-14
4.06853e-14
3.52557e-14
2.98714e-14
2.46875e-14
1.98185e-14
1.53314e-14
1.12423e-14
7.5183e-15
4.08182e-15
2.89442e-17
3.27176e-19
3.27176e-19
2.85609e-17
4.02961e-15
7.4248e-15
1.11075e-14
1.51561e-14
1.96055e-14
2.44417e-14
2.96001e-14
3.49684e-14
4.03934e-14
4.56902e-14
5.06555e-14
5.50811e-14
5.87701e-14
6.15507e-14
6.32894e-14
6.39009e-14
6.33549e-14
6.16783e-14
5.8953e-14
5.53097e-14
5.09181e-14
4.59741e-14
4.06853e-14
3.52557e-14
2.98714e-14
2.46875e-14
1.98185e-14
1.53314e-14
1.12423e-14
7.5183e-15
4.08182e-15
2.89442e-17
3.27176e-19
3.27176e-19
2.85609e-17
4.02961e-15
7.4248e-15
1.11075e-14
1.51561e-14
1.96055e-14
2.44417e-14
2.96001e-14
3.49684e-14
4.03934e-14
4.56902e-14
5.06555e-14
5.50811e-14
5.87701e-14
6.15507e-14
6.32894e-14
6.39009e-14
6.33549e-14
6.16783e-14
5.8953e-14
5.53097e-14
5.09181e-14
4.59741e-14
4.06853e-14
3.52557e-14
2.98714e-14
2.46875e-14
1.98185e-14
1.53314e-14
1.12423e-14
7.5183e-15
4.08182e-15
2.89442e-17
3.27176e-19
3.27176e-19
2.85609e-17
4.02961e-15
7.4248e-15
1.11075e-14
1.51561e-14
1.96055e-14
2.44417e-14
2.96001e-14
3.49684e-14
4.03934e-14
4.56902e-14
5.06555e-14
5.50811e-14
5.87701e-14
6.15507e-14
6.32894e-14
6.39009e-14
6.33549e-14
6.16783e-14
5.8953e-14
5.53097e-14
5.09181e-14
4.59741e-14
4.06853e-14
3.52557e-14
2.98714e-14
2.46875e-14
1.98185e-14
1.53314e-14
1.12423e-14
7.5183e-15
4.08182e-15
2.89442e-17
3.27176e-19
3.27176e-19
2.85609e-17
4.02961e-15
7.4248e-15
1.11075e-14
1.51561e-14
1.96055e-14
2.44417e-14
2.96001e-14
3.49684e-14
4.03934e-14
4.56902e-14
5.06555e-14
5.50811e-14
5.87701e-14
6.15507e-14
6.32894e-14
6.39009e-14
6.33549e-14
6.16783e-14
5.8953e-14
5.53097e-14
5.09181e-14
4.59741e-14
4.06853e-14
3.52557e-14
2.98714e-14
2.46875e-14
1.98185e-14
1.53314e-14
1.12423e-14
7.5183e-15
4.08182e-15
2.89442e-17
3.27176e-19
3.27176e-19
2.85609e-17
4.02961e-15
7.4248e-15
1.11075e-14
1.51561e-14
1.96055e-14
2.44417e-14
2.96001e-14
3.49684e-14
4.03934e-14
4.56902e-14
5.06555e-14
5.50811e-14
5.87701e-14
6.15507e-14
6.32894e-14
6.39009e-14
6.33549e-14
6.16783e-14
5.8953e-14
5.53097e-14
5.09181e-14
4.59741e-14
4.06853e-14
3.52557e-14
2.98714e-14
2.46875e-14
1.98185e-14
1.53314e-14
1.12423e-14
7.5183e-15
4.08182e-15
2.89442e-17
3.27176e-19
3.27176e-19
2.85609e-17
4.02961e-15
7.4248e-15
1.11075e-14
1.51561e-14
1.96055e-14
2.44417e-14
2.96001e-14
3.49684e-14
4.03934e-14
4.56902e-14
5.06555e-14
5.50811e-14
5.87701e-14
6.15507e-14
6.32894e-14
6.39009e-14
6.33549e-14
6.16783e-14
5.8953e-14
5.53097e-14
5.09181e-14
4.59741e-14
4.06853e-14
3.52557e-14
2.98714e-14
2.46875e-14
1.98185e-14
1.53314e-14
1.12423e-14
7.5183e-15
4.08182e-15
2.89442e-17
3.27176e-19
3.27176e-19
2.85609e-17
4.02961e-15
7.4248e-15
1.11075e-14
1.51561e-14
1.96055e-14
2.44417e-14
2.96001e-14
3.49684e-14
4.03934e-14
4.56902e-14
5.06555e-14
5.50811e-14
5.87701e-14
6.15507e-14
6.32894e-14
6.39009e-14
6.33549e-14
6.16783e-14
5.8953e-14
5.53097e-14
5.09181e-14
4.59741e-14
4.06853e-14
3.52557e-14
2.98714e-14
2.46875e-14
1.98185e-14
1.53314e-14
1.12423e-14
7.5183e-15
4.08182e-15
2.89442e-17
3.27176e-19
3.27176e-19
2.85609e-17
4.02961e-15
7.4248e-15
1.11075e-14
1.51561e-14
1.96055e-14
2.44417e-14
2.96001e-14
3.49684e-14
4.03934e-14
4.56902e-14
5.06555e-14
5.50811e-14
5.87701e-14
6.15507e-14
6.32894e-14
6.39009e-14
6.33549e-14
6.16783e-14
5.8953e-14
5.53097e-14
5.09181e-14
4.59741e-14
4.06853e-14
3.52557e-14
2.98714e-14
2.46875e-14
1.98185e-14
1.53314e-14
1.12423e-14
7.5183e-15
4.08182e-15
2.89442e-17
3.27176e-19
3.27176e-19
2.85609e-17
4.02961e-15
7.4248e-15
1.11075e-14
1.51561e-14
1.96055e-14
2.44417e-14
2.96001e-14
3.49684e-14
4.03934e-14
4.56902e-14
5.06555e-14
5.50811e-14
5.87701e-14
6.15507e-14
6.32894e-14
6.39009e-14
6.33549e-14
6.16783e-14
5.8953e-14
5.53097e-14
5.09181e-14
4.59741e-14
4.06853e-14
3.52557e-14
2.98714e-14
2.46875e-14
1.98185e-14
1.53314e-14
1.12423e-14
7.5183e-15
4.08182e-15
2.89442e-17
3.27176e-19
3.27176e-19
2.85609e-17
4.02961e-15
7.4248e-15
1.11075e-14
1.51561e-14
1.96055e-14
2.44417e-14
2.96001e-14
3.49684e-14
4.03934e-14
4.56902e-14
5.06555e-14
5.50811e-14
5.87701e-14
6.15507e-14
6.32894e-14
6.39009e-14
6.33549e-14
6.16783e-14
5.8953e-14
5.53097e-14
5.09181e-14
4.59741e-14
4.06853e-14
3.52557e-14
2.98714e-14
2.46875e-14
1.98185e-14
1.53314e-14
1.12423e-14
7.5183e-15
4.08182e-15
2.89442e-17
3.27176e-19
3.27176e-19
2.85609e-17
4.02961e-15
7.4248e-15
1.11075e-14
1.51561e-14
1.96055e-14
2.44417e-14
2.96001e-14
3.49684e-14
4.03934e-14
4.56902e-14
5.06555e-14
5.50811e-14
5.87701e-14
6.15507e-14
6.32894e-14
6.39009e-14
6.33549e-14
6.16783e-14
5.8953e-14
5.53097e-14
5.09181e-14
4.59741e-14
4.06853e-14
3.52557e-14
2.98714e-14
2.46875e-14
1.98185e-14
1.53314e-14
1.12423e-14
7.5183e-15
4.08182e-15
2.89442e-17
3.27176e-19
3.27176e-19
2.85609e-17
4.02961e-15
7.4248e-15
1.11075e-14
1.51561e-14
1.96055e-14
2.44417e-14
2.96001e-14
3.49684e-14
4.03934e-14
4.56902e-14
5.06555e-14
5.50811e-14
5.87701e-14
6.15507e-14
6.32894e-14
6.39009e-14
6.33549e-14
6.16783e-14
5.8953e-14
5.53097e-14
5.09181e-14
4.59741e-14
4.06853e-14
3.52557e-14
2.98714e-14
2.46875e-14
1.98185e-14
1.53314e-14
1.12423e-14
7.5183e-15
4.08182e-15
2.89442e-17
3.27176e-19
3.27176e-19
2.85609e-17
4.02961e-15
7.4248e-15
1.11075e-14
1.51561e-14
1.96055e-14
2.44417e-14
2.96001e-14
3.49684e-14
4.03934e-14
4.56902e-14
5.06555e-14
5.50811e-14
5.87701e-14
6.15507e-14
6.32894e-14
6.39009e-14
6.33549e-14
6.16783e-14
5.8953e-14
5.53097e-14
5.09181e-14
4.59741e-14
4.06853e-14
3.52557e-14
2.98714e-14
2.46875e-14
1.98185e-14
1.53314e-14
1.12423e-14
7.5183e-15
4.08182e-15
2.89442e-17
3.27176e-19
3.27176e-19
2.85609e-17
4.02961e-15
7.4248e-15
1.11075e-14
1.51561e-14
1.96055e-14
2.44417e-14
2.96001e-14
3.49684e-14
4.03934e-14
4.56902e-14
5.06555e-14
5.50811e-14
5.87701e-14
6.15507e-14
6.32894e-14
6.39009e-14
6.33549e-14
6.16783e-14
5.8953e-14
5.53097e-14
5.09181e-14
4.59741e-14
4.06853e-14
3.52557e-14
2.98714e-14
2.46875e-14
1.98185e-14
1.53314e-14
1.12423e-14
7.5183e-15
4.08182e-15
2.89442e-17
3.27176e-19
3.27176e-19
2.85609e-17
4.02961e-15
7.4248e-15
1.11075e-14
1.51561e-14
1.96055e-14
2.44417e-14
2.96001e-14
3.49684e-14
4.03934e-14
4.56902e-14
5.06555e-14
5.50811e-14
5.87701e-14
6.15507e-14
6.32894e-14
6.39009e-14
6.33549e-14
6.16783e-14
5.8953e-14
5.53097e-14
5.09181e-14
4.59741e-14
4.06853e-14
3.52557e-14
2.98714e-14
2.46875e-14
1.98185e-14
1.53314e-14
1.12423e-14
7.5183e-15
4.08182e-15
2.89442e-17
3.27176e-19
3.27176e-19
2.85609e-17
4.02961e-15
7.4248e-15
1.11075e-14
1.51561e-14
1.96055e-14
2.44417e-14
2.96001e-14
3.49684e-14
4.03934e-14
4.56902e-14
5.06555e-14
5.50811e-14