/*--------------------------------*- C++ -*----------------------------------*\
  =========                 |
  \\      /  F ield         | OpenFOAM: The Open Source CFD Toolbox
   \\    /   O peration     | Website:  https://openfoam.org
    \\  /    A nd           | Version:  13
     \\/     M anipulation  |
\*---------------------------------------------------------------------------*/
FoamFile
{
    format      ascii;
    class       volScalarField;
    location    "177.5";
    object      rhok;
}
// * * * * * * * * * * * * * * * * * * * * * * * * * * * * * * * * * * * * * //

dimensions      [];

internalField   nonuniform List<scalar> 
315000
(
0.444653
0.430879
0.417612
0.413602
0.4128
0.412225
0.41158
0.410908
0.410224
0.409535
0.408845
0.408154
0.407463
0.406772
0.406082
0.405392
0.404702
0.404014
0.403326
0.402639
0.401953
0.401268
0.400584
0.399902
0.399221
0.398541
0.397864
0.397188
0.396513
0.395841
0.39517
0.394501
0.393834
0.393169
0.392507
0.391846
0.391187
0.39053
0.389875
0.389222
0.388571
0.387921
0.387274
0.386628
0.385985
0.385343
0.384703
0.384064
0.383427
0.382792
0.382158
0.381525
0.380894
0.380264
0.379636
0.379008
0.378382
0.377757
0.377133
0.376509
0.375887
0.375265
0.374644
0.374023
0.373403
0.372784
0.372165
0.371546
0.370927
0.370308
0.444653
0.430877
0.417623
0.41364
0.412843
0.412264
0.411618
0.410943
0.410256
0.409564
0.408871
0.408177
0.407483
0.406789
0.406096
0.405404
0.404713
0.404022
0.403333
0.402644
0.401957
0.401271
0.400586
0.399903
0.399222
0.398542
0.397864
0.397187
0.396512
0.39584
0.395169
0.3945
0.393833
0.393168
0.392505
0.391844
0.391185
0.390528
0.389873
0.38922
0.388568
0.387919
0.387272
0.386627
0.385983
0.385341
0.384701
0.384062
0.383425
0.38279
0.382156
0.381524
0.380893
0.380263
0.379635
0.379007
0.378381
0.377756
0.377132
0.376508
0.375886
0.375264
0.374643
0.374023
0.373403
0.372783
0.372164
0.371546
0.370927
0.370308
0.444632
0.430042
0.415377
0.413965
0.41322
0.412488
0.411765
0.411048
0.410335
0.409626
0.408919
0.408216
0.407514
0.406814
0.406117
0.40542
0.404726
0.404033
0.403341
0.402651
0.401962
0.401275
0.400589
0.399905
0.399223
0.398542
0.397864
0.397187
0.396512
0.395839
0.395167
0.394498
0.393831
0.393166
0.392503
0.391842
0.391183
0.390526
0.389871
0.389218
0.388567
0.387918
0.38727
0.386625
0.385981
0.385339
0.384699
0.384061
0.383424
0.382789
0.382155
0.381522
0.380892
0.380262
0.379633
0.379006
0.37838
0.377755
0.377131
0.376508
0.375885
0.375264
0.374643
0.374022
0.373403
0.372783
0.372164
0.371545
0.370927
0.370308
0.444652
0.430815
0.416455
0.414202
0.413239
0.412434
0.411695
0.410982
0.41028
0.409581
0.408885
0.408189
0.407493
0.406799
0.406104
0.405411
0.404719
0.404027
0.403337
0.402647
0.401959
0.401272
0.400587
0.399903
0.399221
0.398541
0.397862
0.397185
0.39651
0.395837
0.395166
0.394497
0.39383
0.393164
0.392501
0.39184
0.391181
0.390524
0.389869
0.389216
0.388565
0.387916
0.387269
0.386623
0.38598
0.385338
0.384698
0.384059
0.383423
0.382787
0.382154
0.381521
0.38089
0.380261
0.379632
0.379005
0.378379
0.377754
0.37713
0.376507
0.375885
0.375263
0.374642
0.374022
0.373402
0.372783
0.372164
0.371545
0.370927
0.370308
0.444652
0.430814
0.416453
0.414201
0.413243
0.412439
0.411699
0.410985
0.410282
0.409582
0.408885
0.408189
0.407493
0.406799
0.406104
0.405411
0.404718
0.404026
0.403336
0.402646
0.401958
0.401271
0.400586
0.399902
0.39922
0.398539
0.397861
0.397184
0.396509
0.395836
0.395164
0.394495
0.393828
0.393163
0.3925
0.391839
0.39118
0.390523
0.389868
0.389215
0.388564
0.387915
0.387267
0.386622
0.385978
0.385337
0.384697
0.384058
0.383421
0.382786
0.382153
0.38152
0.380889
0.38026
0.379632
0.379004
0.378378
0.377754
0.37713
0.376506
0.375884
0.375263
0.374642
0.374022
0.373402
0.372783
0.372164
0.371545
0.370927
0.370308
0.444632
0.430041
0.415374
0.41396
0.413221
0.412491
0.411767
0.411048
0.410334
0.409624
0.408917
0.408213
0.407512
0.406812
0.406114
0.405418
0.404723
0.40403
0.403338
0.402648
0.401959
0.401272
0.400586
0.399902
0.399219
0.398539
0.39786
0.397183
0.396508
0.395834
0.395163
0.394494
0.393827
0.393162
0.392499
0.391837
0.391178
0.390521
0.389867
0.389214
0.388563
0.387913
0.387266
0.386621
0.385977
0.385336
0.384696
0.384057
0.383421
0.382785
0.382152
0.381519
0.380889
0.380259
0.379631
0.379004
0.378378
0.377753
0.377129
0.376506
0.375884
0.375262
0.374641
0.374021
0.373402
0.372782
0.372163
0.371545
0.370926
0.370308
0.444653
0.430872
0.417616
0.413629
0.412831
0.412255
0.411608
0.410933
0.410247
0.409556
0.408863
0.408169
0.407476
0.406783
0.40609
0.405398
0.404707
0.404016
0.403327
0.402638
0.401951
0.401265
0.40058
0.399897
0.399215
0.398535
0.397857
0.39718
0.396505
0.395832
0.395161
0.394492
0.393825
0.39316
0.392497
0.391836
0.391177
0.39052
0.389865
0.389212
0.388561
0.387912
0.387265
0.38662
0.385976
0.385335
0.384695
0.384056
0.38342
0.382785
0.382151
0.381519
0.380888
0.380258
0.37963
0.379003
0.378377
0.377752
0.377129
0.376506
0.375883
0.375262
0.374641
0.374021
0.373401
0.372782
0.372163
0.371545
0.370926
0.370308
0.444652
0.430866
0.417589
0.413579
0.41278
0.412205
0.411562
0.41089
0.410207
0.40952
0.408831
0.408141
0.407451
0.406761
0.406071
0.405381
0.404692
0.404004
0.403316
0.402629
0.401943
0.401258
0.400575
0.399892
0.399211
0.398532
0.397854
0.397178
0.396503
0.39583
0.39516
0.394491
0.393824
0.393159
0.392496
0.391835
0.391176
0.390519
0.389864
0.389212
0.388561
0.387912
0.387264
0.386619
0.385976
0.385334
0.384694
0.384056
0.383419
0.382784
0.38215
0.381518
0.380887
0.380258
0.37963
0.379003
0.378377
0.377752
0.377128
0.376505
0.375883
0.375262
0.374641
0.374021
0.373401
0.372782
0.372163
0.371545
0.370926
0.370308
0.444652
0.430861
0.417577
0.413565
0.412765
0.41219
0.411547
0.410876
0.410193
0.409507
0.408818
0.408129
0.40744
0.406751
0.406062
0.405373
0.404685
0.403998
0.403311
0.402624
0.401939
0.401255
0.400571
0.399889
0.399209
0.39853
0.397852
0.397176
0.396502
0.395829
0.395158
0.39449
0.393823
0.393158
0.392495
0.391834
0.391175
0.390519
0.389864
0.389211
0.38856
0.387911
0.387264
0.386619
0.385975
0.385333
0.384694
0.384055
0.383419
0.382783
0.38215
0.381518
0.380887
0.380258
0.379629
0.379002
0.378377
0.377752
0.377128
0.376505
0.375883
0.375261
0.374641
0.374021
0.373401
0.372782
0.372163
0.371545
0.370926
0.370308
0.444652
0.430859
0.417573
0.413559
0.412759
0.412184
0.41154
0.410869
0.410187
0.409501
0.408813
0.408124
0.407435
0.406746
0.406058
0.40537
0.404682
0.403995
0.403308
0.402622
0.401937
0.401253
0.40057
0.399888
0.399207
0.398528
0.397851
0.397175
0.396501
0.395828
0.395158
0.394489
0.393822
0.393157
0.392494
0.391834
0.391175
0.390518
0.389863
0.38921
0.388559
0.38791
0.387263
0.386618
0.385975
0.385333
0.384693
0.384055
0.383418
0.382783
0.38215
0.381517
0.380887
0.380257
0.379629
0.379002
0.378376
0.377751
0.377128
0.376505
0.375883
0.375261
0.374641
0.374021
0.373401
0.372782
0.372163
0.371545
0.370926
0.370308
0.444652
0.430858
0.417571
0.413557
0.412756
0.412181
0.411538
0.410867
0.410185
0.409498
0.40881
0.408122
0.407433
0.406744
0.406056
0.405368
0.40468
0.403993
0.403307
0.402621
0.401936
0.401252
0.400569
0.399887
0.399207
0.398528
0.39785
0.397174
0.3965
0.395828
0.395157
0.394488
0.393822
0.393157
0.392494
0.391833
0.391174
0.390518
0.389863
0.38921
0.388559
0.38791
0.387263
0.386618
0.385974
0.385333
0.384693
0.384055
0.383418
0.382783
0.382149
0.381517
0.380886
0.380257
0.379629
0.379002
0.378376
0.377751
0.377128
0.376505
0.375882
0.375261
0.37464
0.37402
0.373401
0.372782
0.372163
0.371545
0.370926
0.370308
0.444652
0.430858
0.41757
0.413556
0.412755
0.41218
0.411537
0.410866
0.410184
0.409497
0.408809
0.408121
0.407432
0.406744
0.406055
0.405367
0.40468
0.403993
0.403306
0.40262
0.401935
0.401251
0.400568
0.399887
0.399206
0.398527
0.39785
0.397174
0.3965
0.395827
0.395157
0.394488
0.393821
0.393157
0.392494
0.391833
0.391174
0.390517
0.389863
0.38921
0.388559
0.38791
0.387263
0.386618
0.385974
0.385333
0.384693
0.384054
0.383418
0.382783
0.382149
0.381517
0.380886
0.380257
0.379629
0.379002
0.378376
0.377751
0.377127
0.376505
0.375882
0.375261
0.37464
0.37402
0.373401
0.372782
0.372163
0.371545
0.370926
0.370308
0.444652
0.430858
0.41757
0.413556
0.412755
0.41218
0.411536
0.410865
0.410183
0.409497
0.408809
0.408121
0.407432
0.406743
0.406055
0.405367
0.40468
0.403993
0.403306
0.40262
0.401935
0.401251
0.400568
0.399887
0.399206
0.398527
0.39785
0.397174
0.3965
0.395827
0.395157
0.394488
0.393821
0.393157
0.392494
0.391833
0.391174
0.390517
0.389863
0.38921
0.388559
0.38791
0.387263
0.386618
0.385974
0.385333
0.384693
0.384054
0.383418
0.382783
0.382149
0.381517
0.380886
0.380257
0.379629
0.379002
0.378376
0.377751
0.377127
0.376504
0.375882
0.375261
0.37464
0.37402
0.373401
0.372782
0.372163
0.371545
0.370926
0.370308
0.444652
0.430858
0.41757
0.413556
0.412755
0.41218
0.411537
0.410866
0.410184
0.409497
0.408809
0.408121
0.407432
0.406744
0.406055
0.405367
0.40468
0.403993
0.403306
0.40262
0.401935
0.401251
0.400568
0.399887
0.399206
0.398527
0.39785
0.397174
0.3965
0.395827
0.395157
0.394488
0.393821
0.393157
0.392494
0.391833
0.391174
0.390517
0.389863
0.38921
0.388559
0.38791
0.387263
0.386618
0.385974
0.385333
0.384693
0.384054
0.383418
0.382783
0.382149
0.381517
0.380886
0.380257
0.379629
0.379002
0.378376
0.377751
0.377127
0.376504
0.375882
0.375261
0.37464
0.37402
0.373401
0.372782
0.372163
0.371545
0.370926
0.370308
0.444652
0.430858
0.417571
0.413557
0.412756
0.412181
0.411537
0.410866
0.410184
0.409498
0.40881
0.408121
0.407433
0.406744
0.406056
0.405368
0.40468
0.403993
0.403306
0.402621
0.401936
0.401252
0.400569
0.399887
0.399207
0.398527
0.39785
0.397174
0.3965
0.395828
0.395157
0.394488
0.393822
0.393157
0.392494
0.391833
0.391174
0.390518
0.389863
0.38921
0.388559
0.38791
0.387263
0.386618
0.385974
0.385333
0.384693
0.384054
0.383418
0.382783
0.382149
0.381517
0.380886
0.380257
0.379629
0.379002
0.378376
0.377751
0.377127
0.376505
0.375882
0.375261
0.37464
0.37402
0.373401
0.372782
0.372163
0.371545
0.370926
0.370308
0.444652
0.430859
0.417572
0.413558
0.412757
0.412182
0.411539
0.410868
0.410186
0.409499
0.408811
0.408122
0.407434
0.406745
0.406057
0.405369
0.404681
0.403994
0.403307
0.402621
0.401936
0.401252
0.400569
0.399887
0.399207
0.398528
0.39785
0.397174
0.3965
0.395828
0.395157
0.394489
0.393822
0.393157
0.392494
0.391833
0.391175
0.390518
0.389863
0.38921
0.388559
0.38791
0.387263
0.386618
0.385974
0.385333
0.384693
0.384055
0.383418
0.382783
0.382149
0.381517
0.380887
0.380257
0.379629
0.379002
0.378376
0.377751
0.377128
0.376505
0.375883
0.375261
0.374641
0.37402
0.373401
0.372782
0.372163
0.371545
0.370926
0.370308
0.444652
0.430859
0.417572
0.413559
0.412759
0.412184
0.41154
0.410869
0.410187
0.4095
0.408812
0.408123
0.407435
0.406746
0.406057
0.405369
0.404681
0.403994
0.403308
0.402622
0.401937
0.401253
0.40057
0.399888
0.399207
0.398528
0.397851
0.397175
0.396501
0.395828
0.395158
0.394489
0.393822
0.393157
0.392494
0.391834
0.391175
0.390518
0.389863
0.38921
0.388559
0.38791
0.387263
0.386618
0.385975
0.385333
0.384693
0.384055
0.383418
0.382783
0.38215
0.381517
0.380887
0.380257
0.379629
0.379002
0.378376
0.377751
0.377128
0.376505
0.375883
0.375261
0.374641
0.37402
0.373401
0.372782
0.372163
0.371545
0.370926
0.370308
0.444652
0.430859
0.417572
0.413558
0.412757
0.412182
0.411539
0.410868
0.410186
0.409499
0.408811
0.408123
0.407434
0.406745
0.406057
0.405369
0.404681
0.403994
0.403308
0.402622
0.401937
0.401253
0.40057
0.399888
0.399207
0.398528
0.397851
0.397175
0.396501
0.395828
0.395158
0.394489
0.393822
0.393158
0.392495
0.391834
0.391175
0.390518
0.389864
0.389211
0.38856
0.387911
0.387264
0.386618
0.385975
0.385333
0.384693
0.384055
0.383418
0.382783
0.38215
0.381518
0.380887
0.380257
0.379629
0.379002
0.378376
0.377752
0.377128
0.376505
0.375883
0.375261
0.374641
0.374021
0.373401
0.372782
0.372163
0.371545
0.370926
0.370308
0.444652
0.430858
0.417571
0.413557
0.412756
0.412181
0.411538
0.410867
0.410185
0.409499
0.408811
0.408122
0.407433
0.406745
0.406057
0.405369
0.404681
0.403994
0.403308
0.402622
0.401937
0.401253
0.40057
0.399888
0.399208
0.398529
0.397851
0.397175
0.396501
0.395829
0.395158
0.39449
0.393823
0.393158
0.392495
0.391834
0.391176
0.390519
0.389864
0.389211
0.38856
0.387911
0.387264
0.386619
0.385975
0.385334
0.384694
0.384055
0.383419
0.382784
0.38215
0.381518
0.380887
0.380258
0.379629
0.379002
0.378377
0.377752
0.377128
0.376505
0.375883
0.375261
0.374641
0.374021
0.373401
0.372782
0.372163
0.371545
0.370926
0.370308
0.444652
0.430858
0.417571
0.413557
0.412756
0.412181
0.411538
0.410867
0.410185
0.409499
0.408811
0.408122
0.407434
0.406745
0.406057
0.405369
0.404681
0.403994
0.403308
0.402622
0.401937
0.401253
0.40057
0.399889
0.399208
0.398529
0.397852
0.397176
0.396502
0.395829
0.395159
0.39449
0.393823
0.393158
0.392496
0.391835
0.391176
0.390519
0.389864
0.389211
0.38856
0.387911
0.387264
0.386619
0.385976
0.385334
0.384694
0.384056
0.383419
0.382784
0.38215
0.381518
0.380887
0.380258
0.37963
0.379003
0.378377
0.377752
0.377128
0.376505
0.375883
0.375262
0.374641
0.374021
0.373401
0.372782
0.372163
0.371545
0.370926
0.370308
0.444652
0.430859
0.417572
0.413558
0.412758
0.412183
0.411539
0.410868
0.410186
0.4095
0.408812
0.408124
0.407435
0.406746
0.406058
0.40537
0.404683
0.403995
0.403309
0.402623
0.401938
0.401254
0.400571
0.399889
0.399209
0.39853
0.397852
0.397176
0.396502
0.39583
0.395159
0.39449
0.393824
0.393159
0.392496
0.391835
0.391176
0.39052
0.389865
0.389212
0.388561
0.387912
0.387265
0.386619
0.385976
0.385334
0.384694
0.384056
0.383419
0.382784
0.382151
0.381518
0.380888
0.380258
0.37963
0.379003
0.378377
0.377752
0.377128
0.376505
0.375883
0.375262
0.374641
0.374021
0.373401
0.372782
0.372163
0.371545
0.370926
0.370308
0.444652
0.43086
0.417576
0.413563
0.412763
0.412188
0.411545
0.410874
0.410192
0.409505
0.408817
0.408128
0.407439
0.40675
0.406062
0.405373
0.404686
0.403998
0.403311
0.402625
0.40194
0.401256
0.400573
0.399891
0.39921
0.398531
0.397853
0.397177
0.396503
0.395831
0.39516
0.394491
0.393824
0.393159
0.392497
0.391836
0.391177
0.39052
0.389865
0.389212
0.388561
0.387912
0.387265
0.38662
0.385976
0.385335
0.384695
0.384056
0.38342
0.382784
0.382151
0.381519
0.380888
0.380258
0.37963
0.379003
0.378377
0.377752
0.377128
0.376505
0.375883
0.375262
0.374641
0.374021
0.373401
0.372782
0.372163
0.371545
0.370926
0.370308
0.444652
0.430867
0.41759
0.413579
0.41278
0.412205
0.411561
0.41089
0.410207
0.40952
0.408831
0.408141
0.407451
0.406761
0.406071
0.405382
0.404693
0.404005
0.403317
0.40263
0.401944
0.40126
0.400576
0.399893
0.399212
0.398533
0.397855
0.397179
0.396504
0.395832
0.395161
0.394492
0.393825
0.39316
0.392497
0.391836
0.391177
0.390521
0.389866
0.389213
0.388562
0.387913
0.387266
0.38662
0.385977
0.385335
0.384695
0.384057
0.38342
0.382785
0.382151
0.381519
0.380888
0.380259
0.37963
0.379003
0.378377
0.377753
0.377129
0.376506
0.375883
0.375262
0.374641
0.374021
0.373401
0.372782
0.372163
0.371545
0.370926
0.370308
0.444652
0.430871
0.417615
0.41363
0.412832
0.412254
0.411608
0.410933
0.410247
0.409556
0.408863
0.40817
0.407476
0.406783
0.40609
0.405398
0.404707
0.404017
0.403327
0.402639
0.401952
0.401266
0.400581
0.399898
0.399216
0.398536
0.397858
0.397181
0.396506
0.395833
0.395162
0.394493
0.393826
0.393161
0.392498
0.391837
0.391178
0.390521
0.389866
0.389213
0.388562
0.387913
0.387266
0.386621
0.385977
0.385335
0.384695
0.384057
0.38342
0.382785
0.382151
0.381519
0.380888
0.380259
0.379631
0.379004
0.378378
0.377753
0.377129
0.376506
0.375884
0.375262
0.374641
0.374021
0.373401
0.372782
0.372163
0.371545
0.370926
0.370308
0.444632
0.430039
0.415371
0.413958
0.413213
0.412481
0.411758
0.411041
0.410328
0.409618
0.408912
0.408209
0.407507
0.406808
0.406111
0.405415
0.40472
0.404027
0.403336
0.402646
0.401957
0.40127
0.400585
0.399901
0.399219
0.398538
0.397859
0.397182
0.396507
0.395834
0.395163
0.394494
0.393827
0.393162
0.392499
0.391838
0.391179
0.390522
0.389867
0.389214
0.388563
0.387914
0.387266
0.386621
0.385977
0.385336
0.384696
0.384057
0.383421
0.382785
0.382152
0.381519
0.380889
0.380259
0.379631
0.379004
0.378378
0.377753
0.377129
0.376506
0.375884
0.375262
0.374641
0.374021
0.373402
0.372782
0.372163
0.371545
0.370926
0.370308
0.444651
0.430807
0.416435
0.41418
0.413215
0.41241
0.411671
0.410959
0.410257
0.409559
0.408864
0.408169
0.407475
0.406782
0.406089
0.405397
0.404706
0.404016
0.403327
0.402638
0.401951
0.401265
0.400581
0.399898
0.399216
0.398536
0.397858
0.397181
0.396507
0.395834
0.395163
0.394494
0.393827
0.393162
0.392499
0.391838
0.391179
0.390522
0.389867
0.389214
0.388563
0.387914
0.387267
0.386621
0.385978
0.385336
0.384696
0.384058
0.383421
0.382786
0.382152
0.38152
0.380889
0.380259
0.379631
0.379004
0.378378
0.377753
0.377129
0.376506
0.375884
0.375262
0.374642
0.374021
0.373402
0.372782
0.372164
0.371545
0.370927
0.370308
0.444651
0.4308
0.416401
0.414137
0.413168
0.412363
0.411625
0.410915
0.410217
0.409523
0.408831
0.40814
0.40745
0.40676
0.40607
0.405381
0.404692
0.404004
0.403316
0.40263
0.401944
0.401259
0.400576
0.399894
0.399213
0.398534
0.397856
0.39718
0.396505
0.395833
0.395162
0.394493
0.393826
0.393162
0.392499
0.391838
0.391179
0.390522
0.389867
0.389214
0.388563
0.387914
0.387267
0.386622
0.385978
0.385336
0.384696
0.384058
0.383421
0.382786
0.382152
0.38152
0.380889
0.38026
0.379631
0.379004
0.378378
0.377753
0.377129
0.376506
0.375884
0.375262
0.374642
0.374021
0.373402
0.372782
0.372164
0.371545
0.370927
0.370308
0.444651
0.430794
0.416386
0.414121
0.413152
0.412346
0.411609
0.410899
0.410201
0.409508
0.408818
0.408128
0.407438
0.406749
0.406061
0.405373
0.404685
0.403998
0.403311
0.402625
0.40194
0.401256
0.400573
0.399891
0.399211
0.398532
0.397855
0.397179
0.396505
0.395832
0.395162
0.394493
0.393826
0.393162
0.392499
0.391838
0.391179
0.390522
0.389867
0.389214
0.388563
0.387914
0.387267
0.386622
0.385978
0.385337
0.384696
0.384058
0.383421
0.382786
0.382152
0.38152
0.380889
0.38026
0.379631
0.379004
0.378378
0.377753
0.377129
0.376506
0.375884
0.375263
0.374642
0.374022
0.373402
0.372783
0.372164
0.371545
0.370927
0.370308
0.444651
0.430793
0.416382
0.414116
0.413147
0.412341
0.411604
0.410894
0.410197
0.409504
0.408813
0.408124
0.407435
0.406746
0.406058
0.40537
0.404682
0.403995
0.403309
0.402623
0.401939
0.401255
0.400572
0.399891
0.39921
0.398532
0.397854
0.397179
0.396505
0.395832
0.395162
0.394493
0.393826
0.393162
0.392499
0.391838
0.391179
0.390522
0.389868
0.389215
0.388564
0.387915
0.387267
0.386622
0.385979
0.385337
0.384697
0.384058
0.383422
0.382786
0.382153
0.38152
0.38089
0.38026
0.379632
0.379005
0.378379
0.377754
0.37713
0.376506
0.375884
0.375263
0.374642
0.374022
0.373402
0.372783
0.372164
0.371545
0.370927
0.370308
0.444651
0.430792
0.416382
0.414115
0.413146
0.41234
0.411602
0.410893
0.410196
0.409503
0.408812
0.408123
0.407434
0.406745
0.406057
0.405369
0.404682
0.403995
0.403309
0.402623
0.401938
0.401255
0.400572
0.399891
0.39921
0.398532
0.397854
0.397179
0.396505
0.395832
0.395162
0.394493
0.393827
0.393162
0.392499
0.391838
0.39118
0.390523
0.389868
0.389215
0.388564
0.387915
0.387268
0.386622
0.385979
0.385337
0.384697
0.384059
0.383422
0.382787
0.382153
0.381521
0.38089
0.38026
0.379632
0.379005
0.378379
0.377754
0.37713
0.376507
0.375884
0.375263
0.374642
0.374022
0.373402
0.372783
0.372164
0.371545
0.370927
0.370308
0.444651
0.430792
0.416382
0.414115
0.413146
0.41234
0.411602
0.410893
0.410195
0.409503
0.408812
0.408123
0.407434
0.406745
0.406057
0.405369
0.404682
0.403995
0.403309
0.402623
0.401939
0.401255
0.400572
0.399891
0.399211
0.398532
0.397855
0.397179
0.396505
0.395833
0.395162
0.394494
0.393827
0.393162
0.392499
0.391839
0.39118
0.390523
0.389868
0.389215
0.388564
0.387915
0.387268
0.386623
0.385979
0.385337
0.384697
0.384059
0.383422
0.382787
0.382153
0.381521
0.38089
0.38026
0.379632
0.379005
0.378379
0.377754
0.37713
0.376507
0.375884
0.375263
0.374642
0.374022
0.373402
0.372783
0.372164
0.371545
0.370927
0.370308
0.444651
0.430792
0.416382
0.414115
0.413146
0.41234
0.411603
0.410893
0.410196
0.409503
0.408812
0.408123
0.407434
0.406745
0.406057
0.405369
0.404682
0.403995
0.403309
0.402623
0.401939
0.401255
0.400572
0.399891
0.399211
0.398532
0.397855
0.397179
0.396505
0.395833
0.395162
0.394494
0.393827
0.393162
0.3925
0.391839
0.39118
0.390523
0.389868
0.389215
0.388564
0.387915
0.387268
0.386623
0.385979
0.385337
0.384697
0.384059
0.383422
0.382787
0.382153
0.381521
0.38089
0.38026
0.379632
0.379005
0.378379
0.377754
0.37713
0.376507
0.375884
0.375263
0.374642
0.374022
0.373402
0.372783
0.372164
0.371545
0.370927
0.370308
0.444651
0.430792
0.416382
0.414115
0.413146
0.41234
0.411603
0.410893
0.410196
0.409503
0.408813
0.408123
0.407434
0.406745
0.406057
0.40537
0.404682
0.403995
0.403309
0.402624
0.401939
0.401255
0.400573
0.399891
0.399211
0.398532
0.397855
0.397179
0.396505
0.395833
0.395163
0.394494
0.393827
0.393163
0.3925
0.391839
0.39118
0.390523
0.389868
0.389216
0.388565
0.387915
0.387268
0.386623
0.385979
0.385338
0.384697
0.384059
0.383422
0.382787
0.382153
0.381521
0.38089
0.38026
0.379632
0.379005
0.378379
0.377754
0.37713
0.376507
0.375885
0.375263
0.374642
0.374022
0.373402
0.372783
0.372164
0.371545
0.370927
0.370308
0.444651
0.430793
0.416382
0.414115
0.413146
0.41234
0.411603
0.410894
0.410196
0.409503
0.408813
0.408123
0.407434
0.406746
0.406057
0.40537
0.404682
0.403996
0.403309
0.402624
0.401939
0.401255
0.400573
0.399891
0.399211
0.398532
0.397855
0.39718
0.396506
0.395833
0.395163
0.394494
0.393828
0.393163
0.3925
0.391839
0.39118
0.390523
0.389869
0.389216
0.388565
0.387916
0.387268
0.386623
0.385979
0.385338
0.384698
0.384059
0.383422
0.382787
0.382153
0.381521
0.38089
0.380261
0.379632
0.379005
0.378379
0.377754
0.37713
0.376507
0.375885
0.375263
0.374642
0.374022
0.373402
0.372783
0.372164
0.371545
0.370927
0.370308
0.444651
0.430793
0.416382
0.414116
0.413146
0.41234
0.411603
0.410894
0.410196
0.409503
0.408813
0.408123
0.407434
0.406746
0.406058
0.40537
0.404682
0.403996
0.403309
0.402624
0.401939
0.401256
0.400573
0.399892
0.399211
0.398533
0.397855
0.39718
0.396506
0.395833
0.395163
0.394494
0.393828
0.393163
0.3925
0.391839
0.39118
0.390524
0.389869
0.389216
0.388565
0.387916
0.387268
0.386623
0.38598
0.385338
0.384698
0.384059
0.383422
0.382787
0.382153
0.381521
0.38089
0.380261
0.379632
0.379005
0.378379
0.377754
0.37713
0.376507
0.375885
0.375263
0.374642
0.374022
0.373402
0.372783
0.372164
0.371545
0.370927
0.370308
0.444651
0.430793
0.416382
0.414116
0.413147
0.41234
0.411603
0.410894
0.410196
0.409504
0.408813
0.408123
0.407434
0.406746
0.406058
0.40537
0.404683
0.403996
0.40331
0.402624
0.401939
0.401256
0.400573
0.399892
0.399212
0.398533
0.397855
0.39718
0.396506
0.395834
0.395163
0.394494
0.393828
0.393163
0.3925
0.391839
0.391181
0.390524
0.389869
0.389216
0.388565
0.387916
0.387269
0.386623
0.38598
0.385338
0.384698
0.384059
0.383423
0.382787
0.382154
0.381521
0.38089
0.380261
0.379632
0.379005
0.378379
0.377754
0.37713
0.376507
0.375885
0.375263
0.374642
0.374022
0.373402
0.372783
0.372164
0.371545
0.370927
0.370308
0.444651
0.430793
0.416382
0.414116
0.413147
0.412341
0.411603
0.410894
0.410196
0.409504
0.408813
0.408124
0.407435
0.406746
0.406058
0.40537
0.404683
0.403996
0.40331
0.402624
0.40194
0.401256
0.400573
0.399892
0.399212
0.398533
0.397856
0.39718
0.396506
0.395834
0.395163
0.394495
0.393828
0.393163
0.3925
0.39184
0.391181
0.390524
0.389869
0.389216
0.388565
0.387916
0.387269
0.386623
0.38598
0.385338
0.384698
0.384059
0.383423
0.382787
0.382154
0.381521
0.38089
0.380261
0.379632
0.379005
0.378379
0.377754
0.37713
0.376507
0.375885
0.375263
0.374642
0.374022
0.373402
0.372783
0.372164
0.371545
0.370927
0.370308
0.444651
0.430793
0.416382
0.414116
0.413147
0.412341
0.411603
0.410894
0.410196
0.409504
0.408813
0.408124
0.407435
0.406746
0.406058
0.40537
0.404683
0.403996
0.40331
0.402624
0.40194
0.401256
0.400573
0.399892
0.399212
0.398533
0.397856
0.39718
0.396506
0.395834
0.395163
0.394495
0.393828
0.393163
0.3925
0.39184
0.391181
0.390524
0.389869
0.389216
0.388565
0.387916
0.387269
0.386623
0.38598
0.385338
0.384698
0.384059
0.383423
0.382787
0.382154
0.381521
0.38089
0.380261
0.379632
0.379005
0.378379
0.377754
0.37713
0.376507
0.375885
0.375263
0.374642
0.374022
0.373402
0.372783
0.372164
0.371545
0.370927
0.370308
0.444651
0.430793
0.416382
0.414116
0.413147
0.412341
0.411603
0.410894
0.410196
0.409504
0.408813
0.408124
0.407435
0.406746
0.406058
0.40537
0.404683
0.403996
0.40331
0.402624
0.40194
0.401256
0.400573
0.399892
0.399212
0.398533
0.397856
0.39718
0.396506
0.395834
0.395163
0.394495
0.393828
0.393163
0.3925
0.39184
0.391181
0.390524
0.389869
0.389216
0.388565
0.387916
0.387269
0.386623
0.38598
0.385338
0.384698
0.384059
0.383423
0.382787
0.382154
0.381521
0.38089
0.380261
0.379632
0.379005
0.378379
0.377754
0.37713
0.376507
0.375885
0.375263
0.374642
0.374022
0.373402
0.372783
0.372164
0.371545
0.370927
0.370308
0.444651
0.430793
0.416382
0.414116
0.413147
0.412341
0.411603
0.410894
0.410196
0.409504
0.408813
0.408124
0.407435
0.406746
0.406058
0.40537
0.404683
0.403996
0.40331
0.402624
0.40194
0.401256
0.400573
0.399892
0.399212
0.398533
0.397856
0.39718
0.396506
0.395834
0.395163
0.394495
0.393828
0.393163
0.3925
0.39184
0.391181
0.390524
0.389869
0.389216
0.388565
0.387916
0.387269
0.386623
0.38598
0.385338
0.384698
0.38406
0.383423
0.382787
0.382154
0.381521
0.38089
0.380261
0.379632
0.379005
0.378379
0.377754
0.37713
0.376507
0.375885
0.375263
0.374642
0.374022
0.373402
0.372783
0.372164
0.371545
0.370927
0.370308
0.444651
0.430793
0.416383
0.414116
0.413147
0.412341
0.411603
0.410894
0.410196
0.409504
0.408813
0.408124
0.407435
0.406746
0.406058
0.40537
0.404683
0.403996
0.40331
0.402624
0.40194
0.401256
0.400573
0.399892
0.399212
0.398533
0.397856
0.39718
0.396506
0.395834
0.395163
0.394495
0.393828
0.393163
0.392501
0.39184
0.391181
0.390524
0.389869
0.389216
0.388565
0.387916
0.387269
0.386623
0.38598
0.385338
0.384698
0.38406
0.383423
0.382787
0.382154
0.381521
0.38089
0.380261
0.379632
0.379005
0.378379
0.377754
0.37713
0.376507
0.375885
0.375263
0.374642
0.374022
0.373402
0.372783
0.372164
0.371545
0.370927
0.370308
0.444651
0.430793
0.416383
0.414116
0.413147
0.412341
0.411603
0.410894
0.410197
0.409504
0.408813
0.408124
0.407435
0.406746
0.406058
0.40537
0.404683
0.403996
0.40331
0.402624
0.40194
0.401256
0.400573
0.399892
0.399212
0.398533
0.397856
0.39718
0.396506
0.395834
0.395163
0.394495
0.393828
0.393163
0.392501
0.39184
0.391181
0.390524
0.389869
0.389216
0.388565
0.387916
0.387269
0.386623
0.38598
0.385338
0.384698
0.38406
0.383423
0.382787
0.382154
0.381521
0.38089
0.380261
0.379632
0.379005
0.378379
0.377754
0.37713
0.376507
0.375885
0.375263
0.374642
0.374022
0.373402
0.372783
0.372164
0.371545
0.370927
0.370308
0.444651
0.430793
0.416383
0.414116
0.413147
0.412341
0.411603
0.410894
0.410197
0.409504
0.408813
0.408124
0.407435
0.406746
0.406058
0.40537
0.404683
0.403996
0.40331
0.402624
0.40194
0.401256
0.400573
0.399892
0.399212
0.398533
0.397856
0.39718
0.396506
0.395834
0.395163
0.394495
0.393828
0.393163
0.392501
0.39184
0.391181
0.390524
0.389869
0.389216
0.388565
0.387916
0.387269
0.386623
0.38598
0.385338
0.384698
0.38406
0.383423
0.382787
0.382154
0.381521
0.38089
0.380261
0.379633
0.379005
0.378379
0.377754
0.37713
0.376507
0.375885
0.375263
0.374642
0.374022
0.373402
0.372783
0.372164
0.371545
0.370927
0.370308
0.444651
0.430793
0.416383
0.414116
0.413147
0.412341
0.411603
0.410894
0.410197
0.409504
0.408813
0.408124
0.407435
0.406746
0.406058
0.40537
0.404683
0.403996
0.40331
0.402624
0.40194
0.401256
0.400573
0.399892
0.399212
0.398533
0.397856
0.39718
0.396506
0.395834
0.395163
0.394495
0.393828
0.393163
0.392501
0.39184
0.391181
0.390524
0.389869
0.389216
0.388565
0.387916
0.387269
0.386623
0.38598
0.385338
0.384698
0.38406
0.383423
0.382787
0.382154
0.381521
0.38089
0.380261
0.379633
0.379005
0.378379
0.377754
0.37713
0.376507
0.375885
0.375263
0.374642
0.374022
0.373402
0.372783
0.372164
0.371545
0.370927
0.370308
0.444651
0.430793
0.416383
0.414116
0.413147
0.412341
0.411603
0.410894
0.410197
0.409504
0.408813
0.408124
0.407435
0.406746
0.406058
0.40537
0.404683
0.403996
0.40331
0.402624
0.40194
0.401256
0.400573
0.399892
0.399212
0.398533
0.397856
0.39718
0.396506
0.395834
0.395163
0.394495
0.393828
0.393163
0.392501
0.39184
0.391181
0.390524
0.389869
0.389216
0.388565
0.387916
0.387269
0.386623
0.38598
0.385338
0.384698
0.38406
0.383423
0.382787
0.382154
0.381521
0.38089
0.380261
0.379633
0.379005
0.378379
0.377754
0.37713
0.376507
0.375885
0.375263
0.374642
0.374022
0.373402
0.372783
0.372164
0.371545
0.370927
0.370308
0.444651
0.430793
0.416383
0.414116
0.413147
0.412341
0.411603
0.410894
0.410197
0.409504
0.408813
0.408124
0.407435
0.406746
0.406058
0.40537
0.404683
0.403996
0.40331
0.402624
0.40194
0.401256
0.400573
0.399892
0.399212
0.398533
0.397856
0.39718
0.396506
0.395834
0.395163
0.394495
0.393828
0.393163
0.392501
0.39184
0.391181
0.390524
0.389869
0.389216
0.388565
0.387916
0.387269
0.386623
0.38598
0.385338
0.384698
0.38406
0.383423
0.382787
0.382154
0.381521
0.38089
0.380261
0.379633
0.379005
0.378379
0.377754
0.37713
0.376507
0.375885
0.375263
0.374642
0.374022
0.373402
0.372783
0.372164
0.371545
0.370927
0.370308
0.444651
0.430793
0.416383
0.414116
0.413147
0.412341
0.411603
0.410894
0.410197
0.409504
0.408813
0.408124
0.407435
0.406746
0.406058
0.40537
0.404683
0.403996
0.40331
0.402624
0.40194
0.401256
0.400573
0.399892
0.399212
0.398533
0.397856
0.39718
0.396506
0.395834
0.395163
0.394495
0.393828
0.393163
0.392501
0.39184
0.391181
0.390524
0.389869
0.389216
0.388565
0.387916
0.387269
0.386623
0.38598
0.385338
0.384698
0.38406
0.383423
0.382787
0.382154
0.381521
0.38089
0.380261
0.379633
0.379005
0.378379
0.377754
0.37713
0.376507
0.375885
0.375263
0.374642
0.374022
0.373402
0.372783
0.372164
0.371545
0.370927
0.370308
0.444651
0.430793
0.416383
0.414116
0.413147
0.412341
0.411603
0.410894