/*--------------------------------*- C++ -*----------------------------------*\
  =========                 |
  \\      /  F ield         | OpenFOAM: The Open Source CFD Toolbox
   \\    /   O peration     | Website:  https://openfoam.org
    \\  /    A nd           | Version:  13
     \\/     M anipulation  |
\*---------------------------------------------------------------------------*/
FoamFile
{
    format      ascii;
    class       volScalarField;
    location    "9";
    object      k;
}
// * * * * * * * * * * * * * * * * * * * * * * * * * * * * * * * * * * * * * //

dimensions      [0 2 -2 0 0 0 0];

internalField   nonuniform List<scalar> 
78750
(
2.12233e-10
6.03881e-09
2.73753e-08
4.96289e-08
7.3044e-08
9.77659e-08
1.23765e-07
1.50804e-07
1.78447e-07
2.06095e-07
2.3304e-07
2.58512e-07
2.81733e-07
3.01958e-07
3.18512e-07
3.3083e-07
3.38479e-07
3.41189e-07
3.38862e-07
3.31582e-07
3.19607e-07
3.03357e-07
2.8339e-07
2.6037e-07
2.3504e-07
2.08173e-07
1.80538e-07
1.52846e-07
1.25698e-07
9.95324e-08
7.45871e-08
5.0881e-08
2.82262e-08
6.27523e-09
2.21453e-10
4.66067e-09
1.34717e-07
6.66657e-07
1.20732e-06
1.76792e-06
2.35306e-06
2.9616e-06
3.58686e-06
4.21772e-06
4.84e-06
5.43801e-06
5.99574e-06
6.49787e-06
6.93037e-06
7.28099e-06
7.5397e-06
7.69903e-06
7.75438e-06
7.70412e-06
7.54971e-06
7.29563e-06
6.94917e-06
6.52025e-06
6.021e-06
5.46535e-06
4.86855e-06
4.24653e-06
3.61495e-06
2.98795e-06
2.37667e-06
1.78779e-06
1.22248e-06
6.76005e-07
1.36806e-07
4.73514e-09
1.319e-08
3.82081e-07
1.86952e-06
3.36042e-06
4.90483e-06
6.51751e-06
8.18909e-06
9.89142e-06
1.15863e-05
1.32325e-05
1.479e-05
1.62216e-05
1.74951e-05
1.85817e-05
1.94562e-05
2.00976e-05
2.04905e-05
2.0625e-05
2.04979e-05
2.01124e-05
1.94778e-05
1.86097e-05
1.75287e-05
1.62599e-05
1.48321e-05
1.32771e-05
1.16319e-05
9.93669e-06
8.23225e-06
6.55675e-06
4.93829e-06
3.3862e-06
1.88558e-06
3.85731e-07
1.33192e-08
2.33488e-08
6.77709e-07
3.26613e-06
5.79086e-06
8.36111e-06
1.10018e-05
1.36945e-05
1.63941e-05
1.90458e-05
2.1596e-05
2.39957e-05
2.61983e-05
2.81567e-05
2.98258e-05
3.11666e-05
3.21477e-05
3.27468e-05
3.29505e-05
3.27542e-05
3.21623e-05
3.1188e-05
2.98536e-05
2.81902e-05
2.62366e-05
2.4038e-05
2.1641e-05
1.90923e-05
1.64408e-05
1.37396e-05
1.10435e-05
8.39721e-06
5.81918e-06
3.28416e-06
6.81942e-07
2.34985e-08
3.14675e-08
9.14928e-07
4.35807e-06
7.64562e-06
1.09473e-05
1.42991e-05
1.76799e-05
2.10381e-05
2.4314e-05
2.74503e-05
3.03934e-05
3.30879e-05
3.54766e-05
3.75062e-05
3.91321e-05
4.03192e-05
4.10427e-05
4.12877e-05
4.10491e-05
4.03319e-05
3.91508e-05
3.75306e-05
3.55061e-05
3.31218e-05
3.04308e-05
2.74903e-05
2.43556e-05
2.108e-05
1.77207e-05
1.43372e-05
1.09806e-05
7.67201e-06
4.3751e-06
9.19041e-07
3.16132e-08
3.62216e-08
1.05443e-06
4.99001e-06
8.70333e-06
1.24054e-05
1.61403e-05
1.98869e-05
2.35923e-05
2.71951e-05
3.0637e-05
3.38617e-05
3.68093e-05
3.94177e-05
4.16305e-05
4.34008e-05
4.46922e-05
4.54786e-05
4.57444e-05
4.54843e-05
4.47036e-05
4.34177e-05
4.16525e-05
3.94444e-05
3.68401e-05
3.38958e-05
3.06734e-05
2.72331e-05
2.36306e-05
1.99244e-05
1.61753e-05
1.24361e-05
8.72777e-06
5.00587e-06
1.05833e-06
3.636e-08
3.84071e-08
1.11884e-06
5.27983e-06
9.18508e-06
1.30661e-05
1.6971e-05
2.08792e-05
2.47372e-05
2.84835e-05
3.20592e-05
3.5407e-05
3.84648e-05
4.11686e-05
4.34608e-05
4.52938e-05
4.66304e-05
4.7444e-05
4.77188e-05
4.74496e-05
4.66414e-05
4.53101e-05
4.34821e-05
4.11943e-05
3.84944e-05
3.54398e-05
3.20944e-05
2.85201e-05
2.47742e-05
2.09153e-05
1.70048e-05
1.30958e-05
9.20873e-06
5.2952e-06
1.12264e-06
3.85424e-08
3.92365e-08
1.14338e-06
5.39017e-06
9.36806e-06
1.33166e-05
1.72855e-05
2.12544e-05
2.51698e-05
2.897e-05
3.2596e-05
3.59899e-05
3.9089e-05
4.18286e-05
4.41506e-05
4.6007e-05
4.73605e-05
4.81844e-05
4.84627e-05
4.819e-05
4.73715e-05
4.60233e-05
4.41718e-05
4.18542e-05
3.91185e-05
3.60226e-05
3.2631e-05
2.90064e-05
2.52067e-05
2.12904e-05
1.73192e-05
1.33462e-05
9.39157e-06
5.40546e-06
1.14717e-06
3.93715e-08
3.95056e-08
1.15137e-06
5.42618e-06
9.42776e-06
1.33983e-05
1.73881e-05
2.13768e-05
2.5311e-05
2.91288e-05
3.27711e-05
3.61802e-05
3.92927e-05
4.2044e-05
4.43758e-05
4.62399e-05
4.7599e-05
4.84262e-05
4.87056e-05
4.84318e-05
4.761e-05
4.62562e-05
4.4397e-05
4.20698e-05
3.93224e-05
3.6213e-05
3.28063e-05
2.91653e-05
2.53479e-05
2.1413e-05
1.74219e-05
1.3428e-05
9.45134e-06
5.44151e-06
1.15518e-06
3.9641e-08
3.95821e-08
1.15365e-06
5.43648e-06
9.44486e-06
1.34218e-05
1.74175e-05
2.1412e-05
2.53515e-05
2.91743e-05
3.28214e-05
3.62348e-05
3.93513e-05
4.2106e-05
4.44405e-05
4.63069e-05
4.76675e-05
4.84958e-05
4.87755e-05
4.85013e-05
4.76786e-05
4.63232e-05
4.44619e-05
4.21318e-05
3.93811e-05
3.62678e-05
3.28567e-05
2.9211e-05
2.53885e-05
2.14482e-05
1.74514e-05
1.34515e-05
9.4685e-06
5.45186e-06
1.15747e-06
3.97179e-08
3.96015e-08
1.15424e-06
5.43912e-06
9.44923e-06
1.34277e-05
1.74251e-05
2.1421e-05
2.53619e-05
2.9186e-05
3.28343e-05
3.62489e-05
3.93663e-05
4.21219e-05
4.44572e-05
4.63241e-05
4.76852e-05
4.85136e-05
4.87935e-05
4.85192e-05
4.76963e-05
4.63405e-05
4.44785e-05
4.21477e-05
3.93962e-05
3.62818e-05
3.28696e-05
2.92227e-05
2.5399e-05
2.14572e-05
1.74589e-05
1.34575e-05
9.4729e-06
5.45451e-06
1.15806e-06
3.97374e-08
3.9606e-08
1.15437e-06
5.43972e-06
9.45024e-06
1.34291e-05
1.74268e-05
2.1423e-05
2.53643e-05
2.91887e-05
3.28373e-05
3.62521e-05
3.93698e-05
4.21256e-05
4.4461e-05
4.63281e-05
4.76893e-05
4.85178e-05
4.87976e-05
4.85234e-05
4.77004e-05
4.63445e-05
4.44824e-05
4.21515e-05
3.93997e-05
3.62851e-05
3.28726e-05
2.92255e-05
2.54014e-05
2.14593e-05
1.74607e-05
1.34589e-05
9.47392e-06
5.45512e-06
1.15819e-06
3.97419e-08
3.96069e-08
1.1544e-06
5.43985e-06
9.45045e-06
1.34294e-05
1.74272e-05
2.14235e-05
2.53648e-05
2.91893e-05
3.2838e-05
3.62528e-05
3.93706e-05
4.21263e-05
4.44619e-05
4.63289e-05
4.76901e-05
4.85187e-05
4.87985e-05
4.85243e-05
4.77012e-05
4.63453e-05
4.44832e-05
4.21522e-05
3.94004e-05
3.62858e-05
3.28733e-05
2.9226e-05
2.54019e-05
2.14598e-05
1.74611e-05
1.34592e-05
9.47413e-06
5.45525e-06
1.15822e-06
3.97429e-08
3.96071e-08
1.1544e-06
5.43987e-06
9.45049e-06
1.34295e-05
1.74272e-05
2.14236e-05
2.53649e-05
2.91894e-05
3.28381e-05
3.62529e-05
3.93707e-05
4.21265e-05
4.4462e-05
4.63291e-05
4.76903e-05
4.85189e-05
4.87987e-05
4.85244e-05
4.77014e-05
4.63455e-05
4.44834e-05
4.21524e-05
3.94006e-05
3.62859e-05
3.28734e-05
2.92261e-05
2.5402e-05
2.14599e-05
1.74611e-05
1.34592e-05
9.47417e-06
5.45528e-06
1.15823e-06
3.9743e-08
3.96071e-08
1.1544e-06
5.43988e-06
9.4505e-06
1.34295e-05
1.74273e-05
2.14236e-05
2.53649e-05
2.91894e-05
3.28381e-05
3.6253e-05
3.93707e-05
4.21265e-05
4.4462e-05
4.63291e-05
4.76903e-05
4.85189e-05
4.87987e-05
4.85245e-05
4.77014e-05
4.63455e-05
4.44834e-05
4.21524e-05
3.94006e-05
3.6286e-05
3.28734e-05
2.92262e-05
2.5402e-05
2.14599e-05
1.74612e-05
1.34592e-05
9.47418e-06
5.45528e-06
1.15823e-06
3.97431e-08
3.96071e-08
1.1544e-06
5.43988e-06
9.4505e-06
1.34295e-05
1.74273e-05
2.14236e-05
2.53649e-05
2.91894e-05
3.28381e-05
3.6253e-05
3.93707e-05
4.21265e-05
4.4462e-05
4.63291e-05
4.76903e-05
4.85189e-05
4.87987e-05
4.85245e-05
4.77014e-05
4.63455e-05
4.44834e-05
4.21524e-05
3.94006e-05
3.6286e-05
3.28734e-05
2.92262e-05
2.5402e-05
2.14599e-05
1.74612e-05
1.34592e-05
9.47418e-06
5.45528e-06
1.15823e-06
3.97431e-08
3.96071e-08
1.1544e-06
5.43988e-06
9.4505e-06
1.34295e-05
1.74273e-05
2.14236e-05
2.53649e-05
2.91894e-05
3.28381e-05
3.6253e-05
3.93708e-05
4.21265e-05
4.4462e-05
4.63291e-05
4.76903e-05
4.85189e-05
4.87987e-05
4.85245e-05
4.77014e-05
4.63455e-05
4.44834e-05
4.21524e-05
3.94006e-05
3.6286e-05
3.28734e-05
2.92262e-05
2.5402e-05
2.14599e-05
1.74612e-05
1.34592e-05
9.47418e-06
5.45528e-06
1.15823e-06
3.97431e-08
3.96071e-08
1.1544e-06
5.43988e-06
9.4505e-06
1.34295e-05
1.74273e-05
2.14236e-05
2.53649e-05
2.91894e-05
3.28381e-05
3.6253e-05
3.93708e-05
4.21265e-05
4.4462e-05
4.63291e-05
4.76903e-05
4.85189e-05
4.87987e-05
4.85245e-05
4.77014e-05
4.63455e-05
4.44834e-05
4.21524e-05
3.94006e-05
3.6286e-05
3.28734e-05
2.92262e-05
2.5402e-05
2.14599e-05
1.74612e-05
1.34592e-05
9.47418e-06
5.45528e-06
1.15823e-06
3.97431e-08
3.96071e-08
1.1544e-06
5.43988e-06
9.4505e-06
1.34295e-05
1.74273e-05
2.14236e-05
2.53649e-05
2.91894e-05
3.28381e-05
3.6253e-05
3.93708e-05
4.21265e-05
4.4462e-05
4.63291e-05
4.76903e-05
4.85189e-05
4.87987e-05
4.85245e-05
4.77014e-05
4.63455e-05
4.44834e-05
4.21524e-05
3.94006e-05
3.6286e-05
3.28734e-05
2.92262e-05
2.5402e-05
2.14599e-05
1.74612e-05
1.34592e-05
9.47418e-06
5.45528e-06
1.15823e-06
3.97431e-08
3.96071e-08
1.1544e-06
5.43988e-06
9.4505e-06
1.34295e-05
1.74273e-05
2.14236e-05
2.53649e-05
2.91894e-05
3.28381e-05
3.6253e-05
3.93708e-05
4.21265e-05
4.4462e-05
4.63291e-05
4.76903e-05
4.85189e-05
4.87987e-05
4.85245e-05
4.77014e-05
4.63455e-05
4.44834e-05
4.21524e-05
3.94006e-05
3.6286e-05
3.28734e-05
2.92262e-05
2.5402e-05
2.14599e-05
1.74612e-05
1.34592e-05
9.47418e-06
5.45528e-06
1.15823e-06
3.97431e-08
3.96071e-08
1.1544e-06
5.43988e-06
9.4505e-06
1.34295e-05
1.74273e-05
2.14236e-05
2.53649e-05
2.91894e-05
3.28381e-05
3.6253e-05
3.93708e-05
4.21265e-05
4.4462e-05
4.63291e-05
4.76903e-05
4.85189e-05
4.87987e-05
4.85245e-05
4.77014e-05
4.63455e-05
4.44834e-05
4.21524e-05
3.94006e-05
3.6286e-05
3.28734e-05
2.92262e-05
2.5402e-05
2.14599e-05
1.74612e-05
1.34592e-05
9.47418e-06
5.45528e-06
1.15823e-06
3.97431e-08
3.96071e-08
1.1544e-06
5.43988e-06
9.4505e-06
1.34295e-05
1.74273e-05
2.14236e-05
2.53649e-05
2.91894e-05
3.28381e-05
3.6253e-05
3.93708e-05
4.21265e-05
4.4462e-05
4.63291e-05
4.76903e-05
4.85189e-05
4.87987e-05
4.85245e-05
4.77014e-05
4.63455e-05
4.44834e-05
4.21524e-05
3.94006e-05
3.6286e-05
3.28734e-05
2.92262e-05
2.5402e-05
2.14599e-05
1.74612e-05
1.34592e-05
9.47418e-06
5.45528e-06
1.15823e-06
3.97431e-08
3.96071e-08
1.1544e-06
5.43988e-06
9.4505e-06
1.34295e-05
1.74273e-05
2.14236e-05
2.53649e-05
2.91894e-05
3.28381e-05
3.6253e-05
3.93708e-05
4.21265e-05
4.4462e-05
4.63291e-05
4.76903e-05
4.85189e-05
4.87987e-05
4.85245e-05
4.77014e-05
4.63455e-05
4.44834e-05
4.21524e-05
3.94006e-05
3.6286e-05
3.28734e-05
2.92262e-05
2.5402e-05
2.14599e-05
1.74612e-05
1.34592e-05
9.47418e-06
5.45528e-06
1.15823e-06
3.97431e-08
3.96071e-08
1.1544e-06
5.43988e-06
9.4505e-06
1.34295e-05
1.74273e-05
2.14236e-05
2.53649e-05
2.91894e-05
3.28381e-05
3.6253e-05
3.93708e-05
4.21265e-05
4.4462e-05
4.63291e-05
4.76903e-05
4.85189e-05
4.87987e-05
4.85245e-05
4.77014e-05
4.63455e-05
4.44834e-05
4.21524e-05
3.94006e-05
3.6286e-05
3.28734e-05
2.92262e-05
2.5402e-05
2.14599e-05
1.74612e-05
1.34592e-05
9.47418e-06
5.45528e-06
1.15823e-06
3.97431e-08
3.96071e-08
1.1544e-06
5.43988e-06
9.4505e-06
1.34295e-05
1.74273e-05
2.14236e-05
2.53649e-05
2.91894e-05
3.28381e-05
3.6253e-05
3.93708e-05
4.21265e-05
4.4462e-05
4.63291e-05
4.76903e-05
4.85189e-05
4.87987e-05
4.85245e-05
4.77014e-05
4.63455e-05
4.44834e-05
4.21524e-05
3.94006e-05
3.6286e-05
3.28734e-05
2.92262e-05
2.5402e-05
2.14599e-05
1.74612e-05
1.34592e-05
9.47418e-06
5.45528e-06
1.15823e-06
3.97431e-08
3.96071e-08
1.1544e-06
5.43988e-06
9.4505e-06
1.34295e-05
1.74273e-05
2.14236e-05
2.53649e-05
2.91894e-05
3.28381e-05
3.6253e-05
3.93708e-05
4.21265e-05
4.4462e-05
4.63291e-05
4.76903e-05
4.85189e-05
4.87987e-05
4.85245e-05
4.77014e-05
4.63455e-05
4.44834e-05
4.21524e-05
3.94006e-05
3.6286e-05
3.28734e-05
2.92262e-05
2.5402e-05
2.14599e-05
1.74612e-05
1.34592e-05
9.47418e-06
5.45528e-06
1.15823e-06
3.97431e-08
3.96071e-08
1.1544e-06
5.43988e-06
9.4505e-06
1.34295e-05
1.74273e-05
2.14236e-05
2.53649e-05
2.91894e-05
3.28381e-05
3.6253e-05
3.93708e-05
4.21265e-05
4.4462e-05
4.63291e-05
4.76903e-05
4.85189e-05
4.87987e-05
4.85245e-05
4.77014e-05
4.63455e-05
4.44834e-05
4.21524e-05
3.94006e-05
3.6286e-05
3.28734e-05
2.92262e-05
2.5402e-05
2.14599e-05
1.74612e-05
1.34592e-05
9.47418e-06
5.45528e-06
1.15823e-06
3.97431e-08
3.96071e-08
1.1544e-06
5.43988e-06
9.4505e-06
1.34295e-05
1.74273e-05
2.14236e-05
2.53649e-05
2.91894e-05
3.28381e-05
3.6253e-05
3.93708e-05
4.21265e-05
4.4462e-05
4.63291e-05
4.76903e-05
4.85189e-05
4.87987e-05
4.85245e-05
4.77014e-05
4.63455e-05
4.44834e-05
4.21524e-05
3.94006e-05
3.6286e-05
3.28734e-05
2.92262e-05
2.5402e-05
2.14599e-05
1.74612e-05
1.34592e-05
9.47418e-06
5.45528e-06
1.15823e-06
3.97431e-08
3.96071e-08
1.1544e-06
5.43988e-06
9.4505e-06
1.34295e-05
1.74273e-05
2.14236e-05
2.53649e-05
2.91894e-05
3.28381e-05
3.6253e-05
3.93708e-05
4.21265e-05
4.4462e-05
4.63291e-05
4.76903e-05
4.85189e-05
4.87987e-05
4.85245e-05
4.77014e-05
4.63455e-05
4.44834e-05
4.21524e-05
3.94006e-05
3.6286e-05
3.28734e-05
2.92262e-05
2.5402e-05
2.14599e-05
1.74612e-05
1.34592e-05
9.47418e-06
5.45528e-06
1.15823e-06
3.97431e-08
3.96071e-08
1.1544e-06
5.43988e-06
9.4505e-06
1.34295e-05
1.74273e-05
2.14236e-05
2.53649e-05
2.91894e-05
3.28381e-05
3.6253e-05
3.93708e-05
4.21265e-05
4.4462e-05
4.63291e-05
4.76903e-05
4.85189e-05
4.87987e-05
4.85245e-05
4.77014e-05
4.63455e-05
4.44834e-05
4.21524e-05
3.94006e-05
3.6286e-05
3.28734e-05
2.92262e-05
2.5402e-05
2.14599e-05
1.74612e-05
1.34592e-05
9.47418e-06
5.45528e-06
1.15823e-06
3.97431e-08
3.96071e-08
1.1544e-06
5.43988e-06
9.4505e-06
1.34295e-05
1.74273e-05
2.14236e-05
2.53649e-05
2.91894e-05
3.28381e-05
3.6253e-05
3.93708e-05
4.21265e-05
4.4462e-05
4.63291e-05
4.76903e-05
4.85189e-05
4.87987e-05
4.85245e-05
4.77014e-05
4.63455e-05
4.44834e-05
4.21524e-05
3.94006e-05
3.6286e-05
3.28734e-05
2.92262e-05
2.5402e-05
2.14599e-05
1.74612e-05
1.34592e-05
9.47418e-06
5.45528e-06
1.15823e-06
3.97431e-08
3.96071e-08
1.1544e-06
5.43988e-06
9.4505e-06
1.34295e-05
1.74273e-05
2.14236e-05
2.53649e-05
2.91894e-05
3.28381e-05
3.6253e-05
3.93708e-05
4.21265e-05
4.4462e-05
4.63291e-05
4.76903e-05
4.85189e-05
4.87987e-05
4.85245e-05
4.77014e-05
4.63455e-05
4.44834e-05
4.21524e-05
3.94006e-05
3.6286e-05
3.28734e-05
2.92262e-05
2.5402e-05
2.14599e-05
1.74612e-05
1.34592e-05
9.47418e-06
5.45528e-06
1.15823e-06
3.97431e-08
3.96071e-08
1.1544e-06
5.43988e-06
9.4505e-06
1.34295e-05
1.74273e-05
2.14236e-05
2.53649e-05
2.91894e-05
3.28381e-05
3.6253e-05
3.93708e-05
4.21265e-05
4.4462e-05
4.63291e-05
4.76903e-05
4.85189e-05
4.87987e-05
4.85245e-05
4.77014e-05
4.63455e-05
4.44834e-05
4.21524e-05
3.94006e-05
3.6286e-05
3.28734e-05
2.92262e-05
2.5402e-05
2.14599e-05
1.74612e-05
1.34592e-05
9.47418e-06
5.45528e-06
1.15823e-06
3.97431e-08
3.96071e-08
1.1544e-06
5.43988e-06
9.4505e-06
1.34295e-05
1.74273e-05
2.14236e-05
2.53649e-05
2.91894e-05
3.28381e-05
3.6253e-05
3.93708e-05
4.21265e-05
4.4462e-05
4.63291e-05
4.76903e-05
4.85189e-05
4.87987e-05
4.85245e-05
4.77014e-05
4.63455e-05
4.44834e-05
4.21524e-05
3.94006e-05
3.6286e-05
3.28734e-05
2.92262e-05
2.5402e-05
2.14599e-05
1.74612e-05
1.34592e-05
9.47418e-06
5.45528e-06
1.15823e-06
3.97431e-08
3.96071e-08
1.1544e-06
5.43988e-06
9.4505e-06
1.34295e-05
1.74273e-05
2.14236e-05
2.53649e-05
2.91894e-05
3.28381e-05
3.6253e-05
3.93708e-05
4.21265e-05
4.4462e-05
4.63291e-05
4.76903e-05
4.85189e-05
4.87987e-05
4.85245e-05
4.77014e-05
4.63455e-05
4.44834e-05
4.21524e-05
3.94006e-05
3.6286e-05
3.28734e-05
2.92262e-05
2.5402e-05
2.14599e-05
1.74612e-05
1.34592e-05
9.47418e-06
5.45528e-06
1.15823e-06
3.97431e-08
3.96071e-08
1.1544e-06
5.43988e-06
9.4505e-06
1.34295e-05
1.74273e-05
2.14236e-05
2.53649e-05
2.91894e-05
3.28381e-05
3.6253e-05
3.93708e-05
4.21265e-05
4.4462e-05
4.63291e-05
4.76903e-05
4.85189e-05
4.87987e-05
4.85245e-05
4.77014e-05
4.63455e-05
4.44834e-05
4.21524e-05
3.94006e-05
3.6286e-05
3.28734e-05
2.92262e-05
2.5402e-05
2.14599e-05
1.74612e-05
1.34592e-05
9.47418e-06
5.45528e-06
1.15823e-06
3.97431e-08
3.96071e-08
1.1544e-06
5.43988e-06
9.4505e-06
1.34295e-05
1.74273e-05
2.14236e-05
2.53649e-05
2.91894e-05
3.28381e-05
3.6253e-05
3.93708e-05
4.21265e-05
4.4462e-05
4.63291e-05
4.76903e-05
4.85189e-05
4.87987e-05
4.85245e-05
4.77014e-05
4.63455e-05
4.44834e-05
4.21524e-05
3.94006e-05
3.6286e-05
3.28734e-05
2.92262e-05
2.5402e-05
2.14599e-05
1.74612e-05
1.34592e-05
9.47418e-06
5.45528e-06
1.15823e-06
3.97431e-08
3.96071e-08
1.1544e-06
5.43988e-06
9.4505e-06
1.34295e-05
1.74273e-05
2.14236e-05
2.53649e-05
2.91894e-05
3.28381e-05
3.6253e-05
3.93708e-05
4.21265e-05
4.4462e-05
4.63291e-05
4.76903e-05
4.85189e-05
4.87987e-05
4.85245e-05
4.77014e-05
4.63455e-05
4.44834e-05
4.21524e-05
3.94006e-05
3.6286e-05
3.28734e-05
2.92262e-05
2.5402e-05
2.14599e-05
1.74612e-05
1.34592e-05
9.47418e-06
5.45528e-06
1.15823e-06
3.97431e-08
3.96071e-08
1.1544e-06
5.43988e-06
9.4505e-06
1.34295e-05
1.74273e-05
2.14236e-05
2.53649e-05
2.91894e-05
3.28381e-05
3.6253e-05
3.93708e-05
4.21265e-05
4.4462e-05
4.63291e-05
4.76903e-05
4.85189e-05
4.87987e-05
4.85245e-05
4.77014e-05
4.63455e-05
4.44834e-05
4.21524e-05
3.94006e-05
3.6286e-05
3.28734e-05
2.92262e-05
2.5402e-05
2.14599e-05
1.74612e-05
1.34592e-05
9.47418e-06
5.45528e-06
1.15823e-06
3.97431e-08
3.96071e-08
1.1544e-06
5.43988e-06
9.4505e-06
1.34295e-05
1.74273e-05
2.14236e-05
2.53649e-05
2.91894e-05
3.28381e-05
3.6253e-05
3.93708e-05
4.21265e-05
4.4462e-05
4.63291e-05
4.76903e-05
4.85189e-05
4.87987e-05
4.85245e-05
4.77014e-05
4.63455e-05
4.44834e-05
4.21524e-05
3.94006e-05
3.6286e-05
3.28734e-05
2.92262e-05
2.5402e-05
2.14599e-05
1.74612e-05
1.34592e-05
9.47418e-06
5.45528e-06
1.15823e-06
3.97431e-08
3.96071e-08
1.1544e-06
5.43988e-06
9.4505e-06
1.34295e-05
1.74273e-05
2.14236e-05
2.53649e-05
2.91894e-05
3.28381e-05
3.6253e-05
3.93708e-05
4.21265e-05
4.4462e-05
4.63291e-05
4.76903e-05
4.85189e-05
4.87987e-05
4.85245e-05
4.77014e-05
4.63455e-05
4.44834e-05
4.21524e-05
3.94006e-05
3.6286e-05
3.28734e-05
2.92262e-05
2.5402e-05
2.14599e-05
1.74612e-05
1.34592e-05
9.47418e-06
5.45528e-06
1.15823e-06
3.97431e-08
3.96071e-08
1.1544e-06
5.43988e-06
9.4505e-06
1.34295e-05
1.74273e-05
2.14236e-05
2.53649e-05
2.91894e-05
3.28381e-05
3.6253e-05
3.93708e-05
4.21265e-05
4.4462e-05
4.63291e-05
4.76903e-05
4.85189e-05
4.87987e-05
4.85245e-05
4.77014e-05
4.63455e-05
4.44834e-05
4.21524e-05
3.94006e-05
3.6286e-05
3.28734e-05
2.92262e-05
2.5402e-05
2.14599e-05
1.74612e-05
1.34592e-05
9.47418e-06
5.45528e-06
1.15823e-06
3.97431e-08
3.96071e-08
1.1544e-06
5.43988e-06
9.4505e-06
1.34295e-05
1.74273e-05
2.14236e-05
2.53649e-05
2.91894e-05
3.28381e-05
3.6253e-05
3.93708e-05
4.21265e-05
4.4462e-05
4.63291e-05
4.76903e-05
4.85189e-05
4.87987e-05
4.85245e-05
4.77014e-05
4.63455e-05
4.44834e-05
4.21524e-05
3.94006e-05
3.6286e-05
3.28734e-05
2.92262e-05
2.5402e-05
2.14599e-05
1.74612e-05
1.34592e-05
9.47418e-06
5.45528e-06
1.15823e-06
3.97431e-08
3.96071e-08
1.1544e-06
5.43988e-06
9.4505e-06
1.34295e-05
1.74273e-05
2.14236e-05
2.53649e-05
2.91894e-05
3.28381e-05
3.6253e-05
3.93708e-05
4.21265e-05
4.4462e-05
4.63291e-05
4.76903e-05
4.85189e-05
4.87987e-05
4.85245e-05
4.77014e-05
4.63455e-05
4.44834e-05
4.21524e-05
3.94006e-05
3.6286e-05
3.28734e-05
2.92262e-05
2.5402e-05
2.14599e-05
1.74612e-05
1.34592e-05
9.47418e-06
5.45528e-06
1.15823e-06
3.97431e-08
3.96071e-08
1.1544e-06
5.43988e-06
9.4505e-06
1.34295e-05
1.74273e-05
2.14236e-05
2.53649e-05
2.91894e-05
3.28381e-05
3.6253e-05
3.93708e-05
4.21265e-05
4.4462e-05
4.63291e-05
4.76903e-05
4.85189e-05
4.87987e-05
4.85245e-05
4.77014e-05
4.63455e-05
4.44834e-05
4.21524e-05
3.94006e-05
3.6286e-05
3.28734e-05
2.92262e-05
2.5402e-05
2.14599e-05
1.74612e-05
1.34592e-05
9.47418e-06
5.45528e-06
1.15823e-06
3.97431e-08
3.96071e-08
1.1544e-06
5.43988e-06
9.4505e-06
1.34295e-05
1.74273e-05
2.14236e-05
2.53649e-05
2.91894e-05
3.28381e-05
3.6253e-05
3.93708e-05
4.21265e-05
4.4462e-05
4.63291e-05
4.76903e-05
4.85189e-05
4.87987e-05
4.85245e-05
4.77014e-05
4.63455e-05
4.44834e-05
4.21524e-05
3.94006e-05
3.6286e-05
3.28734e-05
2.92262e-05
2.5402e-05
2.14599e-05
1.74612e-05
1.34592e-05
9.47418e-06
5.45528e-06
1.15823e-06
3.97431e-08
3.96071e-08
1.1544e-06
5.43988e-06
9.4505e-06
1.34295e-05
1.74273e-05
2.14236e-05
2.53649e-05
2.91894e-05
3.28381e-05
3.6253e-05
3.93708e-05
4.21265e-05
4.4462e-05
4.63291e-05
4.76903e-05
4.85189e-05
4.87987e-05
4.85245e-05
4.77014e-05
4.63455e-05
4.44834e-05
4.21524e-05
3.94006e-05
3.6286e-05
3.28734e-05
2.92262e-05
2.5402e-05
2.14599e-05
1.74612e-05
1.34592e-05
9.47418e-06
5.45528e-06
1.15823e-06
3.97431e-08
3.96071e-08
1.1544e-06
5.43988e-06
9.4505e-06
1.34295e-05
1.74273e-05
2.14236e-05
2.53649e-05
2.91894e-05
3.28381e-05
3.6253e-05
3.93708e-05
4.21265e-05
4.4462e-05
4.63291e-05
4.76903e-05
4.85189e-05
4.87987e-05
4.85245e-05
4.77014e-05
4.63455e-05
4.44834e-05
4.21524e-05
3.94006e-05
3.6286e-05
3.28734e-05
2.92262e-05
2.5402e-05
2.14599e-05
1.74612e-05
1.34592e-05
9.47418e-06
5.45528e-06
1.15823e-06
3.97431e-08
3.96071e-08
1.1544e-06
5.43988e-06
9.4505e-06
1.34295e-05
1.74273e-05
2.14236e-05
2.53649e-05
2.91894e-05
3.28381e-05
3.6253e-05
3.93708e-05
4.21265e-05
4.4462e-05
4.63291e-05
4.76903e-05
4.85189e-05
4.87987e-05
4.85245e-05
4.77014e-05
4.63455e-05
4.44834e-05
4.21524e-05
3.94006e-05
3.6286e-05
3.28734e-05
2.92262e-05
2.5402e-05
2.14599e-05
1.74612e-05
1.34592e-05
9.47418e-06
5.45528e-06
1.15823e-06
3.97431e-08
3.96071e-08
1.1544e-06
5.43988e-06
9.4505e-06
1.34295e-05
1.74273e-05
2.14236e-05
2.53649e-05
2.91894e-05
3.28381e-05
3.6253e-05
3.93708e-05
4.21265e-05
4.4462e-05
4.63291e-05
4.76903e-05
4.85189e-05
4.87987e-05
4.85245e-05
4.77014e-05
4.63455e-05
4.44834e-05
4.21524e-05
3.94006e-05
3.6286e-05
3.28734e-05
2.92262e-05
2.5402e-05
2.14599e-05
1.74612e-05
1.34592e-05
9.47418e-06
5.45528e-06
1.15823e-06
3.97431e-08
3.96071e-08
1.1544e-06
5.43988e-06
9.4505e-06
1.34295e-05
1.74273e-05
2.14236e-05
2.53649e-05
2.91894e-05
3.28381e-05
3.6253e-05
3.93708e-05
4.21265e-05
4.4462e-05
4.63291e-05
4.76903e-05
4.85189e-05
4.87987e-05
4.85245e-05
4.77014e-05
4.63455e-05
4.44834e-05
4.21524e-05
3.94006e-05
3.6286e-05
3.28734e-05
2.92262e-05
2.5402e-05
2.14599e-05
1.74612e-05
1.34592e-05
9.47418e-06
5.45528e-06
1.15823e-06
3.97431e-08
3.96071e-08
1.1544e-06
5.43988e-06
9.4505e-06
1.34295e-05
1.74273e-05
2.14236e-05
2.53649e-05
2.91894e-05
3.28381e-05
3.6253e-05
3.93708e-05
4.21265e-05
4.4462e-05
4.63291e-05
4.76903e-05
4.85189e-05
4.87987e-05
4.85245e-05
4.77014e-05
4.63455e-05
4.44834e-05
4.21524e-05
3.94006e-05
3.6286e-05
3.28734e-05
2.92262e-05
2.5402e-05
2.14599e-05
1.74612e-05
1.34592e-05
9.47418e-06
5.45528e-06
1.15823e-06
3.97431e-08
3.96071e-08
1.1544e-06
5.43988e-06
9.4505e-06
1.34295e-05
1.74273e-05
2.14236e-05
2.53649e-05
2.91894e-05
3.28381e-05
3.6253e-05
3.93708e-05
4.21265e-05
4.4462e-05
4.63291e-05
4.76903e-05
4.85189e-05
4.87987e-05
4.85245e-05
4.77014e-05
4.63455e-05
4.44834e-05
4.21524e-05
3.94006e-05
3.6286e-05
3.28734e-05
2.92262e-05
2.5402e-05
2.14599e-05
1.74612e-05
1.34592e-05
9.47418e-06
5.45528e-06
1.15823e-06
3.97431e-08
3.96071e-08
1.1544e-06
5.43988e-06
9.4505e-06
1.34295e-05
1.74273e-05
2.14236e-05
2.53649e-05
2.91894e-05
3.28381e-05
3.6253e-05
3.93708e-05
4.21265e-05
4.4462e-05
4.63291e-05
4.76903e-05
4.85189e-05
4.87987e-05
4.85245e-05
4.77014e-05
4.63455e-05
4.44834e-05
4.21524e-05
3.94006e-05
3.6286e-05
3.28734e-05
2.92262e-05
2.5402e-05
2.14599e-05
1.74612e-05
1.34592e-05
9.47418e-06
5.45528e-06
1.15823e-06
3.97431e-08
3.96071e-08
1.1544e-06
5.43988e-06
9.4505e-06
1.34295e-05
1.74273e-05
2.14236e-05
2.53649e-05
2.91894e-05
3.28381e-05
3.6253e-05
3.93708e-05
4.21265e-05
4.4462e-05
4.63291e-05
4.76903e-05
4.85189e-05
4.87987e-05
4.85245e-05
4.77014e-05
4.63455e-05
4.44834e-05
4.21524e-05
3.94006e-05
3.6286e-05
3.28734e-05
2.92262e-05
2.5402e-05
2.14599e-05
1.74612e-05
1.34592e-05
9.47418e-06
5.45528e-06
1.15823e-06
3.97431e-08
3.96071e-08
1.1544e-06
5.43988e-06
9.4505e-06
1.34295e-05
1.74273e-05
2.14236e-05
2.53649e-05
2.91894e-05
3.28381e-05
3.6253e-05
3.93708e-05
4.21265e-05
4.4462e-05
4.63291e-05
4.76903e-05
4.85189e-05
4.87987e-05
4.85245e-05
4.77014e-05
4.63455e-05
4.44834e-05
4.21524e-05
3.94006e-05
3.6286e-05
3.28734e-05
2.92262e-05
2.5402e-05
2.14599e-05
1.74612e-05
1.34592e-05
9.47418e-06
5.45528e-06
1.15823e-06
3.97431e-08
3.96071e-08
1.1544e-06
5.43988e-06
9.4505e-06
1.34295e-05
1.74273e-05
2.14236e-05
2.53649e-05
2.91894e-05
3.28381e-05
3.6253e-05
3.93708e-05
4.21265e-05
4.4462e-05
4.63291e-05
4.76903e-05
4.85189e-05
4.87987e-05
4.85245e-05
4.77014e-05
4.63455e-05
4.44834e-05
4.21524e-05
3.94006e-05
3.6286e-05
3.28734e-05
2.92262e-05
2.5402e-05
2.14599e-05
1.74612e-05
1.34592e-05
9.47418e-06
5.45528e-06
1.15823e-06
3.97431e-08
3.96071e-08
1.1544e-06
5.43988e-06
9.4505e-06
1.34295e-05
1.74273e-05
2.14236e-05
2.53649e-05
2.91894e-05
3.28381e-05
3.6253e-05
3.93708e-05
4.21265e-05
4.4462e-05
4.63291e-05
4.76903e-05
4.85189e-05
4.87987e-05
4.85245e-05
4.77014e-05
4.63455e-05
4.44834e-05
4.21524e-05
3.94006e-05
3.6286e-05
3.28734e-05
2.92262e-05
2.5402e-05
2.14599e-05
1.74612e-05
1.34592e-05
9.47418e-06
5.45528e-06
1.15823e-06
3.97431e-08
3.96071e-08
1.1544e-06
5.43988e-06
9.4505e-06
1.34295e-05
1.74273e-05
2.14236e-05
2.53649e-05
2.91894e-05
3.28381e-05
3.6253e-05
3.93708e-05
4.21265e-05
4.4462e-05
4.63291e-05
4.76903e-05
4.85189e-05
4.87987e-05
4.85245e-05
4.77014e-05
4.63455e-05
4.44834e-05
4.21524e-05
3.94006e-05
3.6286e-05
3.28734e-05
2.92262e-05
2.5402e-05
2.14599e-05
1.74612e-05
1.34592e-05
9.47418e-06
5.45528e-06
1.15823e-06
3.97431e-08
3.96071e-08
1.1544e-06
5.43988e-06
9.4505e-06
1.34295e-05
1.74273e-05
2.14236e-05
2.53649e-05
2.91894e-05
3.28381e-05
3.6253e-05
3.93708e-05
4.21265e-05
4.4462e-05
4.63291e-05
4.76903e-05
4.85189e-05
4.87987e-05
4.85245e-05
4.77014e-05
4.63455e-05
4.44834e-05
4.21524e-05
3.94006e-05
3.6286e-05
3.28734e-05
2.92262e-05
2.5402e-05
2.14599e-05
1.74612e-05
1.34592e-05
9.47418e-06
5.45528e-06
1.15823e-06
3.97431e-08
3.96071e-08
1.1544e-06
5.43988e-06
9.4505e-06
1.34295e-05
1.74273e-05
2.14236e-05
2.53649e-05
2.91894e-05
3.28381e-05
3.6253e-05
3.93708e-05
4.21265e-05
4.4462e-05
4.63291e-05
4.76903e-05
4.85189e-05
4.87987e-05
4.85245e-05
4.77014e-05
4.63455e-05
4.44834e-05
4.21524e-05
3.94006e-05
3.6286e-05
3.28734e-05
2.92262e-05
2.5402e-05
2.14599e-05
1.74612e-05
1.34592e-05
9.47418e-06
5.45528e-06
1.15823e-06
3.97431e-08
3.96071e-08
1.1544e-06
5.43988e-06
9.4505e-06
1.34295e-05
1.74273e-05
2.14236e-05
2.53649e-05
2.91894e-05
3.28381e-05
3.6253e-05
3.93708e-05
4.21265e-05
4.4462e-05
4.63291e-05
4.76903e-05
4.85189e-05
4.87987e-05
4.85245e-05
4.77014e-05
4.63455e-05
4.44834e-05
4.21524e-05
3.94006e-05
3.6286e-05
3.28734e-05
2.92262e-05
2.5402e-05
2.14599e-05
1.74612e-05
1.34592e-05
9.47418e-06
5.45528e-06
1.15823e-06
3.97431e-08
3.96071e-08
1.1544e-06
5.43988e-06
9.4505e-06
1.34295e-05
1.74273e-05
2.14236e-05
2.53649e-05
2.91894e-05
3.28381e-05
3.6253e-05
3.93708e-05
4.21265e-05
4.4462e-05
4.63291e-05
4.76903e-05
4.85189e-05
4.87987e-05
4.85245e-05
4.77014e-05
4.63455e-05
4.44834e-05
4.21524e-05
3.94006e-05
3.6286e-05
3.28734e-05
2.92262e-05
2.5402e-05
2.14599e-05
1.74612e-05
1.34592e-05
9.47418e-06
5.45528e-06
1.15823e-06
3.97431e-08
3.96071e-08
1.1544e-06
5.43988e-06
9.4505e-06
1.34295e-05
1.74273e-05
2.14236e-05
2.53649e-05
2.91894e-05
3.28381e-05
3.6253e-05
3.93708e-05
4.21265e-05
4.4462e-05
4.63291e-05
4.76903e-05
4.85189e-05
4.87987e-05
4.85245e-05
4.77014e-05
4.63455e-05
4.44834e-05
4.21524e-05
3.94006e-05
3.6286e-05
3.28734e-05
2.92262e-05
2.5402e-05
2.14599e-05
1.74612e-05
1.34592e-05
9.47418e-06
5.45528e-06
1.15823e-06
3.97431e-08
3.96071e-08
1.1544e-06
5.43988e-06
9.4505e-06
1.34295e-05
1.74273e-05
2.14236e-05
2.53649e-05
2.91894e-05
3.28381e-05
3.6253e-05
3.93708e-05
4.21265e-05
4.4462e-05
4.63291e-05
4.76903e-05
4.85189e-05
4.87987e-05
4.85245e-05
4.77014e-05
4.63455e-05
4.44834e-05
4.21524e-05
3.94006e-05
3.6286e-05
3.28734e-05
2.92262e-05
2.5402e-05
2.14599e-05
1.74612e-05
1.34592e-05
9.47418e-06
5.45528e-06
1.15823e-06
3.97431e-08
3.96071e-08
1.1544e-06
5.43988e-06
9.4505e-06
1.34295e-05
1.74273e-05
2.14236e-05
2.53649e-05
2.91894e-05
3.28381e-05
3.6253e-05
3.93708e-05
4.21265e-05
4.4462e-05
4.63291e-05
4.76903e-05
4.85189e-05
4.87987e-05
4.85245e-05
4.77014e-05
4.63455e-05
4.44834e-05
4.21524e-05
3.94006e-05
3.6286e-05
3.28734e-05
2.92262e-05
2.5402e-05
2.14599e-05
1.74612e-05
1.34592e-05
9.47418e-06
5.45528e-06
1.15823e-06
3.97431e-08
3.96071e-08
1.1544e-06
5.43988e-06
9.4505e-06
1.34295e-05
1.74273e-05
2.14236e-05
2.53649e-05
2.91894e-05
3.28381e-05
3.6253e-05
3.93708e-05
4.21265e-05
4.4462e-05
4.63291e-05
4.76903e-05
4.85189e-05
4.87987e-05
4.85245e-05
4.77014e-05
4.63455e-05
4.44834e-05
4.21524e-05
3.94006e-05
3.6286e-05
3.28734e-05
2.92262e-05
2.5402e-05
2.14599e-05
1.74612e-05
1.34592e-05
9.47418e-06
5.45528e-06
1.15823e-06
3.97431e-08
3.96071e-08
1.1544e-06
5.43988e-06
9.4505e-06
1.34295e-05
1.74273e-05
2.14236e-05
2.53649e-05
2.91894e-05
3.28381e-05
3.6253e-05
3.93708e-05
4.21265e-05
4.4462e-05
4.63291e-05
4.76903e-05
4.85189e-05
4.87987e-05
4.85245e-05
4.77014e-05
4.63455e-05
4.44834e-05
4.21524e-05
3.94006e-05
3.6286e-05
3.28734e-05
2.92262e-05
2.5402e-05
2.14599e-05
1.74612e-05
1.34592e-05
9.47418e-06
5.45528e-06
1.15823e-06
3.97431e-08
3.96071e-08
1.1544e-06
5.43988e-06
9.4505e-06
1.34295e-05
1.74273e-05
2.14236e-05
2.53649e-05
2.91894e-05
3.28381e-05
3.6253e-05
3.93708e-05
4.21265e-05
4.4462e-05
4.63291e-05
4.76903e-05
4.85189e-05
4.87987e-05
4.85245e-05
4.77014e-05
4.63455e-05
4.44834e-05
4.21524e-05
3.94006e-05
3.6286e-05
3.28734e-05
2.92262e-05
2.5402e-05
2.14599e-05
1.74612e-05
1.34592e-05
9.47418e-06
5.45528e-06
1.15823e-06
3.97431e-08
3.96071e-08
1.1544e-06
5.43988e-06
9.4505e-06
1.34295e-05
1.74273e-05
2.14236e-05
2.53649e-05
2.91894e-05
3.28381e-05
3.6253e-05
3.93708e-05
4.21265e-05
4.4462e-05
4.63291e-05
4.76903e-05
4.85189e-05
4.87987e-05
4.85245e-05
4.77014e-05
4.63455e-05
4.44834e-05
4.21524e-05
3.94006e-05
3.6286e-05
3.28734e-05
2.92262e-05
2.5402e-05
2.14599e-05
1.74612e-05
1.34592e-05
9.47418e-06
5.45528e-06
1.15823e-06
3.97431e-08
3.96071e-08
1.1544e-06
5.43988e-06
9.4505e-06
1.34295e-05
1.74273e-05
2.14236e-05
2.53649e-05
2.91894e-05
3.28381e-05
3.6253e-05
3.93708e-05
4.21265e-05
4.4462e-05
4.63291e-05
4.76903e-05
4.85189e-05
4.87987e-05
4.85245e-05
4.77014e-05
4.63455e-05
4.44834e-05
4.21524e-05
3.94006e-05
3.6286e-05
3.28734e-05
2.92262e-05
2.5402e-05
2.14599e-05