/*--------------------------------*- C++ -*----------------------------------*\
  =========                 |
  \\      /  F ield         | OpenFOAM: The Open Source CFD Toolbox
   \\    /   O peration     | Website:  https://openfoam.org
    \\  /    A nd           | Version:  13
     \\/     M anipulation  |
\*---------------------------------------------------------------------------*/
FoamFile
{
    format      ascii;
    class       volScalarField;
    location    "410";
    object      nut;
}
// * * * * * * * * * * * * * * * * * * * * * * * * * * * * * * * * * * * * * //

dimensions      [0 2 -1 0 0 0 0];

internalField   nonuniform List<scalar> 
78750
(
3.27176e-19
2.94458e-18
1.46562e-17
1.46562e-17
1.46562e-17
1.46562e-17
1.46562e-17
1.46562e-17
1.46562e-17
1.46562e-17
1.46562e-17
1.46562e-17
1.46562e-17
1.46562e-17
1.46562e-17
1.46562e-17
1.46562e-17
1.46562e-17
1.46562e-17
1.46562e-17
1.46562e-17
1.46562e-17
1.46562e-17
1.46562e-17
1.46562e-17
1.46562e-17
1.46562e-17
1.46562e-17
1.46562e-17
1.46562e-17
1.46562e-17
1.46562e-17
1.46562e-17
2.94458e-18
3.27176e-19
3.27176e-19
2.94458e-18
1.13993e-16
1.88539e-16
2.6857e-16
3.54528e-16
4.46265e-16
5.42939e-16
6.43017e-16
7.44346e-16
8.44277e-16
9.39827e-16
1.02786e-15
1.10527e-15
1.1692e-15
1.21719e-15
1.24736e-15
1.2585e-15
1.25015e-15
1.22264e-15
1.17704e-15
1.11515e-15
1.03933e-15
9.52389e-16
8.57395e-16
7.57492e-16
6.55699e-16
5.54717e-16
4.56767e-16
3.63457e-16
2.7569e-16
1.93653e-16
1.16887e-16
2.94458e-18
3.27176e-19
3.27176e-19
2.94458e-18
2.71152e-16
4.88743e-16
7.23639e-16
9.79607e-16
1.25797e-15
1.55728e-15
1.87325e-15
2.19895e-15
2.52527e-15
2.84152e-15
3.13614e-15
3.39749e-15
3.61469e-15
3.77833e-15
3.88113e-15
3.91841e-15
3.88847e-15
3.79264e-15
3.63523e-15
3.42323e-15
3.16581e-15
2.87374e-15
2.55858e-15
2.23195e-15
1.90468e-15
1.58605e-15
1.28322e-15
1.00071e-15
7.40172e-16
5.00427e-16
2.77758e-16
2.94458e-18
3.27176e-19
3.27176e-19
3.70848e-18
5.01864e-16
9.19991e-16
1.37271e-15
1.86913e-15
2.41316e-15
3.00283e-15
3.63015e-15
4.2815e-15
4.93837e-15
5.57866e-15
6.17808e-15
6.71197e-15
7.15696e-15
7.49276e-15
7.70356e-15
7.77927e-15
7.71619e-15
7.51733e-15
7.19219e-15
6.75602e-15
6.22874e-15
5.63348e-15
4.99485e-15
4.33722e-15
3.68297e-15
3.05093e-15
2.45514e-15
1.90402e-15
1.3999e-15
9.39159e-16
5.12794e-16
3.78968e-18
3.27176e-19
3.27176e-19
5.54882e-18
7.63243e-16
1.4025e-15
2.09591e-15
2.85798e-15
3.69513e-15
4.60463e-15
5.57431e-15
6.58314e-15
7.60234e-15
8.59735e-15
9.5301e-15
1.03617e-14
1.10553e-14
1.15788e-14
1.19071e-14
1.20242e-14
1.19245e-14
1.16126e-14
1.11038e-14
1.04223e-14
9.59977e-15
8.6727e-15
7.67989e-15
6.65956e-15
5.64665e-15
4.67038e-15
3.7524e-15
2.90544e-15
2.13276e-15
1.42836e-15
7.77865e-16
5.65713e-18
3.27176e-19
3.27176e-19
7.34836e-18
1.01866e-15
1.87362e-15
2.80135e-15
3.82147e-15
4.94273e-15
6.16154e-15
7.46168e-15
8.81488e-15
1.01825e-14
1.15182e-14
1.27705e-14
1.38872e-14
1.48185e-14
1.55213e-14
1.59617e-14
1.61182e-14
1.5983e-14
1.55629e-14
1.48781e-14
1.39617e-14
1.28561e-14
1.16107e-14
1.02778e-14
8.90874e-15
7.55045e-15
6.24217e-15
5.01286e-15
3.87949e-15
2.84631e-15
1.90508e-15
1.03639e-15
7.47942e-18
3.27176e-19
3.27176e-19
8.97228e-18
1.24912e-15
2.29859e-15
3.43738e-15
4.68967e-15
6.06622e-15
7.56269e-15
9.15912e-15
1.08208e-14
1.25003e-14
1.41405e-14
1.56784e-14
1.70496e-14
1.81932e-14
1.90558e-14
1.9596e-14
1.97875e-14
1.96206e-14
1.91036e-14
1.82618e-14
1.71354e-14
1.57769e-14
1.4247e-14
1.26099e-14
1.09288e-14
9.26118e-15
7.65532e-15
6.14673e-15
4.75618e-15
3.48883e-15
2.33452e-15
1.26934e-15
9.12142e-18
3.27176e-19
3.27176e-19
1.03534e-17
1.44514e-15
2.65998e-15
3.97814e-15
5.42764e-15
7.02095e-15
8.75303e-15
1.06008e-14
1.2524e-14
1.44679e-14
1.63661e-14
1.81458e-14
1.97326e-14
2.10557e-14
2.20535e-14
2.26782e-14
2.28991e-14
2.27053e-14
2.21062e-14
2.11312e-14
1.9827e-14
1.82544e-14
1.64834e-14
1.45885e-14
1.26429e-14
1.07131e-14
8.85493e-15
7.10944e-15
5.50069e-15
4.03458e-15
2.69932e-15
1.46723e-15
1.05163e-17
3.27176e-19
3.27176e-19
1.14673e-17
1.60324e-15
2.95145e-15
4.41424e-15
6.02271e-15
7.79072e-15
9.71265e-15
1.17629e-14
1.38968e-14
1.60535e-14
1.81596e-14
2.0134e-14
2.18943e-14
2.33619e-14
2.44685e-14
2.51611e-14
2.54056e-14
2.519e-14
2.45248e-14
2.34425e-14
2.19951e-14
2.02499e-14
1.82848e-14
1.61824e-14
1.40237e-14
1.18827e-14
9.82133e-15
7.88504e-15
6.1005e-15
4.47427e-15
2.99324e-15
1.62668e-15
1.16399e-17
3.27176e-19
3.27176e-19
1.232e-17
1.7243e-15
3.17461e-15
4.74813e-15
6.4783e-15
8.38002e-15
1.04473e-14
1.26525e-14
1.49477e-14
1.72673e-14
1.95323e-14
2.16557e-14
2.35487e-14
2.51268e-14
2.63167e-14
2.70611e-14
2.73237e-14
2.70913e-14
2.63754e-14
2.5211e-14
2.36539e-14
2.17766e-14
1.9663e-14
1.74017e-14
1.508e-14
1.27775e-14
1.05606e-14
8.47833e-15
6.55932e-15
4.8106e-15
3.21806e-15
1.74863e-15
1.24992e-17
3.27176e-19
3.27176e-19
1.29397e-17
1.81228e-15
3.33681e-15
4.9908e-15
6.80941e-15
8.80831e-15
1.09812e-14
1.3299e-14
1.57113e-14
1.81493e-14
2.05298e-14
2.27615e-14
2.47509e-14
2.64093e-14
2.76596e-14
2.84417e-14
2.87173e-14
2.84727e-14
2.77199e-14
2.64958e-14
2.48589e-14
2.28857e-14
2.0664e-14
1.82873e-14
1.58472e-14
1.34273e-14
1.10975e-14
8.90918e-15
6.8925e-15
5.05482e-15
3.3813e-15
1.83717e-15
1.31229e-17
3.27176e-19
3.27176e-19
1.33671e-17
1.87298e-15
3.44871e-15
5.15822e-15
7.03785e-15
9.1038e-15
1.13495e-14
1.3745e-14
1.62382e-14
1.87578e-14
2.12181e-14
2.35244e-14
2.55802e-14
2.7294e-14
2.8586e-14
2.9394e-14
2.96786e-14
2.94255e-14
2.86473e-14
2.73819e-14
2.569e-14
2.36505e-14
2.13544e-14
1.8898e-14
1.63762e-14
1.38754e-14
1.14676e-14
9.20619e-15
7.12217e-15
5.22315e-15
3.4938e-15
1.8982e-15
1.35527e-17
3.27176e-19
3.27176e-19
1.3647e-17
1.91275e-15
3.52204e-15
5.26792e-15
7.18754e-15
9.29742e-15
1.15909e-14
1.40373e-14
1.65834e-14
1.91566e-14
2.1669e-14
2.40242e-14
2.61237e-14
2.78737e-14
2.9193e-14
3.0018e-14
3.03084e-14
3.00497e-14
2.92548e-14
2.79623e-14
2.62344e-14
2.41515e-14
2.18065e-14
1.9298e-14
1.67226e-14
1.41687e-14
1.171e-14
9.40066e-15
7.27253e-15
5.33335e-15
3.56745e-15
1.93814e-15
1.38339e-17
3.27176e-19
3.27176e-19
1.38213e-17
1.93752e-15
3.5677e-15
5.33624e-15
7.28076e-15
9.418e-15
1.17412e-14
1.42193e-14
1.67985e-14
1.94049e-14
2.19499e-14
2.43356e-14
2.64621e-14
2.82348e-14
2.9571e-14
3.04066e-14
3.07006e-14
3.04385e-14
2.96331e-14
2.83238e-14
2.65734e-14
2.44634e-14
2.2088e-14
1.9547e-14
1.69383e-14
1.43514e-14
1.18608e-14
9.52168e-15
7.36609e-15
5.40192e-15
3.61328e-15
1.96299e-15
1.40087e-17
3.27176e-19
3.27176e-19
1.39246e-17
1.9522e-15
3.59477e-15
5.37674e-15
7.33602e-15
9.48948e-15
1.18303e-14
1.43272e-14
1.69259e-14
1.95521e-14
2.21163e-14
2.45201e-14
2.66627e-14
2.84488e-14
2.9795e-14
3.06369e-14
3.0933e-14
3.06688e-14
2.98573e-14
2.85379e-14
2.67742e-14
2.46482e-14
2.22548e-14
1.96945e-14
1.7066e-14
1.44595e-14
1.19502e-14
9.59335e-15
7.4215e-15
5.44252e-15
3.64041e-15
1.9777e-15
1.41122e-17
3.27176e-19
3.27176e-19
1.39828e-17
1.96049e-15
3.61005e-15
5.3996e-15
7.36722e-15
9.52984e-15
1.18806e-14
1.43881e-14
1.69979e-14
1.96352e-14
2.22104e-14
2.46243e-14
2.6776e-14
2.85696e-14
2.99216e-14
3.07669e-14
3.10643e-14
3.07989e-14
2.99839e-14
2.86589e-14
2.68876e-14
2.47525e-14
2.2349e-14
1.97778e-14
1.71381e-14
1.45206e-14
1.20006e-14
9.6338e-15
7.45277e-15
5.46544e-15
3.65572e-15
1.986e-15
1.41706e-17
3.27176e-19
3.27176e-19
1.40142e-17
1.96496e-15
3.61829e-15
5.41193e-15
7.38404e-15
9.55159e-15
1.19077e-14
1.4421e-14
1.70367e-14
1.968e-14
2.2261e-14
2.46805e-14
2.68371e-14
2.86348e-14
2.99898e-14
3.0837e-14
3.1135e-14
3.0869e-14
3.00521e-14
2.87241e-14
2.69487e-14
2.48088e-14
2.23997e-14
1.98226e-14
1.7177e-14
1.45535e-14
1.20277e-14
9.65558e-15
7.46961e-15
5.47777e-15
3.66396e-15
1.99047e-15
1.4202e-17
3.27176e-19
3.27176e-19
1.40304e-17
1.96726e-15
3.62253e-15
5.41827e-15
7.3927e-15
9.5628e-15
1.19217e-14
1.44379e-14
1.70567e-14
1.97031e-14
2.22872e-14
2.47094e-14
2.68686e-14
2.86683e-14
3.00249e-14
3.08731e-14
3.11715e-14
3.09052e-14
3.00872e-14
2.87576e-14
2.69802e-14
2.48377e-14
2.24258e-14
1.98457e-14
1.7197e-14
1.45704e-14
1.20417e-14
9.66679e-15
7.47827e-15
5.48412e-15
3.6682e-15
1.99277e-15
1.42182e-17
3.27176e-19
3.27176e-19
1.40384e-17
1.96839e-15
3.62462e-15
5.4214e-15
7.39696e-15
9.56832e-15
1.19286e-14
1.44462e-14
1.70665e-14
1.97145e-14
2.23e-14
2.47237e-14
2.68841e-14
2.86849e-14
3.00422e-14
3.08909e-14
3.11895e-14
3.0923e-14
3.01045e-14
2.87742e-14
2.69957e-14
2.4852e-14
2.24387e-14
1.98571e-14
1.72068e-14
1.45787e-14
1.20486e-14
9.67232e-15
7.48254e-15
5.48725e-15
3.67029e-15
1.9939e-15
1.42261e-17
3.27176e-19
3.27176e-19
1.40421e-17
1.96892e-15
3.62561e-15
5.42288e-15
7.39898e-15
9.57093e-15
1.19318e-14
1.44502e-14
1.70712e-14
1.97199e-14
2.23061e-14
2.47304e-14
2.68914e-14
2.86927e-14
3.00504e-14
3.08993e-14
3.11979e-14
3.09314e-14
3.01127e-14
2.8782e-14
2.7003e-14
2.48587e-14
2.24448e-14
1.98625e-14
1.72115e-14
1.45827e-14
1.20519e-14
9.67493e-15
7.48456e-15
5.48872e-15
3.67127e-15
1.99443e-15
1.42299e-17
3.27176e-19
3.27176e-19
1.40438e-17
1.96917e-15
3.62605e-15
5.42355e-15
7.3999e-15
9.57211e-15
1.19333e-14
1.4452e-14
1.70733e-14
1.97223e-14
2.23089e-14
2.47335e-14
2.68947e-14
2.86962e-14
3.00541e-14
3.09032e-14
3.12018e-14
3.09352e-14
3.01164e-14
2.87855e-14
2.70063e-14
2.48618e-14
2.24475e-14
1.98649e-14
1.72136e-14
1.45845e-14
1.20533e-14
9.67611e-15
7.48547e-15
5.48939e-15
3.67172e-15
1.99468e-15
1.42316e-17
3.27176e-19
3.27176e-19
1.40446e-17
1.96927e-15
3.62625e-15
5.42384e-15
7.4003e-15
9.57263e-15
1.19339e-14
1.44527e-14
1.70742e-14
1.97234e-14
2.23101e-14
2.47348e-14
2.68962e-14
2.86978e-14
3.00557e-14
3.09048e-14
3.12035e-14
3.09368e-14
3.0118e-14
2.87871e-14
2.70078e-14
2.48631e-14
2.24487e-14
1.9866e-14
1.72145e-14
1.45852e-14
1.2054e-14
9.67662e-15
7.48587e-15
5.48968e-15
3.67192e-15
1.99478e-15
1.42323e-17
3.27176e-19
3.27176e-19
1.40449e-17
1.96932e-15
3.62633e-15
5.42396e-15
7.40046e-15
9.57284e-15
1.19342e-14
1.44531e-14
1.70746e-14
1.97238e-14
2.23106e-14
2.47354e-14
2.68968e-14
2.86984e-14
3.00564e-14
3.09055e-14
3.12042e-14
3.09375e-14
3.01187e-14
2.87877e-14
2.70084e-14
2.48637e-14
2.24492e-14
1.98664e-14
1.72149e-14
1.45856e-14
1.20542e-14
9.67684e-15
7.48603e-15
5.48981e-15
3.672e-15
1.99483e-15
1.42326e-17
3.27176e-19
3.27176e-19
1.4045e-17
1.96934e-15
3.62636e-15
5.42401e-15
7.40053e-15
9.57293e-15
1.19343e-14
1.44532e-14
1.70747e-14
1.9724e-14
2.23108e-14
2.47356e-14
2.6897e-14
2.86987e-14
3.00567e-14
3.09058e-14
3.12045e-14
3.09378e-14
3.0119e-14
2.8788e-14
2.70086e-14
2.48639e-14
2.24494e-14
1.98666e-14
1.72151e-14
1.45857e-14
1.20544e-14
9.67693e-15
7.4861e-15
5.48985e-15
3.67203e-15
1.99484e-15
1.42327e-17
3.27176e-19
3.27176e-19
1.40451e-17
1.96934e-15
3.62638e-15
5.42403e-15
7.40056e-15
9.57296e-15
1.19344e-14
1.44533e-14
1.70748e-14
1.97241e-14
2.23109e-14
2.47357e-14
2.68971e-14
2.86988e-14
3.00568e-14
3.09059e-14
3.12046e-14
3.09379e-14
3.01191e-14
2.87881e-14
2.70087e-14
2.4864e-14
2.24495e-14
1.98667e-14
1.72151e-14
1.45858e-14
1.20544e-14
9.67696e-15
7.48613e-15
5.48987e-15
3.67204e-15
1.99485e-15
1.42328e-17
3.27176e-19
3.27176e-19
1.40451e-17
1.96935e-15
3.62638e-15
5.42404e-15
7.40057e-15
9.57298e-15
1.19344e-14
1.44533e-14
1.70748e-14
1.97241e-14
2.23109e-14
2.47357e-14
2.68972e-14
2.86988e-14
3.00568e-14
3.0906e-14
3.12046e-14
3.0938e-14
3.01191e-14
2.87881e-14
2.70088e-14
2.4864e-14
2.24495e-14
1.98667e-14
1.72152e-14
1.45858e-14
1.20544e-14
9.67697e-15
7.48614e-15
5.48988e-15
3.67205e-15
1.99485e-15
1.42328e-17
3.27176e-19
3.27176e-19
1.40451e-17
1.96935e-15
3.62638e-15
5.42404e-15
7.40057e-15
9.57298e-15
1.19344e-14
1.44533e-14
1.70748e-14
1.97241e-14
2.23109e-14
2.47358e-14
2.68972e-14
2.86988e-14
3.00568e-14
3.0906e-14
3.12046e-14
3.0938e-14
3.01192e-14
2.87881e-14
2.70088e-14
2.4864e-14
2.24495e-14
1.98667e-14
1.72152e-14
1.45858e-14
1.20544e-14
9.67698e-15
7.48614e-15
5.48988e-15
3.67205e-15
1.99486e-15
1.42328e-17
3.27176e-19
3.27176e-19
1.40451e-17
1.96935e-15
3.62638e-15
5.42404e-15
7.40057e-15
9.57298e-15
1.19344e-14
1.44533e-14
1.70748e-14
1.97241e-14
2.23109e-14
2.47358e-14
2.68972e-14
2.86988e-14
3.00568e-14
3.0906e-14
3.12046e-14
3.0938e-14
3.01192e-14
2.87881e-14
2.70088e-14
2.4864e-14
2.24495e-14
1.98667e-14
1.72152e-14
1.45858e-14
1.20544e-14
9.67698e-15
7.48614e-15
5.48989e-15
3.67205e-15
1.99486e-15
1.42328e-17
3.27176e-19
3.27176e-19
1.40451e-17
1.96935e-15
3.62638e-15
5.42404e-15
7.40057e-15
9.57298e-15
1.19344e-14
1.44533e-14
1.70748e-14
1.97241e-14
2.23109e-14
2.47358e-14
2.68972e-14
2.86988e-14
3.00568e-14
3.0906e-14
3.12046e-14
3.0938e-14
3.01192e-14
2.87881e-14
2.70088e-14
2.4864e-14
2.24495e-14
1.98667e-14
1.72152e-14
1.45858e-14
1.20544e-14
9.67698e-15
7.48614e-15
5.48989e-15
3.67205e-15
1.99486e-15
1.42328e-17
3.27176e-19
3.27176e-19
1.40451e-17
1.96935e-15
3.62638e-15
5.42404e-15
7.40057e-15
9.57298e-15
1.19344e-14
1.44533e-14
1.70748e-14
1.97241e-14
2.23109e-14
2.47358e-14
2.68972e-14
2.86988e-14
3.00568e-14
3.0906e-14
3.12046e-14
3.0938e-14
3.01192e-14
2.87881e-14
2.70088e-14
2.4864e-14
2.24495e-14
1.98667e-14
1.72152e-14
1.45858e-14
1.20544e-14
9.67698e-15
7.48614e-15
5.48989e-15
3.67205e-15
1.99486e-15
1.42328e-17
3.27176e-19
3.27176e-19
1.40451e-17
1.96935e-15
3.62638e-15
5.42404e-15
7.40057e-15
9.57298e-15
1.19344e-14
1.44533e-14
1.70748e-14
1.97241e-14
2.23109e-14
2.47358e-14
2.68972e-14
2.86988e-14
3.00568e-14
3.0906e-14
3.12046e-14
3.0938e-14
3.01192e-14
2.87881e-14
2.70088e-14
2.4864e-14
2.24495e-14
1.98667e-14
1.72152e-14
1.45858e-14
1.20544e-14
9.67698e-15
7.48614e-15
5.48989e-15
3.67205e-15
1.99486e-15
1.42328e-17
3.27176e-19
3.27176e-19
1.40451e-17
1.96935e-15
3.62638e-15
5.42404e-15
7.40057e-15
9.57298e-15
1.19344e-14
1.44533e-14
1.70748e-14
1.97241e-14
2.23109e-14
2.47358e-14
2.68972e-14
2.86988e-14
3.00568e-14
3.0906e-14
3.12046e-14
3.0938e-14
3.01192e-14
2.87881e-14
2.70088e-14
2.4864e-14
2.24495e-14
1.98667e-14
1.72152e-14
1.45858e-14
1.20544e-14
9.67698e-15
7.48614e-15
5.48989e-15
3.67205e-15
1.99486e-15
1.42328e-17
3.27176e-19
3.27176e-19
1.40451e-17
1.96935e-15
3.62638e-15
5.42404e-15
7.40057e-15
9.57298e-15
1.19344e-14
1.44533e-14
1.70748e-14
1.97241e-14
2.23109e-14
2.47358e-14
2.68972e-14
2.86988e-14
3.00568e-14
3.0906e-14
3.12046e-14
3.0938e-14
3.01192e-14
2.87881e-14
2.70088e-14
2.4864e-14
2.24495e-14
1.98667e-14
1.72152e-14
1.45858e-14
1.20544e-14
9.67698e-15
7.48614e-15
5.48989e-15
3.67205e-15
1.99486e-15
1.42328e-17
3.27176e-19
3.27176e-19
1.40451e-17
1.96935e-15
3.62638e-15
5.42404e-15
7.40057e-15
9.57298e-15
1.19344e-14
1.44533e-14
1.70748e-14
1.97241e-14
2.23109e-14
2.47358e-14
2.68972e-14
2.86988e-14
3.00568e-14
3.0906e-14
3.12046e-14
3.0938e-14
3.01192e-14
2.87881e-14
2.70088e-14
2.4864e-14
2.24495e-14
1.98667e-14
1.72152e-14
1.45858e-14
1.20544e-14
9.67698e-15
7.48614e-15
5.48989e-15
3.67205e-15
1.99486e-15
1.42328e-17
3.27176e-19
3.27176e-19
1.40451e-17
1.96935e-15
3.62638e-15
5.42404e-15
7.40057e-15
9.57298e-15
1.19344e-14
1.44533e-14
1.70748e-14
1.97241e-14
2.23109e-14
2.47358e-14
2.68972e-14
2.86988e-14
3.00568e-14
3.0906e-14
3.12046e-14
3.0938e-14
3.01192e-14
2.87881e-14
2.70088e-14
2.4864e-14
2.24495e-14
1.98667e-14
1.72152e-14
1.45858e-14
1.20544e-14
9.67698e-15
7.48614e-15
5.48989e-15
3.67205e-15
1.99486e-15
1.42328e-17
3.27176e-19
3.27176e-19
1.40451e-17
1.96935e-15
3.62638e-15
5.42404e-15
7.40057e-15
9.57298e-15
1.19344e-14
1.44533e-14
1.70748e-14
1.97241e-14
2.23109e-14
2.47358e-14
2.68972e-14
2.86988e-14
3.00568e-14
3.0906e-14
3.12046e-14
3.0938e-14
3.01192e-14
2.87881e-14
2.70088e-14
2.4864e-14
2.24495e-14
1.98667e-14
1.72152e-14
1.45858e-14
1.20544e-14
9.67698e-15
7.48614e-15
5.48989e-15
3.67205e-15
1.99486e-15
1.42328e-17
3.27176e-19
3.27176e-19
1.40451e-17
1.96935e-15
3.62638e-15
5.42404e-15
7.40057e-15
9.57298e-15
1.19344e-14
1.44533e-14
1.70748e-14
1.97241e-14
2.23109e-14
2.47358e-14
2.68972e-14
2.86988e-14
3.00568e-14
3.0906e-14
3.12046e-14
3.0938e-14
3.01192e-14
2.87881e-14
2.70088e-14
2.4864e-14
2.24495e-14
1.98667e-14
1.72152e-14
1.45858e-14
1.20544e-14
9.67698e-15
7.48614e-15
5.48989e-15
3.67205e-15
1.99486e-15
1.42328e-17
3.27176e-19
3.27176e-19
1.40451e-17
1.96935e-15
3.62638e-15
5.42404e-15
7.40057e-15
9.57298e-15
1.19344e-14
1.44533e-14
1.70748e-14
1.97241e-14
2.23109e-14
2.47358e-14
2.68972e-14
2.86988e-14
3.00568e-14
3.0906e-14
3.12046e-14
3.0938e-14
3.01192e-14
2.87881e-14
2.70088e-14
2.4864e-14
2.24495e-14
1.98667e-14
1.72152e-14
1.45858e-14
1.20544e-14
9.67698e-15
7.48614e-15
5.48989e-15
3.67205e-15
1.99486e-15
1.42328e-17
3.27176e-19
3.27176e-19
1.40451e-17
1.96935e-15
3.62638e-15
5.42404e-15
7.40057e-15
9.57298e-15
1.19344e-14
1.44533e-14
1.70748e-14
1.97241e-14
2.23109e-14
2.47358e-14
2.68972e-14
2.86988e-14
3.00568e-14
3.0906e-14
3.12046e-14
3.0938e-14
3.01192e-14
2.87881e-14
2.70088e-14
2.4864e-14
2.24495e-14
1.98667e-14
1.72152e-14
1.45858e-14
1.20544e-14
9.67698e-15
7.48614e-15
5.48989e-15
3.67205e-15
1.99486e-15
1.42328e-17
3.27176e-19
3.27176e-19
1.40451e-17
1.96935e-15
3.62638e-15
5.42404e-15
7.40057e-15
9.57298e-15
1.19344e-14
1.44533e-14
1.70748e-14
1.97241e-14
2.23109e-14
2.47358e-14
2.68972e-14
2.86988e-14
3.00568e-14
3.0906e-14
3.12046e-14
3.0938e-14
3.01192e-14
2.87881e-14
2.70088e-14
2.4864e-14
2.24495e-14
1.98667e-14
1.72152e-14
1.45858e-14
1.20544e-14
9.67698e-15
7.48614e-15
5.48989e-15
3.67205e-15
1.99486e-15
1.42328e-17
3.27176e-19
3.27176e-19
1.40451e-17
1.96935e-15
3.62638e-15
5.42404e-15
7.40057e-15
9.57298e-15
1.19344e-14
1.44533e-14
1.70748e-14
1.97241e-14
2.23109e-14
2.47358e-14
2.68972e-14
2.86988e-14
3.00568e-14
3.0906e-14
3.12046e-14
3.0938e-14
3.01192e-14
2.87881e-14
2.70088e-14
2.4864e-14
2.24495e-14
1.98667e-14
1.72152e-14
1.45858e-14
1.20544e-14
9.67698e-15
7.48614e-15
5.48989e-15
3.67205e-15
1.99486e-15
1.42328e-17
3.27176e-19
3.27176e-19
1.40451e-17
1.96935e-15
3.62638e-15
5.42404e-15
7.40057e-15
9.57298e-15
1.19344e-14
1.44533e-14
1.70748e-14
1.97241e-14
2.23109e-14
2.47358e-14
2.68972e-14
2.86988e-14
3.00568e-14
3.0906e-14
3.12046e-14
3.0938e-14
3.01192e-14
2.87881e-14
2.70088e-14
2.4864e-14
2.24495e-14
1.98667e-14
1.72152e-14
1.45858e-14
1.20544e-14
9.67698e-15
7.48614e-15
5.48989e-15
3.67205e-15
1.99486e-15
1.42328e-17
3.27176e-19
3.27176e-19
1.40451e-17
1.96935e-15
3.62638e-15
5.42404e-15
7.40057e-15
9.57298e-15
1.19344e-14
1.44533e-14
1.70748e-14
1.97241e-14
2.23109e-14
2.47358e-14
2.68972e-14
2.86988e-14
3.00568e-14
3.0906e-14
3.12046e-14
3.0938e-14
3.01192e-14
2.87881e-14
2.70088e-14
2.4864e-14
2.24495e-14
1.98667e-14
1.72152e-14
1.45858e-14
1.20544e-14
9.67698e-15
7.48614e-15
5.48989e-15
3.67205e-15
1.99486e-15
1.42328e-17
3.27176e-19
3.27176e-19
1.40451e-17
1.96935e-15
3.62638e-15
5.42404e-15
7.40057e-15
9.57298e-15
1.19344e-14
1.44533e-14
1.70748e-14
1.97241e-14
2.23109e-14
2.47358e-14
2.68972e-14
2.86988e-14
3.00568e-14
3.0906e-14
3.12046e-14
3.0938e-14
3.01192e-14
2.87881e-14
2.70088e-14
2.4864e-14
2.24495e-14
1.98667e-14
1.72152e-14
1.45858e-14
1.20544e-14
9.67698e-15
7.48614e-15
5.48989e-15
3.67205e-15
1.99486e-15
1.42328e-17
3.27176e-19
3.27176e-19
1.40451e-17
1.96935e-15
3.62638e-15
5.42404e-15
7.40057e-15
9.57298e-15
1.19344e-14
1.44533e-14
1.70748e-14
1.97241e-14
2.23109e-14
2.47358e-14
2.68972e-14
2.86988e-14
3.00568e-14
3.0906e-14
3.12046e-14
3.0938e-14
3.01192e-14
2.87881e-14
2.70088e-14
2.4864e-14
2.24495e-14
1.98667e-14
1.72152e-14
1.45858e-14
1.20544e-14
9.67698e-15
7.48614e-15
5.48989e-15
3.67205e-15
1.99486e-15
1.42328e-17
3.27176e-19
3.27176e-19
1.40451e-17
1.96935e-15
3.62638e-15
5.42404e-15
7.40057e-15
9.57298e-15
1.19344e-14
1.44533e-14
1.70748e-14
1.97241e-14
2.23109e-14
2.47358e-14
2.68972e-14
2.86988e-14
3.00568e-14
3.0906e-14
3.12046e-14
3.0938e-14
3.01192e-14
2.87881e-14
2.70088e-14
2.4864e-14
2.24495e-14
1.98667e-14
1.72152e-14
1.45858e-14
1.20544e-14
9.67698e-15
7.48614e-15
5.48989e-15
3.67205e-15
1.99486e-15
1.42328e-17
3.27176e-19
3.27176e-19
1.40451e-17
1.96935e-15
3.62638e-15
5.42404e-15
7.40057e-15
9.57298e-15
1.19344e-14
1.44533e-14
1.70748e-14
1.97241e-14
2.23109e-14
2.47358e-14
2.68972e-14
2.86988e-14
3.00568e-14
3.0906e-14
3.12046e-14
3.0938e-14
3.01192e-14
2.87881e-14
2.70088e-14
2.4864e-14
2.24495e-14
1.98667e-14
1.72152e-14
1.45858e-14
1.20544e-14
9.67698e-15
7.48614e-15
5.48989e-15
3.67205e-15
1.99486e-15
1.42328e-17
3.27176e-19
3.27176e-19
1.40451e-17
1.96935e-15
3.62638e-15
5.42404e-15
7.40057e-15
9.57298e-15
1.19344e-14
1.44533e-14
1.70748e-14
1.97241e-14
2.23109e-14
2.47358e-14
2.68972e-14
2.86988e-14
3.00568e-14
3.0906e-14
3.12046e-14
3.0938e-14
3.01192e-14
2.87881e-14
2.70088e-14
2.4864e-14
2.24495e-14
1.98667e-14
1.72152e-14
1.45858e-14
1.20544e-14
9.67698e-15
7.48614e-15
5.48989e-15
3.67205e-15
1.99486e-15
1.42328e-17
3.27176e-19
3.27176e-19
1.40451e-17
1.96935e-15
3.62638e-15
5.42404e-15
7.40057e-15
9.57298e-15
1.19344e-14
1.44533e-14
1.70748e-14
1.97241e-14
2.23109e-14
2.47358e-14
2.68972e-14
2.86988e-14
3.00568e-14
3.0906e-14
3.12046e-14
3.0938e-14
3.01192e-14
2.87881e-14
2.70088e-14
2.4864e-14
2.24495e-14
1.98667e-14
1.72152e-14
1.45858e-14
1.20544e-14
9.67698e-15
7.48614e-15
5.48989e-15
3.67205e-15
1.99486e-15
1.42328e-17
3.27176e-19
3.27176e-19
1.40451e-17
1.96935e-15
3.62638e-15
5.42404e-15
7.40057e-15
9.57298e-15
1.19344e-14
1.44533e-14
1.70748e-14
1.97241e-14
2.23109e-14
2.47358e-14
2.68972e-14
2.86988e-14
3.00568e-14
3.0906e-14
3.12046e-14
3.0938e-14
3.01192e-14
2.87881e-14
2.70088e-14
2.4864e-14
2.24495e-14
1.98667e-14
1.72152e-14
1.45858e-14
1.20544e-14
9.67698e-15
7.48614e-15
5.48989e-15
3.67205e-15
1.99486e-15
1.42328e-17
3.27176e-19
3.27176e-19
1.40451e-17
1.96935e-15
3.62638e-15
5.42404e-15
7.40057e-15
9.57298e-15
1.19344e-14
1.44533e-14
1.70748e-14
1.97241e-14
2.23109e-14
2.47358e-14
2.68972e-14
2.86988e-14
3.00568e-14
3.0906e-14
3.12046e-14
3.0938e-14
3.01192e-14
2.87881e-14
2.70088e-14
2.4864e-14
2.24495e-14
1.98667e-14
1.72152e-14
1.45858e-14
1.20544e-14
9.67698e-15
7.48614e-15
5.48989e-15
3.67205e-15
1.99486e-15
1.42328e-17
3.27176e-19
3.27176e-19
1.40451e-17
1.96935e-15
3.62638e-15
5.42404e-15
7.40057e-15
9.57298e-15
1.19344e-14
1.44533e-14
1.70748e-14
1.97241e-14
2.23109e-14
2.47358e-14
2.68972e-14
2.86988e-14
3.00568e-14
3.0906e-14
3.12046e-14
3.0938e-14
3.01192e-14
2.87881e-14
2.70088e-14
2.4864e-14
2.24495e-14
1.98667e-14
1.72152e-14
1.45858e-14
1.20544e-14
9.67698e-15
7.48614e-15
5.48989e-15
3.67205e-15
1.99486e-15
1.42328e-17
3.27176e-19
3.27176e-19
1.40451e-17
1.96935e-15
3.62638e-15
5.42404e-15
7.40057e-15
9.57298e-15
1.19344e-14
1.44533e-14
1.70748e-14
1.97241e-14
2.23109e-14
2.47358e-14
2.68972e-14
2.86988e-14
3.00568e-14
3.0906e-14
3.12046e-14
3.0938e-14
3.01192e-14
2.87881e-14
2.70088e-14
2.4864e-14
2.24495e-14
1.98667e-14
1.72152e-14
1.45858e-14
1.20544e-14
9.67698e-15
7.48614e-15
5.48989e-15
3.67205e-15
1.99486e-15
1.42328e-17
3.27176e-19
3.27176e-19
1.40451e-17
1.96935e-15
3.62638e-15
5.42404e-15
7.40057e-15
9.57298e-15
1.19344e-14
1.44533e-14
1.70748e-14
1.97241e-14
2.23109e-14
2.47358e-14
2.68972e-14
2.86988e-14
3.00568e-14
3.0906e-14
3.12046e-14
3.0938e-14
3.01192e-14
2.87881e-14
2.70088e-14
2.4864e-14
2.24495e-14
1.98667e-14
1.72152e-14
1.45858e-14
1.20544e-14
9.67698e-15
7.48614e-15
5.48989e-15
3.67205e-15
1.99486e-15
1.42328e-17
3.27176e-19
3.27176e-19
1.40451e-17
1.96935e-15
3.62638e-15
5.42404e-15
7.40057e-15
9.57298e-15
1.19344e-14
1.44533e-14
1.70748e-14
1.97241e-14
2.23109e-14
2.47358e-14
2.68972e-14
2.86988e-14
3.00568e-14
3.0906e-14
3.12046e-14
3.0938e-14
3.01192e-14
2.87881e-14
2.70088e-14
2.4864e-14
2.24495e-14
1.98667e-14
1.72152e-14
1.45858e-14
1.20544e-14
9.67698e-15
7.48614e-15
5.48989e-15
3.67205e-15
1.99486e-15
1.42328e-17
3.27176e-19
3.27176e-19
1.40451e-17
1.96935e-15
3.62638e-15
5.42404e-15
7.40057e-15
9.57298e-15
1.19344e-14
1.44533e-14
1.70748e-14
1.97241e-14
2.23109e-14
2.47358e-14
2.68972e-14
2.86988e-14
3.00568e-14
3.0906e-14
3.12046e-14
3.0938e-14
3.01192e-14
2.87881e-14
2.70088e-14
2.4864e-14
2.24495e-14
1.98667e-14
1.72152e-14
1.45858e-14
1.20544e-14
9.67698e-15
7.48614e-15
5.48989e-15
3.67205e-15
1.99486e-15
1.42328e-17
3.27176e-19
3.27176e-19
1.40451e-17
1.96935e-15
3.62638e-15
5.42404e-15
7.40057e-15
9.57298e-15
1.19344e-14
1.44533e-14
1.70748e-14
1.97241e-14
2.23109e-14
2.47358e-14
2.68972e-14
2.86988e-14
3.00568e-14
3.0906e-14
3.12046e-14
3.0938e-14
3.01192e-14
2.87881e-14
2.70088e-14
2.4864e-14
2.24495e-14
1.98667e-14
1.72152e-14
1.45858e-14
1.20544e-14
9.67698e-15
7.48614e-15
5.48989e-15
3.67205e-15
1.99486e-15
1.42328e-17
3.27176e-19
3.27176e-19
1.40451e-17
1.96935e-15
3.62638e-15
5.42404e-15
7.40057e-15
9.57298e-15
1.19344e-14
1.44533e-14
1.70748e-14
1.97241e-14
2.23109e-14
2.47358e-14
2.68972e-14
2.86988e-14
3.00568e-14
3.0906e-14
3.12046e-14
3.0938e-14
3.01192e-14
2.87881e-14
2.70088e-14
2.4864e-14
2.24495e-14
1.98667e-14
1.72152e-14
1.45858e-14
1.20544e-14
9.67698e-15
7.48614e-15
5.48989e-15
3.67205e-15
1.99486e-15
1.42328e-17
3.27176e-19
3.27176e-19
1.40451e-17
1.96935e-15
3.62638e-15
5.42404e-15
7.40057e-15
9.57298e-15
1.19344e-14
1.44533e-14
1.70748e-14
1.97241e-14
2.23109e-14
2.47358e-14
2.68972e-14
2.86988e-14
3.00568e-14
3.0906e-14
3.12046e-14
3.0938e-14
3.01192e-14
2.87881e-14
2.70088e-14
2.4864e-14
2.24495e-14
1.98667e-14
1.72152e-14
1.45858e-14
1.20544e-14
9.67698e-15
7.48614e-15
5.48989e-15
3.67205e-15
1.99486e-15
1.42328e-17
3.27176e-19
3.27176e-19
1.40451e-17
1.96935e-15
3.62638e-15
5.42404e-15
7.40057e-15
9.57298e-15
1.19344e-14
1.44533e-14
1.70748e-14
1.97241e-14
2.23109e-14
2.47358e-14
2.68972e-14
2.86988e-14
3.00568e-14
3.0906e-14
3.12046e-14
3.0938e-14
3.01192e-14
2.87881e-14
2.70088e-14
2.4864e-14
2.24495e-14
1.98667e-14
1.72152e-14
1.45858e-14
1.20544e-14
9.67698e-15
7.48614e-15
5.48989e-15
3.67205e-15
1.99486e-15
1.42328e-17
3.27176e-19
3.27176e-19
1.40451e-17
1.96935e-15
3.62638e-15
5.42404e-15
7.40057e-15
9.57298e-15
1.19344e-14
1.44533e-14
1.70748e-14
1.97241e-14
2.23109e-14
2.47358e-14
2.68972e-14
2.86988e-14
3.00568e-14
3.0906e-14
3.12046e-14
3.0938e-14
3.01192e-14
2.87881e-14
2.70088e-14
2.4864e-14
2.24495e-14
1.98667e-14
1.72152e-14
1.45858e-14
1.20544e-14
9.67698e-15
7.48614e-15
5.48989e-15
3.67205e-15
1.99486e-15
1.42328e-17
3.27176e-19
3.27176e-19
1.40451e-17
1.96935e-15
3.62638e-15
5.42404e-15
7.40057e-15
9.57298e-15
1.19344e-14
1.44533e-14
1.70748e-14
1.97241e-14
2.23109e-14
2.47358e-14
2.68972e-14
2.86988e-14
3.00568e-14
3.0906e-14
3.12046e-14
3.0938e-14
3.01192e-14
2.87881e-14
2.70088e-14
2.4864e-14
2.24495e-14
1.98667e-14
1.72152e-14
1.45858e-14
1.20544e-14
9.67698e-15
7.48614e-15
5.48989e-15
3.67205e-15
1.99486e-15
1.42328e-17
3.27176e-19
3.27176e-19
1.40451e-17
1.96935e-15
3.62638e-15
5.42404e-15
7.40057e-15
9.57298e-15
1.19344e-14
1.44533e-14
1.70748e-14
1.97241e-14
2.23109e-14
2.47358e-14
2.68972e-14
2.86988e-14
3.00568e-14
3.0906e-14
3.12046e-14
3.0938e-14
3.01192e-14
2.87881e-14
2.70088e-14
2.4864e-14
2.24495e-14
1.98667e-14
1.72152e-14
1.45858e-14
1.20544e-14
9.67698e-15
7.48614e-15
5.48989e-15
3.67205e-15
1.99486e-15
1.42328e-17
3.27176e-19
3.27176e-19
1.40451e-17
1.96935e-15
3.62638e-15
5.42404e-15
7.40057e-15
9.57298e-15
1.19344e-14
1.44533e-14
1.70748e-14
1.97241e-14
2.23109e-14
2.47358e-14
2.68972e-14
2.86988e-14
3.00568e-14
3.0906e-14
3.12046e-14
3.0938e-14
3.01192e-14
2.87881e-14
2.70088e-14
2.4864e-14
2.24495e-14
1.98667e-14
1.72152e-14
1.45858e-14
1.20544e-14
9.67698e-15
7.48614e-15
5.48989e-15
3.67205e-15
1.99486e-15
1.42328e-17
3.27176e-19
3.27176e-19
1.40451e-17
1.96935e-15
3.62638e-15
5.42404e-15
7.40057e-15
9.57298e-15
1.19344e-14
1.44533e-14
1.70748e-14
1.97241e-14
2.23109e-14
2.47358e-14
2.68972e-14
2.86988e-14
3.00568e-14
3.0906e-14
3.12046e-14
3.0938e-14
3.01192e-14
2.87881e-14
2.70088e-14
2.4864e-14
2.24495e-14
1.98667e-14
1.72152e-14
1.45858e-14
1.20544e-14
9.67698e-15
7.48614e-15
5.48989e-15
3.67205e-15
1.99486e-15
1.42328e-17
3.27176e-19
3.27176e-19
1.40451e-17
1.96935e-15
3.62638e-15
5.42404e-15
7.40057e-15
9.57298e-15
1.19344e-14
1.44533e-14
1.70748e-14
1.97241e-14
2.23109e-14
2.47358e-14
2.68972e-14
2.86988e-14
3.00568e-14
3.0906e-14
3.12046e-14
3.0938e-14
3.01192e-14
2.87881e-14
2.70088e-14
2.4864e-14
2.24495e-14
1.98667e-14
1.72152e-14
1.45858e-14
1.20544e-14
9.67698e-15
7.48614e-15
5.48989e-15
3.67205e-15
1.99486e-15
1.42328e-17
3.27176e-19
3.27176e-19
1.40451e-17
1.96935e-15
3.62638e-15
5.42404e-15
7.40057e-15
9.57298e-15
1.19344e-14
1.44533e-14
1.70748e-14
1.97241e-14
2.23109e-14
2.47358e-14
2.68972e-14
2.86988e-14
3.00568e-14
3.0906e-14
3.12046e-14
3.0938e-14
3.01192e-14
2.87881e-14
2.70088e-14
2.4864e-14
2.24495e-14
1.98667e-14
1.72152e-14
1.45858e-14
1.20544e-14
9.67698e-15
7.48614e-15
5.48989e-15
3.67205e-15
1.99486e-15
1.42328e-17
3.27176e-19
3.27176e-19
1.40451e-17
1.96935e-15
3.62638e-15
5.42404e-15
7.40057e-15
9.57298e-15
1.19344e-14
1.44533e-14
1.70748e-14
1.97241e-14
2.23109e-14
2.47358e-14
2.68972e-14
2.86988e-14
3.00568e-14
3.0906e-14
3.12046e-14
3.0938e-14
3.01192e-14
2.87881e-14
2.70088e-14
2.4864e-14
2.24495e-14
1.98667e-14
1.72152e-14
1.45858e-14
1.20544e-14
9.67698e-15
7.48614e-15
5.48989e-15
3.67205e-15
1.99486e-15
1.42328e-17
3.27176e-19
3.27176e-19
1.40451e-17
1.96935e-15
3.62638e-15
5.42404e-15
7.40057e-15
9.57298e-15
1.19344e-14
1.44533e-14
1.70748e-14
1.97241e-14
2.23109e-14
2.47358e-14
2.68972e-14
2.86988e-14
3.00568e-14
3.0906e-14
3.12046e-14
3.0938e-14
3.01192e-14
2.87881e-14
2.70088e-14
2.4864e-14
2.24495e-14
1.98667e-14
1.72152e-14
1.45858e-14
1.20544e-14
9.67698e-15
7.48614e-15
5.48989e-15
3.67205e-15
1.99486e-15
1.42328e-17
3.27176e-19
3.27176e-19
1.40451e-17
1.96935e-15
3.62638e-15
5.42404e-15
7.40057e-15
9.57298e-15
1.19344e-14
1.44533e-14
1.70748e-14
1.97241e-14
2.23109e-14
2.47358e-14
2.68972e-14
2.86988e-14
3.00568e-14
3.0906e-14
3.12046e-14
3.0938e-14
3.01192e-14
2.87881e-14
2.70088e-14
2.4864e-14
2.24495e-14
1.98667e-14
1.72152e-14
1.45858e-14
1.20544e-14
9.67698e-15
7.48614e-15
5.48989e-15
3.67205e-15
1.99486e-15
1.42328e-17
3.27176e-19
3.27176e-19
1.40451e-17
1.96935e-15
3.62638e-15
5.42404e-15
7.40057e-15
9.57298e-15
1.19344e-14
1.44533e-14
1.70748e-14
1.97241e-14
2.23109e-14
2.47358e-14
2.68972e-14