/*--------------------------------*- C++ -*----------------------------------*\
  =========                 |
  \\      /  F ield         | OpenFOAM: The Open Source CFD Toolbox
   \\    /   O peration     | Website:  https://openfoam.org
    \\  /    A nd           | Version:  13
     \\/     M anipulation  |
\*---------------------------------------------------------------------------*/
FoamFile
{
    format      ascii;
    class       volScalarField;
    location    "41";
    object      k;
}
// * * * * * * * * * * * * * * * * * * * * * * * * * * * * * * * * * * * * * //

dimensions      [0 2 -2 0 0 0 0];

internalField   nonuniform List<scalar> 
78750
(
2.22045e-16
2.22045e-16
2.22045e-16
2.22045e-16
2.22045e-16
2.22045e-16
2.22045e-16
2.22045e-16
2.22045e-16
2.22045e-16
2.22045e-16
2.22045e-16
2.22045e-16
2.22045e-16
2.22045e-16
2.22045e-16
2.22045e-16
2.22045e-16
2.22045e-16
2.22045e-16
2.22045e-16
2.22045e-16
2.22045e-16
2.22045e-16
2.22045e-16
2.22045e-16
2.22045e-16
2.22045e-16
2.22045e-16
2.22045e-16
2.22045e-16
2.22045e-16
2.22045e-16
2.22045e-16
2.22045e-16
2.22045e-16
2.22045e-16
3.03533e-16
5.02028e-16
7.15126e-16
9.44009e-16
1.18828e-15
1.4457e-15
1.71218e-15
1.98199e-15
2.24808e-15
2.5025e-15
2.73689e-15
2.94302e-15
3.11324e-15
3.24104e-15
3.32138e-15
3.35105e-15
3.32881e-15
3.25554e-15
3.13414e-15
2.96934e-15
2.76745e-15
2.53595e-15
2.283e-15
2.01699e-15
1.74594e-15
1.47706e-15
1.21624e-15
9.67784e-16
7.34085e-16
5.15645e-16
3.11238e-16
2.22045e-16
2.22045e-16
2.22045e-16
2.22045e-16
7.22004e-16
1.30139e-15
1.92685e-15
2.60842e-15
3.34963e-15
4.14661e-15
4.98794e-15
5.85519e-15
6.7241e-15
7.56619e-15
8.35066e-15
9.04658e-15
9.62493e-15
1.00607e-14
1.03344e-14
1.04336e-14
1.03539e-14
1.00987e-14
9.67961e-15
9.1151e-15
8.42968e-15
7.65196e-15
6.81279e-15
5.94307e-15
5.07162e-15
4.22321e-15
3.41686e-15
2.66461e-15
1.97087e-15
1.3325e-15
7.39593e-16
2.22045e-16
2.22045e-16
2.22045e-16
2.79649e-16
1.33632e-15
2.44968e-15
3.65514e-15
4.97697e-15
6.42557e-15
7.99569e-15
9.66609e-15
1.14004e-14
1.31495e-14
1.48544e-14
1.64505e-14
1.78721e-14
1.9057e-14
1.99511e-14
2.05124e-14
2.0714e-14
2.05461e-14
2.00166e-14
1.91508e-14
1.79894e-14
1.65854e-14
1.50004e-14
1.32999e-14
1.15488e-14
9.80673e-15
8.12377e-15
6.53736e-15
5.06987e-15
3.72755e-15
2.50072e-15
1.36543e-15
2.85772e-16
2.22045e-16
2.22045e-16
4.18424e-16
2.0323e-15
3.73447e-15
5.58081e-15
7.61e-15
9.8391e-15
1.22608e-14
1.48428e-14
1.75291e-14
2.02429e-14
2.28924e-14
2.5376e-14
2.75903e-14
2.94372e-14
3.0831e-14
3.17052e-14
3.20172e-14
3.17515e-14
3.09211e-14
2.95663e-14
2.77517e-14
2.55615e-14
2.3093e-14
2.04494e-14
1.77326e-14
1.50355e-14
1.24359e-14
9.99159e-15
7.73637e-15
5.67895e-15
3.80332e-15
2.07124e-15
4.26592e-16
2.22045e-16
2.22045e-16
5.54124e-16
2.7124e-15
4.98894e-15
7.45922e-15
1.01755e-14
1.31611e-14
1.64065e-14
1.98684e-14
2.34716e-14
2.71133e-14
3.06696e-14
3.40042e-14
3.69776e-14
3.94576e-14
4.13288e-14
4.25014e-14
4.29182e-14
4.25584e-14
4.14396e-14
3.96164e-14
3.71761e-14
3.42323e-14
3.09162e-14
2.73669e-14
2.37215e-14
2.01048e-14
1.66212e-14
1.33478e-14
1.033e-14
7.57893e-15
5.0727e-15
2.75962e-15
5.64007e-16
2.22045e-16
2.22045e-16
6.7658e-16
3.32607e-15
6.1205e-15
9.15278e-15
1.24873e-14
1.61527e-14
2.01373e-14
2.43882e-14
2.88128e-14
3.32849e-14
3.76523e-14
4.17472e-14
4.53984e-14
4.84433e-14
5.07402e-14
5.21787e-14
5.26885e-14
5.22442e-14
5.08677e-14
4.8626e-14
4.56267e-14
4.20096e-14
3.79359e-14
3.35767e-14
2.91003e-14
2.46599e-14
2.0384e-14
1.6367e-14
1.26644e-14
9.2898e-15
6.21617e-15
3.37989e-15
6.87826e-16
2.22045e-16
2.22045e-16
7.8073e-16
3.84801e-15
7.08279e-15
1.05927e-14
1.44523e-14
1.86948e-14
2.33069e-14
2.82269e-14
3.3348e-14
3.85239e-14
4.35784e-14
4.83173e-14
5.25424e-14
5.60654e-14
5.87224e-14
6.03857e-14
6.0974e-14
6.04579e-14
5.88628e-14
5.62666e-14
5.27938e-14
4.86063e-14
4.38907e-14
3.88452e-14
3.36645e-14
2.8526e-14
2.35782e-14
1.89305e-14
1.46468e-14
1.0743e-14
7.18754e-15
3.90683e-15
7.93009e-16
2.22045e-16
2.22045e-16
8.64724e-16
4.26899e-15
7.85889e-15
1.17539e-14
1.60368e-14
2.07445e-14
2.58621e-14
3.13213e-14
3.70034e-14
4.27461e-14
4.83539e-14
5.36113e-14
5.82983e-14
6.22062e-14
6.51529e-14
6.6997e-14
6.76482e-14
6.7074e-14
6.53028e-14
6.2421e-14
5.85668e-14
5.39198e-14
4.86873e-14
4.30891e-14
3.73411e-14
3.16404e-14
2.61515e-14
2.09957e-14
1.62439e-14
1.19137e-14
7.97017e-15
4.33139e-15
8.77743e-16
2.22045e-16
2.22045e-16
9.29026e-16
4.59132e-15
8.45311e-15
1.26429e-14
1.72499e-14
2.23137e-14
2.78182e-14
3.369e-14
3.98015e-14
4.59779e-14
5.20091e-14
5.76632e-14
6.27036e-14
6.69058e-14
7.00741e-14
7.20563e-14
7.27554e-14
7.21367e-14
7.02305e-14
6.71299e-14
6.29837e-14
5.79851e-14
5.2357e-14
4.63358e-14
4.01538e-14
3.40229e-14
2.812e-14
2.25754e-14
1.74657e-14
1.28093e-14
8.5688e-15
4.65612e-15
9.4254e-16
2.22045e-16
2.22045e-16
9.75751e-16
4.82559e-15
8.885e-15
1.32891e-14
1.81316e-14
2.34541e-14
2.92398e-14
3.54115e-14
4.18349e-14
4.83265e-14
5.46653e-14
6.06076e-14
6.59047e-14
7.03207e-14
7.36498e-14
7.57323e-14
7.64661e-14
7.58149e-14
7.38104e-14
7.05508e-14
6.61924e-14
6.09382e-14
5.50226e-14
4.86941e-14
4.21967e-14
3.57532e-14
2.95495e-14
2.37227e-14
1.83528e-14
1.34596e-14
9.00345e-15
4.89188e-15
9.89573e-16
2.22045e-16
2.22045e-16
1.00798e-15
4.98722e-15
9.18296e-15
1.37349e-14
1.87398e-14
2.42409e-14
3.02206e-14
3.65992e-14
4.32378e-14
4.99469e-14
5.64978e-14
6.26389e-14
6.81131e-14
7.26765e-14
7.61165e-14
7.82681e-14
7.90258e-14
7.8352e-14
7.62797e-14
7.29103e-14
6.84053e-14
6.29747e-14
5.68608e-14
5.03202e-14
4.36053e-14
3.69462e-14
3.05351e-14
2.45135e-14
1.89643e-14
1.39078e-14
9.30303e-15
5.05437e-15
1.02198e-15
2.22045e-16
2.22045e-16
1.02909e-15
5.09312e-15
9.3782e-15
1.4027e-14
1.91384e-14
2.47564e-14
3.08632e-14
3.73774e-14
4.41571e-14
5.10086e-14
5.76985e-14
6.39699e-14
6.95601e-14
7.422e-14
7.77327e-14
7.99295e-14
8.07028e-14
8.00141e-14
7.78973e-14
7.44559e-14
6.98549e-14
6.43087e-14
5.80647e-14
5.13852e-14
4.45278e-14
3.77274e-14
3.11804e-14
2.50313e-14
1.93647e-14
1.42012e-14
9.49913e-15
5.16072e-15
1.04318e-15
2.22045e-16
2.22045e-16
1.04223e-15
5.15908e-15
9.4998e-15
1.42089e-14
1.93866e-14
2.50775e-14
3.12635e-14
3.78621e-14
4.47296e-14
5.16699e-14
5.84464e-14
6.47989e-14
7.04613e-14
7.51814e-14
7.87393e-14
8.09642e-14
8.17471e-14
8.10492e-14
7.89046e-14
7.54183e-14
7.07574e-14
6.51392e-14
5.88143e-14
5.20482e-14
4.5102e-14
3.82137e-14
3.15821e-14
2.53536e-14
1.96139e-14
1.43838e-14
9.62115e-15
5.22689e-15
1.05637e-15
2.22045e-16
2.22045e-16
1.05002e-15
5.19816e-15
9.57186e-15
1.43168e-14
1.95338e-14
2.52678e-14
3.15008e-14
3.81494e-14
4.5069e-14
5.20618e-14
5.88897e-14
6.52902e-14
7.09955e-14
7.57512e-14
7.93359e-14
8.15774e-14
8.23661e-14
8.16626e-14
7.95016e-14
7.59886e-14
7.12923e-14
6.56313e-14
5.92583e-14
5.24409e-14
4.54421e-14
3.85017e-14
3.18199e-14
2.55444e-14
1.97614e-14
1.44919e-14
9.69339e-15
5.26607e-15
1.06417e-15
2.22045e-16
2.22045e-16
1.05442e-15
5.22024e-15
9.61256e-15
1.43776e-14
1.96169e-14
2.53753e-14
3.16347e-14
3.83116e-14
4.52606e-14
5.22832e-14
5.914e-14
6.55678e-14
7.12971e-14
7.6073e-14
7.96728e-14
8.19238e-14
8.27156e-14
8.2009e-14
7.98387e-14
7.63106e-14
7.15942e-14
6.59091e-14
5.9509e-14
5.26627e-14
4.56341e-14
3.86643e-14
3.19542e-14
2.56521e-14
1.98447e-14
1.45529e-14
9.73416e-15
5.28817e-15
1.06857e-15
2.22045e-16
2.22045e-16
1.05678e-15
5.23213e-15
9.63449e-15
1.44105e-14
1.96616e-14
2.54332e-14
3.17069e-14
3.83991e-14
4.53639e-14
5.24025e-14
5.9275e-14
6.57173e-14
7.14597e-14
7.62464e-14
7.98544e-14
8.21104e-14
8.2904e-14
8.21957e-14
8.00203e-14
7.64842e-14
7.17569e-14
6.60588e-14
5.96441e-14
5.27821e-14
4.57375e-14
3.87518e-14
3.20265e-14
2.57101e-14
1.98895e-14
1.45858e-14
9.7561e-15
5.30007e-15
1.07094e-15
2.22045e-16
2.22045e-16
1.058e-15
5.23825e-15
9.64578e-15
1.44274e-14
1.96847e-14
2.54631e-14
3.17441e-14
3.84441e-14
4.54171e-14
5.24639e-14
5.93445e-14
6.57944e-14
7.15435e-14
7.63357e-14
7.99479e-14
8.22066e-14
8.3001e-14
8.22918e-14
8.01139e-14
7.65735e-14
7.18407e-14
6.61359e-14
5.97137e-14
5.28436e-14
4.57908e-14
3.87969e-14
3.20637e-14
2.574e-14
1.99126e-14
1.46027e-14
9.76739e-15
5.30619e-15
1.07216e-15
2.22045e-16
2.22045e-16
1.0586e-15
5.24127e-15
9.65135e-15
1.44357e-14
1.96961e-14
2.54778e-14
3.17625e-14
3.84663e-14
4.54434e-14
5.24942e-14
5.93787e-14
6.58323e-14
7.15848e-14
7.63798e-14
7.9994e-14
8.2254e-14
8.30488e-14
8.23392e-14
8.016e-14
7.66176e-14
7.1882e-14
6.61739e-14
5.97479e-14
5.28739e-14
4.5817e-14
3.88191e-14
3.20821e-14
2.57547e-14
1.99239e-14
1.4611e-14
9.77296e-15
5.3092e-15
1.07276e-15
2.22045e-16
2.22045e-16
1.05889e-15
5.2427e-15
9.65398e-15
1.44396e-14
1.97014e-14
2.54847e-14
3.17711e-14
3.84768e-14
4.54558e-14
5.25086e-14
5.93949e-14
6.58503e-14
7.16043e-14
7.64006e-14
8.00158e-14
8.22764e-14
8.30714e-14
8.23616e-14
8.01818e-14
7.66384e-14
7.19015e-14
6.61919e-14
5.97641e-14
5.28882e-14
4.58294e-14
3.88296e-14
3.20907e-14
2.57616e-14
1.99293e-14
1.46149e-14
9.77558e-15
5.31063e-15
1.07304e-15
2.22045e-16
2.22045e-16
1.05901e-15
5.24335e-15
9.65517e-15
1.44414e-14
1.97039e-14
2.54879e-14
3.17751e-14
3.84816e-14
4.54614e-14
5.2515e-14
5.94023e-14
6.58584e-14
7.16132e-14
7.641e-14
8.00257e-14
8.22865e-14
8.30817e-14
8.23718e-14
8.01917e-14
7.66478e-14
7.19104e-14
6.62e-14
5.97715e-14
5.28947e-14
4.5835e-14
3.88344e-14
3.20947e-14
2.57648e-14
1.99317e-14
1.46167e-14
9.77677e-15
5.31127e-15
1.07317e-15
2.22045e-16
2.22045e-16
1.05907e-15
5.24363e-15
9.65569e-15
1.44422e-14
1.97049e-14
2.54892e-14
3.17768e-14
3.84836e-14
4.54638e-14
5.25179e-14
5.94055e-14
6.5862e-14
7.1617e-14
7.64142e-14
8.003e-14
8.22909e-14
8.30862e-14
8.23762e-14
8.0196e-14
7.6652e-14
7.19142e-14
6.62036e-14
5.97747e-14
5.28975e-14
4.58375e-14
3.88365e-14
3.20964e-14
2.57662e-14
1.99328e-14
1.46175e-14
9.77729e-15
5.31155e-15
1.07323e-15
2.22045e-16
2.22045e-16
1.05909e-15
5.24375e-15
9.65591e-15
1.44425e-14
1.97054e-14
2.54898e-14
3.17775e-14
3.84845e-14
4.54649e-14
5.25191e-14
5.94068e-14
6.58635e-14
7.16186e-14
7.64159e-14
8.00318e-14
8.22928e-14
8.3088e-14
8.23781e-14
8.01978e-14
7.66537e-14
7.19159e-14
6.6205e-14
5.9776e-14
5.28987e-14
4.58385e-14
3.88373e-14
3.20971e-14
2.57667e-14
1.99332e-14
1.46178e-14
9.77751e-15
5.31167e-15
1.07325e-15
2.22045e-16
2.22045e-16
1.0591e-15
5.24379e-15
9.656e-15
1.44426e-14
1.97056e-14
2.54901e-14
3.17778e-14
3.84849e-14
4.54653e-14
5.25196e-14
5.94074e-14
6.58641e-14
7.16193e-14
7.64166e-14
8.00326e-14
8.22936e-14
8.30888e-14
8.23788e-14
8.01985e-14
7.66544e-14
7.19165e-14
6.62056e-14
5.97766e-14
5.28992e-14
4.58389e-14
3.88377e-14
3.20974e-14
2.5767e-14
1.99334e-14
1.4618e-14
9.7776e-15
5.31172e-15
1.07326e-15
2.22045e-16
2.22045e-16
1.05911e-15
5.24381e-15
9.65603e-15
1.44427e-14
1.97056e-14
2.54901e-14
3.17779e-14
3.8485e-14
4.54654e-14
5.25197e-14
5.94076e-14
6.58643e-14
7.16195e-14
7.64169e-14
8.00329e-14
8.22939e-14
8.30891e-14
8.23791e-14
8.01988e-14
7.66547e-14
7.19168e-14
6.62059e-14
5.97768e-14
5.28994e-14
4.58391e-14
3.88378e-14
3.20975e-14
2.57671e-14
1.99335e-14
1.4618e-14
9.77763e-15
5.31174e-15
1.07326e-15
2.22045e-16
2.22045e-16
1.05911e-15
5.24382e-15
9.65604e-15
1.44427e-14
1.97057e-14
2.54902e-14
3.17779e-14
3.8485e-14
4.54655e-14
5.25198e-14
5.94077e-14
6.58644e-14
7.16196e-14
7.6417e-14
8.0033e-14
8.2294e-14
8.30892e-14
8.23792e-14
8.01989e-14
7.66548e-14
7.19169e-14
6.6206e-14
5.97769e-14
5.28995e-14
4.58392e-14
3.88379e-14
3.20975e-14
2.57671e-14
1.99335e-14
1.4618e-14
9.77764e-15
5.31174e-15
1.07326e-15
2.22045e-16
2.22045e-16
1.05911e-15
5.24382e-15
9.65605e-15
1.44427e-14
1.97057e-14
2.54902e-14
3.1778e-14
3.84851e-14
4.54655e-14
5.25198e-14
5.94077e-14
6.58644e-14
7.16197e-14
7.6417e-14
8.0033e-14
8.2294e-14
8.30892e-14
8.23793e-14
8.0199e-14
7.66548e-14
7.19169e-14
6.6206e-14
5.97769e-14
5.28995e-14
4.58392e-14
3.88379e-14
3.20976e-14
2.57671e-14
1.99335e-14
1.4618e-14
9.77765e-15
5.31174e-15
1.07326e-15
2.22045e-16
2.22045e-16
1.05911e-15
5.24382e-15
9.65605e-15
1.44427e-14
1.97057e-14
2.54902e-14
3.1778e-14
3.84851e-14
4.54655e-14
5.25198e-14
5.94077e-14
6.58645e-14
7.16197e-14
7.6417e-14
8.0033e-14
8.2294e-14
8.30893e-14
8.23793e-14
8.0199e-14
7.66548e-14
7.19169e-14
6.6206e-14
5.97769e-14
5.28995e-14
4.58392e-14
3.88379e-14
3.20976e-14
2.57671e-14
1.99335e-14
1.4618e-14
9.77765e-15
5.31175e-15
1.07327e-15
2.22045e-16
2.22045e-16
1.05911e-15
5.24382e-15
9.65605e-15
1.44427e-14
1.97057e-14
2.54902e-14
3.1778e-14
3.84851e-14
4.54655e-14
5.25198e-14
5.94077e-14
6.58645e-14
7.16197e-14
7.6417e-14
8.0033e-14
8.2294e-14
8.30893e-14
8.23793e-14
8.0199e-14
7.66548e-14
7.19169e-14
6.6206e-14
5.97769e-14
5.28995e-14
4.58392e-14
3.88379e-14
3.20976e-14
2.57671e-14
1.99335e-14
1.4618e-14
9.77765e-15
5.31175e-15
1.07327e-15
2.22045e-16
2.22045e-16
1.05911e-15
5.24382e-15
9.65605e-15
1.44427e-14
1.97057e-14
2.54902e-14
3.1778e-14
3.84851e-14
4.54655e-14
5.25198e-14
5.94077e-14
6.58645e-14
7.16197e-14
7.6417e-14
8.0033e-14
8.2294e-14
8.30893e-14
8.23793e-14
8.0199e-14
7.66548e-14
7.19169e-14
6.6206e-14
5.97769e-14
5.28995e-14
4.58392e-14
3.88379e-14
3.20976e-14
2.57671e-14
1.99335e-14
1.4618e-14
9.77765e-15
5.31175e-15
1.07327e-15
2.22045e-16
2.22045e-16
1.05911e-15
5.24382e-15
9.65605e-15
1.44427e-14
1.97057e-14
2.54902e-14
3.1778e-14
3.84851e-14
4.54655e-14
5.25198e-14
5.94077e-14
6.58645e-14
7.16197e-14
7.6417e-14
8.0033e-14
8.2294e-14
8.30893e-14
8.23793e-14
8.0199e-14
7.66548e-14
7.19169e-14
6.6206e-14
5.97769e-14
5.28995e-14
4.58392e-14
3.88379e-14
3.20976e-14
2.57671e-14
1.99335e-14
1.4618e-14
9.77765e-15
5.31175e-15
1.07327e-15
2.22045e-16
2.22045e-16
1.05911e-15
5.24382e-15
9.65605e-15
1.44427e-14
1.97057e-14
2.54902e-14
3.1778e-14
3.84851e-14
4.54655e-14
5.25198e-14
5.94077e-14
6.58645e-14
7.16197e-14
7.6417e-14
8.0033e-14
8.2294e-14
8.30893e-14
8.23793e-14
8.0199e-14
7.66548e-14
7.19169e-14
6.6206e-14
5.97769e-14
5.28995e-14
4.58392e-14
3.88379e-14
3.20976e-14
2.57671e-14
1.99335e-14
1.4618e-14
9.77765e-15
5.31175e-15
1.07327e-15
2.22045e-16
2.22045e-16
1.05911e-15
5.24382e-15
9.65605e-15
1.44427e-14
1.97057e-14
2.54902e-14
3.1778e-14
3.84851e-14
4.54655e-14
5.25198e-14
5.94077e-14
6.58645e-14
7.16197e-14
7.6417e-14
8.0033e-14
8.2294e-14
8.30893e-14
8.23793e-14
8.0199e-14
7.66548e-14
7.19169e-14
6.6206e-14
5.97769e-14
5.28995e-14
4.58392e-14
3.88379e-14
3.20976e-14
2.57671e-14
1.99335e-14
1.4618e-14
9.77765e-15
5.31175e-15
1.07327e-15
2.22045e-16
2.22045e-16
1.05911e-15
5.24382e-15
9.65605e-15
1.44427e-14
1.97057e-14
2.54902e-14
3.1778e-14
3.84851e-14
4.54655e-14
5.25198e-14
5.94077e-14
6.58645e-14
7.16197e-14
7.6417e-14
8.0033e-14
8.2294e-14
8.30893e-14
8.23793e-14
8.0199e-14
7.66548e-14
7.19169e-14
6.6206e-14
5.97769e-14
5.28995e-14
4.58392e-14
3.88379e-14
3.20976e-14
2.57671e-14
1.99335e-14
1.4618e-14
9.77765e-15
5.31175e-15
1.07327e-15
2.22045e-16
2.22045e-16
1.05911e-15
5.24382e-15
9.65605e-15
1.44427e-14
1.97057e-14
2.54902e-14
3.1778e-14
3.84851e-14
4.54655e-14
5.25198e-14
5.94077e-14
6.58645e-14
7.16197e-14
7.6417e-14
8.0033e-14
8.2294e-14
8.30893e-14
8.23793e-14
8.0199e-14
7.66548e-14
7.19169e-14
6.6206e-14
5.97769e-14
5.28995e-14
4.58392e-14
3.88379e-14
3.20976e-14
2.57671e-14
1.99335e-14
1.4618e-14
9.77765e-15
5.31175e-15
1.07327e-15
2.22045e-16
2.22045e-16
1.05911e-15
5.24382e-15
9.65605e-15
1.44427e-14
1.97057e-14
2.54902e-14
3.1778e-14
3.84851e-14
4.54655e-14
5.25198e-14
5.94077e-14
6.58645e-14
7.16197e-14
7.6417e-14
8.0033e-14
8.2294e-14
8.30893e-14
8.23793e-14
8.0199e-14
7.66548e-14
7.19169e-14
6.6206e-14
5.97769e-14
5.28995e-14
4.58392e-14
3.88379e-14
3.20976e-14
2.57671e-14
1.99335e-14
1.4618e-14
9.77765e-15
5.31175e-15
1.07327e-15
2.22045e-16
2.22045e-16
1.05911e-15
5.24382e-15
9.65605e-15
1.44427e-14
1.97057e-14
2.54902e-14
3.1778e-14
3.84851e-14
4.54655e-14
5.25198e-14
5.94077e-14
6.58645e-14
7.16197e-14
7.6417e-14
8.0033e-14
8.2294e-14
8.30893e-14
8.23793e-14
8.0199e-14
7.66548e-14
7.19169e-14
6.6206e-14
5.97769e-14
5.28995e-14
4.58392e-14
3.88379e-14
3.20976e-14
2.57671e-14
1.99335e-14
1.4618e-14
9.77765e-15
5.31175e-15
1.07327e-15
2.22045e-16
2.22045e-16
1.05911e-15
5.24382e-15
9.65605e-15
1.44427e-14
1.97057e-14
2.54902e-14
3.1778e-14
3.84851e-14
4.54655e-14
5.25198e-14
5.94077e-14
6.58645e-14
7.16197e-14
7.6417e-14
8.0033e-14
8.2294e-14
8.30893e-14
8.23793e-14
8.0199e-14
7.66548e-14
7.19169e-14
6.6206e-14
5.97769e-14
5.28995e-14
4.58392e-14
3.88379e-14
3.20976e-14
2.57671e-14
1.99335e-14
1.4618e-14
9.77765e-15
5.31175e-15
1.07327e-15
2.22045e-16
2.22045e-16
1.05911e-15
5.24382e-15
9.65605e-15
1.44427e-14
1.97057e-14
2.54902e-14
3.1778e-14
3.84851e-14
4.54655e-14
5.25198e-14
5.94077e-14
6.58645e-14
7.16197e-14
7.6417e-14
8.0033e-14
8.2294e-14
8.30893e-14
8.23793e-14
8.0199e-14
7.66548e-14
7.19169e-14
6.6206e-14
5.97769e-14
5.28995e-14
4.58392e-14
3.88379e-14
3.20976e-14
2.57671e-14
1.99335e-14
1.4618e-14
9.77765e-15
5.31175e-15
1.07327e-15
2.22045e-16
2.22045e-16
1.05911e-15
5.24382e-15
9.65605e-15
1.44427e-14
1.97057e-14
2.54902e-14
3.1778e-14
3.84851e-14
4.54655e-14
5.25198e-14
5.94077e-14
6.58645e-14
7.16197e-14
7.6417e-14
8.0033e-14
8.2294e-14
8.30893e-14
8.23793e-14
8.0199e-14
7.66548e-14
7.19169e-14
6.6206e-14
5.97769e-14
5.28995e-14
4.58392e-14
3.88379e-14
3.20976e-14
2.57671e-14
1.99335e-14
1.4618e-14
9.77765e-15
5.31175e-15
1.07327e-15
2.22045e-16
2.22045e-16
1.05911e-15
5.24382e-15
9.65605e-15
1.44427e-14
1.97057e-14
2.54902e-14
3.1778e-14
3.84851e-14
4.54655e-14
5.25198e-14
5.94077e-14
6.58645e-14
7.16197e-14
7.6417e-14
8.0033e-14
8.2294e-14
8.30893e-14
8.23793e-14
8.0199e-14
7.66548e-14
7.19169e-14
6.6206e-14
5.97769e-14
5.28995e-14
4.58392e-14
3.88379e-14
3.20976e-14
2.57671e-14
1.99335e-14
1.4618e-14
9.77765e-15
5.31175e-15
1.07327e-15
2.22045e-16
2.22045e-16
1.05911e-15
5.24382e-15
9.65605e-15
1.44427e-14
1.97057e-14
2.54902e-14
3.1778e-14
3.84851e-14
4.54655e-14
5.25198e-14
5.94077e-14
6.58645e-14
7.16197e-14
7.6417e-14
8.0033e-14
8.2294e-14
8.30893e-14
8.23793e-14
8.0199e-14
7.66548e-14
7.19169e-14
6.6206e-14
5.97769e-14
5.28995e-14
4.58392e-14
3.88379e-14
3.20976e-14
2.57671e-14
1.99335e-14
1.4618e-14
9.77765e-15
5.31175e-15
1.07327e-15
2.22045e-16
2.22045e-16
1.05911e-15
5.24382e-15
9.65605e-15
1.44427e-14
1.97057e-14
2.54902e-14
3.1778e-14
3.84851e-14
4.54655e-14
5.25198e-14
5.94077e-14
6.58645e-14
7.16197e-14
7.6417e-14
8.0033e-14
8.2294e-14
8.30893e-14
8.23793e-14
8.0199e-14
7.66548e-14
7.19169e-14
6.6206e-14
5.97769e-14
5.28995e-14
4.58392e-14
3.88379e-14
3.20976e-14
2.57671e-14
1.99335e-14
1.4618e-14
9.77765e-15
5.31175e-15
1.07327e-15
2.22045e-16
2.22045e-16
1.05911e-15
5.24382e-15
9.65605e-15
1.44427e-14
1.97057e-14
2.54902e-14
3.1778e-14
3.84851e-14
4.54655e-14
5.25198e-14
5.94077e-14
6.58645e-14
7.16197e-14
7.6417e-14
8.0033e-14
8.2294e-14
8.30893e-14
8.23793e-14
8.0199e-14
7.66548e-14
7.19169e-14
6.6206e-14
5.97769e-14
5.28995e-14
4.58392e-14
3.88379e-14
3.20976e-14
2.57671e-14
1.99335e-14
1.4618e-14
9.77765e-15
5.31175e-15
1.07327e-15
2.22045e-16
2.22045e-16
1.05911e-15
5.24382e-15
9.65605e-15
1.44427e-14
1.97057e-14
2.54902e-14
3.1778e-14
3.84851e-14
4.54655e-14
5.25198e-14
5.94077e-14
6.58645e-14
7.16197e-14
7.6417e-14
8.0033e-14
8.2294e-14
8.30893e-14
8.23793e-14
8.0199e-14
7.66548e-14
7.19169e-14
6.6206e-14
5.97769e-14
5.28995e-14
4.58392e-14
3.88379e-14
3.20976e-14
2.57671e-14
1.99335e-14
1.4618e-14
9.77765e-15
5.31175e-15
1.07327e-15
2.22045e-16
2.22045e-16
1.05911e-15
5.24382e-15
9.65605e-15
1.44427e-14
1.97057e-14
2.54902e-14
3.1778e-14
3.84851e-14
4.54655e-14
5.25198e-14
5.94077e-14
6.58645e-14
7.16197e-14
7.6417e-14
8.0033e-14
8.2294e-14
8.30893e-14
8.23793e-14
8.0199e-14
7.66548e-14
7.19169e-14
6.6206e-14
5.97769e-14
5.28995e-14
4.58392e-14
3.88379e-14
3.20976e-14
2.57671e-14
1.99335e-14
1.4618e-14
9.77765e-15
5.31175e-15
1.07327e-15
2.22045e-16
2.22045e-16
1.05911e-15
5.24382e-15
9.65605e-15
1.44427e-14
1.97057e-14
2.54902e-14
3.1778e-14
3.84851e-14
4.54655e-14
5.25198e-14
5.94077e-14
6.58645e-14
7.16197e-14
7.6417e-14
8.0033e-14
8.2294e-14
8.30893e-14
8.23793e-14
8.0199e-14
7.66548e-14
7.19169e-14
6.6206e-14
5.97769e-14
5.28995e-14
4.58392e-14
3.88379e-14
3.20976e-14
2.57671e-14
1.99335e-14
1.4618e-14
9.77765e-15
5.31175e-15
1.07327e-15
2.22045e-16
2.22045e-16
1.05911e-15
5.24382e-15
9.65605e-15
1.44427e-14
1.97057e-14
2.54902e-14
3.1778e-14
3.84851e-14
4.54655e-14
5.25198e-14
5.94077e-14
6.58645e-14
7.16197e-14
7.6417e-14
8.0033e-14
8.2294e-14
8.30893e-14
8.23793e-14
8.0199e-14
7.66548e-14
7.19169e-14
6.6206e-14
5.97769e-14
5.28995e-14
4.58392e-14
3.88379e-14
3.20976e-14
2.57671e-14
1.99335e-14
1.4618e-14
9.77765e-15
5.31175e-15
1.07327e-15
2.22045e-16
2.22045e-16
1.05911e-15
5.24382e-15
9.65605e-15
1.44427e-14
1.97057e-14
2.54902e-14
3.1778e-14
3.84851e-14
4.54655e-14
5.25198e-14
5.94077e-14
6.58645e-14
7.16197e-14
7.6417e-14
8.0033e-14
8.2294e-14
8.30893e-14
8.23793e-14
8.0199e-14
7.66548e-14
7.19169e-14
6.6206e-14
5.97769e-14
5.28995e-14
4.58392e-14
3.88379e-14
3.20976e-14
2.57671e-14
1.99335e-14
1.4618e-14
9.77765e-15
5.31175e-15
1.07327e-15
2.22045e-16
2.22045e-16
1.05911e-15
5.24382e-15
9.65605e-15
1.44427e-14
1.97057e-14
2.54902e-14
3.1778e-14
3.84851e-14
4.54655e-14
5.25198e-14
5.94077e-14
6.58645e-14
7.16197e-14
7.6417e-14
8.0033e-14
8.2294e-14
8.30893e-14
8.23793e-14
8.0199e-14
7.66548e-14
7.19169e-14
6.6206e-14
5.97769e-14
5.28995e-14
4.58392e-14
3.88379e-14
3.20976e-14
2.57671e-14
1.99335e-14
1.4618e-14
9.77765e-15
5.31175e-15
1.07327e-15
2.22045e-16
2.22045e-16
1.05911e-15
5.24382e-15
9.65605e-15
1.44427e-14
1.97057e-14
2.54902e-14
3.1778e-14
3.84851e-14
4.54655e-14
5.25198e-14
5.94077e-14
6.58645e-14
7.16197e-14
7.6417e-14
8.0033e-14
8.2294e-14
8.30893e-14
8.23793e-14
8.0199e-14
7.66548e-14
7.19169e-14
6.6206e-14
5.97769e-14
5.28995e-14
4.58392e-14
3.88379e-14
3.20976e-14
2.57671e-14
1.99335e-14
1.4618e-14
9.77765e-15
5.31175e-15
1.07327e-15
2.22045e-16
2.22045e-16
1.05911e-15
5.24382e-15
9.65605e-15
1.44427e-14
1.97057e-14
2.54902e-14
3.1778e-14
3.84851e-14
4.54655e-14
5.25198e-14
5.94077e-14
6.58645e-14
7.16197e-14
7.6417e-14
8.0033e-14
8.2294e-14
8.30893e-14
8.23793e-14
8.0199e-14
7.66548e-14
7.19169e-14
6.6206e-14
5.97769e-14
5.28995e-14
4.58392e-14
3.88379e-14
3.20976e-14
2.57671e-14
1.99335e-14
1.4618e-14
9.77765e-15
5.31175e-15
1.07327e-15
2.22045e-16
2.22045e-16
1.05911e-15
5.24382e-15
9.65605e-15
1.44427e-14
1.97057e-14
2.54902e-14
3.1778e-14
3.84851e-14
4.54655e-14
5.25198e-14
5.94077e-14
6.58645e-14
7.16197e-14
7.6417e-14
8.0033e-14
8.2294e-14
8.30893e-14
8.23793e-14
8.0199e-14
7.66548e-14
7.19169e-14
6.6206e-14
5.97769e-14
5.28995e-14
4.58392e-14
3.88379e-14
3.20976e-14
2.57671e-14
1.99335e-14
1.4618e-14
9.77765e-15
5.31175e-15
1.07327e-15
2.22045e-16
2.22045e-16
1.05911e-15
5.24382e-15
9.65605e-15
1.44427e-14
1.97057e-14
2.54902e-14
3.1778e-14
3.84851e-14
4.54655e-14
5.25198e-14
5.94077e-14
6.58645e-14
7.16197e-14
7.6417e-14
8.0033e-14
8.2294e-14
8.30893e-14
8.23793e-14
8.0199e-14
7.66548e-14
7.19169e-14
6.6206e-14
5.97769e-14
5.28995e-14
4.58392e-14
3.88379e-14
3.20976e-14
2.57671e-14
1.99335e-14
1.4618e-14
9.77765e-15
5.31175e-15
1.07327e-15
2.22045e-16
2.22045e-16
1.05911e-15
5.24382e-15
9.65605e-15
1.44427e-14
1.97057e-14
2.54902e-14
3.1778e-14
3.84851e-14
4.54655e-14
5.25198e-14
5.94077e-14
6.58645e-14
7.16197e-14
7.6417e-14
8.0033e-14
8.2294e-14
8.30893e-14
8.23793e-14
8.0199e-14
7.66548e-14
7.19169e-14
6.6206e-14
5.97769e-14
5.28995e-14
4.58392e-14
3.88379e-14
3.20976e-14
2.57671e-14
1.99335e-14
1.4618e-14
9.77765e-15
5.31175e-15
1.07327e-15
2.22045e-16
2.22045e-16
1.05911e-15
5.24382e-15
9.65605e-15
1.44427e-14
1.97057e-14
2.54902e-14
3.1778e-14
3.84851e-14
4.54655e-14
5.25198e-14
5.94077e-14
6.58645e-14
7.16197e-14
7.6417e-14
8.0033e-14
8.2294e-14
8.30893e-14
8.23793e-14
8.0199e-14
7.66548e-14
7.19169e-14
6.6206e-14
5.97769e-14
5.28995e-14
4.58392e-14
3.88379e-14
3.20976e-14
2.57671e-14
1.99335e-14
1.4618e-14
9.77765e-15
5.31175e-15
1.07327e-15
2.22045e-16
2.22045e-16
1.05911e-15
5.24382e-15
9.65605e-15
1.44427e-14
1.97057e-14
2.54902e-14
3.1778e-14
3.84851e-14
4.54655e-14
5.25198e-14
5.94077e-14
6.58645e-14
7.16197e-14
7.6417e-14
8.0033e-14
8.2294e-14
8.30893e-14
8.23793e-14
8.0199e-14
7.66548e-14
7.19169e-14
6.6206e-14
5.97769e-14
5.28995e-14
4.58392e-14
3.88379e-14
3.20976e-14
2.57671e-14
1.99335e-14
1.4618e-14
9.77765e-15
5.31175e-15
1.07327e-15
2.22045e-16
2.22045e-16
1.05911e-15
5.24382e-15
9.65605e-15
1.44427e-14
1.97057e-14
2.54902e-14
3.1778e-14
3.84851e-14
4.54655e-14
5.25198e-14
5.94077e-14
6.58645e-14
7.16197e-14
7.6417e-14
8.0033e-14
8.2294e-14
8.30893e-14
8.23793e-14
8.0199e-14
7.66548e-14
7.19169e-14
6.6206e-14
5.97769e-14
5.28995e-14
4.58392e-14
3.88379e-14
3.20976e-14
2.57671e-14
1.99335e-14
1.4618e-14
9.77765e-15
5.31175e-15
1.07327e-15
2.22045e-16
2.22045e-16
1.05911e-15
5.24382e-15
9.65605e-15
1.44427e-14
1.97057e-14
2.54902e-14
3.1778e-14
3.84851e-14
4.54655e-14
5.25198e-14
5.94077e-14
6.58645e-14
7.16197e-14
7.6417e-14
8.0033e-14
8.2294e-14
8.30893e-14
8.23793e-14
8.0199e-14
7.66548e-14
7.19169e-14
6.6206e-14
5.97769e-14
5.28995e-14
4.58392e-14
3.88379e-14
3.20976e-14
2.57671e-14
1.99335e-14
1.4618e-14
9.77765e-15
5.31175e-15
1.07327e-15
2.22045e-16
2.22045e-16
1.05911e-15
5.24382e-15
9.65605e-15
1.44427e-14
1.97057e-14
2.54902e-14
3.1778e-14
3.84851e-14
4.54655e-14
5.25198e-14
5.94077e-14
6.58645e-14
7.16197e-14
7.6417e-14
8.0033e-14
8.2294e-14
8.30893e-14
8.23793e-14
8.0199e-14
7.66548e-14
7.19169e-14
6.6206e-14
5.97769e-14
5.28995e-14
4.58392e-14
3.88379e-14
3.20976e-14
2.57671e-14
1.99335e-14
1.4618e-14
9.77765e-15
5.31175e-15
1.07327e-15
2.22045e-16
2.22045e-16
1.05911e-15
5.24382e-15
9.65605e-15
1.44427e-14
1.97057e-14
2.54902e-14
3.1778e-14
3.84851e-14
4.54655e-14
5.25198e-14
5.94077e-14
6.58645e-14
7.16197e-14
7.6417e-14
8.0033e-14
8.2294e-14
8.30893e-14
8.23793e-14
8.0199e-14
7.66548e-14
7.19169e-14
6.6206e-14
5.97769e-14
5.28995e-14
4.58392e-14
3.88379e-14
3.20976e-14
2.57671e-14
1.99335e-14
1.4618e-14
9.77765e-15
5.31175e-15
1.07327e-15
2.22045e-16
2.22045e-16
1.05911e-15
5.24382e-15
9.65605e-15
1.44427e-14
1.97057e-14
2.54902e-14
3.1778e-14
3.84851e-14
4.54655e-14
5.25198e-14
5.94077e-14
6.58645e-14
7.16197e-14
7.6417e-14
8.0033e-14
8.2294e-14
8.30893e-14
8.23793e-14
8.0199e-14
7.66548e-14
7.19169e-14
6.6206e-14
5.97769e-14
5.28995e-14
4.58392e-14
3.88379e-14
3.20976e-14
2.57671e-14
1.99335e-14
1.4618e-14
9.77765e-15
5.31175e-15
1.07327e-15
2.22045e-16
2.22045e-16
1.05911e-15
5.24382e-15
9.65605e-15
1.44427e-14
1.97057e-14
2.54902e-14
3.1778e-14
3.84851e-14
4.54655e-14
5.25198e-14
5.94077e-14
6.58645e-14
7.16197e-14
7.6417e-14
8.0033e-14
8.2294e-14
8.30893e-14
8.23793e-14
8.0199e-14
7.66548e-14
7.19169e-14
6.6206e-14
5.97769e-14
5.28995e-14
4.58392e-14
3.88379e-14
3.20976e-14
2.57671e-14
1.99335e-14
1.4618e-14
9.77765e-15
5.31175e-15
1.07327e-15
2.22045e-16
2.22045e-16
1.05911e-15
5.24382e-15
9.65605e-15
1.44427e-14
1.97057e-14
2.54902e-14
3.1778e-14
3.84851e-14
4.54655e-14
5.25198e-14
5.94077e-14
6.58645e-14
7.16197e-14
7.6417e-14
8.0033e-14
8.2294e-14
8.30893e-14
8.23793e-14
8.0199e-14
7.66548e-14
7.19169e-14
6.6206e-14
5.97769e-14
5.28995e-14
4.58392e-14
3.88379e-14
3.20976e-14
2.57671e-14
1.99335e-14
1.4618e-14
9.77765e-15
5.31175e-15
1.07327e-15
2.22045e-16
2.22045e-16
1.05911e-15
5.24382e-15
9.65605e-15
1.44427e-14
1.97057e-14
2.54902e-14
3.1778e-14
3.84851e-14
4.54655e-14
5.25198e-14
5.94077e-14
6.58645e-14
7.16197e-14
7.6417e-14
8.0033e-14
8.2294e-14
8.30893e-14
8.23793e-14
8.0199e-14
7.66548e-14
7.19169e-14
6.6206e-14
5.97769e-14
5.28995e-14
4.58392e-14
3.88379e-14
3.20976e-14
2.57671e-14
1.99335e-14
1.4618e-14
9.77765e-15
5.31175e-15
1.07327e-15
2.22045e-16
2.22045e-16
1.05911e-15
5.24382e-15
9.65605e-15
1.44427e-14
1.97057e-14
2.54902e-14
3.1778e-14
3.84851e-14
4.54655e-14
5.25198e-14
5.94077e-14
6.58645e-14
7.16197e-14
7.6417e-14
8.0033e-14
8.2294e-14
8.30893e-14
8.23793e-14
8.0199e-14
7.66548e-14
7.19169e-14
6.6206e-14
5.97769e-14
5.28995e-14
4.58392e-14
3.88379e-14
3.20976e-14
2.57671e-14
1.99335e-14
1.4618e-14
9.77765e-15
5.31175e-15
1.07327e-15
2.22045e-16
2.22045e-16
1.05911e-15
5.24382e-15
9.65605e-15
1.44427e-14
1.97057e-14
2.54902e-14
3.1778e-14
3.84851e-14
4.54655e-14
5.25198e-14
5.94077e-14
6.58645e-14
7.16197e-14
7.6417e-14
8.0033e-14
8.2294e-14
8.30893e-14
8.23793e-14
8.0199e-14
7.66548e-14
7.19169e-14
6.6206e-14
5.97769e-14
5.28995e-14
4.58392e-14
3.88379e-14
3.20976e-14
2.57671e-14
1.99335e-14
1.4618e-14
9.77765e-15
5.31175e-15
1.07327e-15
2.22045e-16
2.22045e-16
1.05911e-15
5.24382e-15
9.65605e-15
1.44427e-14
1.97057e-14
2.54902e-14
3.1778e-14
3.84851e-14
4.54655e-14
5.25198e-14
5.94077e-14
6.58645e-14
7.16197e-14
7.6417e-14
8.0033e-14
8.2294e-14
8.30893e-14
8.23793e-14
8.0199e-14
7.66548e-14
7.19169e-14
6.6206e-14
5.97769e-14
5.28995e-14
4.58392e-14
3.88379e-14
3.20976e-14
2.57671e-14
1.99335e-14
1.4618e-14
9.77765e-15
5.31175e-15
1.07327e-15
2.22045e-16
2.22045e-16
1.05911e-15
5.24382e-15
9.65605e-15
1.44427e-14
1.97057e-14
2.54902e-14
3.1778e-14
3.84851e-14
4.54655e-14
5.25198e-14
5.94077e-14
6.58645e-14
7.16197e-14
7.6417e-14
8.0033e-14
8.2294e-14
8.30893e-14
8.23793e-14
8.0199e-14
7.66548e-14
7.19169e-14
6.6206e-14
5.97769e-14
5.28995e-14
4.58392e-14
3.88379e-14
3.20976e-14
2.57671e-14
1.99335e-14
1.4618e-14
9.77765e-15
5.31175e-15
1.07327e-15
2.22045e-16
2.22045e-16
1.05911e-15
5.24382e-15
9.65605e-15
1.44427e-14
1.97057e-14
2.54902e-14
3.1778e-14
3.84851e-14
4.54655e-14
5.25198e-14
5.94077e-14
6.58645e-14
7.16197e-14
7.6417e-14
8.0033e-14
8.2294e-14
8.30893e-14
8.23793e-14
8.0199e-14
7.66548e-14
7.19169e-14
6.6206e-14
5.97769e-14
5.28995e-14
4.58392e-14
3.88379e-14
3.20976e-14
2.57671e-14
1.99335e-14
1.4618e-14
9.77765e-15
5.31175e-15
1.07327e-15
2.22045e-16
2.22045e-16
1.05911e-15
5.24382e-15
9.65605e-15
1.44427e-14
1.97057e-14
2.54902e-14
3.1778e-14
3.84851e-14
4.54655e-14
5.25198e-14
5.94077e-14
6.58645e-14
7.16197e-14
7.6417e-14
8.0033e-14
8.2294e-14
8.30893e-14
8.23793e-14
8.0199e-14
7.66548e-14
7.19169e-14
6.6206e-14
5.97769e-14
5.28995e-14
4.58392e-14
3.88379e-14
3.20976e-14
2.57671e-14