/*--------------------------------*- C++ -*----------------------------------*\
  =========                 |
  \\      /  F ield         | OpenFOAM: The Open Source CFD Toolbox
   \\    /   O peration     | Website:  https://openfoam.org
    \\  /    A nd           | Version:  13
     \\/     M anipulation  |
\*---------------------------------------------------------------------------*/
FoamFile
{
    format      ascii;
    class       volScalarField;
    location    "127.5";
    object      rhok;
}
// * * * * * * * * * * * * * * * * * * * * * * * * * * * * * * * * * * * * * //

dimensions      [];

internalField   nonuniform List<scalar> 
315000
(
0.44462
0.429542
0.41444
0.412996
0.412239
0.411485
0.410734
0.409986
0.40924
0.408497
0.407757
0.407019
0.406285
0.405554
0.404826
0.404101
0.403379
0.402661
0.401946
0.401234
0.400526
0.399821
0.399121
0.398424
0.39773
0.397041
0.396355
0.395673
0.394995
0.394322
0.393652
0.392986
0.392324
0.391667
0.391013
0.390364
0.389718
0.389077
0.38844
0.387807
0.387178
0.386552
0.385931
0.385314
0.3847
0.38409
0.383484
0.382881
0.382282
0.381686
0.381094
0.380505
0.379918
0.379335
0.378754
0.378177
0.377601
0.377028
0.376458
0.375889
0.375322
0.374757
0.374194
0.373632
0.373071
0.372511
0.371952
0.371393
0.370836
0.370278
0.44462
0.42954
0.414437
0.412992
0.412236
0.411482
0.410731
0.409982
0.409236
0.408493
0.407753
0.407016
0.406281
0.40555
0.404822
0.404097
0.403375
0.402656
0.401941
0.40123
0.400522
0.399817
0.399116
0.398419
0.397726
0.397036
0.39635
0.395669
0.394991
0.394317
0.393647
0.392981
0.39232
0.391662
0.391009
0.390359
0.389714
0.389073
0.388435
0.387802
0.387173
0.386548
0.385927
0.385309
0.384696
0.384086
0.38348
0.382877
0.382278
0.381683
0.38109
0.380501
0.379915
0.379332
0.378752
0.378174
0.377599
0.377026
0.376455
0.375887
0.37532
0.374756
0.374192
0.37363
0.37307
0.37251
0.371951
0.371393
0.370835
0.370278
0.44462
0.429539
0.414434
0.412989
0.412233
0.411479
0.410728
0.409979
0.409233
0.40849
0.40775
0.407012
0.406278
0.405546
0.404818
0.404093
0.403371
0.402653
0.401938
0.401226
0.400518
0.399813
0.399112
0.398415
0.397722
0.397032
0.396346
0.395665
0.394987
0.394313
0.393643
0.392977
0.392316
0.391658
0.391005
0.390355
0.38971
0.389069
0.388432
0.387798
0.387169
0.386544
0.385923
0.385306
0.384692
0.384083
0.383477
0.382874
0.382275
0.38168
0.381088
0.380499
0.379913
0.379329
0.378749
0.378172
0.377597
0.377024
0.376454
0.375885
0.375319
0.374754
0.374191
0.373629
0.373069
0.372509
0.371951
0.371393
0.370835
0.370278
0.44462
0.429537
0.414432
0.412987
0.41223
0.411476
0.410725
0.409976
0.40923
0.408487
0.407747
0.407009
0.406275
0.405543
0.404815
0.40409
0.403368
0.402649
0.401934
0.401222
0.400514
0.39981
0.399109
0.398412
0.397718
0.397029
0.396343
0.395661
0.394983
0.394309
0.39364
0.392974
0.392312
0.391655
0.391001
0.390352
0.389706
0.389065
0.388428
0.387795
0.387166
0.386541
0.38592
0.385303
0.384689
0.38408
0.383474
0.382872
0.382273
0.381677
0.381085
0.380496
0.37991
0.379327
0.378747
0.37817
0.377595
0.377022
0.376452
0.375884
0.375318
0.374753
0.37419
0.373628
0.373068
0.372509
0.37195
0.371392
0.370835
0.370278
0.44462
0.429536
0.41443
0.412985
0.412228
0.411474
0.410723
0.409974
0.409228
0.408485
0.407744
0.407007
0.406272
0.405541
0.404812
0.404087
0.403365
0.402647
0.401931
0.40122
0.400512
0.399807
0.399106
0.398409
0.397715
0.397026
0.39634
0.395658
0.39498
0.394307
0.393637
0.392971
0.392309
0.391652
0.390998
0.390349
0.389704
0.389063
0.388425
0.387792
0.387164
0.386539
0.385917
0.3853
0.384687
0.384077
0.383472
0.382869
0.382271
0.381675
0.381083
0.380494
0.379908
0.379326
0.378746
0.378168
0.377593
0.377021
0.376451
0.375883
0.375317
0.374752
0.374189
0.373628
0.373067
0.372508
0.37195
0.371392
0.370835
0.370278
0.44462
0.429536
0.414428
0.412983
0.412226
0.411472
0.410721
0.409972
0.409226
0.408483
0.407742
0.407005
0.40627
0.405539
0.40481
0.404085
0.403363
0.402645
0.401929
0.401218
0.400509
0.399805
0.399104
0.398407
0.397713
0.397024
0.396338
0.395656
0.394978
0.394304
0.393635
0.392969
0.392307
0.39165
0.390996
0.390347
0.389702
0.38906
0.388423
0.38779
0.387162
0.386537
0.385916
0.385298
0.384685
0.384076
0.38347
0.382868
0.382269
0.381674
0.381082
0.380493
0.379907
0.379324
0.378744
0.378167
0.377592
0.37702
0.37645
0.375882
0.375316
0.374751
0.374188
0.373627
0.373067
0.372508
0.371949
0.371392
0.370835
0.370278
0.44462
0.429535
0.414427
0.412982
0.412226
0.411472
0.41072
0.409971
0.409225
0.408482
0.407741
0.407004
0.406269
0.405538
0.404809
0.404084
0.403362
0.402643
0.401928
0.401216
0.400508
0.399804
0.399103
0.398405
0.397712
0.397022
0.396336
0.395655
0.394977
0.394303
0.393633
0.392967
0.392306
0.391648
0.390995
0.390345
0.3897
0.389059
0.388422
0.387789
0.38716
0.386535
0.385914
0.385297
0.384684
0.384074
0.383469
0.382866
0.382268
0.381672
0.38108
0.380492
0.379906
0.379323
0.378743
0.378166
0.377591
0.377019
0.376449
0.375881
0.375315
0.374751
0.374188
0.373627
0.373067
0.372507
0.371949
0.371392
0.370834
0.370278
0.44462
0.429535
0.414427
0.412982
0.412225
0.411471
0.41072
0.409971
0.409225
0.408481
0.407741
0.407003
0.406269
0.405537
0.404809
0.404083
0.403361
0.402643
0.401928
0.401216
0.400508
0.399803
0.399102
0.398405
0.397711
0.397021
0.396336
0.395654
0.394976
0.394302
0.393632
0.392966
0.392305
0.391647
0.390994
0.390344
0.389699
0.389058
0.388421
0.387788
0.387159
0.386534
0.385913
0.385296
0.384683
0.384073
0.383468
0.382866
0.382267
0.381672
0.38108
0.380491
0.379905
0.379323
0.378743
0.378166
0.377591
0.377019
0.376449
0.375881
0.375315
0.37475
0.374188
0.373626
0.373066
0.372507
0.371949
0.371391
0.370834
0.370278
0.44462
0.429535
0.414427
0.412982
0.412225
0.411471
0.41072
0.409971
0.409225
0.408482
0.407741
0.407003
0.406269
0.405537
0.404809
0.404083
0.403361
0.402643
0.401928
0.401216
0.400507
0.399803
0.399102
0.398404
0.397711
0.397021
0.396335
0.395654
0.394976
0.394302
0.393632
0.392966
0.392304
0.391647
0.390993
0.390344
0.389699
0.389058
0.388421
0.387788
0.387159
0.386534
0.385913
0.385296
0.384682
0.384073
0.383467
0.382865
0.382266
0.381671
0.381079
0.38049
0.379905
0.379322
0.378742
0.378165
0.377591
0.377018
0.376448
0.37588
0.375314
0.37475
0.374187
0.373626
0.373066
0.372507
0.371949
0.371391
0.370834
0.370278
0.44462
0.429535
0.414428
0.412982
0.412226
0.411472
0.41072
0.409971
0.409225
0.408482
0.407741
0.407004
0.406269
0.405538
0.404809
0.404084
0.403362
0.402643
0.401928
0.401216
0.400508
0.399803
0.399102
0.398405
0.397711
0.397021
0.396336
0.395654
0.394976
0.394302
0.393632
0.392966
0.392304
0.391647
0.390993
0.390344
0.389699
0.389058
0.38842
0.387787
0.387159
0.386534
0.385913
0.385296
0.384682
0.384073
0.383467
0.382865
0.382266
0.381671
0.381079
0.38049
0.379905
0.379322
0.378742
0.378165
0.37759
0.377018
0.376448
0.37588
0.375314
0.37475
0.374187
0.373626
0.373066
0.372507
0.371949
0.371391
0.370834
0.370278
0.44462
0.429536
0.414428
0.412983
0.412226
0.411472
0.410721
0.409972
0.409226
0.408483
0.407742
0.407004
0.40627
0.405538
0.40481
0.404084
0.403362
0.402644
0.401928
0.401216
0.400508
0.399803
0.399102
0.398405
0.397711
0.397022
0.396336
0.395654
0.394976
0.394302
0.393632
0.392966
0.392305
0.391647
0.390993
0.390344
0.389699
0.389058
0.388421
0.387788
0.387159
0.386534
0.385913
0.385296
0.384682
0.384073
0.383467
0.382865
0.382266
0.381671
0.381079
0.38049
0.379905
0.379322
0.378742
0.378165
0.37759
0.377018
0.376448
0.37588
0.375314
0.37475
0.374187
0.373626
0.373066
0.372507
0.371949
0.371391
0.370834
0.370278
0.44462
0.429536
0.414429
0.412983
0.412227
0.411473
0.410721
0.409972
0.409226
0.408483
0.407742
0.407005
0.40627
0.405539
0.40481
0.404085
0.403363
0.402644
0.401929
0.401217
0.400508
0.399804
0.399103
0.398405
0.397712
0.397022
0.396336
0.395654
0.394976
0.394302
0.393632
0.392967
0.392305
0.391647
0.390994
0.390344
0.389699
0.389058
0.388421
0.387788
0.387159
0.386534
0.385913
0.385296
0.384682
0.384073
0.383467
0.382865
0.382266
0.381671
0.381079
0.38049
0.379905
0.379322
0.378742
0.378165
0.37759
0.377018
0.376448
0.37588
0.375314
0.37475
0.374187
0.373626
0.373066
0.372507
0.371949
0.371391
0.370834
0.370278
0.44462
0.429536
0.414429
0.412984
0.412227
0.411473
0.410722
0.409973
0.409227
0.408483
0.407743
0.407005
0.40627
0.405539
0.40481
0.404085
0.403363
0.402644
0.401929
0.401217
0.400509
0.399804
0.399103
0.398406
0.397712
0.397022
0.396336
0.395654
0.394976
0.394302
0.393633
0.392967
0.392305
0.391647
0.390994
0.390344
0.389699
0.389058
0.388421
0.387788
0.387159
0.386534
0.385913
0.385296
0.384683
0.384073
0.383467
0.382865
0.382266
0.381671
0.381079
0.38049
0.379905
0.379322
0.378742
0.378165
0.37759
0.377018
0.376448
0.37588
0.375314
0.37475
0.374187
0.373626
0.373066
0.372507
0.371949
0.371391
0.370834
0.370278
0.44462
0.429536
0.414429
0.412984
0.412227
0.411473
0.410722
0.409973
0.409227
0.408483
0.407743
0.407005
0.40627
0.405539
0.40481
0.404085
0.403363
0.402644
0.401929
0.401217
0.400509
0.399804
0.399103
0.398406
0.397712
0.397022
0.396336
0.395655
0.394977
0.394303
0.393633
0.392967
0.392305
0.391647
0.390994
0.390345
0.389699
0.389058
0.388421
0.387788
0.387159
0.386534
0.385913
0.385296
0.384683
0.384073
0.383467
0.382865
0.382266
0.381671
0.381079
0.380491
0.379905
0.379322
0.378742
0.378165
0.37759
0.377018
0.376448
0.37588
0.375314
0.37475
0.374187
0.373626
0.373066
0.372507
0.371949
0.371391
0.370834
0.370278
0.44462
0.429536
0.414429
0.412983
0.412227
0.411473
0.410721
0.409973
0.409226
0.408483
0.407743
0.407005
0.40627
0.405539
0.40481
0.404085
0.403363
0.402644
0.401929
0.401217
0.400509
0.399804
0.399103
0.398406
0.397712
0.397022
0.396336
0.395655
0.394977
0.394303
0.393633
0.392967
0.392305
0.391648
0.390994
0.390345
0.389699
0.389058
0.388421
0.387788
0.387159
0.386534
0.385913
0.385296
0.384683
0.384073
0.383467
0.382865
0.382267
0.381671
0.381079
0.380491
0.379905
0.379322
0.378742
0.378165
0.377591
0.377018
0.376448
0.37588
0.375314
0.37475
0.374187
0.373626
0.373066
0.372507
0.371949
0.371391
0.370834
0.370278
0.44462
0.429536
0.414429
0.412983
0.412227
0.411473
0.410721
0.409972
0.409226
0.408483
0.407743
0.407005
0.40627
0.405539
0.40481
0.404085
0.403363
0.402644
0.401929
0.401217
0.400509
0.399804
0.399103
0.398406
0.397712
0.397022
0.396337
0.395655
0.394977
0.394303
0.393633
0.392967
0.392305
0.391648
0.390994
0.390345
0.3897
0.389058
0.388421
0.387788
0.387159
0.386534
0.385913
0.385296
0.384683
0.384073
0.383468
0.382865
0.382267
0.381671
0.38108
0.380491
0.379905
0.379322
0.378743
0.378165
0.377591
0.377018
0.376448
0.375881
0.375315
0.37475
0.374188
0.373626
0.373066
0.372507
0.371949
0.371391
0.370834
0.370278
0.44462
0.429536
0.414429
0.412983
0.412227
0.411473
0.410721
0.409973
0.409227
0.408483
0.407743
0.407005
0.40627
0.405539
0.40481
0.404085
0.403363
0.402644
0.401929
0.401217
0.400509
0.399804
0.399103
0.398406
0.397712
0.397023
0.396337
0.395655
0.394977
0.394303
0.393633
0.392967
0.392306
0.391648
0.390994
0.390345
0.3897
0.389059
0.388422
0.387789
0.38716
0.386535
0.385914
0.385296
0.384683
0.384074
0.383468
0.382866
0.382267
0.381672
0.38108
0.380491
0.379905
0.379323
0.378743
0.378166
0.377591
0.377019
0.376449
0.375881
0.375315
0.37475
0.374188
0.373626
0.373066
0.372507
0.371949
0.371391
0.370834
0.370278
0.44462
0.429536
0.414429
0.412984
0.412227
0.411473
0.410722
0.409973
0.409227
0.408484
0.407743
0.407006
0.406271
0.405539
0.404811
0.404086
0.403364
0.402645
0.40193
0.401218
0.40051
0.399805
0.399104
0.398406
0.397713
0.397023
0.396337
0.395655
0.394977
0.394304
0.393634
0.392968
0.392306
0.391648
0.390995
0.390346
0.3897
0.389059
0.388422
0.387789
0.38716
0.386535
0.385914
0.385297
0.384684
0.384074
0.383468
0.382866
0.382267
0.381672
0.38108
0.380491
0.379906
0.379323
0.378743
0.378166
0.377591
0.377019
0.376449
0.375881
0.375315
0.37475
0.374188
0.373626
0.373066
0.372507
0.371949
0.371391
0.370834
0.370278
0.44462
0.429537
0.41443
0.412985
0.412228
0.411474
0.410723
0.409974
0.409228
0.408485
0.407744
0.407006
0.406272
0.40554
0.404812
0.404087
0.403365
0.402646
0.401931
0.401219
0.40051
0.399806
0.399105
0.398407
0.397714
0.397024
0.396338
0.395656
0.394978
0.394304
0.393634
0.392969
0.392307
0.391649
0.390996
0.390346
0.389701
0.38906
0.388423
0.38779
0.387161
0.386536
0.385914
0.385297
0.384684
0.384074
0.383469
0.382866
0.382268
0.381672
0.38108
0.380492
0.379906
0.379323
0.378743
0.378166
0.377591
0.377019
0.376449
0.375881
0.375315
0.374751
0.374188
0.373627
0.373066
0.372507
0.371949
0.371391
0.370834
0.370278
0.44462
0.429537
0.414431
0.412986
0.412229
0.411475
0.410724
0.409975
0.409229
0.408486
0.407745
0.407008
0.406273
0.405541
0.404813
0.404088
0.403366
0.402647
0.401932
0.40122
0.400511
0.399807
0.399106
0.398408
0.397715
0.397025
0.396339
0.395657
0.394979
0.394305
0.393635
0.392969
0.392308
0.39165
0.390996
0.390347
0.389702
0.38906
0.388423
0.38779
0.387161
0.386536
0.385915
0.385298
0.384685
0.384075
0.383469
0.382867
0.382268
0.381673
0.381081
0.380492
0.379906
0.379323
0.378743
0.378166
0.377592
0.377019
0.376449
0.375881
0.375315
0.374751
0.374188
0.373627
0.373067
0.372507
0.371949
0.371392
0.370834
0.370278
0.44462
0.429538
0.414432
0.412987
0.41223
0.411476
0.410725
0.409976
0.40923
0.408487
0.407746
0.407009
0.406274
0.405542
0.404814
0.404089
0.403367
0.402648
0.401933
0.401221
0.400512
0.399808
0.399107
0.398409
0.397716
0.397026
0.39634
0.395658
0.39498
0.394306
0.393636
0.39297
0.392308
0.391651
0.390997
0.390348
0.389702
0.389061
0.388424
0.387791
0.387162
0.386537
0.385916
0.385298
0.384685
0.384075
0.38347
0.382867
0.382269
0.381673
0.381081
0.380492
0.379907
0.379324
0.378744
0.378167
0.377592
0.377019
0.376449
0.375881
0.375315
0.374751
0.374188
0.373627
0.373067
0.372507
0.371949
0.371392
0.370834
0.370278
0.44462
0.429538
0.414433
0.412988
0.412231
0.411477
0.410726
0.409977
0.409231
0.408488
0.407747
0.40701
0.406275
0.405544
0.404815
0.40409
0.403368
0.402649
0.401934
0.401222
0.400514
0.399809
0.399108
0.39841
0.397717
0.397027
0.396341
0.395659
0.394981
0.394307
0.393637
0.392971
0.392309
0.391652
0.390998
0.390348
0.389703
0.389062
0.388425
0.387792
0.387162
0.386537
0.385916
0.385299
0.384686
0.384076
0.38347
0.382868
0.382269
0.381674
0.381082
0.380493
0.379907
0.379324
0.378744
0.378167
0.377592
0.37702
0.37645
0.375882
0.375315
0.374751
0.374188
0.373627
0.373067
0.372508
0.371949
0.371392
0.370834
0.370278
0.44462
0.429539
0.414434
0.412989
0.412232
0.411478
0.410727
0.409978
0.409232
0.408489
0.407748
0.407011
0.406276
0.405545
0.404816
0.404091
0.403369
0.40265
0.401935
0.401223
0.400515
0.39981
0.399109
0.398411
0.397718
0.397028
0.396342
0.39566
0.394982
0.394308
0.393638
0.392972
0.39231
0.391652
0.390999
0.390349
0.389704
0.389063
0.388425
0.387792
0.387163
0.386538
0.385917
0.3853
0.384686
0.384077
0.383471
0.382868
0.382269
0.381674
0.381082
0.380493
0.379907
0.379324
0.378744
0.378167
0.377592
0.37702
0.37645
0.375882
0.375316
0.374751
0.374188
0.373627
0.373067
0.372508
0.371949
0.371392
0.370834
0.370278
0.44462
0.429539
0.414435
0.41299
0.412233
0.411479
0.410728
0.409979
0.409233
0.40849
0.40775
0.407012
0.406277
0.405546
0.404817
0.404092
0.40337
0.402651
0.401936
0.401224
0.400516
0.399811
0.39911
0.398412
0.397719
0.397029
0.396343
0.395661
0.394983
0.394309
0.393639
0.392973
0.392311
0.391653
0.391
0.39035
0.389705
0.389063
0.388426
0.387793
0.387164
0.386539
0.385917
0.3853
0.384687
0.384077
0.383471
0.382869
0.38227
0.381674
0.381082
0.380493
0.379908
0.379325
0.378745
0.378167
0.377593
0.37702
0.37645
0.375882
0.375316
0.374751
0.374189
0.373627
0.373067
0.372508
0.371949
0.371392
0.370835
0.370278
0.44462
0.429539
0.414436
0.412991
0.412234
0.41148
0.410729
0.40998
0.409234
0.408491
0.407751
0.407013
0.406278
0.405547
0.404818
0.404093
0.403371
0.402652
0.401937
0.401225
0.400517
0.399812
0.399111
0.398413
0.39772
0.39703
0.396344
0.395662
0.394984
0.39431
0.39364
0.392974
0.392312
0.391654
0.391
0.390351
0.389705
0.389064
0.388427
0.387794
0.387164
0.386539
0.385918
0.385301
0.384687
0.384078
0.383472
0.382869
0.38227
0.381675
0.381083
0.380494
0.379908
0.379325
0.378745
0.378168
0.377593
0.377021
0.37645
0.375882
0.375316
0.374752
0.374189
0.373627
0.373067
0.372508
0.371949
0.371392
0.370835
0.370278
0.44462
0.42954
0.414437
0.412992
0.412235
0.411481
0.41073
0.409981
0.409235
0.408492
0.407752
0.407014
0.40628
0.405548
0.40482
0.404094
0.403372
0.402653
0.401938
0.401226
0.400518
0.399813
0.399112
0.398414
0.397721
0.397031
0.396345
0.395663
0.394985
0.394311
0.393641
0.392975
0.392313
0.391655
0.391001
0.390352
0.389706
0.389065
0.388428
0.387794
0.387165
0.38654
0.385919
0.385301
0.384688
0.384078
0.383472
0.38287
0.382271
0.381675
0.381083
0.380494
0.379908
0.379326
0.378745
0.378168
0.377593
0.377021
0.376451
0.375882
0.375316
0.374752
0.374189
0.373627
0.373067
0.372508
0.37195
0.371392
0.370835
0.370278
0.44462
0.42954
0.414438
0.412993
0.412236
0.411482
0.410731
0.409982
0.409236
0.408493
0.407753
0.407015
0.406281
0.405549
0.404821
0.404095
0.403373
0.402655
0.401939
0.401227
0.400519
0.399814
0.399113
0.398416
0.397722
0.397032
0.396346
0.395664
0.394986
0.394312
0.393642
0.392976
0.392314
0.391656
0.391002
0.390352
0.389707
0.389066
0.388428
0.387795
0.387166
0.386541
0.385919
0.385302
0.384688
0.384079
0.383473
0.38287
0.382271
0.381676
0.381084
0.380495
0.379909
0.379326
0.378746
0.378168
0.377593
0.377021
0.376451
0.375883
0.375316
0.374752
0.374189
0.373628
0.373067
0.372508
0.37195
0.371392
0.370835
0.370278
0.44462
0.429541
0.414438
0.412994
0.412237
0.411484
0.410732
0.409984
0.409238
0.408494
0.407754
0.407016
0.406282
0.40555
0.404822
0.404096
0.403374
0.402656
0.40194
0.401228
0.40052
0.399815
0.399114
0.398417
0.397723
0.397033
0.396347
0.395665
0.394987
0.394313
0.393643
0.392976
0.392314
0.391657
0.391003
0.390353
0.389708
0.389066
0.388429
0.387796
0.387167
0.386541
0.38592
0.385303
0.384689
0.384079
0.383473
0.382871
0.382272
0.381676
0.381084
0.380495
0.379909
0.379326
0.378746
0.378169
0.377594
0.377021
0.376451
0.375883
0.375317
0.374752
0.374189
0.373628
0.373067
0.372508
0.37195
0.371392
0.370835
0.370278
0.44462
0.429541
0.414439
0.412995
0.412238
0.411485
0.410733
0.409985
0.409239
0.408495
0.407755
0.407017
0.406283
0.405551
0.404823
0.404098
0.403375
0.402657
0.401941
0.401229
0.400521
0.399816
0.399115
0.398418
0.397724
0.397034
0.396348
0.395666
0.394988
0.394314
0.393643
0.392977
0.392315
0.391657
0.391004
0.390354
0.389708
0.389067
0.38843
0.387796
0.387167
0.386542
0.385921
0.385303
0.38469
0.38408
0.383474
0.382871
0.382272
0.381677
0.381084
0.380495
0.37991
0.379327
0.378746
0.378169
0.377594
0.377022
0.376451
0.375883
0.375317
0.374752
0.374189
0.373628
0.373067
0.372508
0.37195
0.371392
0.370835
0.370278
0.44462
0.429542
0.41444
0.412996
0.412239
0.411485
0.410734
0.409986
0.40924
0.408496
0.407756
0.407018
0.406284
0.405552
0.404824
0.404099
0.403376
0.402658
0.401942
0.40123
0.400522
0.399817
0.399116
0.398419
0.397725
0.397035
0.396349
0.395667
0.394989
0.394314
0.393644
0.392978
0.392316
0.391658
0.391004
0.390355
0.389709
0.389068
0.38843
0.387797
0.387168
0.386542
0.385921
0.385304
0.38469
0.38408
0.383474
0.382872
0.382273
0.381677
0.381085
0.380496
0.37991
0.379327
0.378747
0.378169
0.377594
0.377022
0.376451
0.375883
0.375317
0.374752
0.374189
0.373628
0.373068
0.372508
0.37195
0.371392
0.370835
0.370278
0.44462
0.429542
0.414441
0.412996
0.41224
0.411486
0.410735
0.409986
0.40924
0.408497
0.407757
0.407019
0.406285
0.405553
0.404825
0.404099
0.403377
0.402659
0.401943
0.401231
0.400523
0.399818
0.399117
0.398419
0.397726
0.397036
0.39635
0.395667
0.394989
0.394315
0.393645
0.392979
0.392317
0.391659
0.391005
0.390355
0.38971
0.389068
0.388431
0.387798
0.387168
0.386543
0.385922
0.385304
0.384691
0.384081
0.383475
0.382872
0.382273
0.381677
0.381085
0.380496
0.37991
0.379327
0.378747
0.378169
0.377594
0.377022
0.376452
0.375883
0.375317
0.374753
0.37419
0.373628
0.373068
0.372508
0.37195
0.371392
0.370835
0.370278
0.44462
0.429543
0.414442
0.412997
0.412241
0.411487
0.410736
0.409987
0.409241
0.408498
0.407758
0.40702
0.406285
0.405554
0.404825
0.4041
0.403378
0.402659
0.401944
0.401232
0.400524
0.399819
0.399118
0.39842
0.397726
0.397036
0.39635
0.395668
0.39499
0.394316
0.393646
0.392979
0.392317
0.391659
0.391006
0.390356
0.38971
0.389069
0.388431
0.387798
0.387169
0.386543
0.385922
0.385305
0.384691
0.384081
0.383475
0.382872
0.382273
0.381678
0.381085
0.380496
0.37991
0.379327
0.378747
0.37817
0.377595
0.377022
0.376452
0.375884
0.375317
0.374753
0.37419
0.373628
0.373068
0.372508
0.37195
0.371392
0.370835
0.370278
0.44462
0.429543
0.414442
0.412998
0.412241
0.411488
0.410736
0.409988
0.409242
0.408499
0.407758
0.407021
0.406286
0.405555
0.404826
0.404101
0.403379
0.40266
0.401945
0.401233
0.400524
0.399819
0.399118
0.398421
0.397727
0.397037
0.396351
0.395669
0.39499
0.394316
0.393646
0.39298
0.392318
0.39166
0.391006
0.390356
0.389711
0.389069
0.388432
0.387798
0.387169
0.386544
0.385922
0.385305
0.384691
0.384081
0.383475
0.382873
0.382274
0.381678
0.381086
0.380497
0.379911
0.379327
0.378747
0.37817
0.377595
0.377022
0.376452
0.375884
0.375317
0.374753
0.37419
0.373628
0.373068
0.372508
0.37195
0.371392
0.370835
0.370278
0.44462
0.429543
0.414443
0.412998
0.412242
0.411488
0.410737
0.409988
0.409242
0.408499
0.407759
0.407021
0.406287
0.405555
0.404827
0.404101
0.403379
0.40266
0.401945
0.401233
0.400525
0.39982
0.399119
0.398421
0.397727
0.397037
0.396351
0.395669
0.394991
0.394317
0.393646
0.39298
0.392318
0.39166
0.391006
0.390357
0.389711
0.389069
0.388432
0.387799
0.387169
0.386544
0.385923
0.385305
0.384691
0.384082
0.383475
0.382873
0.382274
0.381678
0.381086
0.380497
0.379911
0.379328
0.378747
0.37817
0.377595
0.377022
0.376452
0.375884
0.375317
0.374753
0.37419
0.373628
0.373068
0.372508
0.37195
0.371392
0.370835
0.370278
0.44462
0.429543
0.414443
0.412998
0.412242
0.411488
0.410737
0.409988
0.409243
0.408499
0.407759
0.407021
0.406287
0.405555
0.404827
0.404102
0.403379
0.402661
0.401945
0.401233
0.400525
0.39982
0.399119
0.398421
0.397728
0.397038
0.396351
0.395669
0.394991
0.394317
0.393647
0.39298
0.392318
0.39166
0.391007
0.390357
0.389711
0.38907
0.388432
0.387799
0.387169
0.386544
0.385923
0.385305
0.384692
0.384082
0.383475
0.382873
0.382274
0.381678
0.381086
0.380497
0.379911
0.379328
0.378747
0.37817
0.377595
0.377022
0.376452
0.375884
0.375317
0.374753
0.37419
0.373628
0.373068
0.372508
0.37195
0.371392
0.370835
0.370278
0.44462
0.429543
0.414443
0.412999
0.412242
0.411488
0.410737
0.409989
0.409243
0.4085
0.407759
0.407022
0.406287
0.405555
0.404827
0.404102
0.40338
0.402661
0.401946
0.401234
0.400525
0.39982
0.399119
0.398421
0.397728
0.397038
0.396352
0.395669
0.394991
0.394317
0.393647
0.392981
0.392319
0.391661
0.391007
0.390357
0.389711
0.38907
0.388432
0.387799
0.38717
0.386544
0.385923
0.385305
0.384692
0.384082
0.383476
0.382873
0.382274
0.381678
0.381086
0.380497
0.379911
0.379328
0.378748
0.37817
0.377595
0.377022
0.376452
0.375884
0.375317
0.374753
0.37419
0.373628
0.373068
0.372508
0.37195
0.371392
0.370835
0.370278
0.44462
0.429543
0.414443
0.412999
0.412242
0.411489
0.410737
0.409989
0.409243
0.4085
0.407759
0.407022
0.406287
0.405556
0.404827
0.404102
0.40338
0.402661
0.401946
0.401234
0.400525
0.39982
0.399119
0.398422
0.397728
0.397038
0.396352
0.39567
0.394991
0.394317
0.393647
0.392981
0.392319
0.391661
0.391007
0.390357
0.389711
0.38907
0.388432
0.387799
0.38717
0.386544
0.385923
0.385305
0.384692
0.384082
0.383476
0.382873
0.382274
0.381678
0.381086
0.380497
0.379911
0.379328
0.378748
0.37817
0.377595
0.377022
0.376452
0.375884
0.375317
0.374753
0.37419
0.373628
0.373068
0.372509
0.37195
0.371392
0.370835
0.370278
0.44462
0.429543
0.414443
0.412999
0.412242
0.411489
0.410737
0.409989
0.409243
0.4085
0.407759
0.407022
0.406287
0.405556
0.404827
0.404102
0.40338
0.402661
0.401946
0.401234
0.400525
0.39982
0.399119
0.398422
0.397728
0.397038
0.396352
0.39567
0.394991
0.394317
0.393647
0.392981
0.392319
0.391661
0.391007
0.390357
0.389711
0.38907
0.388432
0.387799
0.38717
0.386544
0.385923
0.385305
0.384692
0.384082
0.383476
0.382873
0.382274
0.381678
0.381086
0.380497
0.379911
0.379328
0.378748
0.37817
0.377595
0.377022
0.376452
0.375884
0.375317
0.374753
0.37419
0.373628
0.373068
0.372509
0.37195
0.371392
0.370835
0.370278
0.44462
0.429543
0.414443
0.412999
0.412242
0.411489
0.410737
0.409989
0.409243
0.4085
0.407759
0.407022
0.406287
0.405556
0.404827
0.404102
0.40338
0.402661
0.401946
0.401234
0.400525
0.39982
0.399119
0.398422
0.397728
0.397038
0.396352
0.39567
0.394991
0.394317
0.393647
0.392981
0.392319
0.391661
0.391007
0.390357
0.389711
0.38907
0.388432
0.387799
0.38717
0.386544
0.385923
0.385305
0.384692
0.384082
0.383476
0.382873
0.382274
0.381678
0.381086
0.380497
0.379911
0.379328
0.378748
0.37817
0.377595
0.377022
0.376452
0.375884
0.375317
0.374753
0.37419
0.373628
0.373068
0.372509
0.37195
0.371392
0.370835
0.370278
0.44462
0.429544
0.414443
0.412999
0.412242
0.411489
0.410737
0.409989
0.409243
0.4085
0.407759
0.407022
0.406287
0.405556
0.404827
0.404102
0.40338
0.402661
0.401946
0.401234
0.400525
0.39982
0.399119
0.398422
0.397728
0.397038
0.396352
0.39567
0.394991
0.394317
0.393647
0.392981
0.392319
0.391661
0.391007
0.390357
0.389711
0.38907
0.388432
0.387799
0.38717
0.386544
0.385923
0.385305
0.384692
0.384082
0.383476
0.382873
0.382274
0.381678
0.381086
0.380497
0.379911
0.379328
0.378748
0.37817
0.377595
0.377022
0.376452
0.375884
0.375317
0.374753
0.37419
0.373628
0.373068
0.372509
0.37195
0.371392
0.370835
0.370278
0.44462
0.429544
0.414443
0.412999
0.412242
0.411489
0.410738
0.409989
0.409243
0.4085
0.407759
0.407022
0.406287
0.405556
0.404827
0.404102
0.40338
0.402661
0.401946
0.401234
0.400525
0.39982
0.399119
0.398422
0.397728
0.397038
0.396352
0.39567
0.394991
0.394317
0.393647
0.392981
0.392319
0.391661
0.391007
0.390357
0.389711
0.38907
0.388432
0.387799
0.38717
0.386544
0.385923
0.385305
0.384692
0.384082
0.383476
0.382873
0.382274
0.381678
0.381086
0.380497
0.379911
0.379328
0.378748
0.37817
0.377595
0.377022
0.376452
0.375884
0.375318
0.374753
0.37419
0.373628
0.373068
0.372509
0.37195
0.371392
0.370835
0.370278
0.44462
0.429544
0.414443
0.412999
0.412242
0.411489
0.410738
0.409989
0.409243
0.4085
0.407759
0.407022
0.406287
0.405556
0.404827
0.404102
0.40338
0.402661
0.401946
0.401234
0.400525
0.39982
0.399119
0.398422
0.397728
0.397038
0.396352
0.39567
0.394991
0.394317
0.393647
0.392981
0.392319
0.391661
0.391007
0.390357
0.389711
0.38907
0.388432
0.387799
0.38717
0.386544
0.385923
0.385305
0.384692
0.384082
0.383476
0.382873
0.382274
0.381678
0.381086
0.380497
0.379911
0.379328
0.378748
0.37817
0.377595
0.377022
0.376452
0.375884
0.375318
0.374753
0.37419
0.373628
0.373068
0.372509
0.37195
0.371392
0.370835
0.370278
0.44462
0.429544
0.414443
0.412999
0.412242
0.411489
0.410738
0.409989
0.409243
0.4085
0.407759
0.407022
0.406287
0.405556
0.404827
0.404102
0.40338
0.402661
0.401946
0.401234
0.400525
0.39982
0.399119
0.398422
0.397728
0.397038
0.396352
0.39567
0.394991
0.394317
0.393647
0.392981
0.392319
0.391661
0.391007
0.390357
0.389711
0.38907
0.388432
0.387799
0.38717
0.386544
0.385923
0.385305
0.384692
0.384082
0.383476
0.382873
0.382274
0.381678
0.381086
0.380497
0.379911
0.379328
0.378748
0.37817
0.377595
0.377022
0.376452
0.375884
0.375318
0.374753
0.37419
0.373628
0.373068
0.372509
0.37195
0.371392
0.370835
0.370278
0.44462
0.429544
0.414443
0.412999
0.412242
0.411489
0.410738
0.409989
0.409243
0.4085
0.407759
0.407022
0.406287
0.405556
0.404827
0.404102
0.40338
0.402661
0.401946
0.401234
0.400525
0.39982
0.399119
0.398422
0.397728
0.397038
0.396352
0.39567
0.394991
0.394317
0.393647
0.392981
0.392319
0.391661
0.391007
0.390357
0.389711
0.38907
0.388432
0.387799
0.38717
0.386544
0.385923
0.385305
0.384692
0.384082
0.383476
0.382873
0.382274
0.381678
0.381086
0.380497
0.379911
0.379328
0.378748
0.37817
0.377595
0.377022
0.376452
0.375884
0.375318
0.374753
0.37419
0.373628
0.373068
0.372509
0.37195
0.371392
0.370835
0.370278
0.44462
0.429544
0.414443
0.412999
0.412242
0.411489
0.410738
0.409989
0.409243
0.4085
0.407759
0.407022
0.406287
0.405556
0.404827
0.404102
0.40338
0.402661
0.401946
0.401234
0.400525
0.39982
0.399119
0.398422
0.397728
0.397038
0.396352
0.39567
0.394991
0.394317
0.393647
0.392981
0.392319
0.391661
0.391007
0.390357
0.389711
0.38907
0.388432
0.387799
0.38717
0.386544
0.385923
0.385305
0.384692
0.384082
0.383476
0.382873
0.382274
0.381678
0.381086
0.380497
0.379911
0.379328
0.378748
0.37817
0.377595
0.377022
0.376452
0.375884
0.375318
0.374753
0.37419
0.373628
0.373068
0.372509
0.37195
0.371392
0.370835
0.370278
0.44462
0.429544
0.414443
0.412999
0.412242
0.411489
0.410738
0.409989
0.409243
0.4085
0.407759
0.407022
0.406287
0.405556
0.404827
0.404102
0.40338
0.402661
0.401946
0.401234
0.400525
0.39982
0.399119
0.398422
0.397728
0.397038
0.396352
0.39567
0.394991
0.394317
0.393647
0.392981
0.392319
0.391661
0.391007
0.390357
0.389711
0.38907
0.388432
0.387799
0.38717
0.386544
0.385923
0.385305
0.384692
0.384082
0.383476
0.382873
0.382274
0.381678
0.381086
0.380497
0.379911
0.379328
0.378748
0.37817
0.377595
0.377022
0.376452
0.375884
0.375318
0.374753
0.37419
0.373628
0.373068
0.372509
0.37195
0.371392
0.370835
0.370278
0.44462
0.429544
0.414443
0.412999
0.412242
0.411489
0.410738
0.409989
0.409243
0.4085
0.407759
0.407022
0.406287
0.405556
0.404827
0.404102
0.40338
0.402661
0.401946
0.401234
0.400525
0.39982
0.399119
0.398422
0.397728
0.397038
0.396352
0.39567
0.394991
0.394317
0.393647
0.392981
0.392319
0.391661
0.391007
0.390357
0.389711
0.38907
0.388432
0.387799
0.38717
0.386544
0.385923
0.385305
0.384692
0.384082
0.383476
0.382873
0.382274
0.381678
0.381086
0.380497
0.379911
0.379328
0.378748
0.37817
0.377595
0.377022
0.376452
0.375884
0.375318
0.374753
0.37419
0.373628
0.373068
0.372509
0.37195
0.371392
0.370835
0.370278
0.44462
0.429544
0.414443
0.412999
0.412242
0.411489
0.410738
0.409989
0.409243
0.4085
0.407759
0.407022
0.406287
0.405556
0.404827