/*--------------------------------*- C++ -*----------------------------------*\
  =========                 |
  \\      /  F ield         | OpenFOAM: The Open Source CFD Toolbox
   \\    /   O peration     | Website:  https://openfoam.org
    \\  /    A nd           | Version:  13
     \\/     M anipulation  |
\*---------------------------------------------------------------------------*/
FoamFile
{
    format      ascii;
    class       volScalarField;
    location    "430";
    object      nut;
}
// * * * * * * * * * * * * * * * * * * * * * * * * * * * * * * * * * * * * * //

dimensions      [0 2 -1 0 0 0 0];

internalField   nonuniform List<scalar> 
78750
(
3.27176e-19
2.94458e-18
1.46562e-17
1.46562e-17
1.46562e-17
1.46562e-17
1.46562e-17
1.46562e-17
1.46562e-17
1.46562e-17
1.46562e-17
1.46562e-17
1.46562e-17
1.46562e-17
1.46562e-17
1.46562e-17
1.46562e-17
1.46562e-17
1.46562e-17
1.46562e-17
1.46562e-17
1.46562e-17
1.46562e-17
1.46562e-17
1.46562e-17
1.46562e-17
1.46562e-17
1.46562e-17
1.46562e-17
1.46562e-17
1.46562e-17
1.46562e-17
1.46562e-17
2.94458e-18
3.27176e-19
3.27176e-19
2.94458e-18
8.33901e-17
8.33901e-17
8.44018e-17
9.94079e-17
1.17761e-16
1.38521e-16
1.60855e-16
1.83957e-16
2.07015e-16
2.29209e-16
2.49729e-16
2.67808e-16
2.82751e-16
2.93972e-16
3.01027e-16
3.03631e-16
3.01678e-16
2.95244e-16
2.84583e-16
2.70117e-16
2.5241e-16
2.32142e-16
2.10072e-16
1.87009e-16
1.63775e-16
1.41187e-16
1.20058e-16
1.01223e-16
8.56225e-17
8.33901e-17
8.33901e-17
2.94458e-18
3.27176e-19
3.27176e-19
2.94458e-18
8.33901e-17
1.28048e-16
1.79872e-16
2.37706e-16
3.01601e-16
3.71005e-16
4.44737e-16
5.21037e-16
5.97655e-16
6.71996e-16
7.41287e-16
8.02761e-16
8.53844e-16
8.92322e-16
9.16487e-16
9.25249e-16
9.18207e-16
8.95672e-16
8.58655e-16
8.08791e-16
7.48243e-16
6.79551e-16
6.05472e-16
5.28788e-16
4.52126e-16
3.77781e-16
3.07574e-16
2.42743e-16
1.83907e-16
1.31008e-16
8.33901e-17
2.94458e-18
3.27176e-19
3.27176e-19
2.94458e-18
1.33103e-16
2.26754e-16
3.30084e-16
4.44766e-16
5.7138e-16
7.09225e-16
8.56249e-16
1.00912e-15
1.1634e-15
1.31382e-15
1.45464e-15
1.58006e-15
1.68459e-15
1.76346e-15
1.81297e-15
1.83075e-15
1.81594e-15
1.76923e-15
1.69286e-15
1.5904e-15
1.46653e-15
1.32668e-15
1.17664e-15
1.02219e-15
8.68642e-16
7.20514e-16
5.8124e-16
4.52969e-16
3.3649e-16
2.31287e-16
1.35716e-16
2.94458e-18
3.27176e-19
3.27176e-19
2.94458e-18
1.91064e-16
3.37483e-16
4.98e-16
6.75572e-16
8.71389e-16
1.08459e-15
1.31218e-15
1.54909e-15
1.78852e-15
2.0223e-15
2.24147e-15
2.43688e-15
2.59987e-15
2.72288e-15
2.80003e-15
2.82756e-15
2.80411e-15
2.73083e-15
2.61126e-15
2.45112e-15
2.25784e-15
2.04e-15
1.80673e-15
1.56703e-15
1.32915e-15
1.10002e-15
8.84821e-16
6.86698e-16
5.06635e-16
3.43534e-16
1.94478e-16
2.94458e-18
3.27176e-19
3.27176e-19
2.94458e-18
2.47898e-16
4.45957e-16
6.62282e-16
9.01057e-16
1.16405e-15
1.45025e-15
1.75572e-15
2.07376e-15
2.39525e-15
2.70924e-15
3.00367e-15
3.26623e-15
3.48522e-15
3.65046e-15
3.75402e-15
3.79082e-15
3.75904e-15
3.66024e-15
3.49924e-15
3.28375e-15
3.02381e-15
2.73101e-15
2.41764e-15
2.09581e-15
1.77658e-15
1.46918e-15
1.18051e-15
9.14662e-16
6.72804e-16
4.53287e-16
2.51979e-16
2.94458e-18
3.27176e-19
3.27176e-19
2.94458e-18
2.99572e-16
5.44456e-16
8.11235e-16
1.10522e-15
1.42873e-15
1.78062e-15
2.15613e-15
2.54706e-15
2.94224e-15
3.32819e-15
3.6901e-15
4.01281e-15
4.28193e-15
4.48495e-15
4.61211e-15
4.65717e-15
4.6179e-15
4.49623e-15
4.29809e-15
4.033e-15
3.71331e-15
3.35328e-15
2.96804e-15
2.57248e-15
2.18015e-15
1.80242e-15
1.44767e-15
1.12085e-15
8.23306e-16
5.52839e-16
3.04205e-16
2.94458e-18
3.27176e-19
3.27176e-19
2.94458e-18
3.44201e-16
6.29194e-16
9.39017e-16
1.28005e-15
1.65514e-15
2.06303e-15
2.49825e-15
2.95133e-15
3.40931e-15
3.85658e-15
4.27596e-15
4.64989e-15
4.96169e-15
5.19686e-15
5.34408e-15
5.39615e-15
5.35048e-15
5.2093e-15
4.97952e-15
4.67217e-15
4.30157e-15
3.88427e-15
3.43779e-15
2.97937e-15
2.52475e-15
2.08706e-15
1.67601e-15
1.29727e-15
9.52312e-16
6.38437e-16
3.49319e-16
2.94458e-18
3.27176e-19
3.27176e-19
2.94458e-18
3.81405e-16
6.98686e-16
1.04327e-15
1.42242e-15
1.83935e-15
2.29273e-15
2.77647e-15
3.28003e-15
3.78902e-15
4.2861e-15
4.75215e-15
5.16766e-15
5.51411e-15
5.77535e-15
5.93885e-15
5.99659e-15
5.94569e-15
5.78867e-15
5.53318e-15
5.1915e-15
4.77955e-15
4.31572e-15
3.81949e-15
3.31003e-15
2.80481e-15
2.31842e-15
1.86165e-15
1.44081e-15
1.05746e-15
7.08572e-16
3.86965e-16
2.94458e-18
3.27176e-19
3.27176e-19
3.06398e-18
4.10701e-16
7.52705e-16
1.1241e-15
1.53273e-15
1.98206e-15
2.47065e-15
2.99195e-15
3.53461e-15
4.08309e-15
4.61872e-15
5.12089e-15
5.56858e-15
5.94183e-15
6.22325e-15
6.39933e-15
6.46144e-15
6.40649e-15
6.23718e-15
5.96178e-15
5.59352e-15
5.14955e-15
4.64969e-15
4.11495e-15
3.56597e-15
3.02158e-15
2.49751e-15
2.00536e-15
1.55193e-15
1.13891e-15
7.63006e-16
4.16481e-16
3.10729e-18
3.27176e-19
3.27176e-19
3.2162e-18
4.32314e-16
7.92551e-16
1.18372e-15
1.61409e-15
2.08731e-15
2.60187e-15
3.15087e-15
3.72235e-15
4.29995e-15
4.86399e-15
5.3928e-15
5.8642e-15
6.25721e-15
6.5535e-15
6.73885e-15
6.80417e-15
6.74621e-15
6.56783e-15
6.27774e-15
5.88987e-15
5.42229e-15
4.89587e-15
4.33274e-15
3.75462e-15
3.18136e-15
2.6295e-15
2.11127e-15
1.63382e-15
1.19893e-15
8.03121e-16
4.38239e-16
3.26056e-18
3.27176e-19
3.27176e-19
3.32305e-18
4.47489e-16
8.20528e-16
1.22558e-15
1.67121e-15
2.16121e-15
2.694e-15
3.26245e-15
3.85416e-15
4.4522e-15
5.03619e-15
5.58368e-15
6.07174e-15
6.47861e-15
6.78533e-15
6.97717e-15
7.04474e-15
6.98467e-15
6.79991e-15
6.4995e-15
6.09786e-15
5.6137e-15
5.06863e-15
4.48556e-15
3.88699e-15
3.29346e-15
2.72211e-15
2.18558e-15
1.69127e-15
1.24103e-15
8.31261e-16
4.53501e-16
3.36805e-18
3.27176e-19
3.27176e-19
3.39447e-18
4.57633e-16
8.39231e-16
1.25357e-15
1.7094e-15
2.21062e-15
2.7556e-15
3.33704e-15
3.94227e-15
4.55398e-15
5.15131e-15
5.71129e-15
6.21047e-15
6.6266e-15
6.94029e-15
7.13648e-15
7.20554e-15
7.14404e-15
6.95502e-15
6.64771e-15
6.23685e-15
5.74161e-15
5.18407e-15
4.58768e-15
3.97544e-15
3.36836e-15
2.78397e-15
2.23521e-15
1.72965e-15
1.26915e-15
8.50055e-16
4.63694e-16
3.43981e-18
3.27176e-19
3.27176e-19
3.43994e-18
4.64094e-16
8.51143e-16
1.27139e-15
1.73372e-15
2.24208e-15
2.79483e-15
3.38455e-15
3.9984e-15
4.61881e-15
5.22463e-15
5.79257e-15
6.29883e-15
6.72086e-15
7.03899e-15
7.23793e-15
7.30794e-15
7.24554e-15
7.0538e-15
6.74208e-15
6.32536e-15
5.82305e-15
5.25757e-15
4.65268e-15
4.03174e-15
3.41604e-15
2.82335e-15
2.2668e-15
1.75407e-15
1.28705e-15
8.62015e-16
4.70179e-16
3.48546e-18
3.27176e-19
3.27176e-19
3.46754e-18
4.68018e-16
8.58378e-16
1.28222e-15
1.7485e-15
2.2612e-15
2.81865e-15
3.41341e-15
4.03249e-15
4.65818e-15
5.26916e-15
5.84193e-15
6.3525e-15
6.77811e-15
7.09893e-15
7.29955e-15
7.37013e-15
7.30718e-15
7.11378e-15
6.79939e-15
6.3791e-15
5.87249e-15
5.30219e-15
4.69215e-15
4.06592e-15
3.44498e-15
2.84725e-15
2.28598e-15
1.76889e-15
1.29791e-15
8.69272e-16
4.74114e-16
3.51314e-18
3.27176e-19
3.27176e-19
3.48354e-18
4.70293e-16
8.62573e-16
1.28849e-15
1.75706e-15
2.27228e-15
2.83247e-15
3.43014e-15
4.05225e-15
4.68101e-15
5.29498e-15
5.87055e-15
6.38362e-15
6.8113e-15
7.13368e-15
7.33527e-15
7.40619e-15
7.34291e-15
7.14855e-15
6.83261e-15
6.41025e-15
5.90115e-15
5.32805e-15
4.71502e-15
4.08573e-15
3.46175e-15
2.8611e-15
2.29709e-15
1.77748e-15
1.3042e-15
8.73475e-16
4.76393e-16
3.52917e-18
3.27176e-19
3.27176e-19
3.4924e-18
4.71554e-16
8.64897e-16
1.29197e-15
1.76181e-15
2.27842e-15
2.84012e-15
3.43941e-15
4.0632e-15
4.69366e-15
5.30929e-15
5.88642e-15
6.40086e-15
6.8297e-15
7.15294e-15
7.35507e-15
7.42617e-15
7.36271e-15
7.16782e-15
6.85101e-15
6.42751e-15
5.91703e-15
5.34238e-15
4.72769e-15
4.0967e-15
3.47103e-15
2.86877e-15
2.30324e-15
1.78223e-15
1.30769e-15
8.75803e-16
4.77655e-16
3.53804e-18
3.27176e-19
3.27176e-19
3.4971e-18
4.72222e-16
8.66129e-16
1.29381e-15
1.76433e-15
2.28167e-15
2.84419e-15
3.44433e-15
4.06901e-15
4.70037e-15
5.31688e-15
5.89483e-15
6.41001e-15
6.83945e-15
7.16316e-15
7.36557e-15
7.43676e-15
7.37321e-15
7.17804e-15
6.86077e-15
6.43666e-15
5.92545e-15
5.34998e-15
4.73441e-15
4.10251e-15
3.47596e-15
2.87284e-15
2.3065e-15
1.78475e-15
1.30953e-15
8.77036e-16
4.78323e-16
3.54274e-18
3.27176e-19
3.27176e-19
3.49949e-18
4.72562e-16
8.66756e-16
1.29475e-15
1.76561e-15
2.28333e-15
2.84625e-15
3.44683e-15
4.07197e-15
4.70378e-15
5.32074e-15
5.89911e-15
6.41466e-15
6.84441e-15
7.16835e-15
7.3709e-15
7.44215e-15
7.37855e-15
7.18323e-15
6.86573e-15
6.44131e-15
5.92973e-15
5.35384e-15
4.73782e-15
4.10547e-15
3.47846e-15
2.8749e-15
2.30816e-15
1.78603e-15
1.31047e-15
8.77662e-16
4.78663e-16
3.54513e-18
3.27176e-19
3.27176e-19
3.50065e-18
4.72727e-16
8.67061e-16
1.29521e-15
1.76623e-15
2.28414e-15
2.84726e-15
3.44804e-15
4.07341e-15
4.70545e-15
5.32262e-15
5.90119e-15
6.41692e-15
6.84683e-15
7.17088e-15
7.37351e-15
7.44477e-15
7.38115e-15
7.18576e-15
6.86815e-15
6.44358e-15
5.93182e-15
5.35572e-15
4.73949e-15
4.10691e-15
3.47968e-15
2.87591e-15
2.30896e-15
1.78666e-15
1.31093e-15
8.77967e-16
4.78828e-16
3.54629e-18
3.27176e-19
3.27176e-19
3.5012e-18
4.72805e-16
8.67204e-16
1.29542e-15
1.76652e-15
2.28451e-15
2.84773e-15
3.44862e-15
4.07408e-15
4.70623e-15
5.3235e-15
5.90217e-15
6.41799e-15
6.84796e-15
7.17207e-15
7.37473e-15
7.44601e-15
7.38237e-15
7.18695e-15
6.86929e-15
6.44464e-15
5.93279e-15
5.3566e-15
4.74027e-15
4.10758e-15
3.48025e-15
2.87638e-15
2.30934e-15
1.78695e-15
1.31114e-15
8.7811e-16
4.78906e-16
3.54683e-18
3.27176e-19
3.27176e-19
3.50144e-18
4.7284e-16
8.67269e-16
1.29552e-15
1.76665e-15
2.28468e-15
2.84794e-15
3.44887e-15
4.07439e-15
4.70658e-15
5.3239e-15
5.90261e-15
6.41847e-15
6.84848e-15
7.1726e-15
7.37528e-15
7.44656e-15
7.38292e-15
7.18748e-15
6.8698e-15
6.44512e-15
5.93324e-15
5.357e-15
4.74062e-15
4.10789e-15
3.48051e-15
2.87659e-15
2.30951e-15
1.78708e-15
1.31124e-15
8.78174e-16
4.78941e-16
3.54708e-18
3.27176e-19
3.27176e-19
3.50155e-18
4.72855e-16
8.67297e-16
1.29556e-15
1.76671e-15
2.28476e-15
2.84803e-15
3.44899e-15
4.07452e-15
4.70673e-15
5.32407e-15
5.9028e-15
6.41867e-15
6.8487e-15
7.17284e-15
7.37551e-15
7.4468e-15
7.38316e-15
7.18772e-15
6.87002e-15
6.44533e-15
5.93343e-15
5.35717e-15
4.74077e-15
4.10802e-15
3.48062e-15
2.87669e-15
2.30958e-15
1.78714e-15
1.31128e-15
8.78202e-16
4.78956e-16
3.54718e-18
3.27176e-19
3.27176e-19
3.50159e-18
4.72862e-16
8.67309e-16
1.29558e-15
1.76673e-15
2.28479e-15
2.84807e-15
3.44903e-15
4.07457e-15
4.70679e-15
5.32414e-15
5.90288e-15
6.41876e-15
6.84879e-15
7.17293e-15
7.37561e-15
7.4469e-15
7.38326e-15
7.18781e-15
6.87011e-15
6.44541e-15
5.93351e-15
5.35724e-15
4.74083e-15
4.10808e-15
3.48067e-15
2.87672e-15
2.30962e-15
1.78716e-15
1.3113e-15
8.78214e-16
4.78962e-16
3.54723e-18
3.27176e-19
3.27176e-19
3.50161e-18
4.72864e-16
8.67313e-16
1.29559e-15
1.76674e-15
2.2848e-15
2.84809e-15
3.44905e-15
4.0746e-15
4.70682e-15
5.32417e-15
5.90291e-15
6.4188e-15
6.84883e-15
7.17297e-15
7.37565e-15
7.44694e-15
7.3833e-15
7.18785e-15
6.87015e-15
6.44545e-15
5.93354e-15
5.35727e-15
4.74086e-15
4.1081e-15
3.48068e-15
2.87674e-15
2.30963e-15
1.78717e-15
1.3113e-15
8.78219e-16
4.78965e-16
3.54724e-18
3.27176e-19
3.27176e-19
3.50162e-18
4.72865e-16
8.67315e-16
1.29559e-15
1.76675e-15
2.28481e-15
2.84809e-15
3.44906e-15
4.0746e-15
4.70683e-15
5.32418e-15
5.90293e-15
6.41881e-15
6.84884e-15
7.17299e-15
7.37567e-15
7.44696e-15
7.38332e-15
7.18787e-15
6.87017e-15
6.44546e-15
5.93355e-15
5.35729e-15
4.74087e-15
4.10811e-15
3.48069e-15
2.87675e-15
2.30963e-15
1.78717e-15
1.31131e-15
8.78221e-16
4.78966e-16
3.54725e-18
3.27176e-19
3.27176e-19
3.50162e-18
4.72865e-16
8.67316e-16
1.29559e-15
1.76675e-15
2.28481e-15
2.84809e-15
3.44906e-15
4.07461e-15
4.70683e-15
5.32419e-15
5.90293e-15
6.41882e-15
6.84885e-15
7.17299e-15
7.37568e-15
7.44697e-15
7.38332e-15
7.18787e-15
6.87017e-15
6.44547e-15
5.93356e-15
5.35729e-15
4.74087e-15
4.10811e-15
3.48069e-15
2.87675e-15
2.30964e-15
1.78718e-15
1.31131e-15
8.78221e-16
4.78966e-16
3.54725e-18
3.27176e-19
3.27176e-19
3.50162e-18
4.72866e-16
8.67316e-16
1.29559e-15
1.76675e-15
2.28481e-15
2.8481e-15
3.44906e-15
4.07461e-15
4.70684e-15
5.32419e-15
5.90293e-15
6.41882e-15
6.84885e-15
7.173e-15
7.37568e-15
7.44697e-15
7.38332e-15
7.18788e-15
6.87017e-15
6.44547e-15
5.93356e-15
5.35729e-15
4.74088e-15
4.10811e-15
3.4807e-15
2.87675e-15
2.30964e-15
1.78718e-15
1.31131e-15
8.78222e-16
4.78966e-16
3.54725e-18
3.27176e-19
3.27176e-19
3.50162e-18
4.72866e-16
8.67316e-16
1.29559e-15
1.76675e-15
2.28481e-15
2.8481e-15
3.44906e-15
4.07461e-15
4.70684e-15
5.32419e-15
5.90293e-15
6.41882e-15
6.84885e-15
7.173e-15
7.37568e-15
7.44697e-15
7.38333e-15
7.18788e-15
6.87017e-15
6.44547e-15
5.93356e-15
5.35729e-15
4.74088e-15
4.10811e-15
3.4807e-15
2.87675e-15
2.30964e-15
1.78718e-15
1.31131e-15
8.78222e-16
4.78966e-16
3.54725e-18
3.27176e-19
3.27176e-19
3.50162e-18
4.72866e-16
8.67316e-16
1.29559e-15
1.76675e-15
2.28481e-15
2.8481e-15
3.44906e-15
4.07461e-15
4.70684e-15
5.32419e-15
5.90293e-15
6.41882e-15
6.84885e-15
7.173e-15
7.37568e-15
7.44697e-15
7.38333e-15
7.18788e-15
6.87017e-15
6.44547e-15
5.93356e-15
5.35729e-15
4.74088e-15
4.10811e-15
3.4807e-15
2.87675e-15
2.30964e-15
1.78718e-15
1.31131e-15
8.78222e-16
4.78966e-16
3.54725e-18
3.27176e-19
3.27176e-19
3.50162e-18
4.72866e-16
8.67316e-16
1.29559e-15
1.76675e-15
2.28481e-15
2.8481e-15
3.44906e-15
4.07461e-15
4.70684e-15
5.32419e-15
5.90293e-15
6.41882e-15
6.84885e-15
7.173e-15
7.37568e-15
7.44697e-15
7.38333e-15
7.18788e-15
6.87017e-15
6.44547e-15
5.93356e-15
5.35729e-15
4.74088e-15
4.10811e-15
3.4807e-15
2.87675e-15
2.30964e-15
1.78718e-15
1.31131e-15
8.78222e-16
4.78966e-16
3.54725e-18
3.27176e-19
3.27176e-19
3.50162e-18
4.72866e-16
8.67316e-16
1.29559e-15
1.76675e-15
2.28481e-15
2.8481e-15
3.44906e-15
4.07461e-15
4.70684e-15
5.32419e-15
5.90293e-15
6.41882e-15
6.84885e-15
7.173e-15
7.37568e-15
7.44697e-15
7.38333e-15
7.18788e-15
6.87017e-15
6.44547e-15
5.93356e-15
5.35729e-15
4.74088e-15
4.10811e-15
3.4807e-15
2.87675e-15
2.30964e-15
1.78718e-15
1.31131e-15
8.78222e-16
4.78966e-16
3.54725e-18
3.27176e-19
3.27176e-19
3.50162e-18
4.72866e-16
8.67316e-16
1.29559e-15
1.76675e-15
2.28481e-15
2.8481e-15
3.44906e-15
4.07461e-15
4.70684e-15
5.32419e-15
5.90293e-15
6.41882e-15
6.84885e-15
7.173e-15
7.37568e-15
7.44697e-15
7.38333e-15
7.18788e-15
6.87017e-15
6.44547e-15
5.93356e-15
5.35729e-15
4.74088e-15
4.10811e-15
3.4807e-15
2.87675e-15
2.30964e-15
1.78718e-15
1.31131e-15
8.78222e-16
4.78966e-16
3.54725e-18
3.27176e-19
3.27176e-19
3.50162e-18
4.72866e-16
8.67316e-16
1.29559e-15
1.76675e-15
2.28481e-15
2.8481e-15
3.44906e-15
4.07461e-15
4.70684e-15
5.32419e-15
5.90293e-15
6.41882e-15
6.84885e-15
7.173e-15
7.37568e-15
7.44697e-15
7.38333e-15
7.18788e-15
6.87017e-15
6.44547e-15
5.93356e-15
5.35729e-15
4.74088e-15
4.10811e-15
3.4807e-15
2.87675e-15
2.30964e-15
1.78718e-15
1.31131e-15
8.78222e-16
4.78966e-16
3.54725e-18
3.27176e-19
3.27176e-19
3.50162e-18
4.72866e-16
8.67316e-16
1.29559e-15
1.76675e-15
2.28481e-15
2.8481e-15
3.44906e-15
4.07461e-15
4.70684e-15
5.32419e-15
5.90293e-15
6.41882e-15
6.84885e-15
7.173e-15
7.37568e-15
7.44697e-15
7.38333e-15
7.18788e-15
6.87017e-15
6.44547e-15
5.93356e-15
5.35729e-15
4.74088e-15
4.10811e-15
3.4807e-15
2.87675e-15
2.30964e-15
1.78718e-15
1.31131e-15
8.78222e-16
4.78966e-16
3.54725e-18
3.27176e-19
3.27176e-19
3.50162e-18
4.72866e-16
8.67316e-16
1.29559e-15
1.76675e-15
2.28481e-15
2.8481e-15
3.44906e-15
4.07461e-15
4.70684e-15
5.32419e-15
5.90293e-15
6.41882e-15
6.84885e-15
7.173e-15
7.37568e-15
7.44697e-15
7.38333e-15
7.18788e-15
6.87017e-15
6.44547e-15
5.93356e-15
5.35729e-15
4.74088e-15
4.10811e-15
3.4807e-15
2.87675e-15
2.30964e-15
1.78718e-15
1.31131e-15
8.78222e-16
4.78966e-16
3.54725e-18
3.27176e-19
3.27176e-19
3.50162e-18
4.72866e-16
8.67316e-16
1.29559e-15
1.76675e-15
2.28481e-15
2.8481e-15
3.44906e-15
4.07461e-15
4.70684e-15
5.32419e-15
5.90293e-15
6.41882e-15
6.84885e-15
7.173e-15
7.37568e-15
7.44697e-15
7.38333e-15
7.18788e-15
6.87017e-15
6.44547e-15
5.93356e-15
5.35729e-15
4.74088e-15
4.10811e-15
3.4807e-15
2.87675e-15
2.30964e-15
1.78718e-15
1.31131e-15
8.78222e-16
4.78966e-16
3.54725e-18
3.27176e-19
3.27176e-19
3.50162e-18
4.72866e-16
8.67316e-16
1.29559e-15
1.76675e-15
2.28481e-15
2.8481e-15
3.44906e-15
4.07461e-15
4.70684e-15
5.32419e-15
5.90293e-15
6.41882e-15
6.84885e-15
7.173e-15
7.37568e-15
7.44697e-15
7.38333e-15
7.18788e-15
6.87017e-15
6.44547e-15
5.93356e-15
5.35729e-15
4.74088e-15
4.10811e-15
3.4807e-15
2.87675e-15
2.30964e-15
1.78718e-15
1.31131e-15
8.78222e-16
4.78966e-16
3.54725e-18
3.27176e-19
3.27176e-19
3.50162e-18
4.72866e-16
8.67316e-16
1.29559e-15
1.76675e-15
2.28481e-15
2.8481e-15
3.44906e-15
4.07461e-15
4.70684e-15
5.32419e-15
5.90293e-15
6.41882e-15
6.84885e-15
7.173e-15
7.37568e-15
7.44697e-15
7.38333e-15
7.18788e-15
6.87017e-15
6.44547e-15
5.93356e-15
5.35729e-15
4.74088e-15
4.10811e-15
3.4807e-15
2.87675e-15
2.30964e-15
1.78718e-15
1.31131e-15
8.78222e-16
4.78966e-16
3.54725e-18
3.27176e-19
3.27176e-19
3.50162e-18
4.72866e-16
8.67316e-16
1.29559e-15
1.76675e-15
2.28481e-15
2.8481e-15
3.44906e-15
4.07461e-15
4.70684e-15
5.32419e-15
5.90293e-15
6.41882e-15
6.84885e-15
7.173e-15
7.37568e-15
7.44697e-15
7.38333e-15
7.18788e-15
6.87017e-15
6.44547e-15
5.93356e-15
5.35729e-15
4.74088e-15
4.10811e-15
3.4807e-15
2.87675e-15
2.30964e-15
1.78718e-15
1.31131e-15
8.78222e-16
4.78966e-16
3.54725e-18
3.27176e-19
3.27176e-19
3.50162e-18
4.72866e-16
8.67316e-16
1.29559e-15
1.76675e-15
2.28481e-15
2.8481e-15
3.44906e-15
4.07461e-15
4.70684e-15
5.32419e-15
5.90293e-15
6.41882e-15
6.84885e-15
7.173e-15
7.37568e-15
7.44697e-15
7.38333e-15
7.18788e-15
6.87017e-15
6.44547e-15
5.93356e-15
5.35729e-15
4.74088e-15
4.10811e-15
3.4807e-15
2.87675e-15
2.30964e-15
1.78718e-15
1.31131e-15
8.78222e-16
4.78966e-16
3.54725e-18
3.27176e-19
3.27176e-19
3.50162e-18
4.72866e-16
8.67316e-16
1.29559e-15
1.76675e-15
2.28481e-15
2.8481e-15
3.44906e-15
4.07461e-15
4.70684e-15
5.32419e-15
5.90293e-15
6.41882e-15
6.84885e-15
7.173e-15
7.37568e-15
7.44697e-15
7.38333e-15
7.18788e-15
6.87017e-15
6.44547e-15
5.93356e-15
5.35729e-15
4.74088e-15
4.10811e-15
3.4807e-15
2.87675e-15
2.30964e-15
1.78718e-15
1.31131e-15
8.78222e-16
4.78966e-16
3.54725e-18
3.27176e-19
3.27176e-19
3.50162e-18
4.72866e-16
8.67316e-16
1.29559e-15
1.76675e-15
2.28481e-15
2.8481e-15
3.44906e-15
4.07461e-15
4.70684e-15
5.32419e-15
5.90293e-15
6.41882e-15
6.84885e-15
7.173e-15
7.37568e-15
7.44697e-15
7.38333e-15
7.18788e-15
6.87017e-15
6.44547e-15
5.93356e-15
5.35729e-15
4.74088e-15
4.10811e-15
3.4807e-15
2.87675e-15
2.30964e-15
1.78718e-15
1.31131e-15
8.78222e-16
4.78966e-16
3.54725e-18
3.27176e-19
3.27176e-19
3.50162e-18
4.72866e-16
8.67316e-16
1.29559e-15
1.76675e-15
2.28481e-15
2.8481e-15
3.44906e-15
4.07461e-15
4.70684e-15
5.32419e-15
5.90293e-15
6.41882e-15
6.84885e-15
7.173e-15
7.37568e-15
7.44697e-15
7.38333e-15
7.18788e-15
6.87017e-15
6.44547e-15
5.93356e-15
5.35729e-15
4.74088e-15
4.10811e-15
3.4807e-15
2.87675e-15
2.30964e-15
1.78718e-15
1.31131e-15
8.78222e-16
4.78966e-16
3.54725e-18
3.27176e-19
3.27176e-19
3.50162e-18
4.72866e-16
8.67316e-16
1.29559e-15
1.76675e-15
2.28481e-15
2.8481e-15
3.44906e-15
4.07461e-15
4.70684e-15
5.32419e-15
5.90293e-15
6.41882e-15
6.84885e-15
7.173e-15
7.37568e-15
7.44697e-15
7.38333e-15
7.18788e-15
6.87017e-15
6.44547e-15
5.93356e-15
5.35729e-15
4.74088e-15
4.10811e-15
3.4807e-15
2.87675e-15
2.30964e-15
1.78718e-15
1.31131e-15
8.78222e-16
4.78966e-16
3.54725e-18
3.27176e-19
3.27176e-19
3.50162e-18
4.72866e-16
8.67316e-16
1.29559e-15
1.76675e-15
2.28481e-15
2.8481e-15
3.44906e-15
4.07461e-15
4.70684e-15
5.32419e-15
5.90293e-15
6.41882e-15
6.84885e-15
7.173e-15
7.37568e-15
7.44697e-15
7.38333e-15
7.18788e-15
6.87017e-15
6.44547e-15
5.93356e-15
5.35729e-15
4.74088e-15
4.10811e-15
3.4807e-15
2.87675e-15
2.30964e-15
1.78718e-15
1.31131e-15
8.78222e-16
4.78966e-16
3.54725e-18
3.27176e-19
3.27176e-19
3.50162e-18
4.72866e-16
8.67316e-16
1.29559e-15
1.76675e-15
2.28481e-15
2.8481e-15
3.44906e-15
4.07461e-15
4.70684e-15
5.32419e-15
5.90293e-15
6.41882e-15
6.84885e-15
7.173e-15
7.37568e-15
7.44697e-15
7.38333e-15
7.18788e-15
6.87017e-15
6.44547e-15
5.93356e-15
5.35729e-15
4.74088e-15
4.10811e-15
3.4807e-15
2.87675e-15
2.30964e-15
1.78718e-15
1.31131e-15
8.78222e-16
4.78966e-16
3.54725e-18
3.27176e-19
3.27176e-19
3.50162e-18
4.72866e-16
8.67316e-16
1.29559e-15
1.76675e-15
2.28481e-15
2.8481e-15
3.44906e-15
4.07461e-15
4.70684e-15
5.32419e-15
5.90293e-15
6.41882e-15
6.84885e-15
7.173e-15
7.37568e-15
7.44697e-15
7.38333e-15
7.18788e-15
6.87017e-15
6.44547e-15
5.93356e-15
5.35729e-15
4.74088e-15
4.10811e-15
3.4807e-15
2.87675e-15
2.30964e-15
1.78718e-15
1.31131e-15
8.78222e-16
4.78966e-16
3.54725e-18
3.27176e-19
3.27176e-19
3.50162e-18
4.72866e-16
8.67316e-16
1.29559e-15
1.76675e-15
2.28481e-15
2.8481e-15
3.44906e-15
4.07461e-15
4.70684e-15
5.32419e-15
5.90293e-15
6.41882e-15
6.84885e-15
7.173e-15
7.37568e-15
7.44697e-15
7.38333e-15
7.18788e-15
6.87017e-15
6.44547e-15
5.93356e-15
5.35729e-15
4.74088e-15
4.10811e-15
3.4807e-15
2.87675e-15
2.30964e-15
1.78718e-15
1.31131e-15
8.78222e-16
4.78966e-16
3.54725e-18
3.27176e-19
3.27176e-19
3.50162e-18
4.72866e-16
8.67316e-16
1.29559e-15
1.76675e-15
2.28481e-15
2.8481e-15
3.44906e-15
4.07461e-15
4.70684e-15
5.32419e-15
5.90293e-15
6.41882e-15
6.84885e-15
7.173e-15
7.37568e-15
7.44697e-15
7.38333e-15
7.18788e-15
6.87017e-15
6.44547e-15
5.93356e-15
5.35729e-15
4.74088e-15
4.10811e-15
3.4807e-15
2.87675e-15
2.30964e-15
1.78718e-15
1.31131e-15
8.78222e-16
4.78966e-16
3.54725e-18
3.27176e-19
3.27176e-19
3.50162e-18
4.72866e-16
8.67316e-16
1.29559e-15
1.76675e-15
2.28481e-15
2.8481e-15
3.44906e-15
4.07461e-15
4.70684e-15
5.32419e-15
5.90293e-15
6.41882e-15
6.84885e-15
7.173e-15
7.37568e-15
7.44697e-15
7.38333e-15
7.18788e-15
6.87017e-15
6.44547e-15
5.93356e-15
5.35729e-15
4.74088e-15
4.10811e-15
3.4807e-15
2.87675e-15
2.30964e-15
1.78718e-15
1.31131e-15
8.78222e-16
4.78966e-16
3.54725e-18
3.27176e-19
3.27176e-19
3.50162e-18
4.72866e-16
8.67316e-16
1.29559e-15
1.76675e-15
2.28481e-15
2.8481e-15
3.44906e-15
4.07461e-15
4.70684e-15
5.32419e-15
5.90293e-15
6.41882e-15
6.84885e-15
7.173e-15
7.37568e-15
7.44697e-15
7.38333e-15
7.18788e-15
6.87017e-15
6.44547e-15
5.93356e-15
5.35729e-15
4.74088e-15
4.10811e-15
3.4807e-15
2.87675e-15
2.30964e-15
1.78718e-15
1.31131e-15
8.78222e-16
4.78966e-16
3.54725e-18
3.27176e-19
3.27176e-19
3.50162e-18
4.72866e-16
8.67316e-16
1.29559e-15
1.76675e-15
2.28481e-15
2.8481e-15
3.44906e-15
4.07461e-15
4.70684e-15
5.32419e-15
5.90293e-15
6.41882e-15
6.84885e-15
7.173e-15
7.37568e-15
7.44697e-15
7.38333e-15
7.18788e-15
6.87017e-15
6.44547e-15
5.93356e-15
5.35729e-15
4.74088e-15
4.10811e-15
3.4807e-15
2.87675e-15
2.30964e-15
1.78718e-15
1.31131e-15
8.78222e-16
4.78966e-16
3.54725e-18
3.27176e-19
3.27176e-19
3.50162e-18
4.72866e-16
8.67316e-16
1.29559e-15
1.76675e-15
2.28481e-15
2.8481e-15
3.44906e-15
4.07461e-15
4.70684e-15
5.32419e-15
5.90293e-15
6.41882e-15
6.84885e-15
7.173e-15
7.37568e-15
7.44697e-15
7.38333e-15
7.18788e-15
6.87017e-15
6.44547e-15
5.93356e-15
5.35729e-15
4.74088e-15
4.10811e-15
3.4807e-15
2.87675e-15
2.30964e-15
1.78718e-15
1.31131e-15
8.78222e-16
4.78966e-16
3.54725e-18
3.27176e-19
3.27176e-19
3.50162e-18
4.72866e-16
8.67316e-16
1.29559e-15
1.76675e-15
2.28481e-15
2.8481e-15
3.44906e-15
4.07461e-15
4.70684e-15
5.32419e-15
5.90293e-15
6.41882e-15
6.84885e-15
7.173e-15
7.37568e-15
7.44697e-15
7.38333e-15
7.18788e-15
6.87017e-15
6.44547e-15
5.93356e-15
5.35729e-15
4.74088e-15
4.10811e-15
3.4807e-15
2.87675e-15
2.30964e-15
1.78718e-15
1.31131e-15
8.78222e-16
4.78966e-16
3.54725e-18
3.27176e-19
3.27176e-19
3.50162e-18
4.72866e-16
8.67316e-16
1.29559e-15
1.76675e-15
2.28481e-15
2.8481e-15
3.44906e-15
4.07461e-15
4.70684e-15
5.32419e-15
5.90293e-15
6.41882e-15
6.84885e-15
7.173e-15
7.37568e-15
7.44697e-15
7.38333e-15
7.18788e-15
6.87017e-15
6.44547e-15
5.93356e-15
5.35729e-15
4.74088e-15
4.10811e-15
3.4807e-15
2.87675e-15
2.30964e-15
1.78718e-15
1.31131e-15
8.78222e-16
4.78966e-16
3.54725e-18
3.27176e-19
3.27176e-19
3.50162e-18
4.72866e-16
8.67316e-16
1.29559e-15
1.76675e-15
2.28481e-15
2.8481e-15
3.44906e-15
4.07461e-15
4.70684e-15
5.32419e-15
5.90293e-15
6.41882e-15
6.84885e-15
7.173e-15
7.37568e-15
7.44697e-15
7.38333e-15
7.18788e-15
6.87017e-15
6.44547e-15
5.93356e-15
5.35729e-15
4.74088e-15
4.10811e-15
3.4807e-15
2.87675e-15
2.30964e-15
1.78718e-15
1.31131e-15
8.78222e-16
4.78966e-16
3.54725e-18
3.27176e-19
3.27176e-19
3.50162e-18
4.72866e-16
8.67316e-16
1.29559e-15
1.76675e-15
2.28481e-15
2.8481e-15
3.44906e-15
4.07461e-15
4.70684e-15
5.32419e-15
5.90293e-15
6.41882e-15
6.84885e-15
7.173e-15
7.37568e-15
7.44697e-15
7.38333e-15
7.18788e-15
6.87017e-15
6.44547e-15
5.93356e-15
5.35729e-15
4.74088e-15
4.10811e-15
3.4807e-15
2.87675e-15
2.30964e-15
1.78718e-15
1.31131e-15
8.78222e-16
4.78966e-16
3.54725e-18
3.27176e-19
3.27176e-19
3.50162e-18
4.72866e-16
8.67316e-16
1.29559e-15
1.76675e-15
2.28481e-15
2.8481e-15
3.44906e-15
4.07461e-15
4.70684e-15
5.32419e-15
5.90293e-15
6.41882e-15
6.84885e-15
7.173e-15
7.37568e-15
7.44697e-15
7.38333e-15
7.18788e-15
6.87017e-15
6.44547e-15
5.93356e-15
5.35729e-15
4.74088e-15
4.10811e-15
3.4807e-15
2.87675e-15
2.30964e-15
1.78718e-15
1.31131e-15
8.78222e-16
4.78966e-16
3.54725e-18
3.27176e-19
3.27176e-19
3.50162e-18
4.72866e-16
8.67316e-16
1.29559e-15
1.76675e-15
2.28481e-15
2.8481e-15
3.44906e-15
4.07461e-15
4.70684e-15
5.32419e-15
5.90293e-15
6.41882e-15
6.84885e-15
7.173e-15
7.37568e-15
7.44697e-15
7.38333e-15
7.18788e-15
6.87017e-15
6.44547e-15
5.93356e-15
5.35729e-15
4.74088e-15
4.10811e-15
3.4807e-15
2.87675e-15
2.30964e-15
1.78718e-15
1.31131e-15
8.78222e-16
4.78966e-16
3.54725e-18
3.27176e-19
3.27176e-19
3.50162e-18
4.72866e-16
8.67316e-16
1.29559e-15
1.76675e-15
2.28481e-15
2.8481e-15
3.44906e-15
4.07461e-15
4.70684e-15
5.32419e-15
5.90293e-15
6.41882e-15
6.84885e-15
7.173e-15
7.37568e-15
7.44697e-15
7.38333e-15
7.18788e-15
6.87017e-15
6.44547e-15
5.93356e-15
5.35729e-15
4.74088e-15
4.10811e-15
3.4807e-15
2.87675e-15
2.30964e-15
1.78718e-15
1.31131e-15
8.78222e-16
4.78966e-16
3.54725e-18
3.27176e-19
3.27176e-19
3.50162e-18
4.72866e-16
8.67316e-16
1.29559e-15
1.76675e-15
2.28481e-15
2.8481e-15
3.44906e-15
4.07461e-15
4.70684e-15
5.32419e-15
5.90293e-15
6.41882e-15
6.84885e-15
7.173e-15
7.37568e-15
7.44697e-15
7.38333e-15
7.18788e-15
6.87017e-15
6.44547e-15
5.93356e-15
5.35729e-15
4.74088e-15
4.10811e-15
3.4807e-15
2.87675e-15
2.30964e-15
1.78718e-15
1.31131e-15
8.78222e-16
4.78966e-16
3.54725e-18
3.27176e-19
3.27176e-19
3.50162e-18
4.72866e-16
8.67316e-16
1.29559e-15
1.76675e-15
2.28481e-15
2.8481e-15
3.44906e-15
4.07461e-15
4.70684e-15
5.32419e-15
5.90293e-15
6.41882e-15
6.84885e-15
7.173e-15
7.37568e-15
7.44697e-15
7.38333e-15
7.18788e-15
6.87017e-15
6.44547e-15
5.93356e-15
5.35729e-15
4.74088e-15
4.10811e-15
3.4807e-15
2.87675e-15
2.30964e-15
1.78718e-15
1.31131e-15
8.78222e-16
4.78966e-16
3.54725e-18
3.27176e-19
3.27176e-19
3.50162e-18
4.72866e-16
8.67316e-16
1.29559e-15
1.76675e-15
2.28481e-15
2.8481e-15
3.44906e-15
4.07461e-15
4.70684e-15
5.32419e-15
5.90293e-15
6.41882e-15
6.84885e-15
7.173e-15
7.37568e-15
7.44697e-15
7.38333e-15
7.18788e-15
6.87017e-15
6.44547e-15
5.93356e-15
5.35729e-15
4.74088e-15
4.10811e-15
3.4807e-15
2.87675e-15
2.30964e-15
1.78718e-15
1.31131e-15
8.78222e-16
4.78966e-16
3.54725e-18
3.27176e-19
3.27176e-19
3.50162e-18
4.72866e-16
8.67316e-16
1.29559e-15
1.76675e-15
2.28481e-15
2.8481e-15
3.44906e-15
4.07461e-15
4.70684e-15
5.32419e-15
5.90293e-15
6.41882e-15
6.84885e-15
7.173e-15
7.37568e-15
7.44697e-15
7.38333e-15
7.18788e-15
6.87017e-15
6.44547e-15
5.93356e-15
5.35729e-15
4.74088e-15
4.10811e-15
3.4807e-15
2.87675e-15
2.30964e-15
1.78718e-15
1.31131e-15
8.78222e-16
4.78966e-16
3.54725e-18
3.27176e-19
3.27176e-19
3.50162e-18
4.72866e-16
8.67316e-16
1.29559e-15
1.76675e-15
2.28481e-15
2.8481e-15
3.44906e-15
4.07461e-15
4.70684e-15
5.32419e-15
5.90293e-15
6.41882e-15
6.84885e-15
7.173e-15
7.37568e-15
7.44697e-15
7.38333e-15
7.18788e-15
6.87017e-15
6.44547e-15
5.93356e-15
5.35729e-15
4.74088e-15
4.10811e-15
3.4807e-15
2.87675e-15
2.30964e-15
1.78718e-15
1.31131e-15
8.78222e-16
4.78966e-16
3.54725e-18
3.27176e-19
3.27176e-19
3.50162e-18
4.72866e-16
8.67316e-16
1.29559e-15
1.76675e-15
2.28481e-15
2.8481e-15
3.44906e-15
4.07461e-15
4.70684e-15
5.32419e-15
5.90293e-15
6.41882e-15
6.84885e-15
7.173e-15
7.37568e-15
7.44697e-15
7.38333e-15
7.18788e-15
6.87017e-15
6.44547e-15
5.93356e-15
5.35729e-15
4.74088e-15
4.10811e-15
3.4807e-15
2.87675e-15
2.30964e-15
1.78718e-15
1.31131e-15
8.78222e-16
4.78966e-16
3.54725e-18
3.27176e-19
3.27176e-19
3.50162e-18
4.72866e-16
8.67316e-16
1.29559e-15
1.76675e-15
2.28481e-15
2.8481e-15
3.44906e-15
4.07461e-15
4.70684e-15
5.32419e-15
5.90293e-15
6.41882e-15
6.84885e-15
7.173e-15
7.37568e-15
7.44697e-15
7.38333e-15
7.18788e-15
6.87017e-15
6.44547e-15
5.93356e-15
5.35729e-15
4.74088e-15
4.10811e-15
3.4807e-15
2.87675e-15
2.30964e-15
1.78718e-15
1.31131e-15
8.78222e-16
4.78966e-16
3.54725e-18
3.27176e-19
3.27176e-19
3.50162e-18
4.72866e-16
8.67316e-16
1.29559e-15
1.76675e-15
2.28481e-15
2.8481e-15
3.44906e-15
4.07461e-15
4.70684e-15
5.32419e-15
5.90293e-15
6.41882e-15
6.84885e-15
7.173e-15
7.37568e-15
7.44697e-15
7.38333e-15
7.18788e-15
6.87017e-15
6.44547e-15
5.93356e-15
5.35729e-15
4.74088e-15
4.10811e-15
3.4807e-15
2.87675e-15
2.30964e-15
1.78718e-15
1.31131e-15
8.78222e-16
4.78966e-16
3.54725e-18
3.27176e-19
3.27176e-19
3.50162e-18
4.72866e-16
8.67316e-16
1.29559e-15
1.76675e-15
2.28481e-15
2.8481e-15
3.44906e-15
4.07461e-15
4.70684e-15
5.32419e-15
5.90293e-15
6.41882e-15
6.84885e-15
7.173e-15
7.37568e-15
7.44697e-15
7.38333e-15
7.18788e-15
6.87017e-15
6.44547e-15
5.93356e-15
5.35729e-15
4.74088e-15
4.10811e-15
3.4807e-15
2.87675e-15
2.30964e-15
1.78718e-15
1.31131e-15
8.78222e-16
4.78966e-16
3.54725e-18
3.27176e-19
3.27176e-19
3.50162e-18
4.72866e-16
8.67316e-16
1.29559e-15
1.76675e-15
2.28481e-15
2.8481e-15
3.44906e-15
4.07461e-15
4.70684e-15
5.32419e-15
5.90293e-15
6.41882e-15