/*--------------------------------*- C++ -*----------------------------------*\
  =========                 |
  \\      /  F ield         | OpenFOAM: The Open Source CFD Toolbox
   \\    /   O peration     | Website:  https://openfoam.org
    \\  /    A nd           | Version:  13
     \\/     M anipulation  |
\*---------------------------------------------------------------------------*/
FoamFile
{
    format      ascii;
    class       volScalarField;
    location    "110";
    object      rhok;
}
// * * * * * * * * * * * * * * * * * * * * * * * * * * * * * * * * * * * * * //

dimensions      [];

internalField   nonuniform List<scalar> 
315000
(
0.444616
0.429369
0.414087
0.412623
0.411855
0.411089
0.410325
0.409562
0.408802
0.408042
0.407285
0.406531
0.405778
0.405028
0.40428
0.403535
0.402794
0.402055
0.40132
0.400588
0.39986
0.399136
0.398416
0.3977
0.396989
0.396283
0.395581
0.394884
0.394192
0.393506
0.392825
0.392149
0.391479
0.390815
0.390156
0.389503
0.388856
0.388215
0.38758
0.38695
0.386326
0.385709
0.385097
0.38449
0.38389
0.383295
0.382705
0.382121
0.381542
0.380968
0.380399
0.379835
0.379276
0.37872
0.37817
0.377623
0.37708
0.37654
0.376004
0.375471
0.374941
0.374414
0.373889
0.373366
0.372845
0.372325
0.371807
0.37129
0.370773
0.370257
0.444616
0.429366
0.414081
0.412617
0.41185
0.411084
0.410319
0.409557
0.408796
0.408036
0.407279
0.406524
0.405772
0.405021
0.404274
0.403529
0.402787
0.402049
0.401313
0.400581
0.399853
0.399129
0.398409
0.397694
0.396982
0.396276
0.395574
0.394877
0.394186
0.393499
0.392818
0.392142
0.391472
0.390808
0.390149
0.389496
0.388849
0.388208
0.387573
0.386944
0.38632
0.385702
0.38509
0.384484
0.383884
0.383289
0.382699
0.382115
0.381537
0.380963
0.380394
0.37983
0.379271
0.378716
0.378166
0.377619
0.377076
0.376537
0.376001
0.375469
0.374939
0.374412
0.373887
0.373364
0.372843
0.372324
0.371806
0.371289
0.370773
0.370257
0.444616
0.429362
0.414075
0.41261
0.411843
0.411077
0.410312
0.40955
0.408789
0.40803
0.407272
0.406517
0.405765
0.405015
0.404267
0.403522
0.40278
0.402042
0.401307
0.400575
0.399847
0.399123
0.398403
0.397687
0.396976
0.39627
0.395568
0.394871
0.394179
0.393493
0.392812
0.392136
0.391466
0.390802
0.390144
0.389491
0.388844
0.388203
0.387567
0.386938
0.386315
0.385697
0.385085
0.384479
0.383879
0.383284
0.382695
0.382111
0.381532
0.380959
0.38039
0.379826
0.379267
0.378713
0.378162
0.377616
0.377073
0.376534
0.375999
0.375466
0.374937
0.37441
0.373885
0.373363
0.372842
0.372323
0.371805
0.371289
0.370773
0.370257
0.444616
0.42936
0.41407
0.412606
0.411838
0.411072
0.410308
0.409545
0.408784
0.408025
0.407267
0.406512
0.40576
0.40501
0.404262
0.403517
0.402775
0.402037
0.401302
0.40057
0.399842
0.399118
0.398398
0.397682
0.396971
0.396265
0.395563
0.394866
0.394175
0.393488
0.392807
0.392132
0.391462
0.390797
0.390139
0.389486
0.388839
0.388198
0.387563
0.386934
0.38631
0.385693
0.385081
0.384475
0.383875
0.38328
0.382691
0.382107
0.381529
0.380955
0.380387
0.379823
0.379264
0.37871
0.378159
0.377613
0.377071
0.376532
0.375997
0.375464
0.374935
0.374408
0.373884
0.373362
0.372841
0.372322
0.371805
0.371288
0.370772
0.370257
0.444616
0.429359
0.414068
0.412604
0.411836
0.41107
0.410305
0.409543
0.408781
0.408022
0.407265
0.40651
0.405757
0.405007
0.404259
0.403514
0.402773
0.402034
0.401299
0.400567
0.399839
0.399115
0.398395
0.397679
0.396968
0.396262
0.39556
0.394863
0.394171
0.393485
0.392804
0.392128
0.391458
0.390794
0.390136
0.389483
0.388836
0.388195
0.38756
0.386931
0.386307
0.38569
0.385078
0.384472
0.383872
0.383277
0.382688
0.382104
0.381526
0.380953
0.380384
0.379821
0.379262
0.378707
0.378157
0.377611
0.377069
0.37653
0.375995
0.375463
0.374934
0.374407
0.373883
0.373361
0.37284
0.372322
0.371804
0.371288
0.370772
0.370257
0.444616
0.429359
0.414068
0.412604
0.411836
0.41107
0.410305
0.409542
0.408781
0.408022
0.407265
0.406509
0.405757
0.405006
0.404258
0.403514
0.402772
0.402033
0.401298
0.400566
0.399838
0.399113
0.398393
0.397678
0.396966
0.39626
0.395558
0.394861
0.394169
0.393483
0.392802
0.392126
0.391456
0.390792
0.390133
0.389481
0.388834
0.388193
0.387557
0.386928
0.386305
0.385687
0.385076
0.38447
0.38387
0.383275
0.382686
0.382102
0.381524
0.380951
0.380382
0.379819
0.37926
0.378706
0.378156
0.37761
0.377068
0.376529
0.375994
0.375462
0.374933
0.374406
0.373882
0.37336
0.37284
0.372321
0.371804
0.371288
0.370772
0.370257
0.444616
0.42936
0.414069
0.412604
0.411837
0.41107
0.410306
0.409543
0.408782
0.408022
0.407265
0.40651
0.405757
0.405006
0.404259
0.403513
0.402771
0.402033
0.401297
0.400565
0.399837
0.399113
0.398393
0.397677
0.396965
0.396259
0.395557
0.39486
0.394168
0.393482
0.3928
0.392125
0.391455
0.39079
0.390132
0.389479
0.388832
0.388191
0.387556
0.386927
0.386303
0.385686
0.385074
0.384468
0.383868
0.383274
0.382685
0.382101
0.381523
0.380949
0.380381
0.379818
0.379259
0.378705
0.378155
0.377609
0.377067
0.376528
0.375993
0.375461
0.374932
0.374405
0.373881
0.373359
0.372839
0.372321
0.371804
0.371287
0.370772
0.370257
0.444616
0.42936
0.41407
0.412605
0.411838
0.411071
0.410307
0.409544
0.408782
0.408023
0.407266
0.40651
0.405757
0.405007
0.404259
0.403514
0.402772
0.402033
0.401297
0.400565
0.399837
0.399113
0.398392
0.397676
0.396965
0.396258
0.395556
0.394859
0.394167
0.393481
0.3928
0.392124
0.391454
0.390789
0.390131
0.389478
0.388831
0.38819
0.387555
0.386926
0.386302
0.385685
0.385073
0.384467
0.383867
0.383273
0.382684
0.3821
0.381522
0.380949
0.38038
0.379817
0.379258
0.378704
0.378154
0.377608
0.377066
0.376527
0.375992
0.37546
0.374931
0.374405
0.373881
0.373359
0.372839
0.372321
0.371803
0.371287
0.370772
0.370257
0.444616
0.429361
0.414072
0.412607
0.411839
0.411073
0.410309
0.409546
0.408784
0.408025
0.407267
0.406512
0.405759
0.405008
0.40426
0.403515
0.402773
0.402034
0.401298
0.400566
0.399837
0.399113
0.398393
0.397677
0.396965
0.396258
0.395556
0.394859
0.394167
0.393481
0.392799
0.392124
0.391453
0.390789
0.39013
0.389477
0.388831
0.388189
0.387554
0.386925
0.386302
0.385684
0.385073
0.384467
0.383867
0.383272
0.382683
0.3821
0.381521
0.380948
0.38038
0.379816
0.379258
0.378704
0.378154
0.377608
0.377066
0.376527
0.375992
0.37546
0.374931
0.374405
0.373881
0.373359
0.372839
0.37232
0.371803
0.371287
0.370772
0.370257
0.444616
0.429363
0.414075
0.412611
0.411843
0.411077
0.410312
0.409549
0.408788
0.408028
0.407271
0.406515
0.405762
0.405011
0.404263
0.403518
0.402775
0.402036
0.4013
0.400568
0.399839
0.399115
0.398394
0.397678
0.396966
0.396259
0.395557
0.39486
0.394168
0.393481
0.3928
0.392124
0.391454
0.390789
0.39013
0.389478
0.388831
0.388189
0.387554
0.386925
0.386302
0.385684
0.385072
0.384467
0.383866
0.383272
0.382683
0.382099
0.381521
0.380948
0.38038
0.379816
0.379258
0.378703
0.378153
0.377607
0.377065
0.376527
0.375992
0.37546
0.374931
0.374405
0.373881
0.373359
0.372839
0.37232
0.371803
0.371287
0.370772
0.370257
0.444616
0.429366
0.41408
0.412615
0.411848
0.411082
0.410317
0.409554
0.408792
0.408033
0.407275
0.406519
0.405766
0.405015
0.404267
0.403521
0.402779
0.402039
0.401303
0.40057
0.399842
0.399117
0.398396
0.39768
0.396968
0.396261
0.395558
0.394861
0.394169
0.393482
0.392801
0.392125
0.391454
0.39079
0.390131
0.389478
0.388831
0.38819
0.387555
0.386925
0.386302
0.385684
0.385073
0.384467
0.383867
0.383272
0.382683
0.382099
0.381521
0.380948
0.38038
0.379816
0.379258
0.378703
0.378153
0.377608
0.377065
0.376527
0.375992
0.37546
0.374931
0.374405
0.373881
0.373359
0.372839
0.37232
0.371803
0.371287
0.370772
0.370257
0.444616
0.429367
0.414083
0.412619
0.411851
0.411085
0.41032
0.409557
0.408795
0.408036
0.407278
0.406522
0.405769
0.405018
0.404269
0.403524
0.402781
0.402042
0.401305
0.400573
0.399844
0.399119
0.398398
0.397682
0.39697
0.396262
0.39556
0.394862
0.39417
0.393483
0.392802
0.392126
0.391455
0.390791
0.390132
0.389479
0.388832
0.38819
0.387555
0.386926
0.386302
0.385685
0.385073
0.384467
0.383867
0.383272
0.382683
0.3821
0.381521
0.380948
0.38038
0.379817
0.379258
0.378704
0.378154
0.377608
0.377066
0.376527
0.375992
0.37546
0.374931
0.374405
0.373881
0.373359
0.372839
0.37232
0.371803
0.371287
0.370772
0.370257
0.444616
0.429368
0.414083
0.412619
0.411852
0.411085
0.410321
0.409557
0.408796
0.408036
0.407278
0.406523
0.405769
0.405018
0.40427
0.403524
0.402782
0.402042
0.401306
0.400573
0.399844
0.399119
0.398399
0.397682
0.39697
0.396263
0.39556
0.394863
0.394171
0.393484
0.392802
0.392126
0.391456
0.390791
0.390132
0.389479
0.388832
0.388191
0.387556
0.386926
0.386303
0.385685
0.385073
0.384467
0.383867
0.383273
0.382684
0.3821
0.381522
0.380948
0.38038
0.379817
0.379258
0.378704
0.378154
0.377608
0.377066
0.376527
0.375992
0.37546
0.374931
0.374405
0.373881
0.373359
0.372839
0.372321
0.371803
0.371287
0.370772
0.370257
0.444616
0.429366
0.41408
0.412616
0.411849
0.411082
0.410318
0.409555
0.408793
0.408034
0.407276
0.40652
0.405767
0.405016
0.404268
0.403522
0.40278
0.40204
0.401304
0.400572
0.399843
0.399118
0.398398
0.397681
0.39697
0.396262
0.39556
0.394863
0.394171
0.393484
0.392802
0.392126
0.391456
0.390791
0.390132
0.389479
0.388832
0.388191
0.387556
0.386926
0.386303
0.385685
0.385074
0.384468
0.383868
0.383273
0.382684
0.3821
0.381522
0.380949
0.38038
0.379817
0.379258
0.378704
0.378154
0.377608
0.377066
0.376527
0.375992
0.37546
0.374931
0.374405
0.373881
0.373359
0.372839
0.372321
0.371803
0.371287
0.370772
0.370257
0.444616
0.429363
0.414076
0.412612
0.411844
0.411078
0.410313
0.40955
0.408789
0.408029
0.407272
0.406516
0.405763
0.405013
0.404264
0.403519
0.402777
0.402038
0.401302
0.40057
0.399841
0.399116
0.398396
0.39768
0.396968
0.396261
0.395559
0.394862
0.39417
0.393483
0.392802
0.392126
0.391456
0.390791
0.390132
0.389479
0.388832
0.388191
0.387556
0.386927
0.386303
0.385686
0.385074
0.384468
0.383868
0.383273
0.382684
0.3821
0.381522
0.380949
0.380381
0.379817
0.379258
0.378704
0.378154
0.377608
0.377066
0.376528
0.375993
0.375461
0.374932
0.374405
0.373881
0.373359
0.372839
0.372321
0.371803
0.371287
0.370772
0.370257
0.444616
0.429361
0.414072
0.412607
0.41184
0.411074
0.410309
0.409546
0.408785
0.408025
0.407268
0.406513
0.40576
0.405009
0.404261
0.403516
0.402774
0.402035
0.401299
0.400567
0.399839
0.399115
0.398394
0.397678
0.396967
0.39626
0.395558
0.394861
0.394169
0.393482
0.392801
0.392125
0.391455
0.390791
0.390132
0.389479
0.388832
0.388191
0.387556
0.386927
0.386303
0.385686
0.385074
0.384468
0.383868
0.383273
0.382684
0.382101
0.381522
0.380949
0.380381
0.379817
0.379259
0.378704
0.378154
0.377608
0.377066
0.376528
0.375993
0.375461
0.374932
0.374405
0.373881
0.373359
0.372839
0.372321
0.371803
0.371287
0.370772
0.370257
0.444616
0.42936
0.41407
0.412605
0.411838
0.411071
0.410307
0.409544
0.408783
0.408023
0.407266
0.406511
0.405758
0.405007
0.40426
0.403515
0.402773
0.402034
0.401298
0.400566
0.399838
0.399114
0.398393
0.397677
0.396966
0.396259
0.395557
0.39486
0.394169
0.393482
0.392801
0.392125
0.391455
0.390791
0.390132
0.389479
0.388832
0.388191
0.387556
0.386927
0.386303
0.385686
0.385074
0.384468
0.383868
0.383274
0.382685
0.382101
0.381523
0.380949
0.380381
0.379818
0.379259
0.378705
0.378155
0.377609
0.377066
0.376528
0.375993
0.375461
0.374932
0.374405
0.373881
0.373359
0.372839
0.372321
0.371804
0.371287
0.370772
0.370257
0.444616
0.42936
0.414071
0.412607
0.411839
0.411073
0.410308
0.409545
0.408784
0.408025
0.407267
0.406512
0.405759
0.405009
0.404261
0.403516
0.402774
0.402035
0.401299
0.400567
0.399839
0.399114
0.398394
0.397678
0.396967
0.39626
0.395558
0.394861
0.394169
0.393483
0.392801
0.392126
0.391455
0.390791
0.390132
0.38948
0.388833
0.388192
0.387556
0.386927
0.386304
0.385686
0.385075
0.384469
0.383868
0.383274
0.382685
0.382101
0.381523
0.38095
0.380381
0.379818
0.379259
0.378705
0.378155
0.377609
0.377067
0.376528
0.375993
0.375461
0.374932
0.374405
0.373881
0.373359
0.372839
0.372321
0.371804
0.371287
0.370772
0.370257
0.444616
0.429363
0.414075
0.412611
0.411843
0.411077
0.410313
0.40955
0.408788
0.408029
0.407271
0.406516
0.405763
0.405012
0.404264
0.403519
0.402777
0.402038
0.401302
0.40057
0.399841
0.399117
0.398396
0.39768
0.396969
0.396262
0.39556
0.394863
0.394171
0.393484
0.392803
0.392127
0.391457
0.390792
0.390133
0.38948
0.388833
0.388192
0.387557
0.386928
0.386304
0.385687
0.385075
0.384469
0.383869
0.383274
0.382685
0.382102
0.381523
0.38095
0.380382
0.379818
0.379259
0.378705
0.378155
0.377609
0.377067
0.376528
0.375993
0.375461
0.374932
0.374406
0.373882
0.37336
0.372839
0.372321
0.371804
0.371287
0.370772
0.370257
0.444616
0.429366
0.41408
0.412616
0.411849
0.411082
0.410318
0.409555
0.408793
0.408034
0.407276
0.406521
0.405768
0.405017
0.404269
0.403523
0.402781
0.402042
0.401306
0.400573
0.399845
0.39912
0.398399
0.397683
0.396971
0.396264
0.395562
0.394865
0.394173
0.393486
0.392804
0.392128
0.391458
0.390793
0.390135
0.389482
0.388834
0.388193
0.387558
0.386929
0.386305
0.385688
0.385076
0.38447
0.38387
0.383275
0.382686
0.382102
0.381524
0.38095
0.380382
0.379818
0.37926
0.378705
0.378155
0.377609
0.377067
0.376528
0.375993
0.375461
0.374932
0.374406
0.373882
0.37336
0.37284
0.372321
0.371804
0.371287
0.370772
0.370257
0.444616
0.429368
0.414084
0.41262
0.411852
0.411086
0.410321
0.409558
0.408797
0.408037
0.407279
0.406524
0.405771
0.40502
0.404272
0.403526
0.402784
0.402044
0.401308
0.400576
0.399847
0.399122
0.398401
0.397685
0.396973
0.396266
0.395564
0.394866
0.394174
0.393487
0.392806
0.39213
0.391459
0.390795
0.390136
0.389483
0.388835
0.388194
0.387559
0.386929
0.386306
0.385688
0.385076
0.38447
0.38387
0.383275
0.382686
0.382102
0.381524
0.380951
0.380382
0.379819
0.37926
0.378706
0.378155
0.377609
0.377067
0.376529
0.375993
0.375461
0.374932
0.374406
0.373882
0.37336
0.37284
0.372321
0.371804
0.371287
0.370772
0.370257
0.444616
0.429368
0.414084
0.41262
0.411852
0.411086
0.410321
0.409558
0.408797
0.408037
0.40728
0.406524
0.405771
0.40502
0.404272
0.403527
0.402784
0.402045
0.401309
0.400576
0.399848
0.399123
0.398402
0.397686
0.396974
0.396267
0.395564
0.394867
0.394175
0.393488
0.392806
0.39213
0.39146
0.390795
0.390136
0.389483
0.388836
0.388195
0.387559
0.38693
0.386306
0.385689
0.385077
0.384471
0.38387
0.383276
0.382687
0.382103
0.381524
0.380951
0.380383
0.379819
0.37926
0.378706
0.378156
0.37761
0.377067
0.376529
0.375994
0.375462
0.374932
0.374406
0.373882
0.37336
0.37284
0.372321
0.371804
0.371287
0.370772
0.370257
0.444616
0.429367
0.414082
0.412618
0.411851
0.411085
0.41032
0.409557
0.408796
0.408036
0.407279
0.406524
0.40577
0.40502
0.404271
0.403526
0.402784
0.402044
0.401308
0.400576
0.399847
0.399123
0.398402
0.397686
0.396974
0.396267
0.395564
0.394867
0.394175
0.393488
0.392807
0.392131
0.39146
0.390796
0.390137
0.389484
0.388836
0.388195
0.38756
0.38693
0.386307
0.385689
0.385077
0.384471
0.383871
0.383276
0.382687
0.382103
0.381525
0.380951
0.380383
0.379819
0.37926
0.378706
0.378156
0.37761
0.377068
0.376529
0.375994
0.375462
0.374933
0.374406
0.373882
0.37336
0.37284
0.372321
0.371804
0.371288
0.370772
0.370257
0.444616
0.429366
0.414082
0.412618
0.411851
0.411085
0.41032
0.409557
0.408796
0.408036
0.407279
0.406524
0.40577
0.40502
0.404272
0.403526
0.402784
0.402045
0.401309
0.400576
0.399848
0.399123
0.398402
0.397686
0.396974
0.396267
0.395565
0.394868
0.394175
0.393489
0.392807
0.392131
0.391461
0.390796
0.390137
0.389484
0.388837
0.388196
0.38756
0.386931
0.386307
0.38569
0.385078
0.384472
0.383871
0.383277
0.382687
0.382103
0.381525
0.380952
0.380383
0.37982
0.379261
0.378706
0.378156
0.37761
0.377068
0.376529
0.375994
0.375462
0.374933
0.374406
0.373882
0.37336
0.37284
0.372321
0.371804
0.371288
0.370772
0.370257
0.444616
0.429368
0.414084
0.41262
0.411853
0.411087
0.410322
0.409559
0.408798
0.408038
0.407281
0.406526
0.405772
0.405022
0.404273
0.403528
0.402786
0.402046
0.40131
0.400578
0.399849
0.399125
0.398404
0.397688
0.396976
0.396269
0.395566
0.394869
0.394177
0.39349
0.392808
0.392132
0.391462
0.390797
0.390138
0.389485
0.388838
0.388196
0.387561
0.386931
0.386308
0.38569
0.385078
0.384472
0.383872
0.383277
0.382688
0.382104
0.381525
0.380952
0.380383
0.37982
0.379261
0.378707
0.378156
0.37761
0.377068
0.376529
0.375994
0.375462
0.374933
0.374406
0.373882
0.37336
0.37284
0.372321
0.371804
0.371288
0.370772
0.370257
0.444616
0.429369
0.414087
0.412623
0.411855
0.411089
0.410325
0.409562
0.408801
0.408041
0.407284
0.406528
0.405775
0.405024
0.404276
0.403531
0.402788
0.402049
0.401313
0.40058
0.399852
0.399127
0.398406
0.39769
0.396978
0.396271
0.395568
0.394871
0.394178
0.393491
0.39281
0.392134
0.391463
0.390798
0.390139
0.389486
0.388839
0.388197
0.387562
0.386932
0.386309
0.385691
0.385079
0.384473
0.383872
0.383277
0.382688
0.382104
0.381526
0.380952
0.380384
0.37982
0.379261
0.378707
0.378157
0.37761
0.377068
0.376529
0.375994
0.375462
0.374933
0.374406
0.373882
0.37336
0.37284
0.372321
0.371804
0.371288
0.370772
0.370257
0.444616
0.429371
0.414089
0.412625
0.411858
0.411092
0.410327
0.409565
0.408803
0.408044
0.407286
0.406531
0.405778
0.405027
0.404279
0.403533
0.402791
0.402051
0.401315
0.400583
0.399854
0.399129
0.398408
0.397692
0.39698
0.396273
0.39557
0.394873
0.39418
0.393493
0.392811
0.392135
0.391465
0.3908
0.390141
0.389487
0.38884
0.388198
0.387563
0.386933
0.386309
0.385692
0.38508
0.384473
0.383873
0.383278
0.382689
0.382105
0.381526
0.380953
0.380384
0.379821
0.379262
0.378707
0.378157
0.377611
0.377068
0.37653
0.375994
0.375462
0.374933
0.374406
0.373882
0.37336
0.37284
0.372321
0.371804
0.371288
0.370772
0.370257
0.444616
0.429371
0.414091
0.412627
0.41186
0.411094
0.410329
0.409566
0.408805
0.408046
0.407288
0.406533
0.40578
0.405029
0.404281
0.403535
0.402793
0.402053
0.401317
0.400585
0.399856
0.399131
0.39841
0.397694
0.396982
0.396275
0.395572
0.394874
0.394182
0.393495
0.392813
0.392137
0.391466
0.390801
0.390142
0.389489
0.388841
0.3882
0.387564
0.386934
0.38631
0.385692
0.38508
0.384474
0.383874
0.383279
0.382689
0.382105
0.381527
0.380953
0.380385
0.379821
0.379262
0.378707
0.378157
0.377611
0.377068
0.37653
0.375994
0.375462
0.374933
0.374407
0.373882
0.37336
0.37284
0.372321
0.371804
0.371288
0.370772
0.370257
0.444616
0.429372
0.414092
0.412629
0.411861
0.411096
0.410331
0.409568
0.408807
0.408048
0.40729
0.406535
0.405782
0.405031
0.404283
0.403538
0.402795
0.402056
0.40132
0.400587
0.399858
0.399133
0.398413
0.397696
0.396984
0.396277
0.395574
0.394876
0.394184
0.393497
0.392815
0.392138
0.391468
0.390803
0.390143
0.38949
0.388842
0.388201
0.387565
0.386935
0.386311
0.385693
0.385081
0.384475
0.383874
0.383279
0.38269
0.382106
0.381527
0.380953
0.380385
0.379821
0.379262
0.378707
0.378157
0.377611
0.377069
0.37653
0.375995
0.375462
0.374933
0.374407
0.373882
0.37336
0.37284
0.372321
0.371804
0.371288
0.370772
0.370257
0.444616
0.429373
0.414095
0.412631
0.411864
0.411098
0.410334
0.409571
0.40881
0.40805
0.407293
0.406537
0.405784
0.405034
0.404285
0.40354
0.402797
0.402058
0.401322
0.400589
0.399861
0.399136
0.398415
0.397698
0.396986
0.396278
0.395576
0.394878
0.394185
0.393498
0.392816
0.39214
0.391469
0.390804
0.390144
0.389491
0.388843
0.388202
0.387566
0.386936
0.386312
0.385694
0.385082
0.384475
0.383875
0.38328
0.38269
0.382106
0.381527
0.380954
0.380385
0.379821
0.379262
0.378708
0.378157
0.377611
0.377069
0.37653
0.375995
0.375463
0.374933
0.374407
0.373882
0.37336
0.37284
0.372321
0.371804
0.371288
0.370772
0.370257
0.444616
0.429375
0.414097
0.412633
0.411866
0.4111
0.410336
0.409573
0.408812
0.408053
0.407295
0.40654
0.405787
0.405036
0.404288
0.403542
0.4028
0.40206
0.401324
0.400591
0.399863
0.399137
0.398417
0.3977
0.396988
0.39628
0.395577
0.39488
0.394187
0.393499
0.392817
0.392141
0.39147
0.390805
0.390145
0.389492
0.388844
0.388202
0.387566
0.386936
0.386313
0.385694
0.385082
0.384476
0.383875
0.38328
0.38269
0.382106
0.381528
0.380954
0.380385
0.379822
0.379262
0.378708
0.378157
0.377611
0.377069
0.37653
0.375995
0.375463
0.374933
0.374407
0.373882
0.37336
0.37284
0.372321
0.371804
0.371288
0.370772
0.370257
0.444616
0.429375
0.414099
0.412635
0.411868
0.411102
0.410338
0.409575
0.408814
0.408054
0.407297
0.406542
0.405788
0.405038
0.404289
0.403544
0.402801
0.402062
0.401326
0.400593
0.399864
0.399139
0.398418
0.397701
0.396989
0.396281
0.395578
0.394881
0.394188
0.3935
0.392818
0.392142
0.391471
0.390805
0.390146
0.389492
0.388845
0.388203
0.387567
0.386937
0.386313
0.385695
0.385082
0.384476
0.383875
0.38328
0.382691
0.382106
0.381528
0.380954
0.380385
0.379822
0.379262
0.378708
0.378158
0.377611
0.377069
0.37653
0.375995
0.375463
0.374933
0.374407
0.373882
0.37336
0.37284
0.372321
0.371804
0.371288
0.370772
0.370257
0.444616
0.429376
0.4141
0.412636
0.411869
0.411103
0.410339
0.409576
0.408815
0.408055
0.407298
0.406543
0.405789
0.405039
0.40429
0.403545
0.402802
0.402063
0.401326
0.400594
0.399865
0.39914
0.398419
0.397702
0.39699
0.396282
0.395579
0.394881
0.394188
0.393501
0.392819
0.392142
0.391471
0.390806
0.390146
0.389493
0.388845
0.388203
0.387567
0.386937
0.386313
0.385695
0.385083
0.384476
0.383875
0.38328
0.382691
0.382107
0.381528
0.380954
0.380385
0.379822
0.379263
0.378708
0.378158
0.377611
0.377069
0.37653
0.375995
0.375463
0.374933
0.374407
0.373883
0.37336
0.37284
0.372321
0.371804
0.371288
0.370772
0.370257
0.444616
0.429376
0.4141
0.412637
0.411869
0.411104
0.410339
0.409576
0.408815
0.408056
0.407299
0.406543
0.40579
0.405039
0.404291
0.403545
0.402803
0.402063
0.401327
0.400594
0.399865
0.39914
0.398419
0.397702
0.39699
0.396282
0.395579
0.394881
0.394189
0.393501
0.392819
0.392142
0.391471
0.390806
0.390146
0.389493
0.388845
0.388203
0.387567
0.386937
0.386313
0.385695
0.385083
0.384476
0.383875
0.38328
0.382691
0.382107
0.381528
0.380954
0.380385
0.379822
0.379263
0.378708
0.378158
0.377611
0.377069
0.37653
0.375995
0.375463
0.374933
0.374407
0.373883
0.37336
0.37284
0.372321
0.371804
0.371288
0.370772
0.370257
0.444616
0.429376
0.4141
0.412637
0.41187
0.411104
0.41034
0.409577
0.408816
0.408056
0.407299
0.406543
0.40579
0.405039
0.404291
0.403546
0.402803
0.402063
0.401327
0.400594
0.399865
0.39914
0.398419
0.397702
0.39699
0.396282
0.395579
0.394882
0.394189
0.393501
0.392819
0.392142
0.391471
0.390806
0.390147
0.389493
0.388845
0.388203
0.387567
0.386937
0.386313
0.385695
0.385083
0.384476
0.383875
0.38328
0.382691
0.382107
0.381528
0.380954
0.380385
0.379822
0.379263
0.378708
0.378158
0.377611
0.377069
0.37653
0.375995
0.375463
0.374933
0.374407
0.373883
0.37336
0.37284
0.372321
0.371804
0.371288
0.370772
0.370257
0.444616
0.429376
0.4141
0.412637
0.41187
0.411104
0.41034
0.409577
0.408816
0.408056
0.407299
0.406543
0.40579
0.405039
0.404291
0.403546
0.402803
0.402063
0.401327
0.400594
0.399865
0.39914
0.398419
0.397702
0.39699
0.396282
0.395579
0.394882
0.394189
0.393501
0.392819
0.392142
0.391471
0.390806
0.390147
0.389493
0.388845
0.388203
0.387567
0.386937
0.386313
0.385695
0.385083
0.384476
0.383875
0.38328
0.382691
0.382107
0.381528
0.380954
0.380386
0.379822
0.379263
0.378708
0.378158
0.377611
0.377069
0.37653
0.375995
0.375463
0.374933
0.374407
0.373883
0.37336
0.37284
0.372321
0.371804
0.371288
0.370772
0.370257
0.444616
0.429376
0.4141
0.412637
0.41187
0.411104
0.41034
0.409577
0.408816
0.408056
0.407299
0.406543
0.40579
0.405039
0.404291
0.403546
0.402803
0.402063
0.401327
0.400594
0.399865
0.39914
0.398419
0.397702
0.39699
0.396282
0.395579
0.394882
0.394189
0.393501
0.392819
0.392142
0.391471
0.390806
0.390147
0.389493
0.388845
0.388203
0.387567
0.386937
0.386313
0.385695
0.385083
0.384476
0.383875
0.38328
0.382691
0.382107
0.381528
0.380954
0.380386
0.379822
0.379263
0.378708
0.378158
0.377611
0.377069
0.37653
0.375995
0.375463
0.374933
0.374407
0.373883
0.37336
0.37284
0.372321
0.371804
0.371288
0.370772
0.370257
0.444616
0.429376
0.4141
0.412637
0.41187
0.411104
0.41034
0.409577
0.408816
0.408056
0.407299
0.406543
0.40579
0.405039
0.404291
0.403546
0.402803
0.402063
0.401327
0.400594
0.399865
0.39914
0.398419
0.397702
0.39699
0.396282
0.395579
0.394882
0.394189
0.393501
0.392819
0.392142
0.391471
0.390806
0.390147
0.389493
0.388845
0.388203
0.387567
0.386937
0.386313
0.385695
0.385083
0.384476
0.383875
0.38328
0.382691
0.382107
0.381528
0.380954
0.380386
0.379822
0.379263
0.378708
0.378158
0.377611
0.377069
0.37653
0.375995
0.375463
0.374933
0.374407
0.373883
0.37336
0.37284
0.372321
0.371804
0.371288
0.370772
0.370257
0.444616
0.429376
0.4141
0.412637
0.41187
0.411104
0.41034
0.409577
0.408816
0.408056
0.407299
0.406543
0.40579
0.405039
0.404291
0.403546
0.402803
0.402063
0.401327
0.400594
0.399865
0.39914
0.398419
0.397702
0.39699
0.396282
0.395579
0.394882
0.394189
0.393501
0.392819
0.392142
0.391471
0.390806
0.390147
0.389493
0.388845
0.388203
0.387567
0.386937
0.386313
0.385695
0.385083
0.384476
0.383875
0.38328
0.382691
0.382107
0.381528
0.380954
0.380386
0.379822
0.379263
0.378708
0.378158
0.377611
0.377069
0.37653
0.375995
0.375463
0.374933
0.374407
0.373883
0.37336
0.37284
0.372321
0.371804
0.371288
0.370772
0.370257
0.444616
0.429376
0.4141
0.412637
0.41187
0.411104
0.41034
0.409577
0.408816
0.408056
0.407299
0.406543
0.40579
0.405039
0.404291
0.403546
0.402803
0.402063
0.401327
0.400594
0.399865
0.39914
0.398419
0.397702
0.39699
0.396282
0.395579
0.394882
0.394189
0.393501
0.392819
0.392142
0.391471
0.390806
0.390147
0.389493
0.388845
0.388203
0.387567
0.386937
0.386313
0.385695
0.385083
0.384476
0.383875
0.38328
0.382691
0.382107
0.381528
0.380954
0.380386
0.379822
0.379263
0.378708
0.378158
0.377611
0.377069
0.37653
0.375995
0.375463
0.374933
0.374407
0.373883
0.37336
0.37284
0.372321
0.371804
0.371288
0.370772
0.370257
0.444616
0.429376
0.4141
0.412637
0.41187
0.411104
0.41034
0.409577
0.408816
0.408056
0.407299
0.406543
0.40579
0.405039
0.404291
0.403546
0.402803
0.402063
0.401327
0.400594
0.399865
0.39914
0.398419
0.397702
0.39699
0.396282
0.395579
0.394882
0.394189
0.393501
0.392819
0.392142
0.391471
0.390806
0.390147
0.389493
0.388845
0.388203
0.387567
0.386937
0.386313
0.385695
0.385083
0.384476
0.383875
0.38328
0.382691
0.382107
0.381528
0.380954
0.380386
0.379822
0.379263
0.378708
0.378158
0.377611
0.377069
0.37653
0.375995
0.375463
0.374933
0.374407
0.373883
0.37336
0.37284
0.372321
0.371804
0.371288
0.370772
0.370257
0.444616
0.429376
0.4141
0.412637
0.41187
0.411104
0.41034
0.409577
0.408816
0.408056
0.407299
0.406543
0.40579
0.405039
0.404291
0.403546
0.402803
0.402063
0.401327
0.400594
0.399865
0.39914
0.398419
0.397702
0.39699
0.396282
0.395579
0.394882
0.394189
0.393501
0.392819
0.392142
0.391471
0.390806
0.390147
0.389493
0.388845
0.388203
0.387567
0.386937
0.386313
0.385695
0.385083
0.384476
0.383875
0.38328
0.382691
0.382107
0.381528
0.380954
0.380386
0.379822
0.379263
0.378708
0.378158
0.377611
0.377069
0.37653
0.375995
0.375463
0.374933
0.374407
0.373883
0.37336
0.37284
0.372321
0.371804
0.371288
0.370772
0.370257
0.444616
0.429376
0.4141
0.412637
0.41187
0.411104
0.41034
0.409577
0.408816
0.408056
0.407299
0.406543
0.40579
0.405039
0.404291
0.403546
0.402803
0.402063
0.401327
0.400594
0.399865
0.39914
0.398419
0.397702
0.39699
0.396282
0.395579
0.394882
0.394189
0.393501
0.392819
0.392142
0.391471
0.390806
0.390147
0.389493
0.388845
0.388203
0.387567
0.386937
0.386313
0.385695
0.385083
0.384476
0.383875
0.38328
0.382691
0.382107
0.381528
0.380954
0.380386
0.379822
0.379263
0.378708
0.378158
0.377611
0.377069
0.37653
0.375995
0.375463
0.374933
0.374407
0.373883
0.37336
0.37284
0.372321
0.371804
0.371288
0.370772
0.370257
0.444616
0.429376
0.4141
0.412637
0.41187
0.411104
0.41034
0.409577
0.408816
0.408056
0.407299
0.406543
0.40579
0.405039
0.404291
0.403546
0.402803
0.402063
0.401327
0.400594
0.399865
0.39914
0.398419
0.397702
0.39699
0.396282
0.395579
0.394882
0.394189
0.393501
0.392819
0.392142
0.391471
0.390806
0.390147
0.389493
0.388845
0.388203
0.387567
0.386937
0.386313
0.385695
0.385083
0.384476
0.383875
0.38328
0.382691
0.382107
0.381528
0.380954
0.380386
0.379822
0.379263
0.378708
0.378158
0.377611
0.377069
0.37653
0.375995
0.375463
0.374933
0.374407
0.373883
0.37336
0.37284
0.372321
0.371804
0.371288
0.370772
0.370257
0.444616
0.429376
0.4141
0.412637
0.41187
0.411104
0.41034
0.409577
0.408816
0.408056
0.407299
0.406543
0.40579
0.405039
0.404291
0.403546
0.402803
0.402063
0.401327
0.400594
0.399865
0.39914
0.398419
0.397702
0.39699
0.396282
0.395579
0.394882
0.394189
0.393501
0.392819
0.392142
0.391471
0.390806
0.390147
0.389493
0.388845
0.388203
0.387567
0.386937
0.386313
0.385695
0.385083
0.384476
0.383875
0.38328
0.382691
0.382107
0.381528
0.380954
0.380386
0.379822
0.379263
0.378708
0.378158
0.377611
0.377069
0.37653
0.375995
0.375463
0.374933
0.374407
0.373883
0.37336
0.37284
0.372321
0.371804
0.371288
0.370772
0.370257
0.444616
0.429376
0.4141
0.412637
0.41187
0.411104
0.41034
0.409577
0.408816
0.408056
0.407299
0.406543
0.40579
0.405039
0.404291
0.403546
0.402803
0.402063
0.401327
0.400594
0.399865
0.39914
0.398419
0.397702
0.39699
0.396282
0.395579
0.394882
0.394189
0.393501
0.392819
0.392142
0.391471
0.390806
0.390147
0.389493
0.388845
0.388203
0.387567
0.386937
0.386313
0.385695
0.385083
0.384476
0.383875
0.38328
0.382691
0.382107
0.381528
0.380954
0.380386
0.379822
0.379263
0.378708
0.378158
0.377611
0.377069
0.37653
0.375995
0.375463
0.374933
0.374407
0.373883
0.37336
0.37284
0.372321
0.371804
0.371288
0.370772
0.370257
0.444616
0.429376
0.4141
0.412637
0.41187
0.411104
0.41034
0.409577
0.408816
0.408056
0.407299
0.406543
0.40579
0.405039
0.404291
0.403546
0.402803
0.402063
0.401327
0.400594
0.399865
0.39914
0.398419
0.397702
0.39699
0.396282
0.395579
0.394882
0.394189
0.393501
0.392819
0.392142
0.391471
0.390806
0.390147
0.389493
0.388845
0.388203
0.387567
0.386937
0.386313
0.385695
0.385083
0.384476
0.383875
0.38328
0.382691
0.382107
0.381528
0.380954
0.380386
0.379822
0.379263
0.378708
0.378158
0.377611
0.377069
0.37653
0.375995
0.375463
0.374933
0.374407
0.373883
0.37336
0.37284
0.372321
0.371804
0.371288
0.370772
0.370257
0.444616
0.429376
0.4141
0.412637
0.41187
0.411104
0.41034
0.409577
0.408816
0.408056
0.407299
0.406543
0.40579
0.405039
0.404291
0.403546
0.402803