/*--------------------------------*- C++ -*----------------------------------*\
  =========                 |
  \\      /  F ield         | OpenFOAM: The Open Source CFD Toolbox
   \\    /   O peration     | Website:  https://openfoam.org
    \\  /    A nd           | Version:  13
     \\/     M anipulation  |
\*---------------------------------------------------------------------------*/
FoamFile
{
    format      ascii;
    class       volScalarField;
    location    "77.5";
    object      nut;
}
// * * * * * * * * * * * * * * * * * * * * * * * * * * * * * * * * * * * * * //

dimensions      [0 2 -1 0 0 0 0];

internalField   nonuniform List<scalar> 
315000
(
3.43858e-14
9.00299e-12
2.05363e-10
3.68334e-10
5.33528e-10
7.01137e-10
8.71454e-10
1.04473e-09
1.2211e-09
1.40055e-09
1.58293e-09
1.76791e-09
1.95503e-09
2.1437e-09
2.33319e-09
2.52271e-09
2.71136e-09
2.89821e-09
3.08224e-09
3.26245e-09
3.43779e-09
3.60722e-09
3.7697e-09
3.92422e-09
4.06979e-09
4.20548e-09
4.33039e-09
4.44368e-09
4.5446e-09
4.63247e-09
4.70666e-09
4.76668e-09
4.81211e-09
4.84263e-09
4.85802e-09
4.85817e-09
4.84309e-09
4.81289e-09
4.76776e-09
4.70804e-09
4.63413e-09
4.54655e-09
4.44589e-09
4.33285e-09
4.20818e-09
4.07271e-09
3.92734e-09
3.773e-09
3.61068e-09
3.44139e-09
3.26617e-09
3.08605e-09
2.90208e-09
2.71529e-09
2.52665e-09
2.33712e-09
2.14759e-09
1.95887e-09
1.77166e-09
1.58656e-09
1.40404e-09
1.22442e-09
1.04784e-09
8.74329e-10
7.03726e-10
5.3577e-10
3.7014e-10
2.06578e-10
9.06916e-12
3.46674e-14
8.60927e-13
2.29206e-10
5.20961e-08
9.39931e-08
1.36151e-07
1.78722e-07
2.21826e-07
2.65547e-07
3.09925e-07
3.54957e-07
4.00597e-07
4.4676e-07
4.93323e-07
5.40131e-07
5.87004e-07
6.3374e-07
6.80118e-07
7.2591e-07
7.70876e-07
8.14774e-07
8.57361e-07
8.98395e-07
9.37639e-07
9.74861e-07
1.00984e-06
1.04237e-06
1.07225e-06
1.0993e-06
1.12335e-06
1.14426e-06
1.16189e-06
1.17613e-06
1.1869e-06
1.19413e-06
1.19777e-06
1.1978e-06
1.19421e-06
1.18704e-06
1.17633e-06
1.16214e-06
1.14456e-06
1.12371e-06
1.0997e-06
1.0727e-06
1.04287e-06
1.01038e-06
9.75436e-07
9.38248e-07
8.99035e-07
8.58027e-07
8.15463e-07
7.71582e-07
7.26629e-07
6.80845e-07
6.3447e-07
5.87732e-07
5.40852e-07
4.9403e-07
4.47448e-07
4.0126e-07
3.55589e-07
3.10519e-07
2.66096e-07
2.22322e-07
1.79154e-07
1.36509e-07
9.4264e-08
5.22614e-08
2.30007e-10
8.64056e-13
3.47719e-12
9.27101e-10
5.28898e-07
9.40342e-07
1.34474e-06
1.7448e-06
2.14252e-06
2.53923e-06
2.93565e-06
3.33195e-06
3.72784e-06
4.12264e-06
4.51534e-06
4.90473e-06
5.28943e-06
5.66797e-06
6.03883e-06
6.40051e-06
6.75148e-06
7.09027e-06
7.41546e-06
7.72566e-06
8.01957e-06
8.29593e-06
8.55357e-06
8.7914e-06
9.00841e-06
9.2037e-06
9.37645e-06
9.52592e-06
9.65148e-06
9.7526e-06
9.82886e-06
9.87993e-06
9.90559e-06
9.90574e-06
9.88037e-06
9.8296e-06
9.75364e-06
9.6528e-06
9.52752e-06
9.37833e-06
9.20585e-06
9.01082e-06
8.79405e-06
8.55646e-06
8.29904e-06
8.02288e-06
7.72917e-06
7.41913e-06
7.0941e-06
6.75543e-06
6.40457e-06
6.04298e-06
5.67216e-06
5.29365e-06
4.90894e-06
4.5195e-06
4.12672e-06
3.7318e-06
3.33575e-06
2.93924e-06
2.54257e-06
2.14554e-06
1.74744e-06
1.34693e-06
9.41998e-07
5.2991e-07
9.29031e-10
3.48463e-12
6.28134e-12
1.6751e-09
9.42884e-07
1.65542e-06
2.34354e-06
3.01466e-06
3.67398e-06
4.32493e-06
4.96951e-06
5.60855e-06
6.24193e-06
6.86886e-06
7.48799e-06
8.09768e-06
8.6961e-06
9.28131e-06
9.85135e-06
1.04043e-05
1.09383e-05
1.14516e-05
1.19423e-05
1.24089e-05
1.28497e-05
1.3263e-05
1.36476e-05
1.40018e-05
1.43246e-05
1.46146e-05
1.48709e-05
1.50923e-05
1.52782e-05
1.54278e-05
1.55405e-05
1.56159e-05
1.56538e-05
1.56539e-05
1.56164e-05
1.55413e-05
1.54288e-05
1.52796e-05
1.5094e-05
1.48728e-05
1.46169e-05
1.43271e-05
1.40046e-05
1.36506e-05
1.32663e-05
1.28531e-05
1.24126e-05
1.19462e-05
1.14557e-05
1.09425e-05
1.04086e-05
9.85578e-06
9.28581e-06
8.70064e-06
8.10223e-06
7.49251e-06
6.87331e-06
6.24627e-06
5.61272e-06
4.97348e-06
4.32863e-06
3.67735e-06
3.01763e-06
2.34602e-06
1.65731e-06
9.44061e-07
1.67741e-09
6.29026e-12
9.17825e-12
2.44825e-09
1.36002e-06
2.36044e-06
3.31265e-06
4.23123e-06
5.12596e-06
6.00315e-06
6.86654e-06
7.71794e-06
8.5577e-06
9.38516e-06
1.0199e-05
1.09974e-05
1.17786e-05
1.25404e-05
1.32808e-05
1.39979e-05
1.46896e-05
1.53539e-05
1.59889e-05
1.65927e-05
1.7163e-05
1.7698e-05
1.81957e-05
1.86542e-05
1.90718e-05
1.9447e-05
1.97783e-05
2.00646e-05
2.03048e-05
2.0498e-05
2.06435e-05
2.07409e-05
2.07898e-05
2.07899e-05
2.07413e-05
2.06442e-05
2.0499e-05
2.0306e-05
2.00661e-05
1.97801e-05
1.9449e-05
1.90741e-05
1.86567e-05
1.81985e-05
1.7701e-05
1.71662e-05
1.6596e-05
1.59925e-05
1.53576e-05
1.46934e-05
1.40019e-05
1.32849e-05
1.25445e-05
1.17828e-05
1.10016e-05
1.02032e-05
9.38929e-06
8.56174e-06
7.72184e-06
6.87026e-06
6.00663e-06
5.12914e-06
4.23405e-06
3.31503e-06
2.36228e-06
1.36119e-06
2.45061e-09
9.18742e-12
1.19112e-11
3.17806e-09
1.74456e-06
2.99823e-06
4.17786e-06
5.30651e-06
6.39904e-06
7.46486e-06
8.50959e-06
9.53609e-06
1.05453e-05
1.1537e-05
1.251e-05
1.34627e-05
1.43932e-05
1.52995e-05
1.61798e-05
1.70319e-05
1.78538e-05
1.86434e-05
1.93981e-05
2.01155e-05
2.0793e-05
2.14282e-05
2.20187e-05
2.25625e-05
2.30575e-05
2.35019e-05
2.38942e-05
2.42331e-05
2.45173e-05
2.47458e-05
2.49179e-05
2.5033e-05
2.50908e-05
2.50909e-05
2.50334e-05
2.49185e-05
2.47466e-05
2.45183e-05
2.42343e-05
2.38957e-05
2.35036e-05
2.30594e-05
2.25646e-05
2.20211e-05
2.14307e-05
2.07957e-05
2.01183e-05
1.94011e-05
1.86465e-05
1.78571e-05
1.70353e-05
1.61832e-05
1.5303e-05
1.43967e-05
1.34662e-05
1.25136e-05
1.15406e-05
1.05488e-05
9.53945e-06
8.5128e-06
7.46788e-06
6.40181e-06
5.30897e-06
4.17995e-06
2.99986e-06
1.7456e-06
3.18026e-09
1.19198e-11
1.42433e-11
3.80124e-09
2.06637e-06
3.5241e-06
4.8842e-06
6.17795e-06
7.42494e-06
8.63738e-06
9.82252e-06
1.09842e-05
1.21241e-05
1.32421e-05
1.43375e-05
1.54087e-05
1.64541e-05
1.74718e-05
1.84599e-05
1.94163e-05
2.03387e-05
2.12248e-05
2.20715e-05
2.2876e-05
2.36354e-05
2.43471e-05
2.50085e-05
2.56172e-05
2.61711e-05
2.66684e-05
2.71072e-05
2.74862e-05
2.7804e-05
2.80595e-05
2.82519e-05
2.83806e-05
2.84451e-05
2.84452e-05
2.83809e-05
2.82524e-05
2.80602e-05
2.78048e-05
2.74872e-05
2.71084e-05
2.66697e-05
2.61727e-05
2.56189e-05
2.50103e-05
2.43491e-05
2.36376e-05
2.28783e-05
2.20739e-05
2.12273e-05
2.03414e-05
1.9419e-05
1.84627e-05
1.74747e-05
1.6457e-05
1.54117e-05
1.43405e-05
1.32451e-05
1.2127e-05
1.0987e-05
9.82521e-06
8.63991e-06
7.42727e-06
6.18003e-06
4.88597e-06
3.52549e-06
2.06728e-06
3.8032e-09
1.4251e-11
1.60494e-11
4.28417e-09
2.31193e-06
3.92101e-06
5.41364e-06
6.82794e-06
8.18731e-06
9.50614e-06
1.0793e-05
1.20526e-05
1.32868e-05
1.44962e-05
1.568e-05
1.68369e-05
1.79654e-05
1.90637e-05
2.01298e-05
2.11618e-05
2.21571e-05
2.31129e-05
2.4026e-05
2.48933e-05
2.57118e-05
2.64785e-05
2.71909e-05
2.78465e-05
2.8443e-05
2.89784e-05
2.94508e-05
2.98588e-05
3.02008e-05
3.04758e-05
3.06829e-05
3.08214e-05
3.08908e-05
3.08908e-05
3.08216e-05
3.06833e-05
3.04764e-05
3.02015e-05
2.98596e-05
2.94518e-05
2.89795e-05
2.84443e-05
2.78479e-05
2.71925e-05
2.64802e-05
2.57136e-05
2.48952e-05
2.4028e-05
2.3115e-05
2.21594e-05
2.11641e-05
2.01322e-05
1.90661e-05
1.79679e-05
1.68394e-05
1.56825e-05
1.44987e-05
1.32893e-05
1.2055e-05
1.07953e-05
9.50831e-06
8.18931e-06
6.82973e-06
5.41517e-06
3.92221e-06
2.31272e-06
4.28593e-09
1.60563e-11
1.73274e-11
4.62618e-09
2.48394e-06
4.19701e-06
5.78016e-06
7.27655e-06
8.71232e-06
1.01034e-05
1.14594e-05
1.27854e-05
1.40838e-05
1.53552e-05
1.6599e-05
1.78143e-05
1.89993e-05
2.01525e-05
2.12719e-05
2.23555e-05
2.34004e-05
2.44037e-05
2.5362e-05
2.62721e-05
2.71308e-05
2.79351e-05
2.86823e-05
2.93698e-05
2.99954e-05
3.05568e-05
3.10521e-05
3.14799e-05
3.18385e-05
3.21268e-05
3.23439e-05
3.24891e-05
3.25618e-05
3.25619e-05
3.24893e-05
3.23443e-05
3.21273e-05
3.18391e-05
3.14806e-05
3.1053e-05
3.05578e-05
2.99965e-05
2.93711e-05
2.86837e-05
2.79366e-05
2.71324e-05
2.62738e-05
2.53639e-05
2.44056e-05
2.34024e-05
2.23576e-05
2.12741e-05
2.01547e-05
1.90016e-05
1.78165e-05
1.66013e-05
1.53574e-05
1.4086e-05
1.27875e-05
1.14615e-05
1.01054e-05
8.71413e-06
7.27817e-06
5.78154e-06
4.1981e-06
2.48466e-06
4.62781e-09
1.73339e-11
1.816e-11
4.84915e-09
2.5953e-06
4.37488e-06
6.01574e-06
7.56442e-06
9.04886e-06
1.0486e-05
1.1886e-05
1.32544e-05
1.45937e-05
1.59048e-05
1.71871e-05
1.84397e-05
1.9661e-05
2.08494e-05
2.20031e-05
2.31198e-05
2.41966e-05
2.52304e-05
2.62178e-05
2.71554e-05
2.804e-05
2.88685e-05
2.96381e-05
3.03462e-05
3.09905e-05
3.15687e-05
3.20789e-05
3.25193e-05
3.28887e-05
3.31856e-05
3.34092e-05
3.35587e-05
3.36336e-05
3.36337e-05
3.35589e-05
3.34095e-05
3.31861e-05
3.28893e-05
3.25201e-05
3.20797e-05
3.15697e-05
3.09916e-05
3.03475e-05
2.96395e-05
2.887e-05
2.80416e-05
2.71571e-05
2.62196e-05
2.52323e-05
2.41986e-05
2.31218e-05
2.20052e-05
2.08516e-05
1.96632e-05
1.84419e-05
1.71893e-05
1.5907e-05
1.45959e-05
1.32565e-05
1.1888e-05
1.04879e-05
9.05061e-06
7.56599e-06
6.01708e-06
4.37593e-06
2.59599e-06
4.85074e-09
1.81664e-11
1.86627e-11
4.98388e-09
2.66232e-06
4.48165e-06
6.15698e-06
7.7369e-06
9.25043e-06
1.07152e-05
1.21416e-05
1.35354e-05
1.48993e-05
1.62342e-05
1.75397e-05
1.88148e-05
2.0058e-05
2.12678e-05
2.24422e-05
2.35789e-05
2.46751e-05
2.57275e-05
2.67325e-05
2.76868e-05
2.85871e-05
2.94303e-05
3.02136e-05
3.09342e-05
3.15899e-05
3.21783e-05
3.26975e-05
3.31458e-05
3.35216e-05
3.38238e-05
3.40514e-05
3.42035e-05
3.42797e-05
3.42798e-05
3.42037e-05
3.40517e-05
3.38243e-05
3.35222e-05
3.31465e-05
3.26984e-05
3.21793e-05
3.1591e-05
3.09355e-05
3.0215e-05
2.94318e-05
2.85887e-05
2.76885e-05
2.67344e-05
2.57294e-05
2.46772e-05
2.3581e-05
2.24443e-05
2.127e-05
2.00602e-05
1.8817e-05
1.75419e-05
1.62364e-05
1.49015e-05
1.35375e-05
1.21436e-05
1.07171e-05
9.25219e-06
7.73847e-06
6.15832e-06
4.48271e-06
2.66302e-06
4.98548e-09
1.86691e-11
1.89457e-11
5.05978e-09
2.7e-06
4.54161e-06
6.23626e-06
7.83371e-06
9.3636e-06
1.08439e-05
1.22852e-05
1.36933e-05
1.50712e-05
1.64196e-05
1.77383e-05
1.90262e-05
2.02819e-05
2.15038e-05
2.26901e-05
2.38383e-05
2.49456e-05
2.60085e-05
2.70237e-05
2.79875e-05
2.88968e-05
2.97485e-05
3.05396e-05
3.12675e-05
3.19297e-05
3.25239e-05
3.30483e-05
3.35011e-05
3.38807e-05
3.41859e-05
3.44158e-05
3.45694e-05
3.46464e-05
3.46465e-05
3.45696e-05
3.44161e-05
3.41864e-05
3.38814e-05
3.35019e-05
3.30493e-05
3.2525e-05
3.19308e-05
3.12688e-05
3.0541e-05
2.975e-05
2.88985e-05
2.79893e-05
2.70256e-05
2.60105e-05
2.49477e-05
2.38405e-05
2.26923e-05
2.15061e-05
2.02842e-05
1.90285e-05
1.77406e-05
1.64219e-05
1.50734e-05
1.36955e-05
1.22872e-05
1.08458e-05
9.36541e-06
7.83533e-06
6.23764e-06
4.5427e-06
2.70071e-06
5.06142e-09
1.89522e-11
1.90949e-11
5.09984e-09
2.71987e-06
4.57323e-06
6.27807e-06
7.88479e-06
9.42334e-06
1.09119e-05
1.23611e-05
1.37769e-05
1.51622e-05
1.65179e-05
1.78436e-05
1.91384e-05
2.04008e-05
2.16293e-05
2.28219e-05
2.39763e-05
2.50896e-05
2.61582e-05
2.71788e-05
2.81479e-05
2.90621e-05
2.99183e-05
3.07137e-05
3.14455e-05
3.21112e-05
3.27087e-05
3.32359e-05
3.36911e-05
3.40728e-05
3.43797e-05
3.46107e-05
3.47652e-05
3.48426e-05
3.48427e-05
3.47654e-05
3.46111e-05
3.43802e-05
3.40735e-05
3.36919e-05
3.32369e-05
3.27098e-05
3.21125e-05
3.14468e-05
3.07152e-05
2.99199e-05
2.90638e-05
2.81498e-05
2.71808e-05
2.61603e-05
2.50917e-05
2.39785e-05
2.28242e-05
2.16316e-05
2.04031e-05
1.91407e-05
1.7846e-05
1.65202e-05
1.51645e-05
1.37791e-05
1.23632e-05
1.09139e-05
9.4252e-06
7.88645e-06
6.27949e-06
4.57434e-06
2.72061e-06
5.10152e-09
1.91016e-11
1.9169e-11
5.11974e-09
2.72974e-06
4.58894e-06
6.29885e-06
7.91019e-06
9.45307e-06
1.09457e-05
1.23989e-05
1.38186e-05
1.52076e-05
1.6567e-05
1.78963e-05
1.91945e-05
2.04604e-05
2.16922e-05
2.2888e-05
2.40456e-05
2.51619e-05
2.62335e-05
2.72569e-05
2.82286e-05
2.91453e-05
3.00039e-05
3.08015e-05
3.15352e-05
3.22028e-05
3.2802e-05
3.33306e-05
3.37871e-05
3.41698e-05
3.44775e-05
3.47092e-05
3.48641e-05
3.49417e-05
3.49418e-05
3.48644e-05
3.47096e-05
3.4478e-05
3.41705e-05
3.37879e-05
3.33316e-05
3.28031e-05
3.22041e-05
3.15367e-05
3.0803e-05
3.00056e-05
2.91471e-05
2.82306e-05
2.7259e-05
2.62357e-05
2.51641e-05
2.40479e-05
2.28904e-05
2.16946e-05
2.04628e-05
1.91969e-05
1.78987e-05
1.65694e-05
1.521e-05
1.38209e-05
1.24011e-05
1.09478e-05
9.45497e-06
7.91188e-06
6.30029e-06
4.59007e-06
2.7305e-06
5.12145e-09
1.91758e-11
1.92037e-11
5.12906e-09
2.73437e-06
4.5963e-06
6.30861e-06
7.92212e-06
9.46705e-06
1.09617e-05
1.24167e-05
1.38383e-05
1.52291e-05
1.65902e-05
1.79212e-05
1.92211e-05
2.04886e-05
2.1722e-05
2.29194e-05
2.40785e-05
2.51963e-05
2.62693e-05
2.72941e-05
2.82671e-05
2.9185e-05
3.00447e-05
3.08433e-05
3.15781e-05
3.22465e-05
3.28465e-05
3.33759e-05
3.38329e-05
3.42161e-05
3.45243e-05
3.47563e-05
3.49114e-05
3.49891e-05
3.49892e-05
3.49116e-05
3.47567e-05
3.45248e-05
3.42168e-05
3.38338e-05
3.33769e-05
3.28476e-05
3.22478e-05
3.15795e-05
3.08449e-05
3.00464e-05
2.91868e-05
2.8269e-05
2.72962e-05
2.62715e-05
2.51986e-05
2.40809e-05
2.29218e-05
2.17244e-05
2.0491e-05
1.92236e-05
1.79236e-05
1.65926e-05
1.52315e-05
1.38406e-05
1.2419e-05
1.09637e-05
9.46898e-06
7.92384e-06
6.31007e-06
4.59746e-06
2.73514e-06
5.1308e-09
1.92105e-11
1.9219e-11
5.1332e-09
2.73643e-06
4.59958e-06
6.31294e-06
7.92743e-06
9.47328e-06
1.09688e-05
1.24247e-05
1.3847e-05
1.52387e-05
1.66006e-05
1.79323e-05
1.9233e-05
2.05013e-05
2.17354e-05
2.29336e-05
2.40933e-05
2.52118e-05
2.62855e-05
2.73109e-05
2.82844e-05
2.92029e-05
3.00631e-05
3.08622e-05
3.15974e-05
3.22663e-05
3.28666e-05
3.33963e-05
3.38537e-05
3.42371e-05
3.45454e-05
3.47776e-05
3.49328e-05
3.50106e-05
3.50107e-05
3.4933e-05
3.4778e-05
3.4546e-05
3.42378e-05
3.38545e-05
3.33973e-05
3.28678e-05
3.22676e-05
3.15989e-05
3.08638e-05
3.00649e-05
2.92048e-05
2.82864e-05
2.73129e-05
2.62877e-05
2.52141e-05
2.40957e-05
2.2936e-05
2.17378e-05
2.05037e-05
1.92355e-05
1.79348e-05
1.6603e-05
1.52411e-05
1.38494e-05
1.24269e-05
1.09709e-05
9.47523e-06
7.92917e-06
6.31442e-06
4.60074e-06
2.7372e-06
5.13495e-09
1.9226e-11
1.92255e-11
5.13495e-09
2.7373e-06
4.60096e-06
6.31478e-06
7.92968e-06
9.47592e-06
1.09718e-05
1.24281e-05
1.38508e-05
1.52428e-05
1.6605e-05
1.79371e-05
1.92381e-05
2.05067e-05
2.17411e-05
2.29396e-05
2.40997e-05
2.52184e-05
2.62924e-05
2.7318e-05
2.82919e-05
2.92106e-05
3.0071e-05
3.08703e-05
3.16058e-05
3.22748e-05
3.28753e-05
3.34051e-05
3.38626e-05
3.42461e-05
3.45545e-05
3.47867e-05
3.4942e-05
3.50198e-05
3.50199e-05
3.49422e-05
3.47871e-05
3.45551e-05
3.42469e-05
3.38634e-05
3.34061e-05
3.28764e-05
3.22761e-05
3.16072e-05
3.08719e-05
3.00728e-05
2.92124e-05
2.82939e-05
2.73201e-05
2.62946e-05
2.52207e-05
2.4102e-05
2.2942e-05
2.17436e-05
2.05091e-05
1.92406e-05
1.79396e-05
1.66075e-05
1.52452e-05
1.38531e-05
1.24303e-05
1.09739e-05
9.47787e-06
7.93142e-06
6.31626e-06
4.60213e-06
2.73807e-06
5.1367e-09
1.92325e-11
1.92281e-11
5.13565e-09
2.73765e-06
4.60152e-06
6.31552e-06
7.93059e-06
9.47698e-06
1.0973e-05
1.24294e-05
1.38523e-05
1.52444e-05
1.66068e-05
1.7939e-05
1.92402e-05
2.05089e-05
2.17434e-05
2.2942e-05
2.41023e-05
2.52211e-05
2.62952e-05
2.7321e-05
2.82949e-05
2.92137e-05
3.00743e-05
3.08737e-05
3.16092e-05
3.22783e-05
3.28788e-05
3.34087e-05
3.38662e-05
3.42498e-05
3.45583e-05
3.47905e-05
3.49458e-05
3.50236e-05
3.50237e-05
3.4946e-05
3.47909e-05
3.45588e-05
3.42506e-05
3.38671e-05
3.34097e-05
3.288e-05
3.22796e-05
3.16106e-05
3.08753e-05
3.0076e-05
2.92156e-05
2.82969e-05
2.73231e-05
2.62974e-05
2.52234e-05
2.41046e-05
2.29445e-05
2.17459e-05
2.05114e-05
1.92427e-05
1.79415e-05
1.66093e-05
1.52469e-05
1.38547e-05
1.24317e-05
1.09751e-05
9.47894e-06
7.93233e-06
6.317e-06
4.60269e-06
2.73842e-06
5.1374e-09
1.92351e-11
1.92291e-11
5.13592e-09
2.73778e-06
4.60173e-06
6.3158e-06
7.93094e-06
9.47739e-06
1.09735e-05
1.243e-05
1.38529e-05
1.52451e-05
1.66075e-05
1.79398e-05
1.9241e-05
2.05097e-05
2.17444e-05
2.2943e-05
2.41033e-05
2.52222e-05
2.62963e-05
2.73221e-05
2.82961e-05
2.9215e-05
3.00755e-05
3.0875e-05
3.16105e-05
3.22797e-05
3.28802e-05
3.34101e-05
3.38677e-05
3.42513e-05
3.45597e-05
3.4792e-05
3.49473e-05
3.50251e-05
3.50252e-05
3.49475e-05
3.47924e-05
3.45603e-05
3.4252e-05
3.38685e-05
3.34112e-05
3.28814e-05
3.2281e-05
3.1612e-05
3.08766e-05
3.00773e-05
2.92168e-05
2.82981e-05
2.73242e-05
2.62985e-05
2.52245e-05
2.41056e-05
2.29454e-05
2.17468e-05
2.05122e-05
1.92435e-05
1.79423e-05
1.661e-05
1.52475e-05
1.38552e-05
1.24322e-05
1.09756e-05
9.47936e-06
7.93268e-06
6.31729e-06
4.60291e-06
2.73856e-06
5.13768e-09
1.92361e-11
1.92295e-11
5.13602e-09
2.73783e-06
4.60181e-06
6.31591e-06
7.93107e-06
9.47755e-06
1.09736e-05
1.24302e-05
1.38531e-05
1.52453e-05
1.66077e-05
1.79401e-05
1.92413e-05
2.051e-05
2.17447e-05
2.29434e-05
2.41037e-05
2.52226e-05
2.62967e-05
2.73225e-05
2.82965e-05
2.92154e-05
3.0076e-05
3.08755e-05
3.1611e-05
3.22802e-05
3.28807e-05
3.34107e-05
3.38682e-05
3.42518e-05
3.45603e-05
3.47925e-05
3.49478e-05
3.50256e-05
3.50257e-05
3.49481e-05
3.47929e-05
3.45609e-05
3.42526e-05
3.38691e-05
3.34117e-05
3.28819e-05
3.22815e-05
3.16125e-05
3.08771e-05
3.00778e-05
2.92173e-05
2.82985e-05
2.73246e-05
2.62989e-05
2.52249e-05
2.4106e-05
2.29458e-05
2.17472e-05
2.05125e-05
1.92438e-05
1.79426e-05
1.66102e-05
1.52478e-05
1.38555e-05
1.24324e-05
1.09758e-05
9.47951e-06
7.93282e-06
6.3174e-06
4.60299e-06
2.73861e-06
5.13778e-09
1.92365e-11
1.92296e-11
5.13605e-09
2.73785e-06
4.60184e-06
6.31595e-06
7.93111e-06
9.4776e-06
1.09737e-05
1.24302e-05
1.38532e-05
1.52454e-05
1.66078e-05
1.79402e-05
1.92414e-05
2.05101e-05
2.17448e-05
2.29435e-05
2.41038e-05
2.52227e-05
2.62969e-05
2.73227e-05
2.82967e-05
2.92156e-05
3.00762e-05
3.08756e-05
3.16112e-05
3.22804e-05
3.28809e-05
3.34109e-05
3.38684e-05
3.4252e-05
3.45605e-05
3.47927e-05
3.4948e-05
3.50258e-05
3.50259e-05
3.49483e-05
3.47931e-05
3.45611e-05
3.42528e-05
3.38693e-05
3.34119e-05
3.28821e-05
3.22817e-05
3.16127e-05
3.08772e-05
3.00779e-05
2.92175e-05
2.82987e-05
2.73248e-05
2.62991e-05
2.5225e-05
2.41062e-05
2.29459e-05
2.17473e-05
2.05127e-05
1.92439e-05
1.79427e-05
1.66103e-05
1.52478e-05
1.38555e-05
1.24325e-05
1.09758e-05
9.47956e-06
7.93286e-06
6.31743e-06
4.60301e-06
2.73862e-06
5.13781e-09
1.92366e-11
1.92297e-11
5.13606e-09
2.73785e-06
4.60185e-06
6.31596e-06
7.93113e-06
9.47762e-06
1.09737e-05
1.24302e-05
1.38532e-05
1.52454e-05
1.66079e-05
1.79402e-05
1.92414e-05
2.05102e-05
2.17449e-05
2.29435e-05
2.41038e-05
2.52228e-05
2.62969e-05
2.73228e-05
2.82968e-05
2.92156e-05
3.00763e-05
3.08757e-05
3.16112e-05
3.22804e-05
3.2881e-05
3.34109e-05
3.38685e-05
3.42521e-05
3.45606e-05
3.47928e-05
3.49481e-05
3.50259e-05
3.5026e-05
3.49483e-05
3.47932e-05
3.45611e-05
3.42528e-05
3.38693e-05
3.3412e-05
3.28822e-05
3.22818e-05
3.16127e-05
3.08773e-05
3.0078e-05
2.92175e-05
2.82988e-05
2.73249e-05
2.62991e-05
2.52251e-05
2.41062e-05
2.2946e-05
2.17473e-05
2.05127e-05
1.92439e-05
1.79427e-05
1.66104e-05
1.52479e-05
1.38556e-05
1.24325e-05
1.09759e-05
9.47958e-06
7.93288e-06
6.31745e-06
4.60302e-06
2.73863e-06
5.13782e-09
1.92366e-11
1.92297e-11
5.13607e-09
2.73786e-06
4.60185e-06
6.31596e-06
7.93113e-06
9.47763e-06
1.09737e-05
1.24303e-05
1.38532e-05
1.52454e-05
1.66079e-05
1.79402e-05
1.92414e-05
2.05102e-05
2.17449e-05
2.29435e-05
2.41039e-05
2.52228e-05
2.6297e-05
2.73228e-05
2.82968e-05
2.92157e-05
3.00763e-05
3.08757e-05
3.16113e-05
3.22804e-05
3.2881e-05
3.34109e-05
3.38685e-05
3.42521e-05
3.45606e-05
3.47928e-05
3.49481e-05
3.50259e-05
3.5026e-05
3.49484e-05
3.47932e-05
3.45611e-05
3.42528e-05
3.38694e-05
3.3412e-05
3.28822e-05
3.22818e-05
3.16127e-05
3.08773e-05
3.0078e-05
2.92175e-05
2.82988e-05
2.73249e-05
2.62992e-05
2.52251e-05
2.41062e-05
2.2946e-05
2.17473e-05
2.05127e-05
1.9244e-05
1.79427e-05
1.66104e-05
1.52479e-05
1.38556e-05
1.24325e-05
1.09759e-05
9.47959e-06
7.93288e-06
6.31745e-06
4.60303e-06
2.73863e-06
5.13783e-09
1.92367e-11
1.92297e-11
5.13607e-09
2.73786e-06
4.60185e-06
6.31596e-06
7.93113e-06
9.47763e-06
1.09737e-05
1.24303e-05
1.38532e-05
1.52454e-05
1.66079e-05
1.79402e-05
1.92414e-05
2.05102e-05
2.17449e-05
2.29436e-05
2.41039e-05
2.52228e-05
2.6297e-05
2.73228e-05
2.82968e-05
2.92157e-05
3.00763e-05
3.08757e-05
3.16113e-05
3.22804e-05
3.2881e-05
3.3411e-05
3.38685e-05
3.42521e-05
3.45606e-05
3.47928e-05
3.49481e-05
3.50259e-05
3.5026e-05
3.49484e-05
3.47932e-05
3.45612e-05
3.42529e-05
3.38694e-05
3.3412e-05
3.28822e-05
3.22818e-05
3.16127e-05
3.08773e-05
3.0078e-05
2.92175e-05
2.82988e-05
2.73249e-05
2.62992e-05
2.52251e-05
2.41062e-05
2.2946e-05
2.17474e-05
2.05127e-05
1.9244e-05
1.79427e-05
1.66104e-05
1.52479e-05
1.38556e-05
1.24325e-05
1.09759e-05
9.47959e-06
7.93288e-06
6.31745e-06
4.60303e-06
2.73863e-06
5.13783e-09
1.92367e-11
1.92297e-11
5.13607e-09
2.73786e-06
4.60185e-06
6.31596e-06
7.93114e-06
9.47763e-06
1.09737e-05
1.24303e-05
1.38532e-05
1.52454e-05
1.66079e-05
1.79402e-05
1.92414e-05
2.05102e-05
2.17449e-05
2.29436e-05
2.41039e-05
2.52228e-05
2.6297e-05
2.73228e-05
2.82968e-05
2.92157e-05
3.00763e-05
3.08757e-05
3.16113e-05
3.22804e-05
3.2881e-05
3.3411e-05
3.38685e-05
3.42521e-05
3.45606e-05
3.47928e-05
3.49481e-05
3.5026e-05
3.5026e-05
3.49484e-05
3.47933e-05
3.45612e-05
3.42529e-05
3.38694e-05
3.3412e-05
3.28822e-05
3.22818e-05
3.16127e-05
3.08773e-05
3.0078e-05
2.92175e-05
2.82988e-05
2.73249e-05
2.62992e-05
2.52251e-05
2.41062e-05
2.2946e-05
2.17474e-05
2.05127e-05
1.9244e-05
1.79427e-05
1.66104e-05
1.52479e-05
1.38556e-05
1.24325e-05
1.09759e-05
9.47959e-06
7.93288e-06
6.31745e-06
4.60303e-06
2.73863e-06
5.13783e-09
1.92367e-11
1.92297e-11
5.13607e-09
2.73786e-06
4.60186e-06
6.31596e-06
7.93114e-06
9.47763e-06
1.09737e-05
1.24303e-05
1.38532e-05
1.52454e-05
1.66079e-05
1.79402e-05
1.92414e-05
2.05102e-05
2.17449e-05
2.29436e-05
2.41039e-05
2.52228e-05
2.6297e-05
2.73228e-05
2.82968e-05
2.92157e-05
3.00763e-05
3.08757e-05
3.16113e-05
3.22805e-05
3.2881e-05
3.3411e-05
3.38685e-05
3.42521e-05
3.45606e-05
3.47928e-05
3.49481e-05
3.5026e-05
3.5026e-05
3.49484e-05
3.47933e-05
3.45612e-05
3.42529e-05
3.38694e-05
3.3412e-05
3.28822e-05
3.22818e-05
3.16127e-05
3.08773e-05
3.0078e-05
2.92175e-05
2.82988e-05
2.73249e-05
2.62992e-05
2.52251e-05
2.41062e-05
2.2946e-05
2.17474e-05
2.05127e-05
1.9244e-05
1.79427e-05
1.66104e-05
1.52479e-05
1.38556e-05
1.24325e-05
1.09759e-05
9.47959e-06
7.93288e-06
6.31745e-06
4.60303e-06
2.73863e-06
5.13783e-09
1.92367e-11
1.92297e-11
5.13607e-09
2.73786e-06
4.60186e-06
6.31596e-06
7.93114e-06
9.47763e-06
1.09737e-05
1.24303e-05
1.38532e-05
1.52454e-05
1.66079e-05
1.79402e-05
1.92414e-05
2.05102e-05
2.17449e-05
2.29436e-05
2.41039e-05
2.52228e-05
2.6297e-05
2.73228e-05
2.82968e-05
2.92157e-05
3.00763e-05
3.08757e-05
3.16113e-05
3.22805e-05
3.2881e-05
3.3411e-05
3.38685e-05
3.42521e-05
3.45606e-05
3.47928e-05
3.49481e-05
3.5026e-05
3.5026e-05
3.49484e-05
3.47933e-05
3.45612e-05
3.42529e-05
3.38694e-05
3.3412e-05
3.28822e-05
3.22818e-05
3.16127e-05
3.08773e-05
3.0078e-05
2.92175e-05
2.82988e-05
2.73249e-05
2.62992e-05
2.52251e-05
2.41062e-05
2.2946e-05
2.17474e-05
2.05127e-05
1.9244e-05
1.79427e-05
1.66104e-05
1.52479e-05
1.38556e-05
1.24325e-05
1.09759e-05
9.47959e-06
7.93289e-06
6.31745e-06
4.60303e-06
2.73863e-06
5.13783e-09
1.92367e-11
1.92297e-11
5.13607e-09
2.73786e-06
4.60186e-06
6.31596e-06
7.93114e-06
9.47763e-06
1.09737e-05
1.24303e-05
1.38532e-05
1.52454e-05
1.66079e-05
1.79402e-05
1.92414e-05
2.05102e-05
2.17449e-05
2.29436e-05
2.41039e-05
2.52228e-05
2.6297e-05
2.73228e-05
2.82968e-05
2.92157e-05
3.00763e-05
3.08757e-05
3.16113e-05
3.22805e-05
3.2881e-05
3.3411e-05
3.38685e-05
3.42521e-05
3.45606e-05
3.47928e-05
3.49481e-05
3.5026e-05
3.5026e-05
3.49484e-05
3.47933e-05
3.45612e-05
3.42529e-05
3.38694e-05
3.3412e-05
3.28822e-05
3.22818e-05
3.16127e-05
3.08773e-05
3.0078e-05
2.92175e-05
2.82988e-05
2.73249e-05
2.62992e-05
2.52251e-05
2.41062e-05
2.2946e-05
2.17474e-05
2.05127e-05
1.9244e-05
1.79427e-05
1.66104e-05
1.52479e-05
1.38556e-05
1.24325e-05
1.09759e-05
9.47959e-06
7.93289e-06
6.31745e-06
4.60303e-06
2.73863e-06
5.13783e-09
1.92367e-11
1.92297e-11
5.13607e-09
2.73786e-06
4.60186e-06
6.31596e-06
7.93114e-06
9.47763e-06
1.09737e-05
1.24303e-05
1.38532e-05
1.52454e-05
1.66079e-05
1.79402e-05
1.92414e-05
2.05102e-05
2.17449e-05
2.29436e-05
2.41039e-05
2.52228e-05
2.6297e-05
2.73228e-05
2.82968e-05
2.92157e-05
3.00763e-05
3.08757e-05
3.16113e-05
3.22805e-05
3.2881e-05
3.3411e-05
3.38685e-05
3.42521e-05
3.45606e-05
3.47928e-05
3.49481e-05
3.5026e-05
3.5026e-05
3.49484e-05
3.47933e-05
3.45612e-05
3.42529e-05
3.38694e-05
3.3412e-05
3.28822e-05
3.22818e-05
3.16127e-05
3.08773e-05
3.0078e-05
2.92175e-05
2.82988e-05
2.73249e-05
2.62992e-05
2.52251e-05
2.41062e-05
2.2946e-05
2.17474e-05
2.05127e-05
1.9244e-05
1.79427e-05
1.66104e-05
1.52479e-05
1.38556e-05
1.24325e-05
1.09759e-05
9.47959e-06
7.93289e-06
6.31745e-06
4.60303e-06
2.73863e-06
5.13783e-09
1.92367e-11
1.92297e-11
5.13607e-09
2.73786e-06
4.60186e-06
6.31596e-06
7.93114e-06
9.47763e-06
1.09737e-05
1.24303e-05
1.38532e-05
1.52454e-05
1.66079e-05
1.79402e-05
1.92414e-05
2.05102e-05
2.17449e-05
2.29436e-05
2.41039e-05
2.52228e-05
2.6297e-05
2.73228e-05
2.82968e-05
2.92157e-05
3.00763e-05
3.08757e-05
3.16113e-05
3.22805e-05
3.2881e-05
3.3411e-05
3.38685e-05
3.42521e-05
3.45606e-05
3.47928e-05
3.49481e-05
3.5026e-05
3.5026e-05
3.49484e-05
3.47933e-05
3.45612e-05
3.42529e-05
3.38694e-05
3.3412e-05
3.28822e-05
3.22818e-05
3.16127e-05
3.08773e-05
3.0078e-05
2.92175e-05
2.82988e-05
2.73249e-05
2.62992e-05
2.52251e-05
2.41062e-05
2.2946e-05
2.17474e-05
2.05127e-05
1.9244e-05
1.79427e-05
1.66104e-05
1.52479e-05
1.38556e-05
1.24325e-05
1.09759e-05
9.47959e-06
7.93289e-06
6.31745e-06
4.60303e-06
2.73863e-06
5.13783e-09
1.92367e-11
1.92297e-11
5.13607e-09
2.73786e-06
4.60186e-06
6.31596e-06
7.93114e-06
9.47763e-06
1.09737e-05
1.24303e-05
1.38532e-05
1.52454e-05
1.66079e-05
1.79402e-05
1.92414e-05
2.05102e-05
2.17449e-05
2.29436e-05
2.41039e-05
2.52228e-05
2.6297e-05
2.73228e-05
2.82968e-05
2.92157e-05
3.00763e-05
3.08757e-05
3.16113e-05
3.22805e-05
3.2881e-05
3.3411e-05
3.38685e-05
3.42521e-05
3.45606e-05
3.47928e-05
3.49481e-05
3.5026e-05
3.5026e-05
3.49484e-05
3.47933e-05
3.45612e-05
3.42529e-05
3.38694e-05
3.3412e-05
3.28822e-05
3.22818e-05
3.16127e-05
3.08773e-05
3.0078e-05
2.92175e-05
2.82988e-05
2.73249e-05
2.62992e-05
2.52251e-05
2.41062e-05
2.2946e-05
2.17474e-05
2.05127e-05
1.9244e-05
1.79427e-05
1.66104e-05
1.52479e-05
1.38556e-05
1.24325e-05
1.09759e-05
9.47959e-06
7.93289e-06
6.31745e-06
4.60303e-06
2.73863e-06
5.13783e-09
1.92367e-11
1.92297e-11
5.13607e-09
2.73786e-06
4.60186e-06
6.31596e-06
7.93114e-06
9.47763e-06
1.09737e-05
1.24303e-05
1.38532e-05
1.52454e-05
1.66079e-05
1.79402e-05
1.92414e-05
2.05102e-05
2.17449e-05
2.29436e-05
2.41039e-05
2.52228e-05
2.6297e-05
2.73228e-05
2.82968e-05
2.92157e-05
3.00763e-05
3.08757e-05
3.16113e-05
3.22805e-05
3.2881e-05
3.3411e-05
3.38685e-05
3.42521e-05
3.45606e-05
3.47928e-05
3.49481e-05
3.5026e-05
3.5026e-05
3.49484e-05
3.47933e-05
3.45612e-05
3.42529e-05
3.38694e-05
3.3412e-05
3.28822e-05
3.22818e-05
3.16127e-05
3.08773e-05
3.0078e-05
2.92175e-05
2.82988e-05
2.73249e-05
2.62992e-05
2.52251e-05
2.41062e-05
2.2946e-05
2.17474e-05
2.05127e-05
1.9244e-05
1.79427e-05
1.66104e-05
1.52479e-05
1.38556e-05
1.24325e-05
1.09759e-05
9.47959e-06
7.93289e-06
6.31745e-06
4.60303e-06
2.73863e-06
5.13783e-09
1.92367e-11
1.92297e-11
5.13607e-09
2.73786e-06
4.60186e-06
6.31596e-06
7.93114e-06
9.47763e-06
1.09737e-05
1.24303e-05
1.38532e-05
1.52454e-05
1.66079e-05
1.79402e-05
1.92414e-05
2.05102e-05
2.17449e-05
2.29436e-05
2.41039e-05
2.52228e-05
2.6297e-05
2.73228e-05
2.82968e-05
2.92157e-05
3.00763e-05
3.08757e-05
3.16113e-05
3.22805e-05
3.2881e-05
3.3411e-05
3.38685e-05
3.42521e-05
3.45606e-05
3.47928e-05
3.49481e-05
3.5026e-05
3.5026e-05
3.49484e-05
3.47933e-05
3.45612e-05
3.42529e-05
3.38694e-05
3.3412e-05
3.28822e-05
3.22818e-05
3.16127e-05
3.08773e-05
3.0078e-05
2.92175e-05
2.82988e-05
2.73249e-05
2.62992e-05
2.52251e-05
2.41062e-05
2.2946e-05
2.17474e-05
2.05127e-05
1.9244e-05
1.79427e-05
1.66104e-05
1.52479e-05
1.38556e-05
1.24325e-05
1.09759e-05
9.47959e-06
7.93289e-06
6.31745e-06
4.60303e-06
2.73863e-06
5.13783e-09
1.92367e-11
1.92297e-11
5.13607e-09
2.73786e-06
4.60186e-06
6.31596e-06
7.93114e-06
9.47763e-06
1.09737e-05
1.24303e-05
1.38532e-05
1.52454e-05
1.66079e-05
1.79402e-05
1.92414e-05
2.05102e-05
2.17449e-05
2.29436e-05
2.41039e-05
2.52228e-05
2.6297e-05
2.73228e-05
2.82968e-05
2.92157e-05
3.00763e-05
3.08757e-05
3.16113e-05
3.22805e-05
3.2881e-05
3.3411e-05
3.38685e-05
3.42521e-05
3.45606e-05
3.47928e-05
3.49481e-05
3.5026e-05
3.5026e-05
3.49484e-05
3.47933e-05
3.45612e-05
3.42529e-05
3.38694e-05
3.3412e-05
3.28822e-05
3.22818e-05
3.16127e-05
3.08773e-05
3.0078e-05
2.92175e-05
2.82988e-05
2.73249e-05
2.62992e-05
2.52251e-05
2.41062e-05
2.2946e-05
2.17474e-05
2.05127e-05
1.9244e-05
1.79427e-05
1.66104e-05
1.52479e-05
1.38556e-05
1.24325e-05
1.09759e-05
9.47959e-06
7.93289e-06
6.31745e-06
4.60303e-06
2.73863e-06
5.13783e-09
1.92367e-11
1.92297e-11
5.13607e-09
2.73786e-06
4.60186e-06
6.31596e-06
7.93114e-06
9.47763e-06
1.09737e-05
1.24303e-05
1.38532e-05
1.52454e-05
1.66079e-05
1.79402e-05
1.92414e-05
2.05102e-05
2.17449e-05
2.29436e-05
2.41039e-05
2.52228e-05
2.6297e-05
2.73228e-05
2.82968e-05
2.92157e-05
3.00763e-05
3.08757e-05
3.16113e-05
3.22805e-05
3.2881e-05
3.3411e-05
3.38685e-05
3.42521e-05
3.45606e-05
3.47928e-05
3.49481e-05
3.5026e-05
3.5026e-05
3.49484e-05
3.47933e-05
3.45612e-05
3.42529e-05
3.38694e-05
3.3412e-05
3.28822e-05
3.22818e-05
3.16127e-05
3.08773e-05
3.0078e-05
2.92175e-05
2.82988e-05
2.73249e-05
2.62992e-05
2.52251e-05
2.41062e-05
2.2946e-05
2.17474e-05
2.05127e-05
1.9244e-05
1.79427e-05
1.66104e-05
1.52479e-05
1.38556e-05
1.24325e-05
1.09759e-05
9.47959e-06
7.93289e-06
6.31745e-06
4.60303e-06
2.73863e-06
5.13783e-09
1.92367e-11
1.92297e-11
5.13607e-09
2.73786e-06
4.60186e-06
6.31596e-06
7.93114e-06
9.47763e-06
1.09737e-05
1.24303e-05
1.38532e-05
1.52454e-05
1.66079e-05
1.79402e-05
1.92414e-05
2.05102e-05
2.17449e-05
2.29436e-05
2.41039e-05