/*--------------------------------*- C++ -*----------------------------------*\
  =========                 |
  \\      /  F ield         | OpenFOAM: The Open Source CFD Toolbox
   \\    /   O peration     | Website:  https://openfoam.org
    \\  /    A nd           | Version:  13
     \\/     M anipulation  |
\*---------------------------------------------------------------------------*/
FoamFile
{
    format      ascii;
    class       volScalarField;
    location    "7";
    object      nut;
}
// * * * * * * * * * * * * * * * * * * * * * * * * * * * * * * * * * * * * * //

dimensions      [0 2 -1 0 0 0 0];

internalField   nonuniform List<scalar> 
78750
(
1.30887e-09
2.01565e-07
2.04521e-06
3.02053e-06
3.92716e-06
4.79458e-06
5.25602e-06
5.65466e-06
6.15946e-06
6.94649e-06
8.34026e-06
7.84585e-06
7.42182e-06
6.73686e-06
6.61198e-06
6.83645e-06
6.52305e-06
6.14679e-06
5.75509e-06
5.37701e-06
5.02714e-06
4.70654e-06
4.41789e-06
4.15756e-06
3.93694e-06
3.7426e-06
3.59061e-06
3.43585e-06
3.32669e-06
3.29644e-06
2.89031e-06
2.30524e-06
2.04111e-06
4.56062e-07
3.19949e-09
7.42502e-10
1.89735e-07
4.54017e-06
8.79884e-06
7.81481e-06
7.86182e-06
9.01333e-06
9.76694e-06
8.96999e-06
9.82078e-06
1.83868e-05
5.57179e-05
5.00722e-05
3.54357e-05
3.13348e-05
2.71506e-05
2.44221e-05
2.25462e-05
2.23094e-05
2.2696e-05
2.3631e-05
2.50628e-05
2.70366e-05
3.10471e-05
4.03696e-05
5.13962e-05
4.4144e-05
2.53555e-05
1.56304e-05
9.83917e-06
6.85188e-06
5.39088e-06
4.5721e-06
6.75442e-07
3.83425e-09
1.4733e-09
3.77005e-07
9.83536e-06
1.09164e-05
8.75121e-06
7.65409e-06
7.14173e-06
7.17596e-06
8.32738e-06
1.34237e-05
2.65835e-05
5.00557e-05
5.23313e-05
4.88997e-05
4.63743e-05
4.44269e-05
4.35058e-05
4.33572e-05
4.38377e-05
4.4945e-05
4.70722e-05
5.08076e-05
5.43426e-05
5.38852e-05
5.37395e-05
4.96111e-05
2.84668e-05
1.57517e-05
9.6912e-06
6.65334e-06
4.99974e-06
3.95469e-06
3.64571e-06
7.00597e-07
3.4548e-09
1.55051e-09
3.97998e-07
9.95683e-06
1.026e-05
7.68191e-06
6.80356e-06
6.94733e-06
7.3812e-06
8.10244e-06
1.00251e-05
1.67892e-05
3.33498e-05
5.49871e-05
5.36235e-05
5.25354e-05
5.16669e-05
5.09636e-05
5.03869e-05
4.98995e-05
4.94803e-05
4.91382e-05
4.89348e-05
4.89896e-05
4.95302e-05
4.79201e-05
3.08297e-05
1.95813e-05
1.14389e-05
7.4967e-06
5.15911e-06
3.84131e-06
3.36929e-06
3.62046e-06
6.63423e-07
3.14822e-09
1.67148e-09
4.27476e-07
1.05457e-05
9.33357e-06
7.37647e-06
6.78752e-06
6.82725e-06
7.57056e-06
9.0444e-06
1.1753e-05
1.82667e-05
3.35125e-05
5.451e-05
5.33857e-05
5.21911e-05
5.11178e-05
5.02078e-05
4.94491e-05
4.88376e-05
4.83795e-05
4.81167e-05
4.81321e-05
4.85645e-05
4.96967e-05
3.95114e-05
2.28582e-05
1.81468e-05
1.09757e-05
6.64086e-06
4.95151e-06
3.8654e-06
3.21573e-06
3.20067e-06
6.59959e-07
3.10807e-09
1.71742e-09
4.39729e-07
1.05351e-05
9.44705e-06
7.56202e-06
6.92901e-06
6.99038e-06
7.61433e-06
8.73774e-06
1.10532e-05
1.65565e-05
2.98918e-05
5.32313e-05
5.25571e-05
5.10712e-05
4.97235e-05
4.86019e-05
4.77189e-05
4.70712e-05
4.66832e-05
4.66252e-05
4.69288e-05
4.7799e-05
4.93326e-05
4.12937e-05
2.20309e-05
1.55838e-05
9.69483e-06
6.01348e-06
4.3104e-06
3.25782e-06
2.84057e-06
3.18918e-06
5.99982e-07
2.67712e-09
1.78749e-09
4.57502e-07
1.06653e-05
9.28588e-06
7.41743e-06
6.89157e-06
7.03294e-06
7.57717e-06
8.72883e-06
1.12559e-05
1.69897e-05
3.06256e-05
5.34219e-05
5.22441e-05
5.06434e-05
4.92478e-05
4.8107e-05
4.72381e-05
4.66521e-05
4.63843e-05
4.64703e-05
4.70237e-05
4.81339e-05
4.98194e-05
3.85377e-05
1.96094e-05
1.29615e-05
8.47506e-06
5.15823e-06
3.70178e-06
3.07647e-06
2.94591e-06
3.61797e-06
5.84564e-07
2.61439e-09
1.8263e-09
4.65341e-07
1.06024e-05
8.97536e-06
7.50114e-06
7.0246e-06
7.16635e-06
7.75244e-06
8.88607e-06
1.11763e-05
1.63684e-05
2.87204e-05
5.00913e-05
5.2172e-05
5.05251e-05
4.90968e-05
4.7943e-05
4.70922e-05
4.65666e-05
4.6405e-05
4.66381e-05
4.74055e-05
4.87492e-05
5.06208e-05
3.25986e-05
1.66379e-05
1.18802e-05
7.73063e-06
5.00157e-06
3.76602e-06
3.13377e-06
2.9191e-06
3.36414e-06
5.88258e-07
2.69193e-09
1.84908e-09
4.70997e-07
1.05959e-05
8.94227e-06
7.4853e-06
7.0484e-06
7.2367e-06
7.88326e-06
9.11041e-06
1.14894e-05
1.65542e-05
2.85314e-05
4.96124e-05
5.22891e-05
5.05419e-05
4.90562e-05
4.78809e-05
4.70433e-05
4.65603e-05
4.64624e-05
4.67734e-05
4.76413e-05
4.90912e-05
5.08944e-05
3.27785e-05
1.63096e-05
1.09668e-05
7.50542e-06
4.90782e-06
3.52648e-06
2.86895e-06
2.72078e-06
3.50845e-06
6.03561e-07
2.70686e-09
1.87826e-09
4.76961e-07
1.05386e-05
8.8116e-06
7.47293e-06
7.11047e-06
7.32088e-06
7.95127e-06
9.17986e-06
1.14394e-05
1.62689e-05
2.77121e-05
4.83815e-05
5.21233e-05
5.03765e-05
4.89018e-05
4.77711e-05
4.69905e-05
4.65779e-05
4.65724e-05
4.69899e-05
4.79824e-05
4.95514e-05
5.16567e-05
3.58832e-05
1.70148e-05
1.02166e-05
7.24544e-06
4.59879e-06
3.18426e-06
2.79514e-06
2.88881e-06
3.79734e-06
6.28109e-07
2.7251e-09
1.89172e-09
4.80277e-07
1.05563e-05
8.75929e-06
7.45388e-06
7.12562e-06
7.4143e-06
8.13488e-06
9.45515e-06
1.18341e-05
1.62292e-05
2.62427e-05
4.62517e-05
5.20498e-05
5.03322e-05
4.88754e-05
4.77677e-05
4.70347e-05
4.66957e-05
4.67739e-05
4.73323e-05
4.8407e-05
5.00061e-05
5.20714e-05
3.96446e-05
1.77666e-05
8.8031e-06
6.15699e-06
4.1998e-06
3.07803e-06
2.76888e-06
2.90587e-06
3.94271e-06
6.31162e-07
2.74262e-09
1.90691e-09
4.83477e-07
1.04884e-05
8.65065e-06
7.45326e-06
7.24341e-06
7.62312e-06
8.23799e-06
9.28285e-06
1.14404e-05
1.5886e-05
2.6155e-05
4.55537e-05
5.21941e-05
5.03814e-05
4.89061e-05
4.7825e-05
4.71538e-05
4.69038e-05
4.70897e-05
4.77764e-05
4.89681e-05
5.06229e-05
5.25762e-05
3.87761e-05
1.60258e-05
8.15401e-06
5.49356e-06
3.82981e-06
2.9994e-06
2.82394e-06
3.02953e-06
4.63924e-06
6.77693e-07
2.94326e-09
1.91529e-09
4.85917e-07
1.0441e-05
8.6891e-06
7.58448e-06
7.22154e-06
7.41767e-06
8.05596e-06
9.2532e-06
1.1587e-05
1.68872e-05
2.65254e-05
4.51147e-05
5.2067e-05
5.02973e-05
4.88806e-05
4.78638e-05
4.72677e-05
4.71072e-05
4.73953e-05
4.81953e-05
4.94979e-05
5.12676e-05
5.34213e-05
3.50769e-05
1.51436e-05
7.68705e-06
4.985e-06
3.63086e-06
3.08129e-06
3.0628e-06
3.29296e-06
4.76943e-06
7.00911e-07
3.04114e-09
1.92293e-09
4.87783e-07
1.04171e-05
8.75268e-06
7.40484e-06
7.07328e-06
7.29399e-06
7.97376e-06
9.39849e-06
1.18715e-05
1.6684e-05
2.52238e-05
4.30919e-05
5.20233e-05
5.03122e-05
4.89202e-05
4.79267e-05
4.73565e-05
4.72293e-05
4.75571e-05
4.83915e-05
4.96933e-05
5.13534e-05
5.30797e-05
3.28229e-05
1.35243e-05
7.30348e-06
4.92197e-06
3.63189e-06
3.09088e-06
2.90539e-06
3.37942e-06
5.57508e-06
7.27185e-07
3.15146e-09
1.95115e-09
4.93991e-07
1.04322e-05
8.56656e-06
7.28899e-06
7.14087e-06
7.40983e-06
8.04771e-06
9.4039e-06
1.16533e-05
1.58795e-05
2.53156e-05
4.28297e-05
5.2073e-05
5.03418e-05
4.89524e-05
4.79778e-05
4.74382e-05
4.73483e-05
4.77152e-05
4.85809e-05
4.99116e-05
5.16204e-05
5.34752e-05
3.30678e-05
1.33865e-05
6.89403e-06
4.52419e-06
3.44106e-06
3.04158e-06
3.21958e-06
3.80229e-06
5.52772e-06
7.48634e-07
3.24846e-09
1.96429e-09
4.96936e-07
1.04212e-05
8.61754e-06
7.53543e-06
7.07375e-06
7.18281e-06
8.01346e-06
9.34032e-06
1.17471e-05
1.63047e-05
2.48151e-05
4.18449e-05
5.19239e-05
5.02798e-05
4.89445e-05
4.80164e-05
4.75248e-05
4.74862e-05
4.79081e-05
4.88179e-05
5.01698e-05
5.18597e-05
5.36456e-05
3.16097e-05
1.27647e-05
6.47729e-06
4.3372e-06
3.49364e-06
3.22261e-06
3.32474e-06
3.83137e-06
5.57202e-06
7.51936e-07
3.26717e-09
1.98433e-09
5.01779e-07
1.04497e-05
8.89175e-06
7.38984e-06
6.90349e-06
7.20366e-06
8.00718e-06
9.42679e-06
1.18351e-05
1.66505e-05
2.53558e-05
4.20613e-05
5.20898e-05
5.03576e-05
4.90024e-05
4.80745e-05
4.75928e-05
4.75709e-05
4.80154e-05
4.89474e-05
5.03167e-05
5.20112e-05
5.33038e-05
3.09655e-05
1.23436e-05
6.34545e-06
4.30797e-06
3.46103e-06
3.22371e-06
3.2778e-06
3.77593e-06
6.08655e-06
7.82845e-07
3.39435e-09
1.98941e-09
5.03424e-07
1.03895e-05
8.58383e-06
7.31906e-06
7.04294e-06
7.19901e-06
7.95027e-06
9.29148e-06
1.14208e-05
1.62004e-05
2.48553e-05
4.15861e-05
5.21199e-05
5.04103e-05
4.90503e-05
4.81248e-05
4.76559e-05
4.76527e-05
4.81205e-05
4.90719e-05
5.04612e-05
5.21713e-05
5.30564e-05
2.99467e-05
1.20057e-05
6.02812e-06
4.10488e-06
3.51743e-06
3.4131e-06
3.48065e-06
3.9466e-06
5.99773e-06
7.96833e-07
3.46218e-09
1.99469e-09
5.04987e-07
1.04209e-05
8.39449e-06
7.36751e-06
7.10576e-06
7.34318e-06
7.94822e-06
9.35899e-06
1.15958e-05
1.54715e-05
2.45246e-05
4.14426e-05
5.20963e-05
5.04386e-05
4.91044e-05
4.81912e-05
4.77302e-05
4.77319e-05
4.81992e-05
4.91368e-05
5.04912e-05
5.21543e-05
5.26413e-05
2.97617e-05
1.16765e-05
6.03802e-06
4.187e-06
3.51149e-06
3.34199e-06
3.49051e-06
3.93411e-06
5.83729e-06
8.05284e-07
3.5001e-09
1.99745e-09
5.05793e-07
1.04531e-05
8.87514e-06
7.54458e-06
6.88444e-06
7.12543e-06
8.01004e-06
9.26798e-06
1.18772e-05
1.62153e-05
2.48539e-05
4.16697e-05
5.21497e-05
5.04611e-05
4.91198e-05
4.82148e-05
4.77747e-05
4.78053e-05
4.83067e-05
4.92627e-05
5.0603e-05
5.21603e-05
5.21088e-05
2.84536e-05
1.12205e-05
5.86968e-06
4.18393e-06
3.6033e-06
3.48485e-06
3.47335e-06
3.998e-06
6.59351e-06
8.36303e-07
3.64561e-09
2.0021e-09
5.08022e-07
1.04649e-05
8.51472e-06
7.35336e-06
7.11555e-06
7.34564e-06
8.06842e-06
9.51064e-06
1.2522e-05
1.69352e-05
2.53298e-05
4.15603e-05
5.21571e-05
5.04556e-05
4.91231e-05
4.82344e-05
4.78096e-05
4.78577e-05
4.83821e-05
4.93675e-05
5.07403e-05
5.23234e-05
4.99715e-05
2.69992e-05
1.10482e-05
5.85735e-06
4.253e-06
3.6972e-06
3.44589e-06
3.58272e-06
4.19424e-06
6.32331e-06
8.6153e-07
3.7198e-09
2.00742e-09
5.08439e-07
1.05257e-05
8.83365e-06
7.44323e-06
7.00103e-06
7.18787e-06
7.98393e-06
9.47167e-06
1.16711e-05
1.62579e-05
2.51622e-05
4.08365e-05
5.21776e-05
5.04601e-05
4.91362e-05
4.82541e-05
4.78274e-05
4.78673e-05
4.83822e-05
4.93601e-05
5.07311e-05
5.23315e-05
5.06358e-05
2.81221e-05
1.12677e-05
6.01458e-06
4.29296e-06
3.61136e-06
3.51557e-06
3.5943e-06
4.0461e-06
6.18926e-06
8.62767e-07
3.72094e-09
2.00422e-09
5.08422e-07
1.05333e-05
8.75149e-06
7.43667e-06
7.19648e-06
7.44493e-06
7.9451e-06
9.03073e-06
1.13708e-05
1.5838e-05
2.48637e-05
4.14369e-05
5.2046e-05
5.04118e-05
4.91279e-05
4.82713e-05
4.78648e-05
4.79187e-05
4.84386e-05
4.94157e-05
5.0786e-05
5.23961e-05
5.1459e-05
2.80289e-05
1.12003e-05
5.93756e-06
4.16198e-06
3.57817e-06
3.48159e-06
3.74685e-06
4.30555e-06
6.364e-06
8.66784e-07
3.7669e-09
1.99148e-09
5.0485e-07
1.05028e-05
9.24968e-06
7.4959e-06
6.89077e-06
7.10257e-06
7.90462e-06
9.50628e-06
1.18956e-05
1.66953e-05
2.50025e-05
4.01467e-05
5.22293e-05
5.05076e-05
4.91913e-05
4.8324e-05
4.79176e-05
4.79778e-05
4.85086e-05
4.94995e-05
5.08972e-05
5.25931e-05
5.04681e-05
2.76223e-05
1.11008e-05
5.87208e-06
4.30875e-06
3.72909e-06
3.5245e-06
3.65784e-06
4.26428e-06
6.66626e-06
8.91253e-07
3.84124e-09
2.00212e-09
5.06475e-07
1.03829e-05
8.46666e-06
7.43574e-06
7.01535e-06
7.18836e-06
8.07594e-06
9.37991e-06
1.17279e-05
1.66058e-05
2.49293e-05
4.08884e-05
5.21124e-05
5.04884e-05
4.92079e-05
4.83504e-05
4.79451e-05
4.80037e-05
4.85303e-05
4.95074e-05
5.0864e-05
5.24666e-05
5.06393e-05
2.81842e-05
1.11521e-05
5.98809e-06
4.27634e-06
3.64201e-06
3.59779e-06
3.62532e-06
4.21306e-06
6.6631e-06
9.00388e-07
3.87272e-09
2.00699e-09
5.07032e-07
1.03876e-05
8.5144e-06
7.28782e-06
7.24751e-06
7.42717e-06
7.83163e-06
9.15937e-06
1.15446e-05
1.65091e-05
2.51221e-05
4.08393e-05
5.21033e-05
5.04633e-05
4.91868e-05
4.8338e-05
4.79409e-05
4.80047e-05
4.85321e-05
4.95064e-05
5.08575e-05
5.24538e-05
5.11596e-05
2.79892e-05
1.10313e-05
5.91547e-06
4.28154e-06
3.59745e-06
3.43371e-06
3.80509e-06
4.5251e-06
6.56619e-06
8.95682e-07
3.85049e-09
1.99622e-09
5.05807e-07
1.03603e-05
8.79652e-06
7.39989e-06
6.78078e-06
7.12742e-06
8.10571e-06
9.38375e-06
1.17458e-05
1.62342e-05
2.52003e-05
4.12725e-05
5.2196e-05
5.05124e-05
4.92072e-05
4.83488e-05
4.79532e-05
4.80236e-05
4.85573e-05
4.95329e-05
5.08829e-05
5.24798e-05
5.14893e-05
2.82696e-05
1.086e-05
5.66207e-06
4.14657e-06
3.76499e-06
3.73994e-06
3.76336e-06
4.30227e-06
6.97002e-06
8.91887e-07
3.86649e-09
1.99711e-09
5.05045e-07
1.0363e-05
8.44798e-06
7.38818e-06
7.02174e-06
7.27423e-06
8.16385e-06
9.75772e-06
1.23692e-05
1.66621e-05
2.42396e-05
3.886e-05
5.21849e-05
5.05241e-05
4.92334e-05
4.83795e-05
4.79851e-05
4.80556e-05
4.85887e-05
4.95606e-05
5.09009e-05
5.24789e-05
5.13158e-05
2.81501e-05
1.09501e-05
5.75128e-06
4.23227e-06
3.71861e-06
3.59685e-06
3.73484e-06
4.30504e-06
6.73934e-06
9.29039e-07
3.9779e-09
2.00627e-09
5.05605e-07
1.02899e-05
8.54448e-06
7.19724e-06
7.05572e-06
7.37113e-06
8.11803e-06
9.62828e-06
1.18217e-05
1.67491e-05
2.52453e-05
4.10387e-05
5.21182e-05
5.04654e-05
4.91882e-05
4.83565e-05
4.7979e-05
4.80604e-05
4.8603e-05
4.95851e-05
5.09385e-05
5.25316e-05
5.0042e-05
2.67592e-05
1.05962e-05
5.75237e-06
4.22344e-06
3.73438e-06
3.58009e-06
3.73415e-06
4.44177e-06
6.92571e-06
9.19797e-07
3.96047e-09
2.00627e-09
5.06993e-07
1.03146e-05
8.40919e-06
7.32648e-06
7.03789e-06
7.37601e-06
8.12769e-06
9.56255e-06
1.18828e-05
1.60262e-05
2.48747e-05
4.0699e-05
5.20464e-05
5.04366e-05
4.91818e-05
4.83591e-05
4.79897e-05
4.80821e-05
4.86395e-05
4.96437e-05
5.10224e-05
5.26387e-05
4.97472e-05
2.71798e-05
1.06442e-05
5.72115e-06
4.25065e-06
3.70513e-06
3.62984e-06
3.85647e-06
4.47101e-06
6.66969e-06
9.09674e-07
3.9473e-09
1.99722e-09
5.05507e-07
1.03784e-05
8.69774e-06
7.27662e-06
6.95718e-06
7.24349e-06
8.14901e-06
9.78249e-06
1.24856e-05
1.63859e-05
2.44229e-05
4.03595e-05
5.21431e-05
5.04983e-05
4.92115e-05
4.83689e-05
4.79886e-05
4.80737e-05
4.86218e-05
4.9613e-05
5.09802e-05
5.25969e-05
5.12086e-05
2.744e-05
1.06825e-05
5.70636e-06
4.22367e-06
3.74142e-06
3.69164e-06
3.71031e-06
4.32263e-06
7.08774e-06
9.31513e-07
3.99088e-09
2.01213e-09
5.08857e-07
1.04368e-05
9.04336e-06
7.56081e-06
6.98933e-06
6.96034e-06
7.79789e-06
9.88485e-06
1.2312e-05
1.64298e-05
2.47726e-05
4.10518e-05
5.21252e-05
5.04594e-05
4.91822e-05
4.83611e-05
4.80106e-05
4.81287e-05
4.87117e-05
4.97374e-05
5.11378e-05
5.27781e-05
5.08307e-05
2.71133e-05
1.05124e-05
5.50788e-06
4.10693e-06
3.77001e-06
3.64731e-06
3.87204e-06
4.66181e-06
6.77409e-06
9.21355e-07
3.96435e-09
2.00263e-09
5.059e-07
1.0323e-05
8.49428e-06
7.16958e-06
6.82605e-06
7.2817e-06
8.17178e-06
9.22495e-06
1.12201e-05
1.53239e-05
2.42546e-05
4.0723e-05
5.20154e-05
5.04266e-05
4.91794e-05
4.83666e-05
4.80211e-05
4.81465e-05
4.87428e-05
4.97912e-05
5.12252e-05
5.29148e-05
4.9463e-05
2.64955e-05
1.05981e-05
5.73706e-06
4.25161e-06
3.78816e-06
3.68931e-06
3.78941e-06
4.46035e-06
7.086e-06
9.14683e-07
3.96362e-09
2.01208e-09
5.07852e-07
1.02717e-05
8.27919e-06
7.23522e-06
6.95362e-06
7.19834e-06
7.92906e-06
9.3408e-06
1.19541e-05
1.62608e-05
2.43342e-05
4.01286e-05
5.20262e-05
5.04485e-05
4.92027e-05
4.8389e-05
4.80352e-05
4.81445e-05
4.87231e-05
4.97456e-05
5.11698e-05
5.28872e-05
4.97966e-05
2.64853e-05
1.08724e-05
5.79481e-06
4.31031e-06
3.84912e-06
3.70968e-06
3.72126e-06
4.3887e-06
7.24664e-06
9.39405e-07
4.00939e-09
2.00741e-09
5.08067e-07
1.03418e-05
8.74914e-06
7.40993e-06
6.83972e-06
6.98158e-06
7.7121e-06
9.32201e-06
1.18159e-05
1.62048e-05
2.54445e-05
4.17928e-05
5.21749e-05
5.0495e-05
4.92061e-05
4.83835e-05
4.80286e-05
4.8138e-05
4.87012e-05
4.96882e-05
5.10107e-05
5.25086e-05
4.98109e-05
2.55478e-05
1.02172e-05
5.61053e-06
4.17798e-06
3.75571e-06
3.73708e-06
4.05654e-06
4.69953e-06
6.97668e-06
9.32928e-07
3.99332e-09
2.0108e-09
5.07964e-07
1.03499e-05
8.3854e-06
7.24321e-06
6.98444e-06
7.24539e-06
8.11537e-06
9.33938e-06
1.11799e-05
1.56418e-05
2.50003e-05
4.15278e-05
5.20548e-05
5.04506e-05
4.91944e-05
4.83796e-05
4.80336e-05
4.81505e-05
4.87225e-05
4.97219e-05
5.1067e-05
5.25924e-05
4.92899e-05
2.54443e-05
1.01887e-05
5.5161e-06
4.24553e-06
3.84707e-06
3.78188e-06
3.97628e-06
4.56186e-06
6.94146e-06
9.30228e-07
3.98871e-09
2.03003e-09
5.11922e-07
1.03536e-05
8.10114e-06
7.03532e-06
7.02494e-06
7.3119e-06
7.9695e-06
9.23041e-06
1.17591e-05
1.61072e-05
2.47984e-05
4.11711e-05
5.20409e-05
5.04709e-05
4.92247e-05
4.84142e-05
4.807e-05
4.81954e-05
4.87809e-05
4.97973e-05
5.11701e-05
5.27374e-05
4.92519e-05
2.55357e-05
1.02359e-05
5.60415e-06
4.26686e-06
3.84682e-06
3.76733e-06
3.85925e-06
4.50082e-06
7.28966e-06
9.36307e-07
3.99951e-09
2.00983e-09
5.08832e-07
1.04101e-05
8.5119e-06
7.42761e-06
7.13558e-06
7.15317e-06
7.67356e-06
9.13943e-06
1.17244e-05
1.59922e-05
2.48095e-05
4.14287e-05
5.20025e-05
5.04662e-05
4.92356e-05
4.84251e-05
4.80741e-05
4.81899e-05
4.87792e-05
4.98231e-05
5.12467e-05
5.29258e-05
4.9299e-05
2.55478e-05
1.02107e-05
5.62393e-06
4.22457e-06
3.91007e-06
3.87087e-06
4.04521e-06
4.62998e-06
6.96632e-06
9.34722e-07
4.03172e-09
2.01503e-09
5.09973e-07
1.04351e-05
8.63472e-06
7.18715e-06
6.78247e-06
7.23589e-06
7.99746e-06
9.45577e-06
1.19459e-05
1.59272e-05
2.41589e-05
3.96087e-05
5.19934e-05
5.0437e-05
4.92007e-05
4.84e-05
4.806e-05
4.81853e-05
4.87717e-05
4.97935e-05
5.11698e-05
5.27417e-05
4.87423e-05
2.49779e-05
1.00943e-05
5.61334e-06
4.29365e-06
3.86121e-06
3.86285e-06
4.05965e-06
4.55337e-06
6.90834e-06
9.22269e-07
4.01085e-09
2.02783e-09
5.12043e-07
1.04357e-05
8.45877e-06
7.23049e-06
6.93879e-06
7.19752e-06
8.04834e-06
9.39181e-06
1.16568e-05
1.67972e-05
2.56946e-05
4.2561e-05
5.20222e-05
5.04385e-05
4.92024e-05
4.84042e-05
4.80732e-05
4.82117e-05
4.88158e-05
4.98604e-05
5.1265e-05
5.28682e-05
4.82927e-05
2.42537e-05
1.00106e-05
5.63292e-06
4.32699e-06
3.96609e-06
3.87787e-06
3.97771e-06
4.55123e-06
7.21612e-06
9.26238e-07
3.97632e-09
2.01685e-09
5.09186e-07
1.03606e-05
8.34766e-06
7.25077e-06
7.09503e-06
7.38785e-06
7.86264e-06
8.96274e-06
1.13026e-05
1.60293e-05
2.54452e-05
4.23402e-05
5.19324e-05
5.04132e-05
4.91948e-05
4.83977e-05
4.80583e-05
4.81867e-05
4.87823e-05
4.98214e-05
5.12253e-05
5.28375e-05
4.84334e-05
2.4871e-05
1.01084e-05
5.70788e-06
4.37494e-06
3.85082e-06
3.80868e-06
4.13886e-06
4.7023e-06
6.89924e-06
9.28295e-07
3.98353e-09
2.00331e-09
5.06726e-07
1.03436e-05
8.4634e-06
7.23303e-06
6.87345e-06
7.01449e-06
7.92919e-06
9.41972e-06
1.17869e-05
1.64341e-05
2.55537e-05
4.11138e-05
5.20086e-05
5.04097e-05
4.91644e-05
4.83577e-05
4.80209e-05
4.81529e-05
4.87513e-05
4.97921e-05
5.11967e-05
5.28094e-05
4.84053e-05
2.45636e-05
1.01082e-05
5.66447e-06
4.38365e-06
3.93855e-06
3.86037e-06
3.94077e-06
4.55992e-06
7.43776e-06
9.311e-07
3.99326e-09
2.02603e-09
5.11225e-07
1.03508e-05
8.38775e-06
7.22593e-06
6.79969e-06
7.10346e-06
7.97593e-06
9.46188e-06
1.20644e-05
1.64869e-05
2.51483e-05
4.14388e-05
5.21174e-05
5.04761e-05
4.91948e-05
4.83618e-05
4.80038e-05
4.81226e-05
4.87144e-05
4.97563e-05
5.11711e-05
5.28008e-05
4.78156e-05
2.33926e-05
9.70564e-06
5.55856e-06
4.33755e-06
4.12594e-06
3.99148e-06
4.084e-06
4.65415e-06
6.86853e-06
9.27738e-07
4.0464e-09
2.02476e-09
5.12234e-07
1.0403e-05
8.70927e-06
7.05064e-06
6.74389e-06
7.21471e-06
8.01709e-06
9.37253e-06
1.17794e-05
1.6438e-05
2.58246e-05
4.20227e-05
5.20264e-05
5.0387e-05
4.91186e-05
4.83056e-05
4.79672e-05
4.80948e-05
4.86866e-05
4.97218e-05
5.11295e-05
5.27679e-05
4.77257e-05
2.44959e-05
1.00505e-05
5.72805e-06
4.42315e-06
3.97345e-06
3.95659e-06
4.03443e-06
4.59809e-06
7.13777e-06
9.2e-07
4.04529e-09
2.01613e-09
5.09811e-07
1.03795e-05
8.44191e-06
7.32283e-06
6.87032e-06
7.04364e-06
7.84891e-06
9.42589e-06
1.20981e-05
1.6737e-05
2.6358e-05
4.31493e-05
5.20079e-05
5.03661e-05
4.91117e-05
4.83071e-05
4.79683e-05
4.80957e-05
4.86867e-05
4.97252e-05
5.11383e-05
5.27846e-05
4.82943e-05
2.44056e-05
1.00721e-05
5.75676e-06
4.42123e-06
3.8835e-06
3.79228e-06
4.12431e-06
4.76005e-06
7.23941e-06
9.53074e-07
4.10381e-09
2.02888e-09
5.11623e-07
1.03706e-05
8.28532e-06
7.2299e-06
6.92758e-06
7.21356e-06
8.00386e-06
9.28123e-06
1.19148e-05
1.6767e-05
2.61001e-05
4.24649e-05
5.20883e-05
5.0437e-05
4.91606e-05
4.83429e-05
4.8001e-05
4.81311e-05
4.87297e-05
4.9775e-05
5.11967e-05
5.28474e-05
4.77422e-05
2.3145e-05
9.61973e-06
5.55348e-06
4.4086e-06
4.14932e-06
4.06436e-06
4.13403e-06
4.71804e-06
7.1379e-06
9.46746e-07
4.10094e-09
2.03386e-09
5.14094e-07
1.0428e-05
8.67156e-06
7.31899e-06
6.85642e-06
6.94478e-06
7.6664e-06
9.32165e-06
1.1894e-05
1.67158e-05
2.62246e-05
4.30243e-05
5.19854e-05
5.0377e-05
4.91275e-05
4.83254e-05
4.79946e-05
4.81299e-05
4.8729e-05
4.97727e-05
5.11899e-05
5.28519e-05
4.77169e-05
2.38556e-05
9.83289e-06
5.70061e-06
4.45042e-06
3.97746e-06
3.955e-06
4.12349e-06
4.71124e-06
7.38354e-06
9.37959e-07
4.09018e-09
2.02271e-09
5.11587e-07
1.03992e-05
8.28206e-06
7.098e-06
6.86223e-06
7.23199e-06
7.92542e-06
9.52661e-06
1.20678e-05
1.63082e-05
2.53912e-05
4.23424e-05
5.1922e-05
5.03372e-05
4.91115e-05
4.83263e-05
4.80056e-05
4.81492e-05
4.8752e-05
4.97971e-05
5.12329e-05
5.29645e-05
4.80472e-05
2.41018e-05
9.85047e-06
5.74352e-06
4.42181e-06
3.98192e-06
3.91055e-06
4.20935e-06
5.09386e-06
7.43887e-06
9.49169e-07
4.08197e-09
2.02522e-09
5.12627e-07
1.04239e-05
8.19032e-06
7.1439e-06
6.97892e-06
7.30403e-06
8.02444e-06
9.23947e-06
1.1875e-05
1.68492e-05
2.61154e-05
4.28122e-05
5.19322e-05
5.0346e-05
4.91252e-05
4.83525e-05
4.80495e-05
4.82154e-05
4.88471e-05
4.99242e-05
5.13837e-05
5.31264e-05
4.72393e-05
2.30545e-05
9.53565e-06
5.57245e-06
4.54899e-06
4.12699e-06
4.04472e-06
4.17939e-06
4.73377e-06
7.3602e-06
9.58179e-07
4.12434e-09
2.05338e-09
5.19253e-07
1.05612e-05
8.52946e-06
7.22713e-06
6.86836e-06
7.13544e-06
8.03556e-06
9.57164e-06
1.23651e-05
1.72022e-05
2.63192e-05
4.28561e-05
5.20221e-05
5.03897e-05
4.91406e-05
4.83512e-05
4.8033e-05
4.81871e-05
4.88104e-05
4.98859e-05
5.13568e-05
5.31317e-05
4.70767e-05
2.34971e-05
9.72913e-06
5.73644e-06
4.45191e-06
4.07005e-06
4.03444e-06
4.25185e-06
4.7362e-06
7.34617e-06
9.49701e-07
4.12227e-09
2.04992e-09
5.19287e-07
1.05665e-05
8.53628e-06
7.17883e-06
6.81075e-06
7.14057e-06
8.04014e-06
9.4961e-06
1.18897e-05
1.67216e-05
2.62535e-05
4.35151e-05
5.19857e-05
5.03848e-05
4.91391e-05
4.83457e-05
4.80277e-05
4.81799e-05
4.88019e-05
4.98752e-05
5.13409e-05
5.31089e-05
4.70984e-05
2.3439e-05
9.70538e-06
5.71605e-06
4.54793e-06
4.1127e-06
3.92366e-06
4.07187e-06
4.86594e-06
7.29894e-06
9.50342e-07
4.09006e-09
2.03008e-09
5.14186e-07
1.05565e-05
8.57083e-06
7.36503e-06
7.01221e-06
7.10742e-06
7.76385e-06
9.25303e-06
1.21239e-05
1.75614e-05
2.6737e-05
4.35113e-05
5.19725e-05
5.03802e-05
4.91384e-05
4.83454e-05
4.80294e-05
4.81846e-05
4.88057e-05
4.98671e-05
5.12887e-05
5.29155e-05
4.59734e-05
2.18341e-05
9.28811e-06
5.58678e-06
4.50231e-06
4.17617e-06
4.17464e-06
4.28652e-06
4.76038e-06
7.15431e-06
9.44046e-07
4.1483e-09
2.02245e-09
5.11956e-07
1.04564e-05
8.49338e-06
7.15486e-06
6.77356e-06
7.1093e-06
8.01369e-06
9.46774e-06
1.19145e-05
1.71722e-05
2.7507e-05
4.3618e-05
5.20412e-05
5.04373e-05
4.91804e-05
4.83659e-05
4.80245e-05
4.81597e-05
4.87714e-05
4.98473e-05
5.13303e-05
5.30907e-05
4.57956e-05
2.18876e-05
9.54054e-06
5.77536e-06
4.64105e-06
4.2208e-06
4.08443e-06
4.28312e-06
4.69448e-06
6.91939e-06
9.67013e-07
4.22853e-09
2.02692e-09
5.12837e-07
1.04711e-05
8.50142e-06
7.19956e-06
6.79878e-06
7.12984e-06
7.93846e-06
9.56484e-06
1.2259e-05
1.71523e-05
2.6032e-05
4.37849e-05
5.1886e-05
5.03002e-05
4.90724e-05
4.82875e-05
4.79711e-05
4.81253e-05
4.87531e-05
4.98428e-05
5.13294e-05
5.30974e-05
4.60587e-05
2.2016e-05
9.47621e-06
5.8261e-06
4.60616e-06
4.1932e-06
4.09664e-06
4.21327e-06
4.99373e-06
7.72259e-06
9.71234e-07
4.26317e-09
2.02379e-09
5.1247e-07
1.04813e-05
8.53638e-06
7.26091e-06
7.00672e-06
7.05648e-06
7.74085e-06
9.26887e-06
1.23281e-05
1.79744e-05
2.78987e-05
4.4416e-05
5.20246e-05
5.03501e-05
4.90925e-05
4.82957e-05
4.79747e-05
4.81293e-05
4.87596e-05
4.98514e-05
5.1351e-05
5.31449e-05
4.48086e-05
2.12155e-05
9.23678e-06
5.71555e-06
4.7406e-06
4.37932e-06
4.2134e-06
4.41352e-06
5.05879e-06
7.44242e-06
1.0062e-06
4.35263e-09
2.03574e-09
5.16053e-07
1.0561e-05
8.8388e-06
7.10104e-06
6.67974e-06
7.16974e-06
7.98732e-06
9.62818e-06
1.26785e-05
1.78512e-05
2.77364e-05
4.38491e-05
5.19082e-05
5.03311e-05
4.9099e-05
4.8306e-05
4.79823e-05
4.81295e-05
4.87545e-05
4.98474e-05
5.13438e-05
5.31322e-05
4.50547e-05
2.12512e-05
9.23356e-06
5.65761e-06
4.69031e-06
4.33052e-06
4.27275e-06
4.46525e-06
4.83157e-06
7.22287e-06
1.01318e-06
4.37915e-09
2.0365e-09
5.15565e-07
1.05477e-05
8.54939e-06
7.18944e-06
6.76635e-06
7.10886e-06
8.29795e-06
9.98306e-06
1.307e-05
1.7829e-05
2.72344e-05
4.41559e-05
5.18783e-05
5.02547e-05
4.90333e-05
4.82628e-05
4.79639e-05
4.81361e-05
4.87781e-05
4.98715e-05
5.13635e-05
5.31384e-05
4.61845e-05
2.13036e-05
9.31323e-06
5.70358e-06
4.54782e-06
4.2993e-06
4.24454e-06
4.40537e-06
5.31644e-06
8.11407e-06
1.02416e-06
4.45721e-09
2.0318e-09
5.14218e-07
1.04675e-05
8.44211e-06
7.31555e-06
6.95355e-06
7.08681e-06
7.891e-06
9.39328e-06
1.21785e-05
1.73696e-05
2.8295e-05
4.52951e-05
5.17418e-05
5.01647e-05
4.89684e-05
4.82212e-05
4.79419e-05
4.81314e-05
4.87914e-05
4.99127e-05
5.14409e-05
5.32613e-05
4.48127e-05
2.081e-05
9.23096e-06
5.75809e-06
4.64379e-06
4.36115e-06
4.36093e-06
4.49033e-06
4.99948e-06
7.56262e-06
1.02257e-06
4.42071e-09
2.03483e-09
5.14455e-07
1.04404e-05
8.61421e-06
6.93449e-06
6.65087e-06
7.08766e-06
8.06164e-06
1.00227e-05
1.27182e-05
1.76942e-05
2.82777e-05
4.56821e-05
5.17361e-05
5.01665e-05
4.89716e-05
4.82211e-05
4.79396e-05
4.8129e-05
4.87919e-05
4.99164e-05
5.1456e-05
5.33018e-05
4.42728e-05
2.01475e-05
8.96395e-06
5.64462e-06
4.75426e-06
4.47803e-06
4.34248e-06
4.5355e-06
5.06997e-06
7.63591e-06
1.01974e-06
4.44581e-09
2.04739e-09
5.16812e-07
1.04709e-05
8.21853e-06
7.21634e-06
6.8212e-06
7.0143e-06
8.03893e-06
9.9239e-06
1.28945e-05
1.77457e-05
2.70102e-05
4.39546e-05
5.17268e-05
5.01784e-05
4.8985e-05
4.82354e-05
4.79593e-05
4.81567e-05
4.88301e-05
4.99628e-05
5.15032e-05
5.33403e-05
4.40203e-05
2.02005e-05
9.08956e-06
5.7559e-06
4.76579e-06
4.36985e-06
4.27785e-06
4.43877e-06
5.22022e-06
7.96578e-06
1.03732e-06
4.48391e-09
2.05223e-09
5.17728e-07
1.04918e-05
8.27155e-06
7.1046e-06
6.92351e-06
7.1832e-06
7.7089e-06
9.26431e-06
1.24317e-05
1.82271e-05
2.85461e-05
4.55219e-05
5.17035e-05
5.01303e-05
4.89447e-05
4.82063e-05
4.79369e-05
4.81377e-05
4.8811e-05
4.99415e-05
5.14773e-05
5.33389e-05
4.39643e-05
2.08757e-05
9.16908e-06
5.79851e-06
4.80845e-06
4.47679e-06
4.39188e-06
4.60875e-06
5.21841e-06
7.78793e-06
1.03454e-06
4.48766e-09
2.0557e-09
5.19688e-07
1.05413e-05
8.39801e-06
6.97876e-06
6.73276e-06
6.95396e-06
7.87871e-06
9.63394e-06
1.25647e-05
1.77521e-05
2.78783e-05
4.59694e-05
5.1676e-05
5.01315e-05
4.8947e-05
4.82072e-05
4.79404e-05
4.8141e-05
4.88097e-05
4.99199e-05
5.13913e-05
5.30643e-05
4.34626e-05
1.93195e-05
8.7788e-06
5.58848e-06
4.66866e-06
4.49105e-06
4.59782e-06
4.69603e-06
5.24257e-06
7.94012e-06
1.03191e-06
4.49667e-09
2.05912e-09
5.19852e-07
1.05382e-05
8.2177e-06
7.07068e-06
6.76415e-06
7.11789e-06
8.07667e-06
9.51124e-06
1.19422e-05
1.72087e-05
2.75972e-05
4.52924e-05
5.16524e-05
5.01394e-05
4.89567e-05
4.82125e-05
4.79457e-05
4.8162e-05
4.8864e-05
5.00347e-05
5.16006e-05
5.34109e-05
4.24962e-05
1.93501e-05
8.97846e-06
5.82017e-06
4.83585e-06
4.55407e-06
4.4294e-06
4.63836e-06
5.34067e-06
7.72246e-06
1.03534e-06
4.53294e-09
2.06398e-09
5.20124e-07
1.05993e-05
8.52437e-06
7.0653e-06
6.82934e-06
7.07991e-06
7.71352e-06
9.34346e-06
1.24106e-05
1.80142e-05
2.92078e-05
4.56956e-05
5.17639e-05
5.01998e-05
4.89889e-05
4.82256e-05
4.79455e-05
4.81502e-05
4.88403e-05
4.99981e-05
5.15729e-05
5.34211e-05
4.22022e-05
1.93467e-05
8.92042e-06
5.86881e-06
4.88031e-06
4.51704e-06
4.5292e-06
4.69384e-06
5.30052e-06
7.98183e-06
1.05541e-06
4.57217e-09
2.05026e-09
5.19092e-07
1.0623e-05
8.6462e-06
6.9175e-06
6.702e-06
7.0809e-06
7.89052e-06
9.50713e-06
1.24754e-05
1.86007e-05
2.91921e-05
4.60384e-05
5.17894e-05
5.01815e-05
4.89693e-05
4.8215e-05
4.79418e-05
4.81493e-05
4.88412e-05
5.00001e-05
5.15691e-05
5.34571e-05
4.17545e-05
1.91164e-05
8.87062e-06
5.85463e-06
4.92711e-06
4.60476e-06
4.52259e-06
4.7218e-06
5.4041e-06
7.36324e-06
1.04699e-06
4.55039e-09
2.03569e-09
5.14787e-07
1.04925e-05
8.15419e-06
7.09062e-06
6.74183e-06
7.07704e-06
8.12351e-06
9.50921e-06
1.23622e-05
1.76024e-05
2.80168e-05
4.57343e-05
5.16932e-05
5.01205e-05
4.89307e-05
4.81994e-05
4.79446e-05
4.81607e-05
4.88418e-05
4.99653e-05
5.14572e-05
5.31706e-05
4.20052e-05
1.87145e-05
8.79198e-06
5.81603e-06
4.88413e-06
4.52063e-06
4.62096e-06
4.79344e-06
5.32431e-06
7.96819e-06
1.03758e-06
4.54996e-09
2.04273e-09
5.163e-07
1.05342e-05
8.27164e-06
7.01907e-06
6.82193e-06
7.06456e-06
7.73069e-06
9.37485e-06
1.2451e-05
1.79371e-05
2.8695e-05
4.69039e-05
5.16006e-05
5.00859e-05
4.89206e-05
4.81998e-05
4.79514e-05
4.81724e-05
4.8858e-05
4.9983e-05
5.14746e-05
5.31974e-05
4.25802e-05
1.87021e-05
8.7621e-06
5.84156e-06
5.02135e-06
4.73073e-06
4.48987e-06
4.73683e-06
5.49786e-06
8.5932e-06
1.09335e-06
4.69169e-09
2.05122e-09
5.18047e-07
1.05354e-05
8.42267e-06
6.85714e-06
6.55126e-06
7.04677e-06
8.02293e-06
9.65403e-06
1.23826e-05
1.79165e-05
2.91855e-05
4.64666e-05
5.17345e-05
5.01709e-05
4.89827e-05
4.82548e-05
4.80097e-05
4.82411e-05
4.89441e-05
5.00908e-05
5.16047e-05
5.33454e-05
4.10741e-05
1.80978e-05
8.65682e-06
5.85559e-06
4.99906e-06
4.68263e-06
4.68777e-06
4.92528e-06
5.55224e-06
7.95913e-06
1.07337e-06
4.68821e-09
2.03129e-09
5.14032e-07
1.05483e-05
8.40933e-06
7.02043e-06
6.75999e-06
7.06319e-06
7.86881e-06
9.71305e-06
1.26911e-05
1.75374e-05
2.81346e-05
4.59891e-05
5.16826e-05
5.01438e-05
4.89734e-05
4.82524e-05
4.8008e-05
4.82376e-05
4.89351e-05
5.00732e-05
5.15778e-05
5.33138e-05
4.07002e-05
1.79856e-05
8.69321e-06
5.84842e-06
5.03993e-06
4.68477e-06
4.66986e-06
4.97046e-06
5.58076e-06
8.49812e-06
1.09009e-06
4.68866e-09
2.04331e-09
5.17532e-07
1.07043e-05
8.68373e-06
7.05948e-06
6.78582e-06
7.15777e-06
8.07579e-06
9.34466e-06
1.20877e-05
1.79331e-05
2.95452e-05
4.67424e-05
5.16226e-05
5.00982e-05
4.89405e-05
4.82334e-05
4.80019e-05
4.82378e-05
4.89394e-05
5.00794e-05
5.1588e-05
5.33387e-05
4.126e-05
1.77114e-05
8.44644e-06
5.68687e-06
4.96166e-06
5.05799e-06
5.06413e-06
4.89217e-06
5.39722e-06
8.34115e-06
1.09293e-06
4.70447e-09
2.05156e-09
5.17611e-07
1.05529e-05
8.44209e-06
6.99957e-06
6.7798e-06
7.06924e-06
7.9127e-06
9.55637e-06
1.25243e-05
1.8376e-05
3.00918e-05
4.7894e-05
5.17217e-05
5.01303e-05
4.89492e-05