/*--------------------------------*- C++ -*----------------------------------*\
  =========                 |
  \\      /  F ield         | OpenFOAM: The Open Source CFD Toolbox
   \\    /   O peration     | Website:  https://openfoam.org
    \\  /    A nd           | Version:  13
     \\/     M anipulation  |
\*---------------------------------------------------------------------------*/
FoamFile
{
    format      ascii;
    class       volScalarField;
    location    "7";
    object      omega;
}
// * * * * * * * * * * * * * * * * * * * * * * * * * * * * * * * * * * * * * //

dimensions      [0 0 -1 0 0 0 0];

internalField   nonuniform List<scalar> 
78750
(
678.67
75.4078
15.1502
15.1502
15.1502
15.1502
15.1502
15.1502
15.1502
15.1502
15.1502
15.1502
15.1502
15.1502
15.1502
15.1502
15.1502
15.1502
15.1502
15.1502
15.1502
15.1502
15.1502
15.1502
15.1502
15.1502
15.1502
15.1502
15.1502
15.1502
15.1502
15.1502
15.1502
75.4078
678.67
678.67
75.4078
2.66272
2.66272
3.21734
3.194
3.17704
3.159
3.14562
3.13042
2.66272
2.66272
2.66272
2.66272
2.66272
2.66272
2.66272
3.12345
2.66272
2.66272
2.66272
2.66272
2.66272
2.66272
2.66272
2.66272
2.66272
2.66272
2.66272
2.66272
2.66272
2.66272
2.66272
75.4078
678.67
678.67
75.4078
2.66272
2.66272
3.13
3.161
3.1644
3.15646
3.13996
2.66272
2.66272
2.66272
2.66272
2.66272
2.66272
2.66272
2.66272
2.66272
2.66272
2.66272
2.66272
2.66272
2.66272
2.66272
2.66272
2.66272
2.66272
3.15923
3.23145
3.14749
3.13621
3.13281
3.14667
75.4078
678.67
678.67
75.4078
2.66272
2.66272
3.19194
3.22145
3.23434
3.25159
3.23164
3.17082
2.66272
2.66272
2.66272
2.66272
2.66272
2.66272
2.66272
2.66272
2.66272
2.66272
2.66272
2.66272
2.66272
2.66272
2.66272
2.66272
3.12386
3.13502
3.13358
3.13329
3.15894
3.17052
3.17796
75.4078
678.67
678.67
75.4078
2.66272
2.66272
3.20121
3.23758
3.25304
3.2913
3.2798
3.22382
3.16594
3.14255
2.66272
2.66272
2.66272
2.66272
2.66272
2.66272
2.66272
2.66272
2.66272
2.66272
2.66272
2.66272
2.66272
2.66272
2.66272
3.18029
3.19781
3.21015
3.2492
3.26078
3.23087
75.4078
678.67
678.67
75.4078
2.66272
2.66272
3.21289
3.24863
3.25482
3.29082
3.28298
3.24771
3.18602
3.12681
2.66272
2.66272
2.66272
2.66272
2.66272
2.66272
2.66272
2.66272
2.66272
2.66272
2.66272
2.66272
2.66272
2.66272
3.20627
3.17205
3.17725
3.22026
3.2911
3.31172
3.15761
75.4078
678.67
678.67
75.4078
2.66272
2.66272
3.24005
3.26093
3.23108
3.17579
3.14665
3.16439
3.14538
2.66272
2.66272
2.66272
2.66272
2.66272
2.66272
2.66272
2.66272
2.66272
2.66272
2.66272
2.66272
2.66272
2.66272
2.66272
3.1306
3.1526
3.17873
3.24133
3.33017
3.35381
3.15595
75.4078
678.67
678.67
75.4078
2.66272
3.12115
3.25288
3.27944
3.24972
3.20036
3.15746
3.13985
3.12984
2.66272
2.66272
2.66272
2.66272
2.66272
2.66272
2.66272
2.66272
2.66272
2.66272
2.66272
2.66272
2.66272
2.66272
3.16359
3.2823
3.20589
3.20639
3.26494
3.35509
3.37736
3.17714
75.4078
678.67
678.67
75.4078
2.66272
3.18753
3.27501
3.29205
3.25918
3.21075
3.18038
3.18409
3.15478
2.66272
2.66272
2.66272
2.66272
2.66272
2.66272
2.66272
2.66272
2.66272
2.66272
2.66272
2.66272
2.66272
2.66272
3.17967
3.31604
3.22805
3.22028
3.28143
3.37287
3.40677
3.20594
75.4078
678.67
678.67
75.4078
2.66272
3.13442
3.27529
3.30132
3.26673
3.21266
3.16665
3.14022
3.13346
2.66272
2.66272
2.66272
2.66272
2.66272
2.66272
2.66272
2.66272
2.66272
2.66272
2.66272
2.66272
2.66272
2.66272
3.19956
3.37506
3.29941
3.28645
3.32811
3.41969
3.45514
3.22976
75.4078
678.67
678.67
75.4078
2.66272
3.1573
3.28515
3.30246
3.26621
3.21549
3.18278
3.1727
3.14665
3.13266
2.66272
2.66272
2.66272
2.66272
2.66272
2.66272
2.66272
2.66272
2.66272
2.66272
2.66272
2.66272
2.66272
2.66272
3.15016
3.21218
3.2743
3.34931
3.45239
3.48891
3.23166
75.4078
678.67
678.67
75.4078
2.66272
3.13761
3.2809
3.29791
3.26148
3.21507
3.18333
3.18743
3.16164
2.66272
2.66272
2.66272
2.66272
2.66272
2.66272
2.66272
2.66272
2.66272
2.66272
2.66272
2.66272
2.66272
2.66272
3.12882
3.18781
3.25305
3.32429
3.39608
3.50575
3.53951
3.24741
75.4078
678.67
678.67
75.4078
2.66272
3.15153
3.28828
3.30402
3.26372
3.20108
3.15157
3.12239
2.66272
2.66272
2.66272
2.66272
2.66272
2.66272
2.66272
2.66272
2.66272
2.66272
2.66272
2.66272
2.66272
2.66272
2.66272
2.66272
3.15349
3.22284
3.31944
3.43082
3.55297
3.56865
3.262
75.4078
678.67
678.67
75.4078
2.66272
3.12729
3.28542
3.30204
3.26258
3.20371
3.15297
3.12318
2.66272
3.12062
2.66272
2.66272
2.66272
2.66272
2.66272
2.66272
2.66272
2.66272
2.66272
2.66272
2.66272
2.66272
3.12437
3.15732
3.18029
3.24002
3.33256
3.45111
3.58371
3.60712
3.28012
75.4078
678.67
678.67
75.4078
2.66272
3.14487
3.29029
3.30092
3.26211
3.20511
3.16063
3.13621
3.1334
2.66272
2.66272
2.66272
2.66272
2.66272
2.66272
2.66272
2.66272
2.66272
2.66272
2.66272
2.66272
2.66272
3.14187
3.24104
3.20402
3.25383
3.36061
3.49319
3.62332
3.63177
3.29436
75.4078
678.67
678.67
75.4078
2.66272
3.1291
3.28495
3.30032
3.25386
3.20502
3.16514
3.14596
3.18261
3.13218
2.66272
2.66272
2.66272
2.66272
2.66272
2.66272
2.66272
2.66272
2.66272
2.66272
2.66272
2.66272
3.14415
3.23784
3.19717
3.24832
3.36501
3.52411
3.6674
3.66783
3.31396
75.4078
678.67
678.67
75.4078
2.66272
3.13672
3.28698
3.29859
3.25013
3.19691
3.15511
3.12783
2.66272
2.66272
2.66272
2.66272
2.66272
2.66272
2.66272
2.66272
2.66272
2.66272
2.66272
2.66272
2.66272
2.66272
2.66272
3.15663
3.17516
3.24325
3.37002
3.53723
3.68627
3.67799
3.33295
75.4078
678.67
678.67
75.4078
2.66272
3.13496
3.28713
3.30006
3.25157
3.19068
3.14669
3.13914
3.19435
3.15077
2.66272
2.66272
2.66272
2.66272
2.66272
2.66272
2.66272
2.66272
2.66272
2.66272
2.66272
2.66272
3.15699
3.26057
3.20794
3.26298
3.39659
3.56913
3.71243
3.71355
3.34626
75.4078
678.67
678.67
75.4078
2.66272
3.1416
3.28882
3.29356
3.24545
3.18791
3.14623
3.13171
3.14273
3.13341
2.66272
2.66272
2.66272
2.66272
2.66272
2.66272
2.66272
2.66272
2.66272
2.66272
2.66272
2.66272
2.66272
3.12259
3.16378
3.2561
3.40231
3.57915
3.73586
3.72725
3.37696
75.4078
678.67
678.67
75.4078
2.66272
3.14122
3.28514
3.29791
3.24889
3.19215
3.15208
3.14342
3.2019
3.15344
2.66272
2.66272
2.66272
2.66272
2.66272
2.66272
2.66272
2.66272
2.66272
2.66272
2.66272
2.66272
3.12448
3.13358
3.17798
3.27715
3.43353
3.63037
3.76945
3.77334
3.42668
75.4078
678.67
678.67
75.4078
2.66272
3.16343
3.28997
3.29417
3.25022
3.19364
3.14849
2.66272
2.66272
3.12698
2.66272
2.66272
2.66272
2.66272
2.66272
2.66272
2.66272
2.66272
2.66272
2.66272
2.66272
2.66272
3.12947
3.13575
3.1806
3.28411
3.44447
3.63732
3.7821
3.7897
3.43646
75.4078
678.67
678.67
75.4078
2.66272
3.17679
3.28839
3.29714
3.2555
3.20389
3.15716
3.12562
2.66272
2.66272
2.66272
2.66272
2.66272
2.66272
2.66272
2.66272
2.66272
2.66272
2.66272
2.66272
2.66272
2.66272
3.13057
3.14228
3.1894
3.28851
3.4449
3.6461
3.80033
3.7963
3.44991
75.4078
678.67
678.67
75.4078
2.66272
3.21952
3.29548
3.30418
3.26528
3.21605
3.17677
3.14143
3.12503
2.66272
2.66272
2.66272
2.66272
2.66272
2.66272
2.66272
2.66272
2.66272
2.66272
2.66272
2.66272
2.66272
3.13379
3.15187
3.20281
3.30443
3.45759
3.65545
3.81069
3.83274
3.45851
75.4078
678.67
678.67
75.4078
2.66272
2.66272
3.28011
3.29089
3.24939
3.20658
3.16739
3.13432
2.66272
2.66272
2.66272
2.66272
2.66272
2.66272
2.66272
2.66272
2.66272
2.66272
2.66272
2.66272
2.66272
2.66272
2.66272
3.16862
3.21518
3.31281
3.46656
3.66914
3.8394
3.83332
3.45221
75.4078
678.67
678.67
75.4078
2.66272
3.15179
3.28691
3.29686
3.25378
3.20117
3.16063
3.12746
2.66272
2.66272
2.66272
2.66272
2.66272
2.66272
2.66272
2.66272
2.66272
2.66272
2.66272
2.66272
2.66272
2.66272
2.66272
3.12538
3.19488
3.31321
3.47275
3.67443
3.83992
3.84957
3.48706
75.4078
678.67
678.67
75.4078
2.66272
3.15012
3.28363
3.29658
3.25267
3.2005
3.15322
3.12567
2.66272
2.66272
2.66272
2.66272
2.66272
2.66272
2.66272
2.66272
2.66272
2.66272
2.66272
2.66272
2.66272
2.66272
2.66272
3.12704
3.20012
3.32547
3.4921
3.6972
3.85479
3.83257
3.48002
75.4078
678.67
678.67
75.4078
2.66272
3.15263
3.27861
3.29782
3.25761
3.21185
3.17273
3.15042
3.18636
2.66272
2.66272
2.66272
2.66272
2.66272
2.66272
2.66272
2.66272
2.66272
2.66272
2.66272
2.66272
2.66272
2.66272
3.12741
3.20243
3.33512
3.50524
3.69998
3.85594
3.85693
3.46894
75.4078
678.67
678.67
75.4078
2.66272
3.20166
3.28686
3.3017
3.26665
3.22692
3.19345
3.14906
2.66272
2.66272
2.66272
2.66272
2.66272
2.66272
2.66272
2.66272
2.66272
2.66272
2.66272
2.66272
2.66272
2.66272
2.66272
3.12388
3.1984
3.3317
3.50713
3.68091
3.83179
3.86316
3.50035
75.4078
678.67
678.67
75.4078
2.66272
3.12045
3.27801
3.29995
3.26696
3.23457
3.21392
3.16749
2.66272
2.66272
2.66272
2.66272
2.66272
2.66272
2.66272
2.66272
2.66272
2.66272
2.66272
2.66272
2.66272
2.66272
2.66272
3.1209
3.19441
3.32838
3.50795
3.71393
3.84552
3.85857
3.47678
75.4078
678.67
678.67
75.4078
2.66272
3.12611
3.28171
3.29944
3.26774
3.24538
3.24729
3.19927
3.1351
2.66272
2.66272
2.66272
2.66272
2.66272
2.66272
2.66272
2.66272
2.66272
2.66272
2.66272
2.66272
2.66272
2.66272
3.12926
3.20526
3.3401
3.5252
3.71273
3.846
3.84862
3.50053
75.4078
678.67
678.67
75.4078
2.66272
3.12745
3.27695
3.29348
3.25554
3.24016
3.27983
3.22926
3.15792
3.13251
2.66272
2.66272
2.66272
2.66272
2.66272
2.66272
2.66272
2.66272
2.66272
2.66272
2.66272
2.66272
2.66272
3.13335
3.21125
3.3481
3.523
3.72392
3.8615
3.88311
3.50715
75.4078
678.67
678.67
75.4078
2.66272
2.66272
3.27708
3.29327
3.25412
3.23158
3.36014
3.32522
3.2503
3.15445
2.66272
2.66272
2.66272
2.66272
2.66272
2.66272
2.66272
2.66272
2.66272
2.66272
2.66272
2.66272
2.66272
3.13916
3.21311
3.34767
3.52862
3.73388
3.86635
3.88201
3.50742
75.4078
678.67
678.67
75.4078
2.66272
3.12781
3.27855
3.28924
3.23801
3.18365
3.13305
3.12986
3.1829
3.13719
2.66272
2.66272
2.66272
2.66272
2.66272
2.66272
2.66272
2.66272
2.66272
2.66272
2.66272
2.66272
2.66272
3.15999
3.22641
3.35866
3.54006
3.7241
3.87441
3.87176
3.51054
75.4078
678.67
678.67
75.4078
2.66272
3.12763
3.2792
3.28694
3.24068
3.19062
3.16401
3.15986
3.13472
3.12608
2.66272
2.66272
2.66272
2.66272
2.66272
2.66272
2.66272
2.66272
2.66272
2.66272
2.66272
2.66272
3.177
3.31017
3.27627
3.37343
3.54891
3.74857
3.88406
3.87768
3.50828
75.4078
678.67
678.67
75.4078
2.66272
3.1276
3.27881
3.2936
3.2467
3.19046
3.16299
3.17178
3.15286
2.66272
2.66272
2.66272
2.66272
2.66272
2.66272
2.66272
2.66272
2.66272
2.66272
2.66272
2.66272
2.66272
3.12377
3.12873
3.21344
3.36539
3.55979
3.76776
3.91831
3.87711
3.49097
75.4078
678.67
678.67
75.4078
2.66272
3.12597
3.27902
3.28625
3.23869
3.18455
3.14666
3.13922
3.19086
3.14695
2.66272
2.66272
2.66272
2.66272
2.66272
2.66272
2.66272
2.66272
2.66272
2.66272
2.66272
2.66272
3.12785
3.13661
3.21409
3.362
3.55681
3.75359
3.90626
3.88967
3.52208
75.4078
678.67
678.67
75.4078
2.66272
3.1497
3.28743
3.29203
3.24395
3.18959
3.15426
3.13907
3.12564
3.12683
2.66272
2.66272
2.66272
2.66272
2.66272
2.66272
2.66272
2.66272
2.66272
2.66272
2.66272
2.66272
3.13293
3.14497
3.22142
3.36074
3.55188
3.77449
3.92844
3.88994
3.52209
75.4078
678.67
678.67
75.4078
2.66272
3.14469
3.28251
3.29073
3.24343
3.18884
3.15307
3.13747
3.12295
3.12434
2.66272
2.66272
2.66272
2.66272
2.66272
2.66272
2.66272
2.66272
2.66272
2.66272
2.66272
2.66272
2.66272
3.14336
3.23051
3.3813
3.57694
3.78231
3.93863
3.92016
3.52624
75.4078
678.67
678.67
75.4078
2.66272
3.14987
3.28787
3.29041
3.2407
3.1849
3.1518
3.13842
3.1236
3.1273
2.66272
2.66272
2.66272
2.66272
2.66272
2.66272
2.66272
2.66272
2.66272
2.66272
2.66272
2.66272
3.13661
3.14595
3.22833
3.37953
3.57577
3.78415
3.92109
3.91371
3.51244
75.4078
678.67
678.67
75.4078
2.66272
3.16644
3.28573
3.28454
3.23691
3.18398
3.14708
3.12907
2.66272
3.12538
2.66272
2.66272
2.66272
2.66272
2.66272
2.66272
2.66272
2.66272
2.66272
2.66272
2.66272
2.66272
3.14447
3.15532
3.2368
3.38014
3.56973
3.77787
3.94796
3.91859
3.49487
75.4078
678.67
678.67
75.4078
2.66272
3.18159
3.28612
3.28808
3.24052
3.18526
3.14667
3.12917
3.12127
3.12079
2.66272
2.66272
2.66272
2.66272
2.66272
2.66272
2.66272
2.66272
2.66272
2.66272
2.66272
2.66272
3.14406
3.1601
3.24772
3.39908
3.58527
3.80161
3.93257
3.92012
3.52422
75.4078
678.67
678.67
75.4078
2.66272
3.13198
3.2718
3.28524
3.23963
3.18427
3.14169
3.1222
3.12017
2.66272
2.66272
2.66272
2.66272
2.66272
2.66272
2.66272
2.66272
2.66272
2.66272
2.66272
2.66272
2.66272
3.14178
3.15631
3.24737
3.40513
3.60109
3.80696
3.95711
3.89935
3.50995
75.4078
678.67
678.67
75.4078
2.66272
3.12222
3.2702
3.28583
3.2404
3.18801
3.15371
3.14559
3.19781
3.15048
2.66272
2.66272
2.66272
2.66272
2.66272
2.66272
2.66272
2.66272
2.66272
2.66272
2.66272
2.66272
3.14659
3.1593
3.25028
3.41009
3.6128
3.81604
3.95812
3.91856
3.51537
75.4078
678.67
678.67
75.4078
2.66272
3.15163
3.28137
3.28733
3.23769
3.18531
3.16109
3.1595
3.19129
3.14355
2.66272
2.66272
2.66272
2.66272
2.66272
2.66272
2.66272
2.66272
2.66272
2.66272
2.66272
2.66272
3.14383
3.15836
3.24874
3.40424
3.59713
3.81329
3.94638
3.91537
3.51956
75.4078
678.67
678.67
75.4078
2.66272
3.14492
3.27842
3.28609
3.23768
3.18514
3.16998
3.18995
3.15179
2.66272
2.66272
2.66272
2.66272
2.66272
2.66272
2.66272
2.66272
2.66272
2.66272
2.66272
2.66272
2.66272
3.14664
3.16399
3.25922
3.41696
3.62305
3.81869
3.9984
3.96699
3.56131
75.4078
678.67
678.67
75.4078
2.66272
3.12203
3.27165
3.2829
3.23554
3.18229
3.16692
3.25144
3.21768
3.15077
2.66272
2.66272
2.66272
2.66272
2.66272
2.66272
2.66272
2.66272
2.66272
2.66272
2.66272
2.66272
3.14951
3.16481
3.26499
3.4365
3.64179
3.85342
3.9934
3.93563
3.53644
75.4078
678.67
678.67
75.4078
2.66272
3.15466
3.282
3.2837
3.23331
3.17599
3.13743
3.13586
3.18979
3.13954
2.66272
2.66272
2.66272
2.66272
2.66272
2.66272
2.66272
2.66272
2.66272
2.66272
2.66272
2.66272
3.1469
3.16554
3.26313
3.42843
3.63242
3.84026
3.97485
3.9616
3.55475
75.4078
678.67
678.67
75.4078
2.66272
3.14641
3.2781
3.28443
3.23593
3.17725
3.13834
3.13461
3.18047
3.13689
2.66272
2.66272
2.66272
2.66272
2.66272
2.66272
2.66272
2.66272
2.66272
2.66272
2.66272
2.66272
2.66272
3.15494
3.26499
3.43109
3.63196
3.83317
4.01046
3.96867
3.55813
75.4078
678.67
678.67
75.4078
2.66272
3.12184
3.26931
3.28233
3.23852
3.1847
3.15178
3.1561
3.18024
3.13236
2.66272
2.66272
2.66272
2.66272
2.66272
2.66272
2.66272
2.66272
2.66272
2.66272
2.66272
2.66272
2.66272
3.16173
3.27459
3.44574
3.64519
3.84602
4.00471
3.96681
3.56145
75.4078
678.67
678.67
75.4078
2.66272
3.1602
3.27855
3.28433
3.24284
3.19765
3.18656
3.27365
3.22511
3.14956
2.66272
2.66272
2.66272
2.66272
2.66272
2.66272
2.66272
2.66272
2.66272
2.66272
2.66272
2.66272
2.66272
3.16438
3.27582
3.44544
3.64621
3.84143
3.97602
3.93625
3.53498
75.4078
678.67
678.67
75.4078
2.66272
3.18132
3.28166
3.28556
3.24147
3.19111
3.15609
3.13423
3.17895
3.14169
2.66272
2.66272
2.66272
2.66272
2.66272
2.66272
2.66272
2.66272
2.66272
2.66272
2.66272
2.66272
2.66272
3.17153
3.2913
3.4673
3.6712
3.8718
4.01332
3.95689
3.53668
75.4078
678.67
678.67
75.4078
2.66272
3.22223
3.28881
3.27773
3.23371
3.18584
3.15792
3.13955
2.66272
3.12358
2.66272
2.66272
2.66272
2.66272
2.66272
2.66272
2.66272
2.66272
2.66272
2.66272
2.66272
2.66272
3.12419
3.17599
3.30026
3.48429
3.69536
3.8998
4.03839
3.98008
3.55109
75.4078
678.67
678.67
75.4078
2.66272
3.13505
3.27025
3.27975
3.23528
3.18603
3.16052
3.15963
3.13498
2.66272
2.66272
2.66272
2.66272
2.66272
2.66272
2.66272
2.66272
2.66272
2.66272
2.66272
2.66272
2.66272
3.16843
3.19425
3.31199
3.4945
3.70989
3.9269
4.05835
4.00301
3.59867
75.4078
678.67
678.67
75.4078
2.66272
3.14881
3.27415
3.27519
3.23353
3.18375
3.14877
3.1214
2.66272
3.12083
2.66272
2.66272
2.66272
2.66272
2.66272
2.66272
2.66272
2.66272
2.66272
2.66272
2.66272
2.66272
3.16705
3.1958
3.31892
3.50581
3.72308
3.94606
4.10822
4.03316
3.60937
75.4078
678.67
678.67
75.4078
2.66272
3.15166
3.26849
3.27719
3.22661
3.1784
3.15308
3.14563
2.66272
2.66272
2.66272
2.66272
2.66272
2.66272
2.66272
2.66272
2.66272
2.66272
2.66272
2.66272
2.66272
2.66272
3.17216
3.20137
3.32995
3.5296
3.75091
3.96446
4.11782
4.07415
3.62914
75.4078
678.67
678.67
75.4078
2.66272
3.2057
3.2727
3.27716
3.22968
3.18095
3.17295
3.26089
3.20526
3.13902
2.66272
2.66272
2.66272
2.66272
2.66272
2.66272
2.66272
2.66272
2.66272
2.66272
2.66272
2.66272
3.17269
3.20253
3.33068
3.52995
3.75474
3.96642
4.09513
4.07182
3.63393
75.4078
678.67
678.67
75.4078
2.66272
3.21903
3.27532
3.2792
3.23037
3.18011
3.1446
2.66272
2.66272
2.66272
2.66272
2.66272
2.66272
2.66272
2.66272
2.66272
2.66272
2.66272
2.66272
2.66272
2.66272
2.66272
3.17261
3.20313
3.33275
3.53015
3.76336
3.9883
4.13652
4.05792
3.64086
75.4078
678.67
678.67
75.4078
2.66272
3.17633
3.27756
3.28242
3.2413
3.20907
3.19795
3.16698
3.12607
2.66272
2.66272
2.66272
2.66272
2.66272
2.66272
2.66272
2.66272
2.66272
2.66272
2.66272
2.66272
2.66272
3.1785
3.20775
3.33715
3.53402
3.76318
3.98943
4.13844
4.07147
3.6421
75.4078
678.67
678.67
75.4078
2.66272
3.13142
3.27034
3.27619
3.24294
3.22529
3.25308
3.2063
3.14684
2.66272
2.66272
2.66272
2.66272
2.66272
2.66272
2.66272
2.66272
2.66272
2.66272
2.66272
2.66272
2.66272
3.18417
3.21524
3.352
3.56201
3.79804
4.00613
4.14446
4.08603
3.6572
75.4078
678.67
678.67
75.4078
2.66272
3.147
3.2762
3.27958
3.23472
3.20959
3.30489
3.27453
3.20846
3.13119
2.66272
2.66272
2.66272
2.66272
2.66272
2.66272
2.66272
2.66272
2.66272
2.66272
2.66272
2.66272
3.18187
3.21395
3.34839
3.5563
3.79638
4.0129
4.15416
4.08856
3.65947
75.4078
678.67
678.67
75.4078
2.66272
3.12102
3.26892
3.27738
3.22863
3.17394
3.14279
3.13675
2.66272
2.66272
2.66272
2.66272
2.66272
2.66272
2.66272
2.66272
2.66272
2.66272
2.66272
2.66272
2.66272
2.66272
2.66272
3.19101
3.34183
3.54893
3.78854
4.01774
4.16817
4.1338
3.70136
75.4078
678.67
678.67
75.4078
2.66272
3.15067
3.27747
3.27834
3.22707
3.17823
3.17169
3.2598
3.21013
3.13291
2.66272
2.66272
2.66272
2.66272
2.66272
2.66272
2.66272
2.66272
2.66272
2.66272
2.66272
2.66272
3.12489
3.2002
3.35408
3.569
3.82281
4.04889
4.16795
4.12756
3.67799
75.4078
678.67
678.67
75.4078
2.66272
3.15255
3.27764
3.27612
3.22284
3.16931
3.14
3.13373
3.16802
3.12014
2.66272
2.66272
2.66272
2.66272
2.66272
2.66272
2.66272
2.66272
2.66272
2.66272
2.66272
2.66272
3.14935
3.22026
3.36776
3.57393
3.81607
4.04141
4.16534
4.11612
3.70838
75.4078
678.67
678.67
75.4078
2.66272
3.1418
3.27255
3.27677
3.22531
3.17455
3.15134
3.15832
3.13389
2.66272
2.66272
2.66272
2.66272
2.66272
2.66272
2.66272
2.66272
2.66272
2.66272
2.66272
2.66272
2.66272
3.15435
3.22338
3.37402
3.57913
3.80549
4.02809
4.18798
4.15674
3.68873
75.4078
678.67
678.67
75.4078
2.66272
2.66272
3.26635
3.2715
3.22534
3.17075
3.13689
3.13161
2.66272
2.66272
2.66272
2.66272
2.66272
2.66272
2.66272
2.66272
2.66272
2.66272
2.66272
2.66272
2.66272
2.66272
3.1974
3.23856
3.38787
3.59896
3.83552
4.06169
4.20729
4.16541
3.72594
75.4078
678.67
678.67
75.4078
2.66272
3.14367
3.27246
3.27242
3.2242
3.17737
3.17473
3.26578
3.21396
3.1373
2.66272
2.66272
2.66272
2.66272
2.66272
2.66272
2.66272
2.66272
2.66272
2.66272
2.66272
2.66272
3.12717
3.21985
3.39557
3.61998
3.86178
4.08405
4.2192
4.15093
3.72847
75.4078
678.67
678.67
75.4078
2.66272
3.15268
3.27602
3.27558
3.2268
3.17337
3.14422
3.13655
3.16839
3.12173
2.66272
2.66272
2.66272
2.66272
2.66272
2.66272
2.66272
2.66272
2.66272
2.66272
2.66272
2.66272
3.13234
3.22873
3.41013
3.63824
3.87986
4.10617
4.27539
4.20809
3.74949
75.4078
678.67
678.67
75.4078
2.66272
3.15155
3.27396
3.27139
3.22478
3.17876
3.15877
3.16608
3.13834
2.66272
2.66272
2.66272
2.66272
2.66272
2.66272
2.66272
2.66272
2.66272
2.66272
2.66272
2.66272
2.66272
3.13557
3.23214
3.41447
3.64556
3.89182
4.12133
4.24883
4.2047
3.7336
75.4078
678.67
678.67
75.4078
2.66272
3.13784
3.26563
3.27376
3.22685
3.17848
3.15221
3.16242
3.13954
2.66272
2.66272
2.66272
2.66272
2.66272
2.66272
2.66272
2.66272
2.66272
2.66272
2.66272
2.66272
2.66272
3.13621
3.23554
3.42003
3.65362
3.91168
4.16538
4.29291
4.21026
3.75689
75.4078
678.67
678.67
75.4078
2.66272
2.66272
3.26109
3.27414
3.23214
3.18596
3.14662
3.12401
3.12198
2.66272
2.66272
2.66272
2.66272
2.66272
2.66272
2.66272
2.66272
2.66272
2.66272
2.66272
2.66272
2.66272
3.13828
3.24665
3.44681
3.69879
3.95735
4.17204
4.26762
4.18398
3.73872
75.4078
678.67
678.67
75.4078
2.66272
2.66272
3.26156
3.27454
3.23578
3.19427
3.16992
3.15256
3.17943
2.66272
2.66272
2.66272
2.66272
2.66272
2.66272
2.66272
2.66272
2.66272
2.66272
2.66272
2.66272
2.66272
3.14125
3.24302
3.43478
3.68302
3.94728
4.17828
4.29666
4.20281
3.72595
75.4078
678.67
678.67
75.4078
2.66272
3.14207
3.26171
3.27176
3.23056
3.18914
3.16088
3.14659
3.17068
2.66272
2.66272
2.66272
2.66272
2.66272
2.66272
2.66272
2.66272
2.66272
2.66272
2.66272
2.66272
2.66272
3.14187
3.24636
3.43973
3.68444
3.94793
4.18478
4.31438
4.21735
3.72973
75.4078
678.67
678.67
75.4078
2.66272
3.20279
3.27517
3.27153
3.22929
3.1834
3.15231
3.12714
2.66272
2.66272
2.66272
2.66272
2.66272
2.66272
2.66272
2.66272
2.66272
2.66272
2.66272
2.66272
2.66272
2.66272
3.14371
3.25686
3.46249
3.72204
3.9919
4.21929
4.31231
4.22098
3.73448
75.4078
678.67
678.67
75.4078
2.66272
3.1455
3.27528
3.27356
3.22425
3.1797
3.15208
3.13113
2.66272
2.66272
2.66272
2.66272
2.66272
2.66272
2.66272
2.66272
2.66272
2.66272
2.66272
2.66272
2.66272
2.66272
3.14542
3.2539
3.45235
3.70126
3.96917
4.22447
4.35916
4.26473
3.74464
75.4078
678.67
678.67
75.4078
2.66272
3.15015
3.27701
3.27103
3.21957
3.167
3.13456
3.13162
3.17093
3.12399
2.66272
2.66272
2.66272
2.66272
2.66272
2.66272
2.66272
2.66272
2.66272
2.66272
2.66272
2.66272
3.15
3.26217
3.46529
3.72439
3.99607
4.22558
4.3296
4.2616
3.75148
75.4078
678.67
678.67
75.4078
2.66272
3.15802
3.27444
3.26933
3.21796
3.16776
3.13675
3.12673
2.66272
2.66272
2.66272
2.66272
2.66272
2.66272
2.66272
2.66272
2.66272
2.66272
2.66272
2.66272
2.66272
2.66272
3.15784
3.27507
3.48001
3.72569
3.98281
4.2234
4.35656
4.24033
3.7738
75.4078
678.67
678.67
75.4078
2.66272
3.14793
3.26754
3.26737
3.21611
3.16467
3.13568
3.12068
2.66272
2.66272
2.66272
2.66272
2.66272
2.66272
2.66272
2.66272
2.66272
2.66272
2.66272
2.66272
2.66272
3.12332
3.16431
3.27931
3.48421
3.73844
4.00274
4.22854
4.35793
4.25225
3.78355
75.4078
678.67
678.67
75.4078
2.66272
3.16593
3.26816
3.26858
3.21798
3.1634
3.12817
2.66272
2.66272
2.66272
2.66272
2.66272
2.66272
2.66272
2.66272
2.66272
2.66272
2.66272
2.66272
2.66272
2.66272
2.66272
3.15968
3.28159
3.49069
3.74961
4.02261
4.26159
4.41897
4.3197
3.81538
75.4078
678.67
678.67
75.4078
2.66272
3.21271
3.27806
3.27092
3.21854
3.16604
3.13106
2.66272
2.66272
2.66272
2.66272
2.66272
2.66272
2.66272
2.66272
2.66272
2.66272
2.66272
2.66272
2.66272
2.66272
3.12063
3.16252
3.28777
3.50541
3.76523
4.03308
4.27998
4.42141
4.31363
3.86064
75.4078
678.67
678.67
75.4078
2.66272
2.66272
3.25624
3.2693
3.22277
3.16815
3.12867
2.66272
3.12056
2.66272
2.66272
2.66272
2.66272
2.66272
2.66272
2.66272
2.66272
2.66272
2.66272
2.66272
2.66272
3.12337
3.16515
3.29168
3.51279
3.78582
4.06947
4.31478
4.44028
4.35118
3.85957
75.4078
678.67
678.67
75.4078
2.66272
3.12242
3.26021
3.26566
3.21814
3.16801
3.13024
2.66272
3.12082
2.66272
2.66272
2.66272
2.66272
2.66272
2.66272
2.66272
2.66272
2.66272
2.66272
2.66272
2.66272
3.12184
3.16558
3.29067
3.50863
3.78014
4.06636
4.3125
4.44176
4.32302
3.84853
75.4078
678.67
678.67
75.4078
2.66272
2.66272
3.25802
3.26595
3.21734
3.16528
3.13008
2.66272
2.66272
2.66272
2.66272
2.66272
2.66272
2.66272
2.66272
2.66272
2.66272
2.66272
2.66272
2.66272
2.66272
2.66272
3.16672
3.30213
3.52061
3.77904
4.05255
4.3051
4.42591
4.35441
3.85367
75.4078
678.67
678.67
75.4078
2.66272
2.66272
3.25751
3.26612
3.21768
3.16198
3.1247
2.66272
2.66272
2.66272
2.66272
2.66272
2.66272
2.66272
2.66272
2.66272
2.66272
2.66272
2.66272
2.66272
2.66272
3.13274
3.17899
3.31716
3.55302
3.83421
4.11651
4.35748
4.47744
4.36207
3.8725
75.4078
678.67
678.67
75.4078
2.66272
2.66272
3.25721
3.26454
3.21832
3.16749
3.13476
2.66272
2.66272
2.66272
2.66272
2.66272
2.66272
2.66272
2.66272
2.66272
2.66272
2.66272
2.66272
2.66272
2.66272
3.1302
3.17537
3.30815
3.53752
3.81954
4.10861
4.3561
4.48736
4.36667
3.87653
75.4078
678.67
678.67
75.4078
2.66272
2.66272
3.2571
3.26237
3.22055
3.17304
3.1396
3.13259
3.17298
3.1243
2.66272
2.66272
2.66272
2.66272
2.66272
2.66272
2.66272
2.66272
2.66272
2.66272
2.66272
3.13286
3.1816
3.31927
3.54711
3.81873
4.11
4.37722
4.50739
4.41333
3.92033
75.4078
678.67
678.67
75.4078
2.66272
3.13317
3.26319
3.26507
3.22326
3.17719
3.15008
3.14573
3.15943
2.66272
2.66272
2.66272
2.66272
2.66272
2.66272
2.66272
2.66272
2.66272
2.66272
2.66272
2.66272
2.66272
3.17904
3.33202
3.57515
3.85967
4.14213
4.3587
4.48043
4.40454
3.91442
75.4078
678.67
678.67
75.4078
2.66272
3.13978
3.26465
3.26869
3.22462
3.18413
3.17433
3.24394
3.18777
3.12365
2.66272
2.66272
2.66272
2.66272
2.66272
2.66272
2.66272
2.66272
2.66272
2.66272
2.66272
2.66272
3.17815
3.32725
3.56598
3.8503
4.13926
4.38886
4.51303
4.41145
3.92061
75.4078
678.67
678.67
75.4078
2.66272
3.15279
3.26235
3.26207
3.22366
3.18601
3.15875
3.12839
2.66272
2.66272
2.66272
2.66272
2.66272
2.66272
2.66272
2.66272
2.66272
2.66272
2.66272
2.66272
2.66272
2.66272
3.18611
3.34026
3.57963
3.85289
4.12664
4.35727
4.47652
4.40396
3.91245
75.4078
678.67
678.67
75.4078
2.66272
3.17193
3.25644
3.25462
3.21349
3.18253
3.16572
3.13283
2.66272
2.66272
2.66272
2.66272
2.66272
2.66272
2.66272
2.66272
2.66272
2.66272
2.66272
2.66272
2.66272
3.13731
3.19459
3.34628
3.58576
3.86076
4.13566
4.36595
4.47847
4.37124
3.87407
75.4078
678.67
678.67
75.4078
2.66272
3.2311
3.2608
3.25821
3.21545
3.18139
3.16721
3.14413
2.66272
2.66272
2.66272
2.66272
2.66272
2.66272
2.66272
2.66272
2.66272
2.66272
2.66272
2.66272
2.66272
3.14482
3.20659
3.36521
3.6087
3.88307
4.15669
4.38781
4.50086
4.39152
3.92169
75.4078
678.67
678.67
75.4078
2.66272
3.23655
3.26741
3.26035
3.22505
3.21449
3.2436
3.1978
3.1398
2.66272
2.66272
2.66272
2.66272
2.66272
2.66272
2.66272
2.66272
2.66272
2.66272
2.66272
2.66272
3.14897
3.21498
3.38237
3.63755
3.92219
4.19898
4.42465
4.51815
4.39042
3.91705
75.4078
678.67
678.67
75.4078
2.66272
3.21878
3.25956
3.25772
3.22127
3.21542
3.32461
3.26826
3.20014
3.12619
2.66272
2.66272
2.66272
2.66272
2.66272
2.66272
2.66272
2.66272
2.66272
2.66272
2.66272
3.12182
3.20685
3.38244
3.64116
3.92924
4.21343
4.44817
4.55058
4.44033
3.93158
75.4078
678.67
678.67
75.4078
2.66272
2.66272
3.25345
3.25648
3.21153
3.1683
3.13058
3.13003
3.16761
2.66272
2.66272
2.66272
2.66272
2.66272
2.66272
2.66272
2.66272
2.66272
2.66272
2.66272
2.66272
3.13503
3.22179
3.40234
3.66707
3.95917
4.23971
4.47387
4.58493
4.47212
3.96288
75.4078
678.67
678.67
75.4078
2.66272
3.14972
3.2572
3.25419
3.20964
3.16593
3.14029
3.13401
3.15957
2.66272
2.66272
2.66272
2.66272
2.66272
2.66272
2.66272
2.66272
2.66272
2.66272
2.66272
2.66272
3.1351
3.22236
3.40724
3.68407
3.99915
4.3033
4.54438
4.64953
4.50145
3.97623
75.4078
678.67
678.67
75.4078
2.66272
3.16552
3.25635
3.25253
3.2063
3.16118
3.14101
3.14143
3.16766
3.12039
2.66272
2.66272
2.66272
2.66272
2.66272
2.66272
2.66272
2.66272
2.66272
2.66272
2.66272
3.13731
3.22657
3.41399
3.6893
4.00174
4.30592
4.55036
4.65978
4.52157
4.02636
75.4078
678.67
678.67
75.4078
2.66272
3.21961
3.26587
3.25095
3.20403
3.16251
3.14698
3.15432
3.13108
2.66272
2.66272
2.66272
2.66272
2.66272
2.66272
2.66272
2.66272
2.66272
2.66272
2.66272
2.66272
3.12897
3.22646
3.42725
3.71554
4.03189
4.33738
4.58106
4.678
4.54521
4.02958
75.4078
678.67
678.67
75.4078
2.66272
2.66272
3.24009
3.24686
3.20535
3.16192
3.14546
3.15799
3.13173
2.66272
2.66272
2.66272
2.66272
2.66272
2.66272
2.66272
2.66272
2.66272
2.66272
2.66272
2.66272
3.13572
3.23233
3.43057
3.71684
4.0384
4.34928
4.6003
4.7005
4.56047
4.02373
75.4078
678.67
678.67
75.4078
2.66272
3.14089
3.2561
3.25151
3.20587
3.1657
3.15881
3.21795
3.13588
2.66272
2.66272
2.66272
2.66272
2.66272
2.66272
2.66272
2.66272
2.66272
2.66272
2.66272
2.66272
3.13711
3.23474
3.43386
3.71818
4.03657
4.3653
4.61869
4.70699
4.55889
4.02087
75.4078
678.67
678.67
75.4078
2.66272
3.15005
3.25722
3.24937
3.2059
3.17484
3.17522
3.20856
3.12972
2.66272
2.66272
2.66272
2.66272
2.66272
2.66272
2.66272
2.66272
2.66272
2.66272
2.66272
2.66272
3.13931
3.23821
3.44223
3.73566
4.06245
4.37157
4.62672
4.75012
4.61241
4.08319
75.4078
678.67
678.67
75.4078
2.66272
3.13998
3.25525
3.25297
3.20948
3.19618
3.29689
3.27185
3.19493
3.12048
2.66272
2.66272
2.66272
2.66272
2.66272
2.66272
2.66272
2.66272
2.66272
2.66272
2.66272
3.142
3.24044
3.44144
3.72924
4.05047
4.34971
4.6087
4.74299
4.61016
4.08531
75.4078
678.67
678.67
75.4078
2.66272
2.66272
3.24961
3.24951
3.20476
3.15845
3.12827
2.66272
3.14477
2.66272
2.66272
2.66272
2.66272
2.66272
2.66272
2.66272
2.66272
2.66272
2.66272
2.66272
2.66272
3.14385
3.24413
3.44778
3.74049
4.069
4.38873
4.62011
4.7279
4.62391
4.09602
75.4078
678.67
678.67
75.4078
2.66272
3.14867
3.25884
3.2501
3.20324
3.15622
3.12793
2.66272
2.66272
2.66272
2.66272
2.66272
2.66272
2.66272
2.66272
2.66272
2.66272
2.66272
2.66272
2.66272
2.66272
3.14166
3.24224
3.44708
3.73933
4.06672
4.3833
4.62327
4.73118
4.60895
4.10335
75.4078
678.67
678.67
75.4078
2.66272
3.16631
3.2639
3.25311
3.20363
3.15201
3.12423
3.12466
3.15482
2.66272
2.66272
2.66272
2.66272
2.66272
2.66272
2.66272
2.66272
2.66272
2.66272
2.66272
2.66272
3.14118
3.24404
3.4506
3.73971
4.06086
4.37403
4.61749
4.73013
4.63649
4.09164
75.4078
678.67
678.67
75.4078
2.66272
3.1874
3.26198
3.25624
3.21182
3.1671
3.14035
3.14134
3.12342
2.66272
2.66272
2.66272
2.66272
2.66272
2.66272
2.66272
2.66272
2.66272
2.66272
2.66272
2.66272
3.14723
3.25438
3.46948
3.77182
4.10668
4.42901
4.68587
4.79697
4.65937
4.12429
75.4078
678.67
678.67
75.4078
2.66272
3.23286
3.26607
3.25446
3.21246
3.16582
3.12866
2.66272
2.66272
2.66272
2.66272
2.66272
2.66272
2.66272
2.66272
2.66272
2.66272
2.66272
2.66272
2.66272
2.66272
3.146
3.25161
3.46399
3.76175
4.09358
4.41546
4.66544
4.77452
4.64171
4.13014
75.4078
678.67
678.67
75.4078
2.66272
3.12131
3.24888
3.24532
3.20799
3.16949
3.13842
3.13134
3.1631
2.66272
2.66272
2.66272
2.66272
2.66272
2.66272
2.66272
2.66272
2.66272
2.66272
2.66272
2.66272
3.14592
3.25096
3.46195
3.76043
4.09369
4.41488
4.65634
4.78955
4.63747
4.13834
75.4078
678.67
678.67
75.4078
2.66272
3.15678
3.25414
3.24678
3.20289
3.16555