/*--------------------------------*- C++ -*----------------------------------*\
  =========                 |
  \\      /  F ield         | OpenFOAM: The Open Source CFD Toolbox
   \\    /   O peration     | Website:  https://openfoam.org
    \\  /    A nd           | Version:  13
     \\/     M anipulation  |
\*---------------------------------------------------------------------------*/
FoamFile
{
    format      ascii;
    class       volScalarField;
    location    "7";
    object      p;
}
// * * * * * * * * * * * * * * * * * * * * * * * * * * * * * * * * * * * * * //

dimensions      [0 2 -2 0 0 0 0];

internalField   nonuniform List<scalar> 
78750
(
0
0.00020852
0.000240139
0.000167402
-4.27054e-05
-0.000368582
-0.00078858
-0.00120494
-0.00157017
-0.00187003
-0.00210962
-0.00239741
-0.00268982
-0.00291395
-0.00306668
-0.00321259
-0.00334663
-0.00346707
-0.00357612
-0.00367567
-0.00376683
-0.00385101
-0.00392791
-0.00399871
-0.00406122
-0.00411552
-0.0041523
-0.00417197
-0.00415701
-0.0041302
-0.00403511
-0.0038799
-0.00374319
-0.00360654
-0.00346578
-0.148279
-0.148266
-0.148263
-0.14835
-0.148517
-0.148672
-0.148828
-0.149024
-0.149219
-0.149333
-0.149413
-0.149486
-0.149568
-0.149632
-0.149655
-0.149657
-0.149653
-0.14965
-0.149654
-0.149664
-0.149682
-0.149706
-0.149736
-0.14977
-0.149809
-0.149854
-0.149892
-0.149904
-0.149885
-0.149832
-0.149755
-0.149653
-0.149515
-0.149388
-0.149306
-0.294663
-0.294674
-0.29472
-0.2948
-0.294904
-0.295025
-0.295093
-0.295118
-0.295134
-0.295142
-0.295137
-0.295126
-0.295122
-0.295132
-0.295142
-0.295156
-0.295175
-0.295198
-0.295226
-0.295259
-0.295298
-0.295342
-0.295391
-0.295445
-0.295496
-0.295547
-0.295585
-0.295607
-0.295608
-0.295589
-0.29555
-0.295489
-0.295408
-0.295328
-0.295283
-0.440811
-0.440817
-0.440828
-0.440853
-0.440886
-0.440912
-0.440935
-0.440951
-0.440961
-0.440968
-0.440972
-0.440972
-0.440974
-0.440981
-0.440993
-0.441007
-0.441021
-0.441035
-0.441051
-0.441068
-0.441086
-0.441105
-0.441124
-0.441143
-0.441165
-0.441187
-0.441203
-0.441201
-0.441197
-0.441178
-0.441146
-0.44111
-0.441065
-0.44102
-0.440994
-0.586607
-0.586609
-0.586613
-0.586624
-0.586639
-0.586648
-0.586652
-0.586658
-0.586663
-0.586664
-0.58666
-0.586651
-0.586642
-0.58664
-0.586641
-0.586645
-0.586652
-0.58666
-0.586669
-0.586681
-0.586694
-0.586707
-0.586722
-0.586739
-0.586756
-0.58677
-0.586782
-0.586782
-0.586778
-0.586767
-0.586747
-0.58672
-0.586686
-0.586652
-0.58663
-0.732191
-0.732192
-0.732191
-0.732196
-0.732203
-0.732209
-0.732213
-0.732216
-0.73222
-0.732223
-0.732225
-0.732225
-0.732226
-0.732235
-0.732247
-0.73226
-0.732275
-0.732293
-0.732311
-0.73233
-0.732352
-0.732377
-0.732404
-0.732432
-0.732462
-0.732492
-0.732517
-0.732535
-0.732546
-0.73255
-0.732543
-0.732526
-0.732503
-0.732479
-0.732467
-0.877742
-0.877742
-0.87774
-0.877741
-0.877745
-0.877748
-0.877751
-0.877753
-0.877755
-0.877755
-0.877754
-0.87775
-0.877746
-0.877747
-0.877751
-0.877755
-0.877762
-0.87777
-0.877779
-0.877789
-0.877801
-0.877815
-0.877829
-0.877845
-0.877863
-0.877879
-0.877891
-0.8779
-0.8779
-0.877895
-0.877886
-0.87787
-0.877851
-0.877835
-0.87783
-1.0232
-1.0232
-1.0232
-1.0232
-1.0232
-1.0232
-1.0232
-1.02321
-1.02321
-1.02321
-1.02321
-1.0232
-1.0232
-1.0232
-1.02321
-1.02321
-1.02321
-1.02322
-1.02322
-1.02323
-1.02323
-1.02323
-1.02323
-1.02324
-1.02324
-1.02324
-1.02324
-1.02323
-1.02322
-1.02321
-1.0232
-1.02319
-1.02318
-1.02317
-1.02316
-1.16863
-1.16863
-1.16863
-1.16863
-1.16863
-1.16863
-1.16864
-1.16864
-1.16864
-1.16864
-1.16864
-1.16864
-1.16864
-1.16865
-1.16866
-1.16866
-1.16867
-1.16868
-1.16869
-1.1687
-1.16871
-1.16872
-1.16873
-1.16875
-1.16876
-1.16877
-1.16877
-1.16878
-1.16878
-1.16878
-1.16877
-1.16877
-1.16876
-1.16874
-1.16874
-1.31401
-1.31401
-1.31401
-1.31402
-1.31402
-1.31402
-1.31403
-1.31403
-1.31404
-1.31404
-1.31404
-1.31404
-1.31405
-1.31406
-1.31408
-1.31409
-1.31411
-1.31413
-1.31415
-1.31417
-1.3142
-1.31422
-1.31425
-1.31428
-1.31432
-1.31435
-1.31437
-1.3144
-1.31441
-1.31442
-1.31442
-1.31441
-1.3144
-1.31439
-1.31438
-1.45933
-1.45933
-1.45933
-1.45933
-1.45933
-1.45934
-1.45934
-1.45935
-1.45935
-1.45936
-1.45936
-1.45937
-1.45938
-1.4594
-1.45942
-1.45944
-1.45946
-1.45949
-1.45951
-1.45954
-1.45958
-1.45961
-1.45965
-1.4597
-1.45975
-1.45979
-1.45982
-1.45984
-1.45987
-1.45988
-1.45988
-1.45988
-1.45988
-1.45987
-1.45987
-1.6046
-1.6046
-1.6046
-1.60461
-1.60461
-1.60461
-1.60462
-1.60462
-1.60462
-1.60463
-1.60464
-1.60464
-1.60465
-1.60467
-1.60469
-1.60471
-1.60473
-1.60475
-1.60477
-1.6048
-1.60483
-1.60486
-1.60489
-1.60493
-1.60497
-1.605
-1.60502
-1.60504
-1.60505
-1.60505
-1.60505
-1.60504
-1.60504
-1.60502
-1.60502
-1.74982
-1.74983
-1.74983
-1.74983
-1.74983
-1.74984
-1.74984
-1.74985
-1.74985
-1.74986
-1.74986
-1.74987
-1.74988
-1.74989
-1.7499
-1.74992
-1.74993
-1.74995
-1.74997
-1.74998
-1.75
-1.75002
-1.75004
-1.75007
-1.75009
-1.7501
-1.75011
-1.75011
-1.75012
-1.75012
-1.75011
-1.75011
-1.75009
-1.75008
-1.75009
-1.89503
-1.89503
-1.89502
-1.89502
-1.89503
-1.89503
-1.89504
-1.89504
-1.89505
-1.89505
-1.89506
-1.89506
-1.89507
-1.89508
-1.8951
-1.89511
-1.89512
-1.89514
-1.89515
-1.89517
-1.89519
-1.8952
-1.89522
-1.89525
-1.89527
-1.89528
-1.89529
-1.8953
-1.8953
-1.89531
-1.89531
-1.8953
-1.8953
-1.8953
-1.8953
-2.04022
-2.04022
-2.04022
-2.04023
-2.04023
-2.04023
-2.04023
-2.04023
-2.04023
-2.04024
-2.04024
-2.04024
-2.04025
-2.04026
-2.04027
-2.04028
-2.04029
-2.04031
-2.04032
-2.04034
-2.04036
-2.04037
-2.04039
-2.04042
-2.04044
-2.04045
-2.04046
-2.04047
-2.04048
-2.04048
-2.04047
-2.04046
-2.04045
-2.04045
-2.04046
-2.18536
-2.18536
-2.18536
-2.18537
-2.18536
-2.18536
-2.18537
-2.18537
-2.18537
-2.18537
-2.18538
-2.18538
-2.18538
-2.18539
-2.1854
-2.1854
-2.18541
-2.18542
-2.18543
-2.18544
-2.18545
-2.18546
-2.18548
-2.18549
-2.18551
-2.18551
-2.18552
-2.18552
-2.18553
-2.18553
-2.18552
-2.18553
-2.18553
-2.18551
-2.18552
-2.33049
-2.33049
-2.33048
-2.33048
-2.33049
-2.33049
-2.33049
-2.3305
-2.3305
-2.33051
-2.33051
-2.33051
-2.33052
-2.33052
-2.33053
-2.33054
-2.33054
-2.33055
-2.33056
-2.33057
-2.33058
-2.33059
-2.3306
-2.33061
-2.33062
-2.33063
-2.33063
-2.33063
-2.33063
-2.33063
-2.33062
-2.33062
-2.33062
-2.33061
-2.33062
-2.47563
-2.47563
-2.47563
-2.47563
-2.47564
-2.47564
-2.47564
-2.47564
-2.47564
-2.47564
-2.47564
-2.47564
-2.47564
-2.47564
-2.47565
-2.47565
-2.47565
-2.47566
-2.47566
-2.47567
-2.47567
-2.47568
-2.47568
-2.47569
-2.4757
-2.4757
-2.4757
-2.4757
-2.4757
-2.4757
-2.47571
-2.47571
-2.47572
-2.47572
-2.47572
-2.62075
-2.62075
-2.62075
-2.62076
-2.62076
-2.62076
-2.62076
-2.62076
-2.62076
-2.62076
-2.62075
-2.62075
-2.62075
-2.62076
-2.62076
-2.62076
-2.62076
-2.62076
-2.62077
-2.62077
-2.62077
-2.62077
-2.62077
-2.62078
-2.62078
-2.62078
-2.62078
-2.62078
-2.62078
-2.62078
-2.62079
-2.6208
-2.6208
-2.6208
-2.62081
-2.76585
-2.76586
-2.76585
-2.76585
-2.76585
-2.76585
-2.76586
-2.76586
-2.76586
-2.76586
-2.76586
-2.76586
-2.76586
-2.76586
-2.76586
-2.76586
-2.76586
-2.76586
-2.76587
-2.76587
-2.76587
-2.76587
-2.76587
-2.76588
-2.76588
-2.76588
-2.76588
-2.76588
-2.76587
-2.76587
-2.76586
-2.76584
-2.76583
-2.76581
-2.76582
-2.91097
-2.91097
-2.91096
-2.91096
-2.91096
-2.91096
-2.91097
-2.91097
-2.91097
-2.91097
-2.91097
-2.91097
-2.91097
-2.91097
-2.91097
-2.91097
-2.91096
-2.91096
-2.91096
-2.91096
-2.91096
-2.91096
-2.91096
-2.91095
-2.91095
-2.91095
-2.91095
-2.91095
-2.91095
-2.91095
-2.91096
-2.91096
-2.91097
-2.91096
-2.91096
-3.05609
-3.05609
-3.05609
-3.05609
-3.05609
-3.05609
-3.05609
-3.05609
-3.05609
-3.05609
-3.05609
-3.05609
-3.05609
-3.05609
-3.05609
-3.0561
-3.0561
-3.0561
-3.0561
-3.0561
-3.0561
-3.0561
-3.0561
-3.0561
-3.0561
-3.05609
-3.05609
-3.05609
-3.05609
-3.05609
-3.0561
-3.05609
-3.0561
-3.05611
-3.05613
-3.20124
-3.20124
-3.20123
-3.20123
-3.20123
-3.20123
-3.20123
-3.20123
-3.20123
-3.20123
-3.20123
-3.20123
-3.20123
-3.20123
-3.20123
-3.20123
-3.20123
-3.20123
-3.20123
-3.20123
-3.20123
-3.20123
-3.20123
-3.20123
-3.20124
-3.20124
-3.20123
-3.20123
-3.20123
-3.20122
-3.20122
-3.20121
-3.20119
-3.20117
-3.20118
-3.34638
-3.34638
-3.34638
-3.34638
-3.34638
-3.34638
-3.34638
-3.34638
-3.34638
-3.34638
-3.34638
-3.34638
-3.34638
-3.34638
-3.34637
-3.34637
-3.34637
-3.34637
-3.34637
-3.34637
-3.34637
-3.34636
-3.34636
-3.34636
-3.34636
-3.34636
-3.34635
-3.34635
-3.34635
-3.34635
-3.34636
-3.34637
-3.34637
-3.34637
-3.34637
-3.49151
-3.49151
-3.49151
-3.49151
-3.49151
-3.49151
-3.49151
-3.49151
-3.49151
-3.49151
-3.49151
-3.49151
-3.49151
-3.49151
-3.49152
-3.49152
-3.49152
-3.49152
-3.49152
-3.49152
-3.49152
-3.49153
-3.49153
-3.49153
-3.49153
-3.49154
-3.49153
-3.49153
-3.49154
-3.49154
-3.49155
-3.49154
-3.49154
-3.49154
-3.49156
-3.63662
-3.63663
-3.63662
-3.63662
-3.63662
-3.63663
-3.63663
-3.63663
-3.63664
-3.63664
-3.63664
-3.63664
-3.63665
-3.63665
-3.63665
-3.63665
-3.63666
-3.63666
-3.63666
-3.63667
-3.63667
-3.63668
-3.63668
-3.63669
-3.63669
-3.63669
-3.63669
-3.63669
-3.63669
-3.63669
-3.63669
-3.63668
-3.63667
-3.63665
-3.63666
-3.78179
-3.78179
-3.78179
-3.78179
-3.78179
-3.78179
-3.7818
-3.7818
-3.7818
-3.7818
-3.7818
-3.7818
-3.7818
-3.7818
-3.7818
-3.7818
-3.78181
-3.78181
-3.78181
-3.78181
-3.78182
-3.78182
-3.78183
-3.78183
-3.78184
-3.78184
-3.78184
-3.78184
-3.78184
-3.78184
-3.78185
-3.78187
-3.78188
-3.78186
-3.78186
-3.92696
-3.92697
-3.92696
-3.92696
-3.92696
-3.92696
-3.92696
-3.92696
-3.92696
-3.92696
-3.92695
-3.92695
-3.92695
-3.92695
-3.92695
-3.92695
-3.92695
-3.92695
-3.92695
-3.92695
-3.92695
-3.92695
-3.92695
-3.92695
-3.92696
-3.92696
-3.92695
-3.92695
-3.92695
-3.92696
-3.92696
-3.92696
-3.92696
-3.92696
-3.92697
-4.07209
-4.07209
-4.07209
-4.07209
-4.07209
-4.07209
-4.07209
-4.07209
-4.07209
-4.07209
-4.07209
-4.07209
-4.07209
-4.07209
-4.07209
-4.07209
-4.07209
-4.07209
-4.07209
-4.07209
-4.07209
-4.07209
-4.07209
-4.07209
-4.07209
-4.07208
-4.07208
-4.07208
-4.07207
-4.07207
-4.07207
-4.07206
-4.07205
-4.07204
-4.07207
-4.21724
-4.21724
-4.21724
-4.21724
-4.21724
-4.21724
-4.21724
-4.21724
-4.21724
-4.21724
-4.21724
-4.21723
-4.21723
-4.21724
-4.21724
-4.21724
-4.21724
-4.21724
-4.21724
-4.21724
-4.21724
-4.21724
-4.21724
-4.21724
-4.21725
-4.21724
-4.21724
-4.21724
-4.21724
-4.21725
-4.21725
-4.21726
-4.21726
-4.21726
-4.21728
-4.3624
-4.3624
-4.36239
-4.36239
-4.36239
-4.36239
-4.3624
-4.3624
-4.3624
-4.3624
-4.3624
-4.3624
-4.3624
-4.3624
-4.36241
-4.36241
-4.36241
-4.36241
-4.36241
-4.36242
-4.36242
-4.36242
-4.36243
-4.36243
-4.36244
-4.36244
-4.36244
-4.36244
-4.36244
-4.36244
-4.36244
-4.36243
-4.36243
-4.36242
-4.36243
-4.50755
-4.50755
-4.50755
-4.50754
-4.50754
-4.50754
-4.50754
-4.50754
-4.50755
-4.50755
-4.50755
-4.50755
-4.50755
-4.50755
-4.50755
-4.50755
-4.50755
-4.50755
-4.50755
-4.50755
-4.50755
-4.50755
-4.50755
-4.50755
-4.50755
-4.50754
-4.50754
-4.50754
-4.50754
-4.50754
-4.50754
-4.50754
-4.50753
-4.50751
-4.50751
-4.65272
-4.65273
-4.65273
-4.65273
-4.65273
-4.65273
-4.65273
-4.65273
-4.65273
-4.65273
-4.65273
-4.65273
-4.65272
-4.65272
-4.65272
-4.65272
-4.65272
-4.65271
-4.65271
-4.65271
-4.65271
-4.6527
-4.6527
-4.65269
-4.65269
-4.65268
-4.65267
-4.65266
-4.65266
-4.65266
-4.65266
-4.65268
-4.65269
-4.65268
-4.65269
-4.79789
-4.79789
-4.79789
-4.79789
-4.79789
-4.7979
-4.7979
-4.7979
-4.7979
-4.79791
-4.7979
-4.7979
-4.7979
-4.7979
-4.7979
-4.7979
-4.79791
-4.79791
-4.79791
-4.79791
-4.79791
-4.79791
-4.79792
-4.79792
-4.79793
-4.79793
-4.79793
-4.79793
-4.79794
-4.79795
-4.79794
-4.79792
-4.79791
-4.7979
-4.79791
-4.94309
-4.94309
-4.94309
-4.94309
-4.94308
-4.94308
-4.94308
-4.94308
-4.94308
-4.94308
-4.94308
-4.94308
-4.94308
-4.94308
-4.94308
-4.94308
-4.94308
-4.94308
-4.94308
-4.94308
-4.94309
-4.94309
-4.94309
-4.94309
-4.94309
-4.9431
-4.94309
-4.9431
-4.9431
-4.9431
-4.9431
-4.94309
-4.94308
-4.94308
-4.94308
-5.08826
-5.08827
-5.08826
-5.08827
-5.08827
-5.08827
-5.08827
-5.08827
-5.08826
-5.08826
-5.08826
-5.08826
-5.08826
-5.08826
-5.08826
-5.08826
-5.08826
-5.08826
-5.08825
-5.08825
-5.08825
-5.08825
-5.08825
-5.08825
-5.08825
-5.08825
-5.08824
-5.08824
-5.08823
-5.08824
-5.08825
-5.08827
-5.08827
-5.08825
-5.08825
-5.23344
-5.23345
-5.23345
-5.23345
-5.23345
-5.23345
-5.23345
-5.23345
-5.23345
-5.23345
-5.23345
-5.23345
-5.23345
-5.23345
-5.23345
-5.23345
-5.23345
-5.23345
-5.23345
-5.23345
-5.23345
-5.23344
-5.23344
-5.23344
-5.23344
-5.23344
-5.23344
-5.23343
-5.23344
-5.23344
-5.23343
-5.23343
-5.23345
-5.23344
-5.23345
-5.37865
-5.37866
-5.37865
-5.37865
-5.37864
-5.37864
-5.37864
-5.37864
-5.37864
-5.37864
-5.37864
-5.37864
-5.37864
-5.37864
-5.37864
-5.37864
-5.37864
-5.37864
-5.37864
-5.37864
-5.37864
-5.37864
-5.37864
-5.37864
-5.37864
-5.37863
-5.37863
-5.37862
-5.37862
-5.37862
-5.37862
-5.37861
-5.3786
-5.37857
-5.37859
-5.52385
-5.52386
-5.52386
-5.52386
-5.52386
-5.52386
-5.52387
-5.52387
-5.52386
-5.52386
-5.52386
-5.52386
-5.52386
-5.52386
-5.52386
-5.52385
-5.52385
-5.52385
-5.52385
-5.52385
-5.52385
-5.52385
-5.52385
-5.52385
-5.52385
-5.52385
-5.52384
-5.52384
-5.52384
-5.52385
-5.52386
-5.52387
-5.52387
-5.52386
-5.52388
-5.66906
-5.66907
-5.66906
-5.66907
-5.66907
-5.66906
-5.66906
-5.66906
-5.66906
-5.66907
-5.66907
-5.66907
-5.66907
-5.66907
-5.66906
-5.66906
-5.66906
-5.66906
-5.66906
-5.66906
-5.66906
-5.66906
-5.66905
-5.66905
-5.66905
-5.66905
-5.66904
-5.66904
-5.66904
-5.66904
-5.66904
-5.66903
-5.66904
-5.66903
-5.66905
-5.81429
-5.8143
-5.81429
-5.81429
-5.81428
-5.81428
-5.81428
-5.81428
-5.81428
-5.81428
-5.81428
-5.81428
-5.81428
-5.81428
-5.81428
-5.81428
-5.81428
-5.81428
-5.81428
-5.81428
-5.81428
-5.81428
-5.81428
-5.81428
-5.81428
-5.81428
-5.81428
-5.81427
-5.81428
-5.81428
-5.81428
-5.81428
-5.81427
-5.81424
-5.81424
-5.95954
-5.95954
-5.95954
-5.95954
-5.95954
-5.95954
-5.95954
-5.95954
-5.95954
-5.95953
-5.95953
-5.95953
-5.95953
-5.95953
-5.95953
-5.95953
-5.95953
-5.95953
-5.95953
-5.95953
-5.95953
-5.95953
-5.95953
-5.95953
-5.95954
-5.95954
-5.95953
-5.95953
-5.95953
-5.95953
-5.95954
-5.95954
-5.95955
-5.95955
-5.95956
-6.10474
-6.10475
-6.10474
-6.10474
-6.10475
-6.10475
-6.10476
-6.10476
-6.10476
-6.10476
-6.10476
-6.10475
-6.10475
-6.10475
-6.10475
-6.10474
-6.10474
-6.10474
-6.10474
-6.10474
-6.10473
-6.10473
-6.10473
-6.10472
-6.10472
-6.10472
-6.10471
-6.10471
-6.10471
-6.10472
-6.10472
-6.10472
-6.10471
-6.1047
-6.10473
-6.24998
-6.24999
-6.24999
-6.24999
-6.24999
-6.24999
-6.24999
-6.24999
-6.24999
-6.24999
-6.24999
-6.24999
-6.24999
-6.24998
-6.24998
-6.24998
-6.24998
-6.24997
-6.24997
-6.24997
-6.24996
-6.24996
-6.24996
-6.24995
-6.24995
-6.24995
-6.24994
-6.24993
-6.24994
-6.24995
-6.24995
-6.24996
-6.24997
-6.24993
-6.24995
-6.39524
-6.39524
-6.39523
-6.39524
-6.39523
-6.39523
-6.39523
-6.39523
-6.39523
-6.39523
-6.39523
-6.39523
-6.39523
-6.39523
-6.39524
-6.39524
-6.39524
-6.39524
-6.39524
-6.39524
-6.39524
-6.39524
-6.39524
-6.39524
-6.39525
-6.39524
-6.39524
-6.39524
-6.39524
-6.39523
-6.39522
-6.39521
-6.39522
-6.39523
-6.39526
-6.54048
-6.54049
-6.54049
-6.54049
-6.54048
-6.54048
-6.54048
-6.54048
-6.54048
-6.54048
-6.54048
-6.54048
-6.54048
-6.54048
-6.54048
-6.54048
-6.54048
-6.54047
-6.54047
-6.54047
-6.54047
-6.54047
-6.54046
-6.54046
-6.54046
-6.54046
-6.54045
-6.54045
-6.54044
-6.54044
-6.54044
-6.54043
-6.54041
-6.54039
-6.5404
-6.68576
-6.68577
-6.68576
-6.68576
-6.68576
-6.68576
-6.68576
-6.68576
-6.68576
-6.68576
-6.68576
-6.68576
-6.68575
-6.68575
-6.68575
-6.68575
-6.68575
-6.68575
-6.68574
-6.68574
-6.68574
-6.68574
-6.68574
-6.68574
-6.68574
-6.68573
-6.68573
-6.68572
-6.68573
-6.68574
-6.68574
-6.68574
-6.68574
-6.68572
-6.68574
-6.83102
-6.83103
-6.83103
-6.83103
-6.83103
-6.83103
-6.83103
-6.83103
-6.83103
-6.83103
-6.83103
-6.83102
-6.83102
-6.83102
-6.83102
-6.83102
-6.83102
-6.83102
-6.83102
-6.83102
-6.83102
-6.83102
-6.83103
-6.83103
-6.83103
-6.83103
-6.83103
-6.83103
-6.83103
-6.83103
-6.83103
-6.83103
-6.83103
-6.831
-6.83101
-6.97628
-6.97629
-6.97629
-6.97629
-6.97628
-6.97628
-6.97628
-6.97628
-6.97628
-6.97628
-6.97628
-6.97628
-6.97628
-6.97628
-6.97628
-6.97628
-6.97628
-6.97627
-6.97627
-6.97627
-6.97627
-6.97627
-6.97627
-6.97627
-6.97627
-6.97627
-6.97627
-6.97627
-6.97627
-6.97628
-6.97628
-6.97628
-6.9763
-6.97627
-6.97629
-7.12153
-7.12154
-7.12153
-7.12153
-7.12153
-7.12153
-7.12153
-7.12153
-7.12153
-7.12153
-7.12153
-7.12153
-7.12153
-7.12153
-7.12153
-7.12153
-7.12153
-7.12153
-7.12153
-7.12153
-7.12152
-7.12152
-7.12152
-7.12152
-7.12152
-7.12152
-7.12151
-7.12151
-7.12152
-7.12152
-7.12154
-7.12154
-7.12155
-7.12154
-7.12156
-7.2668
-7.26681
-7.2668
-7.26679
-7.26679
-7.26679
-7.26679
-7.2668
-7.2668
-7.2668
-7.2668
-7.2668
-7.2668
-7.2668
-7.2668
-7.2668
-7.2668
-7.2668
-7.2668
-7.2668
-7.2668
-7.26679
-7.26679
-7.26679
-7.26679
-7.26679
-7.26678
-7.26677
-7.26676
-7.26676
-7.26675
-7.26674
-7.26675
-7.26676
-7.26679
-7.41208
-7.41209
-7.41209
-7.41209
-7.41208
-7.41208
-7.41208
-7.41208
-7.41208
-7.41208
-7.41208
-7.41208
-7.41208
-7.41208
-7.41208
-7.41208
-7.41208
-7.41208
-7.41208
-7.41208
-7.41208
-7.41207
-7.41207
-7.41207
-7.41207
-7.41207
-7.41206
-7.41206
-7.41206
-7.41206
-7.41207
-7.41206
-7.41207
-7.41203
-7.41205
-7.55737
-7.55738
-7.55737
-7.55737
-7.55737
-7.55738
-7.55738
-7.55738
-7.55738
-7.55738
-7.55738
-7.55738
-7.55738
-7.55738
-7.55738
-7.55738
-7.55738
-7.55738
-7.55738
-7.55738
-7.55738
-7.55738
-7.55738
-7.55738
-7.55738
-7.55738
-7.55737
-7.55737
-7.55737
-7.55738
-7.5574
-7.5574
-7.55739
-7.55738
-7.55739
-7.70265
-7.70267
-7.70266
-7.70267
-7.70267
-7.70267
-7.70267
-7.70267
-7.70267
-7.70267
-7.70267
-7.70267
-7.70267
-7.70267
-7.70267
-7.70267
-7.70267
-7.70267
-7.70267
-7.70267
-7.70267
-7.70267
-7.70267
-7.70267
-7.70267
-7.70267
-7.70266
-7.70266
-7.70265
-7.70265
-7.70264
-7.70263
-7.70263
-7.7026
-7.70261
-7.84794
-7.84796
-7.84795
-7.84795
-7.84795
-7.84796
-7.84796
-7.84796
-7.84796
-7.84796
-7.84796
-7.84796
-7.84796
-7.84796
-7.84796
-7.84796
-7.84796
-7.84796
-7.84796
-7.84796
-7.84796
-7.84796
-7.84796
-7.84796
-7.84796
-7.84796
-7.84795
-7.84795
-7.84796
-7.84797
-7.84797
-7.84798
-7.848
-7.84795
-7.84796
-7.99325
-7.99327
-7.99326
-7.99326
-7.99326
-7.99326
-7.99326
-7.99326
-7.99326
-7.99325
-7.99326
-7.99326
-7.99326
-7.99326
-7.99326
-7.99326
-7.99327
-7.99327
-7.99327
-7.99327
-7.99328
-7.99328
-7.99329
-7.9933
-7.9933
-7.9933
-7.9933
-7.9933
-7.99331
-7.99331
-7.99332
-7.99331
-7.99329
-7.9933
-7.99333
-8.13853
-8.13855
-8.13854
-8.13854
-8.13853
-8.13853
-8.13853
-8.13853
-8.13853
-8.13853
-8.13853
-8.13853
-8.13853
-8.13854
-8.13854
-8.13854
-8.13854
-8.13854
-8.13854
-8.13854
-8.13854
-8.13855
-8.13855
-8.13855
-8.13856
-8.13855
-8.13855
-8.13854
-8.13854
-8.13854
-8.13854
-8.13854
-8.13855
-8.13852
-8.13855
-8.28382
-8.28382
-8.28381
-8.28381
-8.28381
-8.28382
-8.28382
-8.28383
-8.28383
-8.28383
-8.28383
-8.28383
-8.28383
-8.28383
-8.28383
-8.28382
-8.28382
-8.28382
-8.28382
-8.28382
-8.28381
-8.28381
-8.28381
-8.28381
-8.2838
-8.2838
-8.28379
-8.28379
-8.28379
-8.28379
-8.28379
-8.28378
-8.2838
-8.2838
-8.28383
-8.42913
-8.42913
-8.42912
-8.42913
-8.42913
-8.42913
-8.42913
-8.42913
-8.42913
-8.42913
-8.42912
-8.42912
-8.42912
-8.42912
-8.42912
-8.42912
-8.42912
-8.42912
-8.42912
-8.42912
-8.42912
-8.42912
-8.42912
-8.42912
-8.42912
-8.42912
-8.42911
-8.42911
-8.42911
-8.42912
-8.42914
-8.42914
-8.42912
-8.42907
-8.42906
-8.57441
-8.57442
-8.57442
-8.57442
-8.57442
-8.57441
-8.57441
-8.57441
-8.57441
-8.57441
-8.57441
-8.5744
-8.5744
-8.5744
-8.5744
-8.5744
-8.57439
-8.57439
-8.57439
-8.57439
-8.57438
-8.57438
-8.57438
-8.57438
-8.57437
-8.57437
-8.57436
-8.57435
-8.57435
-8.57435
-8.57435
-8.57435
-8.57435
-8.57435
-8.57439
-8.71969
-8.7197
-8.7197
-8.7197
-8.7197
-8.7197
-8.7197
-8.71971
-8.71971
-8.71971
-8.71971
-8.7197
-8.7197
-8.7197
-8.7197
-8.7197
-8.7197
-8.7197
-8.71969
-8.71969
-8.71969
-8.71969
-8.71968
-8.71968
-8.71968
-8.71968
-8.71967
-8.71967
-8.71967
-8.71967
-8.71966
-8.71964
-8.71963
-8.71959
-8.71962
-8.865
-8.865
-8.86499
-8.86499
-8.865
-8.865
-8.865
-8.865
-8.865
-8.865
-8.865
-8.865
-8.865
-8.86499
-8.86499
-8.86499
-8.86499
-8.86498
-8.86498
-8.86498
-8.86498
-8.86498
-8.86498
-8.86498
-8.86497
-8.86497
-8.86497
-8.86496
-8.86496
-8.86496
-8.86497
-8.86497
-8.86497
-8.86494
-8.86494
-9.0103
-9.01031
-9.01031
-9.01031
-9.0103
-9.0103
-9.0103
-9.0103
-9.0103
-9.01029
-9.01029
-9.01029
-9.01029
-9.01028
-9.01028
-9.01028
-9.01027
-9.01027
-9.01026
-9.01026
-9.01025
-9.01024
-9.01024
-9.01023
-9.01022
-9.01022
-9.0102
-9.0102
-9.0102
-9.0102
-9.01021
-9.01021
-9.01021
-9.0102
-9.01023
-9.15558
-9.1556
-9.15559
-9.15559
-9.15559
-9.15559
-9.15559
-9.1556
-9.1556
-9.1556
-9.1556
-9.1556
-9.1556
-9.1556
-9.15559
-9.15559
-9.15559
-9.15559
-9.15559
-9.15558
-9.15558
-9.15557
-9.15557
-9.15557
-9.15556
-9.15556
-9.15555
-9.15554
-9.15555
-9.15554
-9.15554
-9.15555
-9.15556
-9.15553
-9.15553
-9.30091
-9.30092
-9.30091
-9.30091
-9.30092
-9.30091
-9.30091
-9.30091
-9.30091
-9.30091
-9.30091
-9.30091
-9.30091
-9.30091
-9.30091
-9.30091
-9.30091
-9.30091
-9.30091
-9.30091
-9.30091
-9.30091
-9.30091
-9.30091
-9.30091
-9.30091
-9.3009
-9.3009
-9.30091
-9.30092
-9.30093
-9.30094
-9.30093
-9.30093
-9.30097
-9.44625
-9.44627
-9.44626
-9.44625
-9.44625
-9.44625
-9.44625
-9.44625
-9.44625
-9.44624
-9.44624
-9.44624
-9.44624
-9.44624
-9.44624
-9.44624
-9.44625
-9.44625
-9.44625
-9.44625
-9.44625
-9.44625
-9.44626
-9.44626
-9.44626
-9.44626
-9.44626
-9.44626
-9.44627
-9.44627
-9.44628
-9.44629
-9.44631
-9.44627
-9.44629
-9.59153
-9.59155
-9.59154
-9.59155
-9.59155
-9.59155
-9.59155
-9.59156
-9.59156
-9.59156
-9.59156
-9.59155
-9.59155
-9.59155
-9.59155
-9.59155
-9.59155
-9.59155
-9.59155
-9.59155
-9.59156
-9.59156
-9.59156
-9.59157
-9.59157
-9.59157
-9.59156
-9.59156
-9.59157
-9.59157
-9.59156
-9.59156
-9.59156
-9.59155
-9.59158
-9.73683
-9.73684
-9.73684
-9.73684
-9.73684
-9.73684
-9.73684
-9.73685
-9.73685
-9.73684
-9.73684
-9.73684
-9.73684
-9.73684
-9.73684
-9.73684
-9.73684
-9.73684
-9.73684
-9.73684
-9.73684
-9.73684
-9.73684
-9.73684
-9.73684
-9.73684
-9.73683
-9.73683
-9.73683
-9.73683
-9.73683
-9.73682
-9.73679
-9.73678
-9.73681
-9.88216
-9.88216
-9.88214
-9.88215
-9.88215
-9.88214
-9.88214
-9.88214
-9.88214
-9.88215
-9.88215
-9.88215
-9.88215
-9.88215
-9.88215
-9.88215
-9.88215
-9.88216
-9.88216
-9.88216
-9.88216
-9.88216
-9.88217
-9.88217
-9.88217
-9.88217
-9.88216
-9.88216
-9.88216
-9.88216
-9.88217
-9.88218
-9.8822
-9.88218
-9.88218
-10.0274
-10.0275
-10.0274
-10.0274
-10.0274
-10.0274
-10.0274
-10.0274
-10.0274
-10.0275
-10.0275
-10.0274
-10.0274
-10.0274
-10.0274
-10.0274
-10.0274
-10.0274
-10.0274
-10.0274
-10.0274
-10.0274
-10.0274
-10.0274
-10.0274
-10.0274
-10.0274
-10.0274
-10.0274
-10.0274
-10.0274
-10.0274
-10.0274
-10.0274
-10.0275
-10.1727
-10.1727
-10.1727
-10.1727
-10.1727
-10.1727
-10.1727
-10.1727
-10.1727
-10.1727
-10.1727
-10.1727
-10.1727
-10.1727
-10.1727
-10.1727
-10.1727
-10.1727
-10.1727
-10.1727
-10.1727
-10.1727
-10.1727
-10.1727
-10.1727
-10.1727
-10.1727
-10.1727
-10.1727
-10.1727
-10.1727
-10.1727
-10.1727
-10.1727
-10.1727
-10.3181
-10.3181
-10.3181
-10.3181
-10.3181
-10.3181
-10.3181
-10.3181
-10.3181
-10.3181
-10.3181
-10.3181
-10.3181
-10.3181
-10.3181
-10.3181
-10.3181
-10.3181
-10.3181
-10.3181
-10.3181
-10.3181
-10.3181
-10.3181
-10.3181
-10.318
-10.318
-10.318
-10.318
-10.318
-10.318
-10.318
-10.318
-10.318
-10.318
-10.4634
-10.4634
-10.4634
-10.4634
-10.4634
-10.4634
-10.4634
-10.4634
-10.4634
-10.4634
-10.4634
-10.4634
-10.4634
-10.4634
-10.4634
-10.4634
-10.4634
-10.4634
-10.4634
-10.4634
-10.4633
-10.4633
-10.4633
-10.4633
-10.4633
-10.4633
-10.4633
-10.4633
-10.4633
-10.4633
-10.4633
-10.4633
-10.4633
-10.4633
-10.4633
-10.6087
-10.6087
-10.6087
-10.6087
-10.6087
-10.6087
-10.6087
-10.6087
-10.6087
-10.6087
-10.6087
-10.6087
-10.6087
-10.6087
-10.6087
-10.6087
-10.6087
-10.6087
-10.6087
-10.6087
-10.6087
-10.6087
-10.6087
-10.6087
-10.6087
-10.6087
-10.6086
-10.6086
-10.6087
-10.6087
-10.6087
-10.6087
-10.6087
-10.6087
-10.6087
-10.754
-10.754
-10.754
-10.754
-10.754
-10.754
-10.754
-10.754
-10.754
-10.754
-10.754
-10.754
-10.754
-10.754
-10.754
-10.754
-10.754
-10.754
-10.754
-10.754
-10.754
-10.754
-10.754
-10.754
-10.754
-10.754
-10.754
-10.754
-10.754
-10.754
-10.754
-10.754
-10.754
-10.754
-10.754
-10.8993
-10.8994
-10.8993
-10.8993
-10.8993
-10.8993
-10.8993
-10.8993
-10.8993
-10.8993
-10.8993
-10.8993
-10.8993
-10.8993
-10.8993
-10.8993
-10.8993
-10.8993
-10.8993
-10.8993
-10.8993
-10.8993
-10.8993
-10.8993
-10.8993
-10.8993
-10.8993
-10.8993
-10.8993
-10.8993
-10.8993
-10.8993
-10.8993
-10.8993
-10.8993
-11.0446
-11.0446
-11.0446
-11.0446
-11.0446
-11.0446
-11.0446
-11.0447
-11.0447
-11.0447
-11.0447
-11.0446
-11.0446
-11.0446
-11.0446
-11.0446
-11.0446
-11.0446
-11.0446
-11.0446
-11.0446
-11.0446
-11.0446
-11.0446
-11.0446
-11.0446
-11.0446
-11.0446
-11.0447
-11.0447
-11.0447
-11.0447
-11.0447
-11.0446
-11.0446
-11.1899
-11.19
-11.19
-11.19
-11.19
-11.19
-11.19
-11.19
-11.19
-11.19
-11.19
-11.19
-11.19
-11.19
-11.19
-11.19
-11.19
-11.19
-11.19
-11.19
-11.19
-11.19
-11.19
-11.19
-11.19
-11.19
-11.19
-11.19
-11.19
-11.19
-11.19
-11.19
-11.19
-11.19
-11.19
-11.3353
-11.3353
-11.3353
-11.3353
-11.3353
-11.3353
-11.3353
-11.3353
-11.3353
-11.3353
-11.3353
-11.3353
-11.3353
-11.3353
-11.3353
-11.3353
-11.3353
-11.3353
-11.3353
-11.3353
-11.3353
-11.3353
-11.3352
-11.3352
-11.3352
-11.3352
-11.3352
-11.3352
-11.3352
-11.3352
-11.3352
-11.3352
-11.3352
-11.3352
-11.3352
-11.4806
-11.4806
-11.4806
-11.4806
-11.4806
-11.4806
-11.4806
-11.4806
-11.4806
-11.4806
-11.4806
-11.4806
-11.4806
-11.4806
-11.4806
-11.4806
-11.4806
-11.4806
-11.4806
-11.4806
-11.4806
-11.4806
-11.4806
-11.4806
-11.4806
-11.4805
-11.4805
-11.4805
-11.4805
-11.4806
-11.4806
-11.4806
-11.4806
-11.4806
-11.4806
-11.6259
-11.6259
-11.6259
-11.6259
-11.6259
-11.6259
-11.6259
-11.6259
-11.6259
-11.6259
-11.6259
-11.6259
-11.6259
-11.6259
-11.6259
-11.6259
-11.6259
-11.6259
-11.6259
-11.6259
-11.6259
-11.6259
-11.6259
-11.6259
-11.6259
-11.6259
-11.6259
-11.6259
-11.6259
-11.6259
-11.6259
-11.6259
-11.6259
-11.6258
-11.6259
-11.7712
-11.7712
-11.7712
-11.7712
-11.7712
-11.7712
-11.7712
-11.7712
-11.7712
-11.7712
-11.7712
-11.7712
-11.7712
-11.7712
-11.7712
-11.7712
-11.7712
-11.7712
-11.7712
-11.7712
-11.7712
-11.7712
-11.7712
-11.7712
-11.7712
-11.7712
-11.7712
-11.7712
-11.7712
-11.7712
-11.7712
-11.7712
-11.7712
-11.7711
-11.7711
-11.9166
-11.9166
-11.9166
-11.9166
-11.9165
-11.9166
-11.9166
-11.9166
-11.9166
-11.9166
-11.9166
-11.9166
-11.9166
-11.9165
-11.9165
-11.9165
-11.9165
-11.9165
-11.9165
-11.9165
-11.9165
-11.9165
-11.9165
-11.9165
-11.9165
-11.9165
-11.9165
-11.9165
-11.9165
-11.9165
-11.9165
-11.9165
-11.9165
-11.9165
-11.9166
-12.0619
-12.0619
-12.0619
-12.0619
-12.0619
-12.0619
-12.0619
-12.0619
-12.0619
-12.0619
-12.0619
-12.0619
-12.0619
-12.0619
-12.0619
-12.0619
-12.0619
-12.0619
-12.0619
-12.0619
-12.0619
-12.0619
-12.0619
-12.0619
-12.0619
-12.0618
-12.0618
-12.0618
-12.0619
-12.0619
-12.0619
-12.0618
-12.0618
-12.0618
-12.0618
-12.2072
-12.2072
-12.2072
-12.2072
-12.2072
-12.2072
-12.2072
-12.2072
-12.2072
-12.2072
-12.2072
-12.2072
-12.2072
-12.2072
-12.2072
-12.2072
-12.2072
-12.2072
-12.2072
-12.2072
-12.2072
-12.2072
-12.2072
-12.2072
-12.2072
-12.2072
-12.2072
-12.2072
-12.2072
-12.2072
-12.2072
-12.2072
-12.2072
-12.2072
-12.2072
-12.3526
-12.3526
-12.3526
-12.3526
-12.3526
-12.3526
-12.3526
-12.3526
-12.3526
-12.3526
-12.3526
-12.3526
-12.3526
-12.3526
-12.3526
-12.3525
-12.3525
-12.3525
-12.3525
-12.3525
-12.3525
-12.3525
-12.3525
-12.3525
-12.3525
-12.3525
-12.3525
-12.3525
-12.3525
-12.3525
-12.3525
-12.3525
-12.3525
-12.3525
-12.3525
-12.4979
-12.4979
-12.4979
-12.4979
-12.4979
-12.4979
-12.4979
-12.4979
-12.4979
-12.4979
-12.4979
-12.4979
-12.4979
-12.4979
-12.4979
-12.4979
-12.4979
-12.4979
-12.4979
-12.4979
-12.4979
-12.4979
-12.4979
-12.4979
-12.4979
-12.4979
-12.4979
-12.4979
-12.4979
-12.4979
-12.4979
-12.4979
-12.4979
-12.4978
-12.4979
-12.6432
-12.6432
-12.6432
-12.6432
-12.6432
-12.6432
-12.6432
-12.6432
-12.6432
-12.6432
-12.6432
-12.6432
-12.6432
-12.6432
-12.6432
-12.6432
-12.6432
-12.6432
-12.6432
-12.6432
-12.6432
-12.6432
-12.6432
-12.6432
-12.6432
-12.6432
-12.6432
-12.6432
-12.6432
-12.6432
-12.6432
-12.6432
-12.6432
-12.6432
-12.6432
-12.7885
-12.7886
-12.7886
-12.7886
-12.7886
-12.7886
-12.7886
-12.7886
-12.7886
-12.7886
-12.7886
-12.7886
-12.7886
-12.7886
-12.7886
-12.7886
-12.7885
-12.7885
-12.7885
-12.7885
-12.7885
-12.7885
-12.7885
-12.7885
-12.7885
-12.7885
-12.7885
-12.7885
-12.7885
-12.7885
-12.7885
-12.7885
-12.7885
-12.7885
-12.7886
-12.9339
-12.9339
-12.9339
-12.9339
-12.9339
-12.9339
-12.9339
-12.9339
-12.9339
-12.9339
-12.9339
-12.9339
-12.9339
-12.9339
-12.9339
-12.9339
-12.9339
-12.9339
-12.9339
-12.9339
-12.9339
-12.9339
-12.9339
-12.9339
-12.9339
-12.9339
-12.9339
-12.9339
-12.9339
-12.9339
-12.9339
-12.9339
-12.9339
-12.9339
-12.9339
-13.0792
-13.0792
-13.0792
-13.0792
-13.0792
-13.0792
-13.0792
-13.0792
-13.0792
-13.0792
-13.0792
-13.0792
-13.0792
-13.0792
-13.0792
-13.0792
-13.0792
-13.0792
-13.0792
-13.0792
-13.0792
-13.0792
-13.0792
-13.0792
-13.0792
-13.0792
-13.0792
-13.0792
-13.0792
-13.0792
-13.0792
-13.0792
-13.0792
-13.0792
-13.0793
-13.2246
-13.2246
-13.2246
-13.2246
-13.2246
-13.2246
-13.2246
-13.2246
-13.2246
-13.2246
-13.2246
-13.2246
-13.2246
-13.2246
-13.2246
-13.2246
-13.2245
-13.2245
-13.2245
-13.2245
-13.2245
-13.2245
-13.2245
-13.2245
-13.2245
-13.2245
-13.2245
-13.2245
-13.2245
-13.2245
-13.2245
-13.2245
-13.2245
-13.2244
-13.2245
-13.3699
-13.3699
-13.3699
-13.3699
-13.3699
-13.3699
-13.3699
-13.3699
-13.3699
-13.3699
-13.3699
-13.3699
-13.3699
-13.3699
-13.3699
-13.3699
-13.3699
-13.3699
-13.3699
-13.3699
-13.3699
-13.3699
-13.3699
-13.3699
-13.3699
-13.3698
-13.3698
-13.3698
-13.3698
-13.3698
-13.3698
-13.3698
-13.3698
-13.3698
-13.3699
-13.5152
-13.5152
-13.5152
-13.5152
-13.5152
-13.5152
-13.5152
-13.5152