/*--------------------------------*- C++ -*----------------------------------*\
  =========                 |
  \\      /  F ield         | OpenFOAM: The Open Source CFD Toolbox
   \\    /   O peration     | Website:  https://openfoam.org
    \\  /    A nd           | Version:  13
     \\/     M anipulation  |
\*---------------------------------------------------------------------------*/
FoamFile
{
    format      ascii;
    class       volScalarField;
    location    "7";
    object      p_rgh;
}
// * * * * * * * * * * * * * * * * * * * * * * * * * * * * * * * * * * * * * //

dimensions      [0 2 -2 0 0 0 0];

internalField   nonuniform List<scalar> 
78750
(
0.0737414
0.0737967
0.0736832
0.073478
0.0731512
0.0727261
0.0722246
0.0717435
0.0713286
0.0709918
0.0707257
0.0704193
0.0701143
0.0698818
0.0697235
0.0695737
0.0694366
0.0693129
0.0691997
0.0690938
0.0689925
0.0688923
0.0687903
0.0686814
0.0685625
0.0684275
0.0682785
0.0681077
0.0679259
0.0677048
0.0674982
0.0672985
0.0670324
0.0667278
0.0664025
0.072944
0.072495
0.0720615
0.0715758
0.0710586
0.0706056
0.0702049
0.0698156
0.0694727
0.0692486
0.0690903
0.068962
0.0688426
0.0687542
0.0687147
0.0687019
0.068697
0.0686901
0.0686747
0.0686457
0.0685987
0.0685275
0.0684241
0.0682774
0.0680713
0.0677873
0.067415
0.0669524
0.0663832
0.0656928
0.0648645
0.0639001
0.0628256
0.0616243
0.0603018
0.0740421
0.073261
0.0724864
0.0717425
0.0710533
0.0704361
0.0699607
0.0696141
0.0693505
0.0691603
0.0690334
0.0689537
0.0688958
0.0688452
0.0688077
0.0687749
0.0687415
0.0687031
0.0686549
0.0685908
0.0685034
0.0683814
0.0682093
0.0679692
0.0676405
0.0671913
0.0665965
0.0658249
0.0648432
0.0636242
0.0621543
0.0604364
0.0584966
0.0563609
0.0540643
0.0753762
0.0742918
0.0732614
0.0723056
0.0714546
0.0707331
0.0701408
0.0696735
0.0693176
0.069055
0.0688674
0.0687392
0.0686508
0.0685862
0.068536
0.068496
0.0684619
0.068426
0.068382
0.0683221
0.0682355
0.0681075
0.0679174
0.067637
0.067227
0.0666465
0.0658522
0.0648032
0.0634351
0.0617217
0.0596401
0.0571863
0.054402
0.0513451
0.0480926
0.0770622
0.0756738
0.074359
0.0731511
0.0720836
0.0711817
0.0704448
0.0698587
0.069409
0.069079
0.0688472
0.0686922
0.0685898
0.0685183
0.0684684
0.0684308
0.0683971
0.0683619
0.0683162
0.0682497
0.0681488
0.0679952
0.0677594
0.067406
0.0668906
0.0661593
0.0651466
0.0637958
0.0620351
0.0598181
0.0571213
0.0539474
0.0503433
0.0463888
0.0421949
0.0789598
0.0772651
0.0756633
0.0741966
0.0729033
0.0718049
0.0709054
0.0701932
0.0696465
0.0692409
0.0689506
0.0687499
0.0686124
0.0685137
0.0684419
0.068388
0.0683401
0.0682893
0.0682273
0.0681402
0.0680111
0.067814
0.0675174
0.0670788
0.0664388
0.065532
0.0642843
0.0626147
0.0604483
0.0577207
0.0544069
0.0505113
0.0460884
0.0412378
0.0360968
0.0808913
0.0788887
0.0769972
0.0752674
0.0737435
0.0724498
0.0713892
0.070549
0.0699056
0.0694296
0.0690899
0.0688566
0.0687
0.0685927
0.0685182
0.0684652
0.0684201
0.0683721
0.0683109
0.0682215
0.0680822
0.0678652
0.0675329
0.0670314
0.0662926
0.0652401
0.0637826
0.0618227
0.059274
0.0560615
0.0521458
0.0475384
0.0423025
0.036558
0.0304732
0.0829143
0.0806037
0.0784216
0.0764273
0.0746712
0.0731802
0.0719577
0.0709894
0.070248
0.0696991
0.0693061
0.0690347
0.0688519
0.0687278
0.0686429
0.068583
0.0685349
0.0684851
0.0684207
0.0683252
0.0681744
0.0679373
0.0675686
0.067007
0.0661732
0.0649756
0.0633097
0.0610633
0.0581316
0.0544288
0.0499104
0.0445869
0.0385343
0.0319011
0.0248826
0.0849684
0.0823492
0.0798754
0.0776145
0.0756236
0.0739329
0.0725464
0.071448
0.0706068
0.0699835
0.0695367
0.0692268
0.0690163
0.0688722
0.0687727
0.0687013
0.0686426
0.0685815
0.0685032
0.0683887
0.0682113
0.0679352
0.0675086
0.0668619
0.0659071
0.0645417
0.0626463
0.06009
0.0567593
0.0525494
0.04742
0.0413807
0.0345208
0.0270018
0.0190458
0.0870669
0.0841387
0.0813721
0.0788437
0.0766176
0.0747266
0.073176
0.0719473
0.0710058
0.0703081
0.0698068
0.0694569
0.0692164
0.0690495
0.0689322
0.0688458
0.0687726
0.0686961
0.0685989
0.0684593
0.0682484
0.0679253
0.0674311
0.0666886
0.0656012
0.0640566
0.0619203
0.0590453
0.0553095
0.0505983
0.0448608
0.0381088
0.030441
0.0220257
0.0131368
0.0892348
0.085998
0.0829397
0.0801457
0.0776861
0.0755966
0.073883
0.0725249
0.0714833
0.0707101
0.0701537
0.0697632
0.0694928
0.0693039
0.06917
0.06907
0.0689847
0.0688961
0.0687847
0.0686264
0.0683882
0.068024
0.0674698
0.0666403
0.0654294
0.0637118
0.0613467
0.0581701
0.0540321
0.0488218
0.0424766
0.0350096
0.0265217
0.0172305
0.00739328
0.0914434
0.0878976
0.0845467
0.0814853
0.0787921
0.0765053
0.0746303
0.0731446
0.0720052
0.0711582
0.0705487
0.0701217
0.0698271
0.0696231
0.0694803
0.0693749
0.0692859
0.0691938
0.0690777
0.0689112
0.0686582
0.0682683
0.0676717
0.0667754
0.0654629
0.0635977
0.061018
0.0575506
0.0530272
0.0473303
0.0403876
0.0322172
0.0229282
0.0127555
0.00197875
0.0937019
0.0898482
0.0862067
0.0828811
0.0799525
0.0774653
0.0754246
0.0738074
0.0725691
0.0716511
0.0709905
0.0705286
0.0702116
0.0699949
0.0698455
0.0697373
0.0696477
0.0695555
0.0694382
0.0692673
0.0690039
0.0685935
0.0679606
0.0670043
0.0655972
0.0635893
0.0608016
0.0570449
0.0521399
0.045953
0.0384102
0.0295225
0.0194389
0.00836336
-0.0033515
0.0959819
0.0918209
0.0878911
0.0843027
0.0811408
0.078455
0.0762529
0.0745066
0.0731682
0.0721763
0.0714635
0.0709652
0.0706239
0.0703917
0.0702326
0.0701183
0.0700241
0.0699275
0.0698038
0.0696224
0.0693412
0.0689011
0.0682202
0.0671896
0.0656719
0.0635027
0.0604918
0.0564336
0.051136
0.0444493
0.0362954
0.0266974
0.0157865
0.00382329
-0.00882832
0.0982721
0.0938012
0.0895761
0.0857176
0.0823249
0.0794451
0.0770824
0.0752116
0.0737782
0.0727144
0.0719505
0.071417
0.0710524
0.0708056
0.0706376
0.0705174
0.0704186
0.0703169
0.070186
0.0699928
0.0696919
0.0692203
0.0684904
0.0673849
0.0657564
0.0634275
0.0601931
0.0558333
0.0501438
0.0429665
0.0342145
0.0239162
0.0121966
-0.000652173
-0.014243
0.100614
0.0958346
0.091316
0.0871939
0.0835709
0.0804918
0.0779656
0.0759647
0.074433
0.0732978
0.0724824
0.0719137
0.0715264
0.0712663
0.0710912
0.0709675
0.0708671
0.0707641
0.0706303
0.0704305
0.0701164
0.0696202
0.0688484
0.0676757
0.0659436
0.0634625
0.0600112
0.0553547
0.0492748
0.0416022
0.0322435
0.0212115
0.008685
-0.00503387
-0.0195622
0.102969
0.0978818
0.0930782
0.0886939
0.0848324
0.0815511
0.0788614
0.0767289
0.0750963
0.0738854
0.0730167
0.0724112
0.0719992
0.071723
0.0715376
0.0714072
0.0713019
0.071194
0.0710537
0.0708433
0.0705115
0.0699865
0.0691685
0.0679243
0.0660852
0.0634466
0.0597744
0.0548197
0.0483496
0.0401835
0.0302239
0.0184921
0.00515267
-0.00946106
-0.02493
0.105308
0.0999133
0.0948172
0.090161
0.0860644
0.082589
0.0797408
0.0774843
0.075756
0.0744764
0.0735567
0.072917
0.0724832
0.0721941
0.0720016
0.0718674
0.0717597
0.0716495
0.0715048
0.0712861
0.0709387
0.0703864
0.0695235
0.0682084
0.0662617
0.0634664
0.0595736
0.0543198
0.0474583
0.0387947
0.0282245
0.0157775
0.00161939
-0.0138899
-0.0302924
0.107669
0.101969
0.0965749
0.0916539
0.0873274
0.0836534
0.0806408
0.0782579
0.0764308
0.0750788
0.0741085
0.0734329
0.0729755
0.0726718
0.0724703
0.0723305
0.0722186
0.0721039
0.0719533
0.0717246
0.0713603
0.0707798
0.0698716
0.0684859
0.066432
0.0634807
0.0593688
0.0538173
0.0465642
0.0374019
0.0262234
0.0130577
-0.00189858
-0.0182965
-0.035644
0.110048
0.104037
0.0983577
0.0931759
0.0886146
0.0847409
0.0815645
0.0790492
0.0771245
0.0756959
0.0746718
0.0739595
0.0734772
0.0731571
0.0729453
0.0727989
0.0726823
0.0725629
0.0724053
0.0721651
0.0717818
0.0711704
0.0702134
0.0687531
0.0665891
0.0634781
0.0591436
0.0532918
0.0456497
0.036002
0.0242347
0.0103806
-0.00537212
-0.0226367
-0.0409155
0.112416
0.1061
0.100131
0.0946817
0.089886
0.0858138
0.0824756
0.07983
0.0778063
0.0763083
0.075233
0.0744848
0.0739785
0.0736427
0.0734211
0.0732684
0.0731475
0.073024
0.0728609
0.0726114
0.072212
0.0715732
0.0705713
0.0690406
0.0667696
0.0635026
0.0589473
0.0527963
0.0447579
0.0346025
0.0222175
0.00763053
-0.00894978
-0.0271099
-0.0463074
0.114778
0.108151
0.101887
0.0961731
0.0911449
0.0868752
0.0833754
0.0806028
0.078478
0.0769049
0.0757769
0.0749909
0.0744586
0.0741055
0.0738718
0.0737104
0.0735822
0.0734511
0.0732783
0.073015
0.0725944
0.071923
0.0708711
0.0692647
0.0668822
0.0634552
0.058678
0.0522264
0.0437935
0.0331474
0.0201624
0.00487128
-0.0125196
-0.0315795
-0.0517384
0.11711
0.110175
0.103625
0.0976466
0.0923881
0.0879203
0.0842571
0.0813554
0.0791343
0.077488
0.0763072
0.0754861
0.0749298
0.0745609
0.0743171
0.0741488
0.074015
0.0738783
0.0736978
0.0734222
0.0729817
0.0722782
0.0711758
0.0694925
0.0669965
0.0634081
0.0584077
0.0516554
0.0428379
0.0317049
0.0181217
0.00212853
-0.0160444
-0.0359663
-0.0570546
0.119452
0.112208
0.105361
0.0991144
0.0936186
0.0889523
0.0851244
0.082094
0.079774
0.0780567
0.076825
0.0759686
0.0753891
0.0750051
0.0747518
0.0745773
0.074439
0.0742976
0.0741107
0.0738248
0.0733669
0.0726347
0.0714864
0.0697315
0.0671279
0.0633826
0.0581606
0.0511099
0.0418964
0.0302584
0.0160645
-0.000666233
-0.0196647
-0.0404908
-0.0625079
0.121804
0.114253
0.107116
0.1006
0.0948657
0.0900008
0.0860155
0.0828579
0.0804396
0.0786474
0.0773613
0.0764662
0.0758599
0.0754574
0.0751908
0.0750064
0.0748596
0.0747093
0.0745113
0.0742099
0.0737288
0.0729613
0.0717596
0.0699253
0.0672068
0.063299
0.0578529
0.050499
0.04089
0.0287552
0.0139565
-0.00345898
-0.0232668
-0.044982
-0.0679536
0.124168
0.116309
0.108883
0.102104
0.0961394
0.0910715
0.0869172
0.0836274
0.0811065
0.0792386
0.0778983
0.0769657
0.0763337
0.0759131
0.0756341
0.0754405
0.0752861
0.0751281
0.0749203
0.0746049
0.0741024
0.0733016
0.0720488
0.0701375
0.0673056
0.0632364
0.0575668
0.0499118
0.0399129
0.0272937
0.0118979
-0.00623083
-0.0268346
-0.0494133
-0.0733128
0.126485
0.118319
0.1106
0.103555
0.097356
0.0920922
0.0877734
0.0843562
0.0817408
0.0798045
0.0784143
0.0774462
0.0767901
0.0763541
0.0760651
0.0758649
0.0757051
0.0755416
0.0753262
0.0749988
0.0744769
0.073645
0.0723431
0.070357
0.0674145
0.0631855
0.0572931
0.049338
0.0389471
0.0258249
0.00981362
-0.00905321
-0.03049
-0.0539552
-0.0787821
0.128796
0.12032
0.112306
0.104997
0.0985675
0.093107
0.0886334
0.0850881
0.0823754
0.0803656
0.0789242
0.0779213
0.0772428
0.0767934
0.0764964
0.0762914
0.0761284
0.0759614
0.0757407
0.0754039
0.0748654
0.0740054
0.0726579
0.0706005
0.0675503
0.0631647
0.0570529
0.0488008
0.0380167
0.0243976
0.00778552
-0.0117687
-0.0340024
-0.0583773
-0.084153
0.131149
0.122365
0.114064
0.106487
0.0998211
0.0941613
0.0895227
0.0858473
0.0830333
0.0809482
0.0794528
0.0784126
0.0777086
0.0772423
0.0769344
0.0767224
0.0765541
0.0763817
0.0761538
0.0758056
0.0752486
0.0743587
0.072964
0.070834
0.0676753
0.0631327
0.0568002
0.0482483
0.0370767
0.0229688
0.00576401
-0.0144985
-0.0375345
-0.0627842
-0.0895056
0.13348
0.124388
0.115791
0.10795
0.101051
0.0951953
0.0903936
0.0865927
0.0836805
0.0815248
0.0799785
0.0789021
0.078173
0.077689
0.0773688
0.0771477
0.0769719
0.076792
0.0765548
0.0761931
0.0756152
0.0746924
0.0732471
0.0710409
0.0677698
0.0630661
0.0565101
0.0476575
0.0360896
0.0214802
0.00366146
-0.017335
-0.0411754
-0.0673213
-0.0949828
0.135805
0.12641
0.117528
0.109419
0.102286
0.0962286
0.091261
0.0873253
0.084314
0.0820821
0.0804814
0.0793673
0.0786122
0.0781108
0.0777789
0.077549
0.0773661
0.0771788
0.076932
0.0765563
0.0759567
0.0750004
0.0735028
0.0712175
0.0678311
0.0629648
0.0561837
0.0470274
0.0350678
0.0199716
0.00155154
-0.020127
-0.0447834
-0.071805
-0.100393
0.138139
0.12843
0.119255
0.110885
0.103519
0.097263
0.092134
0.0880719
0.0849602
0.0826543
0.0809986
0.0798472
0.079068
0.0785519
0.0782112
0.0779764
0.0777901
0.0775996
0.0773479
0.0769634
0.0763482
0.0753651
0.0738239
0.07147
0.0679792
0.0629576
0.0559569
0.0465041
0.034154
0.0185588
-0.000465462
-0.0228667
-0.0483236
-0.0762194
-0.105738
0.140444
0.130426
0.120959
0.112317
0.104713
0.0982576
0.0929668
0.0887786
0.0855715
0.083196
0.0814926
0.0803072
0.0795055
0.0789746
0.0786245
0.0783837
0.0781929
0.0779978
0.0777397
0.0773449
0.0767124
0.0757009
0.0741144
0.0716901
0.0680929
0.0629166
0.0556989
0.0459507
0.0332123
0.017124
-0.00250241
-0.0256354
-0.0519205
-0.0807174
-0.111173
0.142763
0.132437
0.122675
0.113769
0.105934
0.0992778
0.0938215
0.0894987
0.0861904
0.0837401
0.0819833
0.0807609
0.0799332
0.0793841
0.0790209
0.0787699
0.0785701
0.0783655
0.0780954
0.0776837
0.0770262
0.0759767
0.074333
0.071824
0.0681057
0.0627598
0.0553112
0.0452556
0.0321154
0.0155224
-0.0047053
-0.028509
-0.0555834
-0.0852637
-0.116656
0.145041
0.134411
0.124361
0.115193
0.107127
0.100278
0.0946616
0.0902127
0.0868071
0.0842833
0.0824719
0.0812124
0.0803596
0.0797944
0.0794208
0.079163
0.0789581
0.0787484
0.0784714
0.0780488
0.0773732
0.0762941
0.0746034
0.0720221
0.0681947
0.0626913
0.0550219
0.044665
0.0311376
0.0140577
-0.00677624
-0.0313091
-0.0591902
-0.0897604
-0.122089
0.147351
0.136408
0.126068
0.11663
0.108323
0.101274
0.0954962
0.0909219
0.0874182
0.084823
0.0829609
0.0816651
0.0807885
0.0802078
0.0798248
0.079561
0.0793516
0.0791372
0.0788536
0.0784203
0.0777267
0.0766184
0.0748812
0.0722282
0.068294
0.0626364
0.0547484
0.0440973
0.0301808
0.0126032
-0.00884476
-0.0341152
-0.0628152
-0.0942557
-0.127517
0.149654
0.138401
0.127765
0.118062
0.109525
0.102277
0.0963354
0.0916279
0.0880226
0.0853538
0.0834401
0.0821083
0.0812068
0.0806092
0.0802145
0.0799423
0.0797262
0.0795051
0.0792132
0.0787675
0.0780544
0.0769151
0.0751291
0.0724012
0.0683556
0.0625364
0.0544256
0.0434729
0.0291584
0.0110895
-0.0109505
-0.0369103
-0.0664312
-0.0987772
-0.132976
0.151922
0.140368
0.129448
0.119482
0.110717
0.10327
0.0971654
0.092331
0.0886293
0.0858877
0.0839206
0.0825517
0.0816247
0.0810099
0.0806037
0.0803233
0.0801008
0.0798734
0.0795733
0.0791153
0.0783828
0.0772122
0.0753772
0.0725746
0.0684184
0.0624414
0.0541089
0.0428553
0.0281536
0.00958856
-0.0130552
-0.039714
-0.0700201
-0.103232
-0.138381
0.154206
0.142339
0.131124
0.120886
0.111879
0.104232
0.0979621
0.0929997
0.0892021
0.0863879
0.0843688
0.0829639
0.0820135
0.081384
0.0809686
0.0806822
0.0804547
0.0802219
0.079914
0.0794438
0.0786916
0.0774897
0.0756055
0.0727279
0.0684608
0.0623223
0.0537661
0.0422124
0.0271154
0.00804854
-0.0152114
-0.0426027
-0.0737308
-0.10784
-0.143929
0.15648
0.144304
0.132797
0.122295
0.113057
0.105216
0.0987876
0.0936941
0.0897933
0.0869026
0.0848297
0.0833878
0.0824121
0.0817659
0.0813393
0.0810454
0.080812
0.0805733
0.0802579
0.0797758
0.0790045
0.0777718
0.0758395
0.0728884
0.0685111
0.0622155
0.0534388
0.041586
0.0260992
0.00654183
-0.0173093
-0.0454006
-0.0773394
-0.112331
-0.149358
0.158734
0.14625
0.13445
0.12369
0.114222
0.106182
0.09959
0.0943686
0.0903705
0.0874083
0.0852838
0.0838057
0.0828045
0.0821403
0.0817017
0.0813992
0.0811592
0.0809136
0.0805892
0.0800939
0.0793017
0.0780363
0.0760531
0.0730249
0.0685351
0.0620777
0.0530773
0.0409224
0.0250406
0.0049887
-0.0194707
-0.0482777
-0.0810025
-0.116868
-0.154814
0.160968
0.148177
0.13609
0.125058
0.115352
0.107111
0.100354
0.095004
0.0909093
0.0878779
0.0857028
0.0841892
0.083164
0.0824843
0.0820354
0.0817258
0.0814799
0.0812281
0.0808953
0.0803873
0.0795748
0.0782772
0.0762437
0.0731388
0.0685363
0.0619173
0.0526928
0.0402382
0.0239645
0.00341942
-0.0216468
-0.0511636
-0.0847271
-0.121503
-0.160394
0.163249
0.150149
0.137767
0.126468
0.116525
0.108079
0.101159
0.0956789
0.0914832
0.0883753
0.0861461
0.0845959
0.0835475
0.0828532
0.0823956
0.0820805
0.0818307
0.081575
0.0812367
0.0807192
0.0798905
0.0785654
0.0764874
0.0733131
0.0686044
0.0618312
0.0523869
0.0396321
0.0229689
0.0019244
-0.0237454
-0.0539735
-0.0883225
-0.125979
-0.165827
0.165491
0.15208
0.139405
0.127842
0.117668
0.10903
0.101948
0.0963382
0.0920435
0.088862
0.0865798
0.084992
0.083919
0.0832093
0.0827412
0.0824191
0.0821638
0.0819025
0.0815567
0.0810275
0.0801798
0.078824
0.0766979
0.0734496
0.0686309
0.0616987
0.0520343
0.0389817
0.0219232
0.000379361
-0.0258948
-0.0568447
-0.0920205
-0.130531
-0.171307
0.167713
0.153998
0.14104
0.129211
0.118803
0.109969
0.102726
0.0969896
0.0925965
0.0893415
0.0870066
0.0853814
0.0842802
0.0835496
0.0830667
0.0827334
0.0824686
0.0821978
0.0818405
0.0812955
0.0804245
0.0790336
0.076854
0.0735259
0.0685918
0.0614955
0.0516057
0.0382514
0.0208052
-0.00121966
-0.0280873
-0.0597247
-0.095705
-0.135152
-0.176878
0.169957
0.15593
0.142669
0.130576
0.119941
0.110908
0.103501
0.0976337
0.0931425
0.0898149
0.0874268
0.0857653
0.0846407
0.0838953
0.0834036
0.0830649
0.0827963
0.0825218
0.0821589
0.0816043
0.0807165
0.0792972
0.0770719
0.0736728
0.068631
0.0613794
0.0512692
0.0376153
0.0197771
-0.00274748
-0.0302223
-0.0625761
-0.0993388
-0.139643
-0.182278
0.172152
0.15782
0.144283
0.131923
0.121046
0.111809
0.104239
0.0982442
0.0936532
0.0902548
0.0878168
0.0861205
0.0849729
0.0842132
0.0837119
0.0833665
0.0830923
0.0828116
0.0824403
0.0818729
0.0809647
0.0795133
0.0772381
0.073763
0.0686092
0.0611961
0.0508632
0.0369093
0.0186724
-0.00435558
-0.032441
-0.0655129
-0.103104
-0.1443
-0.187876
0.174376
0.159735
0.145897
0.133267
0.122154
0.11272
0.104987
0.0988664
0.0941792
0.0907073
0.0882173
0.0864844
0.0853116
0.0845345
0.0840213
0.0836672
0.0833856
0.0830971
0.0827158
0.0821338
0.0812034
0.0797176
0.0773896
0.0738355
0.0685679
0.0609925
0.0504357
0.0361792
0.0175559
-0.00595844
-0.0346425
-0.0684277
-0.106828
-0.148897
-0.19341
0.176602
0.161653
0.14752
0.134625
0.123285
0.113657
0.105762
0.0995088
0.0947212
0.0911733
0.0886297
0.0868605
0.0856627
0.0848689
0.0843449
0.0839837
0.0836968
0.0834033
0.0830153
0.0824226
0.0814743
0.0799591
0.0775842
0.073958
0.0685812
0.0608482
0.0500684
0.0355132
0.0164932
-0.00752276
-0.0368168
-0.0713147
-0.110535
-0.153495
-0.198949
0.178834
0.163573
0.14916
0.136003
0.124427
0.114595
0.106536
0.100152
0.0952667
0.091647
0.0890493
0.0872417
0.0860181
0.0852072
0.0846718
0.0843028
0.08401
0.0837105
0.0833145
0.0827097
0.0817422
0.0801965
0.0777739
0.0740743
0.0685885
0.0606988
0.0496995
0.034842
0.0154291
-0.00908292
-0.0389901
-0.0742046
-0.114225
-0.158091
-0.204484
0.181042
0.16548
0.150774
0.137354
0.125544
0.115516
0.107294
0.10078
0.0957915
0.0920975
0.0894473
0.0876023
0.0863531
0.0855254
0.0849788
0.0846021
0.0843031
0.0839975
0.0835939
0.0829775
0.0819912
0.0804151
0.0779446
0.0741716
0.0685762
0.0605266
0.0493062
0.034156
0.0143615
-0.0106337
-0.0411189
-0.0770344
-0.117861
-0.16263
-0.209975
0.183245
0.16737
0.152364
0.138677
0.126635
0.116407
0.108024
0.101385
0.0963014
0.092534
0.0898315
0.087952
0.0866799
0.0858367
0.0852798
0.0848957
0.0845908
0.0842788
0.0838668
0.0832378
0.0822318
0.0806243
0.0781044
0.0742559
0.0685489
0.0603397
0.0488961
0.0334408
0.0132464
-0.0122529
-0.0433566
-0.0799825
-0.121623
-0.167231
-0.215494
0.185434
0.169253
0.153965
0.140007
0.127727
0.117298
0.10875
0.101979
0.0967984
0.0929618
0.0902079
0.0882909
0.0869929
0.0861322
0.0855636
0.0851714
0.08486
0.0845414
0.0841208
0.0834789
0.0824523
0.0808123
0.0782419
0.0743168
0.0684972
0.0601275
0.04846
0.0327034
0.0121116
-0.0138885
-0.0456041
-0.0829492
-0.125382
-0.171897
-0.2211
0.18764
0.171143
0.155554
0.14133
0.128815
0.118193
0.109483
0.102584
0.0973004
0.0933887
0.0905829
0.0886295
0.0873069
0.0864305
0.0858518
0.0854526
0.0851355
0.084811
0.0843824
0.0837279
0.0826814
0.0810097
0.0783899
0.07439
0.0684596
0.0599295
0.0480405
0.0319853
0.0110132
-0.0154654
-0.0477642
-0.0858128
-0.129062
-0.176448
-0.22658
0.189828
0.173021
0.157148
0.142659
0.129912
0.119088
0.110216
0.103188
0.0978068
0.0938195
0.0909603
0.0889719
0.0876259
0.0867336
0.0861442
0.0857374
0.0854142
0.0850833
0.0846463
0.0839793
0.0829128
0.0812094
0.0785401
0.0744646
0.0684226
0.0597335
0.0476217
0.0312648
0.00989097
-0.0171016
-0.0500192
-0.0887889
-0.132863
-0.181121
-0.232184
0.192003
0.174889
0.158722
0.143969
0.130989
0.119966
0.110932
0.103779
0.0983049
0.0942468
0.0913344
0.0893071
0.0879339
0.0870226
0.0864199
0.0860033
0.0856717
0.0853322
0.0848843
0.0842019
0.0831123
0.0813736
0.0786507
0.0744955
0.0683382
0.0594851
0.0471471
0.0304876
0.00871961
-0.0187618
-0.0522854
-0.0917453
-0.136598
-0.18579
-0.237818
0.194206
0.176784
0.160329
0.145312
0.132099
0.120883
0.111684
0.104398
0.0988194
0.0946889
0.091725
0.0896615
0.0882636
0.0873364
0.0867237
0.0863007
0.0859644
0.0856203
0.0851661
0.0844734
0.0833667
0.0815995
0.0788305
0.0746036
0.0683389
0.059331
0.0467748
0.029818
0.00766557
-0.0203036
-0.0544222
-0.0946121
-0.140294
-0.19034
-0.243297
0.196401
0.17868
0.161934
0.146652
0.133202
0.121779
0.112415
0.104996
0.0993167
0.0951106
0.0920928
0.0899942
0.0885749
0.0876346
0.0870138
0.0865862
0.0862469
0.0858997
0.0854408
0.0847395
0.0836173
0.0818235
0.0790109
0.0747148
0.0683438
0.0591789
0.0464023
0.0291471
0.00660447
-0.0218632
-0.0565856
-0.0974763
-0.143981
-0.194942
-0.248846
0.198573
0.180548
0.163508
0.147952
0.134269
0.122652
0.11313
0.105589
0.0998147
0.0955374
0.0924694
0.0903344
0.0888888
0.0879314
0.0872992
0.0868632
0.0865169
0.0861625
0.0856943
0.0849791
0.0838349
0.082007
0.0791425
0.0747688
0.0682839
0.0589568
0.0459549
0.0283977
0.00545671
-0.0235147
-0.0588542
-0.100471
-0.147742
-0.199539
-0.254332
0.200768
0.182429
0.165095
0.149278
0.135364
0.123551
0.113869
0.1062
0.100327
0.0959769
0.0928563
0.0906855
0.0892162
0.0882431
0.0876013
0.0871592
0.0868085
0.0864498
0.0859754
0.0852505
0.0840898
0.0822339
0.0793235
0.0748782
0.0682859
0.0588022
0.045581
0.0277263
0.00439691
-0.0250564
-0.0609841
-0.103302
-0.151405
-0.204141
-0.25992
0.202977
0.184324
0.166697
0.150617
0.136466
0.124449
0.114597
0.106795
0.100822
0.0963975
0.093225
0.0910166
0.0895219
0.0885317
0.0878784
0.0874282
0.087071
0.0867057
0.0862229
0.0854848
0.0843036
0.0824155
0.0794557
0.0749355
0.0682323
0.0585891
0.0451449
0.0269864
0.00326029
-0.0266909
-0.0632146
-0.106226
-0.155125
-0.208709
-0.265417
0.205143
0.186196
0.168288
0.151936
0.137552
0.125338
0.115325
0.107396
0.101327
0.0968284
0.0936011
0.0913562
0.0898372
0.0888315
0.0881681
0.0877111
0.0873484
0.0869772
0.0864862
0.0857357
0.0845345
0.0826145
0.0796046
0.0750083
0.0681931
0.0583889
0.0447201
0.0262629
0.00215066
-0.0282965
-0.065445
-0.109187
-0.158907
-0.213377
-0.270996
0.207331
0.188067
0.169855
0.153241
0.138628
0.12622
0.116047
0.107989
0.101821
0.0972529
0.0939748
0.0916954
0.0901532
0.0891324
0.0884594
0.0879963
0.0876294
0.0872543
0.0867579
0.0859985
0.0847821
0.0828362
0.0797834
0.0751188
0.0681986
0.05824
0.0443537
0.0256005
0.00109587
-0.029849
-0.0675963
-0.112054
-0.162579
-0.217966
-0.276549
0.209529
0.18995
0.171449
0.154575
0.139724
0.127112
0.116773
0.108584
0.102312
0.0976682
0.0943373
0.0920196
0.0904511
0.0894117
0.0887257
0.0882531
0.0878782
0.087495
0.0869886
0.0862146
0.0849759
0.0829957
0.0798908
0.0751486
0.0681151
0.0579948
0.0438855
0.0248277
-7.23999e-05
-0.0315066
-0.0698538
-0.11502
-0.166364
-0.222616
-0.282109
0.211684
0.191805
0.173018
0.155868
0.14078
0.127973
0.117473
0.109161
0.102796
0.0980797
0.0946959
0.0923406
0.0907462
0.0896893
0.0889915
0.0885102
0.0881279
0.0877367
0.0872199
0.0864309
0.0851691
0.0831532
0.0799939
0.0751704
0.0680207
0.057737
0.0434015
0.0240422
-0.00125202
-0.0331956
-0.0721575
-0.118042
-0.170176
-0.227341
-0.287807
0.213822
0.19363
0.174551
0.157146
0.141831
0.128826
0.118164
0.109718
0.103254
0.0984653
0.095029
0.0926368
0.0910175
0.089944
0.0892348
0.0887452
0.088356
0.0879575
0.0874312
0.0866284
0.0853454
0.0832966
0.0800866
0.0751869
0.0679226
0.057478
0.0429196
0.0232585
-0.00243024
-0.0348636
-0.074431
-0.121024
-0.17399
-0.23201
-0.293394
0.216022
0.195522
0.176147
0.158468
0.142914
0.129703
0.118876
0.110301
0.103736
0.0988714
0.0953839
0.0929577
0.0913147
0.0902258
0.0895066
0.0890102
0.0886155
0.0882114
0.0876775
0.0868626
0.08556
0.0834798
0.0802206
0.0752456
0.067873
0.0572688
0.042487
0.0225271
-0.00355107
-0.0364742
-0.0766285
-0.123922
-0.177684
-0.23661
-0.298938
0.218211
0.197401
0.177734
0.159793
0.144006
0.130601
0.119609
0.110903
0.10424
0.0993071
0.0957662
0.093302
0.0916338
0.0905284
0.0897982
0.0892945
0.0888944
0.0884849
0.087944
0.0871183
0.0857979
0.0836886
0.0803829
0.0753362
0.0678548
0.0570935
0.0420911
0.0218315
-0.00463335
-0.0380506
-0.0788133
-0.126811
-0.181352
-0.241166
-0.304436
0.220364
0.199259
0.179312
0.161103
0.145081
0.13148
0.12033
0.111501
0.104736
0.0997253
0.0961313
0.0936296
0.0919348
0.0908105
0.0900676
0.0895543
0.0891461
0.0887285
0.0881775
0.0873374
0.0859953
0.0838525
0.0804954
0.0753716
0.0677782
0.0568579
0.0416331
0.0210746
-0.00578647
-0.0396968
-0.0810681
-0.129806
-0.185202
-0.245886
-0.310065
0.222563
0.20114
0.180894
0.162417
0.146163
0.132362
0.121047
0.112086
0.105225
0.100141
0.0964944
0.0939577
0.0922414
0.0911041
0.0903533
0.0898357
0.0894246
0.089004
0.0884482
0.0875992
0.0862408
0.0840701
0.0806676
0.0754724
0.0677704
0.0566899
0.0412406
0.0203783
-0.00687325
-0.0412868
-0.0832644
-0.132687
-0.188868
-0.250445
-0.315599
0.224761
0.203027
0.182485
0.163746
0.147257
0.133253
0.121771
0.11268
0.105723
0.10057
0.0968713
0.0942971
0.0925546
0.0914004
0.0906389
0.0901144
0.0896987
0.0892737
0.0887119
0.087853
0.0864781
0.0842798
0.0808327
0.0755676
0.0677594
0.0565247
0.0408595
0.0197032
-0.00794397
-0.0428513
-0.0854264
-0.135563
-0.192547
-0.255037
-0.321138
0.226906
0.204871
0.184045
0.165037
0.148314
0.134115
0.122477
0.113259
0.1062
0.100972
0.0972219
0.0946117
0.0928443
0.0916732
0.0909
0.0903667
0.0899431
0.0895095
0.0889368
0.0880626
0.0866644
0.0844308
0.08093
0.0755849
0.0676617
0.0562632
0.0403727
0.0189121
-0.0091188
-0.0445054
-0.0876746
-0.13852
-0.196313
-0.259647
-0.326677
0.229047
0.206697
0.185577
0.16631
0.14936
0.134966
0.123168
0.113823
0.10667
0.10137
0.0975686
0.0949243
0.0931347
0.0919493
0.0911677
0.0906293
0.0902024
0.0897656
0.089188
0.0883047
0.0868904
0.0846291
0.0810831
0.0756674
0.0676354
0.0560806
0.0399676
0.0182097
-0.0102142
-0.0461074
-0.0898961
-0.141456
-0.200071
-0.264304
-0.33224
0.231263
0.208614
0.187205
0.167668
0.150477
0.13588
0.12391
0.114428
0.107169
0.101794
0.0979385
0.0952546
0.0934384
0.092235
0.0914405
0.0908927
0.0904578
0.090013
0.0894253
0.0885276
0.0870916
0.0847968
0.0811995
0.0757066
0.0675631
0.0558479
0.0395126
0.0174516
-0.0113763
-0.0477849
-0.0921834
-0.144469
-0.203871
-0.268983
-0.337856
0.233428
0.210465
0.188767
0.16896
0.151535
0.136738
0.12461
0.115006
0.10765
0.1022
0.0982905
0.0955686
0.0937242
0.0925007
0.091692
0.0911333
0.0906889
0.0902342
0.0896345
0.0887203
0.08726
0.0849287
0.0812765
0.0757026
0.0674432
0.0555631
0.0390027
0.0166375
-0.012584
-0.0494617
-0.0944463
-0.147435
-0.207674
-0.273674
-0.343494
0.235558
0.212286
0.190287
0.170217
0.15256
0.137568
0.125278
0.115548
0.108099
0.10258
0.0986208
0.0958656
0.0940004
0.0927643
0.0919481
0.0913851
0.090938
0.0904804
0.0898757
0.0889524
0.0874758
0.0851167
0.0814194
0.0757751
0.0674074
0.0553727
0.0385922
0.0159334
-0.0136622
-0.0510334
-0.0966286
-0.150323
-0.211363
-0.278256
-0.349038
0.237745
0.214162
0.191876
0.171539
0.153645
0.138452
0.125996
0.116132
0.10858
0.102985
0.0989722
0.09618
0.0942898
0.0930375
0.0922107
0.0916404
0.0911872
0.0907235
0.0901108
0.0891751
0.0876784
0.0852877
0.0815408
0.0758211
0.0673428
0.055147
0.0381428
0.015177
-0.0148342
-0.0527318
-0.0989439
-0.153349
-0.215168
-0.282905
-0.354583
0.239916
0.216023
0.193438
0.172834
0.154711
0.139321
0.126703
0.11671
0.109058
0.103391
0.0993245
0.0964951
0.0945787
0.0933083
0.092469
0.0918894
0.0914283
0.0909561
0.0903327
0.0893823
0.087864
0.085439
0.0816397
0.0758413
0.067249
0.054892
0.0376648
0.014404
-0.01598
-0.05434
-0.101139
-0.156265
-0.21894
-0.287621
-0.360237
0.242039
0.217853
0.194997
0.174136
0.155782
0.140194
0.127414
0.117292
0.109543
0.103803
0.0996862
0.0968206
0.0948817
0.0935976
0.0927504
0.0921665
0.0917031
0.0912289
0.0906019
0.0896435
0.0881098
0.0856587
0.0818165
0.0759498
0.0672519
0.0547387
0.037291
0.0137294
-0.0170511
-0.0559194
-0.103329
-0.159161
-0.222617
-0.292135
-0.36567
0.24425
0.219745
0.196588
0.175456
0.156862
0.141072
0.128128
0.117875
0.110024
0.10421
0.100039
0.097138
0.0951738
0.0938729
0.0930145
0.0924229
0.0919534
0.0914732
0.0908384
0.0898686
0.0883166
0.0858357
0.0819459
0.0760061
0.0671998
0.0545286
0.0368593
0.0129984
-0.0181784
-0.0575426
-0.105563
-0.162114
-0.226397
-0.296851
-0.371383
0.246411
0.221596
0.19815
0.176751
0.157919
0.141931
0.128827
0.118452
0.110506
0.104621
0.100398
0.097458
0.0954678
0.0941487
0.0932777
0.092677
0.0922002
0.0917124
0.0910681
0.0900843
0.0885107
0.0859963
0.0820551
0.076038
0.0671168
0.0542856
0.0363951
0.0122303
-0.019343
-0.0591942
-0.107803
-0.165055
-0.230122
-0.301435
-0.376913
0.248569
0.223453
0.199708
0.178035
0.158976
0.142797
0.12953
0.119022
0.110977
0.105018
0.100744
0.0977693
0.0957553
0.0944207
0.0935396
0.0929317
0.0924489
0.0919548
0.0913021
0.0903053
0.0887111
0.0861641
0.0821722
0.0760782
0.0670454
0.0540513
0.0359344
0.0114691
-0.0204837
-0.0608323
-0.110057
-0.168028
-0.233894
-0.306035
-0.382423
0.250718
0.225287
0.201253
0.179328
0.160037
0.143652
0.130221
0.119584
0.111438
0.105406
0.101078
0.0980672
0.0960298
0.0946804
0.0937902
0.0931769
0.0926902
0.0921925
0.0915344
0.0905286
0.0889187
0.086345
0.0823089
0.0761454
0.0670076
0.0538601
0.0355248
0.0107682
-0.0215753
-0.0624254
-0.112248
-0.170938
-0.237655
-0.310785
-0.388114
0.252882
0.227142
0.202825
0.180632
0.1611
0.144517
0.130919
0.120154
0.111911
0.105806
0.101425
0.0983767
0.0963127
0.0949449
0.0940419
0.0934195
0.0929253
0.0924199
0.0917524
0.0907329
0.0891019
0.0864952
0.0824089
0.0761694
0.0669181
0.0536086
0.0350505
0.00998739
-0.0227642
-0.064104
-0.114526
-0.173894
-0.241386
-0.315358
-0.393612
0.255011
0.228973
0.204351
0.181883
0.162119
0.14534
0.131587
0.120694
0.112354
0.106173
0.10174
0.0986558
0.0965687
0.0951869
0.0942751
0.0936464
0.0931471
0.092636
0.0919602
0.0909277
0.0892759
0.0866362
0.0824986
0.0761815
0.0668165
0.0533452
0.0345634
0.00919748
-0.0239328
-0.0657628
-0.116792
-0.176885
-0.245189
-0.320047
-0.39924
0.257153
0.230792
0.205878
0.18316
0.16317
0.146191
0.132272
0.121249
0.112809
0.106559
0.102075
0.0989556