/*--------------------------------*- C++ -*----------------------------------*\
  =========                 |
  \\      /  F ield         | OpenFOAM: The Open Source CFD Toolbox
   \\    /   O peration     | Website:  https://openfoam.org
    \\  /    A nd           | Version:  13
     \\/     M anipulation  |
\*---------------------------------------------------------------------------*/
FoamFile
{
    format      ascii;
    class       surfaceScalarField;
    location    "7";
    object      phi;
}
// * * * * * * * * * * * * * * * * * * * * * * * * * * * * * * * * * * * * * //

dimensions      [0 3 -1 0 0 0 0];

internalField   nonuniform List<scalar> 
228225
(
-3.72885e-06
-1.57169e-06
-8.19382e-09
4.5312e-07
-4.21992e-06
3.38972e-08
5.4062e-06
-4.97889e-06
2.20927e-08
1.03105e-05
-4.93608e-06
2.91808e-08
1.47368e-05
-4.48709e-06
5.8567e-08
1.85685e-05
-3.92445e-06
9.08036e-08
2.17839e-05
-3.33732e-06
1.20122e-07
2.43225e-05
-2.67947e-06
1.38995e-07
2.61517e-05
-1.97629e-06
1.4475e-07
2.71462e-05
-1.10545e-06
1.08643e-07
2.7612e-05
-5.35555e-07
6.80594e-08
2.77923e-05
-2.1703e-07
3.52764e-08
2.78223e-05
-4.12948e-08
9.70109e-09
2.76633e-05
1.66464e-07
-9.4968e-09
2.73005e-05
3.89798e-07
-2.93029e-08
2.67909e-05
5.56655e-07
-4.95557e-08
2.62044e-05
6.43743e-07
-6.0009e-08
2.55963e-05
6.6393e-07
-5.88389e-08
2.50085e-05
6.37078e-07
-5.24889e-08
2.44653e-05
5.84149e-07
-4.43768e-08
2.39746e-05
5.21384e-07
-3.42278e-08
2.35344e-05
4.58898e-07
-2.23118e-08
2.31372e-05
4.03206e-07
-9.82088e-09
2.27678e-05
3.63003e-07
2.73068e-09
2.23926e-05
3.55623e-07
1.57988e-08
2.1958e-05
4.01633e-07
2.91767e-08
2.14045e-05
5.07475e-07
4.20906e-08
2.06477e-05
6.97637e-07
5.47717e-08
1.96052e-05
9.70708e-07
6.70692e-08
1.81098e-05
1.40862e-06
8.16507e-08
1.60499e-05
1.96147e-06
9.30335e-08
1.31313e-05
2.80866e-06
1.03865e-07
9.19134e-06
3.8191e-06
1.10336e-07
4.35618e-06
4.71645e-06
1.05636e-07
4.29345e-06
6.2241e-08
1.35536e-06
-2.97856e-06
4.28028e-08
3.49101e-06
-6.44168e-06
7.95713e-08
5.53825e-06
-7.13924e-06
1.08226e-07
7.42305e-06
-6.93197e-06
1.058e-07
9.06256e-06
-6.24508e-06
1.1243e-07
1.02787e-05
-5.27044e-06
1.23984e-07
1.09917e-05
-4.19215e-06
1.36417e-07
1.1308e-05
-3.15296e-06
1.51122e-07
1.12612e-05
-2.10595e-06
1.69037e-07
1.10847e-05
-1.11885e-06
1.82483e-07
1.07752e-05
-4.03843e-07
1.72365e-07
1.04677e-05
-6.72694e-08
1.5389e-07
1.01974e-05
8.94007e-08
1.36252e-07
1.00824e-05
1.5575e-07
1.21835e-07
1.01559e-05
1.93907e-07
1.17377e-07
1.03782e-05
2.10144e-07
1.18427e-07
1.06929e-05
2.02124e-07
1.20517e-07
1.10519e-05
1.75457e-07
1.22849e-07
1.14186e-05
1.36591e-07
1.26762e-07
1.17715e-05
9.2074e-08
1.32028e-07
1.20986e-05
4.89851e-08
1.38092e-07
1.23905e-05
1.51594e-08
1.44508e-07
1.26367e-05
-1.38731e-09
1.51274e-07
1.28266e-05
8.79759e-09
1.57988e-07
1.29497e-05
6.48547e-08
1.62351e-07
1.29979e-05
1.86072e-07
1.62147e-07
1.29487e-05
3.91935e-07
1.58589e-07
1.27433e-05
7.39577e-07
1.55395e-07
1.22689e-05
1.28237e-06
1.53422e-07
1.14327e-05
2.07837e-06
1.56194e-07
1.00528e-05
3.17174e-06
1.5836e-07
8.08866e-06
4.60419e-06
1.5704e-07
5.43799e-06
6.30316e-06
1.53104e-07
2.22901e-06
7.77215e-06
1.37806e-07
6.44021e-06
8.17497e-08
6.60767e-07
-3.68317e-06
3.36703e-08
1.50981e-06
-7.31482e-06
1.75489e-08
2.12417e-06
-7.78008e-06
2.10719e-08
2.57853e-06
-7.43274e-06
4.10836e-08
2.94775e-06
-6.67179e-06
5.23446e-08
3.23633e-06
-5.62723e-06
6.2603e-08
3.44347e-06
-4.48178e-06
7.54016e-08
3.52622e-06
-3.32829e-06
8.387e-08
3.56106e-06
-2.23643e-06
8.65126e-08
3.68656e-06
-1.33378e-06
8.20366e-08
3.9715e-06
-7.68183e-07
7.44176e-08
4.3383e-06
-5.04948e-07
6.71797e-08
4.75521e-06
-3.93258e-07
6.20636e-08
5.18079e-06
-3.33613e-07
5.97163e-08
5.61508e-06
-3.04195e-07
5.94032e-08
6.05055e-06
-2.9077e-07
6.06808e-08
6.47525e-06
-2.91125e-07
6.34967e-08
6.87813e-06
-3.00408e-07
6.77137e-08
7.25095e-06
-3.14877e-07
7.32191e-08
7.58837e-06
-3.30797e-07
7.99657e-08
7.88758e-06
-3.43481e-07
8.78604e-08
8.14681e-06
-3.45941e-07
9.66227e-08
8.3632e-06
-3.29035e-07
1.06213e-07
8.5318e-06
-2.81441e-07
1.16867e-07
8.65746e-06
-1.93638e-07
1.28201e-07
8.71325e-06
-1.40613e-08
1.38897e-07
8.70665e-06
2.39539e-07
1.51066e-07
8.58023e-06
6.86259e-07
1.68458e-07
8.2446e-06
1.41502e-06
1.89443e-07
7.61294e-06
2.49115e-06
2.04296e-07
6.56157e-06
3.98933e-06
2.1939e-07
5.03045e-06
5.89777e-06
2.2516e-07
3.0827e-06
8.0212e-06
2.1637e-07
1.06905e-06
9.59172e-06
1.78228e-07
7.41275e-06
9.60916e-08
3.08959e-07
-4.03007e-06
2.53732e-08
7.50867e-07
-7.78384e-06
1.95177e-08
1.23204e-06
-8.2831e-06
1.56624e-08
1.6736e-06
-7.89661e-06
1.59205e-08
2.01818e-06
-7.0438e-06
2.05289e-08
2.27211e-06
-5.91593e-06
2.74673e-08
2.47008e-06
-4.72372e-06
3.54108e-08
2.68102e-06
-3.5918e-06
4.30863e-08
2.96093e-06
-2.5754e-06
4.9421e-08
3.29189e-06
-1.72699e-06
5.3505e-08
3.60389e-06
-1.13908e-06
5.23314e-08
3.88841e-06
-8.42326e-07
4.81492e-08
4.15643e-06
-7.09391e-07
4.43185e-08
4.41827e-06
-6.41365e-07
4.23756e-08
4.67574e-06
-6.07986e-07
4.25791e-08
4.92997e-06
-5.9388e-07
4.48737e-08
5.17791e-06
-5.91688e-07
4.84876e-08
5.41699e-06
-5.96898e-07
5.31504e-08
5.64409e-06
-6.05182e-07
5.88588e-08
5.85579e-06
-6.12522e-07
6.55834e-08
6.04844e-06
-6.13973e-07
7.33073e-08
6.21894e-06
-6.03083e-07
8.20156e-08
6.36699e-06
-5.73034e-07
9.16376e-08
6.4867e-06
-5.07027e-07
1.01816e-07
6.57455e-06
-3.98181e-07
1.12249e-07
6.60349e-06
-1.73673e-07
1.25218e-07
6.50838e-06
1.85905e-07
1.40566e-07
6.36631e-06
6.5688e-07
1.59732e-07
6.03785e-06
1.5481e-06
1.82167e-07
5.50822e-06
2.80052e-06
2.06976e-07
4.71916e-06
4.53564e-06
2.30385e-07
3.60472e-06
6.75523e-06
2.46902e-07
2.18559e-06
9.17984e-06
2.4997e-07
7.20833e-07
1.08248e-05
2.18769e-07
8.02141e-06
1.11755e-07
1.98205e-07
-4.24296e-06
2.77999e-09
4.62423e-07
-8.04688e-06
-8.31158e-09
7.03421e-07
-8.52049e-06
-9.49539e-09
9.06207e-07
-8.09666e-06
-8.44767e-09
1.07368e-06
-7.21134e-06
-7.04474e-09
1.25108e-06
-6.09884e-06
-3.23495e-09
1.43212e-06
-4.91406e-06
5.89376e-10
1.61845e-06
-3.79081e-06
4.01133e-09
1.84028e-06
-2.81495e-06
8.75098e-09
2.11119e-06
-2.01914e-06
1.31243e-08
2.41233e-06
-1.46244e-06
1.60473e-08
2.70965e-06
-1.16123e-06
1.708e-08
2.99891e-06
-1.01974e-06
1.72859e-08
3.28215e-06
-9.46228e-07
1.80106e-08
3.55734e-06
-9.06612e-07
1.98523e-08
3.82603e-06
-8.88968e-07
2.25773e-08
4.08766e-06
-8.83834e-07
2.642e-08
4.34055e-06
-8.85043e-07
3.09943e-08
4.58272e-06
-8.88206e-07
3.63728e-08
4.81194e-06
-8.88811e-07
4.23799e-08
5.02611e-06
-8.81768e-07
4.90591e-08
5.22394e-06
-8.61645e-07
5.64588e-08
5.40195e-06
-8.19395e-07
6.40509e-08
5.55936e-06
-7.40996e-07
7.17767e-08
5.68675e-06
-6.12049e-07
8.03096e-08
5.79255e-06
-3.76818e-07
8.97977e-08
5.78291e-06
8.37459e-08
1.02941e-07
5.73156e-06
5.7785e-07
1.17901e-07
5.51328e-06
1.61437e-06
1.36594e-07
5.10369e-06
3.03664e-06
1.58507e-07
4.4431e-06
4.99962e-06
1.83549e-07
3.41605e-06
7.56284e-06
2.09109e-07
2.03156e-06
1.03299e-05
2.23821e-07
6.10908e-07
1.20259e-05
2.06526e-07
8.5279e-06
1.04071e-07
1.05626e-07
-4.36486e-06
5.15056e-09
3.10984e-07
-8.25241e-06
-6.48558e-09
5.28041e-07
-8.73243e-06
-1.0797e-08
7.3598e-07
-8.2991e-06
-1.13209e-08
9.36965e-07
-7.40822e-06
-1.04981e-08
1.12377e-06
-6.28399e-06
-8.59138e-09
1.3245e-06
-5.11656e-06
-5.739e-09
1.55103e-06
-4.02309e-06
-2.32525e-09
1.78711e-06
-3.06056e-06
1.16271e-09
2.02926e-06
-2.27333e-06
4.29908e-09
2.26696e-06
-1.71273e-06
6.54012e-09
2.4911e-06
-1.39728e-06
7.54333e-09
2.70763e-06
-1.24773e-06
7.8562e-09
2.92011e-06
-1.17082e-06
8.57268e-09
3.12825e-06
-1.12852e-06
1.02354e-08
3.32991e-06
-1.10683e-06
1.26818e-08
3.52676e-06
-1.10008e-06
1.56364e-08
3.71921e-06
-1.10094e-06
1.93908e-08
3.90568e-06
-1.10263e-06
2.37423e-08
4.08423e-06
-1.10007e-06
2.86007e-08
4.25397e-06
-1.08951e-06
3.40257e-08
4.41431e-06
-1.06562e-06
3.95421e-08
4.56249e-06
-1.01711e-06
4.54311e-08
4.70163e-06
-9.35847e-07
5.14115e-08
4.83439e-06
-8.07749e-07
5.75757e-08
4.95737e-06
-5.70486e-07
6.41461e-08
5.02506e-06
-6.56336e-08
7.3715e-08
4.98887e-06
5.16947e-07
8.56349e-08
4.85996e-06
1.62901e-06
1.00622e-07
4.45981e-06
3.30247e-06
1.22023e-07
3.66509e-06
5.63463e-06
1.49387e-07
2.48814e-06
8.55343e-06
1.78419e-07
1.19501e-06
1.14212e-05
1.93643e-07
2.11519e-07
1.28259e-05
1.72858e-07
8.66763e-06
7.14209e-08
1.0052e-07
-4.47051e-06
-5.64371e-09
2.74914e-07
-8.41698e-06
-1.62121e-08
4.56966e-07
-8.90051e-06
-1.94413e-08
6.24803e-07
-8.45233e-06
-2.01285e-08
7.71578e-07
-7.54079e-06
-2.01862e-08
9.07279e-07
-6.40678e-06
-1.94444e-08
1.04699e-06
-5.24564e-06
-1.77964e-08
1.20207e-06
-4.1707e-06
-1.52678e-08
1.37679e-06
-3.23136e-06
-1.20334e-08
1.56899e-06
-2.46458e-06
-8.48901e-09
1.76776e-06
-1.91215e-06
-5.2882e-09
1.95909e-06
-1.58985e-06
-3.08178e-09
2.14352e-06
-1.43392e-06
-1.81491e-09
2.32366e-06
-1.3539e-06
-5.6783e-10
2.49982e-06
-1.30948e-06
1.26819e-09
2.67075e-06
-1.28497e-06
3.663e-09
2.83408e-06
-1.27348e-06
6.31534e-09
2.98987e-06
-1.27022e-06
9.44771e-09
3.13791e-06
-1.26772e-06
1.29842e-08
3.27737e-06
-1.26054e-06
1.69779e-08
3.40797e-06
-1.24529e-06
2.09449e-08
3.52698e-06
-1.21415e-06
2.52122e-08
3.63449e-06
-1.15824e-06
2.94795e-08
3.73115e-06
-1.07065e-06
3.36946e-08
3.81251e-06
-9.33027e-07
3.8008e-08
3.85668e-06
-6.65691e-07
4.31216e-08
3.82986e-06
-9.98427e-08
5.10226e-08
3.70606e-06
5.65739e-07
6.24552e-08
3.44611e-06
1.79537e-06
7.92714e-08
2.99939e-06
3.63204e-06
1.03628e-07
2.369e-06
6.1172e-06
1.36763e-07
1.64017e-06
9.10298e-06
1.71036e-07
8.99658e-07
1.19616e-05
1.91649e-07
2.36217e-07
1.32996e-05
1.77857e-07
8.82742e-06
7.61222e-08
7.88371e-08
-4.55269e-06
-7.49208e-09
2.21929e-07
-8.54856e-06
-1.78857e-08
3.7136e-07
-9.0343e-06
-2.10982e-08
5.15977e-07
-8.58013e-06
-2.23046e-08
6.57689e-07
-7.66557e-06
-2.28658e-08
8.01856e-07
-6.53474e-06
-2.26622e-08
9.50682e-07
-5.37985e-06
-2.16465e-08
1.10809e-06
-4.31586e-06
-1.98419e-08
1.2772e-06
-3.39111e-06
-1.72569e-08
1.45417e-06
-2.63485e-06
-1.4117e-08
1.62879e-06
-2.08166e-06
-1.10177e-08
1.79301e-06
-1.74968e-06
-8.69589e-09
1.95051e-06
-1.58755e-06
-7.36231e-09
2.10436e-06
-1.50487e-06
-6.22656e-09
2.25543e-06
-1.45928e-06
-4.70206e-09
2.40397e-06
-1.43417e-06
-2.80552e-09
2.54754e-06
-1.41997e-06
-5.86261e-10
2.68576e-06
-1.41372e-06
1.71508e-09
2.81861e-06
-1.40852e-06
4.35319e-09
2.94646e-06
-1.39917e-06
7.03316e-09
3.06739e-06
-1.3799e-06
9.81498e-09
3.18059e-06
-1.34366e-06
1.2581e-08
3.28553e-06
-1.28187e-06
1.51634e-08
3.38157e-06
-1.18792e-06
1.73473e-08
3.46369e-06
-1.04009e-06
1.96227e-08
3.51947e-06
-7.51035e-07
2.27626e-08
3.51827e-06
-1.3471e-07
2.79702e-08
3.42226e-06
6.13692e-07
3.70416e-08
3.23258e-06
1.92231e-06
5.04155e-08
2.9683e-06
3.81025e-06
7.562e-08
2.56909e-06
6.39734e-06
1.10597e-07
1.95503e-06
9.56025e-06
1.50192e-07
1.1348e-06
1.25945e-05
1.80433e-07
3.552e-07
1.3893e-05
1.7811e-07
9.1042e-06
7.81356e-08
8.40418e-08
-4.63469e-06
-1.28905e-08
2.27562e-07
-8.67695e-06
-2.14602e-08
3.76164e-07
-9.16512e-06
-2.32041e-08
5.15633e-07
-8.70136e-06
-2.37e-08
6.43449e-07
-7.7749e-06
-2.43891e-08
7.67316e-07
-6.64024e-06
-2.47816e-08
8.95097e-07
-5.49009e-06
-2.45034e-08
1.02809e-06
-4.43287e-06
-2.34477e-08
1.16969e-06
-3.51895e-06
-2.1509e-08
1.32015e-06
-2.77381e-06
-1.87808e-08
1.47112e-06
-2.22274e-06
-1.5771e-08
1.61553e-06
-1.88507e-06
-1.33229e-08
1.75517e-06
-1.71873e-06
-1.19519e-08
1.89328e-06
-1.63529e-06
-1.10364e-08
2.03156e-06
-1.59102e-06
-9.98526e-09
2.1702e-06
-1.56757e-06
-8.73414e-09
2.30861e-06
-1.5546e-06
-7.31496e-09
2.4459e-06
-1.54864e-06
-5.96113e-09
2.58218e-06
-1.54392e-06
-4.55628e-09
2.71766e-06
-1.53521e-06
-3.29542e-09
2.85259e-06
-1.51659e-06
-2.22905e-09
2.987e-06
-1.48059e-06
-1.36035e-09
3.12088e-06
-1.41869e-06
-7.85164e-10
3.25413e-06
-1.32453e-06
-7.86108e-10
3.38886e-06
-1.17933e-06
-1.17812e-09
3.5312e-06
-8.99585e-07
-1.48074e-09
3.64922e-06
-2.61086e-07
-1.26316e-09
3.62755e-06
6.20451e-07
2.89351e-09
3.58364e-06
1.94091e-06
1.21264e-08
3.2699e-06
4.08284e-06
2.94517e-08
2.64261e-06
6.95565e-06
5.96323e-08
1.78138e-06
1.03172e-05
9.73043e-08
8.97433e-07
1.3343e-05
1.28039e-07
1.85395e-07
1.44629e-05
1.32487e-07
9.23566e-06
5.37015e-08
8.56168e-08
-4.71459e-06
-1.64558e-08
2.04478e-07
-8.77762e-06
-2.44239e-08
3.16448e-07
-9.25673e-06
-2.5724e-08
4.16976e-07
-8.78127e-06
-2.59903e-08
5.11816e-07
-7.84894e-06
-2.65676e-08
6.03556e-07
-6.71114e-06
-2.7081e-08
7.05916e-07
-5.57208e-06
-2.71158e-08
8.24645e-07
-4.53242e-06
-2.63864e-08
9.55397e-07
-3.6324e-06
-2.47452e-08
1.10072e-06
-2.90398e-06
-2.21962e-08
1.24661e-06
-2.35524e-06
-1.91014e-08
1.3818e-06
-2.00804e-06
-1.63997e-08
1.50874e-06
-1.83416e-06
-1.48668e-08
1.63281e-06
-1.7485e-06
-1.40141e-08
1.75684e-06
-1.70502e-06
-1.32223e-08
1.88149e-06
-1.68316e-06
-1.23492e-08
2.00687e-06
-1.67184e-06
-1.14373e-08
2.13166e-06
-1.66606e-06
-1.06015e-08
2.25596e-06
-1.66152e-06
-9.94062e-09
2.38096e-06
-1.65394e-06
-9.64476e-09
2.50728e-06
-1.63666e-06
-9.66636e-09
2.63456e-06
-1.60124e-06
-9.90228e-09
2.76319e-06
-1.53998e-06
-1.04117e-08
2.8951e-06
-1.44818e-06
-1.14966e-08
3.03654e-06
-1.31172e-06
-1.33522e-08
3.19895e-06
-1.05178e-06
-1.62009e-08
3.35053e-06
-3.99823e-07
-2.01666e-08
3.32723e-06
6.55516e-07
-2.01589e-08
3.19896e-06
2.0754e-06
-1.53638e-08
2.76896e-06
4.50863e-06
-4.12755e-09
2.08697e-06
7.61029e-06
2.08584e-08
1.30145e-06
1.10432e-05
5.45075e-08
6.04153e-07
1.39545e-05
8.03356e-08
7.39864e-09
1.49731e-05
7.99613e-08
9.22081e-06
2.20324e-08
6.40546e-08
-4.77313e-06
-1.6021e-08
1.57577e-07
-8.85513e-06
-2.20923e-08
2.45465e-07
-9.32656e-06
-2.32788e-08
3.20775e-07
-8.83831e-06
-2.35114e-08
3.90224e-07
-7.90007e-06
-2.39559e-08
4.61491e-07
-6.76418e-06
-2.43175e-08
5.55112e-07
-5.64785e-06
-2.43949e-08
6.78389e-07
-4.63876e-06
-2.38939e-08
8.11174e-07
-3.74975e-06
-2.25931e-08
9.41379e-07
-3.02017e-06
-2.08151e-08
1.06418e-06
-2.46531e-06
-1.83306e-08
1.17503e-06
-2.10715e-06
-1.59111e-08
1.27759e-06
-1.92561e-06
-1.44629e-08
1.37712e-06
-1.83744e-06
-1.37128e-08
1.47637e-06
-1.79432e-06
-1.31042e-08
1.5764e-06
-1.77397e-06
-1.24623e-08
1.67749e-06
-1.76443e-06
-1.18058e-08
1.77877e-06
-1.75953e-06
-1.11998e-08
1.87959e-06
-1.75507e-06
-1.07465e-08
1.97949e-06
-1.74684e-06
-1.05357e-08
2.07831e-06
-1.72849e-06
-1.05411e-08
2.17622e-06
-1.69191e-06
-1.0685e-08
2.27403e-06
-1.6301e-06
-1.09683e-08
2.37439e-06
-1.54024e-06
-1.17014e-08
2.48185e-06
-1.4104e-06
-1.32669e-08
2.59746e-06
-1.15795e-06
-1.63329e-08
2.69119e-06
-4.80234e-07
-2.26037e-08
2.6567e-06
7.04221e-07
-2.50583e-08
2.41141e-06
2.3317e-06
-2.21858e-08
1.9609e-06
4.9604e-06
-1.09592e-08
1.38373e-06
8.1694e-06
1.08429e-08
7.50173e-07
1.16355e-05
3.56147e-08
1.26196e-07
1.45191e-05
5.13678e-08
-9.1448e-08
1.51411e-05
4.05502e-08
9.13776e-06
-8.56164e-09
5.21682e-08
-4.81919e-06
-1.62399e-08
1.29418e-07
-8.91782e-06
-2.04181e-08
2.19121e-07
-9.40004e-06
-2.1242e-08
2.95323e-07
-8.89822e-06
-2.13042e-08
3.81448e-07
-7.96994e-06
-2.16335e-08
4.8007e-07
-6.84663e-06
-2.19436e-08
5.82581e-07
-5.7343e-06
-2.22458e-08
6.79022e-07
-4.71963e-06
-2.21344e-08
7.74258e-07
-3.83052e-06
-2.1239e-08
8.5704e-07
-3.09005e-06
-1.93704e-08
9.3687e-07
-2.53347e-06
-1.70259e-08
1.01374e-06
-2.17327e-06
-1.4735e-08
1.08701e-06
-1.98871e-06
-1.33131e-08
1.15861e-06
-1.89935e-06
-1.25798e-08
1.22984e-06
-1.85639e-06
-1.20312e-08
1.30107e-06
-1.83663e-06
-1.14768e-08
1.37222e-06
-1.82759e-06
-1.09186e-08
1.44281e-06
-1.82268e-06
-1.04071e-08
1.51222e-06
-1.81741e-06
-1.00244e-08
1.5793e-06
-1.80703e-06
-9.81949e-09
1.64315e-06
-1.78542e-06
-9.79132e-09
1.70382e-06
-1.74536e-06
-9.92799e-09
1.76216e-06
-1.6807e-06
-1.02065e-08
1.8206e-06
-1.59025e-06
-1.09152e-08
1.87813e-06
-1.45877e-06
-1.24465e-08
1.91482e-06
-1.18416e-06
-1.54989e-08
1.89227e-06
-4.44025e-07
-2.04842e-08
1.7989e-06
8.12005e-07
-2.21219e-08
1.4594e-06
2.68256e-06
-1.87433e-08
9.99445e-07
5.42215e-06
-7.68684e-09
5.1462e-07
8.6382e-06
1.15578e-08
1.6809e-07
1.19453e-05
3.23214e-08
-8.43067e-08
1.47243e-05
4.22596e-08
-7.22462e-08
1.50855e-05
3.79726e-08
9.07554e-06
-1.02454e-08
4.11193e-08
-4.85542e-06
-1.47308e-08
1.02016e-07
-8.96634e-06
-1.81506e-08
1.74725e-07
-9.45805e-06
-1.91094e-08
2.65975e-07
-8.97482e-06
-1.90359e-08
3.56018e-07
-8.04537e-06
-1.97818e-08
4.41078e-07
-6.91696e-06
-2.02853e-08
5.06454e-07
-5.78503e-06
-2.06016e-08
5.45642e-07
-4.74466e-06
-2.04914e-08
5.81927e-07
-3.85366e-06
-1.96916e-08
6.37671e-07
-3.13409e-06
-1.79545e-08
7.02806e-07
-2.58805e-06
-1.57432e-08
7.67258e-07
-2.22802e-06
-1.35743e-08
8.27509e-07
-2.03987e-06
-1.21687e-08
8.84997e-07
-1.94825e-06
-1.1414e-08
9.40816e-07
-1.90418e-06
-1.08559e-08
9.95238e-07
-1.88361e-06
-1.03214e-08
1.04818e-06
-1.87367e-06
-9.80445e-09
1.09938e-06
-1.86754e-06
-9.34278e-09
1.14842e-06
-1.86047e-06
-8.9949e-09
1.19462e-06
-1.84748e-06
-8.79545e-09
1.23723e-06
-1.8223e-06
-8.73861e-09
1.27579e-06
-1.77798e-06
-8.8083e-09
1.31086e-06
-1.70943e-06
-8.99405e-09
1.34372e-06
-1.6164e-06
-9.54324e-09
1.37071e-06
-1.47917e-06
-1.07407e-08
1.37203e-06
-1.17898e-06
-1.32482e-08
1.31132e-06
-3.76131e-07
-1.62954e-08
1.19657e-06
9.31698e-07
-1.50629e-08
9.55314e-07
2.9227e-06
-8.41757e-09
6.91106e-07
5.67402e-06
4.55879e-09
4.37614e-07
8.86369e-06
2.15764e-08
9.40483e-08
1.22447e-05
3.91022e-08
4.54222e-08
1.47206e-05
4.67237e-08
5.86056e-09
1.50794e-05
3.94087e-08
9.08104e-06
2.43608e-10
4.1208e-08
-4.89185e-06
-1.39601e-08
1.07349e-07
-9.02157e-06
-1.61707e-08
1.7082e-07
-9.50943e-06
-1.66617e-08
2.50383e-07
-9.04194e-06
-1.70476e-08
2.99992e-07
-8.08236e-06
-1.74941e-08
3.3447e-07
-6.93875e-06
-1.79004e-08
3.78178e-07
-5.81614e-06
-1.82042e-08
4.19648e-07
-4.77404e-06
-1.8014e-08
4.6679e-07
-3.88966e-06
-1.7214e-08
5.25508e-07
-3.18255e-06
-1.60531e-08
5.86039e-07
-2.63917e-06
-1.42449e-08
6.4235e-07
-2.27563e-06
-1.23364e-08
6.93911e-07
-2.08322e-06
-1.10574e-08
7.43037e-07
-1.98956e-06
-1.03827e-08
7.91162e-07
-1.94489e-06
-9.93362e-09
8.38804e-07
-1.92424e-06
-9.53919e-09
8.86034e-07
-1.91424e-06
-9.18475e-09
9.32778e-07
-1.90789e-06
-8.90724e-09
9.78932e-07
-1.90035e-06
-8.75927e-09
1.0244e-06
-1.88662e-06
-8.77172e-09
1.0692e-06
-1.86052e-06
-8.9283e-09
1.1136e-06
-1.81533e-06
-9.20904e-09
1.15796e-06
-1.7461e-06
-9.64399e-09
1.20308e-06
-1.65303e-06
-1.04888e-08
1.2482e-06
-1.51501e-06
-1.19539e-08
1.28687e-06
-1.20719e-06
-1.47375e-08
1.29403e-06
-3.69811e-07
-1.93274e-08
1.22108e-06
1.01844e-06
-2.00735e-08
1.03553e-06
3.11779e-06
-1.50236e-08
7.5445e-07
5.953e-06
-2.25116e-09
3.8739e-07
9.21165e-06
1.50114e-08
1.10733e-07
1.24905e-05
2.749e-08
4.24585e-08
1.47496e-05
3.62945e-08
-7.75874e-09
1.50929e-05
3.30794e-08
9.07235e-06
7.84564e-10
4.37237e-08
-4.93139e-06
-1.26871e-08
1.05633e-07
-9.07419e-06
-1.41215e-08
1.53642e-07
-9.54822e-06
-1.42906e-08
1.81004e-07
-9.05951e-06
-1.49243e-08
2.14463e-07
-8.10519e-06
-1.48356e-08
2.65478e-07
-6.97933e-06
-1.49679e-08
3.0229e-07
-5.84283e-06
-1.5462e-08
3.42703e-07
-4.80491e-06
-1.52071e-08
3.87607e-07
-3.92567e-06
-1.46882e-08
4.22489e-07
-3.20935e-06
-1.36172e-08
4.62804e-07
-2.67204e-06
-1.21007e-08
5.03484e-07
-2.30937e-06
-1.04659e-08
5.41514e-07
-2.11469e-06
-9.32915e-09
5.77993e-07
-2.01984e-06
-8.70295e-09
6.13815e-07
-1.97491e-06
-8.28334e-09
6.49267e-07
-1.95429e-06
-7.91711e-09
6.84341e-07
-1.94426e-06
-7.59254e-09
7.18919e-07
-1.93769e-06
-7.34412e-09
7.52795e-07
-1.92959e-06
-7.21836e-09
7.85762e-07
-1.91491e-06
-7.24499e-09
8.17968e-07
-1.88783e-06
-7.41466e-09
8.50136e-07
-1.84219e-06
-7.69596e-09
8.83087e-07
-1.77328e-06
-8.01231e-09
9.17888e-07
-1.68172e-06
-8.50964e-09
9.53815e-07
-1.54477e-06
-9.57208e-09
9.80952e-07
-1.22827e-06
-1.17493e-08
9.78824e-07
-3.60245e-07
-1.55832e-08
8.66424e-07
1.13924e-06
-1.6889e-08
6.25518e-07
3.36511e-06
-1.36334e-08
3.44204e-07
6.23149e-06
-4.30342e-09
7.4218e-08
9.46736e-06
8.38423e-09
6.10397e-08
1.24765e-05
2.35746e-08
3.67624e-08
1.47397e-05
3.01981e-08
-1.88965e-08
1.51184e-05
2.47184e-08
9.05868e-06
-5.34346e-09
1.97054e-08
-4.94952e-06
-9.83388e-09
6.29591e-08
-9.1108e-06
-1.16162e-08
8.70225e-08
-9.56477e-06
-1.18078e-08
1.21406e-07
-9.08596e-06
-1.16187e-08
1.86196e-07
-8.16236e-06
-1.15582e-08
2.37928e-07
-7.02369e-06
-1.20654e-08
2.58237e-07
-5.85617e-06
-1.20219e-08
2.79982e-07
-4.82005e-06
-1.18936e-08
3.01712e-07
-3.94125e-06
-1.15229e-08
3.27633e-07
-3.22975e-06
-1.06043e-08
3.53985e-07
-2.69317e-06
-9.49287e-09
3.80052e-07
-2.33044e-06
-8.23852e-09
4.04832e-07
-2.13469e-06
-7.31158e-09
4.28539e-07
-2.03904e-06
-6.76121e-09
4.51293e-07
-1.99348e-06
-6.36786e-09
4.73007e-07
-1.97216e-06
-6.01267e-09
4.93521e-07
-1.96125e-06
-5.68164e-09
5.12678e-07
-1.95358e-06
-5.39507e-09
5.30362e-07
-1.94417e-06
-5.1771e-09
5.46476e-07
-1.92799e-06
-5.03459e-09
5.60888e-07
-1.8992e-06
-4.9448e-09
5.73509e-07
-1.85167e-06
-4.87466e-09
5.84731e-07
-1.78123e-06
-4.7831e-09
5.95113e-07
-1.68885e-06
-4.77291e-09
6.02012e-07
-1.54876e-06
-5.03694e-09
5.93988e-07
-1.21757e-06
-6.11288e-09
5.59768e-07
-3.23203e-07
-7.50977e-09
4.71692e-07
1.22914e-06
-6.6227e-09
3.62174e-07
3.4728e-06
-2.40303e-09
2.82867e-07
6.30326e-06
4.15905e-09
2.72194e-07
9.46223e-06
1.34959e-08
1.25697e-07
1.25975e-05
2.38874e-08
4.06334e-09
1.48309e-05
2.85593e-08
-1.18174e-08
1.51094e-05
2.19373e-08
9.05203e-06
-5.30664e-09
3.56517e-09
-4.95289e-06
-8.20045e-09
3.044e-08
-9.13181e-06
-1.0098e-08
7.77364e-08
-9.60529e-06
-9.78048e-09
1.26585e-07
-9.12851e-06
-9.6933e-09
1.64465e-07
-8.19492e-06
-9.95486e-09
1.75052e-07
-7.02919e-06
-1.00534e-08
2.07213e-07
-5.88325e-06
-9.85492e-09
2.23106e-07
-4.83103e-06
-9.72618e-09
2.54783e-07
-3.96859e-06
-9.21025e-09
2.74275e-07
-3.2455e-06
-8.69813e-09
2.93009e-07
-2.70836e-06
-7.73122e-09
3.12717e-07
-2.34667e-06
-6.65479e-09
3.32396e-07
-2.151e-06
-5.85033e-09
3.51662e-07
-2.05515e-06
-5.36724e-09
3.70503e-07
-2.00948e-06
-5.01593e-09
3.88768e-07
-1.98792e-06
-4.68955e-09
4.0628e-07
-1.97658e-06
-4.37464e-09
4.22982e-07
-1.96839e-06
-4.08832e-09
4.38939e-07
-1.95847e-06
-3.85043e-09
4.54283e-07
-1.94184e-06
-3.66718e-09
4.6914e-07
-1.91265e-06
-3.52202e-09
4.83527e-07
-1.86464e-06
-3.38892e-09
4.974e-07
-1.7937e-06
-3.24888e-09
5.11009e-07
-1.70125e-06
-3.21907e-09
5.22644e-07
-1.55979e-06
-3.48885e-09
5.24292e-07
-1.2198e-06
-4.32679e-09
5.00542e-07
-3.00359e-07
-5.91175e-09
4.14384e-07
1.31347e-06
-5.25552e-09
2.70174e-07
3.61102e-06
-5.56465e-10
1.53773e-07
6.40742e-06
7.08755e-09
9.27673e-08
9.5021e-06
1.67432e-08
2.08369e-08
1.26411e-05
2.46075e-08
-3.94009e-08
1.48587e-05
2.91841e-08
-1.73093e-08
1.50591e-05
2.38533e-08
9.03555e-06
-9.07813e-10
9.31637e-09
-4.9608e-06
-7.16149e-09
1.93515e-08
-9.13707e-06
-8.7497e-09
7.26705e-08
-9.65287e-06
-9.19208e-09
8.23092e-08
-9.1334e-06
-8.91797e-09
7.22188e-08
-8.18046e-06
-8.96766e-09
7.81474e-08
-7.03097e-06
-8.58483e-09
1.07345e-07
-5.90826e-06
-8.43343e-09
1.36898e-07
-4.85763e-06
-7.7354e-09
1.58377e-07
-3.98744e-06
-7.65382e-09
1.82333e-07
-3.26722e-06
-6.58393e-09
1.97284e-07
-2.72132e-06
-5.80774e-09
2.11998e-07
-2.35935e-06
-4.92284e-09
2.27375e-07
-2.16439e-06
-4.24481e-09
2.41628e-07
-2.06758e-06
-3.81095e-09
2.54619e-07
-2.02091e-06
-3.47228e-09
2.65385e-07
-1.99742e-06
-3.14665e-09
2.74071e-07
-1.98428e-06
-2.82144e-09
2.81221e-07
-1.97482e-06
-2.50899e-09
2.87485e-07
-1.96423e-06
-2.22336e-09
2.93181e-07
-1.9472e-06
-1.96791e-09
2.98649e-07
-1.91791e-06
-1.72977e-09
3.04414e-07
-1.87027e-06
-1.48567e-09
3.10922e-07
-1.80018e-06
-1.20454e-09
3.1814e-07
-1.7087e-06
-9.35594e-10
3.24591e-07
-1.56704e-06
-7.32692e-10
3.21725e-07
-1.21861e-06
-7.43458e-10
2.98324e-07
-2.79763e-07
-5.50273e-10
2.40529e-07
1.36652e-06
1.0436e-09
1.51932e-07
3.69192e-06
4.62089e-09
8.257e-08
6.46379e-06
1.07339e-08
2.66868e-08
9.53766e-06
1.85733e-08
7.133e-08
1.25693e-05
2.60002e-08
6.01786e-08
1.48391e-05
2.96953e-08
-5.64005e-09
1.50961e-05
2.69141e-08
9.02415e-06
5.64682e-09
6.34637e-09
-4.96541e-06
-6.11722e-09
3.46845e-08
-9.16237e-06
-7.32022e-09
3.38442e-08
-9.64834e-06
-8.08007e-09
4.28321e-08
-9.13817e-06
-7.59276e-09
7.29311e-08
-8.20664e-06
-7.08236e-09
1.16507e-07
-7.07143e-06
-6.81721e-09
1.17739e-07
-5.90701e-06
-6.80001e-09
1.50161e-07
-4.88794e-06
-6.61073e-09
1.53759e-07
-3.98968e-06
-6.23904e-09
1.70554e-07
-3.28282e-06
-5.88156e-09
1.82263e-07
-2.73157e-06
-5.09142e-09
1.93051e-07
-2.36848e-06
-4.38399e-09
2.04855e-07
-2.1745e-06
-3.90017e-09
2.16577e-07
-2.07772e-06
-3.55916e-09
2.28115e-07
-2.03104e-06
-3.30394e-09
2.3923e-07
-2.00735e-06
-3.04733e-09
2.49802e-07
-1.99389e-06
-2.8301e-09
2.59359e-07
-1.98358e-06
-2.65581e-09
2.68096e-07
-1.97226e-06
-2.53939e-09
2.76193e-07
-1.95462e-06
-2.48407e-09
2.83944e-07
-1.92491e-06
-2.48723e-09
2.91609e-07
-1.87701e-06
-2.54279e-09
2.99391e-07
-1.8068e-06
-2.62765e-09
3.06983e-07
-1.71512e-06
-2.74132e-09
3.12224e-07
-1.57189e-06
-2.86388e-09
3.07314e-07
-1.21505e-06
-3.01547e-09
2.82518e-07
-2.58394e-07
-2.53133e-09
2.54072e-07
1.38917e-06
-1.23527e-10
2.50728e-07
3.6861e-06
4.07989e-09
2.31087e-07
6.47007e-06
9.51203e-09
2.01105e-07
9.54968e-06
1.55217e-08
7.76542e-08
1.26688e-05
2.15521e-08
-4.04989e-09
1.48924e-05
2.47598e-08
-2.41397e-08
1.50902e-05
2.19618e-08
8.99443e-06
5.53176e-09
2.21107e-09
-4.96816e-06
-5.11362e-09
1.91601e-08
-9.17578e-06
-7.38758e-09
3.29825e-08
-9.65806e-06
-6.9709e-09
5.08352e-08
-9.15266e-06
-6.62407e-09
6.10848e-08
-8.21403e-06
-6.32432e-09
6.96425e-08
-7.07739e-06
-5.99006e-09
7.84936e-08
-5.9146e-06
-5.48527e-09
8.56063e-08
-4.89441e-06
-5.30595e-09
1.03335e-07
-4.00672e-06
-4.74148e-09
1.00887e-07
-3.28001e-06
-4.29648e-09
1.01151e-07
-2.73144e-06
-3.79331e-09
1.05795e-07
-2.37244e-06
-3.23486e-09
1.12028e-07
-2.17992e-06
-2.80687e-09
1.18722e-07
-2.08364e-06
-2.52332e-09
1.25203e-07
-2.03686e-06
-2.30823e-09
1.32456e-07
-2.01407e-06
-2.12188e-09
1.40215e-07
-2.00123e-06
-1.95448e-09
1.47965e-07
-1.99099e-06
-1.82015e-09
1.54972e-07
-1.97893e-06
-1.74051e-09
1.60869e-07
-1.9601e-06
-1.72783e-09
1.65375e-07
-1.92883e-06
-1.7812e-09
1.68406e-07
-1.87919e-06
-1.87938e-09
1.70358e-07
-1.80762e-06
-1.99699e-09
1.71622e-07
-1.71513e-06
-2.09984e-09
1.69655e-07
-1.56884e-06
-2.18341e-09
1.56017e-07
-1.2009e-06
-2.26952e-09
1.27764e-07
-2.30274e-07
-2.08436e-09
7.16395e-08
1.44353e-06
-3.60158e-10
4.08175e-08
3.71193e-06
3.30831e-09
3.98229e-08
6.46159e-06
8.38292e-09
-1.2048e-08
9.58613e-06
1.43703e-08
-4.07037e-08
1.26771e-05
1.94383e-08
-2.37767e-08
1.48518e-05
2.28314e-08
1.03656e-08
1.50329e-05
2.18574e-08
8.9973e-06
7.39838e-09
6.71813e-09
-4.97598e-06
-3.56806e-09
2.88505e-08
-9.19567e-06
-5.44286e-09
4.39569e-08
-9.67058e-06
-5.76454e-09
5.20739e-08
-9.15848e-06
-5.4998e-09
4.17305e-08
-8.20168e-06
-5.36719e-09
2.70056e-08
-7.061e-06
-5.24764e-09
3.94089e-08
-5.9257e-06
-5.07075e-09
3.22042e-08
-4.88661e-06
-4.83918e-09
3.8528e-08
-4.01307e-06
-4.49094e-09
5.61429e-08
-3.29761e-06
-3.95645e-09
6.76826e-08
-2.74274e-06
-3.39925e-09
7.74817e-08
-2.3818e-06
-2.9331e-09
8.57368e-08
-2.18755e-06
-2.59087e-09
9.25397e-08
-2.0898e-06
-2.36849e-09
9.78919e-08
-2.0417e-06
-2.19402e-09
1.01994e-07
-2.01782e-06
-2.03875e-09
1.0487e-07
-2.00387e-06
-1.8976e-09
1.06375e-07
-1.99234e-06
-1.78309e-09
1.06942e-07
-1.97939e-06
-1.70753e-09
1.06935e-07
-1.95997e-06
-1.67953e-09
1.06669e-07
-1.92834e-06
-1.69886e-09
1.06284e-07
-1.87841e-06
-1.75093e-09
1.05716e-07
-1.80648e-06
-1.80687e-09
1.0419e-07
-1.71315e-06
-1.81036e-09
1.00185e-07
-1.56521e-06
-1.68624e-09
9.30235e-08
-1.19593e-06
-1.27774e-09
8.33058e-08
-2.25418e-07
-7.23667e-11
9.31753e-08
1.42659e-06
2.36733e-09
1.14424e-07
3.68194e-06
5.29712e-09
9.88049e-08
6.46451e-06
9.12466e-09
1.08051e-07
9.56079e-06
1.30342e-08
1.46292e-07
1.26195e-05
1.76744e-08
1.38248e-07
1.48377e-05
2.02447e-08
2.6029e-08
1.5123e-05
1.95774e-08
9.01582e-06
7.49323e-09
-5.63835e-09
-4.97243e-06
-2.37506e-09
7.58719e-10
-9.2017e-06
-4.21666e-09
2.89013e-10
-9.66853e-06
-4.41721e-09
7.3434e-09
-9.16424e-06
-4.18781e-09
2.37138e-08
-8.21742e-06
-3.81165e-09
4.49022e-08
-7.08216e-06
-3.54174e-09
7.319e-08
-5.95421e-06
-3.24932e-09
1.03767e-07
-4.91755e-06
-3.01702e-09
1.13716e-07
-4.02396e-06
-2.87109e-09
1.18819e-07
-3.30384e-06
-2.69316e-09
1.32906e-07
-2.75748e-06
-2.39565e-09
1.42116e-07
-2.39113e-06
-2.17393e-09
1.50521e-07
-2.19564e-06
-2.08058e-09
1.59441e-07
-2.09817e-06
-2.08132e-09
1.69152e-07
-2.05071e-06
-2.13679e-09
1.79472e-07
-2.02731e-06
-2.21229e-09
1.90565e-07
-2.01397e-06
-2.30421e-09
2.02694e-07
-2.00328e-06
-2.42363e-09
2.15627e-07
-1.99084e-06
-2.61607e-09
2.29336e-07
-1.97182e-06
-2.88913e-09
2.44464e-07
-1.94112e-06
-3.26429e-09
2.60789e-07
-1.89175e-06
-3.74281e-09
2.78564e-07
-1.82054e-06
-4.32016e-09
2.9743e-07
-1.72758e-06
-4.97894e-09
3.18096e-07
-1.58083e-06
-5.68681e-09
3.42862e-07
-1.21524e-06
-6.39453e-09
3.60419e-07
-2.37517e-07
-6.5417e-09
3.75807e-07
1.41524e-06
-4.87661e-09
3.10683e-07
3.74752e-06
-1.13934e-09
2.01434e-07
6.56965e-06
3.637e-09
1.19534e-07
9.6332e-06
9.17424e-09
9.55183e-08
1.26298e-05
1.35003e-08
3.43292e-08
1.48826e-05
1.59464e-08
-9.76101e-09
1.51521e-05
1.45338e-08
9.00089e-06
5.10488e-09
5.71166e-10
-4.97336e-06
-3.92119e-09
-1.32512e-08
-9.18571e-06
-4.9846e-09
-1.00498e-08
-9.66945e-06
-5.07551e-09
-5.75771e-09
-9.16659e-06
-4.78596e-09
2.96268e-08
-8.25126e-06
-4.48865e-09
4.50704e-08
-7.09633e-06
-4.31603e-09
5.79545e-08
-5.96644e-06
-4.2944e-09
5.77973e-08
-4.91737e-06
-4.20555e-09
6.09872e-08
-4.02699e-06
-3.86292e-09
6.07643e-08
-3.30362e-06
-3.38725e-09
6.81852e-08
-2.76498e-06
-2.95015e-09
7.66361e-08
-2.39926e-06
-2.51342e-09
8.27922e-08
-2.20125e-06
-2.26166e-09
8.85723e-08
-2.10329e-06
-2.15504e-09
9.42975e-08
-2.05576e-06
-2.11774e-09
1.00345e-07
-2.03265e-06
-2.11644e-09
1.07154e-07
-2.02001e-06
-2.1502e-09
1.15519e-07
-2.01077e-06
-2.23766e-09
1.25128e-07
-1.99937e-06
-2.38294e-09
1.35659e-07
-1.981e-06
-2.60437e-09
1.46642e-07
-1.95037e-06
-2.91405e-09
1.58211e-07
-1.90106e-06
-3.29724e-09
1.70493e-07
-1.83001e-06
-3.74695e-09
1.83564e-07
-1.73742e-06
-4.23922e-09
1.95096e-07
-1.58909e-06
-4.8032e-09
1.96085e-07
-1.21322e-06
-5.57646e-09
1.86649e-07
-2.25095e-07
-6.30124e-09
1.34194e-07
1.47001e-06
-5.85766e-09