/*--------------------------------*- C++ -*----------------------------------*\
  =========                 |
  \\      /  F ield         | OpenFOAM: The Open Source CFD Toolbox
   \\    /   O peration     | Website:  https://openfoam.org
    \\  /    A nd           | Version:  13
     \\/     M anipulation  |
\*---------------------------------------------------------------------------*/
FoamFile
{
    format      ascii;
    class       volScalarField;
    location    "192.5";
    object      rhok;
}
// * * * * * * * * * * * * * * * * * * * * * * * * * * * * * * * * * * * * * //

dimensions      [];

internalField   nonuniform List<scalar> 
315000
(
0.444654
0.430927
0.417693
0.413689
0.412889
0.412315
0.411672
0.411003
0.410322
0.409638
0.408952
0.408267
0.407581
0.406897
0.406213
0.40553
0.404847
0.404166
0.403485
0.402806
0.402127
0.401449
0.400772
0.400097
0.399422
0.398749
0.398077
0.397406
0.396736
0.396068
0.395401
0.394735
0.39407
0.393407
0.392745
0.392085
0.391426
0.390768
0.390112
0.389457
0.388804
0.388151
0.387501
0.386851
0.386203
0.385556
0.38491
0.384266
0.383623
0.382981
0.38234
0.3817
0.381061
0.380424
0.379787
0.379151
0.378516
0.377882
0.377248
0.376615
0.375983
0.375352
0.374721
0.37409
0.37346
0.37283
0.372201
0.371572
0.370943
0.370314
0.444654
0.430921
0.417682
0.413681
0.412883
0.41231
0.411668
0.410999
0.410319
0.409636
0.40895
0.408265
0.40758
0.406896
0.406212
0.405529
0.404846
0.404165
0.403485
0.402805
0.402126
0.401449
0.400772
0.400096
0.399422
0.398748
0.398076
0.397405
0.396735
0.396067
0.3954
0.394734
0.394069
0.393406
0.392744
0.392084
0.391425
0.390767
0.390111
0.389456
0.388802
0.38815
0.387499
0.38685
0.386202
0.385555
0.384909
0.384265
0.383622
0.38298
0.382339
0.381699
0.38106
0.380423
0.379786
0.37915
0.378515
0.377881
0.377247
0.376615
0.375983
0.375351
0.37472
0.37409
0.37346
0.37283
0.372201
0.371572
0.370942
0.370314
0.444654
0.430921
0.417683
0.413694
0.412892
0.412312
0.41167
0.411001
0.410321
0.409637
0.408952
0.408266
0.407581
0.406896
0.406212
0.405529
0.404847
0.404165
0.403485
0.402805
0.402126
0.401449
0.400772
0.400096
0.399422
0.398748
0.398076
0.397405
0.396735
0.396067
0.395399
0.394733
0.394069
0.393405
0.392744
0.392083
0.391424
0.390766
0.39011
0.389455
0.388801
0.388149
0.387498
0.386849
0.386201
0.385554
0.384908
0.384264
0.383621
0.382979
0.382338
0.381698
0.381059
0.380422
0.379785
0.379149
0.378514
0.37788
0.377247
0.376614
0.375982
0.375351
0.37472
0.374089
0.373459
0.37283
0.3722
0.371571
0.370942
0.370314
0.444653
0.430857
0.416504
0.414244
0.413275
0.412471
0.411736
0.411028
0.410332
0.409642
0.408954
0.408267
0.407581
0.406896
0.406212
0.405529
0.404847
0.404165
0.403485
0.402805
0.402126
0.401448
0.400772
0.400096
0.399421
0.398748
0.398075
0.397404
0.396734
0.396066
0.395398
0.394732
0.394068
0.393405
0.392743
0.392082
0.391423
0.390765
0.390109
0.389454
0.3888
0.388148
0.387497
0.386848
0.3862
0.385553
0.384907
0.384263
0.38362
0.382978
0.382337
0.381697
0.381059
0.380421
0.379784
0.379148
0.378514
0.37788
0.377246
0.376614
0.375982
0.37535
0.374719
0.374089
0.373459
0.37283
0.3722
0.371571
0.370942
0.370313
0.444653
0.430854
0.416495
0.414236
0.41327
0.412466
0.411731
0.411023
0.410328
0.409638
0.40895
0.408264
0.407578
0.406893
0.40621
0.405527
0.404844
0.404163
0.403482
0.402803
0.402124
0.401446
0.400769
0.400094
0.399419
0.398746
0.398073
0.397402
0.396733
0.396064
0.395397
0.394731
0.394066
0.393403
0.392741
0.392081
0.391421
0.390764
0.390107
0.389453
0.388799
0.388147
0.387496
0.386847
0.386198
0.385552
0.384906
0.384262
0.383619
0.382977
0.382336
0.381696
0.381058
0.38042
0.379783
0.379148
0.378513
0.377879
0.377246
0.376613
0.375981
0.37535
0.374719
0.374089
0.373459
0.372829
0.3722
0.371571
0.370942
0.370313
0.444652
0.430849
0.416491
0.414232
0.41327
0.412468
0.411731
0.411022
0.410325
0.409634
0.408946
0.408259
0.407573
0.406889
0.406205
0.405522
0.40484
0.404158
0.403478
0.402798
0.40212
0.401442
0.400765
0.40009
0.399415
0.398742
0.39807
0.397399
0.396729
0.396061
0.395394
0.394728
0.394064
0.3934
0.392739
0.392078
0.391419
0.390762
0.390106
0.389451
0.388797
0.388145
0.387494
0.386845
0.386197
0.38555
0.384905
0.384261
0.383618
0.382976
0.382335
0.381695
0.381057
0.380419
0.379783
0.379147
0.378512
0.377878
0.377245
0.376613
0.375981
0.375349
0.374719
0.374089
0.373459
0.372829
0.3722
0.371571
0.370942
0.370313
0.444654
0.430917
0.417673
0.413678
0.412878
0.412302
0.411659
0.410988
0.410307
0.409623
0.408937
0.408251
0.407566
0.406882
0.406198
0.405515
0.404833
0.404152
0.403472
0.402792
0.402114
0.401436
0.40076
0.400085
0.39941
0.398737
0.398065
0.397395
0.396725
0.396057
0.39539
0.394724
0.39406
0.393397
0.392736
0.392076
0.391417
0.390759
0.390103
0.389449
0.388795
0.388143
0.387493
0.386843
0.386196
0.385549
0.384904
0.384259
0.383616
0.382975
0.382334
0.381694
0.381056
0.380419
0.379782
0.379146
0.378512
0.377878
0.377245
0.376612
0.37598
0.375349
0.374718
0.374088
0.373458
0.372829
0.3722
0.371571
0.370942
0.370313
0.444653
0.430911
0.417662
0.413658
0.41286
0.412286
0.411644
0.410975
0.410296
0.409612
0.408927
0.408242
0.407557
0.406873
0.40619
0.405507
0.404825
0.404144
0.403464
0.402785
0.402107
0.40143
0.400753
0.400078
0.399404
0.398732
0.39806
0.39739
0.39672
0.396052
0.395386
0.39472
0.394056
0.393394
0.392732
0.392072
0.391414
0.390757
0.390101
0.389446
0.388793
0.388141
0.387491
0.386842
0.386194
0.385547
0.384902
0.384258
0.383615
0.382974
0.382333
0.381694
0.381055
0.380418
0.379781
0.379146
0.378511
0.377877
0.377244
0.376612
0.37598
0.375349
0.374718
0.374088
0.373458
0.372829
0.3722
0.371571
0.370942
0.370313
0.444653
0.430906
0.417653
0.413648
0.41285
0.412276
0.411634
0.410966
0.410286
0.409602
0.408918
0.408233
0.407548
0.406864
0.406181
0.405499
0.404817
0.404136
0.403457
0.402778
0.4021
0.401423
0.400747
0.400072
0.399399
0.398726
0.398055
0.397385
0.396716
0.396048
0.395382
0.394717
0.394053
0.39339
0.392729
0.39207
0.391411
0.390754
0.390098
0.389444
0.388791
0.38814
0.387489
0.38684
0.386193
0.385546
0.384901
0.384257
0.383614
0.382973
0.382332
0.381693
0.381055
0.380417
0.379781
0.379145
0.378511
0.377877
0.377244
0.376611
0.37598
0.375349
0.374718
0.374088
0.373458
0.372829
0.3722
0.371571
0.370942
0.370313
0.444653
0.430903
0.417647
0.413641
0.412843
0.412269
0.411627
0.410958
0.410278
0.409595
0.40891
0.408225
0.407541
0.406857
0.406174
0.405492
0.40481
0.40413
0.40345
0.402772
0.402094
0.401417
0.400742
0.400067
0.399394
0.398722
0.39805
0.397381
0.396712
0.396044
0.395378
0.394713
0.39405
0.393388
0.392727
0.392067
0.391409
0.390752
0.390097
0.389442
0.38879
0.388138
0.387488
0.386839
0.386191
0.385545
0.3849
0.384256
0.383614
0.382972
0.382332
0.381692
0.381054
0.380417
0.37978
0.379145
0.37851
0.377876
0.377243
0.376611
0.375979
0.375348
0.374718
0.374088
0.373458
0.372829
0.3722
0.371571
0.370942
0.370313
0.444653
0.4309
0.417642
0.413636
0.412837
0.412263
0.411621
0.410953
0.410273
0.409589
0.408905
0.40822
0.407536
0.406852
0.406169
0.405487
0.404806
0.404125
0.403446
0.402767
0.40209
0.401413
0.400738
0.400064
0.39939
0.398718
0.398047
0.397378
0.396709
0.396042
0.395376
0.394711
0.394048
0.393386
0.392725
0.392066
0.391407
0.390751
0.390095
0.389441
0.388788
0.388137
0.387487
0.386838
0.386191
0.385544
0.384899
0.384256
0.383613
0.382971
0.382331
0.381692
0.381054
0.380416
0.37978
0.379145
0.37851
0.377876
0.377243
0.376611
0.375979
0.375348
0.374718
0.374088
0.373458
0.372828
0.372199
0.371571
0.370942
0.370313
0.444653
0.430899
0.417639
0.413633
0.412834
0.41226
0.411618
0.410949
0.41027
0.409586
0.408901
0.408217
0.407532
0.406849
0.406166
0.405484
0.404803
0.404122
0.403443
0.402764
0.402087
0.401411
0.400735
0.400061
0.399388
0.398716
0.398045
0.397376
0.396707
0.39604
0.395374
0.39471
0.394046
0.393384
0.392724
0.392064
0.391406
0.39075
0.390094
0.38944
0.388788
0.388136
0.387486
0.386838
0.38619
0.385544
0.384899
0.384255
0.383613
0.382971
0.382331
0.381692
0.381053
0.380416
0.37978
0.379144
0.37851
0.377876
0.377243
0.376611
0.375979
0.375348
0.374718
0.374087
0.373458
0.372828
0.372199
0.371571
0.370942
0.370313
0.444653
0.430898
0.417638
0.413632
0.412832
0.412258
0.411617
0.410948
0.410268
0.409584
0.4089
0.408215
0.407531
0.406847
0.406164
0.405482
0.404801
0.404121
0.403442
0.402763
0.402086
0.40141
0.400734
0.40006
0.399387
0.398715
0.398044
0.397375
0.396706
0.396039
0.395374
0.394709
0.394046
0.393384
0.392723
0.392064
0.391406
0.390749
0.390094
0.38944
0.388787
0.388136
0.387486
0.386837
0.38619
0.385544
0.384899
0.384255
0.383612
0.382971
0.382331
0.381691
0.381053
0.380416
0.37978
0.379144
0.37851
0.377876
0.377243
0.376611
0.375979
0.375348
0.374717
0.374087
0.373458
0.372828
0.372199
0.371571
0.370942
0.370313
0.444653
0.430898
0.417638
0.413631
0.412832
0.412258
0.411616
0.410947
0.410268
0.409584
0.4089
0.408215
0.407531
0.406847
0.406164
0.405482
0.404801
0.404121
0.403441
0.402763
0.402086
0.401409
0.400734
0.40006
0.399387
0.398715
0.398044
0.397375
0.396706
0.396039
0.395373
0.394709
0.394046
0.393384
0.392723
0.392064
0.391406
0.390749
0.390094
0.38944
0.388787
0.388136
0.387486
0.386837
0.38619
0.385544
0.384899
0.384255
0.383612
0.382971
0.382331
0.381691
0.381053
0.380416
0.37978
0.379144
0.37851
0.377876
0.377243
0.376611
0.375979
0.375348
0.374717
0.374087
0.373458
0.372828
0.372199
0.371571
0.370942
0.370313
0.444653
0.430899
0.417639
0.413632
0.412833
0.412259
0.411617
0.410948
0.410268
0.409585
0.4089
0.408215
0.407531
0.406848
0.406165
0.405483
0.404801
0.404121
0.403442
0.402763
0.402086
0.40141
0.400734
0.40006
0.399387
0.398715
0.398044
0.397375
0.396707
0.396039
0.395374
0.394709
0.394046
0.393384
0.392723
0.392064
0.391406
0.390749
0.390094
0.38944
0.388787
0.388136
0.387486
0.386837
0.38619
0.385544
0.384899
0.384255
0.383612
0.382971
0.382331
0.381691
0.381053
0.380416
0.37978
0.379144
0.37851
0.377876
0.377243
0.376611
0.375979
0.375348
0.374717
0.374087
0.373458
0.372828
0.372199
0.371571
0.370942
0.370313
0.444653
0.430899
0.417639
0.413633
0.412834
0.41226
0.411618
0.410949
0.410269
0.409586
0.408901
0.408216
0.407532
0.406848
0.406165
0.405483
0.404802
0.404122
0.403443
0.402764
0.402087
0.40141
0.400735
0.400061
0.399388
0.398716
0.398045
0.397375
0.396707
0.39604
0.395374
0.394709
0.394046
0.393384
0.392724
0.392064
0.391406
0.39075
0.390094
0.38944
0.388788
0.388136
0.387486
0.386838
0.38619
0.385544
0.384899
0.384255
0.383613
0.382971
0.382331
0.381691
0.381053
0.380416
0.37978
0.379144
0.37851
0.377876
0.377243
0.376611
0.375979
0.375348
0.374718
0.374087
0.373458
0.372828
0.372199
0.371571
0.370942
0.370313
0.444653
0.430899
0.417639
0.413633
0.412834
0.41226
0.411618
0.410949
0.41027
0.409586
0.408901
0.408217
0.407532
0.406849
0.406166
0.405484
0.404803
0.404122
0.403443
0.402765
0.402087
0.401411
0.400736
0.400061
0.399388
0.398716
0.398045
0.397376
0.396707
0.39604
0.395374
0.39471
0.394047
0.393385
0.392724
0.392065
0.391407
0.39075
0.390095
0.389441
0.388788
0.388137
0.387486
0.386838
0.38619
0.385544
0.384899
0.384255
0.383613
0.382971
0.382331
0.381692
0.381053
0.380416
0.37978
0.379144
0.37851
0.377876
0.377243
0.376611
0.375979
0.375348
0.374718
0.374087
0.373458
0.372828
0.372199
0.371571
0.370942
0.370313
0.444653
0.430899
0.41764
0.413633
0.412834
0.41226
0.411618
0.410949
0.41027
0.409586
0.408902
0.408217
0.407533
0.406849
0.406166
0.405484
0.404803
0.404123
0.403443
0.402765
0.402088
0.401411
0.400736
0.400062
0.399389
0.398717
0.398046
0.397376
0.396708
0.396041
0.395375
0.39471
0.394047
0.393385
0.392724
0.392065
0.391407
0.39075
0.390095
0.389441
0.388788
0.388137
0.387487
0.386838
0.386191
0.385544
0.384899
0.384256
0.383613
0.382971
0.382331
0.381692
0.381054
0.380416
0.37978
0.379145
0.37851
0.377876
0.377243
0.376611
0.375979
0.375348
0.374718
0.374088
0.373458
0.372829
0.372199
0.371571
0.370942
0.370313
0.444653
0.430899
0.41764
0.413633
0.412834
0.412261
0.411619
0.41095
0.41027
0.409587
0.408902
0.408217
0.407533
0.40685
0.406167
0.405485
0.404804
0.404123
0.403444
0.402766
0.402088
0.401412
0.400736
0.400062
0.399389
0.398717
0.398046
0.397377
0.396708
0.396041
0.395375
0.394711
0.394047
0.393385
0.392725
0.392065
0.391407
0.390751
0.390095
0.389441
0.388788
0.388137
0.387487
0.386838
0.386191
0.385545
0.3849
0.384256
0.383613
0.382972
0.382331
0.381692
0.381054
0.380417
0.37978
0.379145
0.37851
0.377876
0.377243
0.376611
0.375979
0.375348
0.374718
0.374088
0.373458
0.372829
0.3722
0.371571
0.370942
0.370313
0.444653
0.4309
0.417641
0.413635
0.412836
0.412262
0.411621
0.410952
0.410272
0.409589
0.408904
0.408219
0.407535
0.406851
0.406169
0.405487
0.404805
0.404125
0.403446
0.402767
0.40209
0.401413
0.400738
0.400064
0.39939
0.398718
0.398048
0.397378
0.396709
0.396042
0.395376
0.394712
0.394048
0.393386
0.392725
0.392066
0.391408
0.390751
0.390096
0.389442
0.388789
0.388138
0.387488
0.386839
0.386191
0.385545
0.3849
0.384256
0.383614
0.382972
0.382332
0.381692
0.381054
0.380417
0.37978
0.379145
0.37851
0.377877
0.377244
0.376611
0.37598
0.375348
0.374718
0.374088
0.373458
0.372829
0.3722
0.371571
0.370942
0.370313
0.444653
0.430902
0.417645
0.413639
0.41284
0.412267
0.411625
0.410956
0.410277
0.409593
0.408908
0.408224
0.407539
0.406856
0.406173
0.40549
0.404809
0.404129
0.403449
0.402771
0.402093
0.401416
0.400741
0.400066
0.399393
0.398721
0.39805
0.39738
0.396712
0.396044
0.395378
0.394713
0.39405
0.393388
0.392727
0.392067
0.391409
0.390752
0.390097
0.389443
0.38879
0.388139
0.387488
0.386839
0.386192
0.385546
0.384901
0.384257
0.383614
0.382972
0.382332
0.381693
0.381054
0.380417
0.379781
0.379145
0.378511
0.377877
0.377244
0.376611
0.37598
0.375349
0.374718
0.374088
0.373458
0.372829
0.3722
0.371571
0.370942
0.370313
0.444653
0.430905
0.417651
0.413646
0.412847
0.412274
0.411632
0.410963
0.410284
0.4096
0.408915
0.40823
0.407546
0.406862
0.406179
0.405497
0.404815
0.404135
0.403455
0.402776
0.402098
0.401421
0.400746
0.400071
0.399397
0.398725
0.398054
0.397384
0.396715
0.396047
0.395381
0.394716
0.394052
0.39339
0.392729
0.392069
0.391411
0.390754
0.390098
0.389444
0.388791
0.38814
0.387489
0.38684
0.386193
0.385546
0.384901
0.384257
0.383615
0.382973
0.382333
0.381693
0.381055
0.380417
0.379781
0.379146
0.378511
0.377877
0.377244
0.376612
0.37598
0.375349
0.374718
0.374088
0.373458
0.372829
0.3722
0.371571
0.370942
0.370313
0.444653
0.43091
0.417659
0.413654
0.412855
0.412282
0.41164
0.410971
0.410292
0.409608
0.408923
0.408238
0.407554
0.40687
0.406187
0.405504
0.404822
0.404141
0.403462
0.402782
0.402104
0.401427
0.400751
0.400076
0.399402
0.39873
0.398058
0.397388
0.396719
0.396051
0.395384
0.394719
0.394055
0.393393
0.392731
0.392071
0.391413
0.390756
0.3901
0.389446
0.388793
0.388141
0.387491
0.386841
0.386194
0.385547
0.384902
0.384258
0.383615
0.382974
0.382333
0.381694
0.381055
0.380418
0.379781
0.379146
0.378511
0.377877
0.377244
0.376612
0.37598
0.375349
0.374718
0.374088
0.373458
0.372829
0.3722
0.371571
0.370942
0.370313
0.444654
0.430912
0.417663
0.413659
0.412861
0.412287
0.411645
0.410976
0.410297
0.409613
0.408929
0.408244
0.407559
0.406875
0.406192
0.405509
0.404828
0.404147
0.403467
0.402788
0.402109
0.401432
0.400756
0.400081
0.399407
0.398734
0.398062
0.397391
0.396722
0.396054
0.395387
0.394722
0.394058
0.393395
0.392733
0.392073
0.391415
0.390757
0.390101
0.389447
0.388794
0.388142
0.387492
0.386842
0.386195
0.385548
0.384903
0.384259
0.383616
0.382974
0.382334
0.381694
0.381056
0.380418
0.379782
0.379146
0.378511
0.377878
0.377244
0.376612
0.37598
0.375349
0.374718
0.374088
0.373458
0.372829
0.3722
0.371571
0.370942
0.370313
0.444653
0.430904
0.417659
0.413669
0.412868
0.412289
0.411647
0.410978
0.410299
0.409615
0.408931
0.408246
0.407561
0.406877
0.406194
0.405511
0.40483
0.404149
0.403469
0.402789
0.402111
0.401434
0.400758
0.400082
0.399408
0.398735
0.398063
0.397393
0.396723
0.396055
0.395388
0.394723
0.394059
0.393396
0.392734
0.392074
0.391415
0.390758
0.390102
0.389448
0.388794
0.388143
0.387492
0.386843
0.386195
0.385548
0.384903
0.384259
0.383616
0.382974
0.382334
0.381694
0.381056
0.380418
0.379782
0.379146
0.378512
0.377878
0.377245
0.376612
0.37598
0.375349
0.374718
0.374088
0.373458
0.372829
0.3722
0.371571
0.370942
0.370313
0.444652
0.430847
0.416484
0.414223
0.413254
0.412449
0.411714
0.411006
0.410311
0.40962
0.408933
0.408246
0.407561
0.406877
0.406193
0.40551
0.404828
0.404147
0.403467
0.402788
0.40211
0.401432
0.400756
0.400081
0.399407
0.398734
0.398062
0.397392
0.396722
0.396054
0.395387
0.394722
0.394058
0.393395
0.392734
0.392074
0.391415
0.390758
0.390102
0.389447
0.388794
0.388142
0.387492
0.386843
0.386195
0.385548
0.384903
0.384259
0.383616
0.382974
0.382334
0.381694
0.381056
0.380419
0.379782
0.379146
0.378512
0.377878
0.377245
0.376612
0.37598
0.375349
0.374719
0.374088
0.373459
0.372829
0.3722
0.371571
0.370942
0.370313
0.444652
0.430843
0.416473
0.414212
0.413246
0.412442
0.411706
0.410999
0.410304
0.409614
0.408926
0.40824
0.407555
0.406871
0.406187
0.405504
0.404823
0.404142
0.403462
0.402783
0.402105
0.401428
0.400752
0.400077
0.399403
0.39873
0.398059
0.397388
0.396719
0.396051
0.395385
0.39472
0.394056
0.393393
0.392732
0.392072
0.391414
0.390757
0.390101
0.389446
0.388793
0.388142
0.387491
0.386842
0.386195
0.385548
0.384903
0.384259
0.383616
0.382974
0.382334
0.381694
0.381056
0.380419
0.379782
0.379146
0.378512
0.377878
0.377245
0.376612
0.37598
0.375349
0.374719
0.374088
0.373459
0.372829
0.3722
0.371571
0.370942
0.370313
0.444652
0.430838
0.416464
0.414203
0.413236
0.412432
0.411697
0.41099
0.410295
0.409605
0.408917
0.408231
0.407546
0.406862
0.406179
0.405497
0.404815
0.404135
0.403455
0.402776
0.402099
0.401422
0.400746
0.400071
0.399398
0.398726
0.398054
0.397384
0.396716
0.396048
0.395382
0.394717
0.394053
0.393391
0.39273
0.39207
0.391412
0.390755
0.3901
0.389445
0.388792
0.388141
0.387491
0.386842
0.386194
0.385548
0.384902
0.384258
0.383616
0.382974
0.382334
0.381694
0.381056
0.380418
0.379782
0.379146
0.378512
0.377878
0.377245
0.376612
0.37598
0.375349
0.374719
0.374088
0.373459
0.372829
0.3722
0.371571
0.370942
0.370313
0.444652
0.430834
0.416457
0.414195
0.413228
0.412424
0.411689
0.410982
0.410287
0.409597
0.40891
0.408224
0.407539
0.406855
0.406172
0.40549
0.404809
0.404129
0.403449
0.402771
0.402093
0.401417
0.400741
0.400067
0.399394
0.398722
0.398051
0.397381
0.396713
0.396045
0.395379
0.394715
0.394051
0.393389
0.392728
0.392069
0.391411
0.390754
0.390098
0.389444
0.388792
0.38814
0.38749
0.386841
0.386193
0.385547
0.384902
0.384258
0.383615
0.382974
0.382333
0.381694
0.381056
0.380418
0.379782
0.379146
0.378512
0.377878
0.377245
0.376612
0.37598
0.375349
0.374719
0.374088
0.373459
0.372829
0.3722
0.371571
0.370942
0.370313
0.444652
0.430832
0.416453
0.41419
0.413223
0.412419
0.411684
0.410977
0.410282
0.409592
0.408905
0.408219
0.407534
0.406851
0.406168
0.405486
0.404805
0.404125
0.403445
0.402767
0.40209
0.401413
0.400738
0.400064
0.399391
0.398719
0.398048
0.397379
0.39671
0.396043
0.395377
0.394713
0.39405
0.393388
0.392727
0.392068
0.39141
0.390753
0.390098
0.389444
0.388791
0.38814
0.387489
0.386841
0.386193
0.385547
0.384902
0.384258
0.383615
0.382974
0.382333
0.381694
0.381056
0.380418
0.379782
0.379146
0.378512
0.377878
0.377245
0.376612
0.375981
0.375349
0.374719
0.374088
0.373459
0.372829
0.3722
0.371571
0.370942
0.370313
0.444652
0.430831
0.41645
0.414188
0.413221
0.412417
0.411681
0.410974
0.410279
0.409589
0.408902
0.408216
0.407532
0.406848
0.406165
0.405483
0.404802
0.404122
0.403443
0.402765
0.402088
0.401411
0.400736
0.400062
0.399389
0.398718
0.398047
0.397377
0.396709
0.396042
0.395376
0.394712
0.394049
0.393387
0.392726
0.392067
0.391409
0.390753
0.390097
0.389443
0.388791
0.388139
0.387489
0.386841
0.386193
0.385547
0.384902
0.384258
0.383615
0.382974
0.382333
0.381694
0.381056
0.380418
0.379782
0.379146
0.378512
0.377878
0.377245
0.376612
0.375981
0.375349
0.374719
0.374088
0.373459
0.372829
0.3722
0.371571
0.370942
0.370313
0.444652
0.43083
0.416449
0.414187
0.41322
0.412415
0.41168
0.410973
0.410278
0.409588
0.408901
0.408215
0.407531
0.406847
0.406164
0.405482
0.404801
0.404121
0.403442
0.402764
0.402087
0.401411
0.400735
0.400061
0.399389
0.398717
0.398046
0.397377
0.396709
0.396042
0.395376
0.394712
0.394048
0.393387
0.392726
0.392067
0.391409
0.390752
0.390097
0.389443
0.388791
0.388139
0.387489
0.38684
0.386193
0.385547
0.384902
0.384258
0.383615
0.382974
0.382333
0.381694
0.381056
0.380418
0.379782
0.379146
0.378512
0.377878
0.377245
0.376612
0.375981
0.375349
0.374719
0.374088
0.373459
0.372829
0.3722
0.371571
0.370942
0.370313
0.444652
0.43083
0.416449
0.414186
0.413219
0.412415
0.411679
0.410972
0.410277
0.409588
0.4089
0.408215
0.40753
0.406846
0.406164
0.405482
0.404801
0.404121
0.403442
0.402763
0.402086
0.40141
0.400735
0.400061
0.399388
0.398717
0.398046
0.397377
0.396708
0.396042
0.395376
0.394711
0.394048
0.393387
0.392726
0.392067
0.391409
0.390752
0.390097
0.389443
0.388791
0.388139
0.387489
0.38684
0.386193
0.385547
0.384902
0.384258
0.383615
0.382974
0.382333
0.381694
0.381056
0.380418
0.379782
0.379147
0.378512
0.377878
0.377245
0.376612
0.375981
0.375349
0.374719
0.374088
0.373459
0.372829
0.3722
0.371571
0.370942
0.370313
0.444652
0.43083
0.416449
0.414186
0.413219
0.412415
0.411679
0.410972
0.410277
0.409587
0.4089
0.408215
0.40753
0.406846
0.406164
0.405482
0.404801
0.404121
0.403442
0.402763
0.402086
0.40141
0.400735
0.400061
0.399388
0.398717
0.398046
0.397377
0.396708
0.396042
0.395376
0.394711
0.394048
0.393387
0.392726
0.392067
0.391409
0.390752
0.390097
0.389443
0.388791
0.388139
0.387489
0.386841
0.386193
0.385547
0.384902
0.384258
0.383615
0.382974
0.382333
0.381694
0.381056
0.380418
0.379782
0.379147
0.378512
0.377878
0.377245
0.376612
0.375981
0.375349
0.374719
0.374089
0.373459
0.372829
0.3722
0.371571
0.370942
0.370313
0.444652
0.43083
0.416449
0.414186
0.413219
0.412415
0.411679
0.410972
0.410277
0.409587
0.4089
0.408215
0.40753
0.406846
0.406164
0.405482
0.404801
0.404121
0.403442
0.402763
0.402086
0.40141
0.400735
0.400061
0.399388
0.398717
0.398046
0.397377
0.396709
0.396042
0.395376
0.394712
0.394048
0.393387
0.392726
0.392067
0.391409
0.390752
0.390097
0.389443
0.388791
0.388139
0.387489
0.386841
0.386193
0.385547
0.384902
0.384258
0.383615
0.382974
0.382334
0.381694
0.381056
0.380419
0.379782
0.379147
0.378512
0.377878
0.377245
0.376613
0.375981
0.375349
0.374719
0.374089
0.373459
0.372829
0.3722
0.371571
0.370942
0.370313
0.444652
0.43083
0.416449
0.414186
0.413219
0.412415
0.411679
0.410972
0.410277
0.409587
0.4089
0.408215
0.40753
0.406846
0.406164
0.405482
0.404801
0.404121
0.403442
0.402763
0.402086
0.40141
0.400735
0.400061
0.399388
0.398717
0.398046
0.397377
0.396709
0.396042
0.395376
0.394712
0.394048
0.393387
0.392726
0.392067
0.391409
0.390753
0.390097
0.389443
0.388791
0.388139
0.387489
0.386841
0.386193
0.385547
0.384902
0.384258
0.383616
0.382974
0.382334
0.381694
0.381056
0.380419
0.379782
0.379147
0.378512
0.377878
0.377245
0.376613
0.375981
0.37535
0.374719
0.374089
0.373459
0.372829
0.3722
0.371571
0.370942
0.370313
0.444652
0.43083
0.416449
0.414186
0.413219
0.412415
0.411679
0.410972
0.410277
0.409587
0.4089
0.408215
0.40753
0.406846
0.406164
0.405482
0.404801
0.404121
0.403442
0.402764
0.402086
0.40141
0.400735
0.400061
0.399388
0.398717
0.398046
0.397377
0.396709
0.396042
0.395376
0.394712
0.394049
0.393387
0.392726
0.392067
0.391409
0.390753
0.390097
0.389443
0.388791
0.388139
0.387489
0.386841
0.386193
0.385547
0.384902
0.384258
0.383616
0.382974
0.382334
0.381694
0.381056
0.380419
0.379782
0.379147
0.378512
0.377878
0.377245
0.376613
0.375981
0.37535
0.374719
0.374089
0.373459
0.372829
0.3722
0.371571
0.370942
0.370313
0.444652
0.43083
0.416449
0.414186
0.413219
0.412415
0.41168
0.410972
0.410277
0.409588
0.4089
0.408215
0.40753
0.406847
0.406164
0.405482
0.404801
0.404121
0.403442
0.402764
0.402086
0.40141
0.400735
0.400061
0.399389
0.398717
0.398046
0.397377
0.396709
0.396042
0.395376
0.394712
0.394049
0.393387
0.392726
0.392067
0.391409
0.390753
0.390097
0.389443
0.388791
0.38814
0.38749
0.386841
0.386193
0.385547
0.384902
0.384258
0.383616
0.382974
0.382334
0.381694
0.381056
0.380419
0.379782
0.379147
0.378512
0.377878
0.377245
0.376613
0.375981
0.37535
0.374719
0.374089
0.373459
0.372829
0.3722
0.371571
0.370942
0.370313
0.444652
0.43083
0.416449
0.414186
0.413219
0.412415
0.41168
0.410972
0.410277
0.409588
0.4089
0.408215
0.40753
0.406847
0.406164
0.405482
0.404801
0.404121
0.403442
0.402764
0.402087
0.40141
0.400735
0.400061
0.399389
0.398717
0.398046
0.397377
0.396709
0.396042
0.395376
0.394712
0.394049
0.393387
0.392726
0.392067
0.391409
0.390753
0.390097
0.389444
0.388791
0.38814
0.38749
0.386841
0.386193
0.385547
0.384902
0.384258
0.383616
0.382974
0.382334
0.381694
0.381056
0.380419
0.379782
0.379147
0.378512
0.377878
0.377245
0.376613
0.375981
0.37535
0.374719
0.374089
0.373459
0.372829
0.3722
0.371571
0.370942
0.370313
0.444652
0.43083
0.416449
0.414186
0.413219
0.412415
0.41168
0.410973
0.410277
0.409588
0.4089
0.408215
0.40753
0.406847
0.406164
0.405482
0.404801
0.404121
0.403442
0.402764
0.402087
0.40141
0.400735
0.400061
0.399389
0.398717
0.398046
0.397377
0.396709
0.396042
0.395376
0.394712
0.394049
0.393387
0.392726
0.392067
0.391409
0.390753
0.390097
0.389444
0.388791
0.38814
0.38749
0.386841
0.386193
0.385547
0.384902
0.384258
0.383616
0.382974
0.382334
0.381694
0.381056
0.380419
0.379782
0.379147
0.378512
0.377878
0.377245
0.376613
0.375981
0.37535
0.374719
0.374089
0.373459
0.372829
0.3722
0.371571
0.370942
0.370313
0.444652
0.43083
0.416449
0.414186
0.413219
0.412415
0.41168
0.410973
0.410277
0.409588
0.4089
0.408215
0.40753
0.406847
0.406164
0.405482
0.404801
0.404121
0.403442
0.402764
0.402087
0.40141
0.400735
0.400061
0.399389
0.398717
0.398046
0.397377
0.396709
0.396042
0.395376
0.394712
0.394049
0.393387
0.392726
0.392067
0.391409
0.390753
0.390097
0.389444
0.388791
0.38814
0.38749
0.386841
0.386193
0.385547
0.384902
0.384258
0.383616
0.382974
0.382334
0.381694
0.381056
0.380419
0.379782
0.379147
0.378512
0.377878
0.377245
0.376613
0.375981
0.37535
0.374719
0.374089
0.373459
0.372829
0.3722
0.371571
0.370942
0.370313
0.444652
0.43083
0.416449
0.414186
0.413219
0.412415
0.41168
0.410973
0.410277
0.409588
0.4089
0.408215
0.40753
0.406847
0.406164
0.405482
0.404801
0.404121
0.403442
0.402764
0.402087
0.401411
0.400735
0.400062
0.399389
0.398717
0.398046
0.397377
0.396709
0.396042
0.395376
0.394712
0.394049
0.393387
0.392726
0.392067
0.391409
0.390753
0.390098
0.389444
0.388791
0.38814
0.38749
0.386841
0.386193
0.385547
0.384902
0.384258
0.383616
0.382974
0.382334
0.381694
0.381056
0.380419
0.379782
0.379147
0.378512
0.377878
0.377245
0.376613
0.375981
0.37535
0.374719
0.374089
0.373459
0.372829
0.3722
0.371571
0.370942
0.370313
0.444652
0.43083
0.416449
0.414186
0.413219
0.412415
0.41168
0.410973
0.410277
0.409588
0.408901
0.408215
0.40753
0.406847
0.406164
0.405482
0.404801
0.404121
0.403442
0.402764
0.402087
0.401411
0.400735
0.400062
0.399389
0.398717
0.398046
0.397377
0.396709
0.396042
0.395376
0.394712
0.394049
0.393387
0.392726
0.392067
0.391409
0.390753
0.390098
0.389444
0.388791
0.38814
0.38749
0.386841
0.386193
0.385547
0.384902
0.384258
0.383616
0.382974
0.382334
0.381694
0.381056
0.380419
0.379782
0.379147
0.378512
0.377878
0.377245
0.376613
0.375981
0.37535
0.374719
0.374089
0.373459
0.372829
0.3722
0.371571
0.370942
0.370313
0.444652
0.43083
0.416449
0.414186
0.413219
0.412415
0.41168
0.410973
0.410277
0.409588
0.408901
0.408215
0.40753
0.406847
0.406164
0.405482
0.404801
0.404121
0.403442
0.402764
0.402087
0.401411
0.400735
0.400062
0.399389
0.398717
0.398046
0.397377
0.396709
0.396042
0.395376
0.394712
0.394049
0.393387
0.392726
0.392067
0.391409
0.390753
0.390098
0.389444
0.388791
0.38814
0.38749
0.386841
0.386193
0.385547
0.384902
0.384258
0.383616
0.382974
0.382334
0.381694
0.381056
0.380419
0.379782
0.379147
0.378512
0.377878
0.377245
0.376613
0.375981
0.37535
0.374719
0.374089
0.373459
0.372829
0.3722
0.371571
0.370942
0.370313
0.444652
0.43083
0.416449
0.414186
0.413219
0.412415
0.41168
0.410973
0.410277
0.409588
0.408901
0.408215
0.40753
0.406847
0.406164
0.405482
0.404801
0.404121
0.403442
0.402764
0.402087
0.401411
0.400736
0.400062
0.399389
0.398717
0.398046
0.397377
0.396709
0.396042
0.395376
0.394712
0.394049
0.393387
0.392726
0.392067
0.391409
0.390753
0.390098
0.389444
0.388791
0.38814
0.38749
0.386841
0.386193
0.385547
0.384902
0.384258
0.383616
0.382974
0.382334
0.381694
0.381056
0.380419
0.379782
0.379147
0.378512
0.377878
0.377245
0.376613
0.375981
0.37535
0.374719
0.374089
0.373459
0.372829
0.3722
0.371571
0.370942
0.370313
0.444652
0.43083
0.416449
0.414186
0.413219
0.412415
0.41168
0.410973
0.410277
0.409588
0.408901
0.408215
0.40753
0.406847
0.406164
0.405482
0.404801
0.404121
0.403442
0.402764
0.402087
0.401411
0.400736
0.400062
0.399389
0.398717
0.398046
0.397377
0.396709
0.396042
0.395376
0.394712
0.394049
0.393387
0.392726
0.392067
0.391409
0.390753
0.390098
0.389444
0.388791
0.38814
0.38749
0.386841
0.386193
0.385547
0.384902
0.384258
0.383616
0.382974
0.382334
0.381694
0.381056
0.380419
0.379782
0.379147
0.378512
0.377878
0.377245
0.376613
0.375981
0.37535
0.374719
0.374089
0.373459
0.372829
0.3722
0.371571
0.370942
0.370313
0.444652
0.43083
0.416449
0.414186
0.413219
0.412415
0.41168
0.410973
0.410277
0.409588
0.408901
0.408215
0.40753
0.406847
0.406164
0.405482
0.404801
0.404121
0.403442
0.402764
0.402087
0.401411
0.400736
0.400062
0.399389
0.398717
0.398046
0.397377
0.396709
0.396042
0.395376
0.394712
0.394049
0.393387
0.392726
0.392067
0.391409
0.390753
0.390098
0.389444
0.388791
0.38814
0.38749
0.386841
0.386193
0.385547
0.384902
0.384258
0.383616
0.382974
0.382334
0.381694
0.381056
0.380419
0.379782
0.379147
0.378512
0.377878
0.377245
0.376613
0.375981
0.37535
0.374719
0.374089
0.373459
0.372829
0.3722
0.371571
0.370942
0.370313
0.444652
0.43083
0.416449
0.414186
0.413219
0.412415
0.41168
0.410973
0.410277
0.409588
0.408901
0.408215
0.40753