/*--------------------------------*- C++ -*----------------------------------*\
  =========                 |
  \\      /  F ield         | OpenFOAM: The Open Source CFD Toolbox
   \\    /   O peration     | Website:  https://openfoam.org
    \\  /    A nd           | Version:  13
     \\/     M anipulation  |
\*---------------------------------------------------------------------------*/
FoamFile
{
    format      ascii;
    class       volScalarField;
    location    "37.5";
    object      nut;
}
// * * * * * * * * * * * * * * * * * * * * * * * * * * * * * * * * * * * * * //

dimensions      [0 2 -1 0 0 0 0];

internalField   nonuniform List<scalar> 
315000
(
3.2917e-13
8.60535e-11
1.95913e-09
3.49984e-09
5.04251e-09
6.58369e-09
8.12134e-09
9.6534e-09
1.11772e-08
1.26892e-08
1.41852e-08
1.56604e-08
1.71098e-08
1.85279e-08
1.99095e-08
2.12494e-08
2.25426e-08
2.37846e-08
2.49712e-08
2.60988e-08
2.7164e-08
2.81643e-08
2.90973e-08
2.99612e-08
3.07547e-08
3.14768e-08
3.21268e-08
3.27043e-08
3.32091e-08
3.36413e-08
3.4001e-08
3.42883e-08
3.45036e-08
3.4647e-08
3.47187e-08
3.47189e-08
3.46475e-08
3.45044e-08
3.42896e-08
3.40027e-08
3.36435e-08
3.32119e-08
3.27078e-08
3.2131e-08
3.14819e-08
3.07607e-08
2.99681e-08
2.91052e-08
2.81734e-08
2.71743e-08
2.61102e-08
2.49839e-08
2.37985e-08
2.25578e-08
2.12658e-08
1.99271e-08
1.85466e-08
1.71294e-08
1.56808e-08
1.42062e-08
1.27106e-08
1.11988e-08
9.6749e-09
8.14233e-09
6.6037e-09
5.06088e-09
3.51555e-09
1.97038e-09
8.67015e-11
3.31998e-13
8.22581e-12
2.1865e-09
4.88629e-07
8.64536e-07
1.22878e-06
1.5826e-06
1.92685e-06
2.26199e-06
2.58819e-06
2.90533e-06
3.21311e-06
3.51114e-06
3.79891e-06
4.07592e-06
4.34167e-06
4.59571e-06
4.8376e-06
5.06701e-06
5.28363e-06
5.48725e-06
5.67771e-06
5.8549e-06
6.01879e-06
6.16939e-06
6.30676e-06
6.43099e-06
6.54221e-06
6.64054e-06
6.72614e-06
6.79917e-06
6.85976e-06
6.90805e-06
6.94415e-06
6.96817e-06
6.98018e-06
6.98019e-06
6.96823e-06
6.94424e-06
6.90818e-06
6.85994e-06
6.79942e-06
6.72646e-06
6.64094e-06
6.54269e-06
6.43158e-06
6.30746e-06
6.17021e-06
6.01974e-06
5.85598e-06
5.67894e-06
5.48865e-06
5.28519e-06
5.06874e-06
4.8395e-06
4.59777e-06
4.3439e-06
4.0783e-06
3.80143e-06
3.51378e-06
3.21585e-06
2.90812e-06
2.591e-06
2.26477e-06
1.92953e-06
1.5851e-06
1.231e-06
8.6633e-07
4.89814e-07
2.19269e-09
8.25054e-12
3.32719e-11
8.8576e-09
4.47175e-06
7.24347e-06
9.68231e-06
1.18949e-05
1.39392e-05
1.58497e-05
1.76475e-05
1.93464e-05
2.09552e-05
2.24802e-05
2.39252e-05
2.52934e-05
2.65868e-05
2.78072e-05
2.89558e-05
3.00339e-05
3.10426e-05
3.1983e-05
3.28562e-05
3.36634e-05
3.44055e-05
3.5084e-05
3.57001e-05
3.62551e-05
3.67502e-05
3.71868e-05
3.75661e-05
3.78892e-05
3.81569e-05
3.83701e-05
3.85294e-05
3.86352e-05
3.86881e-05
3.86881e-05
3.86353e-05
3.85295e-05
3.83703e-05
3.81573e-05
3.78897e-05
3.75668e-05
3.71877e-05
3.67512e-05
3.62563e-05
3.57016e-05
3.50858e-05
3.44076e-05
3.36658e-05
3.2859e-05
3.19862e-05
3.10463e-05
3.0038e-05
2.89604e-05
2.78122e-05
2.65924e-05
2.52995e-05
2.39318e-05
2.24871e-05
2.09626e-05
1.9354e-05
1.76554e-05
1.58577e-05
1.39472e-05
1.19026e-05
9.68948e-06
7.24969e-06
4.47636e-06
8.86897e-09
3.33164e-11
5.14862e-11
1.37132e-08
6.55204e-06
1.02989e-05
1.35251e-05
1.64128e-05
1.90554e-05
2.15063e-05
2.37983e-05
2.59524e-05
2.79828e-05
2.98991e-05
3.17083e-05
3.34155e-05
3.50248e-05
3.65393e-05
3.79618e-05
3.92947e-05
4.05398e-05
4.16988e-05
4.27734e-05
4.3765e-05
4.46752e-05
4.55057e-05
4.6258e-05
4.6934e-05
4.75358e-05
4.80658e-05
4.85257e-05
4.89223e-05
4.92537e-05
4.95189e-05
4.97178e-05
4.98504e-05
4.99167e-05
4.99167e-05
4.98505e-05
4.97181e-05
4.95193e-05
4.92541e-05
4.89229e-05
4.85265e-05
4.80666e-05
4.75366e-05
4.69347e-05
4.62587e-05
4.55064e-05
4.46761e-05
4.3766e-05
4.27745e-05
4.17001e-05
4.05412e-05
3.92964e-05
3.79638e-05
3.65415e-05
3.50272e-05
3.34183e-05
3.17113e-05
2.99024e-05
2.79864e-05
2.59563e-05
2.38023e-05
2.15104e-05
1.90595e-05
1.64168e-05
1.35289e-05
1.03023e-05
6.55469e-06
1.37208e-08
5.15163e-11
6.42097e-11
1.71107e-08
7.9103e-06
1.22412e-05
1.59395e-05
1.92351e-05
2.22423e-05
2.50255e-05
2.76237e-05
3.00621e-05
3.23575e-05
3.45215e-05
3.65626e-05
3.84871e-05
4.03003e-05
4.20058e-05
4.36067e-05
4.51048e-05
4.65015e-05
4.77982e-05
4.89961e-05
5.00966e-05
5.11011e-05
5.20156e-05
5.28401e-05
5.35761e-05
5.42272e-05
5.4795e-05
4.7094e-05
4.72885e-05
4.74532e-05
4.75865e-05
4.76873e-05
4.77548e-05
4.77886e-05
4.77886e-05
4.77547e-05
4.76872e-05
4.75865e-05
4.74531e-05
4.72884e-05
4.70939e-05
5.47949e-05
5.42273e-05
5.35764e-05
5.28405e-05
5.20161e-05
5.11016e-05
5.00971e-05
4.89966e-05
4.77987e-05
4.6502e-05
4.51053e-05
4.36073e-05
4.20066e-05
4.03011e-05
3.84881e-05
3.65637e-05
3.45228e-05
3.2359e-05
3.00638e-05
2.76255e-05
2.50273e-05
2.22442e-05
1.9237e-05
1.59413e-05
1.22429e-05
7.91167e-06
1.71153e-08
6.42285e-11
7.20895e-11
1.92184e-08
8.72072e-06
1.33847e-05
1.73531e-05
2.08834e-05
2.41016e-05
2.70783e-05
2.98559e-05
3.24618e-05
3.49141e-05
3.72256e-05
3.94055e-05
4.14609e-05
4.3397e-05
4.52175e-05
4.69244e-05
4.85188e-05
5.00014e-05
5.13723e-05
5.26303e-05
5.3772e-05
5.48668e-05
4.73717e-05
4.77884e-05
4.81715e-05
4.85184e-05
4.8828e-05
4.91013e-05
4.93348e-05
4.9529e-05
4.96842e-05
4.98006e-05
4.98782e-05
4.99169e-05
4.99169e-05
4.98781e-05
4.98004e-05
4.9684e-05
4.95287e-05
4.93344e-05
4.91009e-05
4.88276e-05
4.85181e-05
4.81713e-05
4.77882e-05
4.73716e-05
5.48666e-05
5.37721e-05
5.26306e-05
5.13725e-05
5.00015e-05
4.85189e-05
4.69245e-05
4.52177e-05
4.33973e-05
4.14613e-05
3.9406e-05
3.72262e-05
3.49148e-05
3.24625e-05
2.98568e-05
2.70792e-05
2.41026e-05
2.08844e-05
1.73541e-05
1.33856e-05
8.72156e-06
1.92215e-08
7.21032e-11
7.64468e-11
2.03859e-08
9.16075e-06
1.40017e-05
1.81145e-05
2.17709e-05
2.51034e-05
2.81855e-05
3.10617e-05
3.37604e-05
3.63006e-05
3.86954e-05
4.09544e-05
4.30851e-05
4.50925e-05
4.69795e-05
4.87475e-05
5.03971e-05
5.19301e-05
5.33524e-05
5.46814e-05
4.73869e-05
4.79308e-05
4.84295e-05
4.88865e-05
4.93023e-05
4.96768e-05
5.001e-05
5.03016e-05
5.05515e-05
5.07598e-05
5.09264e-05
5.10514e-05
5.11346e-05
5.11762e-05
5.11762e-05
5.11345e-05
5.10512e-05
5.09262e-05
5.07596e-05
5.05513e-05
5.03013e-05
5.00096e-05
4.96765e-05
4.93019e-05
4.88861e-05
4.84292e-05
4.79306e-05
4.73868e-05
5.46811e-05
5.33524e-05
5.19301e-05
5.03971e-05
4.87475e-05
4.69797e-05
4.50928e-05
4.30855e-05
4.09549e-05
3.86959e-05
3.63012e-05
3.37612e-05
3.10626e-05
2.81864e-05
2.51043e-05
2.17719e-05
1.81154e-05
1.40026e-05
9.16152e-06
2.03889e-08
7.64599e-11
7.86128e-11
2.09673e-08
9.37797e-06
1.43057e-05
1.84895e-05
2.22085e-05
2.55979e-05
2.87331e-05
3.16594e-05
3.44055e-05
3.69909e-05
3.9429e-05
4.17295e-05
4.38997e-05
4.59446e-05
4.78668e-05
4.96682e-05
5.1351e-05
5.29187e-05
5.43719e-05
4.73194e-05
4.79192e-05
4.84783e-05
4.89949e-05
4.94689e-05
4.99002e-05
5.02887e-05
5.06342e-05
5.09366e-05
5.11958e-05
5.14119e-05
5.15848e-05
5.17144e-05
5.18009e-05
5.18441e-05
5.18441e-05
5.18008e-05
5.17144e-05
5.15847e-05
5.14118e-05
5.11957e-05
5.09364e-05
5.0634e-05
5.02885e-05
4.99e-05
4.94687e-05
4.89947e-05
4.84781e-05
4.7919e-05
4.73192e-05
5.4372e-05
5.29189e-05
5.13512e-05
4.96685e-05
4.78673e-05
4.59452e-05
4.39004e-05
4.17303e-05
3.94299e-05
3.69919e-05
3.44066e-05
3.16605e-05
2.87344e-05
2.55992e-05
2.22097e-05
1.84907e-05
1.43068e-05
9.37889e-06
2.09708e-08
7.86275e-11
7.95787e-11
2.12272e-08
9.4748e-06
1.44412e-05
1.86569e-05
2.2404e-05
2.58194e-05
2.89789e-05
3.19282e-05
3.46964e-05
3.73029e-05
3.97614e-05
4.20817e-05
4.42712e-05
4.6335e-05
4.82754e-05
5.00938e-05
5.17926e-05
5.33792e-05
5.48734e-05
4.75482e-05
4.8167e-05
4.87371e-05
4.92628e-05
4.9745e-05
5.01838e-05
5.0579e-05
5.09305e-05
5.12383e-05
5.15022e-05
5.17221e-05
5.18981e-05
5.20301e-05
5.21181e-05
5.21621e-05
5.21621e-05
5.21181e-05
5.20301e-05
5.1898e-05
5.17221e-05
5.15021e-05
5.12382e-05
5.09305e-05
5.05789e-05
5.01837e-05
4.9745e-05
4.92628e-05
4.87371e-05
4.81671e-05
4.75483e-05
5.48735e-05
5.33795e-05
5.17933e-05
5.00947e-05
4.82763e-05
4.6336e-05
4.42723e-05
4.20829e-05
3.97627e-05
3.73043e-05
3.46979e-05
3.19297e-05
2.89805e-05
2.58211e-05
2.24056e-05
1.86584e-05
1.44425e-05
9.47591e-06
2.12311e-08
7.95953e-11
7.99706e-11
2.13328e-08
9.51416e-06
1.44963e-05
1.87249e-05
2.24837e-05
2.59097e-05
2.90792e-05
3.2038e-05
3.48155e-05
3.74312e-05
3.98987e-05
4.22281e-05
4.44269e-05
4.64997e-05
4.84482e-05
5.02721e-05
5.19692e-05
5.35365e-05
5.50714e-05
4.76718e-05
4.82798e-05
4.88493e-05
4.93774e-05
4.98629e-05
5.03049e-05
5.07031e-05
5.10573e-05
5.13674e-05
5.16334e-05
5.1855e-05
5.20324e-05
5.21655e-05
5.22542e-05
5.22985e-05
5.22985e-05
5.22542e-05
5.21654e-05
5.20324e-05
5.1855e-05
5.16334e-05
5.13674e-05
5.10573e-05
5.07031e-05
5.03049e-05
4.98629e-05
4.93775e-05
4.88494e-05
4.828e-05
4.76719e-05
5.50717e-05
5.35371e-05
5.19703e-05
5.02733e-05
4.84494e-05
4.6501e-05
4.44283e-05
4.22297e-05
3.99004e-05
3.74329e-05
3.48173e-05
3.20399e-05
2.90811e-05
2.59116e-05
2.24855e-05
1.87267e-05
1.44978e-05
9.51541e-06
2.13372e-08
7.99887e-11
8.01196e-11
2.1373e-08
9.52918e-06
1.45173e-05
1.8751e-05
2.25142e-05
2.59444e-05
2.91179e-05
3.20806e-05
3.48618e-05
3.74811e-05
3.99524e-05
4.22854e-05
4.44878e-05
4.65643e-05
4.85164e-05
5.03435e-05
5.20425e-05
5.36083e-05
4.70498e-05
4.7704e-05
4.83182e-05
4.8891e-05
4.94213e-05
4.99083e-05
5.03517e-05
5.07512e-05
5.11065e-05
5.14175e-05
5.16843e-05
5.19066e-05
5.20846e-05
5.2218e-05
5.2307e-05
5.23515e-05
5.23515e-05
5.2307e-05
5.2218e-05
5.20846e-05
5.19067e-05
5.16843e-05
5.14176e-05
5.11065e-05
5.07512e-05
5.03518e-05
4.99085e-05
4.94214e-05
4.88912e-05
4.83184e-05
4.77042e-05
4.70501e-05
5.36092e-05
5.20436e-05
5.03447e-05
4.85177e-05
4.65657e-05
4.44894e-05
4.22871e-05
3.99542e-05
3.74831e-05
3.48638e-05
3.20826e-05
2.912e-05
2.59465e-05
2.25162e-05
1.87529e-05
1.4519e-05
9.53051e-06
2.13776e-08
8.01385e-11
8.01716e-11
2.13871e-08
9.53444e-06
1.45247e-05
1.87602e-05
2.25249e-05
2.59566e-05
2.91314e-05
3.20952e-05
3.48774e-05
3.74976e-05
3.99692e-05
4.23024e-05
4.45045e-05
4.65805e-05
4.85325e-05
5.03601e-05
5.20611e-05
5.363e-05
4.7061e-05
4.77166e-05
4.83321e-05
4.89059e-05
4.94369e-05
4.99245e-05
5.03684e-05
5.07682e-05
5.11239e-05
5.14353e-05
5.17023e-05
5.19249e-05
5.2103e-05
5.22367e-05
5.23258e-05
5.23703e-05
5.23703e-05
5.23258e-05
5.22367e-05
5.21031e-05
5.1925e-05
5.17024e-05
5.14354e-05
5.1124e-05
5.07684e-05
5.03685e-05
4.99247e-05
4.94371e-05
4.89061e-05
4.83324e-05
4.77169e-05
4.70613e-05
5.36309e-05
5.20622e-05
5.03614e-05
4.85338e-05
4.65821e-05
4.45062e-05
4.23042e-05
3.99711e-05
3.74996e-05
3.48795e-05
3.20974e-05
2.91335e-05
2.59587e-05
2.2527e-05
1.87621e-05
1.45264e-05
9.53581e-06
2.13918e-08
8.01909e-11
8.01882e-11
2.13916e-08
9.53613e-06
1.45271e-05
1.87631e-05
2.25284e-05
2.59605e-05
2.91358e-05
3.21001e-05
3.48827e-05
3.75032e-05
3.99752e-05
4.23086e-05
4.4511e-05
4.65873e-05
4.85395e-05
5.03675e-05
5.20689e-05
5.36384e-05
4.7065e-05
4.77209e-05
4.83367e-05
4.89107e-05
4.9442e-05
4.99298e-05
5.03738e-05
5.07738e-05
5.11296e-05
5.14411e-05
5.17082e-05
5.19309e-05
5.21091e-05
5.22427e-05
5.23318e-05
5.23764e-05
5.23764e-05
5.23319e-05
5.22427e-05
5.21091e-05
5.19309e-05
5.17083e-05
5.14412e-05
5.11297e-05
5.07739e-05
5.03739e-05
4.993e-05
4.94422e-05
4.8911e-05
4.8337e-05
4.77213e-05
4.70654e-05
5.36394e-05
5.20701e-05
5.03688e-05
4.85409e-05
4.65889e-05
4.45127e-05
4.23105e-05
3.99771e-05
3.75052e-05
3.48848e-05
3.21022e-05
2.91379e-05
2.59627e-05
2.25305e-05
1.8765e-05
1.45288e-05
9.53751e-06
2.13963e-08
8.02076e-11
8.0193e-11
2.13929e-08
9.53662e-06
1.45278e-05
1.8764e-05
2.25294e-05
2.59617e-05
2.91371e-05
3.21015e-05
3.48843e-05
3.75049e-05
3.9977e-05
4.23106e-05
4.45131e-05
4.65895e-05
4.85418e-05
5.037e-05
5.20716e-05
5.36412e-05
4.70663e-05
4.77223e-05
4.83381e-05
4.89122e-05
4.94435e-05
4.99313e-05
5.03754e-05
5.07754e-05
5.11313e-05
5.14428e-05
5.171e-05
5.19327e-05
5.21109e-05
5.22445e-05
5.23337e-05
5.23783e-05
5.23783e-05
5.23337e-05
5.22446e-05
5.21109e-05
5.19327e-05
5.171e-05
5.14429e-05
5.11314e-05
5.07756e-05
5.03756e-05
4.99315e-05
4.94437e-05
4.89124e-05
4.83384e-05
4.77226e-05
4.70667e-05
5.36421e-05
5.20727e-05
5.03713e-05
4.85433e-05
4.65911e-05
4.45149e-05
4.23125e-05
3.9979e-05
3.7507e-05
3.48864e-05
3.21037e-05
2.91393e-05
2.59639e-05
2.25315e-05
1.87659e-05
1.45295e-05
9.53801e-06
2.13977e-08
8.02125e-11
8.01943e-11
2.13933e-08
9.53676e-06
1.4528e-05
1.87642e-05
2.25297e-05
2.5962e-05
2.91374e-05
3.21019e-05
3.48847e-05
3.75054e-05
3.99775e-05
4.23111e-05
4.45137e-05
4.65901e-05
4.85425e-05
5.03707e-05
5.20723e-05
5.36419e-05
4.70667e-05
4.77227e-05
4.83385e-05
4.89126e-05
4.94439e-05
4.99318e-05
5.03759e-05
5.07759e-05
5.11318e-05
5.14433e-05
5.17105e-05
5.19332e-05
5.21114e-05
5.22451e-05
5.23342e-05
5.23788e-05
5.23788e-05
5.23342e-05
5.22451e-05
5.21114e-05
5.19332e-05
5.17105e-05
5.14434e-05
5.11319e-05
5.0776e-05
5.0376e-05
4.9932e-05
4.94441e-05
4.89129e-05
4.83388e-05
4.7723e-05
4.7067e-05
5.36429e-05
5.20735e-05
5.0372e-05
4.85439e-05
4.65917e-05
4.45154e-05
4.2313e-05
3.99795e-05
3.75074e-05
3.48869e-05
3.21041e-05
2.91396e-05
2.59642e-05
2.25318e-05
1.87662e-05
1.45297e-05
9.53815e-06
2.1398e-08
8.02138e-11
8.01946e-11
2.13934e-08
9.53679e-06
1.4528e-05
1.87643e-05
2.25298e-05
2.59621e-05
2.91375e-05
3.2102e-05
3.48848e-05
3.75055e-05
3.99777e-05
4.23113e-05
4.45139e-05
4.65903e-05
4.85426e-05
5.03709e-05
5.20725e-05
5.36421e-05
4.70668e-05
4.77228e-05
4.83386e-05
4.89127e-05
4.9444e-05
4.99319e-05
5.0376e-05
5.0776e-05
5.11319e-05
5.14434e-05
5.17106e-05
5.19333e-05
5.21115e-05
5.22452e-05
5.23343e-05
5.23789e-05
5.23789e-05
5.23343e-05
5.22452e-05
5.21115e-05
5.19333e-05
5.17106e-05
5.14435e-05
5.1132e-05
5.07762e-05
5.03761e-05
4.99321e-05
4.94442e-05
4.8913e-05
4.83389e-05
4.77231e-05
4.70671e-05
5.36431e-05
5.20737e-05
5.03722e-05
4.85441e-05
4.65919e-05
4.45156e-05
4.23132e-05
3.99796e-05
3.75076e-05
3.4887e-05
3.21042e-05
2.91397e-05
2.59643e-05
2.25319e-05
1.87662e-05
1.45297e-05
9.53818e-06
2.13981e-08
8.02142e-11
8.01947e-11
2.13934e-08
9.5368e-06
1.4528e-05
1.87643e-05
2.25298e-05
2.59621e-05
2.91376e-05
3.2102e-05
3.48848e-05
3.75055e-05
3.99777e-05
4.23113e-05
4.45139e-05
4.65903e-05
4.85427e-05
5.03709e-05
5.20725e-05
5.36422e-05
4.70668e-05
4.77228e-05
4.83386e-05
4.89127e-05
4.9444e-05
4.99319e-05
5.0376e-05
5.07761e-05
5.11319e-05
5.14435e-05
5.17106e-05
5.19333e-05
5.21115e-05
5.22452e-05
5.23344e-05
5.23789e-05
5.23789e-05
5.23344e-05
5.22452e-05
5.21116e-05
5.19334e-05
5.17107e-05
5.14435e-05
5.1132e-05
5.07762e-05
5.03762e-05
4.99321e-05
4.94443e-05
4.8913e-05
4.83389e-05
4.77231e-05
4.70671e-05
5.36432e-05
5.20737e-05
5.03722e-05
4.85442e-05
4.65919e-05
4.45156e-05
4.23132e-05
3.99797e-05
3.75076e-05
3.4887e-05
3.21042e-05
2.91398e-05
2.59643e-05
2.25319e-05
1.87662e-05
1.45297e-05
9.53819e-06
2.13981e-08
8.02142e-11
8.01947e-11
2.13934e-08
9.5368e-06
1.4528e-05
1.87643e-05
2.25298e-05
2.59621e-05
2.91376e-05
3.2102e-05
3.48849e-05
3.75055e-05
3.99777e-05
4.23113e-05
4.45139e-05
4.65903e-05
4.85427e-05
5.03709e-05
5.20725e-05
5.36422e-05
4.70668e-05
4.77228e-05
4.83386e-05
4.89127e-05
4.9444e-05
4.99319e-05
5.0376e-05
5.07761e-05
5.11319e-05
5.14435e-05
5.17106e-05
5.19333e-05
5.21115e-05
5.22452e-05
5.23344e-05
5.23789e-05
5.23789e-05
5.23344e-05
5.22453e-05
5.21116e-05
5.19334e-05
5.17107e-05
5.14435e-05
5.1132e-05
5.07762e-05
5.03762e-05
4.99321e-05
4.94443e-05
4.8913e-05
4.83389e-05
4.77231e-05
4.70671e-05
5.36432e-05
5.20737e-05
5.03722e-05
4.85442e-05
4.65919e-05
4.45156e-05
4.23132e-05
3.99797e-05
3.75076e-05
3.4887e-05
3.21042e-05
2.91398e-05
2.59643e-05
2.25319e-05
1.87662e-05
1.45297e-05
9.53819e-06
2.13981e-08
8.02143e-11
8.01947e-11
2.13934e-08
9.5368e-06
1.4528e-05
1.87643e-05
2.25298e-05
2.59621e-05
2.91376e-05
3.2102e-05
3.48849e-05
3.75055e-05
3.99777e-05
4.23113e-05
4.45139e-05
4.65903e-05
4.85427e-05
5.03709e-05
5.20725e-05
5.36422e-05
4.70668e-05
4.77228e-05
4.83386e-05
4.89127e-05
4.9444e-05
4.99319e-05
5.0376e-05
5.07761e-05
5.11319e-05
5.14435e-05
5.17106e-05
5.19333e-05
5.21115e-05
5.22452e-05
5.23344e-05
5.23789e-05
5.2379e-05
5.23344e-05
5.22453e-05
5.21116e-05
5.19334e-05
5.17107e-05
5.14435e-05
5.1132e-05
5.07762e-05
5.03762e-05
4.99321e-05
4.94443e-05
4.8913e-05
4.83389e-05
4.77231e-05
4.70671e-05
5.36432e-05
5.20737e-05
5.03722e-05
4.85442e-05
4.65919e-05
4.45156e-05
4.23132e-05
3.99797e-05
3.75076e-05
3.4887e-05
3.21042e-05
2.91398e-05
2.59643e-05
2.25319e-05
1.87662e-05
1.45297e-05
9.53819e-06
2.13981e-08
8.02143e-11
8.01947e-11
2.13934e-08
9.5368e-06
1.4528e-05
1.87643e-05
2.25298e-05
2.59621e-05
2.91376e-05
3.2102e-05
3.48849e-05
3.75055e-05
3.99777e-05
4.23113e-05
4.45139e-05
4.65903e-05
4.85427e-05
5.03709e-05
5.20725e-05
5.36422e-05
4.70668e-05
4.77228e-05
4.83386e-05
4.89127e-05
4.9444e-05
4.99319e-05
5.0376e-05
5.07761e-05
5.11319e-05
5.14435e-05
5.17106e-05
5.19333e-05
5.21115e-05
5.22452e-05
5.23344e-05
5.23789e-05
5.2379e-05
5.23344e-05
5.22453e-05
5.21116e-05
5.19334e-05
5.17107e-05
5.14435e-05
5.1132e-05
5.07762e-05
5.03762e-05
4.99321e-05
4.94443e-05
4.8913e-05
4.83389e-05
4.77231e-05
4.70671e-05
5.36432e-05
5.20737e-05
5.03722e-05
4.85442e-05
4.65919e-05
4.45156e-05
4.23132e-05
3.99797e-05
3.75076e-05
3.4887e-05
3.21042e-05
2.91398e-05
2.59643e-05
2.25319e-05
1.87662e-05
1.45297e-05
9.5382e-06
2.13981e-08
8.02143e-11
8.01947e-11
2.13934e-08
9.5368e-06
1.4528e-05
1.87643e-05
2.25298e-05
2.59621e-05
2.91376e-05
3.2102e-05
3.48849e-05
3.75055e-05
3.99777e-05
4.23113e-05
4.45139e-05
4.65903e-05
4.85427e-05
5.03709e-05
5.20725e-05
5.36422e-05
4.70668e-05
4.77228e-05
4.83386e-05
4.89127e-05
4.9444e-05
4.99319e-05
5.0376e-05
5.07761e-05
5.11319e-05
5.14435e-05
5.17106e-05
5.19333e-05
5.21115e-05
5.22452e-05
5.23344e-05
5.23789e-05
5.2379e-05
5.23344e-05
5.22453e-05
5.21116e-05
5.19334e-05
5.17107e-05
5.14435e-05
5.1132e-05
5.07762e-05
5.03762e-05
4.99321e-05
4.94443e-05
4.8913e-05
4.83389e-05
4.77231e-05
4.70671e-05
5.36432e-05
5.20737e-05
5.03722e-05
4.85442e-05
4.65919e-05
4.45156e-05
4.23132e-05
3.99797e-05
3.75076e-05
3.4887e-05
3.21042e-05
2.91398e-05
2.59643e-05
2.25319e-05
1.87662e-05
1.45297e-05
9.5382e-06
2.13981e-08
8.02143e-11
8.01947e-11
2.13934e-08
9.5368e-06
1.4528e-05
1.87643e-05
2.25298e-05
2.59621e-05
2.91376e-05
3.2102e-05
3.48849e-05
3.75055e-05
3.99777e-05
4.23113e-05
4.45139e-05
4.65903e-05
4.85427e-05
5.03709e-05
5.20725e-05
5.36422e-05
4.70668e-05
4.77228e-05
4.83386e-05
4.89127e-05
4.9444e-05
4.99319e-05
5.0376e-05
5.07761e-05
5.11319e-05
5.14435e-05
5.17106e-05
5.19333e-05
5.21115e-05
5.22452e-05
5.23344e-05
5.23789e-05
5.2379e-05
5.23344e-05
5.22453e-05
5.21116e-05
5.19334e-05
5.17107e-05
5.14435e-05
5.1132e-05
5.07762e-05
5.03762e-05
4.99321e-05
4.94443e-05
4.8913e-05
4.83389e-05
4.77231e-05
4.70671e-05
5.36432e-05
5.20737e-05
5.03722e-05
4.85442e-05
4.65919e-05
4.45156e-05
4.23132e-05
3.99797e-05
3.75076e-05
3.4887e-05
3.21042e-05
2.91398e-05
2.59643e-05
2.25319e-05
1.87662e-05
1.45297e-05
9.5382e-06
2.13981e-08
8.02143e-11
8.01947e-11
2.13934e-08
9.5368e-06
1.4528e-05
1.87643e-05
2.25298e-05
2.59621e-05
2.91376e-05
3.2102e-05
3.48849e-05
3.75055e-05
3.99777e-05
4.23113e-05
4.45139e-05
4.65903e-05
4.85427e-05
5.03709e-05
5.20725e-05
5.36422e-05
4.70668e-05
4.77228e-05
4.83386e-05
4.89127e-05
4.9444e-05
4.99319e-05
5.0376e-05
5.07761e-05
5.11319e-05
5.14435e-05
5.17106e-05
5.19333e-05
5.21115e-05
5.22452e-05
5.23344e-05
5.23789e-05
5.2379e-05
5.23344e-05
5.22453e-05
5.21116e-05
5.19334e-05
5.17107e-05
5.14435e-05
5.1132e-05
5.07762e-05
5.03762e-05
4.99321e-05
4.94443e-05
4.8913e-05
4.83389e-05
4.77231e-05
4.70671e-05
5.36432e-05
5.20737e-05
5.03722e-05
4.85442e-05
4.65919e-05
4.45156e-05
4.23132e-05
3.99797e-05
3.75076e-05
3.4887e-05
3.21042e-05
2.91398e-05
2.59643e-05
2.25319e-05
1.87662e-05
1.45297e-05
9.5382e-06
2.13981e-08
8.02143e-11
8.01947e-11
2.13934e-08
9.5368e-06
1.4528e-05
1.87643e-05
2.25298e-05
2.59621e-05
2.91376e-05
3.2102e-05
3.48849e-05
3.75055e-05
3.99777e-05
4.23113e-05
4.45139e-05
4.65903e-05
4.85427e-05
5.03709e-05
5.20725e-05
5.36422e-05
4.70668e-05
4.77228e-05
4.83386e-05
4.89127e-05
4.9444e-05
4.99319e-05
5.0376e-05
5.07761e-05
5.11319e-05
5.14435e-05
5.17106e-05
5.19333e-05
5.21115e-05
5.22452e-05
5.23344e-05
5.23789e-05
5.2379e-05
5.23344e-05
5.22453e-05
5.21116e-05
5.19334e-05
5.17107e-05
5.14435e-05
5.1132e-05
5.07762e-05
5.03762e-05
4.99321e-05
4.94443e-05
4.8913e-05
4.83389e-05
4.77231e-05
4.70671e-05
5.36432e-05
5.20737e-05
5.03722e-05
4.85442e-05
4.65919e-05
4.45156e-05
4.23132e-05
3.99797e-05
3.75076e-05
3.4887e-05
3.21042e-05
2.91398e-05
2.59643e-05
2.25319e-05
1.87662e-05
1.45297e-05
9.5382e-06
2.13981e-08
8.02143e-11
8.01947e-11
2.13934e-08
9.5368e-06
1.4528e-05
1.87643e-05
2.25298e-05
2.59621e-05
2.91376e-05
3.2102e-05
3.48849e-05
3.75055e-05
3.99777e-05
4.23113e-05
4.45139e-05
4.65903e-05
4.85427e-05
5.03709e-05
5.20725e-05
5.36422e-05
4.70668e-05
4.77228e-05
4.83386e-05
4.89127e-05
4.9444e-05
4.99319e-05
5.0376e-05
5.07761e-05
5.11319e-05
5.14435e-05
5.17106e-05
5.19333e-05
5.21115e-05
5.22452e-05
5.23344e-05
5.23789e-05
5.2379e-05
5.23344e-05
5.22453e-05
5.21116e-05
5.19334e-05
5.17107e-05
5.14435e-05
5.1132e-05
5.07762e-05
5.03762e-05
4.99321e-05
4.94443e-05
4.8913e-05
4.83389e-05
4.77231e-05
4.70671e-05
5.36432e-05
5.20737e-05
5.03722e-05
4.85442e-05
4.65919e-05
4.45156e-05
4.23132e-05
3.99797e-05
3.75076e-05
3.4887e-05
3.21042e-05
2.91398e-05
2.59643e-05
2.25319e-05
1.87662e-05
1.45297e-05
9.5382e-06
2.13981e-08
8.02143e-11
8.01947e-11
2.13934e-08
9.5368e-06
1.4528e-05
1.87643e-05
2.25298e-05
2.59621e-05
2.91376e-05
3.2102e-05
3.48849e-05
3.75055e-05
3.99777e-05
4.23113e-05
4.45139e-05
4.65903e-05
4.85427e-05
5.03709e-05
5.20725e-05
5.36422e-05
4.70668e-05
4.77228e-05
4.83386e-05
4.89127e-05
4.9444e-05
4.99319e-05
5.0376e-05
5.07761e-05
5.11319e-05
5.14435e-05
5.17106e-05
5.19333e-05
5.21115e-05
5.22452e-05
5.23344e-05
5.23789e-05
5.2379e-05
5.23344e-05
5.22453e-05
5.21116e-05
5.19334e-05
5.17107e-05
5.14435e-05
5.1132e-05
5.07762e-05
5.03762e-05
4.99321e-05
4.94443e-05
4.8913e-05
4.83389e-05
4.77231e-05
4.70671e-05
5.36432e-05
5.20737e-05
5.03722e-05
4.85442e-05
4.65919e-05
4.45156e-05
4.23132e-05
3.99797e-05
3.75076e-05
3.4887e-05
3.21042e-05
2.91398e-05
2.59643e-05
2.25319e-05
1.87662e-05
1.45297e-05
9.5382e-06
2.13981e-08
8.02143e-11
8.01947e-11
2.13934e-08
9.5368e-06
1.4528e-05
1.87643e-05
2.25298e-05
2.59621e-05
2.91376e-05
3.2102e-05
3.48849e-05
3.75055e-05
3.99777e-05
4.23113e-05
4.45139e-05
4.65903e-05
4.85427e-05
5.03709e-05
5.20725e-05
5.36422e-05
4.70668e-05
4.77228e-05
4.83386e-05
4.89127e-05
4.9444e-05
4.99319e-05
5.0376e-05
5.07761e-05
5.11319e-05
5.14435e-05
5.17106e-05
5.19333e-05
5.21115e-05
5.22452e-05
5.23344e-05
5.23789e-05
5.2379e-05
5.23344e-05
5.22453e-05
5.21116e-05
5.19334e-05
5.17107e-05
5.14435e-05
5.1132e-05
5.07762e-05
5.03762e-05
4.99321e-05
4.94443e-05
4.8913e-05
4.83389e-05
4.77231e-05
4.70671e-05
5.36432e-05
5.20737e-05
5.03722e-05
4.85442e-05
4.65919e-05
4.45156e-05
4.23132e-05
3.99797e-05
3.75076e-05
3.4887e-05
3.21042e-05
2.91398e-05
2.59643e-05
2.25319e-05
1.87662e-05
1.45297e-05
9.5382e-06
2.13981e-08
8.02143e-11
8.01947e-11
2.13934e-08
9.5368e-06
1.4528e-05
1.87643e-05
2.25298e-05
2.59621e-05
2.91376e-05
3.2102e-05
3.48849e-05
3.75055e-05
3.99777e-05
4.23113e-05
4.45139e-05
4.65903e-05
4.85427e-05
5.03709e-05
5.20725e-05
5.36422e-05
4.70668e-05
4.77228e-05
4.83386e-05
4.89127e-05
4.9444e-05
4.99319e-05
5.0376e-05
5.07761e-05
5.11319e-05
5.14435e-05
5.17106e-05
5.19333e-05
5.21115e-05
5.22452e-05
5.23344e-05
5.23789e-05
5.2379e-05
5.23344e-05
5.22453e-05
5.21116e-05
5.19334e-05
5.17107e-05
5.14435e-05
5.1132e-05
5.07762e-05
5.03762e-05
4.99321e-05
4.94443e-05
4.8913e-05
4.83389e-05
4.77231e-05
4.70671e-05
5.36432e-05
5.20737e-05
5.03722e-05
4.85442e-05
4.65919e-05
4.45156e-05
4.23132e-05
3.99797e-05
3.75076e-05
3.4887e-05
3.21042e-05
2.91398e-05
2.59643e-05
2.25319e-05
1.87662e-05
1.45297e-05
9.5382e-06
2.13981e-08
8.02143e-11
8.01947e-11
2.13934e-08
9.5368e-06
1.4528e-05
1.87643e-05
2.25298e-05
2.59621e-05
2.91376e-05
3.2102e-05
3.48849e-05
3.75055e-05
3.99777e-05
4.23113e-05
4.45139e-05
4.65903e-05
4.85427e-05
5.03709e-05
5.20725e-05
5.36422e-05
4.70668e-05
4.77228e-05
4.83386e-05
4.89127e-05
4.9444e-05
4.99319e-05
5.0376e-05
5.07761e-05
5.11319e-05
5.14435e-05
5.17106e-05
5.19333e-05
5.21115e-05
5.22452e-05
5.23344e-05
5.23789e-05
5.2379e-05
5.23344e-05
5.22453e-05
5.21116e-05
5.19334e-05
5.17107e-05
5.14435e-05
5.1132e-05
5.07762e-05
5.03762e-05
4.99321e-05
4.94443e-05
4.8913e-05
4.83389e-05
4.77231e-05
4.70671e-05
5.36432e-05
5.20737e-05
5.03722e-05
4.85442e-05
4.65919e-05
4.45156e-05
4.23132e-05
3.99797e-05
3.75076e-05
3.4887e-05
3.21042e-05
2.91398e-05
2.59643e-05
2.25319e-05
1.87662e-05
1.45297e-05
9.5382e-06
2.13981e-08
8.02143e-11
8.01947e-11
2.13934e-08
9.5368e-06
1.4528e-05
1.87643e-05
2.25298e-05
2.59621e-05
2.91376e-05
3.2102e-05
3.48849e-05
3.75055e-05
3.99777e-05
4.23113e-05
4.45139e-05
4.65903e-05
4.85427e-05
5.03709e-05
5.20725e-05
5.36422e-05
4.70668e-05
4.77228e-05
4.83386e-05
4.89127e-05
4.9444e-05
4.99319e-05
5.0376e-05
5.07761e-05
5.11319e-05
5.14435e-05
5.17106e-05
5.19333e-05
5.21115e-05
5.22452e-05
5.23344e-05
5.23789e-05
5.2379e-05
5.23344e-05
5.22453e-05
5.21116e-05
5.19334e-05
5.17107e-05
5.14435e-05
5.1132e-05
5.07762e-05
5.03762e-05
4.99321e-05
4.94443e-05
4.8913e-05
4.83389e-05
4.77231e-05
4.70671e-05
5.36432e-05
5.20737e-05
5.03722e-05
4.85442e-05
4.65919e-05
4.45156e-05
4.23132e-05
3.99797e-05
3.75076e-05
3.4887e-05
3.21042e-05
2.91398e-05
2.59643e-05
2.25319e-05
1.87662e-05
1.45297e-05
9.5382e-06
2.13981e-08
8.02143e-11
8.01947e-11
2.13934e-08
9.5368e-06
1.4528e-05
1.87643e-05
2.25298e-05
2.59621e-05
2.91376e-05
3.2102e-05
3.48849e-05
3.75055e-05
3.99777e-05
4.23113e-05
4.45139e-05
4.65903e-05
4.85427e-05
5.03709e-05
5.20725e-05
5.36422e-05
4.70668e-05
4.77228e-05
4.83386e-05
4.89127e-05
4.9444e-05
4.99319e-05
5.0376e-05
5.07761e-05
5.11319e-05
5.14435e-05
5.17106e-05
5.19333e-05
5.21115e-05
5.22452e-05
5.23344e-05
5.23789e-05
5.2379e-05
5.23344e-05
5.22453e-05
5.21116e-05
5.19334e-05
5.17107e-05
5.14435e-05
5.1132e-05
5.07762e-05
5.03762e-05
4.99321e-05
4.94443e-05
4.8913e-05
4.83389e-05
4.77231e-05
4.70671e-05
5.36432e-05
5.20737e-05
5.03722e-05
4.85442e-05
4.65919e-05
4.45156e-05
4.23132e-05
3.99797e-05
3.75076e-05
3.4887e-05
3.21042e-05
2.91398e-05
2.59643e-05
2.25319e-05
1.87662e-05
1.45297e-05
9.5382e-06
2.13981e-08
8.02143e-11
8.01947e-11
2.13934e-08
9.5368e-06
1.4528e-05
1.87643e-05
2.25298e-05
2.59621e-05
2.91376e-05
3.2102e-05
3.48849e-05
3.75055e-05
3.99777e-05
4.23113e-05
4.45139e-05
4.65903e-05
4.85427e-05
5.03709e-05
5.20725e-05
5.36422e-05
4.70668e-05
4.77228e-05
4.83386e-05
4.89127e-05
4.9444e-05
4.99319e-05
5.0376e-05
5.07761e-05
5.11319e-05
5.14435e-05
5.17106e-05
5.19333e-05
5.21115e-05
5.22452e-05
5.23344e-05
5.23789e-05
5.2379e-05
5.23344e-05
5.22453e-05
5.21116e-05
5.19334e-05
5.17107e-05
5.14435e-05
5.1132e-05
5.07762e-05
5.03762e-05
4.99321e-05
4.94443e-05
4.8913e-05
4.83389e-05
4.77231e-05
4.70671e-05
5.36432e-05
5.20737e-05
5.03722e-05
4.85442e-05
4.65919e-05
4.45156e-05
4.23132e-05
3.99797e-05
3.75076e-05
3.4887e-05
3.21042e-05
2.91398e-05
2.59643e-05
2.25319e-05
1.87662e-05
1.45297e-05
9.5382e-06
2.13981e-08
8.02143e-11
8.01947e-11
2.13934e-08
9.5368e-06
1.4528e-05
1.87643e-05
2.25298e-05
2.59621e-05
2.91376e-05
3.2102e-05
3.48849e-05
3.75055e-05
3.99777e-05
4.23113e-05
4.45139e-05
4.65903e-05
4.85427e-05
5.03709e-05
5.20725e-05
5.36422e-05
4.70668e-05
4.77228e-05
4.83386e-05
4.89127e-05
4.9444e-05
4.99319e-05
5.0376e-05
5.07761e-05
5.11319e-05
5.14435e-05
5.17106e-05
5.19333e-05
5.21115e-05
5.22452e-05
5.23344e-05
5.23789e-05
5.2379e-05
5.23344e-05
5.22453e-05
5.21116e-05
5.19334e-05
5.17107e-05
5.14435e-05
5.1132e-05
5.07762e-05
5.03762e-05
4.99321e-05
4.94443e-05
4.8913e-05
4.83389e-05
4.77231e-05
4.70671e-05
5.36432e-05
5.20737e-05
5.03722e-05
4.85442e-05
4.65919e-05
4.45156e-05
4.23132e-05
3.99797e-05
3.75076e-05
3.4887e-05
3.21042e-05
2.91398e-05
2.59643e-05
2.25319e-05
1.87662e-05
1.45297e-05
9.5382e-06
2.13981e-08
8.02143e-11
8.01947e-11
2.13934e-08
9.5368e-06
1.4528e-05
1.87643e-05
2.25298e-05
2.59621e-05
2.91376e-05
3.2102e-05
3.48849e-05
3.75055e-05
3.99777e-05
4.23113e-05
4.45139e-05
4.65903e-05
4.85427e-05
5.03709e-05
5.20725e-05
5.36422e-05
4.70668e-05
4.77228e-05
4.83386e-05
4.89127e-05
4.9444e-05
4.99319e-05
5.0376e-05
5.07761e-05
5.11319e-05
5.14435e-05
5.17106e-05
5.19333e-05
5.21115e-05
5.22452e-05
5.23344e-05
5.23789e-05
5.2379e-05
5.23344e-05
5.22453e-05
5.21116e-05
5.19334e-05
5.17107e-05
5.14435e-05
5.1132e-05
5.07762e-05
5.03762e-05
4.99321e-05
4.94443e-05
4.8913e-05
4.83389e-05
4.77231e-05
4.70671e-05
5.36432e-05
5.20737e-05
5.03722e-05
4.85442e-05
4.65919e-05
4.45156e-05
4.23132e-05
3.99797e-05
3.75076e-05
3.4887e-05
3.21042e-05
2.91398e-05
2.59643e-05
2.25319e-05
1.87662e-05
1.45297e-05
9.5382e-06
2.13981e-08
8.02143e-11
8.01947e-11
2.13934e-08
9.5368e-06
1.4528e-05
1.87643e-05
2.25298e-05
2.59621e-05
2.91376e-05
3.2102e-05
3.48849e-05
3.75055e-05
3.99777e-05
4.23113e-05
4.45139e-05
4.65903e-05
4.85427e-05
5.03709e-05
5.20725e-05
5.36422e-05
4.70668e-05
4.77228e-05
4.83386e-05
4.89127e-05
4.9444e-05
4.99319e-05
5.0376e-05
5.07761e-05
5.11319e-05
5.14435e-05
5.17106e-05
5.19333e-05
5.21115e-05
5.22452e-05
5.23344e-05
5.23789e-05
5.2379e-05
5.23344e-05
5.22453e-05
5.21116e-05
5.19334e-05
5.17107e-05
5.14435e-05
5.1132e-05
5.07762e-05
5.03762e-05
4.99321e-05
4.94443e-05
4.8913e-05
4.83389e-05
4.77231e-05
4.70671e-05
5.36432e-05
5.20737e-05
5.03722e-05
4.85442e-05
4.65919e-05
4.45156e-05
4.23132e-05
3.99797e-05
3.75076e-05
3.4887e-05
3.21042e-05
2.91398e-05
2.59643e-05
2.25319e-05
1.87662e-05
1.45297e-05
9.5382e-06
2.13981e-08
8.02143e-11
8.01947e-11
2.13934e-08
9.5368e-06
1.4528e-05
1.87643e-05
2.25298e-05
2.59621e-05
2.91376e-05
3.2102e-05
3.48849e-05
3.75055e-05
3.99777e-05
4.23113e-05
4.45139e-05
4.65903e-05
4.85427e-05
5.03709e-05
5.20725e-05
5.36422e-05
4.70668e-05