/*--------------------------------*- C++ -*----------------------------------*\
  =========                 |
  \\      /  F ield         | OpenFOAM: The Open Source CFD Toolbox
   \\    /   O peration     | Website:  https://openfoam.org
    \\  /    A nd           | Version:  13
     \\/     M anipulation  |
\*---------------------------------------------------------------------------*/
FoamFile
{
    format      ascii;
    class       volScalarField;
    location    "200";
    object      rhok;
}
// * * * * * * * * * * * * * * * * * * * * * * * * * * * * * * * * * * * * * //

dimensions      [];

internalField   nonuniform List<scalar> 
315000
(
0.444654
0.430946
0.41773
0.413732
0.412933
0.41236
0.411719
0.411051
0.410372
0.409689
0.409005
0.408321
0.407638
0.406955
0.406273
0.405592
0.404911
0.404232
0.403553
0.402876
0.402199
0.401523
0.400849
0.400175
0.399502
0.398831
0.39816
0.397491
0.396823
0.396156
0.39549
0.394825
0.394161
0.393499
0.392837
0.392177
0.391518
0.39086
0.390204
0.389548
0.388894
0.388241
0.387589
0.386938
0.386289
0.38564
0.384992
0.384346
0.383701
0.383056
0.382413
0.38177
0.381128
0.380488
0.379848
0.379208
0.37857
0.377932
0.377295
0.376659
0.376023
0.375387
0.374752
0.374118
0.373483
0.372849
0.372216
0.371582
0.370949
0.370316
0.444654
0.430941
0.41772
0.413725
0.412928
0.412356
0.411715
0.411048
0.410369
0.409687
0.409003
0.408319
0.407636
0.406953
0.406271
0.40559
0.40491
0.404231
0.403552
0.402874
0.402198
0.401522
0.400847
0.400174
0.399501
0.39883
0.398159
0.39749
0.396822
0.396154
0.395488
0.394824
0.39416
0.393497
0.392836
0.392176
0.391517
0.390859
0.390203
0.389547
0.388893
0.38824
0.387588
0.386937
0.386287
0.385639
0.384991
0.384345
0.383699
0.383055
0.382412
0.381769
0.381127
0.380487
0.379847
0.379208
0.378569
0.377932
0.377294
0.376658
0.376022
0.375387
0.374752
0.374117
0.373483
0.372849
0.372216
0.371582
0.370949
0.370316
0.444654
0.430942
0.417722
0.413738
0.412937
0.412358
0.411717
0.411049
0.41037
0.409688
0.409004
0.40832
0.407636
0.406953
0.406271
0.40559
0.404909
0.40423
0.403551
0.402874
0.402197
0.401521
0.400846
0.400173
0.3995
0.398829
0.398158
0.397489
0.39682
0.396153
0.395487
0.394822
0.394159
0.393496
0.392835
0.392175
0.391516
0.390858
0.390201
0.389546
0.388892
0.388239
0.387587
0.386936
0.386286
0.385638
0.38499
0.384344
0.383699
0.383054
0.382411
0.381768
0.381127
0.380486
0.379846
0.379207
0.378569
0.377931
0.377294
0.376657
0.376022
0.375386
0.374751
0.374117
0.373483
0.372849
0.372215
0.371582
0.370949
0.370316
0.444653
0.430875
0.41654
0.414284
0.413317
0.412514
0.41178
0.411074
0.410379
0.40969
0.409004
0.408319
0.407635
0.406952
0.406269
0.405588
0.404908
0.404228
0.40355
0.402872
0.402195
0.40152
0.400845
0.400171
0.399499
0.398827
0.398156
0.397487
0.396819
0.396152
0.395486
0.394821
0.394157
0.393495
0.392833
0.392173
0.391514
0.390857
0.3902
0.389545
0.388891
0.388238
0.387586
0.386935
0.386285
0.385637
0.384989
0.384343
0.383698
0.383053
0.38241
0.381767
0.381126
0.380485
0.379845
0.379206
0.378568
0.37793
0.377293
0.376657
0.376021
0.375386
0.374751
0.374117
0.373483
0.372849
0.372215
0.371582
0.370949
0.370316
0.444653
0.430871
0.416532
0.414276
0.413311
0.412509
0.411775
0.411069
0.410375
0.409686
0.409
0.408315
0.407631
0.406948
0.406266
0.405585
0.404905
0.404225
0.403547
0.402869
0.402193
0.401517
0.400842
0.400169
0.399496
0.398825
0.398154
0.397485
0.396817
0.39615
0.395484
0.394819
0.394155
0.393493
0.392832
0.392172
0.391513
0.390855
0.390199
0.389543
0.388889
0.388236
0.387584
0.386934
0.386284
0.385636
0.384988
0.384342
0.383696
0.383052
0.382409
0.381766
0.381125
0.380484
0.379845
0.379206
0.378567
0.37793
0.377293
0.376656
0.376021
0.375385
0.374751
0.374116
0.373482
0.372849
0.372215
0.371582
0.370949
0.370316
0.444653
0.430871
0.416532
0.414276
0.413315
0.412514
0.411778
0.41107
0.410374
0.409685
0.408998
0.408312
0.407628
0.406945
0.406263
0.405582
0.404901
0.404222
0.403543
0.402866
0.402189
0.401514
0.400839
0.400166
0.399493
0.398822
0.398151
0.397482
0.396814
0.396147
0.395481
0.394816
0.394153
0.393491
0.392829
0.392169
0.391511
0.390853
0.390197
0.389541
0.388887
0.388234
0.387583
0.386932
0.386283
0.385634
0.384987
0.384341
0.383695
0.383051
0.382408
0.381765
0.381124
0.380483
0.379844
0.379205
0.378567
0.377929
0.377292
0.376656
0.37602
0.375385
0.37475
0.374116
0.373482
0.372848
0.372215
0.371582
0.370949
0.370316
0.444654
0.430936
0.417711
0.413722
0.412923
0.412348
0.411706
0.411036
0.410357
0.409674
0.408989
0.408305
0.407622
0.406939
0.406257
0.405576
0.404896
0.404217
0.403538
0.402861
0.402185
0.401509
0.400835
0.400161
0.399489
0.398818
0.398147
0.397478
0.39681
0.396143
0.395478
0.394813
0.39415
0.393488
0.392827
0.392167
0.391508
0.390851
0.390194
0.389539
0.388885
0.388232
0.387581
0.38693
0.386281
0.385633
0.384985
0.384339
0.383694
0.38305
0.382407
0.381764
0.381123
0.380483
0.379843
0.379204
0.378566
0.377928
0.377292
0.376655
0.37602
0.375385
0.37475
0.374116
0.373482
0.372848
0.372215
0.371582
0.370949
0.370316
0.444654
0.43093
0.4177
0.413702
0.412905
0.412333
0.411692
0.411024
0.410346
0.409664
0.40898
0.408297
0.407614
0.406932
0.40625
0.405569
0.404889
0.40421
0.403532
0.402855
0.402179
0.401504
0.40083
0.400156
0.399484
0.398813
0.398143
0.397474
0.396806
0.39614
0.395474
0.39481
0.394147
0.393484
0.392824
0.392164
0.391505
0.390848
0.390192
0.389537
0.388883
0.38823
0.387579
0.386928
0.386279
0.385631
0.384984
0.384338
0.383693
0.383049
0.382406
0.381763
0.381122
0.380482
0.379842
0.379203
0.378565
0.377928
0.377291
0.376655
0.376019
0.375384
0.37475
0.374115
0.373481
0.372848
0.372215
0.371581
0.370948
0.370316
0.444654
0.430926
0.417693
0.413694
0.412897
0.412324
0.411684
0.411016
0.410338
0.409656
0.408973
0.40829
0.407607
0.406925
0.406243
0.405563
0.404883
0.404204
0.403527
0.40285
0.402174
0.401499
0.400824
0.400151
0.399479
0.398809
0.398139
0.39747
0.396802
0.396136
0.395471
0.394806
0.394143
0.393481
0.392821
0.392161
0.391503
0.390846
0.390189
0.389535
0.388881
0.388228
0.387577
0.386927
0.386278
0.385629
0.384982
0.384336
0.383691
0.383047
0.382404
0.381762
0.381121
0.380481
0.379841
0.379203
0.378565
0.377927
0.37729
0.376654
0.376019
0.375384
0.374749
0.374115
0.373481
0.372848
0.372214
0.371581
0.370948
0.370316
0.444654
0.430924
0.417688
0.413689
0.412892
0.412319
0.411678
0.411011
0.410332
0.40965
0.408967
0.408284
0.407601
0.406919
0.406238
0.405558
0.404878
0.404199
0.403522
0.402845
0.402169
0.401494
0.40082
0.400147
0.399475
0.398805
0.398135
0.397466
0.396799
0.396133
0.395467
0.394803
0.39414
0.393479
0.392818
0.392159
0.3915
0.390843
0.390187
0.389533
0.388879
0.388227
0.387575
0.386925
0.386276
0.385628
0.384981
0.384335
0.38369
0.383046
0.382404
0.381762
0.38112
0.38048
0.379841
0.379202
0.378564
0.377927
0.37729
0.376654
0.376018
0.375384
0.374749
0.374115
0.373481
0.372848
0.372214
0.371581
0.370948
0.370315
0.444654
0.430922
0.417684
0.413685
0.412887
0.412314
0.411674
0.411006
0.410328
0.409646
0.408963
0.40828
0.407597
0.406915
0.406234
0.405553
0.404874
0.404195
0.403518
0.402841
0.402165
0.40149
0.400817
0.400144
0.399472
0.398801
0.398132
0.397463
0.396796
0.39613
0.395465
0.394801
0.394138
0.393476
0.392816
0.392157
0.391498
0.390842
0.390186
0.389531
0.388878
0.388225
0.387574
0.386924
0.386275
0.385627
0.38498
0.384334
0.38369
0.383046
0.382403
0.381761
0.38112
0.38048
0.37984
0.379201
0.378564
0.377926
0.37729
0.376654
0.376018
0.375383
0.374749
0.374115
0.373481
0.372847
0.372214
0.371581
0.370948
0.370315
0.444654
0.43092
0.417682
0.413682
0.412884
0.412311
0.411671
0.411003
0.410325
0.409643
0.40896
0.408277
0.407594
0.406912
0.406231
0.405551
0.404871
0.404193
0.403515
0.402838
0.402163
0.401488
0.400814
0.400141
0.39947
0.398799
0.39813
0.397461
0.396794
0.396128
0.395463
0.394799
0.394136
0.393475
0.392814
0.392155
0.391497
0.39084
0.390185
0.38953
0.388877
0.388224
0.387573
0.386923
0.386274
0.385626
0.384979
0.384334
0.383689
0.383045
0.382402
0.38176
0.381119
0.380479
0.37984
0.379201
0.378563
0.377926
0.377289
0.376653
0.376018
0.375383
0.374749
0.374115
0.373481
0.372847
0.372214
0.371581
0.370948
0.370315
0.444654
0.43092
0.41768
0.41368
0.412883
0.41231
0.411669
0.411001
0.410323
0.409641
0.408958
0.408275
0.407592
0.40691
0.406229
0.405549
0.404869
0.404191
0.403513
0.402837
0.402161
0.401486
0.400813
0.40014
0.399468
0.398798
0.398129
0.39746
0.396793
0.396127
0.395462
0.394798
0.394135
0.393474
0.392814
0.392154
0.391496
0.39084
0.390184
0.389529
0.388876
0.388224
0.387573
0.386923
0.386274
0.385626
0.384979
0.384333
0.383689
0.383045
0.382402
0.38176
0.381119
0.380479
0.37984
0.379201
0.378563
0.377926
0.377289
0.376653
0.376018
0.375383
0.374749
0.374114
0.373481
0.372847
0.372214
0.371581
0.370948
0.370315
0.444654
0.430919
0.41768
0.41368
0.412882
0.412309
0.411668
0.411001
0.410323
0.409641
0.408957
0.408274
0.407592
0.40691
0.406228
0.405548
0.404869
0.40419
0.403513
0.402836
0.40216
0.401486
0.400812
0.400139
0.399468
0.398797
0.398128
0.39746
0.396792
0.396126
0.395461
0.394798
0.394135
0.393474
0.392813
0.392154
0.391496
0.390839
0.390184
0.389529
0.388876
0.388223
0.387572
0.386922
0.386274
0.385626
0.384979
0.384333
0.383688
0.383045
0.382402
0.38176
0.381119
0.380479
0.379839
0.379201
0.378563
0.377926
0.377289
0.376653
0.376018
0.375383
0.374748
0.374114
0.373481
0.372847
0.372214
0.371581
0.370948
0.370315
0.444654
0.43092
0.41768
0.41368
0.412882
0.412309
0.411668
0.411001
0.410323
0.409641
0.408957
0.408274
0.407592
0.40691
0.406229
0.405548
0.404869
0.40419
0.403513
0.402836
0.40216
0.401486
0.400812
0.400139
0.399468
0.398797
0.398128
0.39746
0.396792
0.396126
0.395461
0.394798
0.394135
0.393474
0.392813
0.392154
0.391496
0.390839
0.390184
0.389529
0.388876
0.388223
0.387572
0.386922
0.386274
0.385626
0.384979
0.384333
0.383688
0.383045
0.382402
0.38176
0.381119
0.380479
0.379839
0.379201
0.378563
0.377926
0.377289
0.376653
0.376018
0.375383
0.374748
0.374114
0.373481
0.372847
0.372214
0.371581
0.370948
0.370315
0.444654
0.43092
0.41768
0.41368
0.412882
0.412309
0.411669
0.411001
0.410323
0.409641
0.408958
0.408275
0.407592
0.40691
0.406229
0.405549
0.404869
0.404191
0.403513
0.402836
0.402161
0.401486
0.400812
0.40014
0.399468
0.398798
0.398128
0.39746
0.396793
0.396127
0.395462
0.394798
0.394135
0.393474
0.392813
0.392154
0.391496
0.390839
0.390184
0.389529
0.388876
0.388224
0.387573
0.386923
0.386274
0.385626
0.384979
0.384333
0.383689
0.383045
0.382402
0.38176
0.381119
0.380479
0.37984
0.379201
0.378563
0.377926
0.377289
0.376653
0.376018
0.375383
0.374749
0.374114
0.373481
0.372847
0.372214
0.371581
0.370948
0.370315
0.444654
0.43092
0.417681
0.413681
0.412883
0.41231
0.411669
0.411002
0.410324
0.409641
0.408958
0.408275
0.407592
0.406911
0.406229
0.405549
0.40487
0.404191
0.403514
0.402837
0.402161
0.401487
0.400813
0.40014
0.399469
0.398798
0.398129
0.39746
0.396793
0.396127
0.395462
0.394798
0.394136
0.393474
0.392814
0.392155
0.391497
0.39084
0.390184
0.38953
0.388876
0.388224
0.387573
0.386923
0.386274
0.385626
0.384979
0.384334
0.383689
0.383045
0.382402
0.38176
0.381119
0.380479
0.37984
0.379201
0.378563
0.377926
0.377289
0.376653
0.376018
0.375383
0.374749
0.374115
0.373481
0.372847
0.372214
0.371581
0.370948
0.370315
0.444654
0.43092
0.417681
0.41368
0.412883
0.41231
0.41167
0.411002
0.410324
0.409642
0.408959
0.408276
0.407593
0.406911
0.40623
0.40555
0.40487
0.404192
0.403514
0.402838
0.402162
0.401487
0.400814
0.400141
0.399469
0.398799
0.398129
0.397461
0.396794
0.396128
0.395463
0.394799
0.394136
0.393475
0.392814
0.392155
0.391497
0.39084
0.390184
0.38953
0.388877
0.388224
0.387573
0.386923
0.386274
0.385626
0.38498
0.384334
0.383689
0.383045
0.382402
0.38176
0.381119
0.380479
0.37984
0.379201
0.378563
0.377926
0.37729
0.376654
0.376018
0.375383
0.374749
0.374115
0.373481
0.372847
0.372214
0.371581
0.370948
0.370315
0.444654
0.43092
0.417681
0.413681
0.412884
0.412311
0.411671
0.411003
0.410325
0.409643
0.40896
0.408277
0.407594
0.406912
0.406231
0.405551
0.404871
0.404193
0.403515
0.402839
0.402163
0.401488
0.400815
0.400142
0.39947
0.3988
0.39813
0.397462
0.396795
0.396128
0.395463
0.3948
0.394137
0.393475
0.392815
0.392156
0.391498
0.390841
0.390185
0.38953
0.388877
0.388225
0.387574
0.386924
0.386275
0.385627
0.38498
0.384334
0.383689
0.383046
0.382403
0.381761
0.38112
0.380479
0.37984
0.379201
0.378563
0.377926
0.37729
0.376654
0.376018
0.375383
0.374749
0.374115
0.373481
0.372847
0.372214
0.371581
0.370948
0.370315
0.444654
0.430921
0.417683
0.413683
0.412886
0.412313
0.411672
0.411005
0.410327
0.409645
0.408962
0.408279
0.407596
0.406914
0.406233
0.405553
0.404873
0.404195
0.403517
0.40284
0.402165
0.40149
0.400816
0.400143
0.399472
0.398801
0.398132
0.397463
0.396796
0.39613
0.395465
0.394801
0.394138
0.393476
0.392816
0.392157
0.391499
0.390842
0.390186
0.389531
0.388878
0.388226
0.387574
0.386924
0.386275
0.385627
0.38498
0.384335
0.38369
0.383046
0.382403
0.381761
0.38112
0.38048
0.37984
0.379202
0.378564
0.377926
0.37729
0.376654
0.376018
0.375383
0.374749
0.374115
0.373481
0.372848
0.372214
0.371581
0.370948
0.370315
0.444654
0.430923
0.417686
0.413686
0.412889
0.412316
0.411676
0.411008
0.41033
0.409648
0.408965
0.408282
0.407599
0.406917
0.406236
0.405556
0.404876
0.404198
0.40352
0.402843
0.402167
0.401493
0.400819
0.400146
0.399474
0.398804
0.398134
0.397465
0.396798
0.396132
0.395467
0.394803
0.39414
0.393478
0.392818
0.392158
0.3915
0.390843
0.390187
0.389532
0.388879
0.388227
0.387575
0.386925
0.386276
0.385628
0.384981
0.384335
0.38369
0.383047
0.382404
0.381762
0.38112
0.38048
0.379841
0.379202
0.378564
0.377927
0.37729
0.376654
0.376019
0.375384
0.374749
0.374115
0.373481
0.372848
0.372214
0.371581
0.370948
0.370316
0.444654
0.430925
0.417689
0.41369
0.412893
0.41232
0.41168
0.411012
0.410334
0.409652
0.408969
0.408286
0.407603
0.406921
0.40624
0.405559
0.40488
0.404201
0.403523
0.402847
0.402171
0.401496
0.400822
0.400149
0.399477
0.398806
0.398137
0.397468
0.3968
0.396134
0.395469
0.394805
0.394142
0.39348
0.392819
0.39216
0.391502
0.390845
0.390189
0.389534
0.38888
0.388228
0.387576
0.386926
0.386277
0.385629
0.384982
0.384336
0.383691
0.383047
0.382404
0.381762
0.381121
0.380481
0.379841
0.379202
0.378564
0.377927
0.37729
0.376654
0.376019
0.375384
0.374749
0.374115
0.373481
0.372848
0.372214
0.371581
0.370948
0.370316
0.444654
0.430927
0.417694
0.413695
0.412898
0.412325
0.411684
0.411017
0.410339
0.409657
0.408973
0.40829
0.407607
0.406925
0.406244
0.405564
0.404884
0.404205
0.403527
0.40285
0.402174
0.401499
0.400825
0.400152
0.39948
0.398809
0.398139
0.397471
0.396803
0.396137
0.395471
0.394807
0.394144
0.393482
0.392821
0.392162
0.391503
0.390846
0.39019
0.389535
0.388881
0.388229
0.387578
0.386927
0.386278
0.38563
0.384983
0.384337
0.383692
0.383048
0.382405
0.381763
0.381122
0.380481
0.379842
0.379203
0.378565
0.377927
0.377291
0.376655
0.376019
0.375384
0.374749
0.374115
0.373481
0.372848
0.372215
0.371581
0.370948
0.370316
0.444654
0.430929
0.417699
0.4137
0.412903
0.412331
0.41169
0.411022
0.410344
0.409662
0.408978
0.408295
0.407612
0.406929
0.406248
0.405567
0.404887
0.404208
0.40353
0.402853
0.402177
0.401502
0.400828
0.400155
0.399483
0.398812
0.398142
0.397473
0.396805
0.396138
0.395473
0.394809
0.394145
0.393483
0.392823
0.392163
0.391505
0.390847
0.390191
0.389536
0.388882
0.38823
0.387578
0.386928
0.386279
0.385631
0.384984
0.384338
0.383692
0.383048
0.382405
0.381763
0.381122
0.380482
0.379842
0.379203
0.378565
0.377928
0.377291
0.376655
0.376019
0.375384
0.37475
0.374115
0.373481
0.372848
0.372215
0.371581
0.370948
0.370316
0.444654
0.430932
0.417704
0.413717
0.412916
0.412337
0.411696
0.411027
0.410349
0.409666
0.408982
0.408298
0.407615
0.406932
0.40625
0.405569
0.404889
0.40421
0.403532
0.402855
0.402179
0.401503
0.400829
0.400156
0.399484
0.398813
0.398143
0.397474
0.396806
0.396139
0.395474
0.394809
0.394146
0.393484
0.392823
0.392164
0.391505
0.390848
0.390192
0.389537
0.388883
0.38823
0.387579
0.386928
0.386279
0.385631
0.384984
0.384338
0.383693
0.383049
0.382406
0.381763
0.381122
0.380482
0.379842
0.379203
0.378565
0.377928
0.377291
0.376655
0.376019
0.375384
0.37475
0.374115
0.373482
0.372848
0.372215
0.371581
0.370948
0.370316
0.444653
0.430866
0.416522
0.414265
0.413297
0.412493
0.411759
0.411053
0.410358
0.409669
0.408983
0.408298
0.407614
0.406931
0.406249
0.405568
0.404888
0.404209
0.403531
0.402854
0.402178
0.401502
0.400828
0.400155
0.399483
0.398812
0.398142
0.397473
0.396805
0.396139
0.395473
0.394809
0.394146
0.393484
0.392823
0.392163
0.391505
0.390848
0.390191
0.389537
0.388883
0.38823
0.387579
0.386928
0.386279
0.385631
0.384984
0.384338
0.383693
0.383049
0.382406
0.381763
0.381122
0.380482
0.379842
0.379203
0.378565
0.377928
0.377291
0.376655
0.376019
0.375384
0.37475
0.374115
0.373482
0.372848
0.372215
0.371581
0.370948
0.370316
0.444653
0.430861
0.416511
0.414253
0.413288
0.412485
0.411751
0.411046
0.410352
0.409663
0.408977
0.408293
0.407609
0.406927
0.406245
0.405565
0.404885
0.404206
0.403528
0.402851
0.402175
0.4015
0.400826
0.400153
0.399481
0.39881
0.39814
0.397471
0.396803
0.396137
0.395472
0.394807
0.394144
0.393482
0.392822
0.392162
0.391504
0.390847
0.390191
0.389536
0.388882
0.388229
0.387578
0.386928
0.386279
0.38563
0.384983
0.384337
0.383692
0.383048
0.382405
0.381763
0.381122
0.380482
0.379842
0.379203
0.378565
0.377928
0.377291
0.376655
0.376019
0.375384
0.37475
0.374115
0.373482
0.372848
0.372215
0.371581
0.370948
0.370316
0.444653
0.430858
0.416504
0.414247
0.413281
0.412479
0.411745
0.411039
0.410345
0.409657
0.408971
0.408287
0.407604
0.406922
0.40624
0.40556
0.40488
0.404202
0.403524
0.402847
0.402171
0.401496
0.400822
0.400149
0.399477
0.398807
0.398137
0.397468
0.396801
0.396135
0.395469
0.394805
0.394142
0.393481
0.39282
0.392161
0.391502
0.390845
0.390189
0.389535
0.388881
0.388229
0.387577
0.386927
0.386278
0.38563
0.384983
0.384337
0.383692
0.383048
0.382405
0.381763
0.381122
0.380481
0.379842
0.379203
0.378565
0.377928
0.377291
0.376655
0.376019
0.375384
0.37475
0.374115
0.373482
0.372848
0.372215
0.371581
0.370948
0.370316
0.444653
0.430855
0.4165
0.414241
0.413276
0.412474
0.41174
0.411034
0.41034
0.409652
0.408966
0.408282
0.407599
0.406917
0.406236
0.405555
0.404876
0.404197
0.40352
0.402843
0.402167
0.401492
0.400819
0.400146
0.399474
0.398804
0.398134
0.397466
0.396798
0.396132
0.395467
0.394803
0.39414
0.393479
0.392818
0.392159
0.391501
0.390844
0.390188
0.389533
0.38888
0.388228
0.387576
0.386926
0.386277
0.385629
0.384982
0.384336
0.383691
0.383048
0.382405
0.381763
0.381121
0.380481
0.379842
0.379203
0.378565
0.377928
0.377291
0.376655
0.376019
0.375384
0.37475
0.374115
0.373481
0.372848
0.372215
0.371581
0.370948
0.370316
0.444653
0.430853
0.416496
0.414238
0.413272
0.41247
0.411736
0.41103
0.410336
0.409648
0.408962
0.408278
0.407595
0.406913
0.406232
0.405552
0.404872
0.404194
0.403516
0.40284
0.402164
0.401489
0.400816
0.400143
0.399472
0.398801
0.398132
0.397463
0.396796
0.39613
0.395465
0.394801
0.394139
0.393477
0.392817
0.392158
0.3915
0.390843
0.390187
0.389532
0.388879
0.388227
0.387575
0.386925
0.386276
0.385629
0.384982
0.384336
0.383691
0.383047
0.382404
0.381762
0.381121
0.380481
0.379841
0.379203
0.378565
0.377927
0.377291
0.376655
0.376019
0.375384
0.374749
0.374115
0.373481
0.372848
0.372215
0.371581
0.370948
0.370316
0.444652
0.430852
0.416494
0.414235
0.41327
0.412467
0.411733
0.411027
0.410334
0.409645
0.40896
0.408276
0.407593
0.406911
0.40623
0.405549
0.40487
0.404192
0.403514
0.402837
0.402162
0.401487
0.400814
0.400141
0.39947
0.398799
0.39813
0.397462
0.396795
0.396129
0.395464
0.3948
0.394137
0.393476
0.392816
0.392157
0.391499
0.390842
0.390186
0.389532
0.388878
0.388226
0.387575
0.386925
0.386276
0.385628
0.384981
0.384336
0.383691
0.383047
0.382404
0.381762
0.381121
0.380481
0.379841
0.379203
0.378565
0.377927
0.377291
0.376655
0.376019
0.375384
0.374749
0.374115
0.373481
0.372848
0.372215
0.371581
0.370948
0.370316
0.444652
0.430852
0.416492
0.414234
0.413268
0.412466
0.411731
0.411026
0.410332
0.409644
0.408958
0.408274
0.407591
0.406909
0.406228
0.405548
0.404868
0.40419
0.403513
0.402836
0.402161
0.401486
0.400813
0.40014
0.399469
0.398798
0.398129
0.397461
0.396794
0.396128
0.395463
0.394799
0.394137
0.393475
0.392815
0.392156
0.391498
0.390841
0.390186
0.389531
0.388878
0.388226
0.387575
0.386925
0.386276
0.385628
0.384981
0.384335
0.383691
0.383047
0.382404
0.381762
0.381121
0.380481
0.379841
0.379203
0.378565
0.377927
0.377291
0.376655
0.376019
0.375384
0.374749
0.374115
0.373481
0.372848
0.372215
0.371581
0.370948
0.370316
0.444652
0.430851
0.416492
0.414233
0.413267
0.412465
0.411731
0.411025
0.410331
0.409643
0.408957
0.408273
0.40759
0.406908
0.406227
0.405547
0.404868
0.404189
0.403512
0.402835
0.40216
0.401485
0.400812
0.400139
0.399468
0.398798
0.398128
0.39746
0.396793
0.396127
0.395462
0.394799
0.394136
0.393475
0.392815
0.392156
0.391498
0.390841
0.390185
0.389531
0.388878
0.388226
0.387574
0.386924
0.386276
0.385628
0.384981
0.384335
0.383691
0.383047
0.382404
0.381762
0.381121
0.380481
0.379841
0.379203
0.378565
0.377927
0.377291
0.376655
0.376019
0.375384
0.374749
0.374115
0.373481
0.372848
0.372215
0.371581
0.370948
0.370316
0.444652
0.430851
0.416491
0.414233
0.413267
0.412464
0.41173
0.411024
0.410331
0.409642
0.408957
0.408273
0.40759
0.406908
0.406227
0.405546
0.404867
0.404189
0.403511
0.402835
0.402159
0.401485
0.400812
0.400139
0.399468
0.398797
0.398128
0.39746
0.396793
0.396127
0.395462
0.394799
0.394136
0.393475
0.392815
0.392156
0.391498
0.390841
0.390185
0.389531
0.388878
0.388225
0.387574
0.386924
0.386276
0.385628
0.384981
0.384335
0.383691
0.383047
0.382404
0.381762
0.381121
0.380481
0.379841
0.379203
0.378565
0.377927
0.377291
0.376655
0.376019
0.375384
0.374749
0.374115
0.373481
0.372848
0.372215
0.371581
0.370948
0.370316
0.444652
0.430851
0.416491
0.414232
0.413267
0.412464
0.41173
0.411024
0.410331
0.409642
0.408957
0.408273
0.40759
0.406908
0.406226
0.405546
0.404867
0.404189
0.403511
0.402835
0.402159
0.401485
0.400811
0.400139
0.399468
0.398797
0.398128
0.39746
0.396793
0.396127
0.395462
0.394799
0.394136
0.393475
0.392815
0.392155
0.391498
0.390841
0.390185
0.389531
0.388878
0.388225
0.387574
0.386924
0.386276
0.385628
0.384981
0.384335
0.383691
0.383047
0.382404
0.381762
0.381121
0.380481
0.379841
0.379203
0.378565
0.377927
0.377291
0.376655
0.376019
0.375384
0.374749
0.374115
0.373481
0.372848
0.372215
0.371581
0.370948
0.370316
0.444652
0.430851
0.416491
0.414232
0.413267
0.412464
0.41173
0.411024
0.410331
0.409642
0.408957
0.408272
0.40759
0.406908
0.406226
0.405546
0.404867
0.404189
0.403511
0.402835
0.402159
0.401485
0.400811
0.400139
0.399468
0.398797
0.398128
0.39746
0.396793
0.396127
0.395462
0.394799
0.394136
0.393475
0.392815
0.392156
0.391498
0.390841
0.390185
0.389531
0.388878
0.388225
0.387574
0.386924
0.386276
0.385628
0.384981
0.384335
0.383691
0.383047
0.382404
0.381762
0.381121
0.380481
0.379841
0.379203
0.378565
0.377927
0.377291
0.376655
0.376019
0.375384
0.374749
0.374115
0.373481
0.372848
0.372215
0.371581
0.370948
0.370316
0.444652
0.430851
0.416491
0.414232
0.413267
0.412464
0.41173
0.411024
0.410331
0.409642
0.408957
0.408273
0.40759
0.406908
0.406226
0.405546
0.404867
0.404189
0.403511
0.402835
0.402159
0.401485
0.400811
0.400139
0.399468
0.398797
0.398128
0.39746
0.396793
0.396127
0.395462
0.394799
0.394136
0.393475
0.392815
0.392156
0.391498
0.390841
0.390185
0.389531
0.388878
0.388226
0.387574
0.386925
0.386276
0.385628
0.384981
0.384335
0.383691
0.383047
0.382404
0.381762
0.381121
0.380481
0.379841
0.379203
0.378565
0.377927
0.377291
0.376655
0.376019
0.375384
0.37475
0.374115
0.373481
0.372848
0.372215
0.371581
0.370948
0.370316
0.444652
0.430851
0.416491
0.414232
0.413267
0.412464
0.41173
0.411024
0.410331
0.409642
0.408957
0.408273
0.40759
0.406908
0.406227
0.405546
0.404867
0.404189
0.403511
0.402835
0.402159
0.401485
0.400811
0.400139
0.399468
0.398797
0.398128
0.39746
0.396793
0.396127
0.395462
0.394799
0.394136
0.393475
0.392815
0.392156
0.391498
0.390841
0.390185
0.389531
0.388878
0.388226
0.387575
0.386925
0.386276
0.385628
0.384981
0.384335
0.383691
0.383047
0.382404
0.381762
0.381121
0.380481
0.379841
0.379203
0.378565
0.377927
0.377291
0.376655
0.376019
0.375384
0.37475
0.374115
0.373481
0.372848
0.372215
0.371581
0.370948
0.370316
0.444652
0.430851
0.416491
0.414232
0.413267
0.412464
0.41173
0.411024
0.410331
0.409642
0.408957
0.408273
0.40759
0.406908
0.406227
0.405546
0.404867
0.404189
0.403511
0.402835
0.402159
0.401485
0.400811
0.400139
0.399468
0.398797
0.398128
0.39746
0.396793
0.396127
0.395462
0.394799
0.394136
0.393475
0.392815
0.392156
0.391498
0.390841
0.390185
0.389531
0.388878
0.388226
0.387575
0.386925
0.386276
0.385628
0.384981
0.384335
0.383691
0.383047
0.382404
0.381762
0.381121
0.380481
0.379841
0.379203
0.378565
0.377927
0.377291
0.376655
0.376019
0.375384
0.37475
0.374115
0.373481
0.372848
0.372215
0.371581
0.370948
0.370316
0.444652
0.430851
0.416491
0.414232
0.413267
0.412464
0.41173
0.411024
0.410331
0.409642
0.408957
0.408273
0.40759
0.406908
0.406227
0.405546
0.404867
0.404189
0.403511
0.402835
0.402159
0.401485
0.400812
0.400139
0.399468
0.398797
0.398128
0.39746
0.396793
0.396127
0.395462
0.394799
0.394136
0.393475
0.392815
0.392156
0.391498
0.390841
0.390186
0.389531
0.388878
0.388226
0.387575
0.386925
0.386276
0.385628
0.384981
0.384335
0.383691
0.383047
0.382404
0.381762
0.381121
0.380481
0.379841
0.379203
0.378565
0.377927
0.377291
0.376655
0.376019
0.375384
0.37475
0.374115
0.373481
0.372848
0.372215
0.371581
0.370948
0.370316
0.444652
0.430851
0.416491
0.414233
0.413267
0.412464
0.41173
0.411024
0.410331
0.409642
0.408957
0.408273
0.40759
0.406908
0.406227
0.405546
0.404867
0.404189
0.403511
0.402835
0.402159
0.401485
0.400812
0.400139
0.399468
0.398797
0.398128
0.39746
0.396793
0.396127
0.395462
0.394799
0.394136
0.393475
0.392815
0.392156
0.391498
0.390841
0.390186
0.389531
0.388878
0.388226
0.387575
0.386925
0.386276
0.385628
0.384981
0.384335
0.383691
0.383047
0.382404
0.381762
0.381121
0.380481
0.379841
0.379203
0.378565
0.377927
0.377291
0.376655
0.376019
0.375384
0.37475
0.374115
0.373481
0.372848
0.372215
0.371581
0.370948
0.370316
0.444652
0.430851
0.416491
0.414233
0.413267
0.412464
0.41173
0.411024
0.410331
0.409642
0.408957
0.408273
0.40759
0.406908
0.406227
0.405546
0.404867
0.404189
0.403511
0.402835
0.40216
0.401485
0.400812
0.400139
0.399468
0.398797
0.398128
0.39746
0.396793
0.396127
0.395462
0.394799
0.394136
0.393475
0.392815
0.392156
0.391498
0.390841
0.390186
0.389531
0.388878
0.388226
0.387575
0.386925
0.386276
0.385628
0.384981
0.384335
0.383691
0.383047
0.382404
0.381762
0.381121
0.380481
0.379841
0.379203
0.378565
0.377927
0.377291
0.376655
0.376019
0.375384
0.37475
0.374115
0.373481
0.372848
0.372215
0.371581
0.370948
0.370316
0.444652
0.430851
0.416491
0.414233
0.413267
0.412464
0.41173
0.411024
0.410331
0.409642
0.408957
0.408273
0.40759
0.406908
0.406227
0.405546
0.404867
0.404189
0.403511
0.402835
0.40216
0.401485
0.400812
0.400139
0.399468
0.398797
0.398128
0.39746
0.396793
0.396127
0.395462
0.394799
0.394136
0.393475
0.392815
0.392156
0.391498
0.390841
0.390186
0.389531
0.388878
0.388226
0.387575
0.386925
0.386276
0.385628
0.384981
0.384335
0.383691
0.383047
0.382404
0.381762
0.381121
0.380481
0.379841
0.379203
0.378565
0.377927
0.377291
0.376655
0.376019
0.375384
0.37475
0.374115
0.373481
0.372848
0.372215
0.371581
0.370948
0.370316
0.444652
0.430851
0.416491
0.414233
0.413267
0.412464
0.41173
0.411024
0.410331
0.409642
0.408957
0.408273
0.40759
0.406908
0.406227
0.405546
0.404867
0.404189
0.403511
0.402835
0.40216
0.401485
0.400812
0.400139
0.399468
0.398797
0.398128
0.39746
0.396793
0.396127
0.395462
0.394799
0.394136
0.393475
0.392815
0.392156
0.391498
0.390841
0.390186
0.389531
0.388878
0.388226
0.387575
0.386925
0.386276
0.385628
0.384981
0.384336
0.383691
0.383047
0.382404
0.381762
0.381121
0.380481
0.379841
0.379203
0.378565
0.377927
0.377291
0.376655
0.376019
0.375384
0.37475
0.374115
0.373481
0.372848
0.372215
0.371581
0.370948
0.370316
0.444652
0.430851
0.416491
0.414233
0.413267
0.412464
0.41173
0.411024
0.410331
0.409642
0.408957
0.408273
0.40759
0.406908
0.406227
0.405546
0.404867
0.404189
0.403511
0.402835
0.40216
0.401485
0.400812
0.400139
0.399468
0.398798
0.398128
0.39746
0.396793
0.396127
0.395462
0.394799
0.394136
0.393475
0.392815
0.392156
0.391498
0.390841
0.390186
0.389531
0.388878
0.388226
0.387575
0.386925
0.386276
0.385628
0.384981
0.384336
0.383691
0.383047
0.382404
0.381762
0.381121
0.380481
0.379841
0.379203
0.378565
0.377927
0.377291
0.376655
0.376019
0.375384
0.37475
0.374115
0.373482
0.372848
0.372215
0.371581
0.370948
0.370316
0.444652
0.430851
0.416491
0.414233
0.413267
0.412464
0.41173
0.411024
0.410331
0.409642
0.408957
0.408273
0.40759
0.406908
0.406227
0.405546
0.404867
0.404189
0.403511
0.402835
0.40216
0.401485
0.400812
0.400139
0.399468
0.398798
0.398128
0.39746
0.396793
0.396127
0.395462
0.394799
0.394136
0.393475
0.392815
0.392156
0.391498
0.390841
0.390186
0.389531
0.388878
0.388226
0.387575
0.386925
0.386276
0.385628
0.384981
0.384336
0.383691
0.383047
0.382404
0.381762
0.381121
0.380481
0.379841
0.379203
0.378565
0.377927
0.377291
0.376655
0.376019
0.375384
0.37475
0.374115
0.373482
0.372848
0.372215
0.371581
0.370948
0.370316
0.444652
0.430851
0.416491
0.414233
0.413267
0.412464
0.41173
0.411024
0.410331
0.409642
0.408957
0.408273
0.40759
0.406908
0.406227
0.405547
0.404867
0.404189
0.403511
0.402835
0.40216
0.401485
0.400812
0.400139
0.399468
0.398798
0.398128
0.39746
0.396793
0.396127
0.395462
0.394799
0.394136
0.393475
0.392815
0.392156
0.391498
0.390841
0.390186
0.389531
0.388878
0.388226
0.387575
0.386925
0.386276
0.385628
0.384981
0.384336
0.383691
0.383047
0.382404
0.381762
0.381121
0.380481
0.379841
0.379203
0.378565
0.377927
0.377291
0.376655
0.376019
0.375384
0.37475
0.374115
0.373482
0.372848
0.372215
0.371581
0.370948
0.370316
0.444652
0.430851
0.416491