/*--------------------------------*- C++ -*----------------------------------*\
  =========                 |
  \\      /  F ield         | OpenFOAM: The Open Source CFD Toolbox
   \\    /   O peration     | Website:  https://openfoam.org
    \\  /    A nd           | Version:  13
     \\/     M anipulation  |
\*---------------------------------------------------------------------------*/
FoamFile
{
    format      ascii;
    class       volScalarField;
    location    "1";
    object      nut;
}
// * * * * * * * * * * * * * * * * * * * * * * * * * * * * * * * * * * * * * //

dimensions      [0 2 -1 0 0 0 0];

internalField   nonuniform List<scalar> 
78750
(
1.57973e-11
3.69355e-10
8.77892e-09
1.80114e-07
5.43267e-07
1.12278e-06
1.82568e-06
2.54474e-06
3.19801e-06
3.74565e-06
4.17494e-06
4.48512e-06
4.68904e-06
4.80925e-06
4.88012e-06
4.97025e-06
5.00276e-06
4.84788e-06
4.70853e-06
4.61035e-06
4.54723e-06
4.50108e-06
4.42223e-06
4.43468e-06
4.44994e-06
4.46975e-06
4.50605e-06
4.50802e-06
4.48621e-06
4.41301e-06
4.19096e-06
4.0153e-06
3.72114e-06
3.0529e-07
1.90181e-09
4.50745e-10
1.01541e-07
5.67449e-06
1.09816e-05
2.11691e-05
3.39244e-05
4.45131e-05
5.16048e-05
5.39455e-05
5.58124e-05
5.72763e-05
5.84133e-05
5.92928e-05
5.99735e-05
6.05029e-05
6.09239e-05
6.12461e-05
6.14977e-05
6.16966e-05
6.18563e-05
6.19779e-05
6.20629e-05
6.21057e-05
6.20557e-05
6.18673e-05
6.1559e-05
6.10704e-05
6.03247e-05
5.92372e-05
5.76791e-05
5.54986e-05
5.25448e-05
1.01919e-05
6.88248e-07
3.23964e-09
2.47727e-09
6.23577e-07
2.95822e-05
4.65798e-05
5.12689e-05
5.49464e-05
5.77547e-05
5.98858e-05
6.14969e-05
6.27117e-05
6.36274e-05
6.43182e-05
6.48391e-05
6.52301e-05
6.55201e-05
6.57298e-05
6.58744e-05
6.59644e-05
6.60067e-05
6.60051e-05
6.59427e-05
6.5808e-05
6.56149e-05
6.53495e-05
6.49916e-05
6.451e-05
6.38579e-05
6.29696e-05
6.1759e-05
6.01201e-05
5.79276e-05
4.50905e-05
9.6651e-06
7.48284e-07
3.29862e-09
2.96373e-09
7.38432e-07
3.1624e-05
4.92822e-05
5.35086e-05
5.68605e-05
5.93948e-05
6.13001e-05
6.27288e-05
6.38029e-05
6.46157e-05
6.52353e-05
6.57093e-05
6.60698e-05
6.63385e-05
6.65305e-05
6.66563e-05
6.67233e-05
6.6736e-05
6.66847e-05
6.65629e-05
6.63815e-05
6.6134e-05
6.58101e-05
6.53929e-05
6.48544e-05
6.41507e-05
6.3219e-05
6.19762e-05
6.03231e-05
5.81546e-05
3.90007e-05
8.75079e-06
7.25483e-07
3.08318e-09
2.99594e-09
7.39206e-07
2.56332e-05
5.01862e-05
5.4078e-05
5.72735e-05
5.97189e-05
6.15639e-05
6.29481e-05
6.39888e-05
6.4777e-05
6.53791e-05
6.58411e-05
6.61935e-05
6.64564e-05
6.66438e-05
6.67653e-05
6.68273e-05
6.68331e-05
6.67751e-05
6.66478e-05
6.64592e-05
6.62029e-05
6.58689e-05
6.54405e-05
6.48898e-05
6.41735e-05
6.32286e-05
6.19724e-05
6.03072e-05
5.81354e-05
3.54666e-05
7.96029e-06
6.96192e-07
2.94456e-09
2.96729e-09
7.23777e-07
2.33075e-05
5.06927e-05
5.43581e-05
5.74583e-05
5.98554e-05
6.167e-05
6.30321e-05
6.40555e-05
6.483e-05
6.54213e-05
6.5875e-05
6.6221e-05
6.64789e-05
6.66619e-05
6.67793e-05
6.68366e-05
6.68373e-05
6.6775e-05
6.66441e-05
6.64508e-05
6.61885e-05
6.58471e-05
6.54096e-05
6.48478e-05
6.41181e-05
6.31573e-05
6.1882e-05
6.01946e-05
5.79983e-05
3.39939e-05
7.95456e-06
6.80815e-07
2.86295e-09
2.88635e-09
7.01194e-07
2.14571e-05
5.10093e-05
5.45427e-05
5.75783e-05
5.99406e-05
6.17342e-05
6.3082e-05
6.40948e-05
6.48612e-05
6.54465e-05
6.58956e-05
6.62387e-05
6.64949e-05
6.66768e-05
6.67934e-05
6.68507e-05
6.68516e-05
6.679e-05
6.66605e-05
6.64683e-05
6.62068e-05
6.58656e-05
6.54273e-05
6.4864e-05
6.41318e-05
6.31672e-05
6.18867e-05
6.01921e-05
5.79858e-05
3.26807e-05
7.78253e-06
6.73656e-07
2.8214e-09
2.8125e-09
6.82614e-07
2.00048e-05
5.13019e-05
5.47324e-05
5.77064e-05
6.00305e-05
6.17984e-05
6.31276e-05
6.41268e-05
6.48833e-05
6.54616e-05
6.5906e-05
6.62462e-05
6.64998e-05
6.66796e-05
6.67943e-05
6.68496e-05
6.68482e-05
6.67844e-05
6.66526e-05
6.64573e-05
6.61916e-05
6.58448e-05
6.53995e-05
6.48275e-05
6.40845e-05
6.31068e-05
6.18103e-05
6.00967e-05
5.78675e-05
3.18202e-05
7.85602e-06
6.61291e-07
2.73827e-09
2.73147e-09
6.64685e-07
1.87252e-05
5.15751e-05
5.49215e-05
5.7839e-05
6.01245e-05
6.18653e-05
6.31752e-05
6.41608e-05
6.49083e-05
6.5481e-05
6.59223e-05
6.62615e-05
6.6515e-05
6.6695e-05
6.68105e-05
6.6867e-05
6.68672e-05
6.68051e-05
6.66751e-05
6.64816e-05
6.62177e-05
6.58725e-05
6.54287e-05
6.48578e-05
6.41158e-05
6.31388e-05
6.18428e-05
6.0129e-05
5.78967e-05
3.08076e-05
7.64909e-06
6.56408e-07
2.70075e-09
2.65325e-09
6.49217e-07
1.76034e-05
5.1876e-05
5.51492e-05
5.80037e-05
6.02408e-05
6.19452e-05
6.32285e-05
6.41953e-05
6.49299e-05
6.54942e-05
6.59303e-05
6.62666e-05
6.65176e-05
6.66955e-05
6.68093e-05
6.68641e-05
6.68624e-05
6.67982e-05
6.66658e-05
6.64693e-05
6.62013e-05
6.58511e-05
6.54011e-05
6.48231e-05
6.40726e-05
6.30859e-05
6.17792e-05
6.00542e-05
5.78097e-05
2.9587e-05
7.51561e-06
6.42391e-07
2.64357e-09
2.52042e-09
6.08461e-07
1.55271e-05
5.10946e-05
5.50104e-05
5.80202e-05
6.02936e-05
6.19969e-05
6.32698e-05
6.42259e-05
6.49524e-05
6.55114e-05
6.59446e-05
6.62796e-05
6.65309e-05
6.67095e-05
6.68245e-05
6.6881e-05
6.68813e-05
6.68191e-05
6.66888e-05
6.64945e-05
6.6229e-05
6.58812e-05
6.54337e-05
6.48579e-05
6.41093e-05
6.31234e-05
6.18153e-05
6.0084e-05
5.78234e-05
2.87981e-05
7.55302e-06
6.39183e-07
2.63863e-09
2.49586e-09
6.03961e-07
1.49387e-05
5.12844e-05
5.51685e-05
5.81439e-05
6.03856e-05
6.20623e-05
6.33141e-05
6.42544e-05
6.49697e-05
6.55212e-05
6.59496e-05
6.62822e-05
6.65317e-05
6.67097e-05
6.68254e-05
6.68849e-05
6.68829e-05
6.68134e-05
6.66786e-05
6.648e-05
6.62098e-05
6.58568e-05
6.54035e-05
6.48209e-05
6.40645e-05
6.30699e-05
6.17522e-05
6.001e-05
5.77352e-05
2.69778e-05
7.37637e-06
6.20073e-07
2.54825e-09
2.47484e-09
5.99683e-07
1.44462e-05
5.05036e-05
5.52949e-05
5.82458e-05
6.04634e-05
6.21194e-05
6.33548e-05
6.42832e-05
6.49903e-05
6.55367e-05
6.59626e-05
6.62935e-05
6.65427e-05
6.67205e-05
6.68352e-05
6.68918e-05
6.68924e-05
6.68301e-05
6.66993e-05
6.65039e-05
6.62365e-05
6.5886e-05
6.54349e-05
6.48542e-05
6.4099e-05
6.31046e-05
6.17849e-05
6.00358e-05
5.77441e-05
2.5082e-05
7.11355e-06
6.02531e-07
2.46463e-09
2.47606e-09
6.00355e-07
1.41195e-05
4.87071e-05
5.54316e-05
5.83539e-05
6.05445e-05
6.21774e-05
6.33942e-05
6.43086e-05
6.50056e-05
6.55452e-05
6.59671e-05
6.62958e-05
6.6543e-05
6.67202e-05
6.68355e-05
6.68945e-05
6.68919e-05
6.68221e-05
6.6687e-05
6.64871e-05
6.62145e-05
6.5858e-05
6.53999e-05
6.48108e-05
6.40457e-05
6.30397e-05
6.17062e-05
5.99409e-05
5.76299e-05
2.2997e-05
6.9496e-06
5.76534e-07
2.35351e-09
2.47312e-09
5.99543e-07
1.38072e-05
4.70826e-05
5.5536e-05
5.84411e-05
6.06129e-05
6.22287e-05
6.34316e-05
6.43356e-05
6.50255e-05
6.55606e-05
6.59801e-05
6.63067e-05
6.65538e-05
6.67307e-05
6.68451e-05
6.69018e-05
6.69024e-05
6.68401e-05
6.67086e-05
6.6512e-05
6.62426e-05
6.58893e-05
6.54342e-05
6.48482e-05
6.40863e-05
6.30831e-05
6.17511e-05
5.99832e-05
5.76584e-05
2.18975e-05
6.96097e-06
5.64149e-07
2.2909e-09
2.46924e-09
5.98904e-07
1.36038e-05
4.59261e-05
5.56553e-05
5.85382e-05
6.06871e-05
6.22823e-05
6.34684e-05
6.43593e-05
6.50394e-05
6.55673e-05
6.59814e-05
6.63063e-05
6.65526e-05
6.67295e-05
6.68448e-05
6.69041e-05
6.69017e-05
6.68318e-05
6.66963e-05
6.64958e-05
6.62221e-05
6.58637e-05
6.54028e-05
6.48106e-05
6.40421e-05
6.30324e-05
6.16954e-05
5.99258e-05
5.76061e-05
2.04447e-05
6.76865e-06
5.49837e-07
2.2436e-09
2.47261e-09
5.99369e-07
1.34103e-05
4.48184e-05
5.5752e-05
5.86197e-05
6.07518e-05
6.23316e-05
6.3505e-05
6.43863e-05
6.50597e-05
6.55832e-05
6.59944e-05
6.6317e-05
6.65634e-05
6.67414e-05
6.68565e-05
6.69138e-05
6.69149e-05
6.68528e-05
6.67211e-05
6.6524e-05
6.62539e-05
6.58995e-05
6.54429e-05
6.48557e-05
6.40932e-05
6.30906e-05
6.17622e-05
6.00025e-05
5.7691e-05
1.96283e-05
6.79484e-06
5.42727e-07
2.23618e-09
2.48004e-09
6.01571e-07
1.32892e-05
4.40298e-05
5.58629e-05
5.87106e-05
6.08221e-05
6.23832e-05
6.35412e-05
6.44104e-05
6.50749e-05
6.5592e-05
6.59985e-05
6.63167e-05
6.65628e-05
6.6741e-05
6.68577e-05
6.6918e-05
6.69165e-05
6.68471e-05
6.67113e-05
6.65104e-05
6.62362e-05
6.58772e-05
6.54163e-05
6.48259e-05
6.40644e-05
6.30753e-05
6.17955e-05
6.01829e-05
5.82983e-05
1.91957e-05
8.29421e-06
6.1699e-07
2.42303e-09
2.48294e-09
6.02487e-07
1.31624e-05
4.31908e-05
5.59537e-05
5.87875e-05
6.08838e-05
6.2431e-05
6.35774e-05
6.4438e-05
6.50965e-05
6.56096e-05
6.60138e-05
6.63308e-05
6.65751e-05
6.67541e-05
6.68714e-05
6.693e-05
6.69319e-05
6.68703e-05
6.67389e-05
6.6542e-05
6.62718e-05
6.59173e-05
6.54614e-05
6.4877e-05
6.41222e-05
6.31407e-05
6.18693e-05
6.02658e-05
5.83925e-05
1.83551e-05
8.30984e-06
6.21749e-07
2.43937e-09
2.49498e-09
6.05881e-07
1.30923e-05
4.25599e-05
5.60633e-05
5.88761e-05
6.09522e-05
6.24815e-05
6.36133e-05
6.44627e-05
6.5113e-05
6.56204e-05
6.60206e-05
6.63351e-05
6.65772e-05
6.67572e-05
6.68753e-05
6.69367e-05
6.69364e-05
6.68677e-05
6.6732e-05
6.65311e-05
6.62568e-05
6.5898e-05
6.54375e-05
6.48481e-05
6.40882e-05
6.31016e-05
6.18261e-05
6.0222e-05
5.43542e-05
1.72918e-05
8.17431e-06
6.13492e-07
2.40311e-09
2.49958e-09
6.06536e-07
1.29862e-05
4.16834e-05
5.61634e-05
5.8955e-05
6.10137e-05
6.25286e-05
6.36492e-05
6.44904e-05
6.51351e-05
6.5639e-05
6.60373e-05
6.6351e-05
6.65934e-05
6.67726e-05
6.68902e-05
6.69492e-05
6.69516e-05
6.68906e-05
6.67599e-05
6.65635e-05
6.62936e-05
6.59398e-05
6.54854e-05
6.49032e-05
6.41519e-05
6.31756e-05
6.19128e-05
6.03262e-05
5.08824e-05
1.65242e-05
8.13451e-06
6.1158e-07
2.38988e-09
2.51152e-09
6.09294e-07
1.29287e-05
4.1028e-05
5.62749e-05
5.90417e-05
6.10795e-05
6.25769e-05
6.36837e-05
6.45143e-05
6.51514e-05
6.56502e-05
6.60454e-05
6.63575e-05
6.65991e-05
6.67777e-05
6.68931e-05
6.69494e-05
6.69499e-05
6.68874e-05
6.6754e-05
6.65545e-05
6.62814e-05
6.59243e-05
6.54666e-05
6.48812e-05
6.41267e-05
6.31473e-05
6.18813e-05
6.02898e-05
4.66632e-05
1.55633e-05
7.97651e-06
6.01396e-07
2.35108e-09
2.51385e-09
6.09529e-07
1.28382e-05
4.02146e-05
5.63675e-05
5.91151e-05
6.11371e-05
6.26215e-05
6.37179e-05
6.45411e-05
6.51732e-05
6.5669e-05
6.60627e-05
6.63743e-05
6.66162e-05
6.67938e-05
6.69111e-05
6.69702e-05
6.69732e-05
6.69129e-05
6.67831e-05
6.65876e-05
6.63193e-05
6.59678e-05
6.5517e-05
6.49403e-05
6.41965e-05
6.32295e-05
6.1977e-05
6.03963e-05
4.36732e-05
1.4934e-05
7.91667e-06
6.03141e-07
2.36093e-09
2.52421e-09
6.11988e-07
1.27929e-05
3.95934e-05
5.6473e-05
5.91971e-05
6.11993e-05
6.26672e-05
6.37505e-05
6.45636e-05
6.51884e-05
6.56791e-05
6.6069e-05
6.63775e-05
6.66177e-05
6.67964e-05
6.69127e-05
6.69706e-05
6.69721e-05
6.69101e-05
6.67784e-05
6.65806e-05
6.63097e-05
6.5956e-05
6.55039e-05
6.49276e-05
6.41866e-05
6.32247e-05
6.19729e-05
6.0351e-05
4.09567e-05
1.42205e-05
6.76197e-06
5.81225e-07
2.35155e-09
2.5274e-09
6.12333e-07
1.27142e-05
3.88228e-05
5.65622e-05
5.92676e-05
6.12544e-05
6.27097e-05
6.37831e-05
6.45891e-05
6.52089e-05
6.56965e-05
6.6085e-05
6.63935e-05
6.66343e-05
6.68131e-05
6.69317e-05
6.69922e-05
6.69965e-05
6.69375e-05
6.6809e-05
6.66151e-05
6.6349e-05
6.60009e-05
6.55554e-05
6.49865e-05
6.42533e-05
6.33001e-05
6.2065e-05
6.05029e-05
3.81839e-05
1.36817e-05
7.77039e-06
6.02943e-07
2.37681e-09
2.54175e-09
6.15365e-07
1.27006e-05
3.82614e-05
5.6659e-05
5.9343e-05
6.13118e-05
6.27521e-05
6.38135e-05
6.46102e-05
6.52234e-05
6.57064e-05
6.60916e-05
6.63979e-05
6.66365e-05
6.68156e-05
6.69331e-05
6.69922e-05
6.69948e-05
6.6934e-05
6.68037e-05
6.66078e-05
6.63395e-05
6.59895e-05
6.5543e-05
6.49744e-05
6.42438e-05
6.32951e-05
6.20593e-05
6.04536e-05
3.59019e-05
1.30269e-05
6.58151e-06
5.79936e-07
2.35009e-09
2.54702e-09
6.16746e-07
1.26352e-05
3.75379e-05
5.67404e-05
5.94069e-05
6.13618e-05
6.27908e-05
6.38435e-05
6.4634e-05
6.5243e-05
6.57235e-05
6.61077e-05
6.64139e-05
6.66536e-05
6.6833e-05
6.69525e-05
6.7014e-05
6.70194e-05
6.69617e-05
6.68348e-05
6.66431e-05
6.638e-05
6.60365e-05
6.55981e-05
6.50397e-05
6.43218e-05
6.33885e-05
6.2171e-05
6.05866e-05
3.41386e-05
1.25306e-05
6.44245e-06
5.85528e-07
2.37973e-09
2.56022e-09
6.19829e-07
1.2613e-05
3.7009e-05
5.68315e-05
5.94786e-05
6.14163e-05
6.28308e-05
6.38719e-05
6.46537e-05
6.52565e-05
6.5733e-05
6.61148e-05
6.64203e-05
6.66594e-05
6.6838e-05
6.6955e-05
6.70146e-05
6.70183e-05
6.69588e-05
6.68302e-05
6.66366e-05
6.63715e-05
6.60263e-05
6.55868e-05
6.50279e-05
6.43101e-05
6.33777e-05
6.21619e-05
6.05795e-05
3.16378e-05
1.19147e-05
6.35087e-06
5.78278e-07
2.36107e-09
2.55186e-09
6.16224e-07
1.25457e-05
3.6225e-05
5.6899e-05
5.95372e-05
6.14635e-05
6.28675e-05
6.39003e-05
6.46761e-05
6.52752e-05
6.57497e-05
6.61308e-05
6.64372e-05
6.66783e-05
6.68562e-05
6.6974e-05
6.70355e-05
6.70419e-05
6.69854e-05
6.68602e-05
6.66709e-05
6.64114e-05
6.60732e-05
6.56423e-05
6.50942e-05
6.43888e-05
6.34696e-05
6.22655e-05
6.06895e-05
3.018e-05
1.17631e-05
6.45146e-06
5.82124e-07
2.39292e-09
2.56019e-09
6.17639e-07
1.25249e-05
3.56274e-05
5.69809e-05
5.96043e-05
6.15147e-05
6.29046e-05
6.39262e-05
6.46936e-05
6.5287e-05
6.57579e-05
6.6138e-05
6.64431e-05
6.66828e-05
6.68578e-05
6.69739e-05
6.70338e-05
6.70385e-05
6.69804e-05
6.68535e-05
6.66623e-05
6.6401e-05
6.60614e-05
6.56298e-05
6.50817e-05
6.43772e-05
6.34596e-05
6.22584e-05
6.06877e-05
2.82492e-05
1.11669e-05
6.24631e-06
5.86292e-07
2.41576e-09
2.56124e-09
6.17306e-07
1.24734e-05
3.49097e-05
5.70454e-05
5.96597e-05
6.1559e-05
6.2939e-05
6.39525e-05
6.47143e-05
6.53041e-05
6.57733e-05
6.61534e-05
6.64595e-05
6.66981e-05
6.68735e-05
6.69911e-05
6.70532e-05
6.70607e-05
6.70056e-05
6.68823e-05
6.66956e-05
6.644e-05
6.61076e-05
6.56852e-05
6.51484e-05
6.44569e-05
6.35534e-05
6.23654e-05
6.08041e-05
2.70558e-05
1.08644e-05
6.22525e-06
5.94675e-07
2.44714e-09
2.57032e-09
6.18929e-07
1.24508e-05
3.43308e-05
5.71209e-05
5.97214e-05
6.16059e-05
6.29726e-05
6.39754e-05
6.47291e-05
6.53131e-05
6.57783e-05
6.61555e-05
6.64618e-05
6.66983e-05
6.68724e-05
6.69888e-05
6.70497e-05
6.70557e-05
6.69992e-05
6.68743e-05
6.6686e-05
6.64289e-05
6.60957e-05
6.56731e-05
6.51367e-05
6.44456e-05
6.35411e-05
6.2349e-05
6.07808e-05
2.53849e-05
1.04149e-05
6.10005e-06
5.89443e-07
2.4322e-09
2.57077e-09
6.18039e-07
1.23818e-05
3.36479e-05
5.71786e-05
5.97721e-05
6.16469e-05
6.30044e-05
6.39997e-05
6.47478e-05
6.5328e-05
6.57911e-05
6.61682e-05
6.64723e-05
6.67104e-05
6.68863e-05
6.7005e-05
6.70685e-05
6.70777e-05
6.70246e-05
6.69038e-05
6.67207e-05
6.64703e-05
6.61456e-05
6.57337e-05
6.52101e-05
6.45332e-05
6.36426e-05
6.24604e-05
6.0899e-05
2.44871e-05
1.0178e-05
6.10343e-06
5.9667e-07
2.4723e-09
2.57991e-09
6.1943e-07
1.25677e-05
3.32468e-05
5.72441e-05
5.98273e-05
6.16896e-05
6.30354e-05
6.40207e-05
6.4761e-05
6.53357e-05
6.5795e-05
6.61692e-05
6.64739e-05
6.67099e-05
6.68847e-05
6.70024e-05
6.70651e-05
6.70732e-05
6.70191e-05
6.68974e-05
6.67135e-05
6.64628e-05
6.61389e-05
6.57291e-05
6.5209e-05
6.45369e-05
6.36515e-05
6.24734e-05
6.09135e-05
2.31959e-05
9.78631e-06
5.99973e-06
5.9859e-07
2.49731e-09
2.57979e-09
6.18211e-07
1.23673e-05
3.26505e-05
5.72909e-05
5.98719e-05
6.17274e-05
6.30655e-05
6.40443e-05
6.47797e-05
6.53512e-05
6.58093e-05
6.61854e-05
6.64875e-05
6.67234e-05
6.68992e-05
6.7019e-05
6.70843e-05
6.70957e-05
6.70453e-05
6.69282e-05
6.67503e-05
6.65075e-05
6.61937e-05
6.57968e-05
6.52923e-05
6.46379e-05
6.37718e-05
6.26208e-05
6.11223e-05
2.22061e-05
9.58301e-06
7.00799e-06
6.24537e-07
2.53642e-09
2.5998e-09
6.22727e-07
1.25238e-05
3.25785e-05
5.73407e-05
5.99194e-05
6.1766e-05
6.30942e-05
6.40641e-05
6.47924e-05
6.53589e-05
6.58142e-05
6.61875e-05
6.64871e-05
6.67213e-05
6.68958e-05
6.70142e-05
6.7078e-05
6.70879e-05
6.70361e-05
6.69176e-05
6.67388e-05
6.64958e-05
6.61826e-05
6.57869e-05
6.52838e-05
6.463e-05
6.3762e-05
6.2605e-05
6.10966e-05
2.09683e-05
9.16516e-06
6.66373e-06
6.18233e-07
2.50634e-09
2.60521e-09
6.23192e-07
1.2137e-05
3.15991e-05
5.74217e-05
5.99767e-05
6.18084e-05
6.31259e-05
6.40879e-05
6.48107e-05
6.53735e-05
6.58266e-05
6.6198e-05
6.64975e-05
6.67322e-05
6.69078e-05
6.70277e-05
6.70935e-05
6.71061e-05
6.70577e-05
6.69438e-05
6.67712e-05
6.65364e-05
6.62339e-05
6.58513e-05
6.53635e-05
6.47259e-05
6.38737e-05
6.27304e-05
6.12296e-05
2.03691e-05
8.98395e-06
6.71225e-06
6.2431e-07
2.54537e-09
2.64303e-09
6.32713e-07
1.24486e-05
3.14184e-05
5.74865e-05
6.00315e-05
6.18515e-05
6.31574e-05
6.41095e-05
6.48244e-05
6.53818e-05
6.58316e-05
6.62005e-05
6.64966e-05
6.67287e-05
6.6902e-05
6.70199e-05
6.70835e-05
6.70941e-05
6.70443e-05
6.69295e-05
6.67571e-05
6.65236e-05
6.62237e-05
6.5845e-05
6.53615e-05
6.47272e-05
6.38747e-05
6.27281e-05
6.12219e-05
1.94405e-05
8.75585e-06
6.68147e-06
6.20286e-07
2.53146e-09
2.63236e-09
6.29715e-07
1.26103e-05
3.08126e-05
5.75102e-05
6.00633e-05
6.18831e-05
6.31851e-05
6.41321e-05
6.48426e-05
6.53967e-05
6.58444e-05
6.621e-05
6.6506e-05
6.67385e-05
6.69126e-05
6.70318e-05
6.70975e-05
6.71109e-05
6.70645e-05
6.69546e-05
6.6789e-05
6.65646e-05
6.62766e-05
6.5913e-05
6.54476e-05
6.48335e-05
6.40008e-05
6.28735e-05
6.13852e-05
1.90894e-05
8.53942e-06
6.47751e-06
6.35724e-07
2.61828e-09
2.63428e-09
6.29907e-07
1.231e-05
3.03263e-05
5.75424e-05
6.01074e-05
6.1923e-05
6.32159e-05
6.41536e-05
6.48559e-05
6.54028e-05
6.58439e-05
6.62082e-05
6.65026e-05
6.6733e-05
6.69048e-05
6.70215e-05
6.70845e-05
6.70955e-05
6.70477e-05
6.69374e-05
6.67727e-05
6.65512e-05
6.6268e-05
6.59108e-05
6.54525e-05
6.4844e-05
6.40168e-05
6.28964e-05
6.14087e-05
1.82539e-05
8.40224e-06
6.56569e-06
6.35889e-07
2.64076e-09
2.63294e-09
6.27126e-07
1.24542e-05
2.97391e-05
5.76013e-05
6.01558e-05
6.19638e-05
6.32493e-05
6.41802e-05
6.48768e-05
6.54195e-05
6.58577e-05
6.62202e-05
6.65134e-05
6.67435e-05
6.69157e-05
6.70334e-05
6.70982e-05
6.71119e-05
6.70681e-05
6.69637e-05
6.68075e-05
6.65975e-05
6.63297e-05
6.59921e-05
6.55571e-05
6.49744e-05
6.41799e-05
6.30892e-05
6.16231e-05
1.80426e-05
8.30034e-06
6.55537e-06
6.60827e-07
2.75327e-09
2.61801e-09
6.23658e-07
1.23265e-05
2.89921e-05
5.76302e-05
6.01959e-05
6.20019e-05
6.32805e-05
6.42034e-05
6.48926e-05
6.54293e-05
6.58626e-05
6.622e-05
6.65107e-05
6.67399e-05
6.69109e-05
6.70272e-05
6.70905e-05
6.71031e-05
6.70588e-05
6.69549e-05
6.68003e-05
6.65934e-05
6.63306e-05
6.59995e-05
6.55717e-05
6.49983e-05
6.42178e-05
6.31376e-05
6.16781e-05
1.73602e-05
8.01948e-06
6.36075e-06
6.74143e-07
2.81516e-09
2.6078e-09
6.20123e-07
1.25169e-05
2.86146e-05
5.76913e-05
6.02474e-05
6.20453e-05
6.33162e-05
6.42322e-05
6.49157e-05
6.54476e-05
6.58767e-05
6.62298e-05
6.6521e-05
6.67507e-05
6.69224e-05
6.70401e-05
6.71056e-05
6.71213e-05
6.70811e-05
6.69831e-05
6.68366e-05
6.66406e-05
6.63918e-05
6.6078e-05
6.56704e-05
6.51265e-05
6.43754e-05
6.33206e-05
6.18756e-05
1.71715e-05
8.06158e-06
6.51782e-06
6.86395e-07
2.86715e-09
2.62069e-09
6.22308e-07
1.23284e-05
2.81832e-05
5.77557e-05
6.03043e-05
6.20925e-05
6.33529e-05
6.42594e-05
6.4935e-05
6.54607e-05
6.58851e-05
6.6235e-05
6.65233e-05
6.67497e-05
6.69189e-05
6.70343e-05
6.70978e-05
6.71121e-05
6.70716e-05
6.69746e-05
6.68306e-05
6.6639e-05
6.63969e-05
6.60921e-05
6.56949e-05
6.51657e-05
6.44281e-05
6.33852e-05
6.19475e-05
1.65757e-05
7.86618e-06
6.36482e-06
6.85763e-07
2.87484e-09
2.62965e-09
6.24395e-07
1.21606e-05
2.773e-05
5.78103e-05
6.03585e-05
6.21403e-05
6.33927e-05
6.42917e-05
6.49612e-05
6.54824e-05
6.59037e-05
6.62512e-05
6.6537e-05
6.67632e-05
6.69327e-05
6.70493e-05
6.71151e-05
6.7133e-05
6.70972e-05
6.70069e-05
6.68725e-05
6.66939e-05
6.64688e-05
6.61852e-05
6.5818e-05
6.53233e-05
6.46222e-05
6.36137e-05
6.16621e-05
1.65073e-05
7.91963e-06
6.52613e-06
7.04605e-07
2.98332e-09
2.63716e-09
6.2566e-07
1.23433e-05
2.73819e-05
5.78793e-05
6.04196e-05
6.21903e-05
6.34312e-05
6.432e-05
6.49812e-05
6.54957e-05
6.59115e-05
6.62541e-05
6.65385e-05
6.67627e-05
6.69307e-05
6.70463e-05
6.71113e-05
6.71287e-05
6.70933e-05
6.70044e-05
6.68724e-05
6.66974e-05
6.64773e-05
6.61992e-05
6.58457e-05
6.53669e-05
6.4681e-05
6.3686e-05
6.02089e-05
1.60248e-05
7.75454e-06
6.47413e-06
7.31847e-07
3.08507e-09
2.64976e-09
6.28459e-07
1.23331e-05
2.6896e-05
5.79405e-05
6.04759e-05
6.22387e-05
6.34711e-05
6.43523e-05
6.50073e-05
6.55173e-05
6.59298e-05
6.62703e-05
6.65526e-05
6.67764e-05
6.69447e-05
6.70614e-05
6.71289e-05
6.71495e-05
6.71186e-05
6.70366e-05
6.69137e-05
6.67507e-05
6.65455e-05
6.62892e-05
6.59624e-05
6.5507e-05
6.48324e-05
6.38088e-05
5.94362e-05
1.57595e-05
7.19525e-06
4.85666e-06
6.52664e-07
2.89382e-09
2.67529e-09
6.34117e-07
1.23347e-05
2.64695e-05
5.80194e-05
6.05422e-05
6.22913e-05
6.3511e-05
6.43815e-05
6.50281e-05
6.55315e-05
6.59393e-05
6.62765e-05
6.65566e-05
6.67777e-05
6.69443e-05
6.706e-05
6.71268e-05
6.71475e-05
6.71176e-05
6.7038e-05
6.69191e-05
6.67624e-05
6.65659e-05
6.63244e-05
6.60112e-05
6.55716e-05
6.49137e-05
6.39039e-05
5.80843e-05
1.53365e-05
7.067e-06
4.76646e-06
6.43908e-07
2.8945e-09
2.6618e-09
6.2986e-07
1.22476e-05
2.59048e-05
5.80599e-05
6.05909e-05
6.23365e-05
6.35494e-05
6.44131e-05
6.50539e-05
6.55531e-05
6.59579e-05
6.62936e-05
6.65713e-05
6.67928e-05
6.69605e-05
6.70782e-05
6.71485e-05
6.71738e-05
6.71495e-05
6.70779e-05
6.69702e-05
6.68284e-05
6.66527e-05
6.64325e-05
6.61472e-05
6.57427e-05
6.51197e-05
6.41408e-05
5.78535e-05
1.54914e-05
7.22491e-06
4.87758e-06
6.70727e-07
3.02841e-09
2.67275e-09
6.3239e-07
1.22509e-05
2.55082e-05
5.81778e-05
6.06752e-05
6.23967e-05
6.35921e-05
6.44429e-05
6.50744e-05
6.55667e-05
6.59663e-05
6.62979e-05
6.65745e-05
6.67936e-05
6.69597e-05
6.70763e-05
6.71456e-05
6.71704e-05
6.71468e-05
6.70773e-05
6.69729e-05
6.68365e-05
6.66683e-05
6.64596e-05
6.61936e-05
6.58105e-05
6.52109e-05
6.4255e-05
5.68565e-05
1.51251e-05
7.0393e-06
4.86093e-06
7.08854e-07
3.193e-09
2.69529e-09
6.35902e-07
1.22567e-05
2.5154e-05
5.8221e-05
6.07247e-05
6.24417e-05
6.36298e-05
6.44737e-05
6.50995e-05
6.55876e-05
6.59843e-05
6.63147e-05
6.6589e-05
6.68086e-05
6.69758e-05
6.70945e-05
6.71672e-05
6.71968e-05
6.71791e-05
6.71173e-05
6.70237e-05
6.6901e-05
6.67502e-05
6.65696e-05
6.63368e-05
6.59901e-05
6.54293e-05
6.45056e-05
5.67477e-05
1.52229e-05
7.20014e-06
5.05336e-06
7.19498e-07
3.23925e-09
2.67303e-09
6.29189e-07
1.21832e-05
2.45779e-05
5.82931e-05
6.07803e-05
6.24847e-05
6.36621e-05
6.44971e-05
6.51159e-05
6.55987e-05
6.59914e-05
6.63192e-05
6.65929e-05
6.68096e-05
6.69754e-05
6.70936e-05
6.71662e-05
6.71962e-05
6.71801e-05
6.71216e-05
6.70326e-05
6.69171e-05
6.67765e-05
6.66114e-05
6.6396e-05
6.60702e-05
6.55315e-05
6.46295e-05
5.58276e-05
1.48917e-05
7.04429e-06
4.92271e-06
7.41592e-07
3.36347e-09
2.66148e-09
6.2684e-07
1.21054e-05
2.40845e-05
5.83354e-05
6.0823e-05
6.25226e-05
6.36938e-05
6.4523e-05
6.51373e-05
6.56169e-05
6.6008e-05
6.63374e-05
6.66076e-05
6.68236e-05
6.69904e-05
6.71106e-05
6.71865e-05
6.72204e-05
6.72159e-05
6.71715e-05
6.70927e-05
6.6994e-05
6.68776e-05
6.67375e-05
6.65537e-05
6.62654e-05
6.57656e-05
6.4897e-05
5.57541e-05
1.50213e-05
7.17177e-06
5.02585e-06
7.65622e-07
3.46127e-09
2.6674e-09
6.28592e-07
1.20592e-05
2.36964e-05
5.83864e-05
6.08722e-05
6.25627e-05
6.37238e-05
6.45443e-05
6.51518e-05
6.56266e-05
6.60161e-05
6.63421e-05
6.66085e-05
6.68223e-05
6.6988e-05
6.7108e-05
6.71839e-05
6.72179e-05
6.72136e-05
6.71717e-05
6.70975e-05
6.70046e-05
6.68985e-05
6.67734e-05
6.66114e-05
6.63494e-05
6.58745e-05
6.50248e-05
5.47001e-05
1.44587e-05
6.9049e-06
4.86888e-06
7.75469e-07
3.51312e-09
2.67247e-09
6.3e-07
1.20251e-05
2.32561e-05
5.84406e-05
6.09186e-05
6.26007e-05
6.37539e-05
6.4568e-05
6.51709e-05
6.56429e-05
6.60326e-05
6.63542e-05
6.66184e-05
6.68313e-05
6.69972e-05
6.71183e-05
6.71967e-05
6.7235e-05
6.72375e-05
6.72036e-05
6.71411e-05
6.70674e-05
6.69883e-05
6.68955e-05
6.67689e-05
6.655e-05
6.61229e-05
6.53167e-05
5.48472e-05
1.44772e-05
6.82207e-06
4.86369e-06
7.87338e-07
3.5952e-09
2.66952e-09
6.27152e-07
1.20039e-05
2.2901e-05
5.85032e-05
6.09693e-05
6.26389e-05
6.37808e-05
6.45859e-05
6.51824e-05
6.56512e-05
6.60363e-05
6.63534e-05
6.66146e-05
6.68257e-05
6.69906e-05
6.71111e-05
6.7189e-05
6.72271e-05
6.72301e-05
6.7199e-05
6.71418e-05
6.70757e-05
6.70072e-05
6.69331e-05
6.68325e-05
6.66413e-05
6.62405e-05
6.54553e-05
5.41927e-05
1.44735e-05
6.95544e-06
4.91436e-06
8.10724e-07
3.73485e-09
2.67919e-09
6.29795e-07
1.1976e-05
2.25324e-05
5.85728e-05
6.10192e-05
6.26761e-05
6.38087e-05
6.46069e-05
6.51986e-05
6.56638e-05
6.60445e-05
6.63609e-05
6.66218e-05
6.68334e-05
6.69995e-05
6.7122e-05
6.7203e-05
6.7245e-05
6.72526e-05
6.72337e-05
6.71949e-05
6.71478e-05
6.71024e-05
6.70637e-05
6.70091e-05
6.68696e-05
6.65235e-05
6.57915e-05
5.46382e-05
1.47759e-05
7.0307e-06
5.11199e-06
8.70006e-07
4.00595e-09
2.69694e-09
6.34536e-07
1.21511e-05
2.23219e-05
5.86259e-05
6.10635e-05
6.27094e-05
6.38315e-05
6.46207e-05
6.52051e-05
6.56645e-05
6.60438e-05
6.6356e-05
6.66143e-05
6.68243e-05
6.69894e-05
6.71115e-05
6.71925e-05
6.72353e-05
6.7245e-05
6.72308e-05
6.72007e-05
6.71638e-05
6.71305e-05
6.71126e-05
6.70832e-05
6.69712e-05
6.66507e-05
6.59363e-05
5.3765e-05
1.45788e-05
7.10617e-06
5.12274e-06
8.91472e-07
4.10103e-09
2.68435e-09
6.2914e-07
1.18954e-05
2.19247e-05
5.86458e-05
6.10913e-05
6.27361e-05
6.38538e-05
6.46385e-05
6.52196e-05
6.56788e-05
6.60522e-05
6.63617e-05
6.66187e-05
6.68281e-05
6.69931e-05
6.71154e-05
6.71971e-05
6.72417e-05
6.72551e-05
6.72466e-05
6.72286e-05
6.72157e-05
6.7218e-05
6.72431e-05
6.72628e-05
6.72039e-05
6.69375e-05
6.62689e-05
5.41263e-05
1.4781e-05
7.1585e-06
5.28832e-06
9.12074e-07
4.21342e-09
2.69066e-09
6.28477e-07
1.20408e-05
2.18895e-05
5.84404e-05
6.11195e-05
6.2762e-05
6.38726e-05
6.46495e-05
6.52241e-05
6.5678e-05
6.60476e-05
6.63542e-05
6.66092e-05
6.68173e-05
6.69814e-05
6.71033e-05
6.71854e-05
6.7231e-05
6.72464e-05
6.72423e-05
6.72322e-05
6.72311e-05
6.72497e-05
6.72976e-05
6.7345e-05
6.73168e-05
6.70805e-05
6.64357e-05
5.34091e-05
1.44718e-05
6.94917e-06
5.06215e-06
9.02916e-07
4.21197e-09
2.68612e-09
6.25256e-07
1.16035e-05
2.12474e-05
5.78836e-05
6.11548e-05
6.27909e-05
6.38949e-05
6.46658e-05
6.52354e-05
6.56857e-05
6.60528e-05
6.63582e-05
6.66127e-05
6.68212e-05
6.69866e-05
6.71108e-05
6.71966e-05
6.72477e-05
6.72714e-05
6.72795e-05
6.72871e-05
6.73112e-05
6.73646e-05
6.7456e-05
6.75564e-05
6.75878e-05
6.74131e-05
6.68239e-05
5.40062e-05
1.47083e-05
7.03944e-06
5.24257e-06
9.43738e-07
4.42937e-09
2.71624e-09
6.32785e-07
1.19464e-05
2.13533e-05
5.73315e-05
6.12018e-05
6.28252e-05
6.39175e-05
6.46787e-05
6.52406e-05
6.56851e-05
6.60479e-05
6.63502e-05
6.66025e-05
6.68095e-05
6.6974e-05
6.70982e-05
6.71845e-05
6.7237e-05
6.72637e-05
6.72768e-05
6.72924e-05
6.73278e-05
6.73988e-05
6.75146e-05
6.76431e-05
6.77047e-05
6.75574e-05
6.69862e-05
5.30191e-05
1.4432e-05
7.08324e-06
5.20971e-06
9.61155e-07
4.51217e-09
2.7257e-09
6.3393e-07
1.19689e-05
2.11501e-05
5.67357e-05
6.12354e-05
6.28548e-05
6.39412e-05
6.46964e-05
6.52532e-05
6.56937e-05
6.60539e-05
6.63546e-05
6.66062e-05
6.68135e-05
6.69791e-05
6.71057e-05
6.71955e-05
6.72537e-05
6.72888e-05
6.73144e-05
6.73481e-05
6.74086e-05
6.75184e-05
6.76824e-05
6.78682e-05
6.79933e-05
6.79095e-05
6.73909e-05
5.34585e-05
1.46932e-05
7.10608e-06
5.04796e-06
9.59846e-07
4.5111e-09
2.74744e-09
6.38224e-07
1.20351e-05
2.10567e-05
5.6407e-05
6.12779e-05
6.28876e-05
6.39638e-05
6.471e-05
6.52593e-05
6.56941e-05
6.605e-05
6.63474e-05
6.65967e-05
6.68023e-05
6.69673e-05
6.70936e-05
6.71843e-05
6.72446e-05
6.72837e-05
6.73158e-05
6.73594e-05
6.74337e-05
6.75658e-05
6.77572e-05
6.79755e-05
6.81362e-05
6.80864e-05
6.75935e-05
5.28217e-05
1.43871e-05
7.11085e-06
5.04306e-06
9.5375e-07
4.53053e-09
2.76306e-09
6.41021e-07
1.2089e-05
2.09102e-05
5.59576e-05
6.13176e-05
6.2922e-05
6.39914e-05
6.47312e-05
6.52753e-05
6.5706e-05
6.60594e-05
6.63556e-05
6.66046e-05
6.6811e-05
6.69776e-05
6.71067e-05
6.72015e-05
6.7268e-05
6.73163e-05
6.73619e-05
6.74253e-05
6.75285e-05
6.76981e-05
6.79375e-05
6.82137e-05
6.84387e-05
6.84542e-05
6.80197e-05
5.36275e-05
1.45533e-05
7.10172e-06
5.18806e-06
1.00033e-06
4.77693e-09
2.79367e-09
6.478e-07
1.21732e-05
2.08413e-05
5.56556e-05
6.13716e-05
6.29628e-05
6.40199e-05
6.47491e-05
6.5284e-05
6.57062e-05
6.60545e-05
6.63495e-05
6.65978e-05
6.68034e-05
6.69696e-05
6.70987e-05
6.71943e-05
6.72631e-05
6.73157e-05
6.73683e-05
6.74423e-05
6.7563e-05
6.77573e-05
6.80278e-05
6.83401e-05
6.86035e-05
6.86552e-05
6.82464e-05
5.31888e-05
1.44567e-05
7.16188e-06
5.16588e-06
1.02736e-06
4.96802e-09
2.81578e-09
6.52273e-07
1.24416e-05
2.07557e-05
5.51654e-05
6.14227e-05
6.30045e-05
6.40526e-05
6.47736e-05
6.5301e-05
6.57157e-05
6.60616e-05
6.63574e-05
6.66076e-05
6.68145e-05
6.69823e-05
6.71135e-05
6.72124e-05
6.72864e-05
6.73477e-05
6.74138e-05
6.75083e-05
6.76628e-05
6.79022e-05
6.82299e-05
6.86112e-05
6.89512e-05
6.90804e-05
6.87397e-05
5.37345e-05
1.46781e-05
7.2576e-06
5.37335e-06
1.09236e-06
5.25054e-09
2.85185e-09
6.60167e-07
1.20763e-05
2.05935e-05
5.49564e-05
6.14786e-05
6.30489e-05
6.40854e-05
6.47964e-05
6.53156e-05
6.57232e-05
6.60624e-05
6.63569e-05
6.66055e-05
6.68112e-05
6.69784e-05
6.71096e-05
6.72094e-05
6.72858e-05
6.73513e-05
6.74242e-05
6.75287e-05
6.77004e-05
6.79625e-05
6.83186e-05
6.87331e-05
6.91094e-05
6.92748e-05
6.8964e-05
5.3241e-05
1.45697e-05
7.3996e-06
5.63046e-06
1.18887e-06
5.7418e-09
2.87578e-09
6.65557e-07
1.25078e-05
2.05287e-05
5.45651e-05
6.15215e-05
6.30875e-05
6.41184e-05
6.48238e-05
6.53382e-05
6.57421e-05
6.60792e-05
6.63723e-05
6.66206e-05
6.68275e-05
6.69968e-05
6.71312e-05
6.72359e-05
6.73194e-05
6.73955e-05
6.74844e-05
6.76125e-05
6.78167e-05
6.81224e-05
6.85336e-05
6.90136e-05
6.94617e-05
6.96982e-05
6.94566e-05
5.44453e-05
1.49748e-05
7.55428e-06
5.828e-06
1.22705e-06
5.96478e-09
2.86786e-09
6.63674e-07
1.20368e-05
2.01299e-05
5.41788e-05
6.15882e-05
6.31396e-05
6.41569e-05
6.48512e-05
6.53571e-05
6.57547e-05
6.60875e-05
6.63768e-05
6.66228e-05
6.68284e-05
6.69972e-05
6.7132e-05
6.72381e-05
6.73244e-05
6.74052e-05
6.75015e-05
6.76405e-05
6.78602e-05
6.81857e-05
6.86209e-05
6.91267e-05
6.95996e-05
6.98561e-05
6.96267e-05
5.37349e-05
1.50363e-05
7.72911e-06
5.81849e-06
1.26201e-06
6.17957e-09
2.88371e-09
6.65913e-07
1.23257e-05
2.01682e-05
5.36321e-05
6.16601e-05
6.31968e-05
6.42017e-05
6.48865e-05
6.53855e-05
6.57784e-05
6.61078e-05
6.63952e-05
6.66406e-05
6.68468e-05
6.70172e-05