/*--------------------------------*- C++ -*----------------------------------*\
  =========                 |
  \\      /  F ield         | OpenFOAM: The Open Source CFD Toolbox
   \\    /   O peration     | Website:  https://openfoam.org
    \\  /    A nd           | Version:  13
     \\/     M anipulation  |
\*---------------------------------------------------------------------------*/
FoamFile
{
    format      ascii;
    class       volScalarField;
    location    "1";
    object      p;
}
// * * * * * * * * * * * * * * * * * * * * * * * * * * * * * * * * * * * * * //

dimensions      [0 2 -2 0 0 0 0];

internalField   nonuniform List<scalar> 
78750
(
0
-0.00109836
-0.000636474
1.12847e-05
0.000266268
0.000467398
0.000637085
0.000782783
0.000910783
0.0010224
0.00111955
0.00120491
0.00128007
0.00134658
0.00140576
0.00145851
0.0015053
0.00154637
0.00158167
0.0016114
0.00163596
0.00165564
0.00167072
0.00168141
0.00168793
0.00169041
0.00168866
0.00168256
0.00167243
0.0016585
0.00164069
0.00161737
0.00158455
0.00156743
0.00155138
-0.14504
-0.1449
-0.144733
-0.144631
-0.144549
-0.144464
-0.144378
-0.144295
-0.144218
-0.144147
-0.144081
-0.14402
-0.143963
-0.143911
-0.143862
-0.143818
-0.143778
-0.143741
-0.143709
-0.14368
-0.143655
-0.143633
-0.143614
-0.143599
-0.143585
-0.143574
-0.143566
-0.143559
-0.143555
-0.143552
-0.143552
-0.143548
-0.143531
-0.143507
-0.143539
-0.289496
-0.289511
-0.289474
-0.289444
-0.289406
-0.289359
-0.289308
-0.289258
-0.289208
-0.289159
-0.289112
-0.289065
-0.289019
-0.288973
-0.288929
-0.288886
-0.288843
-0.288802
-0.288761
-0.288721
-0.288681
-0.288643
-0.288606
-0.28857
-0.288535
-0.288501
-0.288469
-0.288439
-0.28841
-0.288383
-0.288361
-0.288343
-0.288316
-0.28828
-0.288335
-0.434563
-0.434581
-0.434547
-0.43451
-0.434469
-0.434424
-0.434377
-0.434327
-0.434277
-0.434225
-0.434174
-0.434124
-0.434074
-0.434026
-0.433979
-0.433933
-0.433887
-0.433843
-0.433801
-0.433759
-0.433718
-0.433678
-0.43364
-0.433602
-0.433566
-0.43353
-0.433495
-0.433462
-0.433431
-0.433401
-0.433375
-0.433354
-0.433322
-0.433274
-0.433352
-0.579565
-0.579593
-0.579562
-0.579536
-0.579508
-0.579475
-0.57944
-0.579402
-0.579362
-0.579321
-0.579279
-0.579236
-0.579192
-0.579148
-0.579103
-0.579059
-0.579014
-0.578969
-0.578925
-0.57888
-0.578837
-0.578793
-0.578751
-0.578709
-0.578669
-0.578629
-0.57859
-0.578553
-0.578517
-0.578484
-0.578454
-0.578432
-0.578393
-0.57833
-0.578436
-0.724654
-0.724691
-0.724657
-0.724631
-0.724604
-0.724573
-0.724539
-0.724503
-0.724465
-0.724427
-0.724388
-0.724349
-0.724309
-0.724269
-0.724229
-0.724189
-0.724148
-0.724109
-0.724069
-0.72403
-0.723991
-0.723952
-0.723915
-0.723877
-0.723841
-0.723806
-0.723771
-0.723738
-0.723706
-0.723675
-0.72365
-0.723632
-0.72359
-0.72352
-0.723655
-0.869792
-0.869836
-0.8698
-0.869775
-0.86975
-0.869722
-0.869691
-0.869658
-0.869623
-0.869588
-0.869553
-0.869517
-0.869481
-0.869445
-0.869408
-0.869372
-0.869335
-0.869299
-0.869263
-0.869227
-0.869192
-0.869157
-0.869123
-0.869089
-0.869057
-0.869026
-0.868995
-0.868966
-0.86894
-0.868915
-0.868895
-0.868884
-0.868842
-0.868766
-0.868929
-1.01494
-1.01499
-1.01495
-1.01493
-1.01491
-1.01488
-1.01485
-1.01482
-1.01479
-1.01476
-1.01473
-1.0147
-1.01467
-1.01464
-1.01461
-1.01458
-1.01455
-1.01452
-1.01449
-1.01446
-1.01443
-1.0144
-1.01438
-1.01435
-1.01432
-1.0143
-1.01427
-1.01425
-1.01423
-1.01421
-1.01419
-1.01419
-1.01414
-1.01406
-1.01425
-1.16009
-1.16015
-1.16011
-1.16009
-1.16007
-1.16005
-1.16003
-1.16
-1.15998
-1.15995
-1.15993
-1.1599
-1.15988
-1.15985
-1.15983
-1.1598
-1.15978
-1.15975
-1.15973
-1.1597
-1.15968
-1.15966
-1.15963
-1.15961
-1.15959
-1.15957
-1.15955
-1.15953
-1.15951
-1.15949
-1.15948
-1.15948
-1.15943
-1.15933
-1.15953
-1.30523
-1.30529
-1.30525
-1.30523
-1.30522
-1.3052
-1.30518
-1.30516
-1.30514
-1.30513
-1.30511
-1.30509
-1.30507
-1.30505
-1.30503
-1.30502
-1.305
-1.30498
-1.30497
-1.30495
-1.30493
-1.30492
-1.3049
-1.30488
-1.30487
-1.30485
-1.30483
-1.30482
-1.3048
-1.30478
-1.30477
-1.30477
-1.30472
-1.3046
-1.30484
-1.45035
-1.45043
-1.45038
-1.45036
-1.45035
-1.45034
-1.45033
-1.45032
-1.4503
-1.45029
-1.45028
-1.45027
-1.45026
-1.45025
-1.45024
-1.45023
-1.45021
-1.4502
-1.45019
-1.45018
-1.45017
-1.45016
-1.45015
-1.45014
-1.45013
-1.45012
-1.45011
-1.4501
-1.45008
-1.45008
-1.45007
-1.45008
-1.45003
-1.44991
-1.45018
-1.59543
-1.59552
-1.59547
-1.59545
-1.59545
-1.59545
-1.59544
-1.59543
-1.59542
-1.59542
-1.59541
-1.59541
-1.59541
-1.5954
-1.5954
-1.5954
-1.5954
-1.59539
-1.59539
-1.59539
-1.59539
-1.59539
-1.59538
-1.59538
-1.59537
-1.59537
-1.59537
-1.59536
-1.59536
-1.59535
-1.59536
-1.59537
-1.59532
-1.59521
-1.5955
-1.74049
-1.74058
-1.74053
-1.74052
-1.74052
-1.74052
-1.74052
-1.74052
-1.74052
-1.74052
-1.74052
-1.74053
-1.74053
-1.74053
-1.74054
-1.74054
-1.74055
-1.74055
-1.74056
-1.74056
-1.74056
-1.74057
-1.74057
-1.74057
-1.74057
-1.74057
-1.74057
-1.74057
-1.74057
-1.74057
-1.74058
-1.7406
-1.74056
-1.74044
-1.74075
-1.8855
-1.8856
-1.88555
-1.88554
-1.88555
-1.88555
-1.88555
-1.88556
-1.88557
-1.88557
-1.88558
-1.88559
-1.8856
-1.88561
-1.88563
-1.88564
-1.88565
-1.88566
-1.88568
-1.88569
-1.8857
-1.88571
-1.88571
-1.88572
-1.88573
-1.88573
-1.88574
-1.88574
-1.88574
-1.88574
-1.88576
-1.88578
-1.88574
-1.88561
-1.88595
-2.03047
-2.03059
-2.03053
-2.03052
-2.03054
-2.03055
-2.03056
-2.03057
-2.03058
-2.0306
-2.03061
-2.03063
-2.03065
-2.03067
-2.03069
-2.03071
-2.03072
-2.03074
-2.03076
-2.03078
-2.0308
-2.03081
-2.03082
-2.03084
-2.03085
-2.03086
-2.03086
-2.03087
-2.03087
-2.03088
-2.0309
-2.03093
-2.03088
-2.03076
-2.03114
-2.17541
-2.17553
-2.17547
-2.17547
-2.17549
-2.1755
-2.17552
-2.17553
-2.17555
-2.17557
-2.1756
-2.17562
-2.17564
-2.17567
-2.1757
-2.17572
-2.17575
-2.17578
-2.1758
-2.17583
-2.17585
-2.17587
-2.1759
-2.17592
-2.17593
-2.17595
-2.17597
-2.17598
-2.17599
-2.176
-2.17603
-2.17607
-2.17602
-2.1759
-2.17631
-2.32031
-2.32044
-2.32038
-2.32038
-2.32041
-2.32043
-2.32045
-2.32047
-2.32049
-2.32052
-2.32055
-2.32058
-2.32061
-2.32064
-2.32068
-2.32071
-2.32074
-2.32078
-2.32081
-2.32084
-2.32087
-2.3209
-2.32093
-2.32095
-2.32098
-2.321
-2.32102
-2.32104
-2.32106
-2.32108
-2.32112
-2.32116
-2.32112
-2.321
-2.32143
-2.46518
-2.46531
-2.46525
-2.46525
-2.46528
-2.46531
-2.46533
-2.46536
-2.46539
-2.46542
-2.46546
-2.46549
-2.46553
-2.46557
-2.46561
-2.46565
-2.46569
-2.46573
-2.46577
-2.4658
-2.46584
-2.46588
-2.46591
-2.46594
-2.46597
-2.466
-2.46603
-2.46605
-2.46608
-2.4661
-2.46615
-2.4662
-2.46616
-2.46603
-2.46648
-2.61002
-2.61016
-2.6101
-2.6101
-2.61014
-2.61017
-2.6102
-2.61023
-2.61026
-2.6103
-2.61034
-2.61038
-2.61042
-2.61047
-2.61051
-2.61056
-2.6106
-2.61065
-2.61069
-2.61074
-2.61078
-2.61082
-2.61086
-2.61089
-2.61093
-2.61096
-2.61099
-2.61102
-2.61104
-2.61107
-2.61113
-2.61117
-2.61113
-2.611
-2.61148
-2.75483
-2.75498
-2.75492
-2.75492
-2.75496
-2.75499
-2.75502
-2.75506
-2.7551
-2.75514
-2.75519
-2.75523
-2.75528
-2.75533
-2.75538
-2.75543
-2.75548
-2.75553
-2.75558
-2.75563
-2.75567
-2.75572
-2.75576
-2.7558
-2.75584
-2.75588
-2.75591
-2.75594
-2.75597
-2.756
-2.75606
-2.75611
-2.75606
-2.75593
-2.75643
-2.89963
-2.89979
-2.89972
-2.89972
-2.89977
-2.8998
-2.89984
-2.89988
-2.89992
-2.89997
-2.90002
-2.90007
-2.90012
-2.90018
-2.90023
-2.90028
-2.90034
-2.90039
-2.90045
-2.9005
-2.90055
-2.9006
-2.90064
-2.90069
-2.90073
-2.90077
-2.9008
-2.90083
-2.90086
-2.9009
-2.90096
-2.901
-2.90096
-2.90082
-2.90135
-3.0444
-3.04457
-3.0445
-3.0445
-3.04455
-3.04459
-3.04463
-3.04467
-3.04472
-3.04477
-3.04482
-3.04488
-3.04493
-3.04499
-3.04505
-3.04511
-3.04517
-3.04523
-3.04529
-3.04535
-3.0454
-3.04545
-3.0455
-3.04555
-3.0456
-3.04564
-3.04568
-3.04571
-3.04575
-3.04578
-3.04584
-3.04588
-3.04583
-3.04569
-3.04624
-3.18917
-3.18935
-3.18927
-3.18928
-3.18932
-3.18937
-3.18941
-3.18946
-3.18951
-3.18957
-3.18962
-3.18968
-3.18974
-3.18981
-3.18987
-3.18993
-3.19
-3.19006
-3.19012
-3.19018
-3.19024
-3.19029
-3.19035
-3.1904
-3.19045
-3.19049
-3.19053
-3.19057
-3.19061
-3.19065
-3.19071
-3.19074
-3.19068
-3.19053
-3.19111
-3.33392
-3.3341
-3.33403
-3.33403
-3.33408
-3.33413
-3.33418
-3.33423
-3.33428
-3.33434
-3.3344
-3.33447
-3.33453
-3.3346
-3.33466
-3.33473
-3.3348
-3.33487
-3.33493
-3.335
-3.33506
-3.33512
-3.33518
-3.33523
-3.33528
-3.33533
-3.33537
-3.33541
-3.33545
-3.33549
-3.33555
-3.33558
-3.33554
-3.33539
-3.336
-3.47867
-3.47886
-3.47878
-3.47879
-3.47884
-3.47889
-3.47894
-3.479
-3.47906
-3.47912
-3.47919
-3.47925
-3.47932
-3.47939
-3.47946
-3.47953
-3.47961
-3.47968
-3.47975
-3.47981
-3.47988
-3.47994
-3.48
-3.48006
-3.48011
-3.48016
-3.48021
-3.48025
-3.48029
-3.48034
-3.48041
-3.48043
-3.48037
-3.48021
-3.48084
-3.62341
-3.62361
-3.62353
-3.62353
-3.62359
-3.62364
-3.6237
-3.62376
-3.62382
-3.62388
-3.62395
-3.62402
-3.6241
-3.62417
-3.62425
-3.62432
-3.6244
-3.62447
-3.62455
-3.62462
-3.62469
-3.62475
-3.62482
-3.62488
-3.62493
-3.62499
-3.62503
-3.62508
-3.62512
-3.62516
-3.62522
-3.62525
-3.6252
-3.62504
-3.62571
-3.76816
-3.76837
-3.76828
-3.76829
-3.76835
-3.7684
-3.76846
-3.76852
-3.76859
-3.76866
-3.76873
-3.76881
-3.76888
-3.76896
-3.76904
-3.76912
-3.7692
-3.76928
-3.76935
-3.76943
-3.7695
-3.76957
-3.76963
-3.7697
-3.76976
-3.76981
-3.76986
-3.7699
-3.76995
-3.76999
-3.77006
-3.77008
-3.77002
-3.76985
-3.77054
-3.9129
-3.91312
-3.91303
-3.91303
-3.91309
-3.91316
-3.91322
-3.91328
-3.91335
-3.91342
-3.9135
-3.91358
-3.91366
-3.91375
-3.91383
-3.91391
-3.914
-3.91408
-3.91416
-3.91424
-3.91432
-3.91439
-3.91446
-3.91453
-3.91459
-3.91465
-3.9147
-3.91475
-3.91479
-3.91484
-3.9149
-3.91492
-3.91486
-3.91469
-3.91539
-4.05765
-4.05788
-4.05778
-4.05779
-4.05785
-4.05792
-4.05798
-4.05805
-4.05813
-4.05821
-4.05829
-4.05837
-4.05846
-4.05854
-4.05863
-4.05872
-4.05881
-4.0589
-4.05899
-4.05907
-4.05915
-4.05923
-4.0593
-4.05937
-4.05944
-4.0595
-4.05955
-4.05961
-4.05965
-4.05971
-4.05977
-4.05979
-4.05972
-4.05958
-4.0603
-4.2024
-4.20263
-4.20254
-4.20254
-4.20261
-4.20268
-4.20275
-4.20282
-4.2029
-4.20298
-4.20307
-4.20316
-4.20325
-4.20334
-4.20344
-4.20353
-4.20363
-4.20372
-4.20381
-4.2039
-4.20399
-4.20407
-4.20415
-4.20423
-4.2043
-4.20437
-4.20443
-4.20449
-4.20454
-4.2046
-4.20467
-4.20469
-4.20462
-4.20446
-4.20522
-4.34716
-4.34741
-4.34731
-4.34731
-4.34738
-4.34746
-4.34753
-4.34761
-4.34769
-4.34778
-4.34787
-4.34796
-4.34806
-4.34816
-4.34826
-4.34836
-4.34846
-4.34856
-4.34865
-4.34875
-4.34884
-4.34893
-4.34901
-4.34909
-4.34917
-4.34924
-4.3493
-4.34936
-4.34942
-4.34948
-4.34955
-4.34956
-4.34949
-4.34932
-4.35011
-4.49192
-4.49217
-4.49207
-4.49207
-4.49215
-4.49222
-4.4923
-4.49238
-4.49247
-4.49256
-4.49266
-4.49276
-4.49286
-4.49297
-4.49307
-4.49318
-4.49329
-4.49339
-4.49349
-4.4936
-4.49369
-4.49379
-4.49388
-4.49396
-4.49404
-4.49412
-4.49419
-4.49425
-4.49431
-4.49438
-4.49444
-4.49445
-4.49437
-4.4942
-4.49501
-4.63667
-4.63693
-4.63683
-4.63683
-4.63691
-4.63699
-4.63707
-4.63716
-4.63725
-4.63735
-4.63746
-4.63756
-4.63767
-4.63778
-4.6379
-4.63801
-4.63812
-4.63824
-4.63835
-4.63845
-4.63856
-4.63866
-4.63876
-4.63885
-4.63893
-4.63901
-4.63909
-4.63916
-4.63922
-4.6393
-4.63936
-4.63937
-4.63929
-4.63911
-4.63994
-4.7814
-4.78167
-4.78157
-4.78157
-4.78165
-4.78174
-4.78183
-4.78192
-4.78202
-4.78213
-4.78224
-4.78236
-4.78247
-4.78259
-4.78272
-4.78284
-4.78296
-4.78308
-4.7832
-4.78332
-4.78343
-4.78354
-4.78364
-4.78374
-4.78383
-4.78392
-4.784
-4.78408
-4.78415
-4.78423
-4.7843
-4.7843
-4.78422
-4.78403
-4.78489
-4.92613
-4.92641
-4.92631
-4.92631
-4.9264
-4.92649
-4.92659
-4.92669
-4.9268
-4.92692
-4.92704
-4.92716
-4.92728
-4.92741
-4.92754
-4.92768
-4.92781
-4.92794
-4.92806
-4.92819
-4.92831
-4.92843
-4.92854
-4.92865
-4.92875
-4.92884
-4.92894
-4.92902
-4.9291
-4.92919
-4.92927
-4.92926
-4.92914
-4.92892
-4.9298
-5.07085
-5.07113
-5.07103
-5.07104
-5.07113
-5.07123
-5.07134
-5.07145
-5.07157
-5.07169
-5.07182
-5.07195
-5.07208
-5.07222
-5.07236
-5.0725
-5.07264
-5.07278
-5.07292
-5.07305
-5.07318
-5.07331
-5.07343
-5.07354
-5.07365
-5.07376
-5.07385
-5.07395
-5.07403
-5.07413
-5.0742
-5.07419
-5.07406
-5.07382
-5.07475
-5.2156
-5.21589
-5.21577
-5.21578
-5.21588
-5.21599
-5.2161
-5.21622
-5.21634
-5.21647
-5.21661
-5.21675
-5.21689
-5.21704
-5.21719
-5.21734
-5.21749
-5.21763
-5.21778
-5.21792
-5.21806
-5.21819
-5.21832
-5.21844
-5.21856
-5.21867
-5.21877
-5.21887
-5.21896
-5.21906
-5.21913
-5.21911
-5.21897
-5.21873
-5.2197
-5.36034
-5.36064
-5.36052
-5.36053
-5.36063
-5.36074
-5.36085
-5.36098
-5.36111
-5.36124
-5.36139
-5.36154
-5.36169
-5.36184
-5.362
-5.36216
-5.36232
-5.36248
-5.36263
-5.36279
-5.36293
-5.36308
-5.36322
-5.36335
-5.36347
-5.36359
-5.3637
-5.3638
-5.3639
-5.364
-5.36408
-5.36406
-5.36391
-5.36367
-5.36466
-5.50503
-5.50534
-5.50523
-5.50524
-5.50535
-5.50546
-5.50559
-5.50572
-5.50586
-5.50601
-5.50616
-5.50631
-5.50648
-5.50664
-5.50681
-5.50698
-5.50715
-5.50731
-5.50748
-5.50764
-5.5078
-5.50795
-5.5081
-5.50824
-5.50837
-5.5085
-5.50862
-5.50873
-5.50884
-5.50896
-5.50904
-5.50901
-5.50886
-5.50858
-5.50959
-5.64971
-5.65003
-5.64991
-5.64993
-5.65004
-5.65017
-5.6503
-5.65044
-5.65059
-5.65074
-5.6509
-5.65107
-5.65124
-5.65142
-5.65159
-5.65177
-5.65195
-5.65213
-5.65231
-5.65248
-5.65265
-5.65281
-5.65297
-5.65312
-5.65326
-5.6534
-5.65352
-5.65365
-5.65376
-5.65388
-5.65396
-5.65394
-5.65377
-5.65352
-5.65456
-5.79438
-5.79472
-5.7946
-5.79462
-5.79473
-5.79486
-5.795
-5.79515
-5.79531
-5.79547
-5.79564
-5.79581
-5.79599
-5.79618
-5.79636
-5.79655
-5.79674
-5.79693
-5.79711
-5.79729
-5.79747
-5.79764
-5.79781
-5.79797
-5.79812
-5.79826
-5.7984
-5.79853
-5.79865
-5.79878
-5.79887
-5.79884
-5.79867
-5.7984
-5.79944
-5.93902
-5.93937
-5.93925
-5.93927
-5.93939
-5.93953
-5.93967
-5.93983
-5.93999
-5.94016
-5.94034
-5.94052
-5.94071
-5.94091
-5.9411
-5.9413
-5.9415
-5.9417
-5.94189
-5.94208
-5.94227
-5.94245
-5.94262
-5.94279
-5.94295
-5.9431
-5.94324
-5.94338
-5.94351
-5.94364
-5.94373
-5.9437
-5.94352
-5.94322
-5.94426
-6.08365
-6.084
-6.08389
-6.08391
-6.08403
-6.08418
-6.08433
-6.08449
-6.08467
-6.08484
-6.08503
-6.08522
-6.08542
-6.08562
-6.08582
-6.08603
-6.08624
-6.08644
-6.08664
-6.08684
-6.08703
-6.08722
-6.0874
-6.08757
-6.08774
-6.08789
-6.08804
-6.08818
-6.08832
-6.08845
-6.08855
-6.08851
-6.08832
-6.08801
-6.08909
-6.22826
-6.22862
-6.2285
-6.22852
-6.22865
-6.22881
-6.22897
-6.22914
-6.22932
-6.22951
-6.2297
-6.2299
-6.2301
-6.23031
-6.23053
-6.23074
-6.23096
-6.23117
-6.23138
-6.23159
-6.23179
-6.23198
-6.23217
-6.23235
-6.23252
-6.23268
-6.23284
-6.23298
-6.23312
-6.23326
-6.23335
-6.23331
-6.23312
-6.23281
-6.23393
-6.37288
-6.37325
-6.37313
-6.37315
-6.37328
-6.37344
-6.37361
-6.37379
-6.37397
-6.37416
-6.37436
-6.37457
-6.37478
-6.375
-6.37522
-6.37544
-6.37566
-6.37588
-6.3761
-6.37631
-6.37652
-6.37672
-6.37691
-6.3771
-6.37728
-6.37745
-6.37761
-6.37776
-6.37791
-6.37806
-6.37816
-6.37811
-6.3779
-6.3776
-6.37874
-6.51748
-6.51786
-6.51774
-6.51776
-6.51789
-6.51806
-6.51823
-6.51841
-6.5186
-6.5188
-6.51901
-6.51922
-6.51944
-6.51966
-6.51989
-6.52012
-6.52035
-6.52057
-6.5208
-6.52102
-6.52123
-6.52144
-6.52164
-6.52184
-6.52202
-6.52219
-6.52236
-6.52252
-6.52267
-6.52283
-6.52293
-6.52288
-6.52267
-6.52235
-6.5235
-6.66208
-6.66246
-6.66234
-6.66237
-6.6625
-6.66267
-6.66285
-6.66304
-6.66323
-6.66344
-6.66365
-6.66386
-6.66409
-6.66432
-6.66455
-6.66478
-6.66502
-6.66525
-6.66548
-6.6657
-6.66592
-6.66613
-6.66634
-6.66653
-6.66672
-6.6669
-6.66707
-6.66723
-6.66739
-6.66755
-6.66765
-6.6676
-6.66738
-6.66701
-6.66819
-6.80668
-6.80707
-6.80694
-6.80697
-6.80711
-6.80728
-6.80746
-6.80765
-6.80785
-6.80806
-6.80828
-6.8085
-6.80873
-6.80896
-6.8092
-6.80944
-6.80968
-6.80991
-6.81015
-6.81038
-6.8106
-6.81082
-6.81103
-6.81123
-6.81142
-6.8116
-6.81178
-6.81194
-6.8121
-6.81226
-6.81235
-6.8123
-6.81208
-6.81173
-6.81294
-6.95128
-6.95168
-6.95155
-6.95158
-6.95172
-6.9519
-6.95208
-6.95228
-6.95248
-6.95269
-6.95291
-6.95314
-6.95337
-6.9536
-6.95384
-6.95409
-6.95433
-6.95457
-6.95481
-6.95504
-6.95527
-6.95549
-6.9557
-6.95591
-6.9561
-6.95628
-6.95646
-6.95663
-6.95679
-6.95696
-6.95706
-6.95701
-6.95679
-6.95644
-6.95766
-7.09588
-7.09628
-7.09616
-7.09618
-7.09633
-7.09651
-7.0967
-7.0969
-7.0971
-7.09732
-7.09754
-7.09777
-7.09801
-7.09825
-7.09849
-7.09874
-7.09899
-7.09923
-7.09947
-7.09971
-7.09994
-7.10017
-7.10038
-7.10059
-7.10079
-7.10097
-7.10116
-7.10132
-7.10149
-7.10165
-7.10175
-7.10169
-7.10148
-7.10111
-7.10233
-7.24049
-7.2409
-7.24078
-7.2408
-7.24095
-7.24113
-7.24133
-7.24152
-7.24174
-7.24195
-7.24218
-7.24241
-7.24265
-7.2429
-7.24315
-7.2434
-7.24365
-7.24389
-7.24414
-7.24438
-7.24461
-7.24484
-7.24506
-7.24527
-7.24547
-7.24565
-7.24584
-7.24601
-7.24617
-7.24634
-7.24644
-7.24638
-7.24615
-7.2458
-7.24703
-7.3851
-7.38553
-7.3854
-7.38542
-7.38557
-7.38576
-7.38596
-7.38616
-7.38638
-7.3866
-7.38683
-7.38707
-7.38731
-7.38756
-7.38781
-7.38807
-7.38832
-7.38857
-7.38882
-7.38907
-7.3893
-7.38953
-7.38976
-7.38997
-7.39017
-7.39036
-7.39055
-7.39072
-7.39089
-7.39106
-7.39116
-7.3911
-7.39087
-7.39049
-7.39175
-7.52974
-7.53018
-7.53005
-7.53007
-7.53022
-7.53042
-7.53062
-7.53082
-7.53104
-7.53127
-7.5315
-7.53174
-7.53199
-7.53224
-7.53249
-7.53275
-7.53301
-7.53327
-7.53352
-7.53377
-7.53401
-7.53424
-7.53446
-7.53468
-7.53488
-7.53508
-7.53527
-7.53544
-7.53561
-7.53579
-7.53589
-7.53582
-7.53558
-7.5352
-7.53651
-7.6744
-7.67484
-7.67471
-7.67473
-7.67488
-7.67508
-7.67529
-7.6755
-7.67572
-7.67595
-7.67618
-7.67643
-7.67668
-7.67694
-7.6772
-7.67746
-7.67773
-7.67799
-7.67824
-7.67849
-7.67874
-7.67898
-7.67921
-7.67943
-7.67963
-7.67983
-7.68002
-7.6802
-7.68037
-7.68055
-7.68065
-7.68058
-7.68033
-7.67991
-7.68125
-7.81908
-7.81953
-7.81939
-7.81942
-7.81957
-7.81977
-7.81998
-7.82019
-7.82042
-7.82065
-7.82089
-7.82114
-7.8214
-7.82166
-7.82192
-7.82219
-7.82246
-7.82272
-7.82298
-7.82324
-7.82349
-7.82373
-7.82397
-7.82419
-7.8244
-7.82461
-7.8248
-7.82499
-7.82517
-7.82535
-7.82546
-7.82538
-7.8251
-7.82463
-7.82598
-7.96376
-7.96422
-7.96409
-7.96411
-7.96426
-7.96447
-7.96468
-7.96489
-7.96512
-7.96536
-7.96561
-7.96586
-7.96612
-7.96639
-7.96666
-7.96694
-7.96721
-7.96748
-7.96775
-7.96801
-7.96826
-7.96851
-7.96875
-7.96898
-7.96919
-7.9694
-7.96959
-7.96978
-7.96996
-7.97014
-7.97024
-7.97017
-7.9699
-7.96946
-7.97084
-8.10845
-8.10891
-8.10878
-8.1088
-8.10896
-8.10917
-8.10939
-8.10961
-8.10984
-8.11009
-8.11034
-8.1106
-8.11087
-8.11114
-8.11142
-8.1117
-8.11198
-8.11225
-8.11253
-8.1128
-8.11306
-8.11331
-8.11355
-8.11379
-8.11401
-8.11422
-8.11443
-8.11462
-8.11481
-8.115
-8.11511
-8.11503
-8.11475
-8.11428
-8.11565
-8.25311
-8.25359
-8.25347
-8.25349
-8.25365
-8.25387
-8.25409
-8.25432
-8.25456
-8.25481
-8.25507
-8.25534
-8.25562
-8.2559
-8.25618
-8.25647
-8.25676
-8.25704
-8.25733
-8.2576
-8.25787
-8.25813
-8.25838
-8.25862
-8.25885
-8.25906
-8.25927
-8.25947
-8.25965
-8.25984
-8.25995
-8.25986
-8.25959
-8.25913
-8.26053
-8.39779
-8.39828
-8.39815
-8.39817
-8.39834
-8.39857
-8.3988
-8.39904
-8.39929
-8.39955
-8.39982
-8.40009
-8.40038
-8.40067
-8.40096
-8.40126
-8.40156
-8.40185
-8.40214
-8.40242
-8.4027
-8.40297
-8.40323
-8.40348
-8.40371
-8.40394
-8.40416
-8.40436
-8.40456
-8.40476
-8.40487
-8.40478
-8.40449
-8.404
-8.40539
-8.54247
-8.54297
-8.54284
-8.54287
-8.54304
-8.54328
-8.54352
-8.54377
-8.54402
-8.54429
-8.54457
-8.54486
-8.54515
-8.54545
-8.54575
-8.54606
-8.54637
-8.54668
-8.54698
-8.54727
-8.54756
-8.54784
-8.54811
-8.54837
-8.54861
-8.54884
-8.54907
-8.54929
-8.54949
-8.5497
-8.54982
-8.54972
-8.54941
-8.54887
-8.55032
-8.68718
-8.68768
-8.68754
-8.68757
-8.68775
-8.68799
-8.68824
-8.6885
-8.68877
-8.68904
-8.68933
-8.68963
-8.68993
-8.69024
-8.69055
-8.69087
-8.69119
-8.69151
-8.69182
-8.69212
-8.69242
-8.69271
-8.69299
-8.69325
-8.69351
-8.69375
-8.694
-8.69422
-8.69444
-8.69466
-8.69478
-8.69468
-8.69435
-8.69378
-8.69525
-8.83188
-8.83239
-8.83226
-8.83229
-8.83247
-8.83272
-8.83298
-8.83324
-8.83351
-8.8338
-8.8341
-8.8344
-8.83471
-8.83503
-8.83536
-8.83569
-8.83602
-8.83634
-8.83666
-8.83698
-8.83729
-8.83759
-8.83788
-8.83815
-8.83842
-8.83867
-8.83891
-8.83914
-8.83937
-8.83959
-8.83971
-8.83961
-8.83928
-8.83872
-8.84021
-8.97656
-8.97709
-8.97695
-8.97699
-8.97717
-8.97743
-8.9777
-8.97797
-8.97825
-8.97855
-8.97885
-8.97917
-8.97949
-8.97982
-8.98015
-8.98049
-8.98083
-8.98116
-8.9815
-8.98182
-8.98214
-8.98245
-8.98274
-8.98303
-8.9833
-8.98356
-8.98382
-8.98407
-8.98431
-8.98454
-8.98467
-8.98457
-8.98421
-8.98358
-8.98515
-9.12123
-9.12176
-9.12163
-9.12166
-9.12186
-9.12212
-9.1224
-9.12268
-9.12297
-9.12327
-9.12359
-9.12391
-9.12425
-9.12458
-9.12493
-9.12528
-9.12563
-9.12598
-9.12632
-9.12666
-9.12699
-9.12731
-9.12762
-9.12791
-9.1282
-9.12847
-9.12873
-9.12897
-9.12921
-9.12945
-9.12959
-9.12948
-9.1291
-9.1285
-9.13012
-9.26589
-9.26643
-9.26629
-9.26633
-9.26653
-9.26681
-9.26709
-9.26738
-9.26768
-9.26799
-9.26831
-9.26865
-9.26899
-9.26933
-9.26969
-9.27005
-9.27041
-9.27077
-9.27112
-9.27147
-9.2718
-9.27213
-9.27245
-9.27275
-9.27304
-9.27332
-9.27361
-9.27387
-9.27413
-9.27437
-9.27451
-9.27441
-9.27402
-9.27338
-9.27498
-9.41053
-9.41108
-9.41094
-9.41098
-9.41119
-9.41146
-9.41175
-9.41205
-9.41236
-9.41268
-9.41301
-9.41335
-9.4137
-9.41405
-9.41442
-9.41479
-9.41516
-9.41552
-9.41589
-9.41624
-9.41659
-9.41693
-9.41726
-9.41757
-9.41787
-9.41816
-9.41844
-9.4187
-9.41897
-9.41922
-9.41937
-9.41926
-9.41888
-9.41823
-9.41987
-9.55515
-9.55571
-9.55558
-9.55562
-9.55583
-9.55611
-9.55641
-9.55671
-9.55702
-9.55735
-9.55768
-9.55803
-9.55839
-9.55875
-9.55912
-9.5595
-9.55988
-9.56025
-9.56061
-9.56098
-9.56133
-9.56167
-9.56201
-9.56233
-9.56263
-9.56293
-9.56323
-9.56352
-9.56379
-9.56405
-9.5642
-9.56409
-9.56369
-9.56304
-9.56467
-9.69973
-9.70032
-9.70017
-9.70021
-9.70043
-9.70072
-9.70102
-9.70133
-9.70165
-9.70198
-9.70232
-9.70268
-9.70304
-9.70341
-9.70379
-9.70417
-9.70456
-9.70493
-9.70531
-9.70568
-9.70604
-9.70639
-9.70673
-9.70705
-9.70736
-9.70767
-9.70796
-9.70824
-9.70851
-9.70878
-9.70892
-9.70881
-9.70843
-9.70781
-9.70942
-9.8443
-9.84488
-9.84475
-9.8448
-9.84501
-9.8453
-9.84561
-9.84593
-9.84626
-9.84659
-9.84694
-9.8473
-9.84767
-9.84804
-9.84843
-9.84882
-9.8492
-9.84959
-9.84997
-9.85034
-9.8507
-9.85105
-9.8514
-9.85172
-9.85204
-9.85234
-9.85265
-9.85295
-9.85322
-9.85348
-9.85363
-9.85352
-9.85316
-9.85256
-9.85419
-9.98887
-9.98947
-9.98932
-9.98938
-9.98959
-9.98989
-9.9902
-9.99052
-9.99086
-9.9912
-9.99155
-9.99192
-9.99229
-9.99267
-9.99306
-9.99346
-9.99385
-9.99424
-9.99462
-9.995
-9.99537
-9.99573
-9.99608
-9.99641
-9.99673
-9.99704
-9.99733
-9.99762
-9.9979
-9.99818
-9.99833
-9.99822
-9.99786
-9.99725
-9.99889
-10.1334
-10.1341
-10.1339
-10.134
-10.1342
-10.1345
-10.1348
-10.1351
-10.1355
-10.1358
-10.1362
-10.1365
-10.1369
-10.1373
-10.1377
-10.1381
-10.1385
-10.1389
-10.1393
-10.1396
-10.14
-10.1404
-10.1407
-10.1411
-10.1414
-10.1417
-10.142
-10.1423
-10.1426
-10.1429
-10.143
-10.1429
-10.1425
-10.1418
-10.1435
-10.278
-10.2786
-10.2785
-10.2785
-10.2788
-10.2791
-10.2794
-10.2797
-10.28
-10.2804
-10.2807
-10.2811
-10.2815
-10.2819
-10.2823
-10.2827
-10.2831
-10.2835
-10.2839
-10.2843
-10.2846
-10.285
-10.2854
-10.2857
-10.286
-10.2863
-10.2866
-10.2869
-10.2872
-10.2875
-10.2877
-10.2875
-10.2871
-10.2865
-10.2883
-10.4226
-10.4232
-10.423
-10.4231
-10.4233
-10.4236
-10.424
-10.4243
-10.4246
-10.425
-10.4253
-10.4257
-10.4261
-10.4265
-10.4269
-10.4273
-10.4277
-10.4281
-10.4285
-10.4289
-10.4293
-10.4296
-10.43
-10.4303
-10.4306
-10.431
-10.4313
-10.4316
-10.4318
-10.4321
-10.4323
-10.4322
-10.4318
-10.4311
-10.4328
-10.5671
-10.5678
-10.5676
-10.5677
-10.5679
-10.5682
-10.5685
-10.5689
-10.5692
-10.5696
-10.5699
-10.5703
-10.5707
-10.5711
-10.5715
-10.5719
-10.5723
-10.5727
-10.5731
-10.5735
-10.5739
-10.5742
-10.5746
-10.5749
-10.5753
-10.5756
-10.5759
-10.5762
-10.5765
-10.5768
-10.5769
-10.5768
-10.5764
-10.5757
-10.5774
-10.7118
-10.7124
-10.7123
-10.7123
-10.7125
-10.7129
-10.7132
-10.7135
-10.7139
-10.7142
-10.7146
-10.7149
-10.7153
-10.7157
-10.7161
-10.7165
-10.7169
-10.7173
-10.7177
-10.7181
-10.7185
-10.7189
-10.7192
-10.7196
-10.7199
-10.7202
-10.7205
-10.7208
-10.7211
-10.7214
-10.7216
-10.7214
-10.721
-10.7203
-10.722
-10.8564
-10.8571
-10.8569
-10.857
-10.8572
-10.8575
-10.8578
-10.8581
-10.8585
-10.8588
-10.8592
-10.8596
-10.86
-10.8604
-10.8608
-10.8612
-10.8616
-10.862
-10.8624
-10.8628
-10.8631
-10.8635
-10.8639
-10.8642
-10.8645
-10.8648
-10.8652
-10.8655
-10.8658
-10.8661
-10.8662
-10.8661
-10.8657
-10.8649
-10.8667
-11.0011
-11.0017
-11.0016
-11.0017
-11.0019
-11.0022
-11.0025
-11.0028
-11.0032
-11.0035
-11.0039
-11.0043
-11.0046
-11.005
-11.0054
-11.0058
-11.0062
-11.0066
-11.007
-11.0074
-11.0078
-11.0082
-11.0085
-11.0089
-11.0092
-11.0095
-11.0098
-11.0101
-11.0104
-11.0107
-11.0109
-11.0107
-11.0103
-11.0096
-11.0114
-11.1458
-11.1464
-11.1463
-11.1463
-11.1466
-11.1469
-11.1472
-11.1475
-11.1479
-11.1482
-11.1486
-11.149
-11.1493
-11.1497
-11.1501
-11.1505
-11.151
-11.1514
-11.1518
-11.1521
-11.1525
-11.1529
-11.1532
-11.1536
-11.1539
-11.1542
-11.1546
-11.1549
-11.1552
-11.1555
-11.1556
-11.1555
-11.155
-11.1542
-11.1561
-11.2905
-11.2911
-11.291
-11.2911
-11.2913
-11.2916
-11.2919
-11.2922
-11.2926
-11.2929
-11.2933
-11.2937
-11.2941
-11.2945
-11.2949
-11.2953
-11.2957
-11.2961
-11.2965
-11.2969
-11.2973
-11.2976
-11.298
-11.2983
-11.2987
-11.299
-11.2993
-11.2996
-11.2999
-11.3002
-11.3004
-11.3002
-11.2998
-11.299
-11.3009
-11.4352
-11.4359
-11.4358
-11.4358
-11.436
-11.4363
-11.4367
-11.437
-11.4373
-11.4377
-11.4381
-11.4385
-11.4389
-11.4392
-11.4397
-11.4401
-11.4405
-11.4409
-11.4413
-11.4417
-11.4421
-11.4424
-11.4428
-11.4431
-11.4435
-11.4438
-11.4441
-11.4444
-11.4447
-11.445
-11.4452
-11.445
-11.4446
-11.4439
-11.4457
-11.5799
-11.5806
-11.5805
-11.5806
-11.5808
-11.5811
-11.5814
-11.5818
-11.5821
-11.5825
-11.5829
-11.5833
-11.5837
-11.5841
-11.5845
-11.5849
-11.5853
-11.5857
-11.5861
-11.5865
-11.5869
-11.5873
-11.5876
-11.588
-11.5883
-11.5887
-11.589
-11.5893
-11.5896
-11.5899
-11.5901
-11.59
-11.5895
-11.5887
-11.5906
-11.7247
-11.7255
-11.7253
-11.7254
-11.7256
-11.7259
-11.7262
-11.7266
-11.727
-11.7273
-11.7277
-11.7281
-11.7285
-11.7289
-11.7293
-11.7298
-11.7302
-11.7306
-11.731
-11.7314
-11.7318
-11.7322
-11.7326
-11.7329
-11.7333
-11.7336
-11.7339
-11.7342
-11.7345
-11.7348
-11.735
-11.7349
-11.7344
-11.7337
-11.7357
-11.8696
-11.8703
-11.8702
-11.8702
-11.8704
-11.8707
-11.8711
-11.8714
-11.8718
-11.8722
-11.8726
-11.873
-11.8734
-11.8738
-11.8742
-11.8747
-11.8751
-11.8755
-11.8759
-11.8763
-11.8767
-11.8771
-11.8775
-11.8778
-11.8782
-11.8785
-11.8789
-11.8792
-11.8795
-11.8798
-11.88
-11.8799
-11.8795
-11.8787
-11.8807
-12.0144
-12.0151
-12.015
-12.015
-12.0153
-12.0156
-12.0159
-12.0163
-12.0167
-12.0171
-12.0174
-12.0178
-12.0183
-12.0187
-12.0191
-12.0196
-12.02
-12.0204
-12.0209
-12.0213
-12.0217
-12.0221
-12.0225
-12.0228
-12.0232
-12.0235
-12.0239
-12.0242
-12.0245
-12.0248
-12.025
-12.0249
-12.0245
-12.0237
-12.0257
-12.1592
-12.1599
-12.1598
-12.1599
-12.1601
-12.1604
-12.1608
-12.1612
-12.1615
-12.1619
-12.1623
-12.1627
-12.1632
-12.1636
-12.164
-12.1645
-12.1649
-12.1654
-12.1658
-12.1662
-12.1666
-12.167
-12.1674
-12.1678
-12.1682
-12.1685
-12.1689
-12.1692
-12.1696
-12.1699
-12.1701
-12.1699
-12.1695
-12.1687
-12.1707
-12.304
-12.3048
-12.3047
-12.3047
-12.3049
-12.3053
-12.3056
-12.306
-12.3064
-12.3068
-12.3072
-12.3076
-12.3081
-12.3085
-12.309
-12.3094
-12.3099
-12.3103
-12.3108
-12.3112
-12.3116
-12.312
-12.3124
-12.3128
-12.3132
-12.3136
-12.3139
-12.3143
-12.3146
-12.315
-12.3152
-12.315
-12.3146
-12.3137
-12.3158
-12.4488
-12.4496
-12.4495
-12.4496
-12.4498
-12.4501
-12.4505
-12.4509
-12.4513
-12.4517
-12.4521
-12.4525
-12.453
-12.4534
-12.4539
-12.4544
-12.4548
-12.4553
-12.4557
-12.4562
-12.4566
-12.457
-12.4574
-12.4578
-12.4582
-12.4586
-12.459
-12.4593
-12.4597
-12.46
-12.4602
-12.4601
-12.4596
-12.4588
-12.4608
-12.5936
-12.5944
-12.5943
-12.5944
-12.5946
-12.5949
-12.5953
-12.5957
-12.5961
-12.5965
-12.597
-12.5974
-12.5978
-12.5983
-12.5988
-12.5992
-12.5997
-12.6002
-12.6006
-12.6011
-12.6016
-12.602
-12.6024
-12.6028
-12.6032
-12.6036
-12.604
-12.6043
-12.6047
-12.6051
-12.6053
-12.6051
-12.6047
-12.6037
-12.6058
-12.7384
-12.7392
-12.7391
-12.7392
-12.7394
-12.7397
-12.7401
-12.7405
-12.7409
-12.7414
-12.7418
-12.7422
-12.7427
-12.7432
-12.7437
-12.7441
-12.7446
-12.7451
-12.7456
-12.746
-12.7465
-12.7469
-12.7473
-12.7477
-12.7481
-12.7485
-12.7489
-12.7493
-12.7497
-12.7501
-12.7503
-12.7501
-12.7496
-12.7487
-12.7507
-12.8832
-12.884
-12.8838
-12.8839
-12.8842
-12.8845
-12.8849
-12.8853
-12.8857
-12.8862
-12.8866
-12.887
-12.8875
-12.888
-12.8885
-12.889
-12.8894
-12.8899
-12.8904
-12.8909
-12.8913
-12.8918
-12.8922
-12.8926
-12.893
-12.8934
-12.8938
-12.8942
-12.8946
-12.8949
-12.8951
-12.895
-12.8945
-12.8936
-12.8957
-13.0279
-13.0287
-13.0286
-13.0287
-13.0289
-13.0293
-13.0296
-13.0301
-13.0305
-13.0309
-13.0314
-13.0318
-13.0323
-13.0328
-13.0333
-13.0338
-13.0343
-13.0347
-13.0352
-13.0357
-13.0362
-13.0366
-13.037
-13.0375
-13.0379
-13.0383
-13.0387
-13.0391
-13.0395
-13.0398
-13.04
-13.0399
-13.0393
-13.0383
-13.0406
-13.1726
-13.1734
-13.1733
-13.1734
-13.1736
-13.174
-13.1744
-13.1748
-13.1752
-13.1756
-13.1761
-13.1766
-13.177
-13.1775
-13.178
-13.1785
-13.179
-13.1795
-13.18
-13.1805
-13.1809
-13.1814
-13.1818
-13.1823
-13.1827
-13.183
-13.1834
-13.1838
-13.1842
-13.1846
-13.1848
-13.1846
-13.1841
-13.1832
-13.1854
-13.3172
-13.3181
-13.318
-13.318
-13.3183
-13.3186
-13.319
-13.3194
-13.3199
-13.3203
-13.3208
-13.3212
-13.3217
-13.3222
-13.3227
-13.3232
-13.3237
-13.3242
-13.3247
-13.3252
-13.3256
-13.3261
-13.3265
-13.327
-13.3274
-13.3277
-13.3281
-13.3285
-13.3289
-13.3293
-13.3295
-13.3293
-13.3288
-13.3279
-13.3301
-13.4619
-13.4627
-13.4626
-13.4627
-13.4629
-13.4633
-13.4637
-13.4641
-13.4645
-13.465
-13.4654
-13.4659
-13.4664
-13.4669