/*--------------------------------*- C++ -*----------------------------------*\
  =========                 |
  \\      /  F ield         | OpenFOAM: The Open Source CFD Toolbox
   \\    /   O peration     | Website:  https://openfoam.org
    \\  /    A nd           | Version:  13
     \\/     M anipulation  |
\*---------------------------------------------------------------------------*/
FoamFile
{
    format      ascii;
    class       volScalarField;
    location    "110";
    object      nut;
}
// * * * * * * * * * * * * * * * * * * * * * * * * * * * * * * * * * * * * * //

dimensions      [0 2 -1 0 0 0 0];

internalField   nonuniform List<scalar> 
315000
(
6.57737e-15
1.72251e-12
3.93052e-11
7.05498e-11
1.023e-10
1.34621e-10
1.67593e-10
2.01288e-10
2.35753e-10
2.71007e-10
3.07033e-10
3.43782e-10
3.81172e-10
4.19089e-10
4.57391e-10
4.95911e-10
5.34458e-10
5.72828e-10
6.108e-10
6.48145e-10
6.84628e-10
7.20011e-10
7.54057e-10
7.86532e-10
8.17211e-10
8.45876e-10
8.72321e-10
8.96353e-10
9.17796e-10
9.36492e-10
9.52299e-10
9.65101e-10
9.748e-10
9.81322e-10
9.84619e-10
9.84664e-10
9.81458e-10
9.75026e-10
9.65415e-10
9.52699e-10
9.36973e-10
9.18356e-10
8.96987e-10
8.73024e-10
8.46643e-10
8.18035e-10
7.87408e-10
7.54976e-10
7.20968e-10
6.85615e-10
6.49156e-10
6.11826e-10
5.73862e-10
5.35492e-10
4.96938e-10
4.58404e-10
4.2008e-10
3.82135e-10
3.44709e-10
3.07919e-10
2.71845e-10
2.36537e-10
2.02011e-10
1.68248e-10
1.35199e-10
1.02791e-10
7.0936e-11
3.95588e-11
1.73599e-12
6.63417e-15
1.64604e-13
4.38338e-11
9.98103e-09
1.80505e-08
2.62133e-08
3.45056e-08
4.29574e-08
5.15912e-08
6.04215e-08
6.94535e-08
7.86835e-08
8.80987e-08
9.76774e-08
1.0739e-07
1.17199e-07
1.27061e-07
1.36928e-07
1.46744e-07
1.56455e-07
1.66001e-07
1.75322e-07
1.84357e-07
1.93047e-07
2.01331e-07
2.09154e-07
2.16459e-07
2.23195e-07
2.29314e-07
2.34772e-07
2.39528e-07
2.43549e-07
2.46803e-07
2.49268e-07
2.50925e-07
2.51761e-07
2.5177e-07
2.50953e-07
2.49315e-07
2.46868e-07
2.43631e-07
2.39628e-07
2.34888e-07
2.29445e-07
2.23341e-07
2.16617e-07
2.09324e-07
2.01512e-07
1.93237e-07
1.84555e-07
1.75526e-07
1.66209e-07
1.56666e-07
1.46957e-07
1.3714e-07
1.27272e-07
1.17406e-07
1.07592e-07
9.78723e-08
8.82854e-08
7.88605e-08
6.96194e-08
6.05747e-08
5.17302e-08
4.30805e-08
3.46111e-08
2.62991e-08
1.8114e-08
1.00189e-08
4.40136e-11
1.65302e-13
6.62204e-13
1.766e-10
1.02231e-07
1.84523e-07
2.67469e-07
3.51518e-07
4.37037e-07
5.24299e-07
6.13475e-07
7.04626e-07
7.97705e-07
8.92559e-07
9.88934e-07
1.08649e-06
1.18479e-06
1.28337e-06
1.3817e-06
1.47921e-06
1.57533e-06
1.66946e-06
1.76103e-06
1.84946e-06
1.93419e-06
2.01469e-06
2.09043e-06
2.16093e-06
2.22575e-06
2.28447e-06
2.33671e-06
2.38214e-06
2.42046e-06
2.45144e-06
2.47486e-06
2.49058e-06
2.49851e-06
2.49858e-06
2.49079e-06
2.47521e-06
2.45192e-06
2.42107e-06
2.38288e-06
2.33757e-06
2.28544e-06
2.22683e-06
2.16211e-06
2.0917e-06
2.01604e-06
1.93562e-06
1.85094e-06
1.76256e-06
1.67103e-06
1.57692e-06
1.48081e-06
1.3833e-06
1.28496e-06
1.18635e-06
1.088e-06
9.904e-07
8.9396e-07
7.99029e-07
7.05861e-07
6.14609e-07
5.2532e-07
4.37934e-07
3.52278e-07
2.68078e-07
1.84967e-07
1.02491e-07
1.77075e-10
6.64025e-13
1.23809e-12
3.30212e-10
1.90632e-07
3.43218e-07
4.96565e-07
6.51662e-07
8.09304e-07
9.70066e-07
1.1343e-06
1.30211e-06
1.47339e-06
1.64777e-06
1.82472e-06
2.00348e-06
2.18319e-06
2.36288e-06
2.54152e-06
2.71806e-06
2.89145e-06
3.06066e-06
3.22467e-06
3.38251e-06
3.53327e-06
3.67605e-06
3.81002e-06
3.93442e-06
4.04852e-06
4.15167e-06
4.24328e-06
4.32281e-06
4.38983e-06
4.44393e-06
4.4848e-06
4.51222e-06
4.52601e-06
4.52611e-06
4.5125e-06
4.48527e-06
4.44458e-06
4.39067e-06
4.32383e-06
4.24446e-06
4.15301e-06
4.05001e-06
3.93604e-06
3.81177e-06
3.67791e-06
3.53523e-06
3.38456e-06
3.22678e-06
3.06283e-06
2.89366e-06
2.72029e-06
2.54375e-06
2.36509e-06
2.18537e-06
2.00561e-06
1.82677e-06
1.64974e-06
1.47525e-06
1.30385e-06
1.13589e-06
9.71496e-07
8.10556e-07
6.52721e-07
4.97412e-07
3.43833e-07
1.90992e-07
3.30874e-10
1.24063e-12
1.88857e-12
5.03752e-10
2.89906e-07
5.20395e-07
7.51119e-07
9.83769e-07
1.21966e-06
1.45973e-06
1.7045e-06
1.95411e-06
2.20831e-06
2.46648e-06
2.7277e-06
2.9908e-06
3.25443e-06
3.51715e-06
3.77749e-06
4.03395e-06
4.2851e-06
4.52952e-06
4.76587e-06
4.99284e-06
5.2092e-06
5.41378e-06
5.60546e-06
5.78319e-06
5.94599e-06
6.09302e-06
6.22349e-06
6.33672e-06
6.43209e-06
6.50905e-06
6.56719e-06
6.60618e-06
6.62578e-06
6.62588e-06
6.6065e-06
6.56773e-06
6.5098e-06
6.43304e-06
6.33787e-06
6.22483e-06
6.09454e-06
5.94768e-06
5.78504e-06
5.60745e-06
5.41591e-06
5.21145e-06
4.99518e-06
4.76829e-06
4.53201e-06
4.28764e-06
4.03651e-06
3.78006e-06
3.51971e-06
3.25695e-06
2.99327e-06
2.73009e-06
2.46877e-06
2.21048e-06
1.95614e-06
1.70637e-06
1.46141e-06
1.22113e-06
9.85015e-07
7.52117e-07
5.21121e-07
2.90334e-07
5.04544e-10
1.89162e-12
2.57487e-12
6.86881e-10
3.93983e-07
7.0493e-07
1.01478e-06
1.32603e-06
1.6406e-06
1.95979e-06
2.28432e-06
2.61431e-06
2.94937e-06
3.28862e-06
3.63077e-06
3.97427e-06
4.31739e-06
4.65829e-06
4.99515e-06
5.32616e-06
5.64958e-06
5.96371e-06
6.26692e-06
6.55776e-06
6.83483e-06
7.0968e-06
7.34233e-06
7.57015e-06
7.77902e-06
7.96778e-06
8.13538e-06
8.28086e-06
8.40339e-06
8.50229e-06
8.57699e-06
8.62706e-06
8.65222e-06
8.65233e-06
8.62739e-06
8.57754e-06
8.50306e-06
8.40437e-06
8.28204e-06
8.13676e-06
7.96935e-06
7.78076e-06
7.57206e-06
7.34439e-06
7.09899e-06
6.83715e-06
6.56018e-06
6.26943e-06
5.96629e-06
5.65221e-06
5.32883e-06
4.99782e-06
4.66095e-06
4.32002e-06
3.97686e-06
3.63328e-06
3.29103e-06
2.95166e-06
2.61645e-06
2.28629e-06
1.96158e-06
1.64217e-06
1.32736e-06
1.01585e-06
7.0571e-07
3.94445e-07
6.87746e-10
2.5782e-12
3.24437e-12
8.65572e-10
4.94876e-07
8.82661e-07
1.26733e-06
1.65227e-06
2.04002e-06
2.43226e-06
2.82988e-06
3.23304e-06
3.64119e-06
4.05324e-06
4.46762e-06
4.88246e-06
5.29573e-06
5.70535e-06
6.10922e-06
6.50532e-06
6.89173e-06
7.2667e-06
7.62854e-06
7.97562e-06
8.3063e-06
8.61897e-06
8.91202e-06
9.18387e-06
9.43302e-06
9.6581e-06
9.85784e-06
1.00311e-05
1.0177e-05
1.02947e-05
1.03836e-05
1.04432e-05
1.04731e-05
1.04732e-05
1.04435e-05
1.03841e-05
1.02955e-05
1.0178e-05
1.00323e-05
9.85916e-06
9.6596e-06
9.4347e-06
9.1857e-06
8.914e-06
8.62109e-06
8.30854e-06
7.97796e-06
7.63097e-06
7.2692e-06
6.89429e-06
6.50791e-06
6.11183e-06
5.70796e-06
5.29831e-06
4.88499e-06
4.47009e-06
4.05562e-06
3.64346e-06
3.23516e-06
2.83184e-06
2.43403e-06
2.04158e-06
1.6536e-06
1.2684e-06
8.83444e-07
4.95341e-07
8.66455e-10
3.24778e-12
3.84837e-12
1.02683e-09
5.85378e-07
1.04116e-06
1.49146e-06
1.94056e-06
2.3916e-06
2.84663e-06
3.30673e-06
3.77208e-06
4.24204e-06
4.71533e-06
5.19019e-06
5.66454e-06
6.13614e-06
6.60273e-06
7.06207e-06
7.51206e-06
7.95073e-06
8.3762e-06
8.78665e-06
9.18025e-06
9.55516e-06
9.90952e-06
1.02415e-05
1.05493e-05
1.08312e-05
1.10857e-05
1.13115e-05
1.15072e-05
1.1672e-05
1.18048e-05
1.19051e-05
1.19723e-05
1.2006e-05
1.20061e-05
1.19726e-05
1.19056e-05
1.18055e-05
1.16729e-05
1.15083e-05
1.13127e-05
1.10871e-05
1.08327e-05
1.0551e-05
1.02433e-05
9.9115e-06
9.55725e-06
9.18243e-06
8.78892e-06
8.37854e-06
7.95312e-06
7.51449e-06
7.06452e-06
6.60518e-06
6.13858e-06
5.66693e-06
5.19252e-06
4.71758e-06
4.24418e-06
3.77409e-06
3.3086e-06
2.84832e-06
2.39309e-06
1.94183e-06
1.49248e-06
1.04191e-06
5.85828e-07
1.02769e-09
3.85171e-12
4.35389e-12
1.16184e-09
6.60768e-07
1.17254e-06
1.67652e-06
2.17778e-06
2.68002e-06
3.18563e-06
3.69584e-06
4.21087e-06
4.73002e-06
5.25191e-06
5.77461e-06
6.29592e-06
6.81347e-06
7.32487e-06
7.82785e-06
8.32024e-06
8.79998e-06
9.2651e-06
9.71365e-06
1.01437e-05
1.05531e-05
1.09399e-05
1.13021e-05
1.16378e-05
1.1945e-05
1.22223e-05
1.24682e-05
1.26813e-05
1.28605e-05
1.30051e-05
1.31141e-05
1.31871e-05
1.32238e-05
1.32239e-05
1.31874e-05
1.31146e-05
1.30057e-05
1.28613e-05
1.26822e-05
1.24693e-05
1.22236e-05
1.19465e-05
1.16393e-05
1.13038e-05
1.09417e-05
1.0555e-05
1.01457e-05
9.71574e-06
9.26726e-06
8.80219e-06
8.32249e-06
7.83013e-06
7.32715e-06
6.81573e-06
6.29815e-06
5.77679e-06
5.25401e-06
4.73203e-06
4.21275e-06
3.69759e-06
3.18721e-06
2.68142e-06
2.17897e-06
1.67748e-06
1.17325e-06
6.61191e-07
1.16266e-09
4.35709e-12
4.74802e-12
1.26714e-09
7.19335e-07
1.27422e-06
1.81931e-06
2.36038e-06
2.90155e-06
3.44549e-06
3.9936e-06
4.5461e-06
5.10228e-06
5.66067e-06
6.21926e-06
6.77574e-06
7.32767e-06
7.87261e-06
8.40823e-06
8.93231e-06
9.44273e-06
9.93744e-06
1.04144e-05
1.08716e-05
1.13067e-05
1.17176e-05
1.21023e-05
1.24585e-05
1.27846e-05
1.30787e-05
1.33394e-05
1.35653e-05
1.37553e-05
1.39085e-05
1.4024e-05
1.41014e-05
1.41402e-05
1.41403e-05
1.41016e-05
1.40244e-05
1.3909e-05
1.37561e-05
1.35662e-05
1.33404e-05
1.30799e-05
1.27859e-05
1.246e-05
1.21038e-05
1.17193e-05
1.13085e-05
1.08734e-05
1.04164e-05
9.93945e-06
9.44478e-06
8.9344e-06
8.41034e-06
7.87473e-06
7.32977e-06
6.77782e-06
6.22129e-06
5.66263e-06
5.10416e-06
4.54786e-06
3.99523e-06
3.44698e-06
2.90286e-06
2.36149e-06
1.82021e-06
1.27488e-06
7.19732e-07
1.26792e-09
4.75106e-12
5.0355e-12
1.34398e-09
7.6195e-07
1.34801e-06
1.92272e-06
2.49239e-06
3.06149e-06
3.63289e-06
4.20809e-06
4.78737e-06
5.36998e-06
5.95439e-06
6.53855e-06
7.12008e-06
7.69649e-06
8.26531e-06
8.82417e-06
9.37081e-06
9.90308e-06
1.04189e-05
1.09161e-05
1.13925e-05
1.18459e-05
1.22739e-05
1.26745e-05
1.30454e-05
1.33848e-05
1.36908e-05
1.3962e-05
1.4197e-05
1.43946e-05
1.45539e-05
1.4674e-05
1.47545e-05
1.47948e-05
1.47949e-05
1.47547e-05
1.46744e-05
1.45544e-05
1.43953e-05
1.41979e-05
1.3963e-05
1.36919e-05
1.3386e-05
1.30468e-05
1.2676e-05
1.22755e-05
1.18476e-05
1.13943e-05
1.09179e-05
1.04208e-05
9.90502e-06
9.37279e-06
8.82617e-06
8.26732e-06
7.69848e-06
7.12204e-06
6.54047e-06
5.95625e-06
5.37175e-06
4.78904e-06
4.20964e-06
3.6343e-06
3.06273e-06
2.49345e-06
1.92358e-06
1.34864e-06
7.62326e-07
1.34472e-09
5.03841e-12
5.23249e-12
1.39666e-09
7.91111e-07
1.39841e-06
1.99327e-06
2.58237e-06
3.17041e-06
3.76044e-06
4.35402e-06
4.95145e-06
5.55197e-06
6.15403e-06
6.75552e-06
7.35403e-06
7.94705e-06
8.53208e-06
9.10672e-06
9.66867e-06
1.02158e-05
1.07459e-05
1.12568e-05
1.17463e-05
1.22121e-05
1.26518e-05
1.30631e-05
1.3444e-05
1.37924e-05
1.41065e-05
1.43849e-05
1.4626e-05
1.48288e-05
1.49922e-05
1.51155e-05
1.5198e-05
1.52394e-05
1.52395e-05
1.51982e-05
1.51158e-05
1.49927e-05
1.48295e-05
1.46268e-05
1.43858e-05
1.41076e-05
1.37936e-05
1.34453e-05
1.30646e-05
1.26533e-05
1.22137e-05
1.1748e-05
1.12586e-05
1.07477e-05
1.02176e-05
9.67058e-06
9.10864e-06
8.53402e-06
7.94898e-06
7.35594e-06
6.75738e-06
6.15583e-06
5.55369e-06
4.95307e-06
4.35552e-06
3.7618e-06
3.17161e-06
2.58339e-06
1.99409e-06
1.39901e-06
7.91474e-07
1.39738e-09
5.23532e-12
5.35982e-12
1.43072e-09
8.09947e-07
1.43093e-06
2.03877e-06
2.64036e-06
3.24061e-06
3.84264e-06
4.44806e-06
5.05719e-06
5.66926e-06
6.2827e-06
6.89539e-06
7.50487e-06
8.10863e-06
8.70414e-06
9.28899e-06
9.86087e-06
1.04176e-05
1.0957e-05
1.14768e-05
1.19748e-05
1.24486e-05
1.28959e-05
1.33142e-05
1.37015e-05
1.40557e-05
1.43751e-05
1.46581e-05
1.49033e-05
1.51094e-05
1.52755e-05
1.54008e-05
1.54847e-05
1.55268e-05
1.55268e-05
1.54849e-05
1.54012e-05
1.5276e-05
1.51101e-05
1.49041e-05
1.4659e-05
1.43762e-05
1.40569e-05
1.37028e-05
1.33156e-05
1.28974e-05
1.24502e-05
1.19765e-05
1.14786e-05
1.09588e-05
1.04194e-05
9.86274e-06
9.29088e-06
8.70604e-06
8.11052e-06
7.50674e-06
6.89721e-06
6.28447e-06
5.67095e-06
5.05878e-06
4.44953e-06
3.84397e-06
3.24179e-06
2.64137e-06
2.03957e-06
1.43153e-06
8.10304e-07
1.43143e-09
5.3626e-12
5.43773e-12
1.45158e-09
8.21473e-07
1.45082e-06
2.06658e-06
2.67582e-06
3.28354e-06
3.89291e-06
4.50559e-06
5.1219e-06
5.74108e-06
6.36152e-06
6.9811e-06
7.59734e-06
8.20772e-06
8.80971e-06
9.40086e-06
9.97888e-06
1.05415e-05
1.10867e-05
1.1612e-05
1.21153e-05
1.25941e-05
1.3046e-05
1.34687e-05
1.386e-05
1.42179e-05
1.45405e-05
1.48264e-05
1.5074e-05
1.52822e-05
1.545e-05
1.55766e-05
1.56613e-05
1.57038e-05
1.57039e-05
1.56615e-05
1.55769e-05
1.54505e-05
1.52829e-05
1.50748e-05
1.48273e-05
1.45416e-05
1.4219e-05
1.38613e-05
1.34701e-05
1.30475e-05
1.25957e-05
1.2117e-05
1.16138e-05
1.10885e-05
1.05434e-05
9.98074e-06
9.40274e-06
8.81159e-06
8.2096e-06
7.5992e-06
6.98291e-06
6.36328e-06
5.74275e-06
5.12348e-06
4.50705e-06
3.89424e-06
3.28471e-06
2.67682e-06
2.06738e-06
1.45141e-06
8.21827e-07
1.45228e-09
5.44049e-12
5.483e-12
1.4637e-09
8.28174e-07
1.46239e-06
2.08275e-06
2.69645e-06
3.30851e-06
3.92217e-06
4.53909e-06
5.15961e-06
5.78295e-06
6.4075e-06
7.03113e-06
7.65135e-06
8.26564e-06
8.87144e-06
9.46631e-06
1.0048e-05
1.06141e-05
1.11627e-05
1.16913e-05
1.21977e-05
1.26795e-05
1.31341e-05
1.35594e-05
1.3953e-05
1.43131e-05
1.46377e-05
1.49253e-05
1.51744e-05
1.53838e-05
1.55526e-05
1.56799e-05
1.57651e-05
1.58079e-05
1.58079e-05
1.57653e-05
1.56803e-05
1.55531e-05
1.53845e-05
1.51752e-05
1.49262e-05
1.46388e-05
1.43143e-05
1.39543e-05
1.35608e-05
1.31356e-05
1.2681e-05
1.21994e-05
1.1693e-05
1.11645e-05
1.0616e-05
1.00498e-05
9.4682e-06
8.87332e-06
8.26752e-06
7.65321e-06
7.03294e-06
6.40926e-06
5.78462e-06
5.16119e-06
4.54056e-06
3.9235e-06
3.30968e-06
2.69744e-06
2.08356e-06
1.46298e-06
8.28528e-07
1.46441e-09
5.48576e-12
5.50806e-12
1.47042e-09
8.31886e-07
1.46879e-06
2.09172e-06
2.70788e-06
3.32236e-06
3.93841e-06
4.55771e-06
5.18057e-06
5.80624e-06
6.4331e-06
7.059e-06
7.68147e-06
8.29795e-06
8.9059e-06
9.50288e-06
1.00866e-05
1.06547e-05
1.12052e-05
1.17357e-05
1.22439e-05
1.27273e-05
1.31835e-05
1.36103e-05
1.40053e-05
1.43665e-05
1.46923e-05
1.49808e-05
1.52307e-05
1.54409e-05
1.56102e-05
1.5738e-05
1.58235e-05
1.58664e-05
1.58664e-05
1.58237e-05
1.57383e-05
1.56107e-05
1.54415e-05
1.52315e-05
1.49817e-05
1.46933e-05
1.43677e-05
1.40066e-05
1.36117e-05
1.3185e-05
1.27289e-05
1.22455e-05
1.17374e-05
1.1207e-05
1.06566e-05
1.00884e-05
9.50477e-06
8.90779e-06
8.29983e-06
7.68333e-06
7.06082e-06
6.43486e-06
5.80792e-06
5.18216e-06
4.55917e-06
3.93975e-06
3.32354e-06
2.70888e-06
2.09252e-06
1.46938e-06
8.32241e-07
1.47112e-09
5.51083e-12
5.52131e-12
1.47397e-09
8.3385e-07
1.47218e-06
2.09646e-06
2.71394e-06
3.32971e-06
3.94703e-06
4.56759e-06
5.19171e-06
5.81863e-06
6.44673e-06
7.07385e-06
7.69752e-06
8.31519e-06
8.9243e-06
9.52242e-06
1.01072e-05
1.06765e-05
1.1228e-05
1.17595e-05
1.22686e-05
1.27529e-05
1.321e-05
1.36376e-05
1.40333e-05
1.43952e-05
1.47216e-05
1.50106e-05
1.5261e-05
1.54716e-05
1.56412e-05
1.57692e-05
1.58548e-05
1.58978e-05
1.58979e-05
1.58551e-05
1.57695e-05
1.56417e-05
1.54722e-05
1.52618e-05
1.50116e-05
1.47226e-05
1.43964e-05
1.40346e-05
1.3639e-05
1.32115e-05
1.27545e-05
1.22703e-05
1.17612e-05
1.12298e-05
1.06783e-05
1.01091e-05
9.52431e-06
8.9262e-06
8.31708e-06
7.69939e-06
7.07568e-06
6.44849e-06
5.82032e-06
5.1933e-06
4.56906e-06
3.94837e-06
3.33089e-06
2.71494e-06
2.09727e-06
1.47277e-06
8.34206e-07
1.47468e-09
5.52409e-12
5.52801e-12
1.47577e-09
8.34845e-07
1.4739e-06
2.09887e-06
2.71701e-06
3.33344e-06
3.95141e-06
4.57261e-06
5.19738e-06
5.82494e-06
6.45368e-06
7.08143e-06
7.70572e-06
8.324e-06
8.93372e-06
9.53242e-06
1.01178e-05
1.06876e-05
1.12397e-05
1.17717e-05
1.22813e-05
1.27661e-05
1.32237e-05
1.36516e-05
1.40477e-05
1.441e-05
1.47367e-05
1.5026e-05
1.52766e-05
1.54874e-05
1.56572e-05
1.57853e-05
1.5871e-05
1.5914e-05
1.59141e-05
1.58712e-05
1.57856e-05
1.56577e-05
1.5488e-05
1.52774e-05
1.50269e-05
1.47377e-05
1.44112e-05
1.4049e-05
1.3653e-05
1.32252e-05
1.27677e-05
1.2283e-05
1.17734e-05
1.12415e-05
1.06895e-05
1.01197e-05
9.53432e-06
8.93562e-06
8.3259e-06
7.7076e-06
7.08326e-06
6.45545e-06
5.82663e-06
5.19898e-06
4.57409e-06
3.95275e-06
3.33462e-06
2.71801e-06
2.09968e-06
1.47449e-06
8.35202e-07
1.47648e-09
5.5308e-12
5.53126e-12
1.47664e-09
8.35328e-07
1.47473e-06
2.10004e-06
2.7185e-06
3.33525e-06
3.95354e-06
4.57507e-06
5.20015e-06
5.82803e-06
6.45708e-06
7.08514e-06
7.70974e-06
8.32833e-06
8.93834e-06
9.53734e-06
1.0123e-05
1.06931e-05
1.12454e-05
1.17777e-05
1.22876e-05
1.27726e-05
1.32304e-05
1.36585e-05
1.40549e-05
1.44173e-05
1.47441e-05
1.50336e-05
1.52844e-05
1.54952e-05
1.56651e-05
1.57932e-05
1.5879e-05
1.59221e-05
1.59221e-05
1.58792e-05
1.57936e-05
1.56656e-05
1.54959e-05
1.52852e-05
1.50345e-05
1.47452e-05
1.44185e-05
1.40562e-05
1.366e-05
1.32319e-05
1.27742e-05
1.22893e-05
1.17794e-05
1.12472e-05
1.06949e-05
1.01249e-05
9.53924e-06
8.94025e-06
8.33023e-06
7.71162e-06
7.08698e-06
6.45885e-06
5.82972e-06
5.20175e-06
4.57655e-06
3.95489e-06
3.33644e-06
2.71951e-06
2.10085e-06
1.47533e-06
8.35685e-07
1.47735e-09
5.53405e-12
5.53278e-12
1.47705e-09
8.35553e-07
1.47512e-06
2.10058e-06
2.7192e-06
3.3361e-06
3.95454e-06
4.57622e-06
5.20145e-06
5.82948e-06
6.45868e-06
7.08689e-06
7.71164e-06
8.33036e-06
8.94052e-06
9.53966e-06
1.01255e-05
1.06957e-05
1.12481e-05
1.17805e-05
1.22906e-05
1.27757e-05
1.32336e-05
1.36618e-05
1.40582e-05
1.44208e-05
1.47477e-05
1.50372e-05
1.5288e-05
1.54989e-05
1.56689e-05
1.5797e-05
1.58828e-05
1.59259e-05
1.5926e-05
1.58831e-05
1.57974e-05
1.56694e-05
1.54996e-05
1.52888e-05
1.50381e-05
1.47487e-05
1.4422e-05
1.40595e-05
1.36632e-05
1.32351e-05
1.27773e-05
1.22922e-05
1.17823e-05
1.12499e-05
1.06975e-05
1.01273e-05
9.54157e-06
8.94243e-06
8.33227e-06
7.71352e-06
7.08873e-06
6.46045e-06
5.83117e-06
5.20305e-06
4.5777e-06
3.95589e-06
3.33729e-06
2.72021e-06
2.10139e-06
1.47572e-06
8.35911e-07
1.47776e-09
5.53557e-12
5.53346e-12
1.47723e-09
8.35655e-07
1.4753e-06
2.10083e-06
2.71952e-06
3.33648e-06
3.95499e-06
4.57673e-06
5.20204e-06
5.83013e-06
6.4594e-06
7.08768e-06
7.7125e-06
8.33129e-06
8.94151e-06
9.54072e-06
1.01266e-05
1.06969e-05
1.12494e-05
1.17818e-05
1.22919e-05
1.27771e-05
1.3235e-05
1.36633e-05
1.40598e-05
1.44224e-05
1.47493e-05
1.50389e-05
1.52897e-05
1.55006e-05
1.56706e-05
1.57988e-05
1.58846e-05
1.59276e-05
1.59277e-05
1.58848e-05
1.57991e-05
1.56711e-05
1.55013e-05
1.52905e-05
1.50398e-05
1.47503e-05
1.44236e-05
1.40611e-05
1.36648e-05
1.32366e-05
1.27787e-05
1.22936e-05
1.17836e-05
1.12512e-05
1.06987e-05
1.01285e-05
9.54263e-06
8.94343e-06
8.3332e-06
7.71438e-06
7.08952e-06
6.46118e-06
5.83183e-06
5.20364e-06
4.57822e-06
3.95634e-06
3.33767e-06
2.72053e-06
2.10164e-06
1.4759e-06
8.36013e-07
1.47794e-09
5.53625e-12
5.53375e-12
1.47731e-09
8.35698e-07
1.47538e-06
2.10093e-06
2.71965e-06
3.33665e-06
3.95519e-06
4.57696e-06
5.20229e-06
5.83042e-06
6.45972e-06
7.08803e-06
7.71287e-06
8.3317e-06
8.94195e-06
9.54118e-06
1.01271e-05
1.06974e-05
1.12499e-05
1.17824e-05
1.22925e-05
1.27777e-05
1.32357e-05
1.3664e-05
1.40605e-05
1.44231e-05
1.475e-05
1.50396e-05
1.52905e-05
1.55014e-05
1.56713e-05
1.57995e-05
1.58854e-05
1.59284e-05
1.59285e-05
1.58856e-05
1.57999e-05
1.56719e-05
1.5502e-05
1.52913e-05
1.50405e-05
1.47511e-05
1.44243e-05
1.40618e-05
1.36654e-05
1.32372e-05
1.27793e-05
1.22942e-05
1.17842e-05
1.12517e-05
1.06992e-05
1.0129e-05
9.54309e-06
8.94386e-06
8.3336e-06
7.71476e-06
7.08987e-06
6.4615e-06
5.83212e-06
5.2039e-06
4.57844e-06
3.95654e-06
3.33784e-06
2.72066e-06
2.10175e-06
1.47597e-06
8.36057e-07
1.47802e-09
5.53655e-12
5.53388e-12
1.47734e-09
8.35717e-07
1.47541e-06
2.10098e-06
2.71971e-06
3.33672e-06
3.95527e-06
4.57705e-06
5.2024e-06
5.83054e-06
6.45985e-06
7.08817e-06
7.71303e-06
8.33187e-06
8.94213e-06
9.54138e-06
1.01273e-05
1.06976e-05
1.12502e-05
1.17827e-05
1.22928e-05
1.2778e-05
1.3236e-05
1.36643e-05
1.40608e-05
1.44234e-05
1.47503e-05
1.50399e-05
1.52908e-05
1.55017e-05
1.56717e-05
1.57999e-05
1.58857e-05
1.59287e-05
1.59288e-05
1.58859e-05
1.58002e-05
1.56722e-05
1.55024e-05
1.52916e-05
1.50408e-05
1.47514e-05
1.44246e-05
1.40621e-05
1.36657e-05
1.32375e-05
1.27796e-05
1.22944e-05
1.17844e-05
1.1252e-05
1.06995e-05
1.01292e-05
9.54329e-06
8.94405e-06
8.33377e-06
7.71491e-06
7.09001e-06
6.46163e-06
5.83224e-06
5.204e-06
4.57854e-06
3.95662e-06
3.33791e-06
2.72072e-06
2.10179e-06
1.476e-06
8.36075e-07
1.47805e-09
5.53667e-12
5.53393e-12
1.47736e-09
8.35724e-07
1.47542e-06
2.101e-06
2.71973e-06
3.33675e-06
3.95531e-06
4.57709e-06
5.20245e-06
5.83059e-06
6.4599e-06
7.08823e-06
7.7131e-06
8.33194e-06
8.94221e-06
9.54146e-06
1.01274e-05
1.06977e-05
1.12503e-05
1.17828e-05
1.22929e-05
1.27781e-05
1.32361e-05
1.36644e-05
1.40609e-05
1.44235e-05
1.47504e-05
1.504e-05
1.52909e-05
1.55018e-05
1.56718e-05
1.58e-05
1.58858e-05
1.59289e-05
1.59289e-05
1.5886e-05
1.58004e-05
1.56723e-05
1.55025e-05
1.52917e-05
1.5041e-05
1.47515e-05
1.44247e-05
1.40622e-05
1.36658e-05
1.32376e-05
1.27797e-05
1.22945e-05
1.17845e-05
1.12521e-05
1.06996e-05
1.01293e-05
9.54337e-06
8.94412e-06
8.33384e-06
7.71498e-06
7.09007e-06
6.46168e-06
5.83229e-06
5.20405e-06
4.57858e-06
3.95665e-06
3.33793e-06
2.72074e-06
2.10181e-06
1.47602e-06
8.36083e-07
1.47807e-09
5.53672e-12
5.53395e-12
1.47736e-09
8.35727e-07
1.47542e-06
2.101e-06
2.71974e-06
3.33676e-06
3.95532e-06
4.57711e-06
5.20246e-06
5.83061e-06
6.45992e-06
7.08826e-06
7.71312e-06
8.33197e-06
8.94224e-06
9.54149e-06
1.01274e-05
1.06977e-05
1.12503e-05
1.17828e-05
1.22929e-05
1.27782e-05
1.32361e-05
1.36645e-05
1.40609e-05
1.44236e-05
1.47505e-05
1.50401e-05
1.5291e-05
1.55019e-05
1.56718e-05
1.58e-05
1.58859e-05
1.59289e-05
1.5929e-05
1.58861e-05
1.58004e-05
1.56724e-05
1.55025e-05
1.52918e-05
1.5041e-05
1.47515e-05
1.44247e-05
1.40622e-05
1.36659e-05
1.32376e-05
1.27798e-05
1.22946e-05
1.17846e-05
1.12521e-05
1.06996e-05
1.01293e-05
9.5434e-06
8.94415e-06
8.33387e-06
7.71501e-06
7.0901e-06
6.46171e-06
5.83231e-06
5.20406e-06
4.57859e-06
3.95666e-06
3.33795e-06
2.72075e-06
2.10182e-06
1.47602e-06
8.36086e-07
1.47807e-09
5.53674e-12
5.53395e-12
1.47736e-09
8.35728e-07
1.47543e-06
2.10101e-06
2.71975e-06
3.33676e-06
3.95532e-06
4.57711e-06
5.20247e-06
5.83061e-06
6.45993e-06
7.08826e-06
7.71313e-06
8.33198e-06
8.94225e-06
9.5415e-06
1.01274e-05
1.06977e-05
1.12503e-05
1.17828e-05
1.22929e-05
1.27782e-05
1.32361e-05
1.36645e-05
1.4061e-05
1.44236e-05
1.47505e-05
1.50401e-05
1.5291e-05
1.55019e-05
1.56719e-05
1.58001e-05
1.58859e-05
1.59289e-05
1.5929e-05
1.58861e-05
1.58004e-05
1.56724e-05
1.55026e-05
1.52918e-05
1.5041e-05
1.47516e-05
1.44248e-05
1.40623e-05
1.36659e-05
1.32377e-05
1.27798e-05
1.22946e-05
1.17846e-05
1.12521e-05
1.06996e-05
1.01293e-05
9.54341e-06
8.94416e-06
8.33388e-06
7.71502e-06
7.0901e-06
6.46171e-06
5.83231e-06
5.20407e-06
4.5786e-06
3.95667e-06
3.33795e-06
2.72076e-06
2.10182e-06
1.47602e-06
8.36087e-07
1.47807e-09
5.53675e-12
5.53396e-12
1.47736e-09
8.35729e-07
1.47543e-06
2.10101e-06
2.71975e-06
3.33676e-06
3.95533e-06
4.57712e-06
5.20247e-06
5.83062e-06
6.45994e-06
7.08827e-06
7.71314e-06
8.33198e-06
8.94225e-06
9.54151e-06
1.01274e-05
1.06978e-05
1.12503e-05
1.17828e-05
1.22929e-05
1.27782e-05
1.32361e-05
1.36645e-05
1.4061e-05
1.44236e-05
1.47505e-05
1.50401e-05
1.5291e-05
1.55019e-05
1.56719e-05
1.58001e-05
1.58859e-05
1.59289e-05
1.5929e-05
1.58861e-05
1.58004e-05
1.56724e-05
1.55026e-05
1.52918e-05
1.50411e-05
1.47516e-05
1.44248e-05
1.40623e-05
1.36659e-05
1.32377e-05
1.27798e-05
1.22946e-05
1.17846e-05
1.12521e-05
1.06996e-05
1.01293e-05
9.54342e-06
8.94417e-06
8.33389e-06
7.71502e-06
7.09011e-06
6.46172e-06
5.83232e-06
5.20407e-06
4.5786e-06
3.95667e-06
3.33795e-06
2.72076e-06
2.10182e-06
1.47602e-06
8.36087e-07
1.47808e-09
5.53675e-12
5.53396e-12
1.47736e-09
8.35729e-07
1.47543e-06
2.10101e-06
2.71975e-06
3.33677e-06
3.95533e-06
4.57712e-06
5.20247e-06
5.83062e-06
6.45994e-06
7.08827e-06
7.71314e-06
8.33198e-06
8.94225e-06
9.54151e-06
1.01274e-05
1.06978e-05
1.12503e-05
1.17828e-05
1.22929e-05
1.27782e-05
1.32361e-05
1.36645e-05
1.4061e-05
1.44236e-05
1.47505e-05
1.50401e-05
1.5291e-05
1.55019e-05
1.56719e-05
1.58001e-05
1.58859e-05
1.5929e-05
1.5929e-05
1.58861e-05
1.58004e-05
1.56724e-05
1.55026e-05
1.52918e-05
1.50411e-05
1.47516e-05
1.44248e-05
1.40623e-05
1.36659e-05
1.32377e-05
1.27798e-05
1.22946e-05
1.17846e-05
1.12521e-05
1.06996e-05
1.01293e-05
9.54342e-06
8.94417e-06
8.33389e-06
7.71502e-06
7.09011e-06
6.46172e-06
5.83232e-06
5.20407e-06
4.5786e-06
3.95667e-06
3.33795e-06
2.72076e-06
2.10182e-06
1.47602e-06
8.36087e-07
1.47808e-09
5.53675e-12
5.53396e-12
1.47736e-09
8.35729e-07
1.47543e-06
2.10101e-06
2.71975e-06
3.33677e-06
3.95533e-06
4.57712e-06
5.20247e-06
5.83062e-06
6.45994e-06
7.08827e-06
7.71314e-06
8.33198e-06
8.94225e-06
9.54151e-06
1.01274e-05
1.06978e-05
1.12503e-05
1.17828e-05
1.22929e-05
1.27782e-05
1.32361e-05
1.36645e-05
1.4061e-05
1.44236e-05
1.47505e-05
1.50401e-05
1.5291e-05
1.55019e-05
1.56719e-05
1.58001e-05
1.58859e-05
1.5929e-05
1.5929e-05
1.58861e-05
1.58004e-05
1.56724e-05
1.55026e-05
1.52918e-05
1.50411e-05
1.47516e-05
1.44248e-05
1.40623e-05
1.36659e-05
1.32377e-05
1.27798e-05
1.22946e-05
1.17846e-05
1.12521e-05
1.06996e-05
1.01293e-05
9.54342e-06
8.94417e-06
8.33389e-06
7.71502e-06
7.09011e-06
6.46172e-06
5.83232e-06
5.20408e-06
4.5786e-06
3.95667e-06
3.33795e-06
2.72076e-06
2.10182e-06
1.47602e-06
8.36087e-07
1.47808e-09
5.53675e-12
5.53396e-12
1.47736e-09
8.35729e-07
1.47543e-06
2.10101e-06
2.71975e-06
3.33677e-06
3.95533e-06
4.57712e-06
5.20247e-06
5.83062e-06
6.45994e-06
7.08827e-06
7.71314e-06
8.33198e-06
8.94225e-06
9.54151e-06
1.01274e-05
1.06978e-05
1.12503e-05
1.17828e-05
1.22929e-05
1.27782e-05
1.32361e-05
1.36645e-05
1.4061e-05
1.44236e-05
1.47505e-05
1.50401e-05
1.5291e-05
1.55019e-05
1.56719e-05
1.58001e-05
1.58859e-05
1.5929e-05
1.5929e-05
1.58861e-05
1.58004e-05
1.56724e-05
1.55026e-05
1.52918e-05
1.50411e-05
1.47516e-05
1.44248e-05
1.40623e-05
1.36659e-05
1.32377e-05
1.27798e-05
1.22946e-05
1.17846e-05
1.12521e-05
1.06996e-05
1.01293e-05
9.54342e-06
8.94417e-06
8.33389e-06
7.71502e-06
7.09011e-06
6.46172e-06
5.83232e-06
5.20408e-06
4.5786e-06
3.95667e-06
3.33795e-06
2.72076e-06
2.10182e-06
1.47602e-06
8.36087e-07
1.47808e-09
5.53675e-12
5.53396e-12
1.47736e-09
8.35729e-07
1.47543e-06
2.10101e-06
2.71975e-06
3.33677e-06
3.95533e-06
4.57712e-06
5.20247e-06
5.83062e-06
6.45994e-06
7.08827e-06
7.71314e-06
8.33198e-06
8.94225e-06
9.54151e-06
1.01274e-05
1.06978e-05
1.12503e-05
1.17828e-05
1.22929e-05
1.27782e-05
1.32361e-05
1.36645e-05
1.4061e-05
1.44236e-05
1.47505e-05
1.50401e-05
1.5291e-05
1.55019e-05
1.56719e-05
1.58001e-05
1.58859e-05
1.5929e-05
1.5929e-05
1.58861e-05
1.58004e-05
1.56724e-05
1.55026e-05
1.52918e-05
1.50411e-05
1.47516e-05
1.44248e-05
1.40623e-05
1.36659e-05
1.32377e-05
1.27798e-05
1.22946e-05
1.17846e-05
1.12521e-05
1.06996e-05
1.01293e-05
9.54342e-06
8.94417e-06
8.33389e-06
7.71502e-06
7.09011e-06
6.46172e-06
5.83232e-06
5.20408e-06
4.5786e-06
3.95667e-06
3.33795e-06
2.72076e-06
2.10182e-06
1.47602e-06
8.36087e-07
1.47808e-09
5.53675e-12
5.53396e-12
1.47736e-09
8.35729e-07
1.47543e-06
2.10101e-06
2.71975e-06
3.33677e-06
3.95533e-06
4.57712e-06
5.20247e-06
5.83062e-06
6.45994e-06
7.08827e-06
7.71314e-06
8.33198e-06
8.94225e-06
9.54151e-06
1.01274e-05
1.06978e-05
1.12503e-05
1.17828e-05
1.22929e-05
1.27782e-05
1.32361e-05
1.36645e-05
1.4061e-05
1.44236e-05
1.47505e-05
1.50401e-05
1.5291e-05
1.55019e-05
1.56719e-05
1.58001e-05
1.58859e-05
1.5929e-05
1.5929e-05
1.58861e-05
1.58004e-05
1.56724e-05
1.55026e-05
1.52918e-05
1.50411e-05
1.47516e-05
1.44248e-05
1.40623e-05
1.36659e-05
1.32377e-05
1.27798e-05
1.22946e-05
1.17846e-05
1.12521e-05
1.06996e-05
1.01293e-05
9.54342e-06
8.94417e-06
8.33389e-06
7.71502e-06
7.09011e-06
6.46172e-06
5.83232e-06
5.20408e-06
4.5786e-06
3.95667e-06
3.33795e-06
2.72076e-06
2.10182e-06
1.47602e-06
8.36087e-07
1.47808e-09
5.53675e-12
5.53396e-12
1.47736e-09
8.35729e-07
1.47543e-06
2.10101e-06
2.71975e-06
3.33677e-06
3.95533e-06
4.57712e-06
5.20247e-06
5.83062e-06
6.45994e-06
7.08827e-06
7.71314e-06
8.33198e-06
8.94225e-06
9.54151e-06
1.01274e-05
1.06978e-05
1.12503e-05
1.17828e-05
1.22929e-05
1.27782e-05
1.32361e-05
1.36645e-05
1.4061e-05
1.44236e-05
1.47505e-05
1.50401e-05
1.5291e-05
1.55019e-05
1.56719e-05
1.58001e-05
1.58859e-05
1.5929e-05
1.5929e-05
1.58861e-05
1.58004e-05
1.56724e-05
1.55026e-05
1.52918e-05
1.50411e-05
1.47516e-05
1.44248e-05
1.40623e-05
1.36659e-05
1.32377e-05
1.27798e-05
1.22946e-05
1.17846e-05
1.12521e-05
1.06996e-05
1.01293e-05
9.54342e-06
8.94417e-06
8.33389e-06
7.71502e-06
7.09011e-06
6.46172e-06
5.83232e-06
5.20408e-06
4.5786e-06
3.95667e-06
3.33795e-06
2.72076e-06
2.10182e-06
1.47602e-06
8.36087e-07
1.47808e-09
5.53675e-12
5.53396e-12
1.47736e-09
8.35729e-07
1.47543e-06
2.10101e-06
2.71975e-06
3.33677e-06
3.95533e-06
4.57712e-06
5.20247e-06
5.83062e-06
6.45994e-06
7.08827e-06
7.71314e-06
8.33198e-06
8.94225e-06
9.54151e-06
1.01274e-05
1.06978e-05
1.12503e-05
1.17828e-05
1.22929e-05
1.27782e-05
1.32361e-05
1.36645e-05
1.4061e-05
1.44236e-05
1.47505e-05
1.50401e-05
1.5291e-05
1.55019e-05
1.56719e-05
1.58001e-05
1.58859e-05
1.5929e-05
1.5929e-05
1.58861e-05
1.58004e-05
1.56724e-05
1.55026e-05
1.52918e-05
1.50411e-05
1.47516e-05
1.44248e-05
1.40623e-05
1.36659e-05
1.32377e-05
1.27798e-05
1.22946e-05
1.17846e-05
1.12521e-05
1.06996e-05
1.01293e-05
9.54342e-06
8.94417e-06
8.33389e-06
7.71502e-06
7.09011e-06
6.46172e-06
5.83232e-06
5.20408e-06
4.5786e-06
3.95667e-06
3.33795e-06
2.72076e-06
2.10182e-06
1.47602e-06
8.36087e-07
1.47808e-09
5.53675e-12
5.53396e-12
1.47736e-09
8.35729e-07
1.47543e-06
2.10101e-06
2.71975e-06
3.33677e-06
3.95533e-06
4.57712e-06
5.20247e-06
5.83062e-06
6.45994e-06
7.08827e-06
7.71314e-06
8.33198e-06
8.94225e-06
9.54151e-06
1.01274e-05
1.06978e-05
1.12503e-05
1.17828e-05
1.22929e-05
1.27782e-05
1.32361e-05
1.36645e-05
1.4061e-05
1.44236e-05
1.47505e-05
1.50401e-05
1.5291e-05
1.55019e-05
1.56719e-05
1.58001e-05
1.58859e-05
1.5929e-05
1.5929e-05
1.58861e-05
1.58004e-05
1.56724e-05
1.55026e-05
1.52918e-05
1.50411e-05
1.47516e-05
1.44248e-05
1.40623e-05
1.36659e-05
1.32377e-05
1.27798e-05
1.22946e-05
1.17846e-05
1.12521e-05
1.06996e-05
1.01293e-05
9.54342e-06
8.94417e-06
8.33389e-06
7.71502e-06
7.09011e-06
6.46172e-06
5.83232e-06
5.20408e-06
4.5786e-06
3.95667e-06
3.33795e-06
2.72076e-06
2.10182e-06
1.47602e-06
8.36087e-07
1.47808e-09
5.53675e-12
5.53396e-12
1.47736e-09
8.35729e-07
1.47543e-06
2.10101e-06
2.71975e-06
3.33677e-06
3.95533e-06
4.57712e-06
5.20247e-06
5.83062e-06
6.45994e-06
7.08827e-06
7.71314e-06