/*--------------------------------*- C++ -*----------------------------------*\
  =========                 |
  \\      /  F ield         | OpenFOAM: The Open Source CFD Toolbox
   \\    /   O peration     | Website:  https://openfoam.org
    \\  /    A nd           | Version:  13
     \\/     M anipulation  |
\*---------------------------------------------------------------------------*/
FoamFile
{
    format      ascii;
    class       volScalarField;
    location    "10";
    object      difft;
}
// * * * * * * * * * * * * * * * * * * * * * * * * * * * * * * * * * * * * * //

dimensions      [0 2 -1 0 0 0 0];

internalField   nonuniform List<scalar> 
78750
(
1.75822e-09
3.43369e-07
3.99533e-06
5.62173e-06
6.28926e-06
6.90748e-06
7.57675e-06
7.94598e-06
7.78563e-06
8.36646e-06
9.13221e-06
9.18226e-06
9.22928e-06
1.07928e-05
1.32676e-05
1.37832e-05
1.39325e-05
1.46385e-05
1.5309e-05
1.50017e-05
1.42775e-05
1.40128e-05
1.44972e-05
1.51951e-05
1.59928e-05
1.65125e-05
1.64395e-05
1.56027e-05
1.46309e-05
1.33942e-05
1.16261e-05
1.08309e-05
9.6366e-06
2.40751e-06
1.77969e-08
1.19874e-09
3.11321e-07
3.64101e-06
8.42338e-06
1.16328e-05
1.29015e-05
1.27531e-05
1.57262e-05
1.94959e-05
2.14506e-05
2.12334e-05
2.26353e-05
2.5349e-05
2.61727e-05
2.47434e-05
4.41433e-05
6.31598e-05
5.02315e-05
3.71191e-05
3.43294e-05
3.31568e-05
3.44812e-05
3.59865e-05
3.67435e-05
3.83863e-05
4.44711e-05
5.26619e-05
3.41928e-05
2.18171e-05
1.55807e-05
1.19344e-05
9.45091e-06
8.01939e-06
1.79155e-06
1.09509e-08
3.37346e-09
8.62261e-07
8.68126e-06
1.98599e-05
2.02893e-05
1.76393e-05
1.63685e-05
1.57476e-05
1.59754e-05
1.57166e-05
1.55826e-05
1.4964e-05
1.65175e-05
2.73079e-05
7.95585e-05
7.93947e-05
6.11215e-05
4.95237e-05
4.62535e-05
4.50968e-05
4.53126e-05
4.6585e-05
4.89959e-05
5.0407e-05
4.52011e-05
3.26269e-05
2.24999e-05
1.73787e-05
1.34145e-05
9.94826e-06
7.80626e-06
6.78771e-06
7.13272e-06
1.2724e-06
6.79928e-09
3.93623e-09
9.93102e-07
1.1895e-05
2.2392e-05
1.97811e-05
1.61545e-05
1.38965e-05
1.2985e-05
1.27827e-05
1.27266e-05
1.25389e-05
1.28762e-05
1.5093e-05
2.30615e-05
4.0204e-05
6.5624e-05
6.65801e-05
6.63464e-05
6.62462e-05
6.63819e-05
6.48875e-05
5.97206e-05
5.11164e-05
3.98557e-05
2.95074e-05
2.22073e-05
1.72676e-05
1.32663e-05
9.90643e-06
8.11437e-06
6.91078e-06
6.17226e-06
6.26123e-06
1.12232e-06
5.74087e-09
4.45463e-09
1.10798e-06
1.27874e-05
2.02273e-05
1.60337e-05
1.37948e-05
1.3039e-05
1.27962e-05
1.26563e-05
1.26873e-05
1.30707e-05
1.42417e-05
1.72976e-05
2.46336e-05
3.94086e-05
5.7635e-05
6.64865e-05
7.35276e-05
7.36712e-05
7.22948e-05
7.1244e-05
6.67085e-05
5.51441e-05
3.82973e-05
2.61896e-05
1.83849e-05
1.35935e-05
1.01183e-05
8.22242e-06
6.85715e-06
5.41488e-06
4.69237e-06
5.33253e-06
1.01308e-06
4.77989e-09
4.51228e-09
1.12419e-06
1.3054e-05
2.10997e-05
1.70656e-05
1.441e-05
1.31721e-05
1.27041e-05
1.26325e-05
1.27652e-05
1.31627e-05
1.43207e-05
1.74287e-05
2.51826e-05
4.24463e-05
6.64624e-05
7.81608e-05
7.71292e-05
7.63744e-05
7.60961e-05
7.64136e-05
7.23236e-05
5.27407e-05
3.37568e-05
2.7101e-05
1.79915e-05
1.13127e-05
8.92924e-06
6.88878e-06
5.37013e-06
4.64128e-06
4.70374e-06
6.36207e-06
9.5104e-07
4.23618e-09
4.7999e-09
1.19404e-06
1.40099e-05
1.99667e-05
1.60816e-05
1.3953e-05
1.31364e-05
1.29371e-05
1.30356e-05
1.33575e-05
1.40191e-05
1.55029e-05
1.90944e-05
2.79921e-05
4.36994e-05
6.55205e-05
7.85188e-05
7.74914e-05
7.69206e-05
7.69576e-05
7.76015e-05
6.92628e-05
4.6537e-05
2.89621e-05
2.38254e-05
1.57554e-05
1.01889e-05
7.85706e-06
6.40082e-06
5.51799e-06
5.07799e-06
5.09095e-06
6.46083e-06
9.60429e-07
4.50917e-09
4.83377e-09
1.20236e-06
1.36767e-05
2.05212e-05
1.66263e-05
1.43964e-05
1.34987e-05
1.32623e-05
1.33489e-05
1.36552e-05
1.42762e-05
1.56234e-05
1.88519e-05
2.65634e-05
4.18518e-05
6.37494e-05
7.81239e-05
7.75118e-05
7.72018e-05
7.74393e-05
7.82707e-05
6.53725e-05
4.31667e-05
2.4744e-05
1.9285e-05
1.43775e-05
1.01323e-05
7.96299e-06
6.5312e-06
5.69845e-06
5.01022e-06
4.7021e-06
5.9733e-06
1.00664e-06
4.76432e-09
4.96806e-09
1.23438e-06
1.41127e-05
2.01284e-05
1.63531e-05
1.42961e-05
1.35372e-05
1.34373e-05
1.36791e-05
1.41632e-05
1.49886e-05
1.65278e-05
1.98333e-05
2.72197e-05
4.28692e-05
6.49182e-05
7.88344e-05
7.81288e-05
7.78447e-05
7.80424e-05
7.85622e-05
6.69804e-05
4.73628e-05
2.75279e-05
1.62485e-05
1.40019e-05
1.05092e-05
7.46721e-06
6.29397e-06
5.36446e-06
4.74816e-06
4.71815e-06
6.50581e-06
1.0674e-06
4.83613e-09
5.0749e-09
1.25899e-06
1.40237e-05
2.0446e-05
1.67534e-05
1.46721e-05
1.38392e-05
1.36741e-05
1.38696e-05
1.43135e-05
1.51156e-05
1.66533e-05
1.98798e-05
2.69148e-05
4.14488e-05
6.34988e-05
7.90092e-05
7.87697e-05
7.87126e-05
7.89526e-05
7.94328e-05
6.76614e-05
5.25313e-05
2.88294e-05
1.65917e-05
1.3763e-05
1.03784e-05
7.22343e-06
5.91555e-06
5.14403e-06
4.7852e-06
5.1164e-06
7.6976e-06
1.20576e-06
5.35867e-09
5.11364e-09
1.26806e-06
1.39013e-05
2.04545e-05
1.67443e-05
1.4677e-05
1.38464e-05
1.36862e-05
1.39135e-05
1.4436e-05
1.53562e-05
1.70831e-05
2.05508e-05
2.78205e-05
4.26452e-05
6.34912e-05
7.95315e-05
7.92078e-05
7.90796e-05
6.72796e-05
6.75046e-05
6.80805e-05
5.03228e-05
2.80343e-05
1.66052e-05
1.34927e-05
1.00402e-05
7.16549e-06
6.05543e-06
5.41026e-06
5.08106e-06
5.46668e-06
8.39523e-06
1.26052e-06
5.7312e-09
5.22795e-09
1.29583e-06
1.40759e-05
2.03954e-05
1.66628e-05
1.47393e-05
1.39759e-05
1.38004e-05
1.39739e-05
1.45124e-05
1.54657e-05
1.72447e-05
2.06912e-05
2.75761e-05
4.03914e-05
5.88609e-05
7.55476e-05
7.9329e-05
7.94361e-05
7.96833e-05
6.81382e-05
6.30077e-05
4.15464e-05
2.44713e-05
1.59371e-05
1.3592e-05
1.05227e-05
7.59479e-06
6.27504e-06
5.78955e-06
5.59521e-06
5.9743e-06
9.14666e-06
1.50803e-06
7.35136e-09
5.27941e-09
1.30732e-06
1.41773e-05
2.02721e-05
1.65416e-05
1.46087e-05
1.3855e-05
1.38001e-05
1.40893e-05
1.46079e-05
1.57547e-05
1.75881e-05
2.09882e-05
2.77444e-05
4.02361e-05
5.70993e-05
7.16335e-05
7.88693e-05
7.95055e-05
6.78267e-05
6.83857e-05
5.70699e-05
3.86943e-05
2.401e-05
1.64356e-05
1.52412e-05
1.22486e-05
8.80031e-06
7.10306e-06
5.94853e-06
5.56176e-06
5.75168e-06
8.19552e-06
1.54196e-06
7.56729e-09
5.33997e-09
1.32123e-06
1.42086e-05
2.04235e-05
1.67412e-05
1.47066e-05
1.38688e-05
1.38445e-05
1.41376e-05
1.45829e-05
1.55857e-05
1.74106e-05
2.08233e-05
2.74714e-05
3.94431e-05
5.60189e-05
6.70043e-05
6.70854e-05
6.73795e-05
6.78371e-05
6.86985e-05
5.82436e-05
3.94175e-05
2.39542e-05
1.61992e-05
1.53104e-05
1.2827e-05
9.63028e-06
8.00178e-06
6.55096e-06
5.48058e-06
5.66113e-06
9.52133e-06
1.80708e-06
8.5813e-09
5.40112e-09
1.33548e-06
1.43182e-05
2.03111e-05
1.67216e-05
1.44793e-05
1.36491e-05
1.38179e-05
1.40997e-05
1.44841e-05
1.56758e-05
1.771e-05
2.12407e-05
2.78428e-05
3.96478e-05
5.58466e-05
6.98734e-05
7.6937e-05
6.7698e-05
6.81668e-05
6.90848e-05
6.03267e-05
4.12677e-05
2.50185e-05
1.65928e-05
1.54848e-05
1.30354e-05
9.89736e-06
8.24818e-06
6.80115e-06
5.88099e-06
6.18516e-06
1.01569e-05
1.9486e-06
9.36536e-09
5.5266e-09
1.36389e-06
1.42825e-05
2.02868e-05
1.63754e-05
1.47014e-05
1.4012e-05
1.35093e-05
1.33327e-05
1.39104e-05
1.55526e-05
1.80377e-05
2.19106e-05
2.85529e-05
4.10955e-05
5.73879e-05
7.09416e-05
7.80102e-05
6.78605e-05
6.83669e-05
6.93653e-05
6.41209e-05
4.32589e-05
2.49463e-05
1.61167e-05
1.48449e-05
1.23513e-05
9.51448e-06
8.20351e-06
7.15109e-06
6.59333e-06
7.19901e-06
1.22843e-05
2.08108e-06
1.09236e-08
5.54466e-09
1.36734e-06
1.45698e-05
2.03202e-05
1.65327e-05
1.43208e-05
1.3543e-05
1.33203e-05
1.37252e-05
1.44422e-05
1.53307e-05
1.73417e-05
2.08185e-05
2.75462e-05
3.95263e-05
5.62949e-05
7.01408e-05
7.7482e-05
6.79325e-05
6.84679e-05
6.95113e-05
6.42947e-05
4.22684e-05
2.36537e-05
1.51813e-05
1.3725e-05
1.17584e-05
9.61267e-06
8.64487e-06
7.68566e-06
7.08301e-06
7.93384e-06
1.49561e-05
2.28788e-06
1.24402e-08
5.61423e-09
1.38298e-06
1.45741e-05
2.0873e-05
1.73092e-05
1.42841e-05
1.29308e-05
1.29019e-05
1.3245e-05
1.39329e-05
1.53124e-05
1.72194e-05
2.13228e-05
2.90659e-05
4.10753e-05
5.66957e-05
6.98122e-05
7.70116e-05
6.7846e-05
6.83937e-05
6.94395e-05
6.58797e-05
4.29218e-05
2.32729e-05
1.47721e-05
1.32863e-05
1.12405e-05
9.0663e-06
8.13824e-06
7.49904e-06
7.36158e-06
9.29894e-06
1.92968e-05
2.54526e-06
1.44888e-08
5.63035e-09
1.38612e-06
1.45501e-05
2.04334e-05
1.66314e-05
1.43458e-05
1.32497e-05
1.28717e-05
1.35454e-05
1.46209e-05
1.53407e-05
1.70766e-05
2.05859e-05
2.75315e-05
4.00228e-05
5.62743e-05
7.02114e-05
7.78904e-05
6.7797e-05
6.83289e-05
6.93856e-05
6.9134e-05
4.1829e-05
2.13153e-05
1.33793e-05
1.15334e-05
1.021e-05
9.09207e-06
8.73257e-06
8.26146e-06
8.55074e-06
1.12287e-05
2.07799e-05
2.87131e-06
1.62674e-08
5.69396e-09
1.40027e-06
1.45717e-05
2.01063e-05
1.62896e-05
1.46089e-05
1.37894e-05
1.32024e-05
1.27777e-05
1.32445e-05
1.48989e-05
1.75036e-05
2.1696e-05
2.90167e-05
4.05939e-05
5.74377e-05
7.08447e-05
7.77898e-05
7.98766e-05
6.83656e-05
6.92624e-05
6.66376e-05
3.9172e-05
1.95418e-05
1.30771e-05
1.11013e-05
9.81208e-06
8.93177e-06
8.37411e-06
8.61179e-06
9.38434e-06
1.17492e-05
2.21249e-05
3.11804e-06
1.78351e-08
5.72634e-09
1.40969e-06
1.47975e-05
2.04358e-05
1.67275e-05
1.42007e-05
1.29392e-05
1.28196e-05
1.32746e-05
1.39476e-05
1.51181e-05
1.72462e-05
2.15789e-05
3.06678e-05
4.26934e-05
5.58001e-05
6.81066e-05
7.55739e-05
7.88339e-05
6.82403e-05
6.90619e-05
6.56372e-05
3.61723e-05
1.79581e-05
1.20945e-05
1.00859e-05
9.20673e-06
9.09662e-06
9.39237e-06
9.22734e-06
9.66441e-06
1.29098e-05
2.29527e-05
3.32307e-06
1.9016e-08
5.7841e-09
1.42734e-06
1.48604e-05
1.99709e-05
1.62288e-05
1.38964e-05
1.29664e-05
1.28919e-05
1.32177e-05
1.39433e-05
1.52341e-05
1.70521e-05
2.07476e-05
2.86521e-05
3.95686e-05
5.47169e-05
6.75894e-05
7.43152e-05
6.75723e-05
6.79373e-05
6.8778e-05
5.86267e-05
3.18941e-05
1.66159e-05
1.13293e-05
9.69804e-06
9.372e-06
9.2676e-06
9.15115e-06
9.37377e-06
9.96735e-06
1.27728e-05
2.31111e-05
3.54502e-06
2.04871e-08
5.72635e-09
1.40999e-06
1.47557e-05
1.97304e-05
1.61454e-05
1.44946e-05
1.33539e-05
1.28832e-05
1.29689e-05
1.31759e-05
1.44269e-05
1.7283e-05
2.16392e-05
2.81861e-05
3.92695e-05
5.37889e-05
6.60817e-05
7.27674e-05
7.49439e-05
6.80979e-05
6.87875e-05
5.53617e-05
3.02988e-05
1.61304e-05
1.1416e-05
9.66117e-06
8.95888e-06
8.88923e-06
9.05798e-06
9.25278e-06
9.93869e-06
1.26474e-05
2.34801e-05
3.69548e-06
2.13782e-08
5.74782e-09
1.41473e-06
1.48649e-05
2.05899e-05
1.6528e-05
1.38021e-05
1.29227e-05
1.25125e-05
1.27527e-05
1.37473e-05
1.51924e-05
1.77327e-05
2.14588e-05
2.80824e-05
4.00197e-05
5.32967e-05
6.61741e-05
7.3359e-05
7.52867e-05
6.80523e-05
6.87513e-05
5.57972e-05
2.99229e-05
1.58614e-05
1.12468e-05
9.60467e-06
8.88364e-06
8.61668e-06
8.96782e-06
9.3364e-06
9.92999e-06
1.36053e-05
2.48009e-05
3.81782e-06
2.18687e-08
5.81649e-09
1.43185e-06
1.50116e-05
1.93021e-05
1.59795e-05
1.40134e-05
1.29248e-05
1.26559e-05
1.29598e-05
1.37723e-05
1.5267e-05
1.74174e-05
2.13886e-05
2.85696e-05
3.87948e-05
5.30536e-05
6.56276e-05
7.26806e-05
6.7418e-05
6.77914e-05
6.85634e-05
5.47563e-05
2.91289e-05
1.54293e-05
1.0723e-05
9.19103e-06
8.79601e-06
8.98893e-06
9.10768e-06
9.32545e-06
1.00516e-05
1.31442e-05
2.46593e-05
3.84824e-06
2.21627e-08
5.71146e-09
1.40613e-06
1.46769e-05
1.97595e-05
1.63437e-05
1.41936e-05
1.2964e-05
1.24336e-05
1.26476e-05
1.35704e-05
1.47948e-05
1.70292e-05
2.14076e-05
2.98992e-05
4.14169e-05
5.44167e-05
6.51135e-05
7.19006e-05
7.45287e-05
6.79161e-05
6.85562e-05
5.36482e-05
2.87363e-05
1.54296e-05
1.09016e-05
9.30872e-06
8.75933e-06
8.75242e-06
9.05286e-06
9.25298e-06
1.00188e-05
1.32934e-05
2.45371e-05
3.92359e-06
2.28418e-08
5.71447e-09
1.4089e-06
1.42763e-05
1.97731e-05
1.55885e-05
1.3635e-05
1.29271e-05
1.282e-05
1.29826e-05
1.35012e-05
1.47713e-05
1.70129e-05
2.11923e-05
2.8594e-05
3.96485e-05
5.36916e-05
6.59148e-05
7.22535e-05
7.44222e-05
6.78456e-05
6.84828e-05
5.34998e-05
2.84785e-05
1.52119e-05
1.08061e-05
9.31535e-06
8.67784e-06
8.51166e-06
8.72709e-06
9.45979e-06
1.05192e-05
1.37385e-05
2.48923e-05
4.02429e-06
2.33244e-08
5.76778e-09
1.41993e-06
1.51645e-05
1.99747e-05
1.61491e-05
1.38258e-05
1.28232e-05
1.29401e-05
1.3024e-05
1.33278e-05
1.47839e-05
1.69523e-05
2.07949e-05
2.81463e-05
3.94825e-05
5.40743e-05
6.57339e-05
7.2243e-05
7.44182e-05
6.79218e-05
6.85388e-05
5.23297e-05
2.75508e-05
1.48643e-05
1.05716e-05
9.21979e-06
8.82317e-06
8.81461e-06
9.00659e-06
9.39856e-06
1.02933e-05
1.3497e-05
2.53574e-05
4.06563e-06
2.3492e-08
5.69933e-09
1.40308e-06
1.46325e-05
1.98959e-05
1.67116e-05
1.41235e-05
1.2768e-05
1.21751e-05
1.2537e-05
1.3612e-05
1.47612e-05
1.73753e-05
2.19419e-05
2.90109e-05
3.99093e-05
5.31313e-05
6.48348e-05
6.69967e-05
6.72467e-05
6.76959e-05
6.8581e-05
5.31771e-05
2.80775e-05
1.50101e-05
1.06776e-05
9.14064e-06
8.7294e-06
8.77555e-06
8.92833e-06
9.34666e-06
1.01403e-05
1.33928e-05
2.58597e-05
4.06421e-06
2.37016e-08
5.703e-09
1.40509e-06
1.46937e-05
1.9701e-05
1.57219e-05
1.34161e-05
1.30358e-05
1.26724e-05
1.24729e-05
1.33856e-05
1.50441e-05
1.75216e-05
2.14979e-05
2.86894e-05
4.08576e-05
5.40927e-05
6.45611e-05
7.15623e-05
7.39214e-05
6.7899e-05
6.8545e-05
5.25101e-05
2.77257e-05
1.48632e-05
1.05001e-05
9.00897e-06
8.54951e-06
8.70853e-06
9.17518e-06
9.33646e-06
1.04815e-05
1.41881e-05
2.61989e-05
4.253e-06
2.48601e-08
5.7744e-09
1.41663e-06
1.49357e-05
1.95895e-05
1.58078e-05
1.37232e-05
1.27661e-05
1.28975e-05
1.30321e-05
1.33728e-05
1.49814e-05
1.74588e-05
2.1422e-05
2.7815e-05
3.82464e-05
5.34009e-05
6.52429e-05
7.10172e-05
7.33298e-05
6.79124e-05
6.85676e-05
5.18492e-05
2.73671e-05
1.48156e-05
1.06569e-05
9.19827e-06
8.69007e-06
8.74827e-06
9.13013e-06
9.51272e-06
1.04652e-05
1.40261e-05
2.60749e-05
4.31526e-06
2.52234e-08
5.7155e-09
1.40723e-06
1.45674e-05
1.99308e-05
1.58321e-05
1.34045e-05
1.288e-05
1.26011e-05
1.25521e-05
1.3554e-05
1.47614e-05
1.70531e-05
2.14548e-05
2.92902e-05
4.0822e-05
5.43293e-05
6.63848e-05
7.37588e-05
7.56614e-05
6.79298e-05
6.85924e-05
5.23451e-05
2.73866e-05
1.48325e-05
1.06339e-05
9.19993e-06
8.76268e-06
8.63766e-06
8.81523e-06
9.58097e-06
1.09003e-05
1.47207e-05
2.71477e-05
4.37947e-06
2.54736e-08
5.69853e-09
1.40359e-06
1.48865e-05
1.96335e-05
1.60542e-05
1.37386e-05
1.26394e-05
1.24876e-05
1.30907e-05
1.39476e-05
1.46235e-05
1.65489e-05
2.12295e-05
2.92044e-05
4.04335e-05
5.46966e-05
6.61929e-05
7.17913e-05
7.43705e-05
6.79554e-05
6.86221e-05
5.19486e-05
2.64842e-05
1.42605e-05
1.02802e-05
9.12384e-06
8.81937e-06
9.127e-06
9.2341e-06
9.61789e-06
1.10198e-05
1.46152e-05
2.68641e-05
4.38415e-06
2.54881e-08
5.76391e-09
1.41535e-06
1.50574e-05
1.94215e-05
1.56563e-05
1.37787e-05
1.29258e-05
1.25764e-05
1.29033e-05
1.32965e-05
1.46527e-05
1.74307e-05
2.17321e-05
3.02135e-05
4.07088e-05
5.27879e-05
6.45469e-05
7.1477e-05
7.33675e-05
6.7945e-05
6.80448e-05
5.0827e-05
2.67671e-05
1.44977e-05
1.04129e-05
9.13362e-06
8.81595e-06
8.89107e-06
9.21659e-06
9.76181e-06
1.09396e-05
1.42505e-05
2.66152e-05
4.41144e-06
2.61014e-08
5.71536e-09
1.40673e-06
1.44296e-05
2.00099e-05
1.55261e-05
1.35273e-05
1.30023e-05
1.27236e-05
1.24189e-05
1.29831e-05
1.48548e-05
1.73628e-05
2.1625e-05
2.86378e-05
4.01018e-05
5.48728e-05
6.62312e-05
7.21842e-05
7.43168e-05
6.79126e-05
6.85856e-05
5.14712e-05
2.67132e-05
1.44935e-05
1.04065e-05
9.11213e-06
8.76759e-06
8.60023e-06
8.74681e-06
9.66428e-06
1.13914e-05
1.52477e-05
2.73283e-05
4.47267e-06
2.61863e-08
5.7012e-09
1.40505e-06
1.4741e-05
1.97874e-05
1.62119e-05
1.37737e-05
1.25145e-05
1.20242e-05
1.27802e-05
1.38317e-05
1.50631e-05
1.70622e-05
2.09935e-05
2.8124e-05
3.91932e-05
5.45091e-05
6.64646e-05
7.26768e-05
7.46636e-05
6.79267e-05
6.85951e-05
5.18408e-05
2.6424e-05
1.4153e-05
1.0189e-05
8.95293e-06
8.69638e-06
9.08911e-06
9.41218e-06
9.82321e-06
1.11022e-05
1.48041e-05
2.74488e-05
4.47325e-06
2.63264e-08
5.75096e-09
1.41301e-06
1.51483e-05
1.95295e-05
1.60046e-05
1.36825e-05
1.24546e-05
1.25052e-05
1.28231e-05
1.35577e-05
1.47966e-05
1.72274e-05
2.19576e-05
3.01673e-05
4.12144e-05
5.49636e-05
6.56472e-05
7.15435e-05
7.35731e-05
6.79162e-05
6.81612e-05
5.01298e-05
2.59582e-05
1.4202e-05
1.02558e-05
9.04374e-06
8.74744e-06
8.71827e-06
9.11951e-06
9.77964e-06
1.09575e-05
1.48987e-05
2.77135e-05
4.5384e-06
2.65817e-08
5.77551e-09
1.41997e-06
1.42945e-05
1.99111e-05
1.52314e-05
1.3157e-05
1.28237e-05
1.26702e-05
1.27284e-05
1.31245e-05
1.47119e-05
1.75318e-05
2.18493e-05
2.92409e-05
4.09851e-05
5.35876e-05
6.46577e-05
7.1637e-05
7.41508e-05
6.79174e-05
6.86012e-05
5.1339e-05
2.63428e-05
1.42892e-05
1.02559e-05
9.0071e-06
8.67455e-06
8.72518e-06
8.99184e-06
9.83246e-06
1.14745e-05
1.54229e-05
2.77663e-05
4.58245e-06
2.67023e-08
5.71113e-09
1.40754e-06
1.48438e-05
1.93852e-05
1.62912e-05
1.40521e-05
1.23911e-05
1.20133e-05
1.25781e-05
1.37879e-05
1.52084e-05
1.7294e-05
2.19648e-05
2.93795e-05
3.97416e-05
5.30158e-05
6.53098e-05
7.18777e-05
7.41718e-05
6.79493e-05
6.86057e-05
5.02437e-05
2.53309e-05
1.38307e-05
1.00922e-05
8.99291e-06
8.7916e-06
9.07508e-06
9.34464e-06
9.74852e-06
1.1108e-05
1.49671e-05
2.7737e-05
4.53299e-06
2.67026e-08
5.74512e-09
1.41213e-06
1.4951e-05
1.94867e-05
1.55343e-05
1.35366e-05
1.30648e-05
1.26318e-05
1.27566e-05
1.32439e-05
1.4535e-05
1.75066e-05
2.19352e-05
2.9544e-05
4.10291e-05
5.47796e-05
6.53881e-05
7.13311e-05
7.34903e-05
6.79774e-05
6.83576e-05
4.99272e-05
2.54926e-05
1.40757e-05
1.0228e-05
9.07309e-06
8.8663e-06
8.9578e-06
9.25067e-06
9.85518e-06
1.1194e-05
1.50698e-05
2.82298e-05
4.53772e-06
2.68388e-08
5.75131e-09
1.41064e-06
1.45242e-05
2.00819e-05
1.52094e-05
1.32385e-05
1.28813e-05
1.25724e-05
1.24957e-05
1.33159e-05
1.47388e-05
1.73261e-05
2.22979e-05
2.984e-05
4.12612e-05
5.47717e-05
6.55148e-05
6.73446e-05
7.38002e-05
6.79026e-05
6.82909e-05
4.95142e-05
2.51945e-05
1.39672e-05
1.02694e-05
9.16895e-06
8.79797e-06
8.80762e-06
9.22065e-06
9.79278e-06
1.16749e-05
1.60832e-05
2.82673e-05
4.68654e-06
2.74696e-08
5.72021e-09
1.4105e-06
1.47281e-05
1.92273e-05
1.57181e-05
1.37626e-05
1.26577e-05
1.22909e-05
1.2725e-05
1.36907e-05
1.51261e-05
1.71638e-05
2.11351e-05
2.83819e-05
4.02832e-05
5.5003e-05
6.59394e-05
6.72204e-05
6.72486e-05
6.77472e-05
6.84429e-05
4.94927e-05
2.50047e-05
1.38339e-05
1.00979e-05
9.03333e-06
8.88533e-06
8.99665e-06
9.45601e-06
1.01863e-05
1.13872e-05
1.54613e-05
2.84575e-05
4.71498e-06
2.75929e-08
5.73887e-09
1.41324e-06
1.47521e-05
1.94209e-05
1.55902e-05
1.35669e-05
1.29337e-05
1.2684e-05
1.25439e-05
1.27391e-05
1.42673e-05
1.73662e-05
2.18604e-05
2.98999e-05
4.19584e-05
5.48782e-05
6.62625e-05
7.25348e-05
7.45682e-05
6.79689e-05
6.86168e-05
5.00973e-05
2.51272e-05
1.38353e-05
9.98642e-06
8.89371e-06
8.94593e-06
9.10733e-06
9.44977e-06
1.01182e-05
1.13725e-05
1.56513e-05
2.86156e-05
4.7825e-06
2.78102e-08
5.71308e-09
1.40563e-06
1.46264e-05
1.95705e-05
1.55517e-05
1.30867e-05
1.25868e-05
1.25119e-05
1.25857e-05
1.34544e-05
1.49291e-05
1.7533e-05
2.22936e-05
2.95268e-05
4.09061e-05
5.48407e-05
6.56832e-05
7.15424e-05
7.35928e-05
6.78707e-05
6.79636e-05
4.87364e-05
2.45716e-05
1.37883e-05
1.01521e-05
9.03278e-06
8.91384e-06
9.10379e-06
9.15441e-06
1.00792e-05
1.1818e-05
1.61819e-05
2.92799e-05
4.82574e-06
2.80004e-08
5.66992e-09
1.39768e-06
1.49883e-05
1.93697e-05
1.58682e-05
1.38291e-05
1.26086e-05
1.22329e-05
1.25499e-05
1.33216e-05
1.49015e-05
1.76729e-05
2.2534e-05
3.01875e-05
4.06369e-05
5.4165e-05
6.51476e-05
7.11608e-05
7.2897e-05
6.79549e-05
6.69684e-05
4.9246e-05
2.52833e-05
1.39045e-05
1.00695e-05
8.99479e-06
8.77679e-06
8.92935e-06
9.54782e-06
1.03386e-05
1.19203e-05
1.61315e-05
2.90062e-05
4.80109e-06
2.7918e-08
5.65662e-09
1.3918e-06
1.45772e-05
1.93997e-05
1.57287e-05
1.35725e-05
1.27214e-05
1.26771e-05
1.25135e-05
1.3067e-05
1.4706e-05
1.73547e-05
2.18758e-05
2.94331e-05
4.0353e-05
5.45548e-05
6.61144e-05
7.22695e-05
7.47065e-05
6.79645e-05
6.86682e-05
5.02045e-05
2.52457e-05
1.39435e-05
1.017e-05
8.9947e-06
8.83312e-06
9.12203e-06
9.71124e-06
1.04429e-05
1.17481e-05
1.64901e-05
2.95217e-05
4.85815e-06
2.79031e-08
5.67334e-09
1.39193e-06
1.47837e-05
1.96627e-05
1.58515e-05
1.36822e-05
1.25673e-05
1.2321e-05
1.25709e-05
1.3403e-05
1.48474e-05
1.7429e-05
2.201e-05
3.03684e-05
4.16967e-05
5.44297e-05
6.54858e-05
7.13664e-05
6.7388e-05
6.78107e-05
6.783e-05
4.84141e-05
2.44555e-05
1.37608e-05
1.00953e-05
9.09409e-06
8.93713e-06
9.12263e-06
9.56034e-06
1.02422e-05
1.19217e-05
1.62493e-05
2.91928e-05
4.84207e-06
2.81159e-08
5.69791e-09
1.39887e-06
1.47438e-05
1.95497e-05
1.5311e-05
1.34916e-05
1.26383e-05
1.22955e-05
1.30647e-05
1.37018e-05
1.45583e-05
1.74018e-05
2.22324e-05
3.06373e-05
4.14479e-05
5.42259e-05
6.50244e-05
6.72692e-05
6.72867e-05
6.7833e-05
6.69226e-05
4.84239e-05
2.50152e-05
1.39639e-05
1.02357e-05
9.09178e-06
8.97919e-06
9.10206e-06
9.47566e-06
1.02771e-05
1.17988e-05
1.65937e-05
2.96396e-05
4.95322e-06
2.84847e-08
5.66986e-09
1.39545e-06
1.48435e-05
1.95117e-05
1.63261e-05
1.39325e-05
1.25036e-05
1.21156e-05
1.22667e-05
1.3252e-05
1.49107e-05
1.74175e-05
2.18948e-05
2.94323e-05
4.11025e-05
5.56865e-05
6.67455e-05
7.24872e-05
6.74438e-05
6.79016e-05
6.87566e-05
4.92984e-05
2.46799e-05
1.38261e-05
1.02031e-05
9.07872e-06
8.80787e-06
9.13488e-06
9.87871e-06
1.05455e-05
1.19465e-05
1.61837e-05
2.98875e-05
4.91865e-06
2.84312e-08
5.67063e-09
1.39752e-06
1.48451e-05
1.97718e-05
1.56864e-05
1.33906e-05
1.26858e-05
1.22944e-05
1.25345e-05
1.36482e-05
1.51394e-05
1.71313e-05
2.1452e-05
2.8799e-05
4.04707e-05
5.51784e-05
6.60291e-05
6.72217e-05
6.73047e-05
6.78446e-05
6.68809e-05
4.71851e-05
2.42398e-05
1.38627e-05
1.03431e-05
9.28125e-06
8.991e-06
9.10902e-06
9.56763e-06
1.02232e-05
1.16517e-05
1.62007e-05
2.99142e-05
4.95085e-06
2.85979e-08
5.67463e-09
1.40087e-06
1.47163e-05
1.92073e-05
1.56812e-05
1.35787e-05
1.26646e-05
1.28179e-05
1.30971e-05
1.30138e-05
1.41196e-05
1.72624e-05
2.18941e-05
2.98207e-05
4.25418e-05
5.60072e-05
6.59229e-05
7.19156e-05
7.35877e-05
6.81086e-05
6.73973e-05
4.86336e-05
2.50306e-05
1.40596e-05
1.03704e-05
9.20103e-06
9.09025e-06
9.24675e-06
9.25273e-06
9.91113e-06
1.17839e-05
1.65318e-05
3.00504e-05
4.95078e-06
2.901e-08
5.67997e-09
1.39876e-06
1.47615e-05
1.93842e-05
1.59513e-05
1.38247e-05
1.25051e-05
1.20132e-05
1.20998e-05
1.3109e-05
1.49252e-05
1.76e-05
2.23975e-05
3.12408e-05
4.32127e-05
5.65399e-05
6.73563e-05
7.25684e-05
6.74756e-05
6.79762e-05
6.82029e-05
4.84952e-05
2.47455e-05
1.40144e-05
1.04307e-05
9.24993e-06
8.93387e-06
9.15932e-06
9.86993e-06
1.05805e-05
1.19474e-05
1.64521e-05
3.0156e-05
5.054e-06
2.91355e-08
5.66929e-09
1.39484e-06
1.45836e-05
1.97505e-05
1.54966e-05
1.33995e-05
1.25362e-05
1.21116e-05
1.24041e-05
1.34991e-05
1.5224e-05
1.79066e-05
2.19704e-05
2.98963e-05
4.13328e-05
5.47612e-05
6.60362e-05
7.20291e-05
6.75034e-05
6.79708e-05
6.76623e-05
4.75476e-05
2.4255e-05
1.38702e-05
1.03775e-05
9.46971e-06
9.36534e-06
9.43784e-06
9.62584e-06
1.03895e-05
1.20638e-05
1.68247e-05
3.02005e-05
5.05764e-06
2.9079e-08
5.69025e-09
1.40077e-06
1.48832e-05
1.95208e-05
1.54063e-05
1.32833e-05
1.25011e-05
1.27836e-05
1.30707e-05
1.31835e-05
1.4147e-05
1.67234e-05
2.23131e-05
3.02314e-05
4.20686e-05
5.62526e-05
6.75725e-05
7.32519e-05
7.4844e-05
6.8188e-05
6.85724e-05
4.89186e-05
2.49122e-05
1.4211e-05
1.05476e-05
9.45962e-06
9.21478e-06
9.34651e-06
9.6924e-06
1.03697e-05
1.23609e-05
1.75132e-05
3.05782e-05
5.0065e-06
2.91949e-08
5.70483e-09
1.40169e-06
1.47186e-05
1.93524e-05
1.61785e-05
1.39784e-05
1.24884e-05
1.16851e-05
1.19564e-05
1.33949e-05
1.50383e-05
1.77069e-05
2.21924e-05
3.04129e-05
4.22177e-05
5.59934e-05
6.69314e-05
7.27497e-05
6.75353e-05
6.80278e-05
6.87202e-05
4.81551e-05
2.42927e-05
1.40144e-05
1.05668e-05
9.45668e-06
9.30012e-06
9.58044e-06
1.01817e-05
1.11339e-05
1.25598e-05
1.70618e-05
3.04283e-05
5.04897e-06
2.94819e-08
5.72372e-09
1.40917e-06
1.44246e-05
1.96446e-05
1.50743e-05
1.28441e-05
1.23868e-05
1.22613e-05
1.25776e-05
1.33942e-05
1.51786e-05
1.79798e-05
2.21079e-05
2.95994e-05
4.10093e-05
5.45271e-05
6.54701e-05
7.15608e-05
7.36983e-05
6.82345e-05
6.68432e-05
4.64064e-05
2.37818e-05
1.40373e-05
1.07151e-05
9.71055e-06
9.49022e-06
9.65281e-06
1.01476e-05
1.08656e-05
1.26448e-05
1.75317e-05
3.06454e-05
5.14361e-06
3.01594e-08
5.69157e-09
1.40446e-06
1.48394e-05
1.91527e-05
1.55067e-05
1.33422e-05
1.23655e-05
1.24777e-05
1.29283e-05
1.32282e-05
1.43859e-05
1.7041e-05
2.20766e-05
3.11724e-05
4.24063e-05
5.60399e-05
6.65258e-05
7.22068e-05
7.36615e-05
6.82797e-05
6.66915e-05
4.68339e-05
2.42146e-05
1.41105e-05
1.06947e-05
9.66509e-06
9.50946e-06
9.71055e-06
9.97373e-06
1.08611e-05
1.26687e-05
1.74783e-05
3.15378e-05
5.31694e-06
3.11723e-08
5.7129e-09
1.40227e-06
1.48112e-05
1.93135e-05
1.59491e-05
1.37185e-05
1.23326e-05
1.18956e-05
1.21156e-05
1.33789e-05
1.50006e-05
1.75009e-05
2.24874e-05
3.05194e-05
4.21479e-05
5.58238e-05
6.63896e-05
7.17927e-05
6.75728e-05
6.8141e-05
6.6471e-05
4.6677e-05
2.42952e-05
1.41012e-05
1.08098e-05
9.85002e-06
9.65662e-06
9.84564e-06
1.02494e-05
1.09277e-05
1.25724e-05
1.75957e-05
3.12363e-05
5.37347e-06
3.12197e-08
5.75462e-09
1.41599e-06
1.4808e-05
1.91331e-05
1.49256e-05
1.32668e-05
1.2564e-05
1.21148e-05
1.24583e-05
1.3412e-05
1.50744e-05
1.84504e-05
2.33944e-05
3.08768e-05
4.18244e-05
5.49866e-05
6.54816e-05
7.1456e-05
6.76653e-05
6.82037e-05
6.65401e-05
4.6524e-05
2.40281e-05
1.4082e-05
1.08423e-05
9.89996e-06
9.62084e-06
9.8519e-06
1.04799e-05
1.11105e-05
1.26298e-05
1.75239e-05
3.18174e-05
5.37681e-06
3.12711e-08
5.71167e-09
1.4094e-06
1.47657e-05
1.89569e-05
1.51516e-05
1.31769e-05
1.2352e-05
1.24059e-05
1.30838e-05
1.39277e-05
1.48855e-05
1.69474e-05
2.13846e-05
2.98956e-05
4.24402e-05
5.59979e-05
6.71766e-05
7.2916e-05
7.44873e-05
6.83739e-05
6.82489e-05
4.76505e-05
2.41365e-05
1.40649e-05
1.07954e-05
9.86063e-06
9.7932e-06
1.00054e-05
1.01607e-05
1.10253e-05
1.31412e-05
1.85395e-05
3.25676e-05
5.40509e-06
3.13941e-08
5.71058e-09
1.40251e-06
1.49846e-05
1.97827e-05
1.59593e-05
1.32913e-05
1.23956e-05
1.20955e-05
1.22774e-05
1.32566e-05
1.49156e-05
1.77084e-05
2.26856e-05
3.06498e-05
4.21118e-05
5.62563e-05
6.67966e-05
7.23341e-05
7.40328e-05
6.83893e-05
6.7418e-05
4.65387e-05
2.36398e-05
1.39915e-05
1.08419e-05
1.00156e-05
9.94719e-06
1.01113e-05
1.05602e-05
1.14372e-05
1.33755e-05
1.85832e-05
3.22476e-05
5.43421e-06
3.16831e-08
5.78218e-09
1.42044e-06
1.51059e-05
1.86848e-05
1.535e-05
1.32139e-05
1.25479e-05
1.24894e-05
1.25564e-05
1.329e-05
1.49584e-05
1.7942e-05
2.30242e-05
3.13788e-05
4.31437e-05
5.61069e-05
6.63817e-05
7.19694e-05
6.76099e-05
6.82104e-05
6.71647e-05
4.61188e-05
2.35177e-05
1.39191e-05
1.07184e-05
9.78001e-06
9.85739e-06
1.03341e-05
1.10567e-05
1.18209e-05
1.33486e-05
1.84999e-05
3.27244e-05
5.46239e-06
3.16905e-08
5.6938e-09
1.40061e-06
1.46264e-05
1.92554e-05
1.49424e-05
1.31544e-05
1.23767e-05
1.2583e-05
1.30022e-05
1.33915e-05
1.47504e-05
1.76441e-05
2.30739e-05
3.06344e-05
4.09811e-05
5.55598e-05
6.68006e-05
7.27819e-05
6.76354e-05
6.82549e-05
6.83769e-05
4.63963e-05
2.32113e-05
1.39146e-05
1.07868e-05
9.9181e-06
1.00736e-05
1.04786e-05
1.06615e-05
1.14043e-05
1.37523e-05
1.93688e-05
3.28862e-05
5.50345e-06
3.19802e-08
5.6988e-09
1.40562e-06
1.48904e-05
1.943e-05
1.58526e-05
1.31204e-05
1.23666e-05
1.22142e-05
1.2166e-05
1.3219e-05
1.48441e-05
1.78502e-05
2.38469e-05
3.21241e-05
4.40168e-05
5.66419e-05
6.63216e-05
7.16622e-05
6.76267e-05
6.82567e-05
6.71941e-05
4.54333e-05
2.28377e-05
1.38085e-05
1.07539e-05
1.01072e-05
1.0278e-05
1.05732e-05
1.1051e-05
1.16774e-05
1.34315e-05
1.84611e-05
3.27497e-05
5.50358e-06
3.21764e-08
5.75108e-09
1.40969e-06
1.49928e-05
1.93406e-05
1.51849e-05
1.31962e-05
1.23304e-05
1.19947e-05
1.25303e-05
1.33531e-05
1.50095e-05
1.78421e-05
2.22218e-05
3.00387e-05
4.29833e-05
5.6715e-05
6.70991e-05
7.19575e-05
6.76073e-05
6.82267e-05
6.55185e-05
4.43838e-05
2.2868e-05
1.3944e-05
1.09409e-05
1.01121e-05
1.00809e-05
1.03871e-05
1.08709e-05
1.1658e-05
1.3585e-05
1.86451e-05
3.32981e-05
5.59736e-06
3.25038e-08
5.76319e-09
1.41499e-06
1.45343e-05
1.87546e-05
1.48608e-05
1.34431e-05
1.2411e-05
1.20412e-05
1.27103e-05
1.35139e-05
1.48327e-05
1.72817e-05
2.17594e-05
3.03219e-05
4.30701e-05
5.67829e-05
6.7268e-05
7.2686e-05
6.76893e-05
6.82783e-05
6.63205e-05
4.47074e-05
2.29853e-05
1.40268e-05
1.09631e-05
1.01742e-05
1.02587e-05
1.03754e-05
1.06551e-05
1.15702e-05
1.39222e-05
1.95951e-05
3.34429e-05
5.61913e-06
3.24619e-08
5.71048e-09
1.40775e-06
1.48511e-05
1.91343e-05
1.55047e-05
1.32206e-05
1.24166e-05
1.2274e-05
1.22738e-05
1.30159e-05
1.46762e-05
1.7965e-05
2.32028e-05
3.02277e-05
4.23895e-05
5.57311e-05
6.61018e-05
7.22675e-05
7.41306e-05
6.84905e-05
6.66197e-05
4.53431e-05
2.33175e-05
1.41167e-05
1.10604e-05
1.0098e-05
9.87549e-06
1.05157e-05
1.12748e-05
1.19117e-05
1.36605e-05
1.83115e-05
3.30097e-05
5.61785e-06
3.27066e-08
5.75969e-09
1.4132e-06
1.49314e-05
1.92433e-05
1.52729e-05
1.31285e-05
1.22723e-05
1.21375e-05
1.23001e-05
1.30594e-05
1.50138e-05
1.78543e-05
2.26417e-05
3.11297e-05
4.34857e-05
5.67028e-05
6.67804e-05
7.18461e-05
7.35422e-05
6.84601e-05
6.60208e-05
4.46099e-05
2.29271e-05
1.38527e-05
1.08253e-05
1.00931e-05
1.03555e-05
1.05232e-05
1.10283e-05
1.1852e-05
1.3514e-05
1.91884e-05
3.33801e-05
5.65813e-06
3.25392e-08
5.73494e-09
1.40798e-06
1.46942e-05
1.94596e-05
1.5224e-05
1.31629e-05
1.20017e-05
1.16186e-05
1.24382e-05
1.34033e-05
1.48206e-05
1.77801e-05
2.29203e-05
3.14638e-05
4.37583e-05
5.70885e-05
6.81455e-05
7.36203e-05
7.44472e-05
6.84836e-05
6.60245e-05
4.43715e-05
2.30435e-05
1.41685e-05
1.11426e-05
1.02918e-05
1.027e-05
1.05575e-05
1.09255e-05
1.18251e-05
1.40992e-05
1.93221e-05
3.394e-05
5.64266e-06
3.27927e-08
5.68894e-09
1.40191e-06
1.47709e-05
1.87511e-05
1.54203e-05
1.30886e-05
1.2314e-05
1.21872e-05
1.19473e-05
1.27911e-05
1.49362e-05
1.83766e-05
2.37842e-05
3.23571e-05
4.36986e-05
5.56123e-05
6.50044e-05
7.10007e-05
6.77193e-05
6.83881e-05
6.68403e-05
4.43712e-05
2.27018e-05
1.40458e-05
1.12029e-05
1.03923e-05
1.02805e-05
1.06009e-05
1.12982e-05
1.22149e-05
1.39668e-05
1.89945e-05
3.32502e-05
5.60664e-06
3.28608e-08
5.7382e-09
1.40911e-06
1.47874e-05
1.92186e-05
1.50322e-05
1.29848e-05
1.21362e-05
1.18932e-05
1.2375e-05
1.32542e-05
1.48267e-05
1.76457e-05
2.26848e-05
3.13532e-05
4.36104e-05