/*--------------------------------*- C++ -*----------------------------------*\
  =========                 |
  \\      /  F ield         | OpenFOAM: The Open Source CFD Toolbox
   \\    /   O peration     | Website:  https://openfoam.org
    \\  /    A nd           | Version:  13
     \\/     M anipulation  |
\*---------------------------------------------------------------------------*/
FoamFile
{
    format      ascii;
    class       volScalarField;
    location    "10";
    object      k;
}
// * * * * * * * * * * * * * * * * * * * * * * * * * * * * * * * * * * * * * //

dimensions      [0 2 -2 0 0 0 0];

internalField   nonuniform List<scalar> 
78750
(
1.02273e-06
2.1057e-05
8.86093e-05
0.000125064
0.00014611
0.000157531
0.000165279
0.000167316
0.00017084
0.00017669
0.000179262
0.000180345
0.000183397
0.000187105
0.000187363
0.000187206
0.000187194
0.000187873
0.000187794
0.000188313
0.000189244
0.000190975
0.000194532
0.000197535
0.000197133
0.000196323
0.000194011
0.000191661
0.000190572
0.000187996
0.000193535
0.000198173
0.000200004
0.000133566
8.9517e-06
5.84155e-07
1.68519e-05
0.000104719
0.000144948
0.000166629
0.000181473
0.000191314
0.000199312
0.000199322
0.000195375
0.000190471
0.000185332
0.000179963
0.000174462
0.000170077
0.00016726
0.000165178
0.000163487
0.000161832
0.000160422
0.00015937
0.000159015
0.000159092
0.000159555
0.00016063
0.000161454
0.000161727
0.000161997
0.000162004
0.000162961
0.000163618
0.00016927
0.000167262
9.92441e-05
5.49001e-06
1.64836e-06
4.66996e-05
0.000145514
0.000178577
0.000200966
0.000214179
0.000215202
0.000211787
0.00020385
0.000192158
0.000179568
0.000167928
0.000157755
0.000150962
0.00014819
0.000147363
0.000148345
0.000149341
0.000150233
0.000150687
0.000150568
0.000149851
0.000149589
0.000149864
0.00015033
0.000150892
0.000149981
0.000149165
0.000149225
0.000151251
0.000154862
0.000159623
0.000154288
6.95911e-05
3.32301e-06
1.89478e-06
5.27698e-05
0.000146977
0.000184061
0.000205552
0.000215135
0.000215144
0.000209956
0.000199096
0.000186005
0.000172433
0.000160255
0.000152374
0.000150491
0.000147982
0.000148053
0.000147043
0.000146468
0.000146251
0.000146467
0.000147206
0.000147633
0.000148397
0.000146718
0.000146514
0.000148218
0.000150497
0.000154836
0.000154481
0.000154334
0.000156343
0.000160021
0.000152552
5.91069e-05
2.70493e-06
2.17289e-06
6.04978e-05
0.000151976
0.000192038
0.000214135
0.000222677
0.000220398
0.00021067
0.000197582
0.000183365
0.000170457
0.000159369
0.000153228
0.000157286
0.000153907
0.000150436
0.000148244
0.000147442
0.000147063
0.000146917
0.000147111
0.000147977
0.00014959
0.000151136
0.000153427
0.000149508
0.000148951
0.000151444
0.000152497
0.000153972
0.000157867
0.000161284
0.000152613
5.37153e-05
2.29656e-06
2.18041e-06
6.03364e-05
0.000149898
0.000194156
0.000217709
0.000227071
0.000224769
0.000214362
0.000199898
0.000184584
0.000170821
0.000159003
0.000150899
0.000146711
0.000145915
0.000145306
0.000145385
0.00014433
0.000143338
0.000143038
0.000143705
0.000145583
0.000148077
0.000147442
0.00014675
0.000146087
0.00014632
0.000148392
0.000152166
0.000156656
0.000162194
0.000166599
0.00015388
5.05314e-05
2.01856e-06
2.34261e-06
6.47846e-05
0.000154909
0.000198886
0.000222279
0.000230853
0.000227961
0.00021743
0.000202932
0.00018716
0.000172236
0.000160261
0.000152669
0.000150064
0.000147969
0.000146551
0.000146256
0.000145149
0.000144406
0.000144535
0.000145569
0.000147017
0.000146961
0.00014924
0.000152546
0.000152867
0.000153178
0.000154614
0.000160089
0.000167493
0.000174742
0.00017622
0.000156483
5.08526e-05
2.13798e-06
2.35245e-06
6.49956e-05
0.00015619
0.000200789
0.000224715
0.000234035
0.000231475
0.000220918
0.000206303
0.000190495
0.00017546
0.000162621
0.000153263
0.000148412
0.000146602
0.000147265
0.000146484
0.000145488
0.000145036
0.000145384
0.000146318
0.00014622
0.000146323
0.000146581
0.000148207
0.000151563
0.000156204
0.000161657
0.000168133
0.000175636
0.000182646
0.000183394
0.000165125
5.37719e-05
2.30312e-06
2.42894e-06
6.70181e-05
0.000158614
0.000203828
0.000228197
0.00023744
0.000234545
0.00022356
0.000208496
0.000192237
0.000176821
0.000163725
0.000154089
0.000148608
0.000147169
0.000146672
0.000146972
0.000146417
0.000146197
0.000146677
0.00014786
0.000149422
0.000151537
0.000150555
0.000152313
0.000156173
0.000161648
0.000168646
0.000177033
0.000186843
0.000195655
0.000195881
0.000173254
5.65299e-05
2.31923e-06
2.4752e-06
6.81854e-05
0.000160293
0.000205531
0.000230013
0.000239764
0.000237121
0.000226059
0.000210783
0.000194267
0.000178563
0.000165171
0.000155187
0.000149302
0.000147383
0.00014829
0.000147937
0.000147503
0.000147363
0.0001475
0.000147312
0.00014798
0.000149654
0.00015291
0.000158566
0.000165565
0.0001724
0.00017858
0.000186141
0.000196102
0.000207329
0.000210062
0.000183993
6.45375e-05
2.5894e-06
2.50014e-06
6.88462e-05
0.00016139
0.000207387
0.00023258
0.000242956
0.000240215
0.000228331
0.000212218
0.000195047
0.000178917
0.000165529
0.000155727
0.000150151
0.000148433
0.00014719
0.000146506
0.000146424
0.000147261
0.00014763
0.000148034
0.000150175
0.000153846
0.00015981
0.000168709
0.000178423
0.000186531
0.000192666
0.00020222
0.000213247
0.000221659
0.000219756
0.000187957
6.72991e-05
2.72797e-06
2.56137e-06
7.04814e-05
0.000163109
0.000208894
0.000233894
0.000244506
0.000242224
0.000230174
0.000213815
0.000196377
0.000179693
0.000166267
0.000156388
0.000151051
0.000151266
0.000149254
0.000147232
0.000146787
0.000147002
0.000147837
0.000149588
0.000152962
0.000158407
0.000167225
0.000179537
0.000192267
0.00020192
0.000206823
0.000212395
0.00022609
0.00023982
0.000238401
0.000200906
8.05936e-05
3.51216e-06
2.58438e-06
7.10518e-05
0.000164053
0.000210067
0.000235083
0.000244895
0.000242236
0.000230088
0.000213652
0.000196289
0.000180652
0.000167394
0.000157266
0.000151007
0.000148252
0.000146911
0.00014667
0.000146768
0.00014723
0.000148362
0.000151121
0.000155659
0.000162933
0.000174555
0.000191353
0.000210148
0.000225881
0.00023423
0.000235191
0.0002362
0.000244872
0.000244651
0.000213048
8.25267e-05
3.67118e-06
2.61577e-06
7.18607e-05
0.000165181
0.000211404
0.000237181
0.000246299
0.000242427
0.000229962
0.000213304
0.000194555
0.000178552
0.000165794
0.000156837
0.000151877
0.000152495
0.000150777
0.000149489
0.000148997
0.000149267
0.000149928
0.000152985
0.000158187
0.000166393
0.000179563
0.000199272
0.000222815
0.000245215
0.000262354
0.000270683
0.000271104
0.000268408
0.000261382
0.000226442
9.65382e-05
4.17077e-06
2.64942e-06
7.27217e-05
0.000166183
0.000212173
0.000237148
0.000243267
0.000238481
0.000225191
0.000208947
0.00019261
0.000177744
0.000165497
0.000156524
0.000150556
0.000147645
0.000146817
0.000146895
0.000147118
0.000147915
0.000150137
0.000154321
0.000160505
0.00016979
0.000184536
0.000206866
0.000234221
0.000261537
0.000284711
0.0002984
0.00030023
0.000294869
0.000280676
0.000236882
0.000105948
4.49575e-06
2.70702e-06
7.41473e-05
0.000168251
0.000214273
0.000236723
0.00024305
0.000237277
0.000223405
0.000206608
0.000189931
0.00017525
0.000163521
0.000155238
0.00015064
0.000149152
0.000148354
0.000147859
0.000147912
0.000148728
0.000151103
0.000155623
0.000162245
0.000172095
0.000188189
0.000213431
0.000245224
0.000277938
0.000308112
0.000329302
0.000336201
0.000330456
0.000308394
0.000254687
0.000123055
5.24925e-06
2.71318e-06
7.42547e-05
0.000168871
0.000215831
0.000238414
0.000243459
0.000235953
0.000221262
0.000203515
0.000187774
0.000173876
0.000162475
0.000154165
0.000149218
0.000147428
0.000147518
0.0001476
0.000147852
0.000148867
0.000151474
0.000156254
0.000163204
0.000173633
0.000191106
0.000218949
0.000254308
0.000291016
0.000325587
0.000351632
0.000362658
0.000357573
0.000331095
0.000270823
0.000138114
5.94802e-06
2.7482e-06
7.5129e-05
0.000169953
0.000215657
0.000238433
0.000244182
0.000236067
0.000219247
0.000201969
0.00018549
0.000171626
0.000160763
0.000153249
0.000149079
0.000147435
0.00014729
0.000147276
0.00014761
0.000148619
0.000151195
0.000155947
0.000162857
0.000173249
0.000191074
0.000220029
0.000256817
0.000295124
0.000331953
0.000361906
0.0003791
0.000378916
0.000353033
0.000289574
0.000161383
6.97714e-06
2.75752e-06
7.53638e-05
0.000171076
0.000214084
0.000237741
0.000241702
0.000235266
0.000220162
0.000202257
0.000184219
0.000170332
0.00016004
0.00015348
0.0001501
0.000149245
0.000148251
0.000147606
0.000147577
0.000148481
0.000151034
0.000155778
0.000162697
0.000173287
0.000192575
0.000224213
0.000264695
0.000308074
0.000349981
0.000383459
0.000402636
0.000401274
0.000370908
0.000305839
0.000180376
7.86975e-06
2.7924e-06
7.62556e-05
0.000171517
0.000214795
0.000235408
0.00024092
0.00023541
0.00022062
0.000202542
0.000184139
0.000168897
0.000158933
0.000153637
0.000151906
0.000150146
0.000148567
0.000147694
0.000147744
0.000148665
0.000150839
0.000155183
0.000161845
0.000172507
0.000192413
0.000225074
0.000265587
0.000309069
0.000350928
0.000385494
0.000407772
0.000411721
0.000384248
0.000320663
0.000198191
8.68745e-06
2.80992e-06
7.674e-05
0.000171351
0.000215319
0.000237129
0.000240823
0.000232261
0.000216404
0.000198483
0.000182469
0.000167833
0.000158028
0.000152719
0.000151301
0.000149721
0.000148375
0.000147685
0.000147586
0.000148299
0.000150166
0.000154215
0.000160666
0.000171385
0.000192067
0.000225898
0.000268423
0.00031555
0.000362446
0.000401268
0.000421268
0.000422475
0.000394457
0.000331784
0.000211251
9.30059e-06
2.83714e-06
7.76319e-05
0.000172945
0.000216728
0.000236227
0.000240019
0.00023241
0.000216452
0.000197707
0.000181316
0.000166917
0.000157049
0.000151636
0.000150448
0.000149142
0.000148017
0.000147332
0.000147124
0.000147598
0.000149474
0.000153233
0.000159315
0.000169974
0.000190287
0.000222812
0.000263397
0.000308678
0.000354936
0.000396483
0.000428826
0.000427696
0.000401636
0.000341876
0.000225709
1.00375e-05
2.81273e-06
7.69875e-05
0.000172573
0.000216946
0.000237459
0.000240159
0.000232508
0.00021682
0.000198312
0.000181153
0.00016642
0.00015669
0.000150581
0.000147875
0.000147711
0.000147429
0.000147154
0.000147177
0.000147868
0.000149535
0.000153043
0.000158894
0.00016913
0.000188075
0.000217479
0.000253966
0.000296197
0.00034512
0.000388635
0.00042554
0.000428792
0.000406089
0.000349311
0.000234936
1.05424e-05
2.81944e-06
7.69407e-05
0.000171322
0.000215011
0.000236695
0.000239274
0.000229497
0.000213912
0.000197191
0.000180211
0.000165929
0.00015652
0.000150762
0.000148036
0.0001469
0.000147086
0.000146877
0.000147064
0.000147778
0.000149324
0.0001528
0.000158563
0.000168585
0.000187235
0.000216029
0.000251722
0.000293449
0.000341765
0.000386019
0.000425379
0.000429493
0.000410256
0.000355231
0.000242577
1.08394e-05
2.84662e-06
7.76937e-05
0.000172741
0.000216321
0.000236485
0.000238813
0.0002294
0.00021478
0.000197018
0.000179561
0.000166236
0.000156574
0.00015123
0.000149324
0.000148157
0.0001488
0.000147195
0.000147043
0.000148321
0.000149196
0.000152293
0.00015781
0.000167726
0.000186325
0.000215062
0.000250697
0.000291972
0.000338353
0.000387335
0.000424657
0.000437559
0.000412999
0.000358436
0.000245363
1.09734e-05
2.80652e-06
7.68306e-05
0.000170722
0.000215428
0.000235678
0.000239129
0.000230519
0.00021508
0.000197175
0.000180242
0.0001664
0.0001567
0.000151722
0.000150771
0.000148725
0.000147155
0.000147816
0.000147083
0.000147456
0.000148838
0.000151998
0.000157483
0.000167354
0.000185664
0.000213834
0.000248839
0.00029078
0.000337455
0.000385193
0.000423888
0.00043348
0.000415428
0.000363041
0.000252208
1.13199e-05
2.80575e-06
7.66595e-05
0.00017162
0.000214568
0.000235699
0.000237444
0.00022999
0.000212997
0.00019448
0.000177791
0.000164657
0.000155456
0.000151655
0.000154275
0.000151611
0.000147952
0.000146866
0.000146654
0.00014716
0.000148579
0.000151749
0.000157133
0.000166874
0.0001852
0.000213175
0.000248332
0.000289134
0.000333641
0.000383181
0.000420177
0.000431786
0.000417039
0.000365788
0.000255784
1.15788e-05
2.82368e-06
7.71608e-05
0.00017173
0.000215347
0.000235564
0.000238348
0.000229975
0.000214203
0.000195823
0.000178786
0.000164969
0.000155228
0.000149447
0.000146713
0.000145986
0.00014648
0.000146499
0.000146651
0.000147233
0.00014865
0.000151803
0.000157216
0.000167013
0.000185116
0.000212851
0.000247622
0.000287877
0.000336275
0.00038388
0.000422882
0.000442363
0.000420457
0.000369303
0.000257978
1.16456e-05
2.79768e-06
7.65436e-05
0.000170853
0.000212879
0.000235254
0.000239027
0.000229911
0.000214029
0.000195614
0.000178542
0.000164808
0.000155169
0.00014967
0.000147533
0.000147357
0.000148907
0.000148578
0.000148404
0.000148788
0.00014948
0.000152417
0.000157788
0.000167529
0.00018575
0.000213508
0.000248113
0.000289533
0.000335574
0.000383657
0.000424102
0.000443379
0.000422518
0.000370746
0.000259914
1.16991e-05
2.79818e-06
7.63714e-05
0.000169776
0.00021303
0.000233909
0.000237721
0.00022847
0.000211989
0.000194794
0.000178041
0.000164475
0.000154932
0.000149342
0.000147226
0.000147724
0.0001487
0.00014815
0.000147091
0.000147424
0.000148807
0.000152069
0.000157649
0.000167646
0.000185892
0.000213595
0.00024778
0.00028878
0.000334134
0.000381428
0.000420788
0.000444525
0.000426668
0.0003759
0.000268754
1.22302e-05
2.83373e-06
7.71456e-05
0.000171489
0.000212996
0.000233195
0.000237407
0.000227033
0.000211713
0.000195063
0.000178471
0.000164785
0.000155125
0.000149587
0.000147808
0.000149593
0.000147303
0.000146631
0.000146615
0.000147215
0.000148718
0.000151974
0.000157544
0.000167655
0.000186042
0.000213831
0.000248019
0.000287855
0.000333733
0.000380635
0.0004226
0.000446568
0.000429485
0.000379931
0.000272973
1.24541e-05
2.79483e-06
7.63025e-05
0.000170172
0.000213942
0.000232928
0.000235995
0.000227966
0.000211123
0.000192927
0.00017704
0.000164266
0.000154837
0.000149324
0.000147032
0.000146275
0.000146568
0.000146507
0.000146635
0.000147356
0.000148877
0.000152177
0.000157794
0.000167941
0.000186699
0.000214814
0.000249177
0.000288833
0.000335688
0.000390512
0.000434601
0.000452499
0.000434134
0.000384278
0.000281252
1.26547e-05
2.79589e-06
7.64393e-05
0.000170418
0.000214102
0.000232758
0.000236984
0.000227804
0.000211455
0.000192911
0.000176834
0.000164154
0.000154962
0.000149964
0.000148238
0.000147359
0.000148408
0.00014707
0.00014698
0.000147502
0.00014899
0.000152314
0.000158038
0.00016852
0.000188072
0.000217666
0.000254346
0.000297075
0.000344321
0.000392197
0.000436552
0.00045697
0.000437078
0.000386212
0.000281884
1.26793e-05
2.82519e-06
7.70939e-05
0.000171536
0.000214421
0.000234213
0.000235882
0.000227866
0.00021182
0.000192903
0.000176088
0.000162964
0.000154495
0.000150584
0.000150159
0.000148637
0.000147385
0.000146862
0.00014683
0.000147419
0.000148854
0.000152152
0.000157871
0.000168264
0.00018717
0.000215449
0.000250842
0.000292704
0.000340261
0.000392535
0.000434152
0.00045665
0.000439037
0.000388996
0.00028283
1.28629e-05
2.80255e-06
7.64701e-05
0.000171998
0.000214994
0.000234969
0.000237148
0.000226157
0.000209707
0.000192328
0.000176376
0.000162954
0.00015434
0.000150972
0.000153951
0.000151512
0.000147623
0.000146565
0.00014651
0.000147219
0.000148772
0.000152122
0.000157799
0.000168143
0.000187303
0.000215953
0.000251911
0.000294592
0.000343138
0.000394021
0.00044305
0.000466136
0.000441149
0.000390864
0.000284215
1.29916e-05
2.79784e-06
7.65017e-05
0.000170078
0.000214044
0.000233157
0.000236799
0.000226527
0.000210743
0.000192112
0.000176268
0.000162933
0.00015415
0.000149238
0.000147649
0.000149364
0.000147116
0.00014657
0.00014659
0.000147192
0.000148756
0.000152137
0.000157848
0.000168285
0.000187733
0.000217094
0.000253345
0.000296104
0.000344614
0.000396024
0.000442885
0.000466608
0.000442213
0.000392425
0.000290364
1.31204e-05
2.82514e-06
7.70105e-05
0.000171712
0.000213855
0.000234414
0.000237185
0.000226522
0.00021093
0.000192629
0.000175681
0.000162665
0.000154334
0.000150152
0.000149278
0.000147209
0.000146807
0.000146441
0.000146486
0.000147227
0.000148804
0.000152165
0.000157893
0.000168439
0.00018787
0.000216727
0.000251921
0.000293535
0.000343021
0.000394524
0.000443186
0.000467709
0.000443871
0.000394248
0.000294451
1.32734e-05
2.83605e-06
7.73744e-05
0.000172579
0.000215624
0.000234978
0.000237199
0.000227548
0.000211014
0.000192729
0.000175912
0.000162897
0.00015436
0.000150617
0.000152627
0.000149188
0.000149357
0.000148413
0.000147146
0.000147473
0.000148909
0.000152269
0.000158093
0.000168759
0.00018837
0.000217674
0.000253765
0.000295695
0.000341651
0.00039517
0.000437678
0.000462166
0.000444347
0.000395492
0.000292029
1.33207e-05
2.80085e-06
7.65586e-05
0.000169949
0.000213032
0.000234095
0.000237231
0.000227562
0.000210804
0.000192482
0.000175989
0.000162787
0.000154072
0.000149331
0.000147337
0.000147139
0.00014693
0.000146719
0.000146823
0.000147437
0.000148896
0.000152218
0.000158001
0.000168725
0.000188539
0.000218278
0.000254774
0.000297283
0.00034354
0.000395407
0.000442144
0.000467073
0.000445378
0.000396865
0.000294501
1.32999e-05
2.82406e-06
7.70837e-05
0.000171485
0.000214184
0.000233204
0.0002365
0.000225841
0.00021041
0.000192395
0.00017535
0.000162874
0.000154057
0.000149015
0.000146754
0.000146227
0.000146524
0.000146652
0.000146815
0.000147427
0.000148986
0.000152351
0.000158211
0.000169023
0.000188712
0.00021813
0.000254581
0.000297039
0.000342898
0.000392842
0.000434951
0.000463191
0.000447287
0.000398101
0.000294808
1.33335e-05
2.81288e-06
7.67226e-05
0.000171784
0.000214615
0.000234386
0.000235779
0.000226777
0.000209991
0.000190635
0.000174699
0.000161851
0.000153413
0.000148686
0.000146871
0.000146877
0.0001468
0.000146918
0.000147773
0.000147594
0.000148799
0.000152049
0.000157776
0.000168584
0.000188784
0.000218709
0.000255662
0.000299123
0.000348082
0.000395072
0.000443442
0.000470673
0.000449092
0.000400579
0.000295281
1.35294e-05
2.80723e-06
7.67694e-05
0.000169716
0.000213491
0.000232658
0.000236572
0.00022678
0.000209838
0.000190599
0.000174624
0.000161842
0.000153364
0.000148487
0.00014629
0.000145943
0.000146379
0.000146727
0.00014789
0.000148543
0.000149159
0.000152179
0.000157881
0.000168649
0.0001886
0.000218275
0.000255096
0.000297417
0.000345764
0.00040057
0.00044289
0.000470789
0.000452814
0.000403083
0.000296842
1.36062e-05
2.81743e-06
7.70281e-05
0.000170916
0.000212918
0.000233535
0.000236272
0.000226367
0.00020973
0.000191606
0.000175162
0.000162103
0.000153209
0.000148444
0.000146985
0.000146929
0.000146707
0.000146557
0.000146785
0.000147408
0.000148882
0.000152188
0.00015797
0.000168788
0.00018885
0.00021855
0.000255252
0.000297888
0.000347853
0.000396712
0.000443876
0.000467347
0.000453736
0.000403473
0.000301229
1.38059e-05
2.80233e-06
7.65649e-05
0.000171264
0.00021419
0.000233802
0.000235258
0.000225317
0.000209798
0.000191551
0.000174453
0.000161608
0.000153311
0.000148808
0.000146986
0.000146549
0.000146491
0.000146375
0.000146478
0.000147171
0.000148741
0.000152047
0.000157794
0.000168524
0.000188074
0.000217243
0.00025355
0.00029692
0.000348082
0.00040091
0.000446061
0.000471254
0.000458768
0.000411063
0.000306657
1.39489e-05
2.77667e-06
7.57992e-05
0.000169257
0.000213589
0.000233568
0.000236344
0.000226413
0.000209748
0.000191614
0.00017516
0.00016214
0.000153437
0.000148914
0.000147652
0.00014954
0.000147217
0.000146611
0.000146573
0.000147242
0.000148825
0.000152171
0.000157952
0.000168584
0.000188166
0.000217165
0.000253897
0.000297649
0.000346934
0.000397915
0.000446176
0.000475665
0.000465946
0.000421445
0.000305888
1.38978e-05
2.77314e-06
7.58395e-05
0.000170399
0.000213763
0.000233312
0.000235838
0.000226107
0.000210033
0.000191959
0.000175128
0.000161905
0.000153032
0.000148573
0.000147641
0.000149472
0.000147174
0.000146592
0.000146675
0.000147395
0.000148961
0.000152453
0.000158423
0.000169417
0.000189622
0.000219579
0.000256547
0.000300523
0.000351262
0.000406281
0.000454674
0.000478655
0.000470043
0.000421611
0.000305027
1.39114e-05
2.77743e-06
7.5665e-05
0.000169335
0.000213497
0.000232918
0.000236144
0.000225927
0.000210088
0.00019181
0.000174681
0.000161624
0.000153198
0.000149397
0.000148722
0.000147596
0.000146517
0.000146452
0.000146902
0.000148309
0.000149183
0.000152455
0.000158363
0.000169373
0.000189374
0.000218793
0.000255775
0.000299709
0.000349436
0.000399483
0.000449054
0.000485321
0.000469612
0.000416503
0.000304378
1.39603e-05
2.79689e-06
7.6249e-05
0.000170993
0.000213896
0.000232932
0.000234746
0.000225941
0.000208917
0.00019167
0.00017538
0.000162269
0.000153467
0.000149367
0.00014891
0.000148278
0.000147173
0.000146995
0.000148006
0.000148688
0.000149463
0.000152775
0.00015878
0.000169851
0.000189837
0.000219047
0.000255279
0.000300041
0.000350677
0.000404956
0.000455149
0.000485904
0.000478709
0.000423218
0.000306237
1.4143e-05
2.78047e-06
7.60903e-05
0.000169156
0.000212002
0.000232812
0.000235612
0.000224678
0.000209242
0.00019138
0.000174962
0.000162071
0.000153423
0.000148965
0.000147702
0.000149736
0.00014722
0.000146631
0.000146603
0.00014717
0.000149105
0.000152902
0.000159235
0.000170852
0.000191693
0.000221966
0.000258808
0.000301031
0.000348347
0.000405583
0.000455764
0.000486861
0.000476045
0.000425073
0.000311733
1.41529e-05
2.77975e-06
7.59013e-05
0.000170336
0.000213116
0.000232168
0.000234719
0.000225504
0.000208392
0.000190534
0.000174399
0.000162037
0.000153427
0.000148883
0.000147557
0.000149529
0.000147427
0.000147028
0.000148031
0.000148759
0.00014961
0.000153021
0.000159233
0.00017069
0.000191296
0.000220871
0.000257276
0.000299191
0.0003497
0.00039809
0.000445775
0.000476525
0.000470256
0.000430946
0.000311924
1.42002e-05
2.7939e-06
7.6484e-05
0.000170794
0.000213692
0.000233385
0.000236076
0.000226067
0.000209555
0.00019159
0.000174945
0.000161471
0.000152951
0.000148498
0.00014731
0.000147218
0.000146692
0.000146451
0.000146667
0.000147534
0.000149422
0.000153205
0.000159585
0.000171117
0.000191672
0.000221217
0.000257081
0.00029966
0.000347447
0.000403935
0.00045363
0.00048456
0.000478171
0.000430359
0.000309389
1.4292e-05
2.77262e-06
7.56386e-05
0.000169691
0.000212931
0.00023267
0.000235689
0.000225612
0.000209089
0.000190788
0.000174315
0.00016126
0.000153228
0.000149495
0.000148968
0.000148127
0.000146687
0.00014628
0.000146363
0.000147128
0.000149382
0.0001535
0.000160263
0.000172515
0.000194207
0.00022502
0.000261784
0.000304097
0.000351844
0.000402397
0.000449504
0.000478412
0.000472737
0.000432519
0.000316669
1.44812e-05
2.78002e-06
7.60356e-05
0.000169433
0.00021289
0.000231429
0.000234231
0.000225254
0.000208819
0.000190223
0.000173964
0.000161501
0.000153057
0.000149253
0.000149026
0.000147968
0.000147083
0.00014667
0.000146686
0.000147376
0.000149525
0.000153552
0.000160311
0.00017256
0.000194441
0.000225719
0.000263421
0.000306695
0.000354875
0.00040535
0.000451622
0.000480728
0.000474201
0.000432072
0.000313622
1.44401e-05
2.78806e-06
7.60679e-05
0.000169657
0.000213253
0.00023311
0.000235735
0.000225187
0.000207889
0.000191007
0.000174692
0.000161617
0.00015267
0.000148171
0.000146654
0.000146953
0.000146818
0.000146568
0.000146795
0.000147749
0.000149827
0.0001539
0.000160695
0.000173066
0.000195067
0.000226238
0.000263727
0.000307211
0.000356368
0.000408446
0.000456535
0.000487125
0.000478237
0.000428488
0.000315915
1.44446e-05
2.80626e-06
7.63926e-05
0.00017081
0.000212636
0.00023269
0.0002343
0.000225288
0.000207821
0.000190162
0.000173841
0.000161105
0.000152628
0.000148333
0.000146809
0.000146092
0.000146119
0.000146114
0.000146406
0.000147336
0.000149739
0.000154035
0.000161143
0.000174144
0.000197243
0.000230163
0.000269612
0.000313573
0.000363617
0.000417185
0.000468034
0.000494054
0.000480898
0.00042868
0.000313099
1.44942e-05
2.81585e-06
7.70236e-05
0.00017144
0.00021415
0.000233216
0.000234953
0.000223419
0.000207304
0.000189019
0.000173088
0.000160705
0.0001527
0.000148646
0.00014754
0.000146966
0.000146897
0.000146825
0.000147127
0.000148086
0.000150089
0.000154162
0.000161204
0.000174297
0.000197268
0.000229724
0.000269193
0.000313843
0.000364782
0.00041971
0.000472158
0.000501449
0.000487281
0.000433311
0.000314931
1.46672e-05
2.78418e-06
7.60128e-05
0.000169277
0.000211921
0.000232329
0.000234023
0.000224561
0.000208125
0.000190197
0.000174052
0.000161248
0.000152852
0.000148966
0.000148334
0.000147562
0.000146923
0.000146727
0.000147022
0.00014805
0.000150208
0.000154438
0.000161628
0.000174752
0.000197791
0.000230277
0.000269573
0.000316857
0.00036821
0.000420944
0.000475728
0.000510093
0.000491531
0.000438045
0.000325397
1.52799e-05
2.80501e-06
7.65694e-05
0.000170782
0.000213328
0.000231885
0.000235393
0.000225273
0.000207232
0.000189524
0.00017282
0.000160771
0.000152666
0.000148668
0.000147261
0.00014653
0.000146498
0.000146457
0.000146715
0.000147638
0.00015012
0.0001546
0.000162036
0.000175496
0.000199108
0.000232315
0.000271873
0.00031753
0.000369655
0.000425227
0.000477621
0.000510702
0.000496243
0.000445281
0.0003288
1.54205e-05
2.82743e-06
7.73045e-05
0.000171412
0.000213999
0.000232949
0.000233462
0.000223239
0.000207491
0.000188755
0.000173325
0.000160818
0.000153064
0.000149859
0.000149598
0.000148127
0.00014724
0.000146848
0.000146997
0.000147962
0.000150461
0.000155005
0.000162548
0.00017624
0.000200244
0.000233857
0.000273786
0.000320035
0.000372579
0.000428213
0.000478979
0.000510366
0.000499162
0.000448705
0.000331531
1.54556e-05
2.79032e-06
7.61514e-05
0.000169474
0.00021322
0.000232628
0.000233757
0.00022441
0.000207963
0.000189353
0.000173966
0.000161559
0.000153411
0.000150403
0.000152802
0.000148495
0.000147107
0.000146756
0.000147117
0.000148264
0.000150709
0.000155359
0.000163068
0.000177057
0.000201841
0.000236528
0.000277637
0.000324889
0.000378046
0.00043348
0.000483083
0.000511204
0.000505535
0.00045089
0.000331957
1.54968e-05
2.79858e-06
7.64541e-05
0.000170413
0.000212277
0.000231525
0.000234816
0.000225077
0.000208503
0.00018999
0.000173163
0.00016119
0.000153417
0.000150402
0.000153276
0.000150924
0.000147593
0.000146949
0.000147132
0.000148244
0.000150645
0.000155266
0.000163114
0.000177543
0.00020298
0.000238525
0.000280785
0.000328606
0.000381831
0.000438732
0.000490755
0.00052206
0.000510697
0.000455616
0.000334905
1.56418e-05
2.82657e-06
7.70514e-05
0.000170907
0.000213432
0.000232545
0.000233156
0.000222731
0.000206277
0.000189461
0.00017345
0.000161511
0.000154005
0.000150169
0.000147342
0.000146071
0.000146181
0.000146383
0.000146712
0.000147781
0.000150467
0.000155235
0.000163151
0.000177687
0.000203192
0.000239323
0.000282971
0.000333737
0.000389419
0.000445336
0.000495232
0.00052649
0.000513198
0.000456558
0.000335732
1.56693e-05
2.79515e-06
7.64864e-05
0.00017052
0.000212883
0.000231911
0.000234629
0.000223976
0.000207395
0.000189786
0.000173504
0.000160878
0.000154094
0.000151118
0.000148801
0.000147092
0.000146562
0.000146425
0.000146736
0.000147831
0.000150607
0.000155453
0.000163469
0.00017837
0.000204697
0.000241409
0.000285558
0.000335318
0.000390893
0.000446896
0.000497058
0.000527795
0.000522828
0.000466977
0.000339343
1.58098e-05
2.79885e-06
7.6474e-05
0.000170712
0.000212902
0.00023082
0.000234155
0.000224031
0.000207212
0.000188216
0.000172574
0.000160289
0.000153392
0.000151024
0.000149247
0.000147997
0.000147119
0.000146705
0.000146902
0.000147905
0.000150636
0.000155595
0.000163873
0.000179198
0.000206006
0.000243516
0.000288474
0.000340448
0.00039715
0.000453718
0.000499656
0.000533664
0.000517628
0.000467252
0.000341142
1.59202e-05
2.81677e-06
7.66559e-05
0.000170726
0.000213126
0.000232343
0.000234276
0.00022372
0.000206837
0.000188878
0.000172226
0.000160078
0.000152006
0.000147723
0.000146631
0.000146869
0.000146613
0.000146475
0.000146698
0.000147729
0.000150465
0.00015536
0.000163553
0.000178529
0.000204344
0.00024047
0.000284937
0.000336936
0.000394986
0.000453061
0.000501574
0.000532044
0.000524478
0.000470286
0.000343626
1.60628e-05
2.82367e-06
7.70004e-05
0.00017127
0.000213831
0.000231505
0.000234013
0.000223714
0.000205955
0.000188032
0.000172822
0.00016063
0.000153197
0.000150694
0.00015232
0.000148447
0.000147173
0.00014678
0.000147073
0.000148102
0.000150801
0.000155669
0.000163825
0.000178815
0.00020474
0.000240665
0.000284253
0.000336364
0.000391754
0.000450768
0.00050208
0.000539087
0.000526052
0.000467315
0.000344113
1.60922e-05
2.79745e-06
7.6444e-05
0.000169237
0.000211844
0.000232223
0.000234138
0.000222259
0.000206425
0.000188422
0.000171865
0.000160402
0.000154762
0.000157894
0.000154314
0.000148881
0.00014727
0.000146846
0.000147182
0.000148514
0.00015121
0.000156233
0.000164678
0.000180157
0.000206695
0.000243196
0.000286818
0.000339296
0.000399278
0.00045933
0.000510635
0.000539577
0.000526847
0.000474273
0.000350132
1.62594e-05
2.82391e-06
7.69106e-05
0.000170547
0.000212745
0.000231473
0.000232221
0.000221086
0.000204754
0.000187526
0.000171474
0.000159626
0.00015135
0.000146787
0.000145863
0.000146646
0.000146625
0.000146593
0.00014703
0.000148349
0.000151071
0.000156113
0.000164561
0.000179892
0.000206421
0.000243138
0.000286914
0.000337577
0.000397318
0.000457611
0.000509464
0.00053386
0.000524062
0.000467972
0.000348604
1.6169e-05
2.80901e-06
7.65678e-05
0.000170564
0.000212809
0.000230636
0.000232211
0.00022084
0.000203885
0.000187279
0.0001713
0.000159704
0.000152001
0.000148616
0.000147833
0.000147605
0.000146809
0.000146577
0.00014705
0.000148387
0.000151185
0.000156362
0.000165046
0.000180918
0.000207921
0.000244556
0.000288068
0.000338537
0.000395161
0.000460224
0.000514912
0.000546626
0.000534337
0.000478081
0.000350409
1.62552e-05
2.78713e-06
7.62066e-05
0.000169874
0.000212352
0.000230355
0.000231872
0.000221576
0.000203655
0.000186236
0.000170715
0.000159552
0.000152337
0.0001493
0.000149103
0.000147807
0.000146786
0.000146417
0.000146707
0.000147978
0.000151197
0.000156754
0.000165871
0.000182546
0.000210926
0.000249315
0.000293643
0.000343204
0.000399207
0.000462512
0.000517444
0.00054718
0.000533803
0.000478713
0.000349265
1.62645e-05
2.8135e-06
7.65662e-05
0.00016929
0.00021149
0.000231355
0.000232961
0.000221226
0.000204798
0.000186854
0.00017146
0.000159872
0.000152687
0.000150141
0.000153023
0.000150516
0.000147472
0.000146716
0.00014679