/*--------------------------------*- C++ -*----------------------------------*\
  =========                 |
  \\      /  F ield         | OpenFOAM: The Open Source CFD Toolbox
   \\    /   O peration     | Website:  https://openfoam.org
    \\  /    A nd           | Version:  13
     \\/     M anipulation  |
\*---------------------------------------------------------------------------*/
FoamFile
{
    format      ascii;
    class       volScalarField;
    location    "10";
    object      omega;
}
// * * * * * * * * * * * * * * * * * * * * * * * * * * * * * * * * * * * * * //

dimensions      [0 0 -1 0 0 0 0];

internalField   nonuniform List<scalar> 
78750
(
678.67
75.4078
15.1502
15.1502
15.1502
15.1502
15.1502
15.1502
15.1502
15.1502
15.1502
15.1502
15.1502
15.1502
15.1502
15.1502
15.1502
15.1502
15.1502
15.1502
15.1502
15.1502
15.1502
15.1502
15.1502
15.1502
15.1502
15.1502
15.1502
15.1502
15.1502
15.1502
15.1502
75.4078
678.67
678.67
75.4078
2.66272
3.16944
3.32793
3.45821
3.53885
3.60837
3.60303
3.5642
3.51792
3.46994
3.41919
3.36898
3.32874
3.30148
3.28141
3.26455
3.248
3.23489
3.22558
3.22345
3.22368
3.2313
3.23991
3.24536
3.2439
3.2419
3.2384
3.23275
3.2483
3.29215
3.269
75.4078
678.67
678.67
75.4078
2.66272
3.39157
3.59997
3.71699
3.7374
3.70982
3.64427
3.5378
3.42208
3.30747
3.20387
3.14311
3.12845
3.12522
2.66272
2.66272
2.66272
2.66272
2.66272
2.66272
2.66272
2.66272
2.66272
2.66272
3.16036
3.13558
3.14641
3.18625
3.21634
3.24338
3.18447
75.4078
678.67
678.67
75.4078
2.66272
3.47157
3.66652
3.74907
3.74568
3.68653
3.58112
3.45622
3.33392
3.22924
3.16804
3.20181
3.13843
2.66272
2.66272
2.66272
2.66272
2.66272
2.66272
2.66272
2.66272
3.14037
3.16606
3.23011
3.27661
3.33901
3.24724
3.21001
3.22548
3.2521
3.17304
75.4078
678.67
678.67
75.4078
2.66272
3.53512
3.72977
3.79937
3.77939
3.70091
3.59089
3.46203
3.3342
3.22406
3.14693
2.66272
2.66272
2.66272
2.66272
2.66272
2.66272
2.66272
2.66272
2.66272
2.66272
2.66272
2.66272
3.12659
3.18084
3.19384
3.18991
3.19563
3.22478
3.2574
3.17254
75.4078
678.67
678.67
75.4078
3.13853
3.56117
3.76681
3.84485
3.82381
3.73245
3.60392
3.4637
3.33244
3.22687
3.15517
3.12475
3.13568
3.12062
2.66272
2.66272
2.66272
2.66272
2.66272
2.66272
2.66272
3.15895
3.13657
3.12657
3.13346
3.16141
3.19855
3.24535
3.29339
3.31974
3.17188
75.4078
678.67
678.67
75.4078
3.17342
3.59752
3.80222
3.87307
3.84765
3.75745
3.63035
3.48773
3.34884
3.23577
3.17303
3.19713
3.16099
3.13175
2.66272
2.66272
2.66272
2.66272
2.66272
2.66272
3.12718
3.19382
3.24813
3.19533
3.18261
3.20911
3.27047
3.34129
3.40294
3.40941
3.21731
75.4078
678.67
678.67
75.4078
3.18916
3.61565
3.82383
3.9007
3.8782
3.7883
3.66115
3.51928
3.38038
3.26074
3.17758
3.14732
3.12489
2.66272
2.66272
2.66272
2.66272
2.66272
2.66272
3.12282
3.122
3.12342
3.13468
3.16524
3.21055
3.26835
3.33486
3.40649
3.46781
3.47179
3.29589
75.4078
678.67
678.67
75.4078
3.20949
3.64054
3.85182
3.92768
3.90249
3.80967
3.67948
3.53432
3.39228
3.26922
3.18056
3.13477
3.14391
3.13034
2.66272
2.66272
2.66272
2.66272
2.66272
2.66272
2.66272
3.12875
3.15651
3.2016
3.25937
3.33113
3.41422
3.50749
3.59064
3.59507
3.37783
75.4078
678.67
678.67
75.4078
3.22797
3.65696
3.86813
3.94782
3.92443
3.83174
3.7007
3.55404
3.40967
3.28338
3.18975
3.13682
3.1233
2.66272
2.66272
2.66272
2.66272
2.66272
3.12597
3.12865
3.14063
3.16926
3.22215
3.2888
3.35498
3.4174
3.4973
3.59137
3.69033
3.714
3.47765
75.4078
678.67
678.67
75.4078
3.2371
3.67193
3.88876
3.97476
3.94871
3.84989
3.71248
3.56103
3.41342
3.28686
3.19435
3.14539
3.15362
3.1379
3.12792
3.12154
2.66272
2.66272
3.12147
3.14229
3.17751
3.23468
3.31959
3.41092
3.4863
3.54576
3.64152
3.74878
3.82378
3.80214
3.48602
75.4078
678.67
678.67
75.4078
3.25291
3.68491
3.90034
3.99287
3.96436
3.86314
3.72346
3.5714
3.42072
3.29435
3.19853
3.13924
2.66272
2.66272
3.12409
3.12393
3.12604
3.1309
3.13925
3.16939
3.22175
3.30717
3.42558
3.54666
3.63731
3.68144
3.72337
3.83938
3.96514
3.96332
3.65143
75.4078
678.67
678.67
75.4078
3.26303
3.6952
3.90794
3.99562
3.96185
3.86046
3.71902
3.55618
3.42424
3.30356
3.20945
3.15184
3.13251
3.12337
3.12696
3.12556
3.1274
3.13044
3.15339
3.19566
3.26439
3.37389
3.53052
3.70309
3.84704
3.92817
3.94274
3.94747
4.01473
3.99326
3.74908
75.4078
678.67
678.67
75.4078
3.27403
3.7064
3.9188
4.00274
3.96515
3.86256
3.72181
3.55604
3.40902
3.28835
3.19897
3.1434
2.66272
2.66272
2.66272
2.66272
2.66272
3.13503
3.16775
3.21891
3.29694
3.42007
3.60034
3.80883
4.00205
4.15098
4.23033
4.24138
4.20747
4.14926
3.85437
75.4078
678.67
678.67
75.4078
3.28311
3.71285
3.91804
3.98633
3.95201
3.8371
3.69336
3.5427
3.40306
3.28638
3.19981
3.14696
3.12477
3.12035
3.12695
3.12643
3.12465
3.14379
3.18276
3.24181
3.32928
3.46606
3.66746
3.90396
4.12927
4.31465
4.42565
4.44906
4.41282
4.30358
3.94663
75.4078
678.67
678.67
75.4078
3.30419
3.73238
3.92629
3.98262
3.94341
3.82424
3.67265
3.51827
3.37988
3.26774
3.18907
3.15027
3.16127
3.14982
3.13748
3.13156
3.12991
3.1511
3.19346
3.25659
3.34905
3.49731
3.7217
3.99116
4.25369
4.48568
4.6465
4.70421
4.66814
4.50691
4.08902
75.4078
678.67
678.67
75.4078
3.31174
3.74516
3.93353
3.95531
3.88795
3.77258
3.63585
3.49635
3.36644
3.25776
3.17922
3.13605
3.12471
3.1395
3.13567
3.13289
3.13214
3.15481
3.19935
3.26523
3.36223
3.52034
3.7645
4.05766
4.34277
4.59676
4.78239
4.86527
4.83858
4.66265
4.2162
75.4078
678.67
678.67
75.4078
3.32234
3.73173
3.93119
3.97104
3.89614
3.77149
3.62301
3.47485
3.34433
3.24047
3.16951
3.13229
3.12383
3.13551
3.13155
3.12956
3.12947
3.15179
3.19587
3.26121
3.35815
3.52158
3.77433
4.07624
4.37106
4.63859
4.84862
4.97022
4.97566
4.80607
4.35259
75.4078
678.67
678.67
75.4078
3.33154
3.73481
3.93179
3.96935
3.88466
3.75424
3.6027
3.45769
3.33171
3.23233
3.1675
3.14121
3.15489
3.14261
3.13135
3.12733
3.12707
3.14889
3.19295
3.25824
3.35665
3.53122
3.80547
4.13786
4.4722
4.76594
4.98701
5.11432
5.11109
4.9188
4.46748
75.4078
678.67
678.67
75.4078
3.32468
3.7411
3.91581
3.96263
3.89611
3.76566
3.60727
3.44301
3.31299
3.22037
3.17339
3.19525
3.16466
3.14393
3.1309
3.12816
3.13469
3.14726
3.18627
3.24872
3.34748
3.52663
3.80892
4.14079
4.47757
4.77273
5.00184
5.13603
5.16915
4.9992
4.56712
75.4078
678.67
678.67
75.4078
3.33898
3.74387
3.91259
3.96186
3.89528
3.76239
3.60055
3.44426
3.30887
3.21644
3.17253
3.19687
3.16995
3.14816
3.13501
3.1296
3.13265
3.14183
3.17738
3.23698
3.33541
3.52072
3.81025
4.14737
4.49472
4.82768
5.09233
5.24689
5.23179
5.05914
4.64041
75.4078
678.67
678.67
75.4078
3.34596
3.74669
3.92452
3.95725
3.87191
3.73734
3.58842
3.43022
3.30074
3.20893
3.16421
3.18648
3.16513
3.14564
3.13659
3.12794
3.12251
3.13413
3.1678
3.22439
3.3217
3.50179
3.77838
4.10298
4.44079
4.76784
5.04351
5.24696
5.25613
5.09969
4.70371
75.4078
678.67
678.67
75.4078
3.33162
3.74647
3.92615
3.95632
3.87414
3.73921
3.57883
3.43347
3.29717
3.20378
3.14774
3.128
3.15083
3.14296
3.13423
3.12935
3.1316
3.1366
3.16731
3.22223
3.3164
3.48667
3.73957
4.03467
4.35022
4.67894
5.00802
5.21196
5.25897
5.12466
4.7515
75.4078
678.67
678.67
75.4078
3.34041
3.74647
3.92369
3.95406
3.87013
3.73461
3.58059
3.41667
3.2916
3.20417
3.15458
3.1371
3.12685
3.1373
3.13225
3.12795
3.12934
3.13546
3.16629
3.22085
3.31345
3.48212
3.73241
4.0257
4.34934
4.68316
5.00317
5.24001
5.27526
5.15127
4.78718
75.4078
678.67
678.67
75.4078
3.34461
3.74948
3.92522
3.95164
3.86491
3.72785
3.57514
3.42171
3.2897
3.19914
3.15729
3.15119
3.13115
2.66272
3.12355
3.12244
2.66272
3.12965
3.15998
3.21238
3.30448
3.47359
3.72516
4.01929
4.34074
4.67327
4.97215
5.20841
5.27538
5.16286
4.80718
75.4078
678.67
678.67
75.4078
3.33543
3.73031
3.90204
3.92555
3.86125
3.73202
3.57736
3.42373
3.2925
3.19981
3.15868
3.18834
3.16186
3.12546
2.66272
3.12359
3.12732
3.13087
3.15856
3.20956
3.30078
3.468
3.71452
4.00085
4.31263
4.64426
4.98084
5.23056
5.28397
5.18012
4.83672
75.4078
678.67
678.67
75.4078
3.32815
3.74056
3.91587
3.93238
3.86541
3.72969
3.56287
3.40948
3.28744
3.19404
3.13993
2.66272
2.66272
3.13188
3.12829
3.12467
3.12537
3.12829
3.15585
3.20729
3.2983
3.46286
3.70848
3.99871
4.32109
4.64886
4.95068
5.22906
5.29341
5.19516
4.85652
75.4078
678.67
678.67
75.4078
3.34049
3.74281
3.90656
3.941
3.85738
3.72616
3.55803
3.40569
3.27853
3.19102
3.14217
3.12766
3.12247
3.13365
3.12696
3.12404
3.12605
3.12976
3.15692
3.20698
3.29761
3.46441
3.70842
3.99917
4.31604
4.65048
4.97573
5.22782
5.32444
5.2131
4.87928
75.4078
678.67
678.67
75.4078
3.32036
3.72631
3.9126
3.94482
3.86997
3.72844
3.56567
3.41114
3.2829
3.19272
3.14642
3.13621
3.12515
2.66272
2.66272
2.66272
2.66272
3.13338
3.16197
3.21323
3.30409
3.47003
3.71279
3.99686
4.3107
4.6411
4.9637
5.20256
5.31629
5.22738
4.89116
75.4078
678.67
678.67
75.4078
3.32383
3.72434
3.90452
3.92197
3.84508
3.71853
3.5524
3.40016
3.27535
3.1885
3.13826
3.12272
3.14141
2.66272
2.66272
3.12248
3.12685
3.13051
3.15882
3.21128
3.30558
3.47335
3.71753
4.00092
4.31094
4.65746
4.97836
5.22288
5.38654
5.25656
4.92872
75.4078
678.67
678.67
75.4078
3.3333
3.7242
3.90411
3.92393
3.84757
3.71773
3.55964
3.40741
3.28109
3.19135
3.14109
3.123
2.66272
3.13358
3.12878
3.12484
3.12629
3.13014
3.15894
3.21155
3.30493
3.47432
3.72093
4.0097
4.31945
4.65878
4.98693
5.26058
5.39638
5.27372
4.95359
75.4078
678.67
678.67
75.4078
3.33243
3.7212
3.9006
3.92301
3.85284
3.71417
3.55183
3.40077
3.27566
3.18727
3.14059
3.12644
3.1207
3.13211
3.12859
3.12476
3.12677
3.13112
3.16053
3.2137
3.30837
3.48
3.72775
4.01262
4.32844
4.66705
5.01905
5.29968
5.43386
5.3008
4.9758
75.4078
678.67
678.67
75.4078
3.33137
3.72999
3.89387
3.9198
3.83887
3.69965
3.54834
3.40028
3.27638
3.18796
3.14538
3.13842
3.12022
2.66272
3.12617
3.12658
3.12893
3.13259
3.16182
3.21578
3.31332
3.49101
3.74957
4.05189
4.37726
4.71178
5.01244
5.29595
5.45449
5.31529
4.9853
75.4078
678.67
678.67
75.4078
3.32362
3.72132
3.89233
3.91981
3.84861
3.71054
3.54797
3.39165
3.26822
3.18547
3.14919
3.18037
3.1631
3.1463
3.13388
3.12792
3.12827
3.13107
3.15997
3.21355
3.30997
3.48328
3.73303
4.02912
4.35618
4.69955
5.03641
5.32242
5.45877
5.32472
5.00583
75.4078
678.67
678.67
75.4078
3.33611
3.73762
3.90622
3.92355
3.8456
3.69814
3.54613
3.38909
3.26554
3.18087
3.13219
2.66272
2.66272
3.12804
3.12468
3.12258
3.12597
3.13047
3.16013
3.21408
3.31041
3.483
3.73232
4.01934
4.33656
4.67303
5.00446
5.33187
5.47736
5.33448
5.01629
75.4078
678.67
678.67
75.4078
3.32864
3.72166
3.9014
3.91494
3.84356
3.69552
3.54088
3.3903
3.26479
3.17937
3.13534
3.12279
2.66272
3.12828
3.12546
3.12289
3.12552
3.1302
3.16008
3.21446
3.31203
3.48862
3.74589
4.04646
4.37544
4.71824
5.05133
5.32997
5.47512
5.33898
5.02156
75.4078
678.67
678.67
75.4078
3.32735
3.73195
3.89456
3.92461
3.84263
3.70135
3.5359
3.3901
3.26399
3.18334
3.14854
3.17478
3.13538
3.13255
3.12594
3.12343
3.12613
3.1309
3.16087
3.21494
3.31328
3.49067
3.74414
4.03716
4.35527
4.67565
5.00304
5.33075
5.48391
5.34774
5.03281
75.4078
678.67
678.67
75.4078
3.33986
3.73783
3.90637
3.91746
3.84195
3.70135
3.53933
3.37991
3.25884
3.17688
3.13323
2.66272
3.14177
2.66272
2.66272
3.12126
3.12637
3.13106
3.16093
3.21642
3.31631
3.49593
3.74907
4.03615
4.34974
4.70516
5.03826
5.3222
5.47282
5.35418
5.04495
75.4078
678.67
678.67
75.4078
3.33136
3.7312
3.89365
3.92661
3.84286
3.698
3.53712
3.38557
3.26554
3.18407
3.14469
3.13466
3.15109
3.14287
3.13235
3.12717
3.12796
3.13122
3.16061
3.21535
3.31546
3.49646
3.75809
4.06221
4.38716
4.714
5.02118
5.29105
5.4488
5.36053
5.05293
75.4078
678.67
678.67
75.4078
3.32407
3.72299
3.90092
3.91244
3.8389
3.69954
3.53985
3.38482
3.26677
3.18681
3.14638
3.12742
3.12316
3.13447
3.13061
3.1277
3.1301
3.13332
3.16251
3.21738
3.31793
3.49864
3.7558
4.0568
4.3862
4.72829
5.06154
5.30998
5.49509
5.37848
5.06482
75.4078
678.67
678.67
75.4078
3.33471
3.73534
3.90363
3.92156
3.83777
3.695
3.52907
3.38469
3.2603
3.18122
3.14068
3.13018
3.14886
3.13888
3.12737
2.66272
3.12452
3.12987
3.15909
3.21396
3.31554
3.49918
3.76049
4.06362
4.39488
4.73944
5.06625
5.31066
5.49526
5.39193
5.08844
75.4078
678.67
678.67
75.4078
3.32651
3.71684
3.89809
3.92455
3.8419
3.69684
3.52474
3.37355
3.2577
3.18079
3.14155
3.12413
3.12105
3.13215
3.12611
2.66272
2.66272
3.12888
3.15928
3.21359
3.31378
3.49594
3.75695
4.0613
4.39185
4.72889
5.08776
5.37069
5.49366
5.41765
5.09925
75.4078
678.67
678.67
75.4078
3.31956
3.72535
3.88918
3.9074
3.82224
3.67969
3.52321
3.37317
3.25444
3.17219
3.13146
3.12684
3.14978
3.14116
3.13131
3.13045
3.12959
3.13197
3.16082
3.21522
3.31629
3.49885
3.75913
4.06134
4.38929
4.72233
5.07281
5.37924
5.50959
5.42772
5.10713
75.4078
678.67
678.67
75.4078
3.32829
3.72831
3.8985
3.91811
3.83374
3.69251
3.53144
3.37818
3.25531
3.17885
3.145
3.13656
3.12954
3.13628
3.12857
3.12457
3.1268
3.13175
3.16031
3.21404
3.31481
3.49495
3.75011
4.05089
4.38319
4.73361
5.06121
5.38907
5.51237
5.47348
5.18312
75.4078
678.67
678.67
75.4078
3.32125
3.72225
3.89349
3.92012
3.83758
3.68627
3.52524
3.38018
3.26026
3.181
3.14119
3.12327
2.66272
3.13199
3.12825
3.12533
3.12822
3.13235
3.16178
3.21629
3.31548
3.49336
3.74598
4.04022
4.36748
4.71862
5.09244
5.39806
5.58129
5.51125
5.18668
75.4078
678.67
678.67
75.4078
3.30862
3.7231
3.89408
3.90683
3.8241
3.69387
3.5331
3.37347
3.2494
3.16623
3.12741
3.12069
2.66272
3.12798
3.12623
3.1242
3.1269
3.13298
3.16428
3.22094
3.32344
3.5075
3.76942
4.07536
4.41077
4.76291
5.10458
5.41091
5.58954
5.52842
5.17444
75.4078
678.67
678.67
75.4078
3.31672
3.71994
3.8826
3.91654
3.83332
3.69404
3.53291
3.37922
3.25316
3.17226
3.14422
3.17865
3.15433
3.12397
3.12552
3.12173
2.66272
3.13075
3.16296
3.21976
3.32285
3.50515
3.75998
4.0565
4.38416
4.73332
5.08441
5.39165
5.59526
5.53656
5.1849
75.4078
678.67
678.67
75.4078
3.32649
3.72344
3.88264
3.9163
3.83378
3.69393
3.53516
3.38399
3.25883
3.17576
3.14063
3.16641
3.1537
3.14023
3.12834
2.66272
2.66272
3.13282
3.16654
3.22436
3.32837
3.51084
3.76636
4.0662
4.39823
4.74778
5.07373
5.37811
5.56797
5.55182
5.24741
75.4078
678.67
678.67
75.4078
3.32136
3.72044
3.88214
3.90235
3.82699
3.68014
3.52032
3.37153
3.2543
3.17854
3.14154
3.12443
2.66272
3.13146
3.12641
3.12286
3.12011
3.13435
3.16927
3.22942
3.33766
3.52803
3.79025
4.08442
4.39704
4.73906
5.10958
5.41314
5.59542
5.54812
5.24822
75.4078
678.67
678.67
75.4078
3.31409
3.71346
3.8922
3.91283
3.82146
3.68696
3.52797
3.37774
3.2588
3.17989
3.14065
3.12284
2.66272
3.13209
3.12581
2.66272
2.66272
3.13288
3.16804
3.22865
3.33785
3.52654
3.78553
4.08319
4.39917
4.73586
5.07096
5.36331
5.54466
5.51403
5.25811
75.4078
678.67
678.67
75.4078
3.32688
3.72757
3.89823
3.92014
3.83578
3.69155
3.53285
3.38062
3.25014
3.16886
3.12861
3.12678
3.14549
3.1361
3.12901
3.12596
3.13003
3.13796
3.17185
3.2325
3.34107
3.53013
3.79019
4.08798
4.41729
4.74222
5.06899
5.36262
5.53974
5.50562
5.23552
75.4078
678.67
678.67
75.4078
3.32277
3.71146
3.87979
3.9016
3.81869
3.68173
3.51367
3.36471
3.24967
3.17341
3.14571
3.17864
3.15628
3.12428
3.12531
3.12314
3.12085
3.13688
3.17483
3.23955
3.35416
3.55303
3.82176
4.12163
4.4428
4.78204
5.11589
5.4021
5.56736
5.52835
5.27612
75.4078
678.67
678.67
75.4078
3.32258
3.71257
3.88391
3.90943
3.82542
3.68448
3.52368
3.37294
3.24942
3.17248
3.14493
3.17681
3.16191
3.14139
3.12856
3.12351
3.12171
3.13761
3.17506
3.23913
3.35481
3.55505
3.82809
4.1362
4.4651
4.80527
5.13703
5.42313
5.59924
5.5499
5.24817
75.4078
678.67
678.67
75.4078
3.32191
3.7125
3.88998
3.91193
3.81632
3.68316
3.52936
3.37976
3.25587
3.17111
3.13262
3.12569
3.14658
3.13849
3.12903
3.12642
3.13143
3.14138
3.17802
3.24269
3.35877
3.56038
3.83325
4.14246
4.47126
4.81911
5.1642
5.46558
5.64757
5.58373
5.26115
75.4078
678.67
678.67
75.4078
3.31821
3.72158
3.88241
3.91154
3.82804
3.68277
3.51267
3.3617
3.24375
3.17025
3.13672
3.13325
3.12788
3.13402
3.12634
3.12364
3.12282
3.13989
3.17956
3.24683
3.36846
3.57872
3.86297
4.18033
4.51145
4.86092
5.21305
5.54554
5.69247
5.60258
5.27464
75.4078
678.67
678.67
75.4078
3.32942
3.72599
3.89275
3.89933
3.81838
3.67454
3.51421
3.36573
3.24704
3.16913
3.13659
3.13786
3.12967
3.13487
3.12964
3.12828
3.1334
3.14296
3.18031
3.2471
3.36822
3.57776
3.85911
4.17853
4.51541
4.86892
5.22177
5.55601
5.74269
5.64165
5.31226
75.4078
678.67
678.67
75.4078
3.32431
3.72003
3.87924
3.90664
3.80953
3.67421
3.51645
3.36793
3.24739
3.16996
3.14152
3.17193
3.15578
3.13884
3.13076
3.12893
3.13487
3.14496
3.18294
3.25099
3.37394
3.58341
3.86416
4.18058
4.51567
4.86996
5.22707
5.56864
5.74649
5.66047
5.34098
75.4078
678.67
678.67
75.4078
3.31674
3.71473
3.88898
3.90961
3.82191
3.67469
3.51061
3.3614
3.24423
3.16676
3.13555
3.13424
3.12251
3.13179
3.12774
3.12531
3.12475
3.14331
3.18487
3.2553
3.38079
3.59485
3.88184
4.20104
4.54756
4.90916
5.26304
5.57654
5.7303
5.68678
5.38961
75.4078
678.67
678.67
75.4078
3.33038
3.72942
3.89577
3.90835
3.81902
3.67474
3.51129
3.35869
3.2456
3.17138
3.14636
3.18114
3.16569
3.14356
3.13311
3.1287
3.12735
3.14574
3.18848
3.26021
3.38786
3.60461
3.89336
4.21417
4.56014
4.9255
5.28454
5.58604
5.76723
5.70747
5.40249
75.4078
678.67
678.67
75.4078
3.32581
3.71458
3.87785
3.9024
3.81141
3.6736
3.51313
3.36639
3.24913
3.17216
3.13161
2.66272
3.13895
3.13531
3.12862
3.12779
3.13502
3.14825
3.19125
3.265
3.39663
3.62023
3.91741
4.24537
4.5952
4.96284
5.31827
5.61775
5.77571
5.70898
5.41835
75.4078
678.67
678.67
75.4078
3.31662
3.72228
3.88817
3.89828
3.8215
3.67768
3.51497
3.36457
3.24535
3.17252
3.13164
2.66272
2.66272
3.12966
3.12832
3.12743
3.13407
3.14833
3.19101
3.26518
3.39931
3.62816
3.93441
4.27644
4.62762
4.98882
5.35101
5.66408
5.85764
5.78996
5.44483
75.4078
678.67
678.67
75.4078
3.33168
3.7286
3.89385
3.90116
3.81627
3.67223
3.51245
3.36031
3.25174
3.18679
3.16209
3.13829
3.12335
3.13161
3.12758
3.1255
3.12592
3.1462
3.19007
3.26425
3.39852
3.62856
3.93562
4.28552
4.66365
5.04411
5.38974
5.67853
5.86478
5.79939
5.45891
75.4078
678.67
678.67
75.4078
3.31376
3.71091
3.87873
3.90706
3.81034
3.66792
3.51293
3.36472
3.24526
3.18681
3.17646
3.14823
3.12535
3.13042
3.12634
3.12604
3.1269
3.14792
3.19281
3.26847
3.40577
3.63941
3.94577
4.28667
4.6669
5.04979
5.39254
5.68695
5.86587
5.81588
5.47607
75.4078
678.67
678.67
75.4078
3.32645
3.71814
3.87837
3.89656
3.81611
3.67343
3.50744
3.35243
3.2434
3.18468
3.20851
3.18336
3.1603
3.14105
3.12952
3.12581
3.12641
3.14769
3.19396
3.27208
3.41356
3.6521
3.96673
4.31577
4.68212
5.06258
5.42714
5.69919
5.86602
5.8031
5.47438
75.4078
678.67
678.67
75.4078
3.31674
3.70972
3.87616
3.89899
3.81026
3.6585
3.50481
3.35488
3.23421
3.15821
3.12372
3.12217
3.14756
3.13597
3.1282
3.12543
3.12546
3.14639
3.19182
3.26914
3.40771
3.6381
3.9411
4.28286
4.6513
5.04536
5.40471
5.70054
5.89812
5.80166
5.51746
75.4078
678.67
678.67
75.4078
3.32965
3.72518
3.88576
3.89329
3.81196
3.66711
3.50589
3.35734
3.23786
3.15842
3.12167
2.66272
3.14499
3.13868
3.13124
3.12809
3.12788
3.14874
3.19472
3.27209
3.41108
3.64302
3.94754
4.29423
4.66817
5.05463
5.42879
5.72308
5.90391
5.83903
5.51469
75.4078
678.67
678.67
75.4078
3.32372
3.72176
3.88855
3.90246
3.8119
3.66953
3.50808
3.35353
3.23376
3.15609
2.66272
2.66272
3.14176
3.13446
3.1288
3.1291
3.13763
3.15345
3.20006
3.28008
3.4229
3.65937
3.96469
4.29879
4.66397
5.06384
5.44231
5.73375
5.89779
5.80873
5.50534
75.4078
678.67
678.67
75.4078
3.31992
3.7124
3.8855
3.89847
3.80026
3.65001
3.49193
3.35022
3.23518
3.15831
3.1249
3.12398
3.14496
3.1341
3.12713
3.12667
3.13521
3.15199
3.19902
3.27954
3.42303
3.65967
3.96929
4.31119
4.67307
5.04855
5.42301
5.73059
5.90317
5.86229
5.50958
75.4078
678.67
678.67
75.4078
3.3279
3.72441
3.88539
3.89606
3.79463
3.64906
3.49428
3.34701
3.23511
3.16189
3.1334
3.13818
3.1483
3.13371
3.12631
3.12641
3.13539
3.15298
3.20111
3.28349
3.4305
3.67179
3.9813
4.32534
4.69216
5.05945
5.46104
5.78434
5.95276
5.87029
5.55644
75.4078
678.67
678.67
75.4078
3.30804
3.70316
3.8771
3.89132
3.79009
3.64037
3.49155
3.34241
3.23516
3.16608
3.14131
3.16848
3.15297
3.138
3.12771
3.12413
3.12491
3.15282
3.20543
3.29168
3.44572
3.69925
4.02304
4.37043
4.72362
5.08568
5.44685
5.78067
5.94269
5.84894
5.55158
75.4078
678.67
678.67
75.4078
3.32127
3.71403
3.87144
3.88551
3.79698
3.63946
3.47851
3.33785
3.23047
3.1651
3.13355
2.66272
2.66272
3.12829
3.12605
3.12448
3.12466
3.15161
3.2035
3.28946
3.44251
3.69253
4.0151
4.37275
4.75989
5.14008
5.49439
5.78813
5.95766
5.89136
5.55931
75.4078
678.67
678.67
75.4078
3.32459
3.71747
3.88218
3.89654
3.80045
3.65044
3.49011
3.34483
3.23367
3.16573
3.13686
3.12978
3.1459
3.13506
3.12551
3.12313
3.1256
3.15272
3.20517
3.2907
3.44245
3.69316
4.01667
4.37912
4.75945
5.14379
5.49757
5.79558
5.95352
5.85701
5.54694
75.4078
678.67
678.67
75.4078
3.30491
3.70849
3.86361
3.87596
3.79413
3.64176
3.48305
3.34587
3.23942
3.18446
3.17238
3.13984
3.12137
3.12754
3.12531
3.12774
3.13973
3.16093
3.21305
3.30123
3.4599
3.71813
4.04398
4.39509
4.77251
5.17322
5.53152
5.81439
5.93046
5.87781
5.5306
75.4078
678.67
678.67
75.4078
3.31723
3.70495
3.87422
3.88666
3.79887
3.65358
3.48663
3.34496
3.23739
3.18776
3.21663
3.15347
3.15015
3.13505
3.127
3.12431
3.12643
3.15579
3.21064
3.30075
3.46086
3.71983
4.05178
4.41932
4.80307
5.1817
5.53935
5.81839
5.92205
5.8454
5.52803
75.4078
678.67
678.67
75.4078
3.32225
3.71735
3.87739
3.88607
3.78301
3.63766
3.48564
3.34306
3.23575
3.18406
3.22671
3.19612
3.16295
3.1418
3.13141
3.1283
3.13037
3.15952
3.21398
3.30349
3.46197
3.7188
4.04713
4.41352
4.80079
5.19195
5.55563
5.83836
5.93987
5.84845
5.52769
75.4078
678.67
678.67
75.4078
3.31394
3.69901
3.87047
3.8834
3.78887
3.64198
3.48329
3.34058
3.23073
3.16558
3.13983
3.1386
3.12689
2.66272
3.12562
3.1281
3.1328
3.1645
3.22214
3.31632
3.48289
3.74742
4.07315
4.42488
4.80934
5.2017
5.56431
5.84691
5.96085
5.87517
5.54927
75.4078
678.67
678.67
75.4078
3.30811
3.70813
3.86254
3.88251
3.78979
3.6416
3.48154
3.33804
3.23079
3.17418
3.16105
3.14701
3.12793
2.66272
2.66272
3.12485
3.13085
3.16236
3.21892
3.31225
3.47969
3.74963
4.08586
4.44912
4.81603
5.18623
5.53927
5.82419
5.96313
5.89379
5.5544
75.4078
678.67
678.67
75.4078
3.31979
3.71221
3.868
3.8623
3.77782
3.63195
3.474
3.33114
3.22474
3.16023
3.13877
3.16793
3.15616
3.14078
3.13173
3.12901
3.13207
3.16303
3.22026
3.31407
3.48019
3.7456
4.08082
4.44886
4.82324
5.19253
5.53887
5.8495
6.02788
5.9394
5.60933
75.4078
678.67
678.67
75.4078
3.31073
3.70603
3.86566
3.87429
3.7689
3.62129
3.46712
3.33109
3.22675
3.16764
3.14436
3.12759
3.1403
3.13217
3.1274
3.12808
3.13237
3.16415
3.22198
3.31735
3.48839
3.76183
4.09959
4.46398
4.85431
5.24426
5.60795
5.85756
6.0317
5.94119
5.60008
75.4078
678.67
678.67
75.4078
3.29998
3.69425
3.86621
3.87973
3.78317
3.63471
3.47439
3.33056
3.22649
3.17438
3.16498
3.1462
3.12933
2.66272
2.66272
3.12587
3.13233
3.16496
3.22398
3.32182
3.4961
3.77314
4.11937
4.49573
4.88318
5.25703
5.62279
5.9139
6.04845
5.94787
5.58251
75.4078
678.67
678.67
75.4078
3.30925
3.70348
3.85222
3.86048
3.77403
3.63075
3.47268
3.33154
3.22759
3.17148
3.15607
3.13641
3.14715
3.13742
3.1313
3.13031
3.13351
3.16502
3.22326
3.31982
3.49062
3.76143
4.10245
4.47951
4.87343
5.25723
5.63501
5.91653
6.04588
5.92826
5.57545
75.4078
678.67
678.67
75.4078
3.30127
3.68758
3.84788
3.86431
3.76551
3.632
3.47214
3.32313
3.22143
3.17407
3.17227
3.14792
3.12765
2.66272
3.12635
3.12912
3.13387
3.16642
3.22564
3.32368
3.49759
3.77238
4.11281
4.48596
4.8904
5.28991
5.63913
5.89209
6.01835
5.93372
5.59892
75.4078
678.67
678.67
75.4078
3.29123
3.6941
3.85599
3.85556
3.77369
3.61784
3.46558
3.32782
3.22689
3.18195
3.21828
3.1848
3.15529
3.13789
3.12885
3.12796
3.13283
3.16787
3.23036
3.33206
3.51153
3.79214
4.13572
4.50422
4.89911
5.29213
5.65333
5.94133
6.03109
5.95087
5.58172
75.4078
678.67
678.67
75.4078
3.28693
3.69494
3.85713
3.85841
3.77018
3.62218
3.4596
3.32059
3.2219
3.18108
3.21939
3.18729
3.15518
3.13202
2.66272
2.66272
3.1278
3.16573
3.2296
3.33231
3.5122
3.79176
4.13514
4.5053
4.89156
5.29235
5.65712
5.94849
6.08185
5.94425
5.62223
75.4078
678.67
678.67
75.4078
3.2838
3.68864
3.84359
3.86053
3.76814
3.6262
3.46863
3.32383
3.22247
3.17948
3.21858
3.19204
3.16051
3.13911
3.12958
2.66272
3.13218
3.17046
3.23532
3.34013
3.52303
3.80507
4.14665
4.5132
4.89866
5.29652
5.65221
5.95829
6.07571
5.94911
5.62294
75.4078
678.67
678.67
75.4078
3.29477
3.68054
3.8472
3.85539
3.74965
3.60777
3.45623
3.32334
3.21738
3.1566
3.13197
3.15784
3.14527
3.13148
2.66272
2.66272
3.13303
3.17364
3.24053
3.34815
3.53692
3.827
4.17852
4.55368
4.93148
5.32546
5.67126
5.96786
6.09419
5.97071
5.64418
75.4078
678.67
678.67
75.4078
3.2982
3.69322
3.85079
3.84497
3.74673
3.60689
3.45415
3.32078
3.2197
3.15958
3.13384
3.12478
2.66272
3.12921
3.126
3.1205
3.13487
3.17448
3.24099
3.34877
3.53641
3.82251
4.17172
4.55042
4.93764
5.33438
5.6906
5.95873
6.09907
6.00604
5.65543
75.4078
678.67
678.67
75.4078
3.28085
3.67414
3.83335
3.8505
3.75524
3.61078
3.45814
3.31788
3.21464
3.15546
3.14096
3.16809
3.15325
3.13801
3.13036
3.13093
3.13882
3.17796
3.24581
3.35504
3.54356
3.83126
4.17891
4.5562
4.94977
5.3518
5.69575
5.96437
6.11174
6.01844
5.66788
75.4078
678.67
678.67
75.4078
3.28886
3.68061
3.83408
3.83236
3.75433
3.61003
3.45589
3.31957
3.21428
3.15251
3.13208
3.12119
2.66272
2.66272
2.66272
2.66272
3.13584
3.18076
3.25287
3.36754
3.56458
3.86081
4.2133
4.58399
4.97017
5.36852
5.71747
6.01854
6.11607
6.00468
5.66526
75.4078
678.67
678.67
75.4078
3.28803
3.67882
3.83259
3.82916
3.73787
3.60157
3.44702
3.30861
3.21343
3.16586
3.19257
3.12654
2.66272
2.66272
2.66272
2.66272
3.13747
3.18165
3.25329
3.36824
3.56665
3.86271
4.21609
4.59505
4.97527
5.37766
5.74671
6.00668
6.15884
6.04465
5.67984
75.4078
678.67
678.67
75.4078
3.28039
3.67341
3.83017
3.83442
3.7437
3.5959
3.44697
3.30896
3.20956
3.14744
2.66272
3.12207
2.66272
2.66272
2.66272
2.66272
3.13918
3.18356
3.25535
3.37057
3.56872
3.86681
4.22059
4.60017
4.98953
5.3824
5.74945
6.03815
6.15054
6.03593
5.67728
75.4078
678.67
678.67
75.4078
3.26691
3.65838
3.81826
3.83313
3.74269
3.59799
3.43737
3.30337
3.20803
3.15207
3.13281
3.1274
2.66272
3.12895
3.12917
3.13334
3.14452
3.18767
3.26053
3.37845
3.58335
3.88953
4.24675
4.62125
5.01579
5.41666
5.75827
6.03864
6.13714
6.03835
5.67844
75.4078
678.67
678.67
75.4078
3.2845
3.67706
3.83256
3.83449
3.736
3.5901
3.43755
3.30291
3.20972
3.16245
3.15366
3.14183
3.12596
2.66272
2.66272
2.66272
3.1408
3.18849
3.26357
3.38247
3.58659
3.89287
4.25438
4.63777
5.03463
5.43559
5.79415
6.04697
6.13139
6.04098
5.67957
75.4078
678.67
678.67
75.4078
3.26424
3.65688
3.81776
3.83474
3.73818
3.59217
3.43546
3.3058
3.2078
3.15106
3.134
3.16038
3.15153
3.13987
3.13335
3.13534
3.14536
3.18886
3.26239
3.38236
3.58786
3.89568
4.25678
4.63728
5.02954
5.42163
5.80884
6.08109
6.19703
6.06513
5.70035
75.4078
678.67
678.67
75.4078
3.26601
3.6596
3.82629
3.83411
3.73755
3.59309
3.44298
3.3093
3.21146
3.15595
3.13468
2.66272
2.66272
3.13036
3.13137
3.13519
3.14512
3.18843
3.26248
3.38255
3.59109
3.90161
4.26569
4.65116
5.05354
5.46882
5.81596
6.08794
6.19957
6.07709
5.70983
75.4078
678.67
678.67
75.4078
3.27673
3.6686
3.82734
3.8369
3.73935
3.5919
3.42998
3.29654
3.20071
3.15143
3.12884
2.66272
2.66272
3.12759
3.12912
3.13455
3.14551
3.18961
3.264
3.38503
3.59502
3.9067
4.2725
4.66147
5.07013
5.46061
5.79648
6.09656
6.20951
6.08351
5.71507
75.4078
678.67
678.67
75.4078
3.28114
3.67181
3.82007
3.83403
3.73389
3.57875
3.42549
3.29301
3.19926
3.14892
3.12816
2.66272
2.66272
3.12731
3.12929
3.13567
3.14787
3.19315
3.26932
3.39424
3.60979
3.92399
4.28762
4.66941
5.05961
5.4462
5.82376
6.09513
6.20273
6.06561
5.71169
75.4078
678.67
678.67
75.4078
3.25909
3.65578
3.82451
3.83144
3.7366
3.5868
3.43036
3.29496
3.19759
3.14735
3.12807
2.66272
2.66272
3.12701
3.12719
3.13291
3.14638
3.19234
3.2696
3.39476
3.6102
3.92616
4.29459
4.68443
5.08922
5.50162
5.83562
6.10525
6.17486
6.03493
5.67199
75.4078
678.67
678.67
75.4078
3.26603
3.65105
3.80056
3.80402
3.71838
3.58476
3.43237
3.2972
3.19795
3.14599
3.12827
3.12429
3.13949
3.13423
3.12956
3.13451
3.14772
3.19363
3.27068
3.39631
3.61474
3.93689
4.31259
4.71441
5.12304
5.51479
5.84936
6.0914
6.18123
6.07292
5.70267
75.4078
678.67
678.67
75.4078
3.26537
3.65603
3.81328
3.8095
3.71846
3.57007
3.41847
3.2892
3.19751
3.14987
3.13919
3.1536
3.12489
3.12578
2.66272
3.12262
3.1457
3.19465
3.27321
3.40124
3.62014
3.93862
4.3126
4.70891
5.11639
5.51237
5.85291
6.13437
6.23607
6.0793
5.69459
75.4078
678.67
678.67
75.4078
3.26299
3.64933
3.80293
3.81479
3.71532
3.57672
3.42539
3.29448
3.20123
3.16795
3.20858
3.18183
3.14984
2.66272
2.66272
3.12224
3.14475
3.19381
3.27284
3.40003
3.61653
3.93247
4.3033
4.69535
5.09765
5.49988
5.88915
6.15112
6.24676
6.09598
5.69767
75.4078
678.67
678.67
75.4078
3.26575
3.65915
3.81368
3.81743
3.72264
3.58099
3.42875
3.29439
3.19464
3.13539
2.66272
2.66272
2.66272
3.12575
3.12721
3.13448
3.1487
3.19623
3.27509
3.40374
3.62543
3.94844
4.32224
4.71984
5.12226
5.51664
5.88874
6.15653
6.24986
6.11982
5.75623
75.4078
678.67
678.67
75.4078
3.26252
3.65711
3.81253
3.81551
3.71446
3.57805
3.42773
3.29511
3.19793
3.14392
3.12713
2.66272
2.66272
2.66272
2.66272
2.66272
3.14462
3.19538
3.27559
3.40568
3.62887
3.95226
4.32673
4.72259
5.12348
5.51497
5.86905
6.13726
6.25085
6.11955
5.76195
75.4078
678.67
678.67
75.4078
3.25203
3.65474
3.81134
3.81623
3.72041
3.57677
3.42606
3.29513
3.20032
3.16461
3.19504
3.13164
2.66272
2.66272
2.66272
3.12395
3.14917
3.19997
3.28087
3.41243
3.6374
3.96077
4.33273
4.72652
5.13243
5.52344
5.87573
6.17948
6.29425
6.16083
5.77251
75.4078
678.67
678.67
75.4078
3.25337
3.6505
3.80655
3.81273
3.71473
3.56831
3.41065
3.28055
3.19325
3.1566
3.1876
3.16835
3.12923
3.12853
2.66272
3.1252
3.15061
3.20302
3.2863
3.42196
3.65457
3.9895
4.37853
4.78586
5.19145
5.58097
5.92084
6.17591
6.29242
6.16004
5.77613
75.4078
678.67
678.67
75.4078
3.26042
3.65252
3.80795
3.81289
3.71429
3.56707
3.41379
3.28025
3.18916
3.13861
2.66272
2.66272
2.66272
2.66272
3.12207
3.12287
3.14907
3.20152
3.28462
3.41952
3.64902
3.97763
4.36172
4.77231
5.18881
5.58793
5.9361
6.2157
6.29641
6.14138
5.76411
75.4078
678.67
678.67
75.4078
3.25716
3.65074
3.80581
3.81066
3.71005
3.56513
3.41464
3.2828
3.1908
3.14698
3.14027
3.13149
3.12253
2.66272
2.66272
3.12481
3.15122
3.20365
3.28657
3.42204
3.65379