/*--------------------------------*- C++ -*----------------------------------*\
  =========                 |
  \\      /  F ield         | OpenFOAM: The Open Source CFD Toolbox
   \\    /   O peration     | Website:  https://openfoam.org
    \\  /    A nd           | Version:  13
     \\/     M anipulation  |
\*---------------------------------------------------------------------------*/
FoamFile
{
    format      ascii;
    class       volScalarField;
    location    "10";
    object      p_rgh;
}
// * * * * * * * * * * * * * * * * * * * * * * * * * * * * * * * * * * * * * //

dimensions      [0 2 -2 0 0 0 0];

internalField   nonuniform List<scalar> 
78750
(
0.073755
0.0737562
0.0737198
0.0736358
0.0734468
0.0731373
0.0727199
0.0722019
0.0715465
0.0709054
0.0703316
0.0697767
0.0692507
0.0688666
0.0685317
0.068134
0.0678702
0.067637
0.067455
0.0672977
0.0671585
0.0670278
0.0669036
0.0667814
0.066663
0.0665431
0.0664202
0.0662989
0.0661711
0.066073
0.0660077
0.0659262
0.065828
0.0656998
0.0654612
0.0725082
0.0721334
0.0717299
0.0712394
0.0707465
0.0701753
0.0695139
0.068913
0.0682898
0.0677259
0.0672179
0.0668254
0.0665128
0.0662844
0.066152
0.0660416
0.0659201
0.0658733
0.0658401
0.0657981
0.065738
0.0656555
0.0655518
0.0654158
0.0652254
0.0649504
0.0645901
0.064177
0.0636744
0.0630492
0.0623327
0.0615353
0.0606622
0.059698
0.058618
0.0723598
0.0717067
0.0710069
0.0702761
0.0695223
0.0687931
0.0681055
0.0675801
0.0672232
0.0668827
0.0665631
0.0663098
0.066135
0.0660103
0.0659246
0.0658919
0.0658506
0.0658106
0.0657569
0.0656781
0.0655591
0.0653872
0.0651467
0.0648186
0.0643811
0.0638197
0.0631241
0.0622663
0.0612609
0.060102
0.0587524
0.057241
0.0555875
0.0538054
0.051905
0.0731455
0.0722263
0.0713026
0.0704073
0.0695516
0.0687693
0.0680856
0.0674981
0.0670144
0.0666485
0.0663675
0.0661477
0.0659824
0.065861
0.0657708
0.0657029
0.065639
0.0655623
0.065468
0.0653392
0.0651584
0.0649051
0.064555
0.0640811
0.063457
0.062658
0.0616581
0.0604401
0.0589727
0.0572531
0.0552922
0.0530931
0.0506903
0.0481188
0.0454202
0.0746091
0.0734429
0.0723067
0.0712263
0.0702209
0.0693183
0.0685293
0.0678588
0.0673046
0.0668547
0.0664985
0.0662231
0.066014
0.0658569
0.0657375
0.065639
0.0655426
0.0654365
0.0652996
0.0651146
0.0648653
0.0645222
0.064052
0.0634226
0.0626052
0.0615632
0.0602518
0.0586502
0.0567325
0.0544796
0.0519136
0.0490441
0.0459135
0.0425692
0.0390752
0.0762643
0.0748455
0.0734761
0.0721841
0.0709944
0.0699293
0.0690003
0.0682093
0.0675519
0.0670186
0.0665949
0.0662644
0.0660101
0.0658155
0.0656644
0.0655378
0.0654129
0.0652715
0.0650967
0.0648679
0.0645571
0.0641316
0.063554
0.0627857
0.061783
0.0605043
0.0588983
0.0569267
0.0545689
0.0518122
0.048649
0.0451145
0.0412569
0.0371421
0.0328535
0.0782666
0.0765943
0.0749846
0.0734684
0.0720756
0.0708301
0.069744
0.0688199
0.0680521
0.0674287
0.0669334
0.0665475
0.0662513
0.0660253
0.0658508
0.0657068
0.0655697
0.0654173
0.0652286
0.0649784
0.0646344
0.0641568
0.0635004
0.0626197
0.0614616
0.0599732
0.0580969
0.0557926
0.0530192
0.0497582
0.0460192
0.041833
0.0372533
0.0323715
0.0272924
0.0802219
0.0782919
0.0764349
0.0746887
0.0730874
0.0716562
0.0704086
0.0693469
0.0684648
0.0677486
0.0671796
0.0667361
0.0663953
0.0661344
0.0659319
0.0657648
0.0656069
0.065433
0.0652188
0.0649346
0.0645432
0.063999
0.0632507
0.0622432
0.060917
0.0592036
0.0570492
0.0543859
0.0511828
0.0474177
0.0430936
0.038248
0.032961
0.0273296
0.0214758
0.0823262
0.0801394
0.078035
0.0760564
0.0742418
0.0726196
0.0712048
0.0700001
0.0689981
0.0681834
0.0675349
0.0670281
0.0666371
0.0663357
0.066098
0.065897
0.0657036
0.0654905
0.0652302
0.0648883
0.0644229
0.0637836
0.0629145
0.0617536
0.0602303
0.0582653
0.0558028
0.0527614
0.0491077
0.0448246
0.0399174
0.0344252
0.0284359
0.0220546
0.0154207
0.084431
0.0819862
0.0796347
0.0774241
0.0753977
0.0735862
0.0720062
0.0706607
0.0695415
0.0686313
0.0679066
0.06734
0.0669023
0.0665642
0.0662964
0.0660684
0.0658486
0.0656068
0.0653113
0.0649233
0.0643954
0.0636728
0.0626913
0.0613821
0.0596736
0.0574769
0.0547087
0.0513064
0.0472204
0.0424259
0.0369367
0.0308017
0.0241055
0.0169649
0.00953638
0.0866016
0.0839001
0.0813013
0.0788583
0.0766184
0.0746161
0.0728698
0.071383
0.0701469
0.0691423
0.0683434
0.0677197
0.067239
0.0668688
0.0665768
0.0663302
0.0660951
0.0658376
0.0655215
0.0651042
0.0645343
0.0637505
0.062682
0.0612519
0.0593743
0.0569563
0.0539097
0.0501637
0.0456586
0.0403672
0.0343077
0.0275226
0.0201089
0.0122096
0.00399141
0.0888196
0.0858617
0.0830173
0.080345
0.0778967
0.0757091
0.0738025
0.0721806
0.0708337
0.0697409
0.0688735
0.0681984
0.0676804
0.0672845
0.0669767
0.0667229
0.0664871
0.0662311
0.0659138
0.0654878
0.0648972
0.0640746
0.06294
0.0614054
0.0593761
0.0567533
0.0534433
0.0493608
0.0444439
0.0386633
0.0320202
0.0245761
0.0164523
0.00779927
-0.00119335
0.091035
0.0878201
0.0847296
0.0818267
0.0791679
0.0767928
0.0747225
0.0729615
0.0714993
0.0703128
0.0693711
0.0686383
0.0680765
0.0676478
0.0673157
0.0670434
0.0667923
0.0665214
0.0661851
0.0657322
0.0651025
0.0642213
0.0630008
0.0613453
0.0591508
0.0563131
0.0527301
0.0482996
0.0429531
0.036654
0.0294145
0.0213103
0.0124615
0.00304965
-0.00672673
0.0932467
0.0897743
0.0864355
0.0832987
0.0804262
0.0778597
0.0756213
0.0737176
0.0721375
0.0708538
0.0698337
0.0690386
0.0684274
0.0679589
0.0675926
0.0672883
0.0670041
0.0666957
0.0663151
0.0658077
0.0651077
0.0641351
0.0627973
0.0609913
0.0586049
0.0555222
0.0516303
0.0468273
0.0410419
0.0342408
0.0264447
0.0177075
0.00816215
-0.00199712
-0.0125535
0.0954599
0.0917298
0.088143
0.0847729
0.0816843
0.0789241
0.0765177
0.0744678
0.072763
0.0713784
0.0702782
0.0694199
0.0687589
0.0682501
0.0678494
0.0675127
0.0671944
0.0668476
0.0664213
0.0658571
0.0650838
0.0640163
0.0625569
0.0605967
0.0580147
0.0546832
0.0504787
0.045296
0.0390598
0.0317336
0.023338
0.0139512
0.00371519
-0.00719417
-0.0185283
0.0976885
0.0937002
0.0898642
0.0862591
0.0829521
0.0799969
0.0774226
0.0752308
0.0734053
0.0719212
0.0707402
0.0698179
0.0691057
0.0685557
0.0681197
0.06775
0.0673981
0.0670146
0.0665456
0.0659289
0.0650883
0.0639332
0.0623603
0.0602548
0.0574874
0.0539213
0.0494247
0.0438875
0.0372282
0.0294069
0.0204409
0.0104081
-0.000541819
-0.0122082
-0.0243361
0.0999486
0.0957022
0.0916168
0.0877764
0.0842586
0.0811129
0.0783676
0.0760306
0.0740884
0.0725096
0.0712525
0.0702698
0.0695106
0.0689243
0.0684595
0.0680647
0.0676887
0.0672788
0.0667781
0.0661202
0.0652243
0.0639941
0.0623207
0.0600812
0.0571388
0.053347
0.0485637
0.0426707
0.0355808
0.0272519
0.0177062
0.00702123
-0.00463972
-0.0170553
-0.0299742
0.102245
0.0977406
0.0934058
0.089332
0.085603
0.0822659
0.0793505
0.0768681
0.0748053
0.0731272
0.071788
0.0707395
0.0699281
0.0692993
0.0688001
0.0683745
0.0679673
0.0675235
0.0669829
0.066275
0.0653139
0.0639981
0.0622123
0.059825
0.0566959
0.0526675
0.0475872
0.0413344
0.0338144
0.0249847
0.0148644
0.00354867
-0.00881184
-0.0219855
-0.0356803
0.104592
0.0998299
0.0952467
0.0909394
0.0869893
0.0834611
0.0803866
0.0777653
0.0755826
0.0738099
0.0724004
0.0712956
0.0704415
0.0697791
0.0692491
0.0687962
0.068363
0.067891
0.067317
0.0665659
0.0655464
0.0641506
0.0622581
0.0597378
0.0564318
0.0521762
0.0468061
0.0401984
0.0322532
0.0229208
0.0122279
0.000263569
-0.0127968
-0.0267193
-0.0411954
0.106984
0.101965
0.0971336
0.092594
0.0884328
0.0847157
0.0814721
0.0787106
0.0764109
0.074537
0.0730473
0.0718854
0.070987
0.0702923
0.069741
0.0692696
0.0688204
0.0683308
0.0677331
0.0669491
0.0658832
0.0644213
0.0624366
0.0597873
0.0563082
0.0518277
0.046174
0.0392149
0.0308451
0.0210128
0.00972906
-0.002895
-0.0166793
-0.0313655
-0.0466252
0.109447
0.104172
0.0990939
0.094318
0.08994
0.086026
0.0826108
0.0797061
0.0772934
0.0753347
0.0737744
0.0725527
0.0716097
0.0708795
0.0702999
0.0698102
0.0693444
0.068838
0.0682189
0.067404
0.0662939
0.06477
0.0626976
0.0599213
0.0562699
0.0515628
0.0456285
0.0383226
0.0295294
0.0191993
0.00734482
-0.00592263
-0.0204189
-0.0358594
-0.0519056
0.111919
0.106387
0.101062
0.0960578
0.0914742
0.0873765
0.0838096
0.0807695
0.0782422
0.0761889
0.0745576
0.073285
0.072303
0.0715462
0.0709474
0.0704422
0.0699668
0.0694524
0.0688229
0.0679901
0.0668492
0.0652757
0.0631254
0.0602335
0.0564198
0.0514971
0.0452856
0.0376288
0.0284028
0.0175539
0.00511112
-0.0088248
-0.0240425
-0.040237
-0.0570582
0.114358
0.108568
0.102999
0.0977681
0.0929818
0.0887032
0.0849706
0.0817937
0.0791519
0.0770058
0.0752979
0.0739678
0.0729456
0.0721575
0.0715387
0.0710194
0.0705313
0.0700031
0.0693545
0.0684933
0.0673099
0.0656739
0.063433
0.0604146
0.0564312
0.0512866
0.0447861
0.0367632
0.027102
0.0157483
0.00271354
-0.0118672
-0.0277782
-0.0447271
-0.0623376
0.116887
0.11084
0.10502
0.0995515
0.0945421
0.0900629
0.0861543
0.0828316
0.0800712
0.0778308
0.076051
0.0746607
0.0735898
0.0727659
0.0721156
0.0715695
0.0710549
0.0704971
0.069813
0.0689059
0.0676614
0.0659436
0.0635945
0.0604348
0.0562667
0.0508842
0.0440921
0.035721
0.0256485
0.0138041
0.000219012
-0.0149904
-0.0316019
-0.0492937
-0.0676838
0.119384
0.113081
0.107014
0.101315
0.096092
0.0914309
0.0873655
0.0839031
0.081025
0.0786867
0.0768285
0.0753776
0.0742586
0.073398
0.0727185
0.0721482
0.0716122
0.0710308
0.0703179
0.0693727
0.0680753
0.0662842
0.0638347
0.0605392
0.0561918
0.0505782
0.0434928
0.034758
0.0242412
0.0118773
-0.00229986
-0.0181728
-0.0355089
-0.0539474
-0.0731142
0.121853
0.11529
0.108977
0.10305
0.0976202
0.0927696
0.088539
0.0849365
0.081941
0.0795076
0.0775727
0.0760629
0.0749007
0.074006
0.0733015
0.072709
0.0721522
0.0715498
0.0708111
0.0698313
0.0684859
0.0666274
0.0640837
0.0606589
0.0561392
0.0503024
0.0429313
0.0338352
0.0228791
0.0100067
-0.00475786
-0.0212685
-0.0393075
-0.0585144
-0.0784724
0.124335
0.117516
0.110957
0.104793
0.099145
0.094096
0.089698
0.0859577
0.0828529
0.0803289
0.0783214
0.0767545
0.0755471
0.0746173
0.0738851
0.0732703
0.0726922
0.072066
0.0712976
0.0702782
0.0688787
0.0669456
0.0643004
0.0607395
0.0560415
0.0499743
0.0423156
0.0328742
0.0215063
0.00814348
-0.00718656
-0.0243479
-0.0430802
-0.0630339
-0.0837782
0.126804
0.119729
0.112917
0.106518
0.100661
0.095425
0.0908593
0.0869757
0.0837465
0.0811264
0.0790439
0.0774199
0.0761692
0.0752068
0.0744487
0.0738134
0.0732172
0.0725716
0.0717786
0.0707251
0.069277
0.0672748
0.064533
0.0608404
0.0559661
0.0496706
0.0417215
0.0319193
0.0201188
0.00624222
-0.0096822
-0.027511
-0.0469587
-0.0676552
-0.0891737
0.129255
0.12192
0.114864
0.108239
0.10217
0.0967475
0.0920168
0.0879886
0.0846377
0.0819167
0.0797557
0.078072
0.0767763
0.0757795
0.0749946
0.074336
0.0737172
0.0730468
0.0722236
0.0711301
0.069627
0.0675495
0.0647053
0.0608757
0.0558226
0.0492959
0.0410544
0.0308926
0.0186555
0.00427622
-0.0122176
-0.0306721
-0.0508271
-0.0722951
-0.0945974
0.131753
0.124162
0.116856
0.109994
0.10371
0.0980966
0.0932037
0.0890407
0.0855859
0.0827758
0.0805418
0.0787988
0.0774569
0.0764241
0.0756109
0.0749281
0.0742863
0.0735914
0.0727381
0.0716054
0.0700492
0.067899
0.064956
0.0609934
0.055764
0.0490101
0.0404842
0.0299708
0.0173098
0.00243121
-0.0146373
-0.0337332
-0.0545975
-0.0768125
-0.0998989
0.134266
0.126417
0.118863
0.111773
0.105277
0.0994723
0.0944076
0.0901004
0.0865196
0.0836131
0.0813016
0.0794979
0.0781085
0.077039
0.0761966
0.0754898
0.0748259
0.0741079
0.0732271
0.0720576
0.0704507
0.0682299
0.0651893
0.0610946
0.0556904
0.0487103
0.0398971
0.0290271
0.0159386
0.000548416
-0.0171055
-0.0368743
-0.0584416
-0.0814106
-0.10528
0.136714
0.128611
0.120818
0.113496
0.106788
0.100792
0.0955638
0.0911111
0.087408
0.0844032
0.0820139
0.0801484
0.0787111
0.0776056
0.0767342
0.0760024
0.0753148
0.0745689
0.0736548
0.0724428
0.0707784
0.0684794
0.0653343
0.0610999
0.0555135
0.0482996
0.0391937
0.0279659
0.0144522
-0.00143452
-0.0196531
-0.0400554
-0.0623349
-0.0860537
-0.110699
0.139193
0.130829
0.122778
0.115215
0.10829
0.102104
0.0967136
0.0921245
0.0883137
0.0852175
0.0827559
0.0808361
0.0793573
0.0782187
0.0773223
0.076569
0.0758609
0.0750942
0.074152
0.0729011
0.0711836
0.0688115
0.0655654
0.0611977
0.0554347
0.047992
0.038597
0.0270113
0.0130577
-0.00334766
-0.0221627
-0.0432043
-0.0661955
-0.0906765
-0.116114
0.1417
0.133079
0.124783
0.116989
0.10985
0.103468
0.0979063
0.0931765
0.0892431
0.086047
0.0835091
0.0815298
0.0800069
0.0788344
0.0779104
0.0771345
0.0764052
0.075616
0.074647
0.0733606
0.0715933
0.0691517
0.0658105
0.0613115
0.0553738
0.0477043
0.0380175
0.0260694
0.0116802
-0.00522287
-0.0246155
-0.0463107
-0.0700024
-0.0952205
-0.12144
0.144176
0.135296
0.126756
0.118737
0.111389
0.104823
0.0990967
0.0942216
0.0901709
0.0868787
0.0842624
0.0822198
0.0806455
0.0794328
0.0784768
0.0776747
0.0769204
0.0761036
0.0751028
0.0737755
0.0719533
0.0694369
0.0659925
0.0613566
0.0552399
0.0473393
0.0373663
0.025071
0.0102702
-0.00712636
-0.0270847
-0.0494284
-0.0738282
-0.0998016
-0.126797
0.146635
0.137501
0.128712
0.120452
0.11289
0.106137
0.100245
0.0952294
0.0910643
0.0876842
0.0849967
0.0828999
0.0812838
0.0800402
0.0790598
0.0782361
0.0774619
0.076623
0.0755932
0.0742268
0.0723505
0.0697586
0.0662144
0.0614432
0.0551477
0.0470186
0.0367559
0.0241002
0.00886077
-0.00905973
-0.0296151
-0.0526261
-0.0777401
-0.104479
-0.132261
0.149154
0.139762
0.130724
0.122229
0.11445
0.107494
0.101434
0.0962791
0.0919933
0.0885127
0.0857451
0.0835883
0.0819282
0.0806503
0.0796441
0.0787987
0.0780031
0.0771412
0.0760835
0.0746798
0.0727522
0.0700899
0.0664467
0.0615421
0.0550708
0.0467131
0.0361604
0.023144
0.00746462
-0.0109548
-0.0320805
-0.0557118
-0.0815216
-0.109015
-0.137582
0.151658
0.142006
0.132721
0.124002
0.116014
0.108878
0.102655
0.0973562
0.092952
0.0893746
0.0865314
0.0843121
0.0826026
0.081286
0.0802478
0.0793758
0.0785566
0.0776693
0.0765811
0.0751375
0.0731558
0.0704194
0.0666754
0.0616358
0.0549869
0.0463993
0.0355565
0.0221882
0.00610107
-0.0128098
-0.0345077
-0.0587932
-0.0853076
-0.113538
-0.142878
0.154139
0.144235
0.134705
0.12575
0.11755
0.110228
0.103841
0.0984072
0.0938893
0.0902187
0.0872998
0.0850231
0.0832697
0.0819202
0.0808566
0.0799634
0.0791238
0.0782151
0.0770998
0.0756198
0.0735872
0.0707795
0.0669374
0.0617653
0.0549406
0.046127
0.035001
0.0212823
0.00476451
-0.0146584
-0.0369427
-0.0618994
-0.0891385
-0.118139
-0.148275
0.156642
0.146476
0.13669
0.127505
0.119092
0.111568
0.105013
0.0994352
0.0948001
0.091035
0.0880402
0.0857038
0.0839051
0.0825214
0.0814312
0.0805172
0.0796582
0.0787276
0.0775852
0.0760684
0.0739845
0.0711051
0.0671643
0.0618586
0.0548568
0.0458134
0.0343932
0.0203067
0.00334052
-0.0165896
-0.0394421
-0.0650059
-0.0929395
-0.122683
-0.153599
0.159123
0.148699
0.138676
0.129257
0.120631
0.112924
0.106206
0.100483
0.0957298
0.0918716
0.0888079
0.0864164
0.0845728
0.0831533
0.0820349
0.0810948
0.080212
0.0792564
0.0780838
0.0765271
0.0743889
0.0714354
0.0673931
0.0619502
0.0547693
0.0454954
0.0337894
0.0193561
0.00197584
-0.0184533
-0.0418906
-0.0681156
-0.0967531
-0.127249
-0.158935
0.161647
0.150969
0.140694
0.13104
0.122204
0.11431
0.107425
0.101565
0.0966943
0.0927361
0.0895904
0.0871377
0.085248
0.0837921
0.0826459
0.0816836
0.0807786
0.0797991
0.0785977
0.0770035
0.0748133
0.0717874
0.0676463
0.0620706
0.0547134
0.045211
0.0332136
0.0184208
0.000609996
-0.0203309
-0.0443521
-0.0712474
-0.100592
-0.131835
-0.164309
0.164184
0.153248
0.142726
0.132843
0.123789
0.115694
0.108637
0.102635
0.0976443
0.0935888
0.0903633
0.0878485
0.0859133
0.0844243
0.0832509
0.0822656
0.0813404
0.0803384
0.0791079
0.0774742
0.0752307
0.0721319
0.0678908
0.0621803
0.0546449
0.0449127
0.0326253
0.017471
-0.000776733
-0.0222244
-0.0468237
-0.0743445
-0.104405
-0.136407
-0.169653
0.166695
0.155503
0.144732
0.134615
0.125349
0.117068
0.109844
0.103696
0.0985908
0.0944466
0.0911536
0.0885836
0.0866055
0.0850842
0.0838861
0.0828809
0.0819365
0.0809137
0.0796582
0.0779909
0.0756991
0.0725312
0.0681946
0.0623539
0.0546441
0.0446855
0.0321108
0.0166059
-0.00206218
-0.0240057
-0.049182
-0.0773551
-0.108107
-0.140877
-0.174931
0.169203
0.157752
0.146728
0.136377
0.126897
0.118429
0.111047
0.104765
0.0995431
0.0953011
0.0919309
0.0893017
0.087276
0.0857173
0.0844894
0.0834589
0.0824909
0.0814433
0.0801578
0.0784514
0.0761065
0.0728655
0.0684284
0.0624534
0.054567
0.0443807
0.0315197
0.0156583
-0.00344082
-0.0258831
-0.0516358
-0.0804706
-0.111946
-0.145445
-0.180264
0.171712
0.160001
0.148729
0.138148
0.128457
0.119801
0.112255
0.105831
0.100492
0.0961551
0.0927065
0.0900161
0.0879439
0.0863481
0.0850914
0.0840369
0.0830465
0.0819746
0.0806592
0.0789128
0.0765137
0.0731986
0.0686602
0.0625479
0.0544828
0.0440661
0.0309154
0.0147002
-0.00482553
-0.0277781
-0.0541092
-0.0835785
-0.115771
-0.150044
-0.185644
0.174234
0.162269
0.15076
0.139944
0.13004
0.121187
0.113468
0.106897
0.101439
0.0970098
0.0934878
0.0907405
0.0886252
0.0869976
0.0857157
0.0846402
0.0836297
0.0825356
0.0811925
0.0794091
0.0769582
0.073571
0.0689339
0.0626893
0.054447
0.0438027
0.0303638
0.0137893
-0.00616807
-0.029631
-0.0565415
-0.0866591
-0.119548
-0.154581
-0.190982
0.176747
0.164524
0.152764
0.141717
0.131598
0.122557
0.114673
0.107963
0.102383
0.0978521
0.0942521
0.0914425
0.0892786
0.0876127
0.0862998
0.0851979
0.0841629
0.0830427
0.0816685
0.0798446
0.0773393
0.0738773
0.0691393
0.0627601
0.0543407
0.0434648
0.0297302
0.0127958
-0.00759449
-0.031555
-0.059037
-0.0897991
-0.123385
-0.159141
-0.196305
0.179235
0.166752
0.154742
0.14346
0.133134
0.123907
0.115858
0.109009
0.103317
0.0986905
0.095017
0.0921507
0.0899424
0.0882421
0.0869019
0.0857766
0.0847194
0.0835751
0.0821713
0.080308
0.0777483
0.0742126
0.0693734
0.0628569
0.0542589
0.043155
0.0291362
0.0118487
-0.00896865
-0.0334436
-0.0615163
-0.0929205
-0.127218
-0.163733
-0.201678
0.181726
0.168985
0.156731
0.145219
0.134675
0.125249
0.117033
0.110043
0.104239
0.099524
0.095773
0.0928481
0.0905958
0.0888626
0.0874978
0.0863524
0.0852755
0.08411
0.0826797
0.0807807
0.0781711
0.074565
0.069629
0.0629816
0.0542077
0.0428741
0.0285633
0.0109137
-0.0103406
-0.0353277
-0.0639887
-0.0960597
-0.131066
-0.168339
-0.207064
0.184221
0.171222
0.158715
0.146969
0.13621
0.126602
0.118225
0.111093
0.105162
0.100346
0.0965148
0.0935267
0.091226
0.0894557
0.0880622
0.0868933
0.0857948
0.0846049
0.0831445
0.0812058
0.0785425
0.0748626
0.0698248
0.0630419
0.0540902
0.0425279
0.0279268
0.00992456
-0.0117483
-0.0372189
-0.0664399
-0.0991477
-0.134859
-0.172895
-0.212416
0.186714
0.173459
0.160709
0.148736
0.137766
0.127961
0.119412
0.112136
0.106088
0.101178
0.0972784
0.0942364
0.0918926
0.0900882
0.0886655
0.0874707
0.0863491
0.0851349
0.0836444
0.0816657
0.0789477
0.0751927
0.0700543
0.0631351
0.0540057
0.0422151
0.0273328
0.0089817
-0.0131166
-0.0390909
-0.0688898
-0.102248
-0.138671
-0.177434
-0.217727
0.189204
0.175696
0.162695
0.150481
0.139295
0.129299
0.120586
0.113173
0.107017
0.102016
0.0980396
0.0949377
0.0925484
0.090709
0.0892598
0.0880418
0.0868971
0.0856588
0.0841397
0.0821231
0.0793526
0.0755253
0.0702876
0.0632351
0.0539276
0.0419074
0.0267297
0.0080096
-0.014534
-0.0410375
-0.0714257
-0.105431
-0.142567
-0.182113
-0.223192
0.191686
0.177917
0.164669
0.152228
0.140837
0.130662
0.121788
0.114234
0.107953
0.102851
0.0987933
0.095628
0.0931915
0.0913156
0.0898374
0.0885972
0.0874311
0.0861681
0.0846188
0.0825623
0.0797376
0.0758357
0.0704964
0.0633082
0.0538229
0.0415712
0.0261027
0.00702853
-0.0159372
-0.0429205
-0.0738799
-0.108528
-0.146364
-0.186654
-0.228523
0.194211
0.180183
0.166696
0.154023
0.142417
0.132041
0.122992
0.115289
0.108887
0.10369
0.0995619
0.0963422
0.0938605
0.0919511
0.0904469
0.089184
0.0879976
0.0867127
0.0851362
0.0830436
0.0801688
0.0761965
0.0707596
0.0634379
0.0537764
0.0412991
0.025547
0.00612386
-0.0172639
-0.0447574
-0.0763005
-0.111608
-0.150154
-0.191184
-0.233824
0.196692
0.182411
0.168667
0.155757
0.143931
0.133364
0.124155
0.11632
0.109812
0.104523
0.100319
0.0970396
0.0945148
0.0925717
0.0910413
0.0897571
0.0885511
0.0872455
0.085643
0.0835151
0.080591
0.07655
0.0710175
0.0635652
0.0537285
0.0410234
0.024982
0.00519779
-0.0186307
-0.0466436
-0.0787726
-0.114725
-0.153986
-0.195799
-0.239238
0.199161
0.184619
0.170622
0.157483
0.145448
0.134703
0.125334
0.117359
0.11073
0.105347
0.101066
0.0977264
0.0951537
0.0931747
0.0916171
0.090311
0.0890852
0.0877583
0.0861288
0.0839644
0.0809895
0.0768768
0.0712436
0.0636571
0.0536426
0.0407063
0.0243721
0.00422913
-0.0200204
-0.0485145
-0.0812092
-0.117803
-0.157755
-0.200291
-0.244513
0.201675
0.186879
0.172647
0.159276
0.147027
0.136078
0.126533
0.118409
0.111657
0.106175
0.10182
0.0984247
0.0958125
0.0938018
0.0922183
0.0908901
0.0896428
0.0882926
0.0866352
0.0844336
0.081407
0.0772228
0.0714933
0.0637744
0.0535847
0.040424
0.023807
0.00331582
-0.0213591
-0.0503683
-0.083639
-0.120875
-0.161542
-0.204834
-0.249833
0.204147
0.189095
0.174607
0.160997
0.148533
0.137394
0.127683
0.11942
0.112557
0.106984
0.102553
0.0990954
0.096432
0.0943828
0.0927685
0.0914131
0.090139
0.0887596
0.0870673
0.0848206
0.0817337
0.077469
0.0716314
0.0637722
0.0534028
0.0400091
0.0230978
0.00224396
-0.0228687
-0.0523922
-0.0862571
-0.124157
-0.165517
-0.209559
-0.255325
0.206626
0.191312
0.176574
0.162741
0.150076
0.138757
0.128883
0.120481
0.113494
0.107819
0.103307
0.0997871
0.0970735
0.0949842
0.0933373
0.0919549
0.0906558
0.0892488
0.0875218
0.085231
0.0820867
0.0777442
0.0718034
0.0638076
0.0532573
0.0396301
0.022426
0.00121435
-0.0243237
-0.0543327
-0.088758
-0.127301
-0.169387
-0.214204
-0.260781
0.209113
0.193545
0.178568
0.164493
0.151604
0.140086
0.130044
0.121497
0.114393
0.108622
0.104037
0.10046
0.0977078
0.0955891
0.0939193
0.0925158
0.091196
0.0897666
0.0880129
0.0856858
0.08249
0.0780767
0.0720383
0.0639093
0.0531823
0.0393275
0.0218343
0.000264387
-0.0257062
-0.0562266
-0.091229
-0.130395
-0.173175
-0.218727
-0.266078
0.21158
0.195752
0.180519
0.166217
0.153113
0.141408
0.131203
0.122519
0.115306
0.109445
0.104786
0.101149
0.0983478
0.0961916
0.0944924
0.0930656
0.0917239
0.090271
0.0884885
0.0861233
0.082875
0.078389
0.0722514
0.0639885
0.0530855
0.039004
0.0212268
-0.000693104
-0.0270882
-0.0581204
-0.0937173
-0.133555
-0.177052
-0.223353
-0.271475
0.214066
0.197985
0.182517
0.167986
0.154676
0.14278
0.132403
0.123575
0.116236
0.110278
0.105541
0.101845
0.098996
0.0968029
0.0950748
0.0936233
0.0922594
0.0907829
0.0889717
0.0865685
0.083268
0.0787097
0.0724727
0.0640747
0.0529944
0.0386849
0.0206226
-0.00165112
-0.0284734
-0.0600004
-0.0961719
-0.136663
-0.180883
-0.227956
-0.276851
0.216552
0.20021
0.184486
0.169713
0.156187
0.144099
0.133562
0.124593
0.117136
0.111079
0.106266
0.102514
0.0996258
0.097401
0.0956488
0.0941784
0.0927975
0.0913027
0.0894679
0.0870319
0.0836842
0.0790577
0.0727247
0.0641968
0.05294
0.0384011
0.0200447
-0.00259398
-0.0298585
-0.0619018
-0.0986533
-0.139778
-0.184676
-0.232508
-0.282203
0.219043
0.202445
0.186474
0.17147
0.157728
0.145452
0.134752
0.125641
0.118074
0.11193
0.107044
0.103231
0.100294
0.0980336
0.0962533
0.0947594
0.0933562
0.0918375
0.0899743
0.0875006
0.0841018
0.0794044
0.0729739
0.0643136
0.0528816
0.038115
0.0194679
-0.0035304
-0.0312205
-0.0637701
-0.101107
-0.142895
-0.188516
-0.237062
-0.28754
0.221532
0.204679
0.18846
0.173223
0.159272
0.146807
0.135934
0.126684
0.118995
0.112751
0.107789
0.103917
0.100936
0.0986406
0.0968323
0.0953139
0.0938869
0.0923425
0.0904487
0.0879343
0.0844795
0.0797071
0.0731747
0.0643774
0.0527666
0.0377693
0.018834
-0.00451258
-0.0326175
-0.0656545
-0.103556
-0.145982
-0.192322
-0.24167
-0.292934
0.223978
0.20686
0.190387
0.174926
0.160768
0.148112
0.137077
0.12769
0.119885
0.113544
0.108504
0.104575
0.101549
0.0992191
0.0973844
0.0958449
0.0943987
0.0928322
0.0909088
0.0883558
0.0848489
0.0800031
0.073371
0.064439
0.0526498
0.0374246
0.0182006
-0.00550228
-0.0340451
-0.0675929
-0.106071
-0.149139
-0.196163
-0.246237
-0.298273
0.226488
0.20912
0.192408
0.176707
0.162326
0.149475
0.138268
0.128729
0.120803
0.114367
0.109251
0.105261
0.102189
0.0998243
0.0979609
0.0963967
0.0949277
0.0933378
0.0913862
0.0887952
0.0852357
0.0803175
0.0735858
0.0645203
0.0525549
0.0370996
0.0175882
-0.00647395
-0.0354569
-0.0695224
-0.108595
-0.152304
-0.200028
-0.25085
-0.303682
0.228946
0.211314
0.194347
0.178417
0.163827
0.150788
0.139419
0.129744
0.121703
0.115171
0.109979
0.105928
0.102808
0.100408
0.0985169
0.0969293
0.0954368
0.0938209
0.0918387
0.0892076
0.0855939
0.0806016
0.0737679
0.0645668
0.0524243
0.0367406
0.0169386
-0.00748393
-0.0368812
-0.0714337
-0.111079
-0.155457
-0.203915
-0.255492
-0.309077
0.231338
0.213454
0.196253
0.18009
0.165285
0.152059
0.140532
0.130723
0.122568
0.115947
0.110683
0.106577
0.103413
0.100977
0.0990579
0.0974475
0.0959349
0.0942964
0.0922854
0.0896161
0.0859491
0.0808829
0.0739489
0.0646121
0.0522907
0.0363779
0.0162882
-0.00848336
-0.0383115
-0.0733747
-0.113593
-0.158605
-0.207751
-0.2601
-0.314495
0.233864
0.215721
0.198264
0.181865
0.166848
0.153426
0.141722
0.131759
0.123482
0.116761
0.111418
0.10725
0.10404
0.10157
0.0996227
0.097988
0.0964525
0.094791
0.0927521
0.0900453
0.0863268
0.0811904
0.0741596
0.0646908
0.0521936
0.0360505
0.0156676
-0.00946449
-0.0397326
-0.0753118
-0.116121
-0.161789
-0.211648
-0.26474
-0.31991
0.23631
0.21791
0.200206
0.183577
0.168346
0.154736
0.142869
0.132772
0.124377
0.117558
0.112137
0.107908
0.10465
0.102142
0.100165
0.0985051
0.096945
0.0952571
0.0931869
0.0904392
0.0866639
0.0814484
0.0743138
0.0647091
0.0520323
0.03566
0.0149917
-0.0104977
-0.041188
-0.0772489
-0.11862
-0.164936
-0.215512
-0.269349
-0.325292
0.238688
0.220035
0.202082
0.185218
0.16978
0.155983
0.143954
0.133719
0.125214
0.118307
0.112817
0.108533
0.105234
0.102696
0.100696
0.099016
0.0974375
0.0957274
0.0936282
0.0908428
0.0870181
0.0817347
0.0745014
0.0647608
0.0519078
0.0353083
0.0143518
-0.011487
-0.0425987
-0.0791704
-0.121125
-0.168075
-0.219342
-0.273957
-0.330701
0.2412
0.222285
0.204086
0.18699
0.17133
0.157334
0.145131
0.134744
0.126116
0.119109
0.113542
0.109201
0.105857
0.103282
0.101255
0.0995547
0.0979567
0.0962262
0.0941018
0.0912809
0.0874052
0.0820499
0.0747197
0.0648483
0.0518188
0.0349887
0.0137397
-0.0124645
-0.0440254
-0.0811273
-0.123672
-0.171278
-0.223258
-0.278584
-0.336084
0.243663
0.224494
0.206047
0.188721
0.172851
0.15867
0.146307
0.135786
0.127041
0.119935
0.114284
0.109875
0.10648
0.103866
0.101807
0.100079
0.0984559
0.0966985
0.0945427
0.0916804
0.0877476
0.082315
0.0748823
0.0648756
0.0516675
0.034608
0.0130682
-0.013496
-0.0454718
-0.0830518
-0.126168
-0.174432
-0.227123
-0.283234
-0.341537
0.246061
0.226629
0.207931
0.190373
0.174294
0.159932
0.147409
0.136748
0.127888
0.120693
0.114974
0.110511
0.107074
0.104428
0.102343
0.100591
0.098946
0.0971651
0.0949807
0.092082
0.0881003
0.0825992
0.0750678
0.0649254
0.0515414
0.0342561
0.0124367
-0.0144681
-0.0468662
-0.084947
-0.128637
-0.17754
-0.230949
-0.287819
-0.3469
0.248524
0.228837
0.209897
0.192102
0.175807
0.161244
0.148547
0.137741
0.128762
0.12147
0.115677
0.111158
0.10768
0.105003
0.102893
0.101122
0.0994577
0.0976559
0.0954447
0.0925094
0.0884762
0.0829035
0.0752753
0.0650023
0.0514423
0.0339282
0.0118133
-0.0154615
-0.0483039
-0.0869151
-0.131189
-0.18073
-0.234833
-0.292428
-0.352299
0.250979
0.231035
0.211844
0.193821
0.177312
0.162556
0.149694
0.138752
0.12966
0.122273
0.1164
0.111817
0.108287
0.10557
0.10343
0.101633
0.0999452
0.0981168
0.0958734
0.0928957
0.0888052
0.0831541
0.075422
0.0650121
0.0512715
0.0335214
0.0111158
-0.0165088
-0.0497731
-0.0888637
-0.133715
-0.183914
-0.23871
-0.297084
-0.357739
0.253417
0.233219
0.213782
0.195523
0.178805
0.163868
0.150841
0.139752
0.130537
0.123053
0.117101
0.112457
0.10888
0.106126
0.103956
0.102135
0.100423
0.0985713
0.0962992
0.0932836
0.0891412
0.0834197
0.075589
0.0650435
0.0511265
0.0331547
0.0104658
-0.0175149
-0.0512058
-0.0908074
-0.136234
-0.187086
-0.242607
-0.301717
-0.363144
0.255874
0.235419
0.215731
0.197239
0.180301
0.165164
0.151965
0.14073
0.131391
0.12381
0.117788
0.11309
0.109472
0.106685
0.10449
0.102647
0.100915
0.0990399
0.0967401
0.0936876
0.0894943
0.083701
0.0757723
0.0650951
0.0510018
0.0327977
0.00981356
-0.018529
-0.0526596
-0.0927819
-0.1388
-0.190283
-0.246522
-0.306388
-0.368586
0.258282
0.237565
0.217625
0.198901
0.181751
0.166429
0.153072
0.141709
0.132264
0.124591
0.118489
0.113729
0.110065
0.107245
0.105023
0.103158
0.101406
0.0995079
0.0971794
0.0940885
0.089842
0.083975
0.0759452
0.0651336
0.0508627
0.0324314
0.0091621
-0.0195348
-0.0540887
-0.0946982
-0.141291
-0.193432
-0.250346
-0.310964
-0.373972
0.260659
0.239685
0.219512
0.200563
0.183209
0.167705
0.154184
0.142672
0.133107
0.125339
0.119164
0.114344
0.110632
0.107775
0.105525
0.103635
0.101859
0.0999364
0.0975781
0.0944477
0.0901476
0.0842078
0.0760783
0.0651316
0.0506835
0.032021
0.00846107
-0.020589
-0.0555655
-0.0966834
-0.143847
-0.196647
-0.25429
-0.315636
-0.379398
0.263126
0.241896
0.221469
0.20228
0.184705
0.168996
0.155301
0.143646
0.133961
0.126093
0.119842
0.114968
0.111213
0.108322
0.106042
0.104128
0.10233
0.100382
0.0979923
0.0948211
0.0904658
0.08445
0.0762183
0.0651354
0.0505085
0.0316179
0.00776732
-0.0216461
-0.0570659
-0.0986968
-0.146447
-0.19987
-0.258224
-0.320369
-0.384938
0.265538
0.244055
0.22338
0.203956
0.186164
0.170265
0.156406
0.144614
0.134814
0.126858
0.120533
0.115598
0.111798
0.108873
0.106568
0.104633
0.102816
0.100849
0.0984346
0.095229
0.0908246
0.0847398
0.0764114
0.0651972
0.0503953
0.0312772
0.00714071
-0.0226266
-0.0584677
-0.100587
-0.148913
-0.202999
-0.262053
-0.324948
-0.390309
0.267933
0.246185
0.225254
0.2056
0.187607
0.171533
0.157514
0.14558
0.135662
0.127603
0.121199
0.116203
0.112355
0.109393
0.107058
0.105099
0.103259
0.101267
0.0988229
0.0955778
0.0911196
0.0849615
0.076533
0.0651823
0.0502012
0.0308508
0.0064215
-0.0236968
-0.0599588
-0.102592
-0.151487
-0.206226
-0.265994
-0.329611
-0.395719
0.270376
0.248379
0.227216
0.207332
0.189119
0.172839
0.158647
0.146567
0.136531
0.128378
0.121897
0.116841
0.112947
0.10995
0.10759
0.105608
0.103746
0.10173
0.0992561
0.0959724
0.0914616
0.0852304
0.076701