/*--------------------------------*- C++ -*----------------------------------*\
  =========                 |
  \\      /  F ield         | OpenFOAM: The Open Source CFD Toolbox
   \\    /   O peration     | Website:  https://openfoam.org
    \\  /    A nd           | Version:  13
     \\/     M anipulation  |
\*---------------------------------------------------------------------------*/
FoamFile
{
    format      ascii;
    class       surfaceScalarField;
    location    "10";
    object      phi;
}
// * * * * * * * * * * * * * * * * * * * * * * * * * * * * * * * * * * * * * //

dimensions      [0 3 -1 0 0 0 0];

internalField   nonuniform List<scalar> 
228225
(
-2.53973e-06
-3.54936e-07
1.73214e-07
-3.48098e-07
-2.51423e-06
3.20727e-07
3.59373e-06
-4.27437e-06
3.30633e-07
8.41089e-06
-5.1464e-06
3.27747e-07
1.34391e-05
-5.36815e-06
3.38898e-07
1.83891e-05
-5.31848e-06
3.67598e-07
2.31332e-05
-5.11112e-06
3.66282e-07
2.75555e-05
-4.77296e-06
3.4995e-07
3.15119e-05
-4.28984e-06
3.32844e-07
3.48808e-05
-3.68436e-06
3.14756e-07
3.76775e-05
-3.08571e-06
2.88324e-07
3.98477e-05
-2.44193e-06
2.71027e-07
4.13419e-05
-1.76704e-06
2.71921e-07
4.21164e-05
-1.04183e-06
2.66499e-07
4.23877e-05
-5.17885e-07
2.45871e-07
4.21228e-05
3.65306e-08
2.27598e-07
4.15988e-05
3.13222e-07
2.09939e-07
4.08024e-05
6.05811e-07
1.89575e-07
3.98662e-05
7.70355e-07
1.64836e-07
3.88456e-05
8.78742e-07
1.40809e-07
3.77371e-05
9.89639e-07
1.1766e-07
3.65042e-05
1.13784e-06
9.38415e-08
3.5148e-05
1.28483e-06
7.01373e-08
3.36702e-05
1.42705e-06
4.93725e-08
3.2105e-05
1.52895e-06
3.47796e-08
3.04582e-05
1.61884e-06
2.65288e-08
2.87132e-05
1.71768e-06
2.56633e-08
2.67541e-05
1.92972e-06
2.75029e-08
2.44843e-05
2.23235e-06
3.53849e-08
2.18272e-05
2.61935e-06
3.56146e-08
1.86456e-05
3.14221e-06
3.70329e-08
1.48051e-05
3.80041e-06
3.748e-08
1.02001e-05
4.56987e-06
3.02649e-08
4.79145e-06
5.37255e-06
2.87803e-08
4.76305e-06
2.81188e-08
1.45177e-06
-1.96135e-06
1.49802e-07
4.85651e-06
-6.11632e-06
1.92918e-07
8.57488e-06
-8.18564e-06
1.89621e-07
1.19876e-05
-8.7435e-06
1.81815e-07
1.50871e-05
-8.63074e-06
1.61272e-07
1.77502e-05
-8.14607e-06
1.62683e-07
1.97152e-05
-7.26088e-06
1.82735e-07
2.09644e-05
-6.22832e-06
2.0408e-07
2.17253e-05
-5.27507e-06
2.2237e-07
2.21792e-05
-4.37186e-06
2.31585e-07
2.229e-05
-3.44512e-06
2.46386e-07
2.21015e-05
-2.51711e-06
2.61399e-07
2.16696e-05
-1.61069e-06
2.72995e-07
2.11777e-05
-8.39253e-07
2.86559e-07
2.05883e-05
-2.33364e-07
3.02451e-07
2.00026e-05
3.27121e-07
2.93338e-07
1.94584e-05
5.76555e-07
2.78717e-07
1.90009e-05
7.99823e-07
2.6075e-07
1.85823e-05
9.39267e-07
2.46943e-07
1.81779e-05
1.04346e-06
2.37232e-07
1.78184e-05
1.11742e-06
2.29123e-07
1.75326e-05
1.19869e-06
2.22295e-07
1.73161e-05
1.28403e-06
2.14518e-07
1.71365e-05
1.3958e-06
2.08006e-07
1.69357e-05
1.52558e-06
2.01467e-07
1.66485e-05
1.70956e-06
1.93925e-07
1.61974e-05
1.98039e-06
1.85341e-07
1.54878e-05
2.46075e-06
1.7472e-07
1.45173e-05
3.03181e-06
1.66852e-07
1.3124e-05
3.84352e-06
1.64586e-07
1.12357e-05
4.86737e-06
1.58083e-07
8.74554e-06
6.1392e-06
1.46068e-07
5.63096e-06
7.5497e-06
1.28212e-07
2.25591e-06
8.63978e-06
1.00085e-07
6.95944e-06
5.92697e-08
1.45122e-06
-3.49746e-06
7.93741e-08
3.57073e-06
-8.30832e-06
6.86712e-08
5.12623e-06
-9.81532e-06
7.15118e-08
6.11077e-06
-9.8153e-06
8.52564e-08
6.83528e-06
-9.45813e-06
1.00862e-07
7.27874e-06
-8.69884e-06
1.07084e-07
7.6345e-06
-7.72487e-06
1.05489e-07
7.90456e-06
-6.61715e-06
1.15753e-07
7.98108e-06
-5.4795e-06
1.24972e-07
7.87441e-06
-4.40115e-06
1.32801e-07
7.65866e-06
-3.37379e-06
1.4076e-07
7.37555e-06
-2.39003e-06
1.51608e-07
7.05154e-06
-1.4537e-06
1.62714e-07
6.74493e-06
-7.02351e-07
1.66836e-07
6.6302e-06
-2.84305e-07
1.63775e-07
6.88133e-06
-8.7808e-08
1.61823e-07
7.25886e-06
3.45136e-08
1.62092e-07
7.75976e-06
1.31715e-07
1.64452e-07
8.31869e-06
2.09411e-07
1.67961e-07
8.90478e-06
2.82265e-07
1.71996e-07
9.4781e-06
3.64446e-07
1.76453e-07
1.0024e-05
4.6835e-07
1.81248e-07
1.05105e-05
6.0855e-07
1.85782e-07
1.09086e-05
8.05225e-07
1.89092e-07
1.11556e-05
1.08384e-06
1.91049e-07
1.1194e-05
1.47347e-06
1.93071e-07
1.09598e-05
2.01293e-06
1.95983e-07
1.04917e-05
2.7228e-06
2.00325e-07
9.71163e-06
3.60642e-06
1.99684e-07
8.61934e-06
4.72982e-06
1.99635e-07
7.19376e-06
6.09361e-06
1.92986e-07
5.41679e-06
7.7317e-06
1.78808e-07
3.34046e-06
9.46136e-06
1.58324e-07
1.20966e-06
1.06365e-05
1.26421e-07
8.1041e-06
6.47936e-08
7.97348e-07
-4.35278e-06
5.09969e-08
1.62778e-06
-9.19089e-06
4.8166e-08
2.20057e-06
-1.04283e-05
3.73339e-08
2.72957e-06
-1.03784e-05
3.16479e-08
3.10311e-06
-9.86372e-06
2.9415e-08
3.3576e-06
-8.98652e-06
3.03223e-08
3.4948e-06
-7.90004e-06
3.49775e-08
3.5739e-06
-6.7405e-06
4.06499e-08
3.63355e-06
-5.59826e-06
5.48867e-08
3.66339e-06
-4.50684e-06
7.12883e-08
3.68391e-06
-3.48534e-06
8.60174e-08
3.73738e-06
-2.54724e-06
9.84603e-08
3.8989e-06
-1.72821e-06
1.08041e-07
4.18729e-06
-1.10734e-06
1.12637e-07
4.52435e-06
-7.36628e-07
1.12429e-07
4.86961e-06
-5.46104e-07
1.10766e-07
5.23592e-06
-4.45503e-07
1.11389e-07
5.62118e-06
-3.70463e-07
1.14454e-07
6.01993e-06
-3.10586e-07
1.18753e-07
6.42022e-06
-2.4463e-07
1.24082e-07
6.81748e-06
-1.66003e-07
1.30607e-07
7.20568e-06
-6.0726e-08
1.38143e-07
7.57462e-06
8.98115e-08
1.46673e-07
7.90192e-06
3.1739e-07
1.56763e-07
8.15137e-06
6.60313e-07
1.69457e-07
8.28518e-06
1.14906e-06
1.85282e-07
8.26629e-06
1.82308e-06
2.03028e-07
8.06741e-06
2.69767e-06
2.1746e-07
7.5472e-06
3.88692e-06
2.33021e-07
6.78623e-06
5.23763e-06
2.47254e-07
5.76272e-06
6.86029e-06
2.51472e-07
4.40392e-06
8.8464e-06
2.3958e-07
2.66823e-06
1.09802e-05
2.11886e-07
8.47492e-07
1.22817e-05
1.69288e-07
8.85726e-06
9.41232e-08
2.92262e-07
-4.67603e-06
2.454e-08
6.83114e-07
-9.61007e-06
2.47726e-08
1.05178e-06
-1.08245e-05
2.47143e-08
1.38809e-06
-1.07404e-05
2.30306e-08
1.64446e-06
-1.01436e-05
2.07628e-08
1.81876e-06
-9.18319e-06
1.94405e-08
1.9361e-06
-8.04068e-06
2.00661e-08
2.03152e-06
-6.86229e-06
2.28199e-08
2.12493e-06
-5.72168e-06
2.60857e-08
2.23248e-06
-4.6494e-06
3.06727e-08
2.37148e-06
-3.6669e-06
3.78136e-08
2.56361e-06
-2.79091e-06
4.654e-08
2.83048e-06
-2.05507e-06
5.524e-08
3.16687e-06
-1.50973e-06
6.20262e-08
3.53743e-06
-1.17631e-06
6.59894e-08
3.9172e-06
-9.96681e-07
6.81778e-08
4.29164e-06
-8.92385e-07
7.01613e-08
4.66483e-06
-8.18809e-07
7.30502e-08
5.03352e-06
-7.5848e-07
7.69978e-08
5.39262e-06
-6.88584e-07
8.25145e-08
5.74009e-06
-6.04738e-07
8.88752e-08
6.07623e-06
-4.9471e-07
9.52415e-08
6.39895e-06
-3.38501e-07
1.02439e-07
6.68462e-06
-8.38494e-08
1.11463e-07
6.92387e-06
2.92385e-07
1.23341e-07
7.148e-06
7.79514e-07
1.38932e-07
7.24698e-06
1.55862e-06
1.58608e-07
7.13623e-06
2.6174e-06
1.8411e-07
6.87713e-06
3.93112e-06
2.07911e-07
6.28214e-06
5.59512e-06
2.3109e-07
5.22876e-06
7.65911e-06
2.48976e-07
3.67651e-06
1.01452e-05
2.48929e-07
1.89633e-06
1.2535e-05
2.20462e-07
4.22131e-07
1.35926e-05
1.56894e-07
9.20572e-06
7.34939e-08
2.27609e-07
-4.9156e-06
6.22117e-09
4.77586e-07
-9.85877e-06
-4.42224e-09
6.83381e-07
-1.1028e-05
-4.9277e-09
8.6001e-07
-1.09171e-05
-2.3345e-09
1.02197e-06
-1.03078e-05
-3.32803e-10
1.17849e-06
-9.34395e-06
1.46843e-09
1.33e-06
-8.19876e-06
3.53586e-09
1.47417e-06
-7.01622e-06
6.45384e-09
1.61984e-06
-5.88183e-06
1.0856e-08
1.78417e-06
-4.83411e-06
1.63977e-08
1.97701e-06
-3.88679e-06
2.2664e-08
2.20201e-06
-3.04989e-06
2.93389e-08
2.45626e-06
-2.34955e-06
3.57896e-08
2.73049e-06
-1.82871e-06
4.10859e-08
3.01115e-06
-1.50438e-06
4.46311e-08
3.29244e-06
-1.32708e-06
4.68957e-08
3.57315e-06
-1.22415e-06
4.9047e-08
3.85146e-06
-1.15104e-06
5.19151e-08
4.12128e-06
-1.08604e-06
5.56955e-08
4.38547e-06
-1.01507e-06
6.02603e-08
4.64066e-06
-9.27357e-07
6.53443e-08
4.88518e-06
-8.12521e-07
7.0823e-08
5.11466e-06
-6.47335e-07
7.63841e-08
5.30355e-06
-3.5985e-07
8.38912e-08
5.41301e-06
8.5477e-08
9.35858e-08
5.52804e-06
5.54417e-07
1.04617e-07
5.52334e-06
1.43687e-06
1.19368e-07
5.35773e-06
2.63855e-06
1.37892e-07
4.9679e-06
4.14224e-06
1.73074e-07
4.24253e-06
6.10981e-06
2.05292e-07
3.16815e-06
8.49158e-06
2.37373e-07
1.93361e-06
1.11228e-05
2.53298e-07
8.17986e-07
1.34125e-05
2.34172e-07
6.60297e-08
1.41715e-05
1.67776e-07
9.22254e-06
4.90299e-08
9.21757e-08
-5.01733e-06
3.85867e-09
2.72861e-07
-1.00383e-05
-4.48656e-09
4.61129e-07
-1.12074e-05
-1.14485e-08
6.31995e-07
-1.10759e-05
-1.44832e-08
7.74968e-07
-1.04371e-05
-1.61873e-08
8.95005e-07
-9.44981e-06
-1.69002e-08
1.00788e-06
-8.2982e-06
-1.63955e-08
1.12742e-06
-7.12442e-06
-1.45743e-08
1.25937e-06
-6.00587e-06
-1.14463e-08
1.40581e-06
-4.97746e-06
-6.97699e-09
1.57095e-06
-4.05484e-06
-1.3043e-09
1.75968e-06
-3.24822e-06
5.20818e-09
1.97227e-06
-2.57817e-06
1.18788e-08
2.20306e-06
-2.0807e-06
1.77296e-08
2.4408e-06
-1.76687e-06
2.20575e-08
2.67753e-06
-1.59104e-06
2.50411e-08
2.91069e-06
-1.48683e-06
2.75172e-08
3.13808e-06
-1.4107e-06
3.02782e-08
3.35699e-06
-1.34052e-06
3.35722e-08
3.56568e-06
-1.26297e-06
3.72252e-08
3.76415e-06
-1.16877e-06
4.09011e-08
3.95186e-06
-1.04698e-06
4.43105e-08
4.12057e-06
-8.67089e-07
4.77434e-08
4.25906e-06
-5.54599e-07
5.22873e-08
4.30373e-06
-2.17706e-08
5.79878e-08
4.27749e-06
5.08303e-07
6.61857e-08
4.14674e-06
1.48235e-06
7.80799e-08
3.93253e-06
2.74958e-06
9.61696e-08
3.54305e-06
4.40146e-06
1.23815e-07
3.0522e-06
6.43304e-06
1.61947e-07
2.49973e-06
8.82987e-06
2.09392e-07
1.9133e-06
1.14582e-05
2.4727e-07
1.17447e-06
1.38931e-05
2.54124e-07
4.04674e-07
1.47305e-05
2.05317e-07
9.54937e-06
7.77034e-08
9.33701e-08
-5.11272e-06
-3.83868e-09
2.1989e-07
-1.01553e-05
-1.27709e-08
3.48536e-07
-1.13243e-05
-1.43561e-08
4.7799e-07
-1.11934e-05
-1.44114e-08
6.08149e-07
-1.05549e-05
-1.48526e-08
7.40815e-07
-9.56979e-06
-1.54468e-08
8.77364e-07
-8.422e-06
-1.57332e-08
1.02028e-06
-7.25524e-06
-1.53432e-08
1.17428e-06
-6.14937e-06
-1.40217e-08
1.34308e-06
-5.13841e-06
-1.16651e-08
1.5285e-06
-4.23606e-06
-8.29932e-09
1.73023e-06
-3.45015e-06
-4.06747e-09
1.94392e-06
-2.79659e-06
6.59938e-10
2.16025e-06
-2.30559e-06
5.1396e-09
2.37299e-06
-1.99078e-06
8.51987e-09
2.58196e-06
-1.81281e-06
1.06566e-08
2.78825e-06
-1.70719e-06
1.21558e-08
2.99204e-06
-1.63004e-06
1.36683e-08
3.19257e-06
-1.55833e-06
1.54274e-08
3.38888e-06
-1.47835e-06
1.72743e-08
3.58061e-06
-1.3812e-06
1.88481e-08
3.76792e-06
-1.25648e-06
1.99247e-08
3.95166e-06
-1.07454e-06
2.05589e-08
4.13557e-06
-7.63648e-07
2.13461e-08
4.28436e-06
-1.98121e-07
2.32592e-08
4.28724e-06
4.72592e-07
2.7203e-08
4.33109e-06
1.39905e-06
3.33441e-08
4.27057e-06
2.75754e-06
4.69699e-08
4.11223e-06
4.49102e-06
6.34909e-08
3.83621e-06
6.61478e-06
8.93905e-08
3.37508e-06
9.16075e-06
1.26123e-07
2.57971e-06
1.20766e-05
1.73892e-07
1.50632e-06
1.47525e-05
2.10684e-07
4.43902e-07
1.55845e-05
2.04115e-07
9.90299e-06
9.01192e-08
6.91997e-08
-5.17953e-06
-8.34899e-09
2.01296e-07
-1.02674e-05
-2.33873e-08
3.34493e-07
-1.14317e-05
-2.84681e-08
4.6143e-07
-1.12936e-05
-2.93315e-08
5.82327e-07
-1.06487e-05
-2.97962e-08
7.01828e-07
-9.66191e-06
-3.02035e-08
8.23474e-07
-8.51643e-06
-3.02691e-08
9.49182e-07
-7.35455e-06
-2.96886e-08
1.08196e-06
-6.2575e-06
-2.82024e-08
1.22493e-06
-5.25955e-06
-2.56684e-08
1.38103e-06
-4.37412e-06
-2.21234e-08
1.55289e-06
-3.60849e-06
-1.77722e-08
1.7399e-06
-2.97464e-06
-1.30164e-08
1.93425e-06
-2.49485e-06
-8.52756e-09
2.12747e-06
-2.18153e-06
-5.13443e-09
2.31803e-06
-2.00239e-06
-3.1299e-09
2.50796e-06
-1.89705e-06
-2.01675e-09
2.69892e-06
-1.82172e-06
-1.17988e-09
2.8915e-06
-1.75243e-06
-3.667e-10
3.08601e-06
-1.67508e-06
3.57059e-10
3.28352e-06
-1.58133e-06
6.97817e-10
3.48726e-06
-1.46286e-06
3.36414e-10
3.70547e-06
-1.29519e-06
-7.56809e-10
3.94893e-06
-1.00888e-06
-2.43222e-09
4.2051e-06
-4.55532e-07
-3.36412e-09
4.29202e-06
3.82165e-07
-1.5731e-09
4.43759e-06
1.24405e-06
2.76271e-09
4.43183e-06
2.74795e-06
8.26016e-09
4.24183e-06
4.65574e-06
1.92851e-08
3.79455e-06
7.01896e-06
3.83161e-08
3.03632e-06
9.84626e-06
6.88476e-08
1.98533e-06
1.30183e-05
1.06107e-07
9.28858e-07
1.56643e-05
1.41223e-07
1.09055e-07
1.62536e-05
1.45877e-07
9.96079e-06
5.11427e-08
5.20915e-08
-5.22779e-06
-9.90151e-09
1.42605e-07
-1.03389e-05
-2.23431e-08
2.5708e-07
-1.15239e-05
-2.50154e-08
3.81003e-07
-1.13945e-05
-2.56023e-08
5.13243e-07
-1.07571e-05
-2.64386e-08
6.51851e-07
-9.77589e-06
-2.74749e-08
7.93428e-07
-8.63277e-06
-2.8302e-08
9.34913e-07
-7.47072e-06
-2.86194e-08
1.07481e-06
-6.37275e-06
-2.81969e-08
1.21403e-06
-5.37572e-06
-2.68487e-08
1.35442e-06
-4.49402e-06
-2.45368e-08
1.49888e-06
-3.73567e-06
-2.14226e-08
1.64988e-06
-3.11172e-06
-1.78799e-08
1.80524e-06
-2.63908e-06
-1.44951e-08
1.9597e-06
-2.32666e-06
-1.19623e-08
2.11045e-06
-2.14462e-06
-1.06039e-08
2.25925e-06
-2.0376e-06
-1.00972e-08
2.40816e-06
-1.9625e-06
-9.91078e-09
2.55874e-06
-1.89493e-06
-9.84048e-09
2.71256e-06
-1.82071e-06
-9.92122e-09
2.87003e-06
-1.73019e-06
-1.03662e-08
3.03211e-06
-1.6155e-06
-1.13526e-08
3.19965e-06
-1.45238e-06
-1.27662e-08
3.36935e-06
-1.16767e-06
-1.45035e-08
3.53905e-06
-6.13942e-07
-1.5764e-08
3.62174e-06
3.08415e-07
-1.38256e-08
3.62604e-06
1.24383e-06
-9.45563e-09
3.5056e-06
2.86587e-06
-2.84369e-09
3.16882e-06
4.97945e-06
8.42636e-09
2.61072e-06
7.54851e-06
2.46805e-08
1.8494e-06
1.05597e-05
4.4711e-08
1.041e-06
1.37542e-05
7.00284e-08
3.75709e-07
1.62334e-05
9.33184e-08
-5.31568e-09
1.65321e-05
9.91879e-08
9.91505e-06
4.03057e-08
6.71012e-08
-5.2831e-06
-1.78994e-08
1.9674e-07
-1.04338e-05
-3.82239e-08
3.3291e-07
-1.16225e-05
-4.03665e-08
4.64259e-07
-1.14896e-05
-3.8793e-08
5.84524e-07
-1.08419e-05
-3.82287e-08
6.91239e-07
-9.84681e-06
-3.86592e-08
7.89282e-07
-8.69457e-06
-3.93212e-08
8.83634e-07
-7.5288e-06
-3.95964e-08
9.74541e-07
-6.42813e-06
-3.90899e-08
1.06479e-06
-5.43229e-06
-3.74897e-08
1.1592e-06
-4.55776e-06
-3.47012e-08
1.26173e-06
-3.81137e-06
-3.09603e-08
1.37465e-06
-3.20174e-06
-2.68261e-08
1.49651e-06
-2.74124e-06
-2.30581e-08
1.62095e-06
-2.43336e-06
-2.03674e-08
1.74183e-06
-2.24866e-06
-1.89469e-08
1.85851e-06
-2.13767e-06
-1.84656e-08
1.97216e-06
-2.0595e-06
-1.84267e-08
2.08387e-06
-1.98986e-06
-1.86284e-08
2.19513e-06
-1.91483e-06
-1.90549e-08
2.30477e-06
-1.8221e-06
-1.9643e-08
2.40954e-06
-1.70179e-06
-2.05245e-08
2.50132e-06
-1.52533e-06
-2.15433e-08
2.56095e-06
-1.20884e-06
-2.24556e-08
2.57557e-06
-6.11444e-07
-2.23089e-08
2.54352e-06
3.54209e-07
-1.93239e-08
2.40747e-06
1.38711e-06
-1.28745e-08
2.17216e-06
3.09643e-06
-9.83274e-10
1.82014e-06
5.30798e-06
1.81285e-08
1.37655e-06
7.9465e-06
4.11197e-08
9.48496e-07
1.09209e-05
6.32448e-08
5.37216e-07
1.40795e-05
8.32186e-08
2.2135e-07
1.64546e-05
9.1635e-08
5.84569e-08
1.66038e-05
8.68932e-08
9.93465e-06
3.87404e-08
4.49e-08
-5.31666e-06
-1.74338e-08
1.49029e-07
-1.0505e-05
-3.62663e-08
2.53531e-07
-1.16902e-05
-3.95956e-08
3.49873e-07
-1.15491e-05
-3.9473e-08
4.34424e-07
-1.08894e-05
-3.96896e-08
5.09117e-07
-9.88369e-06
-4.066e-08
5.78608e-07
-8.72506e-06
-4.20475e-08
6.49747e-07
-7.55986e-06
-4.33547e-08
7.27771e-07
-6.46562e-06
-4.40472e-08
8.14004e-07
-5.47866e-06
-4.35988e-08
9.09058e-07
-4.61505e-06
-4.16962e-08
1.0123e-06
-3.88016e-06
-3.84369e-08
1.12153e-06
-3.28033e-06
-3.44371e-08
1.23471e-06
-2.82703e-06
-3.06679e-08
1.3487e-06
-2.52202e-06
-2.79605e-08
1.46015e-06
-2.33572e-06
-2.65054e-08
1.56677e-06
-2.22015e-06
-2.59653e-08
1.66795e-06
-2.13644e-06
-2.59459e-08
1.7634e-06
-2.06075e-06
-2.62111e-08
1.85154e-06
-1.97784e-06
-2.67989e-08
1.93114e-06
-1.87572e-06
-2.76682e-08
1.99775e-06
-1.74171e-06
-2.86318e-08
2.03769e-06
-1.53858e-06
-2.93084e-08
2.02923e-06
-1.17462e-06
-2.94441e-08
1.96369e-06
-5.21464e-07
-2.87257e-08
1.86424e-06
4.75998e-07
-2.68188e-08
1.76908e-06
1.49954e-06
-2.22001e-08
1.66983e-06
3.2019e-06
-1.14749e-08
1.57352e-06
5.39263e-06
6.57922e-09
1.45821e-06
8.02311e-06
3.47362e-08
1.30478e-06
1.09917e-05
7.98963e-08
1.13169e-06
1.4141e-05
1.09356e-07
8.55151e-07
1.66002e-05
1.28424e-07
3.82302e-07
1.69462e-05
1.27432e-07
1.02509e-05
6.59371e-08
4.1365e-08
-5.34212e-06
-2.18945e-08
1.31039e-07
-1.0557e-05
-4.10319e-08
2.22357e-07
-1.17421e-05
-4.21442e-08
3.11959e-07
-1.16003e-05
-4.09204e-08
4.02302e-07
-1.09416e-05
-4.07112e-08
4.95832e-07
-9.93848e-06
-4.1556e-08
5.85965e-07
-8.77515e-06
-4.30626e-08
6.77137e-07
-7.60948e-06
-4.47851e-08
7.79543e-07
-6.52536e-06
-4.61333e-08
8.91194e-07
-5.54737e-06
-4.66343e-08
1.00997e-06
-4.69173e-06
-4.59525e-08
1.13413e-06
-3.96427e-06
-4.39765e-08
1.26087e-06
-3.36974e-06
-4.10674e-08
1.38777e-06
-2.91908e-06
-3.81012e-08
1.51374e-06
-2.61461e-06
-3.60466e-08
1.63883e-06
-2.42771e-06
-3.52667e-08
1.76303e-06
-2.31073e-06
-3.54834e-08
1.88651e-06
-2.22533e-06
-3.63391e-08
2.00862e-06
-2.14702e-06
-3.76067e-08
2.12745e-06
-2.05921e-06
-3.92467e-08
2.24232e-06
-1.95115e-06
-4.13104e-08
2.35072e-06
-1.80862e-06
-4.36959e-08
2.44499e-06
-1.58951e-06
-4.63202e-08
2.51647e-06
-1.20117e-06
-4.91242e-08
2.55411e-06
-5.11907e-07
-5.20992e-08
2.55575e-06
5.24473e-07
-5.51026e-08
2.58471e-06
1.5186e-06
-5.33391e-08
2.61442e-06
3.21298e-06
-4.59971e-08
2.65809e-06
5.37751e-06
-3.29006e-08
2.67312e-06
8.01483e-06
-1.09267e-08
2.4694e-06
1.11708e-05
2.06512e-08
1.96892e-06
1.4573e-05
6.57193e-08
1.19828e-06
1.72608e-05
1.07354e-07
4.20989e-07
1.75996e-05
1.2021e-07
1.06029e-05
6.89522e-08
5.09208e-08
-5.37299e-06
-2.59024e-08
1.49675e-07
-1.0615e-05
-4.4045e-08
2.50768e-07
-1.1801e-05
-4.48438e-08
3.43673e-07
-1.16521e-05
-4.35915e-08
4.4284e-07
-1.1e-05
-4.33216e-08
5.48543e-07
-1.00028e-05
-4.40442e-08
6.42626e-07
-8.82681e-06
-4.52923e-08
7.39283e-07
-7.66233e-06
-4.68973e-08
8.56277e-07
-6.59719e-06
-4.84859e-08
9.71919e-07
-5.61712e-06
-4.94252e-08
1.08716e-06
-4.76131e-06
-4.93619e-08
1.20593e-06
-4.03873e-06
-4.80623e-08
1.32953e-06
-3.45119e-06
-4.57124e-08
1.45534e-06
-3.00489e-06
-4.3095e-08
1.58067e-06
-2.7012e-06
-4.12426e-08
1.70539e-06
-2.51378e-06
-4.07106e-08
1.83098e-06
-2.3968e-06
-4.13425e-08
1.95911e-06
-2.31246e-06
-4.27562e-08
2.09007e-06
-2.23503e-06
-4.46406e-08
2.22379e-06
-2.14762e-06
-4.69502e-08
2.36094e-06
-2.04027e-06
-4.96756e-08
2.50245e-06
-1.89906e-06
-5.29372e-08
2.64993e-06
-1.68258e-06
-5.68792e-08
2.80148e-06
-1.2943e-06
-6.18707e-08
2.94494e-06
-5.91361e-07
-6.79784e-08
3.04296e-06
4.96841e-07
-7.428e-08
3.10165e-06
1.53167e-06
-7.56513e-08
3.10012e-06
3.28519e-06
-7.43267e-08
3.0263e-06
5.51687e-06
-6.86083e-08
2.82501e-06
8.27e-06
-5.64086e-08
2.40933e-06
1.16175e-05
-3.30076e-08
1.67284e-06
1.53024e-05
5.35754e-09
8.2989e-07
1.80593e-05
4.24917e-08
1.8513e-07
1.81764e-05
6.51077e-08
1.07547e-05
3.31213e-08
6.75759e-08
-5.41739e-06
-2.88795e-08
1.87395e-07
-1.06938e-05
-4.42565e-08
3.14112e-07
-1.18859e-05
-4.40776e-08
4.34139e-07
-1.17319e-05
-4.24458e-08
5.40395e-07
-1.10663e-05
-4.26553e-08
6.37215e-07
-1.00582e-05
-4.39777e-08
7.51152e-07
-8.8977e-06
-4.54119e-08
8.88056e-07
-7.75454e-06
-4.75311e-08
1.00631e-06
-6.66846e-06
-5.02571e-08
1.09867e-06
-5.66103e-06
-5.18991e-08
1.1929e-06
-4.80643e-06
-5.27098e-08
1.29748e-06
-4.09457e-06
-5.23749e-08
1.41846e-06
-3.52473e-06
-5.08876e-08
1.54817e-06
-3.08881e-06
-4.88202e-08
1.68055e-06
-2.78878e-06
-4.72781e-08
1.81392e-06
-2.60215e-06
-4.70239e-08
1.94902e-06
-2.48561e-06
-4.80671e-08
2.08788e-06
-2.40293e-06
-5.00983e-08
2.23208e-06
-2.32825e-06
-5.27143e-08
2.38195e-06
-2.24348e-06
-5.56966e-08
2.53766e-06
-2.13859e-06
-5.91069e-08
2.70188e-06
-2.00203e-06
-6.32289e-08
2.87923e-06
-1.79414e-06
-6.84784e-08
3.06915e-06
-1.41234e-06
-7.55524e-08
3.25365e-06
-6.95528e-07
-8.45419e-08
3.38879e-06
4.50727e-07
-9.33737e-08
3.44674e-06
1.5667e-06
-9.75711e-08
3.35283e-06
3.4747e-06
-1.00044e-07
3.04932e-06
5.91349e-06
-9.69745e-08
2.49953e-06
8.90432e-06
-8.77767e-08
1.76411e-06
1.24194e-05
-6.91315e-08
1.03439e-06
1.60696e-05
-3.94731e-08
4.68093e-07
1.86335e-05
-1.02899e-08
-8.32135e-09
1.86436e-05
5.58896e-09
1.07538e-05
-7.42161e-09
7.26642e-08
-5.46342e-06
-3.19779e-08
1.81999e-07
-1.07615e-05
-4.46319e-08
2.87693e-07
-1.19502e-05
-4.387e-08
4.0262e-07
-1.1807e-05
-4.20471e-08
4.90569e-07
-1.1115e-05
-4.14545e-08
5.73099e-07
-1.01007e-05
-4.22578e-08
6.84307e-07
-8.9676e-06
-4.42725e-08
8.03074e-07
-7.82946e-06
-4.70954e-08
8.99758e-07
-6.71957e-06
-4.83676e-08
1.02073e-06
-5.73589e-06
-4.90864e-08
1.1504e-06
-4.88926e-06
-5.01779e-08
1.2797e-06
-4.17683e-06
-5.03717e-08
1.405e-06
-3.60328e-06
-4.99023e-08
1.52746e-06
-3.16533e-06
-4.86761e-08
1.64849e-06
-2.86435e-06
-4.76804e-08
1.76936e-06
-2.67702e-06
-4.78047e-08
1.8921e-06
-2.56071e-06
-4.91803e-08
2.01886e-06
-2.47963e-06
-5.15419e-08
2.15136e-06
-2.40771e-06
-5.44889e-08
2.29028e-06
-2.32612e-06
-5.76869e-08
2.43579e-06
-2.22427e-06
-6.11736e-08
2.5901e-06
-2.09235e-06
-6.54728e-08
2.75637e-06
-1.89099e-06
-7.13628e-08
2.92681e-06
-1.50541e-06
-8.00426e-08
3.06648e-06
-7.46821e-07
-9.15172e-08
3.12579e-06
4.9142e-07
-1.03115e-07
3.04558e-06
1.7527e-06
-1.08904e-07
2.78802e-06
3.84381e-06
-1.14535e-07
2.35076e-06
6.46169e-06
-1.13436e-07
1.76499e-06
9.59252e-06
-1.04463e-07
1.10197e-06
1.31679e-05
-8.69922e-08
4.97289e-07
1.67364e-05
-6.33799e-08
9.62314e-08
1.90759e-05
-4.32198e-08
-5.96909e-08
1.88323e-05
-3.49479e-08
1.07253e-05
-3.12682e-08
7.32353e-08
-5.50764e-06
-3.39238e-08
1.6796e-07
-1.08161e-05
-4.27903e-08
2.52051e-07
-1.1996e-05
-4.10412e-08
3.37917e-07
-1.18555e-05
-3.97645e-08
4.57159e-07
-1.11976e-05
-3.83911e-08
5.9187e-07
-1.01985e-05
-3.91533e-08
6.98628e-07
-9.03549e-06
-4.15309e-08
7.67386e-07
-7.85667e-06
-4.40706e-08
8.48201e-07
-6.75692e-06
-4.61114e-08
9.5557e-07
-5.79737e-06
-4.89199e-08
1.06464e-06
-4.9512e-06
-5.02951e-08
1.16862e-06
-4.23346e-06
-5.05221e-08
1.26026e-06
-3.64829e-06
-4.96396e-08
1.35538e-06
-3.21493e-06
-4.81598e-08
1.45568e-06
-2.91986e-06
-4.69491e-08
1.55761e-06
-2.73387e-06
-4.68399e-08
1.6607e-06
-2.61732e-06
-4.80052e-08
1.76586e-06
-2.5361e-06
-5.01739e-08
1.87406e-06
-2.46449e-06
-5.29198e-08
1.98603e-06
-2.38368e-06
-5.58655e-08
2.10223e-06
-2.28286e-06
-5.90398e-08
2.22372e-06
-2.15244e-06
-6.30185e-08
2.35015e-06
-1.95089e-06
-6.87452e-08
2.47204e-06
-1.55276e-06
-7.77154e-08
2.5568e-06
-7.45322e-07
-9.00911e-08
2.57346e-06
5.72214e-07
-1.01417e-07
2.48059e-06
1.94862e-06
-1.07045e-07
2.25399e-06
4.17772e-06
-1.11038e-07
1.88216e-06
6.93969e-06
-1.09328e-07
1.36541e-06
1.02082e-05
-1.01579e-07
7.53096e-07
1.38657e-05
-8.76717e-08
1.41364e-07
1.74169e-05
-7.05067e-08
-1.27981e-07
1.94015e-05
-5.82312e-08
-6.03748e-08
1.88141e-05
-5.25049e-08
1.07109e-05
-4.60825e-08
7.32609e-08
-5.55109e-06
-3.45087e-08
1.56864e-07
-1.08615e-05
-4.0934e-08
2.38707e-07
-1.20416e-05
-3.83899e-08
3.11357e-07
-1.18938e-05
-3.63337e-08
4.23885e-07
-1.12757e-05
-3.65153e-08
5.39343e-07
-1.02784e-05
-3.77429e-08
6.30167e-07
-9.08942e-06
-3.92211e-08
7.07085e-07
-7.89502e-06
-4.10741e-08
7.91127e-07
-6.80064e-06
-4.30626e-08
8.8966e-07
-5.85386e-06
-4.47561e-08
9.89189e-07
-5.00764e-06
-4.56886e-08
1.0942e-06
-4.29499e-06
-4.61015e-08
1.2046e-06
-3.71569e-06
-4.55748e-08
1.31188e-06
-3.27922e-06
-4.53167e-08
1.41553e-06
-2.98038e-06
-4.50161e-08
1.51708e-06
-2.79157e-06
-4.53633e-08
1.61917e-06
-2.67393e-06
-4.67633e-08
1.72452e-06
-2.59356e-06
-4.90978e-08
1.83552e-06
-2.52467e-06
-5.19805e-08
1.95371e-06
-2.44796e-06
-5.50015e-08
2.07973e-06
-2.35171e-06
-5.81996e-08
2.21599e-06
-2.22741e-06
-6.23728e-08
2.36444e-06
-2.03191e-06
-6.87941e-08
2.50961e-06
-1.62086e-06
-7.90142e-08
2.6113e-06
-7.54882e-07
-9.45019e-08
2.61338e-06
6.75052e-07
-1.0722e-07
2.41846e-06
2.25548e-06
-1.14092e-07
2.03762e-06
4.6758e-06
-1.1913e-07
1.49855e-06
7.59358e-06
-1.16351e-07
8.60458e-07
1.09517e-05
-1.06547e-07
1.71047e-07
1.46465e-05
-9.234e-08
-2.51054e-07
1.79169e-05
-7.87703e-08
-2.76266e-07
1.94998e-05
-7.41702e-08
-1.42021e-07
1.87518e-05
-7.32938e-08
1.06338e-05
-6.49706e-08
6.50919e-08
-5.58808e-06
-3.23882e-08
1.53591e-07
-1.09153e-05
-3.70297e-08
2.33073e-07
-1.20877e-05
-3.49854e-08
3.03973e-07
-1.19335e-05
-3.29716e-08
3.31163e-07
-1.12714e-05
-3.39364e-08
3.51605e-07
-1.02665e-05
-3.47375e-08
4.28109e-07
-9.13267e-06
-3.52146e-08
5.19011e-07
-7.95184e-06
-3.61478e-08
6.11727e-07
-6.85785e-06
-3.81884e-08
6.79865e-07
-5.88339e-06
-4.14032e-08
7.56892e-07
-5.04533e-06
-4.19504e-08
8.35353e-07
-4.33417e-06
-4.2108e-08
9.14521e-07
-3.75604e-06
-4.15335e-08
9.90071e-07
-3.31757e-06
-3.94284e-08
1.05496e-06
-3.00906e-06
-3.80014e-08
1.11984e-06
-2.82023e-06
-3.76722e-08
1.18881e-06
-2.70575e-06
-3.84002e-08
1.26262e-06
-2.6286e-06
-3.99655e-08
1.34203e-06
-2.56323e-06
-4.20509e-08
1.42748e-06
-2.49033e-06
-4.42179e-08
1.51793e-06
-2.39664e-06
-4.66024e-08
1.61468e-06
-2.27545e-06
-4.98917e-08
1.7158e-06
-2.07946e-06
-5.53143e-08
1.79416e-06
-1.63662e-06
-6.52183e-08
1.7884e-06
-6.74478e-07
-7.78365e-08
1.72984e-06
8.19836e-07
-8.94253e-08
1.40758e-06
2.67051e-06
-9.57599e-08
9.51914e-07
5.22947e-06
-1.00637e-07
4.12625e-07
8.22991e-06
-9.92458e-08
-1.63341e-07
1.16178e-05
-9.19949e-08
-4.67559e-07
1.50294e-05
-8.0249e-08
-4.71764e-07
1.79894e-05
-6.95671e-08
-2.94914e-07
1.93906e-05
-6.88402e-08
-1.4077e-07
1.8674e-05
-7.82518e-08
1.05668e-05
-7.38396e-08
5.75285e-08
-5.62204e-06
-2.68545e-08
1.33717e-07
-1.09619e-05
-3.18596e-08
1.99714e-07
-1.21257e-05
-3.00044e-08
2.63272e-07
-1.19705e-05
-2.81655e-08
3.11386e-07
-1.12937e-05
-2.72765e-08
3.8032e-07
-1.03093e-05
-2.81116e-08
4.21964e-07
-9.1454e-06
-3.12689e-08
4.78637e-07
-7.97807e-06
-3.26652e-08
5.31089e-07
-6.87804e-06
-3.4375e-08
5.53962e-07
-5.87411e-06
-3.46185e-08
5.70158e-07
-5.02792e-06
-3.65351e-08
5.90168e-07
-4.32032e-06
-3.63887e-08
6.15127e-07
-3.7482e-06
-3.49506e-08
6.5494e-07
-3.32529e-06
-3.3989e-08
7.13162e-07
-3.03648e-06
-3.22794e-08
7.75181e-07
-2.85159e-06
-3.18508e-08
8.36553e-07
-2.73575e-06
-3.23674e-08
8.9657e-07
-2.65601e-06
-3.34954e-08
9.56406e-07
-2.58895e-06
-3.49444e-08
1.01733e-06
-2.51568e-06
-3.63455e-08
1.07961e-06
-2.42192e-06
-3.76942e-08
1.14419e-06
-2.30104e-06
-3.97157e-08
1.20583e-06
-2.09826e-06
-4.38099e-08
1.2367e-06
-1.61687e-06
-5.19662e-08
1.19308e-06
-5.6988e-07
-6.25583e-08
1.11004e-06
9.72269e-07
-7.09368e-08
8.20163e-07
3.03519e-06
-7.61333e-08
4.56056e-07
5.67126e-06
-7.87725e-08
8.53227e-08
8.67681e-06
-7.70214e-08
-1.88511e-07
1.19615e-05
-7.05478e-08
-3.40691e-07
1.52434e-05
-6.23175e-08
-3.42292e-07
1.80448e-05
-5.41154e-08
-2.24985e-07
1.93278e-05
-5.49664e-08
-1.3252e-07
1.86494e-05
-6.86911e-08
1.05061e-05
-7.18006e-08
2.53295e-08
-5.62877e-06
-2.17369e-08
8.99825e-08
-1.10036e-05
-2.47289e-08
1.57285e-07
-1.21715e-05
-2.30249e-08
2.15439e-07
-1.20079e-05
-2.24095e-08
2.63813e-07
-1.13214e-05
-2.26554e-08
2.90394e-07
-1.03134e-05
-2.43097e-08
2.7101e-07
-9.1038e-06
-2.41061e-08
2.47488e-07
-7.93073e-06
-2.6312e-08
2.33483e-07
-6.83947e-06
-2.72861e-08
2.60432e-07
-5.87551e-06
-2.80221e-08
3.03057e-07
-5.04538e-06
-2.73026e-08
3.46696e-07
-4.33894e-06
-2.72494e-08
3.89773e-07
-3.76658e-06
-2.67641e-08
4.30018e-07
-3.34175e-06
-2.55699e-08
4.67107e-07
-3.04977e-06
-2.53597e-08
4.9946e-07
-2.86039e-06
-2.48198e-08
5.2754e-07
-2.74011e-06
-2.47877e-08
5.52804e-07
-2.65703e-06
-2.51909e-08
5.76253e-07
-2.58747e-06
-2.58502e-08
5.99023e-07
-2.51266e-06
-2.66706e-08
6.23824e-07
-2.42005e-06
-2.75255e-08
6.49645e-07
-2.29902e-06
-2.8818e-08
6.65455e-07
-2.0838e-06
-3.16376e-08
6.44315e-07
-1.56104e-06
-3.67031e-08
5.77551e-07
-4.61227e-07
-4.43643e-08
3.99774e-07
1.1984e-06
-5.07432e-08
1.14991e-07
3.37177e-06
-5.40994e-08
-1.24081e-07
5.9628e-06
-5.46432e-08
-2.78431e-07
8.88274e-06
-5.31996e-08
-3.15448e-07
1.20463e-05
-4.91961e-08
-3.20597e-07
1.52897e-05
-4.25868e-08
-2.1764e-07
1.7977e-05
-3.60083e-08
-1.55125e-07
1.92996e-05
-3.5399e-08
-8.50087e-08
1.86242e-05
-4.65947e-08
1.04714e-05
-5.03955e-08
7.0653e-09
-5.62129e-06
-1.72672e-08
3.63389e-08
-1.10132e-05
-2.2097e-08
6.76383e-08
-1.21844e-05
-2.05275e-08
8.27063e-08
-1.20055e-05
-1.92905e-08
8.39629e-08
-1.13057e-05
-1.83487e-08
5.4272e-08
-1.02672e-05
-1.821e-08
1.03453e-07
-9.13584e-06
-1.90318e-08
1.41732e-07
-7.95142e-06
-1.93565e-08
1.75465e-07
-6.85467e-06
-2.03055e-08
1.92736e-07
-5.87394e-06
-2.10544e-08
2.0381e-07
-5.0368e-06
-2.20631e-08
2.16503e-07
-4.33234e-06
-2.14444e-08
2.28565e-07
-3.76022e-06
-2.05073e-08
2.40941e-07
-3.33641e-06
-1.94713e-08
2.39766e-07
-3.03178e-06
-1.81363e-08
2.35108e-07
-2.83917e-06
-1.7624e-08
2.30092e-07
-2.71843e-06
-1.75388e-08
2.24552e-07
-2.63459e-06
-1.76879e-08
2.16976e-07
-2.56266e-06
-1.7936e-08
2.06175e-07
-2.48432e-06
-1.81589e-08
1.92448e-07
-2.38853e-06
-1.83435e-08
1.71993e-07
-2.26044e-06
-1.86976e-08
1.31291e-07
-2.02408e-06
-1.97234e-08
5.43619e-08
-1.46354e-06
-2.15581e-08
-4.94418e-08
-3.3467e-07
-2.39634e-08
-1.50607e-07
1.32424e-06
-2.5901e-08
-2.22041e-07
3.47003e-06
-2.77491e-08
-2.06758e-07
5.9768e-06
-2.98533e-08
-1.61398e-07
8.86668e-06
-2.98775e-08
-1.28264e-07
1.20405e-05
-2.78677e-08
-3.30953e-08
1.52178e-05
-2.34653e-08
3.68527e-08
1.79255e-05
-1.87264e-08
3.89754e-08
1.93152e-05
-1.79921e-08
2.72854e-08
1.8658e-05
-2.25062e-08
1.05237e-05
-2.50043e-08
3.90973e-08
-5.64614e-06
-1.69159e-08
4.38544e-08
-1.09999e-05
-1.97655e-08
3.76254e-08
-1.21614e-05
-1.80994e-08
2.82878e-08
-1.19807e-05
-1.67741e-08
5.95953e-08
-1.13221e-05
-1.64039e-08
9.37247e-08
-1.02865e-05
-1.66067e-08
1.05267e-07
-9.13136e-06
-1.82105e-08
1.19131e-07
-7.94824e-06
-1.91847e-08
1.16689e-07
-6.83442e-06
-1.98593e-08
1.19941e-07
-5.85897e-06
-2.03394e-08
9.48875e-08
-4.99351e-06
-2.0597e-08
8.54536e-08
-4.3046e-06
-2.0657e-08
1.05561e-07
-3.76259e-06
-1.96809e-08
1.17178e-07
-3.33095e-06
-1.87438e-08
1.43564e-07
-3.0417e-06
-1.78755e-08
1.69494e-07
-2.84897e-06
-1.72705e-08
1.91704e-07
-2.72452e-06
-1.70807e-08
2.13692e-07
-2.64023e-06
-1.72021e-08
2.34244e-07
-2.56648e-06
-1.75263e-08
2.53173e-07
-2.48608e-06
-1.79023e-08
2.69804e-07
-2.38751e-06
-1.83771e-08
2.81852e-07
-2.25422e-06
-1.91091e-08
2.82313e-07
-2.00522e-06
-2.05261e-08
2.61029e-07
-1.42131e-06
-2.27459e-08
2.24191e-07
-2.75125e-07
-2.48634e-08
2.3331e-07
1.33798e-06
-2.47986e-08
2.66905e-07
3.45842e-06
-2.36694e-08
2.58935e-07
6.00569e-06
-2.25598e-08
1.85971e-07
8.95914e-06
-2.07656e-08