/*--------------------------------*- C++ -*----------------------------------*\
  =========                 |
  \\      /  F ield         | OpenFOAM: The Open Source CFD Toolbox
   \\    /   O peration     | Website:  https://openfoam.org
    \\  /    A nd           | Version:  13
     \\/     M anipulation  |
\*---------------------------------------------------------------------------*/
FoamFile
{
    format      ascii;
    class       volVectorField;
    location    "10";
    object      U;
}
// * * * * * * * * * * * * * * * * * * * * * * * * * * * * * * * * * * * * * //

dimensions      [0 1 -1 0 0 0 0];

internalField   nonuniform List<vector> 
78750
(
(-0.00386947 -5.56226e-05 0.00711537)
(-0.00437169 -0.0143304 0.0132773)
(0.00320247 -0.028754 0.013858)
(0.01148 -0.0363455 0.0136381)
(0.0216561 -0.039606 0.0134992)
(0.031428 -0.0398983 0.0143926)
(0.0413792 -0.0455834 0.014075)
(0.0504746 -0.0493357 0.0131492)
(0.0584967 -0.048098 0.0125668)
(0.0664095 -0.0421815 0.0123111)
(0.0721111 -0.0376308 0.0115715)
(0.0773835 -0.0321616 0.0110547)
(0.0804718 -0.0253762 0.0111209)
(0.0836664 -0.0162657 0.0108708)
(0.0836922 -0.0122941 0.0102208)
(0.0842326 -0.00900776 0.00958327)
(0.0831795 -0.0061096 0.00901212)
(0.081893 -0.00316387 0.00829921)
(0.0801063 -0.0011439 0.00737388)
(0.0781568 0.000579707 0.00651887)
(0.0760554 0.00291847 0.00596545)
(0.0737364 0.00609346 0.00570242)
(0.0711703 0.009569 0.00555843)
(0.0683307 0.0127193 0.00538015)
(0.0653145 0.0151509 0.00512892)
(0.0621098 0.0169446 0.00484581)
(0.0587671 0.0183447 0.00463252)
(0.0552271 0.0197256 0.00447512)
(0.0508668 0.0214992 0.00440436)
(0.0463245 0.0228807 0.00423517)
(0.0405074 0.0256077 0.00417651)
(0.0335518 0.0295183 0.00417826)
(0.0253458 0.0332544 0.0040286)
(0.0158187 0.037871 0.00423987)
(0.00416114 0.0329402 0.00275993)
(0.000436913 -0.012992 0.00486059)
(0.00591739 -0.0579372 0.00625317)
(0.0136751 -0.0898544 0.00592343)
(0.0198605 -0.104636 0.00518788)
(0.0279944 -0.106128 0.00402727)
(0.0318014 -0.103858 0.00339168)
(0.0382519 -0.0926123 0.00404579)
(0.0401759 -0.0796231 0.00500932)
(0.0427164 -0.0679833 0.00570792)
(0.0434835 -0.057773 0.00586956)
(0.0442967 -0.0464254 0.006472)
(0.0441993 -0.0347418 0.00716404)
(0.0434354 -0.0235143 0.00774753)
(0.0424119 -0.0136237 0.00860073)
(0.041779 -0.00318531 0.00954241)
(0.0400187 0.00862998 0.00901301)
(0.0391502 0.0132192 0.00837169)
(0.0382805 0.0178648 0.00759344)
(0.0373661 0.0203093 0.00719162)
(0.0364018 0.0217263 0.00713641)
(0.0356858 0.0224298 0.00717944)
(0.0349561 0.023209 0.0073024)
(0.0345567 0.0237035 0.00738739)
(0.0341621 0.0243725 0.0075259)
(0.0339229 0.0246866 0.00760182)
(0.0333019 0.0252698 0.00755914)
(0.0326937 0.0264166 0.00737996)
(0.0316719 0.0305198 0.00699212)
(0.0299425 0.0366111 0.00663703)
(0.0275829 0.0452081 0.00647826)
(0.0245286 0.0558434 0.0062471)
(0.0201495 0.0686452 0.00598094)
(0.0148052 0.0842071 0.00568768)
(0.00785096 0.0986222 0.00512418)
(0.00148715 0.0828621 0.003162)
(0.000891538 -0.0388313 0.00206975)
(0.00528363 -0.103695 0.00153649)
(0.00877663 -0.127176 0.00130272)
(0.0114979 -0.12725 0.00181859)
(0.0126188 -0.123021 0.00216289)
(0.0144662 -0.112813 0.00224267)
(0.0138745 -0.100325 0.00195084)
(0.016207 -0.086065 0.00235924)
(0.0158246 -0.0718416 0.00277431)
(0.0156084 -0.0578773 0.00316834)
(0.0152804 -0.0444022 0.00362535)
(0.0148798 -0.031321 0.00426714)
(0.0144326 -0.0183357 0.00492273)
(0.0135612 -0.00756748 0.00516456)
(0.013131 -0.0017818 0.00495065)
(0.0132939 0.000830998 0.00477401)
(0.0139471 0.0028118 0.00473614)
(0.0148572 0.00434205 0.00486229)
(0.0159422 0.00555412 0.00507976)
(0.0170815 0.00668152 0.00532333)
(0.0182329 0.00786042 0.0055745)
(0.019356 0.00921489 0.00581966)
(0.0204036 0.0108952 0.00602173)
(0.0212987 0.0131051 0.00612382)
(0.0219511 0.0161235 0.00612476)
(0.0222516 0.0203303 0.0061089)
(0.0221962 0.0263107 0.00615917)
(0.0211087 0.0348612 0.00631441)
(0.0205527 0.0438596 0.00650156)
(0.0182098 0.0568336 0.00658253)
(0.0159449 0.0733935 0.00647653)
(0.0126847 0.0943775 0.00614447)
(0.0089738 0.116278 0.00554827)
(0.00449357 0.130823 0.00446499)
(0.000565724 0.101888 0.00236272)
(0.000701699 -0.053812 0.00106781)
(0.00252259 -0.116763 0.000896436)
(0.00384875 -0.13335 0.000425269)
(0.00488977 -0.133348 0.000112969)
(0.00586371 -0.128022 -8.8021e-05)
(0.00635849 -0.117879 -0.000160884)
(0.00694354 -0.104373 -3.99391e-05)
(0.00683811 -0.0890661 0.000105811)
(0.00731626 -0.0736177 0.000711173)
(0.00732404 -0.0590181 0.00148217)
(0.00723744 -0.0451856 0.00221024)
(0.00728136 -0.0320898 0.00285957)
(0.0074836 -0.0202352 0.00337507)
(0.00796194 -0.0111035 0.00361611)
(0.00861085 -0.00579088 0.00358224)
(0.00933601 -0.0032103 0.00344694)
(0.00997813 -0.00198064 0.00340567)
(0.0107559 -0.000966424 0.00348927)
(0.0115379 -0.000134542 0.00363842)
(0.0123322 0.000663195 0.00381788)
(0.0131257 0.00166681 0.00402192)
(0.0139057 0.00307944 0.00423417)
(0.0146601 0.00514084 0.00445204)
(0.0153572 0.00817797 0.0047049)
(0.0159361 0.0125864 0.0050394)
(0.0163533 0.0187543 0.0054802)
(0.0164365 0.0271296 0.00603279)
(0.0164402 0.0375389 0.00647193)
(0.0155472 0.0520205 0.00696513)
(0.0144145 0.0688683 0.00773778)
(0.012657 0.0885645 0.00819931)
(0.0102767 0.11111 0.00813591)
(0.00733141 0.135172 0.00751654)
(0.0034155 0.151856 0.00610846)
(0.000216365 0.11357 0.00323206)
(0.000240868 -0.061118 0.000325397)
(0.000965473 -0.127029 7.35714e-05)
(0.00175793 -0.143416 -3.03479e-05)
(0.00243536 -0.142141 -0.000107577)
(0.00303132 -0.133781 -0.000220131)
(0.00348002 -0.12058 -0.000314813)
(0.00371203 -0.105234 -0.00032767)
(0.0039412 -0.0896917 -0.000240645)
(0.00411825 -0.0746341 -0.000148989)
(0.004293 -0.0602824 1.1325e-05)
(0.00453499 -0.0470752 0.000327034)
(0.00484469 -0.0353303 0.000746782)
(0.00529098 -0.0254879 0.00117612)
(0.00590958 -0.0181899 0.00150065)
(0.00664268 -0.0137 0.0016604)
(0.00738855 -0.0112381 0.00171178)
(0.00812708 -0.00980439 0.0017471)
(0.00890053 -0.00881593 0.00181721)
(0.00959437 -0.00805898 0.00192052)
(0.0103471 -0.00711106 0.00207774)
(0.0110394 -0.00603034 0.00221444)
(0.0117177 -0.00465059 0.00230319)
(0.0123627 -0.00271826 0.00238291)
(0.0129718 0.000282341 0.00250938)
(0.0135033 0.00497851 0.00271679)
(0.0139493 0.0117846 0.00303413)
(0.0142629 0.0212897 0.00350738)
(0.014473 0.0340851 0.00430169)
(0.0138921 0.0511997 0.00502978)
(0.0133253 0.070236 0.00595103)
(0.0117594 0.0936612 0.00691461)
(0.0090924 0.123905 0.00739699)
(0.005668 0.156559 0.00707163)
(0.00202854 0.174467 0.00573898)
(-7.98444e-05 0.121785 0.00283379)
(0.000213578 -0.0633494 -0.000169353)
(0.000749556 -0.128387 -0.000739783)
(0.00119554 -0.144274 -0.000863664)
(0.00154159 -0.143312 -0.000862476)
(0.00187114 -0.135829 -0.000876364)
(0.00218127 -0.123539 -0.000885752)
(0.00248848 -0.108554 -0.000875714)
(0.00276918 -0.0928192 -0.000815257)
(0.00304805 -0.077609 -0.000665001)
(0.00334381 -0.0634862 -0.000444321)
(0.00369149 -0.0505974 -0.000174814)
(0.00410288 -0.0390782 0.000127131)
(0.00457928 -0.0293663 0.000423177)
(0.00511797 -0.022143 0.000652954)
(0.00568888 -0.017727 0.000773859)
(0.0062454 -0.0153818 0.00080967)
(0.0067932 -0.0140329 0.000829273)
(0.00734945 -0.0130752 0.000878311)
(0.00789554 -0.0122401 0.000955093)
(0.008424 -0.0113393 0.00104072)
(0.00893766 -0.0102055 0.00111326)
(0.00942858 -0.00868638 0.00115102)
(0.0098869 -0.00652591 0.00115446)
(0.0103193 -0.00281078 0.00118349)
(0.0106042 0.00243955 0.00126579)
(0.0107834 0.00842327 0.00135397)
(0.0110178 0.0194368 0.00159584)
(0.0107054 0.0346549 0.00197872)
(0.0105181 0.0526678 0.00331634)
(0.00927694 0.0778462 0.00460683)
(0.00758221 0.109332 0.00621751)
(0.0051009 0.145211 0.00716829)
(0.00271866 0.176097 0.00670618)
(0.000694034 0.186288 0.00496165)
(-0.00019558 0.122154 0.00179568)
(6.74536e-05 -0.0666658 -0.000280386)
(0.000406141 -0.133285 -0.000811341)
(0.000754305 -0.1485 -0.00110677)
(0.00110325 -0.146538 -0.00125722)
(0.00141376 -0.137827 -0.00139009)
(0.00166535 -0.124497 -0.00150225)
(0.00188035 -0.109043 -0.00156606)
(0.00210076 -0.0933444 -0.00156661)
(0.00234284 -0.0783983 -0.00149725)
(0.00261287 -0.0646686 -0.00134908)
(0.00291553 -0.0523732 -0.00112489)
(0.00326198 -0.0416475 -0.000843072)
(0.00366156 -0.0327617 -0.000544529)
(0.00411187 -0.0261872 -0.000293139)
(0.00459252 -0.0220428 -0.000135743)
(0.00506772 -0.0197164 -6.42667e-05)
(0.00552739 -0.0183418 -3.01604e-05)
(0.0059831 -0.0173483 8.67899e-06)
(0.00642739 -0.0164423 5.83908e-05)
(0.00685081 -0.0154449 0.00010196)
(0.00725386 -0.0142307 0.0001147)
(0.00762493 -0.0126643 7.87505e-05)
(0.0079642 -0.0103578 5.32077e-06)
(0.00827434 -0.00634788 -6.35973e-05)
(0.00846885 0.000289385 -0.000129077)
(0.00848563 0.00693306 -0.000139511)
(0.00826977 0.0195999 2.67681e-06)
(0.00812063 0.0364396 0.000415477)
(0.00744151 0.0581749 0.00139202)
(0.00659463 0.0852498 0.00293876)
(0.00557888 0.116954 0.00496832)
(0.00448647 0.150898 0.00667437)
(0.00321699 0.180779 0.00698771)
(0.00160216 0.190747 0.00545942)
(0.000214289 0.123733 0.00200953)
(0.00012072 -0.0669516 -0.000411844)
(0.000361533 -0.133575 -0.000869361)
(0.000585883 -0.149388 -0.000966956)
(0.000833822 -0.147849 -0.00102329)
(0.0010839 -0.139592 -0.00110362)
(0.00134071 -0.126702 -0.00120001)
(0.00159917 -0.111569 -0.00128917)
(0.00186717 -0.0960909 -0.00134872)
(0.00215303 -0.0813279 -0.00136033)
(0.00246695 -0.0677418 -0.00131334)
(0.00281423 -0.0555297 -0.00120451)
(0.00319707 -0.0448248 -0.00103854)
(0.00361252 -0.0358972 -0.000835917)
(0.00404661 -0.0292289 -0.00064383)
(0.00448696 -0.0250028 -0.000516587)
(0.00490928 -0.0226327 -0.00046403)
(0.0053149 -0.0212253 -0.000449871)
(0.00572013 -0.0201902 -0.000438446)
(0.00612236 -0.0192272 -0.000422085)
(0.00651741 -0.0181582 -0.000415229)
(0.00690003 -0.0168638 -0.000444709)
(0.00726363 -0.0151904 -0.000532354)
(0.00761583 -0.0127147 -0.000680786)
(0.00795461 -0.00841661 -0.000876943)
(0.00835808 -0.000879548 -0.00110096)
(0.00849101 0.00657181 -0.00124817)
(0.00847348 0.0198244 -0.00135189)
(0.0085635 0.0365975 -0.00112139)
(0.00839263 0.0587908 -0.000887478)
(0.00800739 0.085709 -0.000119413)
(0.00731394 0.117708 0.00138707)
(0.00614348 0.153542 0.00354063)
(0.00424635 0.188358 0.00513965)
(0.00190683 0.200653 0.00481927)
(0.000163569 0.13006 0.00176151)
(8.45079e-05 -0.0687008 -0.000543857)
(0.000320511 -0.13615 -0.0012115)
(0.000564279 -0.151412 -0.00141466)
(0.000808532 -0.14948 -0.00149511)
(0.00104763 -0.140772 -0.00158533)
(0.00127867 -0.127486 -0.00168715)
(0.00150794 -0.112122 -0.00177632)
(0.00174393 -0.0966004 -0.00183019)
(0.00199137 -0.0819831 -0.00183003)
(0.00225784 -0.0687123 -0.0017646)
(0.00254916 -0.0569546 -0.00163384)
(0.00287203 -0.0467862 -0.00144869)
(0.00323114 -0.0383604 -0.0012334)
(0.00361991 -0.0319974 -0.00103088)
(0.00401852 -0.027873 -0.00089188)
(0.00440032 -0.0255259 -0.000831791)
(0.00477088 -0.0241371 -0.000818446)
(0.00514785 -0.0231328 -0.000817177)
(0.0055294 -0.0222026 -0.000818273)
(0.00591218 -0.02116 -0.000831488)
(0.00629598 -0.0198893 -0.000879605)
(0.00668121 -0.0182744 -0.000990477)
(0.00708367 -0.0159609 -0.0011794)
(0.00752434 -0.0120739 -0.0014461)
(0.00805211 -0.00464199 -0.00175952)
(0.00840728 0.00566043 -0.00200592)
(0.00863217 0.0169009 -0.00217901)
(0.00878717 0.0361849 -0.00234769)
(0.00875455 0.0600605 -0.00233839)
(0.00815562 0.0896188 -0.00188936)
(0.00703315 0.12532 -0.000795239)
(0.00509946 0.167038 0.000784371)
(0.00296038 0.203358 0.00235666)
(0.000912018 0.213174 0.00257087)
(-0.000114939 0.132663 0.000374246)
(9.59976e-05 -0.069067 -0.00051489)
(0.000243779 -0.136714 -0.00104149)
(0.000419841 -0.152372 -0.00116334)
(0.000647794 -0.150628 -0.00122431)
(0.000893461 -0.142203 -0.00130392)
(0.00115847 -0.129275 -0.00140444)
(0.00142764 -0.114207 -0.0015035)
(0.00170049 -0.0988623 -0.00158075)
(0.00197156 -0.0843358 -0.00161861)
(0.00224134 -0.0710957 -0.00160177)
(0.00251351 -0.059332 -0.00152427)
(0.00279278 -0.0491603 -0.00139366)
(0.00308701 -0.0407439 -0.00123208)
(0.00339905 -0.034352 -0.00107626)
(0.0037183 -0.0301402 -0.00096807)
(0.00402217 -0.0277181 -0.000923847)
(0.00431355 -0.0263043 -0.000920999)
(0.00460717 -0.0253084 -0.000928264)
(0.00490401 -0.0244011 -0.000937577)
(0.0052014 -0.0233931 -0.000956135)
(0.00550244 -0.0221805 -0.00100397)
(0.0058172 -0.0206613 -0.00110189)
(0.00611777 -0.0185448 -0.00125824)
(0.00642131 -0.0148831 -0.00147217)
(0.00679541 -0.00771321 -0.00171621)
(0.00705088 0.00423466 -0.00187462)
(0.0070989 0.0158552 -0.00195755)
(0.00712033 0.0365235 -0.00199997)
(0.00671197 0.0633595 -0.00190036)
(0.00586346 0.0966263 -0.00164941)
(0.00458405 0.136065 -0.00119488)
(0.00292235 0.178681 -0.000373402)
(0.00142683 0.212687 0.000435436)
(0.000281926 0.218522 0.000506002)
(-6.68411e-05 0.131823 -0.00011161)
(9.47769e-05 -0.0698518 -0.000690398)
(0.000324231 -0.137988 -0.00142731)
(0.000559091 -0.153812 -0.00157525)
(0.000813435 -0.152118 -0.00162014)
(0.00105757 -0.143614 -0.00170038)
(0.00127549 -0.130476 -0.00181592)
(0.00146345 -0.115179 -0.00192948)
(0.00164344 -0.0996566 -0.00200934)
(0.00181852 -0.0850187 -0.00203483)
(0.00198894 -0.0717757 -0.00198799)
(0.0021654 -0.0601196 -0.00186298)
(0.00235729 -0.050147 -0.00167442)
(0.00257146 -0.0419862 -0.00145786)
(0.00281195 -0.0358163 -0.00126152)
(0.00306737 -0.0317197 -0.00112862)
(0.0033147 -0.0292993 -0.00106749)
(0.00354695 -0.0278679 -0.00105451)
(0.00377318 -0.0268702 -0.001059)
(0.00399279 -0.0259884 -0.0010713)
(0.00420871 -0.0250339 -0.00109597)
(0.00442479 -0.0238462 -0.00113894)
(0.00462638 -0.0223216 -0.00122029)
(0.00480459 -0.0201178 -0.00134226)
(0.00494695 -0.0162448 -0.00149765)
(0.00499792 -0.00874071 -0.00164348)
(0.00496446 0.00377529 -0.00169017)
(0.00484976 0.0170401 -0.00159395)
(0.00457695 0.0395061 -0.00121424)
(0.00397868 0.0688092 -0.000444502)
(0.0032211 0.103827 0.000470223)
(0.00240679 0.144429 0.00119147)
(0.00152676 0.186701 0.00161085)
(0.000793351 0.218563 0.00133682)
(0.000337128 0.22066 0.000584909)
(0.000169968 0.131422 0.000243311)
(8.01437e-05 -0.0704767 -0.000627002)
(0.000267217 -0.139205 -0.0012493)
(0.000435666 -0.154966 -0.00139667)
(0.000628061 -0.153128 -0.00146661)
(0.00079673 -0.144416 -0.00156263)
(0.000945076 -0.131109 -0.00169666)
(0.00107332 -0.115783 -0.00184779)
(0.00119883 -0.100322 -0.00198664)
(0.00133599 -0.0857054 -0.00208139)
(0.00149049 -0.072478 -0.00210012)
(0.00166546 -0.0608873 -0.00202373)
(0.00186017 -0.0510194 -0.00185833)
(0.00207144 -0.0429789 -0.00164262)
(0.00229667 -0.0369185 -0.00143759)
(0.00253172 -0.0328462 -0.00129517)
(0.00276387 -0.030368 -0.00122602)
(0.00298062 -0.0288507 -0.00120683)
(0.00318474 -0.0277631 -0.00121156)
(0.00337736 -0.0267795 -0.00122623)
(0.00355193 -0.0257215 -0.00125732)
(0.00371521 -0.0244246 -0.00131146)
(0.00385019 -0.0227233 -0.00139009)
(0.00394096 -0.020178 -0.00148757)
(0.00394989 -0.0155282 -0.0016068)
(0.00384068 -0.00701162 -0.00174219)
(0.0036474 0.00618752 -0.00187032)
(0.00349066 0.0203893 -0.00190356)
(0.00331537 0.0433726 -0.00161441)
(0.00320944 0.0728257 -0.000882175)
(0.00314972 0.107868 0.000443098)
(0.00271673 0.146131 0.00279598)
(0.00253513 0.187702 0.00402169)
(0.00217797 0.218923 0.00438228)
(0.00145786 0.220805 0.00376699)
(0.000339059 0.133052 0.00155066)
(9.01789e-05 -0.0708183 -0.000690416)
(0.000259238 -0.139917 -0.00127317)
(0.000389469 -0.155638 -0.0013502)
(0.000560885 -0.153724 -0.00138741)
(0.000725251 -0.144907 -0.00146726)
(0.000900961 -0.131492 -0.00159014)
(0.00107249 -0.116032 -0.0017375)
(0.00123553 -0.100534 -0.0018869)
(0.00141566 -0.0860794 -0.00200434)
(0.00162176 -0.0730851 -0.00206192)
(0.0018463 -0.0617311 -0.00203986)
(0.00208619 -0.0520743 -0.0019315)
(0.00233702 -0.0441774 -0.00175901)
(0.00259455 -0.0381924 -0.00157673)
(0.00285552 -0.034158 -0.00144464)
(0.00311108 -0.0316831 -0.00138401)
(0.00335899 -0.0301268 -0.00137576)
(0.00360359 -0.0289869 -0.00139738)
(0.00383931 -0.0279535 -0.0014376)
(0.00407379 -0.0267999 -0.00150158)
(0.00430688 -0.025374 -0.00160511)
(0.0045154 -0.0235 -0.00175788)
(0.00469657 -0.0206236 -0.00197271)
(0.00483687 -0.0155673 -0.00226108)
(0.00489685 -0.00668285 -0.00262819)
(0.00497569 0.00662911 -0.0030452)
(0.00503897 0.019628 -0.00322022)
(0.00509211 0.0418914 -0.00309718)
(0.00526641 0.0705975 -0.00263389)
(0.00533994 0.10537 -0.00163304)
(0.00536464 0.14608 -8.01083e-05)
(0.00464101 0.188132 0.00229627)
(0.00332915 0.22216 0.00434549)
(0.00170183 0.229466 0.00435284)
(0.000356873 0.139423 0.00202585)
(0.000106485 -0.0711796 -0.000755757)
(0.00029427 -0.1406 -0.00130658)
(0.000439391 -0.156359 -0.00137165)
(0.000624254 -0.154505 -0.00140637)
(0.000798962 -0.145823 -0.00148327)
(0.000994264 -0.132587 -0.00159725)
(0.00118274 -0.117143 -0.00172254)
(0.00135186 -0.101673 -0.00185562)
(0.00155679 -0.0873229 -0.00197775)
(0.00178243 -0.0743345 -0.0020498)
(0.00200454 -0.0629583 -0.00205171)
(0.00223376 -0.0532908 -0.00196989)
(0.00247688 -0.0453938 -0.00181703)
(0.00273173 -0.0394047 -0.00164162)
(0.00299063 -0.0353473 -0.00150634)
(0.00324416 -0.0328545 -0.00144275)
(0.00349142 -0.0313033 -0.00143849)
(0.00373921 -0.0301785 -0.00147055)
(0.00399268 -0.0291392 -0.00152536)
(0.00425586 -0.027971 -0.00161148)
(0.00451951 -0.0265393 -0.00174326)
(0.0047821 -0.0246485 -0.0019439)
(0.00504572 -0.0217432 -0.00223645)
(0.00531426 -0.0165457 -0.00265364)
(0.00558302 -0.00719499 -0.00319958)
(0.00587821 0.0070105 -0.00381005)
(0.00604926 0.0204017 -0.00415093)
(0.00614056 0.0431161 -0.00435593)
(0.00611928 0.0719588 -0.00430855)
(0.00590073 0.107326 -0.0038544)
(0.00547333 0.150488 -0.00267709)
(0.00423966 0.198901 -0.000560181)
(0.00254501 0.236375 0.00139708)
(0.00103323 0.23808 0.00227298)
(0.00012599 0.142197 0.00101722)
(0.000126107 -0.0716589 -0.000773836)
(0.000350094 -0.141467 -0.00122853)
(0.000539541 -0.157209 -0.00127083)
(0.000776589 -0.155098 -0.00129047)
(0.000998498 -0.146461 -0.00137965)
(0.00118154 -0.133205 -0.00151248)
(0.00136391 -0.117401 -0.00163509)
(0.00160715 -0.10194 -0.0017758)
(0.00187404 -0.0880041 -0.00193585)
(0.00205887 -0.07496 -0.00202521)
(0.00223155 -0.0636016 -0.00205691)
(0.00242083 -0.0540727 -0.0020122)
(0.00264814 -0.0463573 -0.00189181)
(0.00290689 -0.0404835 -0.00173055)
(0.00317819 -0.0364641 -0.00159482)
(0.00344627 -0.0339705 -0.001527)
(0.00371238 -0.0324106 -0.00152381)
(0.00397914 -0.0312956 -0.00156717)
(0.00425547 -0.0302814 -0.00164064)
(0.00454627 -0.0291319 -0.00174678)
(0.00484074 -0.0277186 -0.00190605)
(0.0051405 -0.0258719 -0.00214914)
(0.00545321 -0.0230538 -0.00251161)
(0.00579339 -0.0179824 -0.00304216)
(0.00615231 -0.0087167 -0.00374484)
(0.00650975 0.00597091 -0.00450459)
(0.00670484 0.0200476 -0.00500061)
(0.00678434 0.0438831 -0.00540788)
(0.00644659 0.074341 -0.00548512)
(0.0056611 0.112132 -0.00517111)
(0.00436388 0.157913 -0.00424025)
(0.00278986 0.207434 -0.00258058)
(0.00160587 0.243233 -0.000905564)
(0.000508041 0.244635 -8.21166e-05)
(-3.32751e-05 0.143171 -0.000478964)
(0.000147204 -0.0723661 -0.00080175)
(0.000360472 -0.142697 -0.00117924)
(0.000522394 -0.158619 -0.00121681)
(0.000720103 -0.15663 -0.00123894)
(0.000910542 -0.147594 -0.00129334)
(0.00105806 -0.134073 -0.00139859)
(0.00123686 -0.119044 -0.0015554)
(0.00146178 -0.104147 -0.00172474)
(0.00164395 -0.0892225 -0.00180461)
(0.00185577 -0.0754994 -0.00183156)
(0.00212154 -0.0641674 -0.00185412)
(0.00236883 -0.0547857 -0.00182527)
(0.00262709 -0.0473617 -0.0017515)
(0.00287541 -0.0416503 -0.00162749)
(0.00312545 -0.0376913 -0.00151169)
(0.00336755 -0.0352196 -0.00145294)
(0.00360733 -0.0336798 -0.00145538)
(0.0038493 -0.0326003 -0.00150499)
(0.00410327 -0.0316364 -0.0015884)
(0.00437016 -0.0305392 -0.00170452)
(0.00464277 -0.0291702 -0.00187242)
(0.00492082 -0.0273995 -0.00213298)
(0.00521064 -0.0247205 -0.00253852)
(0.00552347 -0.0196946 -0.00316206)
(0.00582473 -0.00996674 -0.00400272)
(0.00605028 0.00579554 -0.00492142)
(0.00607177 0.021397 -0.00550568)
(0.00581208 0.0482674 -0.00606577)
(0.00517009 0.0826586 -0.00622953)
(0.00418504 0.12438 -0.00587958)
(0.00294513 0.172025 -0.00497743)
(0.00159407 0.219497 -0.0036193)
(0.000619773 0.251806 -0.00238854)
(0.000139988 0.250603 -0.00172752)
(4.4309e-05 0.142515 -0.0011187)
(0.000163177 -0.0728789 -0.000810054)
(0.000356774 -0.143263 -0.00109449)
(0.000472562 -0.158916 -0.00109371)
(0.000620084 -0.15711 -0.00112746)
(0.000779797 -0.14774 -0.00114793)
(0.00105622 -0.134312 -0.0012372)
(0.00129481 -0.119247 -0.00138608)
(0.00145093 -0.103907 -0.00153442)
(0.00155552 -0.0893335 -0.00165228)
(0.00174394 -0.0769251 -0.00178444)
(0.00195448 -0.0657568 -0.00182791)
(0.00217728 -0.0562054 -0.00179552)
(0.00236724 -0.0483841 -0.00169171)
(0.00255741 -0.0424517 -0.00155043)
(0.00275932 -0.0384076 -0.00142222)
(0.0029637 -0.0358969 -0.00135073)
(0.00316564 -0.0343418 -0.00134209)
(0.0033672 -0.0332619 -0.00138236)
(0.00357585 -0.0323078 -0.00145784)
(0.00379105 -0.0312297 -0.0015657)
(0.00400708 -0.0298848 -0.00172339)
(0.00422303 -0.0281376 -0.00197183)
(0.00444447 -0.02544 -0.00237045)
(0.0046596 -0.0201728 -0.00300812)
(0.00486611 -0.00968725 -0.00389617)
(0.00497597 0.00746995 -0.00479014)
(0.00494271 0.0253795 -0.00534458)
(0.00469966 0.0540737 -0.00578724)
(0.00417454 0.0891983 -0.00587461)
(0.00331731 0.130619 -0.00553911)
(0.00227002 0.177939 -0.00475288)
(0.000896575 0.225254 -0.00367359)
(-0.000102624 0.255094 -0.00280976)
(-6.15152e-05 0.249877 -0.00225302)
(0.000179483 0.14257 -0.00152766)
(0.000179748 -0.0735594 -0.00081567)
(0.00034915 -0.144159 -0.00104374)
(0.000437205 -0.159844 -0.00102164)
(0.000585556 -0.157909 -0.00103746)
(0.000762407 -0.149795 -0.00114535)
(0.000962692 -0.136678 -0.00125571)
(0.00115283 -0.120853 -0.0013414)
(0.00131815 -0.104881 -0.00142624)
(0.0014536 -0.0902417 -0.0015193)
(0.00161143 -0.0771653 -0.00158342)
(0.0018028 -0.0658599 -0.00160142)
(0.0020186 -0.0563575 -0.00156657)
(0.00222975 -0.048641 -0.00147104)
(0.00246689 -0.0430669 -0.00138712)
(0.0026788 -0.0392605 -0.00130756)
(0.00287927 -0.0368192 -0.00125749)
(0.0030789 -0.0352727 -0.00125671)
(0.00327967 -0.0341973 -0.00130094)
(0.00349183 -0.0332577 -0.00137943)
(0.00371488 -0.0321981 -0.00148811)
(0.00394445 -0.0308728 -0.00164368)
(0.0041852 -0.0291737 -0.00189701)
(0.00445098 -0.026561 -0.00232352)
(0.0046772 -0.0213358 -0.00302066)
(0.00497321 -0.0104964 -0.00404795)
(0.0050665 0.00732591 -0.00501145)
(0.00495003 0.0259949 -0.00563482)
(0.0044431 0.0565332 -0.00612523)
(0.00354833 0.09485 -0.0061252)
(0.00242907 0.140331 -0.0056254)
(0.00110047 0.190233 -0.00475616)
(-0.000166884 0.237327 -0.00380274)
(-0.000485928 0.260191 -0.00319546)
(-0.000198761 0.249836 -0.00275062)
(8.27874e-05 0.141747 -0.00196232)
(0.000168238 -0.0740056 -0.000734544)
(0.000336043 -0.144453 -0.000899564)
(0.000433496 -0.160116 -0.00088759)
(0.000577784 -0.158113 -0.000897583)
(0.000690239 -0.149843 -0.0010005)
(0.000690435 -0.136467 -0.00109775)
(0.000748536 -0.120673 -0.00116379)
(0.000893341 -0.104904 -0.00123906)
(0.00108324 -0.0904835 -0.00133281)
(0.00125962 -0.0784106 -0.00147981)
(0.0013551 -0.0672073 -0.00149715)
(0.00150369 -0.0577699 -0.00146506)
(0.00169154 -0.0500949 -0.00137555)
(0.0018417 -0.0440593 -0.00121623)
(0.00199096 -0.0399303 -0.00108666)
(0.00211951 -0.0373578 -0.00101651)
(0.0022489 -0.0357811 -0.000999777)
(0.00238725 -0.0347243 -0.00102523)
(0.0025394 -0.0338373 -0.00108521)
(0.00269976 -0.0328623 -0.0011713)
(0.00286173 -0.0316334 -0.00130347)
(0.00302036 -0.0300376 -0.00151994)
(0.00317246 -0.0274761 -0.00188643)
(0.00336582 -0.0218132 -0.00253276)
(0.00338336 -0.00966089 -0.00337504)
(0.00337777 0.0105115 -0.00424558)
(0.00305511 0.033841 -0.00481485)
(0.0023208 0.0676235 -0.0052889)
(0.00139861 0.106847 -0.00535655)
(0.000265647 0.150597 -0.00498921)
(-0.000749046 0.198882 -0.00423716)
(-0.000919482 0.238677 -0.00339324)
(-0.000689427 0.2579 -0.00293028)
(-0.000212092 0.248379 -0.00279815)
(0.000107576 0.140741 -0.0020807)
(0.000139786 -0.0745616 -0.000580071)
(0.000310717 -0.145622 -0.000769398)
(0.000397469 -0.161091 -0.000754171)
(0.000506968 -0.158989 -0.000765592)
(0.000579593 -0.14965 -0.000783349)
(0.000704837 -0.136322 -0.00086649)
(0.000822069 -0.122029 -0.00104258)
(0.000861811 -0.106405 -0.00113158)
(0.000968853 -0.0917613 -0.00120697)
(0.00100682 -0.0779544 -0.00120086)
(0.00108054 -0.0669384 -0.00125596)
(0.00109813 -0.0574687 -0.00122636)
(0.00111332 -0.0497604 -0.00113037)
(0.00121569 -0.0441471 -0.00104028)
(0.00130456 -0.0400579 -0.000909804)
(0.00144131 -0.0376036 -0.000849942)
(0.00156238 -0.0361314 -0.000843525)
(0.0016778 -0.0351336 -0.000872515)
(0.00178904 -0.0342823 -0.000926676)
(0.00190342 -0.0333223 -0.000993107)
(0.00201561 -0.0320631 -0.00108172)
(0.0021136 -0.0304399 -0.00123346)
(0.00220275 -0.0277991 -0.00152367)
(0.00228213 -0.0217147 -0.00205868)
(0.00221986 -0.00831854 -0.00277457)
(0.00211986 0.0112019 -0.00341664)
(0.00181638 0.0370468 -0.00390066)
(0.00119145 0.07126 -0.00423658)
(0.000524395 0.11176 -0.00428214)
(-0.000119216 0.158028 -0.00398354)
(-0.000525554 0.200374 -0.00348436)
(-0.000601072 0.239225 -0.00284204)
(-0.000457533 0.25723 -0.00251045)
(-0.000121603 0.247687 -0.00253348)
(0.000129633 0.139864 -0.00201004)
(0.00012017 -0.0747951 -0.000486582)
(0.000216677 -0.145604 -0.000577785)
(0.000289023 -0.161058 -0.000570005)
(0.000412942 -0.15905 -0.000588745)
(0.00048694 -0.15042 -0.000647731)
(0.000595272 -0.137623 -0.00075203)
(0.000534993 -0.12098 -0.000780294)
(0.000507402 -0.105638 -0.000882525)
(0.000426024 -0.0910475 -0.000940697)
(0.000432828 -0.0781603 -0.000971383)
(0.000475546 -0.0666541 -0.000927685)
(0.000582997 -0.0573433 -0.000891585)
(0.000690759 -0.0498689 -0.000835627)
(0.000748024 -0.044238 -0.000748393)
(0.000857738 -0.0406668 -0.000717703)
(0.000916683 -0.0382024 -0.000671726)
(0.000977077 -0.0365949 -0.0006493)
(0.00102582 -0.0354741 -0.000650379)
(0.00106715 -0.0345472 -0.000670194)
(0.0011055 -0.033567 -0.000711353)
(0.00113822 -0.032342 -0.000775254)
(0.00116203 -0.0307657 -0.000882233)
(0.00118378 -0.0280494 -0.00108599)
(0.00111509 -0.0213949 -0.00143148)
(0.000987319 -0.00704246 -0.00194629)
(0.000778588 0.0143839 -0.00244394)
(0.00035349 0.0433844 -0.00280208)
(-0.000150317 0.079204 -0.00294744)
(-0.000491869 0.118592 -0.00299307)
(-0.000556145 0.159679 -0.00290405)
(-0.000545979 0.204518 -0.00250689)
(-0.000378774 0.240135 -0.00207175)
(-0.000227628 0.256275 -0.00187234)
(6.35774e-05 0.247745 -0.00190649)
(0.000236138 0.139213 -0.0013778)
(0.000115344 -0.074779 -0.000375543)
(0.000193981 -0.146759 -0.000544406)
(0.000189435 -0.162338 -0.000524705)
(0.00022695 -0.159993 -0.000513286)
(0.00022075 -0.150374 -0.000518146)
(0.000131042 -0.136378 -0.000550197)
(0.000141697 -0.120865 -0.000612163)
(0.000207706 -0.105021 -0.000652911)
(0.000277012 -0.0906261 -0.000704061)
(0.00032697 -0.0779147 -0.000741905)
(0.000348071 -0.0673609 -0.000775352)
(0.000349967 -0.0578882 -0.000737303)
(0.000375906 -0.0501514 -0.00066842)
(0.00042495 -0.0444935 -0.000595866)
(0.00043165 -0.040308 -0.000514855)
(0.000433463 -0.0377486 -0.000476822)
(0.000422976 -0.0361621 -0.00046308)
(0.000409367 -0.0350729 -0.000465649)
(0.00039028 -0.0341433 -0.000479414)
(0.000362763 -0.0331243 -0.000502432)
(0.000326184 -0.0318768 -0.000535596)
(0.000271664 -0.0302163 -0.000588741)
(0.000179156 -0.0271667 -0.00068761)
(-2.72882e-06 -0.0198513 -0.000839871)
(-0.00028277 -0.00487818 -0.00102749)
(-0.000499238 0.0178211 -0.00122389)
(-0.000597597 0.0465343 -0.0014366)
(-0.000522377 0.0795115 -0.00169531)
(-0.000425938 0.117637 -0.0018012)
(-0.000217147 0.160565 -0.00172998)
(-0.000127842 0.201847 -0.00155157)
(0.000147299 0.237586 -0.00126858)
(0.000252822 0.256571 -0.00112573)
(0.000354129 0.247173 -0.00115852)
(0.000283606 0.139186 -0.000821759)
(0.000148303 -0.0747236 -0.000357494)
(0.000216443 -0.145949 -0.000433962)
(0.000136609 -0.161455 -0.000410741)
(0.000103403 -0.159035 -0.000403418)
(0.000114123 -0.150057 -0.000422925)
(0.000173466 -0.136448 -0.000462343)
(0.000190702 -0.121921 -0.000558702)
(0.000200509 -0.106283 -0.000621237)
(0.000195347 -0.0915303 -0.000669422)
(0.000173871 -0.0781834 -0.000692719)
(0.000142041 -0.0665231 -0.000692218)
(0.000109024 -0.0572769 -0.000676202)
(0.000125609 -0.0498009 -0.000620184)
(0.000164046 -0.0441977 -0.000561513)
(0.000214062 -0.0402723 -0.00050595)
(0.000273779 -0.0377028 -0.0004673)
(0.000322499 -0.0360744 -0.000453343)
(0.000363937 -0.0349312 -0.000457574)
(0.000401017 -0.0339465 -0.000476312)
(0.000431573 -0.0328793 -0.000505632)
(0.000455935 -0.031576 -0.000551698)
(0.000461733 -0.0298252 -0.00062327)
(0.000432541 -0.026581 -0.000741458)
(0.000336772 -0.0189836 -0.000919735)
(0.000208991 -0.00394143 -0.00110405)
(0.000199832 0.0174337 -0.00117471)
(0.000324833 0.0457037 -0.001185)
(0.000456703 0.0793414 -0.00119167)
(0.000471357 0.118022 -0.00115143)
(0.000392618 0.159327 -0.00109644)
(0.000416583 0.202516 -0.000898873)
(0.000265157 0.238703 -0.000691235)
(0.000221998 0.256607 -0.000622403)
(0.00042381 0.248585 -0.000657799)
(0.000344384 0.140399 -0.000447146)
(0.000134821 -0.0751595 -0.000265913)
(0.000208203 -0.146232 -0.000298212)
(0.000217858 -0.161607 -0.000280713)
(0.000287583 -0.159238 -0.000276884)
(0.000318905 -0.150725 -0.000316827)
(0.000317303 -0.136841 -0.000350822)
(0.000283959 -0.120689 -0.000390033)
(0.000189449 -0.104908 -0.000443997)
(9.77113e-05 -0.0900798 -0.000485257)
(8.87237e-06 -0.0775189 -0.000537435)
(-1.28452e-05 -0.0661671 -0.000529227)
(2.61179e-05 -0.0571177 -0.000519679)
(6.71677e-05 -0.0502073 -0.000518882)
(0.000112071 -0.0443363 -0.000463616)
(0.000160482 -0.0405809 -0.000438716)
(0.000205804 -0.0380306 -0.000414669)
(0.000249869 -0.0363546 -0.000404124)
(0.00029338 -0.0352647 -0.000417347)
(0.000333446 -0.0342991 -0.000437207)
(0.000375198 -0.0332429 -0.000469289)
(0.000413197 -0.031943 -0.000514499)
(0.0004407 -0.0301825 -0.000584994)
(0.000446941 -0.026874 -0.000703929)
(0.000420936 -0.0190572 -0.000890907)
(0.000399849 -0.00376221 -0.00110241)