/*--------------------------------*- C++ -*----------------------------------*\
  =========                 |
  \\      /  F ield         | OpenFOAM: The Open Source CFD Toolbox
   \\    /   O peration     | Website:  https://openfoam.org
    \\  /    A nd           | Version:  13
     \\/     M anipulation  |
\*---------------------------------------------------------------------------*/
FoamFile
{
    format      ascii;
    class       volScalarField;
    location    "52.5";
    object      nut;
}
// * * * * * * * * * * * * * * * * * * * * * * * * * * * * * * * * * * * * * //

dimensions      [0 2 -1 0 0 0 0];

internalField   nonuniform List<scalar> 
315000
(
1.32477e-13
3.46655e-11
7.90107e-10
1.41473e-09
2.04449e-09
2.67911e-09
3.3188e-09
3.96365e-09
4.61342e-09
5.26741e-09
5.92447e-09
6.58302e-09
7.2411e-09
7.89647e-09
8.54665e-09
9.189e-09
9.82077e-09
1.04392e-08
1.10414e-08
1.16246e-08
1.2186e-08
1.27231e-08
1.32332e-08
1.37139e-08
1.41629e-08
1.45781e-08
1.49575e-08
1.52993e-08
1.5602e-08
1.5864e-08
1.60843e-08
1.62618e-08
1.63957e-08
1.64854e-08
1.65304e-08
1.65307e-08
1.64861e-08
1.6397e-08
1.62636e-08
1.60867e-08
1.58669e-08
1.56054e-08
1.53033e-08
1.4962e-08
1.45831e-08
1.41685e-08
1.372e-08
1.32398e-08
1.27303e-08
1.21937e-08
1.16327e-08
1.105e-08
1.04482e-08
9.83022e-09
9.19878e-09
8.5567e-09
7.90674e-09
7.25151e-09
6.59349e-09
5.93492e-09
5.27774e-09
4.62352e-09
3.97341e-09
3.32806e-09
2.68771e-09
2.05217e-09
1.42111e-09
7.94544e-10
3.49146e-11
1.33551e-13
3.31696e-12
8.82548e-10
1.99416e-07
3.5722e-07
5.13693e-07
6.69242e-07
8.24152e-07
9.7857e-07
1.1325e-06
1.28582e-06
1.43828e-06
1.58954e-06
1.73921e-06
1.88681e-06
2.03185e-06
2.17382e-06
2.31221e-06
2.4465e-06
2.57619e-06
2.7008e-06
2.81987e-06
2.93295e-06
3.03965e-06
3.13957e-06
3.23236e-06
3.31771e-06
3.39533e-06
3.46495e-06
3.52636e-06
3.57936e-06
3.62378e-06
3.65948e-06
3.68636e-06
3.70434e-06
3.71336e-06
3.7134e-06
3.70445e-06
3.68655e-06
3.65974e-06
3.62411e-06
3.57977e-06
3.52685e-06
3.46552e-06
3.39598e-06
3.31844e-06
3.23318e-06
3.14047e-06
3.04063e-06
2.93403e-06
2.82102e-06
2.70204e-06
2.5775e-06
2.44788e-06
2.31366e-06
2.17533e-06
2.0334e-06
1.8884e-06
1.74082e-06
1.59117e-06
1.4399e-06
1.28742e-06
1.13405e-06
9.80052e-07
8.25534e-07
6.70487e-07
5.1476e-07
3.58054e-07
1.99945e-07
8.852e-10
3.32744e-12
1.3465e-11
3.5881e-09
1.95361e-06
3.33272e-06
4.6128e-06
5.82026e-06
6.9719e-06
8.07851e-06
9.14687e-06
1.01811e-05
1.11834e-05
1.21548e-05
1.30955e-05
1.4005e-05
1.48826e-05
1.57273e-05
1.65381e-05
1.73138e-05
1.80533e-05
1.87554e-05
1.94191e-05
2.00432e-05
2.06269e-05
2.1169e-05
2.16689e-05
2.21257e-05
2.25386e-05
2.29072e-05
2.32308e-05
2.3509e-05
2.37414e-05
2.39277e-05
2.40677e-05
2.41612e-05
2.4208e-05
2.42081e-05
2.41615e-05
2.40683e-05
2.39286e-05
2.37425e-05
2.35103e-05
2.32324e-05
2.29091e-05
2.25408e-05
2.21281e-05
2.16716e-05
2.11721e-05
2.06302e-05
2.00469e-05
1.94231e-05
1.87598e-05
1.80579e-05
1.73188e-05
1.65434e-05
1.57329e-05
1.48884e-05
1.4011e-05
1.31017e-05
1.21612e-05
1.11899e-05
1.01876e-05
9.15329e-06
8.08476e-06
6.97786e-06
5.82576e-06
4.61765e-06
3.33666e-06
1.95625e-06
3.5937e-09
1.34868e-11
2.2595e-11
6.02322e-09
3.16217e-06
5.25285e-06
7.14027e-06
8.88711e-06
1.053e-05
1.20912e-05
1.35848e-05
1.50195e-05
1.64004e-05
1.77306e-05
1.90119e-05
2.02448e-05
2.14294e-05
2.25655e-05
2.36526e-05
2.46898e-05
2.56764e-05
2.66115e-05
2.74941e-05
2.83231e-05
2.90975e-05
2.98163e-05
3.04784e-05
3.1083e-05
3.16292e-05
3.21164e-05
3.25439e-05
3.29112e-05
3.3218e-05
3.34637e-05
3.36483e-05
3.37714e-05
3.38331e-05
3.38332e-05
3.37717e-05
3.36486e-05
3.34642e-05
3.32186e-05
3.29121e-05
3.25449e-05
3.21176e-05
3.16306e-05
3.10846e-05
3.04802e-05
2.98183e-05
2.90998e-05
2.83256e-05
2.74969e-05
2.66145e-05
2.56797e-05
2.46933e-05
2.36564e-05
2.25696e-05
2.14337e-05
2.02492e-05
1.90165e-05
1.77354e-05
1.64052e-05
1.50244e-05
1.35897e-05
1.2096e-05
1.05346e-05
8.89139e-06
7.14409e-06
5.25601e-06
3.16438e-06
6.0283e-09
2.26149e-11
3.04286e-11
8.11475e-09
4.1434e-06
6.76181e-06
9.09066e-06
1.12266e-05
1.32233e-05
1.51123e-05
1.69132e-05
1.86381e-05
2.02945e-05
2.18871e-05
2.34185e-05
2.48905e-05
2.63037e-05
2.76586e-05
2.89551e-05
3.01927e-05
3.13705e-05
3.24872e-05
3.35413e-05
3.45314e-05
3.54559e-05
3.63137e-05
3.71035e-05
3.78243e-05
3.84752e-05
3.90555e-05
3.95645e-05
4.00016e-05
4.03665e-05
4.06588e-05
4.08783e-05
4.10247e-05
4.10979e-05
4.1098e-05
4.10248e-05
4.08784e-05
4.0659e-05
4.03668e-05
4.0002e-05
3.95649e-05
3.9056e-05
3.84759e-05
3.78251e-05
3.71044e-05
3.63148e-05
3.54572e-05
3.45328e-05
3.3543e-05
3.2489e-05
3.13725e-05
3.01949e-05
2.89575e-05
2.76612e-05
2.63065e-05
2.48934e-05
2.34216e-05
2.18902e-05
2.02978e-05
1.86414e-05
1.69165e-05
1.51155e-05
1.32264e-05
1.12296e-05
9.0933e-06
6.76404e-06
4.14499e-06
8.11874e-09
3.04445e-11
3.64321e-11
9.71938e-09
4.86643e-06
7.85107e-06
1.04834e-05
1.28863e-05
1.51256e-05
1.72398e-05
1.92522e-05
2.11773e-05
2.30242e-05
2.47987e-05
2.65043e-05
2.81433e-05
2.97171e-05
3.12265e-05
3.26714e-05
3.40511e-05
3.53641e-05
3.66087e-05
3.77832e-05
3.88859e-05
3.99153e-05
4.08699e-05
4.17486e-05
4.25501e-05
4.32737e-05
4.39184e-05
4.44837e-05
4.4969e-05
4.5374e-05
4.56983e-05
4.59416e-05
4.61039e-05
4.61851e-05
4.61851e-05
4.61039e-05
4.59416e-05
4.56983e-05
4.5374e-05
4.49691e-05
4.44838e-05
4.39186e-05
4.3274e-05
4.25505e-05
4.1749e-05
4.08705e-05
3.9916e-05
3.88867e-05
3.77841e-05
3.66098e-05
3.53653e-05
3.40524e-05
3.26729e-05
3.12281e-05
2.97189e-05
2.81452e-05
2.65063e-05
2.48008e-05
2.30264e-05
2.11795e-05
1.92544e-05
1.7242e-05
1.51277e-05
1.28883e-05
1.04852e-05
7.8526e-06
4.86756e-06
9.72241e-09
3.64444e-11
4.05428e-11
1.08193e-08
5.34907e-06
8.5692e-06
1.1396e-05
1.39698e-05
1.63648e-05
1.86235e-05
2.07718e-05
2.28258e-05
2.47955e-05
2.66874e-05
2.85056e-05
3.02528e-05
3.19308e-05
3.35403e-05
3.50813e-05
3.65524e-05
3.7952e-05
3.92781e-05
4.05289e-05
4.17026e-05
4.27976e-05
4.38124e-05
4.47457e-05
4.55965e-05
4.63638e-05
4.7047e-05
4.76454e-05
4.81587e-05
4.85867e-05
4.89292e-05
4.91861e-05
4.93573e-05
4.9443e-05
4.9443e-05
4.93573e-05
4.91861e-05
4.89292e-05
4.85867e-05
4.81588e-05
4.76455e-05
4.70471e-05
4.6364e-05
4.55968e-05
4.47461e-05
4.38129e-05
4.27982e-05
4.17033e-05
4.05297e-05
3.9279e-05
3.7953e-05
3.65535e-05
3.50824e-05
3.35416e-05
3.19322e-05
3.02543e-05
2.85072e-05
2.6689e-05
2.47972e-05
2.28275e-05
2.07735e-05
1.86252e-05
1.63664e-05
1.39714e-05
1.13974e-05
8.57038e-06
5.34995e-06
1.08218e-08
4.05531e-11
4.30819e-11
1.14995e-08
5.64281e-06
9.00322e-06
1.19457e-05
1.46214e-05
1.71093e-05
1.94544e-05
2.16841e-05
2.38154e-05
2.58588e-05
2.78212e-05
2.97071e-05
3.15194e-05
3.326e-05
3.49297e-05
3.6528e-05
3.80535e-05
3.95041e-05
4.0878e-05
4.2173e-05
4.33873e-05
4.45192e-05
4.55673e-05
4.65301e-05
4.74068e-05
4.81965e-05
4.88986e-05
4.95128e-05
5.00389e-05
5.04771e-05
5.08272e-05
5.10897e-05
5.12645e-05
5.13519e-05
5.13519e-05
5.12645e-05
5.10897e-05
5.08273e-05
5.04772e-05
5.00391e-05
4.9513e-05
4.88989e-05
4.81968e-05
4.74072e-05
4.65307e-05
4.55679e-05
4.45199e-05
4.33881e-05
4.21738e-05
4.08789e-05
3.95052e-05
3.80546e-05
3.65292e-05
3.4931e-05
3.32614e-05
3.15209e-05
2.97086e-05
2.78228e-05
2.58604e-05
2.3817e-05
2.16857e-05
1.9456e-05
1.71108e-05
1.46229e-05
1.1947e-05
9.00431e-06
5.64363e-06
1.15019e-08
4.30918e-11
4.45097e-11
1.18824e-08
5.80676e-06
9.24462e-06
1.22511e-05
1.49832e-05
1.75226e-05
1.99158e-05
2.21909e-05
2.43653e-05
2.645e-05
2.8452e-05
3.03759e-05
3.22248e-05
3.40006e-05
3.5704e-05
3.73344e-05
3.88901e-05
4.03689e-05
4.17689e-05
4.30878e-05
4.43238e-05
4.5475e-05
4.65399e-05
4.75172e-05
4.84059e-05
4.92054e-05
4.99152e-05
5.05351e-05
5.10654e-05
5.15063e-05
5.18583e-05
5.21217e-05
5.22971e-05
5.23847e-05
5.23847e-05
5.22971e-05
5.21218e-05
5.18585e-05
5.15066e-05
5.10658e-05
5.05355e-05
4.99156e-05
4.92059e-05
4.84066e-05
4.75179e-05
4.65407e-05
4.54759e-05
4.43247e-05
4.30889e-05
4.177e-05
4.03702e-05
3.88914e-05
3.73358e-05
3.57054e-05
3.40021e-05
3.22264e-05
3.03776e-05
2.84537e-05
2.64517e-05
2.4367e-05
2.21926e-05
1.99175e-05
1.75242e-05
1.49847e-05
1.22525e-05
9.24577e-06
5.80762e-06
1.18849e-08
4.45198e-11
4.52444e-11
1.20797e-08
5.89092e-06
9.36838e-06
1.24076e-05
1.51687e-05
1.77346e-05
2.01527e-05
2.24513e-05
2.46481e-05
2.67543e-05
2.8777e-05
3.07208e-05
3.25889e-05
3.43831e-05
3.61043e-05
3.77515e-05
3.9323e-05
4.08166e-05
4.22301e-05
4.35614e-05
4.48083e-05
4.59691e-05
4.70422e-05
4.80262e-05
4.89202e-05
4.97235e-05
5.04358e-05
5.10573e-05
5.15881e-05
5.20288e-05
5.23801e-05
5.26429e-05
5.28176e-05
5.29048e-05
5.29049e-05
5.28177e-05
5.2643e-05
5.23804e-05
5.20291e-05
5.15885e-05
5.10577e-05
5.04364e-05
4.97242e-05
4.89209e-05
4.80271e-05
4.70431e-05
4.59701e-05
4.48094e-05
4.35626e-05
4.22314e-05
4.0818e-05
3.93245e-05
3.77531e-05
3.61059e-05
3.43849e-05
3.25907e-05
3.07227e-05
2.87789e-05
2.67562e-05
2.465e-05
2.24532e-05
2.01545e-05
1.77364e-05
1.51704e-05
1.24091e-05
9.36962e-06
5.89185e-06
1.20824e-08
4.52552e-11
4.55913e-11
1.2173e-08
5.93067e-06
9.42682e-06
1.24816e-05
1.52564e-05
1.7835e-05
2.02649e-05
2.25748e-05
2.47824e-05
2.6899e-05
2.89317e-05
3.08851e-05
3.27625e-05
3.45658e-05
3.62956e-05
3.7951e-05
3.95303e-05
4.10311e-05
4.24512e-05
4.37884e-05
4.50407e-05
4.62061e-05
4.72831e-05
4.82702e-05
4.91666e-05
4.99715e-05
5.06848e-05
5.13066e-05
5.18372e-05
5.22775e-05
5.26282e-05
5.28903e-05
5.30645e-05
5.31514e-05
5.31515e-05
5.30646e-05
5.28905e-05
5.26285e-05
5.22779e-05
5.18377e-05
5.13071e-05
5.06854e-05
4.99722e-05
4.91674e-05
4.82711e-05
4.72841e-05
4.62073e-05
4.50419e-05
4.37898e-05
4.24526e-05
4.10326e-05
3.95319e-05
3.79528e-05
3.62974e-05
3.45677e-05
3.27645e-05
3.08871e-05
2.89337e-05
2.69011e-05
2.47845e-05
2.25768e-05
2.02669e-05
1.78369e-05
1.52582e-05
1.24832e-05
9.42816e-06
5.93166e-06
1.21758e-08
4.56027e-11
4.57432e-11
1.22139e-08
5.94811e-06
9.45247e-06
1.25141e-05
1.5295e-05
1.78792e-05
2.03144e-05
2.26294e-05
2.48419e-05
2.69631e-05
2.90003e-05
3.09582e-05
3.28399e-05
3.46473e-05
3.6381e-05
3.80403e-05
3.9623e-05
4.11271e-05
4.25502e-05
4.38902e-05
4.51448e-05
4.63122e-05
4.73907e-05
4.83791e-05
4.92762e-05
5.00816e-05
5.07949e-05
5.14164e-05
5.19467e-05
5.23863e-05
5.27364e-05
5.29978e-05
5.31716e-05
5.32583e-05
5.32583e-05
5.31717e-05
5.2998e-05
5.27367e-05
5.23867e-05
5.19471e-05
5.1417e-05
5.07956e-05
5.00823e-05
4.92771e-05
4.838e-05
4.73918e-05
4.63134e-05
4.51461e-05
4.38916e-05
4.25518e-05
4.11287e-05
3.96248e-05
3.80421e-05
3.63829e-05
3.46492e-05
3.28419e-05
3.09603e-05
2.90025e-05
2.69653e-05
2.48441e-05
2.26315e-05
2.03165e-05
1.78812e-05
1.52969e-05
1.25157e-05
9.45388e-06
5.94915e-06
1.22168e-08
4.5755e-11
4.58051e-11
1.22306e-08
5.95524e-06
9.46297e-06
1.25274e-05
1.53108e-05
1.78973e-05
2.03347e-05
2.26518e-05
2.48663e-05
2.69895e-05
2.90286e-05
3.09882e-05
3.28716e-05
3.46807e-05
3.64161e-05
3.80769e-05
3.9661e-05
4.11665e-05
4.25908e-05
4.39318e-05
4.51874e-05
4.63556e-05
4.74348e-05
4.84236e-05
4.93211e-05
5.01268e-05
5.08403e-05
5.14619e-05
5.19922e-05
5.24319e-05
5.27819e-05
5.30434e-05
5.32171e-05
5.33039e-05
5.33039e-05
5.32173e-05
5.30436e-05
5.27822e-05
5.24323e-05
5.19927e-05
5.14625e-05
5.0841e-05
5.01276e-05
4.9322e-05
4.84246e-05
4.74359e-05
4.63568e-05
4.51887e-05
4.39333e-05
4.25924e-05
4.11681e-05
3.96628e-05
3.80787e-05
3.64181e-05
3.46828e-05
3.28738e-05
3.09904e-05
2.90308e-05
2.69917e-05
2.48686e-05
2.2654e-05
2.03369e-05
1.78994e-05
1.53127e-05
1.25291e-05
9.46442e-06
5.95631e-06
1.22336e-08
4.58172e-11
4.58289e-11
1.2237e-08
5.95798e-06
9.46701e-06
1.25325e-05
1.53169e-05
1.79043e-05
2.03426e-05
2.26605e-05
2.48758e-05
2.69997e-05
2.90396e-05
3.1e-05
3.2884e-05
3.46938e-05
3.64299e-05
3.80912e-05
3.9676e-05
4.1182e-05
4.26068e-05
4.39483e-05
4.52043e-05
4.63729e-05
4.74525e-05
4.84416e-05
4.93394e-05
5.01452e-05
5.08588e-05
5.14805e-05
5.20108e-05
5.24505e-05
5.28005e-05
5.3062e-05
5.32357e-05
5.33224e-05
5.33224e-05
5.32358e-05
5.30622e-05
5.28008e-05
5.24509e-05
5.20113e-05
5.14811e-05
5.08595e-05
5.0146e-05
4.93403e-05
4.84426e-05
4.74536e-05
4.63742e-05
4.52057e-05
4.39498e-05
4.26085e-05
4.11837e-05
3.96779e-05
3.80932e-05
3.64319e-05
3.46959e-05
3.28862e-05
3.10022e-05
2.90418e-05
2.7002e-05
2.48781e-05
2.26627e-05
2.03448e-05
1.79064e-05
1.53189e-05
1.25342e-05
9.46848e-06
5.95907e-06
1.22401e-08
4.58411e-11
4.58375e-11
1.22393e-08
5.95898e-06
9.46848e-06
1.25344e-05
1.53191e-05
1.79069e-05
2.03455e-05
2.26637e-05
2.48793e-05
2.70035e-05
2.90436e-05
3.10043e-05
3.28887e-05
3.46987e-05
3.6435e-05
3.80966e-05
3.96816e-05
4.11878e-05
4.26129e-05
4.39545e-05
4.52106e-05
4.63793e-05
4.74588e-05
4.84478e-05
4.93454e-05
5.01508e-05
5.08641e-05
5.14852e-05
5.20149e-05
5.24539e-05
5.28033e-05
5.30641e-05
5.32374e-05
5.33239e-05
5.33239e-05
5.32376e-05
5.30643e-05
5.28036e-05
5.24543e-05
5.20154e-05
5.14858e-05
5.08648e-05
5.01517e-05
4.93463e-05
4.84489e-05
4.74599e-05
4.63805e-05
4.5212e-05
4.3956e-05
4.26145e-05
4.11896e-05
3.96835e-05
3.80986e-05
3.6437e-05
3.47008e-05
3.28909e-05
3.10065e-05
2.90459e-05
2.70058e-05
2.48816e-05
2.26659e-05
2.03477e-05
1.7909e-05
1.53211e-05
1.25361e-05
9.46996e-06
5.96007e-06
1.22424e-08
4.58498e-11
4.58404e-11
1.22401e-08
5.95932e-06
9.46898e-06
1.2535e-05
1.53199e-05
1.79078e-05
2.03465e-05
2.26648e-05
2.48805e-05
2.70048e-05
2.9045e-05
3.10058e-05
3.28903e-05
3.47004e-05
3.64368e-05
3.80985e-05
3.96836e-05
4.11899e-05
4.2615e-05
4.39567e-05
4.52129e-05
4.63816e-05
4.74611e-05
4.84501e-05
4.93477e-05
5.01531e-05
5.08662e-05
5.14872e-05
5.20167e-05
5.24555e-05
5.28048e-05
5.30655e-05
5.32387e-05
5.33251e-05
5.33252e-05
5.32388e-05
5.30657e-05
5.28051e-05
5.2456e-05
5.20172e-05
5.14878e-05
5.08669e-05
5.01539e-05
4.93486e-05
4.84512e-05
4.74623e-05
4.63829e-05
4.52143e-05
4.39582e-05
4.26166e-05
4.11916e-05
3.96855e-05
3.81005e-05
3.64388e-05
3.47025e-05
3.28925e-05
3.10081e-05
2.90473e-05
2.70071e-05
2.48828e-05
2.26671e-05
2.03487e-05
1.79099e-05
1.53219e-05
1.25368e-05
9.47047e-06
5.96041e-06
1.22432e-08
4.58527e-11
4.58413e-11
1.22404e-08
5.95942e-06
9.46914e-06
1.25352e-05
1.53202e-05
1.79081e-05
2.03468e-05
2.26651e-05
2.48809e-05
2.70052e-05
2.90455e-05
3.10063e-05
3.28908e-05
3.4701e-05
3.64374e-05
3.80991e-05
3.96843e-05
4.11906e-05
4.26157e-05
4.39575e-05
4.52136e-05
4.63824e-05
4.74619e-05
4.8451e-05
4.93485e-05
5.01539e-05
5.0867e-05
5.1488e-05
5.20175e-05
5.24563e-05
5.28056e-05
5.30663e-05
5.32395e-05
5.33259e-05
5.33259e-05
5.32396e-05
5.30665e-05
5.28059e-05
5.24567e-05
5.2018e-05
5.14886e-05
5.08677e-05
5.01547e-05
4.93494e-05
4.8452e-05
4.74631e-05
4.63836e-05
4.52151e-05
4.3959e-05
4.26174e-05
4.11923e-05
3.96861e-05
3.81011e-05
3.64394e-05
3.47031e-05
3.2893e-05
3.10086e-05
2.90478e-05
2.70076e-05
2.48832e-05
2.26674e-05
2.0349e-05
1.79102e-05
1.53221e-05
1.2537e-05
9.47063e-06
5.96052e-06
1.22435e-08
4.58537e-11
4.58416e-11
1.22405e-08
5.95946e-06
9.46919e-06
1.25353e-05
1.53202e-05
1.79081e-05
2.03469e-05
2.26652e-05
2.4881e-05
2.70054e-05
2.90456e-05
3.10064e-05
3.2891e-05
3.47011e-05
3.64376e-05
3.80993e-05
3.96845e-05
4.11908e-05
4.26159e-05
4.39577e-05
4.52139e-05
4.63826e-05
4.74622e-05
4.84512e-05
4.93487e-05
5.01542e-05
5.08673e-05
5.14883e-05
5.20178e-05
5.24566e-05
5.28059e-05
5.30666e-05
5.32398e-05
5.33262e-05
5.33262e-05
5.32399e-05
5.30668e-05
5.28062e-05
5.2457e-05
5.20183e-05
5.14889e-05
5.0868e-05
5.0155e-05
4.93497e-05
4.84523e-05
4.74633e-05
4.63839e-05
4.52153e-05
4.39592e-05
4.26176e-05
4.11925e-05
3.96863e-05
3.81013e-05
3.64396e-05
3.47033e-05
3.28932e-05
3.10087e-05
2.90479e-05
2.70077e-05
2.48833e-05
2.26675e-05
2.03491e-05
1.79103e-05
1.53222e-05
1.2537e-05
9.47068e-06
5.96055e-06
1.22435e-08
4.5854e-11
4.58417e-11
1.22405e-08
5.95947e-06
9.46921e-06
1.25353e-05
1.53203e-05
1.79082e-05
2.03469e-05
2.26653e-05
2.4881e-05
2.70054e-05
2.90457e-05
3.10065e-05
3.2891e-05
3.47012e-05
3.64376e-05
3.80994e-05
3.96845e-05
4.11908e-05
4.2616e-05
4.39578e-05
4.5214e-05
4.63827e-05
4.74622e-05
4.84513e-05
4.93488e-05
5.01542e-05
5.08674e-05
5.14884e-05
5.20179e-05
5.24567e-05
5.28059e-05
5.30667e-05
5.32398e-05
5.33263e-05
5.33263e-05
5.324e-05
5.30669e-05
5.28063e-05
5.24571e-05
5.20184e-05
5.1489e-05
5.08681e-05
5.01551e-05
4.93498e-05
4.84523e-05
4.74634e-05
4.6384e-05
4.52154e-05
4.39593e-05
4.26176e-05
4.11926e-05
3.96864e-05
3.81014e-05
3.64397e-05
3.47033e-05
3.28932e-05
3.10088e-05
2.9048e-05
2.70077e-05
2.48833e-05
2.26676e-05
2.03491e-05
1.79103e-05
1.53222e-05
1.25371e-05
9.4707e-06
5.96056e-06
1.22436e-08
4.5854e-11
4.58417e-11
1.22405e-08
5.95947e-06
9.46921e-06
1.25353e-05
1.53203e-05
1.79082e-05
2.03469e-05
2.26653e-05
2.4881e-05
2.70054e-05
2.90457e-05
3.10065e-05
3.2891e-05
3.47012e-05
3.64376e-05
3.80994e-05
3.96846e-05
4.11909e-05
4.2616e-05
4.39578e-05
4.5214e-05
4.63827e-05
4.74623e-05
4.84513e-05
4.93488e-05
5.01543e-05
5.08674e-05
5.14884e-05
5.20179e-05
5.24567e-05
5.2806e-05
5.30667e-05
5.32399e-05
5.33263e-05
5.33263e-05
5.324e-05
5.30669e-05
5.28063e-05
5.24571e-05
5.20184e-05
5.1489e-05
5.08681e-05
5.01551e-05
4.93498e-05
4.84524e-05
4.74634e-05
4.6384e-05
4.52154e-05
4.39593e-05
4.26177e-05
4.11926e-05
3.96864e-05
3.81014e-05
3.64397e-05
3.47033e-05
3.28932e-05
3.10088e-05
2.9048e-05
2.70077e-05
2.48833e-05
2.26676e-05
2.03492e-05
1.79103e-05
1.53222e-05
1.25371e-05
9.4707e-06
5.96057e-06
1.22436e-08
4.58541e-11
4.58417e-11
1.22405e-08
5.95947e-06
9.46921e-06
1.25353e-05
1.53203e-05
1.79082e-05
2.03469e-05
2.26653e-05
2.4881e-05
2.70054e-05
2.90457e-05
3.10065e-05
3.2891e-05
3.47012e-05
3.64376e-05
3.80994e-05
3.96846e-05
4.11909e-05
4.2616e-05
4.39578e-05
4.5214e-05
4.63827e-05
4.74623e-05
4.84513e-05
4.93489e-05
5.01543e-05
5.08674e-05
5.14884e-05
5.20179e-05
5.24567e-05
5.2806e-05
5.30667e-05
5.32399e-05
5.33263e-05
5.33263e-05
5.324e-05
5.30669e-05
5.28063e-05
5.24571e-05
5.20184e-05
5.1489e-05
5.08681e-05
5.01551e-05
4.93498e-05
4.84524e-05
4.74634e-05
4.6384e-05
4.52154e-05
4.39593e-05
4.26177e-05
4.11926e-05
3.96864e-05
3.81014e-05
3.64397e-05
3.47033e-05
3.28932e-05
3.10088e-05
2.9048e-05
2.70078e-05
2.48833e-05
2.26676e-05
2.03492e-05
1.79103e-05
1.53222e-05
1.25371e-05
9.4707e-06
5.96057e-06
1.22436e-08
4.58541e-11
4.58417e-11
1.22405e-08
5.95947e-06
9.46921e-06
1.25353e-05
1.53203e-05
1.79082e-05
2.03469e-05
2.26653e-05
2.4881e-05
2.70054e-05
2.90457e-05
3.10065e-05
3.2891e-05
3.47012e-05
3.64376e-05
3.80994e-05
3.96846e-05
4.11909e-05
4.2616e-05
4.39578e-05
4.5214e-05
4.63827e-05
4.74623e-05
4.84513e-05
4.93489e-05
5.01543e-05
5.08674e-05
5.14884e-05
5.20179e-05
5.24567e-05
5.2806e-05
5.30667e-05
5.32399e-05
5.33263e-05
5.33263e-05
5.324e-05
5.30669e-05
5.28063e-05
5.24571e-05
5.20184e-05
5.1489e-05
5.08681e-05
5.01551e-05
4.93498e-05
4.84524e-05
4.74634e-05
4.6384e-05
4.52154e-05
4.39593e-05
4.26177e-05
4.11926e-05
3.96864e-05
3.81014e-05
3.64397e-05
3.47033e-05
3.28932e-05
3.10088e-05
2.9048e-05
2.70078e-05
2.48833e-05
2.26676e-05
2.03492e-05
1.79103e-05
1.53222e-05
1.25371e-05
9.4707e-06
5.96057e-06
1.22436e-08
4.58541e-11
4.58417e-11
1.22405e-08
5.95947e-06
9.46921e-06
1.25353e-05
1.53203e-05
1.79082e-05
2.03469e-05
2.26653e-05
2.4881e-05
2.70054e-05
2.90457e-05
3.10065e-05
3.2891e-05
3.47012e-05
3.64376e-05
3.80994e-05
3.96846e-05
4.11909e-05
4.2616e-05
4.39578e-05
4.5214e-05
4.63827e-05
4.74623e-05
4.84513e-05
4.93489e-05
5.01543e-05
5.08674e-05
5.14884e-05
5.20179e-05
5.24567e-05
5.2806e-05
5.30667e-05
5.32399e-05
5.33263e-05
5.33263e-05
5.324e-05
5.30669e-05
5.28063e-05
5.24571e-05
5.20184e-05
5.1489e-05
5.08681e-05
5.01551e-05
4.93498e-05
4.84524e-05
4.74634e-05
4.6384e-05
4.52154e-05
4.39593e-05
4.26177e-05
4.11926e-05
3.96864e-05
3.81014e-05
3.64397e-05
3.47033e-05
3.28932e-05
3.10088e-05
2.9048e-05
2.70078e-05
2.48833e-05
2.26676e-05
2.03492e-05
1.79103e-05
1.53222e-05
1.25371e-05
9.4707e-06
5.96057e-06
1.22436e-08
4.58541e-11
4.58417e-11
1.22405e-08
5.95947e-06
9.46921e-06
1.25353e-05
1.53203e-05
1.79082e-05
2.03469e-05
2.26653e-05
2.4881e-05
2.70054e-05
2.90457e-05
3.10065e-05
3.2891e-05
3.47012e-05
3.64376e-05
3.80994e-05
3.96846e-05
4.11909e-05
4.2616e-05
4.39578e-05
4.5214e-05
4.63827e-05
4.74623e-05
4.84513e-05
4.93489e-05
5.01543e-05
5.08674e-05
5.14884e-05
5.20179e-05
5.24567e-05
5.2806e-05
5.30667e-05
5.32399e-05
5.33263e-05
5.33263e-05
5.324e-05
5.30669e-05
5.28063e-05
5.24571e-05
5.20184e-05
5.1489e-05
5.08681e-05
5.01551e-05
4.93498e-05
4.84524e-05
4.74634e-05
4.6384e-05
4.52154e-05
4.39593e-05
4.26177e-05
4.11926e-05
3.96864e-05
3.81014e-05
3.64397e-05
3.47033e-05
3.28932e-05
3.10088e-05
2.9048e-05
2.70078e-05
2.48833e-05
2.26676e-05
2.03492e-05
1.79103e-05
1.53222e-05
1.25371e-05
9.4707e-06
5.96057e-06
1.22436e-08
4.58541e-11
4.58417e-11
1.22405e-08
5.95947e-06
9.46921e-06
1.25353e-05
1.53203e-05
1.79082e-05
2.03469e-05
2.26653e-05
2.4881e-05
2.70054e-05
2.90457e-05
3.10065e-05
3.2891e-05
3.47012e-05
3.64376e-05
3.80994e-05
3.96846e-05
4.11909e-05
4.2616e-05
4.39578e-05
4.5214e-05
4.63827e-05
4.74623e-05
4.84513e-05
4.93489e-05
5.01543e-05
5.08674e-05
5.14884e-05
5.20179e-05
5.24567e-05
5.2806e-05
5.30667e-05
5.32399e-05
5.33263e-05
5.33263e-05
5.324e-05
5.30669e-05
5.28063e-05
5.24571e-05
5.20184e-05
5.1489e-05
5.08681e-05
5.01551e-05
4.93498e-05
4.84524e-05
4.74634e-05
4.6384e-05
4.52154e-05
4.39593e-05
4.26177e-05
4.11926e-05
3.96864e-05
3.81014e-05
3.64397e-05
3.47033e-05
3.28932e-05
3.10088e-05
2.9048e-05
2.70078e-05
2.48833e-05
2.26676e-05
2.03492e-05
1.79103e-05
1.53222e-05
1.25371e-05
9.4707e-06
5.96057e-06
1.22436e-08
4.58541e-11
4.58417e-11
1.22405e-08
5.95947e-06
9.46921e-06
1.25353e-05
1.53203e-05
1.79082e-05
2.03469e-05
2.26653e-05
2.4881e-05
2.70054e-05
2.90457e-05
3.10065e-05
3.2891e-05
3.47012e-05
3.64376e-05
3.80994e-05
3.96846e-05
4.11909e-05
4.2616e-05
4.39578e-05
4.5214e-05
4.63827e-05
4.74623e-05
4.84513e-05
4.93489e-05
5.01543e-05
5.08674e-05
5.14884e-05
5.20179e-05
5.24567e-05
5.2806e-05
5.30667e-05
5.32399e-05
5.33263e-05
5.33263e-05
5.324e-05
5.30669e-05
5.28063e-05
5.24571e-05
5.20184e-05
5.1489e-05
5.08681e-05
5.01551e-05
4.93498e-05
4.84524e-05
4.74634e-05
4.6384e-05
4.52154e-05
4.39593e-05
4.26177e-05
4.11926e-05
3.96864e-05
3.81014e-05
3.64397e-05
3.47033e-05
3.28932e-05
3.10088e-05
2.9048e-05
2.70078e-05
2.48833e-05
2.26676e-05
2.03492e-05
1.79103e-05
1.53222e-05
1.25371e-05
9.4707e-06
5.96057e-06
1.22436e-08
4.58541e-11
4.58417e-11
1.22405e-08
5.95947e-06
9.46921e-06
1.25353e-05
1.53203e-05
1.79082e-05
2.03469e-05
2.26653e-05
2.4881e-05
2.70054e-05
2.90457e-05
3.10065e-05
3.2891e-05
3.47012e-05
3.64376e-05
3.80994e-05
3.96846e-05
4.11909e-05
4.2616e-05
4.39578e-05
4.5214e-05
4.63827e-05
4.74623e-05
4.84513e-05
4.93489e-05
5.01543e-05
5.08674e-05
5.14884e-05
5.20179e-05
5.24567e-05
5.2806e-05
5.30667e-05
5.32399e-05
5.33263e-05
5.33263e-05
5.324e-05
5.30669e-05
5.28063e-05
5.24571e-05
5.20184e-05
5.1489e-05
5.08681e-05
5.01551e-05
4.93498e-05
4.84524e-05
4.74634e-05
4.6384e-05
4.52154e-05
4.39593e-05
4.26177e-05
4.11926e-05
3.96864e-05
3.81014e-05
3.64397e-05
3.47033e-05
3.28932e-05
3.10088e-05
2.9048e-05
2.70078e-05
2.48833e-05
2.26676e-05
2.03492e-05
1.79103e-05
1.53222e-05
1.25371e-05
9.4707e-06
5.96057e-06
1.22436e-08
4.58541e-11
4.58417e-11
1.22405e-08
5.95947e-06
9.46921e-06
1.25353e-05
1.53203e-05
1.79082e-05
2.03469e-05
2.26653e-05
2.4881e-05
2.70054e-05
2.90457e-05
3.10065e-05
3.2891e-05
3.47012e-05
3.64376e-05
3.80994e-05
3.96846e-05
4.11909e-05
4.2616e-05
4.39578e-05
4.5214e-05
4.63827e-05
4.74623e-05
4.84513e-05
4.93489e-05
5.01543e-05
5.08674e-05
5.14884e-05
5.20179e-05
5.24567e-05
5.2806e-05
5.30667e-05
5.32399e-05
5.33263e-05
5.33263e-05
5.324e-05
5.30669e-05
5.28063e-05
5.24571e-05
5.20184e-05
5.1489e-05
5.08681e-05
5.01551e-05
4.93498e-05
4.84524e-05
4.74634e-05
4.6384e-05
4.52154e-05
4.39593e-05
4.26177e-05
4.11926e-05
3.96864e-05
3.81014e-05
3.64397e-05
3.47033e-05
3.28932e-05
3.10088e-05
2.9048e-05
2.70078e-05
2.48833e-05
2.26676e-05
2.03492e-05
1.79103e-05
1.53222e-05
1.25371e-05
9.4707e-06
5.96057e-06
1.22436e-08
4.58541e-11
4.58417e-11
1.22405e-08
5.95947e-06
9.46921e-06
1.25353e-05
1.53203e-05
1.79082e-05
2.03469e-05
2.26653e-05
2.4881e-05
2.70054e-05
2.90457e-05
3.10065e-05
3.2891e-05
3.47012e-05
3.64376e-05
3.80994e-05
3.96846e-05
4.11909e-05
4.2616e-05
4.39578e-05
4.5214e-05
4.63827e-05
4.74623e-05
4.84513e-05
4.93489e-05
5.01543e-05
5.08674e-05
5.14884e-05
5.20179e-05
5.24567e-05
5.2806e-05
5.30667e-05
5.32399e-05
5.33263e-05
5.33263e-05
5.324e-05
5.30669e-05
5.28063e-05
5.24571e-05
5.20184e-05
5.1489e-05
5.08681e-05
5.01551e-05
4.93498e-05
4.84524e-05
4.74634e-05
4.6384e-05
4.52154e-05
4.39593e-05
4.26177e-05
4.11926e-05
3.96864e-05
3.81014e-05
3.64397e-05
3.47033e-05
3.28932e-05
3.10088e-05
2.9048e-05
2.70078e-05
2.48833e-05
2.26676e-05
2.03492e-05
1.79103e-05
1.53222e-05
1.25371e-05
9.4707e-06
5.96057e-06
1.22436e-08
4.58541e-11
4.58417e-11
1.22405e-08
5.95947e-06
9.46921e-06
1.25353e-05
1.53203e-05
1.79082e-05
2.03469e-05
2.26653e-05
2.4881e-05
2.70054e-05
2.90457e-05
3.10065e-05
3.2891e-05
3.47012e-05
3.64376e-05
3.80994e-05
3.96846e-05
4.11909e-05
4.2616e-05
4.39578e-05
4.5214e-05
4.63827e-05
4.74623e-05
4.84513e-05
4.93489e-05
5.01543e-05
5.08674e-05
5.14884e-05
5.20179e-05
5.24567e-05
5.2806e-05
5.30667e-05
5.32399e-05
5.33263e-05
5.33263e-05
5.324e-05
5.30669e-05
5.28063e-05
5.24571e-05
5.20184e-05
5.1489e-05
5.08681e-05
5.01551e-05
4.93498e-05
4.84524e-05
4.74634e-05
4.6384e-05
4.52154e-05
4.39593e-05
4.26177e-05
4.11926e-05
3.96864e-05
3.81014e-05
3.64397e-05
3.47033e-05
3.28932e-05
3.10088e-05
2.9048e-05
2.70078e-05
2.48833e-05
2.26676e-05
2.03492e-05
1.79103e-05
1.53222e-05
1.25371e-05
9.4707e-06
5.96057e-06
1.22436e-08
4.58541e-11
4.58417e-11
1.22405e-08
5.95947e-06
9.46921e-06
1.25353e-05
1.53203e-05
1.79082e-05
2.03469e-05
2.26653e-05
2.4881e-05
2.70054e-05
2.90457e-05
3.10065e-05
3.2891e-05
3.47012e-05
3.64376e-05
3.80994e-05
3.96846e-05
4.11909e-05
4.2616e-05
4.39578e-05
4.5214e-05
4.63827e-05
4.74623e-05
4.84513e-05
4.93489e-05
5.01543e-05
5.08674e-05
5.14884e-05
5.20179e-05
5.24567e-05
5.2806e-05
5.30667e-05
5.32399e-05
5.33263e-05
5.33263e-05
5.324e-05
5.30669e-05
5.28063e-05
5.24571e-05
5.20184e-05
5.1489e-05
5.08681e-05
5.01551e-05
4.93498e-05
4.84524e-05
4.74634e-05
4.6384e-05
4.52154e-05
4.39593e-05
4.26177e-05
4.11926e-05
3.96864e-05
3.81014e-05
3.64397e-05
3.47033e-05
3.28932e-05
3.10088e-05
2.9048e-05
2.70078e-05
2.48833e-05
2.26676e-05
2.03492e-05
1.79103e-05
1.53222e-05
1.25371e-05
9.4707e-06
5.96057e-06
1.22436e-08
4.58541e-11
4.58417e-11
1.22405e-08
5.95947e-06
9.46921e-06
1.25353e-05
1.53203e-05
1.79082e-05
2.03469e-05
2.26653e-05
2.4881e-05
2.70054e-05
2.90457e-05
3.10065e-05
3.2891e-05
3.47012e-05
3.64376e-05
3.80994e-05
3.96846e-05
4.11909e-05
4.2616e-05
4.39578e-05
4.5214e-05
4.63827e-05
4.74623e-05
4.84513e-05
4.93489e-05
5.01543e-05
5.08674e-05
5.14884e-05
5.20179e-05
5.24567e-05
5.2806e-05
5.30667e-05
5.32399e-05
5.33263e-05
5.33263e-05
5.324e-05
5.30669e-05
5.28063e-05
5.24571e-05
5.20184e-05
5.1489e-05
5.08681e-05
5.01551e-05
4.93498e-05
4.84524e-05
4.74634e-05
4.6384e-05
4.52154e-05
4.39593e-05
4.26177e-05
4.11926e-05
3.96864e-05
3.81014e-05
3.64397e-05
3.47033e-05
3.28932e-05
3.10088e-05
2.9048e-05
2.70078e-05
2.48833e-05
2.26676e-05
2.03492e-05
1.79103e-05
1.53222e-05
1.25371e-05
9.4707e-06
5.96057e-06
1.22436e-08
4.58541e-11
4.58417e-11
1.22405e-08
5.95947e-06
9.46921e-06
1.25353e-05
1.53203e-05
1.79082e-05
2.03469e-05
2.26653e-05
2.4881e-05
2.70054e-05
2.90457e-05
3.10065e-05
3.2891e-05
3.47012e-05
3.64376e-05
3.80994e-05
3.96846e-05
4.11909e-05
4.2616e-05
4.39578e-05
4.5214e-05
4.63827e-05
4.74623e-05
4.84513e-05
4.93489e-05
5.01543e-05
5.08674e-05
5.14884e-05
5.20179e-05
5.24567e-05
5.2806e-05
5.30667e-05
5.32399e-05
5.33263e-05
5.33263e-05
5.324e-05
5.30669e-05
5.28063e-05
5.24571e-05
5.20184e-05
5.1489e-05
5.08681e-05
5.01551e-05
4.93498e-05
4.84524e-05
4.74634e-05
4.6384e-05
4.52154e-05
4.39593e-05
4.26177e-05
4.11926e-05
3.96864e-05
3.81014e-05
3.64397e-05
3.47033e-05
3.28932e-05
3.10088e-05
2.9048e-05
2.70078e-05
2.48833e-05
2.26676e-05
2.03492e-05
1.79103e-05
1.53222e-05
1.25371e-05
9.4707e-06
5.96057e-06
1.22436e-08
4.58541e-11
4.58417e-11
1.22405e-08
5.95947e-06
9.46921e-06
1.25353e-05
1.53203e-05
1.79082e-05
2.03469e-05
2.26653e-05
2.4881e-05
2.70054e-05
2.90457e-05
3.10065e-05
3.2891e-05
3.47012e-05
3.64376e-05
3.80994e-05
3.96846e-05
4.11909e-05
4.2616e-05
4.39578e-05
4.5214e-05
4.63827e-05
4.74623e-05
4.84513e-05
4.93489e-05
5.01543e-05
5.08674e-05
5.14884e-05
5.20179e-05
5.24567e-05
5.2806e-05
5.30667e-05
5.32399e-05
5.33263e-05
5.33263e-05
5.324e-05
5.30669e-05
5.28063e-05
5.24571e-05
5.20184e-05
5.1489e-05
5.08681e-05
5.01551e-05
4.93498e-05
4.84524e-05
4.74634e-05
4.6384e-05
4.52154e-05
4.39593e-05
4.26177e-05
4.11926e-05
3.96864e-05
3.81014e-05
3.64397e-05
3.47033e-05
3.28932e-05
3.10088e-05
2.9048e-05
2.70078e-05
2.48833e-05
2.26676e-05
2.03492e-05
1.79103e-05
1.53222e-05
1.25371e-05
9.4707e-06
5.96057e-06
1.22436e-08
4.58541e-11
4.58417e-11
1.22405e-08
5.95947e-06
9.46921e-06
1.25353e-05
1.53203e-05
1.79082e-05
2.03469e-05
2.26653e-05
2.4881e-05
2.70054e-05
2.90457e-05
3.10065e-05
3.2891e-05
3.47012e-05
3.64376e-05
3.80994e-05
3.96846e-05
4.11909e-05
4.2616e-05
4.39578e-05
4.5214e-05
4.63827e-05
4.74623e-05
4.84513e-05
4.93489e-05
5.01543e-05
5.08674e-05
5.14884e-05
5.20179e-05
5.24567e-05
5.2806e-05
5.30667e-05
5.32399e-05
5.33263e-05
5.33263e-05
5.324e-05
5.30669e-05
5.28063e-05
5.24571e-05
5.20184e-05
5.1489e-05
5.08681e-05
5.01551e-05
4.93498e-05
4.84524e-05
4.74634e-05
4.6384e-05
4.52154e-05
4.39593e-05
4.26177e-05
4.11926e-05
3.96864e-05
3.81014e-05
3.64397e-05
3.47033e-05
3.28932e-05
3.10088e-05
2.9048e-05
2.70078e-05
2.48833e-05
2.26676e-05
2.03492e-05
1.79103e-05
1.53222e-05
1.25371e-05
9.4707e-06
5.96057e-06
1.22436e-08
4.58541e-11
4.58417e-11
1.22405e-08
5.95947e-06
9.46921e-06
1.25353e-05
1.53203e-05
1.79082e-05
2.03469e-05
2.26653e-05
2.4881e-05
2.70054e-05
2.90457e-05
3.10065e-05
3.2891e-05
3.47012e-05
3.64376e-05
3.80994e-05
3.96846e-05
4.11909e-05
4.2616e-05
4.39578e-05
4.5214e-05