/*--------------------------------*- C++ -*----------------------------------*\
  =========                 |
  \\      /  F ield         | OpenFOAM: The Open Source CFD Toolbox
   \\    /   O peration     | Website:  https://openfoam.org
    \\  /    A nd           | Version:  13
     \\/     M anipulation  |
\*---------------------------------------------------------------------------*/
FoamFile
{
    format      ascii;
    class       volScalarField;
    location    "17.5";
    object      nut;
}
// * * * * * * * * * * * * * * * * * * * * * * * * * * * * * * * * * * * * * //

dimensions      [0 2 -1 0 0 0 0];

internalField   nonuniform List<scalar> 
315000
(
1.63201e-12
4.24711e-10
9.62554e-09
1.70482e-08
2.43052e-08
3.13457e-08
3.81283e-08
4.46155e-08
5.07736e-08
5.65743e-08
6.19995e-08
6.70474e-08
7.17396e-08
7.61208e-08
8.01854e-08
8.39235e-08
8.73308e-08
9.04102e-08
9.31705e-08
9.56255e-08
9.77922e-08
9.96902e-08
1.0134e-07
1.02765e-07
1.03984e-07
1.0502e-07
1.05892e-07
1.06618e-07
1.07216e-07
1.077e-07
1.08083e-07
1.08376e-07
1.08588e-07
1.08725e-07
1.08792e-07
1.0879e-07
1.08721e-07
1.08581e-07
1.08366e-07
1.0807e-07
1.07684e-07
1.07198e-07
1.06598e-07
1.0587e-07
1.04996e-07
1.0396e-07
1.0274e-07
1.01316e-07
9.96672e-08
9.77715e-08
9.56081e-08
9.31577e-08
9.04032e-08
8.73308e-08
8.39319e-08
8.02035e-08
7.61495e-08
7.17784e-08
6.70928e-08
6.20507e-08
5.66339e-08
5.0842e-08
4.46921e-08
3.82114e-08
3.1433e-08
2.4393e-08
1.71303e-08
9.68996e-09
4.28725e-10
1.65021e-12
3.99591e-11
1.05726e-08
2.2223e-06
3.72065e-06
5.0563e-06
6.2608e-06
7.35356e-06
8.34708e-06
9.24982e-06
1.00678e-05
1.0806e-05
1.14683e-05
1.20572e-05
1.26044e-05
1.31066e-05
1.35627e-05
1.39735e-05
1.4341e-05
1.46674e-05
1.49556e-05
1.52085e-05
1.5429e-05
1.562e-05
1.57845e-05
1.59252e-05
1.60446e-05
1.61452e-05
1.6229e-05
1.62981e-05
1.63541e-05
1.63985e-05
1.64325e-05
1.64571e-05
1.64731e-05
1.64809e-05
1.64808e-05
1.64727e-05
1.64565e-05
1.64316e-05
1.63973e-05
1.63526e-05
1.62964e-05
1.62271e-05
1.6143e-05
1.60423e-05
1.59227e-05
1.5782e-05
1.56174e-05
1.54263e-05
1.52059e-05
1.49532e-05
1.46653e-05
1.43392e-05
1.39722e-05
1.35618e-05
1.31063e-05
1.26049e-05
1.20584e-05
1.14704e-05
1.08089e-05
1.00714e-05
9.25416e-06
8.35212e-06
7.35917e-06
6.26678e-06
5.06233e-06
3.72623e-06
2.22663e-06
1.05994e-08
4.00693e-11
1.48859e-10
3.94663e-08
1.54628e-05
2.2418e-05
2.81354e-05
3.306e-05
3.73987e-05
4.12656e-05
4.47319e-05
4.78476e-05
5.06586e-05
5.31822e-05
4.70498e-05
4.80154e-05
4.88747e-05
4.96361e-05
5.03089e-05
5.09019e-05
5.14229e-05
5.18792e-05
5.22774e-05
5.26233e-05
5.29226e-05
5.31802e-05
5.34008e-05
5.35885e-05
5.37471e-05
5.38799e-05
5.39897e-05
5.40792e-05
5.41505e-05
5.42054e-05
5.42453e-05
5.42713e-05
5.4284e-05
5.42839e-05
5.42709e-05
5.42446e-05
5.42045e-05
5.41493e-05
5.40777e-05
5.3988e-05
5.38779e-05
5.37449e-05
5.35861e-05
5.33982e-05
5.31774e-05
5.29196e-05
5.26203e-05
5.22743e-05
5.18762e-05
5.142e-05
5.0899e-05
5.03062e-05
4.96337e-05
4.88727e-05
4.80138e-05
4.70486e-05
5.31806e-05
5.06585e-05
4.78487e-05
4.47342e-05
4.12693e-05
3.74035e-05
3.30657e-05
2.81418e-05
2.24248e-05
1.54695e-05
3.94937e-08
1.48971e-10
1.90575e-10
5.05598e-08
1.87287e-05
2.66538e-05
3.31246e-05
3.86623e-05
4.35056e-05
4.77817e-05
5.1558e-05
4.69035e-05
4.8363e-05
4.96734e-05
5.08514e-05
5.19056e-05
5.28473e-05
5.36866e-05
5.44332e-05
5.50954e-05
5.56811e-05
5.61977e-05
5.66516e-05
5.70491e-05
5.73956e-05
5.76964e-05
5.79561e-05
5.81789e-05
5.83687e-05
5.85289e-05
5.86625e-05
5.87722e-05
5.88602e-05
5.89284e-05
5.89782e-05
5.90107e-05
5.90267e-05
5.90267e-05
5.90104e-05
5.89777e-05
5.89277e-05
5.88594e-05
5.87712e-05
5.86613e-05
5.85275e-05
5.83671e-05
5.81772e-05
5.79542e-05
5.76944e-05
5.73935e-05
5.70469e-05
5.66494e-05
5.61954e-05
5.56788e-05
5.5093e-05
5.44309e-05
5.36844e-05
5.28451e-05
5.19036e-05
5.08496e-05
4.96717e-05
4.83614e-05
4.69023e-05
5.15552e-05
4.77792e-05
4.35039e-05
3.86614e-05
3.31244e-05
2.66541e-05
1.87296e-05
5.05675e-08
1.90611e-10
2.07436e-10
5.50638e-08
1.99999e-05
2.82906e-05
3.50485e-05
4.08174e-05
4.58429e-05
5.02579e-05
5.43717e-05
4.82748e-05
4.98007e-05
5.11783e-05
5.24151e-05
5.35259e-05
5.45229e-05
5.54165e-05
5.62161e-05
5.69301e-05
5.75664e-05
5.81318e-05
5.86328e-05
5.90752e-05
5.94644e-05
5.98052e-05
6.01022e-05
6.03594e-05
6.05803e-05
6.07684e-05
6.09266e-05
6.10574e-05
6.1163e-05
6.12452e-05
6.13056e-05
6.13452e-05
6.13647e-05
6.13647e-05
6.1345e-05
6.13052e-05
6.12447e-05
6.11624e-05
6.10567e-05
6.09258e-05
6.07675e-05
6.05793e-05
6.03582e-05
6.0101e-05
5.9804e-05
5.9463e-05
5.90738e-05
5.86313e-05
5.81303e-05
5.75649e-05
5.69287e-05
5.62147e-05
5.54151e-05
5.45216e-05
5.35247e-05
5.24139e-05
5.11773e-05
4.97997e-05
4.8274e-05
5.43697e-05
5.02561e-05
4.58418e-05
4.08168e-05
3.50484e-05
2.82908e-05
2.00005e-05
5.50705e-08
2.07468e-10
2.13394e-10
5.66683e-08
2.04512e-05
2.88766e-05
3.57486e-05
4.16204e-05
4.67423e-05
5.11833e-05
4.70374e-05
4.87641e-05
5.03256e-05
5.17316e-05
5.29986e-05
5.414e-05
5.51674e-05
5.60914e-05
5.69213e-05
5.76656e-05
5.83317e-05
5.89266e-05
5.94564e-05
5.99268e-05
6.03429e-05
6.07092e-05
6.10301e-05
6.13094e-05
6.15506e-05
6.17569e-05
6.19311e-05
6.20756e-05
6.21928e-05
6.22842e-05
6.23516e-05
6.23958e-05
6.24177e-05
6.24177e-05
6.23957e-05
6.23514e-05
6.2284e-05
6.21924e-05
6.20752e-05
6.19306e-05
6.17563e-05
6.155e-05
6.13087e-05
6.10294e-05
6.07085e-05
6.03421e-05
5.99261e-05
5.94557e-05
5.89258e-05
5.8331e-05
5.76649e-05
5.69207e-05
5.60909e-05
5.5167e-05
5.41396e-05
5.29983e-05
5.17314e-05
5.03254e-05
4.8764e-05
4.70373e-05
5.11839e-05
4.67433e-05
4.16216e-05
3.57499e-05
2.8878e-05
2.04527e-05
5.66785e-08
2.1344e-10
2.15242e-10
5.71677e-08
2.05918e-05
2.90597e-05
3.59682e-05
4.18735e-05
4.70269e-05
5.14877e-05
4.71813e-05
4.89191e-05
5.04929e-05
5.19113e-05
5.31908e-05
5.43446e-05
5.53847e-05
5.63215e-05
5.71642e-05
5.79214e-05
5.86006e-05
5.92083e-05
5.97508e-05
6.02335e-05
6.06614e-05
6.1039e-05
6.13705e-05
6.16596e-05
6.19097e-05
6.2124e-05
6.23052e-05
6.24559e-05
6.25781e-05
6.26736e-05
6.2744e-05
6.27903e-05
6.28132e-05
6.28132e-05
6.27902e-05
6.27439e-05
6.26735e-05
6.25779e-05
6.24556e-05
6.23049e-05
6.21236e-05
6.19093e-05
6.16592e-05
6.13701e-05
6.10386e-05
6.0661e-05
6.02332e-05
5.97505e-05
5.9208e-05
5.86003e-05
5.79213e-05
5.71641e-05
5.63214e-05
5.53848e-05
5.43448e-05
5.3191e-05
5.19117e-05
5.04933e-05
4.89196e-05
4.71819e-05
5.14895e-05
4.7029e-05
4.18757e-05
3.59705e-05
2.9062e-05
2.05941e-05
5.7181e-08
2.15299e-10
2.15561e-10
5.72547e-08
2.0617e-05
2.90933e-05
3.60103e-05
4.19256e-05
4.70908e-05
5.15613e-05
4.72189e-05
4.89611e-05
5.05398e-05
5.19629e-05
5.32467e-05
5.44047e-05
5.54488e-05
5.63896e-05
5.72365e-05
5.7998e-05
5.86814e-05
5.92934e-05
5.98402e-05
6.0327e-05
6.07589e-05
6.11403e-05
6.14754e-05
6.17678e-05
6.20209e-05
6.22379e-05
6.24215e-05
6.25742e-05
6.26981e-05
6.2795e-05
6.28664e-05
6.29134e-05
6.29366e-05
6.29366e-05
6.29133e-05
6.28663e-05
6.27949e-05
6.26979e-05
6.2574e-05
6.24213e-05
6.22376e-05
6.20206e-05
6.17675e-05
6.14751e-05
6.11401e-05
6.07587e-05
6.03269e-05
5.98401e-05
5.92934e-05
5.86814e-05
5.7998e-05
5.72367e-05
5.63899e-05
5.54492e-05
5.44051e-05
5.32473e-05
5.19636e-05
5.05406e-05
4.89619e-05
4.72198e-05
5.15637e-05
4.70936e-05
4.19285e-05
3.60132e-05
2.90961e-05
2.06198e-05
5.72695e-08
2.15624e-10
2.15655e-10
5.72802e-08
2.06243e-05
2.91028e-05
3.60221e-05
4.19398e-05
4.71075e-05
5.158e-05
4.72282e-05
4.89715e-05
5.05514e-05
5.19757e-05
5.32606e-05
5.44197e-05
5.5465e-05
5.64069e-05
5.7255e-05
5.80176e-05
5.87022e-05
5.93155e-05
5.98634e-05
6.03515e-05
6.07845e-05
6.11669e-05
6.1503e-05
6.17963e-05
6.20502e-05
6.2268e-05
6.24522e-05
6.26055e-05
6.27299e-05
6.28272e-05
6.28988e-05
6.2946e-05
6.29694e-05
6.29693e-05
6.29459e-05
6.28987e-05
6.2827e-05
6.27297e-05
6.26053e-05
6.24521e-05
6.22678e-05
6.205e-05
6.17961e-05
6.15028e-05
6.11668e-05
6.07843e-05
6.03514e-05
5.98634e-05
5.93155e-05
5.87023e-05
5.80178e-05
5.72553e-05
5.64073e-05
5.54654e-05
5.44203e-05
5.32613e-05
5.19765e-05
5.05523e-05
4.89724e-05
4.72292e-05
5.15826e-05
4.71105e-05
4.19429e-05
3.60253e-05
2.91059e-05
2.06273e-05
5.72958e-08
2.15722e-10
2.15678e-10
5.72865e-08
2.0626e-05
2.91052e-05
3.6025e-05
4.19431e-05
4.71114e-05
5.15842e-05
4.72303e-05
4.89738e-05
5.0554e-05
5.19785e-05
5.32636e-05
5.4423e-05
5.54685e-05
5.64108e-05
5.72592e-05
5.80221e-05
5.8707e-05
5.93205e-05
5.98687e-05
6.0357e-05
6.07903e-05
6.1173e-05
6.15093e-05
6.18028e-05
6.2057e-05
6.22749e-05
6.24593e-05
6.26127e-05
6.27372e-05
6.28346e-05
6.29063e-05
6.29535e-05
6.29769e-05
6.29769e-05
6.29535e-05
6.29062e-05
6.28345e-05
6.2737e-05
6.26125e-05
6.24591e-05
6.22747e-05
6.20568e-05
6.18026e-05
6.15091e-05
6.11729e-05
6.07902e-05
6.0357e-05
5.98687e-05
5.93206e-05
5.87071e-05
5.80223e-05
5.72595e-05
5.64112e-05
5.54691e-05
5.44236e-05
5.32644e-05
5.19793e-05
5.05549e-05
4.89748e-05
4.72314e-05
5.15869e-05
4.71145e-05
4.19463e-05
3.60282e-05
2.91084e-05
2.06291e-05
5.73023e-08
2.15745e-10
2.15683e-10
5.72877e-08
2.06264e-05
2.91056e-05
3.60256e-05
4.19438e-05
4.71121e-05
5.15851e-05
4.72308e-05
4.89742e-05
5.05545e-05
5.1979e-05
5.32642e-05
5.44237e-05
5.54693e-05
5.64115e-05
5.726e-05
5.80229e-05
5.87079e-05
5.93215e-05
5.98698e-05
6.03582e-05
6.07915e-05
6.11743e-05
6.15106e-05
6.18041e-05
6.20584e-05
6.22763e-05
6.24608e-05
6.26142e-05
6.27387e-05
6.28361e-05
6.29078e-05
6.2955e-05
6.29784e-05
6.29784e-05
6.2955e-05
6.29077e-05
6.2836e-05
6.27385e-05
6.2614e-05
6.24606e-05
6.22761e-05
6.20582e-05
6.1804e-05
6.15104e-05
6.11741e-05
6.07914e-05
6.03581e-05
5.98698e-05
5.93216e-05
5.8708e-05
5.80232e-05
5.72603e-05
5.6412e-05
5.54698e-05
5.44243e-05
5.3265e-05
5.19799e-05
5.05554e-05
4.89752e-05
4.72318e-05
5.15878e-05
4.71152e-05
4.1947e-05
3.60288e-05
2.91088e-05
2.06295e-05
5.73035e-08
2.1575e-10
2.15683e-10
5.72879e-08
2.06265e-05
2.91057e-05
3.60257e-05
4.19439e-05
4.71123e-05
5.15852e-05
4.72308e-05
4.89743e-05
5.05545e-05
5.19791e-05
5.32644e-05
5.44238e-05
5.54694e-05
5.64117e-05
5.72601e-05
5.80231e-05
5.87081e-05
5.93217e-05
5.987e-05
6.03584e-05
6.07917e-05
6.11745e-05
6.15108e-05
6.18044e-05
6.20586e-05
6.22766e-05
6.2461e-05
6.26144e-05
6.2739e-05
6.28364e-05
6.29081e-05
6.29553e-05
6.29787e-05
6.29787e-05
6.29553e-05
6.2908e-05
6.28362e-05
6.27388e-05
6.26143e-05
6.24609e-05
6.22764e-05
6.20584e-05
6.18042e-05
6.15106e-05
6.11744e-05
6.07916e-05
6.03583e-05
5.987e-05
5.93218e-05
5.87082e-05
5.80233e-05
5.72604e-05
5.64121e-05
5.54699e-05
5.44244e-05
5.32651e-05
5.198e-05
5.05555e-05
4.89753e-05
4.72319e-05
5.15879e-05
4.71154e-05
4.19471e-05
3.60289e-05
2.91089e-05
2.06295e-05
5.73038e-08
2.15751e-10
2.15684e-10
5.72879e-08
2.06265e-05
2.91057e-05
3.60257e-05
4.19439e-05
4.71123e-05
5.15852e-05
4.72308e-05
4.89743e-05
5.05546e-05
5.19791e-05
5.32644e-05
5.44238e-05
5.54694e-05
5.64117e-05
5.72602e-05
5.80231e-05
5.87081e-05
5.93217e-05
5.987e-05
6.03584e-05
6.07917e-05
6.11745e-05
6.15108e-05
6.18044e-05
6.20586e-05
6.22766e-05
6.24611e-05
6.26145e-05
6.2739e-05
6.28364e-05
6.29082e-05
6.29554e-05
6.29788e-05
6.29788e-05
6.29553e-05
6.29081e-05
6.28363e-05
6.27389e-05
6.26143e-05
6.24609e-05
6.22764e-05
6.20585e-05
6.18042e-05
6.15107e-05
6.11744e-05
6.07916e-05
6.03583e-05
5.987e-05
5.93218e-05
5.87082e-05
5.80234e-05
5.72605e-05
5.64121e-05
5.54699e-05
5.44245e-05
5.32651e-05
5.198e-05
5.05555e-05
4.89753e-05
4.72319e-05
5.15879e-05
4.71154e-05
4.19471e-05
3.60289e-05
2.91089e-05
2.06295e-05
5.73038e-08
2.15751e-10
2.15684e-10
5.72879e-08
2.06265e-05
2.91057e-05
3.60257e-05
4.19439e-05
4.71123e-05
5.15852e-05
4.72308e-05
4.89743e-05
5.05546e-05
5.19791e-05
5.32644e-05
5.44238e-05
5.54694e-05
5.64117e-05
5.72602e-05
5.80231e-05
5.87081e-05
5.93217e-05
5.987e-05
6.03584e-05
6.07917e-05
6.11745e-05
6.15109e-05
6.18044e-05
6.20587e-05
6.22766e-05
6.24611e-05
6.26145e-05
6.2739e-05
6.28364e-05
6.29082e-05
6.29554e-05
6.29788e-05
6.29788e-05
6.29553e-05
6.29081e-05
6.28363e-05
6.27389e-05
6.26143e-05
6.24609e-05
6.22764e-05
6.20585e-05
6.18043e-05
6.15107e-05
6.11744e-05
6.07916e-05
6.03583e-05
5.987e-05
5.93218e-05
5.87082e-05
5.80234e-05
5.72605e-05
5.64121e-05
5.54699e-05
5.44245e-05
5.32651e-05
5.198e-05
5.05555e-05
4.89753e-05
4.72319e-05
5.15879e-05
4.71154e-05
4.19471e-05
3.60289e-05
2.91089e-05
2.06295e-05
5.73038e-08
2.15751e-10
2.15684e-10
5.72879e-08
2.06265e-05
2.91057e-05
3.60257e-05
4.19439e-05
4.71123e-05
5.15852e-05
4.72308e-05
4.89743e-05
5.05546e-05
5.19791e-05
5.32644e-05
5.44238e-05
5.54694e-05
5.64117e-05
5.72602e-05
5.80231e-05
5.87081e-05
5.93217e-05
5.987e-05
6.03584e-05
6.07917e-05
6.11745e-05
6.15109e-05
6.18044e-05
6.20587e-05
6.22766e-05
6.24611e-05
6.26145e-05
6.2739e-05
6.28364e-05
6.29082e-05
6.29554e-05
6.29788e-05
6.29788e-05
6.29553e-05
6.29081e-05
6.28363e-05
6.27389e-05
6.26143e-05
6.24609e-05
6.22764e-05
6.20585e-05
6.18043e-05
6.15107e-05
6.11744e-05
6.07916e-05
6.03583e-05
5.987e-05
5.93218e-05
5.87082e-05
5.80234e-05
5.72605e-05
5.64121e-05
5.54699e-05
5.44245e-05
5.32651e-05
5.198e-05
5.05555e-05
4.89753e-05
4.72319e-05
5.15879e-05
4.71154e-05
4.19471e-05
3.60289e-05
2.91089e-05
2.06295e-05
5.73038e-08
2.15751e-10
2.15684e-10
5.72879e-08
2.06265e-05
2.91057e-05
3.60257e-05
4.19439e-05
4.71123e-05
5.15852e-05
4.72308e-05
4.89743e-05
5.05546e-05
5.19791e-05
5.32644e-05
5.44238e-05
5.54694e-05
5.64117e-05
5.72602e-05
5.80231e-05
5.87081e-05
5.93217e-05
5.987e-05
6.03584e-05
6.07917e-05
6.11745e-05
6.15109e-05
6.18044e-05
6.20587e-05
6.22766e-05
6.24611e-05
6.26145e-05
6.2739e-05
6.28364e-05
6.29082e-05
6.29554e-05
6.29788e-05
6.29788e-05
6.29553e-05
6.29081e-05
6.28363e-05
6.27389e-05
6.26143e-05
6.24609e-05
6.22764e-05
6.20585e-05
6.18043e-05
6.15107e-05
6.11744e-05
6.07916e-05
6.03583e-05
5.987e-05
5.93218e-05
5.87082e-05
5.80234e-05
5.72605e-05
5.64121e-05
5.54699e-05
5.44245e-05
5.32651e-05
5.198e-05
5.05555e-05
4.89753e-05
4.72319e-05
5.15879e-05
4.71154e-05
4.19471e-05
3.60289e-05
2.91089e-05
2.06295e-05
5.73038e-08
2.15751e-10
2.15684e-10
5.72879e-08
2.06265e-05
2.91057e-05
3.60257e-05
4.19439e-05
4.71123e-05
5.15852e-05
4.72308e-05
4.89743e-05
5.05546e-05
5.19791e-05
5.32644e-05
5.44238e-05
5.54694e-05
5.64117e-05
5.72602e-05
5.80231e-05
5.87081e-05
5.93217e-05
5.987e-05
6.03584e-05
6.07917e-05
6.11745e-05
6.15109e-05
6.18044e-05
6.20587e-05
6.22766e-05
6.24611e-05
6.26145e-05
6.2739e-05
6.28364e-05
6.29082e-05
6.29554e-05
6.29788e-05
6.29788e-05
6.29553e-05
6.29081e-05
6.28363e-05
6.27389e-05
6.26143e-05
6.24609e-05
6.22764e-05
6.20585e-05
6.18043e-05
6.15107e-05
6.11744e-05
6.07916e-05
6.03583e-05
5.987e-05
5.93218e-05
5.87082e-05
5.80234e-05
5.72605e-05
5.64121e-05
5.54699e-05
5.44245e-05
5.32651e-05
5.198e-05
5.05555e-05
4.89753e-05
4.72319e-05
5.15879e-05
4.71154e-05
4.19471e-05
3.60289e-05
2.91089e-05
2.06295e-05
5.73038e-08
2.15751e-10
2.15684e-10
5.72879e-08
2.06265e-05
2.91057e-05
3.60257e-05
4.19439e-05
4.71123e-05
5.15852e-05
4.72308e-05
4.89743e-05
5.05546e-05
5.19791e-05
5.32644e-05
5.44238e-05
5.54694e-05
5.64117e-05
5.72602e-05
5.80231e-05
5.87081e-05
5.93217e-05
5.987e-05
6.03584e-05
6.07917e-05
6.11745e-05
6.15109e-05
6.18044e-05
6.20587e-05
6.22766e-05
6.24611e-05
6.26145e-05
6.2739e-05
6.28364e-05
6.29082e-05
6.29554e-05
6.29788e-05
6.29788e-05
6.29553e-05
6.29081e-05
6.28363e-05
6.27389e-05
6.26143e-05
6.24609e-05
6.22764e-05
6.20585e-05
6.18043e-05
6.15107e-05
6.11744e-05
6.07916e-05
6.03583e-05
5.987e-05
5.93218e-05
5.87082e-05
5.80234e-05
5.72605e-05
5.64121e-05
5.54699e-05
5.44245e-05
5.32651e-05
5.198e-05
5.05555e-05
4.89753e-05
4.72319e-05
5.15879e-05
4.71154e-05
4.19471e-05
3.60289e-05
2.91089e-05
2.06295e-05
5.73038e-08
2.15751e-10
2.15684e-10
5.72879e-08
2.06265e-05
2.91057e-05
3.60257e-05
4.19439e-05
4.71123e-05
5.15852e-05
4.72308e-05
4.89743e-05
5.05546e-05
5.19791e-05
5.32644e-05
5.44238e-05
5.54694e-05
5.64117e-05
5.72602e-05
5.80231e-05
5.87081e-05
5.93217e-05
5.987e-05
6.03584e-05
6.07917e-05
6.11745e-05
6.15109e-05
6.18044e-05
6.20587e-05
6.22766e-05
6.24611e-05
6.26145e-05
6.2739e-05
6.28364e-05
6.29082e-05
6.29554e-05
6.29788e-05
6.29788e-05
6.29553e-05
6.29081e-05
6.28363e-05
6.27389e-05
6.26143e-05
6.24609e-05
6.22764e-05
6.20585e-05
6.18043e-05
6.15107e-05
6.11744e-05
6.07916e-05
6.03583e-05
5.987e-05
5.93218e-05
5.87082e-05
5.80234e-05
5.72605e-05
5.64121e-05
5.54699e-05
5.44245e-05
5.32651e-05
5.198e-05
5.05555e-05
4.89753e-05
4.72319e-05
5.15879e-05
4.71154e-05
4.19471e-05
3.60289e-05
2.91089e-05
2.06295e-05
5.73038e-08
2.15751e-10
2.15684e-10
5.72879e-08
2.06265e-05
2.91057e-05
3.60257e-05
4.19439e-05
4.71123e-05
5.15852e-05
4.72308e-05
4.89743e-05
5.05546e-05
5.19791e-05
5.32644e-05
5.44238e-05
5.54694e-05
5.64117e-05
5.72602e-05
5.80231e-05
5.87081e-05
5.93217e-05
5.987e-05
6.03584e-05
6.07917e-05
6.11745e-05
6.15109e-05
6.18044e-05
6.20587e-05
6.22766e-05
6.24611e-05
6.26145e-05
6.2739e-05
6.28364e-05
6.29082e-05
6.29554e-05
6.29788e-05
6.29788e-05
6.29553e-05
6.29081e-05
6.28363e-05
6.27389e-05
6.26143e-05
6.24609e-05
6.22764e-05
6.20585e-05
6.18043e-05
6.15107e-05
6.11744e-05
6.07916e-05
6.03583e-05
5.987e-05
5.93218e-05
5.87082e-05
5.80234e-05
5.72605e-05
5.64121e-05
5.54699e-05
5.44245e-05
5.32651e-05
5.198e-05
5.05555e-05
4.89753e-05
4.72319e-05
5.15879e-05
4.71154e-05
4.19471e-05
3.60289e-05
2.91089e-05
2.06295e-05
5.73038e-08
2.15751e-10
2.15684e-10
5.72879e-08
2.06265e-05
2.91057e-05
3.60257e-05
4.19439e-05
4.71123e-05
5.15852e-05
4.72308e-05
4.89743e-05
5.05546e-05
5.19791e-05
5.32644e-05
5.44238e-05
5.54694e-05
5.64117e-05
5.72602e-05
5.80231e-05
5.87081e-05
5.93217e-05
5.987e-05
6.03584e-05
6.07917e-05
6.11745e-05
6.15109e-05
6.18044e-05
6.20587e-05
6.22766e-05
6.24611e-05
6.26145e-05
6.2739e-05
6.28364e-05
6.29082e-05
6.29554e-05
6.29788e-05
6.29788e-05
6.29553e-05
6.29081e-05
6.28363e-05
6.27389e-05
6.26143e-05
6.24609e-05
6.22764e-05
6.20585e-05
6.18043e-05
6.15107e-05
6.11744e-05
6.07916e-05
6.03583e-05
5.987e-05
5.93218e-05
5.87082e-05
5.80234e-05
5.72605e-05
5.64121e-05
5.54699e-05
5.44245e-05
5.32651e-05
5.198e-05
5.05555e-05
4.89753e-05
4.72319e-05
5.15879e-05
4.71154e-05
4.19471e-05
3.60289e-05
2.91089e-05
2.06295e-05
5.73038e-08
2.15751e-10
2.15684e-10
5.72879e-08
2.06265e-05
2.91057e-05
3.60257e-05
4.19439e-05
4.71123e-05
5.15852e-05
4.72308e-05
4.89743e-05
5.05546e-05
5.19791e-05
5.32644e-05
5.44238e-05
5.54694e-05
5.64117e-05
5.72602e-05
5.80231e-05
5.87081e-05
5.93217e-05
5.987e-05
6.03584e-05
6.07917e-05
6.11745e-05
6.15109e-05
6.18044e-05
6.20587e-05
6.22766e-05
6.24611e-05
6.26145e-05
6.2739e-05
6.28364e-05
6.29082e-05
6.29554e-05
6.29788e-05
6.29788e-05
6.29553e-05
6.29081e-05
6.28363e-05
6.27389e-05
6.26143e-05
6.24609e-05
6.22764e-05
6.20585e-05
6.18043e-05
6.15107e-05
6.11744e-05
6.07916e-05
6.03583e-05
5.987e-05
5.93218e-05
5.87082e-05
5.80234e-05
5.72605e-05
5.64121e-05
5.54699e-05
5.44245e-05
5.32651e-05
5.198e-05
5.05555e-05
4.89753e-05
4.72319e-05
5.15879e-05
4.71154e-05
4.19471e-05
3.60289e-05
2.91089e-05
2.06295e-05
5.73038e-08
2.15751e-10
2.15684e-10
5.72879e-08
2.06265e-05
2.91057e-05
3.60257e-05
4.19439e-05
4.71123e-05
5.15852e-05
4.72308e-05
4.89743e-05
5.05546e-05
5.19791e-05
5.32644e-05
5.44238e-05
5.54694e-05
5.64117e-05
5.72602e-05
5.80231e-05
5.87081e-05
5.93217e-05
5.987e-05
6.03584e-05
6.07917e-05
6.11745e-05
6.15109e-05
6.18044e-05
6.20587e-05
6.22766e-05
6.24611e-05
6.26145e-05
6.2739e-05
6.28364e-05
6.29082e-05
6.29554e-05
6.29788e-05
6.29788e-05
6.29553e-05
6.29081e-05
6.28363e-05
6.27389e-05
6.26143e-05
6.24609e-05
6.22764e-05
6.20585e-05
6.18043e-05
6.15107e-05
6.11744e-05
6.07916e-05
6.03583e-05
5.987e-05
5.93218e-05
5.87082e-05
5.80234e-05
5.72605e-05
5.64121e-05
5.54699e-05
5.44245e-05
5.32651e-05
5.198e-05
5.05555e-05
4.89753e-05
4.72319e-05
5.15879e-05
4.71154e-05
4.19471e-05
3.60289e-05
2.91089e-05
2.06295e-05
5.73038e-08
2.15751e-10
2.15684e-10
5.72879e-08
2.06265e-05
2.91057e-05
3.60257e-05
4.19439e-05
4.71123e-05
5.15852e-05
4.72308e-05
4.89743e-05
5.05546e-05
5.19791e-05
5.32644e-05
5.44238e-05
5.54694e-05
5.64117e-05
5.72602e-05
5.80231e-05
5.87081e-05
5.93217e-05
5.987e-05
6.03584e-05
6.07917e-05
6.11745e-05
6.15109e-05
6.18044e-05
6.20587e-05
6.22766e-05
6.24611e-05
6.26145e-05
6.2739e-05
6.28364e-05
6.29082e-05
6.29554e-05
6.29788e-05
6.29788e-05
6.29553e-05
6.29081e-05
6.28363e-05
6.27389e-05
6.26143e-05
6.24609e-05
6.22764e-05
6.20585e-05
6.18043e-05
6.15107e-05
6.11744e-05
6.07916e-05
6.03583e-05
5.987e-05
5.93218e-05
5.87082e-05
5.80234e-05
5.72605e-05
5.64121e-05
5.54699e-05
5.44245e-05
5.32651e-05
5.198e-05
5.05555e-05
4.89753e-05
4.72319e-05
5.15879e-05
4.71154e-05
4.19471e-05
3.60289e-05
2.91089e-05
2.06295e-05
5.73038e-08
2.15751e-10
2.15684e-10
5.72879e-08
2.06265e-05
2.91057e-05
3.60257e-05
4.19439e-05
4.71123e-05
5.15852e-05
4.72308e-05
4.89743e-05
5.05546e-05
5.19791e-05
5.32644e-05
5.44238e-05
5.54694e-05
5.64117e-05
5.72602e-05
5.80231e-05
5.87081e-05
5.93217e-05
5.987e-05
6.03584e-05
6.07917e-05
6.11745e-05
6.15109e-05
6.18044e-05
6.20587e-05
6.22766e-05
6.24611e-05
6.26145e-05
6.2739e-05
6.28364e-05
6.29082e-05
6.29554e-05
6.29788e-05
6.29788e-05
6.29553e-05
6.29081e-05
6.28363e-05
6.27389e-05
6.26143e-05
6.24609e-05
6.22764e-05
6.20585e-05
6.18043e-05
6.15107e-05
6.11744e-05
6.07916e-05
6.03583e-05
5.987e-05
5.93218e-05
5.87082e-05
5.80234e-05
5.72605e-05
5.64121e-05
5.54699e-05
5.44245e-05
5.32651e-05
5.198e-05
5.05555e-05
4.89753e-05
4.72319e-05
5.15879e-05
4.71154e-05
4.19471e-05
3.60289e-05
2.91089e-05
2.06295e-05
5.73038e-08
2.15751e-10
2.15684e-10
5.72879e-08
2.06265e-05
2.91057e-05
3.60257e-05
4.19439e-05
4.71123e-05
5.15852e-05
4.72308e-05
4.89743e-05
5.05546e-05
5.19791e-05
5.32644e-05
5.44238e-05
5.54694e-05
5.64117e-05
5.72602e-05
5.80231e-05
5.87081e-05
5.93217e-05
5.987e-05
6.03584e-05
6.07917e-05
6.11745e-05
6.15109e-05
6.18044e-05
6.20587e-05
6.22766e-05
6.24611e-05
6.26145e-05
6.2739e-05
6.28364e-05
6.29082e-05
6.29554e-05
6.29788e-05
6.29788e-05
6.29553e-05
6.29081e-05
6.28363e-05
6.27389e-05
6.26143e-05
6.24609e-05
6.22764e-05
6.20585e-05
6.18043e-05
6.15107e-05
6.11744e-05
6.07916e-05
6.03583e-05
5.987e-05
5.93218e-05
5.87082e-05
5.80234e-05
5.72605e-05
5.64121e-05
5.54699e-05
5.44245e-05
5.32651e-05
5.198e-05
5.05555e-05
4.89753e-05
4.72319e-05
5.15879e-05
4.71154e-05
4.19471e-05
3.60289e-05
2.91089e-05
2.06295e-05
5.73038e-08
2.15751e-10
2.15684e-10
5.72879e-08
2.06265e-05
2.91057e-05
3.60257e-05
4.19439e-05
4.71123e-05
5.15852e-05
4.72308e-05
4.89743e-05
5.05546e-05
5.19791e-05
5.32644e-05
5.44238e-05
5.54694e-05
5.64117e-05
5.72602e-05
5.80231e-05
5.87081e-05
5.93217e-05
5.987e-05
6.03584e-05
6.07917e-05
6.11745e-05
6.15109e-05
6.18044e-05
6.20587e-05
6.22766e-05
6.24611e-05
6.26145e-05
6.2739e-05
6.28364e-05
6.29082e-05
6.29554e-05
6.29788e-05
6.29788e-05
6.29553e-05
6.29081e-05
6.28363e-05
6.27389e-05
6.26143e-05
6.24609e-05
6.22764e-05
6.20585e-05
6.18043e-05
6.15107e-05
6.11744e-05
6.07916e-05
6.03583e-05
5.987e-05
5.93218e-05
5.87082e-05
5.80234e-05
5.72605e-05
5.64121e-05
5.54699e-05
5.44245e-05
5.32651e-05
5.198e-05
5.05555e-05
4.89753e-05
4.72319e-05
5.15879e-05
4.71154e-05
4.19471e-05
3.60289e-05
2.91089e-05
2.06295e-05
5.73038e-08
2.15751e-10
2.15684e-10
5.72879e-08
2.06265e-05
2.91057e-05
3.60257e-05
4.19439e-05
4.71123e-05
5.15852e-05
4.72308e-05
4.89743e-05
5.05546e-05
5.19791e-05
5.32644e-05
5.44238e-05
5.54694e-05
5.64117e-05
5.72602e-05
5.80231e-05
5.87081e-05
5.93217e-05
5.987e-05
6.03584e-05
6.07917e-05
6.11745e-05
6.15109e-05
6.18044e-05
6.20587e-05
6.22766e-05
6.24611e-05
6.26145e-05
6.2739e-05
6.28364e-05
6.29082e-05
6.29554e-05
6.29788e-05
6.29788e-05
6.29553e-05
6.29081e-05
6.28363e-05
6.27389e-05
6.26143e-05
6.24609e-05
6.22764e-05
6.20585e-05
6.18043e-05
6.15107e-05
6.11744e-05
6.07916e-05
6.03583e-05
5.987e-05
5.93218e-05
5.87082e-05
5.80234e-05
5.72605e-05
5.64121e-05
5.54699e-05
5.44245e-05
5.32651e-05
5.198e-05
5.05555e-05
4.89753e-05
4.72319e-05
5.15879e-05
4.71154e-05
4.19471e-05
3.60289e-05
2.91089e-05
2.06295e-05
5.73038e-08
2.15751e-10
2.15684e-10
5.72879e-08
2.06265e-05
2.91057e-05
3.60257e-05
4.19439e-05
4.71123e-05
5.15852e-05
4.72308e-05
4.89743e-05
5.05546e-05
5.19791e-05
5.32644e-05
5.44238e-05
5.54694e-05
5.64117e-05
5.72602e-05
5.80231e-05
5.87081e-05
5.93217e-05
5.987e-05
6.03584e-05
6.07917e-05
6.11745e-05
6.15109e-05
6.18044e-05
6.20587e-05
6.22766e-05
6.24611e-05
6.26145e-05
6.2739e-05
6.28364e-05
6.29082e-05
6.29554e-05
6.29788e-05
6.29788e-05
6.29553e-05
6.29081e-05
6.28363e-05
6.27389e-05
6.26143e-05
6.24609e-05
6.22764e-05
6.20585e-05
6.18043e-05
6.15107e-05
6.11744e-05
6.07916e-05
6.03583e-05
5.987e-05
5.93218e-05
5.87082e-05
5.80234e-05
5.72605e-05
5.64121e-05
5.54699e-05
5.44245e-05
5.32651e-05
5.198e-05
5.05555e-05
4.89753e-05
4.72319e-05
5.15879e-05
4.71154e-05
4.19471e-05
3.60289e-05
2.91089e-05
2.06295e-05
5.73038e-08
2.15751e-10
2.15684e-10
5.72879e-08
2.06265e-05
2.91057e-05
3.60257e-05
4.19439e-05
4.71123e-05
5.15852e-05
4.72308e-05
4.89743e-05
5.05546e-05
5.19791e-05
5.32644e-05
5.44238e-05
5.54694e-05
5.64117e-05
5.72602e-05
5.80231e-05
5.87081e-05
5.93217e-05
5.987e-05
6.03584e-05
6.07917e-05
6.11745e-05
6.15109e-05
6.18044e-05
6.20587e-05
6.22766e-05
6.24611e-05
6.26145e-05
6.2739e-05
6.28364e-05
6.29082e-05
6.29554e-05
6.29788e-05
6.29788e-05
6.29553e-05
6.29081e-05
6.28363e-05
6.27389e-05
6.26143e-05
6.24609e-05
6.22764e-05
6.20585e-05
6.18043e-05
6.15107e-05
6.11744e-05
6.07916e-05
6.03583e-05
5.987e-05
5.93218e-05
5.87082e-05
5.80234e-05
5.72605e-05
5.64121e-05
5.54699e-05
5.44245e-05
5.32651e-05
5.198e-05
5.05555e-05
4.89753e-05
4.72319e-05
5.15879e-05
4.71154e-05
4.19471e-05
3.60289e-05
2.91089e-05
2.06295e-05
5.73038e-08
2.15751e-10
2.15684e-10
5.72879e-08
2.06265e-05
2.91057e-05
3.60257e-05
4.19439e-05
4.71123e-05
5.15852e-05
4.72308e-05
4.89743e-05
5.05546e-05
5.19791e-05
5.32644e-05
5.44238e-05
5.54694e-05
5.64117e-05
5.72602e-05
5.80231e-05
5.87081e-05
5.93217e-05
5.987e-05
6.03584e-05
6.07917e-05
6.11745e-05
6.15109e-05
6.18044e-05
6.20587e-05
6.22766e-05
6.24611e-05
6.26145e-05
6.2739e-05
6.28364e-05
6.29082e-05
6.29554e-05
6.29788e-05
6.29788e-05
6.29553e-05
6.29081e-05
6.28363e-05
6.27389e-05
6.26143e-05
6.24609e-05
6.22764e-05
6.20585e-05
6.18043e-05
6.15107e-05
6.11744e-05
6.07916e-05
6.03583e-05
5.987e-05
5.93218e-05
5.87082e-05
5.80234e-05
5.72605e-05
5.64121e-05
5.54699e-05
5.44245e-05
5.32651e-05
5.198e-05
5.05555e-05
4.89753e-05
4.72319e-05
5.15879e-05
4.71154e-05
4.19471e-05
3.60289e-05
2.91089e-05
2.06295e-05
5.73038e-08
2.15751e-10
2.15684e-10
5.72879e-08
2.06265e-05
2.91057e-05
3.60257e-05
4.19439e-05
4.71123e-05
5.15852e-05
4.72308e-05
4.89743e-05
5.05546e-05
5.19791e-05
5.32644e-05
5.44238e-05
5.54694e-05
5.64117e-05
5.72602e-05
5.80231e-05
5.87081e-05
5.93217e-05
5.987e-05
6.03584e-05
6.07917e-05
6.11745e-05
6.15109e-05
6.18044e-05
6.20587e-05
6.22766e-05
6.24611e-05
6.26145e-05
6.2739e-05
6.28364e-05
6.29082e-05
6.29554e-05
6.29788e-05
6.29788e-05
6.29553e-05
6.29081e-05
6.28363e-05
6.27389e-05
6.26143e-05
6.24609e-05
6.22764e-05
6.20585e-05
6.18043e-05
6.15107e-05
6.11744e-05
6.07916e-05
6.03583e-05
5.987e-05
5.93218e-05
5.87082e-05
5.80234e-05
5.72605e-05
5.64121e-05
5.54699e-05
5.44245e-05
5.32651e-05
5.198e-05
5.05555e-05
4.89753e-05
4.72319e-05
5.15879e-05
4.71154e-05
4.19471e-05
3.60289e-05
2.91089e-05
2.06295e-05
5.73038e-08
2.15751e-10
2.15684e-10
5.72879e-08
2.06265e-05
2.91057e-05
3.60257e-05
4.19439e-05
4.71123e-05
5.15852e-05
4.72308e-05
4.89743e-05
5.05546e-05
5.19791e-05
5.32644e-05
5.44238e-05
5.54694e-05
5.64117e-05
5.72602e-05
5.80231e-05
5.87081e-05
5.93217e-05
5.987e-05
6.03584e-05
6.07917e-05
6.11745e-05
6.15109e-05
6.18044e-05
6.20587e-05
6.22766e-05
6.24611e-05
6.26145e-05
6.2739e-05
6.28364e-05
6.29082e-05
6.29554e-05
6.29788e-05
6.29788e-05
6.29553e-05
6.29081e-05
6.28363e-05
6.27389e-05
6.26143e-05
6.24609e-05
6.22764e-05
6.20585e-05
6.18043e-05
6.15107e-05
6.11744e-05
6.07916e-05
6.03583e-05
5.987e-05
5.93218e-05
5.87082e-05
5.80234e-05
5.72605e-05
5.64121e-05
5.54699e-05
5.44245e-05
5.32651e-05
5.198e-05
5.05555e-05
4.89753e-05
4.72319e-05
5.15879e-05
4.71154e-05
4.19471e-05
3.60289e-05
2.91089e-05
2.06295e-05
5.73038e-08
2.15751e-10
2.15684e-10
5.72879e-08
2.06265e-05
2.91057e-05
3.60257e-05
4.19439e-05
4.71123e-05
5.15852e-05
4.72308e-05
4.89743e-05
5.05546e-05
5.19791e-05
5.32644e-05
5.44238e-05
5.54694e-05
5.64117e-05
5.72602e-05
5.80231e-05
5.87081e-05
5.93217e-05
5.987e-05
6.03584e-05
6.07917e-05
6.11745e-05
6.15109e-05
6.18044e-05
6.20587e-05
6.22766e-05
6.24611e-05
6.26145e-05
6.2739e-05
6.28364e-05
6.29082e-05
6.29554e-05
6.29788e-05
6.29788e-05
6.29553e-05
6.29081e-05
6.28363e-05
6.27389e-05
6.26143e-05
6.24609e-05
6.22764e-05
6.20585e-05
6.18043e-05
6.15107e-05
6.11744e-05
6.07916e-05
6.03583e-05
5.987e-05
5.93218e-05
5.87082e-05
5.80234e-05
5.72605e-05
5.64121e-05
5.54699e-05
5.44245e-05
5.32651e-05
5.198e-05
5.05555e-05
4.89753e-05
4.72319e-05
5.15879e-05
4.71154e-05
4.19471e-05
3.60289e-05
2.91089e-05
2.06295e-05
5.73038e-08
2.15751e-10
2.15684e-10
5.72879e-08
2.06265e-05
2.91057e-05
3.60257e-05
4.19439e-05
4.71123e-05
5.15852e-05
4.72308e-05
4.89743e-05
5.05546e-05
5.19791e-05
5.32644e-05
5.44238e-05
5.54694e-05
5.64117e-05
5.72602e-05
5.80231e-05
5.87081e-05
5.93217e-05
5.987e-05
6.03584e-05
6.07917e-05
6.11745e-05
6.15109e-05
6.18044e-05
6.20587e-05
6.22766e-05
6.24611e-05
6.26145e-05
6.2739e-05
6.28364e-05
6.29082e-05
6.29554e-05
6.29788e-05
6.29788e-05
6.29553e-05
6.29081e-05
6.28363e-05
6.27389e-05
6.26143e-05
6.24609e-05
6.22764e-05
6.20585e-05
6.18043e-05
6.15107e-05
6.11744e-05
6.07916e-05
6.03583e-05
5.987e-05
5.93218e-05
5.87082e-05
5.80234e-05
5.72605e-05
5.64121e-05
5.54699e-05
5.44245e-05
5.32651e-05
5.198e-05
5.05555e-05
4.89753e-05
4.72319e-05
5.15879e-05
4.71154e-05
4.19471e-05
3.60289e-05
2.91089e-05
2.06295e-05
5.73038e-08
2.15751e-10
2.15684e-10
5.72879e-08
2.06265e-05
2.91057e-05
3.60257e-05
4.19439e-05
4.71123e-05
5.15852e-05
4.72308e-05
4.89743e-05
5.05546e-05
5.19791e-05
5.32644e-05
5.44238e-05
5.54694e-05
5.64117e-05