/*--------------------------------*- C++ -*----------------------------------*\
  =========                 |
  \\      /  F ield         | OpenFOAM: The Open Source CFD Toolbox
   \\    /   O peration     | Website:  https://openfoam.org
    \\  /    A nd           | Version:  13
     \\/     M anipulation  |
\*---------------------------------------------------------------------------*/
FoamFile
{
    format      ascii;
    class       volScalarField;
    location    "70";
    object      rhok;
}
// * * * * * * * * * * * * * * * * * * * * * * * * * * * * * * * * * * * * * //

dimensions      [];

internalField   nonuniform List<scalar> 
315000
(
0.444469
0.423536
0.416559
0.413014
0.411912
0.411086
0.410165
0.409212
0.408251
0.40729
0.406332
0.405379
0.404433
0.403493
0.402561
0.401638
0.400724
0.399819
0.398926
0.398043
0.397172
0.396313
0.395466
0.394632
0.393812
0.393004
0.392211
0.391431
0.390666
0.389915
0.389179
0.388457
0.38775
0.387058
0.386381
0.385718
0.38507
0.384437
0.383819
0.383215
0.382625
0.382049
0.381487
0.380939
0.380404
0.379882
0.379373
0.378876
0.378392
0.377919
0.377457
0.377007
0.376566
0.376136
0.375715
0.375303
0.374899
0.374504
0.374116
0.373734
0.373359
0.37299
0.372626
0.372266
0.371911
0.371559
0.371209
0.370862
0.370516
0.370172
0.444541
0.426473
0.414149
0.412722
0.411886
0.410999
0.410082
0.409148
0.408204
0.407255
0.406305
0.405358
0.404415
0.403477
0.402547
0.401624
0.40071
0.399806
0.398913
0.39803
0.397159
0.3963
0.395453
0.394619
0.393798
0.392991
0.392197
0.391417
0.390652
0.389901
0.389165
0.388443
0.387736
0.387044
0.386367
0.385704
0.385056
0.384423
0.383805
0.383201
0.382611
0.382036
0.381474
0.380926
0.380392
0.37987
0.379361
0.378865
0.378381
0.377908
0.377447
0.376997
0.376557
0.376127
0.375706
0.375295
0.374892
0.374497
0.374109
0.373728
0.373354
0.372985
0.372622
0.372263
0.371908
0.371556
0.371207
0.370861
0.370516
0.370171
0.444498
0.424798
0.415087
0.413067
0.412038
0.411078
0.410128
0.409176
0.40822
0.407263
0.406308
0.405357
0.404411
0.403472
0.40254
0.401617
0.400702
0.399798
0.398904
0.398021
0.39715
0.396291
0.395444
0.394609
0.393788
0.392981
0.392187
0.391408
0.390642
0.389891
0.389155
0.388433
0.387726
0.387034
0.386357
0.385694
0.385047
0.384414
0.383795
0.383191
0.382602
0.382027
0.381465
0.380917
0.380383
0.379862
0.379353
0.378857
0.378373
0.377901
0.37744
0.37699
0.37655
0.376121
0.3757
0.375289
0.374887
0.374492
0.374105
0.373724
0.37335
0.372982
0.372619
0.37226
0.371906
0.371554
0.371206
0.37086
0.370515
0.370171
0.444445
0.42171
0.416092
0.414004
0.41251
0.411303
0.410231
0.409221
0.40824
0.407271
0.406311
0.405357
0.40441
0.403469
0.402536
0.401612
0.400698
0.399793
0.398899
0.398016
0.397144
0.396285
0.395438
0.394604
0.393783
0.392975
0.392181
0.391402
0.390636
0.389885
0.389148
0.388427
0.38772
0.387028
0.38635
0.385688
0.38504
0.384407
0.383789
0.383185
0.382596
0.38202
0.381459
0.380911
0.380377
0.379856
0.379347
0.378851
0.378368
0.377896
0.377435
0.376985
0.376546
0.376116
0.375696
0.375285
0.374883
0.374488
0.374101
0.373721
0.373347
0.372979
0.372617
0.372258
0.371904
0.371553
0.371205
0.370859
0.370515
0.370171
0.444541
0.426473
0.414151
0.412722
0.411882
0.410992
0.410074
0.409138
0.408193
0.407244
0.406294
0.405346
0.404402
0.403464
0.402532
0.401609
0.400695
0.399791
0.398897
0.398014
0.397142
0.396283
0.395435
0.394601
0.39378
0.392972
0.392178
0.391398
0.390633
0.389882
0.389145
0.388423
0.387716
0.387024
0.386347
0.385684
0.385037
0.384404
0.383785
0.383181
0.382592
0.382017
0.381455
0.380908
0.380373
0.379852
0.379344
0.378848
0.378364
0.377892
0.377432
0.376982
0.376543
0.376113
0.375694
0.375283
0.374881
0.374486
0.374099
0.373719
0.373346
0.372978
0.372615
0.372257
0.371903
0.371552
0.371204
0.370859
0.370514
0.370171
0.444498
0.424801
0.41509
0.41307
0.412039
0.411079
0.410129
0.409177
0.408221
0.407263
0.406308
0.405356
0.404409
0.403469
0.402537
0.401613
0.400698
0.399793
0.398898
0.398015
0.397143
0.396283
0.395436
0.394601
0.39378
0.392972
0.392178
0.391398
0.390632
0.389881
0.389144
0.388422
0.387715
0.387023
0.386345
0.385683
0.385035
0.384402
0.383784
0.38318
0.38259
0.382015
0.381454
0.380906
0.380372
0.379851
0.379342
0.378846
0.378363
0.377891
0.37743
0.37698
0.376541
0.376112
0.375692
0.375281
0.374879
0.374485
0.374098
0.373718
0.373345
0.372977
0.372614
0.372256
0.371902
0.371552
0.371204
0.370858
0.370514
0.370171
0.444446
0.421718
0.416113
0.414015
0.412516
0.411309
0.410239
0.409231
0.408249
0.407281
0.40632
0.405365
0.404416
0.403475
0.402541
0.401616
0.400701
0.399795
0.3989
0.398017
0.397144
0.396284
0.395437
0.394602
0.393781
0.392973
0.392178
0.391398
0.390633
0.389881
0.389145
0.388423
0.387715
0.387023
0.386346
0.385683
0.385035
0.384402
0.383784
0.38318
0.38259
0.382015
0.381453
0.380906
0.380371
0.37985
0.379342
0.378846
0.378362
0.37789
0.37743
0.37698
0.376541
0.376111
0.375692
0.375281
0.374879
0.374485
0.374098
0.373718
0.373344
0.372977
0.372614
0.372256
0.371902
0.371552
0.371204
0.370858
0.370514
0.370171
0.444445
0.421711
0.416106
0.414017
0.412519
0.411312
0.410241
0.409233
0.408251
0.407283
0.406322
0.405367
0.404418
0.403476
0.402543
0.401618
0.400702
0.399797
0.398902
0.398018
0.397146
0.396286
0.395438
0.394603
0.393782
0.392974
0.39218
0.3914
0.390634
0.389882
0.389146
0.388424
0.387716
0.387024
0.386346
0.385684
0.385036
0.384403
0.383784
0.383181
0.382591
0.382015
0.381454
0.380906
0.380372
0.379851
0.379342
0.378846
0.378363
0.377891
0.37743
0.37698
0.376541
0.376112
0.375692
0.375281
0.374879
0.374485
0.374098
0.373718
0.373345
0.372977
0.372614
0.372256
0.371902
0.371552
0.371204
0.370858
0.370514
0.370171
0.444446
0.421717
0.416113
0.414041
0.412548
0.411336
0.410258
0.409243
0.408257
0.407286
0.406323
0.405367
0.404418
0.403477
0.402543
0.401618
0.400703
0.399797
0.398902
0.398019
0.397147
0.396287
0.395439
0.394604
0.393783
0.392975
0.392181
0.391401
0.390635
0.389884
0.389147
0.388425
0.387718
0.387025
0.386348
0.385685
0.385037
0.384404
0.383786
0.383182
0.382592
0.382017
0.381455
0.380907
0.380373
0.379852
0.379343
0.378847
0.378363
0.377891
0.377431
0.376981
0.376542
0.376112
0.375692
0.375282
0.374879
0.374485
0.374098
0.373718
0.373345
0.372977
0.372614
0.372256
0.371902
0.371552
0.371204
0.370858
0.370514
0.370171
0.444494
0.424605
0.414481
0.413085
0.412202
0.411244
0.410258
0.409266
0.408279
0.407301
0.406332
0.405371
0.40442
0.403477
0.402542
0.401617
0.400702
0.399797
0.398902
0.398019
0.397147
0.396287
0.39544
0.394605
0.393784
0.392976
0.392182
0.391402
0.390636
0.389885
0.389148
0.388426
0.387719
0.387027
0.386349
0.385686
0.385039
0.384405
0.383787
0.383183
0.382593
0.382018
0.381456
0.380908
0.380374
0.379853
0.379344
0.378848
0.378364
0.377892
0.377431
0.376982
0.376542
0.376113
0.375693
0.375282
0.37488
0.374486
0.374099
0.373719
0.373345
0.372977
0.372615
0.372257
0.371903
0.371552
0.371204
0.370858
0.370514
0.370171
0.444498
0.424802
0.415099
0.413099
0.41208
0.411117
0.410161
0.4092
0.408237
0.407275
0.406316
0.405362
0.404414
0.403474
0.402541
0.401617
0.400702
0.399797
0.398902
0.398019
0.397147
0.396288
0.39544
0.394606
0.393785
0.392977
0.392183
0.391403
0.390637
0.389886
0.389149
0.388428
0.38772
0.387028
0.38635
0.385688
0.38504
0.384407
0.383788
0.383184
0.382594
0.382019
0.381457
0.380909
0.380375
0.379854
0.379345
0.378849
0.378365
0.377893
0.377432
0.376982
0.376543
0.376113
0.375694
0.375283
0.37488
0.374486
0.374099
0.373719
0.373345
0.372978
0.372615
0.372257
0.371903
0.371552
0.371204
0.370858
0.370514
0.370171
0.444517
0.425543
0.414143
0.412809
0.411997
0.41111
0.410179
0.409224
0.408258
0.407292
0.406328
0.405371
0.40442
0.403478
0.402544
0.401619
0.400704
0.399799
0.398904
0.398021
0.397149
0.396289
0.395442
0.394607
0.393786
0.392978
0.392184
0.391404
0.390639
0.389887
0.389151
0.388429
0.387722
0.387029
0.386352
0.385689
0.385041
0.384408
0.383789
0.383185
0.382596
0.38202
0.381458
0.38091
0.380376
0.379855
0.379346
0.37885
0.378366
0.377894
0.377433
0.376983
0.376544
0.376114
0.375694
0.375283
0.374881
0.374486
0.374099
0.373719
0.373346
0.372978
0.372615
0.372257
0.371903
0.371552
0.371204
0.370858
0.370514
0.370171
0.444498
0.424806
0.415095
0.413084
0.412061
0.411099
0.410147
0.409191
0.408231
0.407272
0.406315
0.405362
0.404415
0.403475
0.402542
0.401618
0.400704
0.399799
0.398905
0.398021
0.39715
0.39629
0.395443
0.394608
0.393787
0.392979
0.392185
0.391405
0.39064
0.389888
0.389152
0.38843
0.387723
0.38703
0.386353
0.38569
0.385042
0.384409
0.38379
0.383186
0.382596
0.382021
0.381459
0.380911
0.380377
0.379855
0.379347
0.378851
0.378367
0.377894
0.377433
0.376984
0.376544
0.376115
0.375695
0.375284
0.374881
0.374487
0.3741
0.37372
0.373346
0.372978
0.372615
0.372257
0.371903
0.371552
0.371204
0.370859
0.370514
0.370171
0.444498
0.424806
0.415096
0.413088
0.412069
0.411107
0.410153
0.409195
0.408234
0.407274
0.406316
0.405363
0.404415
0.403475
0.402543
0.401619
0.400704
0.399799
0.398905
0.398022
0.39715
0.396291
0.395444
0.394609
0.393788
0.39298
0.392186
0.391406
0.390641
0.389889
0.389153
0.388431
0.387723
0.387031
0.386353
0.385691
0.385043
0.384409
0.383791
0.383187
0.382597
0.382021
0.38146
0.380912
0.380377
0.379856
0.379347
0.378851
0.378367
0.377895
0.377434
0.376984
0.376544
0.376115
0.375695
0.375284
0.374881
0.374487
0.3741
0.37372
0.373346
0.372978
0.372616
0.372257
0.371903
0.371552
0.371204
0.370859
0.370514
0.370171
0.444518
0.42556
0.414159
0.412818
0.412007
0.411121
0.410187
0.409229
0.408262
0.407295
0.406331
0.405373
0.404422
0.403479
0.402545
0.401621
0.400705
0.3998
0.398906
0.398023
0.397151
0.396291
0.395444
0.39461
0.393789
0.392981
0.392187
0.391407
0.390641
0.38989
0.389153
0.388431
0.387724
0.387031
0.386354
0.385691
0.385043
0.38441
0.383791
0.383187
0.382597
0.382022
0.38146
0.380912
0.380377
0.379856
0.379347
0.378851
0.378367
0.377895
0.377434
0.376984
0.376545
0.376115
0.375695
0.375284
0.374882
0.374487
0.3741
0.37372
0.373346
0.372978
0.372616
0.372257
0.371903
0.371552
0.371204
0.370859
0.370514
0.370171
0.444468
0.423518
0.416541
0.412999
0.411903
0.411082
0.410161
0.409206
0.408243
0.407279
0.40632
0.405366
0.404418
0.403477
0.402544
0.40162
0.400705
0.3998
0.398906
0.398023
0.397151
0.396292
0.395444
0.39461
0.393789
0.392981
0.392187
0.391407
0.390641
0.38989
0.389153
0.388431
0.387724
0.387032
0.386354
0.385691
0.385043
0.38441
0.383791
0.383187
0.382598
0.382022
0.38146
0.380912
0.380378
0.379856
0.379348
0.378851
0.378367
0.377895
0.377434
0.376984
0.376545
0.376115
0.375695
0.375284
0.374882
0.374487
0.3741
0.37372
0.373346
0.372978
0.372616
0.372257
0.371903
0.371552
0.371204
0.370859
0.370514
0.370171
0.444468
0.423502
0.41653
0.412988
0.411891
0.41107
0.41015
0.409197
0.408235
0.407274
0.406316
0.405363
0.404416
0.403475
0.402543
0.401619
0.400704
0.3998
0.398906
0.398022
0.397151
0.396291
0.395444
0.39461
0.393788
0.392981
0.392187
0.391407
0.390641
0.38989
0.389153
0.388431
0.387724
0.387032
0.386354
0.385691
0.385043
0.38441
0.383791
0.383187
0.382598
0.382022
0.38146
0.380912
0.380378
0.379856
0.379348
0.378852
0.378368
0.377895
0.377434
0.376984
0.376545
0.376115
0.375695
0.375284
0.374882
0.374487
0.3741
0.37372
0.373346
0.372978
0.372616
0.372257
0.371903
0.371553
0.371204
0.370859
0.370514
0.370171
0.444468
0.423499
0.416526
0.412998
0.411902
0.411074
0.410151
0.409196
0.408234
0.407272
0.406314
0.405361
0.404414
0.403474
0.402542
0.401618
0.400704
0.399799
0.398905
0.398022
0.39715
0.396291
0.395443
0.394609
0.393788
0.39298
0.392186
0.391407
0.390641
0.38989
0.389153
0.388431
0.387724
0.387031
0.386354
0.385691
0.385043
0.38441
0.383791
0.383187
0.382597
0.382022
0.38146
0.380912
0.380378
0.379856
0.379348
0.378851
0.378368
0.377895
0.377434
0.376984
0.376545
0.376115
0.375695
0.375284
0.374882
0.374487
0.3741
0.37372
0.373346
0.372978
0.372616
0.372258
0.371903
0.371553
0.371205
0.370859
0.370514
0.370171
0.444465
0.423347
0.415039
0.413456
0.412415
0.411341
0.410289
0.409268
0.408271
0.407291
0.406324
0.405366
0.404416
0.403475
0.402542
0.401618
0.400703
0.399798
0.398904
0.398021
0.39715
0.39629
0.395443
0.394609
0.393788
0.39298
0.392186
0.391406
0.390641
0.389889
0.389153
0.388431
0.387724
0.387031
0.386354
0.385691
0.385043
0.38441
0.383791
0.383187
0.382597
0.382022
0.38146
0.380912
0.380378
0.379856
0.379348
0.378851
0.378367
0.377895
0.377434
0.376984
0.376545
0.376115
0.375695
0.375284
0.374882
0.374487
0.3741
0.37372
0.373346
0.372978
0.372616
0.372258
0.371903
0.371553
0.371205
0.370859
0.370514
0.370171
0.444465
0.423347
0.41504
0.413462
0.412423
0.411348
0.410294
0.409271
0.408273
0.407292
0.406324
0.405365
0.404416
0.403474
0.402541
0.401617
0.400703
0.399798
0.398904
0.398021
0.397149
0.39629
0.395443
0.394608
0.393787
0.39298
0.392186
0.391406
0.39064
0.389889
0.389152
0.388431
0.387723
0.387031
0.386353
0.385691
0.385043
0.38441
0.383791
0.383187
0.382597
0.382022
0.38146
0.380912
0.380378
0.379856
0.379348
0.378851
0.378367
0.377895
0.377434
0.376984
0.376545
0.376115
0.375695
0.375284
0.374882
0.374487
0.3741
0.37372
0.373346
0.372978
0.372616
0.372257
0.371903
0.371553
0.371204
0.370859
0.370514
0.370171
0.444465
0.423347
0.41504
0.413462
0.412423
0.411348
0.410294
0.409271
0.408272
0.407292
0.406324
0.405365
0.404415
0.403474
0.402541
0.401617
0.400702
0.399798
0.398903
0.39802
0.397149
0.396289
0.395442
0.394608
0.393787
0.392979
0.392186
0.391406
0.39064
0.389889
0.389152
0.38843
0.387723
0.387031
0.386353
0.385691
0.385043
0.38441
0.383791
0.383187
0.382597
0.382022
0.38146
0.380912
0.380377
0.379856
0.379347
0.378851
0.378367
0.377895
0.377434
0.376984
0.376545
0.376115
0.375695
0.375284
0.374882
0.374487
0.3741
0.37372
0.373346
0.372978
0.372616
0.372257
0.371903
0.371553
0.371204
0.370859
0.370514
0.370171
0.444465
0.423347
0.41504
0.413462
0.412423
0.411348
0.410294
0.409271
0.408272
0.407292
0.406323
0.405365
0.404415
0.403474
0.402541
0.401617
0.400702
0.399797
0.398903
0.39802
0.397149
0.396289
0.395442
0.394608
0.393787
0.392979
0.392185
0.391406
0.39064
0.389889
0.389152
0.38843
0.387723
0.387031
0.386353
0.385691
0.385043
0.38441
0.383791
0.383187
0.382597
0.382022
0.38146
0.380912
0.380377
0.379856
0.379347
0.378851
0.378367
0.377895
0.377434
0.376984
0.376545
0.376115
0.375695
0.375284
0.374882
0.374487
0.3741
0.37372
0.373346
0.372978
0.372616
0.372257
0.371903
0.371553
0.371204
0.370859
0.370514
0.370171
0.444465
0.423347
0.41504
0.413462
0.412423
0.411347
0.410294
0.409271
0.408272
0.407291
0.406323
0.405365
0.404415
0.403474
0.402541
0.401617
0.400702
0.399797
0.398903
0.39802
0.397149
0.396289
0.395442
0.394608
0.393787
0.392979
0.392185
0.391406
0.39064
0.389889
0.389152
0.38843
0.387723
0.387031
0.386353
0.385691
0.385043
0.38441
0.383791
0.383187
0.382597
0.382022
0.38146
0.380912
0.380377
0.379856
0.379347
0.378851
0.378367
0.377895
0.377434
0.376984
0.376545
0.376115
0.375695
0.375284
0.374882
0.374487
0.3741
0.37372
0.373346
0.372978
0.372616
0.372257
0.371903
0.371553
0.371204
0.370859
0.370514
0.370171
0.444465
0.423347
0.41504
0.413462
0.412423
0.411347
0.410294
0.409271
0.408272
0.407291
0.406323
0.405365
0.404415
0.403474
0.402541
0.401617
0.400702
0.399797
0.398903
0.39802
0.397149
0.396289
0.395442
0.394608
0.393787
0.392979
0.392185
0.391406
0.39064
0.389889
0.389152
0.38843
0.387723
0.387031
0.386353
0.385691
0.385043
0.38441
0.383791
0.383187
0.382597
0.382022
0.38146
0.380912
0.380377
0.379856
0.379347
0.378851
0.378367
0.377895
0.377434
0.376984
0.376545
0.376115
0.375695
0.375284
0.374882
0.374487
0.3741
0.37372
0.373346
0.372978
0.372616
0.372257
0.371903
0.371553
0.371204
0.370859
0.370514
0.370171
0.444465
0.423347
0.41504
0.413462
0.412423
0.411347
0.410294
0.409271
0.408272
0.407291
0.406323
0.405365
0.404415
0.403474
0.402541
0.401617
0.400702
0.399797
0.398903
0.39802
0.397149
0.396289
0.395442
0.394608
0.393787
0.392979
0.392185
0.391406
0.39064
0.389889
0.389152
0.38843
0.387723
0.387031
0.386353
0.385691
0.385043
0.38441
0.383791
0.383187
0.382597
0.382022
0.38146
0.380912
0.380377
0.379856
0.379347
0.378851
0.378367
0.377895
0.377434
0.376984
0.376545
0.376115
0.375695
0.375284
0.374882
0.374487
0.3741
0.37372
0.373346
0.372978
0.372616
0.372257
0.371903
0.371553
0.371204
0.370859
0.370514
0.370171
0.444465
0.423347
0.41504
0.413462
0.412423
0.411347
0.410294
0.409271
0.408272
0.407291
0.406323
0.405365
0.404415
0.403474
0.402541
0.401617
0.400702
0.399797
0.398903
0.39802
0.397149
0.396289
0.395442
0.394608
0.393787
0.392979
0.392185
0.391406
0.39064
0.389889
0.389152
0.38843
0.387723
0.387031
0.386353
0.385691
0.385043
0.38441
0.383791
0.383187
0.382597
0.382022
0.38146
0.380912
0.380377
0.379856
0.379347
0.378851
0.378367
0.377895
0.377434
0.376984
0.376545
0.376115
0.375695
0.375284
0.374882
0.374487
0.3741
0.37372
0.373346
0.372978
0.372616
0.372257
0.371903
0.371553
0.371204
0.370859
0.370514
0.370171
0.444465
0.423347
0.41504
0.413462
0.412423
0.411347
0.410294
0.409271
0.408272
0.407291
0.406323
0.405365
0.404415
0.403474
0.402541
0.401617
0.400702
0.399797
0.398903
0.39802
0.397149
0.396289
0.395442
0.394608
0.393787
0.392979
0.392185
0.391406
0.39064
0.389889
0.389152
0.38843
0.387723
0.387031
0.386353
0.385691
0.385043
0.38441
0.383791
0.383187
0.382597
0.382022
0.38146
0.380912
0.380377
0.379856
0.379347
0.378851
0.378367
0.377895
0.377434
0.376984
0.376545
0.376115
0.375695
0.375284
0.374882
0.374487
0.3741
0.37372
0.373346
0.372978
0.372616
0.372257
0.371903
0.371553
0.371204
0.370859
0.370514
0.370171
0.444465
0.423347
0.41504
0.413462
0.412423
0.411347
0.410294
0.409271
0.408272
0.407291
0.406323
0.405365
0.404415
0.403474
0.402541
0.401617
0.400702
0.399797
0.398903
0.39802
0.397149
0.396289
0.395442
0.394608
0.393787
0.392979
0.392185
0.391406
0.39064
0.389889
0.389152
0.38843
0.387723
0.387031
0.386353
0.385691
0.385043
0.38441
0.383791
0.383187
0.382597
0.382022
0.38146
0.380912
0.380377
0.379856
0.379347
0.378851
0.378367
0.377895
0.377434
0.376984
0.376545
0.376115
0.375695
0.375284
0.374882
0.374487
0.3741
0.37372
0.373346
0.372978
0.372616
0.372257
0.371903
0.371553
0.371204
0.370859
0.370514
0.370171
0.444465
0.423347
0.41504
0.413462
0.412423
0.411347
0.410294
0.409271
0.408272
0.407291
0.406323
0.405365
0.404415
0.403474
0.402541
0.401617
0.400702
0.399797
0.398903
0.39802
0.397149
0.396289
0.395442
0.394608
0.393787
0.392979
0.392185
0.391406
0.39064
0.389889
0.389152
0.38843
0.387723
0.387031
0.386353
0.385691
0.385043
0.38441
0.383791
0.383187
0.382597
0.382022
0.38146
0.380912
0.380377
0.379856
0.379347
0.378851
0.378367
0.377895
0.377434
0.376984
0.376545
0.376115
0.375695
0.375284
0.374882
0.374487
0.3741
0.37372
0.373346
0.372978
0.372616
0.372257
0.371903
0.371553
0.371204
0.370859
0.370514
0.370171
0.444465
0.423347
0.41504
0.413462
0.412423
0.411347
0.410294
0.409271
0.408272
0.407291
0.406323
0.405365
0.404415
0.403474
0.402541
0.401617
0.400702
0.399797
0.398903
0.39802
0.397149
0.396289
0.395442
0.394608
0.393787
0.392979
0.392185
0.391406
0.39064
0.389889
0.389152
0.38843
0.387723
0.387031
0.386353
0.385691
0.385043
0.38441
0.383791
0.383187
0.382597
0.382022
0.38146
0.380912
0.380377
0.379856
0.379347
0.378851
0.378367
0.377895
0.377434
0.376984
0.376545
0.376115
0.375695
0.375284
0.374882
0.374487
0.3741
0.37372
0.373346
0.372978
0.372616
0.372257
0.371903
0.371553
0.371204
0.370859
0.370514
0.370171
0.444465
0.423347
0.41504
0.413462
0.412423
0.411347
0.410294
0.409271
0.408272
0.407291
0.406323
0.405365
0.404415
0.403474
0.402541
0.401617
0.400702
0.399797
0.398903
0.39802
0.397149
0.396289
0.395442
0.394608
0.393787
0.392979
0.392185
0.391406
0.39064
0.389889
0.389152
0.38843
0.387723
0.387031
0.386353
0.385691
0.385043
0.38441
0.383791
0.383187
0.382597
0.382022
0.38146
0.380912
0.380377
0.379856
0.379347
0.378851
0.378367
0.377895
0.377434
0.376984
0.376545
0.376115
0.375695
0.375284
0.374882
0.374487
0.3741
0.37372
0.373346
0.372978
0.372616
0.372257
0.371903
0.371553
0.371204
0.370859
0.370514
0.370171
0.444465
0.423347
0.41504
0.413462
0.412423
0.411347
0.410294
0.409271
0.408272
0.407291
0.406323
0.405365
0.404415
0.403474
0.402541
0.401617
0.400702
0.399797
0.398903
0.39802
0.397149
0.396289
0.395442
0.394608
0.393787
0.392979
0.392185
0.391406
0.39064
0.389889
0.389152
0.38843
0.387723
0.387031
0.386353
0.385691
0.385043
0.38441
0.383791
0.383187
0.382597
0.382022
0.38146
0.380912
0.380377
0.379856
0.379347
0.378851
0.378367
0.377895
0.377434
0.376984
0.376545
0.376115
0.375695
0.375284
0.374882
0.374487
0.3741
0.37372
0.373346
0.372978
0.372616
0.372257
0.371903
0.371553
0.371204
0.370859
0.370514
0.370171
0.444465
0.423347
0.41504
0.413462
0.412423
0.411347
0.410294
0.409271
0.408272
0.407291
0.406323
0.405365
0.404415
0.403474
0.402541
0.401617
0.400702
0.399797
0.398903
0.39802
0.397149
0.396289
0.395442
0.394608
0.393787
0.392979
0.392185
0.391406
0.39064
0.389889
0.389152
0.38843
0.387723
0.387031
0.386353
0.385691
0.385043
0.38441
0.383791
0.383187
0.382597
0.382022
0.38146
0.380912
0.380377
0.379856
0.379347
0.378851
0.378367
0.377895
0.377434
0.376984
0.376545
0.376115
0.375695
0.375284
0.374882
0.374487
0.3741
0.37372
0.373346
0.372978
0.372616
0.372257
0.371903
0.371553
0.371204
0.370859
0.370514
0.370171
0.444465
0.423347
0.41504
0.413462
0.412423
0.411347
0.410294
0.409271
0.408272
0.407291
0.406323
0.405365
0.404415
0.403474
0.402541
0.401617
0.400702
0.399797
0.398903
0.39802
0.397149
0.396289
0.395442
0.394608
0.393787
0.392979
0.392185
0.391406
0.39064
0.389889
0.389152
0.38843
0.387723
0.387031
0.386353
0.385691
0.385043
0.38441
0.383791
0.383187
0.382597
0.382022
0.38146
0.380912
0.380377
0.379856
0.379347
0.378851
0.378367
0.377895
0.377434
0.376984
0.376545
0.376115
0.375695
0.375284
0.374882
0.374487
0.3741
0.37372
0.373346
0.372978
0.372616
0.372257
0.371903
0.371553
0.371204
0.370859
0.370514
0.370171
0.444465
0.423347
0.41504
0.413462
0.412423
0.411347
0.410294
0.409271
0.408272
0.407291
0.406323
0.405365
0.404415
0.403474
0.402541
0.401617
0.400702
0.399797
0.398903
0.39802
0.397149
0.396289
0.395442
0.394608
0.393787
0.392979
0.392185
0.391406
0.39064
0.389889
0.389152
0.38843
0.387723
0.387031
0.386353
0.385691
0.385043
0.38441
0.383791
0.383187
0.382597
0.382022
0.38146
0.380912
0.380377
0.379856
0.379347
0.378851
0.378367
0.377895
0.377434
0.376984
0.376545
0.376115
0.375695
0.375284
0.374882
0.374487
0.3741
0.37372
0.373346
0.372978
0.372616
0.372257
0.371903
0.371553
0.371204
0.370859
0.370514
0.370171
0.444465
0.423347
0.41504
0.413462
0.412423
0.411347
0.410294
0.409271
0.408272
0.407291
0.406323
0.405365
0.404415
0.403474
0.402541
0.401617
0.400702
0.399797
0.398903
0.39802
0.397149
0.396289
0.395442
0.394608
0.393787
0.392979
0.392185
0.391406
0.39064
0.389889
0.389152
0.38843
0.387723
0.387031
0.386353
0.385691
0.385043
0.38441
0.383791
0.383187
0.382597
0.382022
0.38146
0.380912
0.380377
0.379856
0.379347
0.378851
0.378367
0.377895
0.377434
0.376984
0.376545
0.376115
0.375695
0.375284
0.374882
0.374487
0.3741
0.37372
0.373346
0.372978
0.372616
0.372257
0.371903
0.371553
0.371204
0.370859
0.370514
0.370171
0.444465
0.423347
0.41504
0.413462
0.412423
0.411347
0.410294
0.409271
0.408272
0.407291
0.406323
0.405365
0.404415
0.403474
0.402541
0.401617
0.400702
0.399797
0.398903
0.39802
0.397149
0.396289
0.395442
0.394608
0.393787
0.392979
0.392185
0.391406
0.39064
0.389889
0.389152
0.38843
0.387723
0.387031
0.386353
0.385691
0.385043
0.38441
0.383791
0.383187
0.382597
0.382022
0.38146
0.380912
0.380377
0.379856
0.379347
0.378851
0.378367
0.377895
0.377434
0.376984
0.376545
0.376115
0.375695
0.375284
0.374882
0.374487
0.3741
0.37372
0.373346
0.372978
0.372616
0.372257
0.371903
0.371553
0.371204
0.370859
0.370514
0.370171
0.444465
0.423347
0.41504
0.413462
0.412423
0.411347
0.410294
0.409271
0.408272
0.407291
0.406323
0.405365
0.404415
0.403474
0.402541
0.401617
0.400702
0.399797
0.398903
0.39802
0.397149
0.396289
0.395442
0.394608
0.393787
0.392979
0.392185
0.391406
0.39064
0.389889
0.389152
0.38843
0.387723
0.387031
0.386353
0.385691
0.385043
0.38441
0.383791
0.383187
0.382597
0.382022
0.38146
0.380912
0.380377
0.379856
0.379347
0.378851
0.378367
0.377895
0.377434
0.376984
0.376545
0.376115
0.375695
0.375284
0.374882
0.374487
0.3741
0.37372
0.373346
0.372978
0.372616
0.372257
0.371903
0.371553
0.371204
0.370859
0.370514
0.370171
0.444465
0.423347
0.41504
0.413462
0.412423
0.411347
0.410294
0.409271
0.408272
0.407291
0.406323
0.405365
0.404415
0.403474
0.402541
0.401617
0.400702
0.399797
0.398903
0.39802
0.397149
0.396289
0.395442
0.394608
0.393787
0.392979
0.392185
0.391406
0.39064
0.389889
0.389152
0.38843
0.387723
0.387031
0.386353
0.385691
0.385043
0.38441
0.383791
0.383187
0.382597
0.382022
0.38146
0.380912
0.380377
0.379856
0.379347
0.378851
0.378367
0.377895
0.377434
0.376984
0.376545
0.376115
0.375695
0.375284
0.374882
0.374487
0.3741
0.37372
0.373346
0.372978
0.372616
0.372257
0.371903
0.371553
0.371204
0.370859
0.370514
0.370171
0.444465
0.423347
0.41504
0.413462
0.412423
0.411347
0.410294
0.409271
0.408272
0.407291
0.406323
0.405365
0.404415
0.403474
0.402541
0.401617
0.400702
0.399797
0.398903
0.39802
0.397149
0.396289
0.395442
0.394608
0.393787
0.392979
0.392185
0.391406
0.39064
0.389889
0.389152
0.38843
0.387723
0.387031
0.386353
0.385691
0.385043
0.38441
0.383791
0.383187
0.382597
0.382022
0.38146
0.380912
0.380377
0.379856
0.379347
0.378851
0.378367
0.377895
0.377434
0.376984
0.376545
0.376115
0.375695
0.375284
0.374882
0.374487
0.3741
0.37372
0.373346
0.372978
0.372616
0.372257
0.371903
0.371553
0.371204
0.370859
0.370514
0.370171
0.444465
0.423347
0.41504
0.413462
0.412423
0.411347
0.410294
0.409271
0.408272
0.407291
0.406323
0.405365
0.404415
0.403474
0.402541
0.401617
0.400702
0.399797
0.398903
0.39802
0.397149
0.396289
0.395442
0.394608
0.393787
0.392979
0.392185
0.391406
0.39064
0.389889
0.389152
0.38843
0.387723
0.387031
0.386353
0.385691
0.385043
0.38441
0.383791
0.383187
0.382597
0.382022
0.38146
0.380912
0.380377
0.379856
0.379347
0.378851
0.378367
0.377895
0.377434
0.376984
0.376545
0.376115
0.375695
0.375284
0.374882
0.374487
0.3741
0.37372
0.373346
0.372978
0.372616
0.372257
0.371903
0.371553
0.371204
0.370859
0.370514
0.370171
0.444465
0.423347
0.41504
0.413462
0.412423
0.411347
0.410294
0.409271
0.408272
0.407291
0.406323
0.405365
0.404415
0.403474
0.402541
0.401617
0.400702
0.399797
0.398903
0.39802
0.397149
0.396289
0.395442
0.394608
0.393787
0.392979
0.392185
0.391406
0.39064
0.389889
0.389152
0.38843
0.387723
0.387031
0.386353
0.385691
0.385043
0.38441
0.383791
0.383187
0.382597
0.382022
0.38146
0.380912
0.380377
0.379856
0.379347
0.378851
0.378367
0.377895
0.377434
0.376984
0.376545
0.376115
0.375695
0.375284
0.374882
0.374487
0.3741
0.37372
0.373346
0.372978
0.372616
0.372257
0.371903
0.371553
0.371204
0.370859
0.370514
0.370171
0.444465
0.423347
0.41504
0.413462
0.412423
0.411347
0.410294
0.409271
0.408272
0.407291
0.406323
0.405365
0.404415
0.403474
0.402541
0.401617
0.400702
0.399797
0.398903
0.39802
0.397149
0.396289
0.395442
0.394608
0.393787
0.392979
0.392185
0.391406
0.39064
0.389889
0.389152
0.38843
0.387723
0.387031
0.386353
0.385691
0.385043
0.38441
0.383791
0.383187
0.382597
0.382022
0.38146
0.380912
0.380377
0.379856
0.379347
0.378851
0.378367
0.377895
0.377434
0.376984
0.376545
0.376115
0.375695
0.375284
0.374882
0.374487
0.3741
0.37372
0.373346
0.372978
0.372616
0.372257
0.371903
0.371553
0.371204
0.370859
0.370514
0.370171
0.444465
0.423347
0.41504
0.413462
0.412423
0.411347
0.410294
0.409271
0.408272
0.407291
0.406323
0.405365
0.404415
0.403474
0.402541
0.401617
0.400702
0.399797
0.398903
0.39802
0.397149
0.396289
0.395442
0.394608
0.393787
0.392979
0.392185
0.391406
0.39064
0.389889
0.389152
0.38843
0.387723
0.387031
0.386353
0.385691
0.385043
0.38441
0.383791
0.383187
0.382597
0.382022
0.38146
0.380912
0.380377
0.379856
0.379347
0.378851
0.378367
0.377895
0.377434
0.376984
0.376545
0.376115
0.375695
0.375284
0.374882
0.374487
0.3741
0.37372
0.373346
0.372978
0.372616
0.372257
0.371903
0.371553
0.371204
0.370859
0.370514
0.370171
0.444465
0.423347
0.41504
0.413462
0.412423
0.411347
0.410294
0.409271
0.408272
0.407291
0.406323
0.405365
0.404415
0.403474
0.402541
0.401617
0.400702
0.399797
0.398903
0.39802
0.397149
0.396289
0.395442
0.394608
0.393787
0.392979
0.392185
0.391406
0.39064
0.389889
0.389152
0.38843
0.387723
0.387031
0.386353
0.385691
0.385043
0.38441
0.383791
0.383187
0.382597
0.382022
0.38146
0.380912
0.380377
0.379856
0.379347
0.378851
0.378367
0.377895
0.377434
0.376984
0.376545
0.376115
0.375695
0.375284
0.374882
0.374487
0.3741
0.37372
0.373346
0.372978
0.372616
0.372257
0.371903
0.371553
0.371204
0.370859
0.370514
0.370171
0.444465
0.423347
0.41504
0.413462
0.412423
0.411347
0.410294
0.409271
0.408272
0.407291
0.406323
0.405365
0.404415
0.403474
0.402541
0.401617
0.400702
0.399797
0.398903
0.39802
0.397149
0.396289
0.395442
0.394608
0.393787
0.392979
0.392185
0.391406
0.39064
0.389889
0.389152
0.38843
0.387723
0.387031
0.386353
0.385691
0.385043
0.38441
0.383791
0.383187
0.382597
0.382022
0.38146
0.380912
0.380377
0.379856
0.379347
0.378851
0.378367
0.377895
0.377434
0.376984
0.376545
0.376115
0.375695
0.375284
0.374882
0.374487
0.3741
0.37372
0.373346
0.372978
0.372616
0.372257
0.371903
0.371553
0.371204
0.370859
0.370514
0.370171
0.444465
0.423347
0.41504
0.413462
0.412423
0.411347
0.410294
0.409271
0.408272
0.407291
0.406323
0.405365
0.404415
0.403474
0.402541
0.401617
0.400702
0.399797
0.398903
0.39802
0.397149
0.396289
0.395442
0.394608
0.393787
0.392979
0.392185
0.391406
0.39064
0.389889
0.389152
0.38843
0.387723
0.387031
0.386353
0.385691
0.385043
0.38441
0.383791
0.383187
0.382597
0.382022
0.38146
0.380912
0.380377
0.379856
0.379347
0.378851
0.378367
0.377895
0.377434
0.376984
0.376545
0.376115
0.375695
0.375284
0.374882
0.374487
0.3741
0.37372
0.373346
0.372978
0.372616
0.372257
0.371903
0.371553
0.371204
0.370859
0.370514
0.370171
0.444465
0.423347
0.41504
0.413462
0.412423
0.411347
0.410294
0.409271
0.408272
0.407291
0.406323
0.405365
0.404415