/*--------------------------------*- C++ -*----------------------------------*\
  =========                 |
  \\      /  F ield         | OpenFOAM: The Open Source CFD Toolbox
   \\    /   O peration     | Website:  https://openfoam.org
    \\  /    A nd           | Version:  13
     \\/     M anipulation  |
\*---------------------------------------------------------------------------*/
FoamFile
{
    format      ascii;
    class       volScalarField;
    location    "220";
    object      k;
}
// * * * * * * * * * * * * * * * * * * * * * * * * * * * * * * * * * * * * * //

dimensions      [0 2 -2 0 0 0 0];

internalField   nonuniform List<scalar> 
78750
(
6.77575e-14
1.92801e-12
8.74271e-12
1.5875e-11
2.34177e-11
3.14344e-11
3.99349e-11
4.88611e-11
5.80863e-11
6.74223e-11
7.66308e-11
8.54398e-11
9.35612e-11
1.00709e-10
1.0662e-10
1.11065e-10
1.13869e-10
1.14919e-10
1.14172e-10
1.11657e-10
1.07473e-10
1.01786e-10
9.48142e-11
8.68155e-11
7.80733e-11
6.88762e-11
5.94998e-11
5.01884e-11
4.11376e-11
3.24815e-11
2.42836e-11
1.6535e-11
9.16072e-12
2.03637e-12
7.18656e-14
1.4779e-12
4.27142e-11
2.13225e-10
3.9003e-10
5.76859e-10
7.75985e-10
9.87931e-10
1.21133e-09
1.44298e-09
1.67803e-09
1.91036e-09
2.13295e-09
2.33838e-09
2.51927e-09
2.6688e-09
2.7811e-09
2.85167e-09
2.87759e-09
2.85778e-09
2.79305e-09
2.68599e-09
2.5409e-09
2.36345e-09
2.16035e-09
1.93891e-09
1.70658e-09
1.47044e-09
1.23677e-09
1.01055e-09
7.95163e-10
5.9213e-10
4.01031e-10
2.19607e-10
4.40634e-11
1.5255e-12
4.22181e-12
1.22028e-10
6.10376e-10
1.12325e-09
1.67616e-09
2.27955e-09
2.93762e-09
3.64753e-09
4.39943e-09
5.17687e-09
5.95796e-09
6.71677e-09
7.42515e-09
8.05464e-09
8.57848e-09
8.97345e-09
9.22156e-09
9.31127e-09
9.23837e-09
9.00619e-09
8.62544e-09
8.11343e-09
7.49284e-09
6.79014e-09
6.03369e-09
5.25176e-09
4.47059e-09
3.71253e-09
2.99454e-09
2.32705e-09
1.71334e-09
1.14958e-09
6.25412e-10
1.25175e-10
4.3325e-12
8.30392e-12
2.40003e-10
1.20134e-09
2.21606e-09
3.31865e-09
4.53306e-09
5.87012e-09
7.32582e-09
8.88085e-09
1.05015e-08
1.21414e-08
1.37449e-08
1.52503e-08
1.65943e-08
1.77167e-08
1.85648e-08
1.90974e-08
1.92881e-08
1.91274e-08
1.86231e-08
1.78002e-08
1.66986e-08
1.53701e-08
1.38743e-08
1.22745e-08
1.06325e-08
9.00477e-09
7.43839e-09
5.96812e-09
4.61429e-09
3.38179e-09
2.26043e-09
1.22649e-09
2.45245e-10
8.48813e-12
1.30023e-11
3.75802e-10
1.88162e-09
3.47398e-09
5.20924e-09
7.12696e-09
9.24561e-09
1.15598e-08
1.40395e-08
1.66312e-08
1.92605e-08
2.18376e-08
2.42621e-08
2.64307e-08
2.8244e-08
2.96151e-08
3.04756e-08
3.07817e-08
3.05175e-08
2.96966e-08
2.83608e-08
2.65764e-08
2.44294e-08
2.20182e-08
1.94461e-08
1.68136e-08
1.42118e-08
1.1716e-08
9.38119e-09
7.23897e-09
5.29597e-09
3.53465e-09
1.91585e-09
3.82922e-10
1.32524e-11
1.75059e-11
5.06038e-10
2.53423e-09
4.68073e-09
7.02293e-09
9.61534e-09
1.24838e-08
1.56216e-08
1.89883e-08
2.25113e-08
2.60897e-08
2.96007e-08
3.29071e-08
3.58666e-08
3.83429e-08
4.02154e-08
4.139e-08
4.18057e-08
4.1441e-08
4.03147e-08
3.84849e-08
3.6044e-08
3.31106e-08
2.98204e-08
2.63154e-08
2.27331e-08
1.91976e-08
1.58111e-08
1.26481e-08
9.75081e-09
7.12752e-09
4.75365e-09
2.57521e-09
5.14554e-10
1.78049e-11
2.12372e-11
6.14031e-10
3.07568e-09
5.68212e-09
8.52831e-09
1.16813e-08
1.5173e-08
1.89958e-08
2.31006e-08
2.73989e-08
3.17677e-08
3.60568e-08
4.00982e-08
4.37173e-08
4.67463e-08
4.9037e-08
5.0473e-08
5.09796e-08
5.05299e-08
4.91478e-08
4.69049e-08
4.39154e-08
4.03256e-08
3.63023e-08
3.20199e-08
2.76468e-08
2.33343e-08
1.92073e-08
1.53562e-08
1.1832e-08
8.64443e-09
5.76286e-09
3.12093e-09
6.23424e-10
2.15669e-11
2.3959e-11
6.92891e-10
3.47137e-09
6.4141e-09
9.62902e-09
1.31924e-08
1.71408e-08
2.14658e-08
2.61122e-08
3.09797e-08
3.5929e-08
4.07899e-08
4.53717e-08
4.94759e-08
5.29116e-08
5.55098e-08
5.7138e-08
5.77109e-08
5.71983e-08
5.56271e-08
5.30796e-08
4.96858e-08
4.56126e-08
4.105e-08
3.61961e-08
3.12422e-08
2.63597e-08
2.16897e-08
1.73346e-08
1.33516e-08
9.75148e-09
6.49906e-09
3.51887e-09
7.02748e-10
2.43049e-11
2.57284e-11
7.4422e-10
3.72913e-09
6.89105e-09
1.03464e-08
1.41777e-08
1.84243e-08
2.30775e-08
2.80779e-08
3.33178e-08
3.86471e-08
4.38825e-08
4.88183e-08
5.32404e-08
5.69425e-08
5.97422e-08
6.14963e-08
6.21125e-08
6.15582e-08
5.98627e-08
5.7115e-08
5.34559e-08
4.90657e-08
4.41496e-08
3.89215e-08
3.35875e-08
2.83321e-08
2.33074e-08
1.86231e-08
1.43409e-08
1.04718e-08
6.97792e-09
3.77762e-09
7.54279e-10
2.60814e-11
2.6764e-11
7.74302e-10
3.88033e-09
7.17089e-09
1.07675e-08
1.47561e-08
1.9178e-08
2.40242e-08
2.9233e-08
3.4692e-08
4.02451e-08
4.5701e-08
5.08454e-08
5.54549e-08
5.9314e-08
6.22325e-08
6.40607e-08
6.47023e-08
6.41232e-08
6.23542e-08
5.94884e-08
5.56727e-08
5.10955e-08
4.5971e-08
4.05224e-08
3.49646e-08
2.94899e-08
2.42565e-08
1.93788e-08
1.49209e-08
1.0894e-08
7.25844e-09
3.92915e-09
7.84428e-10
2.71194e-11
2.73148e-11
7.90322e-10
3.96092e-09
7.32009e-09
1.0992e-08
1.50646e-08
1.95801e-08
2.45294e-08
2.98495e-08
3.54257e-08
4.10984e-08
4.66723e-08
5.19283e-08
5.6638e-08
6.05812e-08
6.35632e-08
6.54309e-08
6.60861e-08
6.54937e-08
6.36853e-08
6.07561e-08
5.68565e-08
5.21792e-08
4.69433e-08
4.13767e-08
3.56992e-08
3.01073e-08
2.47625e-08
1.97816e-08
1.52298e-08
1.11188e-08
7.40779e-09
4.00981e-09
8.0046e-10
2.76706e-11
2.75832e-11
7.98139e-10
4.00029e-09
7.39297e-09
1.11017e-08
1.52153e-08
1.97767e-08
2.47764e-08
3.01509e-08
3.57845e-08
4.15158e-08
4.71474e-08
5.24581e-08
5.72169e-08
6.12012e-08
6.42143e-08
6.61015e-08
6.67632e-08
6.61643e-08
6.43365e-08
6.13762e-08
5.74355e-08
5.27092e-08
4.74186e-08
4.17943e-08
3.60582e-08
3.04089e-08
2.50096e-08
1.99782e-08
1.53806e-08
1.12285e-08
7.48066e-09
4.04915e-09
8.08272e-10
2.79388e-11
2.77038e-11
8.01658e-10
4.01803e-09
7.42582e-09
1.11511e-08
1.52833e-08
1.98653e-08
2.48878e-08
3.02869e-08
3.59464e-08
4.17041e-08
4.73619e-08
5.26972e-08
5.74782e-08
6.14811e-08
6.45083e-08
6.64042e-08
6.70689e-08
6.6467e-08
6.46305e-08
6.16561e-08
5.76968e-08
5.29483e-08
4.7633e-08
4.19826e-08
3.62201e-08
3.05449e-08
2.5121e-08
2.00668e-08
1.54486e-08
1.12779e-08
7.51348e-09
4.06686e-09
8.11786e-10
2.80593e-11
2.77542e-11
8.0313e-10
4.02545e-09
7.43957e-09
1.11718e-08
1.53117e-08
1.99024e-08
2.49345e-08
3.03439e-08
3.60142e-08
4.1783e-08
4.74518e-08
5.27974e-08
5.75877e-08
6.15984e-08
6.46315e-08
6.65311e-08
6.7197e-08
6.65938e-08
6.47537e-08
6.17734e-08
5.78063e-08
5.30485e-08
4.77229e-08
4.20615e-08
3.62879e-08
3.06019e-08
2.51676e-08
2.01039e-08
1.5477e-08
1.12986e-08
7.5272e-09
4.07427e-09
8.13254e-10
2.81095e-11
2.77738e-11
8.03704e-10
4.02835e-09
7.44495e-09
1.11799e-08
1.53229e-08
1.99169e-08
2.49527e-08
3.03662e-08
3.60408e-08
4.18139e-08
4.74869e-08
5.28366e-08
5.76305e-08
6.16443e-08
6.46797e-08
6.65807e-08
6.72472e-08
6.66435e-08
6.48019e-08
6.18193e-08
5.78492e-08
5.30877e-08
4.7758e-08
4.20924e-08
3.63144e-08
3.06241e-08
2.51859e-08
2.01184e-08
1.54881e-08
1.13067e-08
7.53256e-09
4.07716e-09
8.13826e-10
2.81291e-11
2.7781e-11
8.03914e-10
4.02941e-09
7.44691e-09
1.11829e-08
1.53269e-08
1.99222e-08
2.49594e-08
3.03743e-08
3.60505e-08
4.18252e-08
4.74998e-08
5.2851e-08
5.76463e-08
6.16612e-08
6.46974e-08
6.65989e-08
6.72656e-08
6.66617e-08
6.48196e-08
6.18362e-08
5.78649e-08
5.31021e-08
4.77709e-08
4.21037e-08
3.63241e-08
3.06323e-08
2.51925e-08
2.01237e-08
1.54922e-08
1.13096e-08
7.53453e-09
4.07822e-09
8.14036e-10
2.81362e-11
2.77835e-11
8.03987e-10
4.02978e-09
7.44759e-09
1.11839e-08
1.53284e-08
1.99241e-08
2.49617e-08
3.03772e-08
3.60539e-08
4.18291e-08
4.75043e-08
5.2856e-08
5.76517e-08
6.1667e-08
6.47035e-08
6.66052e-08
6.72719e-08
6.6668e-08
6.48257e-08
6.1842e-08
5.78703e-08
5.3107e-08
4.77753e-08
4.21076e-08
3.63275e-08
3.06351e-08
2.51948e-08
2.01255e-08
1.54936e-08
1.13106e-08
7.5352e-09
4.07858e-09
8.14108e-10
2.81387e-11
2.77843e-11
8.0401e-10
4.0299e-09
7.44781e-09
1.11843e-08
1.53288e-08
1.99247e-08
2.49625e-08
3.03781e-08
3.60549e-08
4.18304e-08
4.75057e-08
5.28576e-08
5.76535e-08
6.16689e-08
6.47055e-08
6.66073e-08
6.7274e-08
6.66701e-08
6.48277e-08
6.18439e-08
5.78721e-08
5.31086e-08
4.77768e-08
4.21088e-08
3.63286e-08
3.0636e-08
2.51956e-08
2.01261e-08
1.5494e-08
1.1311e-08
7.53542e-09
4.0787e-09
8.14131e-10
2.81395e-11
2.77845e-11
8.04018e-10
4.02994e-09
7.44788e-09
1.11844e-08
1.5329e-08
1.99249e-08
2.49627e-08
3.03784e-08
3.60553e-08
4.18308e-08
4.75062e-08
5.28581e-08
5.7654e-08
6.16695e-08
6.47061e-08
6.66079e-08
6.72746e-08
6.66707e-08
6.48283e-08
6.18445e-08
5.78726e-08
5.31091e-08
4.77772e-08
4.21092e-08
3.63289e-08
3.06363e-08
2.51958e-08
2.01263e-08
1.54942e-08
1.13111e-08
7.53549e-09
4.07874e-09
8.14139e-10
2.81398e-11
2.77846e-11
8.0402e-10
4.02995e-09
7.4479e-09
1.11844e-08
1.5329e-08
1.99249e-08
2.49628e-08
3.03785e-08
3.60554e-08
4.18309e-08
4.75063e-08
5.28583e-08
5.76542e-08
6.16697e-08
6.47063e-08
6.66081e-08
6.72748e-08
6.66709e-08
6.48285e-08
6.18446e-08
5.78728e-08
5.31093e-08
4.77774e-08
4.21094e-08
3.6329e-08
3.06364e-08
2.51959e-08
2.01264e-08
1.54942e-08
1.13111e-08
7.53551e-09
4.07875e-09
8.14141e-10
2.81398e-11
2.77846e-11
8.0402e-10
4.02995e-09
7.44791e-09
1.11844e-08
1.5329e-08
1.99249e-08
2.49628e-08
3.03785e-08
3.60554e-08
4.1831e-08
4.75063e-08
5.28583e-08
5.76542e-08
6.16697e-08
6.47064e-08
6.66082e-08
6.72749e-08
6.66709e-08
6.48285e-08
6.18447e-08
5.78728e-08
5.31093e-08
4.77774e-08
4.21094e-08
3.6329e-08
3.06364e-08
2.51959e-08
2.01264e-08
1.54942e-08
1.13111e-08
7.53552e-09
4.07875e-09
8.14141e-10
2.81398e-11
2.77846e-11
8.04021e-10
4.02995e-09
7.44791e-09
1.11844e-08
1.5329e-08
1.99249e-08
2.49628e-08
3.03785e-08
3.60554e-08
4.1831e-08
4.75063e-08
5.28583e-08
5.76542e-08
6.16697e-08
6.47064e-08
6.66082e-08
6.72749e-08
6.66709e-08
6.48285e-08
6.18447e-08
5.78728e-08
5.31093e-08
4.77774e-08
4.21094e-08
3.6329e-08
3.06364e-08
2.51959e-08
2.01264e-08
1.54942e-08
1.13111e-08
7.53552e-09
4.07875e-09
8.14141e-10
2.81398e-11
2.77846e-11
8.04021e-10
4.02995e-09
7.44791e-09
1.11844e-08
1.5329e-08
1.99249e-08
2.49628e-08
3.03785e-08
3.60554e-08
4.1831e-08
4.75063e-08
5.28583e-08
5.76542e-08
6.16697e-08
6.47064e-08
6.66082e-08
6.72749e-08
6.66709e-08
6.48285e-08
6.18447e-08
5.78728e-08
5.31093e-08
4.77774e-08
4.21094e-08
3.6329e-08
3.06364e-08
2.51959e-08
2.01264e-08
1.54942e-08
1.13111e-08
7.53552e-09
4.07875e-09
8.14142e-10
2.81399e-11
2.77846e-11
8.04021e-10
4.02995e-09
7.44791e-09
1.11844e-08
1.5329e-08
1.99249e-08
2.49628e-08
3.03785e-08
3.60554e-08
4.1831e-08
4.75063e-08
5.28583e-08
5.76542e-08
6.16697e-08
6.47064e-08
6.66082e-08
6.72749e-08
6.66709e-08
6.48285e-08
6.18447e-08
5.78728e-08
5.31093e-08
4.77774e-08
4.21094e-08
3.6329e-08
3.06364e-08
2.51959e-08
2.01264e-08
1.54942e-08
1.13111e-08
7.53552e-09
4.07875e-09
8.14142e-10
2.81399e-11
2.77846e-11
8.04021e-10
4.02995e-09
7.44791e-09
1.11844e-08
1.5329e-08
1.99249e-08
2.49628e-08
3.03785e-08
3.60554e-08
4.1831e-08
4.75063e-08
5.28583e-08
5.76542e-08
6.16697e-08
6.47064e-08
6.66082e-08
6.72749e-08
6.66709e-08
6.48285e-08
6.18447e-08
5.78728e-08
5.31093e-08
4.77774e-08
4.21094e-08
3.6329e-08
3.06364e-08
2.51959e-08
2.01264e-08
1.54942e-08
1.13111e-08
7.53552e-09
4.07875e-09
8.14142e-10
2.81399e-11
2.77846e-11
8.04021e-10
4.02995e-09
7.44791e-09
1.11844e-08
1.5329e-08
1.99249e-08
2.49628e-08
3.03785e-08
3.60554e-08
4.1831e-08
4.75063e-08
5.28583e-08
5.76542e-08
6.16697e-08
6.47064e-08
6.66082e-08
6.72749e-08
6.66709e-08
6.48285e-08
6.18447e-08
5.78728e-08
5.31093e-08
4.77774e-08
4.21094e-08
3.6329e-08
3.06364e-08
2.51959e-08
2.01264e-08
1.54942e-08
1.13111e-08
7.53552e-09
4.07875e-09
8.14142e-10
2.81399e-11
2.77846e-11
8.04021e-10
4.02995e-09
7.44791e-09
1.11844e-08
1.5329e-08
1.99249e-08
2.49628e-08
3.03785e-08
3.60554e-08
4.1831e-08
4.75063e-08
5.28583e-08
5.76542e-08
6.16697e-08
6.47064e-08
6.66082e-08
6.72749e-08
6.66709e-08
6.48285e-08
6.18447e-08
5.78728e-08
5.31093e-08
4.77774e-08
4.21094e-08
3.6329e-08
3.06364e-08
2.51959e-08
2.01264e-08
1.54942e-08
1.13111e-08
7.53552e-09
4.07875e-09
8.14142e-10
2.81399e-11
2.77846e-11
8.04021e-10
4.02995e-09
7.44791e-09
1.11844e-08
1.5329e-08
1.99249e-08
2.49628e-08
3.03785e-08
3.60554e-08
4.1831e-08
4.75063e-08
5.28583e-08
5.76542e-08
6.16697e-08
6.47064e-08
6.66082e-08
6.72749e-08
6.66709e-08
6.48285e-08
6.18447e-08
5.78728e-08
5.31093e-08
4.77774e-08
4.21094e-08
3.6329e-08
3.06364e-08
2.51959e-08
2.01264e-08
1.54942e-08
1.13111e-08
7.53552e-09
4.07875e-09
8.14142e-10
2.81399e-11
2.77846e-11
8.04021e-10
4.02995e-09
7.44791e-09
1.11844e-08
1.5329e-08
1.99249e-08
2.49628e-08
3.03785e-08
3.60554e-08
4.1831e-08
4.75063e-08
5.28583e-08
5.76542e-08
6.16697e-08
6.47064e-08
6.66082e-08
6.72749e-08
6.66709e-08
6.48285e-08
6.18447e-08
5.78728e-08
5.31093e-08
4.77774e-08
4.21094e-08
3.6329e-08
3.06364e-08
2.51959e-08
2.01264e-08
1.54942e-08
1.13111e-08
7.53552e-09
4.07875e-09
8.14142e-10
2.81399e-11
2.77846e-11
8.04021e-10
4.02995e-09
7.44791e-09
1.11844e-08
1.5329e-08
1.99249e-08
2.49628e-08
3.03785e-08
3.60554e-08
4.1831e-08
4.75063e-08
5.28583e-08
5.76542e-08
6.16697e-08
6.47064e-08
6.66082e-08
6.72749e-08
6.66709e-08
6.48285e-08
6.18447e-08
5.78728e-08
5.31093e-08
4.77774e-08
4.21094e-08
3.6329e-08
3.06364e-08
2.51959e-08
2.01264e-08
1.54942e-08
1.13111e-08
7.53552e-09
4.07875e-09
8.14142e-10
2.81399e-11
2.77846e-11
8.04021e-10
4.02995e-09
7.44791e-09
1.11844e-08
1.5329e-08
1.99249e-08
2.49628e-08
3.03785e-08
3.60554e-08
4.1831e-08
4.75063e-08
5.28583e-08
5.76542e-08
6.16697e-08
6.47064e-08
6.66082e-08
6.72749e-08
6.66709e-08
6.48285e-08
6.18447e-08
5.78728e-08
5.31093e-08
4.77774e-08
4.21094e-08
3.6329e-08
3.06364e-08
2.51959e-08
2.01264e-08
1.54942e-08
1.13111e-08
7.53552e-09
4.07875e-09
8.14142e-10
2.81399e-11
2.77846e-11
8.04021e-10
4.02995e-09
7.44791e-09
1.11844e-08
1.5329e-08
1.99249e-08
2.49628e-08
3.03785e-08
3.60554e-08
4.1831e-08
4.75063e-08
5.28583e-08
5.76542e-08
6.16697e-08
6.47064e-08
6.66082e-08
6.72749e-08
6.66709e-08
6.48285e-08
6.18447e-08
5.78728e-08
5.31093e-08
4.77774e-08
4.21094e-08
3.6329e-08
3.06364e-08
2.51959e-08
2.01264e-08
1.54942e-08
1.13111e-08
7.53552e-09
4.07875e-09
8.14142e-10
2.81399e-11
2.77846e-11
8.04021e-10
4.02995e-09
7.44791e-09
1.11844e-08
1.5329e-08
1.99249e-08
2.49628e-08
3.03785e-08
3.60554e-08
4.1831e-08
4.75063e-08
5.28583e-08
5.76542e-08
6.16697e-08
6.47064e-08
6.66082e-08
6.72749e-08
6.66709e-08
6.48285e-08
6.18447e-08
5.78728e-08
5.31093e-08
4.77774e-08
4.21094e-08
3.6329e-08
3.06364e-08
2.51959e-08
2.01264e-08
1.54942e-08
1.13111e-08
7.53552e-09
4.07875e-09
8.14142e-10
2.81399e-11
2.77846e-11
8.04021e-10
4.02995e-09
7.44791e-09
1.11844e-08
1.5329e-08
1.99249e-08
2.49628e-08
3.03785e-08
3.60554e-08
4.1831e-08
4.75063e-08
5.28583e-08
5.76542e-08
6.16697e-08
6.47064e-08
6.66082e-08
6.72749e-08
6.66709e-08
6.48285e-08
6.18447e-08
5.78728e-08
5.31093e-08
4.77774e-08
4.21094e-08
3.6329e-08
3.06364e-08
2.51959e-08
2.01264e-08
1.54942e-08
1.13111e-08
7.53552e-09
4.07875e-09
8.14142e-10
2.81399e-11
2.77846e-11
8.04021e-10
4.02995e-09
7.44791e-09
1.11844e-08
1.5329e-08
1.99249e-08
2.49628e-08
3.03785e-08
3.60554e-08
4.1831e-08
4.75063e-08
5.28583e-08
5.76542e-08
6.16697e-08
6.47064e-08
6.66082e-08
6.72749e-08
6.66709e-08
6.48285e-08
6.18447e-08
5.78728e-08
5.31093e-08
4.77774e-08
4.21094e-08
3.6329e-08
3.06364e-08
2.51959e-08
2.01264e-08
1.54942e-08
1.13111e-08
7.53552e-09
4.07875e-09
8.14142e-10
2.81399e-11
2.77846e-11
8.04021e-10
4.02995e-09
7.44791e-09
1.11844e-08
1.5329e-08
1.99249e-08
2.49628e-08
3.03785e-08
3.60554e-08
4.1831e-08
4.75063e-08
5.28583e-08
5.76542e-08
6.16697e-08
6.47064e-08
6.66082e-08
6.72749e-08
6.66709e-08
6.48285e-08
6.18447e-08
5.78728e-08
5.31093e-08
4.77774e-08
4.21094e-08
3.6329e-08
3.06364e-08
2.51959e-08
2.01264e-08
1.54942e-08
1.13111e-08
7.53552e-09
4.07875e-09
8.14142e-10
2.81399e-11
2.77846e-11
8.04021e-10
4.02995e-09
7.44791e-09
1.11844e-08
1.5329e-08
1.99249e-08
2.49628e-08
3.03785e-08
3.60554e-08
4.1831e-08
4.75063e-08
5.28583e-08
5.76542e-08
6.16697e-08
6.47064e-08
6.66082e-08
6.72749e-08
6.66709e-08
6.48285e-08
6.18447e-08
5.78728e-08
5.31093e-08
4.77774e-08
4.21094e-08
3.6329e-08
3.06364e-08
2.51959e-08
2.01264e-08
1.54942e-08
1.13111e-08
7.53552e-09
4.07875e-09
8.14142e-10
2.81399e-11
2.77846e-11
8.04021e-10
4.02995e-09
7.44791e-09
1.11844e-08
1.5329e-08
1.99249e-08
2.49628e-08
3.03785e-08
3.60554e-08
4.1831e-08
4.75063e-08
5.28583e-08
5.76542e-08
6.16697e-08
6.47064e-08
6.66082e-08
6.72749e-08
6.66709e-08
6.48285e-08
6.18447e-08
5.78728e-08
5.31093e-08
4.77774e-08
4.21094e-08
3.6329e-08
3.06364e-08
2.51959e-08
2.01264e-08
1.54942e-08
1.13111e-08
7.53552e-09
4.07875e-09
8.14142e-10
2.81399e-11
2.77846e-11
8.04021e-10
4.02995e-09
7.44791e-09
1.11844e-08
1.5329e-08
1.99249e-08
2.49628e-08
3.03785e-08
3.60554e-08
4.1831e-08
4.75063e-08
5.28583e-08
5.76542e-08
6.16697e-08
6.47064e-08
6.66082e-08
6.72749e-08
6.66709e-08
6.48285e-08
6.18447e-08
5.78728e-08
5.31093e-08
4.77774e-08
4.21094e-08
3.6329e-08
3.06364e-08
2.51959e-08
2.01264e-08
1.54942e-08
1.13111e-08
7.53552e-09
4.07875e-09
8.14142e-10
2.81399e-11
2.77846e-11
8.04021e-10
4.02995e-09
7.44791e-09
1.11844e-08
1.5329e-08
1.99249e-08
2.49628e-08
3.03785e-08
3.60554e-08
4.1831e-08
4.75063e-08
5.28583e-08
5.76542e-08
6.16697e-08
6.47064e-08
6.66082e-08
6.72749e-08
6.66709e-08
6.48285e-08
6.18447e-08
5.78728e-08
5.31093e-08
4.77774e-08
4.21094e-08
3.6329e-08
3.06364e-08
2.51959e-08
2.01264e-08
1.54942e-08
1.13111e-08
7.53552e-09
4.07875e-09
8.14142e-10
2.81399e-11
2.77846e-11
8.04021e-10
4.02995e-09
7.44791e-09
1.11844e-08
1.5329e-08
1.99249e-08
2.49628e-08
3.03785e-08
3.60554e-08
4.1831e-08
4.75063e-08
5.28583e-08
5.76542e-08
6.16697e-08
6.47064e-08
6.66082e-08
6.72749e-08
6.66709e-08
6.48285e-08
6.18447e-08
5.78728e-08
5.31093e-08
4.77774e-08
4.21094e-08
3.6329e-08
3.06364e-08
2.51959e-08
2.01264e-08
1.54942e-08
1.13111e-08
7.53552e-09
4.07875e-09
8.14142e-10
2.81399e-11
2.77846e-11
8.04021e-10
4.02995e-09
7.44791e-09
1.11844e-08
1.5329e-08
1.99249e-08
2.49628e-08
3.03785e-08
3.60554e-08
4.1831e-08
4.75063e-08
5.28583e-08
5.76542e-08
6.16697e-08
6.47064e-08
6.66082e-08
6.72749e-08
6.66709e-08
6.48285e-08
6.18447e-08
5.78728e-08
5.31093e-08
4.77774e-08
4.21094e-08
3.6329e-08
3.06364e-08
2.51959e-08
2.01264e-08
1.54942e-08
1.13111e-08
7.53552e-09
4.07875e-09
8.14142e-10
2.81399e-11
2.77846e-11
8.04021e-10
4.02995e-09
7.44791e-09
1.11844e-08
1.5329e-08
1.99249e-08
2.49628e-08
3.03785e-08
3.60554e-08
4.1831e-08
4.75063e-08
5.28583e-08
5.76542e-08
6.16697e-08
6.47064e-08
6.66082e-08
6.72749e-08
6.66709e-08
6.48285e-08
6.18447e-08
5.78728e-08
5.31093e-08
4.77774e-08
4.21094e-08
3.6329e-08
3.06364e-08
2.51959e-08
2.01264e-08
1.54942e-08
1.13111e-08
7.53552e-09
4.07875e-09
8.14142e-10
2.81399e-11
2.77846e-11
8.04021e-10
4.02995e-09
7.44791e-09
1.11844e-08
1.5329e-08
1.99249e-08
2.49628e-08
3.03785e-08
3.60554e-08
4.1831e-08
4.75063e-08
5.28583e-08
5.76542e-08
6.16697e-08
6.47064e-08
6.66082e-08
6.72749e-08
6.66709e-08
6.48285e-08
6.18447e-08
5.78728e-08
5.31093e-08
4.77774e-08
4.21094e-08
3.6329e-08
3.06364e-08
2.51959e-08
2.01264e-08
1.54942e-08
1.13111e-08
7.53552e-09
4.07875e-09
8.14142e-10
2.81399e-11
2.77846e-11
8.04021e-10
4.02995e-09
7.44791e-09
1.11844e-08
1.5329e-08
1.99249e-08
2.49628e-08
3.03785e-08
3.60554e-08
4.1831e-08
4.75063e-08
5.28583e-08
5.76542e-08
6.16697e-08
6.47064e-08
6.66082e-08
6.72749e-08
6.66709e-08
6.48285e-08
6.18447e-08
5.78728e-08
5.31093e-08
4.77774e-08
4.21094e-08
3.6329e-08
3.06364e-08
2.51959e-08
2.01264e-08
1.54942e-08
1.13111e-08
7.53552e-09
4.07875e-09
8.14142e-10
2.81399e-11
2.77846e-11
8.04021e-10
4.02995e-09
7.44791e-09
1.11844e-08
1.5329e-08
1.99249e-08
2.49628e-08
3.03785e-08
3.60554e-08
4.1831e-08
4.75063e-08
5.28583e-08
5.76542e-08
6.16697e-08
6.47064e-08
6.66082e-08
6.72749e-08
6.66709e-08
6.48285e-08
6.18447e-08
5.78728e-08
5.31093e-08
4.77774e-08
4.21094e-08
3.6329e-08
3.06364e-08
2.51959e-08
2.01264e-08
1.54942e-08
1.13111e-08
7.53552e-09
4.07875e-09
8.14142e-10
2.81399e-11
2.77846e-11
8.04021e-10
4.02995e-09
7.44791e-09
1.11844e-08
1.5329e-08
1.99249e-08
2.49628e-08
3.03785e-08
3.60554e-08
4.1831e-08
4.75063e-08
5.28583e-08
5.76542e-08
6.16697e-08
6.47064e-08
6.66082e-08
6.72749e-08
6.66709e-08
6.48285e-08
6.18447e-08
5.78728e-08
5.31093e-08
4.77774e-08
4.21094e-08
3.6329e-08
3.06364e-08
2.51959e-08
2.01264e-08
1.54942e-08
1.13111e-08
7.53552e-09
4.07875e-09
8.14142e-10
2.81399e-11
2.77846e-11
8.04021e-10
4.02995e-09
7.44791e-09
1.11844e-08
1.5329e-08
1.99249e-08
2.49628e-08
3.03785e-08
3.60554e-08
4.1831e-08
4.75063e-08
5.28583e-08
5.76542e-08
6.16697e-08
6.47064e-08
6.66082e-08
6.72749e-08
6.66709e-08
6.48285e-08
6.18447e-08
5.78728e-08
5.31093e-08
4.77774e-08
4.21094e-08
3.6329e-08
3.06364e-08
2.51959e-08
2.01264e-08
1.54942e-08
1.13111e-08
7.53552e-09
4.07875e-09
8.14142e-10
2.81399e-11
2.77846e-11
8.04021e-10
4.02995e-09
7.44791e-09
1.11844e-08
1.5329e-08
1.99249e-08
2.49628e-08
3.03785e-08
3.60554e-08
4.1831e-08
4.75063e-08
5.28583e-08
5.76542e-08
6.16697e-08
6.47064e-08
6.66082e-08
6.72749e-08
6.66709e-08
6.48285e-08
6.18447e-08
5.78728e-08
5.31093e-08
4.77774e-08
4.21094e-08
3.6329e-08
3.06364e-08
2.51959e-08
2.01264e-08
1.54942e-08
1.13111e-08
7.53552e-09
4.07875e-09
8.14142e-10
2.81399e-11
2.77846e-11
8.04021e-10
4.02995e-09
7.44791e-09
1.11844e-08
1.5329e-08
1.99249e-08
2.49628e-08
3.03785e-08
3.60554e-08
4.1831e-08
4.75063e-08
5.28583e-08
5.76542e-08
6.16697e-08
6.47064e-08
6.66082e-08
6.72749e-08
6.66709e-08
6.48285e-08
6.18447e-08
5.78728e-08
5.31093e-08
4.77774e-08
4.21094e-08
3.6329e-08
3.06364e-08
2.51959e-08
2.01264e-08
1.54942e-08
1.13111e-08
7.53552e-09
4.07875e-09
8.14142e-10
2.81399e-11
2.77846e-11
8.04021e-10
4.02995e-09
7.44791e-09
1.11844e-08
1.5329e-08
1.99249e-08
2.49628e-08
3.03785e-08
3.60554e-08
4.1831e-08
4.75063e-08
5.28583e-08
5.76542e-08
6.16697e-08
6.47064e-08
6.66082e-08
6.72749e-08
6.66709e-08
6.48285e-08
6.18447e-08
5.78728e-08
5.31093e-08
4.77774e-08
4.21094e-08
3.6329e-08
3.06364e-08
2.51959e-08
2.01264e-08
1.54942e-08
1.13111e-08
7.53552e-09
4.07875e-09
8.14142e-10
2.81399e-11
2.77846e-11
8.04021e-10
4.02995e-09
7.44791e-09
1.11844e-08
1.5329e-08
1.99249e-08
2.49628e-08
3.03785e-08
3.60554e-08
4.1831e-08
4.75063e-08
5.28583e-08
5.76542e-08
6.16697e-08
6.47064e-08
6.66082e-08
6.72749e-08
6.66709e-08
6.48285e-08
6.18447e-08
5.78728e-08
5.31093e-08
4.77774e-08
4.21094e-08
3.6329e-08
3.06364e-08
2.51959e-08
2.01264e-08
1.54942e-08
1.13111e-08
7.53552e-09
4.07875e-09
8.14142e-10
2.81399e-11
2.77846e-11
8.04021e-10
4.02995e-09
7.44791e-09
1.11844e-08
1.5329e-08
1.99249e-08
2.49628e-08
3.03785e-08
3.60554e-08
4.1831e-08
4.75063e-08
5.28583e-08
5.76542e-08
6.16697e-08
6.47064e-08
6.66082e-08
6.72749e-08
6.66709e-08
6.48285e-08
6.18447e-08
5.78728e-08
5.31093e-08
4.77774e-08
4.21094e-08
3.6329e-08
3.06364e-08
2.51959e-08
2.01264e-08
1.54942e-08
1.13111e-08
7.53552e-09
4.07875e-09
8.14142e-10
2.81399e-11
2.77846e-11
8.04021e-10
4.02995e-09
7.44791e-09
1.11844e-08
1.5329e-08
1.99249e-08
2.49628e-08
3.03785e-08
3.60554e-08
4.1831e-08
4.75063e-08
5.28583e-08
5.76542e-08
6.16697e-08
6.47064e-08
6.66082e-08
6.72749e-08
6.66709e-08
6.48285e-08
6.18447e-08
5.78728e-08
5.31093e-08
4.77774e-08
4.21094e-08
3.6329e-08
3.06364e-08
2.51959e-08
2.01264e-08
1.54942e-08
1.13111e-08
7.53552e-09
4.07875e-09
8.14142e-10
2.81399e-11
2.77846e-11
8.04021e-10
4.02995e-09
7.44791e-09
1.11844e-08
1.5329e-08
1.99249e-08
2.49628e-08
3.03785e-08
3.60554e-08
4.1831e-08
4.75063e-08
5.28583e-08
5.76542e-08
6.16697e-08
6.47064e-08
6.66082e-08
6.72749e-08
6.66709e-08
6.48285e-08
6.18447e-08
5.78728e-08
5.31093e-08
4.77774e-08
4.21094e-08
3.6329e-08
3.06364e-08
2.51959e-08
2.01264e-08
1.54942e-08
1.13111e-08
7.53552e-09
4.07875e-09
8.14142e-10
2.81399e-11
2.77846e-11
8.04021e-10
4.02995e-09
7.44791e-09
1.11844e-08
1.5329e-08
1.99249e-08
2.49628e-08
3.03785e-08
3.60554e-08
4.1831e-08
4.75063e-08
5.28583e-08
5.76542e-08
6.16697e-08
6.47064e-08
6.66082e-08
6.72749e-08
6.66709e-08
6.48285e-08
6.18447e-08
5.78728e-08
5.31093e-08
4.77774e-08
4.21094e-08
3.6329e-08
3.06364e-08
2.51959e-08
2.01264e-08
1.54942e-08
1.13111e-08
7.53552e-09
4.07875e-09
8.14142e-10
2.81399e-11
2.77846e-11
8.04021e-10
4.02995e-09
7.44791e-09
1.11844e-08
1.5329e-08
1.99249e-08
2.49628e-08
3.03785e-08
3.60554e-08
4.1831e-08
4.75063e-08
5.28583e-08
5.76542e-08
6.16697e-08
6.47064e-08
6.66082e-08
6.72749e-08
6.66709e-08
6.48285e-08
6.18447e-08
5.78728e-08
5.31093e-08
4.77774e-08
4.21094e-08
3.6329e-08
3.06364e-08
2.51959e-08
2.01264e-08
1.54942e-08
1.13111e-08
7.53552e-09
4.07875e-09
8.14142e-10
2.81399e-11
2.77846e-11
8.04021e-10
4.02995e-09
7.44791e-09
1.11844e-08
1.5329e-08
1.99249e-08
2.49628e-08
3.03785e-08
3.60554e-08
4.1831e-08
4.75063e-08
5.28583e-08
5.76542e-08
6.16697e-08
6.47064e-08
6.66082e-08
6.72749e-08
6.66709e-08
6.48285e-08
6.18447e-08
5.78728e-08
5.31093e-08
4.77774e-08
4.21094e-08
3.6329e-08
3.06364e-08
2.51959e-08
2.01264e-08
1.54942e-08
1.13111e-08
7.53552e-09
4.07875e-09
8.14142e-10
2.81399e-11
2.77846e-11
8.04021e-10
4.02995e-09
7.44791e-09
1.11844e-08
1.5329e-08
1.99249e-08
2.49628e-08
3.03785e-08
3.60554e-08
4.1831e-08
4.75063e-08
5.28583e-08
5.76542e-08
6.16697e-08
6.47064e-08
6.66082e-08
6.72749e-08
6.66709e-08
6.48285e-08
6.18447e-08
5.78728e-08
5.31093e-08
4.77774e-08
4.21094e-08
3.6329e-08
3.06364e-08
2.51959e-08
2.01264e-08
1.54942e-08
1.13111e-08
7.53552e-09
4.07875e-09
8.14142e-10
2.81399e-11
2.77846e-11
8.04021e-10
4.02995e-09
7.44791e-09
1.11844e-08
1.5329e-08
1.99249e-08
2.49628e-08
3.03785e-08
3.60554e-08
4.1831e-08
4.75063e-08
5.28583e-08
5.76542e-08
6.16697e-08
6.47064e-08
6.66082e-08
6.72749e-08
6.66709e-08
6.48285e-08
6.18447e-08
5.78728e-08
5.31093e-08
4.77774e-08
4.21094e-08
3.6329e-08
3.06364e-08
2.51959e-08
2.01264e-08
1.54942e-08
1.13111e-08
7.53552e-09
4.07875e-09
8.14142e-10
2.81399e-11
2.77846e-11
8.04021e-10
4.02995e-09
7.44791e-09
1.11844e-08
1.5329e-08
1.99249e-08
2.49628e-08
3.03785e-08
3.60554e-08
4.1831e-08
4.75063e-08
5.28583e-08
5.76542e-08
6.16697e-08
6.47064e-08
6.66082e-08
6.72749e-08
6.66709e-08
6.48285e-08
6.18447e-08
5.78728e-08
5.31093e-08
4.77774e-08
4.21094e-08
3.6329e-08
3.06364e-08
2.51959e-08
2.01264e-08
1.54942e-08
1.13111e-08
7.53552e-09
4.07875e-09
8.14142e-10
2.81399e-11
2.77846e-11
8.04021e-10
4.02995e-09
7.44791e-09
1.11844e-08
1.5329e-08
1.99249e-08
2.49628e-08
3.03785e-08
3.60554e-08
4.1831e-08
4.75063e-08
5.28583e-08
5.76542e-08
6.16697e-08
6.47064e-08
6.66082e-08
6.72749e-08
6.66709e-08
6.48285e-08
6.18447e-08
5.78728e-08
5.31093e-08
4.77774e-08
4.21094e-08
3.6329e-08
3.06364e-08
2.51959e-08
2.01264e-08
1.54942e-08
1.13111e-08
7.53552e-09
4.07875e-09
8.14142e-10
2.81399e-11
2.77846e-11
8.04021e-10
4.02995e-09
7.44791e-09
1.11844e-08
1.5329e-08
1.99249e-08
2.49628e-08
3.03785e-08
3.60554e-08
4.1831e-08
4.75063e-08
5.28583e-08
5.76542e-08
6.16697e-08
6.47064e-08
6.66082e-08
6.72749e-08
6.66709e-08
6.48285e-08
6.18447e-08
5.78728e-08
5.31093e-08
4.77774e-08
4.21094e-08
3.6329e-08
3.06364e-08
2.51959e-08
2.01264e-08
1.54942e-08
1.13111e-08
7.53552e-09
4.07875e-09
8.14142e-10
2.81399e-11
2.77846e-11
8.04021e-10
4.02995e-09
7.44791e-09
1.11844e-08
1.5329e-08
1.99249e-08
2.49628e-08
3.03785e-08
3.60554e-08
4.1831e-08
4.75063e-08
5.28583e-08
5.76542e-08
6.16697e-08
6.47064e-08
6.66082e-08
6.72749e-08
6.66709e-08
6.48285e-08
6.18447e-08
5.78728e-08
5.31093e-08
4.77774e-08
4.21094e-08
3.6329e-08
3.06364e-08
2.51959e-08
2.01264e-08
1.54942e-08
1.13111e-08
7.53552e-09
4.07875e-09
8.14142e-10
2.81399e-11
2.77846e-11
8.04021e-10
4.02995e-09
7.44791e-09
1.11844e-08
1.5329e-08
1.99249e-08
2.49628e-08
3.03785e-08
3.60554e-08
4.1831e-08
4.75063e-08
5.28583e-08
5.76542e-08
6.16697e-08
6.47064e-08
6.66082e-08
6.72749e-08
6.66709e-08
6.48285e-08
6.18447e-08
5.78728e-08
5.31093e-08
4.77774e-08
4.21094e-08
3.6329e-08
3.06364e-08
2.51959e-08
2.01264e-08
1.54942e-08
1.13111e-08
7.53552e-09
4.07875e-09
8.14142e-10
2.81399e-11
2.77846e-11
8.04021e-10
4.02995e-09
7.44791e-09
1.11844e-08
1.5329e-08
1.99249e-08
2.49628e-08
3.03785e-08
3.60554e-08
4.1831e-08
4.75063e-08
5.28583e-08
5.76542e-08
6.16697e-08
6.47064e-08
6.66082e-08
6.72749e-08
6.66709e-08
6.48285e-08
6.18447e-08
5.78728e-08
5.31093e-08
4.77774e-08
4.21094e-08
3.6329e-08
3.06364e-08
2.51959e-08
2.01264e-08
1.54942e-08
1.13111e-08
7.53552e-09
4.07875e-09
8.14142e-10
2.81399e-11
2.77846e-11
8.04021e-10
4.02995e-09
7.44791e-09
1.11844e-08
1.5329e-08
1.99249e-08
2.49628e-08
3.03785e-08
3.60554e-08
4.1831e-08
4.75063e-08
5.28583e-08
5.76542e-08
6.16697e-08
6.47064e-08
6.66082e-08
6.72749e-08
6.66709e-08
6.48285e-08
6.18447e-08
5.78728e-08
5.31093e-08
4.77774e-08
4.21094e-08
3.6329e-08
3.06364e-08
2.51959e-08
2.01264e-08
1.54942e-08
1.13111e-08
7.53552e-09
4.07875e-09
8.14142e-10
2.81399e-11
2.77846e-11
8.04021e-10
4.02995e-09
7.44791e-09
1.11844e-08
1.5329e-08
1.99249e-08
2.49628e-08
3.03785e-08
3.60554e-08
4.1831e-08
4.75063e-08
5.28583e-08
5.76542e-08
6.16697e-08
6.47064e-08
6.66082e-08
6.72749e-08
6.66709e-08
6.48285e-08
6.18447e-08
5.78728e-08
5.31093e-08
4.77774e-08
4.21094e-08
3.6329e-08
3.06364e-08
2.51959e-08
2.01264e-08
1.54942e-08
1.13111e-08
7.53552e-09
4.07875e-09
8.14142e-10
2.81399e-11
2.77846e-11
8.04021e-10
4.02995e-09
7.44791e-09
1.11844e-08
1.5329e-08
1.99249e-08
2.49628e-08
3.03785e-08
3.60554e-08
4.1831e-08
4.75063e-08
5.28583e-08
5.76542e-08
6.16697e-08
6.47064e-08
6.66082e-08
6.72749e-08
6.66709e-08
6.48285e-08
6.18447e-08
5.78728e-08
5.31093e-08
4.77774e-08
4.21094e-08
3.6329e-08
3.06364e-08
2.51959e-08
2.01264e-08
1.54942e-08
1.13111e-08
7.53552e-09
4.07875e-09
8.14142e-10
2.81399e-11
2.77846e-11
8.04021e-10
4.02995e-09
7.44791e-09
1.11844e-08
1.5329e-08
1.99249e-08
2.49628e-08
3.03785e-08
3.60554e-08
4.1831e-08
4.75063e-08
5.28583e-08
5.76542e-08
6.16697e-08
6.47064e-08
6.66082e-08
6.72749e-08
6.66709e-08
6.48285e-08
6.18447e-08
5.78728e-08
5.31093e-08
4.77774e-08
4.21094e-08
3.6329e-08
3.06364e-08
2.51959e-08
2.01264e-08
1.54942e-08
1.13111e-08
7.53552e-09
4.07875e-09
8.14142e-10
2.81399e-11
2.77846e-11
8.04021e-10
4.02995e-09
7.44791e-09
1.11844e-08
1.5329e-08
1.99249e-08
2.49628e-08
3.03785e-08
3.60554e-08
4.1831e-08
4.75063e-08
5.28583e-08