/*--------------------------------*- C++ -*----------------------------------*\
  =========                 |
  \\      /  F ield         | OpenFOAM: The Open Source CFD Toolbox
   \\    /   O peration     | Website:  https://openfoam.org
    \\  /    A nd           | Version:  13
     \\/     M anipulation  |
\*---------------------------------------------------------------------------*/
FoamFile
{
    format      ascii;
    class       volScalarField;
    location    "192.5";
    object      nut;
}
// * * * * * * * * * * * * * * * * * * * * * * * * * * * * * * * * * * * * * //

dimensions      [0 2 -1 0 0 0 0];

internalField   nonuniform List<scalar> 
315000
(
1.27822e-16
3.34884e-14
7.64497e-13
1.37302e-12
1.99269e-12
2.62533e-12
3.27305e-12
3.93775e-12
4.62085e-12
5.32318e-12
6.04487e-12
6.78538e-12
7.54344e-12
8.31711e-12
9.1038e-12
9.9003e-12
1.07028e-11
1.15071e-11
1.23085e-11
1.31019e-11
1.3882e-11
1.46433e-11
1.53802e-11
1.60871e-11
1.67583e-11
1.73885e-11
1.79724e-11
1.85052e-11
1.89822e-11
1.93994e-11
1.97531e-11
2.00401e-11
2.02581e-11
2.04049e-11
2.04793e-11
2.04806e-11
2.04088e-11
2.02645e-11
2.00491e-11
1.97645e-11
1.94131e-11
1.89981e-11
1.85231e-11
1.79922e-11
1.74099e-11
1.67812e-11
1.61112e-11
1.54054e-11
1.46694e-11
1.39086e-11
1.31289e-11
1.23356e-11
1.15342e-11
1.07296e-11
9.92657e-12
9.1294e-12
8.34185e-12
7.56715e-12
6.80791e-12
6.06609e-12
5.34296e-12
4.63907e-12
3.95429e-12
3.28778e-12
2.6381e-12
2.00332e-12
1.3812e-12
7.69746e-13
3.3761e-14
1.28958e-16
3.20278e-15
8.53248e-13
1.94438e-10
3.51983e-10
5.11792e-10
6.74715e-10
8.41477e-10
1.01266e-09
1.18868e-09
1.36977e-09
1.55598e-09
1.74719e-09
1.94306e-09
2.1431e-09
2.34664e-09
2.55283e-09
2.76069e-09
2.96912e-09
3.17687e-09
3.38264e-09
3.58503e-09
3.7826e-09
3.97389e-09
4.15742e-09
4.33174e-09
4.49543e-09
4.64712e-09
4.78553e-09
4.90948e-09
5.01788e-09
5.10978e-09
5.18437e-09
5.24098e-09
5.2791e-09
5.29839e-09
5.29869e-09
5.27997e-09
5.24242e-09
5.18637e-09
5.11232e-09
5.02093e-09
4.91301e-09
4.78951e-09
4.65151e-09
4.50019e-09
4.33683e-09
4.16278e-09
3.97948e-09
3.78837e-09
3.59091e-09
3.3886e-09
3.18285e-09
2.97506e-09
2.76656e-09
2.55857e-09
2.35221e-09
2.14847e-09
1.94818e-09
1.75202e-09
1.5605e-09
1.37394e-09
1.19248e-09
1.01606e-09
8.44443e-10
6.77217e-10
5.13794e-10
3.5344e-10
1.95295e-10
8.57247e-13
3.21819e-15
1.296e-14
3.45768e-12
2.00928e-09
3.64193e-09
5.30113e-09
6.99734e-09
8.73971e-09
1.05357e-08
1.2391e-08
1.43091e-08
1.62912e-08
1.83365e-08
2.04418e-08
2.26017e-08
2.48086e-08
2.7053e-08
2.93238e-08
3.1608e-08
3.38916e-08
3.61592e-08
3.83947e-08
4.05815e-08
4.27025e-08
4.47408e-08
4.66793e-08
4.85018e-08
5.01925e-08
5.17365e-08
5.31202e-08
5.43309e-08
5.53579e-08
5.61916e-08
5.68244e-08
5.72504e-08
5.74658e-08
5.74684e-08
5.72584e-08
5.68375e-08
5.62098e-08
5.53809e-08
5.43586e-08
5.31522e-08
5.17726e-08
5.02323e-08
4.85448e-08
4.67252e-08
4.4789e-08
4.27527e-08
4.06331e-08
3.84473e-08
3.62123e-08
3.39447e-08
3.16607e-08
2.93755e-08
2.71034e-08
2.48572e-08
2.26482e-08
2.0486e-08
1.83779e-08
1.63296e-08
1.43442e-08
1.24227e-08
1.05637e-08
8.76381e-09
7.01738e-09
5.3169e-09
3.6532e-09
2.01575e-09
3.46928e-12
1.30042e-14
2.4837e-14
6.62691e-12
3.85191e-09
6.98736e-09
1.01838e-08
1.34657e-08
1.68549e-08
2.03699e-08
2.40248e-08
2.78296e-08
3.17892e-08
3.59036e-08
4.01676e-08
4.45709e-08
4.90981e-08
5.37294e-08
5.84405e-08
6.32035e-08
6.7987e-08
7.27572e-08
7.74779e-08
8.21117e-08
8.66202e-08
9.09649e-08
9.51074e-08
9.90105e-08
1.02638e-07
1.05957e-07
1.08935e-07
1.11544e-07
1.13759e-07
1.15558e-07
1.16924e-07
1.17844e-07
1.18309e-07
1.18313e-07
1.17858e-07
1.16947e-07
1.1559e-07
1.13799e-07
1.11592e-07
1.0899e-07
1.06019e-07
1.02707e-07
9.90849e-08
9.51866e-08
9.1048e-08
8.67065e-08
8.22003e-08
7.75679e-08
7.28478e-08
6.80773e-08
6.32927e-08
5.85278e-08
5.38141e-08
4.91795e-08
4.46484e-08
4.02408e-08
3.59719e-08
3.18521e-08
2.78868e-08
2.4076e-08
2.04148e-08
1.68934e-08
1.34974e-08
1.02085e-08
7.00493e-09
3.86193e-09
6.64482e-12
2.49053e-14
3.90315e-14
1.04149e-11
6.05471e-09
1.09896e-08
1.60323e-08
2.12266e-08
2.6612e-08
3.2222e-08
3.80837e-08
4.42162e-08
5.06307e-08
5.73293e-08
6.43057e-08
7.15442e-08
7.90206e-08
8.67023e-08
9.4549e-08
1.02513e-07
1.10542e-07
1.18577e-07
1.26557e-07
1.34416e-07
1.42087e-07
1.49501e-07
1.56591e-07
1.63289e-07
1.69528e-07
1.75247e-07
1.80388e-07
1.84899e-07
1.88733e-07
1.9185e-07
1.94219e-07
1.95814e-07
1.96619e-07
1.96625e-07
1.95833e-07
1.94251e-07
1.91895e-07
1.88789e-07
1.84967e-07
1.80467e-07
1.75335e-07
1.69625e-07
1.63393e-07
1.56702e-07
1.49618e-07
1.42207e-07
1.34539e-07
1.26682e-07
1.18703e-07
1.10667e-07
1.02637e-07
9.46694e-08
8.68189e-08
7.91324e-08
7.16504e-08
6.44055e-08
5.74222e-08
5.0716e-08
4.42935e-08
3.81527e-08
3.22823e-08
2.66633e-08
2.12688e-08
1.60651e-08
1.10129e-08
6.06792e-09
1.04385e-11
3.91216e-14
5.49167e-14
1.46543e-11
8.51997e-09
1.54694e-08
2.25804e-08
2.99197e-08
3.75472e-08
4.55142e-08
5.38624e-08
6.26221e-08
7.18115e-08
8.14359e-08
9.14875e-08
1.01945e-07
1.12775e-07
1.23929e-07
1.35351e-07
1.4697e-07
1.58709e-07
1.70484e-07
1.82204e-07
1.93773e-07
2.05089e-07
2.1605e-07
2.26551e-07
2.36486e-07
2.45755e-07
2.54262e-07
2.61918e-07
2.6864e-07
2.74358e-07
2.7901e-07
2.82546e-07
2.84927e-07
2.86128e-07
2.86136e-07
2.84951e-07
2.82586e-07
2.79065e-07
2.74428e-07
2.68724e-07
2.62014e-07
2.54371e-07
2.45874e-07
2.36615e-07
2.26687e-07
2.16194e-07
2.05238e-07
1.93925e-07
1.82358e-07
1.70639e-07
1.58863e-07
1.47121e-07
1.35498e-07
1.24072e-07
1.12912e-07
1.02075e-07
9.16097e-08
8.15494e-08
7.19156e-08
6.27163e-08
5.39463e-08
4.55874e-08
3.76094e-08
2.99707e-08
2.262e-08
1.54973e-08
8.53582e-09
1.46827e-11
5.5025e-14
7.15204e-14
1.90857e-11
1.10965e-08
2.01506e-08
2.94221e-08
3.90016e-08
4.89701e-08
5.93975e-08
7.03404e-08
8.18404e-08
9.39228e-08
1.06595e-07
1.19849e-07
1.33655e-07
1.47969e-07
1.62729e-07
1.77857e-07
1.93262e-07
2.0884e-07
2.2448e-07
2.4006e-07
2.55454e-07
2.70525e-07
2.85134e-07
2.99139e-07
3.12398e-07
3.24774e-07
3.36138e-07
3.46367e-07
3.55353e-07
3.62997e-07
3.69217e-07
3.73944e-07
3.77128e-07
3.78734e-07
3.78743e-07
3.77156e-07
3.7399e-07
3.6928e-07
3.63076e-07
3.55448e-07
3.46477e-07
3.36261e-07
3.2491e-07
3.12545e-07
2.99295e-07
2.85297e-07
2.70694e-07
2.55626e-07
2.40235e-07
2.24655e-07
2.09015e-07
1.93434e-07
1.78026e-07
1.62892e-07
1.48126e-07
1.33803e-07
1.19988e-07
1.06725e-07
9.40413e-08
8.19476e-08
7.04357e-08
5.94805e-08
4.90406e-08
3.90593e-08
2.94668e-08
2.0182e-08
1.11143e-08
1.91177e-11
7.16427e-14
8.78827e-14
2.34529e-11
1.36353e-08
2.47621e-08
3.61603e-08
4.79435e-08
6.02134e-08
7.30576e-08
8.65471e-08
1.00734e-07
1.15649e-07
1.31303e-07
1.47684e-07
1.64756e-07
1.82463e-07
2.00727e-07
2.1945e-07
2.38519e-07
2.57805e-07
2.77169e-07
2.96463e-07
3.15528e-07
3.34195e-07
3.52291e-07
3.69638e-07
3.86061e-07
4.0139e-07
4.15463e-07
4.28131e-07
4.39257e-07
4.48721e-07
4.5642e-07
4.62272e-07
4.66212e-07
4.68198e-07
4.68208e-07
4.66242e-07
4.62321e-07
4.56488e-07
4.48806e-07
4.39359e-07
4.2825e-07
4.15597e-07
4.01537e-07
3.86219e-07
3.69806e-07
3.52467e-07
3.34377e-07
3.15715e-07
2.96653e-07
2.7736e-07
2.57994e-07
2.38706e-07
2.19633e-07
2.00903e-07
1.82632e-07
1.64917e-07
1.47835e-07
1.31444e-07
1.15778e-07
1.0085e-07
8.66502e-08
7.31474e-08
6.02895e-08
4.80057e-08
3.62085e-08
2.47959e-08
1.36544e-08
2.34873e-11
8.80146e-14
1.0322e-13
2.75467e-11
1.60148e-08
2.90834e-08
4.24731e-08
5.63185e-08
7.07407e-08
8.58435e-08
1.01711e-07
1.18404e-07
1.35959e-07
1.54388e-07
1.73675e-07
1.93778e-07
2.14629e-07
2.36134e-07
2.58177e-07
2.80621e-07
3.03317e-07
3.26099e-07
3.48792e-07
3.7121e-07
3.93156e-07
4.14424e-07
4.34806e-07
4.54097e-07
4.72097e-07
4.88618e-07
5.03484e-07
5.16538e-07
5.27639e-07
5.36669e-07
5.4353e-07
5.48149e-07
5.50477e-07
5.50487e-07
5.4818e-07
5.43581e-07
5.3674e-07
5.27729e-07
5.16645e-07
5.03608e-07
4.88757e-07
4.7225e-07
4.54262e-07
4.34981e-07
4.14608e-07
3.93346e-07
3.71406e-07
3.48991e-07
3.26298e-07
3.03515e-07
2.80817e-07
2.58368e-07
2.36319e-07
2.14807e-07
1.93947e-07
1.73834e-07
1.54535e-07
1.36094e-07
1.18525e-07
1.01819e-07
8.59375e-08
7.08203e-08
5.63835e-08
4.25232e-08
2.91186e-08
1.60348e-08
2.75826e-11
1.03358e-13
1.16978e-13
3.1219e-11
1.81491e-08
3.29586e-08
4.81329e-08
6.38259e-08
8.01754e-08
9.72996e-08
1.15293e-07
1.34226e-07
1.54139e-07
1.75044e-07
1.96922e-07
2.19724e-07
2.4337e-07
2.67752e-07
2.92737e-07
3.1817e-07
3.43877e-07
3.69673e-07
3.95359e-07
4.20724e-07
4.45545e-07
4.69591e-07
4.92627e-07
5.14421e-07
5.34749e-07
5.53401e-07
5.7018e-07
5.84908e-07
5.97431e-07
6.07614e-07
6.15351e-07
6.20558e-07
6.23181e-07
6.23191e-07
6.20589e-07
6.15402e-07
6.07686e-07
5.97522e-07
5.85017e-07
5.70306e-07
5.53543e-07
5.34905e-07
5.14589e-07
4.92806e-07
4.69779e-07
4.4574e-07
4.20924e-07
3.95562e-07
3.69877e-07
3.4408e-07
3.1837e-07
2.92933e-07
2.67942e-07
2.43552e-07
2.19897e-07
1.97085e-07
1.75195e-07
1.54277e-07
1.34351e-07
1.15404e-07
9.73955e-08
8.02566e-08
6.38921e-08
4.81839e-08
3.29943e-08
1.81693e-08
3.12555e-11
1.17118e-13
1.28827e-13
3.43821e-11
1.99873e-08
3.62958e-08
5.30066e-08
7.02897e-08
8.82976e-08
1.07161e-07
1.26983e-07
1.47842e-07
1.6978e-07
1.92811e-07
2.16912e-07
2.42027e-07
2.68067e-07
2.94911e-07
3.22411e-07
3.50393e-07
3.78668e-07
4.07029e-07
4.35259e-07
4.63125e-07
4.90384e-07
5.16781e-07
5.42061e-07
5.65969e-07
5.88263e-07
6.08711e-07
6.271e-07
6.43238e-07
6.56956e-07
6.68109e-07
6.7658e-07
6.82281e-07
6.85152e-07
6.85163e-07
6.82313e-07
6.76632e-07
6.68181e-07
6.57047e-07
6.43348e-07
6.27227e-07
6.08853e-07
5.88419e-07
5.66138e-07
5.4224e-07
5.1697e-07
4.90579e-07
4.63326e-07
4.35462e-07
4.07234e-07
3.78872e-07
3.50594e-07
3.22607e-07
2.95102e-07
2.6825e-07
2.42201e-07
2.17075e-07
1.92963e-07
1.69919e-07
1.47967e-07
1.27094e-07
1.07257e-07
8.8379e-08
7.0356e-08
5.30576e-08
3.63315e-08
2.00075e-08
3.44187e-11
1.28967e-13
1.38647e-13
3.70041e-11
2.1511e-08
3.90618e-08
5.70457e-08
7.56464e-08
9.50284e-08
1.15332e-07
1.3667e-07
1.59123e-07
1.82739e-07
2.0753e-07
2.3347e-07
2.60499e-07
2.88517e-07
3.17395e-07
3.4697e-07
3.77055e-07
4.07445e-07
4.37918e-07
4.68239e-07
4.9816e-07
5.27418e-07
5.55743e-07
5.82861e-07
6.085e-07
6.324e-07
6.54316e-07
6.74021e-07
6.9131e-07
7.06002e-07
7.17947e-07
7.27017e-07
7.33121e-07
7.36194e-07
7.36205e-07
7.33152e-07
7.27069e-07
7.18018e-07
7.06093e-07
6.91419e-07
6.74147e-07
6.54458e-07
6.32556e-07
6.08668e-07
5.83039e-07
5.55931e-07
5.27612e-07
4.98359e-07
4.68441e-07
4.38121e-07
4.07648e-07
3.77256e-07
3.47166e-07
3.17585e-07
2.887e-07
2.60672e-07
2.33633e-07
2.07681e-07
1.82877e-07
1.59248e-07
1.3678e-07
1.15428e-07
9.51091e-08
7.5712e-08
5.70961e-08
3.9097e-08
2.15309e-08
3.70402e-11
1.38786e-13
1.4649e-13
3.90984e-11
2.2728e-08
4.12711e-08
6.02719e-08
7.99252e-08
1.00405e-07
1.2186e-07
1.44408e-07
1.68136e-07
1.93093e-07
2.1929e-07
2.467e-07
2.75257e-07
3.04857e-07
3.35358e-07
3.66588e-07
3.9835e-07
4.30425e-07
4.62579e-07
4.94564e-07
5.26119e-07
5.56968e-07
5.86824e-07
6.15401e-07
6.42413e-07
6.67588e-07
6.90667e-07
7.11414e-07
7.29614e-07
7.45079e-07
7.5765e-07
7.67195e-07
7.73617e-07
7.7685e-07
7.7686e-07
7.73648e-07
7.67246e-07
7.5772e-07
7.45169e-07
7.29722e-07
7.11539e-07
6.90807e-07
6.67741e-07
6.42579e-07
6.15577e-07
5.8701e-07
5.5716e-07
5.26316e-07
4.94765e-07
4.6278e-07
4.30626e-07
3.98548e-07
3.66782e-07
3.35546e-07
3.05037e-07
2.75429e-07
2.46862e-07
2.1944e-07
1.9323e-07
1.6826e-07
1.44517e-07
1.21954e-07
1.00485e-07
7.99898e-08
6.03215e-08
4.13057e-08
2.27476e-08
3.91339e-11
1.46627e-13
1.52533e-13
4.07123e-11
2.3666e-08
4.29737e-08
6.27584e-08
8.32232e-08
1.0455e-07
1.26892e-07
1.50375e-07
1.75087e-07
2.01079e-07
2.28362e-07
2.56907e-07
2.86645e-07
3.17464e-07
3.49218e-07
3.81727e-07
4.14782e-07
4.48157e-07
4.81607e-07
5.14876e-07
5.47689e-07
5.79762e-07
6.10797e-07
6.40496e-07
6.68565e-07
6.9472e-07
7.18694e-07
7.40242e-07
7.59143e-07
7.75201e-07
7.88252e-07
7.98162e-07
8.04829e-07
8.08185e-07
8.08195e-07
8.0486e-07
7.98213e-07
7.88322e-07
7.7529e-07
7.59249e-07
7.40365e-07
7.18832e-07
6.94872e-07
6.68729e-07
6.40671e-07
6.1098e-07
5.79951e-07
5.47884e-07
5.15073e-07
4.81806e-07
4.48355e-07
4.14978e-07
3.81918e-07
3.49404e-07
3.17643e-07
2.86814e-07
2.57066e-07
2.2851e-07
2.01214e-07
1.75209e-07
1.50483e-07
1.26985e-07
1.04628e-07
8.32867e-08
6.28071e-08
4.30077e-08
2.36851e-08
4.07472e-11
1.52668e-13
1.5703e-13
4.19134e-11
2.43641e-08
4.42411e-08
6.46093e-08
8.56785e-08
1.07636e-07
1.30641e-07
1.5482e-07
1.80266e-07
2.0703e-07
2.35124e-07
2.64517e-07
2.95136e-07
3.26867e-07
3.59558e-07
3.93021e-07
4.27043e-07
4.61388e-07
4.95807e-07
5.30033e-07
5.63786e-07
5.96773e-07
6.28688e-07
6.59225e-07
6.88081e-07
7.14967e-07
7.39609e-07
7.61755e-07
7.81178e-07
7.97679e-07
8.11088e-07
8.2127e-07
8.28119e-07
8.31567e-07
8.31577e-07
8.28149e-07
8.2132e-07
8.11157e-07
7.97766e-07
7.81283e-07
7.61876e-07
7.39746e-07
7.15117e-07
6.88243e-07
6.59397e-07
6.28869e-07
5.9696e-07
5.63978e-07
5.30228e-07
4.96003e-07
4.61584e-07
4.27236e-07
3.9321e-07
3.59741e-07
3.27044e-07
2.95304e-07
2.64674e-07
2.3527e-07
2.07164e-07
1.80386e-07
1.54926e-07
1.30732e-07
1.07713e-07
8.5741e-08
6.46572e-08
4.42744e-08
2.43829e-08
4.19477e-11
1.57162e-13
1.60265e-13
4.27776e-11
2.48664e-08
4.5153e-08
6.59414e-08
8.74459e-08
1.09858e-07
1.3334e-07
1.58022e-07
1.83998e-07
2.1132e-07
2.4e-07
2.70005e-07
3.01262e-07
3.33653e-07
3.6702e-07
4.01174e-07
4.35895e-07
4.70944e-07
5.06063e-07
5.40982e-07
5.75415e-07
6.09063e-07
6.41615e-07
6.72759e-07
7.02186e-07
7.29601e-07
7.54725e-07
7.77304e-07
7.97104e-07
8.13925e-07
8.27595e-07
8.37973e-07
8.44954e-07
8.48468e-07
8.48478e-07
8.44984e-07
8.38022e-07
8.27663e-07
8.14012e-07
7.97208e-07
7.77424e-07
7.5486e-07
7.29749e-07
7.02346e-07
6.72929e-07
6.41794e-07
6.09249e-07
5.75606e-07
5.41175e-07
5.06257e-07
4.71137e-07
4.36087e-07
4.01361e-07
3.67202e-07
3.33827e-07
3.01428e-07
2.70161e-07
2.40144e-07
2.11452e-07
1.84116e-07
1.58127e-07
1.3343e-07
1.09934e-07
8.75075e-08
6.59886e-08
4.51859e-08
2.48849e-08
4.28113e-11
1.60395e-13
1.62516e-13
4.33792e-11
2.52162e-08
4.57881e-08
6.68692e-08
8.86771e-08
1.11406e-07
1.35221e-07
1.60255e-07
1.866e-07
2.14313e-07
2.43403e-07
2.73837e-07
3.05541e-07
3.38393e-07
3.72236e-07
4.06874e-07
4.42086e-07
4.77627e-07
5.13238e-07
5.48644e-07
5.83555e-07
6.17667e-07
6.50666e-07
6.82235e-07
7.12063e-07
7.39849e-07
7.65314e-07
7.88195e-07
8.08262e-07
8.25308e-07
8.39159e-07
8.49675e-07
8.56749e-07
8.60309e-07
8.60319e-07
8.56779e-07
8.49724e-07
8.39227e-07
8.25393e-07
8.08365e-07
7.88314e-07
7.65447e-07
7.39996e-07
7.12222e-07
6.82404e-07
6.50843e-07
6.17851e-07
5.83743e-07
5.48835e-07
5.13431e-07
4.77819e-07
4.42276e-07
4.0706e-07
3.72416e-07
3.38566e-07
3.05705e-07
2.73992e-07
2.43546e-07
2.14443e-07
1.86718e-07
1.60358e-07
1.35311e-07
1.11481e-07
8.8738e-08
6.69158e-08
4.58205e-08
2.52345e-08
4.34126e-11
1.62645e-13
1.64034e-13
4.37849e-11
2.54521e-08
4.62164e-08
6.74951e-08
8.95079e-08
1.12451e-07
1.36492e-07
1.61763e-07
1.88359e-07
2.16336e-07
2.45704e-07
2.7643e-07
3.08437e-07
3.41603e-07
3.75769e-07
4.10737e-07
4.46282e-07
4.82159e-07
5.18105e-07
5.53842e-07
5.89078e-07
6.23507e-07
6.5681e-07
6.8867e-07
7.18771e-07
7.46811e-07
7.72506e-07
7.95595e-07
8.15843e-07
8.33042e-07
8.47018e-07
8.57628e-07
8.64766e-07
8.68357e-07
8.68367e-07
8.64795e-07
8.57677e-07
8.47085e-07
8.33127e-07
8.15945e-07
7.95713e-07
7.72639e-07
7.46957e-07
7.18928e-07
6.88838e-07
6.56987e-07
6.23689e-07
5.89266e-07
5.54032e-07
5.18296e-07
4.8235e-07
4.46471e-07
4.10921e-07
3.75948e-07
3.41775e-07
3.086e-07
2.76583e-07
2.45846e-07
2.16466e-07
1.88476e-07
1.61866e-07
1.36581e-07
1.12526e-07
8.95684e-08
6.75414e-08
4.62486e-08
2.54702e-08
4.3818e-11
1.64162e-13
1.65026e-13
4.40501e-11
2.56063e-08
4.64966e-08
6.79045e-08
9.00515e-08
1.13135e-07
1.37323e-07
1.6275e-07
1.89512e-07
2.17663e-07
2.47214e-07
2.78131e-07
3.10338e-07
3.43712e-07
3.7809e-07
4.13276e-07
4.49042e-07
4.8514e-07
5.21307e-07
5.57263e-07
5.92715e-07
6.27353e-07
6.60858e-07
6.9291e-07
7.23191e-07
7.51399e-07
7.77248e-07
8.00474e-07
8.20842e-07
8.38143e-07
8.52201e-07
8.62874e-07
8.70053e-07
8.73666e-07
8.73676e-07
8.70082e-07
8.62922e-07
8.52268e-07
8.38227e-07
8.20943e-07
8.00592e-07
7.7738e-07
7.51545e-07
7.23348e-07
6.93077e-07
6.61034e-07
6.27535e-07
5.92901e-07
5.57453e-07
5.21498e-07
4.8533e-07
4.49229e-07
4.13459e-07
3.78268e-07
3.43883e-07
3.10501e-07
2.78284e-07
2.47355e-07
2.17792e-07
1.89628e-07
1.62853e-07
1.37412e-07
1.13209e-07
9.01117e-08
6.79505e-08
4.65286e-08
2.56243e-08
4.4083e-11
1.65154e-13
1.65656e-13
4.42184e-11
2.57042e-08
4.66744e-08
6.81645e-08
9.03967e-08
1.1357e-07
1.37852e-07
1.63378e-07
1.90245e-07
2.18507e-07
2.48175e-07
2.79215e-07
3.1155e-07
3.45056e-07
3.79571e-07
4.14896e-07
4.50803e-07
4.87044e-07
5.23353e-07
5.5945e-07
5.9504e-07
6.29812e-07
6.63448e-07
6.95623e-07
7.26021e-07
7.54337e-07
7.80284e-07
8.03599e-07
8.24043e-07
8.4141e-07
8.55521e-07
8.66235e-07
8.73441e-07
8.77067e-07
8.77077e-07
8.7347e-07
8.66283e-07
8.55588e-07
8.41494e-07
8.24145e-07
8.03716e-07
7.80416e-07
7.54482e-07
7.26177e-07
6.95789e-07
6.63623e-07
6.29994e-07
5.95226e-07
5.59639e-07
5.23543e-07
4.87234e-07
4.5099e-07
4.15079e-07
3.79749e-07
3.45227e-07
3.11712e-07
2.79367e-07
2.48316e-07
2.18636e-07
1.90361e-07
1.63481e-07
1.3794e-07
1.13644e-07
9.04567e-08
6.82103e-08
4.67063e-08
2.57222e-08
4.42512e-11
1.65782e-13
1.66043e-13
4.43221e-11
2.57646e-08
4.6784e-08
6.83247e-08
9.06096e-08
1.13838e-07
1.38178e-07
1.63766e-07
1.90698e-07
2.19029e-07
2.48769e-07
2.79886e-07
3.123e-07
3.45889e-07
3.80489e-07
4.159e-07
4.51896e-07
4.88226e-07
5.24623e-07
5.60808e-07
5.96485e-07
6.31341e-07
6.65057e-07
6.9731e-07
7.27781e-07
7.56164e-07
7.82173e-07
8.05543e-07
8.26037e-07
8.43444e-07
8.57589e-07
8.68327e-07
8.7555e-07
8.79185e-07
8.79195e-07
8.75579e-07
8.68375e-07
8.57655e-07
8.43528e-07
8.26138e-07
8.0566e-07
7.82305e-07
7.56309e-07
7.27937e-07
6.97476e-07
6.65232e-07
6.31522e-07
5.9667e-07
5.60997e-07
5.24813e-07
4.88415e-07
4.52083e-07
4.16083e-07
3.80666e-07
3.46059e-07
3.12462e-07
2.80038e-07
2.4891e-07
2.19157e-07
1.90814e-07
1.63868e-07
1.38266e-07
1.13912e-07
9.06695e-08
6.83705e-08
4.68158e-08
2.57824e-08
4.43548e-11
1.6617e-13
1.66275e-13
4.43842e-11
2.58007e-08
4.68497e-08
6.84207e-08
9.07373e-08
1.13998e-07
1.38374e-07
1.63999e-07
1.9097e-07
2.19342e-07
2.49126e-07
2.80289e-07
3.12751e-07
3.4639e-07
3.81041e-07
4.16506e-07
4.52555e-07
4.88939e-07
5.2539e-07
5.61629e-07
5.97357e-07
6.32265e-07
6.6603e-07
6.9833e-07
7.28845e-07
7.5727e-07
7.83317e-07
8.0672e-07
8.27243e-07
8.44676e-07
8.58841e-07
8.69594e-07
8.76828e-07
8.80468e-07
8.80478e-07
8.76857e-07
8.69642e-07
8.58907e-07
8.4476e-07
8.27344e-07
8.06837e-07
7.83448e-07
7.57415e-07
7.29001e-07
6.98496e-07
6.66205e-07
6.32446e-07
5.97543e-07
5.61817e-07
5.2558e-07
4.89128e-07
4.52742e-07
4.16689e-07
3.81219e-07
3.4656e-07
3.12913e-07
2.80441e-07
2.49267e-07
2.19471e-07
1.91086e-07
1.64101e-07
1.38462e-07
1.14072e-07
9.0797e-08
6.84664e-08
4.68814e-08
2.58186e-08
4.44169e-11
1.66402e-13
1.66411e-13
4.44204e-11
2.58217e-08
4.68879e-08
6.84767e-08
9.08117e-08
1.14092e-07
1.38488e-07
1.64135e-07
1.91129e-07
2.19525e-07
2.49336e-07
2.80525e-07
3.13016e-07
3.46684e-07
3.81366e-07
4.16861e-07
4.52942e-07
4.89357e-07
5.25841e-07
5.62111e-07
5.9787e-07
6.32808e-07
6.66603e-07
6.9893e-07
7.29472e-07
7.57921e-07
7.8399e-07
8.07414e-07
8.27954e-07
8.45401e-07
8.59578e-07
8.70341e-07
8.77581e-07
8.81224e-07
8.81234e-07
8.7761e-07
8.70389e-07
8.59645e-07
8.45486e-07
8.28055e-07
8.07531e-07
7.84121e-07
7.58066e-07
7.29628e-07
6.99097e-07
6.66778e-07
6.32989e-07
5.98056e-07
5.62299e-07
5.2603e-07
4.89546e-07
4.53128e-07
4.17044e-07
3.81543e-07
3.46854e-07
3.13177e-07
2.80677e-07
2.49476e-07
2.19654e-07
1.91244e-07
1.64237e-07
1.38576e-07
1.14166e-07
9.08714e-08
6.85224e-08
4.69197e-08
2.58396e-08
4.4453e-11
1.66537e-13
1.66487e-13
4.44409e-11
2.58337e-08
4.69096e-08
6.85085e-08
9.0854e-08
1.14146e-07
1.38553e-07
1.64212e-07
1.91219e-07
2.1963e-07
2.49455e-07
2.8066e-07
3.13166e-07
3.46851e-07
3.81551e-07
4.17064e-07
4.53163e-07
4.89597e-07
5.26098e-07
5.62386e-07
5.98164e-07
6.33119e-07
6.66931e-07
6.99274e-07
7.29831e-07
7.58294e-07
7.84376e-07
8.07812e-07
8.28362e-07
8.45818e-07
8.60002e-07
8.7077e-07
8.78013e-07
8.81658e-07
8.81668e-07
8.78042e-07
8.70818e-07
8.60068e-07
8.45902e-07
8.28463e-07
8.07928e-07
7.84508e-07
7.58439e-07
7.29987e-07
6.99441e-07
6.67105e-07
6.333e-07
5.98349e-07
5.62575e-07
5.26288e-07
4.89785e-07
4.53349e-07
4.17247e-07
3.81728e-07
3.47022e-07
3.13328e-07
2.80811e-07
2.49595e-07
2.19758e-07
1.91335e-07
1.64314e-07
1.38641e-07
1.14219e-07
9.09137e-08
6.85542e-08
4.69414e-08
2.58516e-08
4.44735e-11
1.66614e-13
1.6653e-13
4.44522e-11
2.58403e-08
4.69216e-08
6.85261e-08
9.08773e-08
1.14175e-07
1.38589e-07
1.64255e-07
1.91269e-07
2.19688e-07
2.49521e-07
2.80734e-07
3.1325e-07
3.46945e-07
3.81654e-07
4.17177e-07
4.53286e-07
4.8973e-07
5.26242e-07
5.6254e-07
5.98328e-07
6.33293e-07
6.67114e-07
6.99467e-07
7.30032e-07
7.58503e-07
7.84592e-07
8.08034e-07
8.2859e-07
8.46051e-07
8.60238e-07
8.7101e-07
8.78255e-07
8.81901e-07
8.8191e-07
8.78284e-07
8.71058e-07
8.60305e-07
8.46135e-07
8.28691e-07
8.08151e-07
7.84723e-07
7.58647e-07
7.30188e-07
6.99633e-07
6.67289e-07
6.33474e-07
5.98513e-07
5.62728e-07
5.26431e-07
4.89919e-07
4.53472e-07
4.1736e-07
3.81831e-07
3.47115e-07
3.13412e-07
2.80886e-07
2.49661e-07
2.19816e-07
1.91385e-07
1.64357e-07
1.38677e-07
1.14249e-07
9.0937e-08
6.85717e-08
4.69534e-08
2.58581e-08
4.44849e-11
1.66656e-13
1.66552e-13
4.44583e-11
2.58438e-08
4.69281e-08
6.85355e-08
9.08899e-08
1.14191e-07
1.38608e-07
1.64278e-07
1.91297e-07
2.19719e-07
2.49556e-07
2.80775e-07
3.13296e-07
3.46995e-07
3.81709e-07
4.17238e-07
4.53353e-07
4.89802e-07
5.2632e-07
5.62624e-07
5.98417e-07
6.33387e-07
6.67214e-07
6.99571e-07
7.30141e-07
7.58616e-07
7.8471e-07
8.08155e-07
8.28714e-07
8.46177e-07
8.60368e-07
8.7114e-07
8.78386e-07
8.82033e-07
8.82043e-07
8.78415e-07
8.71188e-07
8.60434e-07
8.46262e-07
8.28815e-07
8.08272e-07
7.84841e-07
7.58761e-07
7.30297e-07
6.99737e-07
6.67388e-07
6.33568e-07
5.98602e-07
5.62812e-07
5.26509e-07
4.89991e-07
4.53539e-07
4.17421e-07
3.81886e-07
3.47165e-07
3.13457e-07
2.80927e-07
2.49697e-07
2.19847e-07
1.91412e-07
1.6438e-07
1.38696e-07
1.14265e-07
9.09496e-08
6.85812e-08
4.69598e-08
2.58617e-08
4.4491e-11
1.66679e-13
1.66564e-13
4.44615e-11
2.58457e-08
4.69315e-08
6.85405e-08
9.08965e-08
1.14199e-07
1.38619e-07
1.6429e-07
1.91311e-07
2.19735e-07
2.49575e-07
2.80796e-07
3.13319e-07
3.47022e-07
3.81739e-07
4.17271e-07
4.53388e-07
4.8984e-07
5.26361e-07
5.62668e-07
5.98464e-07
6.33438e-07
6.67267e-07
6.99627e-07
7.30199e-07
7.58677e-07
7.84772e-07
8.08219e-07
8.2878e-07
8.46245e-07
8.60436e-07
8.7121e-07
8.78457e-07
8.82103e-07
8.82113e-07
8.78486e-07
8.71258e-07
8.60503e-07
8.46329e-07
8.28881e-07
8.08336e-07
7.84903e-07
7.58821e-07
7.30355e-07
6.99793e-07
6.67441e-07
6.33618e-07
5.9865e-07
5.62856e-07
5.2655e-07
4.90029e-07
4.53575e-07
4.17453e-07
3.81916e-07
3.47192e-07
3.13481e-07
2.80948e-07
2.49716e-07
2.19864e-07
1.91426e-07
1.64392e-07
1.38707e-07
1.14273e-07
9.09562e-08
6.85861e-08
4.69632e-08
2.58636e-08
4.44942e-11
1.66691e-13
1.6657e-13
4.44632e-11
2.58467e-08
4.69332e-08
6.85431e-08
9.08999e-08
1.14204e-07
1.38624e-07
1.64296e-07
1.91318e-07
2.19744e-07
2.49585e-07
2.80807e-07
3.13332e-07
3.47035e-07
3.81754e-07
4.17287e-07
4.53406e-07
4.8986e-07
5.26382e-07
5.62691e-07
5.98488e-07
6.33463e-07
6.67294e-07
6.99655e-07
7.30229e-07
7.58708e-07
7.84804e-07
8.08253e-07
8.28814e-07
8.4628e-07
8.60472e-07
8.71246e-07
8.78493e-07
8.8214e-07
8.82149e-07
8.78522e-07
8.71294e-07
8.60538e-07
8.46364e-07
8.28916e-07
8.0837e-07
7.84936e-07
7.58853e-07
7.30385e-07
6.99822e-07
6.67468e-07
6.33644e-07
5.98674e-07
5.62879e-07
5.26572e-07
4.90049e-07
4.53593e-07
4.1747e-07
3.81931e-07
3.47206e-07
3.13493e-07
2.80959e-07
2.49725e-07
2.19872e-07
1.91434e-07
1.64398e-07
1.38712e-07
1.14277e-07
9.09596e-08
6.85887e-08
4.6965e-08
2.58645e-08
4.44958e-11
1.66697e-13
1.66574e-13
4.4464e-11
2.58471e-08
4.69341e-08
6.85443e-08
9.09016e-08
1.14206e-07
1.38626e-07
1.643e-07
1.91322e-07
2.19748e-07
2.4959e-07
2.80813e-07
3.13338e-07
3.47042e-07
3.81762e-07
4.17296e-07
4.53415e-07
4.8987e-07
5.26393e-07
5.62702e-07
5.98501e-07
6.33477e-07
6.67308e-07
6.9967e-07
7.30244e-07
7.58724e-07
7.84821e-07
8.0827e-07
8.28832e-07
8.46298e-07
8.6049e-07
8.71264e-07
8.78511e-07
8.82158e-07
8.82168e-07
8.7854e-07
8.71312e-07
8.60556e-07
8.46382e-07
8.28933e-07
8.08387e-07
7.84952e-07
7.58868e-07
7.304e-07
6.99836e-07
6.67482e-07
6.33657e-07
5.98686e-07
5.62891e-07
5.26583e-07
4.90059e-07
4.53602e-07
4.17478e-07
3.81939e-07
3.47212e-07
3.135e-07
2.80964e-07
2.4973e-07
2.19877e-07
1.91437e-07
1.64402e-07
1.38714e-07
1.1428e-07
9.09613e-08
6.859e-08
4.69658e-08
2.5865e-08
4.44966e-11
1.667e-13
1.66575e-13
4.44644e-11
2.58474e-08
4.69345e-08
6.8545e-08
9.09025e-08
1.14207e-07
1.38628e-07
1.64301e-07
1.91324e-07
2.1975e-07
2.49592e-07
2.80815e-07
3.13341e-07
3.47046e-07
3.81765e-07
4.173e-07
4.5342e-07
4.89875e-07
5.26399e-07
5.62708e-07
5.98507e-07
6.33483e-07
6.67315e-07
6.99677e-07
7.30252e-07
7.58732e-07
7.84829e-07
8.08278e-07
8.2884e-07
8.46306e-07
8.60499e-07
8.71273e-07
8.78521e-07
8.82167e-07
8.82177e-07
8.7855e-07
8.71321e-07
8.60565e-07
8.46391e-07
8.28941e-07
8.08395e-07
7.8496e-07
7.58876e-07
7.30408e-07
6.99843e-07
6.67489e-07
6.33664e-07
5.98692e-07
5.62897e-07
5.26588e-07
4.90064e-07
4.53607e-07
4.17483e-07
3.81943e-07
3.47216e-07
3.13503e-07
2.80967e-07
2.49733e-07
2.19879e-07
1.91439e-07
1.64403e-07
1.38716e-07
1.14281e-07
9.09622e-08
6.85906e-08
4.69663e-08
2.58652e-08
4.4497e-11
1.66701e-13
1.66576e-13
4.44646e-11
2.58475e-08
4.69347e-08
6.85453e-08
9.09028e-08
1.14207e-07
1.38628e-07
1.64302e-07
1.91324e-07
2.19751e-07
2.49593e-07
2.80817e-07
3.13343e-07
3.47047e-07
3.81767e-07
4.17302e-07
4.53422e-07
4.89878e-07
5.26401e-07
5.62711e-07
5.9851e-07
6.33486e-07
6.67318e-07
6.99681e-07
7.30255e-07
7.58735e-07
7.84833e-07
8.08282e-07
8.28844e-07
8.46311e-07
8.60503e-07
8.71278e-07
8.78525e-07
8.82172e-07
8.82182e-07
8.78554e-07
8.71326e-07
8.6057e-07
8.46395e-07
8.28946e-07
8.08399e-07
7.84964e-07
7.5888e-07
7.30412e-07
6.99847e-07
6.67492e-07
6.33667e-07
5.98695e-07
5.62899e-07
5.26591e-07
4.90066e-07
4.53609e-07
4.17485e-07
3.81944e-07
3.47218e-07
3.13504e-07
2.80968e-07
2.49734e-07
2.1988e-07
1.9144e-07
1.64404e-07
1.38716e-07
1.14281e-07
9.09626e-08
6.85909e-08
4.69665e-08
2.58653e-08
4.44972e-11
1.66702e-13
1.66576e-13
4.44647e-11
2.58475e-08
4.69348e-08
6.85454e-08
9.0903e-08
1.14207e-07
1.38629e-07
1.64302e-07
1.91325e-07
2.19752e-07
2.49594e-07
2.80817e-07
3.13343e-07
3.47048e-07
3.81768e-07
4.17303e-07
4.53423e-07
4.89879e-07
5.26402e-07
5.62712e-07
5.98511e-07
6.33488e-07
6.67319e-07
6.99682e-07
7.30257e-07
7.58737e-07
7.84835e-07
8.08284e-07
8.28846e-07
8.46313e-07
8.60505e-07
8.7128e-07
8.78527e-07
8.82174e-07
8.82184e-07
8.78556e-07
8.71328e-07
8.60572e-07
8.46397e-07
8.28948e-07
8.08401e-07
7.84966e-07
7.58882e-07
7.30413e-07
6.99848e-07
6.67494e-07
6.33669e-07
5.98697e-07
5.62901e-07
5.26592e-07
4.90068e-07
4.5361e-07
4.17485e-07
3.81945e-07
3.47218e-07
3.13505e-07
2.80969e-07
2.49734e-07
2.1988e-07
1.9144e-07
1.64404e-07
1.38717e-07
1.14281e-07
9.09627e-08
6.8591e-08
4.69666e-08
2.58654e-08
4.44973e-11
1.66702e-13
1.66576e-13
4.44647e-11
2.58476e-08
4.69349e-08
6.85455e-08
9.09031e-08
1.14208e-07
1.38629e-07
1.64302e-07
1.91325e-07
2.19752e-07
2.49594e-07
2.80818e-07
3.13344e-07
3.47049e-07
3.81768e-07
4.17303e-07
4.53424e-07
4.89879e-07
5.26403e-07
5.62713e-07
5.98512e-07
6.33488e-07
6.6732e-07
6.99683e-07
7.30258e-07
7.58738e-07
7.84836e-07
8.08285e-07
8.28847e-07
8.46314e-07
8.60506e-07
8.71281e-07
8.78528e-07
8.82175e-07
8.82185e-07
8.78557e-07
8.71329e-07
8.60573e-07
8.46398e-07
8.28948e-07
8.08402e-07
7.84967e-07
7.58883e-07
7.30414e-07
6.99849e-07
6.67495e-07
6.33669e-07
5.98697e-07
5.62901e-07
5.26592e-07
4.90068e-07
4.5361e-07
4.17486e-07
3.81946e-07
3.47219e-07
3.13505e-07
2.80969e-07
2.49735e-07
2.1988e-07
1.91441e-07
1.64404e-07
1.38717e-07
1.14281e-07
9.09628e-08
6.85911e-08
4.69666e-08
2.58654e-08
4.44974e-11
1.66703e-13
1.66576e-13
4.44647e-11
2.58476e-08
4.69349e-08
6.85455e-08
9.09032e-08
1.14208e-07
1.38629e-07
1.64302e-07
1.91325e-07
2.19752e-07
2.49594e-07
2.80818e-07
3.13344e-07
3.47049e-07
3.81769e-07
4.17303e-07
4.53424e-07
4.89879e-07
5.26403e-07
5.62713e-07
5.98512e-07
6.33489e-07
6.67321e-07
6.99683e-07
7.30258e-07
7.58738e-07
7.84836e-07
8.08285e-07
8.28848e-07
8.46314e-07
8.60506e-07
8.71281e-07
8.78528e-07
8.82175e-07
8.82185e-07
8.78557e-07
8.71329e-07
8.60573e-07
8.46398e-07
8.28949e-07
8.08402e-07
7.84967e-07
7.58883e-07
7.30414e-07
6.9985e-07
6.67495e-07
6.3367e-07
5.98698e-07
5.62901e-07
5.26593e-07
4.90068e-07
4.5361e-07
4.17486e-07
3.81946e-07
3.47219e-07
3.13505e-07
2.80969e-07
2.49735e-07
2.1988e-07
1.91441e-07
1.64404e-07
1.38717e-07
1.14281e-07
9.09629e-08
6.85911e-08
4.69666e-08
2.58654e-08
4.44974e-11
1.66703e-13
1.66576e-13
4.44648e-11
2.58476e-08
4.69349e-08
6.85455e-08
9.09032e-08
1.14208e-07
1.38629e-07
1.64302e-07
1.91325e-07
2.19752e-07
2.49594e-07
2.80818e-07
3.13344e-07
3.47049e-07
3.81769e-07
4.17303e-07
4.53424e-07
4.8988e-07
5.26403e-07
5.62713e-07
5.98512e-07
6.33489e-07
6.67321e-07
6.99684e-07
7.30258e-07
7.58739e-07
7.84836e-07
8.08285e-07
8.28848e-07
8.46314e-07
8.60507e-07
8.71281e-07
8.78529e-07
8.82176e-07
8.82185e-07
8.78558e-07
8.71329e-07
8.60573e-07
8.46398e-07
8.28949e-07
8.08402e-07
7.84968e-07
7.58883e-07
7.30415e-07
6.9985e-07
6.67495e-07
6.3367e-07
5.98698e-07
5.62902e-07
5.26593e-07
4.90068e-07
4.53611e-07
4.17486e-07
3.81946e-07
3.47219e-07
3.13505e-07
2.80969e-07
2.49735e-07
2.1988e-07
1.91441e-07
1.64404e-07
1.38717e-07
1.14281e-07
9.09629e-08
6.85911e-08
4.69666e-08
2.58654e-08
4.44974e-11
1.66703e-13
1.66576e-13
4.44648e-11
2.58476e-08
4.69349e-08
6.85455e-08
9.09032e-08
1.14208e-07
1.38629e-07
1.64302e-07
1.91325e-07
2.19752e-07
2.49594e-07
2.80818e-07
3.13344e-07
3.47049e-07
3.81769e-07