/*--------------------------------*- C++ -*----------------------------------*\
  =========                 |
  \\      /  F ield         | OpenFOAM: The Open Source CFD Toolbox
   \\    /   O peration     | Website:  https://openfoam.org
    \\  /    A nd           | Version:  13
     \\/     M anipulation  |
\*---------------------------------------------------------------------------*/
FoamFile
{
    format      ascii;
    class       volScalarField;
    location    "40";
    object      rhok;
}
// * * * * * * * * * * * * * * * * * * * * * * * * * * * * * * * * * * * * * //

dimensions      [];

internalField   nonuniform List<scalar> 
315000
(
0.444296
0.416342
0.413682
0.412302
0.410937
0.409591
0.408263
0.406953
0.405663
0.404393
0.403145
0.401917
0.400712
0.399529
0.398369
0.397233
0.396122
0.395035
0.393973
0.392936
0.391926
0.390941
0.389983
0.389052
0.388148
0.38727
0.38642
0.385597
0.384801
0.384032
0.38329
0.382575
0.381886
0.381224
0.380588
0.379977
0.379392
0.378832
0.378296
0.377783
0.377295
0.376829
0.376385
0.375963
0.375561
0.37518
0.374818
0.374475
0.374149
0.373841
0.37355
0.373274
0.373013
0.372766
0.372532
0.37231
0.372101
0.371902
0.371713
0.371533
0.371362
0.371198
0.371041
0.37089
0.370745
0.370603
0.370465
0.37033
0.370197
0.370066
0.444296
0.416337
0.413677
0.412295
0.410931
0.409584
0.408255
0.406945
0.405655
0.404385
0.403135
0.401907
0.400701
0.399517
0.398357
0.39722
0.396108
0.39502
0.393958
0.39292
0.391909
0.390924
0.389966
0.389034
0.388129
0.387251
0.3864
0.385577
0.38478
0.384011
0.383269
0.382554
0.381865
0.381203
0.380567
0.379956
0.379371
0.378811
0.378275
0.377763
0.377275
0.376809
0.376366
0.375944
0.375543
0.375162
0.374801
0.374458
0.374134
0.373826
0.373535
0.37326
0.373
0.372753
0.37252
0.3723
0.372091
0.371893
0.371704
0.371526
0.371355
0.371192
0.371036
0.370886
0.370741
0.3706
0.370463
0.370329
0.370196
0.370065
0.444297
0.416345
0.413685
0.412304
0.41094
0.409593
0.408264
0.406954
0.405663
0.404393
0.403143
0.401914
0.400707
0.399523
0.398362
0.397224
0.396111
0.395022
0.393959
0.392921
0.391908
0.390922
0.389963
0.38903
0.388124
0.387245
0.386394
0.38557
0.384772
0.384003
0.38326
0.382544
0.381854
0.381192
0.380555
0.379944
0.379359
0.378799
0.378263
0.377751
0.377262
0.376797
0.376354
0.375932
0.375531
0.375151
0.374789
0.374447
0.374123
0.373816
0.373525
0.373251
0.372991
0.372745
0.372512
0.372292
0.372084
0.371886
0.371698
0.37152
0.37135
0.371187
0.371032
0.370882
0.370738
0.370598
0.370461
0.370327
0.370195
0.370065
0.444297
0.416363
0.413705
0.412325
0.410961
0.409614
0.408286
0.406975
0.405685
0.404413
0.403163
0.401934
0.400726
0.399541
0.398379
0.397241
0.396127
0.395037
0.393972
0.392933
0.391919
0.390932
0.389971
0.389037
0.38813
0.38725
0.386398
0.385572
0.384774
0.384003
0.383259
0.382542
0.381852
0.381189
0.380551
0.37994
0.379354
0.378793
0.378257
0.377745
0.377256
0.37679
0.376347
0.375925
0.375524
0.375143
0.374782
0.37444
0.374116
0.373809
0.373519
0.373244
0.372984
0.372739
0.372506
0.372287
0.372078
0.371881
0.371694
0.371516
0.371346
0.371184
0.371029
0.37088
0.370736
0.370596
0.37046
0.370326
0.370195
0.370065
0.444298
0.416388
0.413731
0.412352
0.410988
0.409642
0.408314
0.407004
0.405713
0.404442
0.403191
0.401961
0.400753
0.399567
0.398405
0.397265
0.39615
0.395059
0.393993
0.392952
0.391938
0.390949
0.389987
0.389052
0.388143
0.387262
0.386408
0.385581
0.384782
0.38401
0.383265
0.382547
0.381856
0.381191
0.380553
0.379941
0.379354
0.378793
0.378256
0.377743
0.377254
0.376787
0.376344
0.375921
0.37552
0.37514
0.374778
0.374436
0.374112
0.373805
0.373515
0.37324
0.37298
0.372735
0.372503
0.372283
0.372075
0.371878
0.371691
0.371513
0.371344
0.371182
0.371027
0.370878
0.370734
0.370595
0.370459
0.370326
0.370194
0.370065
0.444298
0.416412
0.413758
0.412379
0.411017
0.409671
0.408343
0.407033
0.405742
0.404471
0.40322
0.40199
0.400781
0.399595
0.398431
0.397291
0.396175
0.395083
0.394016
0.392974
0.391958
0.390968
0.390005
0.389069
0.388159
0.387276
0.386421
0.385593
0.384793
0.384019
0.383273
0.382554
0.381862
0.381197
0.380558
0.379944
0.379357
0.378795
0.378257
0.377744
0.377254
0.376787
0.376343
0.375921
0.375519
0.375138
0.374777
0.374434
0.37411
0.373803
0.373513
0.373238
0.372978
0.372733
0.372501
0.372281
0.372073
0.371876
0.371689
0.371511
0.371342
0.371181
0.371026
0.370877
0.370733
0.370594
0.370458
0.370325
0.370194
0.370064
0.444299
0.416434
0.413781
0.412403
0.411041
0.409696
0.408368
0.407058
0.405768
0.404496
0.403245
0.402015
0.400806
0.399619
0.398455
0.397314
0.396197
0.395104
0.394036
0.392994
0.391977
0.390986
0.390022
0.389084
0.388173
0.38729
0.386433
0.385605
0.384803
0.384029
0.383282
0.382562
0.381869
0.381203
0.380563
0.379949
0.379361
0.378798
0.37826
0.377746
0.377256
0.376788
0.376344
0.375921
0.375519
0.375138
0.374776
0.374434
0.374109
0.373802
0.373511
0.373237
0.372977
0.372732
0.372499
0.37228
0.372072
0.371875
0.371688
0.37151
0.371341
0.37118
0.371025
0.370876
0.370733
0.370593
0.370458
0.370325
0.370194
0.370064
0.444299
0.41645
0.413798
0.412421
0.411059
0.409715
0.408387
0.407078
0.405787
0.404516
0.403264
0.402034
0.400825
0.399638
0.398473
0.397332
0.396214
0.395121
0.394052
0.393009
0.391991
0.391
0.390035
0.389096
0.388185
0.3873
0.386443
0.385614
0.384811
0.384036
0.383289
0.382568
0.381874
0.381208
0.380567
0.379953
0.379364
0.378801
0.378262
0.377748
0.377257
0.37679
0.376345
0.375922
0.37552
0.375138
0.374776
0.374434
0.374109
0.373802
0.373511
0.373236
0.372977
0.372731
0.372499
0.372279
0.372071
0.371874
0.371687
0.37151
0.371341
0.371179
0.371024
0.370876
0.370732
0.370593
0.370457
0.370325
0.370194
0.370064
0.444299
0.41646
0.41381
0.412433
0.411072
0.409727
0.4084
0.407091
0.4058
0.404529
0.403278
0.402047
0.400838
0.39965
0.398485
0.397344
0.396226
0.395132
0.394063
0.39302
0.392001
0.391009
0.390044
0.389105
0.388193
0.387308
0.38645
0.38562
0.384817
0.384042
0.383294
0.382573
0.381879
0.381211
0.38057
0.379956
0.379367
0.378803
0.378264
0.37775
0.377259
0.376791
0.376346
0.375922
0.37552
0.375139
0.374777
0.374434
0.374109
0.373802
0.373511
0.373236
0.372976
0.372731
0.372499
0.372279
0.372071
0.371874
0.371687
0.37151
0.37134
0.371179
0.371024
0.370875
0.370732
0.370593
0.370457
0.370325
0.370194
0.370064
0.4443
0.416467
0.413817
0.41244
0.411079
0.409735
0.408408
0.407099
0.405808
0.404537
0.403286
0.402055
0.400846
0.399658
0.398493
0.397351
0.396233
0.395139
0.39407
0.393026
0.392008
0.391016
0.39005
0.38911
0.388198
0.387313
0.386455
0.385624
0.384821
0.384045
0.383297
0.382576
0.381881
0.381214
0.380573
0.379958
0.379368
0.378805
0.378265
0.377751
0.37726
0.376792
0.376346
0.375923
0.375521
0.375139
0.374777
0.374434
0.374109
0.373802
0.373511
0.373236
0.372976
0.372731
0.372498
0.372279
0.372071
0.371874
0.371687
0.371509
0.37134
0.371179
0.371024
0.370875
0.370732
0.370593
0.370457
0.370325
0.370194
0.370064
0.4443
0.416471
0.413821
0.412445
0.411084
0.40974
0.408413
0.407104
0.405813
0.404542
0.403291
0.40206
0.40085
0.399663
0.398498
0.397356
0.396238
0.395144
0.394074
0.39303
0.392012
0.391019
0.390053
0.389114
0.388201
0.387316
0.386458
0.385627
0.384823
0.384047
0.383299
0.382577
0.381883
0.381215
0.380574
0.379959
0.379369
0.378805
0.378266
0.377751
0.37726
0.376792
0.376347
0.375923
0.375521
0.375139
0.374777
0.374434
0.374109
0.373802
0.373511
0.373236
0.372976
0.372731
0.372498
0.372279
0.372071
0.371874
0.371687
0.371509
0.37134
0.371179
0.371024
0.370875
0.370732
0.370593
0.370457
0.370325
0.370194
0.370064
0.4443
0.416473
0.413823
0.412447
0.411086
0.409742
0.408415
0.407106
0.405816
0.404544
0.403293
0.402062
0.400853
0.399665
0.3985
0.397358
0.39624
0.395146
0.394076
0.393032
0.392014
0.391021
0.390055
0.389115
0.388203
0.387317
0.386459
0.385628
0.384825
0.384049
0.3833
0.382578
0.381884
0.381216
0.380575
0.379959
0.37937
0.378806
0.378267
0.377752
0.377261
0.376793
0.376347
0.375924
0.375521
0.375139
0.374777
0.374434
0.374109
0.373802
0.373511
0.373236
0.372976
0.372731
0.372498
0.372279
0.372071
0.371874
0.371687
0.371509
0.37134
0.371179
0.371024
0.370875
0.370732
0.370593
0.370457
0.370325
0.370194
0.370064
0.4443
0.416474
0.413824
0.412448
0.411087
0.409743
0.408416
0.407107
0.405817
0.404546
0.403294
0.402064
0.400854
0.399667
0.398501
0.397359
0.396241
0.395147
0.394077
0.393033
0.392015
0.391022
0.390056
0.389116
0.388203
0.387318
0.38646
0.385629
0.384825
0.384049
0.3833
0.382579
0.381884
0.381216
0.380575
0.37996
0.37937
0.378806
0.378267
0.377752
0.377261
0.376793
0.376347
0.375924
0.375521
0.375139
0.374777
0.374434
0.374109
0.373802
0.373511
0.373236
0.372976
0.372731
0.372498
0.372279
0.372071
0.371874
0.371687
0.371509
0.37134
0.371179
0.371024
0.370875
0.370732
0.370593
0.370457
0.370325
0.370194
0.370064
0.4443
0.416474
0.413825
0.412448
0.411088
0.409744
0.408417
0.407108
0.405817
0.404546
0.403295
0.402064
0.400855
0.399667
0.398502
0.39736
0.396242
0.395147
0.394078
0.393034
0.392015
0.391022
0.390056
0.389117
0.388204
0.387318
0.38646
0.385629
0.384826
0.384049
0.383301
0.382579
0.381884
0.381217
0.380575
0.37996
0.37937
0.378806
0.378267
0.377752
0.377261
0.376793
0.376347
0.375924
0.375521
0.375139
0.374777
0.374434
0.374109
0.373802
0.373511
0.373236
0.372976
0.372731
0.372498
0.372279
0.372071
0.371874
0.371687
0.371509
0.37134
0.371179
0.371024
0.370875
0.370732
0.370593
0.370457
0.370325
0.370194
0.370064
0.4443
0.416474
0.413825
0.412449
0.411088
0.409744
0.408417
0.407108
0.405818
0.404547
0.403295
0.402065
0.400855
0.399667
0.398502
0.39736
0.396242
0.395148
0.394078
0.393034
0.392015
0.391023
0.390056
0.389117
0.388204
0.387318
0.38646
0.385629
0.384826
0.38405
0.383301
0.382579
0.381884
0.381217
0.380575
0.37996
0.379371
0.378806
0.378267
0.377752
0.377261
0.376793
0.376347
0.375924
0.375521
0.375139
0.374777
0.374434
0.374109
0.373802
0.373511
0.373236
0.372976
0.372731
0.372498
0.372279
0.372071
0.371874
0.371687
0.371509
0.37134
0.371179
0.371024
0.370875
0.370732
0.370593
0.370457
0.370325
0.370194
0.370064
0.4443
0.416474
0.413825
0.412449
0.411088
0.409744
0.408417
0.407108
0.405818
0.404547
0.403295
0.402065
0.400855
0.399667
0.398502
0.39736
0.396242
0.395148
0.394078
0.393034
0.392015
0.391023
0.390056
0.389117
0.388204
0.387319
0.38646
0.385629
0.384826
0.38405
0.383301
0.382579
0.381885
0.381217
0.380575
0.37996
0.379371
0.378806
0.378267
0.377752
0.377261
0.376793
0.376347
0.375924
0.375521
0.375139
0.374777
0.374434
0.374109
0.373802
0.373511
0.373236
0.372976
0.372731
0.372498
0.372279
0.372071
0.371874
0.371687
0.371509
0.37134
0.371179
0.371024
0.370875
0.370732
0.370593
0.370457
0.370325
0.370194
0.370064
0.4443
0.416474
0.413825
0.412449
0.411088
0.409744
0.408417
0.407108
0.405818
0.404547
0.403295
0.402065
0.400855
0.399668
0.398502
0.39736
0.396242
0.395148
0.394078
0.393034
0.392015
0.391023
0.390056
0.389117
0.388204
0.387319
0.38646
0.385629
0.384826
0.38405
0.383301
0.382579
0.381885
0.381217
0.380575
0.37996
0.379371
0.378806
0.378267
0.377752
0.377261
0.376793
0.376347
0.375924
0.375521
0.375139
0.374777
0.374434
0.374109
0.373802
0.373511
0.373236
0.372976
0.372731
0.372498
0.372279
0.372071
0.371874
0.371687
0.371509
0.37134
0.371179
0.371024
0.370875
0.370732
0.370593
0.370457
0.370325
0.370194
0.370064
0.4443
0.416474
0.413825
0.412449
0.411088
0.409744
0.408417
0.407108
0.405818
0.404547
0.403295
0.402065
0.400855
0.399668
0.398502
0.39736
0.396242
0.395148
0.394078
0.393034
0.392015
0.391023
0.390056
0.389117
0.388204
0.387319
0.38646
0.385629
0.384826
0.38405
0.383301
0.382579
0.381885
0.381217
0.380575
0.37996
0.379371
0.378806
0.378267
0.377752
0.377261
0.376793
0.376347
0.375924
0.375521
0.375139
0.374777
0.374434
0.374109
0.373802
0.373511
0.373236
0.372976
0.372731
0.372498
0.372279
0.372071
0.371874
0.371687
0.371509
0.37134
0.371179
0.371024
0.370875
0.370732
0.370593
0.370457
0.370325
0.370194
0.370064
0.4443
0.416474
0.413825
0.412449
0.411088
0.409744
0.408417
0.407108
0.405818
0.404547
0.403295
0.402065
0.400855
0.399668
0.398502
0.39736
0.396242
0.395148
0.394078
0.393034
0.392015
0.391023
0.390056
0.389117
0.388204
0.387319
0.38646
0.385629
0.384826
0.38405
0.383301
0.382579
0.381885
0.381217
0.380575
0.37996
0.379371
0.378806
0.378267
0.377752
0.377261
0.376793
0.376347
0.375924
0.375521
0.375139
0.374777
0.374434
0.374109
0.373802
0.373511
0.373236
0.372976
0.372731
0.372498
0.372279
0.372071
0.371874
0.371687
0.371509
0.37134
0.371179
0.371024
0.370875
0.370732
0.370593
0.370457
0.370325
0.370194
0.370064
0.4443
0.416474
0.413825
0.412449
0.411088
0.409744
0.408417
0.407108
0.405818
0.404547
0.403295
0.402065
0.400855
0.399668
0.398502
0.39736
0.396242
0.395148
0.394078
0.393034
0.392015
0.391023
0.390056
0.389117
0.388204
0.387319
0.38646
0.385629
0.384826
0.38405
0.383301
0.382579
0.381885
0.381217
0.380575
0.37996
0.379371
0.378806
0.378267
0.377752
0.377261
0.376793
0.376347
0.375924
0.375521
0.375139
0.374777
0.374434
0.374109
0.373802
0.373511
0.373236
0.372976
0.372731
0.372498
0.372279
0.372071
0.371874
0.371687
0.371509
0.37134
0.371179
0.371024
0.370875
0.370732
0.370593
0.370457
0.370325
0.370194
0.370064
0.4443
0.416474
0.413825
0.412449
0.411088
0.409744
0.408417
0.407108
0.405818
0.404547
0.403295
0.402065
0.400855
0.399668
0.398502
0.39736
0.396242
0.395148
0.394078
0.393034
0.392015
0.391023
0.390056
0.389117
0.388204
0.387319
0.38646
0.385629
0.384826
0.38405
0.383301
0.382579
0.381885
0.381217
0.380575
0.37996
0.379371
0.378806
0.378267
0.377752
0.377261
0.376793
0.376347
0.375924
0.375521
0.375139
0.374777
0.374434
0.374109
0.373802
0.373511
0.373236
0.372976
0.372731
0.372498
0.372279
0.372071
0.371874
0.371687
0.371509
0.37134
0.371179
0.371024
0.370875
0.370732
0.370593
0.370457
0.370325
0.370194
0.370064
0.4443
0.416474
0.413825
0.412449
0.411088
0.409744
0.408417
0.407108
0.405818
0.404547
0.403295
0.402065
0.400855
0.399668
0.398502
0.39736
0.396242
0.395148
0.394078
0.393034
0.392015
0.391023
0.390056
0.389117
0.388204
0.387319
0.38646
0.385629
0.384826
0.38405
0.383301
0.382579
0.381885
0.381217
0.380575
0.37996
0.379371
0.378806
0.378267
0.377752
0.377261
0.376793
0.376347
0.375924
0.375521
0.375139
0.374777
0.374434
0.374109
0.373802
0.373511
0.373236
0.372976
0.372731
0.372498
0.372279
0.372071
0.371874
0.371687
0.371509
0.37134
0.371179
0.371024
0.370875
0.370732
0.370593
0.370457
0.370325
0.370194
0.370064
0.4443
0.416474
0.413825
0.412449
0.411088
0.409744
0.408417
0.407108
0.405818
0.404547
0.403295
0.402065
0.400855
0.399668
0.398502
0.39736
0.396242
0.395148
0.394078
0.393034
0.392015
0.391023
0.390056
0.389117
0.388204
0.387319
0.38646
0.385629
0.384826
0.38405
0.383301
0.382579
0.381885
0.381217
0.380575
0.37996
0.379371
0.378806
0.378267
0.377752
0.377261
0.376793
0.376347
0.375924
0.375521
0.375139
0.374777
0.374434
0.374109
0.373802
0.373511
0.373236
0.372976
0.372731
0.372498
0.372279
0.372071
0.371874
0.371687
0.371509
0.37134
0.371179
0.371024
0.370875
0.370732
0.370593
0.370457
0.370325
0.370194
0.370064
0.4443
0.416474
0.413825
0.412449
0.411088
0.409744
0.408417
0.407108
0.405818
0.404547
0.403295
0.402065
0.400855
0.399668
0.398502
0.39736
0.396242
0.395148
0.394078
0.393034
0.392015
0.391023
0.390056
0.389117
0.388204
0.387319
0.38646
0.385629
0.384826
0.38405
0.383301
0.382579
0.381885
0.381217
0.380575
0.37996
0.379371
0.378806
0.378267
0.377752
0.377261
0.376793
0.376347
0.375924
0.375521
0.375139
0.374777
0.374434
0.374109
0.373802
0.373511
0.373236
0.372976
0.372731
0.372498
0.372279
0.372071
0.371874
0.371687
0.371509
0.37134
0.371179
0.371024
0.370875
0.370732
0.370593
0.370457
0.370325
0.370194
0.370064
0.4443
0.416474
0.413825
0.412449
0.411088
0.409744
0.408417
0.407108
0.405818
0.404547
0.403295
0.402065
0.400855
0.399668
0.398502
0.39736
0.396242
0.395148
0.394078
0.393034
0.392015
0.391023
0.390056
0.389117
0.388204
0.387319
0.38646
0.385629
0.384826
0.38405
0.383301
0.382579
0.381885
0.381217
0.380575
0.37996
0.379371
0.378806
0.378267
0.377752
0.377261
0.376793
0.376347
0.375924
0.375521
0.375139
0.374777
0.374434
0.374109
0.373802
0.373511
0.373236
0.372976
0.372731
0.372498
0.372279
0.372071
0.371874
0.371687
0.371509
0.37134
0.371179
0.371024
0.370875
0.370732
0.370593
0.370457
0.370325
0.370194
0.370064
0.4443
0.416474
0.413825
0.412449
0.411088
0.409744
0.408417
0.407108
0.405818
0.404547
0.403295
0.402065
0.400855
0.399668
0.398502
0.39736
0.396242
0.395148
0.394078
0.393034
0.392015
0.391023
0.390056
0.389117
0.388204
0.387319
0.38646
0.385629
0.384826
0.38405
0.383301
0.382579
0.381885
0.381217
0.380575
0.37996
0.379371
0.378806
0.378267
0.377752
0.377261
0.376793
0.376347
0.375924
0.375521
0.375139
0.374777
0.374434
0.374109
0.373802
0.373511
0.373236
0.372976
0.372731
0.372498
0.372279
0.372071
0.371874
0.371687
0.371509
0.37134
0.371179
0.371024
0.370875
0.370732
0.370593
0.370457
0.370325
0.370194
0.370064
0.4443
0.416474
0.413825
0.412449
0.411088
0.409744
0.408417
0.407108
0.405818
0.404547
0.403295
0.402065
0.400855
0.399668
0.398502
0.39736
0.396242
0.395148
0.394078
0.393034
0.392015
0.391023
0.390056
0.389117
0.388204
0.387319
0.38646
0.385629
0.384826
0.38405
0.383301
0.382579
0.381885
0.381217
0.380575
0.37996
0.379371
0.378806
0.378267
0.377752
0.377261
0.376793
0.376347
0.375924
0.375521
0.375139
0.374777
0.374434
0.374109
0.373802
0.373511
0.373236
0.372976
0.372731
0.372498
0.372279
0.372071
0.371874
0.371687
0.371509
0.37134
0.371179
0.371024
0.370875
0.370732
0.370593
0.370457
0.370325
0.370194
0.370064
0.4443
0.416474
0.413825
0.412449
0.411088
0.409744
0.408417
0.407108
0.405818
0.404547
0.403295
0.402065
0.400855
0.399668
0.398502
0.39736
0.396242
0.395148
0.394078
0.393034
0.392015
0.391023
0.390056
0.389117
0.388204
0.387319
0.38646
0.385629
0.384826
0.38405
0.383301
0.382579
0.381885
0.381217
0.380575
0.37996
0.379371
0.378806
0.378267
0.377752
0.377261
0.376793
0.376347
0.375924
0.375521
0.375139
0.374777
0.374434
0.374109
0.373802
0.373511
0.373236
0.372976
0.372731
0.372498
0.372279
0.372071
0.371874
0.371687
0.371509
0.37134
0.371179
0.371024
0.370875
0.370732
0.370593
0.370457
0.370325
0.370194
0.370064
0.4443
0.416474
0.413825
0.412449
0.411088
0.409744
0.408417
0.407108
0.405818
0.404547
0.403295
0.402065
0.400855
0.399668
0.398502
0.39736
0.396242
0.395148
0.394078
0.393034
0.392015
0.391023
0.390056
0.389117
0.388204
0.387319
0.38646
0.385629
0.384826
0.38405
0.383301
0.382579
0.381885
0.381217
0.380575
0.37996
0.379371
0.378806
0.378267
0.377752
0.377261
0.376793
0.376347
0.375924
0.375521
0.375139
0.374777
0.374434
0.374109
0.373802
0.373511
0.373236
0.372976
0.372731
0.372498
0.372279
0.372071
0.371874
0.371687
0.371509
0.37134
0.371179
0.371024
0.370875
0.370732
0.370593
0.370457
0.370325
0.370194
0.370064
0.4443
0.416474
0.413825
0.412449
0.411088
0.409744
0.408417
0.407108
0.405818
0.404547
0.403295
0.402065
0.400855
0.399668
0.398502
0.39736
0.396242
0.395148
0.394078
0.393034
0.392015
0.391023
0.390056
0.389117
0.388204
0.387319
0.38646
0.385629
0.384826
0.38405
0.383301
0.382579
0.381885
0.381217
0.380575
0.37996
0.379371
0.378806
0.378267
0.377752
0.377261
0.376793
0.376347
0.375924
0.375521
0.375139
0.374777
0.374434
0.374109
0.373802
0.373511
0.373236
0.372976
0.372731
0.372498
0.372279
0.372071
0.371874
0.371687
0.371509
0.37134
0.371179
0.371024
0.370875
0.370732
0.370593
0.370457
0.370325
0.370194
0.370064
0.4443
0.416474
0.413825
0.412449
0.411088
0.409744
0.408417
0.407108
0.405818
0.404547
0.403295
0.402065
0.400855
0.399668
0.398502
0.39736
0.396242
0.395148
0.394078
0.393034
0.392015
0.391023
0.390056
0.389117
0.388204
0.387319
0.38646
0.385629
0.384826
0.38405
0.383301
0.382579
0.381885
0.381217
0.380575
0.37996
0.379371
0.378806
0.378267
0.377752
0.377261
0.376793
0.376347
0.375924
0.375521
0.375139
0.374777
0.374434
0.374109
0.373802
0.373511
0.373236
0.372976
0.372731
0.372498
0.372279
0.372071
0.371874
0.371687
0.371509
0.37134
0.371179
0.371024
0.370875
0.370732
0.370593
0.370457
0.370325
0.370194
0.370064
0.4443
0.416474
0.413825
0.412449
0.411088
0.409744
0.408417
0.407108
0.405818
0.404547
0.403295
0.402065
0.400855
0.399668
0.398502
0.39736
0.396242
0.395148
0.394078
0.393034
0.392015
0.391023
0.390056
0.389117
0.388204
0.387319
0.38646
0.385629
0.384826
0.38405
0.383301
0.382579
0.381885
0.381217
0.380575
0.37996
0.379371
0.378806
0.378267
0.377752
0.377261
0.376793
0.376347
0.375924
0.375521
0.375139
0.374777
0.374434
0.374109
0.373802
0.373511
0.373236
0.372976
0.372731
0.372498
0.372279
0.372071
0.371874
0.371687
0.371509
0.37134
0.371179
0.371024
0.370875
0.370732
0.370593
0.370457
0.370325
0.370194
0.370064
0.4443
0.416474
0.413825
0.412449
0.411088
0.409744
0.408417
0.407108
0.405818
0.404547
0.403295
0.402065
0.400855
0.399668
0.398502
0.39736
0.396242
0.395148
0.394078
0.393034
0.392015
0.391023
0.390056
0.389117
0.388204
0.387319
0.38646
0.385629
0.384826
0.38405
0.383301
0.382579
0.381885
0.381217
0.380575
0.37996
0.379371
0.378806
0.378267
0.377752
0.377261
0.376793
0.376347
0.375924
0.375521
0.375139
0.374777
0.374434
0.374109
0.373802
0.373511
0.373236
0.372976
0.372731
0.372498
0.372279
0.372071
0.371874
0.371687
0.371509
0.37134
0.371179
0.371024
0.370875
0.370732
0.370593
0.370457
0.370325
0.370194
0.370064
0.4443
0.416474
0.413825
0.412449
0.411088
0.409744
0.408417
0.407108
0.405818
0.404547
0.403295
0.402065
0.400855
0.399668
0.398502
0.39736
0.396242
0.395148
0.394078
0.393034
0.392015
0.391023
0.390056
0.389117
0.388204
0.387319
0.38646
0.385629
0.384826
0.38405
0.383301
0.382579
0.381885
0.381217
0.380575
0.37996
0.379371
0.378806
0.378267
0.377752
0.377261
0.376793
0.376347
0.375924
0.375521
0.375139
0.374777
0.374434
0.374109
0.373802
0.373511
0.373236
0.372976
0.372731
0.372498
0.372279
0.372071
0.371874
0.371687
0.371509
0.37134
0.371179
0.371024
0.370875
0.370732
0.370593
0.370457
0.370325
0.370194
0.370064
0.4443
0.416474
0.413825
0.412449
0.411088
0.409744
0.408417
0.407108
0.405818
0.404547
0.403295
0.402065
0.400855
0.399668
0.398502
0.39736
0.396242
0.395148
0.394078
0.393034
0.392015
0.391023
0.390056
0.389117
0.388204
0.387319
0.38646
0.385629
0.384826
0.38405
0.383301
0.382579
0.381885
0.381217
0.380575
0.37996
0.379371
0.378806
0.378267
0.377752
0.377261
0.376793
0.376347
0.375924
0.375521
0.375139
0.374777
0.374434
0.374109
0.373802
0.373511
0.373236
0.372976
0.372731
0.372498
0.372279
0.372071
0.371874
0.371687
0.371509
0.37134
0.371179
0.371024
0.370875
0.370732
0.370593
0.370457
0.370325
0.370194
0.370064
0.4443
0.416474
0.413825
0.412449
0.411088
0.409744
0.408417
0.407108
0.405818
0.404547
0.403295
0.402065
0.400855
0.399668
0.398502
0.39736
0.396242
0.395148
0.394078
0.393034
0.392015
0.391023
0.390056
0.389117
0.388204
0.387319
0.38646
0.385629
0.384826
0.38405
0.383301
0.382579
0.381885
0.381217
0.380575
0.37996
0.379371
0.378806
0.378267
0.377752
0.377261
0.376793
0.376347
0.375924
0.375521
0.375139
0.374777
0.374434
0.374109
0.373802
0.373511
0.373236
0.372976
0.372731
0.372498
0.372279
0.372071
0.371874
0.371687
0.371509
0.37134
0.371179
0.371024
0.370875
0.370732
0.370593
0.370457
0.370325
0.370194
0.370064
0.4443
0.416474
0.413825
0.412449
0.411088
0.409744
0.408417
0.407108
0.405818
0.404547
0.403295
0.402065
0.400855
0.399668
0.398502
0.39736
0.396242
0.395148
0.394078
0.393034
0.392015
0.391023
0.390056
0.389117
0.388204
0.387319
0.38646
0.385629
0.384826
0.38405
0.383301
0.382579
0.381885
0.381217
0.380575
0.37996
0.379371
0.378806
0.378267
0.377752
0.377261
0.376793
0.376347
0.375924
0.375521
0.375139
0.374777
0.374434
0.374109
0.373802
0.373511
0.373236
0.372976
0.372731
0.372498
0.372279
0.372071
0.371874
0.371687
0.371509
0.37134
0.371179
0.371024
0.370875
0.370732
0.370593
0.370457
0.370325
0.370194
0.370064
0.4443
0.416474
0.413825
0.412449
0.411088
0.409744
0.408417
0.407108
0.405818
0.404547
0.403295
0.402065
0.400855
0.399668
0.398502
0.39736
0.396242
0.395148
0.394078
0.393034
0.392015
0.391023
0.390056
0.389117
0.388204
0.387319
0.38646
0.385629
0.384826
0.38405
0.383301
0.382579
0.381885
0.381217
0.380575
0.37996
0.379371
0.378806
0.378267
0.377752
0.377261
0.376793
0.376347
0.375924
0.375521
0.375139
0.374777
0.374434
0.374109
0.373802
0.373511
0.373236
0.372976
0.372731
0.372498
0.372279
0.372071
0.371874
0.371687
0.371509
0.37134
0.371179
0.371024
0.370875
0.370732
0.370593
0.370457
0.370325
0.370194
0.370064
0.4443
0.416474
0.413825
0.412449
0.411088
0.409744
0.408417
0.407108
0.405818
0.404547
0.403295
0.402065
0.400855
0.399668
0.398502
0.39736
0.396242
0.395148
0.394078
0.393034
0.392015
0.391023
0.390056
0.389117
0.388204
0.387319
0.38646
0.385629
0.384826
0.38405
0.383301
0.382579
0.381885
0.381217
0.380575
0.37996
0.379371
0.378806
0.378267
0.377752
0.377261
0.376793
0.376347
0.375924
0.375521
0.375139
0.374777
0.374434
0.374109
0.373802
0.373511
0.373236
0.372976
0.372731
0.372498
0.372279
0.372071
0.371874
0.371687
0.371509
0.37134
0.371179
0.371024
0.370875
0.370732
0.370593
0.370457
0.370325
0.370194
0.370064
0.4443
0.416474
0.413825
0.412449
0.411088
0.409744
0.408417
0.407108
0.405818
0.404547
0.403295
0.402065
0.400855
0.399668
0.398502
0.39736
0.396242
0.395148
0.394078
0.393034
0.392015
0.391023
0.390056
0.389117
0.388204
0.387319
0.38646
0.385629
0.384826
0.38405
0.383301
0.382579
0.381885
0.381217
0.380575
0.37996
0.379371
0.378806
0.378267
0.377752
0.377261
0.376793
0.376347
0.375924
0.375521
0.375139
0.374777
0.374434
0.374109
0.373802
0.373511
0.373236
0.372976
0.372731
0.372498
0.372279
0.372071
0.371874
0.371687
0.371509
0.37134
0.371179
0.371024
0.370875
0.370732
0.370593
0.370457
0.370325
0.370194
0.370064
0.4443
0.416474
0.413825
0.412449
0.411088
0.409744
0.408417
0.407108
0.405818
0.404547
0.403295
0.402065
0.400855
0.399668
0.398502
0.39736
0.396242
0.395148
0.394078
0.393034
0.392015
0.391023
0.390056
0.389117
0.388204
0.387319
0.38646
0.385629
0.384826
0.38405
0.383301
0.382579
0.381885
0.381217
0.380575
0.37996
0.379371
0.378806
0.378267
0.377752
0.377261
0.376793
0.376347
0.375924
0.375521
0.375139
0.374777
0.374434
0.374109
0.373802
0.373511
0.373236
0.372976
0.372731
0.372498
0.372279
0.372071
0.371874
0.371687
0.371509
0.37134
0.371179
0.371024
0.370875
0.370732
0.370593
0.370457
0.370325
0.370194
0.370064
0.4443
0.416474
0.413825
0.412449
0.411088
0.409744
0.408417
0.407108
0.405818
0.404547
0.403295
0.402065
0.400855
0.399668
0.398502
0.39736
0.396242
0.395148
0.394078
0.393034
0.392015
0.391023
0.390056
0.389117
0.388204
0.387319
0.38646
0.385629
0.384826
0.38405
0.383301
0.382579
0.381885
0.381217
0.380575
0.37996
0.379371
0.378806
0.378267
0.377752
0.377261
0.376793
0.376347
0.375924
0.375521
0.375139
0.374777
0.374434
0.374109
0.373802
0.373511
0.373236
0.372976
0.372731
0.372498
0.372279
0.372071
0.371874
0.371687
0.371509
0.37134
0.371179
0.371024
0.370875
0.370732
0.370593
0.370457
0.370325
0.370194
0.370064
0.4443
0.416474
0.413825
0.412449
0.411088
0.409744
0.408417
0.407108
0.405818
0.404547
0.403295
0.402065
0.400855
0.399668
0.398502
0.39736
0.396242
0.395148
0.394078
0.393034
0.392015
0.391023
0.390056
0.389117
0.388204
0.387319
0.38646
0.385629
0.384826
0.38405
0.383301
0.382579
0.381885
0.381217
0.380575
0.37996
0.379371
0.378806
0.378267
0.377752
0.377261
0.376793
0.376347
0.375924
0.375521
0.375139
0.374777
0.374434
0.374109
0.373802
0.373511
0.373236
0.372976
0.372731
0.372498
0.372279
0.372071
0.371874
0.371687
0.371509
0.37134
0.371179
0.371024
0.370875
0.370732
0.370593
0.370457
0.370325
0.370194
0.370064
0.4443
0.416474
0.413825
0.412449
0.411088
0.409744
0.408417
0.407108
0.405818
0.404547
0.403295
0.402065
0.400855
0.399668
0.398502
0.39736
0.396242
0.395148
0.394078
0.393034
0.392015
0.391023
0.390056
0.389117
0.388204
0.387319
0.38646
0.385629
0.384826
0.38405
0.383301
0.382579
0.381885
0.381217
0.380575
0.37996
0.379371
0.378806
0.378267
0.377752
0.377261
0.376793
0.376347
0.375924
0.375521
0.375139
0.374777
0.374434
0.374109
0.373802
0.373511
0.373236
0.372976
0.372731
0.372498
0.372279
0.372071
0.371874
0.371687
0.371509
0.37134
0.371179
0.371024
0.370875
0.370732
0.370593
0.370457
0.370325
0.370194
0.370064
0.4443
0.416474
0.413825
0.412449
0.411088
0.409744
0.408417
0.407108
0.405818
0.404547
0.403295
0.402065
0.400855
0.399668
0.398502
0.39736
0.396242
0.395148
0.394078
0.393034
0.392015
0.391023
0.390056
0.389117
0.388204
0.387319
0.38646
0.385629
0.384826
0.38405
0.383301
0.382579
0.381885
0.381217
0.380575
0.37996
0.379371
0.378806
0.378267
0.377752
0.377261
0.376793
0.376347
0.375924
0.375521
0.375139
0.374777
0.374434
0.374109
0.373802
0.373511
0.373236
0.372976
0.372731
0.372498
0.372279
0.372071
0.371874
0.371687
0.371509
0.37134
0.371179
0.371024
0.370875
0.370732
0.370593
0.370457
0.370325
0.370194
0.370064
0.4443
0.416474
0.413825
0.412449
0.411088
0.409744
0.408417
0.407108
0.405818
0.404547
0.403295
0.402065
0.400855
0.399668
0.398502
0.39736
0.396242
0.395148
0.394078
0.393034
0.392015
0.391023
0.390056
0.389117
0.388204
0.387319
0.38646
0.385629
0.384826
0.38405
0.383301
0.382579
0.381885
0.381217
0.380575
0.37996
0.379371
0.378806
0.378267
0.377752
0.377261
0.376793
0.376347
0.375924
0.375521
0.375139
0.374777
0.374434
0.374109
0.373802
0.373511
0.373236
0.372976
0.372731
0.372498
0.372279
0.372071
0.371874
0.371687
0.371509
0.37134
0.371179
0.371024
0.370875
0.370732
0.370593
0.370457
0.370325
0.370194
0.370064
0.4443
0.416474
0.413825
0.412449
0.411088
0.409744
0.408417
0.407108
0.405818
0.404547
0.403295
0.402065
0.400855
0.399668
0.398502
0.39736
0.396242
0.395148
0.394078
0.393034
0.392015
0.391023
0.390056
0.389117
0.388204
0.387319
0.38646
0.385629
0.384826
0.38405
0.383301
0.382579
0.381885
0.381217
0.380575
0.37996
0.379371
0.378806
0.378267
0.377752
0.377261
0.376793
0.376347
0.375924
0.375521
0.375139
0.374777
0.374434
0.374109
0.373802
0.373511
0.373236
0.372976
0.372731
0.372498
0.372279
0.372071
0.371874
0.371687
0.371509
0.37134
0.371179
0.371024
0.370875
0.370732
0.370593
0.370457
0.370325
0.370194
0.370064
0.4443
0.416474
0.413825
0.412449
0.411088
0.409744
0.408417
0.407108
0.405818