/*--------------------------------*- C++ -*----------------------------------*\
  =========                 |
  \\      /  F ield         | OpenFOAM: The Open Source CFD Toolbox
   \\    /   O peration     | Website:  https://openfoam.org
    \\  /    A nd           | Version:  13
     \\/     M anipulation  |
\*---------------------------------------------------------------------------*/
FoamFile
{
    format      ascii;
    class       volScalarField;
    location    "82.5";
    object      nut;
}
// * * * * * * * * * * * * * * * * * * * * * * * * * * * * * * * * * * * * * //

dimensions      [0 2 -1 0 0 0 0];

internalField   nonuniform List<scalar> 
315000
(
2.65429e-14
6.94987e-12
1.58542e-10
2.84407e-10
4.12059e-10
5.41672e-10
6.73491e-10
8.07731e-10
9.44515e-10
1.08385e-09
1.22563e-09
1.36962e-09
1.51545e-09
1.66268e-09
1.81074e-09
1.959e-09
2.10675e-09
2.25325e-09
2.39771e-09
2.5393e-09
2.6772e-09
2.81057e-09
2.93858e-09
3.0604e-09
3.17525e-09
3.28237e-09
3.38103e-09
3.47056e-09
3.55035e-09
3.61983e-09
3.67853e-09
3.72602e-09
3.76197e-09
3.78613e-09
3.79831e-09
3.79845e-09
3.78652e-09
3.76263e-09
3.72693e-09
3.67969e-09
3.62124e-09
3.55199e-09
3.47243e-09
3.38311e-09
3.28464e-09
3.17771e-09
3.06302e-09
2.94134e-09
2.81346e-09
2.6802e-09
2.54239e-09
2.40087e-09
2.25646e-09
2.10999e-09
1.96224e-09
1.81396e-09
1.66587e-09
1.51858e-09
1.37266e-09
1.22858e-09
1.08667e-09
9.47185e-10
8.10228e-10
6.75786e-10
5.4373e-10
4.13834e-10
2.8583e-10
1.59495e-10
7.00153e-12
2.67622e-14
6.6449e-13
1.76918e-10
4.02311e-08
7.26312e-08
1.05277e-07
1.38291e-07
1.71772e-07
2.05791e-07
2.40383e-07
2.75551e-07
3.11265e-07
3.4746e-07
3.84042e-07
4.20891e-07
4.57865e-07
4.94802e-07
5.31526e-07
5.67851e-07
6.03582e-07
6.38523e-07
6.72473e-07
7.05233e-07
7.36607e-07
7.66404e-07
7.94439e-07
8.20537e-07
8.44534e-07
8.66275e-07
8.85621e-07
9.02448e-07
9.16646e-07
9.28122e-07
9.36801e-07
9.42628e-07
9.45563e-07
9.45588e-07
9.42703e-07
9.36925e-07
9.28294e-07
9.16865e-07
9.02713e-07
8.85931e-07
8.66627e-07
8.44925e-07
8.20966e-07
7.94902e-07
7.66899e-07
7.3713e-07
7.05781e-07
6.73042e-07
6.3911e-07
6.04182e-07
5.68459e-07
5.3214e-07
4.95416e-07
4.58476e-07
4.21493e-07
3.84631e-07
3.48031e-07
3.11813e-07
2.76072e-07
2.4087e-07
2.06239e-07
1.72175e-07
1.38641e-07
1.05566e-07
7.28488e-08
4.03633e-08
1.77555e-10
6.66977e-13
2.68116e-12
7.14896e-10
4.0949e-07
7.31002e-07
1.04906e-06
1.36558e-06
1.68199e-06
1.99927e-06
2.31793e-06
2.63805e-06
2.95935e-06
3.28122e-06
3.60279e-06
3.92296e-06
4.24051e-06
4.55412e-06
4.86242e-06
5.16401e-06
5.45752e-06
5.74161e-06
6.01495e-06
6.27628e-06
6.52439e-06
6.75814e-06
6.97643e-06
7.17824e-06
7.36266e-06
7.52881e-06
7.67592e-06
7.80332e-06
7.91041e-06
7.99671e-06
8.06181e-06
8.10542e-06
8.12735e-06
8.12749e-06
8.10584e-06
8.0625e-06
7.99768e-06
7.91165e-06
7.80482e-06
7.67768e-06
7.53081e-06
7.3649e-06
7.18071e-06
6.9791e-06
6.76101e-06
6.52745e-06
6.2795e-06
6.01831e-06
5.74509e-06
5.46111e-06
5.16768e-06
4.86614e-06
4.55787e-06
4.24427e-06
3.92669e-06
3.60646e-06
3.2848e-06
2.9628e-06
2.64134e-06
2.32102e-06
2.00212e-06
1.68455e-06
1.3678e-06
1.05089e-06
7.32372e-07
4.10319e-07
7.1646e-10
2.68719e-12
4.88466e-12
1.30267e-09
7.38233e-07
1.30444e-06
1.85644e-06
2.39921e-06
2.93632e-06
3.47014e-06
4.00201e-06
4.53235e-06
5.06087e-06
5.58665e-06
6.10835e-06
6.62433e-06
7.13278e-06
7.63181e-06
8.11948e-06
8.59391e-06
9.05324e-06
9.49573e-06
9.91968e-06
1.03235e-05
1.07055e-05
1.10644e-05
1.13987e-05
1.17071e-05
1.19883e-05
1.22412e-05
1.24649e-05
1.26583e-05
1.28208e-05
1.29516e-05
1.30502e-05
1.31162e-05
1.31494e-05
1.31496e-05
1.31167e-05
1.3051e-05
1.29527e-05
1.28222e-05
1.266e-05
1.24668e-05
1.22434e-05
1.19908e-05
1.17098e-05
1.14017e-05
1.10676e-05
1.07089e-05
1.0327e-05
9.92343e-06
9.49963e-06
9.05727e-06
8.59804e-06
8.12369e-06
7.63606e-06
7.13705e-06
6.62859e-06
6.11255e-06
5.59076e-06
5.06486e-06
4.53617e-06
4.00561e-06
3.47347e-06
2.93932e-06
2.40183e-06
1.85861e-06
1.30608e-06
7.39238e-07
1.3046e-09
4.89215e-12
7.21181e-12
1.92369e-09
1.07842e-06
1.88691e-06
2.66501e-06
3.42245e-06
4.16598e-06
4.89998e-06
5.62697e-06
6.34799e-06
7.06293e-06
7.77082e-06
8.47012e-06
9.15892e-06
9.83516e-06
1.04967e-05
1.11414e-05
1.17673e-05
1.23723e-05
1.29545e-05
1.35119e-05
1.40426e-05
1.45448e-05
1.50165e-05
1.5456e-05
1.58613e-05
1.6231e-05
1.65634e-05
1.68573e-05
1.71114e-05
1.73248e-05
1.74965e-05
1.76259e-05
1.77126e-05
1.7756e-05
1.77562e-05
1.7713e-05
1.76267e-05
1.74975e-05
1.73261e-05
1.7113e-05
1.68591e-05
1.65655e-05
1.62333e-05
1.58639e-05
1.54588e-05
1.50196e-05
1.45481e-05
1.40461e-05
1.35155e-05
1.29582e-05
1.23762e-05
1.17713e-05
1.11455e-05
1.05008e-05
9.83929e-06
9.16304e-06
8.4742e-06
7.77483e-06
7.06682e-06
6.35173e-06
5.63051e-06
4.90327e-06
4.16896e-06
3.42507e-06
2.66719e-06
1.88858e-06
1.07945e-06
1.92575e-09
7.21977e-12
9.46628e-12
2.52563e-09
1.40158e-06
2.43099e-06
3.41099e-06
4.35731e-06
5.28041e-06
6.18699e-06
7.08095e-06
7.9641e-06
8.83669e-06
9.69791e-06
1.05462e-05
1.13798e-05
1.21964e-05
1.29941e-05
1.37705e-05
1.45237e-05
1.52516e-05
1.59519e-05
1.66224e-05
1.72609e-05
1.78648e-05
1.84319e-05
1.89598e-05
1.94465e-05
1.98901e-05
2.02887e-05
2.06409e-05
2.09453e-05
2.12007e-05
2.14063e-05
2.15611e-05
2.16647e-05
2.17167e-05
2.17168e-05
2.16651e-05
2.15618e-05
2.14072e-05
2.12019e-05
2.09467e-05
2.06425e-05
2.02905e-05
1.98921e-05
1.94488e-05
1.89623e-05
1.84346e-05
1.78677e-05
1.72639e-05
1.66256e-05
1.59552e-05
1.5255e-05
1.45272e-05
1.37741e-05
1.29977e-05
1.22001e-05
1.13834e-05
1.05499e-05
9.70148e-06
8.84017e-06
7.96745e-06
7.08413e-06
6.18995e-06
5.28311e-06
4.35969e-06
3.41299e-06
2.43252e-06
1.40256e-06
2.52761e-09
9.474e-12
1.14489e-11
3.05528e-09
1.68097e-06
2.8948e-06
4.04074e-06
5.14061e-06
6.20857e-06
7.25354e-06
8.28075e-06
9.29275e-06
1.02902e-05
1.12726e-05
1.22385e-05
1.31861e-05
1.41135e-05
1.50184e-05
1.58987e-05
1.67524e-05
1.75773e-05
1.83708e-05
1.91305e-05
1.98534e-05
2.05369e-05
2.11783e-05
2.17751e-05
2.2325e-05
2.28259e-05
2.32759e-05
2.36734e-05
2.40168e-05
2.43049e-05
2.45367e-05
2.47113e-05
2.48281e-05
2.48866e-05
2.48867e-05
2.48284e-05
2.47118e-05
2.45374e-05
2.43058e-05
2.40179e-05
2.36747e-05
2.32774e-05
2.28276e-05
2.23269e-05
2.17772e-05
2.11806e-05
2.05393e-05
1.9856e-05
1.91331e-05
1.83736e-05
1.75802e-05
1.67554e-05
1.59018e-05
1.50214e-05
1.41166e-05
1.31893e-05
1.22416e-05
1.12757e-05
1.02932e-05
9.29564e-06
8.28349e-06
7.25611e-06
6.21092e-06
5.14268e-06
4.04248e-06
2.89616e-06
1.68183e-06
3.05709e-09
1.1456e-11
1.30353e-11
3.47934e-09
1.90152e-06
3.25706e-06
4.52909e-06
5.74484e-06
6.92159e-06
8.07013e-06
9.19677e-06
1.03047e-05
1.13951e-05
1.24674e-05
1.35206e-05
1.45528e-05
1.55622e-05
1.65467e-05
1.75042e-05
1.84326e-05
1.93294e-05
2.01921e-05
2.10175e-05
2.18028e-05
2.25449e-05
2.32411e-05
2.38885e-05
2.4485e-05
2.50281e-05
2.55159e-05
2.59467e-05
2.63189e-05
2.66311e-05
2.68822e-05
2.70713e-05
2.71978e-05
2.72612e-05
2.72613e-05
2.71981e-05
2.70718e-05
2.68828e-05
2.66319e-05
2.63198e-05
2.59479e-05
2.55172e-05
2.50295e-05
2.44866e-05
2.38903e-05
2.3243e-05
2.2547e-05
2.1805e-05
2.10198e-05
2.01944e-05
1.93319e-05
1.84351e-05
1.75068e-05
1.65493e-05
1.55649e-05
1.45555e-05
1.35232e-05
1.247e-05
1.13976e-05
1.03072e-05
9.19915e-06
8.07235e-06
6.92363e-06
5.74664e-06
4.53061e-06
3.25825e-06
1.90228e-06
3.48098e-09
1.30417e-11
1.41974e-11
3.7902e-09
2.06152e-06
3.51791e-06
4.87904e-06
6.17634e-06
7.42948e-06
8.6506e-06
9.84686e-06
1.10219e-05
1.21772e-05
1.33124e-05
1.44266e-05
1.5518e-05
1.65848e-05
1.7625e-05
1.86366e-05
1.96173e-05
2.05645e-05
2.14755e-05
2.2347e-05
2.31758e-05
2.39588e-05
2.46932e-05
2.53761e-05
2.6005e-05
2.65776e-05
2.70919e-05
2.7546e-05
2.79383e-05
2.82673e-05
2.85319e-05
2.87313e-05
2.88646e-05
2.89314e-05
2.89314e-05
2.88648e-05
2.87317e-05
2.85325e-05
2.8268e-05
2.79391e-05
2.7547e-05
2.70931e-05
2.65789e-05
2.60064e-05
2.53776e-05
2.46949e-05
2.39606e-05
2.31777e-05
2.2349e-05
2.14776e-05
2.05667e-05
1.96195e-05
1.86389e-05
1.76274e-05
1.65872e-05
1.55204e-05
1.4429e-05
1.33148e-05
1.21795e-05
1.10242e-05
9.849e-06
8.65261e-06
7.43131e-06
6.17797e-06
4.88041e-06
3.51898e-06
2.06221e-06
3.79171e-09
1.42034e-11
1.49821e-11
4.00025e-09
2.1689e-06
3.69212e-06
5.11206e-06
6.46309e-06
7.7665e-06
9.0354e-06
1.02775e-05
1.14967e-05
1.26947e-05
1.38714e-05
1.50258e-05
1.61563e-05
1.7261e-05
1.83381e-05
1.93854e-05
2.04007e-05
2.13813e-05
2.23242e-05
2.32261e-05
2.40838e-05
2.48939e-05
2.56535e-05
2.63599e-05
2.70103e-05
2.76025e-05
2.81343e-05
2.86039e-05
2.90095e-05
2.93497e-05
2.96233e-05
2.98293e-05
2.99671e-05
3.00362e-05
3.00363e-05
2.99674e-05
2.98297e-05
2.96238e-05
2.93503e-05
2.90103e-05
2.86048e-05
2.81354e-05
2.76037e-05
2.70117e-05
2.63613e-05
2.56551e-05
2.48956e-05
2.40856e-05
2.3228e-05
2.23262e-05
2.13834e-05
2.04028e-05
1.93876e-05
1.83403e-05
1.72633e-05
1.61586e-05
1.50281e-05
1.38737e-05
1.2697e-05
1.14989e-05
1.02795e-05
9.03731e-06
7.76825e-06
6.46463e-06
5.11336e-06
3.69313e-06
2.16956e-06
4.00171e-09
1.49879e-11
1.54738e-11
4.13196e-09
2.23594e-06
3.80057e-06
5.2569e-06
6.64116e-06
7.97568e-06
9.27416e-06
1.05446e-05
1.17913e-05
1.30159e-05
1.42183e-05
1.53977e-05
1.65525e-05
1.76809e-05
1.8781e-05
1.98506e-05
2.08876e-05
2.1889e-05
2.2852e-05
2.37729e-05
2.46486e-05
2.54757e-05
2.62512e-05
2.69722e-05
2.76362e-05
2.82407e-05
2.87835e-05
2.92628e-05
2.96767e-05
3.00239e-05
3.03032e-05
3.05135e-05
3.06541e-05
3.07246e-05
3.07247e-05
3.06544e-05
3.05139e-05
3.03037e-05
3.00246e-05
2.96775e-05
2.92637e-05
2.87846e-05
2.82419e-05
2.76375e-05
2.69737e-05
2.62528e-05
2.54774e-05
2.46504e-05
2.37749e-05
2.2854e-05
2.18911e-05
2.08897e-05
1.98528e-05
1.87832e-05
1.76832e-05
1.65548e-05
1.54e-05
1.42205e-05
1.30181e-05
1.17934e-05
1.05466e-05
9.27604e-06
7.9774e-06
6.64269e-06
5.25819e-06
3.80158e-06
2.2366e-06
4.1334e-09
1.54795e-11
1.57613e-11
4.20902e-09
2.27508e-06
3.8638e-06
5.34128e-06
6.74487e-06
8.09752e-06
9.41325e-06
1.07003e-05
1.1963e-05
1.32032e-05
1.44207e-05
1.56148e-05
1.67839e-05
1.79263e-05
1.90399e-05
2.01228e-05
2.11725e-05
2.21864e-05
2.31611e-05
2.40934e-05
2.49797e-05
2.58169e-05
2.66018e-05
2.73316e-05
2.80036e-05
2.86153e-05
2.91647e-05
2.96497e-05
3.00687e-05
3.04201e-05
3.07027e-05
3.09155e-05
3.10578e-05
3.11292e-05
3.11292e-05
3.10581e-05
3.09159e-05
3.07032e-05
3.04207e-05
3.00695e-05
2.96507e-05
2.91658e-05
2.86166e-05
2.80049e-05
2.73331e-05
2.66034e-05
2.58186e-05
2.49816e-05
2.40953e-05
2.31632e-05
2.21885e-05
2.11747e-05
2.0125e-05
1.90422e-05
1.79286e-05
1.67862e-05
1.56171e-05
1.4423e-05
1.32054e-05
1.19652e-05
1.07024e-05
9.41517e-06
8.09927e-06
6.74642e-06
5.34258e-06
3.86482e-06
2.27574e-06
4.21048e-09
1.57671e-11
1.59189e-11
4.2513e-09
2.29654e-06
3.89844e-06
5.38751e-06
6.80171e-06
8.16432e-06
9.48956e-06
1.07858e-05
1.20574e-05
1.33061e-05
1.45321e-05
1.57343e-05
1.69114e-05
1.80615e-05
1.91827e-05
2.0273e-05
2.13299e-05
2.23506e-05
2.3332e-05
2.42706e-05
2.5163e-05
2.60058e-05
2.6796e-05
2.75307e-05
2.82072e-05
2.8823e-05
2.93761e-05
2.98644e-05
3.02861e-05
3.06398e-05
3.09244e-05
3.11386e-05
3.12819e-05
3.13537e-05
3.13538e-05
3.12821e-05
3.1139e-05
3.09249e-05
3.06405e-05
3.02869e-05
2.98653e-05
2.93772e-05
2.88243e-05
2.82086e-05
2.75322e-05
2.67976e-05
2.60076e-05
2.51649e-05
2.42726e-05
2.33341e-05
2.23528e-05
2.13321e-05
2.02752e-05
1.91851e-05
1.80639e-05
1.69138e-05
1.57367e-05
1.45344e-05
1.33084e-05
1.20596e-05
1.07879e-05
9.49151e-06
8.1661e-06
6.80329e-06
5.38884e-06
3.89948e-06
2.29722e-06
4.2528e-09
1.59248e-11
1.60003e-11
4.27315e-09
2.30763e-06
3.91634e-06
5.4114e-06
6.83111e-06
8.19889e-06
9.52908e-06
1.08301e-05
1.21063e-05
1.33595e-05
1.45899e-05
1.57965e-05
1.69778e-05
1.8132e-05
1.92572e-05
2.03513e-05
2.1412e-05
2.24364e-05
2.34214e-05
2.43633e-05
2.52588e-05
2.61047e-05
2.68977e-05
2.7635e-05
2.83139e-05
2.89319e-05
2.9487e-05
2.9977e-05
3.04002e-05
3.07552e-05
3.10407e-05
3.12558e-05
3.13996e-05
3.14716e-05
3.14717e-05
3.13998e-05
3.12562e-05
3.10413e-05
3.07559e-05
3.04011e-05
2.9978e-05
2.94881e-05
2.89333e-05
2.83153e-05
2.76366e-05
2.68994e-05
2.61065e-05
2.52608e-05
2.43653e-05
2.34235e-05
2.24386e-05
2.14143e-05
2.03536e-05
1.92596e-05
1.81344e-05
1.69802e-05
1.57989e-05
1.45923e-05
1.33619e-05
1.21085e-05
1.08322e-05
9.53107e-06
8.20071e-06
6.83272e-06
5.41276e-06
3.9174e-06
2.30832e-06
4.27467e-09
1.60063e-11
1.604e-11
4.28382e-09
2.31305e-06
3.92509e-06
5.42309e-06
6.84549e-06
8.21582e-06
9.54844e-06
1.08518e-05
1.21303e-05
1.33858e-05
1.46184e-05
1.58271e-05
1.70105e-05
1.81667e-05
1.92939e-05
2.039e-05
2.14526e-05
2.24789e-05
2.34656e-05
2.44092e-05
2.53064e-05
2.61537e-05
2.69482e-05
2.76868e-05
2.83669e-05
2.89861e-05
2.95421e-05
3.0033e-05
3.0457e-05
3.08126e-05
3.10986e-05
3.1314e-05
3.14581e-05
3.15303e-05
3.15304e-05
3.14583e-05
3.13144e-05
3.10992e-05
3.08133e-05
3.04578e-05
3.0034e-05
2.95433e-05
2.89874e-05
2.83684e-05
2.76884e-05
2.69499e-05
2.61556e-05
2.53083e-05
2.44113e-05
2.34677e-05
2.24811e-05
2.14549e-05
2.03924e-05
1.92963e-05
1.81692e-05
1.70129e-05
1.58295e-05
1.46208e-05
1.33882e-05
1.21326e-05
1.0854e-05
9.55046e-06
8.21766e-06
6.84712e-06
5.42446e-06
3.92616e-06
2.31374e-06
4.28536e-09
1.60461e-11
1.60583e-11
4.28876e-09
2.31555e-06
3.92914e-06
5.4285e-06
6.85216e-06
8.22368e-06
9.55745e-06
1.08619e-05
1.21415e-05
1.33981e-05
1.46317e-05
1.58414e-05
1.70257e-05
1.8183e-05
1.93111e-05
2.04082e-05
2.14717e-05
2.24988e-05
2.34864e-05
2.44308e-05
2.53287e-05
2.61768e-05
2.69719e-05
2.77112e-05
2.83919e-05
2.90116e-05
2.95681e-05
3.00594e-05
3.04837e-05
3.08397e-05
3.1126e-05
3.13416e-05
3.14857e-05
3.1558e-05
3.15581e-05
3.1486e-05
3.1342e-05
3.11265e-05
3.08404e-05
3.04846e-05
3.00604e-05
2.95693e-05
2.90129e-05
2.83934e-05
2.77128e-05
2.69737e-05
2.61787e-05
2.53307e-05
2.44329e-05
2.34886e-05
2.25011e-05
2.1474e-05
2.04106e-05
1.93136e-05
1.81854e-05
1.70282e-05
1.58438e-05
1.46341e-05
1.34004e-05
1.21438e-05
1.08641e-05
9.55949e-06
8.22554e-06
6.85381e-06
5.42989e-06
3.93022e-06
2.31626e-06
4.29031e-09
1.60645e-11
1.60664e-11
4.29093e-09
2.31666e-06
3.93093e-06
5.43089e-06
6.85511e-06
8.22715e-06
9.56143e-06
1.08664e-05
1.21465e-05
1.34035e-05
1.46376e-05
1.58477e-05
1.70326e-05
1.81902e-05
1.93188e-05
2.04163e-05
2.14802e-05
2.25077e-05
2.34957e-05
2.44405e-05
2.53387e-05
2.61872e-05
2.69826e-05
2.77221e-05
2.84031e-05
2.9023e-05
2.95797e-05
3.00712e-05
3.04958e-05
3.08519e-05
3.11382e-05
3.13539e-05
3.14982e-05
3.15704e-05
3.15705e-05
3.14984e-05
3.13543e-05
3.11388e-05
3.08526e-05
3.04967e-05
3.00723e-05
2.95809e-05
2.90244e-05
2.84046e-05
2.77237e-05
2.69843e-05
2.6189e-05
2.53408e-05
2.44426e-05
2.34979e-05
2.251e-05
2.14825e-05
2.04187e-05
1.93213e-05
1.81927e-05
1.7035e-05
1.58502e-05
1.464e-05
1.34059e-05
1.21488e-05
1.08686e-05
9.56348e-06
8.22902e-06
6.85676e-06
5.43229e-06
3.93201e-06
2.31736e-06
4.29249e-09
1.60726e-11
1.60698e-11
4.29184e-09
2.31712e-06
3.93168e-06
5.4319e-06
6.85635e-06
8.22861e-06
9.56311e-06
1.08683e-05
1.21486e-05
1.34058e-05
1.46401e-05
1.58504e-05
1.70354e-05
1.81933e-05
1.93221e-05
2.04197e-05
2.14838e-05
2.25115e-05
2.34996e-05
2.44446e-05
2.5343e-05
2.61916e-05
2.69871e-05
2.77268e-05
2.84079e-05
2.90279e-05
2.95847e-05
3.00763e-05
3.05009e-05
3.08571e-05
3.11435e-05
3.13592e-05
3.15035e-05
3.15758e-05
3.15759e-05
3.15037e-05
3.13596e-05
3.11441e-05
3.08578e-05
3.05018e-05
3.00774e-05
2.95859e-05
2.90293e-05
2.84094e-05
2.77284e-05
2.69889e-05
2.61935e-05
2.5345e-05
2.44467e-05
2.35018e-05
2.25138e-05
2.14862e-05
2.04221e-05
1.93245e-05
1.81958e-05
1.70379e-05
1.58529e-05
1.46425e-05
1.34082e-05
1.21509e-05
1.08705e-05
9.56516e-06
8.23049e-06
6.85801e-06
5.4333e-06
3.93277e-06
2.31783e-06
4.2934e-09
1.6076e-11
1.60711e-11
4.29221e-09
2.31731e-06
3.93198e-06
5.4323e-06
6.85685e-06
8.2292e-06
9.56379e-06
1.0869e-05
1.21494e-05
1.34067e-05
1.46411e-05
1.58515e-05
1.70366e-05
1.81946e-05
1.93234e-05
2.04211e-05
2.14853e-05
2.25131e-05
2.35012e-05
2.44463e-05
2.53448e-05
2.61934e-05
2.6989e-05
2.77287e-05
2.84098e-05
2.90299e-05
2.95868e-05
3.00784e-05
3.0503e-05
3.08592e-05
3.11457e-05
3.13614e-05
3.15057e-05
3.1578e-05
3.15781e-05
3.15059e-05
3.13618e-05
3.11462e-05
3.08599e-05
3.05039e-05
3.00795e-05
2.9588e-05
2.90313e-05
2.84113e-05
2.77303e-05
2.69908e-05
2.61953e-05
2.53468e-05
2.44484e-05
2.35034e-05
2.25154e-05
2.14876e-05
2.04235e-05
1.93259e-05
1.8197e-05
1.70391e-05
1.5854e-05
1.46435e-05
1.34091e-05
1.21517e-05
1.08712e-05
9.56584e-06
8.23108e-06
6.85851e-06
5.4337e-06
3.93307e-06
2.31802e-06
4.29377e-09
1.60773e-11
1.60717e-11
4.29235e-09
2.31738e-06
3.9321e-06
5.43246e-06
6.85704e-06
8.22943e-06
9.56405e-06
1.08693e-05
1.21498e-05
1.34071e-05
1.46415e-05
1.58519e-05
1.70371e-05
1.8195e-05
1.93239e-05
2.04217e-05
2.14858e-05
2.25137e-05
2.35019e-05
2.44469e-05
2.53455e-05
2.61941e-05
2.69897e-05
2.77295e-05
2.84106e-05
2.90307e-05
2.95876e-05
3.00792e-05
3.05039e-05
3.086e-05
3.11465e-05
3.13623e-05
3.15065e-05
3.15788e-05
3.15789e-05
3.15068e-05
3.13627e-05
3.11471e-05
3.08608e-05
3.05048e-05
3.00803e-05
2.95888e-05
2.90321e-05
2.84121e-05
2.77311e-05
2.69915e-05
2.6196e-05
2.53475e-05
2.44491e-05
2.35041e-05
2.2516e-05
2.14882e-05
2.04241e-05
1.93264e-05
1.81975e-05
1.70396e-05
1.58544e-05
1.46439e-05
1.34095e-05
1.21521e-05
1.08715e-05
9.56611e-06
8.23131e-06
6.8587e-06
5.43386e-06
3.93319e-06
2.31809e-06
4.29391e-09
1.60778e-11
1.60719e-11
4.2924e-09
2.31741e-06
3.93214e-06
5.43251e-06
6.85711e-06
8.22952e-06
9.56415e-06
1.08695e-05
1.21499e-05
1.34072e-05
1.46416e-05
1.58521e-05
1.70372e-05
1.81952e-05
1.93241e-05
2.04219e-05
2.14861e-05
2.25139e-05
2.35021e-05
2.44472e-05
2.53457e-05
2.61943e-05
2.699e-05
2.77297e-05
2.84109e-05
2.9031e-05
2.95879e-05
3.00795e-05
3.05042e-05
3.08604e-05
3.11468e-05
3.13626e-05
3.15069e-05
3.15792e-05
3.15792e-05
3.15071e-05
3.1363e-05
3.11474e-05
3.08611e-05
3.05051e-05
3.00806e-05
2.95891e-05
2.90324e-05
2.84124e-05
2.77314e-05
2.69918e-05
2.61963e-05
2.53477e-05
2.44493e-05
2.35043e-05
2.25162e-05
2.14884e-05
2.04243e-05
1.93266e-05
1.81977e-05
1.70397e-05
1.58546e-05
1.46441e-05
1.34096e-05
1.21522e-05
1.08717e-05
9.5662e-06
8.2314e-06
6.85877e-06
5.43392e-06
3.93323e-06
2.31812e-06
4.29397e-09
1.6078e-11
1.60719e-11
4.29242e-09
2.31742e-06
3.93215e-06
5.43253e-06
6.85714e-06
8.22955e-06
9.56418e-06
1.08695e-05
1.21499e-05
1.34073e-05
1.46417e-05
1.58522e-05
1.70373e-05
1.81953e-05
1.93242e-05
2.04219e-05
2.14861e-05
2.2514e-05
2.35022e-05
2.44473e-05
2.53458e-05
2.61944e-05
2.69901e-05
2.77298e-05
2.8411e-05
2.90311e-05
2.9588e-05
3.00796e-05
3.05043e-05
3.08605e-05
3.11469e-05
3.13627e-05
3.1507e-05
3.15793e-05
3.15794e-05
3.15072e-05
3.13631e-05
3.11475e-05
3.08612e-05
3.05052e-05
3.00807e-05
2.95892e-05
2.90325e-05
2.84125e-05
2.77315e-05
2.69919e-05
2.61963e-05
2.53478e-05
2.44494e-05
2.35044e-05
2.25163e-05
2.14885e-05
2.04244e-05
1.93267e-05
1.81978e-05
1.70398e-05
1.58546e-05
1.46441e-05
1.34097e-05
1.21522e-05
1.08717e-05
9.56624e-06
8.23143e-06
6.8588e-06
5.43394e-06
3.93325e-06
2.31813e-06
4.29398e-09
1.60781e-11
1.60719e-11
4.29242e-09
2.31742e-06
3.93216e-06
5.43254e-06
6.85714e-06
8.22956e-06
9.56419e-06
1.08695e-05
1.21499e-05
1.34073e-05
1.46417e-05
1.58522e-05
1.70373e-05
1.81953e-05
1.93242e-05
2.0422e-05
2.14862e-05
2.2514e-05
2.35022e-05
2.44473e-05
2.53458e-05
2.61945e-05
2.69901e-05
2.77299e-05
2.8411e-05
2.90312e-05
2.9588e-05
3.00797e-05
3.05043e-05
3.08605e-05
3.1147e-05
3.13627e-05
3.1507e-05
3.15793e-05
3.15794e-05
3.15073e-05
3.13632e-05
3.11476e-05
3.08613e-05
3.05052e-05
3.00807e-05
2.95892e-05
2.90325e-05
2.84125e-05
2.77315e-05
2.69919e-05
2.61964e-05
2.53479e-05
2.44494e-05
2.35044e-05
2.25163e-05
2.14885e-05
2.04244e-05
1.93267e-05
1.81978e-05
1.70398e-05
1.58547e-05
1.46441e-05
1.34097e-05
1.21523e-05
1.08717e-05
9.56625e-06
8.23144e-06
6.85881e-06
5.43395e-06
3.93325e-06
2.31813e-06
4.29399e-09
1.60781e-11
1.6072e-11
4.29243e-09
2.31742e-06
3.93216e-06
5.43254e-06
6.85715e-06
8.22956e-06
9.5642e-06
1.08695e-05
1.21499e-05
1.34073e-05
1.46417e-05
1.58522e-05
1.70373e-05
1.81953e-05
1.93242e-05
2.0422e-05
2.14862e-05
2.2514e-05
2.35022e-05
2.44473e-05
2.53458e-05
2.61945e-05
2.69901e-05
2.77299e-05
2.84111e-05
2.90312e-05
2.95881e-05
3.00797e-05
3.05043e-05
3.08605e-05
3.1147e-05
3.13628e-05
3.1507e-05
3.15793e-05
3.15794e-05
3.15073e-05
3.13632e-05
3.11476e-05
3.08613e-05
3.05052e-05
3.00807e-05
2.95893e-05
2.90325e-05
2.84126e-05
2.77315e-05
2.69919e-05
2.61964e-05
2.53479e-05
2.44494e-05
2.35044e-05
2.25163e-05
2.14885e-05
2.04244e-05
1.93267e-05
1.81978e-05
1.70398e-05
1.58547e-05
1.46441e-05
1.34097e-05
1.21523e-05
1.08717e-05
9.56626e-06
8.23144e-06
6.85881e-06
5.43395e-06
3.93325e-06
2.31813e-06
4.29399e-09
1.60781e-11
1.6072e-11
4.29243e-09
2.31742e-06
3.93216e-06
5.43254e-06
6.85715e-06
8.22956e-06
9.5642e-06
1.08695e-05
1.21499e-05
1.34073e-05
1.46417e-05
1.58522e-05
1.70373e-05
1.81953e-05
1.93242e-05
2.0422e-05
2.14862e-05
2.2514e-05
2.35022e-05
2.44473e-05
2.53459e-05
2.61945e-05
2.69901e-05
2.77299e-05
2.84111e-05
2.90312e-05
2.95881e-05
3.00797e-05
3.05043e-05
3.08605e-05
3.1147e-05
3.13628e-05
3.1507e-05
3.15793e-05
3.15794e-05
3.15073e-05
3.13632e-05
3.11476e-05
3.08613e-05
3.05052e-05
3.00807e-05
2.95893e-05
2.90325e-05
2.84126e-05
2.77315e-05
2.69919e-05
2.61964e-05
2.53479e-05
2.44495e-05
2.35045e-05
2.25163e-05
2.14885e-05
2.04244e-05
1.93267e-05
1.81978e-05
1.70398e-05
1.58547e-05
1.46441e-05
1.34097e-05
1.21523e-05
1.08717e-05
9.56626e-06
8.23144e-06
6.85881e-06
5.43395e-06
3.93325e-06
2.31813e-06
4.29399e-09
1.60781e-11
1.6072e-11
4.29243e-09
2.31742e-06
3.93216e-06
5.43255e-06
6.85715e-06
8.22956e-06
9.5642e-06
1.08695e-05
1.21499e-05
1.34073e-05
1.46417e-05
1.58522e-05
1.70373e-05
1.81953e-05
1.93242e-05
2.0422e-05
2.14862e-05
2.2514e-05
2.35022e-05
2.44473e-05
2.53459e-05
2.61945e-05
2.69901e-05
2.77299e-05
2.84111e-05
2.90312e-05
2.95881e-05
3.00797e-05
3.05044e-05
3.08605e-05
3.1147e-05
3.13628e-05
3.1507e-05
3.15793e-05
3.15794e-05
3.15073e-05
3.13632e-05
3.11476e-05
3.08613e-05
3.05053e-05
3.00807e-05
2.95893e-05
2.90325e-05
2.84126e-05
2.77315e-05
2.69919e-05
2.61964e-05
2.53479e-05
2.44495e-05
2.35045e-05
2.25163e-05
2.14885e-05
2.04244e-05
1.93267e-05
1.81978e-05
1.70398e-05
1.58547e-05
1.46441e-05
1.34097e-05
1.21523e-05
1.08717e-05
9.56626e-06
8.23144e-06
6.85881e-06
5.43395e-06
3.93325e-06
2.31813e-06
4.29399e-09
1.60781e-11
1.6072e-11
4.29243e-09
2.31742e-06
3.93216e-06
5.43255e-06
6.85715e-06
8.22956e-06
9.5642e-06
1.08695e-05
1.21499e-05
1.34073e-05
1.46417e-05
1.58522e-05
1.70373e-05
1.81953e-05
1.93242e-05
2.0422e-05
2.14862e-05
2.2514e-05
2.35022e-05
2.44473e-05
2.53459e-05
2.61945e-05
2.69901e-05
2.77299e-05
2.84111e-05
2.90312e-05
2.95881e-05
3.00797e-05
3.05044e-05
3.08605e-05
3.1147e-05
3.13628e-05
3.1507e-05
3.15793e-05
3.15794e-05
3.15073e-05
3.13632e-05
3.11476e-05
3.08613e-05
3.05053e-05
3.00807e-05
2.95893e-05
2.90325e-05
2.84126e-05
2.77315e-05
2.69919e-05
2.61964e-05
2.53479e-05
2.44495e-05
2.35045e-05
2.25163e-05
2.14885e-05
2.04244e-05
1.93267e-05
1.81978e-05
1.70398e-05
1.58547e-05
1.46441e-05
1.34097e-05
1.21523e-05
1.08717e-05
9.56626e-06
8.23144e-06
6.85881e-06
5.43395e-06
3.93325e-06
2.31813e-06
4.29399e-09
1.60781e-11
1.6072e-11
4.29243e-09
2.31742e-06
3.93216e-06
5.43255e-06
6.85715e-06
8.22956e-06
9.5642e-06
1.08695e-05
1.21499e-05
1.34073e-05
1.46417e-05
1.58522e-05
1.70373e-05
1.81953e-05
1.93242e-05
2.0422e-05
2.14862e-05
2.2514e-05
2.35022e-05
2.44473e-05
2.53459e-05
2.61945e-05
2.69901e-05
2.77299e-05
2.84111e-05
2.90312e-05
2.95881e-05
3.00797e-05
3.05044e-05
3.08605e-05
3.1147e-05
3.13628e-05
3.1507e-05
3.15793e-05
3.15794e-05
3.15073e-05
3.13632e-05
3.11476e-05
3.08613e-05
3.05053e-05
3.00807e-05
2.95893e-05
2.90325e-05
2.84126e-05
2.77315e-05
2.69919e-05
2.61964e-05
2.53479e-05
2.44495e-05
2.35045e-05
2.25163e-05
2.14885e-05
2.04244e-05
1.93267e-05
1.81978e-05
1.70398e-05
1.58547e-05
1.46441e-05
1.34097e-05
1.21523e-05
1.08717e-05
9.56626e-06
8.23144e-06
6.85881e-06
5.43395e-06
3.93325e-06
2.31813e-06
4.29399e-09
1.60781e-11
1.6072e-11
4.29243e-09
2.31742e-06
3.93216e-06
5.43255e-06
6.85715e-06
8.22956e-06
9.5642e-06
1.08695e-05
1.21499e-05
1.34073e-05
1.46417e-05
1.58522e-05
1.70373e-05
1.81953e-05
1.93242e-05
2.0422e-05
2.14862e-05
2.2514e-05
2.35022e-05
2.44473e-05
2.53459e-05
2.61945e-05
2.69901e-05
2.77299e-05
2.84111e-05
2.90312e-05
2.95881e-05
3.00797e-05
3.05044e-05
3.08605e-05
3.1147e-05
3.13628e-05
3.1507e-05
3.15793e-05
3.15794e-05
3.15073e-05
3.13632e-05
3.11476e-05
3.08613e-05
3.05053e-05
3.00807e-05
2.95893e-05
2.90325e-05
2.84126e-05
2.77315e-05
2.69919e-05
2.61964e-05
2.53479e-05
2.44495e-05
2.35045e-05
2.25163e-05
2.14885e-05
2.04244e-05
1.93267e-05
1.81978e-05
1.70398e-05
1.58547e-05
1.46441e-05
1.34097e-05
1.21523e-05
1.08717e-05
9.56626e-06
8.23144e-06
6.85881e-06
5.43395e-06
3.93325e-06
2.31813e-06
4.29399e-09
1.60781e-11
1.6072e-11
4.29243e-09
2.31742e-06
3.93216e-06
5.43255e-06
6.85715e-06
8.22956e-06
9.5642e-06
1.08695e-05
1.21499e-05
1.34073e-05
1.46417e-05
1.58522e-05
1.70373e-05
1.81953e-05
1.93242e-05
2.0422e-05
2.14862e-05
2.2514e-05
2.35022e-05
2.44473e-05
2.53459e-05
2.61945e-05
2.69901e-05
2.77299e-05
2.84111e-05
2.90312e-05
2.95881e-05
3.00797e-05
3.05044e-05
3.08605e-05
3.1147e-05
3.13628e-05
3.1507e-05
3.15793e-05
3.15794e-05
3.15073e-05
3.13632e-05
3.11476e-05
3.08613e-05
3.05053e-05
3.00807e-05
2.95893e-05
2.90325e-05
2.84126e-05
2.77315e-05
2.69919e-05
2.61964e-05
2.53479e-05
2.44495e-05
2.35045e-05
2.25163e-05
2.14885e-05
2.04244e-05
1.93267e-05
1.81978e-05
1.70398e-05
1.58547e-05
1.46441e-05
1.34097e-05
1.21523e-05
1.08717e-05
9.56626e-06
8.23144e-06
6.85881e-06
5.43395e-06
3.93325e-06
2.31813e-06
4.29399e-09
1.60781e-11
1.6072e-11
4.29243e-09
2.31742e-06
3.93216e-06
5.43255e-06
6.85715e-06
8.22956e-06
9.5642e-06
1.08695e-05
1.21499e-05
1.34073e-05
1.46417e-05
1.58522e-05
1.70373e-05
1.81953e-05
1.93242e-05
2.0422e-05
2.14862e-05
2.2514e-05
2.35022e-05
2.44473e-05
2.53459e-05
2.61945e-05
2.69901e-05
2.77299e-05
2.84111e-05
2.90312e-05
2.95881e-05
3.00797e-05
3.05044e-05
3.08605e-05
3.1147e-05
3.13628e-05
3.1507e-05
3.15793e-05
3.15794e-05
3.15073e-05
3.13632e-05
3.11476e-05
3.08613e-05
3.05053e-05
3.00807e-05
2.95893e-05
2.90325e-05
2.84126e-05
2.77315e-05
2.69919e-05
2.61964e-05
2.53479e-05
2.44495e-05
2.35045e-05
2.25163e-05
2.14885e-05
2.04244e-05
1.93267e-05
1.81978e-05
1.70398e-05
1.58547e-05
1.46441e-05
1.34097e-05
1.21523e-05
1.08717e-05
9.56626e-06
8.23144e-06
6.85881e-06
5.43395e-06
3.93325e-06
2.31813e-06
4.29399e-09
1.60781e-11
1.6072e-11
4.29243e-09
2.31742e-06
3.93216e-06
5.43255e-06
6.85715e-06
8.22956e-06
9.5642e-06
1.08695e-05
1.21499e-05
1.34073e-05
1.46417e-05
1.58522e-05
1.70373e-05
1.81953e-05
1.93242e-05
2.0422e-05
2.14862e-05
2.2514e-05
2.35022e-05
2.44473e-05
2.53459e-05
2.61945e-05
2.69901e-05
2.77299e-05
2.84111e-05
2.90312e-05
2.95881e-05
3.00797e-05
3.05044e-05
3.08605e-05
3.1147e-05
3.13628e-05
3.1507e-05
3.15793e-05
3.15794e-05
3.15073e-05
3.13632e-05
3.11476e-05
3.08613e-05
3.05053e-05
3.00807e-05
2.95893e-05
2.90325e-05
2.84126e-05
2.77315e-05
2.69919e-05
2.61964e-05
2.53479e-05
2.44495e-05
2.35045e-05
2.25163e-05
2.14885e-05
2.04244e-05
1.93267e-05
1.81978e-05
1.70398e-05
1.58547e-05
1.46441e-05
1.34097e-05
1.21523e-05
1.08717e-05
9.56626e-06
8.23144e-06
6.85881e-06
5.43395e-06
3.93325e-06
2.31813e-06
4.29399e-09
1.60781e-11
1.6072e-11
4.29243e-09
2.31742e-06
3.93216e-06
5.43255e-06
6.85715e-06
8.22956e-06
9.5642e-06
1.08695e-05
1.21499e-05
1.34073e-05
1.46417e-05
1.58522e-05
1.70373e-05
1.81953e-05
1.93242e-05
2.0422e-05
2.14862e-05
2.2514e-05
2.35022e-05
2.44473e-05
2.53459e-05
2.61945e-05
2.69901e-05
2.77299e-05
2.84111e-05
2.90312e-05
2.95881e-05
3.00797e-05
3.05044e-05
3.08605e-05
3.1147e-05
3.13628e-05
3.1507e-05
3.15793e-05
3.15794e-05
3.15073e-05
3.13632e-05
3.11476e-05
3.08613e-05
3.05053e-05
3.00807e-05
2.95893e-05
2.90325e-05
2.84126e-05
2.77315e-05
2.69919e-05
2.61964e-05
2.53479e-05
2.44495e-05
2.35045e-05
2.25163e-05
2.14885e-05
2.04244e-05
1.93267e-05
1.81978e-05
1.70398e-05
1.58547e-05
1.46441e-05
1.34097e-05
1.21523e-05
1.08717e-05
9.56626e-06
8.23144e-06
6.85881e-06
5.43395e-06
3.93325e-06
2.31813e-06
4.29399e-09
1.60781e-11
1.6072e-11
4.29243e-09
2.31742e-06
3.93216e-06
5.43255e-06
6.85715e-06
8.22956e-06
9.5642e-06
1.08695e-05
1.21499e-05
1.34073e-05
1.46417e-05
1.58522e-05
1.70373e-05
1.81953e-05
1.93242e-05
2.0422e-05
2.14862e-05
2.2514e-05
2.35022e-05
2.44473e-05
2.53459e-05
2.61945e-05
2.69901e-05
2.77299e-05
2.84111e-05
2.90312e-05
2.95881e-05
3.00797e-05
3.05044e-05
3.08605e-05
3.1147e-05
3.13628e-05
3.1507e-05
3.15793e-05
3.15794e-05
3.15073e-05
3.13632e-05
3.11476e-05
3.08613e-05
3.05053e-05
3.00807e-05
2.95893e-05
2.90325e-05
2.84126e-05
2.77315e-05
2.69919e-05
2.61964e-05
2.53479e-05
2.44495e-05
2.35045e-05
2.25163e-05
2.14885e-05
2.04244e-05
1.93267e-05
1.81978e-05
1.70398e-05
1.58547e-05
1.46441e-05
1.34097e-05
1.21523e-05
1.08717e-05
9.56626e-06
8.23144e-06
6.85881e-06
5.43395e-06
3.93325e-06
2.31813e-06
4.29399e-09
1.60781e-11
1.6072e-11
4.29243e-09
2.31742e-06
3.93216e-06
5.43255e-06
6.85715e-06
8.22956e-06
9.5642e-06
1.08695e-05
1.21499e-05
1.34073e-05
1.46417e-05
1.58522e-05
1.70373e-05
1.81953e-05
1.93242e-05
2.0422e-05
2.14862e-05
2.2514e-05
2.35022e-05
2.44473e-05
2.53459e-05
2.61945e-05
2.69901e-05
2.77299e-05
2.84111e-05
2.90312e-05
2.95881e-05
3.00797e-05
3.05044e-05
3.08605e-05
3.1147e-05
3.13628e-05
3.1507e-05
3.15793e-05
3.15794e-05
3.15073e-05
3.13632e-05
3.11476e-05
3.08613e-05
3.05053e-05
3.00807e-05
2.95893e-05
2.90325e-05
2.84126e-05
2.77315e-05
2.69919e-05
2.61964e-05
2.53479e-05
2.44495e-05
2.35045e-05
2.25163e-05
2.14885e-05
2.04244e-05
1.93267e-05
1.81978e-05
1.70398e-05
1.58547e-05
1.46441e-05
1.34097e-05
1.21523e-05
1.08717e-05
9.56626e-06
8.23144e-06
6.85881e-06
5.43395e-06
3.93325e-06
2.31813e-06
4.29399e-09
1.60781e-11
1.6072e-11
4.29243e-09
2.31742e-06
3.93216e-06
5.43255e-06
6.85715e-06
8.22956e-06
9.5642e-06
1.08695e-05
1.21499e-05
1.34073e-05
1.46417e-05
1.58522e-05