/*--------------------------------*- C++ -*----------------------------------*\
  =========                 |
  \\      /  F ield         | OpenFOAM: The Open Source CFD Toolbox
   \\    /   O peration     | Website:  https://openfoam.org
    \\  /    A nd           | Version:  13
     \\/     M anipulation  |
\*---------------------------------------------------------------------------*/
FoamFile
{
    format      ascii;
    class       volScalarField;
    location    "12";
    object      k;
}
// * * * * * * * * * * * * * * * * * * * * * * * * * * * * * * * * * * * * * //

dimensions      [0 2 -2 0 0 0 0];

internalField   nonuniform List<scalar> 
78750
(
3.12346e-11
8.91759e-10
4.05459e-09
7.37446e-09
1.09024e-08
1.46715e-08
1.86842e-08
2.29068e-08
2.72706e-08
3.16765e-08
3.60043e-08
4.01217e-08
4.38938e-08
4.71912e-08
4.98978e-08
5.19165e-08
5.31739e-08
5.36242e-08
5.32509e-08
5.20676e-08
5.01175e-08
4.74716e-08
4.42248e-08
4.04914e-08
3.63994e-08
3.20831e-08
2.76747e-08
2.3295e-08
1.9044e-08
1.49922e-08
1.11743e-08
7.58741e-09
4.19365e-09
9.28901e-10
3.26574e-11
6.88233e-10
1.99607e-08
9.98174e-08
1.82781e-07
2.7083e-07
3.65093e-07
4.65717e-07
5.71821e-07
6.81567e-07
7.92347e-07
9.01041e-07
1.00428e-06
1.09866e-06
1.18099e-06
1.24841e-06
1.29855e-06
1.32965e-06
1.3406e-06
1.33101e-06
1.30121e-06
1.25228e-06
1.18593e-06
1.10449e-06
1.01078e-06
9.0798e-07
7.99465e-07
6.88598e-07
5.78506e-07
4.71812e-07
3.70384e-07
2.75139e-07
1.85952e-07
1.01697e-07
2.03656e-08
7.02552e-10
2.05147e-09
5.95414e-08
2.97941e-07
5.48653e-07
8.20531e-07
1.1187e-06
1.44413e-06
1.79329e-06
2.15856e-06
2.52945e-06
2.89422e-06
3.24086e-06
3.55768e-06
3.83381e-06
4.05962e-06
4.22723e-06
4.33079e-06
4.36671e-06
4.33374e-06
4.23302e-06
4.06804e-06
3.84457e-06
3.57039e-06
3.25507e-06
2.90942e-06
2.5451e-06
2.17408e-06
1.80809e-06
1.45764e-06
1.13041e-06
8.30001e-07
5.55548e-07
3.01979e-07
6.0405e-08
2.08187e-09
3.88836e-09
1.12928e-07
5.639e-07
1.03739e-06
1.55152e-06
2.11573e-06
2.73041e-06
3.38665e-06
4.06806e-06
4.75444e-06
5.42466e-06
6.05792e-06
6.63415e-06
7.13465e-06
7.54282e-06
7.84509e-06
8.03136e-06
8.09546e-06
8.03524e-06
7.85271e-06
7.55392e-06
7.14883e-06
6.65094e-06
6.07673e-06
5.44486e-06
4.77535e-06
4.08894e-06
3.40673e-06
2.74891e-06
2.13189e-06
1.56468e-06
1.04701e-06
5.69539e-07
1.1414e-07
3.93095e-09
5.63876e-09
1.6387e-07
8.16206e-07
1.49765e-06
2.23469e-06
3.03962e-06
3.91092e-06
4.83366e-06
5.78358e-06
6.73265e-06
7.65261e-06
8.51635e-06
9.29823e-06
9.97455e-06
1.05244e-05
1.09306e-05
1.11804e-05
1.1266e-05
1.11845e-05
1.09387e-05
1.05362e-05
9.98957e-06
9.31602e-06
8.53633e-06
7.67415e-06
6.75506e-06
5.8061e-06
4.85546e-06
3.93115e-06
3.05741e-06
2.24926e-06
1.50834e-06
8.22494e-07
1.6523e-07
5.68656e-09
6.91417e-09
2.01058e-07
9.99589e-07
1.83013e-06
2.72507e-06
3.69826e-06
4.74631e-06
5.8499e-06
6.97961e-06
8.10252e-06
9.18608e-06
1.01995e-05
1.11138e-05
1.19032e-05
1.25447e-05
1.30187e-05
1.33101e-05
1.34096e-05
1.33141e-05
1.30265e-05
1.25561e-05
1.19178e-05
1.11311e-05
1.02189e-05
9.20712e-06
8.12448e-06
7.00177e-06
5.87145e-06
4.76639e-06
3.71599e-06
2.73963e-06
1.84084e-06
1.00589e-06
2.0243e-07
6.96241e-09
7.66109e-09
2.22888e-07
1.107e-06
2.02411e-06
3.01002e-06
4.07936e-06
5.22753e-06
6.43271e-06
7.6627e-06
8.882e-06
1.00559e-05
1.11515e-05
1.21389e-05
1.29915e-05
1.36843e-05
1.4196e-05
1.45103e-05
1.46175e-05
1.45141e-05
1.42034e-05
1.36952e-05
1.30055e-05
1.21555e-05
1.11702e-05
1.00761e-05
8.90319e-06
7.68412e-06
6.45359e-06
5.24701e-06
4.09659e-06
3.0242e-06
2.03454e-06
1.11314e-06
2.24229e-07
7.70826e-09
8.0258e-09
2.33575e-07
1.15958e-06
2.11887e-06
3.14895e-06
4.26476e-06
5.46111e-06
6.71501e-06
7.99293e-06
9.25821e-06
1.0475e-05
1.16097e-05
1.26323e-05
1.35152e-05
1.42325e-05
1.4762e-05
1.50873e-05
1.51981e-05
1.50909e-05
1.47693e-05
1.42431e-05
1.35288e-05
1.26484e-05
1.16279e-05
1.04948e-05
9.27891e-06
8.01387e-06
6.73543e-06
5.48019e-06
4.28164e-06
3.16283e-06
2.12908e-06
1.16559e-06
2.34891e-07
8.0721e-09
8.17862e-09
2.38067e-07
1.1817e-06
2.15871e-06
3.2073e-06
4.34257e-06
5.55908e-06
6.83332e-06
8.13123e-06
9.41567e-06
1.06504e-05
1.18013e-05
1.28386e-05
1.37342e-05
1.44617e-05
1.49987e-05
1.53284e-05
1.54407e-05
1.53321e-05
1.50058e-05
1.44721e-05
1.37476e-05
1.28546e-05
1.18194e-05
1.067e-05
9.43616e-06
8.15196e-06
6.85354e-06
5.57797e-06
4.35929e-06
3.22106e-06
2.16882e-06
1.18764e-06
2.3937e-07
8.22451e-09
8.23482e-09
2.39723e-07
1.18987e-06
2.17342e-06
3.22885e-06
4.37131e-06
5.59525e-06
6.877e-06
8.1823e-06
9.47382e-06
1.07152e-05
1.18721e-05
1.29148e-05
1.38151e-05
1.45463e-05
1.50861e-05
1.54175e-05
1.55304e-05
1.54212e-05
1.50932e-05
1.45568e-05
1.38285e-05
1.29308e-05
1.18901e-05
1.07347e-05
9.49425e-06
8.20297e-06
6.89716e-06
5.61409e-06
4.38798e-06
3.24257e-06
2.1835e-06
1.19579e-06
2.41022e-07
8.28056e-09
8.25326e-09
2.40268e-07
1.19256e-06
2.17827e-06
3.23597e-06
4.3808e-06
5.6072e-06
6.89144e-06
8.19918e-06
9.49304e-06
1.07366e-05
1.18955e-05
1.294e-05
1.38418e-05
1.45743e-05
1.5115e-05
1.5447e-05
1.55601e-05
1.54507e-05
1.51222e-05
1.45848e-05
1.38553e-05
1.2956e-05
1.19135e-05
1.07561e-05
9.51346e-06
8.21984e-06
6.91159e-06
5.62603e-06
4.39746e-06
3.24967e-06
2.18835e-06
1.19848e-06
2.41566e-07
8.29898e-09
8.25874e-09
2.4043e-07
1.19336e-06
2.17972e-06
3.23809e-06
4.38364e-06
5.61078e-06
6.89575e-06
8.20423e-06
9.4988e-06
1.0743e-05
1.19026e-05
1.29476e-05
1.38499e-05
1.45827e-05
1.51237e-05
1.54559e-05
1.5569e-05
1.54595e-05
1.51308e-05
1.45932e-05
1.38633e-05
1.29635e-05
1.19206e-05
1.07625e-05
9.51921e-06
8.22489e-06
6.9159e-06
5.6296e-06
4.40029e-06
3.25179e-06
2.1898e-06
1.19929e-06
2.41728e-07
8.30445e-09
8.26022e-09
2.40475e-07
1.19358e-06
2.18012e-06
3.23867e-06
4.38441e-06
5.61175e-06
6.89693e-06
8.20561e-06
9.50037e-06
1.07447e-05
1.19045e-05
1.29497e-05
1.38521e-05
1.4585e-05
1.51261e-05
1.54583e-05
1.55714e-05
1.54619e-05
1.51332e-05
1.45955e-05
1.38655e-05
1.29656e-05
1.19225e-05
1.07643e-05
9.52079e-06
8.22627e-06
6.91708e-06
5.63058e-06
4.40107e-06
3.25238e-06
2.19019e-06
1.19951e-06
2.41773e-07
8.30594e-09
8.26059e-09
2.40486e-07
1.19364e-06
2.18022e-06
3.23882e-06
4.3846e-06
5.612e-06
6.89723e-06
8.20596e-06
9.50077e-06
1.07452e-05
1.1905e-05
1.29502e-05
1.38526e-05
1.45856e-05
1.51267e-05
1.54589e-05
1.5572e-05
1.54625e-05
1.51338e-05
1.45961e-05
1.3866e-05
1.29661e-05
1.1923e-05
1.07647e-05
9.52119e-06
8.22662e-06
6.91738e-06
5.63082e-06
4.40126e-06
3.25252e-06
2.19029e-06
1.19956e-06
2.41784e-07
8.30631e-09
8.26068e-09
2.40488e-07
1.19365e-06
2.18024e-06
3.23885e-06
4.38465e-06
5.61205e-06
6.8973e-06
8.20604e-06
9.50086e-06
1.07453e-05
1.19051e-05
1.29503e-05
1.38527e-05
1.45858e-05
1.51268e-05
1.5459e-05
1.55722e-05
1.54627e-05
1.5134e-05
1.45962e-05
1.38662e-05
1.29663e-05
1.19231e-05
1.07648e-05
9.52128e-06
8.2267e-06
6.91745e-06
5.63088e-06
4.40131e-06
3.25256e-06
2.19031e-06
1.19957e-06
2.41786e-07
8.3064e-09
8.2607e-09
2.40489e-07
1.19365e-06
2.18025e-06
3.23886e-06
4.38466e-06
5.61207e-06
6.89731e-06
8.20606e-06
9.50088e-06
1.07453e-05
1.19051e-05
1.29503e-05
1.38528e-05
1.45858e-05
1.51268e-05
1.54591e-05
1.55722e-05
1.54627e-05
1.5134e-05
1.45962e-05
1.38662e-05
1.29663e-05
1.19231e-05
1.07648e-05
9.5213e-06
8.22672e-06
6.91747e-06
5.63089e-06
4.40132e-06
3.25256e-06
2.19032e-06
1.19958e-06
2.41787e-07
8.30642e-09
8.2607e-09
2.40489e-07
1.19366e-06
2.18025e-06
3.23886e-06
4.38466e-06
5.61207e-06
6.89732e-06
8.20606e-06
9.50088e-06
1.07453e-05
1.19051e-05
1.29503e-05
1.38528e-05
1.45858e-05
1.51268e-05
1.54591e-05
1.55722e-05
1.54627e-05
1.5134e-05
1.45962e-05
1.38662e-05
1.29663e-05
1.19231e-05
1.07648e-05
9.5213e-06
8.22672e-06
6.91747e-06
5.6309e-06
4.40132e-06
3.25256e-06
2.19032e-06
1.19958e-06
2.41787e-07
8.30642e-09
8.2607e-09
2.40489e-07
1.19366e-06
2.18025e-06
3.23886e-06
4.38466e-06
5.61207e-06
6.89732e-06
8.20606e-06
9.50088e-06
1.07453e-05
1.19051e-05
1.29503e-05
1.38528e-05
1.45858e-05
1.51268e-05
1.54591e-05
1.55722e-05
1.54627e-05
1.5134e-05
1.45962e-05
1.38662e-05
1.29663e-05
1.19231e-05
1.07648e-05
9.5213e-06
8.22672e-06
6.91747e-06
5.6309e-06
4.40132e-06
3.25256e-06
2.19032e-06
1.19958e-06
2.41787e-07
8.30642e-09
8.2607e-09
2.40489e-07
1.19366e-06
2.18025e-06
3.23886e-06
4.38466e-06
5.61207e-06
6.89732e-06
8.20606e-06
9.50089e-06
1.07453e-05
1.19051e-05
1.29503e-05
1.38528e-05
1.45858e-05
1.51268e-05
1.54591e-05
1.55722e-05
1.54627e-05
1.5134e-05
1.45962e-05
1.38662e-05
1.29663e-05
1.19231e-05
1.07648e-05
9.5213e-06
8.22672e-06
6.91747e-06
5.6309e-06
4.40132e-06
3.25256e-06
2.19032e-06
1.19958e-06
2.41787e-07
8.30642e-09
8.2607e-09
2.40489e-07
1.19366e-06
2.18025e-06
3.23886e-06
4.38466e-06
5.61207e-06
6.89732e-06
8.20606e-06
9.50089e-06
1.07453e-05
1.19051e-05
1.29503e-05
1.38528e-05
1.45858e-05
1.51268e-05
1.54591e-05
1.55722e-05
1.54627e-05
1.5134e-05
1.45962e-05
1.38662e-05
1.29663e-05
1.19231e-05
1.07648e-05
9.5213e-06
8.22672e-06
6.91747e-06
5.6309e-06
4.40132e-06
3.25256e-06
2.19032e-06
1.19958e-06
2.41787e-07
8.30642e-09
8.2607e-09
2.40489e-07
1.19366e-06
2.18025e-06
3.23886e-06
4.38466e-06
5.61207e-06
6.89732e-06
8.20606e-06
9.50089e-06
1.07453e-05
1.19051e-05
1.29503e-05
1.38528e-05
1.45858e-05
1.51268e-05
1.54591e-05
1.55722e-05
1.54627e-05
1.5134e-05
1.45962e-05
1.38662e-05
1.29663e-05
1.19231e-05
1.07648e-05
9.5213e-06
8.22672e-06
6.91747e-06
5.6309e-06
4.40132e-06
3.25256e-06
2.19032e-06
1.19958e-06
2.41787e-07
8.30642e-09
8.2607e-09
2.40489e-07
1.19366e-06
2.18025e-06
3.23886e-06
4.38466e-06
5.61207e-06
6.89732e-06
8.20606e-06
9.50089e-06
1.07453e-05
1.19051e-05
1.29503e-05
1.38528e-05
1.45858e-05
1.51268e-05
1.54591e-05
1.55722e-05
1.54627e-05
1.5134e-05
1.45962e-05
1.38662e-05
1.29663e-05
1.19231e-05
1.07648e-05
9.5213e-06
8.22672e-06
6.91747e-06
5.6309e-06
4.40132e-06
3.25256e-06
2.19032e-06
1.19958e-06
2.41787e-07
8.30642e-09
8.2607e-09
2.40489e-07
1.19366e-06
2.18025e-06
3.23886e-06
4.38466e-06
5.61207e-06
6.89732e-06
8.20606e-06
9.50089e-06
1.07453e-05
1.19051e-05
1.29503e-05
1.38528e-05
1.45858e-05
1.51268e-05
1.54591e-05
1.55722e-05
1.54627e-05
1.5134e-05
1.45962e-05
1.38662e-05
1.29663e-05
1.19231e-05
1.07648e-05
9.5213e-06
8.22672e-06
6.91747e-06
5.6309e-06
4.40132e-06
3.25256e-06
2.19032e-06
1.19958e-06
2.41787e-07
8.30642e-09
8.2607e-09
2.40489e-07
1.19366e-06
2.18025e-06
3.23886e-06
4.38466e-06
5.61207e-06
6.89732e-06
8.20606e-06
9.50089e-06
1.07453e-05
1.19051e-05
1.29503e-05
1.38528e-05
1.45858e-05
1.51268e-05
1.54591e-05
1.55722e-05
1.54627e-05
1.5134e-05
1.45962e-05
1.38662e-05
1.29663e-05
1.19231e-05
1.07648e-05
9.5213e-06
8.22672e-06
6.91747e-06
5.6309e-06
4.40132e-06
3.25256e-06
2.19032e-06
1.19958e-06
2.41787e-07
8.30642e-09
8.2607e-09
2.40489e-07
1.19366e-06
2.18025e-06
3.23886e-06
4.38466e-06
5.61207e-06
6.89732e-06
8.20606e-06
9.50089e-06
1.07453e-05
1.19051e-05
1.29503e-05
1.38528e-05
1.45858e-05
1.51268e-05
1.54591e-05
1.55722e-05
1.54627e-05
1.5134e-05
1.45962e-05
1.38662e-05
1.29663e-05
1.19231e-05
1.07648e-05
9.5213e-06
8.22672e-06
6.91747e-06
5.6309e-06
4.40132e-06
3.25256e-06
2.19032e-06
1.19958e-06
2.41787e-07
8.30642e-09
8.2607e-09
2.40489e-07
1.19366e-06
2.18025e-06
3.23886e-06
4.38466e-06
5.61207e-06
6.89732e-06
8.20606e-06
9.50089e-06
1.07453e-05
1.19051e-05
1.29503e-05
1.38528e-05
1.45858e-05
1.51268e-05
1.54591e-05
1.55722e-05
1.54627e-05
1.5134e-05
1.45962e-05
1.38662e-05
1.29663e-05
1.19231e-05
1.07648e-05
9.5213e-06
8.22672e-06
6.91747e-06
5.6309e-06
4.40132e-06
3.25256e-06
2.19032e-06
1.19958e-06
2.41787e-07
8.30642e-09
8.2607e-09
2.40489e-07
1.19366e-06
2.18025e-06
3.23886e-06
4.38466e-06
5.61207e-06
6.89732e-06
8.20606e-06
9.50089e-06
1.07453e-05
1.19051e-05
1.29503e-05
1.38528e-05
1.45858e-05
1.51268e-05
1.54591e-05
1.55722e-05
1.54627e-05
1.5134e-05
1.45962e-05
1.38662e-05
1.29663e-05
1.19231e-05
1.07648e-05
9.5213e-06
8.22672e-06
6.91747e-06
5.6309e-06
4.40132e-06
3.25256e-06
2.19032e-06
1.19958e-06
2.41787e-07
8.30642e-09
8.2607e-09
2.40489e-07
1.19366e-06
2.18025e-06
3.23886e-06
4.38466e-06
5.61207e-06
6.89732e-06
8.20606e-06
9.50089e-06
1.07453e-05
1.19051e-05
1.29503e-05
1.38528e-05
1.45858e-05
1.51268e-05
1.54591e-05
1.55722e-05
1.54627e-05
1.5134e-05
1.45962e-05
1.38662e-05
1.29663e-05
1.19231e-05
1.07648e-05
9.5213e-06
8.22672e-06
6.91747e-06
5.6309e-06
4.40132e-06
3.25256e-06
2.19032e-06
1.19958e-06
2.41787e-07
8.30642e-09
8.2607e-09
2.40489e-07
1.19366e-06
2.18025e-06
3.23886e-06
4.38466e-06
5.61207e-06
6.89732e-06
8.20606e-06
9.50089e-06
1.07453e-05
1.19051e-05
1.29503e-05
1.38528e-05
1.45858e-05
1.51268e-05
1.54591e-05
1.55722e-05
1.54627e-05
1.5134e-05
1.45962e-05
1.38662e-05
1.29663e-05
1.19231e-05
1.07648e-05
9.5213e-06
8.22672e-06
6.91747e-06
5.6309e-06
4.40132e-06
3.25256e-06
2.19032e-06
1.19958e-06
2.41787e-07
8.30642e-09
8.2607e-09
2.40489e-07
1.19366e-06
2.18025e-06
3.23886e-06
4.38466e-06
5.61207e-06
6.89732e-06
8.20606e-06
9.50089e-06
1.07453e-05
1.19051e-05
1.29503e-05
1.38528e-05
1.45858e-05
1.51268e-05
1.54591e-05
1.55722e-05
1.54627e-05
1.5134e-05
1.45962e-05
1.38662e-05
1.29663e-05
1.19231e-05
1.07648e-05
9.5213e-06
8.22672e-06
6.91747e-06
5.6309e-06
4.40132e-06
3.25256e-06
2.19032e-06
1.19958e-06
2.41787e-07
8.30642e-09
8.2607e-09
2.40489e-07
1.19366e-06
2.18025e-06
3.23886e-06
4.38466e-06
5.61207e-06
6.89732e-06
8.20606e-06
9.50089e-06
1.07453e-05
1.19051e-05
1.29503e-05
1.38528e-05
1.45858e-05
1.51268e-05
1.54591e-05
1.55722e-05
1.54627e-05
1.5134e-05
1.45962e-05
1.38662e-05
1.29663e-05
1.19231e-05
1.07648e-05
9.5213e-06
8.22672e-06
6.91747e-06
5.6309e-06
4.40132e-06
3.25256e-06
2.19032e-06
1.19958e-06
2.41787e-07
8.30642e-09
8.2607e-09
2.40489e-07
1.19366e-06
2.18025e-06
3.23886e-06
4.38466e-06
5.61207e-06
6.89732e-06
8.20606e-06
9.50089e-06
1.07453e-05
1.19051e-05
1.29503e-05
1.38528e-05
1.45858e-05
1.51268e-05
1.54591e-05
1.55722e-05
1.54627e-05
1.5134e-05
1.45962e-05
1.38662e-05
1.29663e-05
1.19231e-05
1.07648e-05
9.5213e-06
8.22672e-06
6.91747e-06
5.6309e-06
4.40132e-06
3.25256e-06
2.19032e-06
1.19958e-06
2.41787e-07
8.30642e-09
8.2607e-09
2.40489e-07
1.19366e-06
2.18025e-06
3.23886e-06
4.38466e-06
5.61207e-06
6.89732e-06
8.20606e-06
9.50089e-06
1.07453e-05
1.19051e-05
1.29503e-05
1.38528e-05
1.45858e-05
1.51268e-05
1.54591e-05
1.55722e-05
1.54627e-05
1.5134e-05
1.45962e-05
1.38662e-05
1.29663e-05
1.19231e-05
1.07648e-05
9.5213e-06
8.22672e-06
6.91747e-06
5.6309e-06
4.40132e-06
3.25256e-06
2.19032e-06
1.19958e-06
2.41787e-07
8.30642e-09
8.2607e-09
2.40489e-07
1.19366e-06
2.18025e-06
3.23886e-06
4.38466e-06
5.61207e-06
6.89732e-06
8.20606e-06
9.50089e-06
1.07453e-05
1.19051e-05
1.29503e-05
1.38528e-05
1.45858e-05
1.51268e-05
1.54591e-05
1.55722e-05
1.54627e-05
1.5134e-05
1.45962e-05
1.38662e-05
1.29663e-05
1.19231e-05
1.07648e-05
9.5213e-06
8.22672e-06
6.91747e-06
5.6309e-06
4.40132e-06
3.25256e-06
2.19032e-06
1.19958e-06
2.41787e-07
8.30642e-09
8.2607e-09
2.40489e-07
1.19366e-06
2.18025e-06
3.23886e-06
4.38466e-06
5.61207e-06
6.89732e-06
8.20606e-06
9.50089e-06
1.07453e-05
1.19051e-05
1.29503e-05
1.38528e-05
1.45858e-05
1.51268e-05
1.54591e-05
1.55722e-05
1.54627e-05
1.5134e-05
1.45962e-05
1.38662e-05
1.29663e-05
1.19231e-05
1.07648e-05
9.5213e-06
8.22672e-06
6.91747e-06
5.6309e-06
4.40132e-06
3.25256e-06
2.19032e-06
1.19958e-06
2.41787e-07
8.30642e-09
8.2607e-09
2.40489e-07
1.19366e-06
2.18025e-06
3.23886e-06
4.38466e-06
5.61207e-06
6.89732e-06
8.20606e-06
9.50089e-06
1.07453e-05
1.19051e-05
1.29503e-05
1.38528e-05
1.45858e-05
1.51268e-05
1.54591e-05
1.55722e-05
1.54627e-05
1.5134e-05
1.45962e-05
1.38662e-05
1.29663e-05
1.19231e-05
1.07648e-05
9.5213e-06
8.22672e-06
6.91747e-06
5.6309e-06
4.40132e-06
3.25256e-06
2.19032e-06
1.19958e-06
2.41787e-07
8.30642e-09
8.2607e-09
2.40489e-07
1.19366e-06
2.18025e-06
3.23886e-06
4.38466e-06
5.61207e-06
6.89732e-06
8.20606e-06
9.50089e-06
1.07453e-05
1.19051e-05
1.29503e-05
1.38528e-05
1.45858e-05
1.51268e-05
1.54591e-05
1.55722e-05
1.54627e-05
1.5134e-05
1.45962e-05
1.38662e-05
1.29663e-05
1.19231e-05
1.07648e-05
9.5213e-06
8.22672e-06
6.91747e-06
5.6309e-06
4.40132e-06
3.25256e-06
2.19032e-06
1.19958e-06
2.41787e-07
8.30642e-09
8.2607e-09
2.40489e-07
1.19366e-06
2.18025e-06
3.23886e-06
4.38466e-06
5.61207e-06
6.89732e-06
8.20606e-06
9.50089e-06
1.07453e-05
1.19051e-05
1.29503e-05
1.38528e-05
1.45858e-05
1.51268e-05
1.54591e-05
1.55722e-05
1.54627e-05
1.5134e-05
1.45962e-05
1.38662e-05
1.29663e-05
1.19231e-05
1.07648e-05
9.5213e-06
8.22672e-06
6.91747e-06
5.6309e-06
4.40132e-06
3.25256e-06
2.19032e-06
1.19958e-06
2.41787e-07
8.30642e-09
8.2607e-09
2.40489e-07
1.19366e-06
2.18025e-06
3.23886e-06
4.38466e-06
5.61207e-06
6.89732e-06
8.20606e-06
9.50089e-06
1.07453e-05
1.19051e-05
1.29503e-05
1.38528e-05
1.45858e-05
1.51268e-05
1.54591e-05
1.55722e-05
1.54627e-05
1.5134e-05
1.45962e-05
1.38662e-05
1.29663e-05
1.19231e-05
1.07648e-05
9.5213e-06
8.22672e-06
6.91747e-06
5.6309e-06
4.40132e-06
3.25256e-06
2.19032e-06
1.19958e-06
2.41787e-07
8.30642e-09
8.2607e-09
2.40489e-07
1.19366e-06
2.18025e-06
3.23886e-06
4.38466e-06
5.61207e-06
6.89732e-06
8.20606e-06
9.50089e-06
1.07453e-05
1.19051e-05
1.29503e-05
1.38528e-05
1.45858e-05
1.51268e-05
1.54591e-05
1.55722e-05
1.54627e-05
1.5134e-05
1.45962e-05
1.38662e-05
1.29663e-05
1.19231e-05
1.07648e-05
9.5213e-06
8.22672e-06
6.91747e-06
5.6309e-06
4.40132e-06
3.25256e-06
2.19032e-06
1.19958e-06
2.41787e-07
8.30642e-09
8.2607e-09
2.40489e-07
1.19366e-06
2.18025e-06
3.23886e-06
4.38466e-06
5.61207e-06
6.89732e-06
8.20606e-06
9.50089e-06
1.07453e-05
1.19051e-05
1.29503e-05
1.38528e-05
1.45858e-05
1.51268e-05
1.54591e-05
1.55722e-05
1.54627e-05
1.5134e-05
1.45962e-05
1.38662e-05
1.29663e-05
1.19231e-05
1.07648e-05
9.5213e-06
8.22672e-06
6.91747e-06
5.6309e-06
4.40132e-06
3.25256e-06
2.19032e-06
1.19958e-06
2.41787e-07
8.30642e-09
8.2607e-09
2.40489e-07
1.19366e-06
2.18025e-06
3.23886e-06
4.38466e-06
5.61207e-06
6.89732e-06
8.20606e-06
9.50089e-06
1.07453e-05
1.19051e-05
1.29503e-05
1.38528e-05
1.45858e-05
1.51268e-05
1.54591e-05
1.55722e-05
1.54627e-05
1.5134e-05
1.45962e-05
1.38662e-05
1.29663e-05
1.19231e-05
1.07648e-05
9.5213e-06
8.22672e-06
6.91747e-06
5.6309e-06
4.40132e-06
3.25256e-06
2.19032e-06
1.19958e-06
2.41787e-07
8.30642e-09
8.2607e-09
2.40489e-07
1.19366e-06
2.18025e-06
3.23886e-06
4.38466e-06
5.61207e-06
6.89732e-06
8.20606e-06
9.50089e-06
1.07453e-05
1.19051e-05
1.29503e-05
1.38528e-05
1.45858e-05
1.51268e-05
1.54591e-05
1.55722e-05
1.54627e-05
1.5134e-05
1.45962e-05
1.38662e-05
1.29663e-05
1.19231e-05
1.07648e-05
9.5213e-06
8.22672e-06
6.91747e-06
5.6309e-06
4.40132e-06
3.25256e-06
2.19032e-06
1.19958e-06
2.41787e-07
8.30642e-09
8.2607e-09
2.40489e-07
1.19366e-06
2.18025e-06
3.23886e-06
4.38466e-06
5.61207e-06
6.89732e-06
8.20606e-06
9.50089e-06
1.07453e-05
1.19051e-05
1.29503e-05
1.38528e-05
1.45858e-05
1.51268e-05
1.54591e-05
1.55722e-05
1.54627e-05
1.5134e-05
1.45962e-05
1.38662e-05
1.29663e-05
1.19231e-05
1.07648e-05
9.5213e-06
8.22672e-06
6.91747e-06
5.6309e-06
4.40132e-06
3.25256e-06
2.19032e-06
1.19958e-06
2.41787e-07
8.30642e-09
8.2607e-09
2.40489e-07
1.19366e-06
2.18025e-06
3.23886e-06
4.38466e-06
5.61207e-06
6.89732e-06
8.20606e-06
9.50089e-06
1.07453e-05
1.19051e-05
1.29503e-05
1.38528e-05
1.45858e-05
1.51268e-05
1.54591e-05
1.55722e-05
1.54627e-05
1.5134e-05
1.45962e-05
1.38662e-05
1.29663e-05
1.19231e-05
1.07648e-05
9.5213e-06
8.22672e-06
6.91747e-06
5.6309e-06
4.40132e-06
3.25256e-06
2.19032e-06
1.19958e-06
2.41787e-07
8.30642e-09
8.2607e-09
2.40489e-07
1.19366e-06
2.18025e-06
3.23886e-06
4.38466e-06
5.61207e-06
6.89732e-06
8.20606e-06
9.50089e-06
1.07453e-05
1.19051e-05
1.29503e-05
1.38528e-05
1.45858e-05
1.51268e-05
1.54591e-05
1.55722e-05
1.54627e-05
1.5134e-05
1.45962e-05
1.38662e-05
1.29663e-05
1.19231e-05
1.07648e-05
9.5213e-06
8.22672e-06
6.91747e-06
5.6309e-06
4.40132e-06
3.25256e-06
2.19032e-06
1.19958e-06
2.41787e-07
8.30642e-09
8.2607e-09
2.40489e-07
1.19366e-06
2.18025e-06
3.23886e-06
4.38466e-06
5.61207e-06
6.89732e-06
8.20606e-06
9.50089e-06
1.07453e-05
1.19051e-05
1.29503e-05
1.38528e-05
1.45858e-05
1.51268e-05
1.54591e-05
1.55722e-05
1.54627e-05
1.5134e-05
1.45962e-05
1.38662e-05
1.29663e-05
1.19231e-05
1.07648e-05
9.5213e-06
8.22672e-06
6.91747e-06
5.6309e-06
4.40132e-06
3.25256e-06
2.19032e-06
1.19958e-06
2.41787e-07
8.30642e-09
8.2607e-09
2.40489e-07
1.19366e-06
2.18025e-06
3.23886e-06
4.38466e-06
5.61207e-06
6.89732e-06
8.20606e-06
9.50089e-06
1.07453e-05
1.19051e-05
1.29503e-05
1.38528e-05
1.45858e-05
1.51268e-05
1.54591e-05
1.55722e-05
1.54627e-05
1.5134e-05
1.45962e-05
1.38662e-05
1.29663e-05
1.19231e-05
1.07648e-05
9.5213e-06
8.22672e-06
6.91747e-06
5.6309e-06
4.40132e-06
3.25256e-06
2.19032e-06
1.19958e-06
2.41787e-07
8.30642e-09
8.2607e-09
2.40489e-07
1.19366e-06
2.18025e-06
3.23886e-06
4.38466e-06
5.61207e-06
6.89732e-06
8.20606e-06
9.50089e-06
1.07453e-05
1.19051e-05
1.29503e-05
1.38528e-05
1.45858e-05
1.51268e-05
1.54591e-05
1.55722e-05
1.54627e-05
1.5134e-05
1.45962e-05
1.38662e-05
1.29663e-05
1.19231e-05
1.07648e-05
9.5213e-06
8.22672e-06
6.91747e-06
5.6309e-06
4.40132e-06
3.25256e-06
2.19032e-06
1.19958e-06
2.41787e-07
8.30642e-09
8.2607e-09
2.40489e-07
1.19366e-06
2.18025e-06
3.23886e-06
4.38466e-06
5.61207e-06
6.89732e-06
8.20606e-06
9.50089e-06
1.07453e-05
1.19051e-05
1.29503e-05
1.38528e-05
1.45858e-05
1.51268e-05
1.54591e-05
1.55722e-05
1.54627e-05
1.5134e-05
1.45962e-05
1.38662e-05
1.29663e-05
1.19231e-05
1.07648e-05
9.5213e-06
8.22672e-06
6.91747e-06
5.6309e-06
4.40132e-06
3.25256e-06
2.19032e-06
1.19958e-06
2.41787e-07
8.30642e-09
8.2607e-09
2.40489e-07
1.19366e-06
2.18025e-06
3.23886e-06
4.38466e-06
5.61207e-06
6.89732e-06
8.20606e-06
9.50089e-06
1.07453e-05
1.19051e-05
1.29503e-05
1.38528e-05
1.45858e-05
1.51268e-05
1.54591e-05
1.55722e-05
1.54627e-05
1.5134e-05
1.45962e-05
1.38662e-05
1.29663e-05
1.19231e-05
1.07648e-05
9.5213e-06
8.22672e-06
6.91747e-06
5.6309e-06
4.40132e-06
3.25256e-06
2.19032e-06
1.19958e-06
2.41787e-07
8.30642e-09
8.2607e-09
2.40489e-07
1.19366e-06
2.18025e-06
3.23886e-06
4.38466e-06
5.61207e-06
6.89732e-06
8.20606e-06
9.50089e-06
1.07453e-05
1.19051e-05
1.29503e-05
1.38528e-05
1.45858e-05
1.51268e-05
1.54591e-05
1.55722e-05
1.54627e-05
1.5134e-05
1.45962e-05
1.38662e-05
1.29663e-05
1.19231e-05
1.07648e-05
9.5213e-06
8.22672e-06
6.91747e-06
5.6309e-06
4.40132e-06
3.25256e-06
2.19032e-06
1.19958e-06
2.41787e-07
8.30642e-09
8.2607e-09
2.40489e-07
1.19366e-06
2.18025e-06
3.23886e-06
4.38466e-06
5.61207e-06
6.89732e-06
8.20606e-06
9.50089e-06
1.07453e-05
1.19051e-05
1.29503e-05
1.38528e-05
1.45858e-05
1.51268e-05
1.54591e-05
1.55722e-05
1.54627e-05
1.5134e-05
1.45962e-05
1.38662e-05
1.29663e-05
1.19231e-05
1.07648e-05
9.5213e-06
8.22672e-06
6.91747e-06
5.6309e-06
4.40132e-06
3.25256e-06
2.19032e-06
1.19958e-06
2.41787e-07
8.30642e-09
8.2607e-09
2.40489e-07
1.19366e-06
2.18025e-06
3.23886e-06
4.38466e-06
5.61207e-06
6.89732e-06
8.20606e-06
9.50089e-06
1.07453e-05
1.19051e-05
1.29503e-05
1.38528e-05
1.45858e-05
1.51268e-05
1.54591e-05
1.55722e-05
1.54627e-05
1.5134e-05
1.45962e-05
1.38662e-05
1.29663e-05
1.19231e-05
1.07648e-05
9.5213e-06
8.22672e-06
6.91747e-06
5.6309e-06
4.40132e-06
3.25256e-06
2.19032e-06
1.19958e-06
2.41787e-07
8.30642e-09
8.2607e-09
2.40489e-07
1.19366e-06
2.18025e-06
3.23886e-06
4.38466e-06
5.61207e-06
6.89732e-06
8.20606e-06
9.50089e-06
1.07453e-05
1.19051e-05
1.29503e-05
1.38528e-05
1.45858e-05
1.51268e-05
1.54591e-05
1.55722e-05
1.54627e-05
1.5134e-05
1.45962e-05
1.38662e-05
1.29663e-05
1.19231e-05
1.07648e-05
9.5213e-06
8.22672e-06
6.91747e-06
5.6309e-06
4.40132e-06
3.25256e-06
2.19032e-06
1.19958e-06
2.41787e-07
8.30642e-09
8.2607e-09
2.40489e-07
1.19366e-06
2.18025e-06
3.23886e-06
4.38466e-06
5.61207e-06
6.89732e-06
8.20606e-06
9.50089e-06
1.07453e-05
1.19051e-05
1.29503e-05
1.38528e-05
1.45858e-05
1.51268e-05
1.54591e-05
1.55722e-05
1.54627e-05
1.5134e-05
1.45962e-05
1.38662e-05
1.29663e-05
1.19231e-05
1.07648e-05
9.5213e-06
8.22672e-06
6.91747e-06
5.6309e-06
4.40132e-06
3.25256e-06
2.19032e-06
1.19958e-06
2.41787e-07
8.30642e-09
8.2607e-09
2.40489e-07
1.19366e-06
2.18025e-06
3.23886e-06
4.38466e-06
5.61207e-06
6.89732e-06
8.20606e-06
9.50089e-06
1.07453e-05
1.19051e-05
1.29503e-05
1.38528e-05
1.45858e-05
1.51268e-05
1.54591e-05
1.55722e-05
1.54627e-05
1.5134e-05
1.45962e-05
1.38662e-05
1.29663e-05
1.19231e-05
1.07648e-05
9.5213e-06
8.22672e-06
6.91747e-06
5.6309e-06
4.40132e-06
3.25256e-06
2.19032e-06
1.19958e-06
2.41787e-07
8.30642e-09
8.2607e-09
2.40489e-07
1.19366e-06
2.18025e-06
3.23886e-06
4.38466e-06
5.61207e-06
6.89732e-06
8.20606e-06
9.50089e-06
1.07453e-05
1.19051e-05
1.29503e-05
1.38528e-05
1.45858e-05
1.51268e-05
1.54591e-05
1.55722e-05
1.54627e-05
1.5134e-05
1.45962e-05
1.38662e-05
1.29663e-05
1.19231e-05
1.07648e-05
9.5213e-06
8.22672e-06
6.91747e-06
5.6309e-06
4.40132e-06
3.25256e-06
2.19032e-06
1.19958e-06
2.41787e-07
8.30642e-09
8.2607e-09
2.40489e-07
1.19366e-06
2.18025e-06
3.23886e-06
4.38466e-06
5.61207e-06
6.89732e-06
8.20606e-06
9.50089e-06
1.07453e-05
1.19051e-05
1.29503e-05
1.38528e-05
1.45858e-05
1.51268e-05
1.54591e-05
1.55722e-05
1.54627e-05
1.5134e-05
1.45962e-05
1.38662e-05
1.29663e-05
1.19231e-05
1.07648e-05
9.5213e-06
8.22672e-06
6.91747e-06
5.6309e-06
4.40132e-06
3.25256e-06
2.19032e-06
1.19958e-06
2.41787e-07
8.30642e-09
8.2607e-09
2.40489e-07
1.19366e-06
2.18025e-06
3.23886e-06
4.38466e-06
5.61207e-06
6.89732e-06
8.20606e-06
9.50089e-06
1.07453e-05
1.19051e-05
1.29503e-05
1.38528e-05
1.45858e-05
1.51268e-05
1.54591e-05
1.55722e-05
1.54627e-05
1.5134e-05
1.45962e-05
1.38662e-05
1.29663e-05
1.19231e-05
1.07648e-05
9.5213e-06
8.22672e-06
6.91747e-06
5.6309e-06
4.40132e-06
3.25256e-06
2.19032e-06
1.19958e-06
2.41787e-07
8.30642e-09
8.2607e-09
2.40489e-07
1.19366e-06
2.18025e-06
3.23886e-06
4.38466e-06
5.61207e-06
6.89732e-06
8.20606e-06
9.50089e-06
1.07453e-05
1.19051e-05
1.29503e-05
1.38528e-05
1.45858e-05
1.51268e-05
1.54591e-05
1.55722e-05
1.54627e-05
1.5134e-05
1.45962e-05
1.38662e-05
1.29663e-05
1.19231e-05
1.07648e-05
9.5213e-06
8.22672e-06
6.91747e-06
5.6309e-06
4.40132e-06
3.25256e-06
2.19032e-06
1.19958e-06
2.41787e-07
8.30642e-09
8.2607e-09
2.40489e-07
1.19366e-06
2.18025e-06
3.23886e-06
4.38466e-06
5.61207e-06
6.89732e-06
8.20606e-06
9.50089e-06
1.07453e-05
1.19051e-05
1.29503e-05
1.38528e-05
1.45858e-05
1.51268e-05
1.54591e-05
1.55722e-05
1.54627e-05
1.5134e-05
1.45962e-05
1.38662e-05
1.29663e-05
1.19231e-05
1.07648e-05
9.5213e-06
8.22672e-06
6.91747e-06
5.6309e-06
4.40132e-06
3.25256e-06
2.19032e-06
1.19958e-06
2.41787e-07
8.30642e-09
8.2607e-09
2.40489e-07
1.19366e-06
2.18025e-06
3.23886e-06
4.38466e-06
5.61207e-06
6.89732e-06
8.20606e-06
9.50089e-06
1.07453e-05
1.19051e-05
1.29503e-05
1.38528e-05
1.45858e-05
1.51268e-05
1.54591e-05
1.55722e-05
1.54627e-05
1.5134e-05
1.45962e-05
1.38662e-05
1.29663e-05
1.19231e-05
1.07648e-05
9.5213e-06
8.22672e-06
6.91747e-06
5.6309e-06
4.40132e-06
3.25256e-06
2.19032e-06
1.19958e-06
2.41787e-07
8.30642e-09
8.2607e-09
2.40489e-07
1.19366e-06
2.18025e-06
3.23886e-06
4.38466e-06
5.61207e-06
6.89732e-06
8.20606e-06
9.50089e-06
1.07453e-05
1.19051e-05
1.29503e-05
1.38528e-05
1.45858e-05
1.51268e-05
1.54591e-05
1.55722e-05
1.54627e-05
1.5134e-05
1.45962e-05
1.38662e-05
1.29663e-05
1.19231e-05
1.07648e-05
9.5213e-06
8.22672e-06
6.91747e-06
5.6309e-06
4.40132e-06
3.25256e-06
2.19032e-06
1.19958e-06
2.41787e-07
8.30642e-09
8.2607e-09
2.40489e-07
1.19366e-06
2.18025e-06
3.23886e-06
4.38466e-06
5.61207e-06
6.89732e-06
8.20606e-06
9.50089e-06
1.07453e-05
1.19051e-05
1.29503e-05
1.38528e-05
1.45858e-05
1.51268e-05
1.54591e-05
1.55722e-05
1.54627e-05
1.5134e-05
1.45962e-05
1.38662e-05
1.29663e-05
1.19231e-05
1.07648e-05
9.5213e-06
8.22672e-06
6.91747e-06
5.6309e-06
4.40132e-06
3.25256e-06
2.19032e-06
1.19958e-06
2.41787e-07
8.30642e-09
8.2607e-09
2.40489e-07
1.19366e-06
2.18025e-06
3.23886e-06
4.38466e-06
5.61207e-06
6.89732e-06
8.20606e-06
9.50089e-06
1.07453e-05
1.19051e-05
1.29503e-05
1.38528e-05
1.45858e-05
1.51268e-05
1.54591e-05
1.55722e-05
1.54627e-05
1.5134e-05
1.45962e-05
1.38662e-05
1.29663e-05
1.19231e-05
1.07648e-05
9.5213e-06
8.22672e-06
6.91747e-06
5.6309e-06
4.40132e-06
3.25256e-06
2.19032e-06
1.19958e-06
2.41787e-07
8.30642e-09
8.2607e-09
2.40489e-07
1.19366e-06
2.18025e-06
3.23886e-06
4.38466e-06
5.61207e-06
6.89732e-06
8.20606e-06
9.50089e-06
1.07453e-05
1.19051e-05
1.29503e-05
1.38528e-05
1.45858e-05
1.51268e-05
1.54591e-05
1.55722e-05
1.54627e-05
1.5134e-05
1.45962e-05
1.38662e-05
1.29663e-05
1.19231e-05
1.07648e-05
9.5213e-06
8.22672e-06
6.91747e-06
5.6309e-06
4.40132e-06
3.25256e-06
2.19032e-06
1.19958e-06
2.41787e-07
8.30642e-09
8.2607e-09
2.40489e-07
1.19366e-06
2.18025e-06
3.23886e-06
4.38466e-06
5.61207e-06
6.89732e-06
8.20606e-06
9.50089e-06
1.07453e-05
1.19051e-05
1.29503e-05
1.38528e-05
1.45858e-05
1.51268e-05
1.54591e-05
1.55722e-05
1.54627e-05
1.5134e-05
1.45962e-05
1.38662e-05
1.29663e-05
1.19231e-05
1.07648e-05
9.5213e-06
8.22672e-06
6.91747e-06
5.6309e-06
4.40132e-06
3.25256e-06
2.19032e-06
1.19958e-06
2.41787e-07
8.30642e-09
8.2607e-09
2.40489e-07
1.19366e-06
2.18025e-06
3.23886e-06
4.38466e-06
5.61207e-06
6.89732e-06
8.20606e-06
9.50089e-06
1.07453e-05
1.19051e-05
1.29503e-05
1.38528e-05
1.45858e-05
1.51268e-05
1.54591e-05
1.55722e-05
1.54627e-05
1.5134e-05
1.45962e-05
1.38662e-05
1.29663e-05
1.19231e-05
1.07648e-05
9.5213e-06
8.22672e-06
6.91747e-06
5.6309e-06
4.40132e-06
3.25256e-06
2.19032e-06
1.19958e-06
2.41787e-07
8.30642e-09
8.2607e-09
2.40489e-07
1.19366e-06
2.18025e-06
3.23886e-06
4.38466e-06
5.61207e-06
6.89732e-06
8.20606e-06
9.50089e-06
1.07453e-05
1.19051e-05
1.29503e-05
1.38528e-05
1.45858e-05
1.51268e-05
1.54591e-05
1.55722e-05
1.54627e-05
1.5134e-05
1.45962e-05
1.38662e-05
1.29663e-05
1.19231e-05
1.07648e-05
9.5213e-06
8.22672e-06
6.91747e-06
5.6309e-06
4.40132e-06
3.25256e-06
2.19032e-06
1.19958e-06
2.41787e-07
8.30642e-09
8.2607e-09
2.40489e-07
1.19366e-06
2.18025e-06
3.23886e-06
4.38466e-06
5.61207e-06
6.89732e-06
8.20606e-06
9.50089e-06
1.07453e-05
1.19051e-05
1.29503e-05
1.38528e-05
1.45858e-05
1.51268e-05
1.54591e-05
1.55722e-05