/*--------------------------------*- C++ -*----------------------------------*\
  =========                 |
  \\      /  F ield         | OpenFOAM: The Open Source CFD Toolbox
   \\    /   O peration     | Website:  https://openfoam.org
    \\  /    A nd           | Version:  13
     \\/     M anipulation  |
\*---------------------------------------------------------------------------*/
FoamFile
{
    format      ascii;
    class       volScalarField;
    location    "12";
    object      nut;
}
// * * * * * * * * * * * * * * * * * * * * * * * * * * * * * * * * * * * * * //

dimensions      [0 2 -1 0 0 0 0];

internalField   nonuniform List<scalar> 
78750
(
4.60232e-14
1.18258e-11
2.67625e-10
4.86755e-10
7.19621e-10
9.68399e-10
1.23326e-09
1.51198e-09
1.80001e-09
2.09082e-09
2.37649e-09
2.64826e-09
2.89723e-09
3.11488e-09
3.29353e-09
3.42678e-09
3.50978e-09
3.5395e-09
3.51485e-09
3.43675e-09
3.30804e-09
3.13339e-09
2.91908e-09
2.67266e-09
2.40257e-09
2.11767e-09
1.82668e-09
1.5376e-09
1.25701e-09
9.89567e-10
7.37566e-10
5.00811e-10
2.76804e-10
1.23184e-11
4.81197e-14
1.01409e-12
2.64703e-10
3.7487e-08
6.86444e-08
1.01712e-07
1.37113e-07
1.74903e-07
2.14751e-07
2.55966e-07
2.9757e-07
3.38391e-07
3.77161e-07
4.12608e-07
4.43527e-07
4.68847e-07
4.87679e-07
4.99358e-07
5.03469e-07
4.99866e-07
4.88678e-07
4.70301e-07
4.45382e-07
4.14797e-07
3.79604e-07
3.40997e-07
3.00243e-07
2.58607e-07
2.17261e-07
1.77192e-07
1.391e-07
1.0333e-07
6.98351e-08
3.81929e-08
2.70073e-10
1.03519e-12
3.02278e-12
7.89592e-10
1.11894e-07
2.0605e-07
3.08155e-07
4.20136e-07
5.42351e-07
6.73481e-07
8.10659e-07
9.4995e-07
1.08694e-06
1.21712e-06
1.33611e-06
1.43981e-06
1.52461e-06
1.58756e-06
1.62645e-06
1.63994e-06
1.62756e-06
1.58973e-06
1.52778e-06
1.44385e-06
1.34088e-06
1.22246e-06
1.09265e-06
9.55827e-07
8.16487e-07
6.7904e-07
5.47426e-07
4.24533e-07
3.11712e-07
2.08639e-07
1.1341e-07
8.01044e-10
3.06757e-12
5.72938e-12
1.49757e-09
2.11776e-07
3.89598e-07
5.82682e-07
7.94575e-07
1.02542e-06
1.27187e-06
1.52778e-06
1.78556e-06
2.03726e-06
2.27508e-06
2.49149e-06
2.67946e-06
2.83275e-06
2.94627e-06
3.01622e-06
3.04029e-06
3.01768e-06
2.94913e-06
2.83692e-06
2.68478e-06
2.4978e-06
2.28215e-06
2.04485e-06
1.79341e-06
1.53562e-06
1.27941e-06
1.03237e-06
8.00642e-07
5.87623e-07
3.9321e-07
2.13894e-07
1.51364e-09
5.79214e-12
8.30854e-12
2.17311e-09
3.06531e-07
5.62451e-07
8.39249e-07
1.14155e-06
1.46877e-06
1.81531e-06
2.17206e-06
2.52848e-06
2.87398e-06
3.19836e-06
3.492e-06
3.746e-06
3.95251e-06
4.10506e-06
4.19888e-06
4.231e-06
4.20041e-06
4.10808e-06
3.95691e-06
3.75164e-06
3.49868e-06
3.20587e-06
2.88207e-06
2.5369e-06
2.18051e-06
1.8235e-06
1.47636e-06
1.14823e-06
8.4472e-07
5.66467e-07
3.08892e-07
2.19115e-09
8.37897e-12
1.01878e-11
2.66628e-09
3.75401e-07
6.87315e-07
1.02341e-06
1.3889e-06
1.7825e-06
2.19696e-06
2.62123e-06
3.04294e-06
3.44988e-06
3.83046e-06
4.17386e-06
4.47031e-06
4.71125e-06
4.88926e-06
4.99869e-06
5.03607e-06
5.00018e-06
4.89218e-06
4.71552e-06
4.47578e-06
4.18036e-06
3.83778e-06
3.45779e-06
3.05119e-06
2.62955e-06
2.20506e-06
1.79004e-06
1.39556e-06
1.02888e-06
6.91337e-07
3.77769e-07
2.68447e-09
1.02589e-11
1.12884e-11
2.95576e-09
4.15741e-07
7.60164e-07
1.13043e-06
1.53203e-06
1.96323e-06
2.41584e-06
2.87777e-06
3.33569e-06
3.77653e-06
4.18802e-06
4.55883e-06
4.87904e-06
5.13923e-06
5.33138e-06
5.44944e-06
5.48968e-06
5.45086e-06
5.33418e-06
5.14332e-06
4.88428e-06
4.56507e-06
4.19505e-06
3.78414e-06
3.34364e-06
2.88581e-06
2.42368e-06
1.97054e-06
1.5385e-06
1.13575e-06
7.64081e-07
4.18047e-07
2.97355e-09
1.13579e-11
1.18258e-11
3.0975e-09
4.35487e-07
7.95753e-07
1.1826e-06
1.60165e-06
2.05095e-06
2.52186e-06
3.00179e-06
3.47697e-06
3.93395e-06
4.36008e-06
4.74411e-06
5.0757e-06
5.34508e-06
5.54396e-06
5.6661e-06
5.70771e-06
5.66749e-06
5.54668e-06
5.34907e-06
5.08081e-06
4.75019e-06
4.36694e-06
3.94138e-06
3.48475e-06
3.00965e-06
2.52953e-06
2.05812e-06
1.60799e-06
1.18782e-06
7.99589e-07
4.37743e-07
3.11494e-09
1.1894e-11
1.2051e-11
3.15706e-09
4.43793e-07
8.10714e-07
1.20452e-06
1.63088e-06
2.08774e-06
2.56629e-06
3.05373e-06
3.53611e-06
3.99981e-06
4.43206e-06
4.82161e-06
5.15794e-06
5.43116e-06
5.63283e-06
5.75668e-06
5.79886e-06
5.75805e-06
5.63553e-06
5.4351e-06
5.163e-06
4.82762e-06
4.43884e-06
4.00717e-06
3.5438e-06
3.06151e-06
2.57388e-06
2.09484e-06
1.63716e-06
1.20969e-06
8.14512e-07
4.46026e-07
3.17433e-09
1.21186e-11
1.21337e-11
3.17902e-09
4.46861e-07
8.1624e-07
1.21261e-06
1.64167e-06
2.10133e-06
2.5827e-06
3.07291e-06
3.55795e-06
4.02414e-06
4.45865e-06
4.85024e-06
5.18833e-06
5.46295e-06
5.66566e-06
5.79014e-06
5.83253e-06
5.79151e-06
5.66835e-06
5.46688e-06
5.19337e-06
4.85623e-06
4.46541e-06
4.03147e-06
3.56562e-06
3.08067e-06
2.59027e-06
2.1084e-06
1.64793e-06
1.21776e-06
8.20025e-07
4.49087e-07
3.19624e-09
1.22012e-11
1.21609e-11
3.18625e-09
4.47873e-07
8.18063e-07
1.21529e-06
1.64523e-06
2.10582e-06
2.58812e-06
3.07925e-06
3.56517e-06
4.03218e-06
4.46744e-06
4.85971e-06
5.19838e-06
5.47348e-06
5.67653e-06
5.80122e-06
5.84367e-06
5.80258e-06
5.67921e-06
5.4774e-06
5.20342e-06
4.8657e-06
4.4742e-06
4.03951e-06
3.57283e-06
3.087e-06
2.59568e-06
2.11289e-06
1.65149e-06
1.22043e-06
8.21846e-07
4.50097e-07
3.20346e-09
1.22283e-11
1.2169e-11
3.1884e-09
4.48175e-07
8.18607e-07
1.21608e-06
1.6463e-06
2.10716e-06
2.58974e-06
3.08114e-06
3.56733e-06
4.03459e-06
4.47007e-06
4.86254e-06
5.20139e-06
5.47663e-06
5.67978e-06
5.80454e-06
5.84701e-06
5.8059e-06
5.68247e-06
5.48055e-06
5.20643e-06
4.86853e-06
4.47683e-06
4.04191e-06
3.57499e-06
3.0889e-06
2.59731e-06
2.11423e-06
1.65255e-06
1.22123e-06
8.2239e-07
4.50399e-07
3.20561e-09
1.22364e-11
1.21712e-11
3.18899e-09
4.48257e-07
8.18756e-07
1.2163e-06
1.64659e-06
2.10752e-06
2.59018e-06
3.08166e-06
3.56792e-06
4.03525e-06
4.47079e-06
4.86332e-06
5.20222e-06
5.47749e-06
5.68068e-06
5.80545e-06
5.84793e-06
5.80681e-06
5.68336e-06
5.48142e-06
5.20725e-06
4.86931e-06
4.47755e-06
4.04257e-06
3.57558e-06
3.08942e-06
2.59775e-06
2.11459e-06
1.65285e-06
1.22145e-06
8.22539e-07
4.50481e-07
3.2062e-09
1.22386e-11
1.21717e-11
3.18913e-09
4.48278e-07
8.18793e-07
1.21636e-06
1.64666e-06
2.10762e-06
2.59029e-06
3.08179e-06
3.56807e-06
4.03541e-06
4.47098e-06
4.86351e-06
5.20242e-06
5.47771e-06
5.6809e-06
5.80568e-06
5.84816e-06
5.80704e-06
5.68359e-06
5.48164e-06
5.20746e-06
4.86951e-06
4.47773e-06
4.04274e-06
3.57573e-06
3.08955e-06
2.59786e-06
2.11469e-06
1.65292e-06
1.2215e-06
8.22576e-07
4.50502e-07
3.20635e-09
1.22391e-11
1.21719e-11
3.18917e-09
4.48283e-07
8.18802e-07
1.21637e-06
1.64668e-06
2.10764e-06
2.59032e-06
3.08182e-06
3.5681e-06
4.03545e-06
4.47102e-06
4.86356e-06
5.20247e-06
5.47776e-06
5.68095e-06
5.80573e-06
5.84821e-06
5.8071e-06
5.68364e-06
5.48169e-06
5.20751e-06
4.86955e-06
4.47778e-06
4.04278e-06
3.57577e-06
3.08958e-06
2.59789e-06
2.11471e-06
1.65294e-06
1.22152e-06
8.22585e-07
4.50507e-07
3.20638e-09
1.22392e-11
1.21719e-11
3.18918e-09
4.48284e-07
8.18804e-07
1.21637e-06
1.64668e-06
2.10764e-06
2.59032e-06
3.08183e-06
3.56811e-06
4.03546e-06
4.47103e-06
4.86357e-06
5.20248e-06
5.47777e-06
5.68097e-06
5.80574e-06
5.84823e-06
5.80711e-06
5.68365e-06
5.4817e-06
5.20752e-06
4.86956e-06
4.47779e-06
4.04279e-06
3.57578e-06
3.08959e-06
2.59789e-06
2.11471e-06
1.65294e-06
1.22152e-06
8.22587e-07
4.50508e-07
3.20639e-09
1.22393e-11
1.21719e-11
3.18918e-09
4.48284e-07
8.18804e-07
1.21637e-06
1.64668e-06
2.10764e-06
2.59033e-06
3.08183e-06
3.56811e-06
4.03546e-06
4.47103e-06
4.86357e-06
5.20248e-06
5.47777e-06
5.68097e-06
5.80574e-06
5.84823e-06
5.80711e-06
5.68366e-06
5.4817e-06
5.20752e-06
4.86956e-06
4.47779e-06
4.04279e-06
3.57578e-06
3.08959e-06
2.59789e-06
2.11471e-06
1.65294e-06
1.22152e-06
8.22587e-07
4.50508e-07
3.20639e-09
1.22393e-11
1.21719e-11
3.18918e-09
4.48284e-07
8.18804e-07
1.21637e-06
1.64668e-06
2.10764e-06
2.59033e-06
3.08183e-06
3.56811e-06
4.03546e-06
4.47103e-06
4.86357e-06
5.20249e-06
5.47778e-06
5.68097e-06
5.80574e-06
5.84823e-06
5.80711e-06
5.68366e-06
5.4817e-06
5.20752e-06
4.86956e-06
4.47779e-06
4.04279e-06
3.57578e-06
3.08959e-06
2.59789e-06
2.11471e-06
1.65294e-06
1.22152e-06
8.22587e-07
4.50508e-07
3.20639e-09
1.22393e-11
1.21719e-11
3.18918e-09
4.48284e-07
8.18804e-07
1.21637e-06
1.64668e-06
2.10764e-06
2.59033e-06
3.08183e-06
3.56811e-06
4.03546e-06
4.47103e-06
4.86357e-06
5.20249e-06
5.47778e-06
5.68097e-06
5.80574e-06
5.84823e-06
5.80711e-06
5.68366e-06
5.4817e-06
5.20752e-06
4.86956e-06
4.47779e-06
4.04279e-06
3.57578e-06
3.08959e-06
2.59789e-06
2.11471e-06
1.65294e-06
1.22152e-06
8.22587e-07
4.50508e-07
3.20639e-09
1.22393e-11
1.21719e-11
3.18918e-09
4.48284e-07
8.18804e-07
1.21637e-06
1.64668e-06
2.10764e-06
2.59033e-06
3.08183e-06
3.56811e-06
4.03546e-06
4.47103e-06
4.86357e-06
5.20249e-06
5.47778e-06
5.68097e-06
5.80574e-06
5.84823e-06
5.80711e-06
5.68366e-06
5.4817e-06
5.20752e-06
4.86956e-06
4.47779e-06
4.04279e-06
3.57578e-06
3.08959e-06
2.59789e-06
2.11471e-06
1.65294e-06
1.22152e-06
8.22587e-07
4.50508e-07
3.20639e-09
1.22393e-11
1.21719e-11
3.18918e-09
4.48284e-07
8.18804e-07
1.21637e-06
1.64668e-06
2.10764e-06
2.59033e-06
3.08183e-06
3.56811e-06
4.03546e-06
4.47103e-06
4.86357e-06
5.20249e-06
5.47778e-06
5.68097e-06
5.80574e-06
5.84823e-06
5.80711e-06
5.68366e-06
5.4817e-06
5.20752e-06
4.86956e-06
4.47779e-06
4.04279e-06
3.57578e-06
3.08959e-06
2.59789e-06
2.11471e-06
1.65294e-06
1.22152e-06
8.22587e-07
4.50508e-07
3.20639e-09
1.22393e-11
1.21719e-11
3.18918e-09
4.48284e-07
8.18804e-07
1.21637e-06
1.64668e-06
2.10764e-06
2.59033e-06
3.08183e-06
3.56811e-06
4.03546e-06
4.47103e-06
4.86357e-06
5.20249e-06
5.47778e-06
5.68097e-06
5.80574e-06
5.84823e-06
5.80711e-06
5.68366e-06
5.4817e-06
5.20752e-06
4.86956e-06
4.47779e-06
4.04279e-06
3.57578e-06
3.08959e-06
2.59789e-06
2.11471e-06
1.65294e-06
1.22152e-06
8.22587e-07
4.50508e-07
3.20639e-09
1.22393e-11
1.21719e-11
3.18918e-09
4.48284e-07
8.18804e-07
1.21637e-06
1.64668e-06
2.10764e-06
2.59033e-06
3.08183e-06
3.56811e-06
4.03546e-06
4.47103e-06
4.86357e-06
5.20249e-06
5.47778e-06
5.68097e-06
5.80574e-06
5.84823e-06
5.80711e-06
5.68366e-06
5.4817e-06
5.20752e-06
4.86956e-06
4.47779e-06
4.04279e-06
3.57578e-06
3.08959e-06
2.59789e-06
2.11471e-06
1.65294e-06
1.22152e-06
8.22587e-07
4.50508e-07
3.20639e-09
1.22393e-11
1.21719e-11
3.18918e-09
4.48284e-07
8.18804e-07
1.21637e-06
1.64668e-06
2.10764e-06
2.59033e-06
3.08183e-06
3.56811e-06
4.03546e-06
4.47103e-06
4.86357e-06
5.20249e-06
5.47778e-06
5.68097e-06
5.80574e-06
5.84823e-06
5.80711e-06
5.68366e-06
5.4817e-06
5.20752e-06
4.86956e-06
4.47779e-06
4.04279e-06
3.57578e-06
3.08959e-06
2.59789e-06
2.11471e-06
1.65294e-06
1.22152e-06
8.22587e-07
4.50508e-07
3.20639e-09
1.22393e-11
1.21719e-11
3.18918e-09
4.48284e-07
8.18804e-07
1.21637e-06
1.64668e-06
2.10764e-06
2.59033e-06
3.08183e-06
3.56811e-06
4.03546e-06
4.47103e-06
4.86357e-06
5.20249e-06
5.47778e-06
5.68097e-06
5.80574e-06
5.84823e-06
5.80711e-06
5.68366e-06
5.4817e-06
5.20752e-06
4.86956e-06
4.47779e-06
4.04279e-06
3.57578e-06
3.08959e-06
2.59789e-06
2.11471e-06
1.65294e-06
1.22152e-06
8.22587e-07
4.50508e-07
3.20639e-09
1.22393e-11
1.21719e-11
3.18918e-09
4.48284e-07
8.18804e-07
1.21637e-06
1.64668e-06
2.10764e-06
2.59033e-06
3.08183e-06
3.56811e-06
4.03546e-06
4.47103e-06
4.86357e-06
5.20249e-06
5.47778e-06
5.68097e-06
5.80574e-06
5.84823e-06
5.80711e-06
5.68366e-06
5.4817e-06
5.20752e-06
4.86956e-06
4.47779e-06
4.04279e-06
3.57578e-06
3.08959e-06
2.59789e-06
2.11471e-06
1.65294e-06
1.22152e-06
8.22587e-07
4.50508e-07
3.20639e-09
1.22393e-11
1.21719e-11
3.18918e-09
4.48284e-07
8.18804e-07
1.21637e-06
1.64668e-06
2.10764e-06
2.59033e-06
3.08183e-06
3.56811e-06
4.03546e-06
4.47103e-06
4.86357e-06
5.20249e-06
5.47778e-06
5.68097e-06
5.80574e-06
5.84823e-06
5.80711e-06
5.68366e-06
5.4817e-06
5.20752e-06
4.86956e-06
4.47779e-06
4.04279e-06
3.57578e-06
3.08959e-06
2.59789e-06
2.11471e-06
1.65294e-06
1.22152e-06
8.22587e-07
4.50508e-07
3.20639e-09
1.22393e-11
1.21719e-11
3.18918e-09
4.48284e-07
8.18804e-07
1.21637e-06
1.64668e-06
2.10764e-06
2.59033e-06
3.08183e-06
3.56811e-06
4.03546e-06
4.47103e-06
4.86357e-06
5.20249e-06
5.47778e-06
5.68097e-06
5.80574e-06
5.84823e-06
5.80711e-06
5.68366e-06
5.4817e-06
5.20752e-06
4.86956e-06
4.47779e-06
4.04279e-06
3.57578e-06
3.08959e-06
2.59789e-06
2.11471e-06
1.65294e-06
1.22152e-06
8.22587e-07
4.50508e-07
3.20639e-09
1.22393e-11
1.21719e-11
3.18918e-09
4.48284e-07
8.18804e-07
1.21637e-06
1.64668e-06
2.10764e-06
2.59033e-06
3.08183e-06
3.56811e-06
4.03546e-06
4.47103e-06
4.86357e-06
5.20249e-06
5.47778e-06
5.68097e-06
5.80574e-06
5.84823e-06
5.80711e-06
5.68366e-06
5.4817e-06
5.20752e-06
4.86956e-06
4.47779e-06
4.04279e-06
3.57578e-06
3.08959e-06
2.59789e-06
2.11471e-06
1.65294e-06
1.22152e-06
8.22587e-07
4.50508e-07
3.20639e-09
1.22393e-11
1.21719e-11
3.18918e-09
4.48284e-07
8.18804e-07
1.21637e-06
1.64668e-06
2.10764e-06
2.59033e-06
3.08183e-06
3.56811e-06
4.03546e-06
4.47103e-06
4.86357e-06
5.20249e-06
5.47778e-06
5.68097e-06
5.80574e-06
5.84823e-06
5.80711e-06
5.68366e-06
5.4817e-06
5.20752e-06
4.86956e-06
4.47779e-06
4.04279e-06
3.57578e-06
3.08959e-06
2.59789e-06
2.11471e-06
1.65294e-06
1.22152e-06
8.22587e-07
4.50508e-07
3.20639e-09
1.22393e-11
1.21719e-11
3.18918e-09
4.48284e-07
8.18804e-07
1.21637e-06
1.64668e-06
2.10764e-06
2.59033e-06
3.08183e-06
3.56811e-06
4.03546e-06
4.47103e-06
4.86357e-06
5.20249e-06
5.47778e-06
5.68097e-06
5.80574e-06
5.84823e-06
5.80711e-06
5.68366e-06
5.4817e-06
5.20752e-06
4.86956e-06
4.47779e-06
4.04279e-06
3.57578e-06
3.08959e-06
2.59789e-06
2.11471e-06
1.65294e-06
1.22152e-06
8.22587e-07
4.50508e-07
3.20639e-09
1.22393e-11
1.21719e-11
3.18918e-09
4.48284e-07
8.18804e-07
1.21637e-06
1.64668e-06
2.10764e-06
2.59033e-06
3.08183e-06
3.56811e-06
4.03546e-06
4.47103e-06
4.86357e-06
5.20249e-06
5.47778e-06
5.68097e-06
5.80574e-06
5.84823e-06
5.80711e-06
5.68366e-06
5.4817e-06
5.20752e-06
4.86956e-06
4.47779e-06
4.04279e-06
3.57578e-06
3.08959e-06
2.59789e-06
2.11471e-06
1.65294e-06
1.22152e-06
8.22587e-07
4.50508e-07
3.20639e-09
1.22393e-11
1.21719e-11
3.18918e-09
4.48284e-07
8.18804e-07
1.21637e-06
1.64668e-06
2.10764e-06
2.59033e-06
3.08183e-06
3.56811e-06
4.03546e-06
4.47103e-06
4.86357e-06
5.20249e-06
5.47778e-06
5.68097e-06
5.80574e-06
5.84823e-06
5.80711e-06
5.68366e-06
5.4817e-06
5.20752e-06
4.86956e-06
4.47779e-06
4.04279e-06
3.57578e-06
3.08959e-06
2.59789e-06
2.11471e-06
1.65294e-06
1.22152e-06
8.22587e-07
4.50508e-07
3.20639e-09
1.22393e-11
1.21719e-11
3.18918e-09
4.48284e-07
8.18804e-07
1.21637e-06
1.64668e-06
2.10764e-06
2.59033e-06
3.08183e-06
3.56811e-06
4.03546e-06
4.47103e-06
4.86357e-06
5.20249e-06
5.47778e-06
5.68097e-06
5.80574e-06
5.84823e-06
5.80711e-06
5.68366e-06
5.4817e-06
5.20752e-06
4.86956e-06
4.47779e-06
4.04279e-06
3.57578e-06
3.08959e-06
2.59789e-06
2.11471e-06
1.65294e-06
1.22152e-06
8.22587e-07
4.50508e-07
3.20639e-09
1.22393e-11
1.21719e-11
3.18918e-09
4.48284e-07
8.18804e-07
1.21637e-06
1.64668e-06
2.10764e-06
2.59033e-06
3.08183e-06
3.56811e-06
4.03546e-06
4.47103e-06
4.86357e-06
5.20249e-06
5.47778e-06
5.68097e-06
5.80574e-06
5.84823e-06
5.80711e-06
5.68366e-06
5.4817e-06
5.20752e-06
4.86956e-06
4.47779e-06
4.04279e-06
3.57578e-06
3.08959e-06
2.59789e-06
2.11471e-06
1.65294e-06
1.22152e-06
8.22587e-07
4.50508e-07
3.20639e-09
1.22393e-11
1.21719e-11
3.18918e-09
4.48284e-07
8.18804e-07
1.21637e-06
1.64668e-06
2.10764e-06
2.59033e-06
3.08183e-06
3.56811e-06
4.03546e-06
4.47103e-06
4.86357e-06
5.20249e-06
5.47778e-06
5.68097e-06
5.80574e-06
5.84823e-06
5.80711e-06
5.68366e-06
5.4817e-06
5.20752e-06
4.86956e-06
4.47779e-06
4.04279e-06
3.57578e-06
3.08959e-06
2.59789e-06
2.11471e-06
1.65294e-06
1.22152e-06
8.22587e-07
4.50508e-07
3.20639e-09
1.22393e-11
1.21719e-11
3.18918e-09
4.48284e-07
8.18804e-07
1.21637e-06
1.64668e-06
2.10764e-06
2.59033e-06
3.08183e-06
3.56811e-06
4.03546e-06
4.47103e-06
4.86357e-06
5.20249e-06
5.47778e-06
5.68097e-06
5.80574e-06
5.84823e-06
5.80711e-06
5.68366e-06
5.4817e-06
5.20752e-06
4.86956e-06
4.47779e-06
4.04279e-06
3.57578e-06
3.08959e-06
2.59789e-06
2.11471e-06
1.65294e-06
1.22152e-06
8.22587e-07
4.50508e-07
3.20639e-09
1.22393e-11
1.21719e-11
3.18918e-09
4.48284e-07
8.18804e-07
1.21637e-06
1.64668e-06
2.10764e-06
2.59033e-06
3.08183e-06
3.56811e-06
4.03546e-06
4.47103e-06
4.86357e-06
5.20249e-06
5.47778e-06
5.68097e-06
5.80574e-06
5.84823e-06
5.80711e-06
5.68366e-06
5.4817e-06
5.20752e-06
4.86956e-06
4.47779e-06
4.04279e-06
3.57578e-06
3.08959e-06
2.59789e-06
2.11471e-06
1.65294e-06
1.22152e-06
8.22587e-07
4.50508e-07
3.20639e-09
1.22393e-11
1.21719e-11
3.18918e-09
4.48284e-07
8.18804e-07
1.21637e-06
1.64668e-06
2.10764e-06
2.59033e-06
3.08183e-06
3.56811e-06
4.03546e-06
4.47103e-06
4.86357e-06
5.20249e-06
5.47778e-06
5.68097e-06
5.80574e-06
5.84823e-06
5.80711e-06
5.68366e-06
5.4817e-06
5.20752e-06
4.86956e-06
4.47779e-06
4.04279e-06
3.57578e-06
3.08959e-06
2.59789e-06
2.11471e-06
1.65294e-06
1.22152e-06
8.22587e-07
4.50508e-07
3.20639e-09
1.22393e-11
1.21719e-11
3.18918e-09
4.48284e-07
8.18804e-07
1.21637e-06
1.64668e-06
2.10764e-06
2.59033e-06
3.08183e-06
3.56811e-06
4.03546e-06
4.47103e-06
4.86357e-06
5.20249e-06
5.47778e-06
5.68097e-06
5.80574e-06
5.84823e-06
5.80711e-06
5.68366e-06
5.4817e-06
5.20752e-06
4.86956e-06
4.47779e-06
4.04279e-06
3.57578e-06
3.08959e-06
2.59789e-06
2.11471e-06
1.65294e-06
1.22152e-06
8.22587e-07
4.50508e-07
3.20639e-09
1.22393e-11
1.21719e-11
3.18918e-09
4.48284e-07
8.18804e-07
1.21637e-06
1.64668e-06
2.10764e-06
2.59033e-06
3.08183e-06
3.56811e-06
4.03546e-06
4.47103e-06
4.86357e-06
5.20249e-06
5.47778e-06
5.68097e-06
5.80574e-06
5.84823e-06
5.80711e-06
5.68366e-06
5.4817e-06
5.20752e-06
4.86956e-06
4.47779e-06
4.04279e-06
3.57578e-06
3.08959e-06
2.59789e-06
2.11471e-06
1.65294e-06
1.22152e-06
8.22587e-07
4.50508e-07
3.20639e-09
1.22393e-11
1.21719e-11
3.18918e-09
4.48284e-07
8.18804e-07
1.21637e-06
1.64668e-06
2.10764e-06
2.59033e-06
3.08183e-06
3.56811e-06
4.03546e-06
4.47103e-06
4.86357e-06
5.20249e-06
5.47778e-06
5.68097e-06
5.80574e-06
5.84823e-06
5.80711e-06
5.68366e-06
5.4817e-06
5.20752e-06
4.86956e-06
4.47779e-06
4.04279e-06
3.57578e-06
3.08959e-06
2.59789e-06
2.11471e-06
1.65294e-06
1.22152e-06
8.22587e-07
4.50508e-07
3.20639e-09
1.22393e-11
1.21719e-11
3.18918e-09
4.48284e-07
8.18804e-07
1.21637e-06
1.64668e-06
2.10764e-06
2.59033e-06
3.08183e-06
3.56811e-06
4.03546e-06
4.47103e-06
4.86357e-06
5.20249e-06
5.47778e-06
5.68097e-06
5.80574e-06
5.84823e-06
5.80711e-06
5.68366e-06
5.4817e-06
5.20752e-06
4.86956e-06
4.47779e-06
4.04279e-06
3.57578e-06
3.08959e-06
2.59789e-06
2.11471e-06
1.65294e-06
1.22152e-06
8.22587e-07
4.50508e-07
3.20639e-09
1.22393e-11
1.21719e-11
3.18918e-09
4.48284e-07
8.18804e-07
1.21637e-06
1.64668e-06
2.10764e-06
2.59033e-06
3.08183e-06
3.56811e-06
4.03546e-06
4.47103e-06
4.86357e-06
5.20249e-06
5.47778e-06
5.68097e-06
5.80574e-06
5.84823e-06
5.80711e-06
5.68366e-06
5.4817e-06
5.20752e-06
4.86956e-06
4.47779e-06
4.04279e-06
3.57578e-06
3.08959e-06
2.59789e-06
2.11471e-06
1.65294e-06
1.22152e-06
8.22587e-07
4.50508e-07
3.20639e-09
1.22393e-11
1.21719e-11
3.18918e-09
4.48284e-07
8.18804e-07
1.21637e-06
1.64668e-06
2.10764e-06
2.59033e-06
3.08183e-06
3.56811e-06
4.03546e-06
4.47103e-06
4.86357e-06
5.20249e-06
5.47778e-06
5.68097e-06
5.80574e-06
5.84823e-06
5.80711e-06
5.68366e-06
5.4817e-06
5.20752e-06
4.86956e-06
4.47779e-06
4.04279e-06
3.57578e-06
3.08959e-06
2.59789e-06
2.11471e-06
1.65294e-06
1.22152e-06
8.22587e-07
4.50508e-07
3.20639e-09
1.22393e-11
1.21719e-11
3.18918e-09
4.48284e-07
8.18804e-07
1.21637e-06
1.64668e-06
2.10764e-06
2.59033e-06
3.08183e-06
3.56811e-06
4.03546e-06
4.47103e-06
4.86357e-06
5.20249e-06
5.47778e-06
5.68097e-06
5.80574e-06
5.84823e-06
5.80711e-06
5.68366e-06
5.4817e-06
5.20752e-06
4.86956e-06
4.47779e-06
4.04279e-06
3.57578e-06
3.08959e-06
2.59789e-06
2.11471e-06
1.65294e-06
1.22152e-06
8.22587e-07
4.50508e-07
3.20639e-09
1.22393e-11
1.21719e-11
3.18918e-09
4.48284e-07
8.18804e-07
1.21637e-06
1.64668e-06
2.10764e-06
2.59033e-06
3.08183e-06
3.56811e-06
4.03546e-06
4.47103e-06
4.86357e-06
5.20249e-06
5.47778e-06
5.68097e-06
5.80574e-06
5.84823e-06
5.80711e-06
5.68366e-06
5.4817e-06
5.20752e-06
4.86956e-06
4.47779e-06
4.04279e-06
3.57578e-06
3.08959e-06
2.59789e-06
2.11471e-06
1.65294e-06
1.22152e-06
8.22587e-07
4.50508e-07
3.20639e-09
1.22393e-11
1.21719e-11
3.18918e-09
4.48284e-07
8.18804e-07
1.21637e-06
1.64668e-06
2.10764e-06
2.59033e-06
3.08183e-06
3.56811e-06
4.03546e-06
4.47103e-06
4.86357e-06
5.20249e-06
5.47778e-06
5.68097e-06
5.80574e-06
5.84823e-06
5.80711e-06
5.68366e-06
5.4817e-06
5.20752e-06
4.86956e-06
4.47779e-06
4.04279e-06
3.57578e-06
3.08959e-06
2.59789e-06
2.11471e-06
1.65294e-06
1.22152e-06
8.22587e-07
4.50508e-07
3.20639e-09
1.22393e-11
1.21719e-11
3.18918e-09
4.48284e-07
8.18804e-07
1.21637e-06
1.64668e-06
2.10764e-06
2.59033e-06
3.08183e-06
3.56811e-06
4.03546e-06
4.47103e-06
4.86357e-06
5.20249e-06
5.47778e-06
5.68097e-06
5.80574e-06
5.84823e-06
5.80711e-06
5.68366e-06
5.4817e-06
5.20752e-06
4.86956e-06
4.47779e-06
4.04279e-06
3.57578e-06
3.08959e-06
2.59789e-06
2.11471e-06
1.65294e-06
1.22152e-06
8.22587e-07
4.50508e-07
3.20639e-09
1.22393e-11
1.21719e-11
3.18918e-09
4.48284e-07
8.18804e-07
1.21637e-06
1.64668e-06
2.10764e-06
2.59033e-06
3.08183e-06
3.56811e-06
4.03546e-06
4.47103e-06
4.86357e-06
5.20249e-06
5.47778e-06
5.68097e-06
5.80574e-06
5.84823e-06
5.80711e-06
5.68366e-06
5.4817e-06
5.20752e-06
4.86956e-06
4.47779e-06
4.04279e-06
3.57578e-06
3.08959e-06
2.59789e-06
2.11471e-06
1.65294e-06
1.22152e-06
8.22587e-07
4.50508e-07
3.20639e-09
1.22393e-11
1.21719e-11
3.18918e-09
4.48284e-07
8.18804e-07
1.21637e-06
1.64668e-06
2.10764e-06
2.59033e-06
3.08183e-06
3.56811e-06
4.03546e-06
4.47103e-06
4.86357e-06
5.20249e-06
5.47778e-06
5.68097e-06
5.80574e-06
5.84823e-06
5.80711e-06
5.68366e-06
5.4817e-06
5.20752e-06
4.86956e-06
4.47779e-06
4.04279e-06
3.57578e-06
3.08959e-06
2.59789e-06
2.11471e-06
1.65294e-06
1.22152e-06
8.22587e-07
4.50508e-07
3.20639e-09
1.22393e-11
1.21719e-11
3.18918e-09
4.48284e-07
8.18804e-07
1.21637e-06
1.64668e-06
2.10764e-06
2.59033e-06
3.08183e-06
3.56811e-06
4.03546e-06
4.47103e-06
4.86357e-06
5.20249e-06
5.47778e-06
5.68097e-06
5.80574e-06
5.84823e-06
5.80711e-06
5.68366e-06
5.4817e-06
5.20752e-06
4.86956e-06
4.47779e-06
4.04279e-06
3.57578e-06
3.08959e-06
2.59789e-06
2.11471e-06
1.65294e-06
1.22152e-06
8.22587e-07
4.50508e-07
3.20639e-09
1.22393e-11
1.21719e-11
3.18918e-09
4.48284e-07
8.18804e-07
1.21637e-06
1.64668e-06
2.10764e-06
2.59033e-06
3.08183e-06
3.56811e-06
4.03546e-06
4.47103e-06
4.86357e-06
5.20249e-06
5.47778e-06
5.68097e-06
5.80574e-06
5.84823e-06
5.80711e-06
5.68366e-06
5.4817e-06
5.20752e-06
4.86956e-06
4.47779e-06
4.04279e-06
3.57578e-06
3.08959e-06
2.59789e-06
2.11471e-06
1.65294e-06
1.22152e-06
8.22587e-07
4.50508e-07
3.20639e-09
1.22393e-11
1.21719e-11
3.18918e-09
4.48284e-07
8.18804e-07
1.21637e-06
1.64668e-06
2.10764e-06
2.59033e-06
3.08183e-06
3.56811e-06
4.03546e-06
4.47103e-06
4.86357e-06
5.20249e-06
5.47778e-06
5.68097e-06
5.80574e-06
5.84823e-06
5.80711e-06
5.68366e-06
5.4817e-06
5.20752e-06
4.86956e-06
4.47779e-06
4.04279e-06
3.57578e-06
3.08959e-06
2.59789e-06
2.11471e-06
1.65294e-06
1.22152e-06
8.22587e-07
4.50508e-07
3.20639e-09
1.22393e-11
1.21719e-11
3.18918e-09
4.48284e-07
8.18804e-07
1.21637e-06
1.64668e-06
2.10764e-06
2.59033e-06
3.08183e-06
3.56811e-06
4.03546e-06
4.47103e-06
4.86357e-06
5.20249e-06
5.47778e-06
5.68097e-06
5.80574e-06
5.84823e-06
5.80711e-06
5.68366e-06
5.4817e-06
5.20752e-06
4.86956e-06
4.47779e-06
4.04279e-06
3.57578e-06
3.08959e-06
2.59789e-06
2.11471e-06
1.65294e-06
1.22152e-06
8.22587e-07
4.50508e-07
3.20639e-09
1.22393e-11
1.21719e-11
3.18918e-09
4.48284e-07
8.18804e-07
1.21637e-06
1.64668e-06
2.10764e-06
2.59033e-06
3.08183e-06
3.56811e-06
4.03546e-06
4.47103e-06
4.86357e-06
5.20249e-06
5.47778e-06
5.68097e-06
5.80574e-06
5.84823e-06
5.80711e-06
5.68366e-06
5.4817e-06
5.20752e-06
4.86956e-06
4.47779e-06
4.04279e-06
3.57578e-06
3.08959e-06
2.59789e-06
2.11471e-06
1.65294e-06
1.22152e-06
8.22587e-07
4.50508e-07
3.20639e-09
1.22393e-11
1.21719e-11
3.18918e-09
4.48284e-07
8.18804e-07
1.21637e-06
1.64668e-06
2.10764e-06
2.59033e-06
3.08183e-06
3.56811e-06
4.03546e-06
4.47103e-06
4.86357e-06
5.20249e-06
5.47778e-06
5.68097e-06
5.80574e-06
5.84823e-06
5.80711e-06
5.68366e-06
5.4817e-06
5.20752e-06
4.86956e-06
4.47779e-06
4.04279e-06
3.57578e-06
3.08959e-06
2.59789e-06
2.11471e-06
1.65294e-06
1.22152e-06
8.22587e-07
4.50508e-07
3.20639e-09
1.22393e-11
1.21719e-11
3.18918e-09
4.48284e-07
8.18804e-07
1.21637e-06
1.64668e-06
2.10764e-06
2.59033e-06
3.08183e-06
3.56811e-06
4.03546e-06
4.47103e-06
4.86357e-06
5.20249e-06
5.47778e-06
5.68097e-06
5.80574e-06
5.84823e-06
5.80711e-06
5.68366e-06
5.4817e-06
5.20752e-06
4.86956e-06
4.47779e-06
4.04279e-06
3.57578e-06
3.08959e-06
2.59789e-06
2.11471e-06
1.65294e-06
1.22152e-06
8.22587e-07
4.50508e-07
3.20639e-09
1.22393e-11
1.21719e-11
3.18918e-09
4.48284e-07
8.18804e-07
1.21637e-06
1.64668e-06
2.10764e-06
2.59033e-06
3.08183e-06
3.56811e-06
4.03546e-06
4.47103e-06
4.86357e-06
5.20249e-06
5.47778e-06
5.68097e-06
5.80574e-06
5.84823e-06
5.80711e-06
5.68366e-06
5.4817e-06
5.20752e-06
4.86956e-06
4.47779e-06
4.04279e-06
3.57578e-06
3.08959e-06
2.59789e-06
2.11471e-06
1.65294e-06
1.22152e-06
8.22587e-07
4.50508e-07
3.20639e-09
1.22393e-11
1.21719e-11
3.18918e-09
4.48284e-07
8.18804e-07
1.21637e-06
1.64668e-06
2.10764e-06
2.59033e-06
3.08183e-06
3.56811e-06
4.03546e-06
4.47103e-06
4.86357e-06
5.20249e-06
5.47778e-06
5.68097e-06
5.80574e-06
5.84823e-06
5.80711e-06
5.68366e-06
5.4817e-06
5.20752e-06
4.86956e-06
4.47779e-06
4.04279e-06
3.57578e-06
3.08959e-06
2.59789e-06
2.11471e-06
1.65294e-06
1.22152e-06
8.22587e-07
4.50508e-07
3.20639e-09
1.22393e-11
1.21719e-11
3.18918e-09
4.48284e-07
8.18804e-07
1.21637e-06
1.64668e-06
2.10764e-06
2.59033e-06
3.08183e-06
3.56811e-06
4.03546e-06
4.47103e-06
4.86357e-06
5.20249e-06
5.47778e-06
5.68097e-06
5.80574e-06
5.84823e-06
5.80711e-06
5.68366e-06
5.4817e-06
5.20752e-06
4.86956e-06
4.47779e-06
4.04279e-06
3.57578e-06
3.08959e-06
2.59789e-06
2.11471e-06
1.65294e-06
1.22152e-06
8.22587e-07
4.50508e-07
3.20639e-09
1.22393e-11
1.21719e-11
3.18918e-09
4.48284e-07
8.18804e-07
1.21637e-06
1.64668e-06
2.10764e-06
2.59033e-06
3.08183e-06
3.56811e-06
4.03546e-06
4.47103e-06
4.86357e-06
5.20249e-06
5.47778e-06
5.68097e-06
5.80574e-06
5.84823e-06
5.80711e-06
5.68366e-06
5.4817e-06
5.20752e-06
4.86956e-06
4.47779e-06
4.04279e-06
3.57578e-06
3.08959e-06
2.59789e-06
2.11471e-06
1.65294e-06
1.22152e-06
8.22587e-07
4.50508e-07
3.20639e-09
1.22393e-11
1.21719e-11
3.18918e-09
4.48284e-07
8.18804e-07
1.21637e-06
1.64668e-06
2.10764e-06
2.59033e-06
3.08183e-06
3.56811e-06
4.03546e-06
4.47103e-06
4.86357e-06
5.20249e-06
5.47778e-06
5.68097e-06
5.80574e-06
5.84823e-06
5.80711e-06
5.68366e-06
5.4817e-06
5.20752e-06
4.86956e-06
4.47779e-06
4.04279e-06
3.57578e-06
3.08959e-06
2.59789e-06
2.11471e-06
1.65294e-06
1.22152e-06
8.22587e-07
4.50508e-07
3.20639e-09
1.22393e-11
1.21719e-11
3.18918e-09
4.48284e-07
8.18804e-07
1.21637e-06
1.64668e-06
2.10764e-06
2.59033e-06
3.08183e-06
3.56811e-06
4.03546e-06
4.47103e-06
4.86357e-06
5.20249e-06
5.47778e-06
5.68097e-06
5.80574e-06
5.84823e-06
5.80711e-06
5.68366e-06
5.4817e-06
5.20752e-06
4.86956e-06
4.47779e-06
4.04279e-06
3.57578e-06
3.08959e-06
2.59789e-06
2.11471e-06
1.65294e-06
1.22152e-06
8.22587e-07
4.50508e-07
3.20639e-09
1.22393e-11
1.21719e-11
3.18918e-09
4.48284e-07
8.18804e-07
1.21637e-06
1.64668e-06
2.10764e-06
2.59033e-06
3.08183e-06
3.56811e-06
4.03546e-06
4.47103e-06
4.86357e-06
5.20249e-06
5.47778e-06
5.68097e-06
5.80574e-06
5.84823e-06
5.80711e-06
5.68366e-06
5.4817e-06
5.20752e-06
4.86956e-06
4.47779e-06
4.04279e-06
3.57578e-06
3.08959e-06
2.59789e-06
2.11471e-06
1.65294e-06
1.22152e-06
8.22587e-07
4.50508e-07
3.20639e-09
1.22393e-11
1.21719e-11
3.18918e-09
4.48284e-07
8.18804e-07
1.21637e-06
1.64668e-06
2.10764e-06
2.59033e-06
3.08183e-06
3.56811e-06
4.03546e-06
4.47103e-06
4.86357e-06
5.20249e-06
5.47778e-06
5.68097e-06
5.80574e-06
5.84823e-06
5.80711e-06
5.68366e-06
5.4817e-06
5.20752e-06
4.86956e-06
4.47779e-06
4.04279e-06
3.57578e-06
3.08959e-06
2.59789e-06
2.11471e-06
1.65294e-06
1.22152e-06
8.22587e-07
4.50508e-07
3.20639e-09
1.22393e-11
1.21719e-11
3.18918e-09
4.48284e-07
8.18804e-07
1.21637e-06
1.64668e-06
2.10764e-06
2.59033e-06
3.08183e-06
3.56811e-06
4.03546e-06
4.47103e-06
4.86357e-06
5.20249e-06
5.47778e-06
5.68097e-06
5.80574e-06
5.84823e-06
5.80711e-06
5.68366e-06
5.4817e-06
5.20752e-06
4.86956e-06
4.47779e-06
4.04279e-06
3.57578e-06
3.08959e-06
2.59789e-06
2.11471e-06
1.65294e-06
1.22152e-06
8.22587e-07
4.50508e-07
3.20639e-09
1.22393e-11
1.21719e-11
3.18918e-09
4.48284e-07
8.18804e-07
1.21637e-06
1.64668e-06
2.10764e-06
2.59033e-06
3.08183e-06
3.56811e-06
4.03546e-06
4.47103e-06
4.86357e-06
5.20249e-06
5.47778e-06
5.68097e-06
5.80574e-06
5.84823e-06
5.80711e-06
5.68366e-06
5.4817e-06
5.20752e-06
4.86956e-06
4.47779e-06
4.04279e-06
3.57578e-06
3.08959e-06
2.59789e-06
2.11471e-06
1.65294e-06
1.22152e-06
8.22587e-07
4.50508e-07
3.20639e-09
1.22393e-11
1.21719e-11
3.18918e-09
4.48284e-07
8.18804e-07
1.21637e-06
1.64668e-06
2.10764e-06
2.59033e-06
3.08183e-06
3.56811e-06
4.03546e-06
4.47103e-06
4.86357e-06
5.20249e-06
5.47778e-06
5.68097e-06
5.80574e-06
5.84823e-06
5.80711e-06
5.68366e-06
5.4817e-06
5.20752e-06
4.86956e-06
4.47779e-06
4.04279e-06
3.57578e-06
3.08959e-06
2.59789e-06
2.11471e-06
1.65294e-06
1.22152e-06
8.22587e-07
4.50508e-07
3.20639e-09
1.22393e-11
1.21719e-11
3.18918e-09
4.48284e-07
8.18804e-07
1.21637e-06
1.64668e-06
2.10764e-06
2.59033e-06
3.08183e-06
3.56811e-06
4.03546e-06
4.47103e-06
4.86357e-06
5.20249e-06
5.47778e-06
5.68097e-06
5.80574e-06
5.84823e-06
5.80711e-06
5.68366e-06
5.4817e-06
5.20752e-06
4.86956e-06
4.47779e-06
4.04279e-06
3.57578e-06
3.08959e-06
2.59789e-06
2.11471e-06
1.65294e-06
1.22152e-06
8.22587e-07
4.50508e-07
3.20639e-09
1.22393e-11
1.21719e-11
3.18918e-09
4.48284e-07