/*--------------------------------*- C++ -*----------------------------------*\
  =========                 |
  \\      /  F ield         | OpenFOAM: The Open Source CFD Toolbox
   \\    /   O peration     | Website:  https://openfoam.org
    \\  /    A nd           | Version:  13
     \\/     M anipulation  |
\*---------------------------------------------------------------------------*/
FoamFile
{
    format      ascii;
    class       volScalarField;
    location    "117.5";
    object      rhok;
}
// * * * * * * * * * * * * * * * * * * * * * * * * * * * * * * * * * * * * * //

dimensions      [];

internalField   nonuniform List<scalar> 
315000
(
0.444617
0.42943
0.414216
0.41276
0.411997
0.411237
0.410479
0.409723
0.408969
0.408218
0.40747
0.406725
0.405982
0.405242
0.404505
0.403771
0.40304
0.402313
0.401589
0.400868
0.400152
0.399439
0.39873
0.398025
0.397324
0.396627
0.395935
0.395247
0.394563
0.393884
0.39321
0.39254
0.391875
0.391215
0.39056
0.38991
0.389264
0.388624
0.387988
0.387358
0.386732
0.386111
0.385495
0.384884
0.384277
0.383675
0.383078
0.382485
0.381897
0.381313
0.380732
0.380156
0.379584
0.379016
0.37845
0.377889
0.37733
0.376775
0.376222
0.375672
0.375124
0.374579
0.374035
0.373494
0.372953
0.372414
0.371877
0.37134
0.370803
0.370267
0.444617
0.429428
0.414212
0.412756
0.411993
0.411233
0.410475
0.409719
0.408965
0.408214
0.407466
0.40672
0.405977
0.405237
0.4045
0.403766
0.403035
0.402308
0.401584
0.400863
0.400147
0.399434
0.398725
0.398019
0.397318
0.396622
0.395929
0.395241
0.394557
0.393878
0.393204
0.392534
0.39187
0.391209
0.390554
0.389904
0.389259
0.388618
0.387983
0.387352
0.386727
0.386106
0.38549
0.384879
0.384272
0.383671
0.383073
0.382481
0.381892
0.381308
0.380728
0.380152
0.37958
0.379012
0.378447
0.377886
0.377327
0.376772
0.376219
0.37567
0.375122
0.374577
0.374034
0.373492
0.372952
0.372413
0.371876
0.371339
0.370803
0.370267
0.444617
0.429426
0.414208
0.412752
0.411989
0.411229
0.410471
0.409715
0.408961
0.40821
0.407462
0.406716
0.405973
0.405233
0.404496
0.403762
0.403031
0.402303
0.401579
0.400859
0.400142
0.399429
0.39872
0.398014
0.397313
0.396617
0.395924
0.395236
0.394552
0.393873
0.393199
0.392529
0.391865
0.391205
0.390549
0.389899
0.389254
0.388613
0.387978
0.387348
0.386722
0.386101
0.385485
0.384874
0.384268
0.383666
0.383069
0.382477
0.381889
0.381305
0.380725
0.380149
0.379577
0.379009
0.378444
0.377883
0.377325
0.37677
0.376217
0.375668
0.37512
0.374575
0.374032
0.373491
0.372951
0.372413
0.371875
0.371339
0.370803
0.370267
0.444617
0.429425
0.414205
0.412749
0.411986
0.411225
0.410467
0.409711
0.408957
0.408206
0.407458
0.406712
0.405969
0.405229
0.404492
0.403758
0.403027
0.402299
0.401575
0.400855
0.400138
0.399425
0.398715
0.39801
0.397309
0.396612
0.39592
0.395232
0.394548
0.393869
0.393195
0.392525
0.39186
0.3912
0.390545
0.389895
0.38925
0.388609
0.387974
0.387344
0.386718
0.386097
0.385482
0.384871
0.384265
0.383663
0.383066
0.382473
0.381885
0.381302
0.380722
0.380146
0.379574
0.379006
0.378442
0.37788
0.377322
0.376768
0.376215
0.375666
0.375119
0.374574
0.374031
0.37349
0.37295
0.372412
0.371875
0.371338
0.370802
0.370267
0.444617
0.429424
0.414203
0.412746
0.411983
0.411223
0.410464
0.409708
0.408955
0.408204
0.407455
0.406709
0.405966
0.405226
0.404489
0.403755
0.403024
0.402296
0.401572
0.400851
0.400135
0.399421
0.398712
0.398007
0.397306
0.396609
0.395917
0.395229
0.394545
0.393866
0.393192
0.392522
0.391857
0.391197
0.390542
0.389892
0.389247
0.388606
0.387971
0.387341
0.386715
0.386095
0.385479
0.384868
0.384262
0.38366
0.383063
0.382471
0.381883
0.381299
0.38072
0.380144
0.379572
0.379004
0.37844
0.377879
0.377321
0.376766
0.376214
0.375665
0.375118
0.374573
0.37403
0.373489
0.372949
0.372411
0.371874
0.371338
0.370802
0.370267
0.444617
0.429423
0.414202
0.412745
0.411982
0.411221
0.410463
0.409707
0.408953
0.408202
0.407453
0.406708
0.405964
0.405224
0.404487
0.403753
0.403022
0.402294
0.40157
0.400849
0.400133
0.399419
0.39871
0.398005
0.397304
0.396607
0.395914
0.395226
0.394543
0.393864
0.393189
0.39252
0.391855
0.391195
0.39054
0.38989
0.389244
0.388604
0.387969
0.387338
0.386713
0.386092
0.385477
0.384866
0.38426
0.383658
0.383061
0.382469
0.381881
0.381297
0.380718
0.380142
0.379571
0.379003
0.378438
0.377877
0.37732
0.376765
0.376213
0.375663
0.375117
0.374572
0.374029
0.373488
0.372949
0.372411
0.371874
0.371338
0.370802
0.370267
0.444617
0.429423
0.414201
0.412745
0.411982
0.411221
0.410463
0.409706
0.408953
0.408202
0.407453
0.406707
0.405964
0.405223
0.404486
0.403752
0.403021
0.402293
0.401569
0.400848
0.400131
0.399418
0.398709
0.398004
0.397303
0.396606
0.395913
0.395225
0.394541
0.393862
0.393188
0.392518
0.391853
0.391193
0.390538
0.389888
0.389243
0.388603
0.387967
0.387337
0.386711
0.386091
0.385475
0.384864
0.384258
0.383657
0.38306
0.382468
0.38188
0.381296
0.380717
0.380141
0.379569
0.379002
0.378437
0.377876
0.377319
0.376764
0.376212
0.375663
0.375116
0.374571
0.374029
0.373488
0.372948
0.37241
0.371873
0.371337
0.370802
0.370267
0.444617
0.429423
0.414202
0.412745
0.411982
0.411221
0.410463
0.409707
0.408953
0.408202
0.407453
0.406707
0.405964
0.405224
0.404486
0.403752
0.403021
0.402293
0.401569
0.400848
0.400131
0.399418
0.398709
0.398003
0.397302
0.396605
0.395913
0.395224
0.394541
0.393862
0.393187
0.392518
0.391853
0.391193
0.390537
0.389887
0.389242
0.388602
0.387966
0.387336
0.38671
0.38609
0.385474
0.384863
0.384257
0.383656
0.383059
0.382467
0.381879
0.381295
0.380716
0.38014
0.379569
0.379001
0.378437
0.377876
0.377318
0.376763
0.376211
0.375662
0.375115
0.374571
0.374028
0.373487
0.372948
0.37241
0.371873
0.371337
0.370802
0.370267
0.444617
0.429424
0.414203
0.412746
0.411983
0.411223
0.410464
0.409708
0.408954
0.408203
0.407454
0.406708
0.405965
0.405225
0.404487
0.403753
0.403022
0.402294
0.40157
0.400849
0.400132
0.399419
0.398709
0.398004
0.397302
0.396605
0.395913
0.395225
0.394541
0.393862
0.393187
0.392517
0.391852
0.391192
0.390537
0.389887
0.389242
0.388601
0.387966
0.387336
0.38671
0.38609
0.385474
0.384863
0.384257
0.383655
0.383059
0.382466
0.381878
0.381295
0.380715
0.38014
0.379568
0.379
0.378436
0.377875
0.377318
0.376763
0.376211
0.375662
0.375115
0.374571
0.374028
0.373487
0.372948
0.37241
0.371873
0.371337
0.370802
0.370267
0.444617
0.429425
0.414204
0.412748
0.411985
0.411224
0.410466
0.409709
0.408956
0.408204
0.407456
0.40671
0.405966
0.405226
0.404489
0.403754
0.403023
0.402295
0.401571
0.40085
0.400133
0.399419
0.39871
0.398005
0.397303
0.396606
0.395913
0.395225
0.394541
0.393862
0.393188
0.392518
0.391853
0.391193
0.390537
0.389887
0.389242
0.388601
0.387966
0.387336
0.38671
0.386089
0.385474
0.384863
0.384257
0.383655
0.383058
0.382466
0.381878
0.381295
0.380715
0.38014
0.379568
0.379
0.378436
0.377875
0.377317
0.376763
0.376211
0.375662
0.375115
0.374571
0.374028
0.373487
0.372948
0.37241
0.371873
0.371337
0.370802
0.370267
0.444617
0.429425
0.414206
0.412749
0.411986
0.411226
0.410467
0.409711
0.408957
0.408206
0.407457
0.406711
0.405968
0.405227
0.40449
0.403756
0.403024
0.402297
0.401572
0.400851
0.400134
0.399421
0.398711
0.398006
0.397304
0.396607
0.395914
0.395226
0.394542
0.393863
0.393188
0.392518
0.391853
0.391193
0.390538
0.389887
0.389242
0.388602
0.387966
0.387336
0.38671
0.38609
0.385474
0.384863
0.384257
0.383655
0.383059
0.382466
0.381878
0.381295
0.380715
0.38014
0.379568
0.379
0.378436
0.377875
0.377317
0.376763
0.376211
0.375662
0.375115
0.374571
0.374028
0.373487
0.372948
0.37241
0.371873
0.371337
0.370802
0.370267
0.444617
0.429426
0.414207
0.412751
0.411988
0.411227
0.410469
0.409712
0.408959
0.408207
0.407459
0.406712
0.405969
0.405229
0.404491
0.403757
0.403025
0.402298
0.401573
0.400852
0.400135
0.399421
0.398712
0.398006
0.397305
0.396608
0.395915
0.395227
0.394543
0.393863
0.393189
0.392519
0.391854
0.391194
0.390538
0.389888
0.389243
0.388602
0.387967
0.387336
0.386711
0.38609
0.385474
0.384863
0.384257
0.383656
0.383059
0.382466
0.381878
0.381295
0.380715
0.38014
0.379568
0.379
0.378436
0.377875
0.377318
0.376763
0.376211
0.375662
0.375115
0.374571
0.374028
0.373487
0.372948
0.37241
0.371873
0.371337
0.370802
0.370267
0.444617
0.429426
0.414207
0.412751
0.411988
0.411227
0.410469
0.409713
0.408959
0.408208
0.407459
0.406713
0.405969
0.405229
0.404491
0.403757
0.403026
0.402298
0.401573
0.400853
0.400135
0.399422
0.398712
0.398007
0.397305
0.396608
0.395915
0.395227
0.394543
0.393864
0.393189
0.392519
0.391854
0.391194
0.390539
0.389888
0.389243
0.388602
0.387967
0.387336
0.386711
0.38609
0.385474
0.384863
0.384257
0.383656
0.383059
0.382467
0.381879
0.381295
0.380715
0.38014
0.379568
0.379001
0.378436
0.377875
0.377318
0.376763
0.376211
0.375662
0.375115
0.374571
0.374028
0.373487
0.372948
0.37241
0.371873
0.371337
0.370802
0.370267
0.444617
0.429426
0.414207
0.41275
0.411987
0.411227
0.410468
0.409712
0.408958
0.408207
0.407458
0.406712
0.405969
0.405228
0.404491
0.403756
0.403025
0.402297
0.401573
0.400852
0.400135
0.399422
0.398712
0.398006
0.397305
0.396608
0.395915
0.395227
0.394543
0.393864
0.393189
0.392519
0.391854
0.391194
0.390539
0.389888
0.389243
0.388602
0.387967
0.387337
0.386711
0.38609
0.385475
0.384864
0.384257
0.383656
0.383059
0.382467
0.381879
0.381295
0.380716
0.38014
0.379569
0.379001
0.378436
0.377875
0.377318
0.376763
0.376211
0.375662
0.375115
0.374571
0.374028
0.373487
0.372948
0.37241
0.371873
0.371337
0.370802
0.370267
0.444617
0.429425
0.414205
0.412749
0.411986
0.411225
0.410467
0.409711
0.408957
0.408206
0.407457
0.406711
0.405968
0.405227
0.40449
0.403755
0.403024
0.402297
0.401572
0.400851
0.400134
0.399421
0.398711
0.398006
0.397305
0.396607
0.395915
0.395226
0.394543
0.393863
0.393189
0.392519
0.391854
0.391194
0.390539
0.389888
0.389243
0.388602
0.387967
0.387337
0.386711
0.38609
0.385475
0.384864
0.384258
0.383656
0.383059
0.382467
0.381879
0.381295
0.380716
0.38014
0.379569
0.379001
0.378436
0.377876
0.377318
0.376763
0.376211
0.375662
0.375115
0.374571
0.374028
0.373487
0.372948
0.37241
0.371873
0.371337
0.370802
0.370267
0.444617
0.429424
0.414204
0.412748
0.411985
0.411224
0.410466
0.409709
0.408956
0.408204
0.407456
0.40671
0.405967
0.405226
0.404489
0.403754
0.403023
0.402296
0.401571
0.400851
0.400133
0.39942
0.398711
0.398005
0.397304
0.396607
0.395914
0.395226
0.394542
0.393863
0.393189
0.392519
0.391854
0.391194
0.390538
0.389888
0.389243
0.388602
0.387967
0.387337
0.386711
0.38609
0.385475
0.384864
0.384258
0.383656
0.383059
0.382467
0.381879
0.381295
0.380716
0.38014
0.379569
0.379001
0.378437
0.377876
0.377318
0.376763
0.376211
0.375662
0.375115
0.374571
0.374028
0.373487
0.372948
0.37241
0.371873
0.371337
0.370802
0.370267
0.444617
0.429424
0.414204
0.412747
0.411984
0.411223
0.410465
0.409709
0.408955
0.408204
0.407455
0.406709
0.405966
0.405226
0.404488
0.403754
0.403023
0.402295
0.401571
0.40085
0.400133
0.39942
0.398711
0.398005
0.397304
0.396607
0.395914
0.395226
0.394542
0.393863
0.393189
0.392519
0.391854
0.391194
0.390539
0.389888
0.389243
0.388603
0.387967
0.387337
0.386711
0.386091
0.385475
0.384864
0.384258
0.383656
0.38306
0.382467
0.381879
0.381296
0.380716
0.380141
0.379569
0.379001
0.378437
0.377876
0.377318
0.376763
0.376212
0.375662
0.375116
0.374571
0.374028
0.373488
0.372948
0.37241
0.371873
0.371337
0.370802
0.370267
0.444617
0.429424
0.414204
0.412748
0.411985
0.411224
0.410466
0.40971
0.408956
0.408205
0.407456
0.40671
0.405967
0.405226
0.404489
0.403755
0.403024
0.402296
0.401572
0.400851
0.400134
0.399421
0.398711
0.398006
0.397305
0.396608
0.395915
0.395227
0.394543
0.393864
0.393189
0.392519
0.391854
0.391194
0.390539
0.389889
0.389243
0.388603
0.387968
0.387337
0.386712
0.386091
0.385475
0.384864
0.384258
0.383657
0.38306
0.382468
0.38188
0.381296
0.380716
0.380141
0.379569
0.379001
0.378437
0.377876
0.377318
0.376764
0.376212
0.375663
0.375116
0.374571
0.374028
0.373488
0.372948
0.37241
0.371873
0.371337
0.370802
0.370267
0.444617
0.429425
0.414206
0.412749
0.411986
0.411226
0.410467
0.409711
0.408958
0.408206
0.407458
0.406712
0.405968
0.405228
0.404491
0.403756
0.403025
0.402297
0.401573
0.400852
0.400135
0.399422
0.398712
0.398007
0.397306
0.396609
0.395916
0.395228
0.394544
0.393865
0.39319
0.39252
0.391855
0.391195
0.39054
0.38989
0.389244
0.388604
0.387968
0.387338
0.386712
0.386092
0.385476
0.384865
0.384259
0.383657
0.38306
0.382468
0.38188
0.381296
0.380717
0.380141
0.37957
0.379002
0.378437
0.377876
0.377319
0.376764
0.376212
0.375663
0.375116
0.374571
0.374029
0.373488
0.372948
0.37241
0.371873
0.371337
0.370802
0.370267
0.444617
0.429426
0.414208
0.412751
0.411988
0.411228
0.410469
0.409713
0.40896
0.408208
0.40746
0.406714
0.40597
0.40523
0.404493
0.403758
0.403027
0.402299
0.401575
0.400854
0.400137
0.399424
0.398714
0.398009
0.397307
0.39661
0.395917
0.395229
0.394545
0.393866
0.393191
0.392521
0.391856
0.391196
0.390541
0.38989
0.389245
0.388605
0.387969
0.387339
0.386713
0.386092
0.385477
0.384866
0.384259
0.383658
0.383061
0.382468
0.38188
0.381297
0.380717
0.380142
0.37957
0.379002
0.378438
0.377877
0.377319
0.376764
0.376212
0.375663
0.375116
0.374571
0.374029
0.373488
0.372949
0.37241
0.371874
0.371337
0.370802
0.370267
0.444617
0.429427
0.414209
0.412753
0.41199
0.41123
0.410471
0.409715
0.408961
0.40821
0.407461
0.406715
0.405972
0.405232
0.404494
0.40376
0.403029
0.402301
0.401577
0.400856
0.400138
0.399425
0.398716
0.39801
0.397309
0.396611
0.395919
0.39523
0.394546
0.393867
0.393192
0.392522
0.391857
0.391197
0.390542
0.389891
0.389246
0.388605
0.38797
0.387339
0.386714
0.386093
0.385477
0.384866
0.38426
0.383658
0.383061
0.382469
0.381881
0.381297
0.380717
0.380142
0.37957
0.379002
0.378438
0.377877
0.377319
0.376764
0.376212
0.375663
0.375116
0.374572
0.374029
0.373488
0.372949
0.372411
0.371874
0.371337
0.370802
0.370267
0.444617
0.429428
0.41421
0.412754
0.411991
0.411231
0.410472
0.409716
0.408963
0.408211
0.407463
0.406717
0.405973
0.405233
0.404496
0.403761
0.40303
0.402302
0.401578
0.400857
0.40014
0.399426
0.398717
0.398011
0.39731
0.396613
0.39592
0.395231
0.394547
0.393868
0.393193
0.392523
0.391858
0.391198
0.390543
0.389892
0.389247
0.388606
0.387971
0.38734
0.386714
0.386094
0.385478
0.384867
0.38426
0.383659
0.383062
0.382469
0.381881
0.381297
0.380718
0.380142
0.379571
0.379003
0.378438
0.377877
0.377319
0.376765
0.376213
0.375663
0.375116
0.374572
0.374029
0.373488
0.372949
0.372411
0.371874
0.371337
0.370802
0.370267
0.444617
0.429428
0.414211
0.412755
0.411992
0.411232
0.410473
0.409717
0.408964
0.408212
0.407464
0.406718
0.405974
0.405234
0.404497
0.403762
0.403031
0.402303
0.401579
0.400858
0.400141
0.399427
0.398718
0.398012
0.397311
0.396613
0.395921
0.395232
0.394548
0.393869
0.393194
0.392524
0.391859
0.391199
0.390543
0.389893
0.389247
0.388607
0.387971
0.387341
0.386715
0.386094
0.385478
0.384867
0.384261
0.383659
0.383062
0.38247
0.381882
0.381298
0.380718
0.380143
0.379571
0.379003
0.378438
0.377877
0.37732
0.376765
0.376213
0.375663
0.375117
0.374572
0.374029
0.373488
0.372949
0.372411
0.371874
0.371338
0.370802
0.370267
0.444617
0.429428
0.414212
0.412756
0.411993
0.411232
0.410474
0.409718
0.408964
0.408213
0.407465
0.406719
0.405975
0.405235
0.404497
0.403763
0.403032
0.402304
0.40158
0.400859
0.400142
0.399428
0.398719
0.398013
0.397312
0.396614
0.395921
0.395233
0.394549
0.39387
0.393195
0.392525
0.39186
0.391199
0.390544
0.389894
0.389248
0.388607
0.387972
0.387341
0.386715
0.386095
0.385479
0.384868
0.384261
0.38366
0.383063
0.38247
0.381882
0.381298
0.380719
0.380143
0.379571
0.379003
0.378439
0.377878
0.37732
0.376765
0.376213
0.375664
0.375117
0.374572
0.374029
0.373488
0.372949
0.372411
0.371874
0.371338
0.370802
0.370267
0.444617
0.429429
0.414213
0.412757
0.411994
0.411234
0.410475
0.409719
0.408966
0.408214
0.407466
0.40672
0.405977
0.405236
0.404499
0.403764
0.403033
0.402305
0.401581
0.40086
0.400143
0.399429
0.39872
0.398014
0.397313
0.396615
0.395922
0.395234
0.39455
0.393871
0.393196
0.392526
0.391861
0.3912
0.390545
0.389894
0.389249
0.388608
0.387973
0.387342
0.386716
0.386095
0.385479
0.384868
0.384262
0.38366
0.383063
0.382471
0.381882
0.381299
0.380719
0.380143
0.379571
0.379003
0.378439
0.377878
0.37732
0.376765
0.376213
0.375664
0.375117
0.374572
0.374029
0.373488
0.372949
0.372411
0.371874
0.371338
0.370802
0.370267
0.444617
0.42943
0.414214
0.412758
0.411996
0.411235
0.410477
0.409721
0.408967
0.408216
0.407467
0.406721
0.405978
0.405238
0.4045
0.403766
0.403035
0.402307
0.401582
0.400861
0.400144
0.399431
0.398721
0.398015
0.397314
0.396617
0.395924
0.395235
0.394551
0.393872
0.393197
0.392527
0.391862
0.391201
0.390546
0.389895
0.38925
0.388609
0.387973
0.387343
0.386717
0.386096
0.38548
0.384869
0.384263
0.383661
0.383064
0.382471
0.381883
0.381299
0.380719
0.380144
0.379572
0.379004
0.378439
0.377878
0.37732
0.376765
0.376213
0.375664
0.375117
0.374572
0.374029
0.373488
0.372949
0.372411
0.371874
0.371338
0.370802
0.370267
0.444617
0.429431
0.414216
0.41276
0.411997
0.411237
0.410478
0.409722
0.408969
0.408218
0.407469
0.406723
0.40598
0.405239
0.404502
0.403768
0.403036
0.402308
0.401584
0.400863
0.400146
0.399432
0.398723
0.398017
0.397315
0.396618
0.395925
0.395237
0.394553
0.393873
0.393198
0.392528
0.391863
0.391202
0.390547
0.389896
0.389251
0.38861
0.387974
0.387344
0.386718
0.386097
0.385481
0.38487
0.384263
0.383661
0.383064
0.382472
0.381883
0.3813
0.38072
0.380144
0.379572
0.379004
0.37844
0.377878
0.377321
0.376766
0.376214
0.375664
0.375117
0.374572
0.37403
0.373489
0.372949
0.372411
0.371874
0.371338
0.370802
0.370267
0.444617
0.429431
0.414217
0.412761
0.411999
0.411238
0.41048
0.409724
0.40897
0.408219
0.407471
0.406725
0.405981
0.405241
0.404504
0.403769
0.403038
0.40231
0.401586
0.400865
0.400147
0.399434
0.398724
0.398018
0.397317
0.39662
0.395927
0.395238
0.394554
0.393874
0.393199
0.392529
0.391864
0.391204
0.390548
0.389897
0.389252
0.388611
0.387975
0.387344
0.386719
0.386098
0.385482
0.38487
0.384264
0.383662
0.383065
0.382472
0.381884
0.3813
0.38072
0.380144
0.379573
0.379004
0.37844
0.377879
0.377321
0.376766
0.376214
0.375664
0.375117
0.374573
0.37403
0.373489
0.372949
0.372411
0.371874
0.371338
0.370802
0.370267
0.444617
0.429432
0.414219
0.412763
0.412
0.41124
0.410482
0.409726
0.408972
0.408221
0.407472
0.406726
0.405983
0.405243
0.404505
0.403771
0.40304
0.402312
0.401587
0.400866
0.400149
0.399435
0.398726
0.39802
0.397318
0.396621
0.395928
0.395239
0.394555
0.393876
0.393201
0.392531
0.391865
0.391205
0.390549
0.389898
0.389253
0.388612
0.387976
0.387345
0.386719
0.386098
0.385482
0.384871
0.384264
0.383663
0.383065
0.382473
0.381884
0.3813
0.380721
0.380145
0.379573
0.379005
0.37844
0.377879
0.377321
0.376766
0.376214
0.375665
0.375118
0.374573
0.37403
0.373489
0.372949
0.372411
0.371874
0.371338
0.370802
0.370267
0.444617
0.429433
0.41422
0.412764
0.412002
0.411241
0.410483
0.409727
0.408974
0.408222
0.407474
0.406728
0.405985
0.405244
0.404507
0.403772
0.403041
0.402313
0.401589
0.400868
0.40015
0.399437
0.398727
0.398021
0.39732
0.396622
0.395929
0.395241
0.394556
0.393877
0.393202
0.392532
0.391866
0.391206
0.39055
0.389899
0.389254
0.388613
0.387977
0.387346
0.38672
0.386099
0.385483
0.384872
0.384265
0.383663
0.383066
0.382473
0.381885
0.381301
0.380721
0.380145
0.379573
0.379005
0.37844
0.377879
0.377321
0.376766
0.376214
0.375665
0.375118
0.374573
0.37403
0.373489
0.372949
0.372411
0.371874
0.371338
0.370802
0.370267
0.444617
0.429433
0.414221
0.412766
0.412003
0.411243
0.410484
0.409728
0.408975
0.408224
0.407475
0.406729
0.405986
0.405246
0.404508
0.403774
0.403042
0.402315
0.40159
0.400869
0.400152
0.399438
0.398728
0.398023
0.397321
0.396623
0.39593
0.395242
0.394557
0.393878
0.393203
0.392533
0.391867
0.391207
0.390551
0.3899
0.389254
0.388613
0.387978
0.387347
0.386721
0.3861
0.385483
0.384872
0.384265
0.383664
0.383066
0.382474
0.381885
0.381301
0.380721
0.380145
0.379574
0.379005
0.378441
0.377879
0.377321
0.376766
0.376214
0.375665
0.375118
0.374573
0.37403
0.373489
0.372949
0.372411
0.371874
0.371338
0.370802
0.370267
0.444617
0.429434
0.414223
0.412767
0.412004
0.411244
0.410486
0.40973
0.408976
0.408225
0.407476
0.40673
0.405987
0.405247
0.404509
0.403775
0.403044
0.402316
0.401591
0.40087
0.400153
0.399439
0.398729
0.398024
0.397322
0.396624
0.395931
0.395243
0.394558
0.393879
0.393204
0.392533
0.391868
0.391207
0.390552
0.389901
0.389255
0.388614
0.387978
0.387347
0.386721
0.3861
0.385484
0.384872
0.384266
0.383664
0.383067
0.382474
0.381885
0.381301
0.380722
0.380146
0.379574
0.379005
0.378441
0.37788
0.377322
0.376767
0.376214
0.375665
0.375118
0.374573
0.37403
0.373489
0.37295
0.372411
0.371874
0.371338
0.370802
0.370267
0.444617
0.429434
0.414223
0.412767
0.412005
0.411245
0.410486
0.40973
0.408977
0.408226
0.407477
0.406731
0.405988
0.405248
0.40451
0.403776
0.403044
0.402316
0.401592
0.400871
0.400153
0.39944
0.39873
0.398024
0.397323
0.396625
0.395932
0.395243
0.394559
0.393879
0.393204
0.392534
0.391868
0.391208
0.390552
0.389901
0.389255
0.388614
0.387978
0.387347
0.386721
0.3861
0.385484
0.384873
0.384266
0.383664
0.383067
0.382474
0.381886
0.381302
0.380722
0.380146
0.379574
0.379006
0.378441
0.37788
0.377322
0.376767
0.376214
0.375665
0.375118
0.374573
0.37403
0.373489
0.37295
0.372411
0.371874
0.371338
0.370802
0.370267
0.444617
0.429435
0.414224
0.412768
0.412005
0.411245
0.410487
0.409731
0.408977
0.408226
0.407478
0.406732
0.405989
0.405248
0.404511
0.403776
0.403045
0.402317
0.401592
0.400871
0.400154
0.39944
0.39873
0.398025
0.397323
0.396625
0.395932
0.395244
0.394559
0.39388
0.393205
0.392534
0.391869
0.391208
0.390552
0.389901
0.389256
0.388615
0.387979
0.387348
0.386722
0.386101
0.385484
0.384873
0.384266
0.383664
0.383067
0.382474
0.381886
0.381302
0.380722
0.380146
0.379574
0.379006
0.378441
0.37788
0.377322
0.376767
0.376215
0.375665
0.375118
0.374573
0.37403
0.373489
0.37295
0.372411
0.371874
0.371338
0.370802
0.370267
0.444617
0.429435
0.414224
0.412768
0.412006
0.411245
0.410487
0.409731
0.408978
0.408227
0.407478
0.406732
0.405989
0.405248
0.404511
0.403777
0.403045
0.402317
0.401593
0.400872
0.400154
0.399441
0.398731
0.398025
0.397323
0.396626
0.395933
0.395244
0.394559
0.39388
0.393205
0.392534
0.391869
0.391208
0.390552
0.389902
0.389256
0.388615
0.387979
0.387348
0.386722
0.386101
0.385484
0.384873
0.384266
0.383664
0.383067
0.382474
0.381886
0.381302
0.380722
0.380146
0.379574
0.379006
0.378441
0.37788
0.377322
0.376767
0.376215
0.375665
0.375118
0.374573
0.37403
0.373489
0.37295
0.372411
0.371874
0.371338
0.370802
0.370267
0.444617
0.429435
0.414224
0.412768
0.412006
0.411246
0.410487
0.409731
0.408978
0.408227
0.407478
0.406732
0.405989
0.405249
0.404511
0.403777
0.403045
0.402317
0.401593
0.400872
0.400154
0.399441
0.398731
0.398025
0.397323
0.396626
0.395933
0.395244
0.39456
0.39388
0.393205
0.392534
0.391869
0.391208
0.390553
0.389902
0.389256
0.388615
0.387979
0.387348
0.386722
0.386101
0.385484
0.384873
0.384266
0.383664
0.383067
0.382474
0.381886
0.381302
0.380722
0.380146
0.379574
0.379006
0.378441
0.37788
0.377322
0.376767
0.376215
0.375665
0.375118
0.374573
0.37403
0.373489
0.37295
0.372411
0.371874
0.371338
0.370802
0.370267
0.444617
0.429435
0.414224
0.412768
0.412006
0.411246
0.410487
0.409732
0.408978
0.408227
0.407478
0.406732
0.405989
0.405249
0.404511
0.403777
0.403046
0.402318
0.401593
0.400872
0.400154
0.399441
0.398731
0.398025
0.397323
0.396626
0.395933
0.395244
0.39456
0.39388
0.393205
0.392535
0.391869
0.391208
0.390553
0.389902
0.389256
0.388615
0.387979
0.387348
0.386722
0.386101
0.385484
0.384873
0.384266
0.383664
0.383067
0.382474
0.381886
0.381302
0.380722
0.380146
0.379574
0.379006
0.378441
0.37788
0.377322
0.376767
0.376215
0.375665
0.375118
0.374573
0.37403
0.373489
0.37295
0.372411
0.371874
0.371338
0.370802
0.370267
0.444617
0.429435
0.414224
0.412769
0.412006
0.411246
0.410488
0.409732
0.408978
0.408227
0.407478
0.406732
0.405989
0.405249
0.404511
0.403777
0.403046
0.402318
0.401593
0.400872
0.400154
0.399441
0.398731
0.398025
0.397323
0.396626
0.395933
0.395244
0.39456
0.39388
0.393205
0.392535
0.391869
0.391208
0.390553
0.389902
0.389256
0.388615
0.387979
0.387348
0.386722
0.386101
0.385484
0.384873
0.384266
0.383664
0.383067
0.382474
0.381886
0.381302
0.380722
0.380146
0.379574
0.379006
0.378441
0.37788
0.377322
0.376767
0.376215
0.375665
0.375118
0.374573
0.37403
0.373489
0.37295
0.372411
0.371874
0.371338
0.370802
0.370267
0.444617
0.429435
0.414224
0.412769
0.412006
0.411246
0.410488
0.409732
0.408978
0.408227
0.407478
0.406732
0.405989
0.405249
0.404511
0.403777
0.403046
0.402318
0.401593
0.400872
0.400154
0.399441
0.398731
0.398025
0.397323
0.396626
0.395933
0.395244
0.39456
0.39388
0.393205
0.392535
0.391869
0.391208
0.390553
0.389902
0.389256
0.388615
0.387979
0.387348
0.386722
0.386101
0.385484
0.384873
0.384266
0.383664
0.383067
0.382474
0.381886
0.381302
0.380722
0.380146
0.379574
0.379006
0.378441
0.37788
0.377322
0.376767
0.376215
0.375665
0.375118
0.374573
0.37403
0.373489
0.37295
0.372411
0.371874
0.371338
0.370802
0.370267
0.444617
0.429435
0.414224
0.412769
0.412006
0.411246
0.410488
0.409732
0.408978
0.408227
0.407478
0.406732
0.405989
0.405249
0.404511
0.403777
0.403046
0.402318
0.401593
0.400872
0.400154
0.399441
0.398731
0.398025
0.397323
0.396626
0.395933
0.395244
0.39456
0.39388
0.393205
0.392535
0.391869
0.391208
0.390553
0.389902
0.389256
0.388615
0.387979
0.387348
0.386722
0.386101
0.385484
0.384873
0.384266
0.383664
0.383067
0.382474
0.381886
0.381302
0.380722
0.380146
0.379574
0.379006
0.378441
0.37788
0.377322
0.376767
0.376215
0.375665
0.375118
0.374573
0.37403
0.373489
0.37295
0.372411
0.371874
0.371338
0.370802
0.370267
0.444617
0.429435
0.414224
0.412769
0.412006
0.411246
0.410488
0.409732
0.408978
0.408227
0.407478
0.406732
0.405989
0.405249
0.404511
0.403777
0.403046
0.402318
0.401593
0.400872
0.400154
0.399441
0.398731
0.398025
0.397323
0.396626
0.395933
0.395244
0.39456
0.39388
0.393205
0.392535
0.391869
0.391208
0.390553
0.389902
0.389256
0.388615
0.387979
0.387348
0.386722
0.386101
0.385484
0.384873
0.384266
0.383664
0.383067
0.382474
0.381886
0.381302
0.380722
0.380146
0.379574
0.379006
0.378441
0.37788
0.377322
0.376767
0.376215
0.375665
0.375118
0.374573
0.37403
0.373489
0.37295
0.372411
0.371874
0.371338
0.370802
0.370267
0.444617
0.429435
0.414224
0.412769
0.412006
0.411246
0.410488
0.409732
0.408978
0.408227
0.407478
0.406732
0.405989
0.405249
0.404511
0.403777
0.403046
0.402318
0.401593
0.400872
0.400154
0.399441
0.398731
0.398025
0.397323
0.396626
0.395933
0.395244
0.39456
0.39388
0.393205
0.392535
0.391869
0.391208
0.390553
0.389902
0.389256
0.388615
0.387979
0.387348
0.386722
0.386101
0.385484
0.384873
0.384266
0.383664
0.383067
0.382474
0.381886
0.381302
0.380722
0.380146
0.379574
0.379006
0.378441
0.37788
0.377322
0.376767
0.376215
0.375665
0.375118
0.374573
0.37403
0.373489
0.37295
0.372411
0.371874
0.371338
0.370802
0.370267
0.444617
0.429435
0.414224
0.412769
0.412006
0.411246
0.410488
0.409732
0.408978
0.408227
0.407478
0.406732
0.405989
0.405249
0.404511
0.403777
0.403046
0.402318
0.401593
0.400872
0.400154
0.399441
0.398731
0.398025
0.397323
0.396626
0.395933
0.395244
0.39456
0.39388
0.393205
0.392535
0.391869
0.391208
0.390553
0.389902
0.389256
0.388615
0.387979
0.387348
0.386722
0.386101
0.385484
0.384873
0.384266
0.383664
0.383067
0.382474
0.381886
0.381302
0.380722
0.380146
0.379574
0.379006
0.378441
0.37788
0.377322
0.376767
0.376215
0.375665
0.375118
0.374573
0.37403
0.373489
0.37295
0.372411
0.371874
0.371338
0.370802
0.370267
0.444617
0.429435
0.414224
0.412769
0.412006
0.411246
0.410488
0.409732
0.408978
0.408227
0.407478
0.406732
0.405989
0.405249
0.404511
0.403777
0.403046
0.402318
0.401593
0.400872
0.400154
0.399441
0.398731
0.398025
0.397323
0.396626
0.395933
0.395244
0.39456
0.39388
0.393205
0.392535
0.391869
0.391208
0.390553
0.389902
0.389256
0.388615
0.387979
0.387348
0.386722
0.386101
0.385484
0.384873
0.384266
0.383664
0.383067
0.382474
0.381886
0.381302
0.380722
0.380146
0.379574
0.379006
0.378441
0.37788
0.377322
0.376767
0.376215
0.375665
0.375118
0.374573
0.37403
0.373489
0.37295
0.372411
0.371874
0.371338
0.370802
0.370267
0.444617
0.429435
0.414224
0.412769
0.412006
0.411246
0.410488
0.409732
0.408978
0.408227
0.407478
0.406732
0.405989
0.405249
0.404511
0.403777
0.403046
0.402318
0.401593
0.400872
0.400154
0.399441
0.398731
0.398025
0.397323
0.396626
0.395933
0.395244
0.39456
0.39388
0.393205
0.392535
0.391869
0.391208
0.390553
0.389902
0.389256
0.388615
0.387979
0.387348
0.386722
0.386101
0.385484
0.384873
0.384266
0.383664
0.383067
0.382474
0.381886
0.381302
0.380722
0.380146
0.379574
0.379006
0.378441
0.37788
0.377322
0.376767
0.376215
0.375665
0.375118
0.374573
0.37403
0.373489
0.37295
0.372411
0.371874
0.371338
0.370802
0.370267
0.444617
0.429435
0.414224
0.412769
0.412006
0.411246
0.410488
0.409732
0.408978
0.408227
0.407478
0.406732
0.405989
0.405249
0.404511
0.403777
0.403046
0.402318
0.401593
0.400872
0.400154
0.399441
0.398731
0.398025
0.397323
0.396626
0.395933
0.395244
0.39456
0.39388
0.393205
0.392535
0.391869
0.391208
0.390553
0.389902
0.389256
0.388615
0.387979
0.387348
0.386722
0.386101
0.385484
0.384873
0.384266
0.383664
0.383067
0.382474
0.381886
0.381302
0.380722
0.380146
0.379574
0.379006
0.378441
0.37788
0.377322
0.376767
0.376215
0.375665
0.375118
0.374573
0.37403
0.373489
0.37295
0.372411
0.371874
0.371338
0.370802
0.370267
0.444617
0.429435
0.414224
0.412769
0.412006
0.411246
0.410488
0.409732
0.408978
0.408227
0.407478
0.406732
0.405989
0.405249
0.404511
0.403777
0.403046
0.402318
0.401593
0.400872
0.400154
0.399441
0.398731
0.398025
0.397323
0.396626
0.395933
0.395244
0.39456
0.39388
0.393205
0.392535
0.391869
0.391208
0.390553
0.389902
0.389256
0.388615
0.387979
0.387348
0.386722
0.386101
0.385484
0.384873
0.384266
0.383664
0.383067
0.382474
0.381886
0.381302
0.380722
0.380146
0.379574
0.379006
0.378441
0.37788
0.377322
0.376767
0.376215
0.375665
0.375118
0.374573
0.37403
0.373489
0.37295
0.372411
0.371874
0.371338
0.370802
0.370267
0.444617
0.429435