/*--------------------------------*- C++ -*----------------------------------*\
  =========                 |
  \\      /  F ield         | OpenFOAM: The Open Source CFD Toolbox
   \\    /   O peration     | Website:  https://openfoam.org
    \\  /    A nd           | Version:  13
     \\/     M anipulation  |
\*---------------------------------------------------------------------------*/
FoamFile
{
    format      ascii;
    class       volScalarField;
    location    "147.5";
    object      nut;
}
// * * * * * * * * * * * * * * * * * * * * * * * * * * * * * * * * * * * * * //

dimensions      [0 2 -1 0 0 0 0];

internalField   nonuniform List<scalar> 
315000
(
1.05165e-15
2.75471e-13
6.28754e-12
1.12902e-11
1.63813e-11
2.15739e-11
2.68839e-11
3.23252e-11
3.79079e-11
4.36369e-11
4.95116e-11
5.55257e-11
6.16674e-11
6.79191e-11
7.42583e-11
8.06578e-11
8.70862e-11
9.35086e-11
9.98871e-11
1.06182e-10
1.12351e-10
1.18353e-10
1.24144e-10
1.29682e-10
1.34926e-10
1.39836e-10
1.44374e-10
1.48505e-10
1.52196e-10
1.55418e-10
1.58146e-10
1.60356e-10
1.62032e-10
1.6316e-10
1.63731e-10
1.6374e-10
1.63188e-10
1.62077e-10
1.60418e-10
1.58225e-10
1.55514e-10
1.52307e-10
1.4863e-10
1.44512e-10
1.39987e-10
1.35088e-10
1.29853e-10
1.24323e-10
1.18539e-10
1.12543e-10
1.06377e-10
1.00084e-10
9.37062e-11
8.72828e-11
8.08519e-11
7.44485e-11
6.8104e-11
6.18456e-11
5.56962e-11
4.9673e-11
4.37883e-11
3.80482e-11
3.24534e-11
2.69988e-11
2.16742e-11
1.64654e-11
1.13556e-11
6.32983e-12
2.77689e-13
1.06093e-15
2.63283e-14
7.01276e-12
1.59771e-09
2.89156e-09
4.20301e-09
5.53861e-09
6.90392e-09
8.30326e-09
9.73957e-09
1.12144e-08
1.27275e-08
1.42776e-08
1.58614e-08
1.74744e-08
1.91108e-08
2.07634e-08
2.24241e-08
2.40838e-08
2.57325e-08
2.73599e-08
2.89552e-08
3.05072e-08
3.20049e-08
3.34373e-08
3.47937e-08
3.60637e-08
3.72375e-08
3.8306e-08
3.92607e-08
4.0094e-08
4.07993e-08
4.13709e-08
4.18042e-08
4.20957e-08
4.2243e-08
4.2245e-08
4.21016e-08
4.1814e-08
4.13844e-08
4.08165e-08
4.01147e-08
3.92847e-08
3.83332e-08
3.72676e-08
3.60964e-08
3.48287e-08
3.34744e-08
3.20437e-08
3.05474e-08
2.89965e-08
2.7402e-08
2.57749e-08
2.41262e-08
2.24662e-08
2.08049e-08
1.91513e-08
1.75136e-08
1.5899e-08
1.43133e-08
1.27612e-08
1.12456e-08
9.76816e-09
8.32896e-09
6.92648e-09
5.55775e-09
4.21841e-09
2.90284e-09
1.60438e-09
7.04407e-12
2.64492e-14
1.0607e-13
2.82938e-11
1.64308e-08
2.97604e-08
4.32852e-08
5.70861e-08
7.12324e-08
8.57795e-08
1.00767e-07
1.16216e-07
1.3213e-07
1.48496e-07
1.65279e-07
1.82429e-07
1.99879e-07
2.17548e-07
2.35341e-07
2.53153e-07
2.70873e-07
2.88382e-07
3.05557e-07
3.22276e-07
3.38415e-07
3.53853e-07
3.68473e-07
3.8216e-07
3.9481e-07
4.06322e-07
4.16606e-07
4.2558e-07
4.33174e-07
4.39327e-07
4.43989e-07
4.47123e-07
4.48706e-07
4.48722e-07
4.47173e-07
4.44072e-07
4.39442e-07
4.3332e-07
4.25756e-07
4.1681e-07
4.06552e-07
3.95065e-07
3.82438e-07
3.6877e-07
3.54168e-07
3.38744e-07
3.22617e-07
3.05906e-07
2.88736e-07
2.7123e-07
2.5351e-07
2.35694e-07
2.17894e-07
2.00217e-07
1.82754e-07
1.65589e-07
1.48789e-07
1.32404e-07
1.16468e-07
1.00995e-07
8.59827e-08
7.14086e-08
5.72335e-08
4.34019e-08
2.98442e-08
1.64792e-08
2.83812e-11
1.06404e-13
2.01029e-13
5.36279e-11
3.11365e-08
5.64106e-08
8.21075e-08
1.08412e-07
1.35484e-07
1.63454e-07
1.92417e-07
2.22431e-07
2.53512e-07
2.85636e-07
3.18737e-07
3.52709e-07
3.87408e-07
4.22659e-07
4.58255e-07
4.93968e-07
5.29556e-07
5.64765e-07
5.99336e-07
6.33009e-07
6.65529e-07
6.96644e-07
7.26112e-07
7.53703e-07
7.792e-07
8.02402e-07
8.23125e-07
8.41207e-07
8.56502e-07
8.68892e-07
8.78278e-07
8.84586e-07
8.87765e-07
8.87792e-07
8.84665e-07
8.7841e-07
8.69075e-07
8.56735e-07
8.41486e-07
8.2345e-07
8.02769e-07
7.79606e-07
7.54144e-07
7.26584e-07
6.97143e-07
6.66051e-07
6.33549e-07
5.99889e-07
5.65327e-07
5.30121e-07
4.94532e-07
4.58812e-07
4.23205e-07
3.87939e-07
3.53219e-07
3.19222e-07
2.86093e-07
2.53937e-07
2.22821e-07
1.9277e-07
1.63766e-07
1.35753e-07
1.08635e-07
8.22829e-08
5.65358e-08
3.12084e-08
5.37574e-11
2.01524e-13
3.11665e-13
8.31478e-11
4.82584e-08
8.74269e-08
1.27294e-07
1.68179e-07
2.1036e-07
2.54062e-07
2.99452e-07
3.46629e-07
3.95627e-07
4.46405e-07
4.98854e-07
5.52794e-07
6.0798e-07
6.64113e-07
7.20848e-07
7.77808e-07
8.34595e-07
8.90802e-07
9.46017e-07
9.99827e-07
1.05182e-06
1.1016e-06
1.14878e-06
1.19297e-06
1.23382e-06
1.27101e-06
1.30423e-06
1.33323e-06
1.35776e-06
1.37762e-06
1.39267e-06
1.40279e-06
1.40788e-06
1.40791e-06
1.40289e-06
1.39284e-06
1.37786e-06
1.35806e-06
1.33359e-06
1.30465e-06
1.27148e-06
1.23435e-06
1.19354e-06
1.14939e-06
1.10225e-06
1.0525e-06
1.00053e-06
9.46732e-07
8.91528e-07
8.35326e-07
7.78537e-07
7.21569e-07
6.6482e-07
6.08666e-07
5.53453e-07
4.99482e-07
4.46996e-07
3.96176e-07
3.47132e-07
2.99905e-07
2.54462e-07
2.10704e-07
1.68464e-07
1.27517e-07
8.7586e-08
4.83496e-08
8.33124e-11
3.12295e-13
4.32698e-13
1.15444e-10
6.69702e-08
1.21288e-07
1.76582e-07
2.33325e-07
2.91923e-07
3.52701e-07
4.15899e-07
4.81658e-07
5.50017e-07
6.20911e-07
6.94169e-07
7.69519e-07
8.46597e-07
9.24964e-07
1.00412e-06
1.08354e-06
1.16266e-06
1.24094e-06
1.31779e-06
1.39267e-06
1.465e-06
1.53424e-06
1.59985e-06
1.66129e-06
1.71809e-06
1.76978e-06
1.81596e-06
1.85624e-06
1.89032e-06
1.91791e-06
1.93881e-06
1.95285e-06
1.95991e-06
1.95995e-06
1.95297e-06
1.93901e-06
1.91819e-06
1.89066e-06
1.85666e-06
1.81644e-06
1.77033e-06
1.7187e-06
1.66195e-06
1.60056e-06
1.53499e-06
1.46579e-06
1.39348e-06
1.31862e-06
1.24178e-06
1.16351e-06
1.08439e-06
1.00496e-06
9.25786e-07
8.47396e-07
7.70288e-07
6.94901e-07
6.216e-07
5.50658e-07
4.82245e-07
4.16427e-07
3.53167e-07
2.92323e-07
2.33657e-07
1.76842e-07
1.21472e-07
6.70761e-08
1.15636e-10
4.33432e-13
5.56481e-13
1.48477e-10
8.60854e-08
1.55833e-07
2.26808e-07
2.99635e-07
3.74845e-07
4.52865e-07
5.33998e-07
6.18418e-07
7.06159e-07
7.97117e-07
8.91047e-07
9.87572e-07
1.0862e-06
1.18634e-06
1.28736e-06
1.38855e-06
1.48924e-06
1.5887e-06
1.68625e-06
1.78118e-06
1.87279e-06
1.96041e-06
2.04336e-06
2.12099e-06
2.19271e-06
2.25794e-06
2.31617e-06
2.36696e-06
2.4099e-06
2.44466e-06
2.47098e-06
2.48865e-06
2.49754e-06
2.49758e-06
2.48878e-06
2.47119e-06
2.44495e-06
2.41027e-06
2.36741e-06
2.31669e-06
2.25853e-06
2.19336e-06
2.12171e-06
2.04412e-06
1.96122e-06
1.87364e-06
1.78205e-06
1.68715e-06
1.58961e-06
1.49016e-06
1.38947e-06
1.28827e-06
1.18724e-06
1.08707e-06
9.88409e-07
8.91844e-07
7.97868e-07
7.06857e-07
6.19058e-07
5.34575e-07
4.53374e-07
3.75282e-07
2.99996e-07
2.27091e-07
1.56034e-07
8.62006e-08
1.48686e-10
5.57284e-13
6.75301e-13
1.80188e-10
1.04414e-07
1.88913e-07
2.74845e-07
3.62978e-07
4.53963e-07
5.48313e-07
6.46388e-07
7.48383e-07
8.5432e-07
9.64047e-07
1.07724e-06
1.19341e-06
1.31194e-06
1.43211e-06
1.55313e-06
1.67417e-06
1.79441e-06
1.91302e-06
2.02917e-06
2.14206e-06
2.25087e-06
2.35482e-06
2.45313e-06
2.54506e-06
2.62991e-06
2.70704e-06
2.77586e-06
2.83584e-06
2.88654e-06
2.92757e-06
2.95862e-06
2.97947e-06
2.98995e-06
2.98999e-06
2.9796e-06
2.95884e-06
2.92787e-06
2.88692e-06
2.83631e-06
2.7764e-06
2.70765e-06
2.63058e-06
2.54579e-06
2.45391e-06
2.35565e-06
2.25174e-06
2.14296e-06
2.03009e-06
1.91396e-06
1.79536e-06
1.67512e-06
1.55407e-06
1.43303e-06
1.31284e-06
1.19428e-06
1.07807e-06
9.64827e-07
8.55046e-07
7.49049e-07
6.46988e-07
5.48842e-07
4.54417e-07
3.63353e-07
2.75138e-07
1.89121e-07
1.04534e-07
1.80406e-10
6.7614e-13
7.82801e-13
2.08881e-10
1.20981e-07
2.18776e-07
3.18163e-07
4.20038e-07
5.25156e-07
6.34105e-07
7.47292e-07
8.64924e-07
9.87006e-07
1.11334e-06
1.24351e-06
1.37695e-06
1.51291e-06
1.65055e-06
1.78895e-06
1.92719e-06
2.06432e-06
2.1994e-06
2.33151e-06
2.45975e-06
2.58323e-06
2.70106e-06
2.8124e-06
2.91642e-06
3.01237e-06
3.09953e-06
3.17726e-06
3.24498e-06
3.3022e-06
3.34848e-06
3.38351e-06
3.40701e-06
3.41883e-06
3.41887e-06
3.40714e-06
3.38372e-06
3.34878e-06
3.30258e-06
3.24544e-06
3.1778e-06
3.10014e-06
3.01304e-06
2.91715e-06
2.81318e-06
2.70189e-06
2.58409e-06
2.46065e-06
2.33243e-06
2.20033e-06
2.06526e-06
1.92814e-06
1.78989e-06
1.65147e-06
1.51381e-06
1.37782e-06
1.24434e-06
1.11412e-06
9.87736e-07
8.65593e-07
7.47895e-07
6.34636e-07
5.25611e-07
4.20414e-07
3.18457e-07
2.18985e-07
1.211e-07
2.09101e-10
7.83646e-13
8.7478e-13
2.33436e-10
1.35145e-07
2.44283e-07
3.55127e-07
4.68685e-07
5.858e-07
7.07122e-07
8.33093e-07
9.63929e-07
1.09962e-06
1.2399e-06
1.38433e-06
1.5322e-06
1.6827e-06
1.83488e-06
1.98772e-06
2.1402e-06
2.29128e-06
2.43994e-06
2.58518e-06
2.72603e-06
2.86151e-06
2.99069e-06
3.11266e-06
3.22655e-06
3.33153e-06
3.42685e-06
3.51181e-06
3.58581e-06
3.64831e-06
3.69886e-06
3.73711e-06
3.76277e-06
3.77567e-06
3.77571e-06
3.7629e-06
3.73732e-06
3.69916e-06
3.64868e-06
3.58626e-06
3.51233e-06
3.42744e-06
3.33218e-06
3.22726e-06
3.11342e-06
2.9915e-06
2.86235e-06
2.7269e-06
2.58608e-06
2.44085e-06
2.2922e-06
2.14113e-06
1.98864e-06
1.83579e-06
1.68359e-06
1.53306e-06
1.38514e-06
1.24067e-06
1.10033e-06
9.64586e-07
8.33685e-07
7.07644e-07
5.86246e-07
4.69053e-07
3.55414e-07
2.44487e-07
1.35262e-07
2.33652e-10
8.75612e-13
9.49425e-13
2.53368e-10
1.46634e-07
2.64955e-07
3.85063e-07
5.08058e-07
6.34851e-07
7.66145e-07
9.02406e-07
1.04386e-06
1.19047e-06
1.34194e-06
1.49776e-06
1.65718e-06
1.81927e-06
1.98302e-06
2.14734e-06
2.31112e-06
2.47325e-06
2.63265e-06
2.78827e-06
2.93906e-06
3.08401e-06
3.22214e-06
3.35247e-06
3.4741e-06
3.58618e-06
3.6879e-06
3.77854e-06
3.85746e-06
3.92411e-06
3.978e-06
4.01876e-06
4.04611e-06
4.05986e-06
4.0599e-06
4.04624e-06
4.01897e-06
3.97828e-06
3.92446e-06
3.85789e-06
3.77904e-06
3.68846e-06
3.5868e-06
3.47479e-06
3.3532e-06
3.22291e-06
3.08483e-06
2.93991e-06
2.78914e-06
2.63354e-06
2.47415e-06
2.31202e-06
2.14823e-06
1.9839e-06
1.82013e-06
1.65801e-06
1.49856e-06
1.34269e-06
1.19116e-06
1.0445e-06
9.02981e-07
7.66651e-07
6.35285e-07
5.08415e-07
3.85342e-07
2.65152e-07
1.46747e-07
2.53577e-10
9.50233e-13
1.00703e-12
2.68752e-10
1.55497e-07
2.80894e-07
4.08134e-07
5.38388e-07
6.72622e-07
8.11577e-07
9.55741e-07
1.10534e-06
1.26032e-06
1.42037e-06
1.58491e-06
1.75315e-06
1.9241e-06
2.09668e-06
2.26974e-06
2.44212e-06
2.61267e-06
2.78024e-06
2.94374e-06
3.10209e-06
3.25422e-06
3.39912e-06
3.53579e-06
3.6633e-06
3.78074e-06
3.88731e-06
3.98225e-06
4.0649e-06
4.13468e-06
4.1911e-06
4.23378e-06
4.26241e-06
4.27679e-06
4.27683e-06
4.26252e-06
4.23397e-06
4.19138e-06
4.13503e-06
4.06532e-06
3.98274e-06
3.88786e-06
3.78135e-06
3.66395e-06
3.5365e-06
3.39987e-06
3.25501e-06
3.1029e-06
2.94458e-06
2.7811e-06
2.61353e-06
2.44299e-06
2.27061e-06
2.09753e-06
1.92493e-06
1.75395e-06
1.58568e-06
1.42109e-06
1.26099e-06
1.10596e-06
9.56298e-07
8.12067e-07
6.73042e-07
5.38733e-07
4.08402e-07
2.81084e-07
1.55606e-07
2.68954e-10
1.00781e-12
1.0494e-12
2.80071e-10
1.62017e-07
2.92613e-07
4.25092e-07
5.60676e-07
7.00375e-07
8.44954e-07
9.94918e-07
1.15049e-06
1.31162e-06
1.47796e-06
1.64889e-06
1.82359e-06
2.00103e-06
2.18008e-06
2.35954e-06
2.53822e-06
2.71492e-06
2.88847e-06
3.05773e-06
3.22159e-06
3.37897e-06
3.52882e-06
3.67012e-06
3.80191e-06
3.92328e-06
4.03339e-06
4.13147e-06
4.21684e-06
4.28891e-06
4.34718e-06
4.39125e-06
4.42081e-06
4.43566e-06
4.4357e-06
4.42093e-06
4.39144e-06
4.34745e-06
4.28925e-06
4.21725e-06
4.13194e-06
4.03392e-06
3.92387e-06
3.80255e-06
3.67081e-06
3.52955e-06
3.37973e-06
3.22238e-06
3.05854e-06
2.8893e-06
2.71576e-06
2.53906e-06
2.36038e-06
2.1809e-06
2.00184e-06
1.82437e-06
1.64964e-06
1.47866e-06
1.31227e-06
1.15109e-06
9.95459e-07
8.4543e-07
7.00781e-07
5.6101e-07
4.25352e-07
2.92796e-07
1.62122e-07
2.80267e-10
1.05016e-12
1.07917e-12
2.88027e-10
1.66599e-07
3.00847e-07
4.37005e-07
5.76335e-07
7.19872e-07
8.68404e-07
1.02245e-06
1.18222e-06
1.34767e-06
1.51843e-06
1.69387e-06
1.87311e-06
2.05512e-06
2.23871e-06
2.42268e-06
2.60579e-06
2.78681e-06
2.96456e-06
3.13787e-06
3.30562e-06
3.46669e-06
3.62003e-06
3.76459e-06
3.8994e-06
4.02353e-06
4.13613e-06
4.23642e-06
4.32371e-06
4.39739e-06
4.45696e-06
4.50201e-06
4.53223e-06
4.54741e-06
4.54744e-06
4.53234e-06
4.50219e-06
4.45722e-06
4.39772e-06
4.3241e-06
4.23687e-06
4.13664e-06
4.0241e-06
3.90002e-06
3.76526e-06
3.62073e-06
3.46744e-06
3.30639e-06
3.13867e-06
2.96537e-06
2.78763e-06
2.60661e-06
2.4235e-06
2.23952e-06
2.05591e-06
1.87388e-06
1.6946e-06
1.51912e-06
1.34831e-06
1.18281e-06
1.02297e-06
8.68869e-07
7.20269e-07
5.76661e-07
4.37259e-07
3.01026e-07
1.66701e-07
2.88218e-10
1.07992e-12
1.0992e-12
2.93381e-10
1.69682e-07
3.06387e-07
4.45022e-07
5.86871e-07
7.32994e-07
8.84191e-07
1.04098e-06
1.2036e-06
1.37196e-06
1.54571e-06
1.72419e-06
1.90651e-06
2.0916e-06
2.27827e-06
2.46528e-06
2.65139e-06
2.83534e-06
3.01594e-06
3.192e-06
3.36237e-06
3.52595e-06
3.68164e-06
3.82842e-06
3.96527e-06
4.09128e-06
4.20557e-06
4.30736e-06
4.39595e-06
4.47072e-06
4.53118e-06
4.57689e-06
4.60756e-06
4.62296e-06
4.623e-06
4.60767e-06
4.57707e-06
4.53143e-06
4.47104e-06
4.39633e-06
4.3078e-06
4.20607e-06
4.09184e-06
3.96588e-06
3.82907e-06
3.68234e-06
3.52668e-06
3.36313e-06
3.19278e-06
3.01674e-06
2.83615e-06
2.6522e-06
2.46609e-06
2.27906e-06
2.09237e-06
1.90726e-06
1.72491e-06
1.54639e-06
1.3726e-06
1.20418e-06
1.0415e-06
8.84648e-07
7.33384e-07
5.87192e-07
4.4527e-07
3.06562e-07
1.69782e-07
2.93568e-10
1.09993e-12
1.11212e-12
2.96836e-10
1.71672e-07
3.09963e-07
4.50197e-07
5.93675e-07
7.4147e-07
8.94392e-07
1.05297e-06
1.21742e-06
1.38768e-06
1.56337e-06
1.74382e-06
1.92814e-06
2.11524e-06
2.30391e-06
2.49291e-06
2.68097e-06
2.86684e-06
3.04929e-06
3.22714e-06
3.39924e-06
3.56445e-06
3.72168e-06
3.8699e-06
4.00809e-06
4.13532e-06
4.25072e-06
4.35349e-06
4.44293e-06
4.51843e-06
4.57946e-06
4.62561e-06
4.65657e-06
4.67212e-06
4.67215e-06
4.65668e-06
4.62579e-06
4.57971e-06
4.51875e-06
4.44332e-06
4.35394e-06
4.25122e-06
4.13588e-06
4.0087e-06
3.87055e-06
3.72237e-06
3.56517e-06
3.39999e-06
3.22792e-06
3.05008e-06
2.86764e-06
2.68178e-06
2.49371e-06
2.3047e-06
2.11601e-06
1.92889e-06
1.74454e-06
1.56404e-06
1.38831e-06
1.21799e-06
1.05348e-06
8.94844e-07
7.41856e-07
5.93992e-07
4.50442e-07
3.10136e-07
1.71771e-07
2.97021e-10
1.11284e-12
1.12013e-12
2.98978e-10
1.72906e-07
3.12181e-07
4.53408e-07
5.97899e-07
7.46734e-07
9.00729e-07
1.06041e-06
1.22602e-06
1.39746e-06
1.57436e-06
1.75606e-06
1.94163e-06
2.12998e-06
2.31992e-06
2.51016e-06
2.69945e-06
2.88652e-06
3.07014e-06
3.24912e-06
3.42229e-06
3.58853e-06
3.74674e-06
3.89587e-06
4.0349e-06
4.16291e-06
4.279e-06
4.3824e-06
4.47237e-06
4.54832e-06
4.60972e-06
4.65615e-06
4.68729e-06
4.70293e-06
4.70296e-06
4.68739e-06
4.65632e-06
4.60997e-06
4.54864e-06
4.47275e-06
4.38283e-06
4.2795e-06
4.16346e-06
4.0355e-06
3.89651e-06
3.74742e-06
3.58925e-06
3.42304e-06
3.24988e-06
3.07092e-06
2.88731e-06
2.70025e-06
2.51096e-06
2.3207e-06
2.13075e-06
1.94237e-06
1.75676e-06
1.57503e-06
1.39808e-06
1.22659e-06
1.06093e-06
9.01178e-07
7.47117e-07
5.98213e-07
4.53652e-07
3.12353e-07
1.73004e-07
2.99162e-10
1.12085e-12
1.12491e-12
3.00257e-10
1.73643e-07
3.13506e-07
4.55326e-07
6.00422e-07
7.49881e-07
9.0452e-07
1.06487e-06
1.23117e-06
1.40332e-06
1.58096e-06
1.7634e-06
1.94973e-06
2.13884e-06
2.32954e-06
2.52054e-06
2.71057e-06
2.89836e-06
3.08269e-06
3.26236e-06
3.43619e-06
3.60305e-06
3.76186e-06
3.91154e-06
4.05109e-06
4.17956e-06
4.29608e-06
4.39985e-06
4.49016e-06
4.56638e-06
4.628e-06
4.6746e-06
4.70585e-06
4.72155e-06
4.72158e-06
4.70596e-06
4.67478e-06
4.62825e-06
4.5667e-06
4.49054e-06
4.40029e-06
4.29658e-06
4.18011e-06
4.05169e-06
3.91218e-06
3.76254e-06
3.60377e-06
3.43693e-06
3.26312e-06
3.08348e-06
2.89916e-06
2.71136e-06
2.52133e-06
2.33032e-06
2.13961e-06
1.95046e-06
1.7641e-06
1.58162e-06
1.40394e-06
1.23173e-06
1.06538e-06
9.04968e-07
7.50263e-07
6.00736e-07
4.55569e-07
3.13678e-07
1.73741e-07
3.00441e-10
1.12563e-12
1.12766e-12
3.00993e-10
1.74067e-07
3.14269e-07
4.56431e-07
6.01877e-07
7.51695e-07
9.06707e-07
1.06745e-06
1.23414e-06
1.40671e-06
1.58477e-06
1.76765e-06
1.95442e-06
2.14398e-06
2.33512e-06
2.52656e-06
2.71703e-06
2.90525e-06
3.08999e-06
3.27006e-06
3.44428e-06
3.61151e-06
3.77066e-06
3.92066e-06
4.06052e-06
4.18927e-06
4.30604e-06
4.41003e-06
4.50053e-06
4.57692e-06
4.63867e-06
4.68537e-06
4.71668e-06
4.73241e-06
4.73245e-06
4.71679e-06
4.68554e-06
4.63892e-06
4.57723e-06
4.50091e-06
4.41047e-06
4.30654e-06
4.18982e-06
4.06111e-06
3.92131e-06
3.77134e-06
3.61222e-06
3.44502e-06
3.27082e-06
3.09078e-06
2.90604e-06
2.71782e-06
2.52735e-06
2.3359e-06
2.14474e-06
1.95515e-06
1.76835e-06
1.58544e-06
1.40733e-06
1.23471e-06
1.06796e-06
9.07155e-07
7.52077e-07
6.0219e-07
4.56673e-07
3.1444e-07
1.74165e-07
3.01176e-10
1.12838e-12
1.12919e-12
3.01402e-10
1.74303e-07
3.14693e-07
4.57045e-07
6.02686e-07
7.52705e-07
9.07926e-07
1.06888e-06
1.2358e-06
1.4086e-06
1.5869e-06
1.77002e-06
1.95704e-06
2.14686e-06
2.33824e-06
2.52994e-06
2.72065e-06
2.90911e-06
3.09409e-06
3.27439e-06
3.44882e-06
3.61626e-06
3.77561e-06
3.9258e-06
4.06583e-06
4.19474e-06
4.31165e-06
4.41577e-06
4.50638e-06
4.58286e-06
4.64468e-06
4.69144e-06
4.72279e-06
4.73854e-06
4.73858e-06
4.7229e-06
4.69161e-06
4.64493e-06
4.58317e-06
4.50676e-06
4.41621e-06
4.31215e-06
4.19528e-06
4.06642e-06
3.92644e-06
3.77629e-06
3.61698e-06
3.44957e-06
3.27515e-06
3.09488e-06
2.90991e-06
2.72144e-06
2.53073e-06
2.33902e-06
2.14762e-06
1.95778e-06
1.77073e-06
1.58757e-06
1.40922e-06
1.23637e-06
1.06939e-06
9.08373e-07
7.53087e-07
6.02999e-07
4.57288e-07
3.14864e-07
1.74401e-07
3.01585e-10
1.1299e-12
1.13001e-12
3.01622e-10
1.7443e-07
3.14921e-07
4.57375e-07
6.03121e-07
7.53249e-07
9.08582e-07
1.06965e-06
1.23669e-06
1.40962e-06
1.58805e-06
1.77131e-06
1.95846e-06
2.14841e-06
2.33994e-06
2.53177e-06
2.72262e-06
2.91121e-06
3.09632e-06
3.27674e-06
3.4513e-06
3.61885e-06
3.77831e-06
3.9286e-06
4.06872e-06
4.19772e-06
4.31471e-06
4.4189e-06
4.50957e-06
4.5861e-06
4.64796e-06
4.69475e-06
4.72612e-06
4.74188e-06
4.74192e-06
4.72623e-06
4.69492e-06
4.64821e-06
4.58641e-06
4.50994e-06
4.41933e-06
4.3152e-06
4.19826e-06
4.06932e-06
3.92924e-06
3.77899e-06
3.61957e-06
3.45204e-06
3.27751e-06
3.0971e-06
2.912e-06
2.72341e-06
2.53256e-06
2.34072e-06
2.14918e-06
1.9592e-06
1.77201e-06
1.58872e-06
1.41024e-06
1.23726e-06
1.07016e-06
9.09029e-07
7.5363e-07
6.03434e-07
4.57618e-07
3.15092e-07
1.74527e-07
3.01805e-10
1.13072e-12
1.13043e-12
3.01736e-10
1.74495e-07
3.15039e-07
4.57547e-07
6.03348e-07
7.53532e-07
9.08924e-07
1.07006e-06
1.23716e-06
1.41016e-06
1.58866e-06
1.77198e-06
1.95921e-06
2.14923e-06
2.34083e-06
2.53273e-06
2.72365e-06
2.91232e-06
3.09749e-06
3.27798e-06
3.4526e-06
3.62022e-06
3.77973e-06
3.93007e-06
4.07024e-06
4.19929e-06
4.31632e-06
4.42055e-06
4.51125e-06
4.58781e-06
4.6497e-06
4.69649e-06
4.72788e-06
4.74365e-06
4.74368e-06
4.72799e-06
4.69667e-06
4.64994e-06
4.58812e-06
4.51163e-06
4.42098e-06
4.31682e-06
4.19983e-06
4.07084e-06
3.93072e-06
3.78041e-06
3.62093e-06
3.45334e-06
3.27874e-06
3.09828e-06
2.91311e-06
2.72444e-06
2.53352e-06
2.34161e-06
2.14999e-06
1.95994e-06
1.77269e-06
1.58932e-06
1.41078e-06
1.23773e-06
1.07057e-06
9.09371e-07
7.53914e-07
6.03661e-07
4.5779e-07
3.1521e-07
1.74593e-07
3.01919e-10
1.13115e-12
1.13065e-12
3.01793e-10
1.74529e-07
3.15099e-07
4.57634e-07
6.03462e-07
7.53675e-07
9.09096e-07
1.07026e-06
1.2374e-06
1.41043e-06
1.58896e-06
1.77232e-06
1.95958e-06
2.14964e-06
2.34128e-06
2.53322e-06
2.72418e-06
2.91288e-06
3.09809e-06
3.27861e-06
3.45326e-06
3.62091e-06
3.78045e-06
3.93083e-06
4.07102e-06
4.20009e-06
4.31715e-06
4.42139e-06
4.51211e-06
4.58868e-06
4.65058e-06
4.69739e-06
4.72878e-06
4.74455e-06
4.74459e-06
4.72889e-06
4.69757e-06
4.65083e-06
4.58899e-06
4.51249e-06
4.42183e-06
4.31764e-06
4.20064e-06
4.07162e-06
3.93147e-06
3.78113e-06
3.62163e-06
3.45401e-06
3.27938e-06
3.09887e-06
2.91367e-06
2.72497e-06
2.53401e-06
2.34206e-06
2.15041e-06
1.96032e-06
1.77303e-06
1.58963e-06
1.41105e-06
1.23797e-06
1.07077e-06
9.09544e-07
7.54056e-07
6.03775e-07
4.57876e-07
3.1527e-07
1.74626e-07
3.01976e-10
1.13136e-12
1.13075e-12
3.01821e-10
1.74545e-07
3.15128e-07
4.57676e-07
6.03518e-07
7.53745e-07
9.09181e-07
1.07036e-06
1.23751e-06
1.41056e-06
1.58911e-06
1.77249e-06
1.95977e-06
2.14985e-06
2.3415e-06
2.53346e-06
2.72443e-06
2.91316e-06
3.09839e-06
3.27892e-06
3.45359e-06
3.62126e-06
3.78081e-06
3.9312e-06
4.07141e-06
4.20049e-06
4.31756e-06
4.42181e-06
4.51254e-06
4.58912e-06
4.65102e-06
4.69783e-06
4.72923e-06
4.745e-06
4.74504e-06
4.72934e-06
4.69801e-06
4.65127e-06
4.58943e-06
4.51291e-06
4.42225e-06
4.31805e-06
4.20104e-06
4.07201e-06
3.93184e-06
3.78149e-06
3.62197e-06
3.45433e-06
3.27969e-06
3.09917e-06
2.91395e-06
2.72523e-06
2.53425e-06
2.34228e-06
2.15061e-06
1.96051e-06
1.77319e-06
1.58978e-06
1.41118e-06
1.23808e-06
1.07087e-06
9.09629e-07
7.54126e-07
6.03831e-07
4.57919e-07
3.15299e-07
1.74643e-07
3.02004e-10
1.13147e-12
1.1308e-12
3.01835e-10
1.74552e-07
3.15142e-07
4.57696e-07
6.03544e-07
7.53778e-07
9.09221e-07
1.07041e-06
1.23757e-06
1.41062e-06
1.58918e-06
1.77257e-06
1.95986e-06
2.14995e-06
2.34161e-06
2.53358e-06
2.72456e-06
2.91329e-06
3.09853e-06
3.27907e-06
3.45375e-06
3.62142e-06
3.78099e-06
3.93138e-06
4.0716e-06
4.20068e-06
4.31775e-06
4.42201e-06
4.51274e-06
4.58933e-06
4.65124e-06
4.69805e-06
4.72945e-06
4.74522e-06
4.74525e-06
4.72955e-06
4.69823e-06
4.65148e-06
4.58964e-06
4.51312e-06
4.42245e-06
4.31825e-06
4.20123e-06
4.07219e-06
3.93202e-06
3.78167e-06
3.62214e-06
3.45449e-06
3.27984e-06
3.09931e-06
2.91408e-06
2.72535e-06
2.53437e-06
2.34239e-06
2.15071e-06
1.9606e-06
1.77328e-06
1.58985e-06
1.41124e-06
1.23814e-06
1.07092e-06
9.09669e-07
7.5416e-07
6.03857e-07
4.57939e-07
3.15313e-07
1.7465e-07
3.02018e-10
1.13152e-12
1.13082e-12
3.01841e-10
1.74556e-07
3.15148e-07
4.57705e-07
6.03556e-07
7.53793e-07
9.0924e-07
1.07043e-06
1.2376e-06
1.41065e-06
1.58922e-06
1.77261e-06
1.9599e-06
2.14999e-06
2.34166e-06
2.53363e-06
2.72462e-06
2.91335e-06
3.09859e-06
3.27914e-06
3.45382e-06
3.6215e-06
3.78107e-06
3.93147e-06
4.07168e-06
4.20077e-06
4.31785e-06
4.42211e-06
4.51284e-06
4.58942e-06
4.65134e-06
4.69815e-06
4.72955e-06
4.74532e-06
4.74535e-06
4.72965e-06
4.69833e-06
4.65158e-06
4.58974e-06
4.51322e-06
4.42254e-06
4.31834e-06
4.20132e-06
4.07228e-06
3.93211e-06
3.78175e-06
3.62221e-06
3.45457e-06
3.27991e-06
3.09938e-06
2.91414e-06
2.72541e-06
2.53442e-06
2.34244e-06
2.15076e-06
1.96064e-06
1.77331e-06
1.58988e-06
1.41127e-06
1.23816e-06
1.07094e-06
9.09688e-07
7.54175e-07
6.0387e-07
4.57948e-07
3.15319e-07
1.74654e-07
3.02024e-10
1.13154e-12
1.13083e-12
3.01843e-10
1.74558e-07
3.15151e-07
4.57709e-07
6.03562e-07
7.538e-07
9.09248e-07
1.07044e-06
1.23761e-06
1.41067e-06
1.58923e-06
1.77262e-06
1.95992e-06
2.15001e-06
2.34168e-06
2.53366e-06
2.72464e-06
2.91338e-06
3.09862e-06
3.27917e-06
3.45386e-06
3.62153e-06
3.7811e-06
3.9315e-06
4.07172e-06
4.20081e-06
4.31789e-06
4.42215e-06
4.51288e-06
4.58947e-06
4.65138e-06
4.69819e-06
4.72959e-06
4.74536e-06
4.7454e-06
4.7297e-06
4.69837e-06
4.65163e-06
4.58978e-06
4.51326e-06
4.42259e-06
4.31838e-06
4.20136e-06
4.07232e-06
3.93215e-06
3.78179e-06
3.62225e-06
3.4546e-06
3.27994e-06
3.09941e-06
2.91417e-06
2.72544e-06
2.53445e-06
2.34246e-06
2.15078e-06
1.96066e-06
1.77333e-06
1.5899e-06
1.41129e-06
1.23817e-06
1.07095e-06
9.09696e-07
7.54182e-07
6.03875e-07
4.57952e-07
3.15322e-07
1.74655e-07
3.02027e-10
1.13155e-12
1.13084e-12
3.01845e-10
1.74558e-07
3.15152e-07
4.57711e-07
6.03564e-07
7.53803e-07
9.09252e-07
1.07044e-06
1.23761e-06
1.41067e-06
1.58924e-06
1.77263e-06
1.95993e-06
2.15002e-06
2.34169e-06
2.53367e-06
2.72466e-06
2.91339e-06
3.09864e-06
3.27919e-06
3.45387e-06
3.62155e-06
3.78112e-06
3.93152e-06
4.07174e-06
4.20083e-06
4.31791e-06
4.42217e-06
4.5129e-06
4.58949e-06
4.6514e-06
4.69822e-06
4.72961e-06
4.74538e-06
4.74542e-06
4.72972e-06
4.69839e-06
4.65165e-06
4.5898e-06
4.51328e-06
4.42261e-06
4.3184e-06
4.20138e-06
4.07234e-06
3.93216e-06
3.7818e-06
3.62227e-06
3.45462e-06
3.27995e-06
3.09942e-06
2.91418e-06
2.72545e-06
2.53446e-06
2.34247e-06
2.15078e-06
1.96067e-06
1.77334e-06
1.5899e-06
1.41129e-06
1.23818e-06
1.07095e-06
9.097e-07
7.54185e-07
6.03877e-07
4.57954e-07
3.15324e-07
1.74656e-07
3.02028e-10
1.13155e-12
1.13084e-12
3.01845e-10
1.74559e-07
3.15153e-07
4.57712e-07
6.03565e-07
7.53804e-07
9.09253e-07
1.07045e-06
1.23761e-06
1.41068e-06
1.58924e-06
1.77263e-06
1.95993e-06
2.15003e-06
2.3417e-06
2.53367e-06
2.72466e-06
2.9134e-06
3.09864e-06
3.27919e-06
3.45388e-06
3.62156e-06
3.78113e-06
3.93153e-06
4.07175e-06
4.20084e-06
4.31791e-06
4.42218e-06
4.51291e-06
4.5895e-06
4.65141e-06
4.69822e-06
4.72962e-06
4.74539e-06
4.74543e-06
4.72973e-06
4.6984e-06
4.65165e-06
4.58981e-06
4.51329e-06
4.42261e-06
4.31841e-06
4.20139e-06
4.07235e-06
3.93217e-06
3.78181e-06
3.62227e-06
3.45462e-06
3.27996e-06
3.09943e-06
2.91419e-06
2.72546e-06
2.53446e-06
2.34248e-06
2.15079e-06
1.96067e-06
1.77334e-06
1.58991e-06
1.41129e-06
1.23818e-06
1.07096e-06
9.09701e-07
7.54186e-07
6.03878e-07
4.57955e-07
3.15324e-07
1.74656e-07
3.02028e-10
1.13156e-12
1.13084e-12
3.01845e-10
1.74559e-07
3.15153e-07
4.57712e-07
6.03566e-07
7.53805e-07
9.09254e-07
1.07045e-06
1.23761e-06
1.41068e-06
1.58924e-06
1.77264e-06
1.95993e-06
2.15003e-06
2.3417e-06
2.53367e-06
2.72466e-06
2.9134e-06
3.09865e-06
3.2792e-06
3.45388e-06
3.62156e-06
3.78113e-06
3.93153e-06
4.07175e-06
4.20084e-06
4.31792e-06
4.42218e-06
4.51292e-06
4.5895e-06
4.65141e-06
4.69823e-06
4.72963e-06
4.7454e-06
4.74543e-06
4.72973e-06
4.6984e-06
4.65166e-06
4.58981e-06
4.51329e-06
4.42262e-06
4.31841e-06
4.20139e-06
4.07235e-06
3.93217e-06
3.78181e-06
3.62227e-06
3.45462e-06
3.27996e-06
3.09943e-06
2.91419e-06
2.72546e-06
2.53446e-06
2.34248e-06
2.15079e-06
1.96067e-06
1.77334e-06
1.58991e-06
1.4113e-06
1.23818e-06
1.07096e-06
9.09702e-07
7.54187e-07
6.03879e-07
4.57955e-07
3.15324e-07
1.74657e-07
3.02028e-10
1.13156e-12
1.13084e-12
3.01845e-10
1.74559e-07
3.15153e-07
4.57712e-07
6.03566e-07
7.53805e-07
9.09254e-07
1.07045e-06
1.23762e-06
1.41068e-06
1.58924e-06
1.77264e-06
1.95993e-06
2.15003e-06
2.3417e-06
2.53367e-06
2.72466e-06
2.9134e-06
3.09865e-06
3.2792e-06
3.45388e-06
3.62156e-06
3.78113e-06
3.93153e-06
4.07175e-06
4.20084e-06
4.31792e-06
4.42218e-06
4.51292e-06
4.5895e-06
4.65141e-06
4.69823e-06
4.72963e-06
4.7454e-06
4.74543e-06
4.72973e-06
4.69841e-06
4.65166e-06
4.58981e-06
4.51329e-06
4.42262e-06
4.31841e-06
4.20139e-06
4.07235e-06
3.93217e-06
3.78181e-06
3.62228e-06
3.45463e-06
3.27996e-06
3.09943e-06
2.91419e-06
2.72546e-06
2.53446e-06
2.34248e-06
2.15079e-06
1.96067e-06
1.77334e-06
1.58991e-06
1.4113e-06
1.23818e-06
1.07096e-06
9.09702e-07
7.54187e-07
6.03879e-07
4.57955e-07
3.15324e-07
1.74657e-07
3.02029e-10
1.13156e-12
1.13084e-12
3.01845e-10
1.74559e-07
3.15153e-07
4.57713e-07
6.03566e-07
7.53805e-07
9.09254e-07
1.07045e-06
1.23762e-06
1.41068e-06
1.58924e-06
1.77264e-06
1.95993e-06
2.15003e-06
2.3417e-06
2.53367e-06
2.72466e-06
2.9134e-06
3.09865e-06
3.2792e-06
3.45388e-06
3.62156e-06
3.78113e-06
3.93153e-06
4.07175e-06
4.20084e-06
4.31792e-06
4.42218e-06
4.51292e-06
4.5895e-06
4.65141e-06
4.69823e-06
4.72963e-06
4.7454e-06
4.74544e-06
4.72974e-06
4.69841e-06
4.65166e-06
4.58982e-06
4.51329e-06
4.42262e-06
4.31841e-06
4.20139e-06
4.07235e-06
3.93218e-06
3.78181e-06
3.62228e-06
3.45463e-06
3.27996e-06
3.09943e-06
2.91419e-06
2.72546e-06
2.53446e-06
2.34248e-06
2.15079e-06
1.96067e-06
1.77334e-06
1.58991e-06
1.4113e-06
1.23818e-06
1.07096e-06
9.09702e-07
7.54187e-07
6.03879e-07
4.57955e-07
3.15324e-07
1.74657e-07
3.02029e-10
1.13156e-12
1.13084e-12
3.01845e-10
1.74559e-07
3.15153e-07
4.57713e-07
6.03566e-07
7.53805e-07
9.09254e-07
1.07045e-06
1.23762e-06
1.41068e-06
1.58924e-06
1.77264e-06
1.95993e-06
2.15003e-06
2.3417e-06
2.53367e-06
2.72466e-06
2.9134e-06
3.09865e-06
3.2792e-06
3.45388e-06
3.62156e-06
3.78113e-06
3.93153e-06
4.07175e-06
4.20084e-06
4.31792e-06
4.42218e-06
4.51292e-06
4.5895e-06
4.65142e-06
4.69823e-06
4.72963e-06
4.7454e-06
4.74544e-06
4.72974e-06
4.69841e-06
4.65166e-06
4.58982e-06
4.51329e-06
4.42262e-06
4.31841e-06
4.20139e-06
4.07235e-06
3.93218e-06
3.78181e-06
3.62228e-06
3.45463e-06
3.27996e-06
3.09943e-06
2.91419e-06
2.72546e-06
2.53447e-06
2.34248e-06
2.15079e-06
1.96067e-06
1.77334e-06
1.58991e-06
1.4113e-06
1.23818e-06
1.07096e-06
9.09702e-07
7.54187e-07
6.03879e-07
4.57955e-07
3.15324e-07
1.74657e-07
3.02029e-10
1.13156e-12
1.13084e-12
3.01845e-10
1.74559e-07
3.15153e-07
4.57713e-07
6.03566e-07
7.53805e-07
9.09254e-07
1.07045e-06
1.23762e-06
1.41068e-06
1.58924e-06
1.77264e-06
1.95993e-06
2.15003e-06
2.3417e-06
2.53367e-06
2.72466e-06
2.9134e-06
3.09865e-06
3.2792e-06
3.45388e-06
3.62156e-06
3.78113e-06
3.93153e-06
4.07175e-06
4.20084e-06
4.31792e-06
4.42218e-06
4.51292e-06
4.5895e-06
4.65142e-06
4.69823e-06
4.72963e-06
4.7454e-06
4.74544e-06
4.72974e-06
4.69841e-06
4.65166e-06
4.58982e-06
4.51329e-06
4.42262e-06
4.31841e-06
4.20139e-06
4.07235e-06
3.93218e-06
3.78181e-06
3.62228e-06
3.45463e-06
3.27996e-06
3.09943e-06
2.91419e-06
2.72546e-06
2.53447e-06
2.34248e-06
2.15079e-06
1.96067e-06
1.77334e-06
1.58991e-06
1.4113e-06
1.23818e-06
1.07096e-06
9.09702e-07
7.54187e-07
6.03879e-07
4.57955e-07
3.15324e-07
1.74657e-07
3.02029e-10
1.13156e-12
1.13084e-12
3.01845e-10
1.74559e-07
3.15153e-07
4.57713e-07
6.03566e-07
7.53805e-07
9.09254e-07
1.07045e-06
1.23762e-06
1.41068e-06
1.58924e-06
1.77264e-06
1.95993e-06
2.15003e-06
2.3417e-06
2.53367e-06
2.72466e-06
2.9134e-06
3.09865e-06
3.2792e-06
3.45388e-06
3.62156e-06
3.78113e-06
3.93153e-06
4.07175e-06
4.20084e-06
4.31792e-06
4.42218e-06
4.51292e-06
4.5895e-06
4.65142e-06
4.69823e-06
4.72963e-06
4.7454e-06
4.74544e-06
4.72974e-06
4.69841e-06
4.65166e-06
4.58982e-06
4.51329e-06
4.42262e-06
4.31841e-06
4.20139e-06
4.07235e-06
3.93218e-06
3.78181e-06
3.62228e-06
3.45463e-06
3.27996e-06
3.09943e-06
2.91419e-06
2.72546e-06
2.53447e-06
2.34248e-06
2.15079e-06
1.96067e-06
1.77334e-06
1.58991e-06
1.4113e-06
1.23818e-06
1.07096e-06
9.09702e-07
7.54187e-07
6.03879e-07
4.57955e-07
3.15324e-07
1.74657e-07
3.02029e-10
1.13156e-12
1.13084e-12
3.01845e-10
1.74559e-07
3.15153e-07
4.57713e-07
6.03566e-07
7.53805e-07
9.09254e-07
1.07045e-06
1.23762e-06
1.41068e-06
1.58924e-06