/*--------------------------------*- C++ -*----------------------------------*\
  =========                 |
  \\      /  F ield         | OpenFOAM: The Open Source CFD Toolbox
   \\    /   O peration     | Website:  https://openfoam.org
    \\  /    A nd           | Version:  13
     \\/     M anipulation  |
\*---------------------------------------------------------------------------*/
FoamFile
{
    format      ascii;
    class       volScalarField;
    location    "75";
    object      nut;
}
// * * * * * * * * * * * * * * * * * * * * * * * * * * * * * * * * * * * * * //

dimensions      [0 2 -1 0 0 0 0];

internalField   nonuniform List<scalar> 
315000
(
3.91712e-14
1.02556e-11
2.33925e-10
4.19521e-10
6.07587e-10
7.98323e-10
9.92044e-10
1.18902e-09
1.38939e-09
1.59312e-09
1.80004e-09
2.00975e-09
2.22174e-09
2.43532e-09
2.64968e-09
2.86392e-09
3.07703e-09
3.28796e-09
3.49559e-09
3.69878e-09
3.89638e-09
4.08721e-09
4.27013e-09
4.44402e-09
4.60777e-09
4.76035e-09
4.90076e-09
5.02808e-09
5.14147e-09
5.24017e-09
5.3235e-09
5.3909e-09
5.4419e-09
5.47615e-09
5.49343e-09
5.4936e-09
5.47666e-09
5.44274e-09
5.39206e-09
5.32499e-09
5.24197e-09
5.14358e-09
5.03048e-09
4.90343e-09
4.76328e-09
4.61094e-09
4.44741e-09
4.27373e-09
4.09098e-09
3.90031e-09
3.70285e-09
3.49976e-09
3.29221e-09
3.08134e-09
2.86825e-09
2.65401e-09
2.43962e-09
2.22599e-09
2.01391e-09
1.80407e-09
1.59701e-09
1.39309e-09
1.1925e-09
9.95262e-10
8.01227e-10
6.10109e-10
4.21557e-10
2.35299e-10
1.03306e-11
3.94906e-14
9.8079e-13
2.61109e-10
5.93298e-08
1.07004e-07
1.54937e-07
2.03298e-07
2.52218e-07
3.01788e-07
3.52049e-07
4.02995e-07
4.54571e-07
5.06676e-07
5.59171e-07
6.11882e-07
6.64604e-07
7.17112e-07
7.69163e-07
8.20501e-07
8.70863e-07
9.19982e-07
9.67591e-07
1.01342e-06
1.05722e-06
1.09874e-06
1.13772e-06
1.17395e-06
1.20722e-06
1.23732e-06
1.26407e-06
1.28731e-06
1.30691e-06
1.32273e-06
1.3347e-06
1.34272e-06
1.34677e-06
1.3468e-06
1.34282e-06
1.33485e-06
1.32294e-06
1.30717e-06
1.28764e-06
1.26445e-06
1.23775e-06
1.2077e-06
1.17448e-06
1.1383e-06
1.09935e-06
1.05788e-06
1.01411e-06
9.68308e-07
9.20724e-07
8.71626e-07
8.21279e-07
7.69952e-07
7.17906e-07
6.65397e-07
6.12668e-07
5.59945e-07
5.0743e-07
4.55299e-07
4.03691e-07
3.52705e-07
3.02395e-07
2.52767e-07
2.03778e-07
1.55337e-07
1.07307e-07
5.95148e-08
2.62008e-10
9.84303e-13
3.96341e-12
1.05671e-09
6.01367e-07
1.06662e-06
1.52217e-06
1.97133e-06
2.41646e-06
2.85916e-06
3.30031e-06
3.74015e-06
4.17842e-06
4.61441e-06
5.04709e-06
5.47518e-06
5.89725e-06
6.31176e-06
6.71716e-06
7.11187e-06
7.49431e-06
7.86298e-06
8.21639e-06
8.55312e-06
8.87182e-06
9.1712e-06
9.45006e-06
9.70729e-06
9.94186e-06
1.01528e-05
1.03393e-05
1.05007e-05
1.06361e-05
1.07452e-05
1.08274e-05
1.08824e-05
1.09101e-05
1.09103e-05
1.08829e-05
1.08282e-05
1.07462e-05
1.06375e-05
1.05023e-05
1.03413e-05
1.0155e-05
9.94433e-06
9.71002e-06
9.45304e-06
9.17441e-06
8.87525e-06
8.55675e-06
8.22021e-06
7.86696e-06
7.49844e-06
7.11611e-06
6.7215e-06
6.31617e-06
5.90169e-06
5.47962e-06
5.0515e-06
4.61875e-06
4.18264e-06
3.74422e-06
3.30416e-06
2.86275e-06
2.41972e-06
1.97419e-06
1.52456e-06
1.06843e-06
6.02483e-07
1.05885e-09
3.97168e-12
7.12482e-12
1.90001e-09
1.06519e-06
1.86326e-06
2.62993e-06
3.37433e-06
4.10281e-06
4.81953e-06
5.52695e-06
6.2262e-06
6.91734e-06
7.59966e-06
8.2719e-06
8.93244e-06
9.57948e-06
1.02111e-05
1.08254e-05
1.14204e-05
1.19943e-05
1.25452e-05
1.30714e-05
1.35712e-05
1.4043e-05
1.44851e-05
1.48961e-05
1.52745e-05
1.56191e-05
1.59286e-05
1.62018e-05
1.6438e-05
1.66361e-05
1.67954e-05
1.69155e-05
1.69958e-05
1.70362e-05
1.70363e-05
1.69963e-05
1.69163e-05
1.67965e-05
1.66374e-05
1.64396e-05
1.62038e-05
1.59308e-05
1.56216e-05
1.52773e-05
1.48991e-05
1.44884e-05
1.40465e-05
1.3575e-05
1.30753e-05
1.25493e-05
1.19985e-05
1.14248e-05
1.08299e-05
1.02157e-05
9.58413e-06
8.93711e-06
8.27655e-06
7.60425e-06
6.92183e-06
6.23054e-06
5.53109e-06
4.8234e-06
4.10635e-06
3.37747e-06
2.63256e-06
1.86528e-06
1.06646e-06
1.90253e-09
7.13455e-12
1.03499e-11
2.7608e-09
1.52553e-06
2.63567e-06
3.68603e-06
4.69447e-06
5.6728e-06
6.62858e-06
7.56636e-06
8.48843e-06
9.39551e-06
1.02872e-05
1.11622e-05
1.20191e-05
1.28559e-05
1.36708e-05
1.44617e-05
1.52267e-05
1.59639e-05
1.66713e-05
1.73469e-05
1.79886e-05
1.85944e-05
1.91622e-05
1.969e-05
2.0176e-05
2.06183e-05
2.10154e-05
2.1366e-05
2.16688e-05
2.19227e-05
2.21269e-05
2.22807e-05
2.23836e-05
2.24352e-05
2.24353e-05
2.2384e-05
2.22814e-05
2.21278e-05
2.19239e-05
2.16702e-05
2.13677e-05
2.10174e-05
2.06205e-05
2.01784e-05
1.96927e-05
1.91651e-05
1.85976e-05
1.79919e-05
1.73504e-05
1.6675e-05
1.59677e-05
1.52307e-05
1.44657e-05
1.36749e-05
1.28601e-05
1.20233e-05
1.11664e-05
1.02913e-05
9.39959e-06
8.49239e-06
7.57014e-06
6.63214e-06
5.67607e-06
4.69738e-06
3.68849e-06
2.63759e-06
1.52676e-06
2.76332e-09
1.03598e-11
1.33475e-11
3.56135e-09
1.94284e-06
3.32223e-06
4.61221e-06
5.84062e-06
7.02513e-06
8.17683e-06
9.30239e-06
1.04053e-05
1.14872e-05
1.25478e-05
1.35864e-05
1.46016e-05
1.55917e-05
1.65548e-05
1.74891e-05
1.83926e-05
1.92633e-05
2.00989e-05
2.0897e-05
2.16549e-05
2.23701e-05
2.30402e-05
2.36626e-05
2.42354e-05
2.47566e-05
2.52243e-05
2.5637e-05
2.59933e-05
2.6292e-05
2.65322e-05
2.67131e-05
2.6834e-05
2.68946e-05
2.68948e-05
2.68344e-05
2.67136e-05
2.6533e-05
2.6293e-05
2.59945e-05
2.56384e-05
2.52259e-05
2.47584e-05
2.42374e-05
2.36648e-05
2.30425e-05
2.23727e-05
2.16576e-05
2.08998e-05
2.01019e-05
1.92664e-05
1.83959e-05
1.74925e-05
1.65583e-05
1.55952e-05
1.46051e-05
1.359e-05
1.25513e-05
1.14906e-05
1.04087e-05
9.30558e-06
8.17985e-06
7.02791e-06
5.84311e-06
4.61433e-06
3.32389e-06
1.94392e-06
3.56366e-09
1.33566e-11
1.58633e-11
4.2337e-09
2.28594e-06
3.87819e-06
5.35483e-06
6.7531e-06
8.09591e-06
9.39744e-06
1.06662e-05
1.19067e-05
1.31212e-05
1.43102e-05
1.54729e-05
1.66083e-05
1.77147e-05
1.87906e-05
1.98341e-05
2.08433e-05
2.18158e-05
2.2749e-05
2.364e-05
2.44859e-05
2.52838e-05
2.60311e-05
2.6725e-05
2.73634e-05
2.7944e-05
2.8465e-05
2.89247e-05
2.93215e-05
2.96542e-05
2.99216e-05
3.01229e-05
3.02576e-05
3.0325e-05
3.03251e-05
3.02578e-05
3.01234e-05
2.99222e-05
2.96549e-05
2.93224e-05
2.89258e-05
2.84663e-05
2.79455e-05
2.7365e-05
2.67267e-05
2.60329e-05
2.52859e-05
2.44881e-05
2.36423e-05
2.27514e-05
2.18183e-05
2.08459e-05
1.98368e-05
1.87934e-05
1.77176e-05
1.66111e-05
1.54758e-05
1.4313e-05
1.31241e-05
1.19095e-05
1.06688e-05
9.39993e-06
8.09822e-06
6.75516e-06
5.3566e-06
3.87958e-06
2.28686e-06
4.23573e-09
1.58713e-11
1.77772e-11
4.74555e-09
2.54298e-06
4.29018e-06
5.90146e-06
7.42163e-06
8.87771e-06
1.02862e-05
1.1657e-05
1.29957e-05
1.43047e-05
1.5585e-05
1.68362e-05
1.80572e-05
1.92467e-05
2.04032e-05
2.15248e-05
2.26095e-05
2.36547e-05
2.46576e-05
2.56148e-05
2.65234e-05
2.73802e-05
2.81824e-05
2.89272e-05
2.96124e-05
3.02355e-05
3.07945e-05
3.12877e-05
3.17135e-05
3.20703e-05
3.23572e-05
3.25732e-05
3.27176e-05
3.279e-05
3.27901e-05
3.27178e-05
3.25736e-05
3.23577e-05
3.2071e-05
3.17142e-05
3.12886e-05
3.07956e-05
3.02367e-05
2.96137e-05
2.89287e-05
2.81839e-05
2.73819e-05
2.65252e-05
2.56168e-05
2.46596e-05
2.36568e-05
2.26117e-05
2.15271e-05
2.04055e-05
1.92491e-05
1.80596e-05
1.68386e-05
1.55874e-05
1.43071e-05
1.2998e-05
1.16593e-05
1.02884e-05
8.87968e-06
7.4234e-06
5.90298e-06
4.29137e-06
2.54377e-06
4.74736e-09
1.77844e-11
1.91065e-11
5.10135e-09
2.71967e-06
4.57138e-06
6.27298e-06
7.87473e-06
9.40652e-06
1.08865e-05
1.23256e-05
1.37297e-05
1.5102e-05
1.64434e-05
1.77537e-05
1.90322e-05
2.02774e-05
2.1488e-05
2.26621e-05
2.37976e-05
2.48917e-05
2.59413e-05
2.6943e-05
2.78937e-05
2.879e-05
2.96292e-05
3.04083e-05
3.11249e-05
3.17766e-05
3.23613e-05
3.28771e-05
3.33223e-05
3.36955e-05
3.39955e-05
3.42214e-05
3.43724e-05
3.44481e-05
3.44481e-05
3.43726e-05
3.42217e-05
3.3996e-05
3.36961e-05
3.3323e-05
3.28779e-05
3.23622e-05
3.17777e-05
3.11261e-05
3.04096e-05
2.96306e-05
2.87916e-05
2.78953e-05
2.69448e-05
2.59431e-05
2.48936e-05
2.37996e-05
2.26642e-05
2.14901e-05
2.02796e-05
1.90344e-05
1.77559e-05
1.64456e-05
1.51042e-05
1.37319e-05
1.23276e-05
1.08885e-05
9.40832e-06
7.87634e-06
6.27436e-06
4.57247e-06
2.72041e-06
5.10304e-09
1.91133e-11
1.9956e-11
5.3289e-09
2.8319e-06
4.74919e-06
6.50735e-06
8.16014e-06
9.73932e-06
1.12641e-05
1.27459e-05
1.41912e-05
1.56031e-05
1.69829e-05
1.83305e-05
1.96452e-05
2.09256e-05
2.21703e-05
2.33776e-05
2.45452e-05
2.56702e-05
2.67494e-05
2.77794e-05
2.87566e-05
2.96781e-05
3.05407e-05
3.13415e-05
3.20781e-05
3.2748e-05
3.33489e-05
3.38791e-05
3.43367e-05
3.47203e-05
3.50287e-05
3.52609e-05
3.54161e-05
3.54938e-05
3.54939e-05
3.54163e-05
3.52612e-05
3.50291e-05
3.47209e-05
3.43374e-05
3.38799e-05
3.33499e-05
3.2749e-05
3.20793e-05
3.13428e-05
3.05421e-05
2.96796e-05
2.87583e-05
2.77811e-05
2.67513e-05
2.56722e-05
2.45472e-05
2.33797e-05
2.21724e-05
2.09277e-05
1.96473e-05
1.83327e-05
1.69851e-05
1.56053e-05
1.41933e-05
1.27479e-05
1.1266e-05
9.74108e-06
8.16171e-06
6.5087e-06
4.75026e-06
2.83261e-06
5.33056e-09
1.99627e-11
2.04589e-11
5.46371e-09
2.89813e-06
4.85389e-06
6.64519e-06
8.3279e-06
9.93491e-06
1.1486e-05
1.2993e-05
1.44625e-05
1.58979e-05
1.73004e-05
1.86701e-05
2.00061e-05
2.13074e-05
2.25725e-05
2.37996e-05
2.49863e-05
2.61298e-05
2.72266e-05
2.82733e-05
2.92665e-05
3.02029e-05
3.10795e-05
3.18934e-05
3.26419e-05
3.33227e-05
3.39334e-05
3.44721e-05
3.49372e-05
3.5327e-05
3.56404e-05
3.58764e-05
3.60341e-05
3.61131e-05
3.61132e-05
3.60343e-05
3.58767e-05
3.56409e-05
3.53276e-05
3.49379e-05
3.4473e-05
3.39344e-05
3.33238e-05
3.26431e-05
3.18947e-05
3.1081e-05
3.02045e-05
2.92682e-05
2.82751e-05
2.72285e-05
2.61317e-05
2.49883e-05
2.38017e-05
2.25747e-05
2.13096e-05
2.00084e-05
1.86723e-05
1.73026e-05
1.59001e-05
1.44646e-05
1.2995e-05
1.14879e-05
9.9367e-06
8.3295e-06
6.64656e-06
4.85497e-06
2.89885e-06
5.4654e-09
2.04657e-11
2.07363e-11
5.53815e-09
2.93463e-06
4.91153e-06
6.72105e-06
8.42025e-06
1.00426e-05
1.16083e-05
1.31292e-05
1.46121e-05
1.60605e-05
1.74757e-05
1.88577e-05
2.02057e-05
2.15187e-05
2.27951e-05
2.40333e-05
2.52307e-05
2.63845e-05
2.74913e-05
2.85475e-05
2.95496e-05
3.04945e-05
3.1379e-05
3.22002e-05
3.29555e-05
3.36423e-05
3.42586e-05
3.48022e-05
3.52714e-05
3.56648e-05
3.5981e-05
3.62191e-05
3.63783e-05
3.6458e-05
3.64581e-05
3.63785e-05
3.62195e-05
3.59815e-05
3.56654e-05
3.52722e-05
3.48031e-05
3.42596e-05
3.36435e-05
3.29567e-05
3.22016e-05
3.13805e-05
3.04961e-05
2.95514e-05
2.85493e-05
2.74933e-05
2.63866e-05
2.52329e-05
2.40354e-05
2.27974e-05
2.15209e-05
2.0208e-05
1.886e-05
1.7478e-05
1.60628e-05
1.46143e-05
1.31313e-05
1.16102e-05
1.00444e-05
8.4219e-06
6.72246e-06
4.91265e-06
2.93537e-06
5.53988e-09
2.07432e-11
2.08797e-11
5.57663e-09
2.95349e-06
4.94131e-06
6.76025e-06
8.46799e-06
1.00983e-05
1.16715e-05
1.31997e-05
1.46897e-05
1.61449e-05
1.75667e-05
1.89552e-05
2.03095e-05
2.16286e-05
2.29111e-05
2.41551e-05
2.53582e-05
2.65175e-05
2.76295e-05
2.86907e-05
2.96976e-05
3.0647e-05
3.15357e-05
3.23608e-05
3.31197e-05
3.38098e-05
3.4429e-05
3.49752e-05
3.54467e-05
3.58419e-05
3.61597e-05
3.63989e-05
3.65588e-05
3.6639e-05
3.6639e-05
3.65591e-05
3.63993e-05
3.61602e-05
3.58426e-05
3.54475e-05
3.49761e-05
3.44301e-05
3.3811e-05
3.3121e-05
3.23623e-05
3.15373e-05
3.06487e-05
2.96995e-05
2.86927e-05
2.76316e-05
2.65197e-05
2.53604e-05
2.41573e-05
2.29134e-05
2.1631e-05
2.03119e-05
1.89575e-05
1.75691e-05
1.61473e-05
1.4692e-05
1.32019e-05
1.16736e-05
1.01002e-05
8.46969e-06
6.7617e-06
4.94246e-06
2.95426e-06
5.57841e-09
2.08867e-11
2.09493e-11
5.59534e-09
2.96266e-06
4.95579e-06
6.77933e-06
8.49124e-06
1.01255e-05
1.17024e-05
1.32342e-05
1.47276e-05
1.61862e-05
1.76113e-05
1.90029e-05
2.03604e-05
2.16826e-05
2.2968e-05
2.4215e-05
2.5421e-05
2.6583e-05
2.76976e-05
2.87613e-05
2.97706e-05
3.07222e-05
3.1613e-05
3.24401e-05
3.32008e-05
3.38926e-05
3.45132e-05
3.50608e-05
3.55334e-05
3.59296e-05
3.62481e-05
3.64879e-05
3.66482e-05
3.67285e-05
3.67286e-05
3.66484e-05
3.64883e-05
3.62486e-05
3.59303e-05
3.55342e-05
3.50617e-05
3.45144e-05
3.38938e-05
3.32022e-05
3.24416e-05
3.16147e-05
3.0724e-05
2.97725e-05
2.87633e-05
2.76997e-05
2.65852e-05
2.54232e-05
2.42173e-05
2.29704e-05
2.1685e-05
2.03628e-05
1.90054e-05
1.76137e-05
1.61886e-05
1.47299e-05
1.32364e-05
1.17045e-05
1.01274e-05
8.49298e-06
6.78082e-06
4.95697e-06
2.96345e-06
5.59716e-09
2.09565e-11
2.09812e-11
5.60393e-09
2.96687e-06
4.96245e-06
6.7881e-06
8.50194e-06
1.0138e-05
1.17166e-05
1.32501e-05
1.47451e-05
1.62053e-05
1.76319e-05
1.9025e-05
2.0384e-05
2.17076e-05
2.29945e-05
2.42428e-05
2.54501e-05
2.66135e-05
2.77293e-05
2.87942e-05
2.98046e-05
3.07573e-05
3.16491e-05
3.24771e-05
3.32387e-05
3.39312e-05
3.45526e-05
3.51007e-05
3.55739e-05
3.59705e-05
3.62894e-05
3.65295e-05
3.669e-05
3.67704e-05
3.67705e-05
3.66902e-05
3.65299e-05
3.62899e-05
3.59712e-05
3.55747e-05
3.51017e-05
3.45537e-05
3.39325e-05
3.32401e-05
3.24787e-05
3.16508e-05
3.07591e-05
2.98066e-05
2.87963e-05
2.77315e-05
2.66157e-05
2.54524e-05
2.42451e-05
2.29969e-05
2.17101e-05
2.03865e-05
1.90275e-05
1.76344e-05
1.62077e-05
1.47475e-05
1.32523e-05
1.17188e-05
1.01399e-05
8.50369e-06
6.7896e-06
4.96364e-06
2.96767e-06
5.60576e-09
2.09885e-11
2.0995e-11
5.60765e-09
2.9687e-06
4.96534e-06
6.79191e-06
8.50659e-06
1.01434e-05
1.17228e-05
1.3257e-05
1.47528e-05
1.62136e-05
1.76409e-05
1.90347e-05
2.03943e-05
2.17186e-05
2.30061e-05
2.4255e-05
2.54629e-05
2.66269e-05
2.77433e-05
2.88087e-05
2.98196e-05
3.07728e-05
3.1665e-05
3.24935e-05
3.32554e-05
3.39483e-05
3.457e-05
3.51184e-05
3.55918e-05
3.59887e-05
3.63077e-05
3.65479e-05
3.67085e-05
3.67889e-05
3.6789e-05
3.67087e-05
3.65483e-05
3.63082e-05
3.59894e-05
3.55927e-05
3.51194e-05
3.45711e-05
3.39496e-05
3.32568e-05
3.2495e-05
3.16667e-05
3.07746e-05
2.98216e-05
2.88108e-05
2.77455e-05
2.66291e-05
2.54653e-05
2.42574e-05
2.30085e-05
2.17211e-05
2.03968e-05
1.90372e-05
1.76434e-05
1.62161e-05
1.47551e-05
1.32593e-05
1.1725e-05
1.01454e-05
8.50836e-06
6.79343e-06
4.96654e-06
2.9695e-06
5.6095e-09
2.10023e-11
2.10007e-11
5.60919e-09
2.96946e-06
4.96653e-06
6.79349e-06
8.50852e-06
1.01457e-05
1.17254e-05
1.32599e-05
1.47559e-05
1.62171e-05
1.76447e-05
1.90388e-05
2.03987e-05
2.17232e-05
2.30109e-05
2.42601e-05
2.54683e-05
2.66325e-05
2.77491e-05
2.88148e-05
2.98259e-05
3.07793e-05
3.16717e-05
3.25003e-05
3.32624e-05
3.39555e-05
3.45773e-05
3.51258e-05
3.55993e-05
3.59963e-05
3.63154e-05
3.65556e-05
3.67162e-05
3.67967e-05
3.67968e-05
3.67165e-05
3.6556e-05
3.63159e-05
3.5997e-05
3.56002e-05
3.51268e-05
3.45784e-05
3.39568e-05
3.32638e-05
3.25019e-05
3.16734e-05
3.07811e-05
2.98279e-05
2.88169e-05
2.77513e-05
2.66347e-05
2.54706e-05
2.42625e-05
2.30134e-05
2.17257e-05
2.04012e-05
1.90413e-05
1.76472e-05
1.62195e-05
1.47583e-05
1.32622e-05
1.17276e-05
1.01477e-05
8.5103e-06
6.79501e-06
4.96774e-06
2.97026e-06
5.61105e-09
2.10081e-11
2.1003e-11
5.60979e-09
2.96975e-06
4.967e-06
6.79411e-06
8.50928e-06
1.01466e-05
1.17264e-05
1.3261e-05
1.47572e-05
1.62185e-05
1.76462e-05
1.90404e-05
2.04004e-05
2.1725e-05
2.30129e-05
2.42621e-05
2.54704e-05
2.66347e-05
2.77515e-05
2.88172e-05
2.98284e-05
3.07819e-05
3.16744e-05
3.25031e-05
3.32652e-05
3.39583e-05
3.45802e-05
3.51288e-05
3.56023e-05
3.59993e-05
3.63184e-05
3.65587e-05
3.67193e-05
3.67998e-05
3.67999e-05
3.67196e-05
3.65591e-05
3.6319e-05
3.6e-05
3.56032e-05
3.51298e-05
3.45814e-05
3.39596e-05
3.32667e-05
3.25047e-05
3.16761e-05
3.07837e-05
2.98304e-05
2.88193e-05
2.77537e-05
2.6637e-05
2.54728e-05
2.42646e-05
2.30153e-05
2.17275e-05
2.04029e-05
1.90429e-05
1.76487e-05
1.62209e-05
1.47596e-05
1.32633e-05
1.17286e-05
1.01486e-05
8.51106e-06
6.79564e-06
4.96821e-06
2.97056e-06
5.61165e-09
2.10103e-11
2.10038e-11
5.61002e-09
2.96987e-06
4.96718e-06
6.79435e-06
8.50957e-06
1.01469e-05
1.17268e-05
1.32615e-05
1.47577e-05
1.6219e-05
1.76467e-05
1.9041e-05
2.0401e-05
2.17257e-05
2.30136e-05
2.42629e-05
2.54713e-05
2.66356e-05
2.77524e-05
2.88181e-05
2.98294e-05
3.07829e-05
3.16754e-05
3.25041e-05
3.32663e-05
3.39594e-05
3.45813e-05
3.51299e-05
3.56035e-05
3.60005e-05
3.63196e-05
3.65599e-05
3.67205e-05
3.6801e-05
3.68011e-05
3.67208e-05
3.65603e-05
3.63202e-05
3.60012e-05
3.56044e-05
3.5131e-05
3.45825e-05
3.39608e-05
3.32677e-05
3.25057e-05
3.16771e-05
3.07847e-05
2.98314e-05
2.88202e-05
2.77546e-05
2.66378e-05
2.54736e-05
2.42653e-05
2.30161e-05
2.17282e-05
2.04035e-05
1.90435e-05
1.76492e-05
1.62215e-05
1.47601e-05
1.32637e-05
1.1729e-05
1.01489e-05
8.51135e-06
6.79587e-06
4.96839e-06
2.97067e-06
5.61188e-09
2.10112e-11
2.10041e-11
5.6101e-09
2.96991e-06
4.96724e-06
6.79443e-06
8.50967e-06
1.0147e-05
1.17269e-05
1.32616e-05
1.47579e-05
1.62192e-05
1.76469e-05
1.90412e-05
2.04013e-05
2.1726e-05
2.30139e-05
2.42632e-05
2.54716e-05
2.66359e-05
2.77527e-05
2.88185e-05
2.98298e-05
3.07832e-05
3.16758e-05
3.25045e-05
3.32667e-05
3.39598e-05
3.45817e-05
3.51304e-05
3.56039e-05
3.60009e-05
3.63201e-05
3.65603e-05
3.6721e-05
3.68015e-05
3.68015e-05
3.67212e-05
3.65607e-05
3.63206e-05
3.60016e-05
3.56048e-05
3.51314e-05
3.45829e-05
3.39612e-05
3.32681e-05
3.25061e-05
3.16775e-05
3.07851e-05
2.98317e-05
2.88206e-05
2.77549e-05
2.66381e-05
2.54739e-05
2.42656e-05
2.30163e-05
2.17285e-05
2.04038e-05
1.90437e-05
1.76495e-05
1.62216e-05
1.47603e-05
1.32639e-05
1.17291e-05
1.0149e-05
8.51146e-06
6.79596e-06
4.96845e-06
2.97071e-06
5.61197e-09
2.10115e-11
2.10042e-11
5.61013e-09
2.96992e-06
4.96727e-06
6.79446e-06
8.50971e-06
1.01471e-05
1.1727e-05
1.32617e-05
1.47579e-05
1.62193e-05
1.7647e-05
1.90413e-05
2.04013e-05
2.17261e-05
2.3014e-05
2.42633e-05
2.54717e-05
2.6636e-05
2.77528e-05
2.88186e-05
2.98299e-05
3.07834e-05
3.16759e-05
3.25046e-05
3.32668e-05
3.396e-05
3.45819e-05
3.51305e-05
3.56041e-05
3.60011e-05
3.63202e-05
3.65605e-05
3.67211e-05
3.68016e-05
3.68017e-05
3.67214e-05
3.65609e-05
3.63208e-05
3.60018e-05
3.56049e-05
3.51315e-05
3.45831e-05
3.39613e-05
3.32683e-05
3.25062e-05
3.16776e-05
3.07852e-05
2.98319e-05
2.88207e-05
2.7755e-05
2.66383e-05
2.5474e-05
2.42657e-05
2.30164e-05
2.17286e-05
2.04039e-05
1.90438e-05
1.76495e-05
1.62217e-05
1.47603e-05
1.3264e-05
1.17292e-05
1.01491e-05
8.51149e-06
6.79599e-06
4.96848e-06
2.97073e-06
5.61199e-09
2.10116e-11
2.10042e-11
5.61014e-09
2.96993e-06
4.96727e-06
6.79447e-06
8.50972e-06
1.01471e-05
1.1727e-05
1.32617e-05
1.47579e-05
1.62193e-05
1.7647e-05
1.90413e-05
2.04014e-05
2.17261e-05
2.3014e-05
2.42633e-05
2.54717e-05
2.6636e-05
2.77529e-05
2.88186e-05
2.98299e-05
3.07834e-05
3.1676e-05
3.25047e-05
3.32669e-05
3.396e-05
3.45819e-05
3.51306e-05
3.56041e-05
3.60011e-05
3.63203e-05
3.65605e-05
3.67212e-05
3.68017e-05
3.68018e-05
3.67214e-05
3.65609e-05
3.63208e-05
3.60018e-05
3.5605e-05
3.51316e-05
3.45831e-05
3.39614e-05
3.32683e-05
3.25063e-05
3.16777e-05
3.07853e-05
2.98319e-05
2.88207e-05
2.7755e-05
2.66383e-05
2.5474e-05
2.42658e-05
2.30165e-05
2.17286e-05
2.04039e-05
1.90438e-05
1.76495e-05
1.62217e-05
1.47603e-05
1.3264e-05
1.17292e-05
1.01491e-05
8.5115e-06
6.796e-06
4.96848e-06
2.97073e-06
5.612e-09
2.10116e-11
2.10043e-11
5.61014e-09
2.96993e-06
4.96728e-06
6.79447e-06
8.50972e-06
1.01471e-05
1.1727e-05
1.32617e-05
1.47579e-05
1.62193e-05
1.76471e-05
1.90413e-05
2.04014e-05
2.17261e-05
2.3014e-05
2.42633e-05
2.54717e-05
2.6636e-05
2.77529e-05
2.88187e-05
2.98299e-05
3.07834e-05
3.1676e-05
3.25047e-05
3.32669e-05
3.39601e-05
3.4582e-05
3.51306e-05
3.56041e-05
3.60011e-05
3.63203e-05
3.65606e-05
3.67212e-05
3.68017e-05
3.68018e-05
3.67214e-05
3.6561e-05
3.63208e-05
3.60018e-05
3.5605e-05
3.51316e-05
3.45831e-05
3.39614e-05
3.32683e-05
3.25063e-05
3.16777e-05
3.07853e-05
2.98319e-05
2.88207e-05
2.7755e-05
2.66383e-05
2.54741e-05
2.42658e-05
2.30165e-05
2.17286e-05
2.04039e-05
1.90438e-05
1.76496e-05
1.62217e-05
1.47603e-05
1.3264e-05
1.17292e-05
1.01491e-05
8.51151e-06
6.796e-06
4.96849e-06
2.97074e-06
5.61201e-09
2.10116e-11
2.10043e-11
5.61015e-09
2.96993e-06
4.96728e-06
6.79448e-06
8.50972e-06
1.01471e-05
1.1727e-05
1.32617e-05
1.47579e-05
1.62193e-05
1.76471e-05
1.90413e-05
2.04014e-05
2.17261e-05
2.3014e-05
2.42634e-05
2.54717e-05
2.6636e-05
2.77529e-05
2.88187e-05
2.98299e-05
3.07834e-05
3.1676e-05
3.25047e-05
3.32669e-05
3.39601e-05
3.4582e-05
3.51306e-05
3.56042e-05
3.60011e-05
3.63203e-05
3.65606e-05
3.67212e-05
3.68017e-05
3.68018e-05
3.67214e-05
3.6561e-05
3.63208e-05
3.60019e-05
3.5605e-05
3.51316e-05
3.45831e-05
3.39614e-05
3.32684e-05
3.25063e-05
3.16777e-05
3.07853e-05
2.98319e-05
2.88207e-05
2.77551e-05
2.66383e-05
2.54741e-05
2.42658e-05
2.30165e-05
2.17286e-05
2.04039e-05
1.90438e-05
1.76496e-05
1.62217e-05
1.47603e-05
1.3264e-05
1.17292e-05
1.01491e-05
8.51151e-06
6.796e-06
4.96849e-06
2.97074e-06
5.61201e-09
2.10116e-11
2.10043e-11
5.61015e-09
2.96993e-06
4.96728e-06
6.79448e-06
8.50972e-06
1.01471e-05
1.1727e-05
1.32617e-05
1.47579e-05
1.62193e-05
1.76471e-05
1.90413e-05
2.04014e-05
2.17261e-05
2.3014e-05
2.42634e-05
2.54717e-05
2.6636e-05
2.77529e-05
2.88187e-05
2.98299e-05
3.07834e-05
3.1676e-05
3.25047e-05
3.32669e-05
3.39601e-05
3.4582e-05
3.51306e-05
3.56042e-05
3.60011e-05
3.63203e-05
3.65606e-05
3.67212e-05
3.68017e-05
3.68018e-05
3.67214e-05
3.6561e-05
3.63208e-05
3.60019e-05
3.5605e-05
3.51316e-05
3.45831e-05
3.39614e-05
3.32684e-05
3.25063e-05
3.16777e-05
3.07853e-05
2.98319e-05
2.88207e-05
2.77551e-05
2.66383e-05
2.54741e-05
2.42658e-05
2.30165e-05
2.17286e-05
2.04039e-05
1.90438e-05
1.76496e-05
1.62217e-05
1.47603e-05
1.3264e-05
1.17292e-05
1.01491e-05
8.51151e-06
6.796e-06
4.96849e-06
2.97074e-06
5.61201e-09
2.10116e-11
2.10043e-11
5.61015e-09
2.96993e-06
4.96728e-06
6.79448e-06
8.50972e-06
1.01471e-05
1.1727e-05
1.32617e-05
1.47579e-05
1.62193e-05
1.76471e-05
1.90413e-05
2.04014e-05
2.17261e-05
2.3014e-05
2.42634e-05
2.54717e-05
2.6636e-05
2.77529e-05
2.88187e-05
2.98299e-05
3.07834e-05
3.1676e-05
3.25047e-05
3.32669e-05
3.39601e-05
3.4582e-05
3.51306e-05
3.56042e-05
3.60011e-05
3.63203e-05
3.65606e-05
3.67212e-05
3.68017e-05
3.68018e-05
3.67214e-05
3.6561e-05
3.63208e-05
3.60019e-05
3.5605e-05
3.51316e-05
3.45831e-05
3.39614e-05
3.32684e-05
3.25063e-05
3.16777e-05
3.07853e-05
2.98319e-05
2.88207e-05
2.77551e-05
2.66383e-05
2.54741e-05
2.42658e-05
2.30165e-05
2.17286e-05
2.04039e-05
1.90438e-05
1.76496e-05
1.62217e-05
1.47603e-05
1.3264e-05
1.17292e-05
1.01491e-05
8.51151e-06
6.796e-06
4.96849e-06
2.97074e-06
5.61201e-09
2.10116e-11
2.10043e-11
5.61015e-09
2.96993e-06
4.96728e-06
6.79448e-06
8.50972e-06
1.01471e-05
1.1727e-05
1.32617e-05
1.47579e-05
1.62193e-05
1.76471e-05
1.90413e-05
2.04014e-05
2.17261e-05
2.3014e-05
2.42634e-05
2.54717e-05
2.6636e-05
2.77529e-05
2.88187e-05
2.98299e-05
3.07834e-05
3.1676e-05
3.25047e-05
3.32669e-05
3.39601e-05
3.4582e-05
3.51306e-05
3.56042e-05
3.60011e-05
3.63203e-05
3.65606e-05
3.67212e-05
3.68017e-05
3.68018e-05
3.67214e-05
3.6561e-05
3.63208e-05
3.60019e-05
3.5605e-05
3.51316e-05
3.45831e-05
3.39614e-05
3.32684e-05
3.25063e-05
3.16777e-05
3.07853e-05
2.98319e-05
2.88207e-05
2.77551e-05
2.66383e-05
2.54741e-05
2.42658e-05
2.30165e-05
2.17286e-05
2.04039e-05
1.90438e-05
1.76496e-05
1.62217e-05
1.47603e-05
1.3264e-05
1.17292e-05
1.01491e-05
8.51151e-06
6.796e-06
4.96849e-06
2.97074e-06
5.61201e-09
2.10116e-11
2.10043e-11
5.61015e-09
2.96993e-06
4.96728e-06
6.79448e-06
8.50972e-06
1.01471e-05
1.1727e-05
1.32617e-05
1.47579e-05
1.62193e-05
1.76471e-05
1.90413e-05
2.04014e-05
2.17261e-05
2.3014e-05
2.42634e-05
2.54717e-05
2.6636e-05
2.77529e-05
2.88187e-05
2.98299e-05
3.07834e-05
3.1676e-05
3.25047e-05
3.32669e-05
3.39601e-05
3.4582e-05
3.51306e-05
3.56042e-05
3.60011e-05
3.63203e-05
3.65606e-05
3.67212e-05
3.68017e-05
3.68018e-05
3.67214e-05
3.6561e-05
3.63208e-05
3.60019e-05
3.5605e-05
3.51316e-05
3.45831e-05
3.39614e-05
3.32684e-05
3.25063e-05
3.16777e-05
3.07853e-05
2.98319e-05
2.88207e-05
2.77551e-05
2.66383e-05
2.54741e-05
2.42658e-05
2.30165e-05
2.17286e-05
2.04039e-05
1.90438e-05
1.76496e-05
1.62217e-05
1.47603e-05
1.3264e-05
1.17292e-05
1.01491e-05
8.51151e-06
6.796e-06
4.96849e-06
2.97074e-06
5.61201e-09
2.10116e-11
2.10043e-11
5.61015e-09
2.96993e-06
4.96728e-06
6.79448e-06
8.50972e-06
1.01471e-05
1.1727e-05
1.32617e-05
1.47579e-05
1.62193e-05
1.76471e-05
1.90413e-05
2.04014e-05
2.17261e-05
2.3014e-05
2.42634e-05
2.54717e-05
2.6636e-05
2.77529e-05
2.88187e-05
2.98299e-05
3.07834e-05
3.1676e-05
3.25047e-05
3.32669e-05
3.39601e-05
3.4582e-05
3.51306e-05
3.56042e-05
3.60011e-05
3.63203e-05
3.65606e-05
3.67212e-05
3.68017e-05
3.68018e-05
3.67214e-05
3.6561e-05
3.63208e-05
3.60019e-05
3.5605e-05
3.51316e-05
3.45831e-05
3.39614e-05
3.32684e-05
3.25063e-05
3.16777e-05
3.07853e-05
2.98319e-05
2.88207e-05
2.77551e-05
2.66383e-05
2.54741e-05
2.42658e-05
2.30165e-05
2.17286e-05
2.04039e-05
1.90438e-05
1.76496e-05
1.62217e-05
1.47603e-05
1.3264e-05
1.17292e-05
1.01491e-05
8.51151e-06
6.796e-06
4.96849e-06
2.97074e-06
5.61201e-09
2.10116e-11
2.10043e-11
5.61015e-09
2.96993e-06
4.96728e-06
6.79448e-06
8.50972e-06
1.01471e-05
1.1727e-05
1.32617e-05
1.47579e-05
1.62193e-05
1.76471e-05
1.90413e-05
2.04014e-05
2.17261e-05
2.3014e-05
2.42634e-05
2.54717e-05
2.6636e-05
2.77529e-05
2.88187e-05
2.98299e-05
3.07834e-05
3.1676e-05
3.25047e-05
3.32669e-05
3.39601e-05
3.4582e-05
3.51306e-05
3.56042e-05
3.60011e-05
3.63203e-05
3.65606e-05
3.67212e-05
3.68017e-05
3.68018e-05
3.67214e-05
3.6561e-05
3.63208e-05
3.60019e-05
3.5605e-05
3.51316e-05
3.45831e-05
3.39614e-05
3.32684e-05
3.25063e-05
3.16777e-05
3.07853e-05
2.98319e-05
2.88207e-05
2.77551e-05
2.66383e-05
2.54741e-05
2.42658e-05
2.30165e-05
2.17286e-05
2.04039e-05
1.90438e-05
1.76496e-05
1.62217e-05
1.47603e-05
1.3264e-05
1.17292e-05
1.01491e-05
8.51151e-06
6.796e-06
4.96849e-06
2.97074e-06
5.61201e-09
2.10116e-11
2.10043e-11
5.61015e-09
2.96993e-06
4.96728e-06
6.79448e-06
8.50972e-06
1.01471e-05
1.1727e-05
1.32617e-05
1.47579e-05
1.62193e-05
1.76471e-05
1.90413e-05
2.04014e-05
2.17261e-05
2.3014e-05
2.42634e-05
2.54717e-05
2.6636e-05
2.77529e-05
2.88187e-05
2.98299e-05
3.07834e-05
3.1676e-05
3.25047e-05
3.32669e-05
3.39601e-05
3.4582e-05
3.51306e-05
3.56042e-05
3.60011e-05
3.63203e-05
3.65606e-05
3.67212e-05
3.68017e-05
3.68018e-05
3.67214e-05
3.6561e-05
3.63208e-05
3.60019e-05
3.5605e-05
3.51316e-05
3.45831e-05
3.39614e-05
3.32684e-05
3.25063e-05
3.16777e-05
3.07853e-05
2.98319e-05
2.88207e-05
2.77551e-05
2.66383e-05
2.54741e-05
2.42658e-05
2.30165e-05
2.17286e-05
2.04039e-05
1.90438e-05
1.76496e-05
1.62217e-05
1.47603e-05
1.3264e-05
1.17292e-05
1.01491e-05
8.51151e-06
6.796e-06
4.96849e-06
2.97074e-06
5.61201e-09
2.10116e-11
2.10043e-11
5.61015e-09
2.96993e-06
4.96728e-06
6.79448e-06
8.50972e-06
1.01471e-05
1.1727e-05
1.32617e-05
1.47579e-05
1.62193e-05
1.76471e-05
1.90413e-05
2.04014e-05
2.17261e-05
2.3014e-05
2.42634e-05
2.54717e-05
2.6636e-05
2.77529e-05
2.88187e-05
2.98299e-05
3.07834e-05
3.1676e-05
3.25047e-05
3.32669e-05
3.39601e-05
3.4582e-05
3.51306e-05
3.56042e-05
3.60011e-05
3.63203e-05
3.65606e-05
3.67212e-05
3.68017e-05
3.68018e-05
3.67214e-05
3.6561e-05
3.63208e-05
3.60019e-05
3.5605e-05
3.51316e-05
3.45831e-05
3.39614e-05
3.32684e-05
3.25063e-05
3.16777e-05
3.07853e-05
2.98319e-05
2.88207e-05
2.77551e-05
2.66383e-05
2.54741e-05
2.42658e-05
2.30165e-05
2.17286e-05
2.04039e-05
1.90438e-05
1.76496e-05
1.62217e-05
1.47603e-05
1.3264e-05
1.17292e-05
1.01491e-05
8.51151e-06
6.796e-06
4.96849e-06
2.97074e-06
5.61201e-09
2.10116e-11
2.10043e-11
5.61015e-09
2.96993e-06
4.96728e-06
6.79448e-06
8.50972e-06
1.01471e-05
1.1727e-05
1.32617e-05
1.47579e-05
1.62193e-05
1.76471e-05
1.90413e-05
2.04014e-05
2.17261e-05
2.3014e-05
2.42634e-05
2.54717e-05
2.6636e-05
2.77529e-05
2.88187e-05
2.98299e-05
3.07834e-05
3.1676e-05
3.25047e-05
3.32669e-05
3.39601e-05
3.4582e-05
3.51306e-05
3.56042e-05
3.60011e-05
3.63203e-05
3.65606e-05
3.67212e-05
3.68017e-05
3.68018e-05
3.67214e-05
3.6561e-05
3.63208e-05
3.60019e-05
3.5605e-05
3.51316e-05
3.45831e-05
3.39614e-05
3.32684e-05
3.25063e-05
3.16777e-05
3.07853e-05
2.98319e-05
2.88207e-05
2.77551e-05
2.66383e-05
2.54741e-05
2.42658e-05
2.30165e-05
2.17286e-05
2.04039e-05
1.90438e-05
1.76496e-05
1.62217e-05
1.47603e-05
1.3264e-05
1.17292e-05
1.01491e-05
8.51151e-06
6.796e-06
4.96849e-06
2.97074e-06
5.61201e-09
2.10116e-11
2.10043e-11
5.61015e-09
2.96993e-06
4.96728e-06
6.79448e-06
8.50972e-06
1.01471e-05
1.1727e-05
1.32617e-05
1.47579e-05
1.62193e-05
1.76471e-05
1.90413e-05
2.04014e-05
2.17261e-05
2.3014e-05
2.42634e-05
2.54717e-05
2.6636e-05
2.77529e-05
2.88187e-05
2.98299e-05
3.07834e-05
3.1676e-05
3.25047e-05
3.32669e-05
3.39601e-05
3.4582e-05
3.51306e-05
3.56042e-05
3.60011e-05
3.63203e-05
3.65606e-05
3.67212e-05
3.68017e-05
3.68018e-05
3.67214e-05
3.6561e-05
3.63208e-05
3.60019e-05
3.5605e-05
3.51316e-05
3.45831e-05
3.39614e-05
3.32684e-05
3.25063e-05
3.16777e-05
3.07853e-05
2.98319e-05
2.88207e-05
2.77551e-05
2.66383e-05
2.54741e-05
2.42658e-05
2.30165e-05
2.17286e-05
2.04039e-05
1.90438e-05
1.76496e-05
1.62217e-05
1.47603e-05
1.3264e-05
1.17292e-05
1.01491e-05
8.51151e-06
6.796e-06
4.96849e-06
2.97074e-06
5.61201e-09
2.10116e-11
2.10043e-11
5.61015e-09
2.96993e-06
4.96728e-06
6.79448e-06
8.50972e-06
1.01471e-05
1.1727e-05
1.32617e-05
1.47579e-05
1.62193e-05
1.76471e-05
1.90413e-05
2.04014e-05
2.17261e-05
2.3014e-05
2.42634e-05
2.54717e-05
2.6636e-05
2.77529e-05
2.88187e-05
2.98299e-05
3.07834e-05
3.1676e-05
3.25047e-05
3.32669e-05
3.39601e-05
3.4582e-05
3.51306e-05
3.56042e-05
3.60011e-05
3.63203e-05
3.65606e-05
3.67212e-05
3.68017e-05
3.68018e-05
3.67214e-05
3.6561e-05
3.63208e-05
3.60019e-05
3.5605e-05
3.51316e-05
3.45831e-05
3.39614e-05
3.32684e-05
3.25063e-05
3.16777e-05
3.07853e-05
2.98319e-05
2.88207e-05
2.77551e-05
2.66383e-05
2.54741e-05
2.42658e-05
2.30165e-05
2.17286e-05
2.04039e-05
1.90438e-05
1.76496e-05
1.62217e-05
1.47603e-05
1.3264e-05
1.17292e-05
1.01491e-05
8.51151e-06
6.796e-06
4.96849e-06
2.97074e-06
5.61201e-09
2.10116e-11
2.10043e-11
5.61015e-09
2.96993e-06
4.96728e-06
6.79448e-06
8.50972e-06
1.01471e-05
1.1727e-05
1.32617e-05
1.47579e-05
1.62193e-05
1.76471e-05
1.90413e-05
2.04014e-05
2.17261e-05
2.3014e-05
2.42634e-05
2.54717e-05
2.6636e-05