/*--------------------------------*- C++ -*----------------------------------*\
  =========                 |
  \\      /  F ield         | OpenFOAM: The Open Source CFD Toolbox
   \\    /   O peration     | Website:  https://openfoam.org
    \\  /    A nd           | Version:  13
     \\/     M anipulation  |
\*---------------------------------------------------------------------------*/
FoamFile
{
    format      ascii;
    class       volScalarField;
    location    "57.5";
    object      nut;
}
// * * * * * * * * * * * * * * * * * * * * * * * * * * * * * * * * * * * * * //

dimensions      [0 2 -1 0 0 0 0];

internalField   nonuniform List<scalar> 
315000
(
1.00037e-13
2.61815e-11
5.96879e-10
1.06927e-09
1.54628e-09
2.02792e-09
2.51451e-09
3.00632e-09
3.50331e-09
4.00509e-09
4.5109e-09
5.01961e-09
5.52977e-09
6.03968e-09
6.54742e-09
7.05088e-09
7.54788e-09
8.03612e-09
8.51328e-09
8.97701e-09
9.42499e-09
9.85493e-09
1.02646e-08
1.06518e-08
1.10146e-08
1.1351e-08
1.16592e-08
1.19374e-08
1.21844e-08
1.23986e-08
1.2579e-08
1.27245e-08
1.28344e-08
1.29081e-08
1.29451e-08
1.29454e-08
1.29088e-08
1.28356e-08
1.27262e-08
1.25812e-08
1.24013e-08
1.21876e-08
1.19411e-08
1.16633e-08
1.13556e-08
1.10197e-08
1.06574e-08
1.02706e-08
9.86132e-09
9.43177e-09
8.98415e-09
8.52074e-09
8.04388e-09
7.55588e-09
7.05909e-09
6.55578e-09
6.04815e-09
5.53829e-09
5.02811e-09
4.51932e-09
4.01335e-09
3.51132e-09
3.014e-09
2.52175e-09
2.03459e-09
1.5522e-09
1.07415e-09
6.00244e-10
2.6369e-11
1.00843e-13
2.50509e-12
6.6666e-10
1.50923e-07
2.70969e-07
3.90542e-07
5.09973e-07
6.29503e-07
7.49266e-07
8.69284e-07
9.8947e-07
1.10964e-06
1.22953e-06
1.34881e-06
1.46709e-06
1.58395e-06
1.69894e-06
1.8116e-06
1.92148e-06
2.02811e-06
2.13104e-06
2.22983e-06
2.32406e-06
2.41333e-06
2.49725e-06
2.57547e-06
2.64766e-06
2.7135e-06
2.77274e-06
2.82512e-06
2.87042e-06
2.90847e-06
2.9391e-06
2.96218e-06
2.97764e-06
2.9854e-06
2.98544e-06
2.97775e-06
2.96237e-06
2.93936e-06
2.90881e-06
2.87084e-06
2.82561e-06
2.77331e-06
2.71415e-06
2.64838e-06
2.57626e-06
2.49812e-06
2.41427e-06
2.32507e-06
2.23091e-06
2.13218e-06
2.0293e-06
1.92273e-06
1.81289e-06
1.70027e-06
1.5853e-06
1.46847e-06
1.3502e-06
1.23092e-06
1.11101e-06
9.90802e-07
8.70566e-07
7.50479e-07
6.30624e-07
5.10975e-07
3.91393e-07
2.71629e-07
1.51337e-07
6.68719e-10
2.5132e-12
1.01623e-11
2.70848e-09
1.49646e-06
2.58371e-06
3.60824e-06
4.58618e-06
5.52819e-06
6.44125e-06
7.32972e-06
8.19609e-06
9.04147e-06
9.86605e-06
1.06694e-05
1.14505e-05
1.22083e-05
1.29414e-05
1.36484e-05
1.43279e-05
1.49785e-05
1.55987e-05
1.61872e-05
1.67426e-05
1.72638e-05
1.77495e-05
1.81986e-05
1.86102e-05
1.89833e-05
1.9317e-05
1.96107e-05
1.98636e-05
2.00752e-05
2.02451e-05
2.03729e-05
2.04582e-05
2.0501e-05
2.05012e-05
2.04586e-05
2.03735e-05
2.02461e-05
2.00765e-05
1.98651e-05
1.96125e-05
1.93191e-05
1.89857e-05
1.86129e-05
1.82016e-05
1.77528e-05
1.72673e-05
1.67465e-05
1.61913e-05
1.56031e-05
1.49832e-05
1.43329e-05
1.36537e-05
1.29468e-05
1.22139e-05
1.14563e-05
1.06753e-05
9.87205e-06
9.04749e-06
8.20206e-06
7.33557e-06
6.44687e-06
5.53348e-06
4.59101e-06
3.61244e-06
2.58705e-06
1.49865e-06
2.71297e-09
1.01797e-11
1.73944e-11
4.63756e-09
2.4852e-06
4.18917e-06
5.75168e-06
7.21439e-06
8.60274e-06
9.93268e-06
1.12142e-05
1.24532e-05
1.36531e-05
1.48158e-05
1.59416e-05
1.70304e-05
1.80816e-05
1.90943e-05
2.00673e-05
2.09994e-05
2.18894e-05
2.27359e-05
2.35377e-05
2.42932e-05
2.50012e-05
2.56602e-05
2.62691e-05
2.68266e-05
2.73315e-05
2.77828e-05
2.81797e-05
2.85213e-05
2.8807e-05
2.90362e-05
2.92086e-05
2.93237e-05
2.93813e-05
2.93814e-05
2.9324e-05
2.92091e-05
2.90369e-05
2.88079e-05
2.85224e-05
2.8181e-05
2.77844e-05
2.73332e-05
2.68286e-05
2.62714e-05
2.56627e-05
2.50039e-05
2.42962e-05
2.35409e-05
2.27394e-05
2.18931e-05
2.10034e-05
2.00715e-05
1.90987e-05
1.80862e-05
1.70351e-05
1.59464e-05
1.48207e-05
1.36581e-05
1.24581e-05
1.1219e-05
9.93741e-06
8.60722e-06
7.2185e-06
5.7553e-06
4.19211e-06
2.4872e-06
4.64194e-09
1.74115e-11
2.39139e-11
6.37812e-09
3.334e-06
5.52403e-06
7.50003e-06
9.3309e-06
1.10564e-05
1.27005e-05
1.42781e-05
1.57982e-05
1.72661e-05
1.86847e-05
2.00557e-05
2.13795e-05
2.26561e-05
2.3885e-05
2.50655e-05
2.61966e-05
2.7277e-05
2.83052e-05
2.92793e-05
3.01975e-05
3.10578e-05
3.18585e-05
3.25979e-05
3.32747e-05
3.38875e-05
3.4435e-05
3.49163e-05
3.53304e-05
3.56767e-05
3.59545e-05
3.61632e-05
3.63026e-05
3.63724e-05
3.63725e-05
3.63028e-05
3.61635e-05
3.59549e-05
3.56772e-05
3.53311e-05
3.49171e-05
3.44359e-05
3.38886e-05
3.3276e-05
3.25994e-05
3.18601e-05
3.10596e-05
3.01995e-05
2.92815e-05
2.83076e-05
2.72796e-05
2.61993e-05
2.50684e-05
2.38881e-05
2.26593e-05
2.13829e-05
2.00592e-05
1.86883e-05
1.72697e-05
1.58018e-05
1.42817e-05
1.2704e-05
1.10597e-05
9.33396e-06
7.50274e-06
5.52627e-06
3.33556e-06
6.3818e-09
2.39284e-11
2.91837e-11
7.78641e-09
3.99512e-06
6.54145e-06
8.81654e-06
1.09123e-05
1.28799e-05
1.47496e-05
1.65398e-05
1.8262e-05
1.99228e-05
2.15263e-05
2.30749e-05
2.45695e-05
2.60106e-05
2.73982e-05
2.87318e-05
3.00102e-05
3.12317e-05
3.23942e-05
3.34954e-05
3.45332e-05
3.55054e-05
3.64101e-05
3.72456e-05
3.80101e-05
3.87023e-05
3.93208e-05
3.98644e-05
4.03322e-05
4.07233e-05
4.1037e-05
4.12728e-05
4.14302e-05
4.1509e-05
4.1509e-05
4.14302e-05
4.12729e-05
4.10372e-05
4.07236e-05
4.03325e-05
3.98648e-05
3.93213e-05
3.87029e-05
3.80108e-05
3.72464e-05
3.6411e-05
3.55064e-05
3.45344e-05
3.34968e-05
3.23957e-05
3.12334e-05
3.0012e-05
2.87338e-05
2.74003e-05
2.60128e-05
2.45718e-05
2.30773e-05
2.15288e-05
1.99253e-05
1.82645e-05
1.65424e-05
1.4752e-05
1.28822e-05
1.09145e-05
8.8185e-06
6.54308e-06
3.99628e-06
7.78932e-09
2.91954e-11
3.29938e-11
8.80562e-09
4.46103e-06
7.24857e-06
9.72482e-06
1.19984e-05
1.41284e-05
1.61495e-05
1.80826e-05
1.99406e-05
2.17313e-05
2.34594e-05
2.51278e-05
2.6738e-05
2.82908e-05
2.97863e-05
3.12241e-05
3.26025e-05
3.39196e-05
3.51728e-05
3.63598e-05
3.74783e-05
3.85261e-05
3.9501e-05
4.04013e-05
4.12251e-05
4.19708e-05
4.26371e-05
4.32227e-05
4.37266e-05
4.41478e-05
4.44857e-05
4.47396e-05
4.49091e-05
4.49939e-05
4.49939e-05
4.49091e-05
4.47396e-05
4.44857e-05
4.41479e-05
4.37267e-05
4.32229e-05
4.26374e-05
4.19711e-05
4.12255e-05
4.04018e-05
3.95017e-05
3.85268e-05
3.74792e-05
3.63608e-05
3.51739e-05
3.39208e-05
3.26039e-05
3.12255e-05
2.97879e-05
2.82925e-05
2.67398e-05
2.51297e-05
2.34613e-05
2.17332e-05
1.99425e-05
1.80845e-05
1.61514e-05
1.41302e-05
1.20001e-05
9.72633e-06
7.24984e-06
4.46194e-06
8.80804e-09
3.30037e-11
3.54788e-11
9.47103e-09
4.76008e-06
7.69869e-06
1.03006e-05
1.26851e-05
1.49166e-05
1.70323e-05
1.90548e-05
2.09979e-05
2.287e-05
2.46764e-05
2.64201e-05
2.81029e-05
2.97259e-05
3.12894e-05
3.27925e-05
3.42337e-05
3.56105e-05
3.69203e-05
3.81609e-05
3.93296e-05
4.04242e-05
4.14426e-05
4.23829e-05
4.32431e-05
4.40217e-05
4.47173e-05
4.53286e-05
4.58544e-05
4.6294e-05
4.66465e-05
4.69114e-05
4.70882e-05
4.71767e-05
4.71767e-05
4.70883e-05
4.69115e-05
4.66466e-05
4.62941e-05
4.58546e-05
4.53288e-05
4.47176e-05
4.40221e-05
4.32436e-05
4.23834e-05
4.14433e-05
4.04249e-05
3.93304e-05
3.81618e-05
3.69214e-05
3.56116e-05
3.4235e-05
3.27939e-05
3.12908e-05
2.97275e-05
2.81045e-05
2.64217e-05
2.46781e-05
2.28718e-05
2.09997e-05
1.90566e-05
1.7034e-05
1.49182e-05
1.26866e-05
1.03019e-05
7.69982e-06
4.7609e-06
9.47326e-09
3.54879e-11
3.69549e-11
9.86668e-09
4.93616e-06
7.9625e-06
1.06373e-05
1.30863e-05
1.53768e-05
1.75477e-05
1.96223e-05
2.16151e-05
2.35348e-05
2.53868e-05
2.71746e-05
2.89e-05
3.05641e-05
3.21673e-05
3.37087e-05
3.51864e-05
3.65979e-05
3.79406e-05
3.9212e-05
4.04096e-05
4.15312e-05
4.25744e-05
4.35374e-05
4.44183e-05
4.52154e-05
4.59274e-05
4.65529e-05
4.7091e-05
4.75406e-05
4.79012e-05
4.81722e-05
4.8353e-05
4.84435e-05
4.84435e-05
4.83531e-05
4.81723e-05
4.79014e-05
4.75409e-05
4.70912e-05
4.65533e-05
4.59278e-05
4.52159e-05
4.44189e-05
4.35381e-05
4.25752e-05
4.15321e-05
4.04106e-05
3.92131e-05
3.79418e-05
3.65992e-05
3.51878e-05
3.37102e-05
3.21689e-05
3.05658e-05
2.89017e-05
2.71763e-05
2.53886e-05
2.35366e-05
2.16169e-05
1.96241e-05
1.75494e-05
1.53785e-05
1.30879e-05
1.06387e-05
7.96364e-06
4.93698e-06
9.86893e-09
3.6964e-11
3.77591e-11
1.00825e-08
5.03173e-06
8.10539e-06
1.08195e-05
1.33034e-05
1.56259e-05
1.78267e-05
1.99297e-05
2.19495e-05
2.38951e-05
2.57721e-05
2.75839e-05
2.93326e-05
3.10192e-05
3.26441e-05
3.42064e-05
3.5704e-05
3.71343e-05
3.84948e-05
3.97829e-05
4.09961e-05
4.2132e-05
4.31885e-05
4.41635e-05
4.50553e-05
4.58621e-05
4.65825e-05
4.72155e-05
4.77598e-05
4.82146e-05
4.85793e-05
4.88533e-05
4.90361e-05
4.91276e-05
4.91277e-05
4.90362e-05
4.88534e-05
4.85795e-05
4.82149e-05
4.77602e-05
4.72159e-05
4.65831e-05
4.58627e-05
4.5056e-05
4.41644e-05
4.31895e-05
4.21331e-05
4.09973e-05
3.97842e-05
3.84962e-05
3.71358e-05
3.57055e-05
3.42081e-05
3.26459e-05
3.1021e-05
2.93344e-05
2.75858e-05
2.57741e-05
2.38971e-05
2.19514e-05
1.99316e-05
1.78286e-05
1.56277e-05
1.33051e-05
1.0821e-05
8.10659e-06
5.0326e-06
1.00849e-08
3.77687e-11
3.8163e-11
1.0191e-08
5.07969e-06
8.17705e-06
1.09109e-05
1.34124e-05
1.5751e-05
1.79669e-05
2.00842e-05
2.21178e-05
2.40766e-05
2.59663e-05
2.77904e-05
2.95509e-05
3.12491e-05
3.28851e-05
3.4458e-05
3.59657e-05
3.74057e-05
3.87752e-05
4.00718e-05
4.12929e-05
4.24361e-05
4.34992e-05
4.44802e-05
4.53773e-05
4.61889e-05
4.69136e-05
4.75501e-05
4.80974e-05
4.85547e-05
4.89214e-05
4.91968e-05
4.93806e-05
4.94726e-05
4.94727e-05
4.93807e-05
4.9197e-05
4.89217e-05
4.85551e-05
4.80979e-05
4.75506e-05
4.69142e-05
4.61897e-05
4.53782e-05
4.44812e-05
4.35003e-05
4.24373e-05
4.12942e-05
4.00733e-05
3.87768e-05
3.74073e-05
3.59675e-05
3.44599e-05
3.2887e-05
3.1251e-05
2.9553e-05
2.77925e-05
2.59684e-05
2.40787e-05
2.21199e-05
2.00863e-05
1.79689e-05
1.57529e-05
1.34141e-05
1.09125e-05
8.17834e-06
5.08062e-06
1.01935e-08
3.81731e-11
3.83513e-11
1.02416e-08
5.10207e-06
8.21049e-06
1.09536e-05
1.34633e-05
1.58095e-05
1.80325e-05
2.01566e-05
2.21967e-05
2.41618e-05
2.60576e-05
2.78875e-05
2.96537e-05
3.13573e-05
3.29987e-05
3.45767e-05
3.60892e-05
3.75337e-05
3.89076e-05
4.02082e-05
4.14329e-05
4.25796e-05
4.36458e-05
4.46296e-05
4.55292e-05
4.6343e-05
4.70696e-05
4.77077e-05
4.82564e-05
4.87149e-05
4.90824e-05
4.93585e-05
4.95427e-05
4.96349e-05
4.9635e-05
4.95429e-05
4.93587e-05
4.90827e-05
4.87153e-05
4.8257e-05
4.77084e-05
4.70703e-05
4.63439e-05
4.55302e-05
4.46307e-05
4.3647e-05
4.25809e-05
4.14344e-05
4.02097e-05
3.89093e-05
3.75355e-05
3.60911e-05
3.45786e-05
3.30007e-05
3.13594e-05
2.96558e-05
2.78897e-05
2.60598e-05
2.4164e-05
2.21989e-05
2.01588e-05
1.80346e-05
1.58115e-05
1.34651e-05
1.09552e-05
8.21184e-06
5.10304e-06
1.02442e-08
3.83617e-11
3.8433e-11
1.02636e-08
5.1118e-06
8.22504e-06
1.09722e-05
1.34855e-05
1.5835e-05
1.80612e-05
2.01883e-05
2.22312e-05
2.41991e-05
2.60975e-05
2.79301e-05
2.96988e-05
3.14049e-05
3.30486e-05
3.46288e-05
3.61435e-05
3.75901e-05
3.89659e-05
4.02683e-05
4.14947e-05
4.26428e-05
4.37105e-05
4.46955e-05
4.55963e-05
4.64111e-05
4.71385e-05
4.77774e-05
4.83267e-05
4.87856e-05
4.91536e-05
4.94299e-05
4.96144e-05
4.97067e-05
4.97068e-05
4.96145e-05
4.94302e-05
4.91539e-05
4.87861e-05
4.83273e-05
4.77781e-05
4.71393e-05
4.6412e-05
4.55973e-05
4.46967e-05
4.37117e-05
4.26442e-05
4.14962e-05
4.02699e-05
3.89676e-05
3.7592e-05
3.61455e-05
3.46309e-05
3.30507e-05
3.1407e-05
2.9701e-05
2.79323e-05
2.60998e-05
2.42014e-05
2.22335e-05
2.01905e-05
1.80633e-05
1.5837e-05
1.34874e-05
1.09739e-05
8.22643e-06
5.1128e-06
1.02663e-08
3.84437e-11
3.84663e-11
1.02726e-08
5.11578e-06
8.23099e-06
1.09798e-05
1.34946e-05
1.58454e-05
1.80729e-05
2.02013e-05
2.22454e-05
2.42144e-05
2.6114e-05
2.79476e-05
2.97174e-05
3.14245e-05
3.30692e-05
3.46504e-05
3.61661e-05
3.76135e-05
3.89901e-05
4.02932e-05
4.15203e-05
4.26691e-05
4.37373e-05
4.47229e-05
4.56241e-05
4.64392e-05
4.7167e-05
4.78062e-05
4.83558e-05
4.88149e-05
4.9183e-05
4.94594e-05
4.9644e-05
4.97363e-05
4.97364e-05
4.96441e-05
4.94597e-05
4.91833e-05
4.88154e-05
4.83564e-05
4.78069e-05
4.71679e-05
4.64402e-05
4.56251e-05
4.47241e-05
4.37386e-05
4.26705e-05
4.15219e-05
4.02949e-05
3.89919e-05
3.76154e-05
3.6168e-05
3.46525e-05
3.30714e-05
3.14267e-05
2.97197e-05
2.795e-05
2.61164e-05
2.42168e-05
2.22477e-05
2.02036e-05
1.80751e-05
1.58475e-05
1.34965e-05
1.09815e-05
8.2324e-06
5.11679e-06
1.02753e-08
3.84771e-11
3.84792e-11
1.02761e-08
5.11732e-06
8.23329e-06
1.09828e-05
1.34981e-05
1.58495e-05
1.80775e-05
2.02064e-05
2.22509e-05
2.42204e-05
2.61204e-05
2.79545e-05
2.97247e-05
3.14322e-05
3.30772e-05
3.46588e-05
3.61748e-05
3.76225e-05
3.89994e-05
4.03027e-05
4.15301e-05
4.2679e-05
4.37474e-05
4.47331e-05
4.56344e-05
4.64496e-05
4.71774e-05
4.78166e-05
4.83662e-05
4.88253e-05
4.91934e-05
4.94699e-05
4.96544e-05
4.97467e-05
4.97468e-05
4.96545e-05
4.94701e-05
4.91938e-05
4.88258e-05
4.83668e-05
4.78174e-05
4.71783e-05
4.64506e-05
4.56355e-05
4.47343e-05
4.37487e-05
4.26805e-05
4.15317e-05
4.03044e-05
3.90012e-05
3.76244e-05
3.61768e-05
3.46609e-05
3.30794e-05
3.14344e-05
2.9727e-05
2.79568e-05
2.61228e-05
2.42228e-05
2.22533e-05
2.02087e-05
1.80797e-05
1.58516e-05
1.35e-05
1.09845e-05
8.23472e-06
5.11834e-06
1.02788e-08
3.84901e-11
3.84838e-11
1.02774e-08
5.11788e-06
8.23414e-06
1.09838e-05
1.34994e-05
1.5851e-05
1.80792e-05
2.02082e-05
2.2253e-05
2.42226e-05
2.61228e-05
2.7957e-05
2.97273e-05
3.1435e-05
3.30802e-05
3.46619e-05
3.6178e-05
3.76259e-05
3.90028e-05
4.03063e-05
4.15337e-05
4.26827e-05
4.37511e-05
4.47368e-05
4.56381e-05
4.64533e-05
4.71811e-05
4.78203e-05
4.83699e-05
4.8829e-05
4.9197e-05
4.94735e-05
4.9658e-05
4.97503e-05
4.97504e-05
4.96581e-05
4.94737e-05
4.91974e-05
4.88295e-05
4.83705e-05
4.78211e-05
4.7182e-05
4.64543e-05
4.56392e-05
4.4738e-05
4.37524e-05
4.26841e-05
4.15353e-05
4.0308e-05
3.90046e-05
3.76278e-05
3.618e-05
3.4664e-05
3.30824e-05
3.14373e-05
2.97297e-05
2.79594e-05
2.61252e-05
2.4225e-05
2.22553e-05
2.02105e-05
1.80814e-05
1.58531e-05
1.35013e-05
1.09856e-05
8.23557e-06
5.1189e-06
1.02801e-08
3.84948e-11
3.84855e-11
1.02778e-08
5.11807e-06
8.23443e-06
1.09842e-05
1.34998e-05
1.58515e-05
1.80798e-05
2.02089e-05
2.22537e-05
2.42234e-05
2.61236e-05
2.79579e-05
2.97283e-05
3.1436e-05
3.30813e-05
3.4663e-05
3.61792e-05
3.7627e-05
3.9004e-05
4.03075e-05
4.1535e-05
4.2684e-05
4.37524e-05
4.47381e-05
4.56395e-05
4.64547e-05
4.71825e-05
4.78217e-05
4.83712e-05
4.88303e-05
4.91984e-05
4.94748e-05
4.96593e-05
4.97516e-05
4.97517e-05
4.96595e-05
4.94751e-05
4.91988e-05
4.88308e-05
4.83718e-05
4.78224e-05
4.71834e-05
4.64557e-05
4.56406e-05
4.47394e-05
4.37537e-05
4.26855e-05
4.15366e-05
4.03092e-05
3.90059e-05
3.7629e-05
3.61812e-05
3.46652e-05
3.30835e-05
3.14383e-05
2.97306e-05
2.79603e-05
2.6126e-05
2.42258e-05
2.22561e-05
2.02112e-05
1.8082e-05
1.58536e-05
1.35018e-05
1.09859e-05
8.23586e-06
5.1191e-06
1.02805e-08
3.84964e-11
3.8486e-11
1.02779e-08
5.11813e-06
8.23452e-06
1.09843e-05
1.35e-05
1.58517e-05
1.808e-05
2.02091e-05
2.22539e-05
2.42237e-05
2.61239e-05
2.79582e-05
2.97286e-05
3.14363e-05
3.30816e-05
3.46634e-05
3.61795e-05
3.76274e-05
3.90045e-05
4.0308e-05
4.15354e-05
4.26845e-05
4.37529e-05
4.47386e-05
4.56399e-05
4.64552e-05
4.7183e-05
4.78222e-05
4.83717e-05
4.88308e-05
4.91989e-05
4.94753e-05
4.96598e-05
4.97521e-05
4.97522e-05
4.966e-05
4.94756e-05
4.91992e-05
4.88313e-05
4.83723e-05
4.78229e-05
4.71839e-05
4.64562e-05
4.5641e-05
4.47399e-05
4.37542e-05
4.26859e-05
4.1537e-05
4.03097e-05
3.90063e-05
3.76294e-05
3.61816e-05
3.46655e-05
3.30838e-05
3.14386e-05
2.97309e-05
2.79606e-05
2.61263e-05
2.42261e-05
2.22563e-05
2.02114e-05
1.80822e-05
1.58538e-05
1.35019e-05
1.09861e-05
8.23596e-06
5.11916e-06
1.02807e-08
3.84969e-11
3.84861e-11
1.0278e-08
5.11815e-06
8.23455e-06
1.09844e-05
1.35e-05
1.58517e-05
1.808e-05
2.02091e-05
2.2254e-05
2.42237e-05
2.6124e-05
2.79583e-05
2.97287e-05
3.14364e-05
3.30817e-05
3.46635e-05
3.61797e-05
3.76276e-05
3.90046e-05
4.03081e-05
4.15356e-05
4.26846e-05
4.3753e-05
4.47388e-05
4.56401e-05
4.64553e-05
4.71832e-05
4.78223e-05
4.83719e-05
4.8831e-05
4.9199e-05
4.94755e-05
4.966e-05
4.97523e-05
4.97524e-05
4.96601e-05
4.94758e-05
4.91994e-05
4.88315e-05
4.83725e-05
4.78231e-05
4.7184e-05
4.64563e-05
4.56412e-05
4.474e-05
4.37544e-05
4.26861e-05
4.15372e-05
4.03098e-05
3.90064e-05
3.76295e-05
3.61817e-05
3.46656e-05
3.30839e-05
3.14387e-05
2.9731e-05
2.79607e-05
2.61264e-05
2.42261e-05
2.22564e-05
2.02115e-05
1.80823e-05
1.58539e-05
1.3502e-05
1.09861e-05
8.23598e-06
5.11918e-06
1.02807e-08
3.84971e-11
3.84862e-11
1.0278e-08
5.11816e-06
8.23456e-06
1.09844e-05
1.35e-05
1.58518e-05
1.808e-05
2.02092e-05
2.2254e-05
2.42238e-05
2.6124e-05
2.79583e-05
2.97287e-05
3.14365e-05
3.30818e-05
3.46636e-05
3.61797e-05
3.76276e-05
3.90046e-05
4.03081e-05
4.15356e-05
4.26846e-05
4.37531e-05
4.47388e-05
4.56401e-05
4.64554e-05
4.71832e-05
4.78224e-05
4.83719e-05
4.88311e-05
4.91991e-05
4.94755e-05
4.966e-05
4.97524e-05
4.97524e-05
4.96602e-05
4.94758e-05
4.91995e-05
4.88316e-05
4.83726e-05
4.78231e-05
4.71841e-05
4.64564e-05
4.56412e-05
4.47401e-05
4.37544e-05
4.26861e-05
4.15372e-05
4.03098e-05
3.90065e-05
3.76295e-05
3.61817e-05
3.46657e-05
3.3084e-05
3.14387e-05
2.97311e-05
2.79607e-05
2.61264e-05
2.42262e-05
2.22564e-05
2.02115e-05
1.80823e-05
1.58539e-05
1.3502e-05
1.09861e-05
8.23599e-06
5.11919e-06
1.02807e-08
3.84971e-11
3.84862e-11
1.0278e-08
5.11816e-06
8.23456e-06
1.09844e-05
1.35e-05
1.58518e-05
1.808e-05
2.02092e-05
2.2254e-05
2.42238e-05
2.6124e-05
2.79583e-05
2.97287e-05
3.14365e-05
3.30818e-05
3.46636e-05
3.61797e-05
3.76276e-05
3.90046e-05
4.03082e-05
4.15356e-05
4.26847e-05
4.37531e-05
4.47388e-05
4.56402e-05
4.64554e-05
4.71832e-05
4.78224e-05
4.8372e-05
4.88311e-05
4.91991e-05
4.94755e-05
4.966e-05
4.97524e-05
4.97524e-05
4.96602e-05
4.94758e-05
4.91995e-05
4.88316e-05
4.83726e-05
4.78231e-05
4.71841e-05
4.64564e-05
4.56413e-05
4.47401e-05
4.37544e-05
4.26861e-05
4.15372e-05
4.03099e-05
3.90065e-05
3.76296e-05
3.61817e-05
3.46657e-05
3.3084e-05
3.14388e-05
2.97311e-05
2.79607e-05
2.61264e-05
2.42262e-05
2.22564e-05
2.02115e-05
1.80823e-05
1.58539e-05
1.3502e-05
1.09861e-05
8.236e-06
5.11919e-06
1.02807e-08
3.84972e-11
3.84862e-11
1.0278e-08
5.11816e-06
8.23456e-06
1.09844e-05
1.35e-05
1.58518e-05
1.808e-05
2.02092e-05
2.2254e-05
2.42238e-05
2.6124e-05
2.79583e-05
2.97287e-05
3.14365e-05
3.30818e-05
3.46636e-05
3.61797e-05
3.76276e-05
3.90047e-05
4.03082e-05
4.15356e-05
4.26847e-05
4.37531e-05
4.47388e-05
4.56402e-05
4.64554e-05
4.71832e-05
4.78224e-05
4.8372e-05
4.88311e-05
4.91991e-05
4.94755e-05
4.96601e-05
4.97524e-05
4.97524e-05
4.96602e-05
4.94758e-05
4.91995e-05
4.88316e-05
4.83726e-05
4.78232e-05
4.71841e-05
4.64564e-05
4.56413e-05
4.47401e-05
4.37544e-05
4.26861e-05
4.15372e-05
4.03099e-05
3.90065e-05
3.76296e-05
3.61817e-05
3.46657e-05
3.3084e-05
3.14388e-05
2.97311e-05
2.79607e-05
2.61264e-05
2.42262e-05
2.22564e-05
2.02115e-05
1.80823e-05
1.58539e-05
1.3502e-05
1.09861e-05
8.236e-06
5.11919e-06
1.02807e-08
3.84972e-11
3.84862e-11
1.0278e-08
5.11816e-06
8.23456e-06
1.09844e-05
1.35e-05
1.58518e-05
1.808e-05
2.02092e-05
2.2254e-05
2.42238e-05
2.6124e-05
2.79583e-05
2.97287e-05
3.14365e-05
3.30818e-05
3.46636e-05
3.61797e-05
3.76276e-05
3.90047e-05
4.03082e-05
4.15356e-05
4.26847e-05
4.37531e-05
4.47388e-05
4.56402e-05
4.64554e-05
4.71832e-05
4.78224e-05
4.8372e-05
4.88311e-05
4.91991e-05
4.94755e-05
4.96601e-05
4.97524e-05
4.97525e-05
4.96602e-05
4.94758e-05
4.91995e-05
4.88316e-05
4.83726e-05
4.78232e-05
4.71841e-05
4.64564e-05
4.56413e-05
4.47401e-05
4.37544e-05
4.26861e-05
4.15372e-05
4.03099e-05
3.90065e-05
3.76296e-05
3.61817e-05
3.46657e-05
3.3084e-05
3.14388e-05
2.97311e-05
2.79607e-05
2.61264e-05
2.42262e-05
2.22564e-05
2.02115e-05
1.80823e-05
1.58539e-05
1.3502e-05
1.09861e-05
8.236e-06
5.11919e-06
1.02807e-08
3.84972e-11
3.84862e-11
1.0278e-08
5.11816e-06
8.23456e-06
1.09844e-05
1.35e-05
1.58518e-05
1.808e-05
2.02092e-05
2.2254e-05
2.42238e-05
2.6124e-05
2.79583e-05
2.97287e-05
3.14365e-05
3.30818e-05
3.46636e-05
3.61797e-05
3.76276e-05
3.90047e-05
4.03082e-05
4.15356e-05
4.26847e-05
4.37531e-05
4.47388e-05
4.56402e-05
4.64554e-05
4.71832e-05
4.78224e-05
4.8372e-05
4.88311e-05
4.91991e-05
4.94755e-05
4.96601e-05
4.97524e-05
4.97525e-05
4.96602e-05
4.94758e-05
4.91995e-05
4.88316e-05
4.83726e-05
4.78232e-05
4.71841e-05
4.64564e-05
4.56413e-05
4.47401e-05
4.37544e-05
4.26861e-05
4.15372e-05
4.03099e-05
3.90065e-05
3.76296e-05
3.61817e-05
3.46657e-05
3.3084e-05
3.14388e-05
2.97311e-05
2.79607e-05
2.61264e-05
2.42262e-05
2.22564e-05
2.02115e-05
1.80823e-05
1.58539e-05
1.3502e-05
1.09861e-05
8.236e-06
5.11919e-06
1.02807e-08
3.84972e-11
3.84862e-11
1.0278e-08
5.11816e-06
8.23456e-06
1.09844e-05
1.35e-05
1.58518e-05
1.808e-05
2.02092e-05
2.2254e-05
2.42238e-05
2.6124e-05
2.79583e-05
2.97287e-05
3.14365e-05
3.30818e-05
3.46636e-05
3.61797e-05
3.76276e-05
3.90047e-05
4.03082e-05
4.15356e-05
4.26847e-05
4.37531e-05
4.47388e-05
4.56402e-05
4.64554e-05
4.71832e-05
4.78224e-05
4.8372e-05
4.88311e-05
4.91991e-05
4.94755e-05
4.96601e-05
4.97524e-05
4.97525e-05
4.96602e-05
4.94758e-05
4.91995e-05
4.88316e-05
4.83726e-05
4.78232e-05
4.71841e-05
4.64564e-05
4.56413e-05
4.47401e-05
4.37544e-05
4.26861e-05
4.15372e-05
4.03099e-05
3.90065e-05
3.76296e-05
3.61817e-05
3.46657e-05
3.3084e-05
3.14388e-05
2.97311e-05
2.79607e-05
2.61264e-05
2.42262e-05
2.22564e-05
2.02115e-05
1.80823e-05
1.58539e-05
1.3502e-05
1.09861e-05
8.236e-06
5.11919e-06
1.02807e-08
3.84972e-11
3.84862e-11
1.0278e-08
5.11816e-06
8.23456e-06
1.09844e-05
1.35e-05
1.58518e-05
1.808e-05
2.02092e-05
2.2254e-05
2.42238e-05
2.6124e-05
2.79583e-05
2.97287e-05
3.14365e-05
3.30818e-05
3.46636e-05
3.61797e-05
3.76276e-05
3.90047e-05
4.03082e-05
4.15356e-05
4.26847e-05
4.37531e-05
4.47388e-05
4.56402e-05
4.64554e-05
4.71832e-05
4.78224e-05
4.8372e-05
4.88311e-05
4.91991e-05
4.94755e-05
4.96601e-05
4.97524e-05
4.97525e-05
4.96602e-05
4.94758e-05
4.91995e-05
4.88316e-05
4.83726e-05
4.78232e-05
4.71841e-05
4.64564e-05
4.56413e-05
4.47401e-05
4.37544e-05
4.26861e-05
4.15372e-05
4.03099e-05
3.90065e-05
3.76296e-05
3.61817e-05
3.46657e-05
3.3084e-05
3.14388e-05
2.97311e-05
2.79607e-05
2.61264e-05
2.42262e-05
2.22564e-05
2.02115e-05
1.80823e-05
1.58539e-05
1.3502e-05
1.09861e-05
8.236e-06
5.11919e-06
1.02807e-08
3.84972e-11
3.84862e-11
1.0278e-08
5.11816e-06
8.23456e-06
1.09844e-05
1.35e-05
1.58518e-05
1.808e-05
2.02092e-05
2.2254e-05
2.42238e-05
2.6124e-05
2.79583e-05
2.97287e-05
3.14365e-05
3.30818e-05
3.46636e-05
3.61797e-05
3.76276e-05
3.90047e-05
4.03082e-05
4.15356e-05
4.26847e-05
4.37531e-05
4.47388e-05
4.56402e-05
4.64554e-05
4.71832e-05
4.78224e-05
4.8372e-05
4.88311e-05
4.91991e-05
4.94755e-05
4.96601e-05
4.97524e-05
4.97525e-05
4.96602e-05
4.94758e-05
4.91995e-05
4.88316e-05
4.83726e-05
4.78232e-05
4.71841e-05
4.64564e-05
4.56413e-05
4.47401e-05
4.37544e-05
4.26861e-05
4.15372e-05
4.03099e-05
3.90065e-05
3.76296e-05
3.61817e-05
3.46657e-05
3.3084e-05
3.14388e-05
2.97311e-05
2.79607e-05
2.61264e-05
2.42262e-05
2.22564e-05
2.02115e-05
1.80823e-05
1.58539e-05
1.3502e-05
1.09861e-05
8.236e-06
5.11919e-06
1.02807e-08
3.84972e-11
3.84862e-11
1.0278e-08
5.11816e-06
8.23456e-06
1.09844e-05
1.35e-05
1.58518e-05
1.808e-05
2.02092e-05
2.2254e-05
2.42238e-05
2.6124e-05
2.79583e-05
2.97287e-05
3.14365e-05
3.30818e-05
3.46636e-05
3.61797e-05
3.76276e-05
3.90047e-05
4.03082e-05
4.15356e-05
4.26847e-05
4.37531e-05
4.47388e-05
4.56402e-05
4.64554e-05
4.71832e-05
4.78224e-05
4.8372e-05
4.88311e-05
4.91991e-05
4.94755e-05
4.96601e-05
4.97524e-05
4.97525e-05
4.96602e-05
4.94758e-05
4.91995e-05
4.88316e-05
4.83726e-05
4.78232e-05
4.71841e-05
4.64564e-05
4.56413e-05
4.47401e-05
4.37544e-05
4.26861e-05
4.15372e-05
4.03099e-05
3.90065e-05
3.76296e-05
3.61817e-05
3.46657e-05
3.3084e-05
3.14388e-05
2.97311e-05
2.79607e-05
2.61264e-05
2.42262e-05
2.22564e-05
2.02115e-05
1.80823e-05
1.58539e-05
1.3502e-05
1.09861e-05
8.236e-06
5.11919e-06
1.02807e-08
3.84972e-11
3.84862e-11
1.0278e-08
5.11816e-06
8.23456e-06
1.09844e-05
1.35e-05
1.58518e-05
1.808e-05
2.02092e-05
2.2254e-05
2.42238e-05
2.6124e-05
2.79583e-05
2.97287e-05
3.14365e-05
3.30818e-05
3.46636e-05
3.61797e-05
3.76276e-05
3.90047e-05
4.03082e-05
4.15356e-05
4.26847e-05
4.37531e-05
4.47388e-05
4.56402e-05
4.64554e-05
4.71832e-05
4.78224e-05
4.8372e-05
4.88311e-05
4.91991e-05
4.94755e-05
4.96601e-05
4.97524e-05
4.97525e-05
4.96602e-05
4.94758e-05
4.91995e-05
4.88316e-05
4.83726e-05
4.78232e-05
4.71841e-05
4.64564e-05
4.56413e-05
4.47401e-05
4.37544e-05
4.26861e-05
4.15372e-05
4.03099e-05
3.90065e-05
3.76296e-05
3.61817e-05
3.46657e-05
3.3084e-05
3.14388e-05
2.97311e-05
2.79607e-05
2.61264e-05
2.42262e-05
2.22564e-05
2.02115e-05
1.80823e-05
1.58539e-05
1.3502e-05
1.09861e-05
8.236e-06
5.11919e-06
1.02807e-08
3.84972e-11
3.84862e-11
1.0278e-08
5.11816e-06
8.23456e-06
1.09844e-05
1.35e-05
1.58518e-05
1.808e-05
2.02092e-05
2.2254e-05
2.42238e-05
2.6124e-05
2.79583e-05
2.97287e-05
3.14365e-05
3.30818e-05
3.46636e-05
3.61797e-05
3.76276e-05
3.90047e-05
4.03082e-05
4.15356e-05
4.26847e-05
4.37531e-05
4.47388e-05
4.56402e-05
4.64554e-05
4.71832e-05
4.78224e-05
4.8372e-05
4.88311e-05
4.91991e-05
4.94755e-05
4.96601e-05
4.97524e-05
4.97525e-05
4.96602e-05
4.94758e-05
4.91995e-05
4.88316e-05
4.83726e-05
4.78232e-05
4.71841e-05
4.64564e-05
4.56413e-05
4.47401e-05
4.37544e-05
4.26861e-05
4.15372e-05
4.03099e-05
3.90065e-05
3.76296e-05
3.61817e-05
3.46657e-05
3.3084e-05
3.14388e-05
2.97311e-05
2.79607e-05
2.61264e-05
2.42262e-05
2.22564e-05
2.02115e-05
1.80823e-05
1.58539e-05
1.3502e-05
1.09861e-05
8.236e-06
5.11919e-06
1.02807e-08
3.84972e-11
3.84862e-11
1.0278e-08
5.11816e-06
8.23456e-06
1.09844e-05
1.35e-05
1.58518e-05
1.808e-05
2.02092e-05
2.2254e-05
2.42238e-05
2.6124e-05
2.79583e-05
2.97287e-05
3.14365e-05
3.30818e-05
3.46636e-05
3.61797e-05
3.76276e-05
3.90047e-05
4.03082e-05
4.15356e-05
4.26847e-05
4.37531e-05
4.47388e-05
4.56402e-05
4.64554e-05
4.71832e-05
4.78224e-05
4.8372e-05
4.88311e-05
4.91991e-05
4.94755e-05
4.96601e-05
4.97524e-05
4.97525e-05
4.96602e-05
4.94758e-05
4.91995e-05
4.88316e-05
4.83726e-05
4.78232e-05
4.71841e-05
4.64564e-05
4.56413e-05
4.47401e-05
4.37544e-05
4.26861e-05
4.15372e-05
4.03099e-05
3.90065e-05
3.76296e-05
3.61817e-05
3.46657e-05
3.3084e-05
3.14388e-05
2.97311e-05
2.79607e-05
2.61264e-05
2.42262e-05
2.22564e-05
2.02115e-05
1.80823e-05
1.58539e-05
1.3502e-05
1.09861e-05
8.236e-06
5.11919e-06
1.02807e-08
3.84972e-11
3.84862e-11
1.0278e-08
5.11816e-06
8.23456e-06
1.09844e-05
1.35e-05
1.58518e-05
1.808e-05
2.02092e-05
2.2254e-05
2.42238e-05
2.6124e-05
2.79583e-05
2.97287e-05
3.14365e-05
3.30818e-05
3.46636e-05
3.61797e-05
3.76276e-05
3.90047e-05
4.03082e-05
4.15356e-05
4.26847e-05
4.37531e-05
4.47388e-05
4.56402e-05
4.64554e-05
4.71832e-05
4.78224e-05
4.8372e-05
4.88311e-05
4.91991e-05
4.94755e-05
4.96601e-05
4.97524e-05
4.97525e-05
4.96602e-05
4.94758e-05
4.91995e-05
4.88316e-05
4.83726e-05
4.78232e-05
4.71841e-05
4.64564e-05
4.56413e-05
4.47401e-05
4.37544e-05
4.26861e-05
4.15372e-05
4.03099e-05
3.90065e-05
3.76296e-05
3.61817e-05
3.46657e-05
3.3084e-05
3.14388e-05
2.97311e-05
2.79607e-05
2.61264e-05
2.42262e-05
2.22564e-05
2.02115e-05
1.80823e-05
1.58539e-05
1.3502e-05
1.09861e-05
8.236e-06
5.11919e-06
1.02807e-08
3.84972e-11
3.84862e-11
1.0278e-08
5.11816e-06
8.23456e-06
1.09844e-05
1.35e-05
1.58518e-05
1.808e-05
2.02092e-05
2.2254e-05
2.42238e-05
2.6124e-05
2.79583e-05
2.97287e-05
3.14365e-05
3.30818e-05
3.46636e-05
3.61797e-05
3.76276e-05
3.90047e-05
4.03082e-05
4.15356e-05
4.26847e-05
4.37531e-05
4.47388e-05
4.56402e-05
4.64554e-05
4.71832e-05
4.78224e-05
4.8372e-05
4.88311e-05
4.91991e-05
4.94755e-05
4.96601e-05
4.97524e-05
4.97525e-05
4.96602e-05
4.94758e-05
4.91995e-05
4.88316e-05
4.83726e-05
4.78232e-05
4.71841e-05
4.64564e-05
4.56413e-05
4.47401e-05
4.37544e-05
4.26861e-05
4.15372e-05
4.03099e-05
3.90065e-05
3.76296e-05
3.61817e-05
3.46657e-05
3.3084e-05
3.14388e-05
2.97311e-05
2.79607e-05
2.61264e-05
2.42262e-05
2.22564e-05
2.02115e-05
1.80823e-05
1.58539e-05
1.3502e-05
1.09861e-05
8.236e-06
5.11919e-06
1.02807e-08
3.84972e-11
3.84862e-11
1.0278e-08
5.11816e-06
8.23456e-06
1.09844e-05
1.35e-05
1.58518e-05
1.808e-05
2.02092e-05
2.2254e-05
2.42238e-05
2.6124e-05
2.79583e-05
2.97287e-05
3.14365e-05
3.30818e-05
3.46636e-05
3.61797e-05
3.76276e-05
3.90047e-05
4.03082e-05
4.15356e-05
4.26847e-05
4.37531e-05
4.47388e-05
4.56402e-05
4.64554e-05
4.71832e-05
4.78224e-05
4.8372e-05
4.88311e-05
4.91991e-05
4.94755e-05
4.96601e-05
4.97524e-05
4.97525e-05
4.96602e-05
4.94758e-05
4.91995e-05
4.88316e-05
4.83726e-05
4.78232e-05
4.71841e-05
4.64564e-05
4.56413e-05
4.47401e-05
4.37544e-05
4.26861e-05
4.15372e-05
4.03099e-05
3.90065e-05
3.76296e-05
3.61817e-05
3.46657e-05
3.3084e-05
3.14388e-05
2.97311e-05
2.79607e-05
2.61264e-05
2.42262e-05
2.22564e-05
2.02115e-05
1.80823e-05
1.58539e-05
1.3502e-05
1.09861e-05
8.236e-06
5.11919e-06
1.02807e-08
3.84972e-11
3.84862e-11
1.0278e-08
5.11816e-06
8.23456e-06
1.09844e-05
1.35e-05
1.58518e-05
1.808e-05
2.02092e-05
2.2254e-05
2.42238e-05
2.6124e-05
2.79583e-05
2.97287e-05
3.14365e-05
3.30818e-05
3.46636e-05
3.61797e-05
3.76276e-05
3.90047e-05
4.03082e-05
4.15356e-05
4.26847e-05
4.37531e-05
4.47388e-05
4.56402e-05
4.64554e-05
4.71832e-05
4.78224e-05
4.8372e-05
4.88311e-05
4.91991e-05
4.94755e-05
4.96601e-05
4.97524e-05
4.97525e-05
4.96602e-05
4.94758e-05
4.91995e-05
4.88316e-05
4.83726e-05
4.78232e-05
4.71841e-05
4.64564e-05
4.56413e-05
4.47401e-05
4.37544e-05
4.26861e-05
4.15372e-05
4.03099e-05
3.90065e-05
3.76296e-05
3.61817e-05
3.46657e-05
3.3084e-05
3.14388e-05
2.97311e-05
2.79607e-05
2.61264e-05
2.42262e-05
2.22564e-05
2.02115e-05
1.80823e-05
1.58539e-05
1.3502e-05
1.09861e-05
8.236e-06
5.11919e-06
1.02807e-08
3.84972e-11
3.84862e-11
1.0278e-08
5.11816e-06
8.23456e-06
1.09844e-05
1.35e-05
1.58518e-05
1.808e-05
2.02092e-05
2.2254e-05
2.42238e-05
2.6124e-05
2.79583e-05
2.97287e-05
3.14365e-05
3.30818e-05
3.46636e-05
3.61797e-05
3.76276e-05
3.90047e-05
4.03082e-05
4.15356e-05
4.26847e-05
4.37531e-05
4.47388e-05