/*--------------------------------*- C++ -*----------------------------------*\
  =========                 |
  \\      /  F ield         | OpenFOAM: The Open Source CFD Toolbox
   \\    /   O peration     | Website:  https://openfoam.org
    \\  /    A nd           | Version:  13
     \\/     M anipulation  |
\*---------------------------------------------------------------------------*/
FoamFile
{
    format      ascii;
    class       volScalarField;
    location    "145";
    object      nut;
}
// * * * * * * * * * * * * * * * * * * * * * * * * * * * * * * * * * * * * * //

dimensions      [0 2 -1 0 0 0 0];

internalField   nonuniform List<scalar> 
315000
(
1.18549e-15
3.10526e-13
7.08757e-12
1.27266e-11
1.84648e-11
2.4317e-11
3.03008e-11
3.64319e-11
4.27212e-11
4.91744e-11
5.57905e-11
6.25624e-11
6.94766e-11
7.65131e-11
8.36467e-11
9.08465e-11
9.80772e-11
1.053e-10
1.12471e-10
1.19546e-10
1.26479e-10
1.33222e-10
1.39727e-10
1.45947e-10
1.51836e-10
1.57348e-10
1.62442e-10
1.67079e-10
1.71221e-10
1.74837e-10
1.77897e-10
1.80377e-10
1.82257e-10
1.83523e-10
1.84163e-10
1.84173e-10
1.83553e-10
1.82307e-10
1.80446e-10
1.77985e-10
1.74943e-10
1.71345e-10
1.67218e-10
1.62597e-10
1.57516e-10
1.52016e-10
1.46138e-10
1.39928e-10
1.3343e-10
1.26693e-10
1.19764e-10
1.12691e-10
1.0552e-10
9.82971e-11
9.10637e-11
8.38595e-11
7.67201e-11
6.96762e-11
6.27534e-11
5.59714e-11
4.93441e-11
4.28786e-11
3.65757e-11
3.04298e-11
2.44297e-11
1.85593e-11
1.28001e-11
7.13517e-12
3.13024e-13
1.19594e-15
2.96778e-14
7.90484e-12
1.80091e-09
3.25923e-09
4.73727e-09
6.24238e-09
7.78077e-09
9.35728e-09
1.09752e-08
1.26361e-08
1.434e-08
1.6085e-08
1.78677e-08
1.96828e-08
2.15238e-08
2.33826e-08
2.52501e-08
2.71159e-08
2.89689e-08
3.07976e-08
3.25896e-08
3.43327e-08
3.60144e-08
3.76224e-08
3.91448e-08
4.057e-08
4.1887e-08
4.30856e-08
4.41564e-08
4.5091e-08
4.58819e-08
4.65229e-08
4.70087e-08
4.73355e-08
4.75007e-08
4.75029e-08
4.73421e-08
4.70196e-08
4.65379e-08
4.59011e-08
4.51141e-08
4.41832e-08
4.31158e-08
4.19204e-08
4.06064e-08
3.91838e-08
3.76637e-08
3.60576e-08
3.43775e-08
3.26356e-08
3.08444e-08
2.90162e-08
2.71632e-08
2.52971e-08
2.34289e-08
2.1569e-08
1.97266e-08
1.79097e-08
1.6125e-08
1.43776e-08
1.26711e-08
1.10072e-08
9.38606e-09
7.80605e-09
6.26384e-09
4.75455e-09
3.27189e-09
1.8084e-09
7.93999e-12
2.98137e-14
1.19539e-13
3.18863e-11
1.85154e-08
3.3533e-08
4.87676e-08
6.43097e-08
8.0237e-08
9.66111e-08
1.13476e-07
1.30855e-07
1.48752e-07
1.6715e-07
1.86011e-07
2.05277e-07
2.24871e-07
2.44703e-07
2.64666e-07
2.84643e-07
3.04507e-07
3.24126e-07
3.43363e-07
3.62082e-07
3.80144e-07
3.97415e-07
4.13765e-07
4.29068e-07
4.43206e-07
4.56069e-07
4.67558e-07
4.77582e-07
4.86062e-07
4.92931e-07
4.98136e-07
5.01636e-07
5.03401e-07
5.0342e-07
5.01691e-07
4.98228e-07
4.93059e-07
4.86223e-07
4.77776e-07
4.67784e-07
4.56325e-07
4.43488e-07
4.29375e-07
4.14094e-07
3.97764e-07
3.80509e-07
3.62459e-07
3.4375e-07
3.24519e-07
3.04903e-07
2.85039e-07
2.65059e-07
2.45089e-07
2.25246e-07
2.05638e-07
1.86356e-07
1.67477e-07
1.49057e-07
1.31136e-07
1.13731e-07
9.68381e-08
8.04339e-08
6.44745e-08
4.8898e-08
3.36268e-08
1.85696e-08
3.19841e-11
1.19913e-13
2.26395e-13
6.0394e-11
3.50596e-08
6.35075e-08
9.24214e-08
1.22008e-07
1.52446e-07
1.83879e-07
2.16413e-07
2.5011e-07
2.84987e-07
3.21013e-07
3.58113e-07
3.96165e-07
4.35006e-07
4.74435e-07
5.14222e-07
5.54111e-07
5.93831e-07
6.33099e-07
6.71628e-07
7.09131e-07
7.45326e-07
7.79936e-07
8.12697e-07
8.43355e-07
8.71673e-07
8.9743e-07
9.20429e-07
9.40488e-07
9.57453e-07
9.71191e-07
9.81597e-07
9.88589e-07
9.92114e-07
9.92143e-07
9.88677e-07
9.81742e-07
9.71392e-07
9.57708e-07
9.40796e-07
9.20786e-07
8.97834e-07
8.72119e-07
8.4384e-07
8.13216e-07
7.80486e-07
7.45901e-07
7.09726e-07
6.72238e-07
6.33718e-07
5.94455e-07
5.54734e-07
5.14838e-07
4.75039e-07
4.35593e-07
3.9673e-07
3.58652e-07
3.21521e-07
2.85459e-07
2.50544e-07
2.16805e-07
1.84226e-07
1.52745e-07
1.22257e-07
9.2617e-08
6.36471e-08
3.51399e-08
6.05386e-11
2.26948e-13
3.50698e-13
9.356e-11
5.42894e-08
9.83283e-08
1.4313e-07
1.89051e-07
2.36401e-07
2.85427e-07
3.36311e-07
3.89162e-07
4.4401e-07
5.00804e-07
5.59416e-07
6.19637e-07
6.81191e-07
7.43738e-07
8.06889e-07
8.70224e-07
9.33303e-07
9.95674e-07
1.05688e-06
1.11648e-06
1.17402e-06
1.22906e-06
1.28118e-06
1.32997e-06
1.37504e-06
1.41605e-06
1.45268e-06
1.48462e-06
1.51164e-06
1.53352e-06
1.55008e-06
1.56121e-06
1.56682e-06
1.56686e-06
1.56133e-06
1.55027e-06
1.53377e-06
1.51197e-06
1.48502e-06
1.45314e-06
1.41657e-06
1.37562e-06
1.33059e-06
1.28185e-06
1.22977e-06
1.17476e-06
1.11725e-06
1.05767e-06
9.96472e-07
9.34106e-07
8.71026e-07
8.07682e-07
7.44516e-07
6.81947e-07
6.20365e-07
5.60109e-07
5.01457e-07
4.44617e-07
3.89719e-07
3.36813e-07
2.8587e-07
2.36782e-07
1.89368e-07
1.43378e-07
9.85052e-08
5.4391e-08
9.37435e-11
3.514e-13
4.86481e-13
1.29792e-10
7.52709e-08
1.36275e-07
1.98336e-07
2.61978e-07
3.27651e-07
3.95714e-07
4.66426e-07
5.39936e-07
6.16279e-07
6.95371e-07
7.7701e-07
8.60883e-07
9.46575e-07
1.03359e-06
1.12137e-06
1.20933e-06
1.29686e-06
1.38334e-06
1.46816e-06
1.5507e-06
1.63036e-06
1.70654e-06
1.77865e-06
1.84614e-06
1.90849e-06
1.96519e-06
2.01581e-06
2.05996e-06
2.09729e-06
2.12751e-06
2.15039e-06
2.16576e-06
2.17349e-06
2.17353e-06
2.16589e-06
2.1506e-06
2.12781e-06
2.09767e-06
2.06042e-06
2.01634e-06
1.96579e-06
1.90915e-06
1.84686e-06
1.77942e-06
1.70736e-06
1.63122e-06
1.55159e-06
1.46907e-06
1.38426e-06
1.29779e-06
1.21026e-06
1.12229e-06
1.03449e-06
9.47452e-07
8.61727e-07
7.77815e-07
6.96129e-07
6.16985e-07
5.40583e-07
4.67009e-07
3.96228e-07
3.28093e-07
2.62345e-07
1.98623e-07
1.36479e-07
7.53883e-08
1.30005e-10
4.87297e-13
6.25108e-13
1.66785e-10
9.66642e-08
1.74909e-07
2.54468e-07
3.36035e-07
4.20197e-07
5.0742e-07
5.98032e-07
6.92215e-07
7.89992e-07
8.91232e-07
9.95648e-07
1.1028e-06
1.21214e-06
1.32301e-06
1.43467e-06
1.54639e-06
1.65739e-06
1.76691e-06
1.87418e-06
1.97845e-06
2.07898e-06
2.17501e-06
2.26584e-06
2.35079e-06
2.4292e-06
2.50048e-06
2.56408e-06
2.61952e-06
2.66637e-06
2.7043e-06
2.733e-06
2.75227e-06
2.76197e-06
2.76201e-06
2.75241e-06
2.73323e-06
2.70462e-06
2.66678e-06
2.62001e-06
2.56465e-06
2.50112e-06
2.42991e-06
2.35156e-06
2.26667e-06
2.17589e-06
2.07989e-06
1.9794e-06
1.87516e-06
1.7679e-06
1.6584e-06
1.54739e-06
1.43567e-06
1.32398e-06
1.21309e-06
1.10372e-06
9.96521e-07
8.92056e-07
7.90759e-07
6.92918e-07
5.98666e-07
5.07979e-07
4.20678e-07
3.36433e-07
2.5478e-07
1.75131e-07
9.67916e-08
1.67017e-10
6.25999e-13
7.57859e-13
2.02214e-10
1.17125e-07
2.11806e-07
3.08004e-07
4.06573e-07
5.08228e-07
6.13532e-07
7.2287e-07
8.36443e-07
9.54257e-07
1.07612e-06
1.20166e-06
1.33032e-06
1.4614e-06
1.59408e-06
1.72751e-06
1.86077e-06
1.99297e-06
2.12319e-06
2.25057e-06
2.37421e-06
2.49326e-06
2.60686e-06
2.71421e-06
2.81451e-06
2.90702e-06
2.99106e-06
3.066e-06
3.1313e-06
3.18646e-06
3.23109e-06
3.26486e-06
3.28753e-06
3.29893e-06
3.29898e-06
3.28767e-06
3.2651e-06
3.23142e-06
3.18687e-06
3.13179e-06
3.06658e-06
2.99171e-06
2.90775e-06
2.8153e-06
2.71506e-06
2.60776e-06
2.4942e-06
2.37518e-06
2.25157e-06
2.12421e-06
1.99399e-06
1.8618e-06
1.72853e-06
1.59509e-06
1.46238e-06
1.33127e-06
1.20257e-06
1.07698e-06
9.55051e-07
8.37171e-07
7.23527e-07
6.14112e-07
5.08726e-07
4.06985e-07
3.08327e-07
2.12036e-07
1.17257e-07
2.02455e-10
7.58785e-13
8.77572e-13
2.34168e-10
1.35557e-07
2.44999e-07
3.56107e-07
4.69877e-07
5.8714e-07
7.08536e-07
8.34501e-07
9.65245e-07
1.10075e-06
1.24078e-06
1.38485e-06
1.5323e-06
1.68231e-06
1.83394e-06
1.98618e-06
2.13802e-06
2.28842e-06
2.43639e-06
2.58093e-06
2.72106e-06
2.85583e-06
2.98432e-06
3.10561e-06
3.21885e-06
3.32322e-06
3.41798e-06
3.50244e-06
3.57599e-06
3.63811e-06
3.68836e-06
3.72637e-06
3.75187e-06
3.7647e-06
3.76474e-06
3.75201e-06
3.7266e-06
3.68868e-06
3.63852e-06
3.57649e-06
3.50301e-06
3.41863e-06
3.32394e-06
3.21963e-06
3.10645e-06
2.9852e-06
2.85676e-06
2.72202e-06
2.58192e-06
2.4374e-06
2.28944e-06
2.13904e-06
1.9872e-06
1.83494e-06
1.68329e-06
1.53325e-06
1.38575e-06
1.24163e-06
1.10155e-06
9.65974e-07
8.35158e-07
7.09116e-07
5.87637e-07
4.70289e-07
3.56429e-07
2.45228e-07
1.35689e-07
2.3441e-10
8.78503e-13
9.79581e-13
2.61401e-10
1.5125e-07
2.73227e-07
3.96973e-07
5.23605e-07
6.54051e-07
7.89017e-07
9.28974e-07
1.07414e-06
1.22447e-06
1.37968e-06
1.53921e-06
1.7023e-06
1.86801e-06
2.03532e-06
2.2031e-06
2.37023e-06
2.5356e-06
2.69812e-06
2.8567e-06
3.0103e-06
3.1579e-06
3.29849e-06
3.43112e-06
3.55486e-06
3.66885e-06
3.77229e-06
3.86445e-06
3.94469e-06
4.01243e-06
4.06721e-06
4.10864e-06
4.13644e-06
4.15041e-06
4.15045e-06
4.13657e-06
4.10887e-06
4.06752e-06
4.01283e-06
3.94516e-06
3.86501e-06
3.77292e-06
3.66955e-06
3.55562e-06
3.43193e-06
3.29936e-06
3.1588e-06
3.01124e-06
2.85767e-06
2.6991e-06
2.5366e-06
2.37123e-06
2.20409e-06
2.03629e-06
1.86897e-06
1.70322e-06
1.54009e-06
1.38051e-06
1.22525e-06
1.07485e-06
9.29618e-07
7.89585e-07
6.54538e-07
5.24008e-07
3.97287e-07
2.7345e-07
1.51378e-07
2.61638e-10
9.80495e-13
1.06196e-12
2.83398e-10
1.63916e-07
2.95988e-07
4.29899e-07
5.66864e-07
7.07886e-07
8.53725e-07
1.00488e-06
1.16157e-06
1.32374e-06
1.49104e-06
1.66286e-06
1.83837e-06
2.01654e-06
2.19624e-06
2.3763e-06
2.55551e-06
2.73267e-06
2.90663e-06
3.07625e-06
3.24043e-06
3.39808e-06
3.54816e-06
3.68966e-06
3.82162e-06
3.94313e-06
4.05335e-06
4.15153e-06
4.23698e-06
4.30911e-06
4.36743e-06
4.41153e-06
4.44112e-06
4.45598e-06
4.45603e-06
4.44125e-06
4.41175e-06
4.36773e-06
4.30949e-06
4.23744e-06
4.15206e-06
4.05396e-06
3.9438e-06
3.82235e-06
3.69045e-06
3.54899e-06
3.39895e-06
3.24134e-06
3.07719e-06
2.90758e-06
2.73363e-06
2.55647e-06
2.37726e-06
2.19719e-06
2.01746e-06
1.83926e-06
1.66372e-06
1.49185e-06
1.3245e-06
1.16227e-06
1.0055e-06
8.54275e-07
7.08357e-07
5.67253e-07
4.30203e-07
2.96204e-07
1.64039e-07
2.83627e-10
1.06284e-12
1.12517e-12
3.00281e-10
1.73631e-07
3.13437e-07
4.55126e-07
5.99992e-07
7.49095e-07
9.03238e-07
1.06294e-06
1.22842e-06
1.39961e-06
1.57611e-06
1.75728e-06
1.94222e-06
2.12984e-06
2.31895e-06
2.5083e-06
2.69664e-06
2.88273e-06
3.06534e-06
3.2433e-06
3.41546e-06
3.5807e-06
3.73794e-06
3.88613e-06
4.02428e-06
4.15145e-06
4.26679e-06
4.36949e-06
4.45887e-06
4.53431e-06
4.59529e-06
4.64141e-06
4.67234e-06
4.68788e-06
4.68792e-06
4.67247e-06
4.64162e-06
4.59558e-06
4.53468e-06
4.45931e-06
4.37001e-06
4.26737e-06
4.1521e-06
4.02498e-06
3.88688e-06
3.73874e-06
3.58154e-06
3.41634e-06
3.2442e-06
3.06626e-06
2.88366e-06
2.69758e-06
2.50923e-06
2.31986e-06
2.13073e-06
1.94308e-06
1.75811e-06
1.5769e-06
1.40034e-06
1.22909e-06
1.06354e-06
9.0377e-07
7.49551e-07
6.00367e-07
4.55419e-07
3.13644e-07
1.7375e-07
3.00502e-10
1.12603e-12
1.17137e-12
3.12624e-10
1.80732e-07
3.26185e-07
4.7355e-07
6.2418e-07
7.79178e-07
9.39377e-07
1.10531e-06
1.2772e-06
1.45495e-06
1.63817e-06
1.82615e-06
2.01795e-06
2.21244e-06
2.40839e-06
2.60451e-06
2.79949e-06
2.99206e-06
3.18096e-06
3.36498e-06
3.54293e-06
3.71368e-06
3.87611e-06
4.02916e-06
4.1718e-06
4.30309e-06
4.42214e-06
4.52814e-06
4.62037e-06
4.69821e-06
4.76113e-06
4.80871e-06
4.84061e-06
4.85664e-06
4.85668e-06
4.84073e-06
4.80891e-06
4.76141e-06
4.69857e-06
4.6208e-06
4.52864e-06
4.4227e-06
4.30372e-06
4.17249e-06
4.02989e-06
3.87689e-06
3.7145e-06
3.54378e-06
3.36585e-06
3.18185e-06
2.99296e-06
2.8004e-06
2.60541e-06
2.40928e-06
2.21331e-06
2.01879e-06
1.82695e-06
1.63893e-06
1.45566e-06
1.27785e-06
1.1059e-06
9.39893e-07
7.7962e-07
6.24543e-07
4.73833e-07
3.26385e-07
1.80847e-07
3.12838e-10
1.17221e-12
1.20361e-12
3.2124e-10
1.85688e-07
3.35079e-07
4.86404e-07
6.41054e-07
8.00165e-07
9.6459e-07
1.13487e-06
1.31124e-06
1.49358e-06
1.68148e-06
1.87422e-06
2.07081e-06
2.27011e-06
2.47084e-06
2.67168e-06
2.8713e-06
3.0684e-06
3.26169e-06
3.44994e-06
3.63195e-06
3.80654e-06
3.97261e-06
4.12905e-06
4.27484e-06
4.40901e-06
4.53065e-06
4.63895e-06
4.73318e-06
4.8127e-06
4.87698e-06
4.92558e-06
4.95818e-06
4.97455e-06
4.97459e-06
4.9583e-06
4.92578e-06
4.87725e-06
4.81305e-06
4.7336e-06
4.63944e-06
4.5312e-06
4.40962e-06
4.2755e-06
4.12976e-06
3.97336e-06
3.80734e-06
3.63277e-06
3.45079e-06
3.26256e-06
3.06928e-06
2.87219e-06
2.67256e-06
2.47171e-06
2.27096e-06
2.07163e-06
1.875e-06
1.68222e-06
1.49427e-06
1.31187e-06
1.13544e-06
9.65094e-07
8.00596e-07
6.41408e-07
4.8668e-07
3.35274e-07
1.858e-07
3.21449e-10
1.20443e-12
1.22514e-12
3.26995e-10
1.88998e-07
3.41019e-07
4.94988e-07
6.52324e-07
8.14184e-07
9.81436e-07
1.15463e-06
1.33399e-06
1.51941e-06
1.71045e-06
1.90638e-06
2.10619e-06
2.30872e-06
2.51265e-06
2.71667e-06
2.91941e-06
3.11955e-06
3.31579e-06
3.50689e-06
3.69162e-06
3.86881e-06
4.03732e-06
4.19605e-06
4.34396e-06
4.48006e-06
4.60346e-06
4.71331e-06
4.80889e-06
4.88955e-06
4.95475e-06
5.00405e-06
5.03712e-06
5.05373e-06
5.05377e-06
5.03724e-06
5.00424e-06
4.95501e-06
4.88989e-06
4.8093e-06
4.71379e-06
4.604e-06
4.48066e-06
4.34461e-06
4.19675e-06
4.03806e-06
3.86959e-06
3.69243e-06
3.50772e-06
3.31664e-06
3.12041e-06
2.92028e-06
2.71753e-06
2.51351e-06
2.30955e-06
2.107e-06
1.90715e-06
1.71119e-06
1.52009e-06
1.33462e-06
1.15519e-06
9.81932e-07
8.14608e-07
6.52672e-07
4.95259e-07
3.4121e-07
1.89107e-07
3.272e-10
1.22594e-12
1.23892e-12
3.30679e-10
1.91117e-07
3.44822e-07
5.00485e-07
6.59543e-07
8.23168e-07
9.92235e-07
1.1673e-06
1.34859e-06
1.53599e-06
1.72906e-06
1.92704e-06
2.12893e-06
2.33354e-06
2.53955e-06
2.74562e-06
2.95037e-06
3.15248e-06
3.35064e-06
3.54358e-06
3.73008e-06
3.90895e-06
4.07905e-06
4.23926e-06
4.38854e-06
4.52591e-06
4.65044e-06
4.76131e-06
4.85776e-06
4.93916e-06
5.00496e-06
5.05472e-06
5.0881e-06
5.10487e-06
5.1049e-06
5.08822e-06
5.05491e-06
5.00523e-06
4.93949e-06
4.85816e-06
4.76178e-06
4.65097e-06
4.5265e-06
4.38919e-06
4.23995e-06
4.07978e-06
3.90972e-06
3.73088e-06
3.54441e-06
3.35149e-06
3.15334e-06
2.95124e-06
2.74648e-06
2.5404e-06
2.33437e-06
2.12974e-06
1.92781e-06
1.72978e-06
1.53667e-06
1.34921e-06
1.16786e-06
9.92726e-07
8.23588e-07
6.59888e-07
5.00753e-07
3.45012e-07
1.91225e-07
3.30882e-10
1.23971e-12
1.24739e-12
3.32945e-10
1.92421e-07
3.47162e-07
5.03868e-07
6.63987e-07
8.287e-07
9.98888e-07
1.17511e-06
1.35759e-06
1.54622e-06
1.74055e-06
1.93981e-06
2.14299e-06
2.34889e-06
2.5562e-06
2.76354e-06
2.96955e-06
3.17289e-06
3.37224e-06
3.56633e-06
3.75394e-06
3.93386e-06
4.10494e-06
4.26609e-06
4.41623e-06
4.55438e-06
4.67963e-06
4.79113e-06
4.88813e-06
4.97e-06
5.03618e-06
5.08623e-06
5.1198e-06
5.13666e-06
5.1367e-06
5.11991e-06
5.08642e-06
5.03644e-06
4.97033e-06
4.88853e-06
4.7916e-06
4.68016e-06
4.55497e-06
4.41687e-06
4.26678e-06
4.10568e-06
3.93463e-06
3.75474e-06
3.56716e-06
3.37308e-06
3.17374e-06
2.97041e-06
2.76439e-06
2.55704e-06
2.34972e-06
2.14379e-06
1.94057e-06
1.74127e-06
1.5469e-06
1.35821e-06
1.17567e-06
9.99377e-07
8.29117e-07
6.6433e-07
5.04134e-07
3.4735e-07
1.92528e-07
3.33147e-10
1.24818e-12
1.2524e-12
3.34285e-10
1.93192e-07
3.48547e-07
5.05871e-07
6.6662e-07
8.31979e-07
1.00283e-06
1.17975e-06
1.36294e-06
1.5523e-06
1.74738e-06
1.94741e-06
2.15136e-06
2.35804e-06
2.56612e-06
2.77423e-06
2.981e-06
3.18507e-06
3.38514e-06
3.57993e-06
3.7682e-06
3.94875e-06
4.12044e-06
4.28214e-06
4.4328e-06
4.57143e-06
4.69711e-06
4.80899e-06
4.90632e-06
4.98847e-06
5.05489e-06
5.10511e-06
5.1388e-06
5.15572e-06
5.15576e-06
5.13891e-06
5.1053e-06
5.05515e-06
4.98881e-06
4.90673e-06
4.80946e-06
4.69764e-06
4.57202e-06
4.43344e-06
4.28283e-06
4.12117e-06
3.94952e-06
3.76899e-06
3.58075e-06
3.38598e-06
3.18592e-06
2.98185e-06
2.77508e-06
2.56696e-06
2.35886e-06
2.15216e-06
1.94817e-06
1.7481e-06
1.55297e-06
1.36356e-06
1.1803e-06
1.00332e-06
8.32395e-07
6.66962e-07
5.06137e-07
3.48735e-07
1.933e-07
3.34487e-10
1.25318e-12
1.25525e-12
3.3505e-10
1.93632e-07
3.49338e-07
5.07015e-07
6.68123e-07
8.33852e-07
1.00509e-06
1.1824e-06
1.366e-06
1.55579e-06
1.7513e-06
1.95176e-06
2.15617e-06
2.36329e-06
2.57182e-06
2.78038e-06
2.98759e-06
3.19209e-06
3.39258e-06
3.58777e-06
3.77642e-06
3.95735e-06
4.12938e-06
4.29141e-06
4.44237e-06
4.58128e-06
4.70721e-06
4.81931e-06
4.91684e-06
4.99916e-06
5.06571e-06
5.11603e-06
5.14979e-06
5.16674e-06
5.16678e-06
5.1499e-06
5.11622e-06
5.06597e-06
4.99949e-06
4.91724e-06
4.81978e-06
4.70774e-06
4.58187e-06
4.44301e-06
4.29209e-06
4.13011e-06
3.95811e-06
3.77722e-06
3.58859e-06
3.39341e-06
3.19294e-06
2.98844e-06
2.78123e-06
2.57266e-06
2.36412e-06
2.15696e-06
1.95252e-06
1.75201e-06
1.55646e-06
1.36662e-06
1.18295e-06
1.00558e-06
8.34268e-07
6.68465e-07
5.0728e-07
3.49525e-07
1.9374e-07
3.35251e-10
1.25604e-12
1.25683e-12
3.35471e-10
1.93875e-07
3.49773e-07
5.07644e-07
6.68952e-07
8.34886e-07
1.00633e-06
1.18386e-06
1.36769e-06
1.55771e-06
1.75346e-06
1.95418e-06
2.15883e-06
2.36621e-06
2.57499e-06
2.7838e-06
2.99125e-06
3.19599e-06
3.39671e-06
3.59213e-06
3.781e-06
3.96213e-06
4.13436e-06
4.29658e-06
4.44771e-06
4.58678e-06
4.71285e-06
4.82508e-06
4.92272e-06
5.00513e-06
5.07175e-06
5.12213e-06
5.15593e-06
5.1729e-06
5.17294e-06
5.15604e-06
5.12232e-06
5.07201e-06
5.00546e-06
4.92312e-06
4.82554e-06
4.71337e-06
4.58736e-06
4.44835e-06
4.29726e-06
4.13509e-06
3.9629e-06
3.7818e-06
3.59295e-06
3.39755e-06
3.19684e-06
2.9921e-06
2.78465e-06
2.57583e-06
2.36703e-06
2.15963e-06
1.95494e-06
1.75418e-06
1.55838e-06
1.36831e-06
1.18442e-06
1.00682e-06
8.35301e-07
6.69293e-07
5.0791e-07
3.4996e-07
1.93982e-07
3.35672e-10
1.25761e-12
1.25766e-12
3.35694e-10
1.94003e-07
3.50004e-07
5.0798e-07
6.69393e-07
8.35436e-07
1.007e-06
1.18464e-06
1.3686e-06
1.55874e-06
1.75462e-06
1.95547e-06
2.16026e-06
2.36777e-06
2.57669e-06
2.78563e-06
2.99322e-06
3.19809e-06
3.39894e-06
3.59448e-06
3.78347e-06
3.96472e-06
4.13705e-06
4.29936e-06
4.45059e-06
4.58974e-06
4.71589e-06
4.82819e-06
4.92589e-06
5.00835e-06
5.07501e-06
5.12543e-06
5.15925e-06
5.17623e-06
5.17627e-06
5.15936e-06
5.12562e-06
5.07528e-06
5.00868e-06
4.92629e-06
4.82865e-06
4.71642e-06
4.59033e-06
4.45123e-06
4.30005e-06
4.13778e-06
3.96548e-06
3.78427e-06
3.5953e-06
3.39978e-06
3.19894e-06
2.99407e-06
2.78648e-06
2.57753e-06
2.3686e-06
2.16105e-06
1.95623e-06
1.75534e-06
1.55941e-06
1.36921e-06
1.1852e-06
1.00749e-06
8.35852e-07
6.69735e-07
5.08245e-07
3.50191e-07
1.94111e-07
3.35895e-10
1.25845e-12
1.25809e-12
3.35809e-10
1.9407e-07
3.50124e-07
5.08152e-07
6.69621e-07
8.3572e-07
1.00734e-06
1.18505e-06
1.36907e-06
1.55928e-06
1.75522e-06
1.95614e-06
2.161e-06
2.36859e-06
2.57757e-06
2.78658e-06
2.99424e-06
3.19919e-06
3.4001e-06
3.5957e-06
3.78476e-06
3.96606e-06
4.13845e-06
4.30082e-06
4.4521e-06
4.59129e-06
4.71748e-06
4.82981e-06
4.92755e-06
5.01004e-06
5.07672e-06
5.12715e-06
5.16098e-06
5.17797e-06
5.17801e-06
5.1611e-06
5.12734e-06
5.07698e-06
5.01037e-06
4.92795e-06
4.83028e-06
4.71801e-06
4.59188e-06
4.45274e-06
4.30151e-06
4.13918e-06
3.96683e-06
3.78555e-06
3.59652e-06
3.40094e-06
3.20004e-06
2.99509e-06
2.78743e-06
2.57841e-06
2.36941e-06
2.1618e-06
1.9569e-06
1.75594e-06
1.55995e-06
1.36968e-06
1.1856e-06
1.00783e-06
8.36136e-07
6.69962e-07
5.08418e-07
3.50311e-07
1.94177e-07
3.3601e-10
1.25887e-12
1.2583e-12
3.35867e-10
1.94103e-07
3.50183e-07
5.08239e-07
6.69734e-07
8.35862e-07
1.00751e-06
1.18525e-06
1.3693e-06
1.55954e-06
1.75553e-06
1.95648e-06
2.16137e-06
2.36899e-06
2.57802e-06
2.78707e-06
2.99476e-06
3.19974e-06
3.40069e-06
3.59632e-06
3.78541e-06
3.96674e-06
4.13916e-06
4.30156e-06
4.45286e-06
4.59208e-06
4.71829e-06
4.83064e-06
4.92839e-06
5.01089e-06
5.07759e-06
5.12803e-06
5.16186e-06
5.17886e-06
5.1789e-06
5.16198e-06
5.12822e-06
5.07785e-06
5.01122e-06
4.92879e-06
4.83111e-06
4.71881e-06
4.59266e-06
4.4535e-06
4.30224e-06
4.13989e-06
3.96751e-06
3.7862e-06
3.59714e-06
3.40152e-06
3.20059e-06
2.99561e-06
2.78792e-06
2.57886e-06
2.36982e-06
2.16217e-06
1.95724e-06
1.75625e-06
1.56021e-06
1.36991e-06
1.1858e-06
1.008e-06
8.36278e-07
6.70076e-07
5.08504e-07
3.5037e-07
1.9421e-07
3.36068e-10
1.25909e-12
1.25841e-12
3.35894e-10
1.94119e-07
3.50212e-07
5.0828e-07
6.69789e-07
8.35931e-07
1.0076e-06
1.18535e-06
1.36941e-06
1.55967e-06
1.75567e-06
1.95664e-06
2.16155e-06
2.36919e-06
2.57823e-06
2.7873e-06
2.99501e-06
3.20001e-06
3.40097e-06
3.59663e-06
3.78573e-06
3.96708e-06
4.13951e-06
4.30192e-06
4.45323e-06
4.59246e-06
4.71868e-06
4.83104e-06
4.9288e-06
5.01131e-06
5.07801e-06
5.12846e-06
5.16229e-06
5.17929e-06
5.17933e-06
5.16241e-06
5.12865e-06
5.07828e-06
5.01164e-06
4.9292e-06
4.83151e-06
4.71921e-06
4.59305e-06
4.45387e-06
4.3026e-06
4.14024e-06
3.96784e-06
3.78652e-06
3.59745e-06
3.40181e-06
3.20086e-06
2.99586e-06
2.78815e-06
2.57907e-06
2.37002e-06
2.16235e-06
1.9574e-06
1.75639e-06
1.56034e-06
1.37003e-06
1.1859e-06
1.00808e-06
8.36347e-07
6.70131e-07
5.08545e-07
3.50399e-07
1.94226e-07
3.36096e-10
1.25919e-12
1.25846e-12
3.35907e-10
1.94126e-07
3.50225e-07
5.083e-07
6.69815e-07
8.35963e-07
1.00763e-06
1.18539e-06
1.36947e-06
1.55973e-06
1.75574e-06
1.95672e-06
2.16164e-06
2.36929e-06
2.57834e-06
2.78741e-06
2.99513e-06
3.20014e-06
3.40111e-06
3.59677e-06
3.78588e-06
3.96723e-06
4.13968e-06
4.30209e-06
4.45341e-06
4.59265e-06
4.71887e-06
4.83124e-06
4.929e-06
5.01151e-06
5.07822e-06
5.12866e-06
5.1625e-06
5.1795e-06
5.17954e-06
5.16261e-06
5.12885e-06
5.07848e-06
5.01184e-06
4.9294e-06
4.8317e-06
4.7194e-06
4.59323e-06
4.45405e-06
4.30278e-06
4.14041e-06
3.968e-06
3.78668e-06
3.59759e-06
3.40195e-06
3.20099e-06
2.99598e-06
2.78826e-06
2.57918e-06
2.37011e-06
2.16244e-06
1.95748e-06
1.75646e-06
1.56041e-06
1.37008e-06
1.18595e-06
1.00812e-06
8.36379e-07
6.70156e-07
5.08565e-07
3.50412e-07
1.94234e-07
3.36109e-10
1.25924e-12
1.25848e-12
3.35913e-10
1.9413e-07
3.50231e-07
5.08309e-07
6.69827e-07
8.35978e-07
1.00765e-06
1.18541e-06
1.36949e-06
1.55976e-06
1.75577e-06
1.95676e-06
2.16168e-06
2.36933e-06
2.57838e-06
2.78746e-06
2.99518e-06
3.20019e-06
3.40117e-06
3.59684e-06
3.78595e-06
3.96731e-06
4.13975e-06
4.30217e-06
4.45349e-06
4.59273e-06
4.71896e-06
4.83133e-06
4.92909e-06
5.0116e-06
5.07831e-06
5.12876e-06
5.1626e-06
5.17959e-06
5.17963e-06
5.16271e-06
5.12895e-06
5.07857e-06
5.01194e-06
4.92949e-06
4.83179e-06
4.71949e-06
4.59332e-06
4.45413e-06
4.30286e-06
4.14048e-06
3.96807e-06
3.78675e-06
3.59766e-06
3.40201e-06
3.20104e-06
2.99604e-06
2.78831e-06
2.57922e-06
2.37015e-06
2.16247e-06
1.95752e-06
1.75649e-06
1.56043e-06
1.37011e-06
1.18597e-06
1.00814e-06
8.36394e-07
6.70168e-07
5.08574e-07
3.50419e-07
1.94237e-07
3.36115e-10
1.25926e-12
1.25849e-12
3.35916e-10
1.94131e-07
3.50234e-07
5.08313e-07
6.69832e-07
8.35984e-07
1.00766e-06
1.18542e-06
1.3695e-06
1.55978e-06
1.75579e-06
1.95677e-06
2.1617e-06
2.36935e-06
2.57841e-06
2.78749e-06
2.99521e-06
3.20022e-06
3.4012e-06
3.59687e-06
3.78598e-06
3.96734e-06
4.13979e-06
4.3022e-06
4.45353e-06
4.59277e-06
4.719e-06
4.83137e-06
4.92913e-06
5.01164e-06
5.07835e-06
5.1288e-06
5.16264e-06
5.17964e-06
5.17968e-06
5.16275e-06
5.12899e-06
5.07861e-06
5.01198e-06
4.92953e-06
4.83183e-06
4.71953e-06
4.59336e-06
4.45417e-06
4.30289e-06
4.14052e-06
3.96811e-06
3.78678e-06
3.59769e-06
3.40204e-06
3.20107e-06
2.99606e-06
2.78834e-06
2.57925e-06
2.37017e-06
2.16249e-06
1.95753e-06
1.75651e-06
1.56045e-06
1.37012e-06
1.18598e-06
1.00815e-06
8.364e-07
6.70173e-07
5.08578e-07
3.50421e-07
1.94239e-07
3.36117e-10
1.25927e-12
1.25849e-12
3.35917e-10
1.94132e-07
3.50235e-07
5.08314e-07
6.69834e-07
8.35987e-07
1.00766e-06
1.18543e-06
1.36951e-06
1.55978e-06
1.75579e-06
1.95678e-06
2.1617e-06
2.36936e-06
2.57842e-06
2.7875e-06
2.99522e-06
3.20023e-06
3.40121e-06
3.59688e-06
3.78599e-06
3.96736e-06
4.1398e-06
4.30222e-06
4.45355e-06
4.59279e-06
4.71901e-06
4.83138e-06
4.92915e-06
5.01166e-06
5.07837e-06
5.12882e-06
5.16266e-06
5.17966e-06
5.17969e-06
5.16277e-06
5.12901e-06
5.07863e-06
5.012e-06
4.92955e-06
4.83185e-06
4.71954e-06
4.59337e-06
4.45419e-06
4.30291e-06
4.14053e-06
3.96812e-06
3.78679e-06
3.5977e-06
3.40205e-06
3.20108e-06
2.99607e-06
2.78835e-06
2.57926e-06
2.37018e-06
2.1625e-06
1.95754e-06
1.75651e-06
1.56045e-06
1.37012e-06
1.18598e-06
1.00815e-06
8.36403e-07
6.70176e-07
5.0858e-07
3.50423e-07
1.94239e-07
3.36118e-10
1.25928e-12
1.25849e-12
3.35918e-10
1.94132e-07
3.50236e-07
5.08315e-07
6.69835e-07
8.35988e-07
1.00767e-06
1.18543e-06
1.36951e-06
1.55978e-06
1.7558e-06
1.95678e-06
2.16171e-06
2.36936e-06
2.57842e-06
2.7875e-06
2.99522e-06
3.20024e-06
3.40122e-06
3.59688e-06
3.786e-06
3.96736e-06
4.13981e-06
4.30223e-06
4.45356e-06
4.59279e-06
4.71902e-06
4.83139e-06
4.92916e-06
5.01167e-06
5.07838e-06
5.12883e-06
5.16267e-06
5.17966e-06
5.1797e-06
5.16278e-06
5.12902e-06
5.07864e-06
5.012e-06
4.92956e-06
4.83186e-06
4.71955e-06
4.59338e-06
4.45419e-06
4.30291e-06
4.14054e-06
3.96813e-06
3.7868e-06
3.59771e-06
3.40206e-06
3.20109e-06
2.99608e-06
2.78835e-06
2.57926e-06
2.37018e-06
2.1625e-06
1.95754e-06
1.75652e-06
1.56045e-06
1.37012e-06
1.18598e-06
1.00815e-06
8.36404e-07
6.70177e-07
5.0858e-07
3.50423e-07
1.94239e-07
3.36119e-10
1.25928e-12
1.25849e-12
3.35918e-10
1.94132e-07
3.50236e-07
5.08315e-07
6.69835e-07
8.35989e-07
1.00767e-06
1.18543e-06
1.36951e-06
1.55978e-06
1.7558e-06
1.95678e-06
2.16171e-06
2.36936e-06
2.57842e-06
2.7875e-06
2.99523e-06
3.20024e-06
3.40122e-06
3.59689e-06
3.786e-06
3.96736e-06
4.13981e-06
4.30223e-06
4.45356e-06
4.5928e-06
4.71902e-06
4.83139e-06
4.92916e-06
5.01167e-06
5.07838e-06
5.12883e-06
5.16267e-06
5.17967e-06
5.17971e-06
5.16278e-06
5.12902e-06
5.07864e-06
5.01201e-06
4.92956e-06
4.83186e-06
4.71955e-06
4.59338e-06
4.4542e-06
4.30292e-06
4.14054e-06
3.96813e-06
3.7868e-06
3.59771e-06
3.40206e-06
3.20109e-06
2.99608e-06
2.78835e-06
2.57926e-06
2.37019e-06
2.1625e-06
1.95754e-06
1.75652e-06
1.56045e-06
1.37012e-06
1.18598e-06
1.00815e-06
8.36405e-07
6.70177e-07
5.08581e-07
3.50423e-07
1.9424e-07
3.36119e-10
1.25928e-12
1.25849e-12
3.35918e-10
1.94132e-07
3.50236e-07
5.08316e-07
6.69836e-07
8.35989e-07
1.00767e-06
1.18543e-06
1.36951e-06
1.55978e-06
1.7558e-06
1.95678e-06
2.16171e-06
2.36936e-06
2.57842e-06
2.7875e-06
2.99523e-06
3.20024e-06
3.40122e-06
3.59689e-06
3.786e-06
3.96737e-06
4.13981e-06
4.30223e-06
4.45356e-06
4.5928e-06
4.71903e-06
4.8314e-06
4.92916e-06
5.01168e-06
5.07838e-06
5.12883e-06
5.16267e-06
5.17967e-06
5.17971e-06
5.16279e-06
5.12902e-06
5.07865e-06
5.01201e-06
4.92956e-06
4.83186e-06
4.71955e-06
4.59339e-06
4.4542e-06
4.30292e-06
4.14054e-06
3.96813e-06
3.7868e-06
3.59771e-06
3.40206e-06
3.20109e-06
2.99608e-06
2.78835e-06
2.57926e-06
2.37019e-06
2.16251e-06
1.95754e-06
1.75652e-06
1.56046e-06
1.37013e-06
1.18598e-06
1.00815e-06
8.36405e-07
6.70177e-07
5.08581e-07
3.50423e-07
1.9424e-07
3.36119e-10
1.25928e-12
1.25849e-12
3.35918e-10
1.94132e-07
3.50236e-07
5.08316e-07
6.69836e-07
8.35989e-07
1.00767e-06
1.18543e-06
1.36951e-06
1.55978e-06
1.7558e-06
1.95678e-06
2.16171e-06
2.36937e-06
2.57842e-06
2.7875e-06
2.99523e-06
3.20024e-06
3.40122e-06
3.59689e-06
3.786e-06
3.96737e-06
4.13981e-06
4.30223e-06
4.45356e-06
4.5928e-06
4.71903e-06
4.8314e-06
4.92916e-06
5.01168e-06
5.07838e-06
5.12883e-06
5.16267e-06
5.17967e-06
5.17971e-06
5.16279e-06
5.12902e-06
5.07865e-06
5.01201e-06
4.92956e-06
4.83186e-06
4.71955e-06
4.59339e-06
4.4542e-06
4.30292e-06
4.14054e-06
3.96813e-06
3.7868e-06
3.59771e-06
3.40206e-06
3.20109e-06
2.99608e-06
2.78835e-06
2.57926e-06
2.37019e-06
2.16251e-06
1.95754e-06
1.75652e-06
1.56046e-06
1.37013e-06
1.18599e-06
1.00815e-06
8.36405e-07
6.70177e-07
5.08581e-07
3.50423e-07
1.9424e-07
3.36119e-10
1.25928e-12
1.25849e-12
3.35918e-10
1.94132e-07
3.50236e-07
5.08316e-07
6.69836e-07
8.35989e-07
1.00767e-06
1.18543e-06
1.36951e-06
1.55978e-06
1.7558e-06
1.95678e-06
2.16171e-06
2.36937e-06
2.57842e-06
2.7875e-06
2.99523e-06
3.20024e-06
3.40122e-06
3.59689e-06
3.786e-06
3.96737e-06
4.13981e-06
4.30223e-06
4.45356e-06
4.5928e-06
4.71903e-06
4.8314e-06
4.92916e-06
5.01168e-06
5.07838e-06
5.12883e-06
5.16267e-06
5.17967e-06
5.17971e-06
5.16279e-06
5.12902e-06
5.07865e-06
5.01201e-06
4.92956e-06
4.83186e-06
4.71955e-06
4.59339e-06
4.4542e-06
4.30292e-06
4.14054e-06
3.96813e-06
3.7868e-06
3.59771e-06
3.40206e-06
3.20109e-06
2.99608e-06
2.78835e-06
2.57926e-06
2.37019e-06
2.16251e-06
1.95754e-06
1.75652e-06
1.56046e-06
1.37013e-06
1.18599e-06
1.00815e-06
8.36405e-07
6.70177e-07
5.08581e-07
3.50423e-07
1.9424e-07
3.36119e-10
1.25928e-12
1.25849e-12
3.35918e-10
1.94132e-07
3.50236e-07
5.08316e-07
6.69836e-07
8.35989e-07
1.00767e-06
1.18543e-06
1.36951e-06
1.55978e-06
1.7558e-06
1.95678e-06
2.16171e-06
2.36937e-06
2.57842e-06
2.7875e-06
2.99523e-06
3.20024e-06
3.40122e-06
3.59689e-06
3.786e-06
3.96737e-06
4.13981e-06
4.30223e-06
4.45356e-06
4.5928e-06
4.71903e-06
4.8314e-06
4.92916e-06
5.01168e-06
5.07839e-06
5.12883e-06
5.16267e-06
5.17967e-06
5.17971e-06
5.16279e-06
5.12902e-06
5.07865e-06
5.01201e-06
4.92956e-06
4.83186e-06
4.71955e-06
4.59339e-06
4.4542e-06
4.30292e-06
4.14054e-06
3.96813e-06
3.7868e-06
3.59771e-06
3.40206e-06
3.20109e-06
2.99608e-06
2.78835e-06
2.57926e-06
2.37019e-06
2.16251e-06
1.95754e-06
1.75652e-06
1.56046e-06
1.37013e-06
1.18599e-06
1.00815e-06
8.36405e-07
6.70177e-07
5.08581e-07
3.50423e-07
1.9424e-07
3.36119e-10
1.25928e-12
1.25849e-12
3.35918e-10
1.94132e-07
3.50236e-07
5.08316e-07
6.69836e-07
8.35989e-07
1.00767e-06
1.18543e-06
1.36951e-06
1.55978e-06
1.7558e-06
1.95678e-06
2.16171e-06
2.36937e-06
2.57842e-06
2.7875e-06
2.99523e-06
3.20024e-06
3.40122e-06
3.59689e-06
3.786e-06
3.96737e-06
4.13981e-06
4.30223e-06
4.45356e-06
4.5928e-06
4.71903e-06
4.8314e-06
4.92916e-06
5.01168e-06
5.07839e-06
5.12883e-06
5.16267e-06
5.17967e-06
5.17971e-06
5.16279e-06
5.12902e-06
5.07865e-06
5.01201e-06
4.92956e-06
4.83186e-06
4.71955e-06
4.59339e-06
4.4542e-06
4.30292e-06
4.14054e-06
3.96813e-06
3.7868e-06
3.59771e-06
3.40206e-06
3.20109e-06
2.99608e-06
2.78835e-06
2.57926e-06
2.37019e-06
2.16251e-06
1.95754e-06
1.75652e-06
1.56046e-06
1.37013e-06
1.18599e-06
1.00815e-06
8.36405e-07
6.70177e-07
5.08581e-07
3.50423e-07
1.9424e-07
3.36119e-10
1.25928e-12
1.25849e-12
3.35918e-10
1.94132e-07
3.50236e-07
5.08316e-07
6.69836e-07
8.35989e-07
1.00767e-06
1.18543e-06
1.36951e-06
1.55978e-06
1.7558e-06
1.95678e-06
2.16171e-06
2.36937e-06
2.57842e-06
2.7875e-06
2.99523e-06
3.20024e-06