/*--------------------------------*- C++ -*----------------------------------*\
  =========                 |
  \\      /  F ield         | OpenFOAM: The Open Source CFD Toolbox
   \\    /   O peration     | Website:  https://openfoam.org
    \\  /    A nd           | Version:  13
     \\/     M anipulation  |
\*---------------------------------------------------------------------------*/
FoamFile
{
    format      ascii;
    class       volScalarField;
    location    "145";
    object      rhok;
}
// * * * * * * * * * * * * * * * * * * * * * * * * * * * * * * * * * * * * * //

dimensions      [];

internalField   nonuniform List<scalar> 
315000
(
0.444625
0.429754
0.41486
0.413435
0.41269
0.411946
0.411205
0.410467
0.409731
0.408998
0.408268
0.407541
0.406816
0.406094
0.405375
0.40466
0.403947
0.403237
0.40253
0.401826
0.401126
0.400428
0.399734
0.399043
0.398355
0.39767
0.396988
0.39631
0.395635
0.394964
0.394295
0.39363
0.392968
0.392309
0.391653
0.391001
0.390352
0.389706
0.389063
0.388423
0.387786
0.387152
0.386521
0.385893
0.385267
0.384645
0.384025
0.383407
0.382792
0.38218
0.38157
0.380962
0.380357
0.379753
0.379152
0.378552
0.377954
0.377358
0.376764
0.37617
0.375579
0.374988
0.374398
0.37381
0.373222
0.372635
0.372049
0.371463
0.370877
0.370292
0.444625
0.429752
0.414857
0.413433
0.412687
0.411943
0.411202
0.410464
0.409728
0.408995
0.408265
0.407537
0.406813
0.406091
0.405372
0.404656
0.403943
0.403233
0.402526
0.401823
0.401122
0.400424
0.39973
0.399039
0.398351
0.397666
0.396985
0.396307
0.395632
0.39496
0.394291
0.393626
0.392964
0.392305
0.39165
0.390998
0.390348
0.389702
0.389059
0.388419
0.387783
0.387149
0.386518
0.38589
0.385264
0.384642
0.384022
0.383405
0.38279
0.382178
0.381568
0.38096
0.380355
0.379751
0.37915
0.37855
0.377953
0.377357
0.376762
0.376169
0.375577
0.374987
0.374398
0.373809
0.373222
0.372635
0.372048
0.371463
0.370877
0.370292
0.444625
0.429751
0.414855
0.41343
0.412684
0.411941
0.4112
0.410461
0.409726
0.408992
0.408262
0.407535
0.40681
0.406088
0.405369
0.404653
0.40394
0.40323
0.402523
0.401819
0.401119
0.400421
0.399727
0.399036
0.398348
0.397663
0.396982
0.396303
0.395628
0.394957
0.394288
0.393623
0.392961
0.392302
0.391647
0.390995
0.390345
0.389699
0.389056
0.388417
0.38778
0.387146
0.386515
0.385887
0.385262
0.384639
0.384019
0.383402
0.382788
0.382175
0.381566
0.380958
0.380353
0.379749
0.379148
0.378549
0.377951
0.377355
0.376761
0.376168
0.375576
0.374986
0.374397
0.373808
0.373221
0.372634
0.372048
0.371462
0.370877
0.370292
0.444625
0.42975
0.414853
0.413428
0.412682
0.411938
0.411197
0.410459
0.409723
0.40899
0.40826
0.407532
0.406807
0.406085
0.405367
0.40465
0.403937
0.403228
0.402521
0.401817
0.401116
0.400419
0.399724
0.399033
0.398345
0.39766
0.396979
0.396301
0.395626
0.394954
0.394286
0.39362
0.392958
0.3923
0.391644
0.390992
0.390343
0.389697
0.389054
0.388414
0.387777
0.387144
0.386513
0.385885
0.385259
0.384637
0.384017
0.3834
0.382786
0.382173
0.381564
0.380956
0.380351
0.379748
0.379147
0.378547
0.37795
0.377354
0.37676
0.376167
0.375575
0.374985
0.374396
0.373808
0.37322
0.372634
0.372048
0.371462
0.370877
0.370292
0.444625
0.429749
0.414851
0.413426
0.41268
0.411936
0.411195
0.410457
0.409721
0.408988
0.408258
0.40753
0.406805
0.406083
0.405364
0.404648
0.403935
0.403225
0.402518
0.401814
0.401114
0.400416
0.399722
0.399031
0.398343
0.397658
0.396977
0.396298
0.395623
0.394952
0.394283
0.393618
0.392956
0.392297
0.391642
0.39099
0.390341
0.389695
0.389052
0.388412
0.387775
0.387141
0.386511
0.385883
0.385258
0.384635
0.384016
0.383398
0.382784
0.382172
0.381562
0.380955
0.380349
0.379746
0.379145
0.378546
0.377949
0.377353
0.376759
0.376166
0.375574
0.374984
0.374395
0.373807
0.37322
0.372633
0.372047
0.371462
0.370877
0.370292
0.444625
0.429748
0.41485
0.413425
0.412679
0.411935
0.411194
0.410455
0.409719
0.408986
0.408256
0.407528
0.406803
0.406082
0.405363
0.404647
0.403933
0.403223
0.402516
0.401813
0.401112
0.400414
0.39972
0.399029
0.398341
0.397656
0.396975
0.396296
0.395621
0.39495
0.394281
0.393616
0.392954
0.392296
0.39164
0.390988
0.390339
0.389693
0.38905
0.38841
0.387774
0.38714
0.386509
0.385881
0.385256
0.384634
0.384014
0.383397
0.382783
0.382171
0.381561
0.380954
0.380348
0.379745
0.379144
0.378545
0.377948
0.377352
0.376758
0.376165
0.375574
0.374984
0.374395
0.373807
0.373219
0.372633
0.372047
0.371462
0.370876
0.370292
0.444625
0.429748
0.414849
0.413424
0.412677
0.411934
0.411193
0.410454
0.409718
0.408985
0.408255
0.407527
0.406802
0.40608
0.405361
0.404645
0.403932
0.403222
0.402515
0.401811
0.401111
0.400413
0.399719
0.399027
0.398339
0.397655
0.396973
0.396295
0.39562
0.394948
0.39428
0.393615
0.392953
0.392294
0.391639
0.390987
0.390337
0.389692
0.389049
0.388409
0.387772
0.387139
0.386508
0.38588
0.385255
0.384633
0.384013
0.383396
0.382782
0.38217
0.38156
0.380953
0.380347
0.379744
0.379143
0.378544
0.377947
0.377351
0.376757
0.376165
0.375573
0.374983
0.374394
0.373806
0.373219
0.372633
0.372047
0.371461
0.370876
0.370292
0.444625
0.429748
0.414848
0.413423
0.412677
0.411933
0.411192
0.410453
0.409717
0.408984
0.408254
0.407526
0.406801
0.406079
0.40536
0.404644
0.403931
0.403221
0.402514
0.40181
0.40111
0.400412
0.399718
0.399026
0.398338
0.397654
0.396972
0.396294
0.395619
0.394947
0.394279
0.393614
0.392952
0.392293
0.391638
0.390986
0.390336
0.389691
0.389048
0.388408
0.387771
0.387138
0.386507
0.385879
0.385254
0.384632
0.384012
0.383395
0.382781
0.382169
0.381559
0.380952
0.380347
0.379744
0.379143
0.378544
0.377946
0.377351
0.376757
0.376164
0.375573
0.374983
0.374394
0.373806
0.373219
0.372633
0.372047
0.371461
0.370876
0.370292
0.444625
0.429747
0.414848
0.413422
0.412676
0.411932
0.411191
0.410453
0.409717
0.408984
0.408253
0.407526
0.406801
0.406079
0.40536
0.404644
0.403931
0.40322
0.402514
0.40181
0.401109
0.400411
0.399717
0.399026
0.398338
0.397653
0.396972
0.396293
0.395618
0.394947
0.394278
0.393613
0.392951
0.392293
0.391637
0.390985
0.390336
0.38969
0.389047
0.388407
0.387771
0.387137
0.386506
0.385878
0.385253
0.384631
0.384012
0.383395
0.38278
0.382168
0.381559
0.380951
0.380346
0.379743
0.379142
0.378543
0.377946
0.37735
0.376756
0.376164
0.375573
0.374983
0.374394
0.373806
0.373219
0.372632
0.372047
0.371461
0.370876
0.370292
0.444625
0.429747
0.414847
0.413422
0.412676
0.411932
0.411191
0.410453
0.409717
0.408983
0.408253
0.407525
0.4068
0.406078
0.405359
0.404643
0.40393
0.40322
0.402513
0.401809
0.401109
0.400411
0.399717
0.399025
0.398337
0.397653
0.396971
0.396293
0.395618
0.394946
0.394278
0.393613
0.392951
0.392292
0.391637
0.390984
0.390335
0.38969
0.389047
0.388407
0.38777
0.387137
0.386506
0.385878
0.385253
0.384631
0.384011
0.383394
0.38278
0.382168
0.381558
0.380951
0.380346
0.379743
0.379142
0.378543
0.377946
0.37735
0.376756
0.376164
0.375573
0.374983
0.374394
0.373806
0.373219
0.372632
0.372047
0.371461
0.370876
0.370292
0.444625
0.429747
0.414847
0.413422
0.412676
0.411932
0.411191
0.410452
0.409717
0.408983
0.408253
0.407525
0.4068
0.406078
0.405359
0.404643
0.40393
0.40322
0.402513
0.401809
0.401108
0.400411
0.399716
0.399025
0.398337
0.397652
0.396971
0.396293
0.395618
0.394946
0.394278
0.393613
0.392951
0.392292
0.391637
0.390984
0.390335
0.389689
0.389047
0.388407
0.38777
0.387137
0.386506
0.385878
0.385253
0.384631
0.384011
0.383394
0.38278
0.382168
0.381558
0.380951
0.380346
0.379743
0.379142
0.378543
0.377946
0.37735
0.376756
0.376164
0.375572
0.374982
0.374394
0.373806
0.373219
0.372632
0.372047
0.371461
0.370876
0.370292
0.444625
0.429747
0.414847
0.413422
0.412676
0.411932
0.411191
0.410453
0.409717
0.408983
0.408253
0.407525
0.4068
0.406078
0.405359
0.404643
0.40393
0.40322
0.402513
0.401809
0.401108
0.400411
0.399716
0.399025
0.398337
0.397652
0.396971
0.396293
0.395618
0.394946
0.394278
0.393613
0.392951
0.392292
0.391637
0.390984
0.390335
0.389689
0.389047
0.388407
0.38777
0.387136
0.386506
0.385878
0.385253
0.384631
0.384011
0.383394
0.38278
0.382168
0.381558
0.380951
0.380346
0.379743
0.379142
0.378543
0.377946
0.37735
0.376756
0.376164
0.375572
0.374982
0.374394
0.373806
0.373219
0.372632
0.372047
0.371461
0.370876
0.370292
0.444625
0.429747
0.414848
0.413422
0.412676
0.411932
0.411191
0.410453
0.409717
0.408984
0.408253
0.407525
0.4068
0.406079
0.405359
0.404643
0.40393
0.40322
0.402513
0.401809
0.401109
0.400411
0.399717
0.399025
0.398337
0.397653
0.396971
0.396293
0.395618
0.394946
0.394278
0.393613
0.392951
0.392292
0.391637
0.390984
0.390335
0.389689
0.389047
0.388407
0.38777
0.387137
0.386506
0.385878
0.385253
0.384631
0.384011
0.383394
0.38278
0.382168
0.381558
0.380951
0.380346
0.379743
0.379142
0.378543
0.377946
0.37735
0.376756
0.376164
0.375572
0.374982
0.374394
0.373806
0.373219
0.372632
0.372047
0.371461
0.370876
0.370292
0.444625
0.429747
0.414848
0.413422
0.412676
0.411933
0.411191
0.410453
0.409717
0.408984
0.408253
0.407526
0.406801
0.406079
0.40536
0.404644
0.40393
0.40322
0.402513
0.40181
0.401109
0.400411
0.399717
0.399026
0.398338
0.397653
0.396971
0.396293
0.395618
0.394946
0.394278
0.393613
0.392951
0.392292
0.391637
0.390984
0.390335
0.38969
0.389047
0.388407
0.38777
0.387137
0.386506
0.385878
0.385253
0.384631
0.384011
0.383394
0.38278
0.382168
0.381558
0.380951
0.380346
0.379743
0.379142
0.378543
0.377946
0.37735
0.376756
0.376164
0.375572
0.374982
0.374394
0.373806
0.373219
0.372632
0.372047
0.371461
0.370876
0.370292
0.444625
0.429747
0.414848
0.413423
0.412676
0.411933
0.411192
0.410453
0.409717
0.408984
0.408253
0.407526
0.406801
0.406079
0.40536
0.404644
0.403931
0.403221
0.402514
0.40181
0.401109
0.400411
0.399717
0.399026
0.398338
0.397653
0.396972
0.396293
0.395618
0.394947
0.394278
0.393613
0.392951
0.392292
0.391637
0.390985
0.390336
0.38969
0.389047
0.388407
0.387771
0.387137
0.386506
0.385878
0.385253
0.384631
0.384011
0.383394
0.38278
0.382168
0.381558
0.380951
0.380346
0.379743
0.379142
0.378543
0.377946
0.37735
0.376756
0.376164
0.375573
0.374983
0.374394
0.373806
0.373219
0.372632
0.372047
0.371461
0.370876
0.370292
0.444625
0.429748
0.414848
0.413423
0.412677
0.411933
0.411192
0.410453
0.409717
0.408984
0.408254
0.407526
0.406801
0.406079
0.40536
0.404644
0.403931
0.403221
0.402514
0.40181
0.401109
0.400412
0.399717
0.399026
0.398338
0.397653
0.396972
0.396294
0.395619
0.394947
0.394278
0.393613
0.392951
0.392293
0.391637
0.390985
0.390336
0.38969
0.389047
0.388407
0.387771
0.387137
0.386506
0.385878
0.385253
0.384631
0.384012
0.383395
0.38278
0.382168
0.381559
0.380951
0.380346
0.379743
0.379142
0.378543
0.377946
0.37735
0.376756
0.376164
0.375573
0.374983
0.374394
0.373806
0.373219
0.372632
0.372047
0.371461
0.370876
0.370292
0.444625
0.429748
0.414849
0.413423
0.412677
0.411933
0.411192
0.410454
0.409718
0.408985
0.408254
0.407526
0.406802
0.40608
0.405361
0.404645
0.403931
0.403221
0.402514
0.40181
0.40111
0.400412
0.399718
0.399026
0.398338
0.397654
0.396972
0.396294
0.395619
0.394947
0.394279
0.393614
0.392952
0.392293
0.391638
0.390985
0.390336
0.38969
0.389048
0.388408
0.387771
0.387137
0.386507
0.385879
0.385254
0.384631
0.384012
0.383395
0.38278
0.382168
0.381559
0.380952
0.380346
0.379743
0.379143
0.378543
0.377946
0.377351
0.376757
0.376164
0.375573
0.374983
0.374394
0.373806
0.373219
0.372632
0.372047
0.371461
0.370876
0.370292
0.444625
0.429748
0.414849
0.413424
0.412677
0.411934
0.411193
0.410454
0.409718
0.408985
0.408255
0.407527
0.406802
0.40608
0.405361
0.404645
0.403932
0.403222
0.402515
0.401811
0.40111
0.400413
0.399718
0.399027
0.398339
0.397654
0.396973
0.396294
0.395619
0.394948
0.394279
0.393614
0.392952
0.392294
0.391638
0.390986
0.390337
0.389691
0.389048
0.388408
0.387771
0.387138
0.386507
0.385879
0.385254
0.384632
0.384012
0.383395
0.382781
0.382169
0.381559
0.380952
0.380347
0.379744
0.379143
0.378544
0.377946
0.377351
0.376757
0.376164
0.375573
0.374983
0.374394
0.373806
0.373219
0.372632
0.372047
0.371461
0.370876
0.370292
0.444625
0.429748
0.414849
0.413424
0.412678
0.411934
0.411193
0.410455
0.409719
0.408986
0.408255
0.407528
0.406803
0.406081
0.405362
0.404646
0.403933
0.403222
0.402515
0.401812
0.401111
0.400413
0.399719
0.399028
0.39834
0.397655
0.396973
0.396295
0.39562
0.394948
0.39428
0.393615
0.392953
0.392294
0.391639
0.390986
0.390337
0.389691
0.389048
0.388409
0.387772
0.387138
0.386507
0.38588
0.385254
0.384632
0.384013
0.383396
0.382781
0.382169
0.381559
0.380952
0.380347
0.379744
0.379143
0.378544
0.377947
0.377351
0.376757
0.376164
0.375573
0.374983
0.374394
0.373806
0.373219
0.372633
0.372047
0.371461
0.370876
0.370292
0.444625
0.429749
0.41485
0.413425
0.412679
0.411935
0.411194
0.410455
0.40972
0.408986
0.408256
0.407528
0.406803
0.406081
0.405362
0.404646
0.403933
0.403223
0.402516
0.401812
0.401112
0.400414
0.39972
0.399028
0.39834
0.397656
0.396974
0.396296
0.395621
0.394949
0.394281
0.393615
0.392953
0.392295
0.391639
0.390987
0.390338
0.389692
0.389049
0.388409
0.387772
0.387139
0.386508
0.38588
0.385255
0.384633
0.384013
0.383396
0.382781
0.382169
0.38156
0.380952
0.380347
0.379744
0.379143
0.378544
0.377947
0.377351
0.376757
0.376164
0.375573
0.374983
0.374394
0.373806
0.373219
0.372633
0.372047
0.371461
0.370876
0.370292
0.444625
0.429749
0.414851
0.413425
0.412679
0.411936
0.411195
0.410456
0.40972
0.408987
0.408257
0.407529
0.406804
0.406082
0.405363
0.404647
0.403934
0.403224
0.402517
0.401813
0.401112
0.400415
0.39972
0.399029
0.398341
0.397656
0.396975
0.396296
0.395621
0.39495
0.394281
0.393616
0.392954
0.392295
0.39164
0.390988
0.390338
0.389692
0.38905
0.38841
0.387773
0.387139
0.386508
0.38588
0.385255
0.384633
0.384013
0.383396
0.382782
0.38217
0.38156
0.380953
0.380348
0.379745
0.379144
0.378544
0.377947
0.377351
0.376757
0.376165
0.375573
0.374983
0.374394
0.373806
0.373219
0.372633
0.372047
0.371461
0.370876
0.370292
0.444625
0.429749
0.414851
0.413426
0.41268
0.411936
0.411195
0.410457
0.409721
0.408988
0.408257
0.40753
0.406805
0.406083
0.405364
0.404648
0.403935
0.403225
0.402518
0.401814
0.401113
0.400416
0.399721
0.39903
0.398342
0.397657
0.396976
0.396297
0.395622
0.39495
0.394282
0.393617
0.392955
0.392296
0.39164
0.390988
0.390339
0.389693
0.38905
0.38841
0.387774
0.38714
0.386509
0.385881
0.385256
0.384634
0.384014
0.383397
0.382782
0.38217
0.381561
0.380953
0.380348
0.379745
0.379144
0.378545
0.377947
0.377352
0.376758
0.376165
0.375574
0.374983
0.374394
0.373806
0.373219
0.372633
0.372047
0.371462
0.370876
0.370292
0.444625
0.42975
0.414852
0.413427
0.412681
0.411937
0.411196
0.410458
0.409722
0.408989
0.408258
0.407531
0.406806
0.406084
0.405365
0.404649
0.403936
0.403226
0.402519
0.401815
0.401114
0.400416
0.399722
0.399031
0.398343
0.397658
0.396976
0.396298
0.395623
0.394951
0.394283
0.393617
0.392955
0.392297
0.391641
0.390989
0.39034
0.389694
0.389051
0.388411
0.387774
0.38714
0.38651
0.385882
0.385256
0.384634
0.384014
0.383397
0.382783
0.382171
0.381561
0.380954
0.380348
0.379745
0.379144
0.378545
0.377948
0.377352
0.376758
0.376165
0.375574
0.374984
0.374395
0.373807
0.373219
0.372633
0.372047
0.371462
0.370876
0.370292
0.444625
0.42975
0.414853
0.413428
0.412682
0.411938
0.411197
0.410458
0.409723
0.408989
0.408259
0.407531
0.406807
0.406085
0.405366
0.40465
0.403937
0.403226
0.402519
0.401816
0.401115
0.400417
0.399723
0.399031
0.398343
0.397659
0.396977
0.396299
0.395624
0.394952
0.394283
0.393618
0.392956
0.392297
0.391642
0.39099
0.39034
0.389694
0.389051
0.388412
0.387775
0.387141
0.38651
0.385882
0.385257
0.384635
0.384015
0.383398
0.382783
0.382171
0.381561
0.380954
0.380349
0.379746
0.379145
0.378545
0.377948
0.377352
0.376758
0.376165
0.375574
0.374984
0.374395
0.373807
0.37322
0.372633
0.372047
0.371462
0.370877
0.370292
0.444625
0.42975
0.414853
0.413428
0.412682
0.411939
0.411198
0.410459
0.409723
0.40899
0.40826
0.407532
0.406807
0.406085
0.405366
0.40465
0.403937
0.403227
0.40252
0.401816
0.401116
0.400418
0.399724
0.399032
0.398344
0.397659
0.396978
0.3963
0.395624
0.394953
0.394284
0.393619
0.392957
0.392298
0.391643
0.39099
0.390341
0.389695
0.389052
0.388412
0.387775
0.387142
0.386511
0.385883
0.385257
0.384635
0.384015
0.383398
0.382784
0.382172
0.381562
0.380954
0.380349
0.379746
0.379145
0.378546
0.377948
0.377352
0.376758
0.376166
0.375574
0.374984
0.374395
0.373807
0.37322
0.372633
0.372047
0.371462
0.370877
0.370292
0.444625
0.429751
0.414854
0.413429
0.412683
0.411939
0.411198
0.41046
0.409724
0.408991
0.408261
0.407533
0.406808
0.406086
0.405367
0.404651
0.403938
0.403228
0.402521
0.401817
0.401116
0.400419
0.399724
0.399033
0.398345
0.39766
0.396979
0.3963
0.395625
0.394953
0.394285
0.39362
0.392958
0.392299
0.391643
0.390991
0.390342
0.389696
0.389053
0.388413
0.387776
0.387142
0.386511
0.385883
0.385258
0.384636
0.384016
0.383399
0.382784
0.382172
0.381562
0.380955
0.380349
0.379746
0.379145
0.378546
0.377948
0.377353
0.376759
0.376166
0.375574
0.374984
0.374395
0.373807
0.37322
0.372633
0.372047
0.371462
0.370877
0.370292
0.444625
0.429751
0.414855
0.41343
0.412684
0.41194
0.411199
0.410461
0.409725
0.408992
0.408261
0.407534
0.406809
0.406087
0.405368
0.404652
0.403939
0.403229
0.402522
0.401818
0.401117
0.400419
0.399725
0.399034
0.398346
0.397661
0.396979
0.396301
0.395626
0.394954
0.394286
0.39362
0.392958
0.392299
0.391644
0.390991
0.390342
0.389696
0.389053
0.388413
0.387776
0.387143
0.386512
0.385884
0.385258
0.384636
0.384016
0.383399
0.382784
0.382172
0.381563
0.380955
0.38035
0.379747
0.379145
0.378546
0.377949
0.377353
0.376759
0.376166
0.375575
0.374984
0.374395
0.373807
0.37322
0.372633
0.372047
0.371462
0.370877
0.370292
0.444625
0.429751
0.414855
0.41343
0.412684
0.411941
0.4112
0.410461
0.409725
0.408992
0.408262
0.407534
0.40681
0.406088
0.405369
0.404653
0.40394
0.403229
0.402522
0.401819
0.401118
0.40042
0.399726
0.399034
0.398346
0.397662
0.39698
0.396302
0.395627
0.394955
0.394286
0.393621
0.392959
0.3923
0.391644
0.390992
0.390343
0.389697
0.389054
0.388414
0.387777
0.387143
0.386512
0.385884
0.385259
0.384636
0.384017
0.383399
0.382785
0.382173
0.381563
0.380955
0.38035
0.379747
0.379146
0.378546
0.377949
0.377353
0.376759
0.376166
0.375575
0.374985
0.374395
0.373807
0.37322
0.372633
0.372047
0.371462
0.370877
0.370292
0.444625
0.429752
0.414856
0.413431
0.412685
0.411941
0.4112
0.410462
0.409726
0.408993
0.408263
0.407535
0.40681
0.406088
0.405369
0.404653
0.40394
0.40323
0.402523
0.401819
0.401118
0.400421
0.399726
0.399035
0.398347
0.397662
0.396981
0.396302
0.395627
0.394955
0.394287
0.393621
0.392959
0.392301
0.391645
0.390993
0.390343
0.389697
0.389054
0.388414
0.387777
0.387144
0.386513
0.385885
0.385259
0.384637
0.384017
0.3834
0.382785
0.382173
0.381563
0.380956
0.38035
0.379747
0.379146
0.378547
0.377949
0.377353
0.376759
0.376166
0.375575
0.374985
0.374396
0.373807
0.37322
0.372633
0.372047
0.371462
0.370877
0.370292
0.444625
0.429752
0.414856
0.413431
0.412685
0.411942
0.411201
0.410462
0.409727
0.408994
0.408263
0.407536
0.406811
0.406089
0.40537
0.404654
0.403941
0.403231
0.402524
0.40182
0.401119
0.400421
0.399727
0.399036
0.398348
0.397663
0.396981
0.396303
0.395628
0.394956
0.394287
0.393622
0.39296
0.392301
0.391645
0.390993
0.390344
0.389698
0.389055
0.388415
0.387778
0.387144
0.386513
0.385885
0.38526
0.384637
0.384017
0.3834
0.382785
0.382173
0.381564
0.380956
0.380351
0.379747
0.379146
0.378547
0.377949
0.377354
0.376759
0.376166
0.375575
0.374985
0.374396
0.373807
0.37322
0.372633
0.372047
0.371462
0.370877
0.370292
0.444625
0.429752
0.414857
0.413432
0.412686
0.411942
0.411201
0.410463
0.409727
0.408994
0.408264
0.407536
0.406811
0.406089
0.40537
0.404654
0.403941
0.403231
0.402524
0.40182
0.40112
0.400422
0.399727
0.399036
0.398348
0.397663
0.396982
0.396303
0.395628
0.394956
0.394288
0.393622
0.39296
0.392302
0.391646
0.390993
0.390344
0.389698
0.389055
0.388415
0.387778
0.387144
0.386513
0.385885
0.38526
0.384637
0.384018
0.3834
0.382786
0.382174
0.381564
0.380956
0.380351
0.379748
0.379146
0.378547
0.37795
0.377354
0.376759
0.376167
0.375575
0.374985
0.374396
0.373808
0.37322
0.372634
0.372048
0.371462
0.370877
0.370292
0.444625
0.429752
0.414857
0.413432
0.412686
0.411943
0.411202
0.410463
0.409728
0.408994
0.408264
0.407537
0.406812
0.40609
0.405371
0.404655
0.403942
0.403232
0.402525
0.401821
0.40112
0.400422
0.399728
0.399037
0.398349
0.397664
0.396982
0.396304
0.395629
0.394957
0.394288
0.393623
0.392961
0.392302
0.391646
0.390994
0.390345
0.389698
0.389055
0.388415
0.387779
0.387145
0.386514
0.385886
0.38526
0.384638
0.384018
0.383401
0.382786
0.382174
0.381564
0.380956
0.380351
0.379748
0.379147
0.378547
0.37795
0.377354
0.37676
0.376167
0.375575
0.374985
0.374396
0.373808
0.37322
0.372634
0.372048
0.371462
0.370877
0.370292
0.444625
0.429752
0.414857
0.413432
0.412687
0.411943
0.411202
0.410464
0.409728
0.408995
0.408264
0.407537
0.406812
0.40609
0.405371
0.404655
0.403942
0.403232
0.402525
0.401821
0.40112
0.400423
0.399728
0.399037
0.398349
0.397664
0.396982
0.396304
0.395629
0.394957
0.394289
0.393623
0.392961
0.392302
0.391647
0.390994
0.390345
0.389699
0.389056
0.388416
0.387779
0.387145
0.386514
0.385886
0.385261
0.384638
0.384018
0.383401
0.382786
0.382174
0.381564
0.380957
0.380351
0.379748
0.379147
0.378547
0.37795
0.377354
0.37676
0.376167
0.375575
0.374985
0.374396
0.373808
0.37322
0.372634
0.372048
0.371462
0.370877
0.370292
0.444625
0.429753
0.414858
0.413433
0.412687
0.411943
0.411202
0.410464
0.409728
0.408995
0.408265
0.407537
0.406812
0.406091
0.405372
0.404655
0.403942
0.403232
0.402525
0.401821
0.401121
0.400423
0.399729
0.399037
0.398349
0.397664
0.396983
0.396304
0.395629
0.394957
0.394289
0.393623
0.392961
0.392302
0.391647
0.390994
0.390345
0.389699
0.389056
0.388416
0.387779
0.387145
0.386514
0.385886
0.385261
0.384638
0.384018
0.383401
0.382786
0.382174
0.381564
0.380957
0.380351
0.379748
0.379147
0.378548
0.37795
0.377354
0.37676
0.376167
0.375575
0.374985
0.374396
0.373808
0.37322
0.372634
0.372048
0.371462
0.370877
0.370292
0.444625
0.429753
0.414858
0.413433
0.412687
0.411944
0.411203
0.410464
0.409728
0.408995
0.408265
0.407537
0.406813
0.406091
0.405372
0.404656
0.403943
0.403233
0.402526
0.401822
0.401121
0.400423
0.399729
0.399037
0.398349
0.397665
0.396983
0.396305
0.395629
0.394958
0.394289
0.393624
0.392962
0.392303
0.391647
0.390995
0.390345
0.389699
0.389056
0.388416
0.387779
0.387145
0.386514
0.385886
0.385261
0.384638
0.384018
0.383401
0.382787
0.382174
0.381564
0.380957
0.380351
0.379748
0.379147
0.378548
0.37795
0.377354
0.37676
0.376167
0.375575
0.374985
0.374396
0.373808
0.37322
0.372634
0.372048
0.371462
0.370877
0.370292
0.444625
0.429753
0.414858
0.413433
0.412687
0.411944
0.411203
0.410464
0.409729
0.408996
0.408265
0.407538
0.406813
0.406091
0.405372
0.404656
0.403943
0.403233
0.402526
0.401822
0.401121
0.400423
0.399729
0.399038
0.39835
0.397665
0.396983
0.396305
0.39563
0.394958
0.394289
0.393624
0.392962
0.392303
0.391647
0.390995
0.390345
0.389699
0.389056
0.388416
0.387779
0.387145
0.386514
0.385886
0.385261
0.384638
0.384019
0.383401
0.382787
0.382174
0.381564
0.380957
0.380352
0.379748
0.379147
0.378548
0.37795
0.377354
0.37676
0.376167
0.375576
0.374985
0.374396
0.373808
0.37322
0.372634
0.372048
0.371462
0.370877
0.370292
0.444625
0.429753
0.414858
0.413433
0.412687
0.411944
0.411203
0.410464
0.409729
0.408996
0.408265
0.407538
0.406813
0.406091
0.405372
0.404656
0.403943
0.403233
0.402526
0.401822
0.401121
0.400424
0.399729
0.399038
0.39835
0.397665
0.396983
0.396305
0.39563
0.394958
0.394289
0.393624
0.392962
0.392303
0.391647
0.390995
0.390346
0.389699
0.389056
0.388416
0.387779
0.387145
0.386514
0.385886
0.385261
0.384638
0.384019
0.383401
0.382787
0.382174
0.381565
0.380957
0.380352
0.379748
0.379147
0.378548
0.37795
0.377354
0.37676
0.376167
0.375576
0.374985
0.374396
0.373808
0.37322
0.372634
0.372048
0.371462
0.370877
0.370292
0.444625
0.429753
0.414858
0.413433
0.412687
0.411944
0.411203
0.410465
0.409729
0.408996
0.408265
0.407538
0.406813
0.406091
0.405372
0.404656
0.403943
0.403233
0.402526
0.401822
0.401121
0.400424
0.399729
0.399038
0.39835
0.397665
0.396983
0.396305
0.39563
0.394958
0.394289
0.393624
0.392962
0.392303
0.391647
0.390995
0.390346
0.389699
0.389056
0.388416
0.387779
0.387146
0.386515
0.385886
0.385261
0.384639
0.384019
0.383401
0.382787
0.382174
0.381565
0.380957
0.380352
0.379748
0.379147
0.378548
0.37795
0.377354
0.37676
0.376167
0.375576
0.374985
0.374396
0.373808
0.37322
0.372634
0.372048
0.371462
0.370877
0.370292
0.444625
0.429753
0.414858
0.413433
0.412687
0.411944
0.411203
0.410465
0.409729
0.408996
0.408265
0.407538
0.406813
0.406091
0.405372
0.404656
0.403943
0.403233
0.402526
0.401822
0.401121
0.400424
0.399729
0.399038
0.39835
0.397665
0.396983
0.396305
0.39563
0.394958
0.394289
0.393624
0.392962
0.392303
0.391647
0.390995
0.390346
0.389699
0.389056
0.388416
0.38778
0.387146
0.386515
0.385886
0.385261
0.384639
0.384019
0.383401
0.382787
0.382174
0.381565
0.380957
0.380352
0.379748
0.379147
0.378548
0.37795
0.377354
0.37676
0.376167
0.375576
0.374985
0.374396
0.373808
0.37322
0.372634
0.372048
0.371462
0.370877
0.370292
0.444625
0.429753
0.414858
0.413433
0.412687
0.411944
0.411203
0.410465
0.409729
0.408996
0.408265
0.407538
0.406813
0.406091
0.405372
0.404656
0.403943
0.403233
0.402526
0.401822
0.401121
0.400424
0.399729
0.399038
0.39835
0.397665
0.396983
0.396305
0.39563
0.394958
0.394289
0.393624
0.392962
0.392303
0.391647
0.390995
0.390346
0.3897
0.389056
0.388417
0.38778
0.387146
0.386515
0.385886
0.385261
0.384639
0.384019
0.383401
0.382787
0.382175
0.381565
0.380957
0.380352
0.379748
0.379147
0.378548
0.37795
0.377354
0.37676
0.376167
0.375576
0.374985
0.374396
0.373808
0.37322
0.372634
0.372048
0.371462
0.370877
0.370292
0.444625
0.429753
0.414858
0.413433
0.412687
0.411944
0.411203
0.410465
0.409729
0.408996
0.408265
0.407538
0.406813
0.406091
0.405372
0.404656
0.403943
0.403233
0.402526
0.401822
0.401121
0.400424
0.399729
0.399038
0.39835
0.397665
0.396983
0.396305
0.39563
0.394958
0.394289
0.393624
0.392962
0.392303
0.391647
0.390995
0.390346
0.3897
0.389056
0.388417
0.38778
0.387146
0.386515
0.385886
0.385261
0.384639
0.384019
0.383401
0.382787
0.382175
0.381565
0.380957
0.380352
0.379748
0.379147
0.378548
0.37795
0.377354
0.37676
0.376167
0.375576
0.374985
0.374396
0.373808
0.37322
0.372634
0.372048
0.371462
0.370877
0.370292
0.444625
0.429753
0.414858
0.413433
0.412687
0.411944
0.411203
0.410465
0.409729
0.408996
0.408266
0.407538
0.406813
0.406091
0.405372
0.404656
0.403943
0.403233
0.402526
0.401822
0.401121
0.400424
0.399729
0.399038
0.39835
0.397665
0.396983
0.396305
0.39563
0.394958
0.394289
0.393624
0.392962
0.392303
0.391647
0.390995
0.390346
0.3897
0.389056
0.388417
0.38778
0.387146
0.386515
0.385886
0.385261
0.384639
0.384019
0.383401
0.382787
0.382175
0.381565
0.380957
0.380352
0.379748
0.379147
0.378548
0.37795
0.377354
0.37676
0.376167
0.375576
0.374985
0.374396
0.373808
0.37322
0.372634
0.372048
0.371462
0.370877
0.370292
0.444625
0.429753
0.414858
0.413433
0.412687
0.411944
0.411203
0.410465
0.409729
0.408996
0.408266
0.407538
0.406813
0.406091
0.405372
0.404656
0.403943
0.403233
0.402526
0.401822
0.401121
0.400424
0.399729
0.399038
0.39835
0.397665
0.396983
0.396305
0.39563
0.394958
0.394289
0.393624
0.392962
0.392303
0.391647
0.390995
0.390346
0.3897
0.389057
0.388417
0.38778
0.387146
0.386515
0.385886
0.385261
0.384639
0.384019
0.383401
0.382787
0.382175
0.381565
0.380957
0.380352
0.379748
0.379147
0.378548
0.37795
0.377354
0.37676
0.376167
0.375576
0.374985
0.374396
0.373808
0.37322
0.372634
0.372048
0.371462
0.370877
0.370292
0.444625
0.429753
0.414858
0.413433
0.412687
0.411944
0.411203
0.410465
0.409729
0.408996
0.408266
0.407538
0.406813
0.406091
0.405372
0.404656
0.403943
0.403233
0.402526
0.401822
0.401121
0.400424
0.399729
0.399038
0.39835
0.397665
0.396983
0.396305
0.39563
0.394958
0.394289
0.393624
0.392962
0.392303
0.391647
0.390995
0.390346
0.3897
0.389057
0.388417
0.38778
0.387146
0.386515
0.385886
0.385261
0.384639
0.384019
0.383401
0.382787
0.382175
0.381565
0.380957
0.380352
0.379748
0.379147
0.378548
0.37795
0.377354
0.37676
0.376167
0.375576
0.374985
0.374396
0.373808
0.37322
0.372634
0.372048
0.371462
0.370877
0.370292
0.444625
0.429753
0.414858
0.413433
0.412687
0.411944
0.411203
0.410465
0.409729
0.408996
0.408266
0.407538
0.406813
0.406091
0.405372
0.404656
0.403943
0.403233
0.402526
0.401822
0.401121
0.400424
0.399729
0.399038
0.39835
0.397665
0.396983
0.396305
0.39563
0.394958
0.394289
0.393624
0.392962
0.392303
0.391647
0.390995
0.390346
0.3897
0.389057
0.388417
0.38778
0.387146
0.386515
0.385886
0.385261
0.384639
0.384019
0.383401
0.382787
0.382175
0.381565
0.380957
0.380352
0.379748
0.379147
0.378548
0.37795
0.377354
0.37676
0.376167
0.375576
0.374985
0.374396
0.373808
0.37322
0.372634
0.372048
0.371462
0.370877
0.370292
0.444625
0.429753
0.414858
0.413433
0.412687
0.411944
0.411203
0.410465
0.409729
0.408996
0.408266
0.407538
0.406813
0.406091
0.405372
0.404656
0.403943
0.403233
0.402526
0.401822
0.401121
0.400424
0.399729
0.399038
0.39835
0.397665
0.396983
0.396305
0.39563
0.394958
0.394289
0.393624
0.392962
0.392303
0.391647
0.390995
0.390346
0.3897
0.389057
0.388417
0.38778
0.387146
0.386515
0.385886
0.385261
0.384639
0.384019
0.383401
0.382787
0.382175
0.381565
0.380957
0.380352
0.379748
0.379147
0.378548
0.37795
0.377354
0.37676
0.376167
0.375576
0.374985
0.374396
0.373808
0.37322
0.372634
0.372048
0.371462
0.370877
0.370292
0.444625
0.429753
0.414858
0.413433
0.412687
0.411944
0.411203
0.410465
0.409729
0.408996
0.408266
0.407538
0.406813
0.406091
0.405372
0.404656
0.403943
0.403233
0.402526
0.401822
0.401121
0.400424
0.399729
0.399038
0.39835
0.397665
0.396983
0.396305
0.39563
0.394958
0.394289
0.393624
0.392962
0.392303
0.391647
0.390995
0.390346
0.3897
0.389057
0.388417
0.38778
0.387146
0.386515
0.385886
0.385261
0.384639
0.384019
0.383401
0.382787
0.382175
0.381565
0.380957
0.380352
0.379748
0.379147
0.378548
0.37795
0.377354
0.37676
0.376167
0.375576
0.374985
0.374396
0.373808
0.37322
0.372634
0.372048
0.371462
0.370877
0.370292
0.444625
0.429753
0.414858
0.413433
0.412687