/*--------------------------------*- C++ -*----------------------------------*\
  =========                 |
  \\      /  F ield         | OpenFOAM: The Open Source CFD Toolbox
   \\    /   O peration     | Website:  https://openfoam.org
    \\  /    A nd           | Version:  13
     \\/     M anipulation  |
\*---------------------------------------------------------------------------*/
FoamFile
{
    format      ascii;
    class       volScalarField;
    location    "2";
    object      difft;
}
// * * * * * * * * * * * * * * * * * * * * * * * * * * * * * * * * * * * * * //

dimensions      [0 2 -1 0 0 0 0];

internalField   nonuniform List<scalar> 
78750
(
4.41332e-09
5.01393e-07
2.44085e-06
3.26622e-06
2.62469e-06
1.68833e-06
1.3833e-06
1.34813e-06
1.34794e-06
1.42082e-06
1.56047e-06
1.70291e-06
1.83861e-06
1.92894e-06
2.01618e-06
2.13805e-06
2.29422e-06
2.43879e-06
2.55557e-06
2.65306e-06
2.74368e-06
2.83775e-06
2.92819e-06
3.00377e-06
3.06611e-06
3.11998e-06
3.16304e-06
3.19632e-06
3.17758e-06
3.13498e-06
2.99531e-06
2.82476e-06
2.52166e-06
2.91263e-07
1.82175e-09
2.39596e-09
6.32377e-07
8.2055e-06
1.00741e-05
1.64996e-05
3.03491e-05
6.83381e-05
7.05342e-05
7.17652e-05
7.4516e-05
7.80576e-05
6.79841e-05
6.93688e-05
7.06501e-05
7.18195e-05
7.2886e-05
7.38196e-05
7.45799e-05
7.51858e-05
7.56509e-05
7.59872e-05
7.61974e-05
7.62764e-05
7.61845e-05
7.58906e-05
7.54158e-05
7.4731e-05
7.37997e-05
7.25781e-05
7.10283e-05
5.43934e-05
1.42891e-05
5.23332e-06
6.77233e-07
3.09077e-09
2.4066e-09
6.22855e-07
8.42278e-06
1.25412e-05
2.92086e-05
6.98551e-05
7.12172e-05
7.27314e-05
7.43236e-05
7.59074e-05
7.74188e-05
7.87882e-05
7.99891e-05
8.10103e-05
8.18505e-05
8.25148e-05
8.30108e-05
8.33481e-05
8.35324e-05
8.35679e-05
8.34445e-05
8.3152e-05
8.27117e-05
8.21201e-05
8.13739e-05
8.04638e-05
7.93769e-05
7.81065e-05
7.66594e-05
7.50394e-05
4.58244e-05
1.30925e-05
5.10446e-06
7.02298e-07
3.02739e-09
2.43517e-09
6.29057e-07
9.43928e-06
1.33662e-05
2.9423e-05
7.1728e-05
7.34292e-05
7.5224e-05
7.70108e-05
7.87061e-05
8.02559e-05
8.16292e-05
8.28111e-05
8.37968e-05
8.45874e-05
8.5187e-05
8.56018e-05
8.5839e-05
8.59063e-05
8.5797e-05
8.5506e-05
8.50502e-05
8.4427e-05
8.36364e-05
8.26782e-05
8.15524e-05
8.02595e-05
7.88088e-05
7.72141e-05
7.54724e-05
3.97847e-05
1.16646e-05
4.71267e-06
6.72802e-07
2.77406e-09
2.41888e-09
6.24675e-07
9.56279e-06
1.47e-05
3.32977e-05
7.21818e-05
7.39763e-05
7.58276e-05
7.76414e-05
7.9344e-05
8.08891e-05
8.22511e-05
8.34181e-05
8.4386e-05
8.5156e-05
8.57315e-05
8.61171e-05
8.63187e-05
8.63435e-05
8.61877e-05
8.58455e-05
8.5335e-05
8.46496e-05
8.37914e-05
8.27663e-05
8.15726e-05
8.02103e-05
7.86992e-05
7.7057e-05
7.53218e-05
3.64636e-05
1.05693e-05
4.8883e-06
6.70122e-07
2.66083e-09
2.45658e-09
6.34318e-07
9.70105e-06
1.50649e-05
3.53388e-05
7.24646e-05
7.42548e-05
7.60983e-05
7.7899e-05
7.95847e-05
8.1111e-05
8.24537e-05
8.36019e-05
8.4552e-05
8.53051e-05
8.58644e-05
8.62346e-05
8.6422e-05
8.64241e-05
8.62417e-05
8.58735e-05
8.53311e-05
8.45994e-05
8.36977e-05
8.26295e-05
8.13933e-05
7.99919e-05
7.84339e-05
7.67411e-05
7.49609e-05
3.36725e-05
1.00117e-05
5.00557e-06
6.3039e-07
2.47442e-09
2.47594e-09
6.39082e-07
9.81505e-06
1.52481e-05
3.64802e-05
7.26218e-05
7.4415e-05
7.6253e-05
7.80426e-05
7.97145e-05
8.12264e-05
8.25551e-05
8.36901e-05
8.4628e-05
8.53696e-05
8.59178e-05
8.62769e-05
8.64529e-05
8.64449e-05
8.62586e-05
8.58851e-05
8.53296e-05
8.45873e-05
8.36721e-05
8.25875e-05
8.13372e-05
7.99254e-05
7.83645e-05
7.66759e-05
7.48626e-05
3.09568e-05
9.25301e-06
4.37648e-06
6.1439e-07
2.47515e-09
2.5126e-09
6.48638e-07
9.90177e-06
1.57775e-05
3.70271e-05
7.2797e-05
7.45839e-05
7.64093e-05
7.81824e-05
7.98364e-05
8.13308e-05
8.26434e-05
8.37639e-05
8.46889e-05
8.54189e-05
8.59562e-05
8.63046e-05
8.64694e-05
8.64497e-05
8.62508e-05
8.58721e-05
8.53121e-05
8.45622e-05
8.36324e-05
8.2537e-05
8.12715e-05
7.98385e-05
7.82534e-05
7.65353e-05
7.47136e-05
3.04864e-05
9.41919e-06
4.88373e-06
6.21176e-07
2.45876e-09
2.53317e-09
6.54819e-07
9.86623e-06
1.58841e-05
3.69162e-05
7.2928e-05
7.4708e-05
7.65239e-05
7.82854e-05
7.99271e-05
8.14093e-05
8.27109e-05
8.38217e-05
8.47383e-05
8.54608e-05
8.59912e-05
8.63329e-05
8.64905e-05
8.64626e-05
8.62523e-05
8.58751e-05
8.53135e-05
8.45629e-05
8.36414e-05
8.25484e-05
8.12809e-05
7.98443e-05
7.82636e-05
7.65354e-05
7.46775e-05
2.97438e-05
9.23562e-06
4.22193e-06
6.05182e-07
2.4531e-09
2.55068e-09
6.57137e-07
1.01051e-05
1.5833e-05
3.64499e-05
7.30599e-05
7.48373e-05
7.66421e-05
7.83903e-05
8.00185e-05
8.14881e-05
8.27781e-05
8.38784e-05
8.47855e-05
8.54992e-05
8.60214e-05
8.63551e-05
8.65047e-05
8.64692e-05
8.6251e-05
8.58636e-05
8.5297e-05
8.45558e-05
8.3641e-05
8.25476e-05
8.12779e-05
7.98346e-05
7.82515e-05
7.65413e-05
7.47373e-05
2.91021e-05
9.16544e-06
4.81556e-06
6.1759e-07
2.47439e-09
2.59414e-09
6.67264e-07
1.02394e-05
1.5932e-05
3.62831e-05
7.32792e-05
7.50294e-05
7.68042e-05
7.85239e-05
8.01271e-05
8.15761e-05
8.28495e-05
8.39368e-05
8.48337e-05
8.55394e-05
8.60551e-05
8.63834e-05
8.6528e-05
8.64876e-05
8.62632e-05
8.58642e-05
8.52936e-05
8.45567e-05
8.36394e-05
8.25387e-05
8.12544e-05
7.97952e-05
7.81994e-05
7.64923e-05
7.47482e-05
2.8593e-05
9.17475e-06
5.22767e-06
6.53782e-07
2.52561e-09
2.62481e-09
6.75278e-07
1.03254e-05
1.5992e-05
3.61625e-05
7.3521e-05
7.52376e-05
7.69775e-05
7.86664e-05
8.02429e-05
8.16695e-05
8.29247e-05
8.39974e-05
8.48825e-05
8.55787e-05
8.60866e-05
8.64082e-05
8.65478e-05
8.6505e-05
8.62821e-05
8.58821e-05
8.53032e-05
8.45496e-05
8.36121e-05
8.24904e-05
8.1181e-05
7.97155e-05
7.81067e-05
7.63812e-05
7.46101e-05
2.7739e-05
8.87696e-06
4.8844e-06
6.44606e-07
2.47086e-09
2.62743e-09
6.75362e-07
1.03109e-05
1.58741e-05
3.57096e-05
7.3608e-05
7.53214e-05
7.70605e-05
7.8743e-05
8.03111e-05
8.17292e-05
8.29766e-05
8.40423e-05
8.49217e-05
8.56132e-05
8.61174e-05
8.64364e-05
8.65748e-05
8.65334e-05
8.63159e-05
8.59151e-05
8.53299e-05
8.45633e-05
8.36162e-05
8.24875e-05
8.11742e-05
7.97042e-05
7.80969e-05
7.6361e-05
7.45714e-05
2.69359e-05
8.77007e-06
5.01882e-06
6.26558e-07
2.39772e-09
2.61487e-09
6.71681e-07
1.02725e-05
1.56968e-05
3.51068e-05
7.36325e-05
7.53545e-05
7.70992e-05
7.87858e-05
8.03565e-05
8.17748e-05
8.30201e-05
8.4082e-05
8.49564e-05
8.56424e-05
8.61405e-05
8.64522e-05
8.6582e-05
8.65309e-05
8.63016e-05
8.58894e-05
8.52986e-05
8.45336e-05
8.35898e-05
8.24618e-05
8.11472e-05
7.9681e-05
7.8075e-05
7.63343e-05
7.44812e-05
2.57978e-05
8.20719e-06
4.33367e-06
5.97454e-07
2.35424e-09
2.53469e-09
6.47568e-07
9.97886e-06
1.54095e-05
3.45886e-05
7.36114e-05
7.54003e-05
7.7163e-05
7.88517e-05
8.04182e-05
8.18301e-05
8.30689e-05
8.4125e-05
8.49944e-05
8.56761e-05
8.617e-05
8.64768e-05
8.66004e-05
8.65407e-05
8.62986e-05
8.58798e-05
8.52863e-05
8.4527e-05
8.35839e-05
8.24537e-05
8.11363e-05
7.96547e-05
7.8007e-05
7.62157e-05
7.42836e-05
2.56732e-05
8.31675e-06
3.91052e-06
5.67192e-07
2.29088e-09
2.40254e-09
6.09873e-07
9.2919e-06
1.48951e-05
3.39093e-05
7.3531e-05
7.54145e-05
7.72219e-05
7.89246e-05
8.04914e-05
8.18983e-05
8.31313e-05
8.41834e-05
8.50514e-05
8.57368e-05
8.62336e-05
8.65376e-05
8.66553e-05
8.65881e-05
8.63372e-05
8.59072e-05
8.52999e-05
8.45247e-05
8.35661e-05
8.24284e-05
8.11134e-05
7.96222e-05
7.79572e-05
7.61574e-05
7.42184e-05
2.51136e-05
8.03851e-06
3.89065e-06
5.53854e-07
2.2482e-09
2.59038e-09
6.67716e-07
1.01855e-05
1.53711e-05
3.39127e-05
7.38785e-05
7.56272e-05
7.73566e-05
7.90195e-05
8.05636e-05
8.19567e-05
8.31813e-05
8.42286e-05
8.50956e-05
8.57864e-05
8.62835e-05
8.65826e-05
8.66992e-05
8.66344e-05
8.63824e-05
8.59488e-05
8.53361e-05
8.45461e-05
8.35799e-05
8.24381e-05
8.1122e-05
7.96364e-05
7.7998e-05
7.62682e-05
7.45368e-05
2.52413e-05
8.48745e-06
5.10364e-06
6.39398e-07
2.48097e-09
2.40061e-09
6.17906e-07
9.68732e-06
1.47681e-05
3.31093e-05
7.37109e-05
7.55525e-05
7.73515e-05
7.90491e-05
8.06043e-05
8.19954e-05
8.3212e-05
8.4249e-05
8.51051e-05
8.5782e-05
8.62691e-05
8.65658e-05
8.66916e-05
8.6624e-05
8.63701e-05
8.5934e-05
8.53183e-05
8.4525e-05
8.35558e-05
8.24119e-05
8.10955e-05
7.96131e-05
7.7984e-05
7.62577e-05
7.45399e-05
2.51318e-05
8.66977e-06
5.1214e-06
6.64477e-07
2.52502e-09
2.37229e-09
6.06746e-07
9.33496e-06
1.45451e-05
3.26723e-05
7.37098e-05
7.55984e-05
7.74101e-05
7.91035e-05
8.06492e-05
8.20307e-05
8.3238e-05
8.42662e-05
8.51129e-05
8.57777e-05
8.62613e-05
8.6571e-05
8.66925e-05
8.66295e-05
8.6379e-05
8.59459e-05
8.53338e-05
8.45454e-05
8.35829e-05
8.24478e-05
8.11413e-05
7.96657e-05
7.80283e-05
7.62487e-05
7.43868e-05
2.45259e-05
8.23355e-06
4.72247e-06
6.10389e-07
2.35623e-09
2.34625e-09
5.91144e-07
9.09358e-06
1.43242e-05
3.21352e-05
7.3659e-05
7.56026e-05
7.74315e-05
7.91302e-05
8.06778e-05
8.20584e-05
8.32629e-05
8.42865e-05
8.51279e-05
8.57872e-05
8.62658e-05
8.65658e-05
8.669e-05
8.66236e-05
8.63692e-05
8.59319e-05
8.53153e-05
8.45222e-05
8.3555e-05
8.24146e-05
8.11015e-05
7.9616e-05
7.79598e-05
7.61383e-05
7.42115e-05
2.41174e-05
8.22801e-06
4.54973e-06
5.87682e-07
2.27037e-09
2.43423e-09
6.16936e-07
9.15401e-06
1.43833e-05
3.19541e-05
7.3904e-05
7.57462e-05
7.75211e-05
7.9194e-05
8.07272e-05
8.20984e-05
8.32957e-05
8.43137e-05
8.51504e-05
8.58059e-05
8.62815e-05
8.65788e-05
8.66963e-05
8.66229e-05
8.63635e-05
8.59308e-05
8.53207e-05
8.45306e-05
8.35644e-05
8.24234e-05
8.11075e-05
7.96158e-05
7.79479e-05
7.61054e-05
7.41263e-05
2.40217e-05
7.86538e-06
4.27943e-06
5.60558e-07
2.2107e-09
2.56561e-09
6.52103e-07
9.8942e-06
1.5029e-05
3.20416e-05
7.41853e-05
7.59406e-05
7.76523e-05
7.92861e-05
8.07947e-05
8.21494e-05
8.33346e-05
8.43429e-05
8.51712e-05
8.58184e-05
8.62846e-05
8.65695e-05
8.66768e-05
8.65945e-05
8.63356e-05
8.58979e-05
8.52765e-05
8.44868e-05
8.35222e-05
8.23757e-05
8.10494e-05
7.95434e-05
7.78597e-05
7.60079e-05
7.40173e-05
2.34315e-05
7.89754e-06
4.44332e-06
5.58978e-07
2.18353e-09
2.33357e-09
5.87544e-07
8.93871e-06
1.40638e-05
3.12215e-05
7.39595e-05
7.58564e-05
7.7644e-05
7.93081e-05
8.0826e-05
8.2181e-05
8.33635e-05
8.43685e-05
8.51934e-05
8.5837e-05
8.62986e-05
8.65772e-05
8.66763e-05
8.66e-05
8.63346e-05
8.58834e-05
8.52654e-05
8.44903e-05
8.35323e-05
8.23887e-05
8.10629e-05
7.95557e-05
7.78703e-05
7.60182e-05
7.40291e-05
2.336e-05
7.91445e-06
4.26253e-06
5.51422e-07
2.16011e-09
2.36108e-09
5.9583e-07
8.86042e-06
1.42426e-05
3.12263e-05
7.40392e-05
7.59406e-05
7.7721e-05
7.93746e-05
8.08825e-05
8.22294e-05
8.34063e-05
8.44088e-05
8.52354e-05
8.58861e-05
8.63535e-05
8.66318e-05
8.67243e-05
8.66324e-05
8.63592e-05
8.59085e-05
8.52824e-05
8.44913e-05
8.35171e-05
8.23637e-05
8.10323e-05
7.95245e-05
7.78488e-05
7.60311e-05
7.41317e-05
2.3002e-05
7.98338e-06
4.63823e-06
5.74232e-07
2.20137e-09
2.36008e-09
5.95153e-07
9.07079e-06
1.40862e-05
3.07561e-05
7.41133e-05
7.60146e-05
7.77861e-05
7.9429e-05
8.09277e-05
8.22678e-05
8.34408e-05
8.44425e-05
8.52722e-05
8.59323e-05
8.64038e-05
8.66846e-05
8.67793e-05
8.66876e-05
8.64141e-05
8.59622e-05
8.53335e-05
8.45293e-05
8.35509e-05
8.2398e-05
8.10704e-05
7.957e-05
7.79039e-05
7.60844e-05
7.41029e-05
2.29747e-05
7.86542e-06
3.85842e-06
5.497e-07
2.22001e-09
2.41913e-09
6.07946e-07
8.9602e-06
1.41379e-05
3.09448e-05
7.4384e-05
7.61899e-05
7.79125e-05
7.95172e-05
8.09863e-05
8.23078e-05
8.34668e-05
8.44562e-05
8.52737e-05
8.59198e-05
8.63804e-05
8.66641e-05
8.67615e-05
8.66687e-05
8.63946e-05
8.59417e-05
8.53113e-05
8.45051e-05
8.35238e-05
8.23669e-05
8.1033e-05
7.95232e-05
7.78473e-05
7.60361e-05
7.41571e-05
2.28739e-05
7.96256e-06
4.5881e-06
5.96568e-07
2.33175e-09
2.44794e-09
6.02878e-07
8.22004e-06
1.39472e-05
3.04541e-05
7.43579e-05
7.62483e-05
7.7981e-05
7.95674e-05
8.10237e-05
8.23358e-05
8.34872e-05
8.44695e-05
8.52787e-05
8.59113e-05
8.63721e-05
8.66625e-05
8.67643e-05
8.66744e-05
8.64021e-05
8.59516e-05
8.53251e-05
8.45232e-05
8.35459e-05
8.23914e-05
8.10561e-05
7.95378e-05
7.78416e-05
7.59947e-05
7.4091e-05
2.25611e-05
8.07962e-06
4.76249e-06
5.95773e-07
2.29319e-09
2.49671e-09
6.45509e-07
9.79112e-06
1.42474e-05
3.03676e-05
7.44799e-05
7.62556e-05
7.79713e-05
7.95693e-05
8.10394e-05
8.23558e-05
8.35059e-05
8.44839e-05
8.52873e-05
8.59148e-05
8.63645e-05
8.66418e-05
8.673e-05
8.66339e-05
8.63598e-05
8.59049e-05
8.52708e-05
8.44673e-05
8.34965e-05
8.23476e-05
8.10104e-05
7.94851e-05
7.77765e-05
7.59078e-05
7.40042e-05
2.24351e-05
7.90392e-06
4.79347e-06
6.00895e-07
2.29213e-09
2.47221e-09
6.36946e-07
9.64359e-06
1.43635e-05
2.99806e-05
7.44965e-05
7.6324e-05
7.80588e-05
7.96696e-05
8.11317e-05
8.24308e-05
8.35585e-05
8.45182e-05
8.53104e-05
8.59293e-05
8.63712e-05
8.66329e-05
8.67148e-05
8.66176e-05
8.63468e-05
8.58855e-05
8.52576e-05
8.44621e-05
8.35089e-05
8.23679e-05
8.10323e-05
7.9503e-05
7.77849e-05
7.59009e-05
7.39528e-05
2.22157e-05
7.73853e-06
4.36254e-06
5.70118e-07
2.20317e-09
2.52682e-09
6.5141e-07
9.65807e-06
1.4213e-05
2.99653e-05
7.46734e-05
7.64525e-05
7.81623e-05
7.97566e-05
8.12026e-05
8.24814e-05
8.35902e-05
8.4544e-05
8.53325e-05
8.59503e-05
8.63949e-05
8.66648e-05
8.67526e-05
8.66534e-05
8.63727e-05
8.59147e-05
8.52823e-05
8.4478e-05
8.35112e-05
8.23595e-05
8.10291e-05
7.95336e-05
7.79216e-05
7.63432e-05
7.52287e-05
2.33351e-05
9.92684e-06
5.00127e-06
6.04451e-07
2.28577e-09
2.58249e-09
6.68858e-07
9.80454e-06
1.42523e-05
2.97866e-05
7.47065e-05
7.64379e-05
7.81283e-05
7.9719e-05
8.11698e-05
8.24571e-05
8.35877e-05
8.45529e-05
8.53482e-05
8.59718e-05
8.64239e-05
8.67062e-05
8.67972e-05
8.66942e-05
8.64131e-05
8.59546e-05
8.53146e-05
8.44999e-05
8.35107e-05
8.23445e-05
8.09983e-05
7.94702e-05
7.77688e-05
7.59337e-05
7.40783e-05
2.23508e-05
7.94465e-06
4.56262e-06
5.82365e-07
2.21112e-09
2.52085e-09
6.49119e-07
9.73017e-06
1.41699e-05
2.94559e-05
7.46318e-05
7.64061e-05
7.81134e-05
7.97115e-05
8.11692e-05
8.24693e-05
8.36036e-05
8.45674e-05
8.53582e-05
8.59747e-05
8.64166e-05
8.66851e-05
8.67608e-05
8.66507e-05
8.63699e-05
8.59006e-05
8.52578e-05
8.44373e-05
8.3441e-05
8.22716e-05
8.09327e-05
7.94373e-05
7.78314e-05
7.62495e-05
7.50729e-05
2.29674e-05
9.56377e-06
4.59972e-06
5.73559e-07
2.21404e-09
2.50745e-09
6.4538e-07
9.53655e-06
1.37974e-05
2.92579e-05
7.46452e-05
7.64899e-05
7.81902e-05
7.97772e-05
8.1222e-05
8.25101e-05
8.36357e-05
8.45936e-05
8.53801e-05
8.59918e-05
8.6426e-05
8.66798e-05
8.67542e-05
8.66518e-05
8.63537e-05
8.58939e-05
8.5252e-05
8.4433e-05
8.34381e-05
8.22654e-05
8.09111e-05
7.93732e-05
7.76603e-05
7.58091e-05
7.39245e-05
2.20047e-05
7.87458e-06
4.43056e-06
5.71848e-07
2.1951e-09
2.54804e-09
6.56096e-07
9.58282e-06
1.40612e-05
2.93228e-05
7.45846e-05
7.65983e-05
7.82687e-05
7.98395e-05
8.12723e-05
8.25548e-05
8.36794e-05
8.46413e-05
8.54379e-05
8.60584e-05
8.64953e-05
8.67475e-05
8.68152e-05
8.66984e-05
8.64e-05
8.59229e-05
8.52677e-05
8.4433e-05
8.34213e-05
8.22389e-05
8.08891e-05
7.93837e-05
7.77725e-05
7.62053e-05
7.50653e-05
2.27659e-05
9.62488e-06
4.80819e-06
5.89293e-07
2.2203e-09
2.58337e-09
6.59455e-07
9.56593e-06
1.40537e-05
2.88339e-05
7.30769e-05
7.66592e-05
7.83155e-05
7.98717e-05
8.12995e-05
8.25817e-05
8.37087e-05
8.46763e-05
8.5484e-05
8.61071e-05
8.65401e-05
8.67936e-05
8.68628e-05
8.6746e-05
8.64525e-05
8.59862e-05
8.534e-05
8.4504e-05
8.34921e-05
8.23152e-05
8.09661e-05
7.94429e-05
7.77584e-05
7.59586e-05
7.4136e-05
2.21651e-05
8.14127e-06
4.73174e-06
6.00968e-07
2.2808e-09
2.42448e-09
6.06108e-07
8.81916e-06
1.36422e-05
2.86014e-05
7.27824e-05
7.66367e-05
7.83286e-05
7.98955e-05
8.13225e-05
8.25991e-05
8.37184e-05
8.46768e-05
8.54737e-05
8.60903e-05
8.65241e-05
8.67828e-05
8.68432e-05
8.67267e-05
8.64321e-05
8.59642e-05
8.53137e-05
8.44894e-05
8.35075e-05
8.23516e-05
8.10094e-05
7.94809e-05
7.77776e-05
7.59408e-05
7.40566e-05
2.15947e-05
7.85361e-06
4.66999e-06
6.0367e-07
2.28804e-09
2.45271e-09
6.04968e-07
7.90175e-06
1.32761e-05
2.80359e-05
7.17745e-05
7.66628e-05
7.83527e-05
7.99179e-05
8.13443e-05
8.26188e-05
8.3734e-05
8.46855e-05
8.54687e-05
8.60888e-05
8.65252e-05
8.67748e-05
8.68438e-05
8.67305e-05
8.64386e-05
8.59648e-05
8.53333e-05
8.45407e-05
8.3591e-05
8.24546e-05
8.11209e-05
7.95896e-05
7.78677e-05
7.60069e-05
7.41292e-05
2.19143e-05
8.12453e-06
4.76455e-06
6.06206e-07
2.29784e-09
2.62993e-09
6.76138e-07
9.72118e-06
1.39648e-05
2.82209e-05
7.13123e-05
7.68391e-05
7.8463e-05
8.00009e-05
8.14137e-05
8.2681e-05
8.37931e-05
8.47467e-05
8.55292e-05
8.61329e-05
8.6558e-05
8.68026e-05
8.68663e-05
8.67493e-05
8.64559e-05
8.59907e-05
8.53557e-05
8.45514e-05
8.35853e-05
8.24271e-05
8.10739e-05
7.95202e-05
7.77698e-05
7.58843e-05
7.29382e-05
2.13406e-05
7.77706e-06
4.67797e-06
6.01551e-07
2.29572e-09
2.53468e-09
6.50085e-07
9.53196e-06
1.3668e-05
2.77286e-05
6.99409e-05
7.68004e-05
7.84661e-05
8.00237e-05
8.1447e-05
8.27223e-05
8.38434e-05
8.47974e-05
8.55703e-05
8.61698e-05
8.65921e-05
8.68362e-05
8.69019e-05
8.67892e-05
8.65062e-05
8.60505e-05
8.54177e-05
8.46106e-05
8.36271e-05
8.24604e-05
8.11013e-05
7.95433e-05
7.77955e-05
7.58975e-05
7.12557e-05
2.14736e-05
8.04416e-06
4.68271e-06
6.01418e-07
2.28783e-09
2.546e-09
6.45663e-07
9.33053e-06
1.36551e-05
2.77044e-05
6.97886e-05
7.69137e-05
7.85395e-05
8.00731e-05
8.14812e-05
8.27465e-05
8.38624e-05
8.47946e-05
8.55561e-05
8.61483e-05
8.65694e-05
8.68051e-05
8.6864e-05
8.67507e-05
8.64798e-05
8.60276e-05
8.53949e-05
8.45871e-05
8.36026e-05
8.24355e-05
8.10769e-05
7.95182e-05
7.77631e-05
7.5869e-05
7.09114e-05
2.10974e-05
7.75494e-06
4.62575e-06
5.98168e-07
2.26044e-09
2.50226e-09
6.19637e-07
8.08622e-06
1.31809e-05
2.7179e-05
6.86481e-05
7.6903e-05
7.85546e-05
8.00912e-05
8.14953e-05
8.2755e-05
8.38661e-05
8.48071e-05
8.55691e-05
8.61632e-05
8.65728e-05
8.68007e-05
8.68614e-05
8.67476e-05
8.6471e-05
8.60153e-05
8.53882e-05
8.4596e-05
8.36307e-05
8.24789e-05
8.11359e-05
7.95944e-05
7.78608e-05
7.59764e-05
6.91611e-05
2.10298e-05
7.72007e-06
4.34978e-06
5.9006e-07
2.23811e-09
2.57649e-09
6.58821e-07
9.54538e-06
1.37024e-05
2.70807e-05
6.79377e-05
7.69598e-05
7.85946e-05
8.01224e-05
8.15175e-05
8.27661e-05
8.38601e-05
8.48054e-05
8.55649e-05
8.61367e-05
8.65494e-05
8.67945e-05
8.68596e-05
8.67391e-05
8.64411e-05
8.59721e-05
8.53339e-05
8.45326e-05
8.35493e-05
8.23931e-05
8.10606e-05
7.95615e-05
7.79521e-05
7.63823e-05
6.82102e-05
2.21631e-05
9.87359e-06
4.89767e-06
6.14496e-07
2.31259e-09
2.58363e-09
6.53514e-07
9.2626e-06
1.35255e-05
2.69164e-05
6.73882e-05
7.70433e-05
7.86502e-05
8.01596e-05
8.15415e-05
8.27794e-05
8.38657e-05
8.47978e-05
8.55456e-05
8.6133e-05
8.65526e-05
8.68033e-05
8.68652e-05
8.67437e-05
8.64458e-05
8.59758e-05
8.53373e-05
8.45202e-05
8.35471e-05
8.24098e-05
8.11081e-05
7.96599e-05
7.81199e-05
7.65533e-05
6.75408e-05
2.19064e-05
8.70164e-06
4.72205e-06
6.21938e-07
2.34573e-09
2.54048e-09
6.27667e-07
8.19744e-06
1.32409e-05
2.66373e-05
6.67442e-05
7.70439e-05
7.86839e-05
8.01989e-05
8.1578e-05
8.28118e-05
8.38946e-05
8.48234e-05
8.55863e-05
8.61747e-05
8.65885e-05
8.68247e-05
8.68816e-05
8.67595e-05
8.6464e-05
8.59999e-05
8.53692e-05
8.45713e-05
8.36033e-05
8.24613e-05
8.1147e-05
7.96725e-05
7.81013e-05
7.65174e-05
6.45847e-05
2.16939e-05
8.81713e-06
4.82217e-06
6.27145e-07
2.35397e-09
2.60552e-09
6.6522e-07
9.51713e-06
1.34721e-05
2.64936e-05
6.60912e-05
7.71508e-05
7.87606e-05
8.02613e-05
8.16303e-05
8.28574e-05
8.39381e-05
8.48721e-05
8.56316e-05
8.62102e-05
8.66168e-05
8.68523e-05
8.69113e-05
8.67938e-05
8.65061e-05
8.60526e-05
8.54342e-05
8.46524e-05
8.37084e-05
8.25885e-05
8.12867e-05
7.98078e-05
7.82316e-05
7.66628e-05
6.36201e-05
2.18149e-05
8.74963e-06
4.90047e-06
6.32827e-07
2.3636e-09
2.55541e-09
6.48494e-07
9.25837e-06
1.35598e-05
2.67691e-05
6.56904e-05
7.72193e-05
7.88092e-05
8.0295e-05
8.16525e-05
8.28687e-05
8.39381e-05
8.48591e-05
8.56105e-05
8.61875e-05
8.6595e-05
8.68286e-05
8.68832e-05
8.67618e-05
8.64699e-05
8.60124e-05
8.53909e-05
8.46081e-05
8.36597e-05
8.25258e-05
8.12177e-05
7.97323e-05
7.81451e-05
7.65146e-05
6.23697e-05
2.14726e-05
8.73751e-06
4.89185e-06
6.42333e-07
2.40793e-09
2.47456e-09
6.04657e-07
7.77666e-06
1.29768e-05
2.61417e-05
6.49995e-05
7.71816e-05
7.88095e-05
8.03059e-05
8.16648e-05
8.28785e-05
8.39417e-05
8.48495e-05
8.5607e-05
8.61884e-05
8.6597e-05
8.68303e-05
8.68864e-05
8.67658e-05
8.64739e-05
8.60168e-05
8.53972e-05
8.46064e-05
8.36342e-05
8.24931e-05
8.11648e-05
7.9641e-05
7.79338e-05
7.60866e-05
5.80162e-05
2.03445e-05
8.07355e-06
4.61717e-06
6.30241e-07
2.41591e-09
2.51838e-09
6.15177e-07
8.21488e-06
1.33383e-05
2.6492e-05
6.47595e-05
7.72847e-05
7.88775e-05
8.0358e-05
8.17078e-05
8.29152e-05
8.39751e-05
8.48855e-05
8.56338e-05
8.62117e-05
8.66193e-05
8.68531e-05
8.69105e-05
8.67918e-05
8.65031e-05
8.60493e-05
8.54313e-05
8.46464e-05
8.36885e-05
8.25474e-05
8.12089e-05
7.96755e-05
7.79625e-05
7.60793e-05
5.4969e-05
1.96398e-05
7.88035e-06
4.78498e-06
6.45989e-07
2.44133e-09
2.49547e-09
6.06384e-07
7.89735e-06
1.30987e-05
2.59468e-05
6.33819e-05
7.73215e-05
7.89071e-05
8.03853e-05
8.1735e-05
8.29445e-05
8.40098e-05
8.49325e-05
8.5684e-05
8.62572e-05
8.66632e-05
8.69078e-05
8.69782e-05
8.68697e-05
8.65911e-05
8.61467e-05
8.55389e-05
8.47654e-05
8.38196e-05
8.26861e-05
8.13419e-05
7.9802e-05
7.80522e-05
7.60879e-05
5.3361e-05
1.94429e-05
7.47426e-06
3.4862e-06
5.56232e-07
2.24024e-09
2.54269e-09
6.20407e-07
7.79705e-06
1.31973e-05
2.58425e-05
6.33285e-05
7.7371e-05
7.8953e-05
8.04217e-05
8.17598e-05
8.29562e-05
8.40067e-05
8.49123e-05
8.56474e-05
8.62143e-05
8.66252e-05
8.68758e-05
8.69456e-05
8.68351e-05
8.65509e-05
8.60941e-05
8.54779e-05
8.47019e-05
8.37579e-05
8.26231e-05
8.12805e-05
7.97561e-05
7.80235e-05
7.61231e-05
5.13754e-05
1.92508e-05
7.6855e-06
4.33487e-06
6.03862e-07
2.34213e-09
2.47754e-09
6.07146e-07
7.96084e-06
1.30753e-05
2.57423e-05
6.29292e-05
7.73621e-05
7.89647e-05
8.04399e-05
8.17773e-05
8.29686e-05
8.40099e-05
8.48986e-05
8.56319e-05
8.62181e-05
8.66292e-05
8.68808e-05
8.6948e-05
8.68379e-05
8.65535e-05
8.60935e-05
8.54842e-05
8.47246e-05
8.37995e-05
8.26915e-05
8.13828e-05
7.98634e-05
7.81484e-05
7.62863e-05
5.01469e-05
1.92111e-05
7.89324e-06
4.6734e-06
6.34842e-07
2.43597e-09
2.46191e-09
5.97171e-07
7.76402e-06
1.29045e-05
2.57463e-05
6.30036e-05
7.74968e-05
7.90734e-05
8.05167e-05
8.18265e-05
8.30004e-05
8.4029e-05
8.49072e-05
8.56315e-05
8.62003e-05
8.66155e-05
8.68506e-05
8.69124e-05
8.68027e-05
8.65225e-05
8.60743e-05
8.54799e-05
8.47283e-05
8.38066e-05
8.26979e-05
8.13832e-05
7.98502e-05
7.81092e-05
7.62202e-05
4.85962e-05
1.93068e-05
7.87706e-06
4.53693e-06
6.46533e-07
2.47686e-09
2.49207e-09
5.99876e-07
7.89965e-06
1.32116e-05
2.56268e-05
6.3063e-05
7.75764e-05
7.91475e-05
8.05691e-05
8.18658e-05
8.30315e-05
8.40545e-05
8.49283e-05
8.56489e-05
8.62123e-05
8.66148e-05
8.68513e-05
8.69188e-05
8.68181e-05
8.65554e-05
8.6136e-05
8.55613e-05
8.48268e-05
8.39219e-05
8.28295e-05
8.15293e-05
8.00066e-05
7.82693e-05
7.63733e-05
4.71565e-05
1.87806e-05
7.84292e-06
4.52387e-06
6.47847e-07
2.48342e-09
2.5328e-09
6.20861e-07
8.21743e-06
1.31098e-05
2.54688e-05
6.16157e-05
7.7562e-05
7.91276e-05
8.05596e-05
8.18706e-05
8.30425e-05
8.40677e-05
8.49423e-05
8.56636e-05
8.62295e-05
8.66378e-05
8.68857e-05
8.69685e-05
8.688e-05
8.6624e-05
8.62066e-05
8.56297e-05
8.48835e-05
8.39678e-05
8.28717e-05
8.15702e-05
8.00446e-05
7.82975e-05
7.63782e-05
4.55581e-05
1.87863e-05
7.87323e-06
4.51427e-06
6.42511e-07
2.45636e-09
2.5684e-09
6.29117e-07
8.26172e-06
1.32527e-05
2.59811e-05
6.20104e-05
7.75793e-05
7.91349e-05
8.05795e-05
8.18932e-05
8.30648e-05
8.40892e-05
8.49638e-05
8.56868e-05
8.62568e-05
8.6673e-05
8.69337e-05
8.70321e-05
8.69567e-05
8.67121e-05
8.63044e-05
8.57374e-05
8.49937e-05
8.40911e-05
8.30158e-05
8.17403e-05
8.02453e-05
7.85341e-05
7.66564e-05
4.48298e-05
1.86636e-05
7.86985e-06
4.5723e-06
6.41316e-07
2.46068e-09
2.58579e-09
6.26321e-07
7.70694e-06
1.32804e-05
2.567e-05
6.19897e-05
7.76394e-05
7.91973e-05
8.06351e-05
8.19395e-05
8.31019e-05
8.4118e-05
8.49853e-05
8.57015e-05
8.62641e-05
8.66709e-05
8.69185e-05
8.7006e-05
8.69199e-05
8.66712e-05
8.62667e-05
8.57102e-05
8.4986e-05
8.4111e-05
8.30637e-05
8.1826e-05
8.03901e-05
7.87704e-05
7.70159e-05
4.57397e-05
1.93821e-05
8.05443e-06
4.50664e-06
6.43013e-07
2.45024e-09
2.49862e-09
6.05839e-07
7.86496e-06
1.31132e-05
2.528e-05
6.11211e-05
7.76896e-05
7.92473e-05
8.06827e-05
8.19828e-05
8.31386e-05
8.41485e-05
8.50111e-05
8.57236e-05
8.6283e-05
8.66858e-05
8.69267e-05
8.70026e-05
8.6916e-05
8.66749e-05
8.62862e-05
8.57522e-05
8.50695e-05
8.42267e-05
8.32074e-05
8.19946e-05
8.05802e-05
7.89789e-05
7.72412e-05
4.52656e-05
1.96865e-05
8.36555e-06
4.49165e-06
6.48842e-07
2.46629e-09
2.49454e-09
6.0371e-07
7.94127e-06
1.3104e-05
2.54218e-05
6.06849e-05
7.77261e-05
7.92765e-05
8.0712e-05
8.20101e-05
8.31635e-05
8.4172e-05
8.50342e-05
8.57479e-05
8.63108e-05
8.67202e-05
8.6972e-05
8.70565e-05
8.69708e-05
8.67217e-05
8.63238e-05
8.57863e-05
8.51038e-05
8.42627e-05
8.32442e-05
8.2029e-05
8.06062e-05
7.89848e-05
7.72043e-05
4.38738e-05
1.91808e-05
7.93619e-06
4.31716e-06
6.31467e-07
2.40619e-09
2.5364e-09
6.2127e-07
8.29966e-06
1.29507e-05
2.47616e-05
6.05696e-05
7.77667e-05
7.93042e-05
8.07332e-05
8.2029e-05
8.3184e-05
8.41944e-05
8.50582e-05
8.57735e-05
8.63385e-05
8.67517e-05
8.701e-05
8.70979e-05
8.70203e-05
8.67774e-05
8.63894e-05
8.58655e-05
8.51998e-05
8.43768e-05
8.33755e-05
8.21743e-05
8.07599e-05
7.91404e-05
7.73549e-05
4.26385e-05
1.9229e-05
8.11545e-06
4.39038e-06
6.1851e-07
2.36194e-09
2.54162e-09
6.30878e-07
8.45834e-06
1.33224e-05
2.52984e-05
6.00562e-05
7.78303e-05
7.93556e-05
8.07752e-05
8.2076e-05
8.32414e-05
8.42581e-05
8.51202e-05
8.58275e-05
8.63788e-05
8.67708e-05
8.70063e-05
8.70892e-05
8.70173e-05
8.67768e-05
8.64016e-05
8.58899e-05
8.52346e-05
8.4419e-05
8.34205e-05
8.22165e-05
8.07943e-05
7.91644e-05
7.73714e-05
4.13747e-05
1.86998e-05
8.06184e-06
4.51779e-06
6.36976e-07
2.41146e-09
2.62729e-09
6.35078e-07
7.94132e-06
1.30588e-05
2.48217e-05
5.88065e-05
7.79114e-05
7.9416e-05
8.08191e-05
8.21146e-05
8.32833e-05
8.42967e-05
8.51465e-05
8.58442e-05
8.63891e-05
8.67765e-05
8.70175e-05
8.71107e-05
8.70317e-05
8.68172e-05
8.64672e-05
8.59811e-05
8.53523e-05
8.45635e-05
8.35904e-05
8.24074e-05
8.09958e-05
7.93537e-05
7.74957e-05
4.14724e-05
1.9063e-05
7.6918e-06
3.39949e-06
5.61322e-07
2.22437e-09
2.56701e-09
6.26443e-07
8.1284e-06
1.28825e-05
2.4675e-05
5.84511e-05
7.78859e-05
7.93972e-05
8.081e-05
8.21029e-05
8.32673e-05
8.42777e-05
8.51324e-05
8.58396e-05
8.63912e-05
8.67931e-05
8.7045e-05
8.71341e-05
8.70629e-05
8.68536e-05
8.65073e-05
8.6028e-05
8.54087e-05
8.46304e-05
8.36674e-05
8.24929e-05
8.10885e-05
7.94535e-05
7.76065e-05
4.03763e-05
1.872e-05
7.69419e-06
3.4277e-06
5.58926e-07
2.25146e-09
2.56855e-09
6.32549e-07
8.2385e-06
1.31491e-05
2.47111e-05
5.87288e-05
7.79054e-05
7.94291e-05
8.08373e-05
8.21188e-05
8.3264e-05
8.42789e-05
8.51389e-05
8.5844e-05
8.64037e-05
8.68098e-05
8.70851e-05
8.71846e-05
8.71169e-05
8.69195e-05
8.65902e-05
8.61313e-05
8.55344e-05
8.47791e-05
8.3837e-05
8.26783e-05
8.12817e-05
7.96444e-05
7.77813e-05
3.96062e-05
1.88958e-05
7.6946e-06
3.20221e-06
5.52805e-07
2.21147e-09
2.60838e-09
6.47175e-07
8.67092e-06
1.30723e-05
2.4701e-05
5.82398e-05
7.80067e-05
7.95023e-05
8.08972e-05
8.21712e-05
8.33151e-05
8.43151e-05
8.51626e-05
8.58582e-05
8.64016e-05
8.68038e-05
8.70732e-05
8.71698e-05
8.71134e-05
8.69337e-05
8.66205e-05
8.6176e-05
8.55907e-05
8.48422e-05
8.38985e-05
8.27268e-05
8.13067e-05
7.96478e-05
7.78023e-05
3.78276e-05
1.88254e-05
8.17627e-06
3.14705e-06
5.39013e-07
2.18083e-09
2.59342e-09
6.3513e-07
7.98616e-06
1.31124e-05
2.47719e-05
5.71885e-05
7.80166e-05
7.95278e-05
8.09272e-05
8.22038e-05
8.33514e-05
8.4355e-05
8.52054e-05
8.58943e-05
8.64212e-05
8.68123e-05
8.70691e-05
8.71862e-05
8.71616e-05
8.69979e-05
8.67053e-05
8.62834e-05
8.57207e-05
8.4992e-05
8.40601e-05
8.28832e-05
8.14264e-05
7.96832e-05
7.77147e-05
3.76427e-05
1.78254e-05
7.7777e-06
4.08063e-06
6.22834e-07
2.40057e-09
2.59003e-09
6.44185e-07
8.67459e-06
1.31812e-05
2.45437e-05
5.70809e-05
7.80641e-05
7.9553e-05
8.09395e-05
8.22059e-05
8.33435e-05
8.43467e-05
8.5191e-05
8.58969e-05
8.64471e-05
8.68588e-05
8.71287e-05
8.7254e-05
8.72324e-05
8.70643e-05
8.67695e-05
8.63525e-05
8.57982e-05
8.50782e-05
8.41517e-05
8.2972e-05
8.14968e-05
7.97023e-05
7.76073e-05
3.57525e-05
1.71065e-05
6.96515e-06
3.05071e-06
5.5293e-07
2.23794e-09
2.59392e-09
6.32317e-07
7.87437e-06
1.27798e-05
2.42839e-05
5.69013e-05
7.8045e-05
7.95505e-05
8.09413e-05
8.22088e-05
8.33502e-05
8.43355e-05
8.51923e-05
8.59045e-05
8.64622e-05
8.68839e-05
8.7165e-05
8.73045e-05
8.73022e-05
8.71514e-05
8.6879e-05
8.64879e-05
8.5963e-05
8.5276e-05
8.43847e-05
8.32436e-05
8.18191e-05
8.01212e-05
7.82754e-05
3.54042e-05
1.85364e-05
9.03704e-06
3.60623e-06
5.43151e-07
2.16872e-09
2.5912e-09
6.40991e-07
8.48254e-06
1.3139e-05
2.45415e-05
5.67037e-05
7.80662e-05
7.95684e-05
8.09565e-05
8.22183e-05
8.33499e-05
8.43538e-05
8.52065e-05
8.58969e-05
8.64534e-05
8.68721e-05
8.71529e-05
8.72985e-05
8.73053e-05
8.71639e-05
8.69139e-05
8.65464e-05
8.60447e-05
8.538e-05
8.45107e-05
8.33927e-05
8.19931e-05
8.03137e-05
7.83891e-05
3.50077e-05
1.81226e-05
8.00695e-06
3.80017e-06
5.67049e-07
2.19661e-09
2.62926e-09
6.39518e-07
7.77296e-06
1.27757e-05
2.40682e-05
5.61192e-05
7.80698e-05
7.95856e-05
8.09712e-05
8.22271e-05
8.33514e-05
8.4345e-05
8.51907e-05
8.58926e-05
8.64535e-05
8.68759e-05
8.71635e-05
8.73243e-05
8.73328e-05
8.72254e-05
8.70146e-05
8.66825e-05
8.62151e-05
8.55853e-05
8.47509e-05
8.36655e-05
8.22949e-05
8.06403e-05
7.87708e-05
3.5411e-05
1.86891e-05
8.33573e-06
3.92206e-06
5.76206e-07
2.23161e-09
2.72987e-09
6.90384e-07
9.12958e-06
1.32689e-05
2.44496e-05
5.67871e-05
7.822e-05
7.96844e-05
8.10502e-05
8.23007e-05
8.34199e-05
8.43977e-05
8.52347e-05
8.59334e-05
8.64949e-05
8.69205e-05
8.72139e-05
8.73818e-05
8.7406e-05
8.7299e-05
8.70877e-05
8.6761e-05
8.63029e-05
8.5684e-05
8.48601e-05
8.37838e-05
8.24209e-05
8.07737e-05
7.85459e-05
3.50792e-05
1.85498e-05
8.39285e-06
4.03443e-06
6.12977e-07
2.36013e-09
2.61263e-09
6.50092e-07
8.57171e-06
1.28479e-05
2.38381e-05
5.50087e-05
7.82551e-05
7.9742e-05
8.11124e-05
8.23651e-05
8.34835e-05
8.4454e-05
8.52835e-05
8.59865e-05
8.65526e-05
8.69764e-05