/*--------------------------------*- C++ -*----------------------------------*\
  =========                 |
  \\      /  F ield         | OpenFOAM: The Open Source CFD Toolbox
   \\    /   O peration     | Website:  https://openfoam.org
    \\  /    A nd           | Version:  13
     \\/     M anipulation  |
\*---------------------------------------------------------------------------*/
FoamFile
{
    format      ascii;
    class       volScalarField;
    location    "2";
    object      k;
}
// * * * * * * * * * * * * * * * * * * * * * * * * * * * * * * * * * * * * * //

dimensions      [0 2 -2 0 0 0 0];

internalField   nonuniform List<scalar> 
78750
(
4.19967e-06
4.08162e-05
7.03653e-05
5.89514e-05
3.78563e-05
2.38525e-05
1.95911e-05
1.83753e-05
1.82481e-05
1.89399e-05
2.02562e-05
2.13978e-05
2.25427e-05
2.33779e-05
2.40686e-05
2.49634e-05
2.61814e-05
2.74272e-05
2.84879e-05
2.93822e-05
3.01853e-05
3.09901e-05
3.17763e-05
3.24452e-05
3.29751e-05
3.34e-05
3.36884e-05
3.38219e-05
3.36857e-05
3.30892e-05
3.133e-05
2.92774e-05
3.09281e-05
1.41859e-05
8.20466e-07
1.12564e-06
3.229e-05
0.000141516
0.000145413
0.000149317
0.00015413
0.000144151
0.00013793
0.000137119
0.00013997
0.000144749
0.000150318
0.000156426
0.000162287
0.000167713
0.000172612
0.000176897
0.000180479
0.000183361
0.000185596
0.000187221
0.000188235
0.000188605
0.000188143
0.000186691
0.000184371
0.000181071
0.000176702
0.000171295
0.000165308
0.000159917
0.000160956
0.000131174
3.50131e-05
1.42104e-06
1.14324e-06
3.3173e-05
0.000146566
0.000170356
0.000158609
0.000160397
0.000165239
0.000171825
0.000179233
0.000186851
0.000194246
0.000201119
0.00020724
0.000212515
0.000216906
0.00022041
0.000223044
0.00022484
0.000225822
0.000226011
0.000225346
0.000223774
0.000221423
0.000218285
0.000214358
0.000209615
0.000204013
0.000197564
0.000190377
0.000182665
0.000173743
0.000161692
0.000150582
3.85391e-05
1.43886e-06
1.12935e-06
3.23804e-05
0.000136551
0.000145533
0.000157327
0.000166412
0.000174617
0.000183322
0.000192119
0.000200622
0.000208544
0.000215689
0.000221935
0.000227216
0.000231499
0.000234778
0.000237063
0.000238374
0.000238746
0.00023814
0.000236531
0.000234032
0.000230635
0.000226356
0.00022122
0.000215258
0.000208509
0.000201062
0.00019306
0.000184686
0.000174714
0.000160365
0.000146796
3.67803e-05
1.31921e-06
1.12116e-06
3.21621e-05
0.000136885
0.000147784
0.000159345
0.000168671
0.000177238
0.000186224
0.000195204
0.000203809
0.000211774
0.000218922
0.000225143
0.000230374
0.000234582
0.000237755
0.000239899
0.000241028
0.000241169
0.000240305
0.000238411
0.000235594
0.000231848
0.000227204
0.000221708
0.000215391
0.000208297
0.000200575
0.000192389
0.000184017
0.000174307
0.000161462
0.000153856
3.68264e-05
1.2919e-06
1.13196e-06
3.23938e-05
0.000137801
0.000148934
0.000160522
0.000169874
0.000178494
0.000187486
0.000196435
0.000204984
0.000212878
0.000219948
0.000226089
0.000231239
0.000235366
0.000238461
0.000240527
0.000241583
0.000241605
0.000240593
0.000238551
0.000235538
0.000231557
0.000226691
0.000220974
0.000214446
0.000207167
0.00019924
0.000190845
0.000182287
0.000172305
0.000159482
0.000153076
3.55661e-05
1.22819e-06
1.15037e-06
3.30374e-05
0.000140393
0.000150206
0.000161395
0.000170657
0.000179265
0.000188231
0.000197135
0.000205628
0.000213459
0.000220466
0.000226545
0.000231636
0.000235707
0.000238745
0.000240753
0.000241749
0.000241715
0.000240677
0.000238614
0.000235543
0.00023153
0.000226608
0.00022082
0.000214217
0.000206864
0.000198875
0.000190417
0.000181701
0.000170974
0.000155353
0.000142969
3.32914e-05
1.17692e-06
1.15959e-06
3.32026e-05
0.00013931
0.000150541
0.000162078
0.000171438
0.000180061
0.000188993
0.000197836
0.000206252
0.000214005
0.000220936
0.000226945
0.000231971
0.000235982
0.000238962
0.000240912
0.000241845
0.000241748
0.000240646
0.000238562
0.000235499
0.000231462
0.000226494
0.000220643
0.000213958
0.000206498
0.000198404
0.000189833
0.000181056
0.000170555
0.000156386
0.000148632
3.41669e-05
1.1952e-06
1.1685e-06
3.34377e-05
0.000140647
0.000151268
0.000162715
0.000172066
0.000180666
0.000189561
0.000198356
0.000206719
0.000214417
0.000221296
0.000227257
0.000232241
0.000236213
0.000239156
0.000241069
0.000241963
0.000241821
0.000240666
0.000238572
0.000235494
0.000231446
0.00022647
0.000220592
0.000213877
0.0002064
0.000198324
0.00018972
0.000180843
0.000169846
0.000153746
0.000141047
3.30562e-05
1.17058e-06
1.18315e-06
3.39359e-05
0.000141692
0.000151911
0.000163375
0.000172735
0.000181301
0.000190151
0.000198892
0.000207197
0.000214838
0.000221661
0.000227571
0.000232506
0.000236433
0.000239333
0.000241202
0.000242051
0.000241868
0.00024067
0.000238523
0.000235408
0.000231366
0.000226396
0.000220493
0.000213776
0.000206333
0.000198301
0.000189816
0.000181163
0.000170715
0.000156552
0.000148887
3.39106e-05
1.18034e-06
1.19781e-06
3.42734e-05
0.000141848
0.000152901
0.000164471
0.000173764
0.000182222
0.000190946
0.000199563
0.000207755
0.000215298
0.00022204
0.000227885
0.000232768
0.000236652
0.000239517
0.000241356
0.000242176
0.000241964
0.000240731
0.000238531
0.000235393
0.000231361
0.000226379
0.000220452
0.000213676
0.000206135
0.000197955
0.000189283
0.000180267
0.000168586
0.000148547
0.000116824
3.07736e-05
1.12134e-06
1.20836e-06
3.45154e-05
0.000142252
0.000153493
0.000165467
0.0001748
0.000183173
0.000191779
0.00020027
0.000208345
0.000215786
0.000222442
0.000228214
0.000233038
0.000236873
0.000239698
0.000241505
0.000242301
0.000242084
0.000240859
0.000238646
0.000235461
0.000231342
0.000226261
0.000220243
0.000213369
0.000205785
0.000197611
0.000189051
0.000180407
0.000170049
0.000156158
0.000146685
3.35006e-05
1.17593e-06
1.20956e-06
3.4547e-05
0.00014247
0.000153595
0.000165735
0.000175195
0.00018359
0.000192186
0.000200651
0.000208691
0.000216093
0.000222713
0.000228451
0.000233246
0.000237058
0.000239864
0.000241658
0.000242447
0.000242236
0.000241022
0.000238788
0.000235554
0.000231372
0.000226245
0.00022018
0.000213297
0.000205701
0.000197521
0.000188968
0.000180349
0.0001702
0.000157795
0.000154438
3.50911e-05
1.20538e-06
1.20085e-06
3.4312e-05
0.000141977
0.000153416
0.000165717
0.000175285
0.000183744
0.000192376
0.000200873
0.000208931
0.000216338
0.000222948
0.000228668
0.000233439
0.000237222
0.000239995
0.00024175
0.00024249
0.000242216
0.00024095
0.00023867
0.000235435
0.000231254
0.000226098
0.000220033
0.000213163
0.000205569
0.000197373
0.000188745
0.000179883
0.000168814
0.000152959
0.000141779
3.30562e-05
1.15179e-06
1.161e-06
3.31843e-05
0.000138532
0.000151446
0.000165153
0.000175314
0.000183957
0.000192673
0.000201191
0.000209239
0.000216621
0.000223203
0.000228895
0.000233641
0.000237402
0.000240153
0.000241882
0.000242588
0.000242272
0.000240949
0.000238668
0.000235412
0.000231215
0.000226062
0.000220013
0.000213111
0.000205427
0.000197058
0.000188153
0.000178893
0.000166971
0.000148703
0.000133337
3.06295e-05
1.07715e-06
1.12752e-06
3.24545e-05
0.000135657
0.000150133
0.000164668
0.000175268
0.000184179
0.000193025
0.000201576
0.000209619
0.000216978
0.000223536
0.000229214
0.000233961
0.000237746
0.000240514
0.000242233
0.000242909
0.000242548
0.000241166
0.000238799
0.000235474
0.000231229
0.000226043
0.000219962
0.000213035
0.000205318
0.000196903
0.000187955
0.000178649
0.000166559
0.000147581
0.000131206
2.95166e-05
1.04433e-06
1.19602e-06
3.42496e-05
0.000141301
0.000153275
0.000166494
0.000176509
0.000185081
0.000193667
0.000202055
0.000209994
0.000217286
0.000223801
0.000229454
0.000234194
0.000237986
0.000240745
0.000242473
0.000243162
0.000242802
0.00024141
0.000239018
0.00023565
0.000231336
0.000226109
0.000220006
0.00021307
0.000205369
0.000197014
0.000188209
0.000179175
0.000167563
0.000148499
0.000122913
2.99297e-05
1.07546e-06
1.11734e-06
3.21588e-05
0.000135213
0.00014989
0.000164904
0.00017578
0.000184793
0.000193656
0.000202202
0.000210196
0.000217483
0.000223963
0.000229566
0.00023425
0.000237986
0.000240723
0.000242448
0.000243128
0.00024276
0.000241361
0.000238958
0.000235577
0.00023125
0.000226011
0.0002199
0.000212961
0.000205262
0.000196909
0.000188073
0.00017894
0.000167036
0.000146532
0.000113883
2.96665e-05
1.08963e-06
1.10288e-06
3.17237e-05
0.000133879
0.00014911
0.00016484
0.000175949
0.000185022
0.000193928
0.00020246
0.000210417
0.000217662
0.000224098
0.00022966
0.000234305
0.000238014
0.000240726
0.000242444
0.000243139
0.000242787
0.000241402
0.000239013
0.000235649
0.000231344
0.000226135
0.000220063
0.00021317
0.000205513
0.000197182
0.000188356
0.000179327
0.000168148
0.000152501
0.000140453
3.17705e-05
1.11636e-06
1.08892e-06
3.12581e-05
0.000131508
0.000147992
0.000164391
0.000175787
0.000185006
0.000194007
0.000202586
0.000210563
0.000217808
0.00022423
0.000229767
0.000234375
0.000238027
0.000240713
0.000242438
0.000243129
0.000242763
0.000241361
0.000238952
0.000235568
0.000231243
0.000226012
0.000219912
0.000212982
0.000205267
0.000196832
0.000187887
0.000178744
0.000167351
0.000151574
0.000142567
3.23721e-05
1.11974e-06
1.13536e-06
3.25574e-05
0.000135347
0.000150892
0.000166102
0.000176853
0.000185747
0.000194515
0.000202946
0.000210837
0.000218027
0.000224408
0.000229913
0.000234495
0.000238125
0.00024079
0.000242496
0.000243165
0.000242776
0.000241348
0.000238928
0.000235561
0.000231259
0.000226039
0.000219936
0.000212989
0.000205242
0.000196756
0.000187726
0.000178382
0.000166562
0.000149795
0.00014042
3.12363e-05
1.08721e-06
1.17582e-06
3.35342e-05
0.000139609
0.000152576
0.00016735
0.000177902
0.000186574
0.00019513
0.000203409
0.000211193
0.000218302
0.000224622
0.000230076
0.000234613
0.000238198
0.000240811
0.000242447
0.000243048
0.000242615
0.000241172
0.000238761
0.000235397
0.000231086
0.000225848
0.000219715
0.000212724
0.000204924
0.000196394
0.000187284
0.000177846
0.000165934
0.000149195
0.000140311
3.11163e-05
1.07563e-06
1.08675e-06
3.1245e-05
0.000132127
0.000148694
0.000165575
0.000177073
0.000186225
0.000195065
0.000203495
0.000211335
0.000218457
0.000224769
0.000230209
0.000234729
0.000238292
0.000240873
0.000242452
0.000243017
0.000242581
0.000241161
0.00023874
0.000235372
0.000231094
0.000225892
0.000219774
0.000212786
0.000204979
0.000196438
0.000187315
0.00017786
0.00016596
0.000149145
0.000140092
3.07823e-05
1.05797e-06
1.09695e-06
3.14954e-05
0.000133337
0.000149537
0.000166123
0.000177475
0.000186593
0.000195432
0.000203831
0.000211632
0.000218718
0.000225006
0.000230439
0.000234976
0.000238581
0.000241192
0.000242773
0.000243312
0.000242821
0.000241325
0.00023885
0.000235428
0.0002311
0.000225834
0.000219674
0.000212664
0.000204861
0.000196367
0.000187374
0.0001782
0.000166883
0.000151647
0.000145607
3.17941e-05
1.08792e-06
1.09729e-06
3.15219e-05
0.000132831
0.000149766
0.00016667
0.00017798
0.000187008
0.000195776
0.000204115
0.000211868
0.00021892
0.000225188
0.000230616
0.000235167
0.000238794
0.000241419
0.000243029
0.000243596
0.000243119
0.000241625
0.000239138
0.000235684
0.000231296
0.000226003
0.000219836
0.000212829
0.000205031
0.000196526
0.000187455
0.000178025
0.000165769
0.000147071
0.000132914
2.97823e-05
1.04193e-06
1.10984e-06
3.16775e-05
0.000133203
0.000150293
0.000167479
0.000178796
0.000187739
0.000196376
0.000204564
0.000212185
0.000219143
0.000225337
0.000230698
0.000235178
0.000238745
0.00024133
0.000242939
0.000243507
0.000243031
0.000241537
0.000239048
0.00023559
0.000231194
0.000225892
0.000219712
0.000212686
0.000204863
0.00019634
0.000187299
0.000178145
0.000166825
0.000150994
0.000142607
3.16595e-05
1.11192e-06
1.10971e-06
3.14195e-05
0.000130224
0.00014988
0.000167531
0.000179088
0.000188085
0.0001967
0.000204808
0.000212373
0.000219287
0.000225443
0.000230771
0.000235221
0.000238766
0.000241327
0.000242924
0.000243469
0.00024299
0.000241503
0.000239031
0.000235607
0.000231254
0.000225983
0.000219817
0.000212787
0.000204934
0.000196353
0.000187238
0.000178049
0.000166909
0.000152484
0.000147331
3.27608e-05
1.12692e-06
1.18083e-06
3.40981e-05
0.000142035
0.000154461
0.000168957
0.000179514
0.000188181
0.00019672
0.00020486
0.000212472
0.0002194
0.000225549
0.000230852
0.000235264
0.000238753
0.000241301
0.000242833
0.000243351
0.000242839
0.000241328
0.000238839
0.000235408
0.000231039
0.000225774
0.000219623
0.000212578
0.000204678
0.000196055
0.000186954
0.000177836
0.000166874
0.000153212
0.000149714
3.30276e-05
1.13199e-06
1.1736e-06
3.39657e-05
0.000141787
0.000154177
0.000168927
0.000179714
0.000188552
0.000197181
0.000205369
0.000212944
0.000219792
0.000225831
0.00023104
0.00023539
0.000238828
0.000241319
0.000242846
0.000243338
0.000242813
0.000241297
0.000238801
0.000235363
0.000231004
0.000225816
0.000219694
0.000212634
0.000204715
0.000196092
0.000186945
0.000177609
0.000166063
0.000150791
0.000145652
3.20144e-05
1.09491e-06
1.18914e-06
3.42383e-05
0.000141803
0.000155336
0.000169925
0.000180491
0.000189164
0.000197687
0.000205812
0.000213318
0.000220085
0.000226033
0.000231194
0.000235522
0.000238956
0.000241467
0.000243
0.000243499
0.000242969
0.000241434
0.000238921
0.000235461
0.00023109
0.000225846
0.000219684
0.000212644
0.000204927
0.00019669
0.000188343
0.000180478
0.000171602
0.000157685
0.000122243
2.99515e-05
1.05989e-06
1.20917e-06
3.47592e-05
0.000144393
0.000156058
0.000170168
0.000180562
0.000189089
0.000197554
0.000205638
0.000213159
0.000219974
0.000225999
0.00023123
0.000235602
0.000239078
0.000241648
0.000243215
0.000243717
0.000243179
0.000241629
0.000239088
0.000235592
0.000231167
0.000225833
0.000219601
0.000212484
0.000204601
0.000196057
0.000187118
0.000178104
0.000167095
0.000152514
0.000142273
3.13564e-05
1.08613e-06
1.19084e-06
3.43569e-05
0.00014336
0.00015529
0.000169769
0.000180357
0.000189001
0.000197471
0.000205585
0.000213134
0.000219989
0.000226063
0.000231299
0.000235651
0.000239087
0.000241592
0.000243089
0.000243544
0.000242996
0.000241407
0.00023884
0.000235316
0.000230861
0.000225496
0.000219245
0.000212212
0.000204528
0.000196391
0.000188224
0.000180687
0.000172876
0.000164095
0.000149204
3.28831e-05
1.11806e-06
1.18247e-06
3.4105e-05
0.00014239
0.000155378
0.000170131
0.000180728
0.000189376
0.000197844
0.000205907
0.000213393
0.000220193
0.000226226
0.000231432
0.000235759
0.000239162
0.000241608
0.000243073
0.000243542
0.000242968
0.00024138
0.000238814
0.000235284
0.000230819
0.000225444
0.00021918
0.00021209
0.000204194
0.000195583
0.000186547
0.000177451
0.000166304
0.000151789
0.000145038
3.17229e-05
1.0863e-06
1.19155e-06
3.42305e-05
0.000142538
0.000156252
0.000171017
0.00018146
0.000189939
0.00019826
0.000206231
0.000213663
0.000220436
0.00022647
0.000231706
0.000236091
0.000239541
0.000241999
0.000243447
0.000243857
0.000243234
0.000241606
0.000238993
0.000235415
0.000230896
0.000225466
0.000219213
0.000212149
0.000204373
0.000196185
0.000188035
0.000180623
0.000173253
0.000165952
0.000154284
3.32215e-05
1.13097e-06
1.18675e-06
3.38537e-05
0.000142073
0.000155542
0.000170878
0.000181632
0.000190152
0.000198432
0.000206375
0.000213798
0.000220574
0.000226624
0.000231892
0.000236323
0.000239779
0.000242227
0.00024368
0.000244117
0.000243533
0.000241941
0.000239359
0.0002358
0.000231273
0.000225797
0.000219495
0.000212394
0.000204525
0.000196007
0.000187094
0.000178182
0.000167551
0.000155001
0.000150815
3.35513e-05
1.14718e-06
1.10614e-06
3.14257e-05
0.000132658
0.000151605
0.000169589
0.000181181
0.000190026
0.000198477
0.000206481
0.000213908
0.000220661
0.000226671
0.000231887
0.000236267
0.000239693
0.00024215
0.00024361
0.000244043
0.000243421
0.000241797
0.000239209
0.000235674
0.000231225
0.000225896
0.000219719
0.000212663
0.000204775
0.000196173
0.000187113
0.000177967
0.000166936
0.000153503
0.000151042
3.33812e-05
1.14514e-06
1.08691e-06
3.04284e-05
0.000126256
0.000151011
0.000169624
0.000181316
0.000190231
0.000198647
0.000206618
0.000214028
0.000220763
0.000226748
0.000231927
0.000236253
0.000239691
0.000242138
0.000243582
0.000243986
0.000243344
0.000241742
0.000239198
0.000235756
0.000231447
0.000226301
0.00022022
0.000213203
0.000205302
0.000196636
0.000187468
0.000178284
0.00016732
0.000154132
0.000152156
3.36505e-05
1.14687e-06
1.13859e-06
3.12919e-05
0.000118196
0.000150701
0.000170358
0.000182121
0.000190908
0.000199167
0.000207042
0.000214395
0.000221099
0.000227074
0.000232267
0.000236581
0.000239948
0.000242346
0.000243756
0.000244145
0.000243522
0.000241924
0.000239376
0.000235905
0.000231537
0.000226297
0.000220113
0.000213001
0.000204997
0.000196212
0.000186916
0.000177534
0.00016626
0.0001526
0.00014964
3.30766e-05
1.13761e-06
1.20134e-06
3.46957e-05
0.000146213
0.000156916
0.000171698
0.000182494
0.000191065
0.000199283
0.000207188
0.000214571
0.00022131
0.000227329
0.000232564
0.000236868
0.000240213
0.000242583
0.000243965
0.000244343
0.000243731
0.000242155
0.000239631
0.000236182
0.000231809
0.000226504
0.000220278
0.00021313
0.00020509
0.000196273
0.000186962
0.000177541
0.000166254
0.000152726
0.000149971
3.33658e-05
1.1405e-06
1.16903e-06
3.33155e-05
0.000138907
0.000154665
0.00017145
0.000182726
0.000191347
0.000199553
0.000207406
0.000214734
0.000221423
0.000227393
0.000232559
0.000236811
0.000240113
0.000242429
0.000243765
0.000244131
0.000243521
0.000241963
0.00023946
0.000236056
0.000231696
0.000226394
0.000220167
0.000213018
0.000204969
0.000196117
0.000186759
0.000177262
0.000165705
0.000151635
0.00014811
3.28892e-05
1.12866e-06
1.14552e-06
3.24557e-05
0.000134721
0.000152817
0.000170583
0.000182403
0.000191278
0.000199593
0.000207474
0.000214793
0.000221455
0.000227391
0.000232534
0.000236766
0.000240069
0.000242408
0.0002438
0.000244188
0.000243585
0.000242025
0.00023952
0.000236106
0.000231755
0.000226513
0.000220364
0.000213287
0.000205308
0.000196501
0.000187195
0.000177673
0.000166022
0.000151563
0.000148156
3.27135e-05
1.11949e-06
1.21216e-06
3.47393e-05
0.00014454
0.000157591
0.000172533
0.000183277
0.000191782
0.000199899
0.000207679
0.000214929
0.000221533
0.000227416
0.00023252
0.000236744
0.000240032
0.000242391
0.000243765
0.000244131
0.000243486
0.000241874
0.000239326
0.000235841
0.000231438
0.000226165
0.000220001
0.000213005
0.000205259
0.000196976
0.000188588
0.00018047
0.000171328
0.000158113
0.000123628
3.05815e-05
1.06964e-06
1.18765e-06
3.37547e-05
0.00014109
0.000155805
0.000172263
0.000183505
0.000192054
0.000200129
0.000207855
0.000215053
0.00022161
0.000227453
0.000232534
0.000236724
0.00024
0.000242316
0.000243693
0.000244056
0.000243409
0.000241801
0.000239274
0.000235798
0.000231414
0.000226145
0.000220074
0.000213218
0.000205665
0.000197623
0.000189266
0.000180618
0.00016919
0.000150127
0.000115452
2.89804e-05
1.03127e-06
1.16032e-06
3.28102e-05
0.000135867
0.000153869
0.000171455
0.000183243
0.00019207
0.000200274
0.000208039
0.000215237
0.000221783
0.000227618
0.000232684
0.000236892
0.00024018
0.000242521
0.000243892
0.000244247
0.000243599
0.000241993
0.000239455
0.000236009
0.000231673
0.000226457
0.000220373
0.000213453
0.000205797
0.000197625
0.000189151
0.000180309
0.000168746
0.000150144
0.000120782
2.88256e-05
1.0256e-06
1.2179e-06
3.48908e-05
0.000145401
0.000158362
0.000173513
0.000184317
0.000192803
0.000200785
0.000208408
0.000215526
0.000222027
0.000227843
0.000232902
0.000237091
0.000240378
0.000242726
0.000244104
0.000244473
0.00024385
0.000242278
0.00023978
0.000236383
0.000232106
0.000226955
0.000220923
0.000214031
0.000206369
0.000198147
0.000189642
0.000180704
0.000168898
0.000149224
0.000113236
2.83447e-05
1.01616e-06
1.16158e-06
3.30294e-05
0.000139506
0.000155598
0.000172833
0.00018436
0.000193021
0.000200984
0.000208568
0.00021564
0.000222086
0.000227837
0.000232846
0.000237017
0.000240291
0.000242599
0.000243952
0.000244294
0.00024364
0.000242065
0.000239569
0.000236166
0.000231889
0.000226735
0.000220703
0.000213809
0.000206122
0.000197824
0.000189171
0.000180067
0.000168457
0.000151258
0.000122012
2.94693e-05
1.0643e-06
1.10466e-06
3.10111e-05
0.000130054
0.000151648
0.000171427
0.000183801
0.000192782
0.000200914
0.000208589
0.00021569
0.000222136
0.000227873
0.000232867
0.000237002
0.000240231
0.000242511
0.000243878
0.000244201
0.000243564
0.000242017
0.000239529
0.000236137
0.000231859
0.000226688
0.000220615
0.000213613
0.000205678
0.000196878
0.000187346
0.000176588
0.000162129
0.000141074
0.000109188
2.84684e-05
1.04217e-06
1.13486e-06
3.17769e-05
0.000133512
0.000153514
0.00017237
0.000184339
0.000193163
0.00020124
0.000208867
0.000215929
0.000222346
0.00022807
0.000233036
0.000237163
0.000240396
0.000242705
0.000244065
0.000244425
0.000243799
0.000242235
0.000239757
0.000236382
0.000232114
0.000226942
0.000220844
0.000213796
0.000205813
0.000196973
0.000187432
0.000176492
0.000161626
0.000140228
0.000110787
2.8913e-05
1.06031e-06
1.10607e-06
3.09481e-05
0.000129321
0.000151842
0.000171866
0.000184326
0.000193295
0.000201375
0.000209003
0.000216069
0.000222497
0.000228244
0.00023323
0.00023737
0.000240628
0.000242978
0.000244386
0.000244794
0.000244214
0.000242699
0.000240274
0.000236952
0.000232734
0.000227607
0.000221548
0.000214538
0.000206615
0.000197919
0.000188848
0.000179617
0.000171786
0.000180099
0.000132082
2.91141e-05
1.03109e-06
1.11594e-06
3.11183e-05
0.000130215
0.000152225
0.00017217
0.000184676
0.000193588
0.000201622
0.000209198
0.000216204
0.000222561
0.000228219
0.00023314
0.000237238
0.000240455
0.00024278
0.000244204
0.000244628
0.000244043
0.000242509
0.000240052
0.000236685
0.000232443
0.000227326
0.000221286
0.000214285
0.000206345
0.000197525
0.000188023
0.000177305
0.000164215
0.000152085
0.000146789
3.16801e-05
1.09334e-06
1.10097e-06
3.0936e-05
0.000129469
0.000151791
0.000171823
0.000184459
0.000193534
0.000201672
0.000209284
0.00021629
0.000222627
0.000228256
0.000233153
0.000237217
0.000240423
0.000242769
0.000244214
0.000244628
0.00024404
0.000242508
0.000240056
0.000236704
0.000232538
0.000227527
0.0002216
0.000214699
0.000206821
0.000198023
0.000188429
0.000177225
0.000162214
0.000143065
0.000119797
2.91865e-05
1.04576e-06
1.0973e-06
3.08276e-05
0.000130282
0.00015236
0.000172563
0.000185123
0.000194185
0.000202232
0.000209722
0.00021659
0.000222814
0.000228355
0.000233157
0.000237177
0.000240388
0.000242696
0.000244068
0.000244449
0.000243861
0.00024236
0.000239966
0.000236691
0.000232591
0.000227611
0.000221687
0.000214755
0.000206799
0.000197906
0.000188195
0.000176819
0.000161649
0.000142904
0.000118438
2.8826e-05
1.04185e-06
1.11941e-06
3.14139e-05
0.000131173
0.000152938
0.000172866
0.000185527
0.000194594
0.000202593
0.000209992
0.000216774
0.000222965
0.000228479
0.000233253
0.00023724
0.000240392
0.000242673
0.000244051
0.000244468
0.00024394
0.000242519
0.000240229
0.000237085
0.000233083
0.000228187
0.000222335
0.000215455
0.000207511
0.000198555
0.000188761
0.000177129
0.000161121
0.00014012
0.000108854
2.86514e-05
1.05949e-06
1.14002e-06
3.2184e-05
0.000134051
0.000154985
0.000173555
0.000185689
0.00019457
0.000202511
0.000209923
0.000216792
0.000223024
0.000228554
0.000233338
0.000237334
0.000240507
0.000242829
0.000244285
0.000244784
0.000244317
0.000242933
0.000240655
0.000237498
0.000233447
0.000228498
0.000222619
0.000215729
0.000207767
0.000198766
0.000188877
0.000176978
0.000160588
0.000139861
0.00010947
2.85439e-05
1.03895e-06
1.14136e-06
3.20012e-05
0.000134356
0.000154834
0.00017344
0.000185655
0.000194556
0.000202528
0.000210006
0.000216897
0.000223131
0.000228661
0.000233447
0.000237454
0.000240652
0.000243023
0.000244566
0.000245138
0.000244734
0.000243401
0.000241167
0.000238044
0.000234013
0.000229122
0.000223347
0.000216577
0.000208749
0.000199888
0.000190135
0.000178305
0.000162079
0.000142263
0.000116284
2.84864e-05
1.05118e-06
1.142e-06
3.16334e-05
0.000131618
0.000154436
0.0001738
0.000186074
0.000194934
0.000202868
0.000210302
0.000217146
0.000223335
0.000228823
0.000233573
0.000237544
0.000240703
0.000243023
0.000244492
0.000244992
0.000244542
0.000243198
0.000240991
0.000237934
0.000234014
0.000229285
0.000223666
0.000217089
0.000209534
0.000201073
0.000191871
0.000180769
0.000165384
0.000145554
0.000118927
2.90754e-05
1.05495e-06
1.10742e-06
3.10123e-05
0.00012882
0.000153275
0.000173437
0.000186123
0.000195138
0.000203115
0.000210545
0.000217361
0.000223517
0.000228976
0.000233701
0.000237653
0.00024079
0.000243077
0.000244482
0.000244946
0.000244496
0.000243194
0.000241077
0.000238161
0.000234441
0.000229875
0.000224395
0.000217933
0.000210463
0.000202046
0.000192826
0.000181545
0.000165574
0.000143799
0.000110399
2.89142e-05
1.06255e-06
1.12893e-06
3.16358e-05
0.000133025
0.000153798
0.000173368
0.000186143
0.000195262
0.000203264
0.000210695
0.000217504
0.000223652
0.000229107
0.000233835
0.000237796
0.000240956
0.000243284
0.000244759
0.000245276
0.00024483
0.000243484
0.000241316
0.00023838
0.000234662
0.000230106
0.00022463
0.000218151
0.00021063
0.000202108
0.000192702
0.000181093
0.000164461
0.000142531
0.000109387
2.82203e-05
1.02589e-06
1.14556e-06
3.23731e-05
0.000133942
0.000155576
0.00017436
0.000186621
0.00019552
0.000203418
0.000210808
0.000217608
0.000223761
0.000229225
0.000233962
0.000237933
0.000241108
0.000243464
0.000244999
0.000245549
0.000245129
0.000243787
0.000241655
0.00023879
0.000235159
0.000230695
0.000225303
0.000218889
0.000211407
0.000202895
0.000193479
0.000181797
0.000165324
0.000144978
0.000116723
2.83213e-05
1.03087e-06
1.16661e-06
3.31205e-05
0.00013897
0.000156488
0.000174871
0.000187064
0.00019592
0.000203774
0.000211144
0.000217952
0.000224127
0.000229599
0.000234317
0.000238241
0.000241338
0.000243579
0.000244994
0.000245484
0.000245064
0.000243772
0.000241732
0.000238944
0.000235376
0.000230956
0.00022558
0.00021915
0.000211613
0.000203006
0.000193452
0.000181481
0.000164384
0.000142273
0.000109112
2.83711e-05
1.04063e-06
1.16548e-06
3.23388e-05
0.000133692
0.000154941
0.000174453
0.00018726
0.000196262
0.000204088
0.000211423
0.000218212
0.000224374
0.000229822
0.0002345
0.000238388
0.000241448
0.000243622
0.000244989
0.000245488
0.000245123
0.000243972
0.000242065
0.00023941
0.000235977
0.000231689
0.000226434
0.000220095
0.000212595
0.000203933
0.000194187
0.000181807
0.000164372
0.000143995
0.000124058
2.79974e-05
1.00155e-06
1.14773e-06
3.22478e-05
0.000134519
0.00015576
0.000174491
0.000187106
0.0001961
0.00020395
0.000211302
0.000218086
0.000224237
0.000229687
0.000234393
0.000238321
0.00024142
0.000243696
0.000245167
0.000245724
0.00024538
0.000244224
0.000242332
0.00023972
0.000236346
0.000232123
0.000226931
0.000220644
0.000213189
0.00020458
0.000194915
0.000182546
0.000165024
0.000145385
0.000129631
2.89877e-05
1.02662e-06
1.16803e-06
3.3051e-05
0.000136639
0.000157141
0.000175442
0.00018757
0.000196322
0.000204057
0.000211339
0.000218066
0.000224174
0.000229614
0.00023434
0.000238249
0.000241402
0.000243798
0.000245339
0.000245953
0.000245646
0.000244543
0.000242742
0.000240236
0.000236976
0.000232865
0.000227769
0.000221547
0.000214107
0.000205444
0.000195627
0.000182856
0.000164623
0.000143823
0.000126138
2.84195e-05
1.00755e-06
1.19819e-06
3.38547e-05
0.000141296
0.000157864
0.000175729
0.000187936
0.000196688
0.000204402
0.000211651
0.000218359
0.000224467
0.000229881
0.000234536
0.00023841
0.000241479
0.000243786
0.000245283
0.000245922
0.000245656
0.000244665
0.000242963
0.000240547
0.000237362
0.000233303
0.000228218
0.000221954
0.00021442
0.000205648
0.000195825
0.000183261
0.000165768
0.000145714
0.000124707
2.7854e-05
9.90494e-07
1.1672e-06
3.28809e-05
0.000136474
0.00015627
0.000175172
0.000187876
0.000196843
0.000204579
0.000211821
0.000218542
0.000224686
0.000230087
0.000234729
0.000238576
0.000241563
0.000243804
0.000245319
0.000245973
0.000245845
0.000244968
0.000243377
0.000241075
0.000238001
0.000234034
0.000228999
0.00022271
0.000215034
0.000205973
0.000195759
0.000182798
0.000165599
0.000149566
0.000144553
3.14774e-05
1.10586e-06
1.19487e-06
3.38127e-05
0.000141534
0.000157816
0.000175806
0.000188264
0.000197114
0.000204732
0.0002119
0.000218557
0.00022464
0.000230016
0.0002347
0.00023861
0.000241724
0.000244074
0.000245647
0.000246398
0.000246304
0.000245394
0.000243795
0.000241526
0.000238508
0.000234602
0.000229619
0.000223365
0.000215716
0.000206736
0.000196862
0.000185389
0.000174864
0.000184533
0.000141253
3.05181e-05
1.06854e-06
1.18159e-06
3.30224e-05
0.000137299
0.000156467
0.000175309
0.00018802
0.000196967
0.000204663
0.000211879
0.000218542
0.000224604
0.000230035
0.0002347
0.00023864
0.000241801
0.000244216
0.000245859
0.000246707
0.000246708
0.000245865
0.000244371
0.000242235
0.000239374
0.000235638
0.000230829
0.000224739
0.000217236
0.000208363
0.000198464
0.000186259
0.000171893
0.000160657
0.000140019
3.02944e-05
1.0461e-06
1.18366e-06
3.34334e-05
0.000140246
0.00015784
0.000175764
0.00018816
0.000197032
0.000204753
0.000211964
0.000218608
0.000224652
0.000230089
0.000234759
0.000238622
0.000241761
0.000244165
0.000245779
0.000246623
0.000246674
0.000245941
0.00024459
0.00024259
0.000239858
0.000236244
0.000231544
0.000225545
0.000218103
0.000209224
0.000199138
0.000186197
0.000168974
0.000152971
0.000141127
3.02267e-05
1.0517e-06
1.15479e-06
3.20094e-05
0.000131705
0.000156755
0.000175731
0.000188284
0.000197178
0.00020487
0.00021205
0.000218658
0.00022466
0.00023004
0.000234685
0.000238589
0.00024174
0.000244126
0.000245735
0.000246647
0.000246823
0.000246304
0.000245148
0.000243339
0.000240797
0.00023737
0.000232847
0.000227007
0.0002197
0.000210927
0.000200923
0.000188075
0.000170968
0.000155063
0.000144955
3.16327e-05
1.08743e-06
1.18712e-06
3.2373e-05
0.000122258
0.000155123
0.000175866
0.00018878
0.000197718
0.000205357
0.000212498
0.000219089
0.000225052
0.000230344
0.000234943
0.00023883
0.00024199
0.000244411
0.000246095
0.000247058
0.000247264
0.000246731
0.000245569
0.000243788
0.000241296
0.000237926
0.000233455
0.000227656
0.000220375
0.000211617
0.000201616
0.000188843
0.000172287
0.000157814
0.000150002
3.26754e-05
1.13219e-06
1.20907e-06
3.45741e-05
0.000146218
0.000160696
0.000177356
0.000189456
0.000198189
0.000205735
0.000212859
0.000219456
0.000225421
0.000230692
0.000235251
0.000239119
0.000242305