/*--------------------------------*- C++ -*----------------------------------*\
  =========                 |
  \\      /  F ield         | OpenFOAM: The Open Source CFD Toolbox
   \\    /   O peration     | Website:  https://openfoam.org
    \\  /    A nd           | Version:  13
     \\/     M anipulation  |
\*---------------------------------------------------------------------------*/
FoamFile
{
    format      ascii;
    class       volScalarField;
    location    "2";
    object      nut;
}
// * * * * * * * * * * * * * * * * * * * * * * * * * * * * * * * * * * * * * //

dimensions      [0 2 -1 0 0 0 0];

internalField   nonuniform List<scalar> 
78750
(
6.18809e-09
5.41272e-07
2.3158e-06
3.11831e-06
2.49873e-06
1.57439e-06
1.29312e-06
1.21287e-06
1.20448e-06
1.25014e-06
1.33702e-06
1.41237e-06
1.48794e-06
1.54307e-06
1.58866e-06
1.64772e-06
1.72812e-06
1.81035e-06
1.88036e-06
1.93939e-06
1.9924e-06
2.04552e-06
2.09741e-06
2.14157e-06
2.17654e-06
2.20459e-06
2.22362e-06
2.23244e-06
2.22345e-06
2.18407e-06
2.06796e-06
1.93247e-06
1.85403e-06
1.88123e-07
1.20893e-09
1.6586e-09
4.28205e-07
5.26484e-06
6.39843e-06
9.06846e-06
1.65108e-05
3.4514e-05
5.18005e-05
5.14958e-05
5.25665e-05
5.43613e-05
4.73852e-05
4.82221e-05
4.90458e-05
4.98124e-05
5.05055e-05
5.11131e-05
5.16253e-05
5.20368e-05
5.23549e-05
5.25842e-05
5.27253e-05
5.27755e-05
5.27101e-05
5.25071e-05
5.21828e-05
5.17226e-05
5.11186e-05
5.03946e-05
4.96854e-05
3.3292e-05
1.02118e-05
4.09623e-06
4.64317e-07
2.09386e-09
1.68453e-09
4.39914e-07
6.26737e-06
9.1957e-06
1.65725e-05
4.56039e-05
4.97882e-05
5.05824e-05
5.1544e-05
5.25552e-05
5.35434e-05
5.44682e-05
5.52897e-05
5.59954e-05
5.65811e-05
5.70472e-05
5.73971e-05
5.76357e-05
5.77664e-05
5.77916e-05
5.77042e-05
5.7497e-05
5.71857e-05
5.67695e-05
5.62481e-05
5.56166e-05
5.48676e-05
5.40024e-05
5.30371e-05
5.20086e-05
2.72802e-05
8.36524e-06
4.01385e-06
5.11075e-07
2.12012e-09
1.66406e-09
4.29403e-07
6.43089e-06
8.16086e-06
1.57832e-05
4.17672e-05
5.08904e-05
5.20665e-05
5.32533e-05
5.43981e-05
5.54612e-05
5.64162e-05
5.72475e-05
5.79474e-05
5.85131e-05
5.89451e-05
5.92457e-05
5.94189e-05
5.94699e-05
5.93936e-05
5.91869e-05
5.88637e-05
5.84209e-05
5.78591e-05
5.71806e-05
5.63887e-05
5.5488e-05
5.44898e-05
5.34139e-05
5.22899e-05
2.35685e-05
7.41176e-06
3.75757e-06
4.87752e-07
1.94382e-09
1.652e-09
4.26509e-07
6.4717e-06
8.87188e-06
1.82801e-05
4.85317e-05
5.12395e-05
5.24534e-05
5.36662e-05
5.48255e-05
5.58944e-05
5.68492e-05
5.76762e-05
5.83684e-05
5.89232e-05
5.93406e-05
5.96223e-05
5.97714e-05
5.97919e-05
5.96821e-05
5.94375e-05
5.90717e-05
5.85822e-05
5.79718e-05
5.7245e-05
5.6405e-05
5.54567e-05
5.44219e-05
5.33274e-05
5.2224e-05
2.14514e-05
6.74118e-06
3.60022e-06
4.88363e-07
1.90357e-09
1.66791e-09
4.29581e-07
6.63714e-06
9.18547e-06
1.95688e-05
5.02373e-05
5.14053e-05
5.26204e-05
5.38288e-05
5.49803e-05
5.60396e-05
5.69839e-05
5.78003e-05
5.8482e-05
5.90264e-05
5.94339e-05
5.97061e-05
5.98468e-05
5.98529e-05
5.97248e-05
5.94593e-05
5.90641e-05
5.85418e-05
5.79009e-05
5.71431e-05
5.6273e-05
5.52982e-05
5.42334e-05
5.31091e-05
5.19824e-05
1.97257e-05
6.41734e-06
3.66628e-06
4.7165e-07
1.80971e-09
1.69503e-09
4.38116e-07
6.53429e-06
9.59107e-06
1.98561e-05
5.0352e-05
5.15125e-05
5.27219e-05
5.39232e-05
5.50665e-05
5.61168e-05
5.70523e-05
5.78601e-05
5.85337e-05
5.90705e-05
5.94704e-05
5.97352e-05
5.98683e-05
5.98678e-05
5.97367e-05
5.94687e-05
5.90657e-05
5.85408e-05
5.78932e-05
5.71268e-05
5.62467e-05
5.52606e-05
5.41825e-05
5.30341e-05
5.18466e-05
1.81267e-05
5.87445e-06
3.47281e-06
4.41484e-07
1.73415e-09
1.70862e-09
4.40307e-07
6.79102e-06
9.47732e-06
2.05343e-05
5.04524e-05
5.162e-05
5.28264e-05
5.40195e-05
5.51522e-05
5.61915e-05
5.71163e-05
5.79142e-05
5.85789e-05
5.91074e-05
5.94994e-05
5.97563e-05
5.9881e-05
5.98716e-05
5.97319e-05
5.94631e-05
5.90646e-05
5.85374e-05
5.7885e-05
5.71103e-05
5.62189e-05
5.52157e-05
5.41239e-05
5.29682e-05
5.18005e-05
1.7835e-05
6.00964e-06
3.57312e-06
4.53095e-07
1.76108e-09
1.72175e-09
4.43425e-07
6.70807e-06
9.7256e-06
2.06284e-05
5.05411e-05
5.17039e-05
5.29045e-05
5.40906e-05
5.52155e-05
5.6247e-05
5.71644e-05
5.79556e-05
5.86142e-05
5.91372e-05
5.95239e-05
5.97756e-05
5.98946e-05
5.98789e-05
5.97316e-05
5.94625e-05
5.90627e-05
5.85335e-05
5.78766e-05
5.70949e-05
5.61963e-05
5.51909e-05
5.41031e-05
5.29361e-05
5.17305e-05
1.74815e-05
5.89346e-06
3.33436e-06
4.38366e-07
1.72481e-09
1.74334e-09
4.50031e-07
6.72316e-06
9.79797e-06
2.05408e-05
5.06425e-05
5.17983e-05
5.29909e-05
5.41679e-05
5.52835e-05
5.63059e-05
5.72149e-05
5.79985e-05
5.86502e-05
5.91668e-05
5.95476e-05
5.97935e-05
5.99065e-05
5.9885e-05
5.97314e-05
5.94545e-05
5.90489e-05
5.85183e-05
5.78611e-05
5.70719e-05
5.61728e-05
5.51773e-05
5.40966e-05
5.29506e-05
5.17908e-05
1.7047e-05
5.88707e-06
3.45476e-06
4.49696e-07
1.7392e-09
1.76493e-09
4.54508e-07
6.91862e-06
9.86201e-06
2.05401e-05
5.07859e-05
5.1928e-05
5.31032e-05
5.42623e-05
5.53615e-05
5.63697e-05
5.72669e-05
5.8041e-05
5.8685e-05
5.91955e-05
5.95712e-05
5.98125e-05
5.99212e-05
5.98952e-05
5.97358e-05
5.94501e-05
5.9041e-05
5.85125e-05
5.78542e-05
5.70621e-05
5.61541e-05
5.51406e-05
5.40318e-05
5.28423e-05
5.15721e-05
1.65071e-05
5.51161e-06
2.78533e-06
4.08095e-07
1.65227e-09
1.78048e-09
4.57716e-07
6.94543e-06
9.89254e-06
2.05644e-05
5.09204e-05
5.20552e-05
5.3217e-05
5.436e-05
5.5443e-05
5.64369e-05
5.73219e-05
5.80859e-05
5.87216e-05
5.92254e-05
5.95957e-05
5.98329e-05
5.9939e-05
5.99137e-05
5.97556e-05
5.94679e-05
5.90522e-05
5.85117e-05
5.78397e-05
5.70362e-05
5.61163e-05
5.50985e-05
5.39969e-05
5.28488e-05
5.17057e-05
1.62282e-05
5.61762e-06
3.36255e-06
4.44259e-07
1.73269e-09
1.78225e-09
4.58136e-07
6.96384e-06
9.85965e-06
2.04154e-05
5.09657e-05
5.21084e-05
5.32706e-05
5.44105e-05
5.5489e-05
5.64777e-05
5.73577e-05
5.81171e-05
5.87488e-05
5.92491e-05
5.96167e-05
5.98519e-05
5.9957e-05
5.99325e-05
5.97744e-05
5.9482e-05
5.9058e-05
5.85097e-05
5.78319e-05
5.70207e-05
5.61021e-05
5.50831e-05
5.39809e-05
5.28429e-05
5.17222e-05
1.58733e-05
5.66743e-06
3.58959e-06
4.65352e-07
1.77609e-09
1.76942e-09
4.55019e-07
6.93723e-06
9.78837e-06
2.01808e-05
5.0983e-05
5.21378e-05
5.33018e-05
5.44435e-05
5.55228e-05
5.65111e-05
5.73893e-05
5.81459e-05
5.87742e-05
5.92705e-05
5.96334e-05
5.98629e-05
5.99608e-05
5.99269e-05
5.97628e-05
5.94651e-05
5.9043e-05
5.84945e-05
5.78086e-05
5.69967e-05
5.60791e-05
5.50577e-05
5.39455e-05
5.27745e-05
5.15701e-05
1.50683e-05
5.22708e-06
3.2902e-06
4.38366e-07
1.69713e-09
1.71071e-09
4.40064e-07
6.76178e-06
9.61193e-06
1.99392e-05
5.09648e-05
5.21541e-05
5.33359e-05
5.4484e-05
5.55634e-05
5.65489e-05
5.74234e-05
5.81762e-05
5.88008e-05
5.92939e-05
5.96534e-05
5.98789e-05
5.99718e-05
5.99317e-05
5.97606e-05
5.94659e-05
5.9039e-05
5.84847e-05
5.77998e-05
5.6994e-05
5.60708e-05
5.50337e-05
5.38953e-05
5.26726e-05
5.13887e-05
1.50232e-05
5.24375e-06
3.09388e-06
4.06185e-07
1.58714e-09
1.66137e-09
4.30386e-07
6.59028e-06
9.43219e-06
1.96865e-05
5.06669e-05
5.21836e-05
5.3381e-05
5.45338e-05
5.56138e-05
5.65972e-05
5.74689e-05
5.82198e-05
5.88448e-05
5.93415e-05
5.97039e-05
5.99285e-05
6.00178e-05
5.99721e-05
5.97928e-05
5.94844e-05
5.90496e-05
5.8493e-05
5.78084e-05
5.69997e-05
5.60714e-05
5.50301e-05
5.38886e-05
5.26591e-05
5.13631e-05
1.46113e-05
5.09536e-06
3.02521e-06
3.91427e-07
1.53878e-09
1.76229e-09
4.54192e-07
6.89284e-06
9.64449e-06
1.9749e-05
5.04512e-05
5.23208e-05
5.34802e-05
5.46059e-05
5.56684e-05
5.66405e-05
5.75052e-05
5.82519e-05
5.88749e-05
5.93709e-05
5.97315e-05
5.996e-05
6.00524e-05
6.00064e-05
5.98257e-05
5.95141e-05
5.90735e-05
5.85064e-05
5.78153e-05
5.70033e-05
5.60749e-05
5.50384e-05
5.39093e-05
5.27041e-05
5.14324e-05
1.45988e-05
5.17926e-06
2.86502e-06
3.96905e-07
1.58466e-09
1.64637e-09
4.26466e-07
6.6585e-06
9.32478e-06
1.9306e-05
4.96788e-05
5.22627e-05
5.34611e-05
5.46147e-05
5.56894e-05
5.6664e-05
5.75258e-05
5.82673e-05
5.8884e-05
5.93739e-05
5.97344e-05
5.99632e-05
6.00505e-05
6.00031e-05
5.98212e-05
5.95082e-05
5.9066e-05
5.84973e-05
5.78049e-05
5.69922e-05
5.60636e-05
5.50264e-05
5.38929e-05
5.26788e-05
5.13778e-05
1.4383e-05
5.00953e-06
2.60765e-06
3.93414e-07
1.60553e-09
1.62505e-09
4.20695e-07
6.46005e-06
9.20542e-06
1.9122e-05
4.91848e-05
5.22776e-05
5.349e-05
5.4646e-05
5.57177e-05
5.66873e-05
5.75437e-05
5.828e-05
5.88928e-05
5.93825e-05
5.97376e-05
5.99614e-05
6.00517e-05
6.00052e-05
5.98246e-05
5.95129e-05
5.90725e-05
5.85062e-05
5.7817e-05
5.70082e-05
5.60836e-05
5.50488e-05
5.39153e-05
5.27126e-05
5.149e-05
1.43494e-05
5.22938e-06
3.27924e-06
4.21316e-07
1.64492e-09
1.60449e-09
4.14521e-07
6.51949e-06
9.23984e-06
1.88738e-05
4.85782e-05
5.22678e-05
5.34988e-05
5.46627e-05
5.5737e-05
5.67065e-05
5.75609e-05
5.82936e-05
5.89006e-05
5.93802e-05
5.97326e-05
5.99612e-05
6.00502e-05
6.00025e-05
5.98201e-05
5.9506e-05
5.90632e-05
5.84945e-05
5.78024e-05
5.69896e-05
5.60588e-05
5.50131e-05
5.3859e-05
5.26378e-05
5.1405e-05
1.40954e-05
5.24491e-06
3.23403e-06
4.29294e-07
1.6499e-09
1.67291e-09
4.31751e-07
6.53531e-06
9.23947e-06
1.89072e-05
4.84513e-05
5.2405e-05
5.35884e-05
5.47209e-05
5.57781e-05
5.67374e-05
5.75851e-05
5.83129e-05
5.89161e-05
5.93925e-05
5.97419e-05
5.99672e-05
6.00533e-05
6.00022e-05
5.98147e-05
5.94959e-05
5.90547e-05
5.84905e-05
5.78006e-05
5.69872e-05
5.60535e-05
5.50024e-05
5.38402e-05
5.26061e-05
5.13413e-05
1.39859e-05
5.0742e-06
3.22399e-06
4.14231e-07
1.60197e-09
1.73254e-09
4.44704e-07
6.65797e-06
9.4944e-06
1.90484e-05
4.82803e-05
5.25232e-05
5.36794e-05
5.47892e-05
5.58295e-05
5.67766e-05
5.7615e-05
5.83354e-05
5.8932e-05
5.94017e-05
5.97433e-05
5.99581e-05
6.00345e-05
5.99788e-05
5.97891e-05
5.94747e-05
5.90374e-05
5.84706e-05
5.77766e-05
5.69591e-05
5.60203e-05
5.49646e-05
5.38024e-05
5.25591e-05
5.09442e-05
1.37455e-05
5.13696e-06
3.26362e-06
4.1264e-07
1.5849e-09
1.6013e-09
4.14347e-07
6.44604e-06
9.01002e-06
1.84982e-05
4.75129e-05
5.24418e-05
5.36475e-05
5.47884e-05
5.58423e-05
5.67939e-05
5.76328e-05
5.83518e-05
5.89462e-05
5.94126e-05
5.97488e-05
5.99532e-05
6.00268e-05
5.99695e-05
5.9788e-05
5.94743e-05
5.90318e-05
5.84663e-05
5.7778e-05
5.69632e-05
5.60253e-05
5.49696e-05
5.38073e-05
5.25638e-05
5.08109e-05
1.3715e-05
4.99397e-06
3.18431e-06
4.08211e-07
1.55888e-09
1.61632e-09
4.17668e-07
6.35581e-06
8.93913e-06
1.86053e-05
4.73948e-05
5.24857e-05
5.36959e-05
5.48343e-05
5.58835e-05
5.68307e-05
5.76666e-05
5.83852e-05
5.89828e-05
5.94548e-05
5.97947e-05
5.99993e-05
6.00695e-05
6.00064e-05
5.98116e-05
5.94882e-05
5.90397e-05
5.84709e-05
5.77745e-05
5.69542e-05
5.60139e-05
5.49604e-05
5.38087e-05
5.25903e-05
5.02342e-05
1.35724e-05
5.11218e-06
3.35787e-06
4.21629e-07
1.60302e-09
1.61682e-09
4.18019e-07
6.46066e-06
9.05638e-06
1.83607e-05
4.67935e-05
5.25482e-05
5.37452e-05
5.4874e-05
5.59159e-05
5.6858e-05
5.76909e-05
5.84086e-05
5.90075e-05
5.948e-05
5.98208e-05
6.00316e-05
6.01078e-05
6.00467e-05
5.98521e-05
5.95273e-05
5.90748e-05
5.84969e-05
5.77958e-05
5.69736e-05
5.60329e-05
5.49779e-05
5.38176e-05
5.25679e-05
4.9637e-05
1.34941e-05
4.99775e-06
2.99588e-06
3.94949e-07
1.53526e-09
1.63532e-09
4.20083e-07
6.37399e-06
8.92014e-06
1.83713e-05
4.67611e-05
5.26598e-05
5.38391e-05
5.49433e-05
5.59634e-05
5.68904e-05
5.7712e-05
5.84198e-05
5.90087e-05
5.94747e-05
5.98124e-05
6.00246e-05
6.01002e-05
6.00386e-05
5.98436e-05
5.95183e-05
5.90652e-05
5.84865e-05
5.77842e-05
5.69602e-05
5.60171e-05
5.49604e-05
5.38035e-05
5.25729e-05
4.96944e-05
1.34393e-05
5.04922e-06
3.24269e-06
4.19844e-07
1.63838e-09
1.63513e-09
4.16661e-07
6.26939e-06
9.07273e-06
1.81696e-05
4.61949e-05
5.27044e-05
5.3883e-05
5.49761e-05
5.5988e-05
5.69086e-05
5.7725e-05
5.84287e-05
5.90146e-05
5.94814e-05
5.98143e-05
6.00196e-05
6.00874e-05
6.00238e-05
5.98292e-05
5.95061e-05
5.90584e-05
5.8487e-05
5.77897e-05
5.69673e-05
5.60228e-05
5.49617e-05
5.37989e-05
5.25688e-05
4.90286e-05
1.33337e-05
5.16775e-06
3.41655e-06
4.34448e-07
1.66048e-09
1.73992e-09
4.52183e-07
6.80745e-06
9.19459e-06
1.81809e-05
4.59736e-05
5.27456e-05
5.38939e-05
5.49839e-05
5.60005e-05
5.69229e-05
5.77383e-05
5.84385e-05
5.90188e-05
5.94762e-05
5.98105e-05
6.00059e-05
6.00742e-05
6.00082e-05
5.98103e-05
5.94852e-05
5.90379e-05
5.84617e-05
5.77624e-05
5.69421e-05
5.59952e-05
5.49252e-05
5.37571e-05
5.25409e-05
4.91719e-05
1.33467e-05
5.15074e-06
3.37332e-06
4.37986e-07
1.66796e-09
1.72926e-09
4.50427e-07
6.67058e-06
9.09867e-06
1.80492e-05
4.53433e-05
5.27865e-05
5.39524e-05
5.50543e-05
5.60691e-05
5.69817e-05
5.77806e-05
5.84654e-05
5.90353e-05
5.94843e-05
5.98092e-05
6.00103e-05
6.00752e-05
6.00073e-05
5.98072e-05
5.94815e-05
5.90279e-05
5.84475e-05
5.77592e-05
5.69424e-05
5.59913e-05
5.4919e-05
5.37587e-05
5.2544e-05
4.87997e-05
1.33105e-05
5.08052e-06
3.26408e-06
4.2455e-07
1.61332e-09
1.75216e-09
4.54042e-07
6.8516e-06
9.14545e-06
1.79817e-05
4.52927e-05
5.28819e-05
5.40268e-05
5.51188e-05
5.61238e-05
5.70266e-05
5.78109e-05
5.84875e-05
5.90541e-05
5.95032e-05
5.98319e-05
6.00299e-05
6.00932e-05
6.0024e-05
5.98235e-05
5.94944e-05
5.90397e-05
5.8463e-05
5.77687e-05
5.69471e-05
5.60006e-05
5.49723e-05
5.38839e-05
5.27942e-05
4.89291e-05
1.36596e-05
5.30582e-06
2.80206e-06
3.97193e-07
1.56172e-09
1.78167e-09
4.6095e-07
6.81673e-06
9.14142e-06
1.78842e-05
4.48402e-05
5.28784e-05
5.40133e-05
5.50929e-05
5.60968e-05
5.70056e-05
5.77997e-05
5.84886e-05
5.90631e-05
5.95196e-05
5.9859e-05
6.00588e-05
6.01194e-05
6.00483e-05
5.98451e-05
5.9511e-05
5.90522e-05
5.84685e-05
5.77599e-05
5.69243e-05
5.59616e-05
5.48985e-05
5.37539e-05
5.25801e-05
4.85396e-05
1.33477e-05
5.08671e-06
3.19436e-06
4.15824e-07
1.60037e-09
1.75466e-09
4.55614e-07
6.7051e-06
9.25408e-06
1.7716e-05
4.44533e-05
5.28572e-05
5.3989e-05
5.50751e-05
5.60841e-05
5.69973e-05
5.78031e-05
5.84946e-05
5.90669e-05
5.95176e-05
5.98467e-05
6.00377e-05
6.00947e-05
6.00272e-05
5.98167e-05
5.94809e-05
5.90178e-05
5.84305e-05
5.77183e-05
5.68806e-05
5.59389e-05
5.49187e-05
5.38513e-05
5.28006e-05
4.88279e-05
1.37709e-05
5.57324e-06
3.42024e-06
4.3607e-07
1.64742e-09
1.74233e-09
4.52274e-07
6.6916e-06
8.95972e-06
1.75222e-05
4.41187e-05
5.28926e-05
5.40314e-05
5.51148e-05
5.61176e-05
5.70242e-05
5.78246e-05
5.85116e-05
5.90796e-05
5.95242e-05
5.98422e-05
6.00322e-05
6.00964e-05
6.00213e-05
5.98155e-05
5.94771e-05
5.90127e-05
5.84226e-05
5.77078e-05
5.6869e-05
5.59185e-05
5.48572e-05
5.36991e-05
5.25034e-05
4.76618e-05
1.32559e-05
5.0432e-06
3.20429e-06
4.20685e-07
1.60063e-09
1.75572e-09
4.53939e-07
6.78702e-06
8.91025e-06
1.76285e-05
4.41394e-05
5.29833e-05
5.40954e-05
5.51633e-05
5.61569e-05
5.70591e-05
5.78595e-05
5.85513e-05
5.91271e-05
5.95773e-05
5.98963e-05
6.00825e-05
6.01352e-05
6.00545e-05
5.98418e-05
5.94993e-05
5.90288e-05
5.84328e-05
5.77123e-05
5.68821e-05
5.59387e-05
5.48998e-05
5.38253e-05
5.27864e-05
4.81296e-05
1.36902e-05
5.56397e-06
3.48747e-06
4.40557e-07
1.66645e-09
1.74864e-09
4.48942e-07
6.65293e-06
8.9823e-06
1.73657e-05
4.32395e-05
5.30074e-05
5.41206e-05
5.5185e-05
5.61761e-05
5.70779e-05
5.788e-05
5.8576e-05
5.91572e-05
5.96073e-05
5.99236e-05
6.01097e-05
6.01681e-05
6.00951e-05
5.98873e-05
5.95473e-05
5.90781e-05
5.84818e-05
5.77505e-05
5.69035e-05
5.59468e-05
5.48849e-05
5.37381e-05
5.25515e-05
4.72891e-05
1.33706e-05
5.24469e-06
3.39717e-06
4.44931e-07
1.69034e-09
1.62987e-09
4.16743e-07
6.09942e-06
8.6819e-06
1.7138e-05
4.29331e-05
5.29628e-05
5.41121e-05
5.51918e-05
5.61871e-05
5.70873e-05
5.78845e-05
5.8573e-05
5.91482e-05
5.95945e-05
5.99138e-05
6.01009e-05
6.01603e-05
6.00787e-05
5.98636e-05
5.95232e-05
5.90596e-05
5.84738e-05
5.77626e-05
5.6937e-05
5.59892e-05
5.49261e-05
5.37687e-05
5.25638e-05
4.66755e-05
1.30771e-05
5.11686e-06
3.3843e-06
4.42676e-07
1.68733e-09
1.60153e-09
4.03518e-07
5.9228e-06
8.54311e-06
1.68834e-05
4.23115e-05
5.3009e-05
5.41461e-05
5.52143e-05
5.62041e-05
5.71005e-05
5.78936e-05
5.85767e-05
5.91444e-05
5.95945e-05
5.99125e-05
6.00968e-05
6.01465e-05
6.00585e-05
5.98481e-05
5.95162e-05
5.90624e-05
5.84916e-05
5.78104e-05
5.69999e-05
5.60581e-05
5.49937e-05
5.38294e-05
5.26119e-05
4.65022e-05
1.33042e-05
5.22718e-06
3.42154e-06
4.46246e-07
1.68988e-09
1.67767e-09
4.1497e-07
5.46627e-06
8.58651e-06
1.69455e-05
4.22014e-05
5.31095e-05
5.42241e-05
5.52764e-05
5.62563e-05
5.71471e-05
5.79383e-05
5.86233e-05
5.91895e-05
5.96287e-05
5.99392e-05
6.01199e-05
6.01693e-05
6.00882e-05
5.98791e-05
5.95445e-05
5.90871e-05
5.85091e-05
5.78133e-05
5.69866e-05
5.60304e-05
5.49513e-05
5.37719e-05
5.25339e-05
4.55451e-05
1.29319e-05
5.06539e-06
3.34669e-06
4.38636e-07
1.67623e-09
1.77014e-09
4.60107e-07
6.70244e-06
8.89561e-06
1.68698e-05
4.14969e-05
5.31597e-05
5.42443e-05
5.52961e-05
5.62792e-05
5.71742e-05
5.79699e-05
5.86631e-05
5.9231e-05
5.96675e-05
5.99726e-05
6.01465e-05
6.01924e-05
6.01114e-05
5.99035e-05
5.95719e-05
5.91208e-05
5.8545e-05
5.784e-05
5.70068e-05
5.6046e-05
5.49634e-05
5.3782e-05
5.25467e-05
4.47122e-05
1.30591e-05
5.16736e-06
3.39637e-06
4.42472e-07
1.68049e-09
1.72254e-09
4.41804e-07
6.57888e-06
8.83635e-06
1.67308e-05
4.12401e-05
5.31737e-05
5.42746e-05
5.53244e-05
5.6301e-05
5.71888e-05
5.79761e-05
5.86641e-05
5.92264e-05
5.96554e-05
5.99477e-05
6.01131e-05
6.01579e-05
6.00761e-05
5.98678e-05
5.95402e-05
5.91003e-05
5.85283e-05
5.78246e-05
5.69917e-05
5.60298e-05
5.4943e-05
5.37498e-05
5.24994e-05
4.46146e-05
1.28599e-05
5.05652e-06
3.2427e-06
4.36152e-07
1.66304e-09
1.68788e-09
4.30402e-07
6.19964e-06
8.56678e-06
1.64836e-05
4.06025e-05
5.31431e-05
5.42699e-05
5.53289e-05
5.63066e-05
5.71919e-05
5.79747e-05
5.86544e-05
5.92111e-05
5.96407e-05
5.99431e-05
6.01247e-05
6.01738e-05
6.00937e-05
5.98861e-05
5.9557e-05
5.91093e-05
5.85307e-05
5.78322e-05
5.70111e-05
5.60595e-05
5.4981e-05
5.37887e-05
5.25546e-05
4.35645e-05
1.281e-05
5.06871e-06
3.2377e-06
4.33821e-07
1.64953e-09
1.78608e-09
4.60686e-07
6.7181e-06
8.91997e-06
1.65973e-05
4.03608e-05
5.32519e-05
5.43262e-05
5.53615e-05
5.63264e-05
5.72031e-05
5.79805e-05
5.8651e-05
5.92073e-05
5.96404e-05
5.99469e-05
6.01191e-05
6.01634e-05
6.00791e-05
5.98684e-05
5.95355e-05
5.90755e-05
5.84886e-05
5.77885e-05
5.69635e-05
5.60282e-05
5.49976e-05
5.39088e-05
5.28331e-05
4.37432e-05
1.32411e-05
5.2602e-06
2.71698e-06
4.05548e-07
1.57609e-09
1.74996e-09
4.47628e-07
6.51085e-06
8.69545e-06
1.63834e-05
4.00052e-05
5.32782e-05
5.43548e-05
5.53847e-05
5.63431e-05
5.72141e-05
5.79878e-05
5.86582e-05
5.92088e-05
5.96335e-05
5.99272e-05
6.00987e-05
6.01436e-05
6.00596e-05
5.98503e-05
5.95227e-05
5.90659e-05
5.84861e-05
5.77787e-05
5.69651e-05
5.60482e-05
5.50418e-05
5.39739e-05
5.28488e-05
4.34849e-05
1.30584e-05
5.01265e-06
2.51948e-06
3.84316e-07
1.51954e-09
1.70969e-09
4.35104e-07
6.24665e-06
8.61747e-06
1.64874e-05
3.96915e-05
5.32597e-05
5.43651e-05
5.5406e-05
5.63671e-05
5.72378e-05
5.80112e-05
5.86786e-05
5.92293e-05
5.96573e-05
5.99596e-05
6.01342e-05
6.01786e-05
6.00936e-05
5.98824e-05
5.95477e-05
5.90917e-05
5.85159e-05
5.78212e-05
5.70094e-05
5.6087e-05
5.50699e-05
5.39852e-05
5.28424e-05
4.17056e-05
1.29298e-05
5.07272e-06
2.65202e-06
3.82263e-07
1.51119e-09
1.79454e-09
4.62694e-07
6.70383e-06
8.80547e-06
1.63605e-05
3.93922e-05
5.33976e-05
5.44508e-05
5.54615e-05
5.64078e-05
5.72709e-05
5.80409e-05
5.87044e-05
5.92524e-05
5.96842e-05
5.99915e-05
6.01684e-05
6.02147e-05
6.01324e-05
5.99239e-05
5.95914e-05
5.91379e-05
5.85668e-05
5.78768e-05
5.7069e-05
5.61497e-05
5.51316e-05
5.40349e-05
5.28818e-05
4.11307e-05
1.28838e-05
4.98523e-06
2.47303e-06
3.75886e-07
1.49728e-09
1.71156e-09
4.38011e-07
6.43617e-06
8.67504e-06
1.63857e-05
3.9224e-05
5.34145e-05
5.44732e-05
5.54808e-05
5.64211e-05
5.72768e-05
5.80377e-05
5.86967e-05
5.92451e-05
5.96758e-05
5.99738e-05
6.01458e-05
6.01881e-05
6.01007e-05
5.98938e-05
5.95639e-05
5.91105e-05
5.854e-05
5.78482e-05
5.70407e-05
5.6117e-05
5.50891e-05
5.39734e-05
5.28041e-05
4.05846e-05
1.28697e-05
5.13872e-06
2.68088e-06
3.90799e-07
1.56822e-09
1.62769e-09
4.11245e-07
5.95459e-06
8.38986e-06
1.60798e-05
3.87423e-05
5.3354e-05
5.44482e-05
5.54767e-05
5.64245e-05
5.72819e-05
5.80426e-05
5.87036e-05
5.92427e-05
5.96613e-05
5.99519e-05
6.01277e-05
6.0165e-05
6.00818e-05
5.98825e-05
5.95552e-05
5.91056e-05
5.85346e-05
5.78432e-05
5.70243e-05
5.60768e-05
5.5001e-05
5.38043e-05
5.25029e-05
3.78258e-05
1.21143e-05
4.63714e-06
2.33453e-06
3.77525e-07
1.53561e-09
1.67219e-09
4.21401e-07
6.00918e-06
8.5324e-06
1.60341e-05
3.86454e-05
5.34049e-05
5.44947e-05
5.5516e-05
5.6458e-05
5.73117e-05
5.80714e-05
5.8726e-05
5.92657e-05
5.96863e-05
5.99843e-05
6.01573e-05
6.02022e-05
6.01197e-05
5.99131e-05
5.95847e-05
5.91358e-05
5.8566e-05
5.78729e-05
5.70528e-05
5.61027e-05
5.5023e-05
5.38253e-05
5.25372e-05
3.62815e-05
1.18511e-05
4.63576e-06
2.44455e-06
3.83422e-07
1.56234e-09
1.62975e-09
4.1041e-07
6.04711e-06
8.40426e-06
1.58697e-05
3.78002e-05
5.34209e-05
5.45123e-05
5.55336e-05
5.6476e-05
5.73312e-05
5.80941e-05
5.87476e-05
5.92882e-05
5.97148e-05
6.00217e-05
6.02015e-05
6.02519e-05
6.01753e-05
5.99746e-05
5.96521e-05
5.92093e-05
5.86461e-05
5.79603e-05
5.71475e-05
5.62074e-05
5.51458e-05
5.40028e-05
5.2881e-05
3.6055e-05
1.27534e-05
6.02489e-06
2.76885e-06
3.86089e-07
1.51928e-09
1.64431e-09
4.12667e-07
5.91753e-06
8.26007e-06
1.58464e-05
3.77481e-05
5.34608e-05
5.45446e-05
5.55586e-05
5.64925e-05
5.73374e-05
5.80868e-05
5.87353e-05
5.92743e-05
5.96953e-05
5.99972e-05
6.01788e-05
6.02328e-05
6.01562e-05
5.99533e-05
5.96272e-05
5.91763e-05
5.86055e-05
5.79171e-05
5.71027e-05
5.61608e-05
5.50897e-05
5.39109e-05
5.26559e-05
3.46196e-05
1.19737e-05
5.01746e-06
3.1307e-06
4.20116e-07
1.61101e-09
1.62224e-09
4.1025e-07
6.00897e-06
8.47538e-06
1.5747e-05
3.74291e-05
5.34409e-05
5.45438e-05
5.55653e-05
5.65003e-05
5.73434e-05
5.80905e-05
5.87407e-05
5.92737e-05
5.96885e-05
5.99947e-05
6.01788e-05
6.0231e-05
6.01539e-05
5.99515e-05
5.96274e-05
5.91715e-05
5.86052e-05
5.79257e-05
5.71223e-05
5.61889e-05
5.51292e-05
5.39504e-05
5.26609e-05
3.36025e-05
1.17766e-05
4.79702e-06
2.60092e-06
3.87049e-07
1.5409e-09
1.61684e-09
4.08811e-07
5.9162e-06
8.30227e-06
1.57069e-05
3.74527e-05
5.35431e-05
5.46336e-05
5.56375e-05
5.65494e-05
5.73716e-05
5.8103e-05
5.87353e-05
5.92635e-05
5.9686e-05
5.99824e-05
6.01566e-05
6.02045e-05
6.01271e-05
5.99273e-05
5.96086e-05
5.9164e-05
5.86091e-05
5.79344e-05
5.71312e-05
5.61923e-05
5.5119e-05
5.39292e-05
5.26264e-05
3.31982e-05
1.1789e-05
4.67653e-06
2.49265e-06
3.82269e-07
1.53514e-09
1.64941e-09
4.16586e-07
6.00771e-06
8.45864e-06
1.59065e-05
3.7681e-05
5.36017e-05
5.46856e-05
5.56762e-05
5.65722e-05
5.73904e-05
5.81176e-05
5.87454e-05
5.9267e-05
5.96772e-05
5.99715e-05
6.01463e-05
6.01977e-05
6.01265e-05
5.99363e-05
5.96294e-05
5.92064e-05
5.86656e-05
5.80016e-05
5.72066e-05
5.62726e-05
5.51971e-05
5.39898e-05
5.26704e-05
3.21686e-05
1.16294e-05
4.62797e-06
2.31474e-06
3.79952e-07
1.56113e-09
1.67979e-09
4.268e-07
6.12318e-06
8.29647e-06
1.5694e-05
3.68103e-05
5.36059e-05
5.46715e-05
5.56577e-05
5.65698e-05
5.73957e-05
5.81267e-05
5.87566e-05
5.92804e-05
5.96944e-05
5.99956e-05
6.01835e-05
6.02461e-05
6.01816e-05
5.99961e-05
5.96912e-05
5.92668e-05
5.87197e-05
5.80464e-05
5.72447e-05
5.6307e-05
5.52272e-05
5.40122e-05
5.26788e-05
3.12345e-05
1.16442e-05
4.6498e-06
2.28963e-06
3.78527e-07
1.53087e-09
1.68177e-09
4.24375e-07
6.14363e-06
8.61293e-06
1.56332e-05
3.66757e-05
5.35862e-05
5.46631e-05
5.56632e-05
5.65807e-05
5.74083e-05
5.81398e-05
5.87703e-05
5.92959e-05
5.97136e-05
6.00222e-05
6.02237e-05
6.02932e-05
6.02351e-05
6.00559e-05
5.97567e-05
5.9337e-05
5.87916e-05
5.81235e-05
5.73356e-05
5.64146e-05
5.53545e-05
5.4161e-05
5.28479e-05
3.04717e-05
1.15767e-05
4.75394e-06
2.39217e-06
3.77764e-07
1.54888e-09
1.68271e-09
4.19497e-07
5.67208e-06
8.47467e-06
1.58943e-05
3.67409e-05
5.36425e-05
5.4711e-05
5.57044e-05
5.66153e-05
5.74364e-05
5.8162e-05
5.8787e-05
5.93072e-05
5.97189e-05
6.00197e-05
6.02101e-05
6.02696e-05
6.02075e-05
6.00271e-05
5.97311e-05
5.93196e-05
5.8788e-05
5.81454e-05
5.73833e-05
5.64941e-05
5.54773e-05
5.43422e-05
5.31006e-05
3.14106e-05
1.18445e-05
4.74222e-06
2.49956e-06
3.85576e-07
1.55443e-09
1.63176e-09
4.11261e-07
5.97533e-06
8.38243e-06
1.54925e-05
3.60086e-05
5.3658e-05
5.47358e-05
5.57311e-05
5.66406e-05
5.74586e-05
5.81807e-05
5.88024e-05
5.93194e-05
5.97272e-05
6.00218e-05
6.01999e-05
6.02572e-05
6.01956e-05
6.00201e-05
5.97344e-05
5.93398e-05
5.88346e-05
5.82138e-05
5.74698e-05
5.65955e-05
5.55895e-05
5.44586e-05
5.32082e-05
3.11409e-05
1.21018e-05
4.82714e-06
2.25982e-06
3.83437e-07
1.56563e-09
1.66345e-09
4.19529e-07
5.94076e-06
8.44274e-06
1.55264e-05
3.57393e-05
5.36678e-05
5.47523e-05
5.57496e-05
5.66591e-05
5.74766e-05
5.81982e-05
5.88203e-05
5.93388e-05
5.97498e-05
6.00503e-05
6.02383e-05
6.03025e-05
6.0241e-05
6.006e-05
5.97667e-05
5.93676e-05
5.8861e-05
5.82398e-05
5.74945e-05
5.6616e-05
5.56005e-05
5.44516e-05
5.31703e-05
3.03537e-05
1.18173e-05
4.67944e-06
2.21712e-06
3.74236e-07
1.51162e-09
1.68794e-09
4.29306e-07
6.217e-06
8.42016e-06
1.52562e-05
3.55458e-05
5.37188e-05
5.47823e-05
5.577e-05
5.66753e-05
5.74918e-05
5.82138e-05
5.88367e-05
5.93564e-05
5.97697e-05
6.00749e-05
6.02733e-05
6.03424e-05
6.0282e-05
6.0099e-05
5.98081e-05
5.94171e-05
5.89203e-05
5.83094e-05
5.75735e-05
5.67028e-05
5.56931e-05
5.45484e-05
5.32729e-05
2.95456e-05
1.18871e-05
4.80476e-06
2.4142e-06
3.75575e-07
1.51896e-09
1.71897e-09
4.39218e-07
6.18457e-06
8.37217e-06
1.53469e-05
3.55962e-05
5.38036e-05
5.4856e-05
5.5838e-05
5.67401e-05
5.75535e-05
5.82722e-05
5.88906e-05
5.94026e-05
5.98042e-05
6.00923e-05
6.02732e-05
6.03304e-05
6.02682e-05
6.00926e-05
5.98142e-05
5.94326e-05
5.8943e-05
5.83367e-05
5.76021e-05
5.67288e-05
5.57123e-05
5.45549e-05
5.32555e-05
2.87657e-05
1.15981e-05
4.67792e-06
2.22513e-06
3.76236e-07
1.53334e-09
1.7173e-09
4.28852e-07
6.0613e-06
8.50657e-06
1.51956e-05
3.5085e-05
5.3845e-05
5.49081e-05
5.58883e-05
5.67859e-05
5.75934e-05
5.83077e-05
5.89207e-05
5.94282e-05
5.98239e-05
6.00988e-05
6.02669e-05
6.03241e-05
6.02735e-05
6.01149e-05
5.98525e-05
5.94869e-05
5.90131e-05
5.84222e-05
5.77011e-05
5.68371e-05
5.58221e-05
5.46531e-05
5.33262e-05
2.86917e-05
1.18483e-05
4.77533e-06
2.47761e-06
3.7128e-07
1.47576e-09
1.69114e-09
4.27646e-07
6.03258e-06
8.34387e-06
1.50784e-05
3.46882e-05
5.38134e-05
5.48764e-05
5.58573e-05
5.67566e-05
5.75659e-05
5.82829e-05
5.8902e-05
5.94168e-05
5.98173e-05
6.01103e-05
6.02962e-05
6.03607e-05
6.03101e-05
6.01507e-05
5.9889e-05
5.9528e-05
5.90611e-05
5.84781e-05
5.77654e-05
5.69098e-05
5.59039e-05
5.4749e-05
5.34446e-05
2.81468e-05
1.17295e-05
4.79546e-06
2.62769e-06
3.84412e-07
1.51269e-09
1.72106e-09
4.38297e-07
6.10694e-06
8.53001e-06
1.53247e-05
3.46297e-05
5.38483e-05
5.48804e-05
5.58482e-05
5.67405e-05
5.75481e-05
5.8264e-05
5.88892e-05
5.93976e-05
5.98101e-05
6.0127e-05
6.03173e-05
6.03876e-05
6.0342e-05
6.01869e-05
5.99358e-05
5.95866e-05
5.91322e-05
5.85611e-05
5.78583e-05
5.70085e-05
5.60021e-05
5.48369e-05
5.35047e-05
2.74426e-05
1.175e-05
4.84579e-06
2.55987e-06
3.76877e-07
1.4846e-09
1.7655e-09
4.48955e-07
6.30301e-06
8.49756e-06
1.51269e-05
3.45885e-05
5.38912e-05
5.49266e-05
5.58921e-05
5.67833e-05
5.75928e-05
5.83074e-05
5.89192e-05
5.94258e-05
5.98253e-05
6.01252e-05
6.03105e-05
6.03873e-05
6.03427e-05
6.02024e-05
5.99638e-05
5.96255e-05
5.91799e-05
5.86143e-05
5.79122e-05
5.70582e-05
5.60454e-05
5.48797e-05
5.3572e-05
2.68007e-05
1.16785e-05
4.78914e-06
2.4674e-06
3.69379e-07
1.45946e-09
1.71984e-09
4.3604e-07
6.09935e-06
8.32822e-06
1.52459e-05
3.44131e-05
5.39147e-05
5.49535e-05
5.59161e-05
5.68092e-05
5.76247e-05
5.83358e-05
5.89446e-05
5.94483e-05
5.98354e-05
6.01244e-05
6.03201e-05
6.03901e-05
6.03608e-05
6.02356e-05
6.001e-05
5.96843e-05
5.925e-05
5.86927e-05
5.79929e-05
5.71314e-05
5.60984e-05
5.49041e-05
5.35866e-05
2.64447e-05
1.15584e-05
5.02304e-06
2.92047e-06
4.17429e-07
1.62944e-09
1.7606e-09
4.48398e-07
6.25667e-06
8.63076e-06
1.53379e-05
3.42669e-05
5.39656e-05
5.49799e-05
5.59286e-05
5.68111e-05
5.76181e-05
5.83252e-05
5.89461e-05
5.94573e-05
5.98611e-05
6.01639e-05
6.0365e-05
6.04527e-05
6.04286e-05
6.02961e-05
6.00672e-05
5.97438e-05
5.93152e-05
5.87647e-05
5.80717e-05
5.72177e-05
5.6199e-05
5.50488e-05
5.38781e-05
2.56851e-05
1.16905e-05
5.78211e-06
2.72638e-06
4.04708e-07
1.57446e-09
1.74104e-09
4.37918e-07
5.92295e-06
8.42293e-06
1.50716e-05
3.37837e-05
5.39282e-05
5.49596e-05
5.59207e-05
5.68056e-05
5.76078e-05
5.83327e-05
5.89455e-05
5.94613e-05
5.98713e-05
6.01835e-05
6.03926e-05
6.0493e-05
6.04798e-05
6.03537e-05
6.0137e-05
5.98293e-05
5.94192e-05
5.8889e-05
5.82177e-05
5.73851e-05
5.63845e-05
5.5236e-05
5.39947e-05
2.56338e-05
1.19508e-05
5.26582e-06
2.78669e-06
4.01741e-07
1.5414e-09
1.74409e-09
4.43367e-07
6.1408e-06
8.32746e-06
1.51986e-05
3.41621e-05
5.39327e-05
5.49689e-05
5.59306e-05
5.68147e-05
5.76179e-05
5.83386e-05
5.89546e-05
5.94597e-05
5.9868e-05
6.01795e-05
6.03823e-05
6.04799e-05
6.0473e-05
6.03624e-05
6.01635e-05
5.98722e-05
5.9478e-05
5.89627e-05
5.83046e-05
5.74823e-05
5.6485e-05
5.53208e-05
5.40168e-05
2.50116e-05
1.15568e-05
5.0005e-06
2.73463e-06
4.00844e-07
1.54965e-09
1.70155e-09
4.24484e-07
5.88564e-06
8.32661e-06
1.49669e-05
3.36799e-05
5.39554e-05
5.49852e-05
5.59422e-05
5.68211e-05
5.7618e-05
5.83304e-05
5.89425e-05
5.94538e-05
5.98636e-05
6.01703e-05
6.03709e-05
6.0481e-05
6.04926e-05
6.04062e-05
6.02316e-05
5.99638e-05
5.95928e-05
5.91006e-05
5.84649e-05
5.76641e-05
5.66868e-05
5.55416e-05
5.42567e-05
2.52883e-05
1.19367e-05
5.16221e-06
2.88713e-06
4.19489e-07
1.60229e-09
1.74918e-09
4.29306e-07
5.14657e-06
8.34922e-06
1.50249e-05
3.39902e-05
5.40252e-05
5.50565e-05
5.6011e-05
5.68886e-05
5.76777e-05
5.8375e-05
5.89789e-05
5.94871e-05
5.98978e-05
6.02101e-05
6.0424e-05
6.05399e-05
6.05515e-05
6.04617e-05
6.02847e-05
6.00189e-05
5.96526e-05
5.9166e-05
5.85358e-05
5.77398e-05
5.67666e-05
5.56253e-05
5.43488e-05
2.50833e-05
1.19226e-05
5.25347e-06
2.8796e-06
4.33316e-07
1.66825e-09
1.78152e-09
4.58495e-07
6.4182e-06
8.34509e-06
1.49288e-05
3.32418e-05
5.41121e-05
5.51136e-05
5.60639e-05
5.6943e-05
5.77313e-05
5.84251e-05
5.90219e-05
5.95248e-05