/*--------------------------------*- C++ -*----------------------------------*\
  =========                 |
  \\      /  F ield         | OpenFOAM: The Open Source CFD Toolbox
   \\    /   O peration     | Website:  https://openfoam.org
    \\  /    A nd           | Version:  13
     \\/     M anipulation  |
\*---------------------------------------------------------------------------*/
FoamFile
{
    format      ascii;
    class       volScalarField;
    location    "2";
    object      p;
}
// * * * * * * * * * * * * * * * * * * * * * * * * * * * * * * * * * * * * * //

dimensions      [0 2 -2 0 0 0 0];

internalField   nonuniform List<scalar> 
78750
(
0
0.00161945
0.00221618
0.00265904
0.00301514
0.00330033
0.0035504
0.00374478
0.00392528
0.00411666
0.00426912
0.00439069
0.00450091
0.00461399
0.00474238
0.00486146
0.00494844
0.00501545
0.00507596
0.00513075
0.0051773
0.00521487
0.00524453
0.00526703
0.00528196
0.00528891
0.00528754
0.00527805
0.00526266
0.00524067
0.00521664
0.00518799
0.00517726
0.00521099
0.00525669
-0.140494
-0.140494
-0.140499
-0.140515
-0.140533
-0.140539
-0.140539
-0.140533
-0.14051
-0.140478
-0.140442
-0.1404
-0.140353
-0.140301
-0.140248
-0.140199
-0.140153
-0.140111
-0.14007
-0.140033
-0.14
-0.139971
-0.139947
-0.139927
-0.139913
-0.139905
-0.139903
-0.139908
-0.139918
-0.139934
-0.139953
-0.139966
-0.13997
-0.139949
-0.139933
-0.284787
-0.284786
-0.284778
-0.284776
-0.284764
-0.284737
-0.284702
-0.284668
-0.284636
-0.284605
-0.284576
-0.284548
-0.28452
-0.284493
-0.284466
-0.284439
-0.284414
-0.28439
-0.284368
-0.284348
-0.284329
-0.284312
-0.284298
-0.284286
-0.284276
-0.284268
-0.284262
-0.284259
-0.284258
-0.284261
-0.284266
-0.28427
-0.28427
-0.284258
-0.284267
-0.428573
-0.42858
-0.42858
-0.428582
-0.428583
-0.428589
-0.428601
-0.428614
-0.428628
-0.428642
-0.428655
-0.428668
-0.428681
-0.428693
-0.428705
-0.428717
-0.428727
-0.428738
-0.428748
-0.428758
-0.428768
-0.428777
-0.428786
-0.428794
-0.428803
-0.428811
-0.428819
-0.428827
-0.428835
-0.428844
-0.42885
-0.428851
-0.428851
-0.428845
-0.428859
-0.572809
-0.572815
-0.572817
-0.572821
-0.572825
-0.572836
-0.572855
-0.572875
-0.572896
-0.572918
-0.572941
-0.572964
-0.572987
-0.573011
-0.573034
-0.573058
-0.573081
-0.573103
-0.573126
-0.573147
-0.573168
-0.573188
-0.573207
-0.573226
-0.573243
-0.57326
-0.573276
-0.573291
-0.573307
-0.573322
-0.573333
-0.573333
-0.573334
-0.573331
-0.573348
-0.716996
-0.717002
-0.717007
-0.717015
-0.717026
-0.717048
-0.71708
-0.717115
-0.717151
-0.717188
-0.717226
-0.717265
-0.717304
-0.717344
-0.717384
-0.717424
-0.717464
-0.717502
-0.717539
-0.717576
-0.717611
-0.717644
-0.717676
-0.717706
-0.717734
-0.71776
-0.717785
-0.717807
-0.717829
-0.717849
-0.71786
-0.717859
-0.71786
-0.717854
-0.71787
-0.861327
-0.861341
-0.861344
-0.861353
-0.861367
-0.861394
-0.861432
-0.861474
-0.861518
-0.861563
-0.86161
-0.861658
-0.861707
-0.861757
-0.861807
-0.861857
-0.861907
-0.861956
-0.862004
-0.862051
-0.862096
-0.86214
-0.862181
-0.862221
-0.862258
-0.862293
-0.862326
-0.862357
-0.862387
-0.862415
-0.862432
-0.862433
-0.862433
-0.862436
-0.862462
-1.00575
-1.00576
-1.00576
-1.00577
-1.00578
-1.00581
-1.00586
-1.0059
-1.00595
-1.006
-1.00606
-1.00611
-1.00617
-1.00623
-1.00629
-1.00634
-1.0064
-1.00646
-1.00652
-1.00657
-1.00663
-1.00668
-1.00673
-1.00678
-1.00682
-1.00686
-1.0069
-1.00694
-1.00697
-1.007
-1.00702
-1.00702
-1.00702
-1.00703
-1.00708
-1.15019
-1.15021
-1.15021
-1.15023
-1.15024
-1.15028
-1.15033
-1.15038
-1.15043
-1.15049
-1.15055
-1.15062
-1.15068
-1.15074
-1.15081
-1.15088
-1.15094
-1.15101
-1.15107
-1.15114
-1.1512
-1.15126
-1.15132
-1.15138
-1.15143
-1.15148
-1.15153
-1.15157
-1.15161
-1.15165
-1.15168
-1.15168
-1.15169
-1.15169
-1.15174
-1.2947
-1.29472
-1.29472
-1.29474
-1.29475
-1.29479
-1.29484
-1.2949
-1.29496
-1.29502
-1.29508
-1.29515
-1.29522
-1.29529
-1.29536
-1.29544
-1.29551
-1.29558
-1.29565
-1.29573
-1.29579
-1.29586
-1.29593
-1.29599
-1.29604
-1.2961
-1.29615
-1.2962
-1.29624
-1.29629
-1.29632
-1.29632
-1.29632
-1.29632
-1.29639
-1.43924
-1.43925
-1.43926
-1.43927
-1.43929
-1.43933
-1.43938
-1.43944
-1.43951
-1.43957
-1.43964
-1.43972
-1.43979
-1.43987
-1.43994
-1.44002
-1.4401
-1.44018
-1.44026
-1.44034
-1.44041
-1.44048
-1.44055
-1.44062
-1.44069
-1.44075
-1.4408
-1.44085
-1.44091
-1.44095
-1.44098
-1.44099
-1.44099
-1.44099
-1.44103
-1.58377
-1.58379
-1.5838
-1.58381
-1.58383
-1.58388
-1.58394
-1.584
-1.58407
-1.58414
-1.58422
-1.5843
-1.58438
-1.58446
-1.58454
-1.58462
-1.58471
-1.58479
-1.58488
-1.58496
-1.58504
-1.58512
-1.58519
-1.58527
-1.58533
-1.5854
-1.58546
-1.58552
-1.58558
-1.58563
-1.58567
-1.58567
-1.58568
-1.58567
-1.58571
-1.72834
-1.72837
-1.72838
-1.72839
-1.72842
-1.72846
-1.72852
-1.72859
-1.72867
-1.72874
-1.72882
-1.7289
-1.72899
-1.72907
-1.72916
-1.72925
-1.72934
-1.72943
-1.72952
-1.7296
-1.72969
-1.72977
-1.72985
-1.72993
-1.73
-1.73007
-1.73013
-1.73019
-1.73025
-1.73031
-1.73034
-1.73035
-1.73035
-1.73035
-1.7304
-1.87295
-1.87298
-1.87299
-1.873
-1.87303
-1.87307
-1.87314
-1.87321
-1.87329
-1.87336
-1.87345
-1.87353
-1.87362
-1.87371
-1.8738
-1.8739
-1.87399
-1.87408
-1.87418
-1.87427
-1.87436
-1.87444
-1.87453
-1.87461
-1.87469
-1.87476
-1.87483
-1.87489
-1.87495
-1.87501
-1.87505
-1.87505
-1.87505
-1.87505
-1.87511
-2.01759
-2.01762
-2.01762
-2.01764
-2.01767
-2.01771
-2.01778
-2.01786
-2.01794
-2.01802
-2.0181
-2.01819
-2.01828
-2.01838
-2.01847
-2.01857
-2.01867
-2.01877
-2.01886
-2.01896
-2.01905
-2.01914
-2.01923
-2.01931
-2.01939
-2.01946
-2.01953
-2.0196
-2.01966
-2.01972
-2.01976
-2.01975
-2.01977
-2.01977
-2.01983
-2.16225
-2.16229
-2.16229
-2.16231
-2.16233
-2.16238
-2.16245
-2.16253
-2.16261
-2.1627
-2.16279
-2.16288
-2.16297
-2.16307
-2.16317
-2.16327
-2.16338
-2.16348
-2.16358
-2.16368
-2.16378
-2.16387
-2.16396
-2.16405
-2.16414
-2.16422
-2.16429
-2.16436
-2.16443
-2.1645
-2.16453
-2.16453
-2.16454
-2.16454
-2.16458
-2.30695
-2.30699
-2.30699
-2.30701
-2.30703
-2.30708
-2.30715
-2.30723
-2.30732
-2.3074
-2.3075
-2.30759
-2.30769
-2.30779
-2.3079
-2.308
-2.30811
-2.30821
-2.30832
-2.30842
-2.30852
-2.30862
-2.30872
-2.30881
-2.3089
-2.30898
-2.30906
-2.30913
-2.3092
-2.30927
-2.30931
-2.30931
-2.30933
-2.30934
-2.3094
-2.45165
-2.45168
-2.45169
-2.45171
-2.45173
-2.45179
-2.45186
-2.45195
-2.45203
-2.45212
-2.45222
-2.45232
-2.45242
-2.45253
-2.45264
-2.45275
-2.45286
-2.45297
-2.45308
-2.45319
-2.45329
-2.4534
-2.4535
-2.45359
-2.45369
-2.45377
-2.45386
-2.45393
-2.45401
-2.45408
-2.45413
-2.45413
-2.45413
-2.45413
-2.4542
-2.59639
-2.59642
-2.59642
-2.59644
-2.59647
-2.59652
-2.5966
-2.59669
-2.59678
-2.59687
-2.59697
-2.59707
-2.59718
-2.59729
-2.5974
-2.59752
-2.59763
-2.59774
-2.59786
-2.59797
-2.59808
-2.59819
-2.59829
-2.59839
-2.59849
-2.59858
-2.59866
-2.59874
-2.59882
-2.59889
-2.59894
-2.59894
-2.59895
-2.59896
-2.59898
-2.74112
-2.74115
-2.74116
-2.74118
-2.74121
-2.74127
-2.74135
-2.74144
-2.74153
-2.74163
-2.74173
-2.74184
-2.74195
-2.74206
-2.74218
-2.7423
-2.74242
-2.74253
-2.74265
-2.74277
-2.74288
-2.74299
-2.7431
-2.74321
-2.7433
-2.7434
-2.74349
-2.74357
-2.74365
-2.74373
-2.74377
-2.74377
-2.74379
-2.7438
-2.74391
-2.88587
-2.88591
-2.88592
-2.88594
-2.88597
-2.88603
-2.88612
-2.88621
-2.88631
-2.88641
-2.88651
-2.88663
-2.88674
-2.88686
-2.88698
-2.8871
-2.88722
-2.88734
-2.88746
-2.88758
-2.8877
-2.88782
-2.88793
-2.88803
-2.88813
-2.88823
-2.88832
-2.88841
-2.88849
-2.88857
-2.88861
-2.88861
-2.88862
-2.88862
-2.8887
-3.03065
-3.0307
-3.03071
-3.03074
-3.03076
-3.03082
-3.03091
-3.031
-3.0311
-3.0312
-3.03131
-3.03142
-3.03154
-3.03166
-3.03178
-3.03191
-3.03203
-3.03216
-3.03229
-3.03241
-3.03253
-3.03265
-3.03276
-3.03287
-3.03298
-3.03307
-3.03317
-3.03325
-3.03334
-3.03342
-3.03347
-3.03347
-3.0335
-3.03349
-3.03357
-3.17545
-3.1755
-3.1755
-3.17552
-3.17555
-3.17561
-3.1757
-3.1758
-3.1759
-3.17601
-3.17612
-3.17624
-3.17636
-3.17648
-3.17661
-3.17674
-3.17687
-3.17699
-3.17712
-3.17725
-3.17737
-3.1775
-3.17761
-3.17773
-3.17783
-3.17794
-3.17803
-3.17813
-3.17821
-3.1783
-3.17836
-3.17835
-3.17836
-3.17835
-3.17845
-3.32026
-3.32031
-3.32032
-3.32034
-3.32037
-3.32043
-3.32052
-3.32062
-3.32072
-3.32083
-3.32094
-3.32106
-3.32118
-3.32131
-3.32144
-3.32157
-3.3217
-3.32183
-3.32196
-3.32209
-3.32222
-3.32234
-3.32246
-3.32258
-3.32268
-3.32279
-3.32288
-3.32298
-3.32306
-3.32315
-3.3232
-3.3232
-3.32321
-3.32319
-3.32325
-3.46508
-3.46513
-3.46514
-3.46516
-3.46519
-3.46525
-3.46534
-3.46544
-3.46555
-3.46566
-3.46577
-3.4659
-3.46602
-3.46615
-3.46628
-3.46641
-3.46655
-3.46668
-3.46682
-3.46695
-3.46708
-3.4672
-3.46732
-3.46744
-3.46755
-3.46765
-3.46775
-3.46784
-3.46793
-3.46801
-3.46806
-3.46805
-3.46806
-3.46808
-3.46822
-3.60989
-3.60995
-3.60995
-3.60997
-3.61
-3.61006
-3.61016
-3.61026
-3.61037
-3.61048
-3.6106
-3.61072
-3.61085
-3.61098
-3.61112
-3.61126
-3.6114
-3.61153
-3.61167
-3.61181
-3.61194
-3.61207
-3.6122
-3.61232
-3.61243
-3.61254
-3.61264
-3.61274
-3.61283
-3.61292
-3.61298
-3.61298
-3.61299
-3.61298
-3.61308
-3.75468
-3.75474
-3.75475
-3.75477
-3.7548
-3.75487
-3.75496
-3.75507
-3.75518
-3.7553
-3.75542
-3.75555
-3.75568
-3.75582
-3.75596
-3.7561
-3.75624
-3.75639
-3.75653
-3.75667
-3.75681
-3.75694
-3.75707
-3.75719
-3.75731
-3.75742
-3.75753
-3.75763
-3.75772
-3.75782
-3.75788
-3.75787
-3.7579
-3.75789
-3.75802
-3.89946
-3.89952
-3.89952
-3.89955
-3.89959
-3.89966
-3.89976
-3.89987
-3.89998
-3.90011
-3.90023
-3.90036
-3.9005
-3.90064
-3.90079
-3.90093
-3.90108
-3.90123
-3.90137
-3.90152
-3.90166
-3.9018
-3.90193
-3.90206
-3.90218
-3.9023
-3.90241
-3.90251
-3.90261
-3.90271
-3.90277
-3.90276
-3.90278
-3.90279
-3.90295
-4.04425
-4.04432
-4.04433
-4.04435
-4.04438
-4.04445
-4.04456
-4.04467
-4.04479
-4.04491
-4.04504
-4.04518
-4.04532
-4.04546
-4.04561
-4.04576
-4.04591
-4.04606
-4.04621
-4.04635
-4.0465
-4.04664
-4.04678
-4.04691
-4.04703
-4.04715
-4.04726
-4.04736
-4.04746
-4.04756
-4.04762
-4.04761
-4.04763
-4.04761
-4.04771
-4.18903
-4.18908
-4.18909
-4.18911
-4.18915
-4.18922
-4.18933
-4.18944
-4.18956
-4.18969
-4.18983
-4.18997
-4.19011
-4.19026
-4.19041
-4.19056
-4.19072
-4.19087
-4.19103
-4.19118
-4.19133
-4.19147
-4.19161
-4.19174
-4.19187
-4.19199
-4.1921
-4.1922
-4.1923
-4.1924
-4.19247
-4.19246
-4.19248
-4.19247
-4.19257
-4.33378
-4.33385
-4.33385
-4.33388
-4.33392
-4.33399
-4.3341
-4.33422
-4.33434
-4.33448
-4.33461
-4.33476
-4.3349
-4.33506
-4.33521
-4.33537
-4.33553
-4.33569
-4.33585
-4.336
-4.33615
-4.3363
-4.33645
-4.33658
-4.33671
-4.33684
-4.33696
-4.33706
-4.33717
-4.33728
-4.33734
-4.33734
-4.33735
-4.33734
-4.33741
-4.47851
-4.47859
-4.4786
-4.47864
-4.47867
-4.47875
-4.47886
-4.47898
-4.47911
-4.47924
-4.47938
-4.47953
-4.47968
-4.47984
-4.47999
-4.48016
-4.48032
-4.48048
-4.48064
-4.4808
-4.48096
-4.48111
-4.48126
-4.4814
-4.48153
-4.48166
-4.48178
-4.48189
-4.482
-4.48211
-4.48218
-4.48218
-4.48222
-4.48219
-4.48227
-4.62328
-4.62335
-4.62335
-4.62338
-4.62342
-4.6235
-4.62361
-4.62374
-4.62387
-4.62401
-4.62415
-4.6243
-4.62446
-4.62462
-4.62478
-4.62495
-4.62511
-4.62528
-4.62544
-4.62561
-4.62577
-4.62592
-4.62607
-4.62621
-4.62635
-4.62648
-4.6266
-4.62671
-4.62682
-4.62693
-4.627
-4.62699
-4.627
-4.62701
-4.62719
-4.76803
-4.76809
-4.7681
-4.76812
-4.76816
-4.76824
-4.76836
-4.76849
-4.76862
-4.76876
-4.76891
-4.76906
-4.76922
-4.76939
-4.76955
-4.76972
-4.76989
-4.77007
-4.77023
-4.7704
-4.77056
-4.77072
-4.77088
-4.77102
-4.77116
-4.77129
-4.77141
-4.77153
-4.77164
-4.77175
-4.77182
-4.77182
-4.77185
-4.77184
-4.77192
-4.91275
-4.91282
-4.91283
-4.91286
-4.9129
-4.91298
-4.9131
-4.91323
-4.91337
-4.91352
-4.91367
-4.91383
-4.91399
-4.91416
-4.91433
-4.9145
-4.91468
-4.91486
-4.91503
-4.9152
-4.91537
-4.91553
-4.91569
-4.91584
-4.91598
-4.91612
-4.91625
-4.91636
-4.91648
-4.9166
-4.91667
-4.91667
-4.91669
-4.91668
-4.91682
-5.0575
-5.05757
-5.05758
-5.05761
-5.05765
-5.05773
-5.05785
-5.05798
-5.05812
-5.05827
-5.05842
-5.05858
-5.05875
-5.05892
-5.0591
-5.05928
-5.05946
-5.05964
-5.05982
-5.05999
-5.06016
-5.06033
-5.06049
-5.06065
-5.06079
-5.06093
-5.06106
-5.06118
-5.0613
-5.06143
-5.0615
-5.0615
-5.06152
-5.06151
-5.06165
-5.20226
-5.20231
-5.2023
-5.20234
-5.20238
-5.20246
-5.20258
-5.20272
-5.20287
-5.20302
-5.20318
-5.20334
-5.20352
-5.20369
-5.20387
-5.20405
-5.20424
-5.20442
-5.20461
-5.20479
-5.20496
-5.20513
-5.2053
-5.20546
-5.20561
-5.20575
-5.20589
-5.20601
-5.20613
-5.20626
-5.20634
-5.20634
-5.20637
-5.20636
-5.20646
-5.34696
-5.34703
-5.34703
-5.34707
-5.34711
-5.3472
-5.34732
-5.34746
-5.34761
-5.34777
-5.34793
-5.3481
-5.34827
-5.34845
-5.34864
-5.34882
-5.34901
-5.3492
-5.34939
-5.34957
-5.34975
-5.34993
-5.35009
-5.35026
-5.35041
-5.35055
-5.35069
-5.35082
-5.35094
-5.35107
-5.35115
-5.35114
-5.35116
-5.35115
-5.3513
-5.4917
-5.49178
-5.4918
-5.49183
-5.49187
-5.49195
-5.49208
-5.49222
-5.49237
-5.49253
-5.49269
-5.49287
-5.49304
-5.49323
-5.49341
-5.49361
-5.4938
-5.49399
-5.49418
-5.49437
-5.49456
-5.49474
-5.49491
-5.49508
-5.49523
-5.49538
-5.49552
-5.49566
-5.49578
-5.49592
-5.496
-5.49599
-5.49602
-5.49601
-5.49612
-5.63644
-5.63652
-5.63652
-5.63656
-5.6366
-5.63669
-5.63682
-5.63696
-5.63712
-5.63728
-5.63745
-5.63762
-5.63781
-5.63799
-5.63819
-5.63838
-5.63858
-5.63878
-5.63897
-5.63916
-5.63935
-5.63953
-5.63971
-5.63988
-5.64004
-5.6402
-5.64034
-5.64047
-5.6406
-5.64074
-5.64082
-5.64082
-5.64083
-5.64085
-5.64102
-5.78116
-5.78125
-5.78126
-5.7813
-5.78134
-5.78143
-5.78156
-5.78171
-5.78187
-5.78203
-5.78221
-5.78239
-5.78258
-5.78277
-5.78297
-5.78317
-5.78337
-5.78357
-5.78377
-5.78397
-5.78416
-5.78435
-5.78453
-5.7847
-5.78487
-5.78502
-5.78517
-5.78531
-5.78544
-5.78557
-5.78566
-5.78565
-5.78568
-5.78566
-5.78576
-5.92591
-5.926
-5.92601
-5.92605
-5.92609
-5.92618
-5.92632
-5.92647
-5.92663
-5.9268
-5.92697
-5.92716
-5.92735
-5.92754
-5.92774
-5.92795
-5.92815
-5.92836
-5.92856
-5.92876
-5.92896
-5.92915
-5.92933
-5.92951
-5.92968
-5.92983
-5.92998
-5.93012
-5.93026
-5.93039
-5.93048
-5.93048
-5.9305
-5.9305
-5.93065
-6.07068
-6.07075
-6.07077
-6.07081
-6.07085
-6.07094
-6.07108
-6.07123
-6.0714
-6.07157
-6.07175
-6.07194
-6.07213
-6.07233
-6.07254
-6.07274
-6.07295
-6.07316
-6.07337
-6.07357
-6.07377
-6.07397
-6.07416
-6.07434
-6.07451
-6.07467
-6.07482
-6.07497
-6.07511
-6.07525
-6.07534
-6.07534
-6.07537
-6.07534
-6.07549
-6.21543
-6.21551
-6.21553
-6.21557
-6.21561
-6.2157
-6.21584
-6.216
-6.21617
-6.21634
-6.21653
-6.21672
-6.21691
-6.21712
-6.21732
-6.21753
-6.21775
-6.21796
-6.21817
-6.21838
-6.21858
-6.21877
-6.21896
-6.21915
-6.21932
-6.21948
-6.21964
-6.21978
-6.21993
-6.22007
-6.22016
-6.22016
-6.22019
-6.22017
-6.22033
-6.36021
-6.36029
-6.36031
-6.36035
-6.36039
-6.36048
-6.36062
-6.36078
-6.36095
-6.36113
-6.36132
-6.36151
-6.36171
-6.36192
-6.36213
-6.36234
-6.36256
-6.36278
-6.36299
-6.3632
-6.36341
-6.36361
-6.3638
-6.36399
-6.36416
-6.36433
-6.36449
-6.36464
-6.36478
-6.36493
-6.36502
-6.36502
-6.36504
-6.36501
-6.36517
-6.50499
-6.50506
-6.50508
-6.50512
-6.50517
-6.50526
-6.5054
-6.50556
-6.50574
-6.50592
-6.50611
-6.5063
-6.50651
-6.50672
-6.50693
-6.50715
-6.50737
-6.50759
-6.50781
-6.50802
-6.50823
-6.50843
-6.50863
-6.50882
-6.509
-6.50917
-6.50932
-6.50947
-6.50962
-6.50976
-6.50985
-6.50985
-6.5099
-6.50988
-6.51006
-6.64976
-6.64985
-6.64986
-6.6499
-6.64995
-6.65004
-6.65019
-6.65035
-6.65053
-6.65071
-6.65091
-6.65111
-6.65132
-6.65153
-6.65175
-6.65197
-6.6522
-6.65242
-6.65264
-6.65286
-6.65307
-6.65328
-6.65348
-6.65367
-6.65386
-6.65403
-6.6542
-6.65435
-6.6545
-6.65465
-6.65474
-6.65473
-6.65474
-6.65473
-6.65491
-6.79454
-6.79465
-6.79467
-6.7947
-6.79474
-6.79483
-6.79498
-6.79515
-6.79532
-6.79551
-6.79571
-6.79591
-6.79612
-6.79634
-6.79656
-6.79678
-6.79701
-6.79724
-6.79747
-6.79769
-6.7979
-6.79812
-6.79832
-6.79852
-6.7987
-6.79888
-6.79904
-6.7992
-6.79935
-6.7995
-6.79959
-6.79958
-6.79961
-6.79959
-6.79965
-6.93937
-6.93943
-6.93944
-6.93948
-6.93952
-6.93961
-6.93976
-6.93993
-6.94011
-6.9403
-6.9405
-6.94071
-6.94092
-6.94114
-6.94137
-6.9416
-6.94183
-6.94206
-6.94229
-6.94251
-6.94273
-6.94294
-6.94315
-6.94335
-6.94354
-6.94371
-6.94388
-6.94403
-6.94419
-6.94433
-6.94441
-6.9444
-6.94444
-6.94445
-6.94472
-7.08413
-7.08421
-7.08422
-7.08426
-7.0843
-7.08439
-7.08454
-7.08471
-7.0849
-7.08509
-7.08529
-7.0855
-7.08571
-7.08594
-7.08616
-7.08639
-7.08663
-7.08686
-7.08709
-7.08732
-7.08754
-7.08776
-7.08797
-7.08817
-7.08836
-7.08854
-7.0887
-7.08886
-7.08902
-7.08916
-7.08925
-7.08925
-7.08927
-7.08924
-7.08942
-7.22889
-7.22896
-7.22898
-7.22903
-7.22907
-7.22916
-7.22931
-7.22949
-7.22967
-7.22986
-7.23007
-7.23028
-7.2305
-7.23072
-7.23095
-7.23119
-7.23143
-7.23166
-7.2319
-7.23213
-7.23235
-7.23257
-7.23278
-7.23298
-7.23318
-7.23336
-7.23353
-7.23369
-7.23384
-7.23399
-7.23407
-7.23407
-7.23411
-7.2341
-7.23423
-7.37362
-7.37371
-7.37372
-7.37376
-7.37381
-7.37391
-7.37406
-7.37423
-7.37442
-7.37462
-7.37482
-7.37504
-7.37526
-7.37549
-7.37572
-7.37596
-7.3762
-7.37644
-7.37667
-7.37691
-7.37714
-7.37736
-7.37757
-7.37778
-7.37798
-7.37816
-7.37834
-7.3785
-7.37866
-7.37881
-7.3789
-7.37891
-7.37892
-7.3789
-7.37909
-7.51832
-7.51842
-7.51844
-7.51849
-7.51854
-7.51864
-7.51879
-7.51897
-7.51916
-7.51936
-7.51956
-7.51978
-7.52
-7.52023
-7.52047
-7.52071
-7.52095
-7.5212
-7.52143
-7.52167
-7.5219
-7.52213
-7.52234
-7.52255
-7.52275
-7.52294
-7.52311
-7.52328
-7.52345
-7.52359
-7.52368
-7.52369
-7.52373
-7.52367
-7.52379
-7.66305
-7.66313
-7.66315
-7.66318
-7.66323
-7.66333
-7.66349
-7.66367
-7.66386
-7.66406
-7.66427
-7.66449
-7.66472
-7.66495
-7.66519
-7.66543
-7.66567
-7.66592
-7.66616
-7.6664
-7.66663
-7.66685
-7.66707
-7.66728
-7.66748
-7.66767
-7.66785
-7.66802
-7.66818
-7.66833
-7.66841
-7.66841
-7.66846
-7.66843
-7.66862
-7.80773
-7.80782
-7.80784
-7.80789
-7.80793
-7.80802
-7.80818
-7.80836
-7.80855
-7.80875
-7.80897
-7.80919
-7.80942
-7.80965
-7.80989
-7.81014
-7.81039
-7.81063
-7.81087
-7.81111
-7.81135
-7.81157
-7.81179
-7.812
-7.8122
-7.81239
-7.81257
-7.81273
-7.81289
-7.81303
-7.81311
-7.81311
-7.81315
-7.81316
-7.81346
-7.95237
-7.95248
-7.9525
-7.95256
-7.95261
-7.9527
-7.95286
-7.95304
-7.95323
-7.95344
-7.95365
-7.95387
-7.9541
-7.95434
-7.95458
-7.95483
-7.95508
-7.95533
-7.95557
-7.95582
-7.95605
-7.95628
-7.95651
-7.95672
-7.95692
-7.95712
-7.9573
-7.95747
-7.95764
-7.95779
-7.95788
-7.95789
-7.95789
-7.95785
-7.95801
-8.09708
-8.09715
-8.09716
-8.0972
-8.09725
-8.09735
-8.0975
-8.09769
-8.09789
-8.0981
-8.09832
-8.09854
-8.09877
-8.09901
-8.09926
-8.09951
-8.09976
-8.10001
-8.10026
-8.10051
-8.10075
-8.10098
-8.10121
-8.10142
-8.10163
-8.10183
-8.10201
-8.10218
-8.10235
-8.1025
-8.10259
-8.10259
-8.10264
-8.10261
-8.10285
-8.24165
-8.24175
-8.24178
-8.24183
-8.24187
-8.24197
-8.24213
-8.24232
-8.24252
-8.24273
-8.24295
-8.24318
-8.24342
-8.24366
-8.24391
-8.24416
-8.24442
-8.24467
-8.24492
-8.24517
-8.24542
-8.24565
-8.24588
-8.2461
-8.24631
-8.24651
-8.24669
-8.24687
-8.24705
-8.2472
-8.24728
-8.24729
-8.24732
-8.2473
-8.24754
-8.38629
-8.38636
-8.38637
-8.38642
-8.38647
-8.38657
-8.38673
-8.38693
-8.38713
-8.38735
-8.38757
-8.3878
-8.38804
-8.38829
-8.38854
-8.3888
-8.38906
-8.38932
-8.38958
-8.38983
-8.39008
-8.39032
-8.39055
-8.39077
-8.39098
-8.39118
-8.39137
-8.39155
-8.39173
-8.39189
-8.39198
-8.39198
-8.39202
-8.39197
-8.39225
-8.53089
-8.53098
-8.531
-8.53104
-8.53108
-8.53118
-8.53135
-8.53154
-8.53175
-8.53196
-8.53219
-8.53242
-8.53267
-8.53292
-8.53317
-8.53343
-8.5337
-8.53395
-8.53421
-8.53446
-8.53471
-8.53495
-8.53519
-8.53541
-8.53562
-8.53582
-8.53602
-8.5362
-8.53638
-8.53653
-8.53661
-8.53662
-8.53666
-8.53666
-8.53699
-8.67548
-8.67559
-8.6756
-8.67566
-8.67571
-8.67581
-8.67597
-8.67617
-8.67637
-8.67659
-8.67682
-8.67705
-8.6773
-8.67755
-8.67781
-8.67807
-8.67833
-8.6786
-8.67885
-8.67911
-8.67936
-8.6796
-8.67984
-8.68006
-8.68028
-8.68048
-8.68067
-8.68085
-8.68103
-8.68118
-8.68127
-8.68126
-8.68129
-8.68132
-8.68166
-8.82009
-8.82019
-8.82021
-8.82025
-8.8203
-8.82041
-8.82057
-8.82077
-8.82098
-8.8212
-8.82143
-8.82167
-8.82192
-8.82218
-8.82244
-8.82271
-8.82297
-8.82324
-8.8235
-8.82376
-8.82402
-8.82427
-8.82451
-8.82474
-8.82496
-8.82516
-8.82536
-8.82554
-8.82573
-8.82588
-8.82597
-8.82597
-8.826
-8.82598
-8.82624
-8.96467
-8.96479
-8.96481
-8.96487
-8.96492
-8.96502
-8.96518
-8.96538
-8.9656
-8.96582
-8.96606
-8.9663
-8.96655
-8.96681
-8.96708
-8.96735
-8.96762
-8.96789
-8.96816
-8.96842
-8.96868
-8.96893
-8.96918
-8.96941
-8.96964
-8.96985
-8.97005
-8.97024
-8.97043
-8.97059
-8.97068
-8.97067
-8.97072
-8.97068
-8.97091
-9.1093
-9.10941
-9.10943
-9.10948
-9.10953
-9.10963
-9.1098
-9.11001
-9.11023
-9.11045
-9.11069
-9.11094
-9.1112
-9.11146
-9.11173
-9.11201
-9.11229
-9.11256
-9.11283
-9.1131
-9.11336
-9.11362
-9.11387
-9.11411
-9.11433
-9.11455
-9.11475
-9.11494
-9.11513
-9.11529
-9.11539
-9.1154
-9.11542
-9.11539
-9.11562
-9.25393
-9.25405
-9.25408
-9.25412
-9.25417
-9.25427
-9.25445
-9.25465
-9.25487
-9.2551
-9.25534
-9.25559
-9.25585
-9.25611
-9.25639
-9.25667
-9.25695
-9.25723
-9.25751
-9.25778
-9.25805
-9.25831
-9.25857
-9.25881
-9.25905
-9.25927
-9.25947
-9.25967
-9.25987
-9.26003
-9.26012
-9.26012
-9.26018
-9.26013
-9.26031
-9.39853
-9.39867
-9.39868
-9.39875
-9.39881
-9.39891
-9.39909
-9.3993
-9.39952
-9.39975
-9.39999
-9.40024
-9.4005
-9.40077
-9.40105
-9.40133
-9.40162
-9.4019
-9.40218
-9.40245
-9.40273
-9.40299
-9.40325
-9.4035
-9.40374
-9.40397
-9.40418
-9.40439
-9.4046
-9.40477
-9.40487
-9.40487
-9.40487
-9.40482
-9.40494
-9.54319
-9.54334
-9.54336
-9.54341
-9.54346
-9.54356
-9.54374
-9.54395
-9.54417
-9.5444
-9.54465
-9.5449
-9.54517
-9.54544
-9.54571
-9.546
-9.54628
-9.54657
-9.54685
-9.54713
-9.5474
-9.54767
-9.54792
-9.54817
-9.54841
-9.54863
-9.54884
-9.54904
-9.54924
-9.54941
-9.54951
-9.54953
-9.54957
-9.54951
-9.54971
-9.6879
-9.688
-9.68801
-9.68806
-9.68811
-9.68821
-9.68839
-9.6886
-9.68882
-9.68906
-9.6893
-9.68956
-9.68983
-9.6901
-9.69038
-9.69066
-9.69095
-9.69123
-9.69151
-9.69179
-9.69206
-9.69233
-9.69258
-9.69283
-9.69306
-9.69329
-9.69349
-9.69369
-9.69389
-9.69405
-9.69415
-9.69415
-9.69419
-9.69419
-9.69459
-9.83257
-9.83264
-9.83264
-9.8327
-9.83275
-9.83286
-9.83304
-9.83325
-9.83348
-9.83372
-9.83397
-9.83422
-9.83449
-9.83477
-9.83505
-9.83534
-9.83563
-9.83591
-9.8362
-9.83648
-9.83675
-9.83702
-9.83727
-9.83752
-9.83776
-9.83798
-9.8382
-9.8384
-9.8386
-9.83877
-9.83886
-9.83887
-9.83892
-9.83891
-9.83918
-9.97716
-9.97727
-9.97729
-9.97736
-9.97741
-9.97752
-9.97769
-9.97791
-9.97814
-9.97838
-9.97863
-9.97889
-9.97916
-9.97944
-9.97973
-9.98001
-9.9803
-9.98059
-9.98087
-9.98116
-9.98143
-9.9817
-9.98196
-9.98221
-9.98245
-9.98268
-9.98289
-9.98309
-9.98329
-9.98345
-9.98354
-9.98355
-9.98359
-9.98362
-9.984
-10.1219
-10.122
-10.122
-10.122
-10.1221
-10.1222
-10.1224
-10.1226
-10.1228
-10.123
-10.1233
-10.1236
-10.1238
-10.1241
-10.1244
-10.1247
-10.125
-10.1253
-10.1256
-10.1258
-10.1261
-10.1264
-10.1267
-10.1269
-10.1272
-10.1274
-10.1276
-10.1278
-10.128
-10.1282
-10.1283
-10.1283
-10.1284
-10.1283
-10.1285
-10.2664
-10.2666
-10.2666
-10.2667
-10.2667
-10.2668
-10.267
-10.2672
-10.2674
-10.2677
-10.2679
-10.2682
-10.2685
-10.2688
-10.2691
-10.2693
-10.2696
-10.2699
-10.2702
-10.2705
-10.2708
-10.2711
-10.2713
-10.2716
-10.2718
-10.2721
-10.2723
-10.2725
-10.2727
-10.2729
-10.273
-10.273
-10.273
-10.273
-10.2731
-10.4111
-10.4112
-10.4112
-10.4113
-10.4113
-10.4114
-10.4116
-10.4118
-10.4121
-10.4123
-10.4126
-10.4128
-10.4131
-10.4134
-10.4137
-10.414
-10.4143
-10.4146
-10.4149
-10.4152
-10.4154
-10.4157
-10.416
-10.4162
-10.4165
-10.4167
-10.4169
-10.4172
-10.4174
-10.4175
-10.4176
-10.4176
-10.4177
-10.4177
-10.4181
-10.5556
-10.5558
-10.5558
-10.5558
-10.5559
-10.556
-10.5562
-10.5564
-10.5566
-10.5569
-10.5571
-10.5574
-10.5577
-10.558
-10.5583
-10.5586
-10.5589
-10.5592
-10.5595
-10.5598
-10.56
-10.5603
-10.5606
-10.5609
-10.5611
-10.5613
-10.5616
-10.5618
-10.562
-10.5622
-10.5623
-10.5623
-10.5624
-10.5623
-10.5625
-10.7002
-10.7003
-10.7004
-10.7004
-10.7005
-10.7006
-10.7007
-10.701
-10.7012
-10.7014
-10.7017
-10.702
-10.7022
-10.7025
-10.7028
-10.7031
-10.7034
-10.7037
-10.704
-10.7043
-10.7046
-10.7049
-10.7052
-10.7054
-10.7057
-10.7059
-10.7062
-10.7064
-10.7066
-10.7067
-10.7068
-10.7068
-10.7069
-10.7068
-10.7069
-10.8446
-10.8448
-10.8448
-10.8449
-10.8449
-10.845
-10.8452
-10.8454
-10.8457
-10.8459
-10.8462
-10.8465
-10.8467
-10.847
-10.8473
-10.8476
-10.8479
-10.8482
-10.8485
-10.8488
-10.8491
-10.8494
-10.8497
-10.8499
-10.8502
-10.8504
-10.8507
-10.8509
-10.8511
-10.8512
-10.8513
-10.8513
-10.8513
-10.8514
-10.8518
-10.9891
-10.9892
-10.9893
-10.9893
-10.9894
-10.9895
-10.9897
-10.9899
-10.9901
-10.9904
-10.9906
-10.9909
-10.9912
-10.9915
-10.9918
-10.9921
-10.9924
-10.9927
-10.993
-10.9933
-10.9936
-10.9938
-10.9941
-10.9944
-10.9946
-10.9949
-10.9951
-10.9953
-10.9955
-10.9957
-10.9958
-10.9958
-10.9958
-10.9958
-10.996
-11.1335
-11.1336
-11.1336
-11.1337
-11.1337
-11.1338
-11.134
-11.1342
-11.1345
-11.1347
-11.135
-11.1353
-11.1355
-11.1358
-11.1361
-11.1364
-11.1367
-11.137
-11.1373
-11.1376
-11.1379
-11.1382
-11.1385
-11.1388
-11.139
-11.1393
-11.1395
-11.1397
-11.1399
-11.14
-11.1401
-11.1401
-11.1402
-11.1402
-11.1404
-11.2778
-11.2779
-11.2779
-11.278
-11.278
-11.2781
-11.2783
-11.2786
-11.2788
-11.279
-11.2793
-11.2796
-11.2799
-11.2802
-11.2805
-11.2808
-11.2811
-11.2814
-11.2817
-11.282
-11.2823
-11.2825
-11.2828
-11.2831
-11.2833
-11.2836
-11.2838
-11.284
-11.2842
-11.2844
-11.2845
-11.2845
-11.2845
-11.2845
-11.2848
-11.422
-11.4222
-11.4222
-11.4223
-11.4223
-11.4224
-11.4226
-11.4228
-11.4231
-11.4233
-11.4236
-11.4239
-11.4241
-11.4244
-11.4247
-11.4251
-11.4254
-11.4257
-11.426
-11.4263
-11.4266
-11.4268
-11.4271
-11.4274
-11.4276
-11.4279
-11.4281
-11.4283
-11.4285
-11.4287
-11.4288
-11.4288
-11.4288
-11.4288
-11.4291
-11.5662
-11.5665
-11.5665
-11.5665
-11.5666
-11.5667
-11.5669
-11.5671
-11.5673
-11.5676
-11.5678
-11.5681
-11.5684
-11.5687
-11.569
-11.5693
-11.5696
-11.5699
-11.5702
-11.5705
-11.5708
-11.5711
-11.5713
-11.5716
-11.5719
-11.5721
-11.5723
-11.5726
-11.5728
-11.5729
-11.573
-11.5731
-11.5731
-11.5731
-11.5733
-11.7104
-11.7106
-11.7106
-11.7107
-11.7107
-11.7108
-11.711
-11.7112
-11.7115
-11.7117
-11.712
-11.7123
-11.7125
-11.7128
-11.7131
-11.7134
-11.7137
-11.7141
-11.7144
-11.7147
-11.7149
-11.7152
-11.7155
-11.7158
-11.716
-11.7163
-11.7165
-11.7167
-11.7169
-11.7171
-11.7172
-11.7173
-11.7174
-11.7173
-11.7176
-11.8546
-11.8547
-11.8547
-11.8548
-11.8548
-11.8549
-11.8551
-11.8553
-11.8556
-11.8558
-11.8561
-11.8564
-11.8566
-11.8569
-11.8573
-11.8576
-11.8579
-11.8582
-11.8585
-11.8588
-11.8591
-11.8594
-11.8597
-11.8599
-11.8602
-11.8604
-11.8607
-11.8609
-11.8611
-11.8612
-11.8614
-11.8614
-11.8614
-11.8614
-11.8618
-11.9986
-11.9988
-11.9988
-11.9988
-11.9989
-11.999
-11.9992
-11.9994
-11.9996
-11.9999
-12.0002
-12.0004
-12.0007
-12.001
-12.0013
-12.0016
-12.0019
-12.0023
-12.0026
-12.0029
-12.0032
-12.0035
-12.0037
-12.004
-12.0043
-12.0045
-12.0048
-12.005
-12.0052
-12.0053
-12.0055
-12.0055
-12.0056
-12.0055
-12.0058
-12.1426
-12.1428
-12.1428
-12.1429
-12.1429
-12.143
-12.1432
-12.1434
-12.1437
-12.1439
-12.1442
-12.1445
-12.1448
-12.1451
-12.1454
-12.1457
-12.146
-12.1463
-12.1466
-12.1469
-12.1472
-12.1475
-12.1478
-12.1481
-12.1483
-12.1486
-12.1488
-12.149
-12.1492
-12.1494
-12.1495
-12.1496
-12.1496
-12.1496
-12.1499
-12.2866
-12.2868
-12.2868
-12.2869
-12.2869
-12.287
-12.2872
-12.2874
-12.2877
-12.2879
-12.2882
-12.2885
-12.2888
-12.2891
-12.2894
-12.2897
-12.29
-12.2903
-12.2907
-12.291
-12.2913
-12.2916
-12.2919
-12.2921
-12.2924
-12.2926
-12.2929
-12.2931
-12.2933
-12.2935
-12.2936
-12.2937
-12.2937
-12.2937
-12.294
-12.4306
-12.4308
-12.4308
-12.4308
-12.4309
-12.431
-12.4312
-12.4314
-12.4316
-12.4319
-12.4322
-12.4325
-12.4327
-12.4331
-12.4334
-12.4337
-12.434
-12.4343
-12.4346
-12.435
-12.4353
-12.4356
-12.4359
-12.4361
-12.4364
-12.4367
-12.4369
-12.4371
-12.4373
-12.4375
-12.4376
-12.4377
-12.4377
-12.4377
-12.438
-12.5746
-12.5747
-12.5747
-12.5748
-12.5748
-12.5749
-12.5751
-12.5754
-12.5756
-12.5759
-12.5761
-12.5764
-12.5767
-12.577
-12.5773
-12.5777
-12.578
-12.5783
-12.5786
-12.5789
-12.5793
-12.5796
-12.5799
-12.5801
-12.5804
-12.5807
-12.5809
-12.5812
-12.5814
-12.5815
-12.5817
-12.5817
-12.5817
-12.5817
-12.582
-12.7185
-12.7187
-12.7187
-12.7188
-12.7188
-12.7189
-12.7191
-12.7193
-12.7196
-12.7198
-12.7201
-12.7204
-12.7207
-12.721
-12.7213
-12.7216
-12.7219
-12.7223
-12.7226
-12.7229
-12.7232
-12.7235
-12.7238
-12.7241
-12.7244
-12.7247
-12.7249
-12.7252
-12.7254
-12.7255
-12.7257
-12.7257
-12.7257
-12.7256
-12.7258
-12.8624
-12.8626
-12.8626
-12.8627
-12.8627
-12.8628
-12.863
-12.8632
-12.8635
-12.8638
-12.864
-12.8643
-12.8646
-12.8649
-12.8652
-12.8656
-12.8659
-12.8662
-12.8665
-12.8669
-12.8672
-12.8675
-12.8678
-12.8681
-12.8684
-12.8686
-12.8689
-12.8691
-12.8693
-12.8695
-12.8696
-12.8696
-12.8697
-12.8696
-12.87
-13.0064
-13.0066
-13.0066
-13.0067
-13.0067
-13.0068
-13.007
-13.0072
-13.0075
-13.0077
-13.008
-13.0083
-13.0086
-13.0089
-13.0092
-13.0096
-13.0099
-13.0102
-13.0105
-13.0109
-13.0112
-13.0115
-13.0118
-13.0121
-13.0124
-13.0126
-13.0129
-13.0131
-13.0133
-13.0135
-13.0136
-13.0136
-13.0136
-13.0137
-13.0141
-13.1504
-13.1505
-13.1505
-13.1506
-13.1507
-13.1508
-13.1509
-13.1512
-13.1514
-13.1517
-13.152
-13.1523
-13.1526
-13.1529
-13.1532
-13.1535
-13.1539
-13.1542
-13.1545
-13.1549
-13.1552
-13.1555
-13.1558
-13.1561
-13.1564
-13.1567
-13.1569
-13.1572
-13.1574
-13.1576
-13.1577
-13.1578
-13.1577
-13.1576
-13.1579
-13.2943
-13.2945
-13.2945
-13.2946
-13.2946
-13.2947
-13.2949
-13.2951
-13.2954
-13.2957
-13.296
-13.2962
-13.2966
-13.2969
-13.2972
-13.2975
-13.2979
-13.2982
-13.2985
-13.2989
-13.2992
-13.2995
-13.2998
-13.3001
-13.3004
-13.3007
-13.301
-13.3012
-13.3014
-13.3016
-13.3017
-13.3018
-13.3017
-13.3016
-13.302
-13.4383
-13.4385
-13.4385
-13.4386
-13.4386
-13.4387
-13.4389
-13.4391
-13.4394
-13.4396
-13.4399
-13.4402