/*--------------------------------*- C++ -*----------------------------------*\
  =========                 |
  \\      /  F ield         | OpenFOAM: The Open Source CFD Toolbox
   \\    /   O peration     | Website:  https://openfoam.org
    \\  /    A nd           | Version:  13
     \\/     M anipulation  |
\*---------------------------------------------------------------------------*/
FoamFile
{
    format      ascii;
    class       volScalarField;
    location    "2";
    object      p_rgh;
}
// * * * * * * * * * * * * * * * * * * * * * * * * * * * * * * * * * * * * * //

dimensions      [0 2 -2 0 0 0 0];

internalField   nonuniform List<scalar> 
78750
(
0.0736563
0.0749885
0.0753584
0.0756441
0.0759031
0.076134
0.0763563
0.0765375
0.0767122
0.0769012
0.0770527
0.0771739
0.077284
0.077397
0.0775254
0.0776445
0.0777314
0.0777985
0.077859
0.0779138
0.0779603
0.0779978
0.0780273
0.0780494
0.0780633
0.0780673
0.0780586
0.0780314
0.0779759
0.0778694
0.0776802
0.0773562
0.0768675
0.0762117
0.075384
0.0804718
0.0796069
0.0789203
0.078433
0.0781257
0.0779589
0.077877
0.0778439
0.0778503
0.0778753
0.0779085
0.0779495
0.0779959
0.078048
0.0781007
0.0781504
0.0781957
0.0782384
0.0782786
0.0783158
0.0783492
0.0783779
0.0784019
0.0784204
0.0784313
0.0784309
0.0784112
0.0783547
0.0782274
0.0779629
0.0774546
0.0765604
0.0751253
0.0730731
0.070457
0.0834899
0.0820476
0.0809193
0.0801377
0.0796665
0.0794258
0.0793246
0.0792942
0.0792983
0.0793174
0.0793418
0.079368
0.0793949
0.0794223
0.0794495
0.0794759
0.079501
0.0795247
0.0795468
0.0795673
0.079586
0.0796025
0.0796163
0.0796267
0.0796316
0.0796255
0.0795956
0.0795133
0.0793185
0.0789011
0.0780806
0.0766096
0.074224
0.0707801
0.0663844
0.0870144
0.0849877
0.0833964
0.0822967
0.0816202
0.0812391
0.0810362
0.0809324
0.0808793
0.0808493
0.0808294
0.0808138
0.0808003
0.0807877
0.0807759
0.0807645
0.0807536
0.080743
0.0807328
0.080723
0.0807134
0.0807039
0.0806941
0.0806828
0.0806672
0.0806397
0.080582
0.080454
0.0801723
0.0795826
0.0784347
0.0763804
0.0730402
0.0682091
0.0620526
0.0900885
0.0874856
0.0854386
0.0840224
0.0831502
0.0826565
0.0823925
0.0822564
0.0821845
0.0821416
0.0821108
0.0820847
0.0820603
0.0820364
0.0820126
0.0819893
0.0819662
0.0819436
0.0819214
0.0818999
0.081879
0.0818586
0.0818381
0.0818162
0.0817894
0.0817479
0.0816683
0.0814985
0.0811316
0.0803695
0.0788911
0.0762494
0.0719549
0.0657383
0.0578239
0.0932126
0.0900322
0.0875279
0.0857941
0.0847212
0.0841097
0.0837779
0.0836019
0.0835039
0.0834411
0.083393
0.0833502
0.0833093
0.0832689
0.0832287
0.0831888
0.0831495
0.0831111
0.0830736
0.0830373
0.0830022
0.0829684
0.0829354
0.0829013
0.0828616
0.0828049
0.0827025
0.0824913
0.0820403
0.0811077
0.0793019
0.0760752
0.0708264
0.0632305
0.0535619
0.0961924
0.0924274
0.08947
0.0874213
0.0861534
0.0854291
0.085036
0.084827
0.0847101
0.0846344
0.0845757
0.0845233
0.0844728
0.0844226
0.0843722
0.0843219
0.0842721
0.0842231
0.084175
0.0841281
0.0840826
0.0840385
0.0839952
0.0839509
0.0839001
0.0838289
0.083704
0.0834503
0.0829132
0.0818067
0.0796693
0.0758534
0.0696507
0.0606645
0.0492303
0.0990783
0.0947403
0.0913315
0.0889703
0.0875081
0.0866739
0.0862223
0.0859828
0.085849
0.0857626
0.0856953
0.085635
0.0855766
0.0855184
0.0854597
0.0854007
0.0853421
0.0852842
0.0852273
0.0851716
0.0851174
0.0850648
0.0850132
0.0849605
0.0849006
0.0848175
0.0846726
0.0843795
0.0837598
0.0824831
0.0800173
0.0756165
0.0684581
0.0580853
0.0448769
0.101945
0.0970259
0.0931579
0.0904796
0.0888211
0.0878748
0.0873627
0.0870914
0.0869402
0.0868427
0.086767
0.0866991
0.0866333
0.0865676
0.0865015
0.0864348
0.086368
0.0863018
0.0862365
0.0861723
0.0861096
0.0860484
0.0859881
0.0859261
0.0858556
0.0857586
0.0855911
0.0852554
0.0845491
0.083098
0.0802999
0.0753097
0.0671915
0.0554412
0.0404716
0.104752
0.0992486
0.0949271
0.0919352
0.0900835
0.0890283
0.0884589
0.0881585
0.087992
0.0878854
0.087803
0.0877292
0.0876575
0.0875859
0.0875135
0.0874405
0.0873673
0.0872945
0.0872226
0.0871519
0.0870827
0.0870151
0.0869485
0.0868801
0.0868022
0.0866947
0.0865087
0.086135
0.0853472
0.083727
0.080601
0.0750239
0.0659514
0.0528237
0.0360833
0.107525
0.101448
0.096674
0.0933674
0.0913214
0.0901564
0.0895287
0.0891985
0.0890165
0.0889006
0.0888115
0.0887319
0.0886546
0.0885772
0.0884991
0.0884202
0.0883408
0.0882619
0.0881838
0.0881068
0.0880315
0.0879577
0.0878848
0.0878099
0.0877243
0.0876059
0.0874007
0.086988
0.0861177
0.0843271
0.0808718
0.074707
0.0646794
0.0501724
0.0317051
0.110303
0.103644
0.098413
0.0947899
0.092548
0.0912717
0.0905844
0.0902235
0.0900252
0.0898997
0.0898037
0.0897182
0.0896354
0.0895527
0.0894691
0.0893848
0.0893002
0.0892158
0.0891323
0.08905
0.0889692
0.0888902
0.0888119
0.0887311
0.0886384
0.0885094
0.088285
0.0878328
0.0868785
0.0849154
0.0811289
0.0743751
0.0633932
0.0475046
0.0272839
0.113038
0.105796
0.100111
0.0961734
0.0937376
0.0923518
0.0916068
0.0912167
0.0910034
0.0908693
0.0907674
0.090677
0.0905895
0.0905021
0.0904139
0.0903248
0.0902353
0.0901461
0.0900577
0.0899707
0.0898853
0.0898017
0.0897189
0.0896334
0.089535
0.0893971
0.0891556
0.0886668
0.0876328
0.0855023
0.0813898
0.0740511
0.0621139
0.0448395
0.0228539
0.115741
0.107921
0.101781
0.0975292
0.0948999
0.0934053
0.0926032
0.0921846
0.0919571
0.0918151
0.0917078
0.0916129
0.0915213
0.0914298
0.0913373
0.0912439
0.0911502
0.0910566
0.0909638
0.0908724
0.0907827
0.0906947
0.0906075
0.0905173
0.0904129
0.0902658
0.0900065
0.08948
0.0883645
0.0860646
0.0816245
0.0736999
0.0608154
0.042154
0.0184055
0.118416
0.110017
0.103423
0.0988558
0.0960327
0.0944291
0.0935697
0.0931226
0.0928808
0.0927309
0.0926186
0.0925196
0.0924243
0.092329
0.0922328
0.0921357
0.0920381
0.0919408
0.0918444
0.0917494
0.0916563
0.0915651
0.0914746
0.0913809
0.0912721
0.0911172
0.090842
0.0902799
0.0890852
0.0866185
0.0818534
0.0733455
0.0594986
0.0394537
0.0139446
0.121062
0.112083
0.105034
0.100154
0.0971385
0.0954265
0.0945105
0.0940351
0.0937792
0.0936216
0.0935041
0.0934008
0.0933013
0.0932018
0.0931013
0.0929996
0.0928973
0.0927952
0.0926938
0.0925938
0.0924956
0.0923992
0.0923033
0.0922036
0.0920875
0.0919219
0.0916273
0.0910257
0.0897475
0.087109
0.0820137
0.072917
0.0581198
0.0366958
0.00945209
0.123677
0.114118
0.106616
0.101422
0.0982125
0.0963923
0.0954201
0.0949171
0.0946478
0.0944831
0.0943609
0.0942539
0.0941509
0.0940478
0.0939436
0.0938382
0.093732
0.0936259
0.0935206
0.0934167
0.0933146
0.0932143
0.0931146
0.0930107
0.0928894
0.0927152
0.0924036
0.0917653
0.0904067
0.0875999
0.0821764
0.0724892
0.0567243
0.0339194
0.00489123
0.126283
0.116154
0.108197
0.102686
0.0992821
0.097352
0.0963215
0.0957891
0.0955047
0.0953313
0.0952033
0.0950914
0.0949839
0.0948764
0.0947677
0.0946576
0.0945467
0.0944359
0.0943259
0.0942172
0.0941102
0.094005
0.0939002
0.0937908
0.0936626
0.0934782
0.0931478
0.0924702
0.0910282
0.0880499
0.0822965
0.0720272
0.0553231
0.0311381
0.000358015
0.12886
0.118154
0.109741
0.103917
0.100319
0.0982806
0.0971933
0.0966326
0.0963342
0.0961533
0.0960203
0.0959045
0.0957933
0.0956821
0.0955697
0.0954559
0.0953411
0.0952264
0.0951126
0.0950001
0.0948894
0.0947806
0.0946721
0.0945589
0.0944256
0.0942332
0.0938865
0.0931729
0.0916518
0.0885069
0.0824275
0.0715683
0.0538989
0.0283279
-0.00416142
0.131435
0.12015
0.111283
0.105141
0.10135
0.0992023
0.0980574
0.0974677
0.0971545
0.0969653
0.0968268
0.0967064
0.0965909
0.0964755
0.096359
0.0962409
0.0961218
0.0960029
0.095885
0.0957683
0.0956536
0.0955408
0.0954283
0.0953106
0.0951717
0.0949702
0.0946059
0.0938546
0.0922517
0.0889367
0.082529
0.0710894
0.0524652
0.0254983
-0.0088355
0.133997
0.122124
0.112799
0.106344
0.102358
0.1001
0.098897
0.0982782
0.0979505
0.0977534
0.0976098
0.0974854
0.0973664
0.0972476
0.0971276
0.097006
0.0968834
0.096761
0.0966395
0.0965194
0.0964012
0.096285
0.0961691
0.0960476
0.0959038
0.0956942
0.0953134
0.0945259
0.0928434
0.089361
0.0826266
0.0705966
0.0510239
0.0226973
-0.0133586
0.13653
0.124069
0.114287
0.107518
0.103341
0.100976
0.0997177
0.0990721
0.0987317
0.0985281
0.0983804
0.0982528
0.0981308
0.0980089
0.0978857
0.0977609
0.0976347
0.0975089
0.097384
0.0972605
0.0971389
0.0970193
0.0968999
0.0967745
0.0966257
0.0964076
0.0960096
0.0951849
0.0934212
0.0897695
0.0827069
0.0700903
0.0495497
0.0198397
-0.0179747
0.139036
0.126007
0.115778
0.108696
0.104323
0.101849
0.100532
0.0998575
0.0995023
0.0992905
0.0991375
0.0990058
0.09888
0.0987546
0.0986279
0.0984995
0.0983699
0.0982406
0.0981122
0.0979853
0.0978603
0.0977371
0.097614
0.0974844
0.0973299
0.0971026
0.0966866
0.0958234
0.093977
0.0901543
0.0827622
0.0695599
0.0480871
0.0169961
-0.022587
0.141538
0.127924
0.117238
0.109847
0.105282
0.102699
0.101327
0.100626
0.100258
0.10004
0.0998832
0.0997488
0.0996207
0.0994929
0.0993639
0.099233
0.0991008
0.0989689
0.0988382
0.0987089
0.0985817
0.0984565
0.0983315
0.0981997
0.0980422
0.0978087
0.0973785
0.0964814
0.094558
0.0905705
0.0828534
0.0690647
0.0466291
0.0141759
-0.0271319
0.14403
0.129837
0.118697
0.110987
0.10623
0.103541
0.102113
0.101385
0.101004
0.100779
0.100619
0.100481
0.10035
0.100219
0.100087
0.0999536
0.0998184
0.0996837
0.0995502
0.0994183
0.0992887
0.0991613
0.0990342
0.0989004
0.0987398
0.0985003
0.098056
0.0971254
0.0951254
0.090974
0.082934
0.0685643
0.0451748
0.0112983
-0.0318384
0.146532
0.13176
0.120166
0.112146
0.107194
0.104394
0.10291
0.102152
0.101758
0.101525
0.10136
0.101219
0.101084
0.10095
0.100814
0.100677
0.100538
0.100399
0.100261
0.100125
0.0999909
0.0998589
0.0997269
0.0995876
0.09942
0.09917
0.0987064
0.0977359
0.0956521
0.0913282
0.0829562
0.0679928
0.0436458
0.00841041
-0.0364379
0.149054
0.1337
0.121649
0.113308
0.108163
0.105255
0.103713
0.102926
0.102517
0.102276
0.102105
0.101958
0.101819
0.101681
0.101541
0.101399
0.101255
0.101112
0.100971
0.10083
0.100692
0.100557
0.100421
0.100277
0.100104
0.099845
0.0993641
0.0983562
0.09619
0.0916951
0.082993
0.067447
0.0421374
0.00552281
-0.0411223
0.151585
0.135655
0.123151
0.114495
0.109153
0.106133
0.104531
0.103714
0.103289
0.103039
0.102862
0.10271
0.102567
0.102424
0.10228
0.102133
0.101985
0.101837
0.101691
0.101546
0.101404
0.101263
0.101123
0.100974
0.100794
0.100526
0.100027
0.0989819
0.096735
0.0920721
0.0830431
0.0669082
0.0406524
0.00263359
-0.0457852
0.154107
0.137587
0.124624
0.115659
0.110127
0.107
0.105343
0.104499
0.10406
0.103804
0.103622
0.103467
0.10332
0.103173
0.103026
0.102876
0.102724
0.102573
0.102424
0.102276
0.102131
0.101988
0.101846
0.101694
0.101512
0.101237
0.100723
0.0996433
0.0973179
0.092488
0.0831316
0.0664097
0.0391954
-0.000165355
-0.0502862
0.156636
0.139555
0.126148
0.116864
0.111136
0.107899
0.106183
0.105309
0.104855
0.104589
0.104401
0.104242
0.10409
0.10394
0.103788
0.103634
0.103478
0.103324
0.103171
0.103019
0.102871
0.102725
0.102578
0.102424
0.102237
0.101955
0.101426
0.100311
0.0979066
0.0929094
0.0832228
0.0659132
0.0377511
-0.0030126
-0.0548923
0.159194
0.141526
0.127658
0.118062
0.112139
0.108792
0.107019
0.106116
0.105648
0.105375
0.105182
0.105018
0.104862
0.104708
0.104552
0.104394
0.104234
0.104075
0.103917
0.103761
0.103608
0.103457
0.103306
0.103146
0.102952
0.102659
0.10211
0.100955
0.0984666
0.0932978
0.0832839
0.065387
0.0362707
-0.00586684
-0.0594667
0.161773
0.143516
0.129188
0.11927
0.113155
0.109701
0.107872
0.106941
0.106459
0.106178
0.10598
0.105812
0.105653
0.105495
0.105335
0.105173
0.105009
0.104846
0.104685
0.104526
0.104369
0.104215
0.10406
0.103897
0.103698
0.103397
0.102832
0.101641
0.099072
0.0937336
0.0833879
0.0648975
0.034804
-0.00870135
-0.0640709
0.164319
0.145493
0.130721
0.120494
0.114183
0.110618
0.10873
0.10777
0.107272
0.106983
0.106779
0.106606
0.106443
0.10628
0.106116
0.10595
0.105783
0.105616
0.10545
0.105287
0.105127
0.104969
0.104812
0.104644
0.104441
0.104132
0.103551
0.102324
0.0996766
0.0941718
0.0835037
0.0644362
0.0334193
-0.0115125
-0.0687258
0.16688
0.147481
0.132253
0.121716
0.115213
0.11154
0.109594
0.108606
0.108094
0.107797
0.107588
0.107411
0.107243
0.107077
0.106909
0.106739
0.106567
0.106396
0.106227
0.10606
0.105896
0.105734
0.105573
0.105402
0.105194
0.104878
0.104281
0.103019
0.100294
0.094621
0.0836219
0.0639606
0.0319707
-0.0143177
-0.0731988
0.169467
0.149484
0.133799
0.122942
0.116245
0.112463
0.110461
0.109443
0.108916
0.10861
0.108395
0.108213
0.108041
0.107871
0.107698
0.107524
0.107347
0.107171
0.106998
0.106826
0.106658
0.106492
0.106325
0.106149
0.105934
0.105608
0.104992
0.10369
0.100881
0.0950367
0.08371
0.0634672
0.0305229
-0.0171511
-0.0778393
0.172028
0.15147
0.135329
0.12416
0.117272
0.113383
0.111326
0.110281
0.109741
0.109428
0.109208
0.109023
0.108847
0.108672
0.108496
0.108317
0.108136
0.107956
0.107778
0.107602
0.107429
0.107258
0.107088
0.106907
0.106686
0.106351
0.105717
0.104379
0.101489
0.0954751
0.0838191
0.0629871
0.029091
-0.0199632
-0.0824061
0.174579
0.153467
0.136882
0.125397
0.118314
0.114315
0.112198
0.111123
0.110567
0.110245
0.110019
0.109828
0.109648
0.109469
0.109288
0.109105
0.10892
0.108735
0.108553
0.108373
0.108196
0.108021
0.107847
0.107661
0.107435
0.107089
0.106438
0.105062
0.102089
0.0959041
0.0839176
0.0624992
0.0276414
-0.0227918
-0.0869547
0.177184
0.155479
0.138432
0.12663
0.119351
0.115243
0.11307
0.111966
0.111396
0.111066
0.110835
0.11064
0.110456
0.110273
0.110088
0.109901
0.109712
0.109524
0.109338
0.109154
0.108973
0.108795
0.108617
0.108428
0.108197
0.107844
0.107176
0.105764
0.102713
0.0963633
0.0840525
0.0620477
0.026248
-0.0255698
-0.0915318
0.179757
0.157458
0.139946
0.127831
0.120363
0.11615
0.113923
0.112794
0.112211
0.111874
0.111638
0.11144
0.111252
0.111065
0.110877
0.110686
0.110492
0.110299
0.110108
0.10992
0.109734
0.109551
0.109368
0.109174
0.108936
0.108572
0.107886
0.106434
0.1033
0.0967791
0.0841382
0.0615479
0.0247801
-0.028416
-0.0960926
0.182326
0.15946
0.141504
0.129067
0.121403
0.11708
0.114795
0.113636
0.113038
0.112692
0.112451
0.112248
0.112056
0.111865
0.111672
0.111477
0.111279
0.111082
0.110887
0.110694
0.110505
0.110318
0.110131
0.109932
0.109689
0.109316
0.108613
0.107125
0.103911
0.097223
0.0842555
0.0610764
0.0233665
-0.0312416
-0.100737
0.184919
0.161463
0.143044
0.130298
0.122441
0.118008
0.115664
0.114475
0.11386
0.113505
0.113257
0.113049
0.112852
0.112656
0.112459
0.112258
0.112055
0.111854
0.111654
0.111457
0.111264
0.111073
0.110882
0.110678
0.110429
0.110048
0.109327
0.107802
0.104506
0.0976504
0.0843558
0.0605955
0.021919
-0.0340318
-0.105214
0.18748
0.163443
0.144569
0.131506
0.123457
0.118918
0.116519
0.115303
0.114675
0.114313
0.114061
0.113848
0.113648
0.113449
0.113248
0.113044
0.112837
0.112631
0.112429
0.112228
0.112031
0.111837
0.111642
0.111435
0.111182
0.110793
0.110057
0.108495
0.105121
0.0980985
0.0844726
0.0601137
0.0204977
-0.0368562
-0.109848
0.190025
0.165424
0.146095
0.132718
0.124473
0.119824
0.117367
0.116121
0.115479
0.115108
0.11485
0.114634
0.114429
0.114226
0.114021
0.113813
0.113602
0.113392
0.113185
0.112981
0.11278
0.112582
0.112384
0.112173
0.111913
0.111515
0.11076
0.109159
0.105701
0.0985086
0.0845533
0.0596034
0.0190223
-0.0396826
-0.114421
0.192583
0.1674
0.147614
0.133921
0.12548
0.120724
0.118212
0.116938
0.116282
0.115904
0.115642
0.115421
0.115213
0.115007
0.114799
0.114588
0.114374
0.114161
0.113952
0.113745
0.113542
0.113341
0.113141
0.112927
0.112664
0.112259
0.111488
0.109851
0.106312
0.0989535
0.0846729
0.0591436
0.0176017
-0.0424946
-0.119001
0.195112
0.169351
0.149113
0.135109
0.126476
0.121612
0.119043
0.117741
0.11707
0.116685
0.116417
0.116193
0.115981
0.115771
0.115559
0.115344
0.115126
0.11491
0.114697
0.114486
0.114278
0.114074
0.113869
0.113651
0.113383
0.112969
0.11218
0.110506
0.106886
0.0993592
0.0847513
0.0586337
0.0161534
-0.0453264
-0.123585
0.197646
0.171316
0.150621
0.136301
0.127474
0.122502
0.119876
0.118546
0.117861
0.117468
0.117195
0.116966
0.116751
0.116538
0.116322
0.116104
0.115882
0.115662
0.115445
0.115231
0.115021
0.114813
0.114605
0.114384
0.114111
0.11369
0.112888
0.11118
0.107483
0.099791
0.0848577
0.0581507
0.0146864
-0.0481805
-0.128212
0.200185
0.173264
0.152116
0.137483
0.128464
0.123383
0.1207
0.11934
0.11864
0.118239
0.117961
0.117728
0.117508
0.117291
0.117072
0.116849
0.116623
0.116399
0.116178
0.115959
0.115744
0.115533
0.11532
0.115093
0.114814
0.114382
0.11356
0.111811
0.10803
0.100168
0.0849093
0.0576237
0.0132442
-0.0510105
-0.132808
0.202713
0.175197
0.15359
0.138648
0.129444
0.124256
0.121518
0.120132
0.119419
0.119011
0.118729
0.118493
0.11827
0.11805
0.117827
0.117601
0.117372
0.117144
0.11692
0.116698
0.11648
0.116265
0.116049
0.115818
0.115533
0.115093
0.114255
0.11247
0.108608
0.10058
0.0849967
0.0571223
0.0117691
-0.0538559
-0.137281
0.205199
0.17715
0.155099
0.139839
0.130436
0.12514
0.122346
0.120931
0.120203
0.119788
0.1195
0.11926
0.119034
0.11881
0.118584
0.118355
0.118122
0.117891
0.117664
0.117439
0.117218
0.117001
0.116783
0.11655
0.116262
0.115816
0.114964
0.113145
0.109206
0.101016
0.0851123
0.0566556
0.0103435
-0.0567042
-0.142095
0.207745
0.179101
0.15659
0.141027
0.131432
0.126028
0.123178
0.121735
0.120995
0.120572
0.120281
0.120038
0.11981
0.119583
0.119355
0.119123
0.118888
0.118654
0.118424
0.118197
0.117974
0.117754
0.117533
0.117297
0.117005
0.116551
0.115681
0.113824
0.109803
0.101445
0.0852112
0.0561603
0.00890592
-0.0594719
-0.146529
0.210301
0.18108
0.158114
0.142219
0.132432
0.126921
0.124017
0.122547
0.121794
0.121365
0.121069
0.120823
0.120591
0.120362
0.12013
0.119895
0.119656
0.11942
0.119186
0.118956
0.118729
0.118506
0.118283
0.118043
0.117747
0.117286
0.116401
0.114509
0.11041
0.101888
0.0853288
0.0556953
0.00746412
-0.0623201
-0.151084
0.212877
0.183067
0.159652
0.143451
0.133465
0.127844
0.124882
0.123384
0.122617
0.122181
0.121881
0.121631
0.121397
0.121165
0.12093
0.12069
0.120449
0.120211
0.119975
0.119741
0.119511
0.119285
0.119057
0.118813
0.11851
0.118039
0.117135
0.115203
0.111019
0.102324
0.0854338
0.0552078
0.00605295
-0.0651017
-0.155682
0.215484
0.185088
0.161213
0.144689
0.134506
0.128776
0.125759
0.124234
0.123454
0.12301
0.122707
0.122455
0.122218
0.121983
0.121747
0.121507
0.121262
0.12102
0.120781
0.120545
0.120313
0.120084
0.119853
0.119606
0.119299
0.11882
0.1179
0.115931
0.111667
0.10281
0.0855987
0.054779
0.00464128
-0.0678556
-0.16012
0.218073
0.187118
0.162786
0.145961
0.135587
0.129749
0.126676
0.125122
0.124327
0.123876
0.123568
0.123312
0.123073
0.122836
0.122596
0.122352
0.122107
0.121864
0.121624
0.121386
0.121152
0.120922
0.12069
0.120441
0.120131
0.119646
0.11871
0.116706
0.112363
0.10334
0.085804
0.054403
0.00330629
-0.0706054
-0.164691
0.220704
0.189154
0.164371
0.147222
0.136664
0.130724
0.127594
0.126013
0.125206
0.124749
0.124437
0.124179
0.123937
0.123699
0.123456
0.123209
0.122962
0.122717
0.122475
0.122235
0.121999
0.121767
0.121534
0.121284
0.120972
0.120482
0.119534
0.117498
0.113081
0.103898
0.0860421
0.0540608
0.00200976
-0.0733179
-0.169266
0.223368
0.191227
0.165984
0.148517
0.137754
0.131705
0.128522
0.126915
0.126096
0.125634
0.125319
0.125059
0.124816
0.124575
0.12433
0.12408
0.123832
0.123585
0.12334
0.123097
0.122859
0.122623
0.122386
0.122132
0.121813
0.121312
0.120344
0.118268
0.113764
0.104405
0.0862118
0.0536336
0.000666952
-0.0759961
-0.173563
0.225965
0.193296
0.167611
0.149836
0.138887
0.132729
0.129488
0.12785
0.127015
0.126544
0.126223
0.125959
0.125712
0.125468
0.12522
0.124967
0.124715
0.124465
0.124216
0.123971
0.123729
0.123491
0.123251
0.122992
0.122669
0.122161
0.121178
0.119066
0.114484
0.104959
0.0864391
0.0532791
-0.000678492
-0.0787388
-0.178137
0.228716
0.195429
0.169271
0.151177
0.140034
0.13377
0.130474
0.128808
0.127959
0.12748
0.127154
0.126887
0.126637
0.12639
0.126139
0.125883
0.125627
0.125374
0.125122
0.124874
0.124628
0.124387
0.124143
0.123881
0.123553
0.123036
0.122035
0.119886
0.115223
0.105531
0.0866859
0.0529345
-0.00196522
-0.0814103
-0.182565
0.231381
0.197557
0.170958
0.152547
0.141208
0.134833
0.131478
0.129784
0.128921
0.128433
0.128102
0.12783
0.127575
0.127323
0.127068
0.126807
0.126548
0.126291
0.126035
0.125783
0.125534
0.125289
0.125043
0.124777
0.124444
0.123918
0.122899
0.120711
0.115965
0.106105
0.0869323
0.0525995
-0.00326179
-0.0840664
-0.187022
0.234097
0.199661
0.172606
0.153898
0.142373
0.135888
0.132476
0.130755
0.129878
0.129385
0.12905
0.128775
0.128518
0.128264
0.128006
0.127744
0.127483
0.127224
0.126967
0.126713
0.126463
0.126217
0.125968
0.125701
0.125366
0.124834
0.123801
0.121578
0.116754
0.106731
0.0872338
0.052311
-0.00450701
-0.0867402
-0.191496
0.236817
0.201791
0.17428
0.155239
0.143517
0.136925
0.13346
0.131714
0.130827
0.130329
0.129991
0.129714
0.129455
0.129199
0.128939
0.128674
0.12841
0.128149
0.127889
0.127633
0.127381
0.127132
0.126882
0.126612
0.126273
0.125735
0.124687
0.12243
0.117528
0.107338
0.0875189
0.0520174
-0.00574354
-0.0893904
-0.195904
0.239509
0.203926
0.175956
0.156611
0.144694
0.137994
0.13447
0.132693
0.13179
0.131284
0.130941
0.130659
0.130396
0.130137
0.129873
0.129603
0.129335
0.12907
0.128806
0.128545
0.128289
0.128035
0.12778
0.127505
0.127159
0.126611
0.125545
0.12325
0.118264
0.107906
0.0877574
0.0516616
-0.0070586
-0.0920345
-0.20023
0.242244
0.20606
0.177636
0.157963
0.145853
0.13905
0.135471
0.133666
0.132749
0.132234
0.131885
0.131599
0.131331
0.131068
0.130799
0.130526
0.130254
0.129984
0.129717
0.129452
0.129191
0.128934
0.128674
0.128394
0.128042
0.127483
0.126398
0.124063
0.118994
0.108465
0.0879853
0.0513136
-0.00837824
-0.0947147
-0.204637
0.244922
0.208168
0.179296
0.159316
0.147013
0.140097
0.136461
0.134627
0.133694
0.13317
0.132815
0.132524
0.132253
0.131984
0.131712
0.131433
0.131157
0.130883
0.13061
0.130341
0.130076
0.129814
0.12955
0.129265
0.128907
0.12834
0.127239
0.124867
0.119718
0.109022
0.0882126
0.0509375
-0.00967822
-0.0974094
-0.209085
0.247602
0.210261
0.180925
0.160644
0.148148
0.141122
0.13743
0.135568
0.134621
0.134091
0.133734
0.133441
0.133167
0.132896
0.132619
0.132337
0.132056
0.131778
0.131501
0.131226
0.130955
0.130687
0.130416
0.130124
0.129758
0.129179
0.128058
0.125647
0.120415
0.109552
0.0884225
0.050567
-0.0110441
-0.100131
-0.213514
0.250315
0.21238
0.182599
0.161977
0.149278
0.142146
0.138398
0.136508
0.135547
0.13501
0.13465
0.134354
0.134079
0.133806
0.133528
0.133242
0.132958
0.132677
0.132398
0.13212
0.131845
0.131573
0.131297
0.131
0.130625
0.130035
0.128892
0.126437
0.121113
0.110072
0.0886091
0.0501687
-0.0123307
-0.102805
-0.217885
0.252961
0.214445
0.184201
0.163281
0.150398
0.143164
0.13936
0.137444
0.13647
0.135926
0.135561
0.135261
0.134982
0.134707
0.134427
0.13414
0.133855
0.133572
0.133291
0.133013
0.132739
0.132466
0.132191
0.131893
0.131518
0.130926
0.129774
0.127293
0.121901
0.110699
0.088903
0.0498592
-0.0136403
-0.105485
-0.222392
0.255563
0.216515
0.18583
0.164601
0.151521
0.144176
0.140321
0.138378
0.137392
0.136842
0.136471
0.136169
0.135889
0.135612
0.13533
0.135042
0.134757
0.134474
0.134193
0.133915
0.133642
0.133372
0.133098
0.132801
0.132427
0.131831
0.130667
0.128153
0.122685
0.111322
0.0892081
0.0495872
-0.0148579
-0.108146
-0.227014
0.258205
0.218608
0.187472
0.165921
0.152648
0.145193
0.141279
0.139309
0.138309
0.137752
0.137377
0.137072
0.136789
0.136508
0.136222
0.135933
0.135645
0.13536
0.135076
0.134796
0.13452
0.134248
0.133972
0.133673
0.133294
0.13269
0.131509
0.128955
0.123404
0.111874
0.0894374
0.0492279
-0.0161881
-0.110848
-0.231342
0.260933
0.22071
0.18911
0.167232
0.153766
0.146203
0.142234
0.140235
0.139223
0.138659
0.138282
0.137974
0.137689
0.137404
0.137114
0.136824
0.136535
0.136248
0.135963
0.13568
0.135401
0.135125
0.134847
0.134546
0.134164
0.133555
0.13236
0.129774
0.124149
0.112457
0.0896955
0.048898
-0.0174649
-0.113547
-0.235909
0.263549
0.222763
0.19072
0.168547
0.154883
0.147212
0.143185
0.141158
0.140132
0.139561
0.139179
0.138868
0.13858
0.138294
0.138003
0.137711
0.137421
0.137133
0.136845
0.136559
0.136277
0.135996
0.135712
0.135405
0.135015
0.134391
0.133173
0.130545
0.124832
0.112969
0.0898699
0.048487
-0.0188306
-0.116196
-0.240173
0.266261
0.224845
0.192336
0.169845
0.156006
0.148233
0.144154
0.142101
0.141064
0.140488
0.140103
0.139789
0.139499
0.139211
0.138917
0.13862
0.138327
0.138037
0.137748
0.137461
0.137178
0.136897
0.136613
0.136304
0.135912
0.135283
0.134051
0.131386
0.125597
0.11357
0.0901454
0.04816
-0.0201177
-0.118886
-0.244469
0.268952
0.22699
0.194025
0.171208
0.157166
0.149284
0.145151
0.143072
0.142021
0.141439
0.141051
0.140735
0.140443
0.140152
0.139855
0.139554
0.139255
0.138958
0.138664
0.138374
0.138087
0.137804
0.137517
0.137206
0.13681
0.136176
0.13493
0.132233
0.126369
0.114181
0.0904375
0.0478759
-0.0213624
-0.121573
-0.249201
0.271686
0.229145
0.195732
0.172607
0.15836
0.150369
0.14618
0.144076
0.143014
0.142427
0.142037
0.141721
0.141428
0.141137
0.14084
0.140539
0.140237
0.139935
0.139636
0.139342
0.139052
0.138764
0.138474
0.138158
0.137756
0.137111
0.135845
0.133109
0.127165
0.11481
0.0907241
0.0475496
-0.0226405
-0.124135
-0.253377
0.274446
0.231321
0.197442
0.174013
0.159584
0.151487
0.147242
0.14511
0.144035
0.143442
0.143048
0.142729
0.142433
0.142142
0.141845
0.141541
0.141238
0.140939
0.14064
0.140344
0.140052
0.139762
0.139469
0.139151
0.138745
0.138093
0.13681
0.134036
0.128014
0.115501
0.0911119
0.0473768
-0.0237903
-0.126691
-0.257549
0.277306
0.233583
0.199242
0.175482
0.160864
0.152666
0.148367
0.146207
0.14512
0.14452
0.144124
0.143804
0.143508
0.143214
0.14291
0.142604
0.1423
0.141997
0.141697
0.141401
0.141108
0.140817
0.140523
0.140205
0.139798
0.139141
0.137845
0.13504
0.128946
0.116271
0.0915575
0.0472462
-0.0248288
-0.129195
-0.262113
0.280191
0.235869
0.201076
0.17701
0.162198
0.153889
0.149534
0.147349
0.146251
0.145647
0.145248
0.144928
0.144633
0.144337
0.144034
0.14373
0.143428
0.143125
0.142825
0.142528
0.142235
0.141943
0.141647
0.141326
0.140914
0.140248
0.138934
0.13609
0.129912
0.117068
0.0920241
0.0471102
-0.025925
-0.131571
-0.266094
0.283109
0.238235
0.203012
0.178629
0.163622
0.155208
0.150797
0.148583
0.14747
0.146859
0.146455
0.14613
0.145833
0.145535
0.145231
0.144927
0.144625
0.144322
0.144023
0.143727
0.143434
0.143143
0.142847
0.142524
0.14211
0.14144
0.140114
0.137238
0.130986
0.117985
0.0926174
0.047123
-0.0268817
-0.133966
-0.270185
0.286122
0.240666
0.204991
0.18029
0.165084
0.156561
0.152096
0.149854
0.148726
0.148107
0.1477
0.147372
0.147072
0.146773
0.146468
0.146163
0.14586
0.145556
0.145255
0.144959
0.144665
0.144373
0.144076
0.143751
0.143333
0.142655
0.141312
0.138397
0.132066
0.118896
0.0932012
0.0471244
-0.0278258
-0.136268
-0.274348
0.289158
0.24311
0.206968
0.181977
0.166589
0.157955
0.153433
0.151164
0.150025
0.149401
0.148992
0.148664
0.148361
0.148059
0.147753
0.147447
0.147142
0.146837
0.146535
0.146236
0.145942
0.145649
0.145352
0.145026
0.144606
0.143923
0.142565
0.139617
0.13321
0.119874
0.0938479
0.0471748
-0.0287424
-0.138554
-0.278368
0.292258
0.2456
0.20899
0.183672
0.168092
0.159361
0.154793
0.152504
0.151358
0.150734
0.150326
0.15
0.149698
0.149397
0.149093
0.148787
0.14848
0.148174
0.147871
0.147573
0.147277
0.146984
0.146686
0.146359
0.145937
0.145248
0.143877
0.140894
0.134408
0.120906
0.0945417
0.0472585
-0.0296274
-0.140819
-0.282373
0.295369
0.248164
0.21112
0.185483
0.16971
0.160869
0.156245
0.15393
0.152772
0.152142
0.151731
0.151402
0.151097
0.150793
0.150492
0.15019
0.149885
0.149579
0.149275
0.148976
0.148681
0.148388
0.14809
0.147764
0.147341
0.146649
0.145267
0.14225
0.135688
0.122013
0.0952897
0.0473975
-0.0304725
-0.143035
-0.286333
0.298566
0.250816
0.213337
0.187382
0.171408
0.162457
0.157774
0.155428
0.154254
0.153614
0.153197
0.152864
0.152558
0.152253
0.151943
0.151634
0.151326
0.151017
0.150711
0.150408
0.150109
0.149813
0.149511
0.149179
0.148748
0.148044
0.14664
0.143583
0.136938
0.123099
0.0960768
0.0476408
-0.0310927
-0.145122
-0.290351
0.301845
0.253493
0.215546
0.189277
0.173113
0.164056
0.159319
0.156946
0.155758
0.155113
0.154693
0.154358
0.154047
0.153738
0.15343
0.153124
0.152816
0.152506
0.152199
0.151895
0.151593
0.151292
0.150988
0.150655
0.150222
0.149511
0.148092
0.145003
0.138284
0.124278
0.0969073
0.0478572
-0.0318636
-0.147189
-0.294043
0.305133
0.256175
0.21776
0.191179
0.174825
0.165667
0.160881
0.158486
0.15729
0.156641
0.15622
0.155886
0.155577
0.155268
0.154953
0.154636
0.154324
0.154014
0.153704
0.153398
0.153096
0.152798
0.152494
0.152159
0.151724
0.151008
0.149575
0.146453
0.13966
0.125489
0.0977893
0.0481558
-0.0325558
-0.149318
-0.297863
0.30842
0.258908
0.220052
0.193153
0.176607
0.167343
0.162502
0.160079
0.15887
0.158216
0.157792
0.157455
0.157144
0.156834
0.156521
0.156204
0.155884
0.15556
0.155241
0.154929
0.154618
0.154314
0.154007
0.153667
0.153226
0.1525
0.151049
0.147887
0.141011
0.126672
0.0986393
0.0484108
-0.0332148
-0.151375
-0.301692
0.31177
0.261681
0.22237
0.195154
0.178413
0.169041
0.164145
0.161694
0.16047
0.159809
0.15938
0.15904
0.158725
0.158413
0.158102
0.157788
0.157466
0.157141
0.15682
0.156506
0.156191
0.155883
0.155571
0.155228
0.15478
0.154045
0.152575
0.149375
0.14242
0.127915
0.0995582
0.0487459
-0.0338226
-0.153363
-0.305448
0.315129
0.264459
0.224692
0.197162
0.180227
0.170749
0.165798
0.163319
0.162082
0.161413
0.160981
0.160637
0.160319
0.160004
0.159687
0.159369
0.159052
0.158734
0.158407
0.158081
0.157763
0.157453
0.157139
0.156791
0.156339
0.155595
0.154107
0.150871
0.143835
0.129167
0.100469
0.0490632
-0.0344476
-0.155329
-0.309173
0.31849
0.267241
0.227021
0.199176
0.182049
0.172465
0.16746
0.164955
0.163705
0.163031
0.162596
0.162251
0.161934
0.161616
0.161291
0.160965
0.160646
0.160327
0.160001
0.159671
0.159349
0.159036
0.158718
0.158365
0.157905
0.157149
0.15564
0.15236
0.145239
0.130398
0.101381
0.0493966
-0.0350378
-0.157242
-0.312804
0.32186
0.270032
0.229357
0.201196
0.183876
0.174186
0.169127
0.166595
0.165334
0.164654
0.164216
0.163869
0.163549
0.163232
0.162913
0.162591
0.162272
0.161951
0.16162
0.161292
0.160971
0.16065
0.160327
0.159975
0.159515
0.158757
0.157239
0.153932
0.146741
0.131738
0.102402
0.0498433
-0.0355837
-0.159256
-0.316719
0.325214
0.27281
0.231682
0.203205