/*--------------------------------*- C++ -*----------------------------------*\
  =========                 |
  \\      /  F ield         | OpenFOAM: The Open Source CFD Toolbox
   \\    /   O peration     | Website:  https://openfoam.org
    \\  /    A nd           | Version:  13
     \\/     M anipulation  |
\*---------------------------------------------------------------------------*/
FoamFile
{
    format      ascii;
    class       volScalarField;
    location    "172.5";
    object      nut;
}
// * * * * * * * * * * * * * * * * * * * * * * * * * * * * * * * * * * * * * //

dimensions      [0 2 -1 0 0 0 0];

internalField   nonuniform List<scalar> 
315000
(
3.22727e-16
8.45459e-14
1.92996e-12
3.46597e-12
5.02984e-12
6.62597e-12
8.25955e-12
9.9352e-12
1.16563e-11
1.34248e-11
1.52409e-11
1.71028e-11
1.90073e-11
2.09494e-11
2.29222e-11
2.49175e-11
2.69259e-11
2.89365e-11
3.09375e-11
3.29163e-11
3.48597e-11
3.6754e-11
3.85856e-11
4.03405e-11
4.20051e-11
4.35664e-11
4.50118e-11
4.63293e-11
4.7508e-11
4.85382e-11
4.9411e-11
5.0119e-11
5.06563e-11
5.1018e-11
5.12013e-11
5.12043e-11
5.10272e-11
5.06715e-11
5.01402e-11
4.94379e-11
4.85705e-11
4.75455e-11
4.63716e-11
4.50586e-11
4.36173e-11
4.20596e-11
4.0398e-11
3.86457e-11
3.68163e-11
3.49234e-11
3.29811e-11
3.10028e-11
2.90017e-11
2.69906e-11
2.49812e-11
2.29843e-11
2.10095e-11
1.90652e-11
1.71579e-11
1.52928e-11
1.34734e-11
1.17012e-11
9.976e-12
8.29598e-12
6.65765e-12
5.05626e-12
3.48639e-12
1.9431e-12
8.52309e-14
3.25585e-16
8.08347e-15
2.15336e-12
4.90672e-10
8.88182e-10
1.29132e-09
1.70219e-09
2.12257e-09
2.5539e-09
2.99717e-09
3.45292e-09
3.92125e-09
4.40175e-09
4.89356e-09
5.39538e-09
5.90545e-09
6.42164e-09
6.94145e-09
7.46206e-09
7.98039e-09
8.49315e-09
8.99688e-09
9.48804e-09
9.963e-09
1.04182e-08
1.085e-08
1.12551e-08
1.16301e-08
1.1972e-08
1.22779e-08
1.25453e-08
1.27718e-08
1.29555e-08
1.30949e-08
1.31887e-08
1.32361e-08
1.32368e-08
1.31907e-08
1.30982e-08
1.29601e-08
1.27777e-08
1.25524e-08
1.22862e-08
1.19814e-08
1.16404e-08
1.12663e-08
1.0862e-08
1.04308e-08
9.9762e-09
9.50168e-09
9.01085e-09
8.50732e-09
7.99464e-09
7.47627e-09
6.95551e-09
6.43544e-09
5.91887e-09
5.40833e-09
4.90594e-09
4.41347e-09
3.93223e-09
3.46309e-09
3.00644e-09
2.56221e-09
2.12984e-09
1.70833e-09
1.29624e-09
8.91775e-10
4.92788e-10
2.16326e-12
8.12167e-15
3.26463e-14
8.70936e-12
5.06023e-09
9.17042e-09
1.33458e-08
1.76123e-08
2.19925e-08
2.65047e-08
3.11623e-08
3.59735e-08
4.0941e-08
4.60617e-08
5.13267e-08
5.67218e-08
6.22273e-08
6.78189e-08
7.3468e-08
7.91421e-08
8.48057e-08
9.04207e-08
9.59476e-08
1.01345e-07
1.06573e-07
1.11588e-07
1.16351e-07
1.20823e-07
1.24966e-07
1.28745e-07
1.32128e-07
1.35086e-07
1.37592e-07
1.39625e-07
1.41167e-07
1.42205e-07
1.4273e-07
1.42736e-07
1.42223e-07
1.41197e-07
1.39667e-07
1.37645e-07
1.35149e-07
1.32202e-07
1.28828e-07
1.25058e-07
1.20922e-07
1.16457e-07
1.117e-07
1.06689e-07
1.01465e-07
9.607e-08
9.05446e-08
8.49299e-08
7.92656e-08
7.35897e-08
6.79379e-08
6.23425e-08
5.68323e-08
5.14317e-08
4.61605e-08
4.10328e-08
3.60577e-08
3.12383e-08
2.6572e-08
2.20507e-08
1.76608e-08
1.3384e-08
9.19777e-09
5.07598e-09
8.73763e-12
3.27543e-14
6.22853e-14
1.66177e-11
9.65657e-09
1.7512e-08
2.55152e-08
3.37264e-08
4.21989e-08
5.09772e-08
6.00952e-08
6.95756e-08
7.94287e-08
8.96521e-08
1.0023e-07
1.11135e-07
1.22326e-07
1.33752e-07
1.45351e-07
1.57051e-07
1.68775e-07
1.80438e-07
1.91953e-07
2.0323e-07
2.14177e-07
2.24702e-07
2.34717e-07
2.44133e-07
2.52869e-07
2.60847e-07
2.67995e-07
2.74249e-07
2.79551e-07
2.83855e-07
2.8712e-07
2.89317e-07
2.90425e-07
2.90435e-07
2.89347e-07
2.8717e-07
2.83925e-07
2.7964e-07
2.74355e-07
2.68118e-07
2.60986e-07
2.53023e-07
2.44299e-07
2.34894e-07
2.24889e-07
2.14371e-07
2.0343e-07
1.92157e-07
1.80644e-07
1.6898e-07
1.57255e-07
1.45551e-07
1.33948e-07
1.22515e-07
1.11315e-07
1.00401e-07
8.98117e-08
7.95763e-08
6.97102e-08
6.0216e-08
5.10835e-08
4.22901e-08
3.38018e-08
2.55742e-08
1.7554e-08
9.68055e-09
1.66606e-11
6.24493e-14
9.73366e-14
2.59711e-11
1.50927e-08
2.73824e-08
3.99287e-08
5.28386e-08
6.62071e-08
8.01141e-08
9.46223e-08
1.09775e-07
1.25594e-07
1.42081e-07
1.59212e-07
1.76945e-07
1.95212e-07
2.13929e-07
2.32992e-07
2.52281e-07
2.71665e-07
2.91002e-07
3.10145e-07
3.28941e-07
3.47234e-07
3.64865e-07
3.81678e-07
3.9752e-07
4.12243e-07
4.25708e-07
4.37789e-07
4.48368e-07
4.57346e-07
4.64637e-07
4.7017e-07
4.73894e-07
4.75771e-07
4.75785e-07
4.73935e-07
4.70239e-07
4.64732e-07
4.57467e-07
4.48514e-07
4.37957e-07
4.25898e-07
4.12451e-07
3.97746e-07
3.81919e-07
3.65118e-07
3.47497e-07
3.29212e-07
3.10421e-07
2.9128e-07
2.71943e-07
2.52556e-07
2.33262e-07
2.14192e-07
1.95465e-07
1.77186e-07
1.5944e-07
1.42294e-07
1.25791e-07
1.09954e-07
9.47823e-08
8.02544e-08
6.6327e-08
5.29375e-08
4.00058e-08
2.7437e-08
1.51238e-08
2.60269e-11
9.75498e-14
1.36191e-13
3.63402e-11
2.11175e-08
3.83201e-08
5.59014e-08
7.40216e-08
9.28234e-08
1.12427e-07
1.32927e-07
1.54391e-07
1.76852e-07
2.00313e-07
2.24746e-07
2.50085e-07
2.76236e-07
3.03075e-07
3.30449e-07
3.58186e-07
3.86096e-07
4.13975e-07
4.41613e-07
4.68787e-07
4.9527e-07
5.20828e-07
5.45226e-07
5.68236e-07
5.89637e-07
6.09221e-07
6.26799e-07
6.42199e-07
6.55271e-07
6.65888e-07
6.73947e-07
6.79368e-07
6.82101e-07
6.82118e-07
6.79419e-07
6.7403e-07
6.66003e-07
6.55417e-07
6.42374e-07
6.27002e-07
6.09449e-07
5.89888e-07
5.68508e-07
5.45516e-07
5.21133e-07
4.95587e-07
4.69113e-07
4.41944e-07
4.1431e-07
3.8643e-07
3.58517e-07
3.30774e-07
3.03391e-07
2.76541e-07
2.50375e-07
2.2502e-07
2.00569e-07
1.77088e-07
1.54605e-07
1.33119e-07
1.12595e-07
9.29665e-08
7.41394e-08
5.5993e-08
3.83849e-08
2.11544e-08
3.64064e-11
1.36445e-13
1.7646e-13
4.7087e-11
2.73595e-08
4.96474e-08
7.24366e-08
9.59427e-08
1.20357e-07
1.4584e-07
1.72518e-07
2.00481e-07
2.29773e-07
2.60397e-07
2.92312e-07
3.25432e-07
3.59628e-07
3.94731e-07
4.3054e-07
4.66824e-07
5.03334e-07
5.39805e-07
5.75961e-07
6.11512e-07
6.4616e-07
6.79597e-07
7.11517e-07
7.41616e-07
7.69608e-07
7.9522e-07
8.18205e-07
8.38339e-07
8.55426e-07
8.69302e-07
8.79833e-07
8.86916e-07
8.90484e-07
8.90503e-07
8.86972e-07
8.79925e-07
8.69431e-07
8.55589e-07
8.38534e-07
8.18431e-07
7.95475e-07
7.69888e-07
7.4192e-07
7.1184e-07
6.79938e-07
6.46514e-07
6.11876e-07
5.76331e-07
5.40179e-07
5.03708e-07
4.67194e-07
4.30904e-07
3.95085e-07
3.59969e-07
3.25758e-07
2.9262e-07
2.60684e-07
2.30037e-07
2.00721e-07
1.72733e-07
1.46028e-07
1.20517e-07
9.60742e-08
7.25388e-08
4.97195e-08
2.74005e-08
4.71609e-11
1.76743e-13
2.15777e-13
5.75806e-11
3.3452e-08
6.06981e-08
8.85605e-08
1.17308e-07
1.47177e-07
1.78368e-07
2.11037e-07
2.45289e-07
2.81181e-07
3.18711e-07
3.57824e-07
3.98408e-07
4.40299e-07
4.83284e-07
5.27108e-07
5.71487e-07
6.16112e-07
6.60659e-07
7.04794e-07
7.48163e-07
7.90405e-07
8.31147e-07
8.70017e-07
9.06651e-07
9.40703e-07
9.71845e-07
9.99781e-07
1.02424e-06
1.04499e-06
1.06184e-06
1.07462e-06
1.08322e-06
1.08755e-06
1.08757e-06
1.08328e-06
1.07472e-06
1.06198e-06
1.04517e-06
1.02445e-06
1.00002e-06
9.72115e-07
9.41e-07
9.06973e-07
8.7036e-07
8.31508e-07
7.9078e-07
7.4855e-07
7.05187e-07
6.61057e-07
6.16509e-07
5.71881e-07
5.27496e-07
4.83662e-07
4.40664e-07
3.98756e-07
3.58153e-07
3.19018e-07
2.81464e-07
2.45547e-07
2.11266e-07
1.78569e-07
1.47348e-07
1.17448e-07
8.86693e-08
6.07748e-08
3.34956e-08
5.76594e-11
2.16079e-13
2.52196e-13
6.73012e-11
3.90936e-08
7.09263e-08
1.03478e-07
1.37065e-07
1.71967e-07
2.08418e-07
2.46598e-07
2.86632e-07
3.28578e-07
3.72431e-07
4.18121e-07
4.6551e-07
5.14398e-07
5.64529e-07
6.15599e-07
6.6727e-07
7.19184e-07
7.70963e-07
8.22216e-07
8.7254e-07
9.21516e-07
9.68717e-07
1.01372e-06
1.0561e-06
1.09547e-06
1.13146e-06
1.16373e-06
1.19197e-06
1.21592e-06
1.23536e-06
1.25011e-06
1.26002e-06
1.26501e-06
1.26503e-06
1.26008e-06
1.25021e-06
1.2355e-06
1.2161e-06
1.19218e-06
1.16398e-06
1.13174e-06
1.09578e-06
1.05643e-06
1.01407e-06
9.69087e-07
9.21901e-07
8.72937e-07
8.22621e-07
7.71372e-07
7.19594e-07
6.67677e-07
6.15998e-07
5.64919e-07
5.14775e-07
4.6587e-07
4.18462e-07
3.72749e-07
3.2887e-07
2.86898e-07
2.46836e-07
2.08625e-07
1.72143e-07
1.37209e-07
1.0359e-07
7.10051e-08
3.91384e-08
6.73822e-11
2.52507e-13
2.84343e-13
7.58825e-11
4.40726e-08
7.99498e-08
1.16633e-07
1.54482e-07
1.93813e-07
2.34888e-07
2.7791e-07
3.23015e-07
3.70267e-07
4.19654e-07
4.71089e-07
5.24412e-07
5.79388e-07
6.35722e-07
6.93066e-07
7.51039e-07
8.09234e-07
8.67227e-07
9.24585e-07
9.80855e-07
1.03558e-06
1.08828e-06
1.13848e-06
1.18574e-06
1.22962e-06
1.26971e-06
1.30563e-06
1.33706e-06
1.36371e-06
1.38533e-06
1.40172e-06
1.41274e-06
1.41829e-06
1.41831e-06
1.4128e-06
1.40182e-06
1.38547e-06
1.36389e-06
1.33728e-06
1.30588e-06
1.26998e-06
1.22993e-06
1.18608e-06
1.13884e-06
1.08865e-06
1.03596e-06
9.81254e-07
9.24991e-07
8.67639e-07
8.09646e-07
7.51448e-07
6.93469e-07
6.36115e-07
5.79768e-07
5.24775e-07
4.71433e-07
4.19974e-07
3.70562e-07
3.23284e-07
2.78149e-07
2.35097e-07
1.9399e-07
1.54627e-07
1.16746e-07
8.00287e-08
4.41174e-08
7.59639e-11
2.84656e-13
3.11465e-13
8.31231e-11
4.82727e-08
8.75595e-08
1.27725e-07
1.69164e-07
2.12222e-07
2.57188e-07
3.04282e-07
3.53649e-07
4.05356e-07
4.59384e-07
5.15634e-07
5.73921e-07
6.33983e-07
6.95491e-07
7.5806e-07
8.21269e-07
8.84673e-07
9.47812e-07
1.01021e-06
1.07139e-06
1.13084e-06
1.18806e-06
1.24254e-06
1.2938e-06
1.34136e-06
1.3848e-06
1.42372e-06
1.45775e-06
1.4866e-06
1.50999e-06
1.52773e-06
1.53966e-06
1.54565e-06
1.54567e-06
1.53972e-06
1.52783e-06
1.51013e-06
1.48677e-06
1.45796e-06
1.42396e-06
1.38508e-06
1.34167e-06
1.29413e-06
1.24289e-06
1.18843e-06
1.13122e-06
1.07178e-06
1.01062e-06
9.48219e-07
8.85081e-07
8.21674e-07
7.58459e-07
6.95881e-07
6.3436e-07
5.74282e-07
5.15975e-07
4.59703e-07
4.0565e-07
3.53916e-07
3.0452e-07
2.57396e-07
2.12398e-07
1.69307e-07
1.27836e-07
8.76374e-08
4.83169e-08
8.32036e-11
3.11775e-13
3.33378e-13
8.89742e-11
5.16664e-08
9.37069e-08
1.36683e-07
1.8102e-07
2.27088e-07
2.75194e-07
3.25573e-07
3.78377e-07
4.33674e-07
4.91442e-07
5.51568e-07
6.13848e-07
6.77997e-07
7.43657e-07
8.10413e-07
8.77815e-07
9.45384e-07
1.01263e-06
1.07905e-06
1.14414e-06
1.20735e-06
1.26816e-06
1.32604e-06
1.38046e-06
1.43095e-06
1.47704e-06
1.51832e-06
1.55442e-06
1.585e-06
1.60981e-06
1.62861e-06
1.64124e-06
1.6476e-06
1.64762e-06
1.6413e-06
1.62871e-06
1.60994e-06
1.58517e-06
1.55462e-06
1.51856e-06
1.47731e-06
1.43125e-06
1.38079e-06
1.32638e-06
1.26852e-06
1.20773e-06
1.14452e-06
1.07945e-06
1.01303e-06
9.45786e-07
8.78214e-07
8.10807e-07
7.44041e-07
6.78368e-07
6.14203e-07
5.51904e-07
4.91756e-07
4.33964e-07
3.78639e-07
3.25806e-07
2.75397e-07
2.2726e-07
1.81161e-07
1.36792e-07
9.3783e-08
5.17096e-08
8.9053e-11
3.33682e-13
3.50363e-13
9.35101e-11
5.42971e-08
9.84716e-08
1.43627e-07
1.90209e-07
2.38608e-07
2.89148e-07
3.42073e-07
3.97542e-07
4.55622e-07
5.16288e-07
5.79415e-07
6.44786e-07
7.12098e-07
7.80969e-07
8.50961e-07
9.21599e-07
9.92382e-07
1.0628e-06
1.13232e-06
1.2004e-06
1.26651e-06
1.33008e-06
1.39056e-06
1.44742e-06
1.50015e-06
1.54828e-06
1.59137e-06
1.62904e-06
1.66096e-06
1.68684e-06
1.70646e-06
1.71964e-06
1.72627e-06
1.72628e-06
1.71969e-06
1.70655e-06
1.68697e-06
1.66113e-06
1.62924e-06
1.5916e-06
1.54854e-06
1.50044e-06
1.44774e-06
1.3909e-06
1.33043e-06
1.26688e-06
1.20079e-06
1.1327e-06
1.06319e-06
9.92776e-07
9.21991e-07
8.51347e-07
7.81346e-07
7.12462e-07
6.45135e-07
5.79745e-07
5.16596e-07
4.55906e-07
3.97799e-07
3.42302e-07
2.89348e-07
2.38777e-07
1.90346e-07
1.43732e-07
9.85458e-08
5.43392e-08
9.35871e-11
3.5066e-13
3.63011e-13
9.68886e-11
5.62565e-08
1.0202e-07
1.48798e-07
1.97053e-07
2.4719e-07
2.99545e-07
3.54368e-07
4.11824e-07
4.7198e-07
5.34808e-07
6.00174e-07
6.67853e-07
7.37523e-07
8.08788e-07
8.81192e-07
9.54241e-07
1.02742e-06
1.10019e-06
1.17201e-06
1.24234e-06
1.31059e-06
1.37621e-06
1.43863e-06
1.4973e-06
1.55169e-06
1.60133e-06
1.64576e-06
1.68461e-06
1.71751e-06
1.74419e-06
1.76441e-06
1.778e-06
1.78483e-06
1.78485e-06
1.77805e-06
1.7645e-06
1.74432e-06
1.71768e-06
1.6848e-06
1.64599e-06
1.60159e-06
1.55198e-06
1.49761e-06
1.43896e-06
1.37656e-06
1.31096e-06
1.24271e-06
1.17239e-06
1.10057e-06
1.0278e-06
9.54625e-07
8.81571e-07
8.09158e-07
7.37881e-07
6.68195e-07
6.00498e-07
5.3511e-07
4.72259e-07
4.12076e-07
3.54592e-07
2.9974e-07
2.47356e-07
1.97187e-07
1.48901e-07
1.02093e-07
5.62975e-08
9.69637e-11
3.63302e-13
3.72073e-13
9.93097e-11
5.76608e-08
1.04564e-07
1.52504e-07
2.01959e-07
2.53344e-07
3.07e-07
3.63187e-07
4.22071e-07
4.83721e-07
5.48103e-07
6.15081e-07
6.84419e-07
7.55786e-07
8.28774e-07
9.02914e-07
9.77698e-07
1.0526e-06
1.12706e-06
1.20055e-06
1.27248e-06
1.34228e-06
1.40937e-06
1.47318e-06
1.53315e-06
1.58873e-06
1.63946e-06
1.68486e-06
1.72454e-06
1.75816e-06
1.78541e-06
1.80606e-06
1.81994e-06
1.82692e-06
1.82693e-06
1.81999e-06
1.80616e-06
1.78554e-06
1.75832e-06
1.72474e-06
1.68508e-06
1.63971e-06
1.58901e-06
1.53345e-06
1.4735e-06
1.40971e-06
1.34264e-06
1.27284e-06
1.20092e-06
1.12744e-06
1.05298e-06
9.78076e-07
9.03287e-07
8.29138e-07
7.56138e-07
6.84756e-07
6.154e-07
5.48401e-07
4.83995e-07
4.2232e-07
3.63408e-07
3.07192e-07
2.53506e-07
2.02091e-07
1.52606e-07
1.04635e-07
5.7701e-08
9.93834e-11
3.72358e-13
3.78329e-13
1.00981e-10
5.86306e-08
1.0632e-07
1.55065e-07
2.05349e-07
2.57596e-07
3.12154e-07
3.69286e-07
4.2916e-07
4.91845e-07
5.57306e-07
6.25403e-07
6.95894e-07
7.68441e-07
8.42626e-07
9.17973e-07
9.93963e-07
1.07006e-06
1.1457e-06
1.22034e-06
1.29339e-06
1.36427e-06
1.43239e-06
1.49716e-06
1.55803e-06
1.61445e-06
1.66593e-06
1.712e-06
1.75227e-06
1.78638e-06
1.81403e-06
1.83498e-06
1.84906e-06
1.85614e-06
1.85616e-06
1.84912e-06
1.83508e-06
1.81416e-06
1.78654e-06
1.75246e-06
1.71222e-06
1.66618e-06
1.61473e-06
1.55833e-06
1.49748e-06
1.43272e-06
1.36462e-06
1.29375e-06
1.22071e-06
1.14608e-06
1.07043e-06
9.94337e-07
9.18341e-07
8.42986e-07
7.68789e-07
6.96227e-07
6.25719e-07
5.57601e-07
4.92116e-07
4.29405e-07
3.69504e-07
3.12344e-07
2.57756e-07
2.05479e-07
1.55165e-07
1.0639e-07
5.86701e-08
1.01054e-10
3.7861e-13
3.82495e-13
1.02095e-10
5.92768e-08
1.07491e-07
1.56771e-07
2.07609e-07
2.60432e-07
3.15593e-07
3.73356e-07
4.33893e-07
4.97272e-07
5.63457e-07
6.32305e-07
7.0357e-07
7.76909e-07
8.51899e-07
9.28056e-07
1.00486e-06
1.08176e-06
1.1582e-06
1.23361e-06
1.30741e-06
1.37901e-06
1.44782e-06
1.51325e-06
1.57472e-06
1.63171e-06
1.68369e-06
1.73022e-06
1.77088e-06
1.80532e-06
1.83324e-06
1.8544e-06
1.86862e-06
1.87576e-06
1.87578e-06
1.86867e-06
1.85449e-06
1.83337e-06
1.80548e-06
1.77107e-06
1.73044e-06
1.68394e-06
1.63198e-06
1.57502e-06
1.51357e-06
1.44816e-06
1.37936e-06
1.30777e-06
1.23398e-06
1.15857e-06
1.08213e-06
1.00523e-06
9.28422e-07
8.52256e-07
7.77254e-07
7.039e-07
6.32618e-07
5.63749e-07
4.97541e-07
4.34137e-07
3.73573e-07
3.15781e-07
2.60591e-07
2.07738e-07
1.5687e-07
1.0756e-07
5.93159e-08
1.02167e-10
3.82774e-13
3.85176e-13
1.02812e-10
5.96928e-08
1.08244e-07
1.5787e-07
2.09065e-07
2.6226e-07
3.1781e-07
3.75982e-07
4.36948e-07
5.00776e-07
5.6743e-07
6.36765e-07
7.08533e-07
7.82387e-07
8.579e-07
9.34585e-07
1.01192e-06
1.08934e-06
1.1663e-06
1.24221e-06
1.31651e-06
1.38858e-06
1.45784e-06
1.52369e-06
1.58556e-06
1.64291e-06
1.69523e-06
1.74205e-06
1.78297e-06
1.81763e-06
1.84573e-06
1.86702e-06
1.88132e-06
1.88851e-06
1.88853e-06
1.88137e-06
1.86711e-06
1.84585e-06
1.81779e-06
1.78316e-06
1.74227e-06
1.69547e-06
1.64318e-06
1.58586e-06
1.52401e-06
1.45817e-06
1.38893e-06
1.31686e-06
1.24258e-06
1.16667e-06
1.08971e-06
1.01228e-06
9.34949e-07
8.58255e-07
7.8273e-07
7.08861e-07
6.37076e-07
5.6772e-07
5.01043e-07
4.3719e-07
3.76197e-07
3.17996e-07
2.62417e-07
2.09193e-07
1.57968e-07
1.08313e-07
5.97316e-08
1.02883e-10
3.85453e-13
3.86845e-13
1.03258e-10
5.99518e-08
1.08714e-07
1.58555e-07
2.09972e-07
2.63399e-07
3.19192e-07
3.7762e-07
4.38855e-07
5.02965e-07
5.69913e-07
6.39555e-07
7.11639e-07
7.85817e-07
8.6166e-07
9.38677e-07
1.01634e-06
1.0941e-06
1.17138e-06
1.24761e-06
1.32222e-06
1.39459e-06
1.46413e-06
1.53025e-06
1.59238e-06
1.64996e-06
1.70248e-06
1.74949e-06
1.79058e-06
1.82537e-06
1.85358e-06
1.87496e-06
1.88931e-06
1.89653e-06
1.89655e-06
1.88937e-06
1.87504e-06
1.8537e-06
1.82553e-06
1.79076e-06
1.74971e-06
1.70273e-06
1.65023e-06
1.59267e-06
1.53057e-06
1.46446e-06
1.39493e-06
1.32257e-06
1.24798e-06
1.17175e-06
1.09446e-06
1.01671e-06
9.3904e-07
8.62013e-07
7.86159e-07
7.11966e-07
6.39865e-07
5.70203e-07
5.03231e-07
4.39096e-07
3.77834e-07
3.19378e-07
2.63556e-07
2.10099e-07
1.58653e-07
1.08782e-07
5.99904e-08
1.03329e-10
3.8712e-13
3.8785e-13
1.03527e-10
6.01079e-08
1.08997e-07
1.58968e-07
2.10519e-07
2.64087e-07
3.20027e-07
3.7861e-07
4.40008e-07
5.04289e-07
5.71417e-07
6.41245e-07
7.13521e-07
7.87897e-07
8.63941e-07
9.41162e-07
1.01903e-06
1.09699e-06
1.17447e-06
1.2509e-06
1.32569e-06
1.39825e-06
1.46797e-06
1.53425e-06
1.59653e-06
1.65425e-06
1.7069e-06
1.75403e-06
1.79521e-06
1.83009e-06
1.85837e-06
1.8798e-06
1.89419e-06
1.90143e-06
1.90144e-06
1.89424e-06
1.87989e-06
1.85849e-06
1.83025e-06
1.7954e-06
1.75425e-06
1.70715e-06
1.65452e-06
1.59682e-06
1.53456e-06
1.4683e-06
1.39859e-06
1.32605e-06
1.25126e-06
1.17484e-06
1.09735e-06
1.01939e-06
9.41523e-07
8.64294e-07
7.88238e-07
7.13848e-07
6.41554e-07
5.71706e-07
5.04555e-07
4.40248e-07
3.78824e-07
3.20213e-07
2.64243e-07
2.10647e-07
1.59065e-07
1.09065e-07
6.01465e-08
1.03598e-10
3.88125e-13
3.88437e-13
1.03684e-10
6.01992e-08
1.09162e-07
1.59209e-07
2.1084e-07
2.64489e-07
3.20516e-07
3.7919e-07
4.40684e-07
5.05066e-07
5.723e-07
6.42238e-07
7.14628e-07
7.8912e-07
8.65284e-07
9.42625e-07
1.02061e-06
1.09869e-06
1.17629e-06
1.25284e-06
1.32774e-06
1.40041e-06
1.47023e-06
1.53661e-06
1.59898e-06
1.65679e-06
1.70952e-06
1.75671e-06
1.79796e-06
1.83289e-06
1.86121e-06
1.88266e-06
1.89708e-06
1.90432e-06
1.90434e-06
1.89713e-06
1.88275e-06
1.86133e-06
1.83304e-06
1.79814e-06
1.75693e-06
1.70976e-06
1.65706e-06
1.59927e-06
1.53693e-06
1.47056e-06
1.40075e-06
1.3281e-06
1.2532e-06
1.17666e-06
1.09906e-06
1.02098e-06
9.42986e-07
8.65636e-07
7.89462e-07
7.14954e-07
6.42547e-07
5.72588e-07
5.05332e-07
4.40924e-07
3.79404e-07
3.20702e-07
2.64646e-07
2.10967e-07
1.59307e-07
1.0923e-07
6.02377e-08
1.03755e-10
3.88712e-13
3.8877e-13
1.03773e-10
6.0251e-08
1.09256e-07
1.59346e-07
2.11021e-07
2.64718e-07
3.20794e-07
3.7952e-07
4.41068e-07
5.05509e-07
5.72803e-07
6.42804e-07
7.15259e-07
7.89819e-07
8.66051e-07
9.43461e-07
1.02152e-06
1.09966e-06
1.17733e-06
1.25395e-06
1.32892e-06
1.40165e-06
1.47153e-06
1.53797e-06
1.60039e-06
1.65824e-06
1.71102e-06
1.75825e-06
1.79953e-06
1.83449e-06
1.86283e-06
1.88431e-06
1.89873e-06
1.90599e-06
1.906e-06
1.89879e-06
1.8844e-06
1.86296e-06
1.83465e-06
1.79972e-06
1.75847e-06
1.71126e-06
1.65851e-06
1.60068e-06
1.53828e-06
1.47186e-06
1.40199e-06
1.32927e-06
1.25431e-06
1.1777e-06
1.10003e-06
1.02188e-06
9.43822e-07
8.66403e-07
7.9016e-07
7.15586e-07
6.43112e-07
5.73091e-07
5.05774e-07
4.41309e-07
3.79734e-07
3.20979e-07
2.64874e-07
2.11148e-07
1.59443e-07
1.09324e-07
6.02894e-08
1.03844e-10
3.89045e-13
3.88953e-13
1.03823e-10
6.02794e-08
1.09308e-07
1.59422e-07
2.11121e-07
2.64844e-07
3.20947e-07
3.79702e-07
4.41281e-07
5.05753e-07
5.73081e-07
6.43117e-07
7.15609e-07
7.90206e-07
8.66476e-07
9.43925e-07
1.02202e-06
1.10021e-06
1.17791e-06
1.25457e-06
1.32957e-06
1.40234e-06
1.47225e-06
1.53872e-06
1.60117e-06
1.65906e-06
1.71186e-06
1.75911e-06
1.80041e-06
1.83539e-06
1.86374e-06
1.88523e-06
1.89966e-06
1.90692e-06
1.90693e-06
1.89971e-06
1.88532e-06
1.86386e-06
1.83554e-06
1.8006e-06
1.75933e-06
1.7121e-06
1.65933e-06
1.60147e-06
1.53904e-06
1.47258e-06
1.40268e-06
1.32993e-06
1.25493e-06
1.17828e-06
1.10057e-06
1.02239e-06
9.44286e-07
8.66829e-07
7.90547e-07
7.15935e-07
6.43426e-07
5.73369e-07
5.06019e-07
4.41521e-07
3.79916e-07
3.21133e-07
2.65e-07
2.11248e-07
1.59519e-07
1.09376e-07
6.03179e-08
1.03893e-10
3.89228e-13
3.89051e-13
1.03849e-10
6.02947e-08
1.09335e-07
1.59462e-07
2.11175e-07
2.64911e-07
3.2103e-07
3.798e-07
4.41395e-07
5.05885e-07
5.7323e-07
6.43286e-07
7.15797e-07
7.90415e-07
8.66706e-07
9.44176e-07
1.02229e-06
1.1005e-06
1.17823e-06
1.2549e-06
1.32993e-06
1.40271e-06
1.47264e-06
1.53913e-06
1.6016e-06
1.6595e-06
1.71231e-06
1.75958e-06
1.80089e-06
1.83587e-06
1.86424e-06
1.88573e-06
1.90016e-06
1.90742e-06
1.90744e-06
1.90022e-06
1.88581e-06
1.86436e-06
1.83603e-06
1.80108e-06
1.7598e-06
1.71256e-06
1.65977e-06
1.60189e-06
1.53944e-06
1.47297e-06
1.40305e-06
1.33028e-06
1.25526e-06
1.17859e-06
1.10087e-06
1.02266e-06
9.44537e-07
8.67058e-07
7.90756e-07
7.16124e-07
6.43594e-07
5.73519e-07
5.0615e-07
4.41635e-07
3.80013e-07
3.21215e-07
2.65068e-07
2.11302e-07
1.59559e-07
1.09403e-07
6.03331e-08
1.0392e-10
3.89326e-13
3.89102e-13
1.03862e-10
6.03026e-08
1.0935e-07
1.59483e-07
2.11203e-07
2.64947e-07
3.21072e-07
3.79851e-07
4.41455e-07
5.05953e-07
5.73309e-07
6.43374e-07
7.15896e-07
7.90524e-07
8.66826e-07
9.44307e-07
1.02244e-06
1.10065e-06
1.17839e-06
1.25508e-06
1.33011e-06
1.4029e-06
1.47285e-06
1.53935e-06
1.60182e-06
1.65973e-06
1.71255e-06
1.75983e-06
1.80114e-06
1.83613e-06
1.8645e-06
1.88599e-06
1.90043e-06
1.90769e-06
1.9077e-06
1.90048e-06
1.88608e-06
1.86462e-06
1.83629e-06
1.80133e-06
1.76004e-06
1.7128e-06
1.66e-06
1.60212e-06
1.53966e-06
1.47318e-06
1.40325e-06
1.33047e-06
1.25544e-06
1.17876e-06
1.10102e-06
1.0228e-06
9.44668e-07
8.67179e-07
7.90865e-07
7.16222e-07
6.43683e-07
5.73597e-07
5.06219e-07
4.41695e-07
3.80064e-07
3.21258e-07
2.65103e-07
2.1133e-07
1.5958e-07
1.09418e-07
6.03411e-08
1.03933e-10
3.89377e-13
3.89128e-13
1.03869e-10
6.03066e-08
1.09357e-07
1.59494e-07
2.11217e-07
2.64965e-07
3.21094e-07
3.79877e-07
4.41485e-07
5.05988e-07
5.73349e-07
6.43419e-07
7.15946e-07
7.9058e-07
8.66887e-07
9.44375e-07
1.02251e-06
1.10073e-06
1.17848e-06
1.25517e-06
1.33021e-06
1.40301e-06
1.47295e-06
1.53946e-06
1.60194e-06
1.65985e-06
1.71267e-06
1.75995e-06
1.80127e-06
1.83626e-06
1.86463e-06
1.88612e-06
1.90056e-06
1.90782e-06
1.90784e-06
1.90062e-06
1.88621e-06
1.86475e-06
1.83642e-06
1.80146e-06
1.76017e-06
1.71292e-06
1.66012e-06
1.60223e-06
1.53977e-06
1.47328e-06
1.40335e-06
1.33056e-06
1.25553e-06
1.17884e-06
1.1011e-06
1.02287e-06
9.44736e-07
8.6724e-07
7.90921e-07
7.16273e-07
6.43728e-07
5.73637e-07
5.06254e-07
4.41725e-07
3.8009e-07
3.2128e-07
2.65121e-07
2.11344e-07
1.59591e-07
1.09425e-07
6.03451e-08
1.0394e-10
3.89402e-13
3.8914e-13
1.03873e-10
6.03086e-08
1.09361e-07
1.59499e-07
2.11224e-07
2.64973e-07
3.21105e-07
3.7989e-07
4.415e-07
5.06006e-07
5.73368e-07
6.43441e-07
7.15971e-07
7.90608e-07
8.66918e-07
9.44408e-07
1.02254e-06
1.10077e-06
1.17852e-06
1.25521e-06
1.33026e-06
1.40306e-06
1.47301e-06
1.53951e-06
1.602e-06
1.65991e-06
1.71274e-06
1.76002e-06
1.80133e-06
1.83633e-06
1.8647e-06
1.88619e-06
1.90063e-06
1.90789e-06
1.90791e-06
1.90069e-06
1.88628e-06
1.86482e-06
1.83648e-06
1.80152e-06
1.76023e-06
1.71298e-06
1.66018e-06
1.60229e-06
1.53983e-06
1.47334e-06
1.4034e-06
1.33061e-06
1.25557e-06
1.17889e-06
1.10114e-06
1.02291e-06
9.44769e-07
8.67271e-07
7.90949e-07
7.16298e-07
6.4375e-07
5.73657e-07
5.06271e-07
4.4174e-07
3.80103e-07
3.2129e-07
2.6513e-07
2.11351e-07
1.59596e-07
1.09429e-07
6.03471e-08
1.03943e-10
3.89415e-13
3.89147e-13
1.03874e-10
6.03096e-08
1.09362e-07
1.59501e-07
2.11228e-07
2.64978e-07
3.2111e-07
3.79896e-07
4.41507e-07
5.06014e-07
5.73378e-07
6.43452e-07
7.15984e-07
7.90621e-07
8.66933e-07
9.44424e-07
1.02256e-06
1.10079e-06
1.17854e-06
1.25523e-06
1.33028e-06
1.40308e-06
1.47303e-06
1.53954e-06
1.60202e-06
1.65994e-06
1.71277e-06
1.76005e-06
1.80137e-06
1.83636e-06
1.86473e-06
1.88623e-06
1.90067e-06
1.90793e-06
1.90794e-06
1.90072e-06
1.88631e-06
1.86485e-06
1.83652e-06
1.80155e-06
1.76026e-06
1.71301e-06
1.66021e-06
1.60232e-06
1.53985e-06
1.47336e-06
1.40342e-06
1.33063e-06
1.2556e-06
1.17891e-06
1.10116e-06
1.02293e-06
9.44785e-07
8.67286e-07
7.90962e-07
7.1631e-07
6.43761e-07
5.73666e-07
5.0628e-07
4.41748e-07
3.80109e-07
3.21296e-07
2.65134e-07
2.11355e-07
1.59599e-07
1.0943e-07
6.0348e-08
1.03945e-10
3.89421e-13
3.89149e-13
1.03875e-10
6.031e-08
1.09363e-07
1.59503e-07
2.11229e-07
2.6498e-07
3.21113e-07
3.79899e-07
4.41511e-07
5.06018e-07
5.73383e-07
6.43457e-07
7.15989e-07
7.90628e-07
8.6694e-07
9.44432e-07
1.02257e-06
1.1008e-06
1.17855e-06
1.25524e-06
1.33029e-06
1.40309e-06
1.47305e-06
1.53955e-06
1.60204e-06
1.65995e-06
1.71278e-06
1.76006e-06
1.80138e-06
1.83638e-06
1.86474e-06
1.88624e-06
1.90068e-06
1.90794e-06
1.90796e-06
1.90073e-06
1.88633e-06
1.86487e-06
1.83653e-06
1.80157e-06
1.76028e-06
1.71302e-06
1.66022e-06
1.60233e-06
1.53987e-06
1.47338e-06
1.40344e-06
1.33065e-06
1.25561e-06
1.17892e-06
1.10117e-06
1.02294e-06
9.44793e-07
8.67293e-07
7.90969e-07
7.16316e-07
6.43766e-07
5.73671e-07
5.06283e-07
4.41751e-07
3.80112e-07
3.21298e-07
2.65136e-07
2.11356e-07
1.596e-07
1.09431e-07
6.03485e-08
1.03946e-10
3.89424e-13
3.89151e-13
1.03875e-10
6.03102e-08
1.09364e-07
1.59503e-07
2.1123e-07
2.64981e-07
3.21114e-07
3.799e-07
4.41512e-07
5.0602e-07
5.73385e-07
6.4346e-07
7.15992e-07
7.90631e-07
8.66943e-07
9.44436e-07
1.02257e-06
1.1008e-06
1.17855e-06
1.25525e-06
1.3303e-06
1.4031e-06
1.47305e-06
1.53956e-06
1.60204e-06
1.65996e-06
1.71279e-06
1.76007e-06
1.80139e-06
1.83638e-06
1.86475e-06
1.88625e-06
1.90069e-06
1.90795e-06
1.90797e-06
1.90074e-06
1.88634e-06
1.86487e-06
1.83654e-06
1.80157e-06
1.76029e-06
1.71303e-06
1.66023e-06
1.60234e-06
1.53987e-06
1.47338e-06
1.40344e-06
1.33065e-06
1.25561e-06
1.17892e-06
1.10117e-06
1.02294e-06
9.44797e-07
8.67296e-07
7.90972e-07
7.16318e-07
6.43768e-07
5.73673e-07
5.06285e-07
4.41753e-07
3.80114e-07
3.21299e-07
2.65137e-07
2.11357e-07
1.59601e-07
1.09432e-07
6.03487e-08
1.03946e-10
3.89425e-13
3.89151e-13
1.03876e-10
6.03103e-08
1.09364e-07
1.59503e-07
2.1123e-07
2.64981e-07
3.21114e-07
3.79901e-07
4.41513e-07
5.06021e-07
5.73386e-07
6.43461e-07
7.15993e-07
7.90632e-07
8.66945e-07
9.44437e-07
1.02258e-06
1.10081e-06
1.17856e-06
1.25525e-06
1.3303e-06
1.4031e-06
1.47305e-06
1.53956e-06
1.60205e-06
1.65996e-06
1.71279e-06
1.76007e-06
1.80139e-06
1.83639e-06
1.86476e-06
1.88625e-06
1.90069e-06
1.90795e-06
1.90797e-06
1.90075e-06
1.88634e-06
1.86488e-06
1.83654e-06
1.80158e-06
1.76029e-06
1.71303e-06
1.66023e-06
1.60234e-06
1.53987e-06
1.47338e-06
1.40344e-06
1.33065e-06
1.25561e-06
1.17892e-06
1.10117e-06
1.02294e-06
9.44798e-07
8.67297e-07
7.90973e-07
7.1632e-07
6.43769e-07
5.73674e-07
5.06286e-07
4.41753e-07
3.80114e-07
3.213e-07
2.65137e-07
2.11357e-07
1.59601e-07
1.09432e-07
6.03488e-08
1.03946e-10
3.89426e-13
3.89152e-13
1.03876e-10
6.03104e-08
1.09364e-07
1.59504e-07
2.1123e-07
2.64981e-07
3.21114e-07
3.79901e-07
4.41513e-07
5.06021e-07
5.73386e-07
6.43461e-07
7.15994e-07
7.90633e-07
8.66945e-07
9.44438e-07
1.02258e-06
1.10081e-06
1.17856e-06
1.25525e-06
1.3303e-06
1.4031e-06
1.47305e-06
1.53956e-06
1.60205e-06
1.65996e-06
1.71279e-06
1.76007e-06
1.80139e-06
1.83639e-06
1.86476e-06
1.88625e-06
1.90069e-06
1.90795e-06
1.90797e-06
1.90075e-06
1.88634e-06
1.86488e-06
1.83654e-06
1.80158e-06
1.76029e-06
1.71304e-06
1.66023e-06
1.60234e-06
1.53988e-06
1.47338e-06
1.40345e-06
1.33065e-06
1.25561e-06
1.17892e-06
1.10117e-06
1.02294e-06
9.44799e-07
8.67298e-07
7.90974e-07
7.1632e-07
6.4377e-07
5.73674e-07
5.06286e-07
4.41754e-07
3.80114e-07
3.213e-07
2.65137e-07
2.11357e-07
1.59601e-07
1.09432e-07
6.03488e-08
1.03946e-10
3.89426e-13
3.89152e-13
1.03876e-10
6.03104e-08
1.09364e-07
1.59504e-07
2.1123e-07
2.64981e-07
3.21115e-07
3.79901e-07
4.41513e-07
5.06021e-07
5.73386e-07
6.43461e-07
7.15994e-07
7.90633e-07
8.66946e-07
9.44438e-07
1.02258e-06
1.10081e-06
1.17856e-06
1.25525e-06
1.3303e-06
1.4031e-06
1.47306e-06
1.53956e-06
1.60205e-06
1.65996e-06
1.71279e-06
1.76007e-06
1.80139e-06
1.83639e-06
1.86476e-06
1.88625e-06
1.90069e-06
1.90795e-06
1.90797e-06
1.90075e-06
1.88634e-06
1.86488e-06
1.83654e-06
1.80158e-06
1.76029e-06
1.71304e-06
1.66023e-06
1.60234e-06
1.53988e-06
1.47339e-06
1.40345e-06
1.33065e-06
1.25561e-06
1.17892e-06
1.10117e-06
1.02294e-06
9.44799e-07
8.67298e-07
7.90974e-07
7.1632e-07
6.4377e-07
5.73674e-07
5.06287e-07
4.41754e-07
3.80115e-07
3.213e-07
2.65138e-07
2.11357e-07
1.59601e-07
1.09432e-07
6.03488e-08
1.03946e-10
3.89426e-13
3.89152e-13
1.03876e-10
6.03104e-08
1.09364e-07
1.59504e-07
2.11231e-07
2.64981e-07
3.21115e-07
3.79901e-07
4.41514e-07
5.06021e-07
5.73386e-07
6.43461e-07
7.15994e-07
7.90633e-07
8.66946e-07
9.44438e-07
1.02258e-06
1.10081e-06
1.17856e-06
1.25525e-06
1.3303e-06
1.4031e-06
1.47306e-06
1.53956e-06
1.60205e-06
1.65996e-06
1.71279e-06
1.76007e-06
1.80139e-06
1.83639e-06
1.86476e-06
1.88625e-06
1.90069e-06
1.90795e-06
1.90797e-06
1.90075e-06
1.88634e-06
1.86488e-06
1.83654e-06
1.80158e-06
1.76029e-06
1.71304e-06
1.66023e-06
1.60234e-06
1.53988e-06
1.47339e-06
1.40345e-06
1.33065e-06
1.25561e-06
1.17892e-06
1.10117e-06
1.02294e-06
9.44799e-07
8.67298e-07
7.90974e-07
7.1632e-07
6.4377e-07
5.73675e-07
5.06287e-07
4.41754e-07
3.80115e-07
3.213e-07
2.65138e-07
2.11357e-07
1.59601e-07
1.09432e-07
6.03488e-08
1.03947e-10
3.89426e-13
3.89152e-13
1.03876e-10
6.03104e-08
1.09364e-07
1.59504e-07
2.11231e-07
2.64981e-07
3.21115e-07
3.79901e-07
4.41514e-07
5.06021e-07
5.73386e-07
6.43461e-07
7.15994e-07
7.90633e-07
8.66946e-07
9.44438e-07
1.02258e-06
1.10081e-06
1.17856e-06
1.25525e-06
1.3303e-06
1.4031e-06
1.47306e-06
1.53956e-06
1.60205e-06
1.65996e-06
1.71279e-06
1.76007e-06
1.80139e-06
1.83639e-06
1.86476e-06
1.88625e-06
1.90069e-06
1.90795e-06
1.90797e-06
1.90075e-06
1.88634e-06
1.86488e-06
1.83654e-06
1.80158e-06
1.76029e-06
1.71304e-06
1.66023e-06
1.60234e-06
1.53988e-06
1.47339e-06
1.40345e-06
1.33065e-06
1.25561e-06
1.17892e-06
1.10117e-06
1.02294e-06
9.44799e-07
8.67298e-07
7.90974e-07
7.1632e-07
6.4377e-07
5.73675e-07
5.06287e-07
4.41754e-07
3.80115e-07
3.213e-07
2.65138e-07
2.11357e-07
1.59601e-07
1.09432e-07
6.03488e-08
1.03947e-10
3.89426e-13
3.89152e-13
1.03876e-10
6.03104e-08
1.09364e-07
1.59504e-07
2.11231e-07
2.64981e-07
3.21115e-07
3.79901e-07
4.41514e-07
5.06021e-07
5.73386e-07
6.43461e-07
7.15994e-07
7.90633e-07
8.66946e-07