/*--------------------------------*- C++ -*----------------------------------*\
  =========                 |
  \\      /  F ield         | OpenFOAM: The Open Source CFD Toolbox
   \\    /   O peration     | Website:  https://openfoam.org
    \\  /    A nd           | Version:  13
     \\/     M anipulation  |
\*---------------------------------------------------------------------------*/
FoamFile
{
    format      ascii;
    class       volScalarField;
    location    "9";
    object      nut;
}
// * * * * * * * * * * * * * * * * * * * * * * * * * * * * * * * * * * * * * //

dimensions      [0 2 -1 0 0 0 0];

internalField   nonuniform List<scalar> 
78750
(
5.56851e-11
1.52059e-08
5.65965e-07
1.81476e-06
2.7714e-06
3.5174e-06
4.17828e-06
4.52675e-06
5.19459e-06
5.72016e-06
6.06311e-06
7.17976e-06
9.0335e-06
9.74537e-06
1.00793e-05
1.04896e-05
1.08575e-05
1.03847e-05
9.74406e-06
9.57623e-06
9.9103e-06
1.05194e-05
1.10605e-05
1.05999e-05
1.00584e-05
9.46984e-06
8.90079e-06
8.35342e-06
7.38975e-06
6.32581e-06
5.68429e-06
4.91663e-06
4.16967e-06
9.78482e-07
7.00831e-09
5.21217e-10
1.35111e-07
2.02173e-06
5.74572e-06
8.81284e-06
1.01553e-05
9.45658e-06
1.12929e-05
1.21188e-05
1.24837e-05
1.33554e-05
1.47729e-05
1.498e-05
2.07273e-05
4.62415e-05
3.89213e-05
3.00634e-05
2.39767e-05
2.28293e-05
2.28967e-05
2.29392e-05
2.22796e-05
2.22189e-05
2.37717e-05
2.75607e-05
3.67276e-05
3.85875e-05
2.27405e-05
1.52507e-05
1.04882e-05
7.45518e-06
5.51296e-06
4.98767e-06
9.54805e-07
5.70353e-09
1.73597e-09
4.44284e-07
5.76803e-06
1.1986e-05
1.06055e-05
9.42224e-06
9.37151e-06
9.39505e-06
9.25068e-06
9.07773e-06
9.00274e-06
1.16357e-05
2.53239e-05
5.57959e-05
5.24719e-05
4.23005e-05
3.62358e-05
3.42511e-05
3.35946e-05
3.33982e-05
3.37766e-05
3.53902e-05
3.87093e-05
4.18931e-05
3.65659e-05
2.45529e-05
1.60742e-05
1.2464e-05
1.02807e-05
7.68627e-06
5.92748e-06
5.19967e-06
4.56915e-06
9.0239e-07
4.7704e-09
2.05898e-09
5.24356e-07
7.26458e-06
1.37874e-05
1.11922e-05
9.03159e-06
8.03974e-06
7.7893e-06
7.809e-06
7.93031e-06
8.5078e-06
1.06967e-05
1.83313e-05
3.63736e-05
5.55826e-05
5.5041e-05
5.46286e-05
5.4305e-05
5.25743e-05
5.15797e-05
5.17516e-05
5.21573e-05
4.92296e-05
3.9846e-05
2.73724e-05
1.76907e-05
1.21392e-05
9.77533e-06
8.19999e-06
6.66263e-06
4.67413e-06
3.77318e-06
3.73249e-06
7.69912e-07
3.7143e-09
2.4892e-09
6.31745e-07
9.5218e-06
1.19811e-05
9.4453e-06
8.30528e-06
7.91276e-06
7.81044e-06
7.91111e-06
8.25549e-06
9.38827e-06
1.24514e-05
1.92239e-05
3.25976e-05
4.67012e-05
5.44082e-05
5.36227e-05
5.28079e-05
5.20562e-05
5.14564e-05
5.11556e-05
5.12758e-05
4.87608e-05
3.14927e-05
2.61393e-05
1.72773e-05
9.97568e-06
7.31857e-06
5.76896e-06
4.51593e-06
3.50623e-06
3.26681e-06
4.00162e-06
6.54272e-07
2.98979e-09
2.54681e-09
6.4496e-07
9.16629e-06
1.2592e-05
9.78149e-06
8.46689e-06
8.00467e-06
7.90543e-06
7.99447e-06
8.30383e-06
9.1783e-06
1.16093e-05
1.80406e-05
3.18805e-05
5.13368e-05
5.30983e-05
5.18196e-05
5.07101e-05
4.99174e-05
4.95506e-05
4.97073e-05
5.0572e-05
4.15793e-05
2.61039e-05
2.12001e-05
1.48845e-05
1.02302e-05
6.96834e-06
5.04798e-06
4.04822e-06
3.58425e-06
3.47615e-06
4.16269e-06
6.3531e-07
3.0079e-09
2.64474e-09
6.68506e-07
9.8137e-06
1.19442e-05
9.40471e-06
8.31002e-06
7.98307e-06
8.00114e-06
8.24944e-06
8.79597e-06
1.00125e-05
1.29008e-05
2.01172e-05
3.32739e-05
5.04718e-05
5.3056e-05
5.16436e-05
5.05418e-05
4.98553e-05
4.96945e-05
5.01033e-05
5.12128e-05
3.87477e-05
2.28436e-05
1.63875e-05
1.24415e-05
8.62643e-06
6.08929e-06
4.87096e-06
4.22435e-06
3.58502e-06
3.17939e-06
3.68704e-06
6.46266e-07
3.07494e-09
2.76804e-09
6.98323e-07
9.8707e-06
1.23174e-05
9.71373e-06
8.58622e-06
8.24926e-06
8.26217e-06
8.48503e-06
8.97098e-06
1.00532e-05
1.26878e-05
1.93873e-05
3.22235e-05
5.07748e-05
5.2855e-05
5.14706e-05
5.04187e-05
4.98163e-05
4.97695e-05
5.02958e-05
5.15165e-05
4.27803e-05
2.58111e-05
1.45461e-05
1.18158e-05
8.24684e-06
5.69264e-06
4.62707e-06
3.74235e-06
3.19343e-06
3.11453e-06
4.11836e-06
6.70931e-07
3.02741e-09
2.78293e-09
7.00801e-07
9.86775e-06
1.2059e-05
9.53367e-06
8.50825e-06
8.26553e-06
8.37877e-06
8.7156e-06
9.33278e-06
1.05428e-05
1.32623e-05
1.99046e-05
3.22783e-05
5.04947e-05
5.30183e-05
5.17781e-05
5.08961e-05
5.04891e-05
5.06401e-05
5.1418e-05
5.27145e-05
4.42161e-05
2.51574e-05
1.41014e-05
1.09298e-05
7.79519e-06
5.33206e-06
4.25226e-06
3.61337e-06
3.29126e-06
3.36131e-06
4.56378e-06
7.11498e-07
3.16231e-09
2.88196e-09
7.25449e-07
1.00651e-05
1.21829e-05
9.69883e-06
8.6952e-06
8.44386e-06
8.55889e-06
8.88616e-06
9.47647e-06
1.06273e-05
1.31339e-05
1.88471e-05
3.03705e-05
4.81781e-05
5.37103e-05
5.26006e-05
5.18457e-05
5.15967e-05
5.19095e-05
5.28346e-05
5.42002e-05
4.12323e-05
2.35298e-05
1.29224e-05
1.00841e-05
7.30447e-06
5.17186e-06
4.31901e-06
3.75176e-06
3.38337e-06
3.44868e-06
4.83835e-06
7.49595e-07
3.44965e-09
2.89053e-09
7.2732e-07
9.91211e-06
1.22195e-05
9.73867e-06
8.73314e-06
8.38335e-06
8.5746e-06
9.01963e-06
9.55503e-06
1.07317e-05
1.32458e-05
1.87685e-05
3.00687e-05
4.69578e-05
5.40156e-05
5.30896e-05
5.24832e-05
5.23782e-05
5.27986e-05
5.37399e-05
5.17731e-05
3.49462e-05
1.98039e-05
1.18099e-05
9.69216e-06
7.24703e-06
5.23633e-06
4.33976e-06
3.80555e-06
3.55983e-06
3.61694e-06
4.90907e-06
8.34429e-07
4.02699e-09
2.94514e-09
7.39951e-07
9.93173e-06
1.23024e-05
9.78851e-06
8.7988e-06
8.48988e-06
8.46667e-06
8.77679e-06
9.44935e-06
1.07239e-05
1.33348e-05
1.89253e-05
2.97651e-05
4.56895e-05
5.42299e-05
5.33917e-05
5.2871e-05
5.28488e-05
5.33472e-05
5.43731e-05
4.73501e-05
3.22001e-05
1.91959e-05
1.17679e-05
1.0255e-05
8.12289e-06
5.89115e-06
4.80967e-06
3.99052e-06
3.52427e-06
3.43468e-06
4.85478e-06
9.14241e-07
4.3512e-09
3.00009e-09
7.52305e-07
1.00864e-05
1.21523e-05
9.64381e-06
8.63726e-06
8.39014e-06
8.4528e-06
8.84187e-06
9.71553e-06
1.11019e-05
1.38545e-05
2.0103e-05
3.09263e-05
4.63701e-05
5.44345e-05
5.35041e-05
5.29658e-05
5.29457e-05
5.34448e-05
5.44664e-05
5.13217e-05
3.5989e-05
2.06664e-05
1.21889e-05
1.05662e-05
8.36544e-06
6.31542e-06
5.19911e-06
4.06869e-06
3.35949e-06
3.5387e-06
5.55274e-06
9.57626e-07
4.37278e-09
3.0674e-09
7.67938e-07
1.02517e-05
1.22339e-05
9.70586e-06
8.69589e-06
8.38635e-06
8.49524e-06
8.90801e-06
9.70958e-06
1.10715e-05
1.36383e-05
1.88788e-05
2.93655e-05
4.51305e-05
5.44251e-05
5.35971e-05
5.31305e-05
5.31839e-05
5.37653e-05
5.47285e-05
4.73318e-05
3.77098e-05
2.06392e-05
1.18656e-05
9.81765e-06
7.76637e-06
5.84903e-06
5.00317e-06
4.38081e-06
3.91517e-06
4.08217e-06
6.5675e-06
1.15345e-06
5.30315e-09
3.0908e-09
7.72278e-07
1.02248e-05
1.24121e-05
9.7677e-06
8.60883e-06
8.16752e-06
8.40656e-06
9.00532e-06
9.80578e-06
1.12069e-05
1.3844e-05
1.91013e-05
2.9165e-05
4.45137e-05
5.43652e-05
5.36308e-05
5.32346e-05
5.3326e-05
5.39295e-05
5.48403e-05
4.74991e-05
3.70007e-05
2.02776e-05
1.16309e-05
9.71681e-06
7.81412e-06
6.02215e-06
5.10133e-06
4.38917e-06
4.04649e-06
4.37806e-06
6.86613e-06
1.2441e-06
5.76523e-09
3.14248e-09
7.83093e-07
1.02349e-05
1.2271e-05
9.75644e-06
8.75774e-06
8.50259e-06
8.36193e-06
8.55395e-06
9.43687e-06
1.12525e-05
1.43249e-05
1.98057e-05
2.95339e-05
4.46647e-05
5.43382e-05
5.36093e-05
5.32443e-05
5.33573e-05
5.39743e-05
5.49081e-05
4.75677e-05
3.77617e-05
1.97295e-05
1.09045e-05
8.7193e-06
7.02154e-06
5.67234e-06
5.07388e-06
4.59179e-06
4.33323e-06
4.97603e-06
9.55197e-06
1.3308e-06
6.6558e-09
3.16319e-09
7.87937e-07
1.02897e-05
1.22872e-05
9.76218e-06
8.75119e-06
8.5349e-06
8.4458e-06
8.70471e-06
9.6053e-06
1.11013e-05
1.38312e-05
1.91331e-05
2.89427e-05
4.40334e-05
5.43328e-05
5.35977e-05
5.32576e-05
5.34199e-05
5.40592e-05
5.49643e-05
4.75615e-05
3.65906e-05
1.85297e-05
1.03083e-05
8.18018e-06
6.77739e-06
5.68487e-06
5.14915e-06
4.65983e-06
4.45209e-06
5.43474e-06
1.04651e-05
1.51121e-06
7.54789e-09
3.17991e-09
7.9271e-07
1.02518e-05
1.25872e-05
9.87411e-06
8.41896e-06
8.03402e-06
8.16832e-06
8.65367e-06
9.48829e-06
1.09946e-05
1.40092e-05
1.99767e-05
3.03783e-05
4.43588e-05
5.43685e-05
5.36472e-05
5.32911e-05
5.34353e-05
5.40502e-05
5.49121e-05
4.75192e-05
3.67842e-05
1.80157e-05
9.81013e-06
7.64116e-06
6.33362e-06
5.39359e-06
5.03494e-06
4.77766e-06
5.00435e-06
6.42938e-06
1.17005e-05
1.62403e-06
8.1815e-09
3.18482e-09
7.93096e-07
1.02115e-05
1.24128e-05
9.84306e-06
8.3811e-06
8.01609e-06
8.24473e-06
8.83586e-06
9.67228e-06
1.0935e-05
1.35899e-05
1.87999e-05
2.90862e-05
4.40943e-05
5.43922e-05
5.36514e-05
5.33143e-05
5.34795e-05
5.41027e-05
5.50334e-05
5.44334e-05
3.49999e-05
1.63499e-05
8.92718e-06
6.70977e-06
5.75992e-06
5.37111e-06
5.23599e-06
5.12474e-06
5.41664e-06
6.60901e-06
1.16679e-05
1.73896e-06
8.71208e-09
3.204e-09
7.98559e-07
1.02859e-05
1.20918e-05
9.61502e-06
8.68859e-06
8.455e-06
8.18288e-06
8.23451e-06
9.08675e-06
1.0906e-05
1.40312e-05
1.98713e-05
3.01978e-05
4.37425e-05
5.44277e-05
5.37226e-05
5.34509e-05
5.3654e-05
5.42789e-05
5.51612e-05
5.18322e-05
3.24121e-05
1.53734e-05
8.66953e-06
6.61156e-06
5.6863e-06
5.31429e-06
5.10552e-06
5.2755e-06
5.6071e-06
6.6123e-06
1.17896e-05
1.79048e-06
9.03091e-09
3.20064e-09
7.97831e-07
1.02489e-05
1.25028e-05
9.76721e-06
8.35425e-06
7.89819e-06
8.04801e-06
8.66569e-06
9.43109e-06
1.088e-05
1.38681e-05
1.95297e-05
2.96179e-05
4.35212e-05
5.44896e-05
5.38299e-05
5.35467e-05
5.37185e-05
5.42778e-05
5.50172e-05
4.73069e-05
3.02076e-05
1.40373e-05
7.96097e-06
6.13022e-06
5.58933e-06
5.25563e-06
5.28482e-06
5.3162e-06
5.48754e-06
6.90329e-06
1.24365e-05
1.8659e-06
9.44065e-09
3.21721e-09
8.01885e-07
1.03433e-05
1.2089e-05
9.4937e-06
8.30242e-06
7.99752e-06
8.1743e-06
8.56106e-06
9.54494e-06
1.10198e-05
1.3625e-05
1.93474e-05
2.89122e-05
4.24378e-05
5.40646e-05
5.39538e-05
5.37052e-05
5.39056e-05
5.44665e-05
5.51672e-05
4.71413e-05
2.82052e-05
1.36807e-05
8.00276e-06
6.22654e-06
5.59776e-06
5.25783e-06
5.24217e-06
5.33362e-06
5.54994e-06
6.84069e-06
1.20732e-05
1.92113e-06
9.72441e-09
3.20372e-09
8.00187e-07
1.0277e-05
1.18883e-05
9.47272e-06
8.67521e-06
8.40473e-06
8.10635e-06
8.42038e-06
9.15664e-06
1.05683e-05
1.38393e-05
1.96083e-05
2.95763e-05
4.24754e-05
5.41976e-05
5.39242e-05
5.36843e-05
5.38767e-05
5.44637e-05
5.52079e-05
4.73857e-05
2.87615e-05
1.3774e-05
7.99677e-06
6.24161e-06
5.48634e-06
5.14809e-06
5.06473e-06
5.29174e-06
5.74642e-06
6.77736e-06
1.25488e-05
1.94674e-06
9.8996e-09
3.19779e-09
7.96287e-07
1.01569e-05
1.23857e-05
9.52357e-06
8.18283e-06
7.88634e-06
8.17746e-06
8.5381e-06
9.26249e-06
1.11593e-05
1.41341e-05
1.93641e-05
2.97185e-05
4.34259e-05
5.41906e-05
5.39074e-05
5.36716e-05
5.38964e-05
5.44932e-05
5.53075e-05
4.89888e-05
2.854e-05
1.34316e-05
7.82206e-06
6.06139e-06
5.4514e-06
5.21647e-06
5.25915e-06
5.37913e-06
5.8022e-06
7.22996e-06
1.28859e-05
1.99692e-06
1.01207e-08
3.22308e-09
8.02902e-07
1.039e-05
1.19876e-05
9.5378e-06
8.32045e-06
8.01405e-06
8.03486e-06
8.47146e-06
9.47135e-06
1.11287e-05
1.41916e-05
1.99412e-05
2.98105e-05
4.25208e-05
5.37936e-05
5.4075e-05
5.38328e-05
5.40353e-05
5.45968e-05
5.5299e-05
4.65147e-05
2.70817e-05
1.30799e-05
7.79986e-06
6.1454e-06
5.52549e-06
5.25967e-06
5.19937e-06
5.29139e-06
5.76504e-06
7.11594e-06
1.29189e-05
2.0365e-06
1.0313e-08
3.18891e-09
7.96493e-07
1.02662e-05
1.179e-05
9.5747e-06
8.48259e-06
7.94538e-06
7.96541e-06
8.40317e-06
9.26164e-06
1.10305e-05
1.43669e-05
1.99564e-05
2.94839e-05
4.32074e-05
5.41928e-05
5.39561e-05
5.36962e-05
5.38942e-05
5.44632e-05
5.51826e-05
4.62602e-05
2.71055e-05
1.31478e-05
7.82015e-06
6.16242e-06
5.55395e-06
5.19316e-06
5.10094e-06
5.32363e-06
5.67925e-06
7.12497e-06
1.32546e-05
2.06604e-06
1.07057e-08
3.19084e-09
7.95249e-07
1.0208e-05
1.20753e-05
9.53456e-06
8.35168e-06
7.90383e-06
7.94934e-06
8.39536e-06
9.34939e-06
1.09171e-05
1.39328e-05
1.96657e-05
2.93014e-05
4.29627e-05
5.40992e-05
5.38865e-05
5.36853e-05
5.39077e-05
5.4482e-05
5.5196e-05
4.68625e-05
2.71869e-05
1.29728e-05
7.68395e-06
6.05118e-06
5.36157e-06
5.14244e-06
5.20875e-06
5.35802e-06
5.82203e-06
7.23614e-06
1.3241e-05
2.19045e-06
1.10798e-08
3.21859e-09
8.03058e-07
1.02964e-05
1.17871e-05
9.37843e-06
8.20997e-06
7.90288e-06
8.16205e-06
8.61123e-06
9.39753e-06
1.09756e-05
1.3905e-05
2.01605e-05
2.95224e-05
4.2645e-05
5.39097e-05
5.39547e-05
5.37031e-05
5.39053e-05
5.44712e-05
5.51907e-05
4.64113e-05
2.67062e-05
1.27852e-05
7.66354e-06
6.03016e-06
5.41136e-06
5.18011e-06
5.19691e-06
5.33355e-06
5.70699e-06
7.21928e-06
1.32637e-05
2.17154e-06
1.10085e-08
3.1795e-09
7.92192e-07
1.02898e-05
1.2351e-05
9.646e-06
8.35853e-06
7.86858e-06
7.77545e-06
8.21633e-06
9.1835e-06
1.10031e-05
1.43126e-05
2.00041e-05
3.02331e-05
4.35775e-05
5.42254e-05
5.3944e-05
5.3713e-05
5.39299e-05
5.45093e-05
5.52419e-05
4.63763e-05
2.6559e-05
1.2753e-05
7.68536e-06
6.08179e-06
5.49536e-06
5.24075e-06
5.15196e-06
5.17307e-06
5.6618e-06
7.47136e-06
1.39855e-05
2.18353e-06
1.10386e-08
3.18006e-09
7.94126e-07
1.00624e-05
1.20868e-05
9.20863e-06
8.13922e-06
7.79045e-06
7.8764e-06
8.39351e-06
9.3855e-06
1.11349e-05
1.44035e-05
2.08021e-05
3.02454e-05
4.31544e-05
5.4078e-05
5.40049e-05
5.38074e-05
5.40356e-05
5.45935e-05
5.52615e-05
4.55008e-05
2.60422e-05
1.26335e-05
7.61869e-06
6.02969e-06
5.48925e-06
5.23811e-06
5.25741e-06
5.42987e-06
5.88878e-06
7.47762e-06
1.35948e-05
2.19569e-06
1.1091e-08
3.20348e-09
7.99631e-07
1.05637e-05
1.17812e-05
9.4369e-06
8.31687e-06
7.93448e-06
8.09764e-06
8.477e-06
9.2301e-06
1.1224e-05
1.44067e-05
2.02854e-05
2.99345e-05
4.27039e-05
5.36722e-05
5.39753e-05
5.37328e-05
5.39686e-05
5.45761e-05
5.53379e-05
4.65514e-05
2.68322e-05
1.27584e-05
7.72427e-06
6.13473e-06
5.50353e-06
5.22745e-06
5.22621e-06
5.35044e-06
5.83182e-06
7.4282e-06
1.37658e-05
2.15753e-06
1.12405e-08
3.18072e-09
7.93847e-07
1.03346e-05
1.20467e-05
9.52697e-06
8.36937e-06
7.94824e-06
7.76452e-06
8.22064e-06
9.41527e-06
1.10429e-05
1.4343e-05
2.0112e-05
2.96855e-05
4.36678e-05
5.44415e-05
5.38876e-05
5.37126e-05
5.39609e-05
5.45569e-05
5.53286e-05
4.70679e-05
2.65684e-05
1.26317e-05
7.64009e-06
6.04212e-06
5.38058e-06
5.19469e-06
5.27374e-06
5.38858e-06
5.98678e-06
7.80367e-06
1.3974e-05
2.21197e-06
1.14122e-08
3.18379e-09
7.94317e-07
1.01421e-05
1.1689e-05
9.17577e-06
8.31561e-06
7.85441e-06
7.9856e-06
8.59084e-06
9.37505e-06
1.09621e-05
1.43349e-05
2.04739e-05
3.04688e-05
4.40476e-05
5.46164e-05
5.40955e-05
5.38879e-05
5.41197e-05
5.46998e-05
5.54156e-05
4.55605e-05
2.492e-05
1.19674e-05
7.35132e-06
5.959e-06
5.72879e-06
5.60383e-06
5.49976e-06
5.49108e-06
5.87277e-06
7.73607e-06
1.43749e-05
2.22453e-06
1.14182e-08
3.20406e-09
7.99558e-07
1.06115e-05
1.18839e-05
9.43303e-06
8.21516e-06
7.83075e-06
7.90175e-06
8.45066e-06
9.46319e-06
1.12119e-05
1.49203e-05
2.08417e-05
2.94668e-05
4.17763e-05
5.25854e-05
5.40161e-05
5.37646e-05
5.39886e-05
5.45753e-05
5.52229e-05
4.52506e-05
2.58996e-05
1.24582e-05
7.5723e-06
6.03718e-06
5.53031e-06
5.48718e-06
5.45515e-06
5.52416e-06
5.9232e-06
7.54903e-06
1.45017e-05
2.27465e-06
1.19711e-08
3.19006e-09
7.94948e-07
1.03528e-05
1.17837e-05
9.30246e-06
8.30176e-06
8.01223e-06
8.10705e-06
8.18506e-06
9.08978e-06
1.13978e-05
1.48137e-05
2.03645e-05
3.03586e-05
4.39235e-05
5.45859e-05
5.39626e-05
5.37464e-05
5.39854e-05
5.45927e-05
5.53575e-05
4.61779e-05
2.60674e-05
1.24538e-05
7.59264e-06
6.07099e-06
5.49965e-06
5.20543e-06
5.34319e-06
5.63856e-06
6.22351e-06
8.1377e-06
1.47007e-05
2.3864e-06
1.21836e-08
3.18133e-09
7.95891e-07
1.03905e-05
1.17632e-05
9.48683e-06
8.40459e-06
7.83718e-06
7.7291e-06
8.4089e-06
9.61507e-06
1.10794e-05
1.42671e-05
2.0002e-05
2.97512e-05
4.36697e-05
5.43617e-05
5.38957e-05
5.36886e-05
5.39362e-05
5.45531e-05
5.5335e-05
4.58175e-05
2.52379e-05
1.20266e-05
7.35295e-06
5.91608e-06
5.52832e-06
5.52715e-06
5.66065e-06
5.74572e-06
6.16626e-06
7.90275e-06
1.44583e-05
2.37397e-06
1.22209e-08
3.19771e-09
7.98394e-07
1.05619e-05
1.19627e-05
9.46488e-06
8.12162e-06
7.77396e-06
8.06916e-06
8.54745e-06
9.27623e-06
1.11633e-05
1.54635e-05
2.1077e-05
3.04378e-05
4.37877e-05
5.44204e-05
5.39172e-05
5.37524e-05
5.40213e-05
5.46419e-05
5.54115e-05
4.51288e-05
2.51204e-05
1.21145e-05
7.48628e-06
6.01857e-06
5.55744e-06
5.42302e-06
5.51353e-06
5.78392e-06
6.08554e-06
7.83074e-06
1.51907e-05
2.3569e-06
1.23238e-08
3.18802e-09
7.95069e-07
1.02449e-05
1.20187e-05
9.09148e-06
8.03337e-06
8.10852e-06
8.17406e-06
8.17743e-06
9.02754e-06
1.10695e-05
1.43268e-05
2.05821e-05
3.07707e-05
4.34429e-05
5.38454e-05
5.39341e-05
5.37333e-05
5.39776e-05
5.45933e-05
5.53799e-05
4.59902e-05
2.53774e-05
1.21645e-05
7.5015e-06
6.02767e-06
5.49579e-06
5.30399e-06
5.37341e-06
5.65976e-06
6.41847e-06
8.37729e-06
1.49286e-05
2.39933e-06
1.2417e-08
3.18607e-09
7.96613e-07
1.02872e-05
1.1743e-05
9.48363e-06
8.28116e-06
7.56809e-06
7.73858e-06
8.47472e-06
9.5821e-06
1.11929e-05
1.42338e-05
2.02222e-05
2.98337e-05
4.21511e-05
5.29311e-05
5.39257e-05
5.37297e-05
5.39796e-05
5.45956e-05
5.53779e-05
4.52671e-05
2.45725e-05
1.17836e-05
7.27783e-06
5.94117e-06
5.67834e-06
5.53899e-06
5.4775e-06
5.76116e-06
6.31023e-06
8.29752e-06
1.49978e-05
2.41919e-06
1.2488e-08
3.22098e-09
8.0206e-07
1.06859e-05
1.1779e-05
9.30313e-06
8.24495e-06
7.8665e-06
7.77258e-06
8.39241e-06
9.49321e-06
1.12453e-05
1.44308e-05
2.08993e-05
3.0976e-05
4.42323e-05
5.41059e-05
5.39907e-05
5.38237e-05
5.40849e-05
5.46968e-05
5.5474e-05
4.55718e-05
2.50503e-05
1.21076e-05
7.47146e-06
6.01418e-06
5.60499e-06
5.54258e-06
5.54275e-06
5.65174e-06
6.25083e-06
8.19492e-06
1.50727e-05
2.39736e-06
1.25727e-08
3.21692e-09
8.00158e-07
1.00143e-05
1.20406e-05
9.02818e-06
7.91743e-06
7.77556e-06
7.9426e-06
8.38845e-06
9.31696e-06
1.11516e-05
1.4606e-05
2.05015e-05
3.04559e-05
4.34076e-05
5.37748e-05
5.38968e-05
5.3721e-05
5.40105e-05
5.4637e-05
5.54202e-05
4.52718e-05
2.45471e-05
1.19209e-05
7.42682e-06
6.01391e-06
5.57449e-06
5.41656e-06
5.44152e-06
5.81462e-06
6.61628e-06
8.56901e-06
1.5285e-05
2.48536e-06
1.28368e-08
3.18786e-09
7.97723e-07
1.04518e-05
1.16342e-05
9.51285e-06
8.22159e-06
7.68546e-06
7.77903e-06
8.39091e-06
9.56955e-06
1.13704e-05
1.43785e-05
2.01793e-05
2.97692e-05
4.33579e-05
5.4317e-05
5.38957e-05
5.36918e-05
5.39658e-05
5.46175e-05
5.54098e-05
4.50114e-05
2.46649e-05
1.19536e-05
7.43596e-06
6.01921e-06
5.60967e-06
5.52711e-06
5.65341e-06
5.89749e-06
6.48194e-06
8.37343e-06
1.52362e-05
2.5101e-06
1.28407e-08
3.18699e-09
7.95623e-07
1.0549e-05
1.16992e-05
9.16211e-06
8.26554e-06
8.10975e-06
7.98877e-06
8.29765e-06
9.0982e-06
1.07142e-05
1.43271e-05
2.03622e-05
3.04217e-05
4.34277e-05
5.3963e-05
5.38488e-05
5.36818e-05
5.39369e-05
5.45135e-05
5.52044e-05
4.51072e-05
2.4535e-05
1.19194e-05
7.42599e-06
6.02281e-06
5.62954e-06
5.61022e-06
5.67741e-06
5.90555e-06
6.46313e-06
8.33814e-06
1.56556e-05
2.50371e-06
1.30336e-08
3.19879e-09
7.9698e-07
1.00607e-05
1.19343e-05
9.12564e-06
7.97745e-06
7.68698e-06
8.0858e-06
8.37902e-06
9.1504e-06
1.12546e-05
1.47201e-05
2.03807e-05
2.99968e-05
4.32983e-05
5.3759e-05
5.38982e-05
5.37089e-05
5.39647e-05
5.45708e-05
5.52983e-05
4.40352e-05
2.39441e-05
1.18779e-05
7.51103e-06
6.12531e-06
5.72284e-06
5.65294e-06
5.63582e-06
5.90567e-06
6.69202e-06
8.60689e-06
1.55551e-05
2.5935e-06
1.32978e-08
3.18468e-09
7.97552e-07
1.0559e-05
1.16268e-05
9.18787e-06
8.19628e-06
7.91483e-06
7.75751e-06
8.31802e-06
9.37895e-06
1.12369e-05
1.46749e-05
2.09193e-05
3.1281e-05
4.36967e-05
5.36967e-05
5.38833e-05
5.37349e-05
5.40161e-05
5.46421e-05
5.49213e-05
4.4589e-05
2.47181e-05
1.20284e-05
7.52542e-06
6.15435e-06
5.76479e-06
5.59845e-06
5.73526e-06
6.14144e-06
6.6998e-06
8.47182e-06
1.51152e-05
2.60191e-06
1.32697e-08
3.17247e-09
7.91767e-07
1.03505e-05
1.17266e-05
9.4482e-06
8.12605e-06
7.75653e-06
8.14706e-06
8.27489e-06
9.1149e-06
1.11501e-05
1.46086e-05
2.11903e-05
3.09204e-05
4.35447e-05
5.42778e-05
5.38877e-05
5.37219e-05
5.39973e-05
5.46252e-05
5.53977e-05
4.54355e-05
2.47272e-05
1.20113e-05
7.48913e-06
6.06061e-06
5.65536e-06
5.68178e-06
5.9752e-06
6.05794e-06
6.70635e-06
8.8683e-06
1.54657e-05
2.58703e-06
1.3285e-08
3.18403e-09
7.93052e-07
1.022e-05
1.18646e-05
9.00973e-06
8.17527e-06
7.93713e-06
7.76337e-06
8.35842e-06
9.49142e-06
1.1266e-05
1.46356e-05
2.05759e-05
3.07316e-05
4.35841e-05
5.37795e-05
5.39909e-05
5.38262e-05
5.40921e-05
5.46925e-05
5.52664e-05
4.3949e-05
2.39104e-05
1.18958e-05
7.58759e-06
6.23703e-06
5.87342e-06
5.82956e-06
5.84418e-06
6.21699e-06
6.99027e-06
8.6924e-06
1.56439e-05
2.57766e-06
1.33322e-08
3.18475e-09
7.92776e-07
1.05771e-05
1.15946e-05
9.36191e-06
8.15693e-06
7.74281e-06
7.8819e-06
8.5914e-06
9.59874e-06
1.12271e-05
1.48426e-05
2.0763e-05
3.06856e-05
4.29103e-05
5.32487e-05
5.39065e-05
5.37274e-05
5.40206e-05
5.46928e-05
5.51967e-05
4.43775e-05
2.44739e-05
1.20333e-05
7.61817e-06
6.27631e-06
5.85738e-06
5.78304e-06
6.05561e-06
6.24995e-06
6.84639e-06
9.21502e-06
1.63786e-05
2.70205e-06
1.37225e-08
3.15577e-09
7.88971e-07
1.03851e-05
1.19951e-05
9.43974e-06
8.31229e-06
7.87278e-06
7.71587e-06
8.13417e-06
9.38262e-06
1.14591e-05
1.50116e-05
2.08774e-05
3.08456e-05
4.41471e-05
5.43973e-05
5.38862e-05
5.37333e-05
5.403e-05
5.46881e-05
5.5502e-05
4.51385e-05
2.43415e-05
1.18917e-05
7.53084e-06
6.17276e-06
5.86225e-06
5.90249e-06
6.15865e-06
6.46144e-06
7.04495e-06
8.96856e-06
1.66315e-05
2.68544e-06
1.37466e-08
3.15535e-09
7.89364e-07
1.04966e-05
1.17242e-05
9.3252e-06
8.08219e-06
7.71804e-06
7.94768e-06
8.41741e-06
9.572e-06
1.16278e-05
1.5029e-05
2.0118e-05
3.06288e-05
4.37257e-05
5.38898e-05
5.39496e-05
5.38201e-05
5.41345e-05
5.48004e-05
5.4951e-05
4.37389e-05
2.39231e-05
1.19392e-05
7.64829e-06
6.33897e-06
5.97024e-06
5.9065e-06
5.99925e-06
6.30628e-06
6.98609e-06
9.23992e-06
1.65023e-05
2.7156e-06
1.37426e-08
3.16073e-09
7.88201e-07
1.03279e-05
1.171e-05
9.10473e-06
8.19933e-06
7.8809e-06
8.04058e-06
8.56998e-06
9.17619e-06
1.0698e-05
1.44668e-05
2.08658e-05
3.05759e-05
4.43262e-05
5.43985e-05
5.38494e-05
5.37136e-05
5.40373e-05
5.47311e-05
5.54194e-05
4.45454e-05
2.45692e-05
1.21145e-05
7.68674e-06
6.27342e-06
5.88758e-06
5.87787e-06
5.90744e-06
6.16289e-06
7.0806e-06
9.48893e-06
1.70786e-05
2.70719e-06
1.39138e-08
3.1465e-09
7.88179e-07
1.03583e-05
1.17324e-05
9.45216e-06
8.41921e-06
7.7539e-06
7.72437e-06
8.13041e-06
9.18528e-06
1.13167e-05
1.46893e-05
2.07485e-05
3.14152e-05
4.45072e-05
5.44146e-05
5.3858e-05
5.37207e-05
5.40379e-05
5.47219e-05
5.55752e-05
4.50364e-05
2.43879e-05
1.19904e-05
7.62583e-06
6.2726e-06
5.94292e-06
5.98034e-06
6.2919e-06
6.70712e-06
7.31752e-06
9.3946e-06
1.66907e-05
2.76816e-06
1.40087e-08
3.1485e-09
7.8771e-07
1.05094e-05
1.17712e-05
9.33179e-06
8.11003e-06
7.7651e-06
7.82634e-06
8.35673e-06
9.45167e-06
1.14315e-05
1.46969e-05
2.02309e-05
3.03982e-05
4.27831e-05
5.32567e-05
5.39893e-05
5.38352e-05
5.41293e-05
5.47683e-05
5.50955e-05
4.35255e-05
2.35728e-05
1.18492e-05
7.63273e-06
6.39653e-06
6.05337e-06
5.9822e-06
6.20407e-06
6.45619e-06
7.26206e-06
9.58603e-06
1.68171e-05
2.76142e-06
1.39491e-08
3.16083e-09
7.90142e-07
1.04631e-05
1.1796e-05
9.19837e-06
8.0698e-06
7.78939e-06
7.89996e-06
8.54977e-06
9.62721e-06
1.09388e-05
1.40806e-05
2.03891e-05
3.05493e-05
4.41182e-05
5.4248e-05
5.38481e-05
5.37138e-05
5.4003e-05
5.46548e-05
5.54694e-05
4.4539e-05
2.42762e-05
1.21168e-05
7.7679e-06
6.36784e-06
6.07094e-06
6.05944e-06
5.96913e-06
6.41567e-06
7.33057e-06
9.73507e-06
1.72341e-05
2.7792e-06
1.40467e-08
3.1661e-09
7.8979e-07
1.04805e-05
1.16841e-05
9.37163e-06
8.23643e-06
7.68789e-06
7.66033e-06
8.11076e-06
9.27918e-06
1.14091e-05
1.49022e-05
2.08245e-05
3.11812e-05
4.4405e-05
5.4465e-05
5.38977e-05
5.37431e-05
5.40365e-05
5.46882e-05
5.54991e-05
4.42835e-05
2.37943e-05
1.18617e-05
7.65103e-06
6.33665e-06
5.94417e-06
5.96328e-06
6.38217e-06
6.64223e-06
7.35538e-06
9.56758e-06
1.72846e-05
2.78086e-06
1.41835e-08
3.14973e-09
7.89335e-07
1.03442e-05
1.17798e-05
8.92239e-06
7.82406e-06
7.72689e-06
7.72837e-06
8.21655e-06
9.33805e-06
1.1559e-05
1.50662e-05
2.04289e-05
3.02413e-05
4.28223e-05
5.32585e-05
5.39624e-05
5.38113e-05
5.41004e-05
5.47536e-05
5.46977e-05
4.28895e-05
2.32079e-05
1.18489e-05
7.78089e-06
6.49821e-06
6.13357e-06
6.11872e-06
6.23685e-06
6.57149e-06
7.26307e-06
9.31431e-06
1.68247e-05
2.79712e-06
1.43269e-08
3.13045e-09
7.83838e-07
1.03381e-05
1.17358e-05
9.09596e-06
7.97223e-06
7.63366e-06
7.98908e-06
8.60301e-06
9.3443e-06
1.08484e-05
1.4242e-05
2.13474e-05
3.18266e-05
4.42148e-05
5.41847e-05
5.39539e-05
5.3791e-05
5.41171e-05
5.47986e-05
5.46236e-05
4.30086e-05
2.35051e-05
1.19056e-05
7.78667e-06
6.52274e-06
6.20758e-06
6.05305e-06
6.14132e-06
6.31421e-06
7.2162e-06
9.76584e-06
1.7392e-05
2.82032e-06
1.43323e-08
3.14882e-09
7.86659e-07
1.04848e-05
1.17283e-05
9.44018e-06
8.31411e-06
7.64671e-06
7.58151e-06
8.11029e-06
9.31225e-06
1.14191e-05
1.47424e-05
2.09868e-05
3.13637e-05
4.44693e-05
5.43849e-05
5.39027e-05
5.3785e-05
5.41193e-05
5.48195e-05
5.54772e-05
4.42589e-05
2.41443e-05
1.19788e-05
7.81787e-06
6.56971e-06
6.17287e-06
5.97009e-06
6.07214e-06
6.58648e-06
7.4609e-06
9.54232e-06
1.71602e-05
2.82244e-06
1.43543e-08
3.14301e-09
7.86979e-07
1.02647e-05
1.16298e-05
8.79815e-06
7.70207e-06
7.81735e-06
7.8393e-06
8.22355e-06
9.43438e-06
1.15031e-05
1.54873e-05
2.16626e-05
3.11398e-05
4.33193e-05
5.34505e-05
5.40055e-05
5.38634e-05
5.41576e-05
5.47526e-05
4.71827e-05
4.428e-05
2.38633e-05
1.19374e-05
7.75968e-06
6.43093e-06
6.09286e-06
6.2193e-06
6.40673e-06
6.68184e-06
7.33018e-06
9.61369e-06
1.72603e-05
2.81155e-06
1.43468e-08
3.13111e-09
7.852e-07
1.04598e-05
1.14117e-05
8.99513e-06
8.02564e-06
7.61413e-06
7.8798e-06
8.64833e-06
9.63636e-06
1.12873e-05
1.44597e-05
2.0265e-05
3.12137e-05
4.3792e-05
5.36693e-05
5.39572e-05
5.38119e-05
5.41158e-05
5.47171e-05
4.71684e-05
4.42419e-05
2.36562e-05
1.18515e-05
7.73925e-06
6.55791e-06
6.27783e-06
6.25755e-06
6.36719e-06
6.62991e-06
7.4919e-06
1.00572e-05
1.79312e-05
2.81051e-06
1.44889e-08
3.1448e-09
7.83943e-07
1.05133e-05
1.14816e-05
9.0549e-06
8.21316e-06
7.85393e-06
7.68982e-06
8.26374e-06
9.27734e-06
1.13387e-05
1.5121e-05
2.11508e-05
3.08279e-05
4.39709e-05
5.38045e-05
5.3947e-05
5.38304e-05
5.41421e-05
5.47424e-05
4.71624e-05
4.3334e-05
2.31152e-05
1.17451e-05
7.74092e-06
6.52837e-06
6.3286e-06
6.29555e-06
6.53215e-06
6.82804e-06
7.4912e-06
9.91144e-06
1.74671e-05
2.81873e-06
1.45192e-08
3.16635e-09
7.90336e-07
1.04342e-05
1.12566e-05
8.8897e-06
7.91213e-06
7.65964e-06
7.95565e-06
8.3883e-06
9.37169e-06
1.13486e-05
1.48171e-05
2.0979e-05
3.15009e-05
4.46262e-05
5.446e-05
5.39231e-05
5.38051e-05
5.41195e-05
5.47127e-05
4.71635e-05
4.36004e-05
2.30738e-05
1.17149e-05
7.68817e-06
6.44659e-06
6.15234e-06
6.2773e-06
6.59777e-06
6.95945e-06
7.68541e-06
9.7783e-06
1.75196e-05
2.83505e-06
1.47392e-08
3.13751e-09
7.8545e-07
1.05159e-05
1.15678e-05
8.97487e-06
7.88023e-06
7.68258e-06
8.03508e-06
8.5566e-06
9.49364e-06
1.13512e-05
1.4931e-05
2.09138e-05
3.03517e-05
4.37272e-05
5.42458e-05
5.40136e-05
5.38645e-05
5.41382e-05
5.47259e-05
4.71961e-05
4.37807e-05
2.29619e-05
1.17718e-05
7.77352e-06
6.59524e-06
6.39496e-06
6.40516e-06
6.39959e-06
6.63275e-06
7.60387e-06
1.01946e-05
1.79267e-05
2.90938e-06
1.48678e-08
3.13456e-09
7.85356e-07
1.05734e-05
1.18538e-05
9.47156e-06
7.89702e-06
7.42952e-06
7.73861e-06
8.37398e-06
9.44794e-06
1.14525e-05
1.53243e-05
2.14587e-05
3.16134e-05
4.3463e-05
5.29653e-05
5.40022e-05
5.3893e-05
5.42168e-05
5.4837e-05
4.72186e-05
4.31772e-05
2.28293e-05
1.17117e-05
7.74647e-06
6.61127e-06
6.43275e-06
6.49988e-06
6.71431e-06
7.00278e-06
7.56055e-06
9.79633e-06
1.72663e-05
2.88227e-06
1.48206e-08
3.1722e-09
7.92249e-07
1.07712e-05
1.16402e-05
9.01133e-06
7.94942e-06
7.72661e-06
7.81699e-06
8.2949e-06
9.38747e-06
1.14666e-05
1.51739e-05
2.1229e-05
3.05741e-05
4.39338e-05
5.38862e-05
5.39478e-05
5.3844e-05
5.41803e-05
5.47896e-05
4.71936e-05
4.25914e-05
2.2684e-05
1.17971e-05
7.88617e-06
6.71306e-06
6.42221e-06
6.33685e-06
6.53196e-06
6.94684e-06
7.65823e-06
9.81773e-06
1.73937e-05
2.85767e-06
1.48123e-08
3.15821e-09
7.89242e-07
1.0419e-05
1.14855e-05
8.74717e-06
8.16361e-06
7.78398e-06
7.67375e-06
8.42766e-06
9.60267e-06
1.13898e-05
1.46445e-05
2.09638e-05
3.087e-05
4.41033e-05
5.41282e-05
5.39998e-05
5.38862e-05
5.41998e-05
5.48042e-05
4.72215e-05
4.28476e-05
2.29106e-05
1.18401e-05
7.92435e-06
6.69728e-06
6.4876e-06
6.5326e-06
6.55446e-06
6.87287e-06
7.77343e-06
1.01196e-05
1.80033e-05
2.90934e-06
1.49568e-08
3.14331e-09
7.86799e-07
1.04717e-05
1.17236e-05
9.05421e-06
7.81037e-06
7.80857e-06
8.02865e-06
8.29279e-06
9.20268e-06
1.14685e-05
1.54493e-05
2.16103e-05
3.10344e-05
4.31731e-05
5.33408e-05
5.39472e-05
5.38484e-05
5.41897e-05
5.48239e-05
4.72608e-05
4.31306e-05
2.30256e-05
1.18862e-05
7.9332e-06
6.70399e-06
6.28584e-06
6.32167e-06
6.86889e-06
7.18736e-06
7.70443e-06
9.90602e-06
1.7481e-05
2.91165e-06
1.49427e-08
3.17666e-09
7.93734e-07
1.06947e-05
1.13925e-05
9.05898e-06
8.01695e-06
7.76341e-06
7.85186e-06
8.25957e-06
9.49965e-06
1.16065e-05
1.53668e-05
2.13016e-05
3.08284e-05
4.39868e-05
5.3587e-05
5.39534e-05
5.3858e-05
5.41957e-05
5.48374e-05
4.72589e-05
4.27201e-05
2.27637e-05
1.16965e-05
7.7964e-06
6.69858e-06
6.62668e-06
6.64702e-06
6.68117e-06
7.04222e-06
7.822e-06
9.69168e-06
1.78587e-05
2.91523e-06
1.51909e-08
3.16299e-09
7.90374e-07
1.05187e-05
1.13061e-05
9.00731e-06
8.22377e-06
7.53975e-06
7.56907e-06
8.52667e-06
9.63481e-06
1.15399e-05
1.49756e-05
2.05535e-05
3.09384e-05
4.42297e-05
5.44328e-05
5.39338e-05
5.38561e-05
5.42203e-05
5.491e-05
4.73258e-05
4.29245e-05
2.2848e-05
1.18767e-05
7.99819e-06
6.7906e-06
6.58982e-06
6.51558e-06
6.59437e-06
6.90091e-06
7.79175e-06
1.05927e-05
1.81826e-05
2.97023e-06
1.52762e-08
3.13505e-09
7.85751e-07
1.0355e-05
1.15223e-05
8.92394e-06
7.77238e-06
7.68127e-06
8.02526e-06
8.18259e-06
9.11597e-06
1.14062e-05
1.52346e-05
2.1967e-05
3.19096e-05
4.36969e-05
5.27252e-05
5.40504e-05
5.39437e-05
5.42789e-05
5.49685e-05
4.73758e-05
4.35714e-05
2.28437e-05
1.17773e-05
7.90991e-06
6.76687e-06
6.43815e-06
6.57855e-06
6.99916e-06
7.27764e-06
7.92818e-06
1.01625e-05
1.79805e-05
2.97125e-06
1.53384e-08
3.17233e-09
7.90016e-07
1.06931e-05
1.15138e-05
9.05635e-06
7.91452e-06
7.66827e-06
7.66555e-06
8.21247e-06
9.50467e-06
1.1382e-05
1.49096e-05
2.15676e-05
3.20125e-05
4.45118e-05
5.33701e-05
5.39891e-05
5.39321e-05