/*--------------------------------*- C++ -*----------------------------------*\
  =========                 |
  \\      /  F ield         | OpenFOAM: The Open Source CFD Toolbox
   \\    /   O peration     | Website:  https://openfoam.org
    \\  /    A nd           | Version:  13
     \\/     M anipulation  |
\*---------------------------------------------------------------------------*/
FoamFile
{
    format      ascii;
    class       volScalarField;
    location    "9";
    object      p;
}
// * * * * * * * * * * * * * * * * * * * * * * * * * * * * * * * * * * * * * //

dimensions      [0 2 -2 0 0 0 0];

internalField   nonuniform List<scalar> 
78750
(
0
-7.92282e-05
-7.84705e-05
-0.000115871
-0.000274581
-0.000516173
-0.000881534
-0.00139812
-0.00188722
-0.00233653
-0.00277909
-0.00313056
-0.00340327
-0.00375996
-0.00406891
-0.00429834
-0.00445806
-0.0046012
-0.00472924
-0.0048412
-0.00493766
-0.00502045
-0.00508654
-0.00513867
-0.00517646
-0.00519835
-0.00519516
-0.00516748
-0.00509866
-0.00500382
-0.00484522
-0.00463698
-0.00440723
-0.00420068
-0.0040708
-0.148134
-0.148135
-0.148212
-0.1484
-0.148627
-0.148967
-0.149411
-0.149754
-0.150149
-0.150507
-0.150774
-0.150985
-0.151118
-0.151205
-0.151322
-0.151405
-0.151422
-0.151434
-0.151442
-0.151432
-0.151408
-0.151371
-0.151334
-0.151303
-0.151275
-0.15125
-0.15121
-0.151128
-0.151028
-0.150913
-0.150782
-0.150635
-0.150467
-0.150318
-0.15023
-0.295682
-0.295695
-0.295764
-0.295919
-0.296122
-0.296353
-0.29652
-0.296599
-0.296676
-0.296793
-0.296888
-0.296937
-0.296963
-0.296957
-0.296945
-0.296942
-0.296938
-0.296937
-0.296942
-0.296949
-0.29696
-0.296973
-0.296988
-0.297006
-0.297026
-0.297038
-0.297033
-0.297011
-0.296962
-0.29687
-0.296771
-0.296678
-0.296568
-0.296467
-0.296409
-0.442412
-0.442432
-0.442488
-0.442571
-0.442674
-0.44277
-0.442856
-0.442936
-0.442976
-0.442987
-0.442995
-0.442998
-0.442998
-0.442991
-0.442981
-0.442979
-0.442982
-0.442986
-0.442993
-0.443004
-0.443018
-0.443035
-0.443055
-0.443081
-0.443107
-0.443123
-0.443133
-0.443131
-0.443119
-0.443091
-0.443039
-0.442977
-0.442905
-0.44284
-0.442802
-0.588254
-0.58826
-0.588278
-0.588308
-0.588346
-0.588383
-0.588415
-0.588441
-0.588462
-0.588477
-0.588486
-0.588491
-0.58849
-0.588485
-0.588483
-0.588486
-0.588496
-0.588511
-0.588527
-0.588544
-0.588564
-0.588585
-0.588615
-0.588648
-0.588676
-0.588696
-0.58871
-0.588716
-0.588713
-0.588697
-0.588669
-0.588635
-0.588596
-0.588561
-0.588545
-0.734076
-0.73408
-0.734084
-0.734095
-0.734109
-0.734122
-0.734133
-0.734141
-0.734147
-0.734151
-0.734153
-0.734153
-0.734149
-0.734141
-0.734131
-0.734126
-0.734125
-0.734124
-0.734124
-0.734125
-0.734126
-0.734128
-0.734132
-0.734136
-0.734139
-0.734139
-0.734132
-0.73412
-0.734097
-0.734069
-0.734041
-0.734013
-0.733987
-0.733964
-0.733951
-0.879565
-0.879566
-0.879567
-0.879572
-0.879581
-0.879589
-0.879596
-0.879602
-0.879606
-0.87961
-0.879612
-0.879612
-0.87961
-0.879604
-0.879599
-0.879599
-0.879601
-0.879604
-0.879607
-0.879611
-0.879614
-0.879618
-0.879625
-0.879633
-0.879638
-0.879644
-0.879638
-0.879633
-0.879623
-0.879607
-0.879586
-0.879565
-0.879541
-0.879517
-0.8795
-1.02505
-1.02505
-1.02505
-1.02506
-1.02506
-1.02507
-1.02507
-1.02508
-1.02508
-1.02508
-1.02508
-1.02509
-1.02509
-1.02509
-1.02509
-1.0251
-1.02511
-1.02513
-1.02514
-1.02516
-1.02518
-1.0252
-1.02522
-1.02525
-1.02527
-1.02529
-1.02531
-1.02532
-1.02533
-1.02533
-1.02532
-1.0253
-1.02528
-1.02525
-1.02524
-1.17043
-1.17043
-1.17043
-1.17043
-1.17044
-1.17044
-1.17044
-1.17045
-1.17045
-1.17045
-1.17045
-1.17045
-1.17045
-1.17045
-1.17045
-1.17046
-1.17046
-1.17047
-1.17048
-1.17049
-1.17051
-1.17052
-1.17054
-1.17056
-1.17058
-1.1706
-1.17061
-1.17062
-1.17062
-1.17062
-1.1706
-1.17059
-1.17057
-1.17055
-1.17055
-1.31576
-1.31576
-1.31576
-1.31576
-1.31576
-1.31576
-1.31576
-1.31576
-1.31576
-1.31576
-1.31576
-1.31576
-1.31576
-1.31576
-1.31576
-1.31576
-1.31576
-1.31576
-1.31576
-1.31576
-1.31576
-1.31576
-1.31577
-1.31577
-1.31578
-1.31578
-1.31578
-1.31577
-1.31576
-1.31575
-1.31573
-1.31572
-1.31571
-1.3157
-1.3157
-1.46107
-1.46107
-1.46107
-1.46106
-1.46106
-1.46106
-1.46106
-1.46106
-1.46106
-1.46106
-1.46105
-1.46105
-1.46105
-1.46104
-1.46103
-1.46102
-1.46101
-1.461
-1.46099
-1.46098
-1.46097
-1.46095
-1.46094
-1.46093
-1.46092
-1.46091
-1.4609
-1.46088
-1.46087
-1.46086
-1.46085
-1.46085
-1.46084
-1.46083
-1.46083
-1.6064
-1.6064
-1.6064
-1.60639
-1.60639
-1.60639
-1.60639
-1.60639
-1.60639
-1.60639
-1.60638
-1.60638
-1.60638
-1.60637
-1.60636
-1.60635
-1.60633
-1.60632
-1.60631
-1.6063
-1.60628
-1.60626
-1.60625
-1.60624
-1.60622
-1.60621
-1.60619
-1.60618
-1.60617
-1.60616
-1.60616
-1.60616
-1.60616
-1.60614
-1.60614
-1.7517
-1.7517
-1.7517
-1.7517
-1.75171
-1.75171
-1.75171
-1.75171
-1.75172
-1.75172
-1.75172
-1.75173
-1.75173
-1.75173
-1.75174
-1.75175
-1.75176
-1.75177
-1.75179
-1.7518
-1.75182
-1.75184
-1.75186
-1.75189
-1.7519
-1.75192
-1.75193
-1.75195
-1.75196
-1.75196
-1.75195
-1.75194
-1.75192
-1.75191
-1.7519
-1.89696
-1.89696
-1.89696
-1.89696
-1.89696
-1.89696
-1.89697
-1.89697
-1.89697
-1.89698
-1.89698
-1.89698
-1.89699
-1.89699
-1.897
-1.89702
-1.89703
-1.89705
-1.89707
-1.89709
-1.89712
-1.89715
-1.89718
-1.89721
-1.89723
-1.89725
-1.89727
-1.89728
-1.89729
-1.8973
-1.89731
-1.8973
-1.89728
-1.89728
-1.89727
-2.04219
-2.0422
-2.04219
-2.0422
-2.0422
-2.04221
-2.04222
-2.04222
-2.04223
-2.04224
-2.04225
-2.04225
-2.04226
-2.04227
-2.04228
-2.0423
-2.04232
-2.04234
-2.04236
-2.04239
-2.04242
-2.04245
-2.04248
-2.0425
-2.04252
-2.04254
-2.04255
-2.04256
-2.04257
-2.04257
-2.04256
-2.04256
-2.04255
-2.04254
-2.04255
-2.18738
-2.18739
-2.18739
-2.18739
-2.1874
-2.1874
-2.18741
-2.18741
-2.18741
-2.18742
-2.18743
-2.18744
-2.18745
-2.18746
-2.18748
-2.1875
-2.18753
-2.18756
-2.18759
-2.18762
-2.18766
-2.1877
-2.18774
-2.18777
-2.1878
-2.18782
-2.18783
-2.18785
-2.18786
-2.18786
-2.18786
-2.18785
-2.18784
-2.18782
-2.18782
-2.33251
-2.33251
-2.33251
-2.33251
-2.33252
-2.33252
-2.33253
-2.33253
-2.33254
-2.33254
-2.33255
-2.33256
-2.33257
-2.33258
-2.33259
-2.33261
-2.33264
-2.33266
-2.33269
-2.33272
-2.33275
-2.33278
-2.33282
-2.33284
-2.33286
-2.33288
-2.33289
-2.3329
-2.33291
-2.33292
-2.33293
-2.33292
-2.33291
-2.33291
-2.33292
-2.4776
-2.4776
-2.47759
-2.4776
-2.4776
-2.4776
-2.47762
-2.47763
-2.47764
-2.47764
-2.47765
-2.47766
-2.47768
-2.47769
-2.47771
-2.47773
-2.47776
-2.47779
-2.47782
-2.47785
-2.47788
-2.47792
-2.47796
-2.47798
-2.478
-2.47802
-2.47803
-2.47804
-2.47804
-2.47804
-2.47803
-2.47801
-2.47801
-2.47799
-2.478
-2.62268
-2.62268
-2.62268
-2.62268
-2.62268
-2.62269
-2.62269
-2.62269
-2.62269
-2.6227
-2.6227
-2.62271
-2.62271
-2.62272
-2.62274
-2.62275
-2.62277
-2.62279
-2.62281
-2.62283
-2.62286
-2.62288
-2.6229
-2.62292
-2.62294
-2.62295
-2.62296
-2.62296
-2.62296
-2.62295
-2.62293
-2.62292
-2.62292
-2.62291
-2.62292
-2.76771
-2.76771
-2.76771
-2.76771
-2.76772
-2.76772
-2.76772
-2.76773
-2.76774
-2.76774
-2.76775
-2.76775
-2.76776
-2.76777
-2.76777
-2.76778
-2.7678
-2.76781
-2.76782
-2.76783
-2.76784
-2.76786
-2.76787
-2.76788
-2.76789
-2.76789
-2.7679
-2.7679
-2.7679
-2.7679
-2.76791
-2.76791
-2.76791
-2.7679
-2.76791
-2.91272
-2.91272
-2.91272
-2.91272
-2.91272
-2.91273
-2.91274
-2.91274
-2.91275
-2.91275
-2.91275
-2.91275
-2.91275
-2.91276
-2.91276
-2.91276
-2.91277
-2.91277
-2.91278
-2.91278
-2.91279
-2.91279
-2.9128
-2.9128
-2.9128
-2.9128
-2.9128
-2.9128
-2.91279
-2.91278
-2.91279
-2.91279
-2.91279
-2.91279
-2.91279
-3.05777
-3.05777
-3.05777
-3.05777
-3.05777
-3.05777
-3.05777
-3.05777
-3.05777
-3.05777
-3.05777
-3.05777
-3.05777
-3.05776
-3.05776
-3.05776
-3.05776
-3.05776
-3.05775
-3.05775
-3.05775
-3.05774
-3.05774
-3.05773
-3.05773
-3.05772
-3.05771
-3.05771
-3.0577
-3.0577
-3.05769
-3.05769
-3.0577
-3.05771
-3.05773
-3.20282
-3.20283
-3.20282
-3.20282
-3.20282
-3.20282
-3.20282
-3.20282
-3.20282
-3.20282
-3.20282
-3.20282
-3.20282
-3.20282
-3.20282
-3.20282
-3.20282
-3.20282
-3.20282
-3.20283
-3.20283
-3.20283
-3.20284
-3.20284
-3.20285
-3.20285
-3.20285
-3.20286
-3.20286
-3.20287
-3.20286
-3.20284
-3.20282
-3.2028
-3.20281
-3.34782
-3.34782
-3.34782
-3.34782
-3.34782
-3.34782
-3.34783
-3.34783
-3.34783
-3.34783
-3.34783
-3.34783
-3.34783
-3.34783
-3.34783
-3.34783
-3.34783
-3.34783
-3.34784
-3.34784
-3.34784
-3.34785
-3.34785
-3.34785
-3.34785
-3.34786
-3.34786
-3.34786
-3.34785
-3.34785
-3.34785
-3.34784
-3.34783
-3.34783
-3.34783
-3.49283
-3.49283
-3.49283
-3.49283
-3.49284
-3.49284
-3.49283
-3.49284
-3.49284
-3.49284
-3.49284
-3.49284
-3.49284
-3.49284
-3.49284
-3.49284
-3.49284
-3.49283
-3.49283
-3.49283
-3.49283
-3.49283
-3.49283
-3.49283
-3.49283
-3.49283
-3.49282
-3.49282
-3.49282
-3.49283
-3.49284
-3.49287
-3.49288
-3.49287
-3.49287
-3.63789
-3.63789
-3.63789
-3.63789
-3.63788
-3.63787
-3.63787
-3.63787
-3.63787
-3.63787
-3.63787
-3.63787
-3.63787
-3.63787
-3.63787
-3.63787
-3.63787
-3.63787
-3.63787
-3.63787
-3.63787
-3.63787
-3.63787
-3.63787
-3.63787
-3.63787
-3.63787
-3.63787
-3.63788
-3.63788
-3.63787
-3.63788
-3.63788
-3.63788
-3.63789
-3.78291
-3.78291
-3.78291
-3.78291
-3.7829
-3.78291
-3.78291
-3.7829
-3.7829
-3.7829
-3.7829
-3.7829
-3.7829
-3.7829
-3.7829
-3.7829
-3.7829
-3.7829
-3.7829
-3.7829
-3.7829
-3.7829
-3.78289
-3.78289
-3.78289
-3.78289
-3.78288
-3.78287
-3.78286
-3.78285
-3.78284
-3.78282
-3.78282
-3.78281
-3.78283
-3.92794
-3.92794
-3.92793
-3.92794
-3.92794
-3.92794
-3.92794
-3.92794
-3.92794
-3.92795
-3.92795
-3.92795
-3.92795
-3.92795
-3.92795
-3.92795
-3.92795
-3.92796
-3.92796
-3.92796
-3.92796
-3.92796
-3.92796
-3.92797
-3.92797
-3.92797
-3.92797
-3.92797
-3.92798
-3.92799
-3.92801
-3.92801
-3.92799
-3.92797
-3.92798
-4.07303
-4.07304
-4.07303
-4.07303
-4.07303
-4.07303
-4.07303
-4.07303
-4.07304
-4.07304
-4.07304
-4.07304
-4.07303
-4.07303
-4.07303
-4.07303
-4.07303
-4.07302
-4.07302
-4.07302
-4.07302
-4.07302
-4.07302
-4.07302
-4.07302
-4.07302
-4.07303
-4.07303
-4.07304
-4.07304
-4.07303
-4.07303
-4.07303
-4.07302
-4.07303
-4.21808
-4.21809
-4.21809
-4.21809
-4.21809
-4.21809
-4.21809
-4.21809
-4.21808
-4.21808
-4.21807
-4.21807
-4.21806
-4.21806
-4.21806
-4.21806
-4.21805
-4.21805
-4.21805
-4.21804
-4.21804
-4.21804
-4.21804
-4.21804
-4.21803
-4.21803
-4.21803
-4.21802
-4.21802
-4.21801
-4.218
-4.218
-4.21801
-4.21801
-4.21801
-4.3631
-4.3631
-4.3631
-4.3631
-4.3631
-4.3631
-4.36309
-4.36309
-4.36309
-4.36309
-4.36309
-4.36309
-4.36309
-4.36309
-4.36309
-4.36309
-4.36309
-4.36309
-4.36309
-4.36309
-4.36309
-4.36309
-4.36309
-4.36309
-4.36309
-4.36309
-4.36309
-4.36309
-4.36309
-4.3631
-4.36311
-4.3631
-4.3631
-4.36309
-4.36309
-4.50812
-4.50812
-4.50812
-4.50811
-4.50811
-4.50812
-4.50812
-4.50812
-4.50813
-4.50813
-4.50813
-4.50814
-4.50814
-4.50814
-4.50814
-4.50814
-4.50814
-4.50815
-4.50815
-4.50815
-4.50815
-4.50816
-4.50816
-4.50817
-4.50817
-4.50817
-4.50817
-4.50817
-4.50817
-4.50816
-4.50815
-4.50815
-4.50814
-4.50812
-4.50814
-4.65315
-4.65315
-4.65315
-4.65315
-4.65315
-4.65315
-4.65315
-4.65315
-4.65315
-4.65315
-4.65315
-4.65315
-4.65315
-4.65315
-4.65315
-4.65315
-4.65315
-4.65315
-4.65316
-4.65316
-4.65316
-4.65316
-4.65316
-4.65316
-4.65316
-4.65316
-4.65316
-4.65316
-4.65317
-4.65317
-4.65318
-4.6532
-4.65321
-4.65319
-4.6532
-4.79817
-4.79818
-4.79818
-4.79818
-4.79818
-4.79818
-4.79818
-4.79818
-4.79818
-4.79818
-4.79818
-4.79818
-4.79818
-4.79818
-4.79819
-4.79819
-4.79819
-4.79819
-4.79819
-4.79819
-4.79819
-4.79819
-4.79819
-4.79819
-4.79819
-4.79819
-4.79819
-4.7982
-4.7982
-4.79821
-4.7982
-4.79819
-4.79819
-4.79819
-4.7982
-4.9432
-4.9432
-4.9432
-4.9432
-4.9432
-4.9432
-4.9432
-4.9432
-4.94321
-4.94321
-4.94321
-4.94321
-4.94322
-4.94322
-4.94322
-4.94322
-4.94323
-4.94323
-4.94323
-4.94324
-4.94324
-4.94325
-4.94325
-4.94325
-4.94325
-4.94326
-4.94326
-4.94326
-4.94325
-4.94325
-4.94324
-4.94324
-4.94323
-4.94321
-4.94321
-5.08826
-5.08826
-5.08826
-5.08827
-5.08826
-5.08826
-5.08826
-5.08826
-5.08826
-5.08826
-5.08826
-5.08826
-5.08826
-5.08826
-5.08826
-5.08826
-5.08826
-5.08826
-5.08826
-5.08826
-5.08826
-5.08826
-5.08826
-5.08826
-5.08826
-5.08826
-5.08826
-5.08826
-5.08826
-5.08826
-5.08826
-5.08827
-5.08828
-5.08828
-5.08829
-5.2333
-5.2333
-5.2333
-5.2333
-5.2333
-5.23331
-5.23332
-5.23331
-5.23331
-5.23332
-5.23332
-5.23332
-5.23331
-5.23331
-5.23331
-5.23331
-5.23331
-5.23331
-5.23331
-5.23331
-5.23331
-5.23331
-5.23331
-5.23331
-5.23331
-5.23331
-5.23331
-5.23331
-5.23332
-5.23332
-5.23332
-5.2333
-5.2333
-5.23328
-5.23329
-5.37833
-5.37834
-5.37834
-5.37833
-5.37834
-5.37833
-5.37833
-5.37834
-5.37834
-5.37834
-5.37834
-5.37834
-5.37834
-5.37834
-5.37834
-5.37834
-5.37835
-5.37835
-5.37835
-5.37835
-5.37836
-5.37836
-5.37836
-5.37837
-5.37837
-5.37837
-5.37837
-5.37837
-5.37836
-5.37836
-5.37836
-5.37835
-5.37836
-5.37836
-5.37836
-5.52339
-5.52339
-5.52338
-5.52339
-5.52338
-5.52338
-5.52338
-5.52338
-5.52338
-5.52338
-5.52338
-5.52338
-5.52338
-5.52338
-5.52338
-5.52337
-5.52337
-5.52338
-5.52338
-5.52338
-5.52338
-5.52338
-5.52338
-5.52338
-5.52338
-5.52338
-5.52338
-5.52338
-5.52338
-5.52339
-5.5234
-5.52341
-5.52342
-5.52342
-5.52344
-5.66841
-5.66842
-5.66841
-5.66841
-5.66842
-5.66842
-5.66842
-5.66842
-5.66842
-5.66843
-5.66843
-5.66843
-5.66843
-5.66843
-5.66843
-5.66843
-5.66843
-5.66843
-5.66843
-5.66843
-5.66843
-5.66844
-5.66844
-5.66844
-5.66844
-5.66844
-5.66844
-5.66845
-5.66845
-5.66845
-5.66844
-5.66843
-5.66842
-5.66841
-5.66842
-5.81345
-5.81345
-5.81344
-5.81344
-5.81344
-5.81344
-5.81344
-5.81344
-5.81344
-5.81344
-5.81344
-5.81344
-5.81344
-5.81344
-5.81344
-5.81344
-5.81344
-5.81344
-5.81344
-5.81344
-5.81344
-5.81344
-5.81344
-5.81344
-5.81344
-5.81344
-5.81344
-5.81344
-5.81343
-5.81342
-5.81341
-5.81341
-5.8134
-5.81339
-5.8134
-5.95849
-5.9585
-5.9585
-5.9585
-5.95849
-5.95849
-5.95848
-5.95848
-5.95848
-5.95848
-5.95848
-5.95848
-5.95849
-5.95848
-5.95848
-5.95848
-5.95848
-5.95848
-5.95848
-5.95847
-5.95847
-5.95847
-5.95847
-5.95846
-5.95846
-5.95846
-5.95845
-5.95846
-5.95846
-5.95847
-5.95848
-5.95849
-5.95849
-5.95848
-5.95849
-6.10354
-6.10355
-6.10355
-6.10354
-6.10354
-6.10354
-6.10355
-6.10355
-6.10355
-6.10355
-6.10355
-6.10355
-6.10354
-6.10354
-6.10354
-6.10354
-6.10353
-6.10353
-6.10353
-6.10352
-6.10352
-6.10352
-6.10352
-6.10352
-6.10351
-6.10351
-6.10351
-6.10351
-6.10351
-6.10351
-6.10351
-6.1035
-6.10351
-6.10351
-6.10353
-6.24857
-6.24857
-6.24857
-6.24857
-6.24857
-6.24858
-6.24858
-6.24858
-6.24858
-6.24858
-6.24858
-6.24858
-6.24857
-6.24857
-6.24857
-6.24857
-6.24856
-6.24856
-6.24855
-6.24855
-6.24855
-6.24855
-6.24854
-6.24854
-6.24854
-6.24853
-6.24853
-6.24853
-6.24853
-6.24852
-6.24851
-6.24851
-6.24852
-6.24851
-6.24851
-6.39362
-6.39363
-6.39363
-6.39363
-6.39363
-6.39362
-6.39362
-6.39362
-6.39362
-6.39362
-6.39362
-6.39362
-6.39362
-6.39362
-6.39362
-6.39362
-6.39362
-6.39362
-6.39362
-6.39362
-6.39362
-6.39362
-6.39363
-6.39363
-6.39363
-6.39362
-6.39363
-6.39363
-6.39364
-6.39363
-6.39364
-6.39363
-6.39363
-6.39362
-6.39365
-6.53869
-6.53869
-6.53869
-6.53868
-6.53868
-6.53868
-6.53867
-6.53867
-6.53867
-6.53867
-6.53867
-6.53867
-6.53867
-6.53867
-6.53867
-6.53867
-6.53867
-6.53868
-6.53868
-6.53868
-6.53868
-6.53868
-6.53868
-6.53868
-6.53868
-6.53868
-6.53868
-6.53868
-6.53868
-6.53869
-6.53868
-6.53868
-6.53868
-6.53866
-6.53867
-6.68373
-6.68373
-6.68373
-6.68373
-6.68373
-6.68374
-6.68373
-6.68373
-6.68373
-6.68373
-6.68372
-6.68372
-6.68372
-6.68371
-6.68371
-6.68371
-6.6837
-6.6837
-6.6837
-6.68369
-6.68369
-6.68369
-6.68369
-6.68369
-6.68368
-6.68368
-6.68368
-6.68368
-6.68369
-6.6837
-6.6837
-6.6837
-6.6837
-6.68369
-6.68369
-6.82877
-6.82877
-6.82877
-6.82877
-6.82876
-6.82876
-6.82877
-6.82877
-6.82877
-6.82877
-6.82877
-6.82877
-6.82877
-6.82878
-6.82878
-6.82878
-6.82878
-6.82877
-6.82877
-6.82877
-6.82877
-6.82877
-6.82877
-6.82877
-6.82877
-6.82876
-6.82876
-6.82876
-6.82876
-6.82875
-6.82874
-6.82874
-6.82874
-6.82874
-6.82876
-6.97382
-6.97382
-6.97382
-6.97381
-6.97381
-6.97382
-6.97382
-6.97382
-6.97382
-6.97382
-6.97382
-6.97382
-6.97383
-6.97383
-6.97383
-6.97383
-6.97383
-6.97383
-6.97382
-6.97382
-6.97382
-6.97382
-6.97382
-6.97382
-6.97382
-6.97382
-6.97382
-6.97382
-6.97382
-6.97382
-6.97383
-6.97382
-6.97382
-6.97379
-6.97381
-7.1189
-7.11891
-7.11891
-7.11891
-7.11891
-7.11891
-7.11891
-7.11891
-7.1189
-7.1189
-7.1189
-7.1189
-7.11889
-7.11889
-7.11889
-7.11888
-7.11888
-7.11888
-7.11888
-7.11887
-7.11887
-7.11887
-7.11887
-7.11886
-7.11886
-7.11886
-7.11886
-7.11886
-7.11887
-7.11888
-7.11889
-7.11889
-7.11889
-7.11889
-7.11891
-7.26396
-7.26397
-7.26397
-7.26396
-7.26396
-7.26396
-7.26395
-7.26396
-7.26396
-7.26396
-7.26397
-7.26397
-7.26397
-7.26396
-7.26396
-7.26396
-7.26396
-7.26396
-7.26396
-7.26396
-7.26396
-7.26397
-7.26397
-7.26397
-7.26397
-7.26397
-7.26396
-7.26396
-7.26396
-7.26395
-7.26394
-7.26393
-7.26393
-7.26393
-7.26394
-7.40903
-7.40903
-7.40903
-7.40903
-7.40903
-7.40903
-7.40903
-7.40903
-7.40903
-7.40903
-7.40902
-7.40902
-7.40902
-7.40902
-7.40902
-7.40902
-7.40902
-7.40901
-7.40901
-7.40901
-7.40901
-7.40901
-7.40901
-7.40901
-7.40901
-7.40901
-7.40901
-7.40901
-7.40901
-7.409
-7.409
-7.40899
-7.40899
-7.40898
-7.40898
-7.55409
-7.55409
-7.55409
-7.55409
-7.55409
-7.55409
-7.55409
-7.55409
-7.55409
-7.55408
-7.55408
-7.55408
-7.55408
-7.55407
-7.55407
-7.55407
-7.55407
-7.55407
-7.55407
-7.55407
-7.55406
-7.55406
-7.55406
-7.55406
-7.55406
-7.55406
-7.55406
-7.55406
-7.55407
-7.55408
-7.55409
-7.5541
-7.55409
-7.55407
-7.55407
-7.69912
-7.69912
-7.69912
-7.69912
-7.69912
-7.69912
-7.69912
-7.69912
-7.69913
-7.69913
-7.69913
-7.69913
-7.69914
-7.69914
-7.69914
-7.69914
-7.69914
-7.69914
-7.69914
-7.69914
-7.69914
-7.69914
-7.69914
-7.69914
-7.69914
-7.69914
-7.69914
-7.69914
-7.69915
-7.69914
-7.69913
-7.69913
-7.69913
-7.69914
-7.69916
-7.84417
-7.84418
-7.84417
-7.84417
-7.84417
-7.84418
-7.84418
-7.84418
-7.84419
-7.84419
-7.84419
-7.84419
-7.84419
-7.84419
-7.84419
-7.84419
-7.84419
-7.84418
-7.84418
-7.84418
-7.84418
-7.84418
-7.84418
-7.84418
-7.84418
-7.84417
-7.84417
-7.84417
-7.84417
-7.84417
-7.84417
-7.84418
-7.8442
-7.84419
-7.84419
-7.98927
-7.98928
-7.98928
-7.98928
-7.98928
-7.98928
-7.98928
-7.98928
-7.98927
-7.98927
-7.98926
-7.98926
-7.98926
-7.98926
-7.98926
-7.98925
-7.98925
-7.98925
-7.98924
-7.98924
-7.98923
-7.98923
-7.98923
-7.98922
-7.98922
-7.98921
-7.98921
-7.98921
-7.98921
-7.98922
-7.98923
-7.98923
-7.98923
-7.98923
-7.98926
-8.13436
-8.13437
-8.13436
-8.13437
-8.13436
-8.13436
-8.13435
-8.13435
-8.13435
-8.13435
-8.13435
-8.13435
-8.13435
-8.13435
-8.13435
-8.13435
-8.13434
-8.13434
-8.13434
-8.13433
-8.13433
-8.13433
-8.13433
-8.13432
-8.13432
-8.13432
-8.13431
-8.13432
-8.13432
-8.13432
-8.13431
-8.1343
-8.13428
-8.13425
-8.13426
-8.27941
-8.27942
-8.27942
-8.27942
-8.27942
-8.27942
-8.27942
-8.27943
-8.27943
-8.27943
-8.27943
-8.27943
-8.27943
-8.27943
-8.27942
-8.27942
-8.27942
-8.27942
-8.27942
-8.27942
-8.27942
-8.27942
-8.27943
-8.27943
-8.27943
-8.27942
-8.27943
-8.27943
-8.27943
-8.27943
-8.27943
-8.27943
-8.27942
-8.27941
-8.27942
-8.42451
-8.42452
-8.42451
-8.42451
-8.42451
-8.42452
-8.42452
-8.42452
-8.42451
-8.42451
-8.42451
-8.42451
-8.42451
-8.42451
-8.42451
-8.4245
-8.42451
-8.42451
-8.42451
-8.42451
-8.42451
-8.42451
-8.42451
-8.42451
-8.42451
-8.42451
-8.42451
-8.4245
-8.4245
-8.4245
-8.42451
-8.42451
-8.42453
-8.42453
-8.42454
-8.56958
-8.56958
-8.56958
-8.56958
-8.56958
-8.56957
-8.56957
-8.56957
-8.56957
-8.56957
-8.56956
-8.56956
-8.56957
-8.56957
-8.56957
-8.56957
-8.56957
-8.56957
-8.56957
-8.56957
-8.56957
-8.56958
-8.56958
-8.56958
-8.56958
-8.56957
-8.56957
-8.56957
-8.56957
-8.56956
-8.56956
-8.56954
-8.56954
-8.56953
-8.56955
-8.7146
-8.71461
-8.7146
-8.71461
-8.71461
-8.71461
-8.71461
-8.71462
-8.71462
-8.71462
-8.71462
-8.71463
-8.71462
-8.71462
-8.71462
-8.71462
-8.71462
-8.71462
-8.71462
-8.71463
-8.71463
-8.71463
-8.71464
-8.71464
-8.71464
-8.71464
-8.71464
-8.71465
-8.71466
-8.71466
-8.71466
-8.71466
-8.71465
-8.71462
-8.71463
-8.85966
-8.85966
-8.85966
-8.85966
-8.85967
-8.85967
-8.85967
-8.85967
-8.85967
-8.85967
-8.85967
-8.85967
-8.85967
-8.85967
-8.85968
-8.85968
-8.85968
-8.85968
-8.85968
-8.85969
-8.85969
-8.8597
-8.8597
-8.8597
-8.8597
-8.8597
-8.8597
-8.85971
-8.85971
-8.85972
-8.85973
-8.85973
-8.85974
-8.85974
-8.85975
-9.00473
-9.00474
-9.00474
-9.00474
-9.00473
-9.00472
-9.00472
-9.00472
-9.00472
-9.00472
-9.00472
-9.00472
-9.00472
-9.00472
-9.00472
-9.00473
-9.00473
-9.00473
-9.00473
-9.00473
-9.00473
-9.00473
-9.00474
-9.00473
-9.00473
-9.00473
-9.00472
-9.00472
-9.00472
-9.00471
-9.00471
-9.00471
-9.00472
-9.00471
-9.00471
-9.1498
-9.1498
-9.14979
-9.14979
-9.14979
-9.14979
-9.14979
-9.14979
-9.14979
-9.14979
-9.14979
-9.14979
-9.14979
-9.14979
-9.14979
-9.14978
-9.14978
-9.14978
-9.14977
-9.14977
-9.14977
-9.14976
-9.14976
-9.14976
-9.14975
-9.14975
-9.14975
-9.14975
-9.14976
-9.14975
-9.14974
-9.14973
-9.14972
-9.14969
-9.1497
-9.29483
-9.29484
-9.29484
-9.29484
-9.29484
-9.29484
-9.29484
-9.29484
-9.29484
-9.29484
-9.29484
-9.29484
-9.29484
-9.29484
-9.29483
-9.29483
-9.29483
-9.29483
-9.29482
-9.29482
-9.29482
-9.29482
-9.29482
-9.29481
-9.29481
-9.29481
-9.29481
-9.29481
-9.29482
-9.29482
-9.29483
-9.29482
-9.29482
-9.29478
-9.29478
-9.43989
-9.4399
-9.43989
-9.43989
-9.43988
-9.43988
-9.43988
-9.43988
-9.43988
-9.43988
-9.43988
-9.43988
-9.43988
-9.43988
-9.43988
-9.43988
-9.43988
-9.43988
-9.43988
-9.43988
-9.43988
-9.43989
-9.43989
-9.43989
-9.43988
-9.43988
-9.43988
-9.43988
-9.43989
-9.43988
-9.43988
-9.43987
-9.43987
-9.43987
-9.43989
-9.58496
-9.58496
-9.58496
-9.58496
-9.58496
-9.58496
-9.58496
-9.58496
-9.58496
-9.58496
-9.58496
-9.58496
-9.58496
-9.58496
-9.58496
-9.58495
-9.58495
-9.58495
-9.58495
-9.58495
-9.58495
-9.58495
-9.58494
-9.58494
-9.58494
-9.58494
-9.58494
-9.58494
-9.58494
-9.58494
-9.58494
-9.58494
-9.58493
-9.58492
-9.58497
-9.73
-9.73
-9.73
-9.73
-9.73001
-9.73001
-9.73001
-9.73001
-9.73001
-9.73001
-9.73001
-9.73001
-9.73001
-9.73001
-9.73001
-9.73001
-9.73001
-9.73001
-9.73001
-9.73
-9.73
-9.73
-9.73
-9.73
-9.73
-9.73
-9.72999
-9.72999
-9.73
-9.73001
-9.73002
-9.73001
-9.73002
-9.73
-9.73001
-9.87507
-9.87508
-9.87508
-9.87507
-9.87507
-9.87507
-9.87508
-9.87508
-9.87508
-9.87508
-9.87508
-9.87508
-9.87508
-9.87508
-9.87508
-9.87508
-9.87508
-9.87508
-9.87508
-9.87508
-9.87508
-9.87509
-9.87509
-9.87509
-9.87508
-9.87508
-9.87508
-9.87509
-9.87509
-9.87508
-9.87507
-9.87507
-9.87506
-9.87504
-9.87506
-10.0202
-10.0202
-10.0202
-10.0202
-10.0202
-10.0202
-10.0202
-10.0202
-10.0202
-10.0202
-10.0202
-10.0202
-10.0202
-10.0202
-10.0202
-10.0202
-10.0202
-10.0202
-10.0201
-10.0201
-10.0201
-10.0202
-10.0202
-10.0202
-10.0202
-10.0201
-10.0201
-10.0201
-10.0201
-10.0201
-10.0201
-10.0201
-10.0201
-10.0201
-10.0202
-10.1652
-10.1652
-10.1652
-10.1652
-10.1652
-10.1652
-10.1652
-10.1652
-10.1652
-10.1652
-10.1652
-10.1652
-10.1652
-10.1652
-10.1652
-10.1652
-10.1652
-10.1652
-10.1652
-10.1652
-10.1652
-10.1652
-10.1652
-10.1652
-10.1652
-10.1652
-10.1652
-10.1652
-10.1652
-10.1652
-10.1652
-10.1652
-10.1652
-10.1652
-10.1652
-10.3103
-10.3103
-10.3103
-10.3103
-10.3103
-10.3103
-10.3103
-10.3103
-10.3103
-10.3103
-10.3103
-10.3103
-10.3103
-10.3103
-10.3103
-10.3103
-10.3103
-10.3103
-10.3103
-10.3103
-10.3103
-10.3103
-10.3103
-10.3103
-10.3103
-10.3103
-10.3103
-10.3103
-10.3103
-10.3103
-10.3102
-10.3103
-10.3103
-10.3103
-10.3103
-10.4554
-10.4554
-10.4554
-10.4554
-10.4554
-10.4554
-10.4554
-10.4553
-10.4553
-10.4553
-10.4553
-10.4553
-10.4553
-10.4553
-10.4553
-10.4553
-10.4553
-10.4553
-10.4553
-10.4553
-10.4553
-10.4553
-10.4553
-10.4553
-10.4553
-10.4553
-10.4553
-10.4553
-10.4553
-10.4553
-10.4553
-10.4553
-10.4553
-10.4553
-10.4553
-10.6004
-10.6004
-10.6004
-10.6004
-10.6004
-10.6004
-10.6004
-10.6004
-10.6004
-10.6004
-10.6004
-10.6004
-10.6004
-10.6004
-10.6004
-10.6004
-10.6004
-10.6004
-10.6004
-10.6004
-10.6004
-10.6004
-10.6004
-10.6004
-10.6004
-10.6004
-10.6004
-10.6004
-10.6004
-10.6004
-10.6004
-10.6004
-10.6004
-10.6004
-10.6004
-10.7454
-10.7454
-10.7454
-10.7454
-10.7454
-10.7454
-10.7454
-10.7454
-10.7454
-10.7455
-10.7455
-10.7455
-10.7454
-10.7454
-10.7454
-10.7454
-10.7454
-10.7454
-10.7454
-10.7454
-10.7454
-10.7454
-10.7455
-10.7455
-10.7454
-10.7454
-10.7454
-10.7455
-10.7455
-10.7455
-10.7455
-10.7455
-10.7455
-10.7454
-10.7455
-10.8905
-10.8905
-10.8905
-10.8905
-10.8905
-10.8905
-10.8905
-10.8905
-10.8905
-10.8905
-10.8905
-10.8905
-10.8905
-10.8905
-10.8905
-10.8905
-10.8905
-10.8905
-10.8905
-10.8905
-10.8905
-10.8905
-10.8905
-10.8905
-10.8905
-10.8905
-10.8905
-10.8905
-10.8905
-10.8905
-10.8905
-10.8905
-10.8905
-10.8904
-10.8904
-11.0355
-11.0355
-11.0355
-11.0355
-11.0355
-11.0355
-11.0355
-11.0355
-11.0355
-11.0355
-11.0355
-11.0355
-11.0355
-11.0355
-11.0355
-11.0355
-11.0355
-11.0355
-11.0355
-11.0355
-11.0355
-11.0355
-11.0355
-11.0355
-11.0355
-11.0355
-11.0355
-11.0355
-11.0355
-11.0355
-11.0355
-11.0355
-11.0355
-11.0355
-11.0355
-11.1806
-11.1806
-11.1806
-11.1806
-11.1806
-11.1806
-11.1806
-11.1806
-11.1806
-11.1806
-11.1806
-11.1806
-11.1806
-11.1806
-11.1806
-11.1806
-11.1806
-11.1806
-11.1806
-11.1806
-11.1806
-11.1806
-11.1806
-11.1806
-11.1806
-11.1806
-11.1806
-11.1806
-11.1806
-11.1806
-11.1806
-11.1806
-11.1806
-11.1805
-11.1805
-11.3256
-11.3256
-11.3256
-11.3257
-11.3256
-11.3256
-11.3256
-11.3256
-11.3256
-11.3256
-11.3256
-11.3256
-11.3256
-11.3256
-11.3256
-11.3256
-11.3256
-11.3256
-11.3256
-11.3256
-11.3256
-11.3256
-11.3256
-11.3256
-11.3256
-11.3256
-11.3256
-11.3256
-11.3256
-11.3256
-11.3256
-11.3256
-11.3256
-11.3256
-11.3257
-11.4707
-11.4707
-11.4707
-11.4707
-11.4707
-11.4707
-11.4707
-11.4707
-11.4707
-11.4707
-11.4707
-11.4707
-11.4707
-11.4707
-11.4707
-11.4707
-11.4707
-11.4707
-11.4707
-11.4707
-11.4707
-11.4707
-11.4707
-11.4707
-11.4707
-11.4707
-11.4707
-11.4707
-11.4707
-11.4707
-11.4707
-11.4707
-11.4707
-11.4707
-11.4707
-11.6157
-11.6158
-11.6157
-11.6157
-11.6157
-11.6157
-11.6157
-11.6157
-11.6157
-11.6157
-11.6157
-11.6157
-11.6157
-11.6157
-11.6157
-11.6157
-11.6157
-11.6157
-11.6157
-11.6157
-11.6157
-11.6157
-11.6157
-11.6157
-11.6157
-11.6157
-11.6157
-11.6157
-11.6157
-11.6157
-11.6157
-11.6157
-11.6157
-11.6157
-11.6157
-11.7608
-11.7608
-11.7608
-11.7608
-11.7608
-11.7608
-11.7608
-11.7608
-11.7608
-11.7608
-11.7608
-11.7608
-11.7608
-11.7608
-11.7608
-11.7608
-11.7608
-11.7608
-11.7608
-11.7608
-11.7608
-11.7608
-11.7608
-11.7608
-11.7608
-11.7608
-11.7608
-11.7608
-11.7608
-11.7608
-11.7608
-11.7608
-11.7608
-11.7607
-11.7607
-11.9059
-11.9059
-11.9059
-11.9059
-11.9059
-11.9059
-11.9059
-11.9059
-11.9059
-11.9059
-11.9059
-11.9059
-11.9059
-11.9059
-11.9059
-11.9059
-11.9059
-11.9059
-11.9059
-11.9059
-11.9058
-11.9058
-11.9058
-11.9058
-11.9058
-11.9058
-11.9058
-11.9058
-11.9058
-11.9059
-11.9059
-11.9059
-11.9058
-11.9058
-11.9059
-12.0509
-12.0509
-12.0509
-12.0509
-12.0509
-12.0509
-12.0509
-12.0509
-12.0509
-12.0509
-12.0509
-12.0509
-12.0509
-12.0509
-12.0509
-12.0509
-12.0509
-12.0509
-12.0509
-12.0509
-12.0509
-12.0509
-12.0509
-12.0509
-12.0509
-12.0509
-12.0509
-12.0509
-12.0509
-12.0509
-12.0509
-12.0509
-12.0509
-12.0509
-12.0509
-12.196
-12.196
-12.196
-12.196
-12.196
-12.196
-12.196
-12.196
-12.196
-12.196
-12.196
-12.196
-12.196
-12.196
-12.196
-12.196
-12.196
-12.196
-12.196
-12.1959
-12.1959
-12.1959
-12.1959
-12.1959
-12.1959
-12.1959
-12.1959
-12.1959
-12.1959
-12.1959
-12.1959
-12.1959
-12.1959
-12.1959
-12.1959
-12.341
-12.341
-12.341
-12.341
-12.341
-12.341
-12.341
-12.341
-12.341
-12.341
-12.341
-12.341
-12.341
-12.341
-12.341
-12.341
-12.341
-12.341
-12.341
-12.341
-12.341
-12.341
-12.341
-12.341
-12.341
-12.341
-12.341
-12.341
-12.341
-12.341
-12.341
-12.341
-12.341
-12.341
-12.341
-12.486
-12.486
-12.486
-12.486
-12.486
-12.486
-12.486
-12.486
-12.486
-12.486
-12.486
-12.486
-12.486
-12.486
-12.486
-12.486
-12.486
-12.486
-12.486
-12.486
-12.486
-12.486
-12.486
-12.486
-12.486
-12.486
-12.486
-12.486
-12.486
-12.486
-12.486
-12.486
-12.486
-12.486
-12.486
-12.6311
-12.6311
-12.6311
-12.6311
-12.6311
-12.6311
-12.6311
-12.6311
-12.6311
-12.6311
-12.6311
-12.6311
-12.6311
-12.6311
-12.6311
-12.6311
-12.6311
-12.6311
-12.6311
-12.6311
-12.6311
-12.6311
-12.6311
-12.6311
-12.6311
-12.6311
-12.6311
-12.6311
-12.6311
-12.6311
-12.6311
-12.6311
-12.6311
-12.631
-12.631
-12.7761
-12.7761
-12.7761
-12.7761
-12.7761
-12.7761
-12.7761
-12.7761
-12.7761
-12.7761
-12.7761
-12.7761
-12.7761
-12.7761
-12.7761
-12.7761
-12.7761
-12.7761
-12.7761
-12.7761
-12.7761
-12.7761
-12.7761
-12.7761
-12.7761
-12.7761
-12.7761
-12.7761
-12.7761
-12.7761
-12.7761
-12.7761
-12.7761
-12.7761
-12.7761
-12.9211
-12.9212
-12.9212
-12.9212
-12.9212
-12.9212
-12.9212
-12.9212
-12.9212
-12.9212
-12.9212
-12.9212
-12.9212
-12.9212
-12.9212
-12.9212
-12.9211
-12.9211
-12.9211
-12.9211
-12.9211
-12.9211
-12.9211
-12.9211
-12.9211
-12.9211
-12.9211
-12.9211
-12.9212
-12.9212
-12.9212
-12.9212
-12.9212
-12.9211
-12.9211
-13.0662
-13.0662
-13.0662
-13.0662
-13.0662
-13.0662
-13.0662
-13.0662
-13.0662
-13.0662
-13.0662
-13.0662
-13.0662
-13.0662
-13.0662
-13.0662
-13.0662
-13.0662
-13.0662
-13.0662
-13.0662
-13.0662
-13.0662
-13.0662
-13.0662
-13.0662
-13.0662
-13.0662
-13.0662
-13.0662
-13.0662
-13.0661
-13.0661
-13.0661
-13.0662
-13.2112
-13.2112
-13.2112
-13.2112
-13.2112
-13.2112
-13.2112
-13.2112
-13.2112
-13.2112
-13.2112
-13.2112
-13.2112
-13.2112
-13.2112
-13.2112
-13.2112
-13.2112
-13.2112
-13.2112
-13.2112
-13.2112
-13.2112
-13.2112
-13.2112
-13.2112
-13.2112
-13.2112
-13.2112
-13.2112
-13.2112
-13.2112
-13.2112
-13.2111
-13.2112
-13.3562
-13.3562
-13.3562
-13.3563
-13.3563
-13.3563
-13.3563
-13.3563
-13.3563
-13.3563
-13.3563
-13.3563
-13.3563
-13.3563
-13.3563
-13.3563
-13.3563
-13.3563
-13.3563
-13.3563
-13.3563
-13.3563
-13.3563
-13.3563
-13.3563
-13.3563
-13.3563
-13.3563
-13.3563
-13.3563
-13.3563
-13.3563
-13.3563
-13.3562
-13.3562
-13.5013
-13.5013
-13.5013
-13.5013