/*--------------------------------*- C++ -*----------------------------------*\
  =========                 |
  \\      /  F ield         | OpenFOAM: The Open Source CFD Toolbox
   \\    /   O peration     | Website:  https://openfoam.org
    \\  /    A nd           | Version:  13
     \\/     M anipulation  |
\*---------------------------------------------------------------------------*/
FoamFile
{
    format      ascii;
    class       surfaceScalarField;
    location    "9";
    object      phi;
}
// * * * * * * * * * * * * * * * * * * * * * * * * * * * * * * * * * * * * * //

dimensions      [0 3 -1 0 0 0 0];

internalField   nonuniform List<scalar> 
228225
(
3.76583e-06
-1.22961e-07
2.33608e-07
5.06576e-06
-1.70661e-06
4.07944e-07
7.99699e-06
-3.3973e-06
4.67137e-07
1.20503e-05
-4.51785e-06
4.65442e-07
1.65423e-05
-4.91016e-06
4.18859e-07
2.11123e-05
-4.94974e-06
3.80312e-07
2.5471e-05
-4.68349e-06
3.25353e-07
2.92706e-05
-4.08712e-06
2.88064e-07
3.24939e-05
-3.48103e-06
2.58332e-07
3.50387e-05
-2.78672e-06
2.42405e-07
3.68651e-05
-2.0767e-06
2.51091e-07
3.79306e-05
-1.31622e-06
2.51411e-07
3.84734e-05
-7.72386e-07
2.30224e-07
3.8493e-05
-2.23315e-07
2.04172e-07
3.82094e-05
1.0586e-07
1.78339e-07
3.7707e-05
3.47986e-07
1.55079e-07
3.70309e-05
5.46732e-07
1.30171e-07
3.62578e-05
6.66388e-07
1.07475e-07
3.53768e-05
7.97097e-07
8.47673e-08
3.43733e-05
9.43669e-07
6.06963e-08
3.32689e-05
1.06691e-06
3.8453e-08
3.20892e-05
1.15831e-06
2.23262e-08
3.08872e-05
1.18885e-06
1.41698e-08
2.96824e-05
1.19286e-06
1.29559e-08
2.84759e-05
1.19081e-06
1.6745e-08
2.72397e-05
1.21363e-06
2.36975e-08
2.59171e-05
1.29084e-06
3.30021e-08
2.43924e-05
1.48462e-06
4.14095e-08
2.25857e-05
1.755e-06
5.32203e-08
2.03503e-05
2.17724e-06
5.96794e-08
1.75851e-05
2.70372e-06
6.32135e-08
1.41129e-05
3.41155e-06
6.23741e-08
9.79131e-06
4.25391e-06
7.10728e-08
4.60941e-06
5.10106e-06
8.55948e-08
4.546e-06
6.36093e-08
1.49255e-06
-1.81341e-06
2.01209e-07
5.13927e-06
-5.61593e-06
2.65703e-07
8.96132e-06
-7.43658e-06
2.19464e-07
1.21677e-05
-7.90923e-06
1.86825e-07
1.46917e-05
-7.61322e-06
1.80402e-07
1.6589e-05
-7.03537e-06
1.89613e-07
1.77827e-05
-6.09012e-06
2.1448e-07
1.8589e-05
-5.12499e-06
2.33199e-07
1.90321e-05
-4.16593e-06
2.43437e-07
1.91711e-05
-3.17951e-06
2.55526e-07
1.90199e-05
-2.18914e-06
2.65568e-07
1.86885e-05
-1.25951e-06
2.76749e-07
1.81804e-05
-5.5302e-07
2.91089e-07
1.76428e-05
3.28289e-08
2.83236e-07
1.71273e-05
3.61545e-07
2.61055e-07
1.67013e-05
5.30981e-07
2.44673e-07
1.6349e-05
6.67981e-07
2.33011e-07
1.60424e-05
7.50911e-07
2.24009e-07
1.58324e-05
7.90583e-07
2.18471e-07
1.57394e-05
8.23667e-07
2.14824e-07
1.57446e-05
8.52343e-07
2.11287e-07
1.58252e-05
8.71082e-07
2.08906e-07
1.5927e-05
8.81936e-07
2.07088e-07
1.59962e-05
9.19571e-07
2.06053e-07
1.59847e-05
9.96086e-07
2.0819e-07
1.58422e-05
1.15133e-06
2.06614e-07
1.55047e-05
1.42902e-06
2.01665e-07
1.49119e-05
1.88655e-06
1.93864e-07
1.40101e-05
2.47297e-06
1.87021e-07
1.27901e-05
3.21623e-06
1.84509e-07
1.10352e-05
4.28337e-06
1.79046e-07
8.67845e-06
5.60411e-06
1.6835e-07
5.68902e-06
7.09111e-06
1.57206e-07
2.33893e-06
8.31884e-06
1.38046e-07
6.79596e-06
8.9147e-08
1.35509e-06
-3.28276e-06
1.18611e-07
3.34288e-06
-7.73201e-06
1.31125e-07
4.84654e-06
-9.06259e-06
1.24282e-07
5.84825e-06
-9.03196e-06
1.22737e-07
6.63602e-06
-8.52561e-06
1.26397e-07
7.09027e-06
-7.61287e-06
1.25414e-07
7.39306e-06
-6.52559e-06
1.35297e-07
7.48453e-06
-5.3627e-06
1.48855e-07
7.38198e-06
-4.21714e-06
1.5638e-07
7.16565e-06
-3.12755e-06
1.67421e-07
6.88651e-06
-2.0855e-06
1.78956e-07
6.59235e-06
-1.14222e-06
1.7993e-07
6.40882e-06
-5.36317e-07
1.68903e-07
6.53426e-06
-2.48346e-07
1.57207e-07
6.866e-06
-1.20804e-07
1.52146e-07
7.28065e-06
-3.36388e-08
1.51747e-07
7.76588e-06
3.1377e-08
1.53336e-07
8.28824e-06
7.50072e-08
1.55637e-07
8.81672e-06
1.05866e-07
1.58425e-07
9.34616e-06
1.34727e-07
1.61781e-07
9.86659e-06
1.68177e-07
1.66047e-07
1.03547e-05
2.14253e-07
1.70976e-07
1.07751e-05
2.87796e-07
1.75791e-07
1.11042e-05
4.1287e-07
1.79618e-07
1.13008e-05
6.19039e-07
1.82951e-07
1.13226e-05
9.44643e-07
1.88055e-07
1.11288e-05
1.43031e-06
1.96494e-07
1.0713e-05
2.09853e-06
2.08002e-07
1.00181e-05
2.95823e-06
2.13702e-07
9.02134e-06
3.99974e-06
2.17564e-07
7.673e-06
5.41912e-06
2.17222e-07
5.91497e-06
7.16205e-06
2.04238e-07
3.73495e-06
9.09312e-06
1.82575e-07
1.39289e-06
1.05124e-05
1.53927e-07
8.09496e-06
9.40598e-08
7.89318e-07
-4.12343e-06
5.65206e-08
1.52822e-06
-8.52221e-06
5.43726e-08
2.02656e-06
-9.60705e-06
4.84316e-08
2.43892e-06
-9.4896e-06
4.7393e-08
2.75024e-06
-8.88304e-06
4.84112e-08
3.00296e-06
-7.91577e-06
5.26913e-08
3.18421e-06
-6.76073e-06
5.65342e-08
3.32263e-06
-5.56037e-06
6.24034e-08
3.44508e-06
-4.41414e-06
7.82707e-08
3.56123e-06
-3.33052e-06
9.08874e-08
3.72867e-06
-2.35091e-06
1.02147e-07
4.01317e-06
-1.53236e-06
1.09303e-07
4.3381e-06
-9.67778e-07
1.0921e-07
4.66462e-06
-6.77588e-07
1.04609e-07
4.98523e-06
-5.40201e-07
1.00347e-07
5.32094e-06
-4.66967e-07
9.92261e-08
5.67099e-06
-4.17819e-07
1.0087e-07
6.02898e-06
-3.84937e-07
1.03764e-07
6.38775e-06
-3.58757e-07
1.07723e-07
6.74377e-06
-3.32383e-07
1.13019e-07
7.09008e-06
-2.95794e-07
1.19552e-07
7.41688e-06
-2.37877e-07
1.27187e-07
7.72098e-06
-1.50006e-07
1.35659e-07
7.97949e-06
1.15899e-08
1.45123e-07
8.16665e-06
2.77892e-07
1.5706e-07
8.32748e-06
6.14291e-07
1.73482e-07
8.36383e-06
1.20418e-06
1.94565e-07
8.20787e-06
2.04344e-06
2.1665e-07
7.79097e-06
3.14255e-06
2.38293e-07
7.0315e-06
4.50785e-06
2.56549e-07
5.89025e-06
6.299e-06
2.66076e-07
4.2795e-06
8.51897e-06
2.57702e-07
2.35644e-06
1.07958e-05
2.24639e-07
6.1965e-07
1.20892e-05
1.65323e-07
8.62385e-06
9.09266e-08
2.58201e-07
-4.41814e-06
4.15672e-08
6.60148e-07
-8.96543e-06
4.41746e-08
1.00816e-06
-9.98575e-06
3.30112e-08
1.29977e-06
-9.80544e-06
2.64627e-08
1.50342e-06
-9.1073e-06
2.29673e-08
1.6416e-06
-8.07362e-06
2.22182e-08
1.75897e-06
-6.90016e-06
2.48931e-08
1.88812e-06
-5.71649e-06
3.01065e-08
2.02725e-06
-4.58636e-06
3.66126e-08
2.20053e-06
-3.54411e-06
4.41689e-08
2.42203e-06
-2.62031e-06
5.18135e-08
2.70515e-06
-1.86996e-06
5.79644e-08
3.03519e-06
-1.35635e-06
6.12308e-08
3.37294e-06
-1.07532e-06
6.20215e-08
3.70797e-06
-9.35464e-07
6.19569e-08
4.03628e-06
-8.56104e-07
6.24228e-08
4.36148e-06
-8.0563e-07
6.41763e-08
4.6807e-06
-7.69946e-07
6.74743e-08
4.98814e-06
-7.36913e-07
7.25414e-08
5.28058e-06
-7.01397e-07
7.84805e-08
5.55383e-06
-6.52421e-07
8.51724e-08
5.80391e-06
-5.78451e-07
9.2238e-08
6.02824e-06
-4.71467e-07
9.93301e-08
6.20971e-06
-2.75614e-07
1.08342e-07
6.30911e-06
6.15331e-08
1.19917e-07
6.38604e-06
4.08622e-07
1.32998e-07
6.34182e-06
1.10278e-06
1.51544e-07
6.14496e-06
2.07351e-06
1.73053e-07
5.73365e-06
3.35888e-06
2.00829e-07
4.99074e-06
5.0232e-06
2.32951e-07
3.91733e-06
7.11559e-06
2.6148e-07
2.60668e-06
9.55973e-06
2.73662e-07
1.29618e-06
1.18565e-05
2.53869e-07
2.86261e-07
1.29147e-05
1.89774e-07
8.82999e-06
8.02917e-08
1.90801e-07
-4.62242e-06
1.82971e-08
3.94632e-07
-9.18382e-06
1.73127e-08
6.09564e-07
-1.02133e-05
1.48862e-08
8.21145e-07
-1.00286e-05
1.37685e-08
1.02266e-06
-9.31982e-06
1.32743e-08
1.20884e-06
-8.27128e-06
1.39302e-08
1.38208e-06
-7.0865e-06
1.57858e-08
1.55114e-06
-5.9015e-06
1.89095e-08
1.73079e-06
-4.78589e-06
2.31478e-08
1.93387e-06
-3.77188e-06
2.82916e-08
2.16558e-06
-2.8819e-06
3.36463e-08
2.41912e-06
-2.1582e-06
3.81141e-08
2.67939e-06
-1.65471e-06
4.0739e-08
2.93547e-06
-1.37117e-06
4.17227e-08
3.18665e-06
-1.22715e-06
4.21592e-08
3.43325e-06
-1.14428e-06
4.31757e-08
3.67325e-06
-1.08921e-06
4.52619e-08
3.90544e-06
-1.04872e-06
4.83474e-08
4.13026e-06
-1.01227e-06
5.23758e-08
4.34316e-06
-9.69665e-07
5.7225e-08
4.54001e-06
-9.10118e-07
6.26584e-08
4.71807e-06
-8.22982e-07
6.84416e-08
4.86794e-06
-6.93175e-07
7.43017e-08
4.98925e-06
-4.75504e-07
8.14944e-08
5.04489e-06
-8.10941e-08
9.04164e-08
4.99234e-06
3.65016e-07
1.01076e-07
4.8825e-06
1.10277e-06
1.16025e-07
4.67666e-06
2.15182e-06
1.3339e-07
4.29985e-06
3.58358e-06
1.57643e-07
3.75474e-06
5.38461e-06
1.89022e-07
3.13464e-06
7.51309e-06
2.27144e-07
2.4145e-06
1.0024e-05
2.59508e-07
1.49689e-06
1.25106e-05
2.67377e-07
5.09265e-07
1.36815e-05
2.25786e-07
9.23445e-06
1.04962e-07
1.20093e-07
-4.74416e-06
6.30462e-09
3.25452e-07
-9.38365e-06
-2.90747e-09
5.08615e-07
-1.03848e-05
-9.49423e-09
6.70135e-07
-1.01764e-05
-1.16528e-08
8.09319e-07
-9.44415e-06
-1.26587e-08
9.36649e-07
-8.38354e-06
-1.26979e-08
1.0637e-06
-7.19939e-06
-1.15797e-08
1.19855e-06
-6.02436e-06
-9.15027e-09
1.34693e-06
-4.92577e-06
-5.37326e-09
1.51609e-06
-3.93717e-06
-4.77258e-10
1.71291e-06
-3.08031e-06
5.09423e-09
1.93716e-06
-2.38975e-06
1.05084e-08
2.17551e-06
-1.90532e-06
1.47963e-08
2.41411e-06
-1.62534e-06
1.74822e-08
2.65021e-06
-1.48067e-06
1.90434e-08
2.88445e-06
-1.39738e-06
2.04728e-08
3.11648e-06
-1.34199e-06
2.24099e-08
3.34523e-06
-1.30061e-06
2.48923e-08
3.56921e-06
-1.26231e-06
2.78696e-08
3.78674e-06
-1.2166e-06
3.12494e-08
3.99665e-06
-1.15306e-06
3.48593e-08
4.20014e-06
-1.06265e-06
3.81859e-08
4.39975e-06
-9.31299e-07
4.111e-08
4.59742e-06
-7.14153e-07
4.4158e-08
4.78049e-06
-3.09048e-07
4.86423e-08
4.81732e-06
2.78269e-07
5.48891e-08
4.8977e-06
9.65011e-07
6.3261e-08
4.83707e-06
2.13979e-06
7.88169e-08
4.65663e-06
3.67436e-06
9.5715e-08
4.34838e-06
5.5811e-06
1.17096e-07
3.77671e-06
7.94147e-06
1.47779e-07
2.83828e-06
1.07792e-05
1.86751e-07
1.61922e-06
1.35152e-05
2.18286e-07
4.59814e-07
1.46329e-05
2.12968e-07
9.59324e-06
1.01167e-07
9.00126e-08
-4.83187e-06
2.26349e-09
2.15826e-07
-9.50383e-06
-3.08843e-09
3.5892e-07
-1.05184e-05
-7.45111e-09
5.02315e-07
-1.03082e-05
-9.5881e-09
6.41944e-07
-9.5706e-06
-1.10684e-08
7.79803e-07
-8.5072e-06
-1.19191e-08
9.22063e-07
-7.32724e-06
-1.19297e-08
1.07463e-06
-6.16326e-06
-1.09634e-08
1.24155e-06
-5.08076e-06
-8.96655e-09
1.42428e-06
-4.11069e-06
-6.00673e-09
1.6225e-06
-3.27287e-06
-2.33551e-09
1.82935e-06
-2.59505e-06
1.52815e-09
2.03435e-06
-2.11271e-06
4.84166e-09
2.23165e-06
-1.82781e-06
7.00853e-09
2.42453e-06
-1.6801e-06
8.11802e-09
2.6165e-06
-1.5968e-06
8.97572e-09
2.80862e-06
-1.54266e-06
1.01499e-08
3.00036e-06
-1.50234e-06
1.16745e-08
3.19074e-06
-1.46442e-06
1.3477e-08
3.37891e-06
-1.41843e-06
1.54468e-08
3.56466e-06
-1.35446e-06
1.74091e-08
3.74977e-06
-1.26491e-06
1.89854e-08
3.93974e-06
-1.13885e-06
1.98766e-08
4.14163e-06
-9.32982e-07
2.02539e-08
4.35364e-06
-5.38286e-07
2.12958e-08
4.45936e-06
1.526e-07
2.44571e-08
4.55222e-06
8.47774e-07
3.02417e-08
4.5264e-06
2.13561e-06
3.65037e-08
4.33238e-06
3.82283e-06
5.12601e-08
3.85981e-06
5.98948e-06
6.9112e-08
3.03214e-06
8.67902e-06
9.41774e-08
1.95113e-06
1.17367e-05
1.26647e-07
8.85515e-07
1.44312e-05
1.52976e-07
9.68308e-08
1.52715e-05
1.54664e-07
9.62551e-06
6.47165e-08
8.08621e-08
-4.90082e-06
-7.55547e-09
2.10145e-07
-9.61018e-06
-2.05038e-08
3.36762e-07
-1.06185e-05
-2.45473e-08
4.53501e-07
-1.0398e-05
-2.50585e-08
5.58281e-07
-9.64785e-06
-2.55187e-08
6.57678e-07
-8.57844e-06
-2.59909e-08
7.60047e-07
-7.40122e-06
-2.60394e-08
8.70859e-07
-6.24624e-06
-2.52761e-08
9.96164e-07
-5.17986e-06
-2.34209e-08
1.13796e-06
-4.22909e-06
-2.04034e-08
1.29662e-06
-3.41202e-06
-1.64095e-08
1.4671e-06
-2.75071e-06
-1.19628e-08
1.64043e-06
-2.27579e-06
-7.93062e-09
1.8079e-06
-1.98843e-06
-5.07767e-09
1.96938e-06
-1.83662e-06
-3.46424e-09
2.12759e-06
-1.75118e-06
-2.35004e-09
2.28314e-06
-1.69552e-06
-1.14562e-09
2.43535e-06
-1.65315e-06
2.1211e-10
2.5833e-06
-1.61237e-06
1.67624e-09
2.72621e-06
-1.56278e-06
3.15025e-09
2.86413e-06
-1.49516e-06
4.47966e-09
2.99909e-06
-1.40351e-06
5.41076e-09
3.13133e-06
-1.27471e-06
5.87045e-09
3.25328e-06
-1.05776e-06
6.16551e-09
3.34584e-06
-6.33702e-07
7.23678e-09
3.3852e-06
1.07683e-07
1.07399e-08
3.34023e-06
8.8205e-07
1.64959e-08
3.19754e-06
2.25785e-06
2.65735e-08
2.89304e-06
4.0906e-06
4.25466e-08
2.41797e-06
6.4052e-06
6.42873e-08
1.8087e-06
9.20194e-06
9.03812e-08
1.12839e-06
1.23028e-05
1.17338e-07
5.05651e-07
1.49208e-05
1.36545e-07
7.07963e-08
1.55839e-05
1.27016e-07
9.64838e-06
4.80594e-08
4.13559e-08
-4.93106e-06
-7.02236e-09
1.28095e-07
-9.67729e-06
-1.73529e-08
2.30574e-07
-1.06975e-05
-2.15186e-08
3.37727e-07
-1.04801e-05
-2.32415e-08
4.51043e-07
-9.73477e-06
-2.45035e-08
5.74172e-07
-8.67401e-06
-2.55272e-08
7.05543e-07
-7.50424e-06
-2.61745e-08
8.31654e-07
-6.34374e-06
-2.62621e-08
9.73752e-07
-5.29391e-06
-2.54882e-08
1.12025e-06
-4.34912e-06
-2.37164e-08
1.26831e-06
-3.53628e-06
-2.0971e-08
1.41605e-06
-2.87819e-06
-1.76204e-08
1.56041e-06
-2.40354e-06
-1.44549e-08
1.69871e-06
-2.11284e-06
-1.22382e-08
1.8315e-06
-1.95689e-06
-1.11018e-08
1.96073e-06
-1.86857e-06
-1.0488e-08
2.08673e-06
-1.81023e-06
-9.89089e-09
2.20885e-06
-1.76454e-06
-9.26916e-09
2.32632e-06
-1.71964e-06
-8.68631e-09
2.43853e-06
-1.66524e-06
-8.23572e-09
2.54562e-06
-1.59273e-06
-8.03452e-09
2.64869e-06
-1.49677e-06
-8.21528e-09
2.74332e-06
-1.35862e-06
-8.55906e-09
2.81324e-06
-1.11592e-06
-8.5622e-09
2.83946e-06
-6.48226e-07
-7.52871e-09
2.8076e-06
1.48379e-07
-4.21572e-09
2.71275e-06
9.80056e-07
2.16524e-09
2.52465e-06
2.43773e-06
1.38188e-08
2.27568e-06
4.31322e-06
3.13192e-08
1.97926e-06
6.64991e-06
5.58948e-08
1.62483e-06
9.47352e-06
8.62804e-08
1.20583e-06
1.26071e-05
1.17367e-07
7.10659e-07
1.52794e-05
1.39484e-07
2.54865e-07
1.59078e-05
1.35841e-07
9.84008e-06
6.32895e-08
4.83573e-08
-4.95947e-06
-1.61369e-08
1.54724e-07
-9.7519e-06
-2.96328e-08
2.79445e-07
-1.07899e-05
-3.05979e-08
4.09186e-07
-1.05783e-05
-2.9945e-08
5.39998e-07
-9.83355e-06
-3.02404e-08
6.69709e-07
-8.77067e-06
-3.11049e-08
7.96407e-07
-7.59716e-06
-3.19114e-08
9.18652e-07
-6.43164e-06
-3.23228e-08
1.03454e-06
-5.3756e-06
-3.18213e-08
1.14738e-06
-4.42903e-06
-3.03804e-08
1.26076e-06
-3.61918e-06
-2.78624e-08
1.3759e-06
-2.96628e-06
-2.45939e-08
1.4923e-06
-2.4965e-06
-2.14173e-08
1.60867e-06
-2.2084e-06
-1.92315e-08
1.7234e-06
-2.05205e-06
-1.82352e-08
1.83649e-06
-1.96244e-06
-1.79316e-08
1.9479e-06
-1.90248e-06
-1.78388e-08
2.05727e-06
-1.85466e-06
-1.78563e-08
2.16408e-06
-1.80701e-06
-1.8006e-08
2.26774e-06
-1.74912e-06
-1.83449e-08
2.36825e-06
-1.67282e-06
-1.89669e-08
2.464e-06
-1.57095e-06
-1.99182e-08
2.54784e-06
-1.4192e-06
-2.09615e-08
2.60773e-06
-1.15065e-06
-2.16858e-08
2.63343e-06
-6.47843e-07
-2.17509e-08
2.60769e-06
2.00189e-07
-2.12759e-08
2.56283e-06
1.04852e-06
-1.78081e-08
2.47829e-06
2.53899e-06
-1.07523e-08
2.35803e-06
4.43092e-06
7.60439e-09
2.19426e-06
6.78314e-06
3.48707e-08
1.97418e-06
9.62705e-06
7.00911e-08
1.63408e-06
1.28433e-05
1.06658e-07
1.06274e-06
1.57201e-05
1.33525e-07
4.1536e-07
1.6415e-05
1.44106e-07
1.01778e-05
7.77487e-08
8.48496e-08
-5.01842e-06
-2.23577e-08
2.23221e-07
-9.85262e-06
-3.56871e-08
3.58888e-07
-1.08872e-05
-3.67718e-08
4.85818e-07
-1.06675e-05
-3.61363e-08
6.00886e-07
-9.91051e-06
-3.64959e-08
7.05813e-07
-8.83624e-06
-3.76528e-08
8.04206e-07
-7.65474e-06
-3.89631e-08
9.18722e-07
-6.50457e-06
-3.95674e-08
1.01784e-06
-5.4321e-06
-4.04333e-08
1.12643e-06
-4.49557e-06
-3.97065e-08
1.24732e-06
-3.70015e-06
-3.75418e-08
1.37789e-06
-3.06043e-06
-3.41852e-08
1.51184e-06
-2.59798e-06
-3.06051e-08
1.6449e-06
-2.31196e-06
-2.8051e-08
1.77675e-06
-2.15567e-06
-2.70071e-08
1.90878e-06
-2.06629e-06
-2.70251e-08
2.04217e-06
-2.0071e-06
-2.7585e-08
2.17739e-06
-1.96018e-06
-2.84623e-08
2.31435e-06
-1.9131e-06
-2.96045e-08
2.45269e-06
-1.85517e-06
-3.10271e-08
2.59193e-06
-1.77792e-06
-3.28473e-08
2.73116e-06
-1.67346e-06
-3.5209e-08
2.86948e-06
-1.51734e-06
-3.80852e-08
3.00605e-06
-1.24272e-06
-4.1484e-08
3.13297e-06
-7.25285e-07
-4.57789e-08
3.2298e-06
1.57885e-07
-5.04057e-08
3.31278e-06
1.02084e-06
-5.07952e-08
3.34519e-06
2.55825e-06
-4.72006e-08
3.3325e-06
4.48892e-06
-4.10269e-08
3.17404e-06
6.97051e-06
-2.48992e-08
2.72399e-06
1.00724e-05
7.75083e-09
1.91018e-06
1.3604e-05
5.52237e-08
1.04448e-06
1.64939e-05
9.41689e-08
2.91154e-07
1.70677e-05
1.0394e-07
1.04206e-05
4.84539e-08
9.1958e-08
-5.08097e-06
-2.61248e-08
2.17471e-07
-9.93931e-06
-3.69943e-08
3.2919e-07
-1.09606e-05
-3.68322e-08
4.29214e-07
-1.07303e-05
-3.58039e-08
5.21037e-07
-9.96474e-06
-3.61264e-08
6.05817e-07
-8.88196e-06
-3.75104e-08
6.90593e-07
-7.69827e-06
-3.93045e-08
7.85364e-07
-6.55594e-06
-4.13018e-08
8.90386e-07
-5.49302e-06
-4.20677e-08
1.01261e-06
-4.57342e-06
-4.22075e-08
1.15084e-06
-3.79523e-06
-4.09258e-08
1.29932e-06
-3.16852e-06
-3.82963e-08
1.44827e-06
-2.71009e-06
-3.51043e-08
1.59188e-06
-2.42149e-06
-3.26962e-08
1.73204e-06
-2.2628e-06
-3.18728e-08
1.8732e-06
-2.17401e-06
-3.23202e-08
2.01853e-06
-2.11779e-06
-3.34948e-08
2.16926e-06
-2.07461e-06
-3.5096e-08
2.32558e-06
-2.03116e-06
-3.70141e-08
2.48754e-06
-1.97664e-06
-3.92114e-08
2.65541e-06
-1.90275e-06
-4.17553e-08
2.83312e-06
-1.8047e-06
-4.49996e-08
3.03044e-06
-1.66336e-06
-4.92923e-08
3.25526e-06
-1.4093e-06
-5.52433e-08
3.49022e-06
-8.93168e-07
-6.33001e-08
3.69693e-06
2.78595e-08
-7.25665e-08
3.80844e-06
9.90741e-07
-7.67477e-08
3.78827e-06
2.66507e-06
-8.16873e-08
3.53811e-06
4.82788e-06
-8.45965e-08
3.02753e-06
7.56082e-06
-7.65293e-08
2.25116e-06
1.09062e-05
-5.47376e-08
1.31112e-06
1.4565e-05
-1.88054e-08
4.98192e-07
1.72922e-05
1.70855e-08
-2.26784e-08
1.75593e-05
3.26814e-08
1.03953e-05
2.72955e-09
7.38554e-08
-5.12316e-06
-2.85834e-08
1.71996e-07
-9.99775e-06
-3.79818e-08
2.60529e-07
-1.10106e-05
-3.71385e-08
3.55587e-07
-1.07882e-05
-3.57956e-08
4.56675e-07
-1.00286e-05
-3.57752e-08
5.5939e-07
-8.94639e-06
-3.673e-08
6.50681e-07
-7.74959e-06
-3.83207e-08
7.25799e-07
-6.58921e-06
-4.00729e-08
8.24269e-07
-5.54829e-06
-4.13041e-08
9.32527e-07
-4.63787e-06
-4.17918e-08
1.04888e-06
-3.8685e-06
-4.10216e-08
1.169e-06
-3.24782e-06
-3.88783e-08
1.28792e-06
-2.79139e-06
-3.59792e-08
1.40185e-06
-2.50053e-06
-3.35999e-08
1.51179e-06
-2.33899e-06
-3.26617e-08
1.62093e-06
-2.24913e-06
-3.29916e-08
1.73133e-06
-2.19305e-06
-3.40699e-08
1.84364e-06
-2.15023e-06
-3.55662e-08
1.95779e-06
-2.10683e-06
-3.7329e-08
2.07368e-06
-2.05208e-06
-3.92955e-08
2.19213e-06
-1.97852e-06
-4.15047e-08
2.31425e-06
-1.88123e-06
-4.42994e-08
2.44146e-06
-1.74056e-06
-4.82469e-08
2.57361e-06
-1.48458e-06
-5.41517e-08
2.69212e-06
-9.45255e-07
-6.27772e-08
2.76544e-06
2.96688e-08
-7.10984e-08
2.741e-06
1.09424e-06
-7.49561e-08
2.5951e-06
2.89313e-06
-7.80844e-08
2.25279e-06
5.25028e-06
-7.63968e-08
1.72968e-06
8.15699e-06
-6.99867e-08
1.13348e-06
1.15613e-05
-5.64127e-08
6.48313e-07
1.50858e-05
-3.36061e-08
2.47858e-07
1.77079e-05
-1.28769e-08
-2.82114e-08
1.78452e-05
-7.00305e-09
1.039e-05
-2.27733e-08
8.29485e-08
-5.17333e-06
-2.9831e-08
1.80092e-07
-1.00571e-05
-3.61964e-08
2.77661e-07
-1.1072e-05
-3.48498e-08
3.66416e-07
-1.08415e-05
-3.41956e-08
4.5639e-07
-1.00828e-05
-3.44324e-08
5.4518e-07
-8.99802e-06
-3.56922e-08
6.46146e-07
-7.81233e-06
-3.68184e-08
7.54929e-07
-6.65849e-06
-3.79466e-08
8.54781e-07
-5.60626e-06
-4.00661e-08
9.38321e-07
-4.67828e-06
-4.12253e-08
1.02448e-06
-3.91152e-06
-4.11968e-08
1.12319e-06
-3.30498e-06
-3.97025e-08
1.23128e-06
-2.86067e-06
-3.72323e-08
1.33847e-06
-2.5714e-06
-3.50526e-08
1.4433e-06
-2.40852e-06
-3.42332e-08
1.54836e-06
-2.31842e-06
-3.47385e-08
1.65558e-06
-2.26313e-06
-3.60925e-08
1.76549e-06
-2.22111e-06
-3.7913e-08
1.87779e-06
-2.17798e-06
-4.00055e-08
1.99212e-06
-2.12296e-06
-4.22801e-08
2.10918e-06
-2.04953e-06
-4.48277e-08
2.22953e-06
-1.9522e-06
-4.79744e-08
2.35341e-06
-1.81022e-06
-5.23331e-08
2.47919e-06
-1.54885e-06
-5.87132e-08
2.58793e-06
-9.81845e-07
-6.83884e-08
2.63554e-06
6.57223e-08
-7.93456e-08
2.56741e-06
1.2518e-06
-8.48029e-08
2.35032e-06
3.20357e-06
-8.88593e-08
2.00608e-06
5.68332e-06
-8.49591e-08
1.51937e-06
8.72073e-06
-7.38463e-08
9.18962e-07
1.22209e-05
-5.67391e-08
3.17263e-07
1.57259e-05
-3.65804e-08
-2.61122e-08
1.80778e-05
-2.38419e-08
-6.85658e-08
1.79177e-05
-2.59043e-08
1.03568e-05
-3.53215e-08
7.56009e-08
-5.21685e-06
-2.94441e-08
1.55805e-07
-1.01015e-05
-3.42072e-08
2.32353e-07
-1.11142e-05
-3.30213e-08
2.95196e-07
-1.08719e-05
-3.11798e-08
3.43462e-07
-1.00985e-05
-3.12347e-08
3.94605e-07
-9.0159e-06
-3.18602e-08
4.70001e-07
-7.85252e-06
-3.3617e-08
5.80134e-07
-6.7318e-06
-3.52349e-08
6.72892e-07
-5.66174e-06
-3.56889e-08
7.61496e-07
-4.72965e-06
-3.55808e-08
8.47544e-07
-3.96045e-06
-3.5358e-08
9.34666e-07
-3.35576e-06
-3.45926e-08
1.01914e-06
-2.91055e-06
-3.30652e-08
1.10066e-06
-2.62025e-06
-3.14354e-08
1.18021e-06
-2.45618e-06
-3.0845e-08
1.26082e-06
-2.36664e-06
-3.13906e-08
1.34371e-06
-2.31229e-06
-3.26914e-08
1.42935e-06
-2.27127e-06
-3.43969e-08
1.51764e-06
-2.22883e-06
-3.6306e-08
1.60859e-06
-2.17444e-06
-3.83099e-08
1.70299e-06
-2.10224e-06
-4.0484e-08
1.80316e-06
-2.00781e-06
-4.32013e-08
1.91207e-06
-1.87009e-06
-4.71974e-08
2.0267e-06
-1.60684e-06
-5.38448e-08
2.12123e-06
-1.0088e-06
-6.36684e-08
2.15213e-06
1.14054e-07
-7.46982e-08
2.03049e-06
1.45856e-06
-8.04844e-08
1.76831e-06
3.55488e-06
-8.47971e-08
1.38774e-06
6.14968e-06
-8.21306e-08
9.30615e-07
9.2532e-06
-7.24599e-08
4.29533e-07
1.27816e-05
-5.73099e-08
-8.57149e-08
1.62861e-05
-4.24916e-08
-2.33871e-07
1.82646e-05
-3.58211e-08
-1.20559e-07
1.78417e-05
-3.4461e-08
1.02808e-05
-4.4374e-08
4.16239e-08
-5.23144e-06
-2.49697e-08
1.10829e-07
-1.01398e-05
-2.95014e-08
1.73135e-07
-1.11469e-05
-2.8286e-08
2.44245e-07
-1.09148e-05
-2.71177e-08
3.34418e-07
-1.01613e-05
-2.64797e-08
4.29194e-07
-9.08231e-06
-2.72258e-08
4.93674e-07
-7.88657e-06
-2.88563e-08
5.37648e-07
-6.74275e-06
-3.13396e-08
5.90497e-07
-5.68101e-06
-3.19976e-08
6.62206e-07
-4.76679e-06
-3.28492e-08
7.31389e-07
-3.99504e-06
-3.27738e-08
7.89764e-07
-3.38056e-06
-3.18368e-08
8.4451e-07
-2.93392e-06
-2.98961e-08
9.05293e-07
-2.65161e-06
-2.82266e-08
9.67089e-07
-2.48943e-06
-2.75249e-08
1.02849e-06
-2.39908e-06
-2.79779e-08
1.09014e-06
-2.34386e-06
-2.90421e-08
1.15247e-06
-2.30203e-06
-3.04849e-08
1.21577e-06
-2.2589e-06
-3.20907e-08
1.2803e-06
-2.20401e-06
-3.37789e-08
1.34648e-06
-2.13158e-06
-3.55866e-08
1.4154e-06
-2.03747e-06
-3.78425e-08
1.4873e-06
-1.89899e-06
-4.11205e-08
1.55632e-06
-1.626e-06
-4.68688e-08
1.59767e-06
-9.89176e-07
-5.65782e-08
1.58278e-06
2.00665e-07
-6.66391e-08
1.45138e-06
1.66618e-06
-7.12254e-08
1.21053e-06
3.87367e-06
-7.34182e-08
8.47965e-07
6.58614e-06
-7.01036e-08
4.01894e-07
9.76371e-06
-6.12388e-08
-3.73496e-08
1.32714e-05
-4.80369e-08
-2.26132e-07
1.65132e-05
-3.64738e-08
-1.45122e-07
1.82182e-05
-3.17701e-08
-8.27183e-08
1.78216e-05
-3.81883e-08
1.02428e-05
-4.46179e-08
2.71308e-08
-5.2361e-06
-2.08004e-08
8.08048e-08
-1.01675e-05
-2.46445e-08
1.41646e-07
-1.11831e-05
-2.354e-08
1.97453e-07
-1.09466e-05
-2.29345e-08
2.81e-07
-1.02203e-05
-2.33861e-08
3.58848e-07
-9.13482e-06
-2.40347e-08
4.09396e-07
-7.91083e-06
-2.48707e-08
4.35389e-07
-6.74172e-06
-2.55444e-08
4.77356e-07
-5.69506e-06
-2.63189e-08
5.36108e-07
-4.79703e-06
-2.68001e-08
5.98105e-07
-4.02877e-06
-2.65973e-08
6.56044e-07
-3.41148e-06
-2.55102e-08
7.1372e-07
-2.96585e-06
-2.44024e-08
7.66604e-07
-2.67959e-06
-2.3763e-08
8.19032e-07
-2.51739e-06
-2.34797e-08
8.71705e-07
-2.42695e-06
-2.3848e-08
9.24969e-07
-2.3713e-06
-2.48288e-08
9.80159e-07
-2.33007e-06
-2.60886e-08
1.03751e-06
-2.28765e-06
-2.74844e-08
1.09717e-06
-2.23362e-06
-2.89058e-08
1.16062e-06
-2.16348e-06
-3.03907e-08
1.22954e-06
-2.0726e-06
-3.24396e-08
1.30518e-06
-1.93685e-06
-3.58616e-08
1.38029e-06
-1.65643e-06
-4.15992e-08
1.42557e-06
-9.79375e-07
-5.06438e-08
1.40001e-06
2.90737e-07
-5.95442e-08
1.18557e-06
1.94943e-06
-6.40659e-08
8.33855e-07
4.29546e-06
-6.6035e-08
4.0719e-07
7.07819e-06
-6.22289e-08
-3.04331e-08
1.02579e-05
-5.33926e-08
-3.20558e-07
1.36075e-05
-4.26955e-08
-2.96443e-07
1.65238e-05
-3.23919e-08
-2.11323e-07
1.8165e-05
-2.98017e-08
-9.96931e-08
1.77514e-05
-3.81967e-08
1.0192e-05
-4.87534e-08
3.08832e-08
-5.24749e-06
-1.80499e-08
8.20684e-08
-1.01973e-05
-2.02993e-08
1.28108e-07
-1.12083e-05
-1.9983e-08
1.66866e-07
-1.09653e-05
-1.90358e-08
1.68018e-07
-1.02002e-05
-1.97988e-08
1.71334e-07
-9.11665e-06
-2.02354e-08
2.15226e-07
-7.93389e-06
-1.97871e-08
2.88599e-07
-6.79361e-06
-2.02216e-08
3.46018e-07
-5.72976e-06
-2.12606e-08
3.76558e-07
-4.80396e-06
-2.20478e-08
4.02871e-07
-4.03155e-06
-2.19165e-08
4.33942e-07
-3.4201e-06
-2.08657e-08
4.6358e-07
-2.97466e-06
-1.94428e-08
4.88106e-07
-2.68519e-06
-1.78316e-08
5.10545e-07
-2.52169e-06
-1.71855e-08
5.33085e-07
-2.43136e-06
-1.72076e-08
5.58033e-07
-2.37777e-06
-1.75117e-08
5.83762e-07
-2.33669e-06
-1.80839e-08
6.09088e-07
-2.29319e-06
-1.87072e-08
6.33485e-07
-2.23757e-06
-1.93112e-08
6.56858e-07
-2.16556e-06
-2.00418e-08
6.79356e-07
-2.07273e-06
-2.09057e-08
6.97857e-07
-1.93087e-06
-2.24433e-08
6.9702e-07
-1.62656e-06
-2.57198e-08
6.50294e-07
-8.96481e-07
-3.12564e-08
5.52284e-07
4.31508e-07
-3.71919e-08
3.32693e-07
2.21386e-06
-3.96774e-08
8.07981e-08
4.59265e-06
-4.08585e-08
-1.01306e-07
7.30273e-06
-3.85785e-08
-2.70783e-07
1.04639e-05
-3.32614e-08
-2.33234e-07
1.35977e-05
-2.50391e-08
-1.22584e-07
1.64319e-05
-1.69515e-08
-9.28148e-08
1.81533e-05
-1.59267e-08
-4.25389e-08
1.77297e-05
-2.49764e-08
1.01858e-05
-3.62433e-08
2.27932e-08
-5.25397e-06
-1.49969e-08
7.28691e-08
-1.02289e-05
-1.74171e-08
1.03317e-07
-1.12206e-05
-1.72036e-08
1.4338e-07
-1.09882e-05
-1.62733e-08
1.83258e-07
-1.02235e-05
-1.58244e-08
2.2293e-07
-9.13922e-06
-1.62107e-08
2.66398e-07
-7.95873e-06
-1.73833e-08
2.8709e-07
-6.79418e-06
-1.87458e-08
2.99683e-07
-5.72228e-06
-1.87227e-08
3.01439e-07
-4.78592e-06
-1.83868e-08
2.98808e-07
-4.00956e-06
-1.79293e-08
3.01913e-07
-3.40477e-06
-1.71135e-08
3.13525e-07
-2.96923e-06
-1.58902e-08
3.35412e-07
-2.6912e-06
-1.48973e-08
3.58615e-07
-2.52991e-06
-1.41568e-08
3.80959e-07
-2.43887e-06
-1.40169e-08
4.02766e-07
-2.38429e-06
-1.44036e-08
4.23328e-07
-2.3415e-06
-1.4791e-08
4.42233e-07
-2.29592e-06
-1.51665e-08
4.59267e-07
-2.23806e-06
-1.54961e-08
4.74228e-07
-2.16362e-06
-1.58037e-08
4.8865e-07
-2.06943e-06
-1.63993e-08
4.99786e-07
-1.92248e-06
-1.7615e-08
4.92731e-07
-1.59632e-06
-2.01055e-08
4.46043e-07
-8.21232e-07
-2.40915e-08
3.5596e-07
5.54458e-07
-2.78927e-08
2.19593e-07
2.3836e-06
-2.8724e-08
1.39675e-07
4.70468e-06
-2.80376e-08
3.2572e-08
7.43908e-06
-2.52818e-08
2.96531e-08
1.04906e-05
-2.07335e-08
-1.81137e-08
1.36601e-05
-1.30928e-08
-6.07909e-08
1.64824e-05
-6.02288e-09
-5.9851e-08
1.81598e-05
-5.05546e-09
-3.64098e-08
1.77199e-05
-1.07008e-08
1.01697e-05
-2.02647e-08
1.53183e-08
-5.25642e-06
-1.1661e-08
5.75078e-08
-1.02558e-05
-1.45052e-08
8.9834e-08
-1.12385e-05
-1.37736e-08
1.18892e-07
-1.10033e-05
-1.32574e-08
1.54647e-07
-1.0245e-05
-1.34419e-08
1.77254e-07
-9.14692e-06
-1.38423e-08
1.49446e-07
-7.9154e-06
-1.44623e-08
1.05132e-07
-6.73439e-06
-1.45004e-08
8.33939e-08
-5.68456e-06
-1.48368e-08
8.98166e-08
-4.77624e-06
-1.48627e-08
1.19452e-07
-4.0237e-06
-1.42101e-08
1.39705e-07
-3.41054e-06
-1.3273e-08
1.56198e-07
-2.97251e-06
-1.21806e-08
1.68842e-07
-2.69173e-06
-1.12348e-08
1.79365e-07
-2.52886e-06
-1.07583e-08
1.8906e-07
-2.4372e-06
-1.0571e-08
1.95734e-07
-2.37959e-06
-1.05338e-08
1.99998e-07
-2.33416e-06
-1.06885e-08
2.02445e-07
-2.28649e-06
-1.08867e-08
2.03593e-07
-2.22711e-06
-1.10728e-08
2.04299e-07
-2.15199e-06
-1.1241e-08
2.04088e-07
-2.05641e-06
-1.1485e-08
1.99219e-07
-1.90363e-06
-1.20253e-08
1.78028e-07
-1.55874e-06
-1.32041e-08
1.31453e-07
-7.54838e-07
-1.50577e-08
6.43902e-08
6.43858e-07
-1.68071e-08
-1.30553e-08
2.48326e-06
-1.71709e-08
-3.81613e-08
4.751e-06
-1.65967e-08
-7.3323e-08
7.49197e-06
-1.4164e-08
1.45697e-08
1.04164e-05
-1.06778e-08
2.07892e-08
1.36624e-05
-5.16581e-09
2.21631e-08
1.64833e-05
2.26385e-10
4.19135e-08
1.81397e-05
2.44314e-09
2.0028e-08
1.77455e-05
-1.06181e-09
1.0198e-05
-8.12759e-09
1.26568e-08
-5.25848e-06
-9.55384e-09
2.06511e-08
-1.02499e-05
-1.30209e-08
5.35368e-08
-1.12591e-05
-1.16766e-08
5.71799e-08
-1.09951e-05
-1.12029e-08
3.05185e-08
-1.02063e-05
-1.11367e-08
-2.67094e-09
-9.10164e-06
-1.13202e-08
1.68718e-08
-7.92309e-06
-1.11287e-08
6.90714e-08
-6.77432e-06
-1.14124e-08
1.02412e-07
-5.70536e-06
-1.161e-08
1.29065e-07
-4.79026e-06
-1.15375e-08
1.37904e-07
-4.01999e-06
-1.14314e-08
1.46813e-07
-3.40786e-06
-1.05948e-08
1.56634e-07
-2.97172e-06
-9.72766e-09
1.66504e-07
-2.69186e-06
-9.00502e-09
1.71683e-07
-2.5248e-06
-8.59414e-09
1.76057e-07
-2.43241e-06
-8.50561e-09
1.81047e-07
-2.37526e-06
-8.60471e-09
1.85577e-07
-2.32913e-06
-8.77434e-09
1.89211e-07
-2.2803e-06
-8.98472e-09
1.9164e-07
-2.21944e-06
-9.21506e-09
1.92523e-07
-2.14245e-06
-9.47972e-09
1.90447e-07
-2.04332e-06
-9.82485e-09
1.81768e-07
-1.88276e-06
-1.03407e-08
1.62074e-07
-1.52499e-06
-1.1073e-08
1.34862e-07
-7.11719e-07
-1.16673e-08
1.19512e-07
6.75025e-07
-1.11711e-08
1.53498e-07
2.46359e-06
-1.02791e-08
1.65686e-07
4.75122e-06
-9.03783e-09
2.18841e-07
7.44856e-06
-7.03816e-09
1.51126e-07
1.04899e-05
-3.62046e-09
1.93682e-07
1.36212e-05
5.32799e-10
1.74533e-07
1.64992e-05
4.67464e-09
1.1052e-07
1.81994e-05
6.43165e-09
5.40619e-08
1.7801e-05
4.05774e-09
1.02535e-05
-1.40035e-09
2.68473e-08
-5.27497e-06
-9.66862e-09
1.28264e-08
-1.02241e-05
-1.11045e-08
9.88739e-09
-1.12445e-05
-1.10193e-08
2.17299e-08
-1.09963e-05
-1.00808e-08
5.16324e-08
-1.02261e-05
-9.74607e-09
6.56586e-08
-9.1052e-06
-9.94275e-09
7.89986e-08
-7.92477e-06
-1.10069e-08
8.12309e-08
-6.7641e-06
-1.17432e-08
9.84157e-08
-5.70977e-06
-1.19266e-08
1.02238e-07
-4.78091e-06
-1.22593e-08
9.60682e-08
-4.00118e-06
-1.17734e-08
1.08656e-07
-3.40854e-06
-1.10818e-08
1.24169e-07
-2.97621e-06
-1.02652e-08
1.38198e-07
-2.69559e-06
-9.62738e-09
1.56718e-07
-2.53355e-06
-9.1797e-09
1.75128e-07
-2.44108e-06
-9.13196e-09
1.95018e-07
-2.38513e-06
-9.34983e-09
2.17202e-07
-2.34083e-06
-9.72681e-09
2.41536e-07
-2.29362e-06
-1.01907e-08
2.68484e-07
-2.23482e-06
-1.06951e-08
2.97941e-07
-2.15968e-06
-1.12709e-08
3.30816e-07
-2.06292e-06
-1.20794e-08
3.68672e-07
-1.90557e-06
-1.32549e-08
4.10741e-07
-1.54884e-06
-1.51633e-08
4.47082e-07
-7.25875e-07
-1.7829e-08
4.62512e-07
6.83438e-07
-1.91978e-08
4.30866e-07
2.51766e-06
-1.77292e-08
3.55571e-07
4.84544e-06
-1.50701e-08
2.64056e-07
7.55348e-06
-1.05414e-08