/*--------------------------------*- C++ -*----------------------------------*\
  =========                 |
  \\      /  F ield         | OpenFOAM: The Open Source CFD Toolbox
   \\    /   O peration     | Website:  https://openfoam.org
    \\  /    A nd           | Version:  13
     \\/     M anipulation  |
\*---------------------------------------------------------------------------*/
FoamFile
{
    format      ascii;
    class       volScalarField;
    location    "132.5";
    object      rhok;
}
// * * * * * * * * * * * * * * * * * * * * * * * * * * * * * * * * * * * * * //

dimensions      [];

internalField   nonuniform List<scalar> 
315000
(
0.444622
0.429602
0.41456
0.413121
0.412368
0.411618
0.41087
0.410124
0.409382
0.408642
0.407905
0.407171
0.40644
0.405712
0.404987
0.404265
0.403546
0.402831
0.402119
0.40141
0.400705
0.400003
0.399305
0.39861
0.397919
0.397232
0.396548
0.395868
0.395192
0.394519
0.39385
0.393185
0.392524
0.391867
0.391213
0.390563
0.389917
0.389275
0.388636
0.388001
0.38737
0.386742
0.386118
0.385498
0.384881
0.384267
0.383657
0.38305
0.382446
0.381845
0.381247
0.380652
0.380059
0.37947
0.378883
0.378298
0.377715
0.377135
0.376557
0.37598
0.375405
0.374832
0.37426
0.373689
0.37312
0.372551
0.371983
0.371416
0.370849
0.370282
0.444622
0.429601
0.414557
0.413118
0.412365
0.411614
0.410866
0.410121
0.409378
0.408638
0.407901
0.407167
0.406436
0.405708
0.404983
0.404261
0.403543
0.402827
0.402115
0.401406
0.400701
0.399999
0.399301
0.398606
0.397915
0.397228
0.396544
0.395864
0.395188
0.394515
0.393846
0.393181
0.39252
0.391862
0.391209
0.390559
0.389913
0.389271
0.388632
0.387997
0.387366
0.386738
0.386114
0.385494
0.384877
0.384263
0.383653
0.383046
0.382442
0.381842
0.381244
0.380649
0.380057
0.379467
0.37888
0.378295
0.377713
0.377133
0.376555
0.375978
0.375404
0.37483
0.374259
0.373688
0.373119
0.37255
0.371983
0.371416
0.370849
0.370282
0.444622
0.429599
0.414555
0.413116
0.412362
0.411611
0.410863
0.410118
0.409375
0.408635
0.407898
0.407164
0.406433
0.405705
0.40498
0.404258
0.403539
0.402824
0.402112
0.401403
0.400697
0.399996
0.399297
0.398603
0.397912
0.397224
0.39654
0.39586
0.395184
0.394511
0.393842
0.393177
0.392516
0.391859
0.391205
0.390555
0.389909
0.389267
0.388628
0.387994
0.387362
0.386735
0.386111
0.385491
0.384874
0.38426
0.38365
0.383043
0.382439
0.381839
0.381241
0.380646
0.380054
0.379465
0.378878
0.378293
0.377711
0.377131
0.376553
0.375977
0.375402
0.374829
0.374258
0.373687
0.373118
0.37255
0.371982
0.371415
0.370849
0.370282
0.444621
0.429598
0.414552
0.413113
0.41236
0.411609
0.410861
0.410115
0.409372
0.408632
0.407895
0.407161
0.40643
0.405702
0.404977
0.404255
0.403536
0.402821
0.402108
0.4014
0.400694
0.399992
0.399294
0.398599
0.397908
0.397221
0.396537
0.395857
0.39518
0.394508
0.393839
0.393174
0.392513
0.391855
0.391202
0.390552
0.389906
0.389264
0.388625
0.387991
0.38736
0.386732
0.386108
0.385488
0.384871
0.384258
0.383648
0.383041
0.382437
0.381836
0.381239
0.380644
0.380052
0.379463
0.378876
0.378292
0.37771
0.37713
0.376552
0.375975
0.375401
0.374828
0.374257
0.373687
0.373117
0.372549
0.371982
0.371415
0.370848
0.370282
0.444621
0.429597
0.41455
0.413111
0.412358
0.411607
0.410859
0.410113
0.40937
0.40863
0.407893
0.407159
0.406427
0.405699
0.404974
0.404252
0.403533
0.402818
0.402106
0.401397
0.400692
0.39999
0.399291
0.398597
0.397906
0.397218
0.396534
0.395854
0.395178
0.394505
0.393836
0.393171
0.39251
0.391853
0.391199
0.390549
0.389903
0.389261
0.388623
0.387988
0.387357
0.38673
0.386106
0.385486
0.384869
0.384255
0.383645
0.383039
0.382435
0.381835
0.381237
0.380642
0.38005
0.379461
0.378874
0.37829
0.377708
0.377128
0.37655
0.375974
0.3754
0.374827
0.374256
0.373686
0.373117
0.372549
0.371981
0.371415
0.370848
0.370282
0.444621
0.429596
0.414549
0.413109
0.412356
0.411605
0.410857
0.410111
0.409368
0.408628
0.407891
0.407157
0.406426
0.405697
0.404972
0.40425
0.403532
0.402816
0.402104
0.401395
0.40069
0.399988
0.399289
0.398595
0.397904
0.397216
0.396532
0.395852
0.395176
0.394503
0.393834
0.393169
0.392508
0.391851
0.391197
0.390547
0.389901
0.389259
0.388621
0.387986
0.387355
0.386728
0.386104
0.385484
0.384867
0.384254
0.383644
0.383037
0.382433
0.381833
0.381236
0.380641
0.380049
0.37946
0.378873
0.378289
0.377707
0.377127
0.376549
0.375974
0.375399
0.374827
0.374255
0.373685
0.373116
0.372548
0.371981
0.371414
0.370848
0.370282
0.444621
0.429596
0.414548
0.413108
0.412355
0.411604
0.410856
0.41011
0.409367
0.408627
0.40789
0.407156
0.406424
0.405696
0.404971
0.404249
0.40353
0.402815
0.402103
0.401394
0.400688
0.399986
0.399288
0.398593
0.397902
0.397215
0.396531
0.395851
0.395174
0.394502
0.393833
0.393168
0.392507
0.391849
0.391196
0.390546
0.3899
0.389258
0.388619
0.387985
0.387354
0.386726
0.386103
0.385482
0.384866
0.384252
0.383643
0.383036
0.382432
0.381832
0.381234
0.38064
0.380048
0.379459
0.378872
0.378288
0.377706
0.377127
0.376549
0.375973
0.375399
0.374826
0.374255
0.373685
0.373116
0.372548
0.371981
0.371414
0.370848
0.370282
0.444621
0.429596
0.414547
0.413108
0.412354
0.411604
0.410855
0.41011
0.409367
0.408627
0.407889
0.407155
0.406424
0.405696
0.40497
0.404248
0.403529
0.402814
0.402102
0.401393
0.400688
0.399986
0.399287
0.398592
0.397901
0.397214
0.39653
0.39585
0.395173
0.394501
0.393832
0.393167
0.392506
0.391848
0.391195
0.390545
0.389899
0.389257
0.388619
0.387984
0.387353
0.386726
0.386102
0.385482
0.384865
0.384252
0.383642
0.383035
0.382432
0.381831
0.381234
0.380639
0.380047
0.379458
0.378872
0.378288
0.377706
0.377126
0.376548
0.375972
0.375398
0.374826
0.374255
0.373685
0.373116
0.372548
0.371981
0.371414
0.370848
0.370282
0.444621
0.429596
0.414547
0.413108
0.412354
0.411603
0.410855
0.410109
0.409367
0.408626
0.407889
0.407155
0.406424
0.405695
0.40497
0.404248
0.403529
0.402814
0.402101
0.401393
0.400687
0.399985
0.399287
0.398592
0.397901
0.397213
0.396529
0.395849
0.395173
0.3945
0.393831
0.393166
0.392505
0.391848
0.391194
0.390545
0.389899
0.389256
0.388618
0.387983
0.387352
0.386725
0.386101
0.385481
0.384864
0.384251
0.383641
0.383035
0.382431
0.381831
0.381233
0.380639
0.380047
0.379458
0.378871
0.378287
0.377705
0.377126
0.376548
0.375972
0.375398
0.374825
0.374254
0.373684
0.373116
0.372548
0.371981
0.371414
0.370848
0.370282
0.444621
0.429596
0.414547
0.413108
0.412355
0.411604
0.410855
0.41011
0.409367
0.408627
0.407889
0.407155
0.406424
0.405695
0.40497
0.404248
0.403529
0.402814
0.402101
0.401393
0.400687
0.399985
0.399287
0.398592
0.397901
0.397213
0.396529
0.395849
0.395173
0.3945
0.393831
0.393166
0.392505
0.391848
0.391194
0.390544
0.389898
0.389256
0.388618
0.387983
0.387352
0.386725
0.386101
0.385481
0.384864
0.384251
0.383641
0.383034
0.382431
0.38183
0.381233
0.380639
0.380047
0.379458
0.378871
0.378287
0.377705
0.377126
0.376548
0.375972
0.375398
0.374825
0.374254
0.373684
0.373116
0.372548
0.371981
0.371414
0.370848
0.370282
0.444621
0.429596
0.414548
0.413108
0.412355
0.411604
0.410856
0.41011
0.409367
0.408627
0.40789
0.407155
0.406424
0.405696
0.40497
0.404248
0.40353
0.402814
0.402102
0.401393
0.400687
0.399985
0.399287
0.398592
0.397901
0.397213
0.396529
0.395849
0.395173
0.3945
0.393831
0.393166
0.392505
0.391848
0.391194
0.390544
0.389898
0.389256
0.388618
0.387983
0.387352
0.386725
0.386101
0.385481
0.384864
0.384251
0.383641
0.383034
0.382431
0.38183
0.381233
0.380638
0.380047
0.379458
0.378871
0.378287
0.377705
0.377125
0.376548
0.375972
0.375398
0.374825
0.374254
0.373684
0.373115
0.372548
0.371981
0.371414
0.370848
0.370282
0.444621
0.429596
0.414548
0.413109
0.412355
0.411604
0.410856
0.41011
0.409367
0.408627
0.40789
0.407156
0.406424
0.405696
0.404971
0.404249
0.40353
0.402814
0.402102
0.401393
0.400688
0.399986
0.399287
0.398592
0.397901
0.397214
0.39653
0.395849
0.395173
0.3945
0.393832
0.393166
0.392505
0.391848
0.391194
0.390544
0.389898
0.389256
0.388618
0.387983
0.387352
0.386725
0.386101
0.385481
0.384864
0.384251
0.383641
0.383034
0.382431
0.38183
0.381233
0.380638
0.380047
0.379458
0.378871
0.378287
0.377705
0.377125
0.376548
0.375972
0.375398
0.374825
0.374254
0.373684
0.373115
0.372548
0.371981
0.371414
0.370848
0.370282
0.444621
0.429596
0.414548
0.413109
0.412355
0.411604
0.410856
0.41011
0.409368
0.408627
0.40789
0.407156
0.406424
0.405696
0.404971
0.404249
0.40353
0.402814
0.402102
0.401393
0.400688
0.399986
0.399287
0.398593
0.397901
0.397214
0.39653
0.39585
0.395173
0.394501
0.393832
0.393167
0.392505
0.391848
0.391194
0.390545
0.389899
0.389256
0.388618
0.387983
0.387352
0.386725
0.386101
0.385481
0.384864
0.384251
0.383641
0.383034
0.382431
0.38183
0.381233
0.380639
0.380047
0.379458
0.378871
0.378287
0.377705
0.377125
0.376548
0.375972
0.375398
0.374825
0.374254
0.373684
0.373116
0.372548
0.371981
0.371414
0.370848
0.370282
0.444621
0.429596
0.414548
0.413109
0.412355
0.411604
0.410856
0.410111
0.409368
0.408628
0.40789
0.407156
0.406425
0.405696
0.404971
0.404249
0.40353
0.402815
0.402102
0.401393
0.400688
0.399986
0.399288
0.398593
0.397901
0.397214
0.39653
0.39585
0.395173
0.394501
0.393832
0.393167
0.392506
0.391848
0.391195
0.390545
0.389899
0.389257
0.388618
0.387983
0.387352
0.386725
0.386101
0.385481
0.384864
0.384251
0.383641
0.383034
0.382431
0.381831
0.381233
0.380639
0.380047
0.379458
0.378871
0.378287
0.377705
0.377126
0.376548
0.375972
0.375398
0.374825
0.374254
0.373684
0.373116
0.372548
0.371981
0.371414
0.370848
0.370282
0.444621
0.429596
0.414548
0.413109
0.412355
0.411605
0.410856
0.410111
0.409368
0.408628
0.40789
0.407156
0.406425
0.405696
0.404971
0.404249
0.40353
0.402815
0.402102
0.401394
0.400688
0.399986
0.399288
0.398593
0.397902
0.397214
0.39653
0.39585
0.395174
0.394501
0.393832
0.393167
0.392506
0.391848
0.391195
0.390545
0.389899
0.389257
0.388618
0.387984
0.387353
0.386725
0.386101
0.385481
0.384865
0.384251
0.383641
0.383035
0.382431
0.381831
0.381233
0.380639
0.380047
0.379458
0.378871
0.378287
0.377705
0.377126
0.376548
0.375972
0.375398
0.374825
0.374254
0.373684
0.373116
0.372548
0.371981
0.371414
0.370848
0.370282
0.444621
0.429596
0.414548
0.413109
0.412356
0.411605
0.410856
0.410111
0.409368
0.408628
0.40789
0.407156
0.406425
0.405697
0.404971
0.404249
0.40353
0.402815
0.402103
0.401394
0.400688
0.399986
0.399288
0.398593
0.397902
0.397214
0.39653
0.39585
0.395174
0.394501
0.393832
0.393167
0.392506
0.391849
0.391195
0.390545
0.389899
0.389257
0.388619
0.387984
0.387353
0.386725
0.386102
0.385481
0.384865
0.384251
0.383641
0.383035
0.382431
0.381831
0.381233
0.380639
0.380047
0.379458
0.378871
0.378287
0.377705
0.377126
0.376548
0.375972
0.375398
0.374826
0.374254
0.373684
0.373116
0.372548
0.371981
0.371414
0.370848
0.370282
0.444621
0.429596
0.414549
0.413109
0.412356
0.411605
0.410857
0.410111
0.409368
0.408628
0.407891
0.407156
0.406425
0.405697
0.404972
0.40425
0.403531
0.402815
0.402103
0.401394
0.400689
0.399987
0.399288
0.398593
0.397902
0.397215
0.396531
0.395851
0.395174
0.394501
0.393833
0.393168
0.392506
0.391849
0.391195
0.390545
0.389899
0.389257
0.388619
0.387984
0.387353
0.386726
0.386102
0.385482
0.384865
0.384252
0.383642
0.383035
0.382432
0.381831
0.381234
0.380639
0.380047
0.379458
0.378872
0.378288
0.377706
0.377126
0.376548
0.375972
0.375398
0.374826
0.374254
0.373685
0.373116
0.372548
0.371981
0.371414
0.370848
0.370282
0.444621
0.429596
0.414549
0.41311
0.412356
0.411605
0.410857
0.410111
0.409369
0.408629
0.407891
0.407157
0.406426
0.405697
0.404972
0.40425
0.403531
0.402816
0.402103
0.401395
0.400689
0.399987
0.399289
0.398594
0.397903
0.397215
0.396531
0.395851
0.395175
0.394502
0.393833
0.393168
0.392507
0.391849
0.391196
0.390546
0.3899
0.389258
0.388619
0.387985
0.387353
0.386726
0.386102
0.385482
0.384865
0.384252
0.383642
0.383035
0.382432
0.381831
0.381234
0.380639
0.380048
0.379458
0.378872
0.378288
0.377706
0.377126
0.376548
0.375972
0.375398
0.374826
0.374255
0.373685
0.373116
0.372548
0.371981
0.371414
0.370848
0.370282
0.444621
0.429597
0.41455
0.41311
0.412357
0.411606
0.410858
0.410112
0.409369
0.408629
0.407892
0.407158
0.406426
0.405698
0.404973
0.404251
0.403532
0.402816
0.402104
0.401395
0.40069
0.399988
0.399289
0.398595
0.397903
0.397216
0.396532
0.395852
0.395175
0.394503
0.393834
0.393169
0.392507
0.39185
0.391196
0.390546
0.3899
0.389258
0.38862
0.387985
0.387354
0.386727
0.386103
0.385483
0.384866
0.384252
0.383642
0.383036
0.382432
0.381832
0.381234
0.38064
0.380048
0.379459
0.378872
0.378288
0.377706
0.377126
0.376549
0.375973
0.375398
0.374826
0.374255
0.373685
0.373116
0.372548
0.371981
0.371414
0.370848
0.370282
0.444621
0.429597
0.414551
0.413111
0.412358
0.411607
0.410859
0.410113
0.40937
0.40863
0.407893
0.407159
0.406427
0.405699
0.404974
0.404252
0.403533
0.402817
0.402105
0.401396
0.400691
0.399989
0.39929
0.398595
0.397904
0.397217
0.396533
0.395852
0.395176
0.394503
0.393834
0.393169
0.392508
0.391851
0.391197
0.390547
0.389901
0.389259
0.38862
0.387986
0.387355
0.386727
0.386103
0.385483
0.384866
0.384253
0.383643
0.383036
0.382433
0.381832
0.381235
0.38064
0.380048
0.379459
0.378872
0.378288
0.377706
0.377127
0.376549
0.375973
0.375399
0.374826
0.374255
0.373685
0.373116
0.372548
0.371981
0.371414
0.370848
0.370282
0.444621
0.429598
0.414551
0.413112
0.412359
0.411608
0.41086
0.410114
0.409371
0.408631
0.407894
0.40716
0.406428
0.4057
0.404975
0.404253
0.403534
0.402818
0.402106
0.401397
0.400692
0.39999
0.399291
0.398596
0.397905
0.397218
0.396534
0.395853
0.395177
0.394504
0.393835
0.39317
0.392509
0.391851
0.391198
0.390548
0.389902
0.38926
0.388621
0.387986
0.387355
0.386728
0.386104
0.385484
0.384867
0.384253
0.383643
0.383037
0.382433
0.381833
0.381235
0.38064
0.380049
0.379459
0.378873
0.378289
0.377707
0.377127
0.376549
0.375973
0.375399
0.374826
0.374255
0.373685
0.373116
0.372548
0.371981
0.371414
0.370848
0.370282
0.444621
0.429598
0.414552
0.413113
0.41236
0.411609
0.410861
0.410115
0.409372
0.408632
0.407895
0.407161
0.406429
0.405701
0.404976
0.404254
0.403535
0.402819
0.402107
0.401398
0.400693
0.399991
0.399292
0.398597
0.397906
0.397218
0.396535
0.395854
0.395178
0.394505
0.393836
0.393171
0.39251
0.391852
0.391199
0.390549
0.389903
0.38926
0.388622
0.387987
0.387356
0.386728
0.386105
0.385484
0.384867
0.384254
0.383644
0.383037
0.382434
0.381833
0.381235
0.380641
0.380049
0.37946
0.378873
0.378289
0.377707
0.377127
0.376549
0.375973
0.375399
0.374826
0.374255
0.373685
0.373116
0.372548
0.371981
0.371414
0.370848
0.370282
0.444621
0.429599
0.414553
0.413114
0.412361
0.41161
0.410862
0.410116
0.409373
0.408633
0.407896
0.407162
0.40643
0.405702
0.404977
0.404255
0.403536
0.40282
0.402108
0.401399
0.400694
0.399992
0.399293
0.398598
0.397907
0.397219
0.396535
0.395855
0.395179
0.394506
0.393837
0.393172
0.392511
0.391853
0.391199
0.390549
0.389903
0.389261
0.388622
0.387988
0.387356
0.386729
0.386105
0.385485
0.384868
0.384255
0.383644
0.383038
0.382434
0.381833
0.381236
0.380641
0.380049
0.37946
0.378873
0.378289
0.377707
0.377127
0.376549
0.375974
0.375399
0.374827
0.374255
0.373685
0.373116
0.372548
0.371981
0.371414
0.370848
0.370282
0.444622
0.429599
0.414554
0.413115
0.412361
0.411611
0.410862
0.410117
0.409374
0.408634
0.407897
0.407163
0.406431
0.405703
0.404978
0.404256
0.403537
0.402821
0.402109
0.4014
0.400695
0.399993
0.399294
0.398599
0.397908
0.39722
0.396536
0.395856
0.39518
0.394507
0.393838
0.393173
0.392511
0.391854
0.3912
0.39055
0.389904
0.389262
0.388623
0.387988
0.387357
0.38673
0.386106
0.385485
0.384868
0.384255
0.383645
0.383038
0.382434
0.381834
0.381236
0.380642
0.38005
0.37946
0.378874
0.378289
0.377707
0.377128
0.37655
0.375974
0.375399
0.374827
0.374255
0.373685
0.373116
0.372548
0.371981
0.371414
0.370848
0.370282
0.444622
0.429599
0.414555
0.413116
0.412362
0.411612
0.410863
0.410118
0.409375
0.408635
0.407898
0.407164
0.406432
0.405704
0.404979
0.404257
0.403538
0.402822
0.40211
0.401401
0.400696
0.399994
0.399295
0.3986
0.397909
0.397221
0.396537
0.395857
0.39518
0.394508
0.393839
0.393174
0.392512
0.391855
0.391201
0.390551
0.389905
0.389262
0.388624
0.387989
0.387358
0.38673
0.386106
0.385486
0.384869
0.384256
0.383645
0.383039
0.382435
0.381834
0.381237
0.380642
0.38005
0.379461
0.378874
0.37829
0.377708
0.377128
0.37655
0.375974
0.3754
0.374827
0.374256
0.373686
0.373117
0.372548
0.371981
0.371414
0.370848
0.370282
0.444622
0.4296
0.414556
0.413117
0.412363
0.411612
0.410864
0.410119
0.409376
0.408636
0.407899
0.407165
0.406433
0.405705
0.40498
0.404258
0.403539
0.402823
0.402111
0.401402
0.400697
0.399995
0.399296
0.398601
0.39791
0.397222
0.396538
0.395858
0.395181
0.394509
0.39384
0.393174
0.392513
0.391855
0.391202
0.390552
0.389906
0.389263
0.388625
0.38799
0.387358
0.386731
0.386107
0.385487
0.38487
0.384256
0.383646
0.383039
0.382435
0.381835
0.381237
0.380642
0.38005
0.379461
0.378874
0.37829
0.377708
0.377128
0.37655
0.375974
0.3754
0.374827
0.374256
0.373686
0.373117
0.372549
0.371981
0.371415
0.370848
0.370282
0.444622
0.4296
0.414557
0.413117
0.412364
0.411613
0.410865
0.41012
0.409377
0.408637
0.4079
0.407166
0.406434
0.405706
0.404981
0.404259
0.40354
0.402824
0.402112
0.401403
0.400698
0.399996
0.399297
0.398602
0.397911
0.397223
0.396539
0.395859
0.395182
0.394509
0.39384
0.393175
0.392514
0.391856
0.391202
0.390552
0.389906
0.389264
0.388625
0.38799
0.387359
0.386732
0.386108
0.385487
0.38487
0.384257
0.383646
0.38304
0.382436
0.381835
0.381238
0.380643
0.380051
0.379462
0.378875
0.37829
0.377708
0.377128
0.37655
0.375974
0.3754
0.374827
0.374256
0.373686
0.373117
0.372549
0.371981
0.371415
0.370848
0.370282
0.444622
0.429601
0.414557
0.413118
0.412365
0.411614
0.410866
0.410121
0.409378
0.408638
0.407901
0.407166
0.406435
0.405707
0.404982
0.40426
0.403541
0.402825
0.402113
0.401404
0.400699
0.399997
0.399298
0.398603
0.397912
0.397224
0.39654
0.39586
0.395183
0.39451
0.393841
0.393176
0.392515
0.391857
0.391203
0.390553
0.389907
0.389265
0.388626
0.387991
0.38736
0.386732
0.386108
0.385488
0.384871
0.384257
0.383647
0.38304
0.382436
0.381836
0.381238
0.380643
0.380051
0.379462
0.378875
0.378291
0.377709
0.377129
0.376551
0.375975
0.3754
0.374827
0.374256
0.373686
0.373117
0.372549
0.371981
0.371415
0.370848
0.370282
0.444622
0.429601
0.414558
0.413119
0.412366
0.411615
0.410867
0.410122
0.409379
0.408639
0.407902
0.407167
0.406436
0.405708
0.404983
0.404261
0.403542
0.402826
0.402114
0.401405
0.400699
0.399997
0.399299
0.398604
0.397913
0.397225
0.396541
0.395861
0.395184
0.394511
0.393842
0.393177
0.392515
0.391858
0.391204
0.390554
0.389908
0.389265
0.388627
0.387992
0.38736
0.386733
0.386109
0.385488
0.384871
0.384258
0.383647
0.38304
0.382437
0.381836
0.381238
0.380644
0.380052
0.379462
0.378875
0.378291
0.377709
0.377129
0.376551
0.375975
0.3754
0.374828
0.374256
0.373686
0.373117
0.372549
0.371981
0.371415
0.370848
0.370282
0.444622
0.429601
0.414559
0.41312
0.412367
0.411616
0.410868
0.410122
0.40938
0.40864
0.407902
0.407168
0.406437
0.405709
0.404984
0.404261
0.403543
0.402827
0.402115
0.401406
0.4007
0.399998
0.3993
0.398605
0.397913
0.397226
0.396542
0.395861
0.395185
0.394512
0.393843
0.393177
0.392516
0.391858
0.391205
0.390555
0.389908
0.389266
0.388627
0.387992
0.387361
0.386733
0.386109
0.385489
0.384872
0.384258
0.383648
0.383041
0.382437
0.381836
0.381239
0.380644
0.380052
0.379462
0.378876
0.378291
0.377709
0.377129
0.376551
0.375975
0.375401
0.374828
0.374256
0.373686
0.373117
0.372549
0.371982
0.371415
0.370848
0.370282
0.444622
0.429602
0.414559
0.413121
0.412367
0.411617
0.410868
0.410123
0.40938
0.40864
0.407903
0.407169
0.406438
0.405709
0.404984
0.404262
0.403543
0.402828
0.402115
0.401407
0.400701
0.399999
0.3993
0.398605
0.397914
0.397226
0.396542
0.395862
0.395185
0.394512
0.393843
0.393178
0.392517
0.391859
0.391205
0.390555
0.389909
0.389266
0.388628
0.387993
0.387361
0.386734
0.38611
0.385489
0.384872
0.384258
0.383648
0.383041
0.382437
0.381837
0.381239
0.380644
0.380052
0.379463
0.378876
0.378291
0.377709
0.377129
0.376551
0.375975
0.375401
0.374828
0.374256
0.373686
0.373117
0.372549
0.371982
0.371415
0.370848
0.370282
0.444622
0.429602
0.41456
0.413121
0.412368
0.411617
0.410869
0.410124
0.409381
0.408641
0.407904
0.40717
0.406438
0.40571
0.404985
0.404263
0.403544
0.402828
0.402116
0.401407
0.400702
0.4
0.399301
0.398606
0.397915
0.397227
0.396543
0.395862
0.395186
0.394513
0.393844
0.393179
0.392517
0.391859
0.391206
0.390556
0.389909
0.389267
0.388628
0.387993
0.387362
0.386734
0.38611
0.385489
0.384872
0.384259
0.383649
0.383042
0.382438
0.381837
0.381239
0.380644
0.380052
0.379463
0.378876
0.378292
0.377709
0.377129
0.376551
0.375975
0.375401
0.374828
0.374257
0.373686
0.373117
0.372549
0.371982
0.371415
0.370848
0.370282
0.444622
0.429602
0.41456
0.413122
0.412368
0.411618
0.41087
0.410124
0.409381
0.408641
0.407904
0.40717
0.406439
0.405711
0.404985
0.404263
0.403544
0.402829
0.402117
0.401408
0.400702
0.4
0.399302
0.398607
0.397915
0.397227
0.396543
0.395863
0.395186
0.394513
0.393844
0.393179
0.392518
0.39186
0.391206
0.390556
0.38991
0.389267
0.388628
0.387993
0.387362
0.386734
0.38611
0.38549
0.384873
0.384259
0.383649
0.383042
0.382438
0.381837
0.381239
0.380645
0.380053
0.379463
0.378876
0.378292
0.37771
0.37713
0.376552
0.375975
0.375401
0.374828
0.374257
0.373686
0.373117
0.372549
0.371982
0.371415
0.370848
0.370282
0.444622
0.429603
0.414561
0.413122
0.412369
0.411618
0.41087
0.410125
0.409382
0.408642
0.407905
0.40717
0.406439
0.405711
0.404986
0.404264
0.403545
0.402829
0.402117
0.401408
0.400703
0.4
0.399302
0.398607
0.397916
0.397228
0.396544
0.395863
0.395187
0.394514
0.393845
0.393179
0.392518
0.39186
0.391206
0.390556
0.38991
0.389267
0.388629
0.387994
0.387362
0.386735
0.38611
0.38549
0.384873
0.384259
0.383649
0.383042
0.382438
0.381837
0.38124
0.380645
0.380053
0.379463
0.378876
0.378292
0.37771
0.37713
0.376552
0.375975
0.375401
0.374828
0.374257
0.373686
0.373117
0.372549
0.371982
0.371415
0.370848
0.370282
0.444622
0.429603
0.414561
0.413122
0.412369
0.411618
0.41087
0.410125
0.409382
0.408642
0.407905
0.407171
0.40644
0.405711
0.404986
0.404264
0.403545
0.40283
0.402117
0.401408
0.400703
0.400001
0.399302
0.398607
0.397916
0.397228
0.396544
0.395864
0.395187
0.394514
0.393845
0.39318
0.392518
0.39186
0.391206
0.390556
0.38991
0.389268
0.388629
0.387994
0.387362
0.386735
0.386111
0.38549
0.384873
0.384259
0.383649
0.383042
0.382438
0.381837
0.38124
0.380645
0.380053
0.379463
0.378876
0.378292
0.37771
0.37713
0.376552
0.375976
0.375401
0.374828
0.374257
0.373686
0.373117
0.372549
0.371982
0.371415
0.370848
0.370282
0.444622
0.429603
0.414561
0.413122
0.412369
0.411618
0.41087
0.410125
0.409382
0.408642
0.407905
0.407171
0.40644
0.405711
0.404986
0.404264
0.403545
0.40283
0.402117
0.401409
0.400703
0.400001
0.399302
0.398607
0.397916
0.397228
0.396544
0.395864
0.395187
0.394514
0.393845
0.39318
0.392518
0.391861
0.391207
0.390557
0.38991
0.389268
0.388629
0.387994
0.387363
0.386735
0.386111
0.38549
0.384873
0.38426
0.383649
0.383042
0.382438
0.381838
0.38124
0.380645
0.380053
0.379463
0.378876
0.378292
0.37771
0.37713
0.376552
0.375976
0.375401
0.374828
0.374257
0.373687
0.373117
0.372549
0.371982
0.371415
0.370848
0.370282
0.444622
0.429603
0.414561
0.413123
0.412369
0.411619
0.410871
0.410125
0.409382
0.408642
0.407905
0.407171
0.40644
0.405712
0.404986
0.404264
0.403546
0.40283
0.402118
0.401409
0.400703
0.400001
0.399303
0.398608
0.397916
0.397228
0.396544
0.395864
0.395187
0.394514
0.393845
0.39318
0.392518
0.391861
0.391207
0.390557
0.38991
0.389268
0.388629
0.387994
0.387363
0.386735
0.386111
0.38549
0.384873
0.38426
0.383649
0.383042
0.382438
0.381838
0.38124
0.380645
0.380053
0.379463
0.378877
0.378292
0.37771
0.37713
0.376552
0.375976
0.375401
0.374828
0.374257
0.373687
0.373117
0.372549
0.371982
0.371415
0.370848
0.370282
0.444622
0.429603
0.414561
0.413123
0.412369
0.411619
0.410871
0.410125
0.409382
0.408643
0.407905
0.407171
0.40644
0.405712
0.404986
0.404264
0.403546
0.40283
0.402118
0.401409
0.400703
0.400001
0.399303
0.398608
0.397916
0.397228
0.396544
0.395864
0.395187
0.394514
0.393845
0.39318
0.392518
0.391861
0.391207
0.390557
0.38991
0.389268
0.388629
0.387994
0.387363
0.386735
0.386111
0.38549
0.384873
0.38426
0.383649
0.383042
0.382438
0.381838
0.38124
0.380645
0.380053
0.379463
0.378877
0.378292
0.37771
0.37713
0.376552
0.375976
0.375401
0.374828
0.374257
0.373687
0.373117
0.372549
0.371982
0.371415
0.370848
0.370282
0.444622
0.429603
0.414561
0.413123
0.412369
0.411619
0.410871
0.410125
0.409383
0.408643
0.407905
0.407171
0.40644
0.405712
0.404987
0.404264
0.403546
0.40283
0.402118
0.401409
0.400703
0.400001
0.399303
0.398608
0.397916
0.397228
0.396544
0.395864
0.395187
0.394514
0.393845
0.39318
0.392518
0.391861
0.391207
0.390557
0.38991
0.389268
0.388629
0.387994
0.387363
0.386735
0.386111
0.38549
0.384873
0.38426
0.383649
0.383042
0.382438
0.381838
0.38124
0.380645
0.380053
0.379463
0.378877
0.378292
0.37771
0.37713
0.376552
0.375976
0.375401
0.374828
0.374257
0.373687
0.373117
0.372549
0.371982
0.371415
0.370848
0.370282
0.444622
0.429603
0.414561
0.413123
0.412369
0.411619
0.410871
0.410125
0.409383
0.408643
0.407905
0.407171
0.40644
0.405712
0.404987
0.404265
0.403546
0.40283
0.402118
0.401409
0.400703
0.400001
0.399303
0.398608
0.397916
0.397228
0.396544
0.395864
0.395187
0.394514
0.393845
0.39318
0.392518
0.391861
0.391207
0.390557
0.38991
0.389268
0.388629
0.387994
0.387363
0.386735
0.386111
0.38549
0.384873
0.38426
0.383649
0.383042
0.382438
0.381838
0.38124
0.380645
0.380053
0.379463
0.378877
0.378292
0.37771
0.37713
0.376552
0.375976
0.375401
0.374828
0.374257
0.373687
0.373117
0.372549
0.371982
0.371415
0.370848
0.370282
0.444622
0.429603
0.414562
0.413123
0.412369
0.411619
0.410871
0.410125
0.409383
0.408643
0.407905
0.407171
0.40644
0.405712
0.404987
0.404265
0.403546
0.40283
0.402118
0.401409
0.400703
0.400001
0.399303
0.398608
0.397916
0.397228
0.396544
0.395864
0.395187
0.394514
0.393845
0.39318
0.392518
0.391861
0.391207
0.390557
0.38991
0.389268
0.388629
0.387994
0.387363
0.386735
0.386111
0.38549
0.384873
0.38426
0.383649
0.383042
0.382438
0.381838
0.38124
0.380645
0.380053
0.379463
0.378877
0.378292
0.37771
0.37713
0.376552
0.375976
0.375401
0.374828
0.374257
0.373687
0.373117
0.372549
0.371982
0.371415
0.370848
0.370282
0.444622
0.429603
0.414562
0.413123
0.412369
0.411619
0.410871
0.410125
0.409383
0.408643
0.407905
0.407171
0.40644
0.405712
0.404987
0.404265
0.403546
0.40283
0.402118
0.401409
0.400703
0.400001
0.399303
0.398608
0.397916
0.397228
0.396544
0.395864
0.395187
0.394514
0.393845
0.39318
0.392518
0.391861
0.391207
0.390557
0.38991
0.389268
0.388629
0.387994
0.387363
0.386735
0.386111
0.38549
0.384873
0.38426
0.383649
0.383042
0.382438
0.381838
0.38124
0.380645
0.380053
0.379463
0.378877
0.378292
0.37771
0.37713
0.376552
0.375976
0.375401
0.374828
0.374257
0.373687
0.373117
0.372549
0.371982
0.371415
0.370848
0.370282
0.444622
0.429603
0.414562
0.413123
0.412369
0.411619
0.410871
0.410125
0.409383
0.408643
0.407906
0.407171
0.40644
0.405712
0.404987
0.404265
0.403546
0.40283
0.402118
0.401409
0.400703
0.400001
0.399303
0.398608
0.397916
0.397228
0.396544
0.395864
0.395187
0.394514
0.393845
0.39318
0.392518
0.391861
0.391207
0.390557
0.38991
0.389268
0.388629
0.387994
0.387363
0.386735
0.386111
0.38549
0.384873
0.38426
0.383649
0.383042
0.382438
0.381838
0.38124
0.380645
0.380053
0.379463
0.378877
0.378292
0.37771
0.37713
0.376552
0.375976
0.375401
0.374828
0.374257
0.373687
0.373117
0.372549
0.371982
0.371415
0.370848
0.370282
0.444622
0.429603
0.414562
0.413123
0.412369
0.411619
0.410871
0.410125
0.409383
0.408643
0.407906
0.407171
0.40644
0.405712
0.404987
0.404265
0.403546
0.40283
0.402118
0.401409
0.400703
0.400001
0.399303
0.398608
0.397916
0.397228
0.396544
0.395864
0.395187
0.394514
0.393845
0.39318
0.392518
0.391861
0.391207
0.390557
0.38991
0.389268
0.388629
0.387994
0.387363
0.386735
0.386111
0.38549
0.384873
0.38426
0.383649
0.383042
0.382438
0.381838
0.38124
0.380645
0.380053
0.379463
0.378877
0.378292
0.37771
0.37713
0.376552
0.375976
0.375401
0.374828
0.374257
0.373687
0.373117
0.372549
0.371982
0.371415
0.370848
0.370282
0.444622
0.429603
0.414562
0.413123
0.412369
0.411619
0.410871
0.410125
0.409383
0.408643
0.407906
0.407171
0.40644
0.405712
0.404987
0.404265
0.403546
0.40283
0.402118
0.401409
0.400703
0.400001
0.399303
0.398608
0.397916
0.397228
0.396544
0.395864
0.395187
0.394514
0.393845
0.39318
0.392518
0.391861
0.391207
0.390557
0.38991
0.389268
0.388629
0.387994
0.387363
0.386735
0.386111
0.38549
0.384873
0.38426
0.383649
0.383042
0.382438
0.381838
0.38124
0.380645
0.380053
0.379463
0.378877
0.378292
0.37771
0.37713
0.376552
0.375976
0.375401
0.374828
0.374257
0.373687
0.373117
0.372549
0.371982
0.371415
0.370848
0.370282
0.444622
0.429603
0.414562
0.413123
0.412369
0.411619
0.410871
0.410125
0.409383
0.408643
0.407906
0.407171
0.40644
0.405712
0.404987
0.404265
0.403546
0.40283
0.402118
0.401409
0.400703
0.400001
0.399303
0.398608
0.397916
0.397228
0.396544
0.395864
0.395187
0.394514
0.393845
0.39318
0.392518
0.391861
0.391207
0.390557
0.38991
0.389268
0.388629
0.387994
0.387363
0.386735
0.386111
0.38549
0.384873
0.38426
0.383649
0.383042
0.382438
0.381838
0.38124
0.380645
0.380053
0.379463
0.378877
0.378292
0.37771
0.37713
0.376552
0.375976
0.375401
0.374828
0.374257
0.373687
0.373117
0.372549
0.371982
0.371415
0.370848
0.370282
0.444622
0.429603
0.414562
0.413123
0.412369
0.411619
0.410871
0.410125
0.409383
0.408643
0.407906
0.407171
0.40644
0.405712
0.404987
0.404265
0.403546
0.40283
0.402118
0.401409
0.400703
0.400001
0.399303
0.398608
0.397916
0.397228
0.396544
0.395864
0.395187
0.394514
0.393845
0.39318
0.392518
0.391861
0.391207
0.390557
0.38991
0.389268
0.388629
0.387994
0.387363
0.386735
0.386111
0.38549
0.384873
0.38426
0.383649
0.383042
0.382438
0.381838
0.38124
0.380645
0.380053
0.379463
0.378877
0.378292
0.37771
0.37713
0.376552
0.375976
0.375401
0.374828
0.374257
0.373687
0.373117
0.372549
0.371982
0.371415
0.370848
0.370282
0.444622
0.429603
0.414562
0.413123
0.412369
0.411619
0.410871
0.410125
0.409383