/*--------------------------------*- C++ -*----------------------------------*\
  =========                 |
  \\      /  F ield         | OpenFOAM: The Open Source CFD Toolbox
   \\    /   O peration     | Website:  https://openfoam.org
    \\  /    A nd           | Version:  13
     \\/     M anipulation  |
\*---------------------------------------------------------------------------*/
FoamFile
{
    format      ascii;
    class       volScalarField;
    location    "360";
    object      k;
}
// * * * * * * * * * * * * * * * * * * * * * * * * * * * * * * * * * * * * * //

dimensions      [0 2 -2 0 0 0 0];

internalField   nonuniform List<scalar> 
78750
(
2.22045e-16
2.22045e-16
4.14102e-16
7.20444e-16
1.05097e-15
1.40417e-15
1.77851e-15
2.17055e-15
2.57441e-15
2.98182e-15
3.38252e-15
3.76487e-15
4.11665e-15
4.42578e-15
4.68108e-15
4.873e-15
4.99413e-15
5.03973e-15
5.00798e-15
4.90007e-15
4.72017e-15
4.47515e-15
4.17418e-15
3.82815e-15
3.44902e-15
3.04902e-15
2.63993e-15
2.23225e-15
1.83458e-15
1.45311e-15
1.09146e-15
7.5115e-16
4.3301e-16
2.22045e-16
2.22045e-16
2.22045e-16
1.91498e-15
9.49991e-15
1.73469e-14
2.56086e-14
3.43757e-14
4.36654e-14
5.34151e-14
6.34851e-14
7.36681e-14
8.3703e-14
9.32928e-14
1.02124e-13
1.09888e-13
1.16298e-13
1.2111e-13
1.24134e-13
1.25249e-13
1.24411e-13
1.21652e-13
1.17079e-13
1.10872e-13
1.03266e-13
9.45425e-14
8.50077e-14
7.49755e-14
6.47459e-14
5.45855e-14
4.47087e-14
3.52626e-14
2.63164e-14
1.78577e-14
9.7967e-15
1.97774e-15
2.22045e-16
2.22045e-16
5.25435e-15
2.62349e-14
4.82108e-14
7.18073e-14
9.744e-14
1.25267e-13
1.55158e-13
1.86696e-13
2.19197e-13
2.51754e-13
2.83302e-13
3.12691e-13
3.3876e-13
3.60425e-13
3.76746e-13
3.86999e-13
3.90718e-13
3.87733e-13
3.78176e-13
3.62476e-13
3.41331e-13
3.15656e-13
2.86521e-13
2.55082e-13
2.22495e-13
1.89837e-13
1.58034e-13
1.27791e-13
9.95512e-14
7.34636e-14
4.93856e-14
2.6906e-14
5.39477e-15
2.22045e-16
3.45047e-16
9.95666e-15
4.9764e-14
9.16531e-14
1.36959e-13
1.86598e-13
2.40964e-13
2.99866e-13
3.6251e-13
4.27537e-13
4.93106e-13
5.57011e-13
6.16832e-13
6.70109e-13
7.14514e-13
7.48021e-13
7.69056e-13
7.76611e-13
7.70318e-13
7.50478e-13
7.18035e-13
6.74513e-13
6.21897e-13
5.62492e-13
4.98753e-13
4.3311e-13
3.67792e-13
3.04677e-13
2.45164e-13
1.90088e-13
1.39679e-13
9.35684e-14
5.08508e-14
1.01835e-14
3.53038e-16
5.2671e-16
1.51992e-14
7.5983e-14
1.40029e-13
2.09445e-13
2.85686e-13
3.69397e-13
4.6031e-13
5.57212e-13
6.58004e-13
7.59817e-13
8.59201e-13
9.52357e-13
1.03541e-12
1.10467e-12
1.15694e-12
1.18972e-12
1.20142e-12
1.19146e-12
1.16032e-12
1.10952e-12
1.04147e-12
9.59324e-13
8.66736e-13
7.67573e-13
6.65648e-13
5.64448e-13
4.66888e-13
3.75127e-13
2.90434e-13
2.13133e-13
1.42616e-13
7.74452e-14
1.5504e-14
5.37444e-16
7.03807e-16
2.03098e-14
1.01536e-13
1.87148e-13
2.79984e-13
3.82012e-13
4.94107e-13
6.15915e-13
7.45818e-13
8.80996e-13
1.0176e-12
1.15098e-12
1.27603e-12
1.38753e-12
1.48052e-12
1.55068e-12
1.59465e-12
1.61028e-12
1.59679e-12
1.55484e-12
1.48648e-12
1.39497e-12
1.28458e-12
1.16023e-12
1.02711e-12
8.9037e-13
7.54686e-13
6.23971e-13
5.01114e-13
3.8781e-13
2.84477e-13
1.90291e-13
1.03308e-13
2.06788e-14
7.16804e-16
8.62276e-16
2.4883e-14
1.24401e-13
2.29295e-13
3.43051e-13
4.68086e-13
6.05474e-13
7.54784e-13
9.1403e-13
1.07975e-12
1.24723e-12
1.41076e-12
1.56408e-12
1.70077e-12
1.81476e-12
1.90074e-12
1.95458e-12
1.97366e-12
1.95703e-12
1.9055e-12
1.82159e-12
1.70931e-12
1.57389e-12
1.42137e-12
1.25814e-12
1.0905e-12
9.24191e-13
7.64008e-13
6.13491e-13
4.7471e-13
3.48176e-13
2.32873e-13
1.26413e-13
2.53019e-14
8.7703e-16
9.94776e-16
2.87074e-14
1.43522e-13
2.64538e-13
3.95776e-13
5.40026e-13
6.9853e-13
8.70787e-13
1.05451e-12
1.24569e-12
1.4389e-12
1.62755e-12
1.8044e-12
1.96207e-12
2.09352e-12
2.19266e-12
2.25472e-12
2.27666e-12
2.2574e-12
2.19788e-12
2.101e-12
1.97141e-12
1.81515e-12
1.63916e-12
1.45085e-12
1.25746e-12
1.06563e-12
8.80881e-13
7.07296e-13
5.47262e-13
4.01366e-13
2.68434e-13
1.4571e-13
2.91626e-14
1.01081e-15
1.09882e-15
3.17111e-14
1.58543e-13
2.9222e-13
4.37187e-13
5.96523e-13
7.71601e-13
9.61867e-13
1.16479e-12
1.37596e-12
1.58934e-12
1.79769e-12
1.993e-12
2.1671e-12
2.31225e-12
2.42169e-12
2.49018e-12
2.51436e-12
2.49302e-12
2.42723e-12
2.32018e-12
2.17702e-12
2.00439e-12
1.81001e-12
1.60202e-12
1.38844e-12
1.17658e-12
9.72565e-13
7.80886e-13
6.0418e-13
4.43096e-13
2.96333e-13
1.60848e-13
3.21909e-14
1.11572e-15
1.17561e-15
3.3929e-14
1.69637e-13
3.12665e-13
4.67769e-13
6.38246e-13
8.25561e-13
1.02912e-12
1.24622e-12
1.47213e-12
1.70042e-12
1.9233e-12
2.13223e-12
2.31846e-12
2.47371e-12
2.59076e-12
2.66398e-12
2.6898e-12
2.66693e-12
2.5965e-12
2.48194e-12
2.32875e-12
2.14405e-12
1.93608e-12
1.71356e-12
1.48508e-12
1.25845e-12
1.04021e-12
8.35177e-13
6.46171e-13
4.7388e-13
3.16913e-13
1.72015e-13
3.44239e-14
1.19304e-15
1.22892e-15
3.54694e-14
1.77343e-13
3.26868e-13
4.89015e-13
6.6723e-13
8.63046e-13
1.07584e-12
1.30279e-12
1.53895e-12
1.77757e-12
2.01055e-12
2.22894e-12
2.4236e-12
2.58586e-12
2.70818e-12
2.78469e-12
2.81165e-12
2.78771e-12
2.71405e-12
2.59427e-12
2.4341e-12
2.24101e-12
2.0236e-12
1.791e-12
1.55216e-12
1.31527e-12
1.08716e-12
8.72857e-13
6.75311e-13
4.95242e-13
3.31193e-13
1.79763e-13
3.59728e-14
1.24665e-15
1.26375e-15
3.64765e-14
1.82384e-13
3.36157e-13
5.02911e-13
6.86187e-13
8.87563e-13
1.1064e-12
1.33979e-12
1.58264e-12
1.82804e-12
2.06762e-12
2.29219e-12
2.49236e-12
2.65921e-12
2.78498e-12
2.86363e-12
2.89133e-12
2.86668e-12
2.79091e-12
2.66771e-12
2.50298e-12
2.3044e-12
2.08082e-12
1.84161e-12
1.59601e-12
1.35241e-12
1.11784e-12
8.97479e-13
6.94352e-13
5.09198e-13
3.40523e-13
1.84824e-13
3.69842e-14
1.28164e-15
1.28521e-15
3.70972e-14
1.85492e-13
3.41885e-13
5.11479e-13
6.97877e-13
9.02682e-13
1.12525e-12
1.3626e-12
1.60959e-12
1.85916e-12
2.10281e-12
2.3312e-12
2.53476e-12
2.70443e-12
2.83233e-12
2.91231e-12
2.94045e-12
2.91537e-12
2.83829e-12
2.71298e-12
2.54544e-12
2.34347e-12
2.11608e-12
1.87281e-12
1.62303e-12
1.37529e-12
1.13674e-12
9.12648e-13
7.06081e-13
5.17795e-13
3.46269e-13
1.87941e-13
3.76068e-14
1.30316e-15
1.29769e-15
3.74585e-14
1.87301e-13
3.45221e-13
5.16469e-13
7.04684e-13
9.11486e-13
1.13622e-12
1.37589e-12
1.62529e-12
1.87728e-12
2.12331e-12
2.35392e-12
2.55945e-12
2.73078e-12
2.85991e-12
2.94065e-12
2.96906e-12
2.94373e-12
2.86589e-12
2.73934e-12
2.57016e-12
2.36622e-12
2.13661e-12
1.89097e-12
1.63875e-12
1.38861e-12
1.14774e-12
9.21474e-13
7.12905e-13
5.22796e-13
3.49611e-13
1.89754e-13
3.79687e-14
1.31567e-15
1.30456e-15
3.76575e-14
1.88299e-13
3.47059e-13
5.19219e-13
7.08436e-13
9.16339e-13
1.14227e-12
1.38321e-12
1.63394e-12
1.88727e-12
2.13461e-12
2.36644e-12
2.57307e-12
2.74529e-12
2.87511e-12
2.95628e-12
2.98483e-12
2.95935e-12
2.88109e-12
2.75387e-12
2.58379e-12
2.37876e-12
2.14792e-12
1.90097e-12
1.64742e-12
1.39595e-12
1.1538e-12
9.26335e-13
7.16663e-13
5.2555e-13
3.51451e-13
1.90752e-13
3.81679e-14
1.32255e-15
1.30815e-15
3.77614e-14
1.8882e-13
3.4802e-13
5.20656e-13
7.10397e-13
9.18875e-13
1.14543e-12
1.38704e-12
1.63846e-12
1.8925e-12
2.14051e-12
2.37298e-12
2.58018e-12
2.75288e-12
2.88305e-12
2.96445e-12
2.99307e-12
2.96752e-12
2.88904e-12
2.76146e-12
2.59091e-12
2.38531e-12
2.15383e-12
1.9062e-12
1.65194e-12
1.39978e-12
1.15697e-12
9.28873e-13
7.18625e-13
5.26988e-13
3.52412e-13
1.91273e-13
3.82718e-14
1.32613e-15
1.30993e-15
3.7813e-14
1.89079e-13
3.48497e-13
5.2137e-13
7.11371e-13
9.20135e-13
1.147e-12
1.38894e-12
1.6407e-12
1.89509e-12
2.14345e-12
2.37624e-12
2.58372e-12
2.75665e-12
2.887e-12
2.9685e-12
2.99717e-12
2.97158e-12
2.89299e-12
2.76523e-12
2.59444e-12
2.38856e-12
2.15677e-12
1.90879e-12
1.65419e-12
1.40168e-12
1.15854e-12
9.30133e-13
7.19599e-13
5.27701e-13
3.52889e-13
1.91532e-13
3.83233e-14
1.32791e-15
1.31077e-15
3.78374e-14
1.89201e-13
3.48723e-13
5.21708e-13
7.11832e-13
9.20731e-13
1.14774e-12
1.38984e-12
1.64177e-12
1.89632e-12
2.14484e-12
2.37777e-12
2.58539e-12
2.75844e-12
2.88887e-12
2.97042e-12
2.99911e-12
2.9735e-12
2.89486e-12
2.76702e-12
2.59611e-12
2.3901e-12
2.15816e-12
1.91002e-12
1.65525e-12
1.40258e-12
1.15928e-12
9.30729e-13
7.20059e-13
5.28039e-13
3.53114e-13
1.91654e-13
3.83477e-14
1.32875e-15
1.31114e-15
3.78484e-14
1.89256e-13
3.48824e-13
5.2186e-13
7.1204e-13
9.21e-13
1.14808e-12
1.39025e-12
1.64225e-12
1.89687e-12
2.14546e-12
2.37847e-12
2.58615e-12
2.75924e-12
2.88971e-12
2.97129e-12
2.99998e-12
2.97436e-12
2.8957e-12
2.76782e-12
2.59687e-12
2.39079e-12
2.15878e-12
1.91057e-12
1.65573e-12
1.40299e-12
1.15962e-12
9.30998e-13
7.20267e-13
5.28191e-13
3.53216e-13
1.91709e-13
3.83586e-14
1.32912e-15
1.31131e-15
3.78532e-14
1.8928e-13
3.48868e-13
5.21926e-13
7.12129e-13
9.21116e-13
1.14822e-12
1.39043e-12
1.64245e-12
1.89711e-12
2.14573e-12
2.37877e-12
2.58647e-12
2.75959e-12
2.89008e-12
2.97166e-12
3.00036e-12
2.97474e-12
2.89606e-12
2.76817e-12
2.59719e-12
2.39109e-12
2.15905e-12
1.91081e-12
1.65594e-12
1.40316e-12
1.15976e-12
9.31113e-13
7.20356e-13
5.28256e-13
3.5326e-13
1.91733e-13
3.83634e-14
1.32929e-15
1.31137e-15
3.78551e-14
1.8929e-13
3.48887e-13
5.21953e-13
7.12167e-13
9.21164e-13
1.14828e-12
1.3905e-12
1.64254e-12
1.89721e-12
2.14584e-12
2.37889e-12
2.58661e-12
2.75974e-12
2.89023e-12
2.97182e-12
3.00051e-12
2.97489e-12
2.89621e-12
2.76831e-12
2.59733e-12
2.39122e-12
2.15917e-12
1.91091e-12
1.65602e-12
1.40323e-12
1.15982e-12
9.31161e-13
7.20393e-13
5.28283e-13
3.53278e-13
1.91743e-13
3.83653e-14
1.32935e-15
1.3114e-15
3.78559e-14
1.89294e-13
3.48894e-13
5.21964e-13
7.12181e-13
9.21183e-13
1.14831e-12
1.39053e-12
1.64257e-12
1.89725e-12
2.14589e-12
2.37894e-12
2.58666e-12
2.75979e-12
2.89029e-12
2.97188e-12
3.00058e-12
2.97495e-12
2.89627e-12
2.76837e-12
2.59738e-12
2.39127e-12
2.15921e-12
1.91095e-12
1.65606e-12
1.40326e-12
1.15984e-12
9.3118e-13
7.20408e-13
5.28294e-13
3.53285e-13
1.91746e-13
3.83661e-14
1.32938e-15
1.31141e-15
3.78562e-14
1.89295e-13
3.48896e-13
5.21968e-13
7.12187e-13
9.2119e-13
1.14832e-12
1.39054e-12
1.64259e-12
1.89727e-12
2.14591e-12
2.37896e-12
2.58668e-12
2.75981e-12
2.89031e-12
2.9719e-12
3.0006e-12
2.97498e-12
2.8963e-12
2.76839e-12
2.5974e-12
2.39128e-12
2.15923e-12
1.91097e-12
1.65607e-12
1.40327e-12
1.15985e-12
9.31187e-13
7.20414e-13
5.28298e-13
3.53288e-13
1.91748e-13
3.83664e-14
1.32939e-15
1.31142e-15
3.78563e-14
1.89296e-13
3.48897e-13
5.21969e-13
7.12189e-13
9.21193e-13
1.14832e-12
1.39054e-12
1.64259e-12
1.89727e-12
2.14591e-12
2.37897e-12
2.58669e-12
2.75982e-12
2.89032e-12
2.97191e-12
3.00061e-12
2.97499e-12
2.8963e-12
2.7684e-12
2.59741e-12
2.39129e-12
2.15923e-12
1.91097e-12
1.65608e-12
1.40328e-12
1.15986e-12
9.3119e-13
7.20416e-13
5.283e-13
3.53289e-13
1.91748e-13
3.83665e-14
1.32939e-15
1.31142e-15
3.78563e-14
1.89296e-13
3.48898e-13
5.2197e-13
7.1219e-13
9.21194e-13
1.14832e-12
1.39054e-12
1.64259e-12
1.89727e-12
2.14591e-12
2.37897e-12
2.58669e-12
2.75982e-12
2.89032e-12
2.97191e-12
3.00061e-12
2.97499e-12
2.89631e-12
2.7684e-12
2.59741e-12
2.39129e-12
2.15923e-12
1.91097e-12
1.65608e-12
1.40328e-12
1.15986e-12
9.31191e-13
7.20416e-13
5.283e-13
3.53289e-13
1.91749e-13
3.83665e-14
1.32939e-15
1.31142e-15
3.78563e-14
1.89296e-13
3.48898e-13
5.2197e-13
7.1219e-13
9.21194e-13
1.14832e-12
1.39054e-12
1.64259e-12
1.89727e-12
2.14591e-12
2.37897e-12
2.58669e-12
2.75983e-12
2.89032e-12
2.97191e-12
3.00061e-12
2.97499e-12
2.89631e-12
2.7684e-12
2.59741e-12
2.39129e-12
2.15924e-12
1.91097e-12
1.65608e-12
1.40328e-12
1.15986e-12
9.31191e-13
7.20417e-13
5.283e-13
3.53289e-13
1.91749e-13
3.83665e-14
1.32939e-15
1.31142e-15
3.78563e-14
1.89296e-13
3.48898e-13
5.2197e-13
7.1219e-13
9.21194e-13
1.14832e-12
1.39054e-12
1.64259e-12
1.89727e-12
2.14592e-12
2.37897e-12
2.58669e-12
2.75983e-12
2.89032e-12
2.97191e-12
3.00061e-12
2.97499e-12
2.89631e-12
2.7684e-12
2.59741e-12
2.39129e-12
2.15924e-12
1.91097e-12
1.65608e-12
1.40328e-12
1.15986e-12
9.31191e-13
7.20417e-13
5.28301e-13
3.53289e-13
1.91749e-13
3.83665e-14
1.32939e-15
1.31142e-15
3.78563e-14
1.89296e-13
3.48898e-13
5.2197e-13
7.1219e-13
9.21194e-13
1.14832e-12
1.39054e-12
1.64259e-12
1.89727e-12
2.14592e-12
2.37897e-12
2.58669e-12
2.75983e-12
2.89032e-12
2.97191e-12
3.00061e-12
2.97499e-12
2.89631e-12
2.7684e-12
2.59741e-12
2.39129e-12
2.15924e-12
1.91097e-12
1.65608e-12
1.40328e-12
1.15986e-12
9.31191e-13
7.20417e-13
5.28301e-13
3.53289e-13
1.91749e-13
3.83665e-14
1.32939e-15
1.31142e-15
3.78563e-14
1.89296e-13
3.48898e-13
5.2197e-13
7.1219e-13
9.21194e-13
1.14832e-12
1.39054e-12
1.64259e-12
1.89727e-12
2.14592e-12
2.37897e-12
2.58669e-12
2.75983e-12
2.89032e-12
2.97191e-12
3.00061e-12
2.97499e-12
2.89631e-12
2.7684e-12
2.59741e-12
2.39129e-12
2.15924e-12
1.91097e-12
1.65608e-12
1.40328e-12
1.15986e-12
9.31191e-13
7.20417e-13
5.28301e-13
3.53289e-13
1.91749e-13
3.83665e-14
1.32939e-15
1.31142e-15
3.78563e-14
1.89296e-13
3.48898e-13
5.2197e-13
7.1219e-13
9.21194e-13
1.14832e-12
1.39054e-12
1.64259e-12
1.89727e-12
2.14592e-12
2.37897e-12
2.58669e-12
2.75983e-12
2.89032e-12
2.97191e-12
3.00061e-12
2.97499e-12
2.89631e-12
2.7684e-12
2.59741e-12
2.39129e-12
2.15924e-12
1.91097e-12
1.65608e-12
1.40328e-12
1.15986e-12
9.31191e-13
7.20417e-13
5.28301e-13
3.53289e-13
1.91749e-13
3.83665e-14
1.32939e-15
1.31142e-15
3.78563e-14
1.89296e-13
3.48898e-13
5.2197e-13
7.1219e-13
9.21194e-13
1.14832e-12
1.39054e-12
1.64259e-12
1.89727e-12
2.14592e-12
2.37897e-12
2.58669e-12
2.75983e-12
2.89032e-12
2.97191e-12
3.00061e-12
2.97499e-12
2.89631e-12
2.7684e-12
2.59741e-12
2.39129e-12
2.15924e-12
1.91097e-12
1.65608e-12
1.40328e-12
1.15986e-12
9.31191e-13
7.20417e-13
5.28301e-13
3.53289e-13
1.91749e-13
3.83665e-14
1.32939e-15
1.31142e-15
3.78563e-14
1.89296e-13
3.48898e-13
5.2197e-13
7.1219e-13
9.21194e-13
1.14832e-12
1.39054e-12
1.64259e-12
1.89727e-12
2.14592e-12
2.37897e-12
2.58669e-12
2.75983e-12
2.89032e-12
2.97191e-12
3.00061e-12
2.97499e-12
2.89631e-12
2.7684e-12
2.59741e-12
2.39129e-12
2.15924e-12
1.91097e-12
1.65608e-12
1.40328e-12
1.15986e-12
9.31191e-13
7.20417e-13
5.28301e-13
3.53289e-13
1.91749e-13
3.83665e-14
1.32939e-15
1.31142e-15
3.78563e-14
1.89296e-13
3.48898e-13
5.2197e-13
7.1219e-13
9.21194e-13
1.14832e-12
1.39054e-12
1.64259e-12
1.89727e-12
2.14592e-12
2.37897e-12
2.58669e-12
2.75983e-12
2.89032e-12
2.97191e-12
3.00061e-12
2.97499e-12
2.89631e-12
2.7684e-12
2.59741e-12
2.39129e-12
2.15924e-12
1.91097e-12
1.65608e-12
1.40328e-12
1.15986e-12
9.31191e-13
7.20417e-13
5.28301e-13
3.53289e-13
1.91749e-13
3.83665e-14
1.32939e-15
1.31142e-15
3.78563e-14
1.89296e-13
3.48898e-13
5.2197e-13
7.1219e-13
9.21194e-13
1.14832e-12
1.39054e-12
1.64259e-12
1.89727e-12
2.14592e-12
2.37897e-12
2.58669e-12
2.75983e-12
2.89032e-12
2.97191e-12
3.00061e-12
2.97499e-12
2.89631e-12
2.7684e-12
2.59741e-12
2.39129e-12
2.15924e-12
1.91097e-12
1.65608e-12
1.40328e-12
1.15986e-12
9.31191e-13
7.20417e-13
5.28301e-13
3.53289e-13
1.91749e-13
3.83665e-14
1.32939e-15
1.31142e-15
3.78563e-14
1.89296e-13
3.48898e-13
5.2197e-13
7.1219e-13
9.21194e-13
1.14832e-12
1.39054e-12
1.64259e-12
1.89727e-12
2.14592e-12
2.37897e-12
2.58669e-12
2.75983e-12
2.89032e-12
2.97191e-12
3.00061e-12
2.97499e-12
2.89631e-12
2.7684e-12
2.59741e-12
2.39129e-12
2.15924e-12
1.91097e-12
1.65608e-12
1.40328e-12
1.15986e-12
9.31191e-13
7.20417e-13
5.28301e-13
3.53289e-13
1.91749e-13
3.83665e-14
1.32939e-15
1.31142e-15
3.78563e-14
1.89296e-13
3.48898e-13
5.2197e-13
7.1219e-13
9.21194e-13
1.14832e-12
1.39054e-12
1.64259e-12
1.89727e-12
2.14592e-12
2.37897e-12
2.58669e-12
2.75983e-12
2.89032e-12
2.97191e-12
3.00061e-12
2.97499e-12
2.89631e-12
2.7684e-12
2.59741e-12
2.39129e-12
2.15924e-12
1.91097e-12
1.65608e-12
1.40328e-12
1.15986e-12
9.31191e-13
7.20417e-13
5.28301e-13
3.53289e-13
1.91749e-13
3.83665e-14
1.32939e-15
1.31142e-15
3.78563e-14
1.89296e-13
3.48898e-13
5.2197e-13
7.1219e-13
9.21194e-13
1.14832e-12
1.39054e-12
1.64259e-12
1.89727e-12
2.14592e-12
2.37897e-12
2.58669e-12
2.75983e-12
2.89032e-12
2.97191e-12
3.00061e-12
2.97499e-12
2.89631e-12
2.7684e-12
2.59741e-12
2.39129e-12
2.15924e-12
1.91097e-12
1.65608e-12
1.40328e-12
1.15986e-12
9.31191e-13
7.20417e-13
5.28301e-13
3.53289e-13
1.91749e-13
3.83665e-14
1.32939e-15
1.31142e-15
3.78563e-14
1.89296e-13
3.48898e-13
5.2197e-13
7.1219e-13
9.21194e-13
1.14832e-12
1.39054e-12
1.64259e-12
1.89727e-12
2.14592e-12
2.37897e-12
2.58669e-12
2.75983e-12
2.89032e-12
2.97191e-12
3.00061e-12
2.97499e-12
2.89631e-12
2.7684e-12
2.59741e-12
2.39129e-12
2.15924e-12
1.91097e-12
1.65608e-12
1.40328e-12
1.15986e-12
9.31191e-13
7.20417e-13
5.28301e-13
3.53289e-13
1.91749e-13
3.83665e-14
1.32939e-15
1.31142e-15
3.78563e-14
1.89296e-13
3.48898e-13
5.2197e-13
7.1219e-13
9.21194e-13
1.14832e-12
1.39054e-12
1.64259e-12
1.89727e-12
2.14592e-12
2.37897e-12
2.58669e-12
2.75983e-12
2.89032e-12
2.97191e-12
3.00061e-12
2.97499e-12
2.89631e-12
2.7684e-12
2.59741e-12
2.39129e-12
2.15924e-12
1.91097e-12
1.65608e-12
1.40328e-12
1.15986e-12
9.31191e-13
7.20417e-13
5.28301e-13
3.53289e-13
1.91749e-13
3.83665e-14
1.32939e-15
1.31142e-15
3.78563e-14
1.89296e-13
3.48898e-13
5.2197e-13
7.1219e-13
9.21194e-13
1.14832e-12
1.39054e-12
1.64259e-12
1.89727e-12
2.14592e-12
2.37897e-12
2.58669e-12
2.75983e-12
2.89032e-12
2.97191e-12
3.00061e-12
2.97499e-12
2.89631e-12
2.7684e-12
2.59741e-12
2.39129e-12
2.15924e-12
1.91097e-12
1.65608e-12
1.40328e-12
1.15986e-12
9.31191e-13
7.20417e-13
5.28301e-13
3.53289e-13
1.91749e-13
3.83665e-14
1.32939e-15
1.31142e-15
3.78563e-14
1.89296e-13
3.48898e-13
5.2197e-13
7.1219e-13
9.21194e-13
1.14832e-12
1.39054e-12
1.64259e-12
1.89727e-12
2.14592e-12
2.37897e-12
2.58669e-12
2.75983e-12
2.89032e-12
2.97191e-12
3.00061e-12
2.97499e-12
2.89631e-12
2.7684e-12
2.59741e-12
2.39129e-12
2.15924e-12
1.91097e-12
1.65608e-12
1.40328e-12
1.15986e-12
9.31191e-13
7.20417e-13
5.28301e-13
3.53289e-13
1.91749e-13
3.83665e-14
1.32939e-15
1.31142e-15
3.78563e-14
1.89296e-13
3.48898e-13
5.2197e-13
7.1219e-13
9.21194e-13
1.14832e-12
1.39054e-12
1.64259e-12
1.89727e-12
2.14592e-12
2.37897e-12
2.58669e-12
2.75983e-12
2.89032e-12
2.97191e-12
3.00061e-12
2.97499e-12
2.89631e-12
2.7684e-12
2.59741e-12
2.39129e-12
2.15924e-12
1.91097e-12
1.65608e-12
1.40328e-12
1.15986e-12
9.31191e-13
7.20417e-13
5.28301e-13
3.53289e-13
1.91749e-13
3.83665e-14
1.32939e-15
1.31142e-15
3.78563e-14
1.89296e-13
3.48898e-13
5.2197e-13
7.1219e-13
9.21194e-13
1.14832e-12
1.39054e-12
1.64259e-12
1.89727e-12
2.14592e-12
2.37897e-12
2.58669e-12
2.75983e-12
2.89032e-12
2.97191e-12
3.00061e-12
2.97499e-12
2.89631e-12
2.7684e-12
2.59741e-12
2.39129e-12
2.15924e-12
1.91097e-12
1.65608e-12
1.40328e-12
1.15986e-12
9.31191e-13
7.20417e-13
5.28301e-13
3.53289e-13
1.91749e-13
3.83665e-14
1.32939e-15
1.31142e-15
3.78563e-14
1.89296e-13
3.48898e-13
5.2197e-13
7.1219e-13
9.21194e-13
1.14832e-12
1.39054e-12
1.64259e-12
1.89727e-12
2.14592e-12
2.37897e-12
2.58669e-12
2.75983e-12
2.89032e-12
2.97191e-12
3.00061e-12
2.97499e-12
2.89631e-12
2.7684e-12
2.59741e-12
2.39129e-12
2.15924e-12
1.91097e-12
1.65608e-12
1.40328e-12
1.15986e-12
9.31191e-13
7.20417e-13
5.28301e-13
3.53289e-13
1.91749e-13
3.83665e-14
1.32939e-15
1.31142e-15
3.78563e-14
1.89296e-13
3.48898e-13
5.2197e-13
7.1219e-13
9.21194e-13
1.14832e-12
1.39054e-12
1.64259e-12
1.89727e-12
2.14592e-12
2.37897e-12
2.58669e-12
2.75983e-12
2.89032e-12
2.97191e-12
3.00061e-12
2.97499e-12
2.89631e-12
2.7684e-12
2.59741e-12
2.39129e-12
2.15924e-12
1.91097e-12
1.65608e-12
1.40328e-12
1.15986e-12
9.31191e-13
7.20417e-13
5.28301e-13
3.53289e-13
1.91749e-13
3.83665e-14
1.32939e-15
1.31142e-15
3.78563e-14
1.89296e-13
3.48898e-13
5.2197e-13
7.1219e-13
9.21194e-13
1.14832e-12
1.39054e-12
1.64259e-12
1.89727e-12
2.14592e-12
2.37897e-12
2.58669e-12
2.75983e-12
2.89032e-12
2.97191e-12
3.00061e-12
2.97499e-12
2.89631e-12
2.7684e-12
2.59741e-12
2.39129e-12
2.15924e-12
1.91097e-12
1.65608e-12
1.40328e-12
1.15986e-12
9.31191e-13
7.20417e-13
5.28301e-13
3.53289e-13
1.91749e-13
3.83665e-14
1.32939e-15
1.31142e-15
3.78563e-14
1.89296e-13
3.48898e-13
5.2197e-13
7.1219e-13
9.21194e-13
1.14832e-12
1.39054e-12
1.64259e-12
1.89727e-12
2.14592e-12
2.37897e-12
2.58669e-12
2.75983e-12
2.89032e-12
2.97191e-12
3.00061e-12
2.97499e-12
2.89631e-12
2.7684e-12
2.59741e-12
2.39129e-12
2.15924e-12
1.91097e-12
1.65608e-12
1.40328e-12
1.15986e-12
9.31191e-13
7.20417e-13
5.28301e-13
3.53289e-13
1.91749e-13
3.83665e-14
1.32939e-15
1.31142e-15
3.78563e-14
1.89296e-13
3.48898e-13
5.2197e-13
7.1219e-13
9.21194e-13
1.14832e-12
1.39054e-12
1.64259e-12
1.89727e-12
2.14592e-12
2.37897e-12
2.58669e-12
2.75983e-12
2.89032e-12
2.97191e-12
3.00061e-12
2.97499e-12
2.89631e-12
2.7684e-12
2.59741e-12
2.39129e-12
2.15924e-12
1.91097e-12
1.65608e-12
1.40328e-12
1.15986e-12
9.31191e-13
7.20417e-13
5.28301e-13
3.53289e-13
1.91749e-13
3.83665e-14
1.32939e-15
1.31142e-15
3.78563e-14
1.89296e-13
3.48898e-13
5.2197e-13
7.1219e-13
9.21194e-13
1.14832e-12
1.39054e-12
1.64259e-12
1.89727e-12
2.14592e-12
2.37897e-12
2.58669e-12
2.75983e-12
2.89032e-12
2.97191e-12
3.00061e-12
2.97499e-12
2.89631e-12
2.7684e-12
2.59741e-12
2.39129e-12
2.15924e-12
1.91097e-12
1.65608e-12
1.40328e-12
1.15986e-12
9.31191e-13
7.20417e-13
5.28301e-13
3.53289e-13
1.91749e-13
3.83665e-14
1.32939e-15
1.31142e-15
3.78563e-14
1.89296e-13
3.48898e-13
5.2197e-13
7.1219e-13
9.21194e-13
1.14832e-12
1.39054e-12
1.64259e-12
1.89727e-12
2.14592e-12
2.37897e-12
2.58669e-12
2.75983e-12
2.89032e-12
2.97191e-12
3.00061e-12
2.97499e-12
2.89631e-12
2.7684e-12
2.59741e-12
2.39129e-12
2.15924e-12
1.91097e-12
1.65608e-12
1.40328e-12
1.15986e-12
9.31191e-13
7.20417e-13
5.28301e-13
3.53289e-13
1.91749e-13
3.83665e-14
1.32939e-15
1.31142e-15
3.78563e-14
1.89296e-13
3.48898e-13
5.2197e-13
7.1219e-13
9.21194e-13
1.14832e-12
1.39054e-12
1.64259e-12
1.89727e-12
2.14592e-12
2.37897e-12
2.58669e-12
2.75983e-12
2.89032e-12
2.97191e-12
3.00061e-12
2.97499e-12
2.89631e-12
2.7684e-12
2.59741e-12
2.39129e-12
2.15924e-12
1.91097e-12
1.65608e-12
1.40328e-12
1.15986e-12
9.31191e-13
7.20417e-13
5.28301e-13
3.53289e-13
1.91749e-13
3.83665e-14
1.32939e-15
1.31142e-15
3.78563e-14
1.89296e-13
3.48898e-13
5.2197e-13
7.1219e-13
9.21194e-13
1.14832e-12
1.39054e-12
1.64259e-12
1.89727e-12
2.14592e-12
2.37897e-12
2.58669e-12
2.75983e-12
2.89032e-12
2.97191e-12
3.00061e-12
2.97499e-12
2.89631e-12
2.7684e-12
2.59741e-12
2.39129e-12
2.15924e-12
1.91097e-12
1.65608e-12
1.40328e-12
1.15986e-12
9.31191e-13
7.20417e-13
5.28301e-13
3.53289e-13
1.91749e-13
3.83665e-14
1.32939e-15
1.31142e-15
3.78563e-14
1.89296e-13
3.48898e-13
5.2197e-13
7.1219e-13
9.21194e-13
1.14832e-12
1.39054e-12
1.64259e-12
1.89727e-12
2.14592e-12
2.37897e-12
2.58669e-12
2.75983e-12
2.89032e-12
2.97191e-12
3.00061e-12
2.97499e-12
2.89631e-12
2.7684e-12
2.59741e-12
2.39129e-12
2.15924e-12
1.91097e-12
1.65608e-12
1.40328e-12
1.15986e-12
9.31191e-13
7.20417e-13
5.28301e-13
3.53289e-13
1.91749e-13
3.83665e-14
1.32939e-15
1.31142e-15
3.78563e-14
1.89296e-13
3.48898e-13
5.2197e-13
7.1219e-13
9.21194e-13
1.14832e-12
1.39054e-12
1.64259e-12
1.89727e-12
2.14592e-12
2.37897e-12
2.58669e-12
2.75983e-12
2.89032e-12
2.97191e-12
3.00061e-12
2.97499e-12
2.89631e-12
2.7684e-12
2.59741e-12
2.39129e-12
2.15924e-12
1.91097e-12
1.65608e-12
1.40328e-12
1.15986e-12
9.31191e-13
7.20417e-13
5.28301e-13
3.53289e-13
1.91749e-13
3.83665e-14
1.32939e-15
1.31142e-15
3.78563e-14
1.89296e-13
3.48898e-13
5.2197e-13
7.1219e-13
9.21194e-13
1.14832e-12
1.39054e-12
1.64259e-12
1.89727e-12
2.14592e-12
2.37897e-12
2.58669e-12
2.75983e-12
2.89032e-12
2.97191e-12
3.00061e-12
2.97499e-12
2.89631e-12
2.7684e-12
2.59741e-12
2.39129e-12
2.15924e-12
1.91097e-12
1.65608e-12
1.40328e-12
1.15986e-12
9.31191e-13
7.20417e-13
5.28301e-13
3.53289e-13
1.91749e-13
3.83665e-14
1.32939e-15
1.31142e-15
3.78563e-14
1.89296e-13
3.48898e-13
5.2197e-13
7.1219e-13
9.21194e-13
1.14832e-12
1.39054e-12
1.64259e-12
1.89727e-12
2.14592e-12
2.37897e-12
2.58669e-12
2.75983e-12
2.89032e-12
2.97191e-12
3.00061e-12
2.97499e-12
2.89631e-12
2.7684e-12
2.59741e-12
2.39129e-12
2.15924e-12
1.91097e-12
1.65608e-12
1.40328e-12
1.15986e-12
9.31191e-13
7.20417e-13
5.28301e-13
3.53289e-13
1.91749e-13
3.83665e-14
1.32939e-15
1.31142e-15
3.78563e-14
1.89296e-13
3.48898e-13
5.2197e-13
7.1219e-13
9.21194e-13
1.14832e-12
1.39054e-12
1.64259e-12
1.89727e-12
2.14592e-12
2.37897e-12
2.58669e-12
2.75983e-12
2.89032e-12
2.97191e-12
3.00061e-12
2.97499e-12
2.89631e-12
2.7684e-12
2.59741e-12
2.39129e-12
2.15924e-12
1.91097e-12
1.65608e-12
1.40328e-12
1.15986e-12
9.31191e-13
7.20417e-13
5.28301e-13
3.53289e-13
1.91749e-13
3.83665e-14
1.32939e-15
1.31142e-15
3.78563e-14
1.89296e-13
3.48898e-13
5.2197e-13
7.1219e-13
9.21194e-13
1.14832e-12
1.39054e-12
1.64259e-12
1.89727e-12
2.14592e-12
2.37897e-12
2.58669e-12
2.75983e-12
2.89032e-12
2.97191e-12
3.00061e-12
2.97499e-12
2.89631e-12
2.7684e-12
2.59741e-12
2.39129e-12
2.15924e-12
1.91097e-12
1.65608e-12
1.40328e-12
1.15986e-12
9.31191e-13
7.20417e-13
5.28301e-13
3.53289e-13
1.91749e-13
3.83665e-14
1.32939e-15
1.31142e-15
3.78563e-14
1.89296e-13
3.48898e-13
5.2197e-13
7.1219e-13
9.21194e-13
1.14832e-12
1.39054e-12
1.64259e-12
1.89727e-12
2.14592e-12
2.37897e-12
2.58669e-12
2.75983e-12
2.89032e-12
2.97191e-12
3.00061e-12
2.97499e-12
2.89631e-12
2.7684e-12
2.59741e-12
2.39129e-12
2.15924e-12
1.91097e-12
1.65608e-12
1.40328e-12
1.15986e-12
9.31191e-13
7.20417e-13
5.28301e-13
3.53289e-13
1.91749e-13
3.83665e-14
1.32939e-15
1.31142e-15
3.78563e-14
1.89296e-13
3.48898e-13
5.2197e-13
7.1219e-13
9.21194e-13
1.14832e-12
1.39054e-12
1.64259e-12
1.89727e-12
2.14592e-12
2.37897e-12
2.58669e-12
2.75983e-12
2.89032e-12
2.97191e-12
3.00061e-12
2.97499e-12
2.89631e-12
2.7684e-12
2.59741e-12
2.39129e-12
2.15924e-12
1.91097e-12
1.65608e-12
1.40328e-12
1.15986e-12
9.31191e-13
7.20417e-13
5.28301e-13
3.53289e-13
1.91749e-13
3.83665e-14
1.32939e-15
1.31142e-15
3.78563e-14
1.89296e-13
3.48898e-13
5.2197e-13
7.1219e-13
9.21194e-13
1.14832e-12
1.39054e-12
1.64259e-12
1.89727e-12
2.14592e-12
2.37897e-12
2.58669e-12
2.75983e-12
2.89032e-12
2.97191e-12
3.00061e-12
2.97499e-12
2.89631e-12
2.7684e-12
2.59741e-12
2.39129e-12
2.15924e-12
1.91097e-12
1.65608e-12
1.40328e-12
1.15986e-12
9.31191e-13
7.20417e-13
5.28301e-13
3.53289e-13
1.91749e-13
3.83665e-14
1.32939e-15
1.31142e-15
3.78563e-14
1.89296e-13
3.48898e-13
5.2197e-13
7.1219e-13
9.21194e-13
1.14832e-12
1.39054e-12
1.64259e-12
1.89727e-12
2.14592e-12
2.37897e-12
2.58669e-12
2.75983e-12
2.89032e-12
2.97191e-12
3.00061e-12
2.97499e-12
2.89631e-12
2.7684e-12
2.59741e-12
2.39129e-12
2.15924e-12
1.91097e-12
1.65608e-12
1.40328e-12
1.15986e-12
9.31191e-13
7.20417e-13
5.28301e-13
3.53289e-13
1.91749e-13
3.83665e-14
1.32939e-15
1.31142e-15
3.78563e-14
1.89296e-13
3.48898e-13
5.2197e-13
7.1219e-13
9.21194e-13
1.14832e-12
1.39054e-12
1.64259e-12
1.89727e-12
2.14592e-12
2.37897e-12
2.58669e-12
2.75983e-12
2.89032e-12
2.97191e-12
3.00061e-12
2.97499e-12
2.89631e-12
2.7684e-12
2.59741e-12
2.39129e-12
2.15924e-12
1.91097e-12
1.65608e-12
1.40328e-12
1.15986e-12
9.31191e-13
7.20417e-13
5.28301e-13
3.53289e-13
1.91749e-13
3.83665e-14
1.32939e-15
1.31142e-15
3.78563e-14
1.89296e-13
3.48898e-13
5.2197e-13
7.1219e-13
9.21194e-13
1.14832e-12
1.39054e-12
1.64259e-12
1.89727e-12
2.14592e-12
2.37897e-12
2.58669e-12
2.75983e-12
2.89032e-12
2.97191e-12
3.00061e-12
2.97499e-12
2.89631e-12
2.7684e-12
2.59741e-12
2.39129e-12
2.15924e-12
1.91097e-12
1.65608e-12
1.40328e-12
1.15986e-12
9.31191e-13
7.20417e-13
5.28301e-13
3.53289e-13
1.91749e-13
3.83665e-14
1.32939e-15
1.31142e-15
3.78563e-14
1.89296e-13
3.48898e-13
5.2197e-13
7.1219e-13
9.21194e-13
1.14832e-12
1.39054e-12
1.64259e-12
1.89727e-12
2.14592e-12
2.37897e-12
2.58669e-12
2.75983e-12
2.89032e-12
2.97191e-12
3.00061e-12
2.97499e-12
2.89631e-12
2.7684e-12
2.59741e-12
2.39129e-12
2.15924e-12
1.91097e-12
1.65608e-12
1.40328e-12
1.15986e-12
9.31191e-13
7.20417e-13
5.28301e-13
3.53289e-13
1.91749e-13
3.83665e-14
1.32939e-15
1.31142e-15
3.78563e-14
1.89296e-13
3.48898e-13
5.2197e-13
7.1219e-13
9.21194e-13
1.14832e-12
1.39054e-12
1.64259e-12
1.89727e-12
2.14592e-12
2.37897e-12
2.58669e-12
2.75983e-12
2.89032e-12
2.97191e-12
3.00061e-12
2.97499e-12
2.89631e-12
2.7684e-12
2.59741e-12
2.39129e-12
2.15924e-12
1.91097e-12
1.65608e-12
1.40328e-12
1.15986e-12
9.31191e-13
7.20417e-13
5.28301e-13
3.53289e-13
1.91749e-13
3.83665e-14
1.32939e-15
1.31142e-15
3.78563e-14
1.89296e-13
3.48898e-13
5.2197e-13
7.1219e-13
9.21194e-13
1.14832e-12
1.39054e-12
1.64259e-12
1.89727e-12
2.14592e-12
2.37897e-12
2.58669e-12
2.75983e-12
2.89032e-12
2.97191e-12
3.00061e-12
2.97499e-12
2.89631e-12
2.7684e-12
2.59741e-12
2.39129e-12
2.15924e-12
1.91097e-12
1.65608e-12
1.40328e-12
1.15986e-12
9.31191e-13
7.20417e-13
5.28301e-13
3.53289e-13
1.91749e-13
3.83665e-14
1.32939e-15
1.31142e-15
3.78563e-14
1.89296e-13
3.48898e-13
5.2197e-13
7.1219e-13
9.21194e-13
1.14832e-12
1.39054e-12
1.64259e-12
1.89727e-12
2.14592e-12
2.37897e-12
2.58669e-12
2.75983e-12
2.89032e-12
2.97191e-12
3.00061e-12
2.97499e-12
2.89631e-12
2.7684e-12
2.59741e-12
2.39129e-12
2.15924e-12
1.91097e-12
1.65608e-12
1.40328e-12
1.15986e-12
9.31191e-13
7.20417e-13
5.28301e-13
3.53289e-13
1.91749e-13
3.83665e-14
1.32939e-15
1.31142e-15
3.78563e-14
1.89296e-13
3.48898e-13
5.2197e-13
7.1219e-13
9.21194e-13
1.14832e-12
1.39054e-12
1.64259e-12
1.89727e-12
2.14592e-12
2.37897e-12
2.58669e-12
2.75983e-12
2.89032e-12
2.97191e-12
3.00061e-12
2.97499e-12
2.89631e-12
2.7684e-12
2.59741e-12
2.39129e-12
2.15924e-12
1.91097e-12
1.65608e-12
1.40328e-12
1.15986e-12
9.31191e-13
7.20417e-13
5.28301e-13
3.53289e-13
1.91749e-13
3.83665e-14
1.32939e-15
1.31142e-15
3.78563e-14
1.89296e-13
3.48898e-13
5.2197e-13
7.1219e-13
9.21194e-13
1.14832e-12
1.39054e-12
1.64259e-12
1.89727e-12
2.14592e-12
2.37897e-12
2.58669e-12
2.75983e-12
2.89032e-12
2.97191e-12
3.00061e-12
2.97499e-12
2.89631e-12
2.7684e-12
2.59741e-12
2.39129e-12
2.15924e-12
1.91097e-12
1.65608e-12
1.40328e-12
1.15986e-12
9.31191e-13
7.20417e-13
5.28301e-13
3.53289e-13
1.91749e-13
3.83665e-14
1.32939e-15
1.31142e-15
3.78563e-14
1.89296e-13
3.48898e-13
5.2197e-13
7.1219e-13
9.21194e-13
1.14832e-12
1.39054e-12
1.64259e-12
1.89727e-12
2.14592e-12
2.37897e-12
2.58669e-12