/*--------------------------------*- C++ -*----------------------------------*\
  =========                 |
  \\      /  F ield         | OpenFOAM: The Open Source CFD Toolbox
   \\    /   O peration     | Website:  https://openfoam.org
    \\  /    A nd           | Version:  13
     \\/     M anipulation  |
\*---------------------------------------------------------------------------*/
FoamFile
{
    format      ascii;
    class       volScalarField;
    location    "360";
    object      nut;
}
// * * * * * * * * * * * * * * * * * * * * * * * * * * * * * * * * * * * * * //

dimensions      [0 2 -1 0 0 0 0];

internalField   nonuniform List<scalar> 
78750
(
3.27176e-19
2.94458e-18
2.7333e-17
4.75533e-17
6.93696e-17
9.26832e-17
1.17391e-16
1.43268e-16
1.69926e-16
1.96817e-16
2.23265e-16
2.48502e-16
2.71722e-16
2.92126e-16
3.08978e-16
3.21645e-16
3.2964e-16
3.3265e-16
3.30554e-16
3.23432e-16
3.11557e-16
2.95385e-16
2.75519e-16
2.52679e-16
2.27654e-16
2.01252e-16
1.7425e-16
1.47341e-16
1.21092e-16
9.59131e-17
7.20425e-17
4.95801e-17
2.8581e-17
2.94458e-18
3.27176e-19
3.27176e-19
2.5395e-17
3.56774e-15
6.51473e-15
9.61744e-15
1.291e-14
1.63988e-14
2.00603e-14
2.38422e-14
2.76665e-14
3.14351e-14
3.50366e-14
3.83534e-14
4.12691e-14
4.36765e-14
4.54834e-14
4.66191e-14
4.70381e-14
4.67233e-14
4.56869e-14
4.39697e-14
4.16385e-14
3.87822e-14
3.5506e-14
3.19251e-14
2.81575e-14
2.43157e-14
2.04999e-14
1.67906e-14
1.32431e-14
9.88326e-15
6.70656e-15
3.67921e-15
2.62273e-17
3.27176e-19
3.27176e-19
6.96791e-17
9.85264e-15
1.81058e-14
2.69676e-14
3.65941e-14
4.70446e-14
5.82705e-14
7.01148e-14
8.23205e-14
9.45475e-14
1.06396e-13
1.17433e-13
1.27223e-13
1.35359e-13
1.41489e-13
1.4534e-13
1.46736e-13
1.45615e-13
1.42026e-13
1.3613e-13
1.28189e-13
1.18546e-13
1.07605e-13
9.57975e-14
8.35591e-14
7.12944e-14
5.93504e-14
4.79927e-14
3.7387e-14
2.75897e-14
1.8547e-14
1.01047e-14
7.15413e-17
3.27176e-19
5.08417e-19
1.32037e-16
1.86892e-14
3.44208e-14
5.14357e-14
7.00779e-14
9.04955e-14
1.12616e-13
1.36143e-13
1.60564e-13
1.85189e-13
2.09188e-13
2.31655e-13
2.51663e-13
2.6834e-13
2.80924e-13
2.88823e-13
2.91661e-13
2.89297e-13
2.81846e-13
2.69662e-13
2.53317e-13
2.33557e-13
2.11247e-13
1.87309e-13
1.62657e-13
1.38126e-13
1.14423e-13
9.20728e-14
7.13888e-14
5.24572e-14
3.51401e-14
1.90973e-14
1.35046e-16
5.20191e-19
7.7609e-19
2.0156e-16
2.85358e-14
5.25888e-14
7.86581e-14
1.07291e-13
1.38729e-13
1.72872e-13
2.09264e-13
2.47117e-13
2.85354e-13
3.22678e-13
3.57663e-13
3.88852e-13
4.14864e-13
4.34495e-13
4.46807e-13
4.51201e-13
4.4746e-13
4.35766e-13
4.16685e-13
3.91129e-13
3.6028e-13
3.25507e-13
2.88266e-13
2.49988e-13
2.11981e-13
1.75342e-13
1.40881e-13
1.09074e-13
8.00432e-14
5.35604e-14
2.9085e-14
2.05602e-16
7.91907e-19
1.03704e-18
2.69332e-16
3.81324e-14
7.02844e-14
1.0515e-13
1.43467e-13
1.85565e-13
2.3131e-13
2.80096e-13
3.30863e-13
3.82164e-13
4.32257e-13
4.79221e-13
5.21096e-13
5.56019e-13
5.82368e-13
5.9888e-13
6.04749e-13
5.99682e-13
5.83928e-13
5.58254e-13
5.2389e-13
4.82433e-13
4.35729e-13
3.85737e-13
3.34384e-13
2.83426e-13
2.34336e-13
1.88196e-13
1.45644e-13
1.06837e-13
7.14649e-14
3.87978e-14
2.74226e-16
1.05619e-18
1.27054e-18
3.29979e-16
4.67193e-14
8.61129e-14
1.28835e-13
1.75792e-13
2.27389e-13
2.83463e-13
3.43269e-13
4.05508e-13
4.68404e-13
5.2982e-13
5.87399e-13
6.38734e-13
6.81543e-13
7.13832e-13
7.34055e-13
7.41221e-13
7.34974e-13
7.15622e-13
6.84106e-13
6.41939e-13
5.91082e-13
5.33802e-13
4.72501e-13
4.09543e-13
3.47085e-13
2.86928e-13
2.304e-13
1.7828e-13
1.30759e-13
8.74566e-14
4.74749e-14
3.35534e-16
1.29228e-18
1.46577e-18
3.80695e-16
5.39006e-14
9.93485e-14
1.48636e-13
2.0281e-13
2.62337e-13
3.27029e-13
3.96025e-13
4.67827e-13
5.40386e-13
6.11234e-13
6.77653e-13
7.36864e-13
7.86234e-13
8.23465e-13
8.46771e-13
8.55012e-13
8.47778e-13
8.25425e-13
7.89043e-13
7.40376e-13
6.81688e-13
6.15597e-13
5.44875e-13
4.72248e-13
4.00204e-13
3.3082e-13
2.65629e-13
2.05527e-13
1.50735e-13
1.00812e-13
5.4722e-14
3.86732e-16
1.4894e-18
1.61907e-18
4.20528e-16
5.95417e-14
1.09745e-13
1.64188e-13
2.24028e-13
2.89779e-13
3.61235e-13
4.37443e-13
5.16748e-13
5.96886e-13
6.75131e-13
7.48481e-13
8.13866e-13
8.68378e-13
9.0948e-13
9.35201e-13
9.4428e-13
9.36269e-13
9.1156e-13
8.71358e-13
8.17591e-13
7.52761e-13
6.79759e-13
6.01646e-13
5.21435e-13
4.41873e-13
3.65252e-13
2.93266e-13
2.26903e-13
1.66407e-13
1.11289e-13
6.04075e-14
4.2689e-16
1.64397e-18
1.73222e-18
4.49941e-16
6.3708e-14
1.17423e-13
1.75673e-13
2.39697e-13
3.10044e-13
3.86493e-13
4.68025e-13
5.52868e-13
6.38601e-13
7.22306e-13
8.0077e-13
8.70711e-13
9.29017e-13
9.72974e-13
1.00047e-12
1.01017e-12
1.00158e-12
9.75131e-13
9.32107e-13
8.74574e-13
8.05209e-13
7.27105e-13
6.43537e-13
5.57729e-13
4.72617e-13
3.90656e-13
3.13655e-13
2.42673e-13
1.77968e-13
1.19018e-13
6.46013e-14
4.56504e-16
1.75791e-18
1.81077e-18
4.70367e-16
6.66023e-14
1.22757e-13
1.83652e-13
2.50582e-13
3.24122e-13
4.04039e-13
4.8927e-13
5.7796e-13
6.67578e-13
7.55075e-13
8.37091e-13
9.10196e-13
9.71135e-13
1.01707e-12
1.04581e-12
1.05593e-12
1.04694e-12
1.01928e-12
9.74291e-13
9.1414e-13
8.41624e-13
7.59976e-13
6.72619e-13
5.82922e-13
4.93957e-13
4.08288e-13
3.27806e-13
2.53617e-13
1.85991e-13
1.24382e-13
6.75111e-14
4.77044e-16
1.83691e-18
1.8621e-18
4.83722e-16
6.84952e-14
1.26246e-13
1.88871e-13
2.57701e-13
3.33329e-13
4.15516e-13
5.03165e-13
5.94371e-13
6.8653e-13
7.76507e-13
8.60846e-13
9.36019e-13
9.9868e-13
1.04591e-12
1.07545e-12
1.08585e-12
1.0766e-12
1.04814e-12
1.00187e-12
9.40009e-13
8.65431e-13
7.81463e-13
6.91628e-13
5.99389e-13
5.07904e-13
4.19811e-13
3.37053e-13
2.60768e-13
1.91232e-13
1.27885e-13
6.94118e-14
4.90455e-16
1.88846e-18
1.89372e-18
4.91954e-16
6.96624e-14
1.28397e-13
1.92089e-13
2.62091e-13
3.39007e-13
4.22592e-13
5.11733e-13
6.04491e-13
6.98218e-13
7.89723e-13
8.75495e-13
9.51943e-13
1.01567e-12
1.0637e-12
1.09373e-12
1.1043e-12
1.09488e-12
1.06594e-12
1.01888e-12
9.55955e-13
8.80105e-13
7.94707e-13
7.03344e-13
6.09537e-13
5.16498e-13
4.2691e-13
3.4275e-13
2.65173e-13
1.94461e-13
1.30043e-13
7.05824e-14
4.98712e-16
1.92017e-18
1.91211e-18
4.96745e-16
7.0342e-14
1.2965e-13
1.93963e-13
2.64648e-13
3.42314e-13
4.26714e-13
5.16723e-13
6.10385e-13
7.05025e-13
7.97421e-13
8.84026e-13
9.61217e-13
1.02556e-12
1.07405e-12
1.10438e-12
1.11505e-12
1.10553e-12
1.0763e-12
1.02878e-12
9.65239e-13
8.88648e-13
8.02417e-13
7.10163e-13
6.15443e-13
5.215e-13
4.31042e-13
3.46065e-13
2.67735e-13
1.96339e-13
1.31298e-13
7.12633e-14
5.03512e-16
1.9386e-18
1.92223e-18
4.99384e-16
7.07166e-14
1.3034e-13
1.94996e-13
2.66057e-13
3.44136e-13
4.28985e-13
5.19474e-13
6.13634e-13
7.08777e-13
8.01664e-13
8.88729e-13
9.6633e-13
1.03101e-12
1.07976e-12
1.11025e-12
1.12097e-12
1.1114e-12
1.08201e-12
1.03423e-12
9.70355e-13
8.93356e-13
8.06665e-13
7.1392e-13
6.18697e-13
5.24255e-13
4.33317e-13
3.4789e-13
2.69147e-13
1.97373e-13
1.31989e-13
7.16381e-14
5.06153e-16
1.94873e-18
1.92752e-18
5.00763e-16
7.09123e-14
1.30701e-13
1.95535e-13
2.66794e-13
3.45089e-13
4.30173e-13
5.20912e-13
6.15332e-13
7.10738e-13
8.03882e-13
8.91187e-13
9.69002e-13
1.03386e-12
1.08275e-12
1.11331e-12
1.12407e-12
1.11447e-12
1.085e-12
1.03708e-12
9.73029e-13
8.95815e-13
8.08884e-13
7.15883e-13
6.20396e-13
5.25694e-13
4.34506e-13
3.48844e-13
2.69884e-13
1.97913e-13
1.3235e-13
7.18337e-14
5.07531e-16
1.95401e-18
1.93014e-18
5.01447e-16
7.10095e-14
1.3088e-13
1.95803e-13
2.67159e-13
3.45562e-13
4.30763e-13
5.21626e-13
6.16176e-13
7.11712e-13
8.04984e-13
8.92409e-13
9.70329e-13
1.03528e-12
1.08423e-12
1.11484e-12
1.1256e-12
1.11599e-12
1.08648e-12
1.0385e-12
9.74357e-13
8.97037e-13
8.09987e-13
7.16858e-13
6.2124e-13
5.26409e-13
4.35096e-13
3.49317e-13
2.70249e-13
1.98181e-13
1.32529e-13
7.19308e-14
5.08214e-16
1.95663e-18
1.93137e-18
5.0177e-16
7.10555e-14
1.30965e-13
1.9593e-13
2.67332e-13
3.45786e-13
4.31042e-13
5.21964e-13
6.16575e-13
7.12173e-13
8.05505e-13
8.92987e-13
9.70958e-13
1.03595e-12
1.08493e-12
1.11556e-12
1.12633e-12
1.11671e-12
1.08718e-12
1.03917e-12
9.74985e-13
8.97615e-13
8.10508e-13
7.17319e-13
6.21639e-13
5.26746e-13
4.35375e-13
3.4954e-13
2.70422e-13
1.98308e-13
1.32614e-13
7.19767e-14
5.08537e-16
1.95787e-18
1.93193e-18
5.01916e-16
7.10762e-14
1.31003e-13
1.95987e-13
2.6741e-13
3.45887e-13
4.31168e-13
5.22116e-13
6.16755e-13
7.12381e-13
8.0574e-13
8.93247e-13
9.71241e-13
1.03625e-12
1.08525e-12
1.11588e-12
1.12666e-12
1.11704e-12
1.0875e-12
1.03947e-12
9.75268e-13
8.97875e-13
8.10743e-13
7.17526e-13
6.21819e-13
5.26899e-13
4.355e-13
3.49641e-13
2.705e-13
1.98365e-13
1.32652e-13
7.19974e-14
5.08682e-16
1.95842e-18
1.93217e-18
5.01979e-16
7.10852e-14
1.31019e-13
1.96012e-13
2.67444e-13
3.4593e-13
4.31222e-13
5.22182e-13
6.16833e-13
7.12471e-13
8.05842e-13
8.9336e-13
9.71364e-13
1.03638e-12
1.08538e-12
1.11602e-12
1.1268e-12
1.11718e-12
1.08763e-12
1.0396e-12
9.75391e-13
8.97988e-13
8.10845e-13
7.17616e-13
6.21897e-13
5.26965e-13
4.35555e-13
3.49685e-13
2.70534e-13
1.9839e-13
1.32669e-13
7.20063e-14
5.08745e-16
1.95866e-18
1.93227e-18
5.02005e-16
7.10889e-14
1.31026e-13
1.96022e-13
2.67458e-13
3.45948e-13
4.31244e-13
5.22209e-13
6.16865e-13
7.12508e-13
8.05884e-13
8.93407e-13
9.71414e-13
1.03643e-12
1.08544e-12
1.11608e-12
1.12686e-12
1.11724e-12
1.08769e-12
1.03966e-12
9.75441e-13
8.98034e-13
8.10887e-13
7.17653e-13
6.21929e-13
5.26992e-13
4.35577e-13
3.49703e-13
2.70548e-13
1.984e-13
1.32675e-13
7.201e-14
5.08771e-16
1.95876e-18
1.93231e-18
5.02015e-16
7.10903e-14
1.31029e-13
1.96026e-13
2.67464e-13
3.45955e-13
4.31253e-13
5.2222e-13
6.16878e-13
7.12523e-13
8.059e-13
8.93425e-13
9.71434e-13
1.03646e-12
1.08546e-12
1.11611e-12
1.12688e-12
1.11726e-12
1.08771e-12
1.03968e-12
9.75461e-13
8.98053e-13
8.10903e-13
7.17668e-13
6.21942e-13
5.27002e-13
4.35586e-13
3.4971e-13
2.70553e-13
1.98404e-13
1.32678e-13
7.20114e-14
5.08781e-16
1.9588e-18
1.93232e-18
5.02019e-16
7.10909e-14
1.3103e-13
1.96028e-13
2.67466e-13
3.45958e-13
4.31257e-13
5.22224e-13
6.16883e-13
7.12529e-13
8.05907e-13
8.93432e-13
9.71442e-13
1.03646e-12
1.08547e-12
1.11611e-12
1.12689e-12
1.11727e-12
1.08772e-12
1.03969e-12
9.75469e-13
8.9806e-13
8.10909e-13
7.17674e-13
6.21947e-13
5.27007e-13
4.35589e-13
3.49713e-13
2.70555e-13
1.98405e-13
1.32679e-13
7.2012e-14
5.08785e-16
1.95881e-18
1.93233e-18
5.02021e-16
7.10911e-14
1.3103e-13
1.96028e-13
2.67466e-13
3.45959e-13
4.31258e-13
5.22226e-13
6.16884e-13
7.12531e-13
8.05909e-13
8.93435e-13
9.71445e-13
1.03647e-12
1.08547e-12
1.11612e-12
1.12689e-12
1.11727e-12
1.08772e-12
1.03969e-12
9.75472e-13
8.98063e-13
8.10912e-13
7.17676e-13
6.21949e-13
5.27008e-13
4.35591e-13
3.49714e-13
2.70556e-13
1.98406e-13
1.32679e-13
7.20122e-14
5.08787e-16
1.95882e-18
1.93233e-18
5.02021e-16
7.10912e-14
1.31031e-13
1.96029e-13
2.67467e-13
3.4596e-13
4.31258e-13
5.22226e-13
6.16885e-13
7.12531e-13
8.0591e-13
8.93436e-13
9.71446e-13
1.03647e-12
1.08548e-12
1.11612e-12
1.1269e-12
1.11727e-12
1.08772e-12
1.03969e-12
9.75473e-13
8.98063e-13
8.10913e-13
7.17676e-13
6.21949e-13
5.27009e-13
4.35591e-13
3.49714e-13
2.70556e-13
1.98406e-13
1.3268e-13
7.20123e-14
5.08787e-16
1.95882e-18
1.93233e-18
5.02021e-16
7.10912e-14
1.31031e-13
1.96029e-13
2.67467e-13
3.4596e-13
4.31258e-13
5.22226e-13
6.16885e-13
7.12532e-13
8.0591e-13
8.93436e-13
9.71446e-13
1.03647e-12
1.08548e-12
1.11612e-12
1.1269e-12
1.11727e-12
1.08772e-12
1.03969e-12
9.75473e-13
8.98064e-13
8.10913e-13
7.17677e-13
6.21949e-13
5.27009e-13
4.35591e-13
3.49714e-13
2.70556e-13
1.98406e-13
1.3268e-13
7.20123e-14
5.08787e-16
1.95882e-18
1.93233e-18
5.02021e-16
7.10912e-14
1.31031e-13
1.96029e-13
2.67467e-13
3.4596e-13
4.31259e-13
5.22226e-13
6.16885e-13
7.12532e-13
8.0591e-13
8.93436e-13
9.71446e-13
1.03647e-12
1.08548e-12
1.11612e-12
1.1269e-12
1.11727e-12
1.08772e-12
1.03969e-12
9.75473e-13
8.98064e-13
8.10913e-13
7.17677e-13
6.21949e-13
5.27009e-13
4.35591e-13
3.49714e-13
2.70557e-13
1.98406e-13
1.3268e-13
7.20123e-14
5.08787e-16
1.95882e-18
1.93233e-18
5.02021e-16
7.10912e-14
1.31031e-13
1.96029e-13
2.67467e-13
3.4596e-13
4.31259e-13
5.22226e-13
6.16885e-13
7.12532e-13
8.0591e-13
8.93436e-13
9.71446e-13
1.03647e-12
1.08548e-12
1.11612e-12
1.1269e-12
1.11727e-12
1.08772e-12
1.03969e-12
9.75473e-13
8.98064e-13
8.10913e-13
7.17677e-13
6.2195e-13
5.27009e-13
4.35591e-13
3.49714e-13
2.70557e-13
1.98406e-13
1.3268e-13
7.20123e-14
5.08787e-16
1.95882e-18
1.93233e-18
5.02022e-16
7.10912e-14
1.31031e-13
1.96029e-13
2.67467e-13
3.4596e-13
4.31259e-13
5.22226e-13
6.16885e-13
7.12532e-13
8.0591e-13
8.93436e-13
9.71446e-13
1.03647e-12
1.08548e-12
1.11612e-12
1.1269e-12
1.11727e-12
1.08772e-12
1.03969e-12
9.75473e-13
8.98064e-13
8.10913e-13
7.17677e-13
6.2195e-13
5.27009e-13
4.35591e-13
3.49714e-13
2.70557e-13
1.98406e-13
1.3268e-13
7.20123e-14
5.08787e-16
1.95882e-18
1.93233e-18
5.02022e-16
7.10912e-14
1.31031e-13
1.96029e-13
2.67467e-13
3.4596e-13
4.31259e-13
5.22226e-13
6.16885e-13
7.12532e-13
8.0591e-13
8.93436e-13
9.71446e-13
1.03647e-12
1.08548e-12
1.11612e-12
1.1269e-12
1.11727e-12
1.08772e-12
1.03969e-12
9.75473e-13
8.98064e-13
8.10913e-13
7.17677e-13
6.2195e-13
5.27009e-13
4.35591e-13
3.49714e-13
2.70557e-13
1.98406e-13
1.3268e-13
7.20123e-14
5.08787e-16
1.95882e-18
1.93233e-18
5.02022e-16
7.10912e-14
1.31031e-13
1.96029e-13
2.67467e-13
3.4596e-13
4.31259e-13
5.22226e-13
6.16885e-13
7.12532e-13
8.0591e-13
8.93436e-13
9.71446e-13
1.03647e-12
1.08548e-12
1.11612e-12
1.1269e-12
1.11727e-12
1.08772e-12
1.03969e-12
9.75473e-13
8.98064e-13
8.10913e-13
7.17677e-13
6.2195e-13
5.27009e-13
4.35591e-13
3.49714e-13
2.70557e-13
1.98406e-13
1.3268e-13
7.20123e-14
5.08787e-16
1.95882e-18
1.93233e-18
5.02022e-16
7.10912e-14
1.31031e-13
1.96029e-13
2.67467e-13
3.4596e-13
4.31259e-13
5.22226e-13
6.16885e-13
7.12532e-13
8.0591e-13
8.93436e-13
9.71446e-13
1.03647e-12
1.08548e-12
1.11612e-12
1.1269e-12
1.11727e-12
1.08772e-12
1.03969e-12
9.75473e-13
8.98064e-13
8.10913e-13
7.17677e-13
6.2195e-13
5.27009e-13
4.35591e-13
3.49714e-13
2.70557e-13
1.98406e-13
1.3268e-13
7.20123e-14
5.08787e-16
1.95882e-18
1.93233e-18
5.02022e-16
7.10912e-14
1.31031e-13
1.96029e-13
2.67467e-13
3.4596e-13
4.31259e-13
5.22226e-13
6.16885e-13
7.12532e-13
8.0591e-13
8.93436e-13
9.71446e-13
1.03647e-12
1.08548e-12
1.11612e-12
1.1269e-12
1.11727e-12
1.08772e-12
1.03969e-12
9.75473e-13
8.98064e-13
8.10913e-13
7.17677e-13
6.2195e-13
5.27009e-13
4.35591e-13
3.49714e-13
2.70557e-13
1.98406e-13
1.3268e-13
7.20123e-14
5.08787e-16
1.95882e-18
1.93233e-18
5.02022e-16
7.10912e-14
1.31031e-13
1.96029e-13
2.67467e-13
3.4596e-13
4.31259e-13
5.22226e-13
6.16885e-13
7.12532e-13
8.0591e-13
8.93436e-13
9.71446e-13
1.03647e-12
1.08548e-12
1.11612e-12
1.1269e-12
1.11727e-12
1.08772e-12
1.03969e-12
9.75473e-13
8.98064e-13
8.10913e-13
7.17677e-13
6.2195e-13
5.27009e-13
4.35591e-13
3.49714e-13
2.70557e-13
1.98406e-13
1.3268e-13
7.20123e-14
5.08787e-16
1.95882e-18
1.93233e-18
5.02022e-16
7.10912e-14
1.31031e-13
1.96029e-13
2.67467e-13
3.4596e-13
4.31259e-13
5.22226e-13
6.16885e-13
7.12532e-13
8.0591e-13
8.93436e-13
9.71446e-13
1.03647e-12
1.08548e-12
1.11612e-12
1.1269e-12
1.11727e-12
1.08772e-12
1.03969e-12
9.75473e-13
8.98064e-13
8.10913e-13
7.17677e-13
6.2195e-13
5.27009e-13
4.35591e-13
3.49714e-13
2.70557e-13
1.98406e-13
1.3268e-13
7.20123e-14
5.08787e-16
1.95882e-18
1.93233e-18
5.02022e-16
7.10912e-14
1.31031e-13
1.96029e-13
2.67467e-13
3.4596e-13
4.31259e-13
5.22226e-13
6.16885e-13
7.12532e-13
8.0591e-13
8.93436e-13
9.71446e-13
1.03647e-12
1.08548e-12
1.11612e-12
1.1269e-12
1.11727e-12
1.08772e-12
1.03969e-12
9.75473e-13
8.98064e-13
8.10913e-13
7.17677e-13
6.2195e-13
5.27009e-13
4.35591e-13
3.49714e-13
2.70557e-13
1.98406e-13
1.3268e-13
7.20123e-14
5.08787e-16
1.95882e-18
1.93233e-18
5.02022e-16
7.10912e-14
1.31031e-13
1.96029e-13
2.67467e-13
3.4596e-13
4.31259e-13
5.22226e-13
6.16885e-13
7.12532e-13
8.0591e-13
8.93436e-13
9.71446e-13
1.03647e-12
1.08548e-12
1.11612e-12
1.1269e-12
1.11727e-12
1.08772e-12
1.03969e-12
9.75473e-13
8.98064e-13
8.10913e-13
7.17677e-13
6.2195e-13
5.27009e-13
4.35591e-13
3.49714e-13
2.70557e-13
1.98406e-13
1.3268e-13
7.20123e-14
5.08787e-16
1.95882e-18
1.93233e-18
5.02022e-16
7.10912e-14
1.31031e-13
1.96029e-13
2.67467e-13
3.4596e-13
4.31259e-13
5.22226e-13
6.16885e-13
7.12532e-13
8.0591e-13
8.93436e-13
9.71446e-13
1.03647e-12
1.08548e-12
1.11612e-12
1.1269e-12
1.11727e-12
1.08772e-12
1.03969e-12
9.75473e-13
8.98064e-13
8.10913e-13
7.17677e-13
6.2195e-13
5.27009e-13
4.35591e-13
3.49714e-13
2.70557e-13
1.98406e-13
1.3268e-13
7.20123e-14
5.08787e-16
1.95882e-18
1.93233e-18
5.02022e-16
7.10912e-14
1.31031e-13
1.96029e-13
2.67467e-13
3.4596e-13
4.31259e-13
5.22226e-13
6.16885e-13
7.12532e-13
8.0591e-13
8.93436e-13
9.71446e-13
1.03647e-12
1.08548e-12
1.11612e-12
1.1269e-12
1.11727e-12
1.08772e-12
1.03969e-12
9.75473e-13
8.98064e-13
8.10913e-13
7.17677e-13
6.2195e-13
5.27009e-13
4.35591e-13
3.49714e-13
2.70557e-13
1.98406e-13
1.3268e-13
7.20123e-14
5.08787e-16
1.95882e-18
1.93233e-18
5.02022e-16
7.10912e-14
1.31031e-13
1.96029e-13
2.67467e-13
3.4596e-13
4.31259e-13
5.22226e-13
6.16885e-13
7.12532e-13
8.0591e-13
8.93436e-13
9.71446e-13
1.03647e-12
1.08548e-12
1.11612e-12
1.1269e-12
1.11727e-12
1.08772e-12
1.03969e-12
9.75473e-13
8.98064e-13
8.10913e-13
7.17677e-13
6.2195e-13
5.27009e-13
4.35591e-13
3.49714e-13
2.70557e-13
1.98406e-13
1.3268e-13
7.20123e-14
5.08787e-16
1.95882e-18
1.93233e-18
5.02022e-16
7.10912e-14
1.31031e-13
1.96029e-13
2.67467e-13
3.4596e-13
4.31259e-13
5.22226e-13
6.16885e-13
7.12532e-13
8.0591e-13
8.93436e-13
9.71446e-13
1.03647e-12
1.08548e-12
1.11612e-12
1.1269e-12
1.11727e-12
1.08772e-12
1.03969e-12
9.75473e-13
8.98064e-13
8.10913e-13
7.17677e-13
6.2195e-13
5.27009e-13
4.35591e-13
3.49714e-13
2.70557e-13
1.98406e-13
1.3268e-13
7.20123e-14
5.08787e-16
1.95882e-18
1.93233e-18
5.02022e-16
7.10912e-14
1.31031e-13
1.96029e-13
2.67467e-13
3.4596e-13
4.31259e-13
5.22226e-13
6.16885e-13
7.12532e-13
8.0591e-13
8.93436e-13
9.71446e-13
1.03647e-12
1.08548e-12
1.11612e-12
1.1269e-12
1.11727e-12
1.08772e-12
1.03969e-12
9.75473e-13
8.98064e-13
8.10913e-13
7.17677e-13
6.2195e-13
5.27009e-13
4.35591e-13
3.49714e-13
2.70557e-13
1.98406e-13
1.3268e-13
7.20123e-14
5.08787e-16
1.95882e-18
1.93233e-18
5.02022e-16
7.10912e-14
1.31031e-13
1.96029e-13
2.67467e-13
3.4596e-13
4.31259e-13
5.22226e-13
6.16885e-13
7.12532e-13
8.0591e-13
8.93436e-13
9.71446e-13
1.03647e-12
1.08548e-12
1.11612e-12
1.1269e-12
1.11727e-12
1.08772e-12
1.03969e-12
9.75473e-13
8.98064e-13
8.10913e-13
7.17677e-13
6.2195e-13
5.27009e-13
4.35591e-13
3.49714e-13
2.70557e-13
1.98406e-13
1.3268e-13
7.20123e-14
5.08787e-16
1.95882e-18
1.93233e-18
5.02022e-16
7.10912e-14
1.31031e-13
1.96029e-13
2.67467e-13
3.4596e-13
4.31259e-13
5.22226e-13
6.16885e-13
7.12532e-13
8.0591e-13
8.93436e-13
9.71446e-13
1.03647e-12
1.08548e-12
1.11612e-12
1.1269e-12
1.11727e-12
1.08772e-12
1.03969e-12
9.75473e-13
8.98064e-13
8.10913e-13
7.17677e-13
6.2195e-13
5.27009e-13
4.35591e-13
3.49714e-13
2.70557e-13
1.98406e-13
1.3268e-13
7.20123e-14
5.08787e-16
1.95882e-18
1.93233e-18
5.02022e-16
7.10912e-14
1.31031e-13
1.96029e-13
2.67467e-13
3.4596e-13
4.31259e-13
5.22226e-13
6.16885e-13
7.12532e-13
8.0591e-13
8.93436e-13
9.71446e-13
1.03647e-12
1.08548e-12
1.11612e-12
1.1269e-12
1.11727e-12
1.08772e-12
1.03969e-12
9.75473e-13
8.98064e-13
8.10913e-13
7.17677e-13
6.2195e-13
5.27009e-13
4.35591e-13
3.49714e-13
2.70557e-13
1.98406e-13
1.3268e-13
7.20123e-14
5.08787e-16
1.95882e-18
1.93233e-18
5.02022e-16
7.10912e-14
1.31031e-13
1.96029e-13
2.67467e-13
3.4596e-13
4.31259e-13
5.22226e-13
6.16885e-13
7.12532e-13
8.0591e-13
8.93436e-13
9.71446e-13
1.03647e-12
1.08548e-12
1.11612e-12
1.1269e-12
1.11727e-12
1.08772e-12
1.03969e-12
9.75473e-13
8.98064e-13
8.10913e-13
7.17677e-13
6.2195e-13
5.27009e-13
4.35591e-13
3.49714e-13
2.70557e-13
1.98406e-13
1.3268e-13
7.20123e-14
5.08787e-16
1.95882e-18
1.93233e-18
5.02022e-16
7.10912e-14
1.31031e-13
1.96029e-13
2.67467e-13
3.4596e-13
4.31259e-13
5.22226e-13
6.16885e-13
7.12532e-13
8.0591e-13
8.93436e-13
9.71446e-13
1.03647e-12
1.08548e-12
1.11612e-12
1.1269e-12
1.11727e-12
1.08772e-12
1.03969e-12
9.75473e-13
8.98064e-13
8.10913e-13
7.17677e-13
6.2195e-13
5.27009e-13
4.35591e-13
3.49714e-13
2.70557e-13
1.98406e-13
1.3268e-13
7.20123e-14
5.08787e-16
1.95882e-18
1.93233e-18
5.02022e-16
7.10912e-14
1.31031e-13
1.96029e-13
2.67467e-13
3.4596e-13
4.31259e-13
5.22226e-13
6.16885e-13
7.12532e-13
8.0591e-13
8.93436e-13
9.71446e-13
1.03647e-12
1.08548e-12
1.11612e-12
1.1269e-12
1.11727e-12
1.08772e-12
1.03969e-12
9.75473e-13
8.98064e-13
8.10913e-13
7.17677e-13
6.2195e-13
5.27009e-13
4.35591e-13
3.49714e-13
2.70557e-13
1.98406e-13
1.3268e-13
7.20123e-14
5.08787e-16
1.95882e-18
1.93233e-18
5.02022e-16
7.10912e-14
1.31031e-13
1.96029e-13
2.67467e-13
3.4596e-13
4.31259e-13
5.22226e-13
6.16885e-13
7.12532e-13
8.0591e-13
8.93436e-13
9.71446e-13
1.03647e-12
1.08548e-12
1.11612e-12
1.1269e-12
1.11727e-12
1.08772e-12
1.03969e-12
9.75473e-13
8.98064e-13
8.10913e-13
7.17677e-13
6.2195e-13
5.27009e-13
4.35591e-13
3.49714e-13
2.70557e-13
1.98406e-13
1.3268e-13
7.20123e-14
5.08787e-16
1.95882e-18
1.93233e-18
5.02022e-16
7.10912e-14
1.31031e-13
1.96029e-13
2.67467e-13
3.4596e-13
4.31259e-13
5.22226e-13
6.16885e-13
7.12532e-13
8.0591e-13
8.93436e-13
9.71446e-13
1.03647e-12
1.08548e-12
1.11612e-12
1.1269e-12
1.11727e-12
1.08772e-12
1.03969e-12
9.75473e-13
8.98064e-13
8.10913e-13
7.17677e-13
6.2195e-13
5.27009e-13
4.35591e-13
3.49714e-13
2.70557e-13
1.98406e-13
1.3268e-13
7.20123e-14
5.08787e-16
1.95882e-18
1.93233e-18
5.02022e-16
7.10912e-14
1.31031e-13
1.96029e-13
2.67467e-13
3.4596e-13
4.31259e-13
5.22226e-13
6.16885e-13
7.12532e-13
8.0591e-13
8.93436e-13
9.71446e-13
1.03647e-12
1.08548e-12
1.11612e-12
1.1269e-12
1.11727e-12
1.08772e-12
1.03969e-12
9.75473e-13
8.98064e-13
8.10913e-13
7.17677e-13
6.2195e-13
5.27009e-13
4.35591e-13
3.49714e-13
2.70557e-13
1.98406e-13
1.3268e-13
7.20123e-14
5.08787e-16
1.95882e-18
1.93233e-18
5.02022e-16
7.10912e-14
1.31031e-13
1.96029e-13
2.67467e-13
3.4596e-13
4.31259e-13
5.22226e-13
6.16885e-13
7.12532e-13
8.0591e-13
8.93436e-13
9.71446e-13
1.03647e-12
1.08548e-12
1.11612e-12
1.1269e-12
1.11727e-12
1.08772e-12
1.03969e-12
9.75473e-13
8.98064e-13
8.10913e-13
7.17677e-13
6.2195e-13
5.27009e-13
4.35591e-13
3.49714e-13
2.70557e-13
1.98406e-13
1.3268e-13
7.20123e-14
5.08787e-16
1.95882e-18
1.93233e-18
5.02022e-16
7.10912e-14
1.31031e-13
1.96029e-13
2.67467e-13
3.4596e-13
4.31259e-13
5.22226e-13
6.16885e-13
7.12532e-13
8.0591e-13
8.93436e-13
9.71446e-13
1.03647e-12
1.08548e-12
1.11612e-12
1.1269e-12
1.11727e-12
1.08772e-12
1.03969e-12
9.75473e-13
8.98064e-13
8.10913e-13
7.17677e-13
6.2195e-13
5.27009e-13
4.35591e-13
3.49714e-13
2.70557e-13
1.98406e-13
1.3268e-13
7.20123e-14
5.08787e-16
1.95882e-18
1.93233e-18
5.02022e-16
7.10912e-14
1.31031e-13
1.96029e-13
2.67467e-13
3.4596e-13
4.31259e-13
5.22226e-13
6.16885e-13
7.12532e-13
8.0591e-13
8.93436e-13
9.71446e-13
1.03647e-12
1.08548e-12
1.11612e-12
1.1269e-12
1.11727e-12
1.08772e-12
1.03969e-12
9.75473e-13
8.98064e-13
8.10913e-13
7.17677e-13
6.2195e-13
5.27009e-13
4.35591e-13
3.49714e-13
2.70557e-13
1.98406e-13
1.3268e-13
7.20123e-14
5.08787e-16
1.95882e-18
1.93233e-18
5.02022e-16
7.10912e-14
1.31031e-13
1.96029e-13
2.67467e-13
3.4596e-13
4.31259e-13
5.22226e-13
6.16885e-13
7.12532e-13
8.0591e-13
8.93436e-13
9.71446e-13
1.03647e-12
1.08548e-12
1.11612e-12
1.1269e-12
1.11727e-12
1.08772e-12
1.03969e-12
9.75473e-13
8.98064e-13
8.10913e-13
7.17677e-13
6.2195e-13
5.27009e-13
4.35591e-13
3.49714e-13
2.70557e-13
1.98406e-13
1.3268e-13
7.20123e-14
5.08787e-16
1.95882e-18
1.93233e-18
5.02022e-16
7.10912e-14
1.31031e-13
1.96029e-13
2.67467e-13
3.4596e-13
4.31259e-13
5.22226e-13
6.16885e-13
7.12532e-13
8.0591e-13
8.93436e-13
9.71446e-13
1.03647e-12
1.08548e-12
1.11612e-12
1.1269e-12
1.11727e-12
1.08772e-12
1.03969e-12
9.75473e-13
8.98064e-13
8.10913e-13
7.17677e-13
6.2195e-13
5.27009e-13
4.35591e-13
3.49714e-13
2.70557e-13
1.98406e-13
1.3268e-13
7.20123e-14
5.08787e-16
1.95882e-18
1.93233e-18
5.02022e-16
7.10912e-14
1.31031e-13
1.96029e-13
2.67467e-13
3.4596e-13
4.31259e-13
5.22226e-13
6.16885e-13
7.12532e-13
8.0591e-13
8.93436e-13
9.71446e-13
1.03647e-12
1.08548e-12
1.11612e-12
1.1269e-12
1.11727e-12
1.08772e-12
1.03969e-12
9.75473e-13
8.98064e-13
8.10913e-13
7.17677e-13
6.2195e-13
5.27009e-13
4.35591e-13
3.49714e-13
2.70557e-13
1.98406e-13
1.3268e-13
7.20123e-14
5.08787e-16
1.95882e-18
1.93233e-18
5.02022e-16
7.10912e-14
1.31031e-13
1.96029e-13
2.67467e-13
3.4596e-13
4.31259e-13
5.22226e-13
6.16885e-13
7.12532e-13
8.0591e-13
8.93436e-13
9.71446e-13
1.03647e-12
1.08548e-12
1.11612e-12
1.1269e-12
1.11727e-12
1.08772e-12
1.03969e-12
9.75473e-13
8.98064e-13
8.10913e-13
7.17677e-13
6.2195e-13
5.27009e-13
4.35591e-13
3.49714e-13
2.70557e-13
1.98406e-13
1.3268e-13
7.20123e-14
5.08787e-16
1.95882e-18
1.93233e-18
5.02022e-16
7.10912e-14
1.31031e-13
1.96029e-13
2.67467e-13
3.4596e-13
4.31259e-13
5.22226e-13
6.16885e-13
7.12532e-13
8.0591e-13
8.93436e-13
9.71446e-13
1.03647e-12
1.08548e-12
1.11612e-12
1.1269e-12
1.11727e-12
1.08772e-12
1.03969e-12
9.75473e-13
8.98064e-13
8.10913e-13
7.17677e-13
6.2195e-13
5.27009e-13
4.35591e-13
3.49714e-13
2.70557e-13
1.98406e-13
1.3268e-13
7.20123e-14
5.08787e-16
1.95882e-18
1.93233e-18
5.02022e-16
7.10912e-14
1.31031e-13
1.96029e-13
2.67467e-13
3.4596e-13
4.31259e-13
5.22226e-13
6.16885e-13
7.12532e-13
8.0591e-13
8.93436e-13
9.71446e-13
1.03647e-12
1.08548e-12
1.11612e-12
1.1269e-12
1.11727e-12
1.08772e-12
1.03969e-12
9.75473e-13
8.98064e-13
8.10913e-13
7.17677e-13
6.2195e-13
5.27009e-13
4.35591e-13
3.49714e-13
2.70557e-13
1.98406e-13
1.3268e-13
7.20123e-14
5.08787e-16
1.95882e-18
1.93233e-18
5.02022e-16
7.10912e-14
1.31031e-13
1.96029e-13
2.67467e-13
3.4596e-13
4.31259e-13
5.22226e-13
6.16885e-13
7.12532e-13
8.0591e-13
8.93436e-13
9.71446e-13
1.03647e-12
1.08548e-12
1.11612e-12
1.1269e-12
1.11727e-12
1.08772e-12
1.03969e-12
9.75473e-13
8.98064e-13
8.10913e-13
7.17677e-13
6.2195e-13
5.27009e-13
4.35591e-13
3.49714e-13
2.70557e-13
1.98406e-13
1.3268e-13
7.20123e-14
5.08787e-16
1.95882e-18
1.93233e-18
5.02022e-16
7.10912e-14
1.31031e-13
1.96029e-13
2.67467e-13
3.4596e-13
4.31259e-13
5.22226e-13
6.16885e-13
7.12532e-13
8.0591e-13
8.93436e-13
9.71446e-13
1.03647e-12
1.08548e-12
1.11612e-12
1.1269e-12
1.11727e-12
1.08772e-12
1.03969e-12
9.75473e-13
8.98064e-13
8.10913e-13
7.17677e-13
6.2195e-13
5.27009e-13
4.35591e-13
3.49714e-13
2.70557e-13
1.98406e-13
1.3268e-13
7.20123e-14
5.08787e-16
1.95882e-18
1.93233e-18
5.02022e-16
7.10912e-14
1.31031e-13
1.96029e-13
2.67467e-13
3.4596e-13
4.31259e-13
5.22226e-13
6.16885e-13
7.12532e-13
8.0591e-13
8.93436e-13
9.71446e-13
1.03647e-12
1.08548e-12
1.11612e-12
1.1269e-12
1.11727e-12
1.08772e-12
1.03969e-12
9.75473e-13
8.98064e-13
8.10913e-13
7.17677e-13
6.2195e-13
5.27009e-13
4.35591e-13
3.49714e-13
2.70557e-13
1.98406e-13
1.3268e-13
7.20123e-14
5.08787e-16
1.95882e-18
1.93233e-18
5.02022e-16
7.10912e-14
1.31031e-13
1.96029e-13
2.67467e-13
3.4596e-13
4.31259e-13
5.22226e-13
6.16885e-13
7.12532e-13
8.0591e-13
8.93436e-13
9.71446e-13
1.03647e-12
1.08548e-12
1.11612e-12
1.1269e-12
1.11727e-12
1.08772e-12
1.03969e-12
9.75473e-13
8.98064e-13
8.10913e-13
7.17677e-13
6.2195e-13
5.27009e-13
4.35591e-13
3.49714e-13
2.70557e-13
1.98406e-13
1.3268e-13
7.20123e-14
5.08787e-16
1.95882e-18
1.93233e-18
5.02022e-16
7.10912e-14
1.31031e-13
1.96029e-13
2.67467e-13
3.4596e-13
4.31259e-13
5.22226e-13
6.16885e-13
7.12532e-13
8.0591e-13
8.93436e-13
9.71446e-13
1.03647e-12
1.08548e-12
1.11612e-12
1.1269e-12
1.11727e-12
1.08772e-12
1.03969e-12
9.75473e-13
8.98064e-13
8.10913e-13
7.17677e-13
6.2195e-13
5.27009e-13
4.35591e-13
3.49714e-13
2.70557e-13
1.98406e-13
1.3268e-13
7.20123e-14
5.08787e-16
1.95882e-18
1.93233e-18
5.02022e-16
7.10912e-14
1.31031e-13
1.96029e-13
2.67467e-13
3.4596e-13
4.31259e-13
5.22226e-13
6.16885e-13
7.12532e-13
8.0591e-13
8.93436e-13
9.71446e-13
1.03647e-12
1.08548e-12
1.11612e-12
1.1269e-12
1.11727e-12
1.08772e-12
1.03969e-12
9.75473e-13
8.98064e-13
8.10913e-13
7.17677e-13
6.2195e-13
5.27009e-13
4.35591e-13
3.49714e-13
2.70557e-13
1.98406e-13
1.3268e-13
7.20123e-14
5.08787e-16
1.95882e-18
1.93233e-18
5.02022e-16
7.10912e-14
1.31031e-13
1.96029e-13
2.67467e-13
3.4596e-13
4.31259e-13
5.22226e-13
6.16885e-13
7.12532e-13
8.0591e-13
8.93436e-13
9.71446e-13
1.03647e-12
1.08548e-12
1.11612e-12
1.1269e-12
1.11727e-12
1.08772e-12
1.03969e-12
9.75473e-13
8.98064e-13
8.10913e-13
7.17677e-13
6.2195e-13
5.27009e-13
4.35591e-13
3.49714e-13
2.70557e-13
1.98406e-13
1.3268e-13
7.20123e-14
5.08787e-16
1.95882e-18
1.93233e-18
5.02022e-16
7.10912e-14
1.31031e-13
1.96029e-13
2.67467e-13
3.4596e-13
4.31259e-13
5.22226e-13
6.16885e-13
7.12532e-13
8.0591e-13
8.93436e-13
9.71446e-13
1.03647e-12
1.08548e-12
1.11612e-12
1.1269e-12
1.11727e-12
1.08772e-12
1.03969e-12
9.75473e-13
8.98064e-13
8.10913e-13
7.17677e-13
6.2195e-13
5.27009e-13
4.35591e-13
3.49714e-13
2.70557e-13
1.98406e-13
1.3268e-13
7.20123e-14
5.08787e-16
1.95882e-18
1.93233e-18
5.02022e-16
7.10912e-14
1.31031e-13
1.96029e-13
2.67467e-13
3.4596e-13
4.31259e-13
5.22226e-13
6.16885e-13
7.12532e-13
8.0591e-13
8.93436e-13
9.71446e-13
1.03647e-12
1.08548e-12
1.11612e-12
1.1269e-12
1.11727e-12
1.08772e-12
1.03969e-12
9.75473e-13
8.98064e-13
8.10913e-13
7.17677e-13
6.2195e-13
5.27009e-13
4.35591e-13
3.49714e-13
2.70557e-13
1.98406e-13
1.3268e-13
7.20123e-14
5.08787e-16
1.95882e-18
1.93233e-18
5.02022e-16
7.10912e-14
1.31031e-13
1.96029e-13
2.67467e-13
3.4596e-13
4.31259e-13
5.22226e-13
6.16885e-13
7.12532e-13
8.0591e-13
8.93436e-13
9.71446e-13
1.03647e-12
1.08548e-12
1.11612e-12
1.1269e-12
1.11727e-12
1.08772e-12
1.03969e-12
9.75473e-13
8.98064e-13
8.10913e-13
7.17677e-13
6.2195e-13
5.27009e-13
4.35591e-13
3.49714e-13
2.70557e-13
1.98406e-13
1.3268e-13
7.20123e-14
5.08787e-16
1.95882e-18
1.93233e-18
5.02022e-16
7.10912e-14
1.31031e-13
1.96029e-13
2.67467e-13
3.4596e-13
4.31259e-13
5.22226e-13
6.16885e-13
7.12532e-13
8.0591e-13
8.93436e-13
9.71446e-13
1.03647e-12
1.08548e-12
1.11612e-12
1.1269e-12
1.11727e-12
1.08772e-12
1.03969e-12