/*--------------------------------*- C++ -*----------------------------------*\
  =========                 |
  \\      /  F ield         | OpenFOAM: The Open Source CFD Toolbox
   \\    /   O peration     | Website:  https://openfoam.org
    \\  /    A nd           | Version:  13
     \\/     M anipulation  |
\*---------------------------------------------------------------------------*/
FoamFile
{
    format      ascii;
    class       volScalarField;
    location    "147.5";
    object      rhok;
}
// * * * * * * * * * * * * * * * * * * * * * * * * * * * * * * * * * * * * * //

dimensions      [];

internalField   nonuniform List<scalar> 
315000
(
0.444626
0.429783
0.414919
0.413497
0.412752
0.41201
0.41127
0.410533
0.409799
0.409067
0.408338
0.407612
0.406888
0.406168
0.40545
0.404735
0.404023
0.403314
0.402608
0.401905
0.401205
0.400508
0.399814
0.399123
0.398435
0.397751
0.39707
0.396392
0.395717
0.395045
0.394376
0.393711
0.393048
0.392389
0.391733
0.39108
0.39043
0.389783
0.389139
0.388498
0.38786
0.387225
0.386592
0.385962
0.385336
0.384711
0.384089
0.38347
0.382853
0.382239
0.381627
0.381017
0.380409
0.379803
0.379199
0.378596
0.377996
0.377397
0.376799
0.376203
0.375609
0.375015
0.374422
0.373831
0.37324
0.37265
0.37206
0.371471
0.370882
0.370293
0.444626
0.429782
0.414916
0.413494
0.412749
0.412007
0.411267
0.41053
0.409796
0.409064
0.408335
0.407609
0.406885
0.406164
0.405446
0.404731
0.404019
0.40331
0.402604
0.401901
0.401201
0.400504
0.39981
0.39912
0.398432
0.397748
0.397066
0.396388
0.395713
0.395041
0.394373
0.393707
0.393045
0.392386
0.39173
0.391077
0.390427
0.38978
0.389136
0.388495
0.387857
0.387222
0.386589
0.38596
0.385333
0.384708
0.384087
0.383468
0.382851
0.382236
0.381624
0.381014
0.380406
0.379801
0.379197
0.378595
0.377994
0.377395
0.376798
0.376202
0.375607
0.375014
0.374421
0.37383
0.373239
0.372649
0.37206
0.371471
0.370882
0.370293
0.444626
0.429781
0.414914
0.413491
0.412747
0.412005
0.411265
0.410528
0.409793
0.409061
0.408332
0.407606
0.406882
0.406161
0.405444
0.404728
0.404016
0.403307
0.402601
0.401898
0.401198
0.400501
0.399807
0.399116
0.398429
0.397744
0.397063
0.396385
0.39571
0.395038
0.39437
0.393704
0.393042
0.392383
0.391727
0.391074
0.390424
0.389777
0.389133
0.388492
0.387854
0.387219
0.386587
0.385957
0.38533
0.384706
0.384084
0.383465
0.382849
0.382234
0.381622
0.381012
0.380405
0.379799
0.379195
0.378593
0.377993
0.377394
0.376797
0.376201
0.375606
0.375013
0.374421
0.373829
0.373239
0.372649
0.372059
0.37147
0.370882
0.370293
0.444626
0.42978
0.414912
0.413489
0.412745
0.412002
0.411263
0.410526
0.409791
0.409059
0.40833
0.407603
0.40688
0.406159
0.405441
0.404726
0.404014
0.403305
0.402598
0.401895
0.401195
0.400498
0.399805
0.399114
0.398426
0.397742
0.39706
0.396382
0.395707
0.395036
0.394367
0.393702
0.393039
0.39238
0.391724
0.391071
0.390421
0.389774
0.389131
0.38849
0.387852
0.387217
0.386584
0.385955
0.385328
0.384704
0.384082
0.383463
0.382847
0.382232
0.38162
0.381011
0.380403
0.379797
0.379194
0.378592
0.377991
0.377393
0.376796
0.3762
0.375605
0.375012
0.37442
0.373829
0.373238
0.372648
0.372059
0.37147
0.370882
0.370293
0.444626
0.429779
0.41491
0.413487
0.412743
0.412
0.411261
0.410524
0.409789
0.409057
0.408328
0.407601
0.406878
0.406157
0.405439
0.404724
0.404012
0.403302
0.402596
0.401893
0.401193
0.400496
0.399802
0.399111
0.398424
0.397739
0.397058
0.39638
0.395705
0.395033
0.394365
0.393699
0.393037
0.392378
0.391722
0.391069
0.390419
0.389772
0.389128
0.388488
0.38785
0.387215
0.386582
0.385953
0.385326
0.384702
0.384081
0.383462
0.382845
0.382231
0.381619
0.381009
0.380402
0.379796
0.379192
0.37859
0.37799
0.377392
0.376795
0.376199
0.375605
0.375011
0.374419
0.373828
0.373238
0.372648
0.372059
0.37147
0.370881
0.370293
0.444626
0.429778
0.414908
0.413486
0.412741
0.411999
0.411259
0.410522
0.409787
0.409055
0.408326
0.4076
0.406876
0.406155
0.405437
0.404722
0.40401
0.403301
0.402594
0.401891
0.401191
0.400494
0.3998
0.39911
0.398422
0.397738
0.397056
0.396378
0.395703
0.395032
0.394363
0.393698
0.393035
0.392376
0.39172
0.391067
0.390417
0.389771
0.389127
0.388486
0.387848
0.387213
0.386581
0.385951
0.385325
0.384701
0.384079
0.38346
0.382844
0.38223
0.381618
0.381008
0.380401
0.379795
0.379191
0.37859
0.377989
0.377391
0.376794
0.376198
0.375604
0.375011
0.374419
0.373828
0.373237
0.372648
0.372058
0.37147
0.370881
0.370293
0.444626
0.429778
0.414907
0.413485
0.41274
0.411998
0.411258
0.410521
0.409786
0.409054
0.408325
0.407598
0.406875
0.406154
0.405436
0.404721
0.404008
0.403299
0.402593
0.40189
0.40119
0.400493
0.399799
0.399108
0.398421
0.397736
0.397055
0.396377
0.395702
0.39503
0.394362
0.393696
0.393034
0.392375
0.391719
0.391066
0.390416
0.389769
0.389125
0.388485
0.387847
0.387212
0.38658
0.38595
0.385324
0.3847
0.384078
0.383459
0.382843
0.382229
0.381617
0.381007
0.3804
0.379794
0.379191
0.378589
0.377989
0.37739
0.376793
0.376198
0.375604
0.37501
0.374418
0.373827
0.373237
0.372647
0.372058
0.37147
0.370881
0.370293
0.444626
0.429777
0.414907
0.413484
0.412739
0.411997
0.411257
0.41052
0.409785
0.409053
0.408324
0.407598
0.406874
0.406153
0.405435
0.40472
0.404008
0.403298
0.402592
0.401889
0.401189
0.400492
0.399798
0.399107
0.39842
0.397735
0.397054
0.396376
0.395701
0.395029
0.39436
0.393695
0.393033
0.392374
0.391718
0.391065
0.390415
0.389768
0.389124
0.388484
0.387846
0.387211
0.386579
0.385949
0.385323
0.384699
0.384077
0.383458
0.382842
0.382228
0.381616
0.381006
0.380399
0.379794
0.37919
0.378588
0.377988
0.37739
0.376793
0.376197
0.375603
0.37501
0.374418
0.373827
0.373237
0.372647
0.372058
0.37147
0.370881
0.370293
0.444626
0.429777
0.414906
0.413484
0.412739
0.411996
0.411257
0.410519
0.409785
0.409053
0.408323
0.407597
0.406873
0.406152
0.405434
0.404719
0.404007
0.403298
0.402591
0.401888
0.401188
0.400491
0.399797
0.399107
0.398419
0.397734
0.397053
0.396375
0.3957
0.395028
0.39436
0.393694
0.393032
0.392373
0.391717
0.391064
0.390414
0.389768
0.389124
0.388483
0.387845
0.38721
0.386578
0.385949
0.385322
0.384698
0.384077
0.383458
0.382841
0.382227
0.381616
0.381006
0.380399
0.379793
0.37919
0.378588
0.377988
0.377389
0.376793
0.376197
0.375603
0.37501
0.374418
0.373827
0.373237
0.372647
0.372058
0.371469
0.370881
0.370293
0.444626
0.429777
0.414906
0.413483
0.412739
0.411996
0.411256
0.410519
0.409784
0.409052
0.408323
0.407597
0.406873
0.406152
0.405434
0.404719
0.404007
0.403297
0.402591
0.401888
0.401188
0.400491
0.399797
0.399106
0.398419
0.397734
0.397053
0.396375
0.3957
0.395028
0.394359
0.393694
0.393032
0.392373
0.391717
0.391064
0.390414
0.389767
0.389123
0.388483
0.387845
0.38721
0.386578
0.385948
0.385322
0.384698
0.384076
0.383458
0.382841
0.382227
0.381615
0.381006
0.380398
0.379793
0.379189
0.378588
0.377988
0.377389
0.376792
0.376197
0.375603
0.37501
0.374418
0.373827
0.373236
0.372647
0.372058
0.371469
0.370881
0.370293
0.444626
0.429777
0.414906
0.413483
0.412738
0.411996
0.411256
0.410519
0.409784
0.409052
0.408323
0.407596
0.406873
0.406152
0.405434
0.404719
0.404006
0.403297
0.402591
0.401888
0.401188
0.400491
0.399797
0.399106
0.398418
0.397734
0.397053
0.396374
0.3957
0.395028
0.394359
0.393694
0.393032
0.392372
0.391716
0.391064
0.390414
0.389767
0.389123
0.388482
0.387845
0.38721
0.386578
0.385948
0.385322
0.384698
0.384076
0.383457
0.382841
0.382227
0.381615
0.381006
0.380398
0.379793
0.379189
0.378587
0.377987
0.377389
0.376792
0.376197
0.375603
0.37501
0.374418
0.373827
0.373236
0.372647
0.372058
0.371469
0.370881
0.370293
0.444626
0.429777
0.414906
0.413483
0.412738
0.411996
0.411256
0.410519
0.409784
0.409052
0.408323
0.407596
0.406873
0.406152
0.405434
0.404719
0.404006
0.403297
0.402591
0.401888
0.401188
0.400491
0.399797
0.399106
0.398418
0.397734
0.397053
0.396374
0.395699
0.395028
0.394359
0.393694
0.393031
0.392372
0.391716
0.391063
0.390414
0.389767
0.389123
0.388482
0.387845
0.38721
0.386577
0.385948
0.385321
0.384698
0.384076
0.383457
0.382841
0.382227
0.381615
0.381006
0.380398
0.379793
0.379189
0.378587
0.377987
0.377389
0.376792
0.376197
0.375603
0.37501
0.374418
0.373827
0.373236
0.372647
0.372058
0.371469
0.370881
0.370293
0.444626
0.429777
0.414906
0.413483
0.412739
0.411996
0.411256
0.410519
0.409784
0.409052
0.408323
0.407597
0.406873
0.406152
0.405434
0.404719
0.404006
0.403297
0.402591
0.401888
0.401188
0.400491
0.399797
0.399106
0.398418
0.397734
0.397053
0.396375
0.3957
0.395028
0.394359
0.393694
0.393032
0.392372
0.391716
0.391064
0.390414
0.389767
0.389123
0.388482
0.387845
0.38721
0.386577
0.385948
0.385322
0.384698
0.384076
0.383457
0.382841
0.382227
0.381615
0.381006
0.380398
0.379793
0.379189
0.378587
0.377987
0.377389
0.376792
0.376197
0.375603
0.37501
0.374418
0.373827
0.373236
0.372647
0.372058
0.371469
0.370881
0.370293
0.444626
0.429777
0.414906
0.413483
0.412739
0.411996
0.411257
0.410519
0.409785
0.409053
0.408323
0.407597
0.406873
0.406152
0.405434
0.404719
0.404007
0.403297
0.402591
0.401888
0.401188
0.400491
0.399797
0.399106
0.398419
0.397734
0.397053
0.396375
0.3957
0.395028
0.394359
0.393694
0.393032
0.392373
0.391717
0.391064
0.390414
0.389767
0.389123
0.388483
0.387845
0.38721
0.386578
0.385948
0.385322
0.384698
0.384076
0.383457
0.382841
0.382227
0.381615
0.381006
0.380398
0.379793
0.379189
0.378587
0.377988
0.377389
0.376792
0.376197
0.375603
0.37501
0.374418
0.373827
0.373236
0.372647
0.372058
0.371469
0.370881
0.370293
0.444626
0.429777
0.414906
0.413484
0.412739
0.411997
0.411257
0.41052
0.409785
0.409053
0.408324
0.407597
0.406873
0.406152
0.405434
0.404719
0.404007
0.403298
0.402591
0.401888
0.401188
0.400491
0.399797
0.399106
0.398419
0.397734
0.397053
0.396375
0.3957
0.395028
0.39436
0.393694
0.393032
0.392373
0.391717
0.391064
0.390414
0.389767
0.389124
0.388483
0.387845
0.38721
0.386578
0.385948
0.385322
0.384698
0.384076
0.383458
0.382841
0.382227
0.381615
0.381006
0.380398
0.379793
0.379189
0.378588
0.377988
0.377389
0.376792
0.376197
0.375603
0.37501
0.374418
0.373827
0.373236
0.372647
0.372058
0.371469
0.370881
0.370293
0.444626
0.429777
0.414907
0.413484
0.412739
0.411997
0.411257
0.41052
0.409785
0.409053
0.408324
0.407597
0.406874
0.406153
0.405435
0.404719
0.404007
0.403298
0.402592
0.401889
0.401188
0.400491
0.399798
0.399107
0.398419
0.397735
0.397053
0.396375
0.3957
0.395029
0.39436
0.393694
0.393032
0.392373
0.391717
0.391064
0.390414
0.389768
0.389124
0.388483
0.387845
0.38721
0.386578
0.385949
0.385322
0.384698
0.384077
0.383458
0.382841
0.382227
0.381615
0.381006
0.380398
0.379793
0.379189
0.378588
0.377988
0.377389
0.376792
0.376197
0.375603
0.37501
0.374418
0.373827
0.373237
0.372647
0.372058
0.371469
0.370881
0.370293
0.444626
0.429777
0.414907
0.413484
0.41274
0.411997
0.411257
0.41052
0.409786
0.409054
0.408324
0.407598
0.406874
0.406153
0.405435
0.40472
0.404008
0.403298
0.402592
0.401889
0.401189
0.400492
0.399798
0.399107
0.39842
0.397735
0.397054
0.396376
0.395701
0.395029
0.39436
0.393695
0.393033
0.392373
0.391717
0.391065
0.390415
0.389768
0.389124
0.388483
0.387845
0.38721
0.386578
0.385949
0.385322
0.384698
0.384077
0.383458
0.382842
0.382227
0.381616
0.381006
0.380399
0.379793
0.37919
0.378588
0.377988
0.37739
0.376793
0.376197
0.375603
0.37501
0.374418
0.373827
0.373237
0.372647
0.372058
0.371469
0.370881
0.370293
0.444626
0.429778
0.414907
0.413485
0.41274
0.411998
0.411258
0.410521
0.409786
0.409054
0.408325
0.407598
0.406874
0.406154
0.405435
0.40472
0.404008
0.403299
0.402593
0.401889
0.401189
0.400492
0.399798
0.399108
0.39842
0.397736
0.397054
0.396376
0.395701
0.395029
0.394361
0.393695
0.393033
0.392374
0.391718
0.391065
0.390415
0.389768
0.389125
0.388484
0.387846
0.387211
0.386579
0.385949
0.385323
0.384699
0.384077
0.383458
0.382842
0.382228
0.381616
0.381006
0.380399
0.379793
0.37919
0.378588
0.377988
0.37739
0.376793
0.376197
0.375603
0.37501
0.374418
0.373827
0.373237
0.372647
0.372058
0.371469
0.370881
0.370293
0.444626
0.429778
0.414908
0.413485
0.41274
0.411998
0.411258
0.410521
0.409787
0.409055
0.408325
0.407599
0.406875
0.406154
0.405436
0.404721
0.404009
0.403299
0.402593
0.40189
0.40119
0.400493
0.399799
0.399108
0.398421
0.397736
0.397055
0.396377
0.395702
0.39503
0.394361
0.393696
0.393034
0.392374
0.391718
0.391065
0.390416
0.389769
0.389125
0.388484
0.387846
0.387211
0.386579
0.38595
0.385323
0.384699
0.384078
0.383459
0.382842
0.382228
0.381616
0.381007
0.380399
0.379794
0.37919
0.378588
0.377988
0.37739
0.376793
0.376197
0.375603
0.37501
0.374418
0.373827
0.373237
0.372647
0.372058
0.37147
0.370881
0.370293
0.444626
0.429778
0.414908
0.413486
0.412741
0.411999
0.411259
0.410522
0.409787
0.409055
0.408326
0.407599
0.406876
0.406155
0.405437
0.404722
0.404009
0.4033
0.402594
0.401891
0.401191
0.400494
0.3998
0.399109
0.398421
0.397737
0.397055
0.396377
0.395702
0.395031
0.394362
0.393696
0.393034
0.392375
0.391719
0.391066
0.390416
0.389769
0.389126
0.388485
0.387847
0.387212
0.38658
0.38595
0.385323
0.384699
0.384078
0.383459
0.382843
0.382228
0.381617
0.381007
0.380399
0.379794
0.37919
0.378589
0.377989
0.37739
0.376793
0.376198
0.375603
0.37501
0.374418
0.373827
0.373237
0.372647
0.372058
0.37147
0.370881
0.370293
0.444626
0.429778
0.414909
0.413486
0.412742
0.411999
0.41126
0.410523
0.409788
0.409056
0.408327
0.4076
0.406876
0.406156
0.405437
0.404722
0.40401
0.403301
0.402595
0.401892
0.401191
0.400494
0.3998
0.39911
0.398422
0.397738
0.397056
0.396378
0.395703
0.395031
0.394363
0.393697
0.393035
0.392376
0.39172
0.391067
0.390417
0.38977
0.389126
0.388485
0.387847
0.387212
0.38658
0.385951
0.385324
0.3847
0.384078
0.383459
0.382843
0.382229
0.381617
0.381007
0.3804
0.379794
0.379191
0.378589
0.377989
0.37739
0.376793
0.376198
0.375604
0.37501
0.374418
0.373827
0.373237
0.372647
0.372058
0.37147
0.370881
0.370293
0.444626
0.429779
0.41491
0.413487
0.412742
0.412
0.41126
0.410523
0.409789
0.409057
0.408327
0.407601
0.406877
0.406156
0.405438
0.404723
0.404011
0.403302
0.402595
0.401892
0.401192
0.400495
0.399801
0.39911
0.398423
0.397738
0.397057
0.396379
0.395704
0.395032
0.394363
0.393698
0.393036
0.392376
0.39172
0.391067
0.390417
0.389771
0.389127
0.388486
0.387848
0.387213
0.386581
0.385951
0.385324
0.3847
0.384079
0.38346
0.382843
0.382229
0.381617
0.381008
0.3804
0.379795
0.379191
0.378589
0.377989
0.377391
0.376794
0.376198
0.375604
0.375011
0.374419
0.373827
0.373237
0.372647
0.372058
0.37147
0.370881
0.370293
0.444626
0.429779
0.41491
0.413488
0.412743
0.412001
0.411261
0.410524
0.409789
0.409057
0.408328
0.407602
0.406878
0.406157
0.405439
0.404724
0.404012
0.403303
0.402596
0.401893
0.401193
0.400496
0.399802
0.399111
0.398424
0.397739
0.397058
0.39638
0.395705
0.395033
0.394364
0.393699
0.393036
0.392377
0.391721
0.391068
0.390418
0.389771
0.389127
0.388486
0.387848
0.387213
0.386581
0.385952
0.385325
0.384701
0.384079
0.38346
0.382844
0.38223
0.381618
0.381008
0.380401
0.379795
0.379191
0.378589
0.377989
0.377391
0.376794
0.376198
0.375604
0.375011
0.374419
0.373828
0.373237
0.372648
0.372058
0.37147
0.370881
0.370293
0.444626
0.429779
0.414911
0.413489
0.412744
0.412002
0.411262
0.410525
0.40979
0.409058
0.408329
0.407602
0.406879
0.406158
0.40544
0.404725
0.404013
0.403303
0.402597
0.401894
0.401194
0.400497
0.399803
0.399112
0.398424
0.39774
0.397058
0.39638
0.395705
0.395033
0.394365
0.393699
0.393037
0.392378
0.391722
0.391069
0.390419
0.389772
0.389128
0.388487
0.387849
0.387214
0.386582
0.385952
0.385325
0.384701
0.38408
0.383461
0.382844
0.38223
0.381618
0.381008
0.380401
0.379795
0.379192
0.37859
0.37799
0.377391
0.376794
0.376198
0.375604
0.375011
0.374419
0.373828
0.373237
0.372648
0.372058
0.37147
0.370881
0.370293
0.444626
0.42978
0.414912
0.413489
0.412745
0.412002
0.411263
0.410525
0.409791
0.409059
0.40833
0.407603
0.40688
0.406159
0.405441
0.404725
0.404013
0.403304
0.402598
0.401895
0.401195
0.400498
0.399804
0.399113
0.398425
0.397741
0.397059
0.396381
0.395706
0.395034
0.394365
0.3937
0.393038
0.392378
0.391722
0.391069
0.390419
0.389772
0.389129
0.388488
0.38785
0.387215
0.386582
0.385953
0.385326
0.384702
0.38408
0.383461
0.382845
0.382231
0.381619
0.381009
0.380401
0.379796
0.379192
0.37859
0.37799
0.377391
0.376794
0.376199
0.375604
0.375011
0.374419
0.373828
0.373237
0.372648
0.372059
0.37147
0.370881
0.370293
0.444626
0.42978
0.414912
0.41349
0.412745
0.412003
0.411263
0.410526
0.409792
0.40906
0.40833
0.407604
0.40688
0.406159
0.405441
0.404726
0.404014
0.403305
0.402599
0.401895
0.401195
0.400498
0.399804
0.399113
0.398426
0.397741
0.39706
0.396382
0.395707
0.395035
0.394366
0.393701
0.393038
0.392379
0.391723
0.39107
0.39042
0.389773
0.389129
0.388488
0.38785
0.387215
0.386583
0.385953
0.385326
0.384702
0.384081
0.383462
0.382845
0.382231
0.381619
0.381009
0.380402
0.379796
0.379192
0.37859
0.37799
0.377392
0.376795
0.376199
0.375605
0.375011
0.374419
0.373828
0.373238
0.372648
0.372059
0.37147
0.370881
0.370293
0.444626
0.42978
0.414913
0.41349
0.412746
0.412004
0.411264
0.410527
0.409792
0.40906
0.408331
0.407605
0.406881
0.40616
0.405442
0.404727
0.404015
0.403306
0.402599
0.401896
0.401196
0.400499
0.399805
0.399114
0.398426
0.397742
0.397061
0.396382
0.395707
0.395035
0.394367
0.393701
0.393039
0.39238
0.391724
0.39107
0.390421
0.389774
0.38913
0.388489
0.387851
0.387216
0.386583
0.385954
0.385327
0.384703
0.384081
0.383462
0.382846
0.382231
0.381619
0.38101
0.380402
0.379796
0.379193
0.378591
0.37799
0.377392
0.376795
0.376199
0.375605
0.375011
0.374419
0.373828
0.373238
0.372648
0.372059
0.37147
0.370881
0.370293
0.444626
0.429781
0.414913
0.413491
0.412746
0.412004
0.411265
0.410527
0.409793
0.409061
0.408332
0.407605
0.406882
0.406161
0.405443
0.404728
0.404015
0.403306
0.4026
0.401897
0.401197
0.4005
0.399806
0.399115
0.398427
0.397743
0.397061
0.396383
0.395708
0.395036
0.394367
0.393702
0.393039
0.39238
0.391724
0.391071
0.390421
0.389774
0.38913
0.388489
0.387851
0.387216
0.386584
0.385954
0.385327
0.384703
0.384082
0.383463
0.382846
0.382232
0.38162
0.38101
0.380402
0.379797
0.379193
0.378591
0.377991
0.377392
0.376795
0.376199
0.375605
0.375012
0.374419
0.373828
0.373238
0.372648
0.372059
0.37147
0.370882
0.370293
0.444626
0.429781
0.414914
0.413492
0.412747
0.412005
0.411265
0.410528
0.409793
0.409062
0.408332
0.407606
0.406882
0.406161
0.405443
0.404728
0.404016
0.403307
0.402601
0.401897
0.401197
0.4005
0.399806
0.399115
0.398428
0.397743
0.397062
0.396384
0.395709
0.395037
0.394368
0.393702
0.39304
0.392381
0.391725
0.391072
0.390422
0.389775
0.389131
0.38849
0.387852
0.387216
0.386584
0.385955
0.385328
0.384704
0.384082
0.383463
0.382846
0.382232
0.38162
0.38101
0.380402
0.379797
0.379193
0.378591
0.377991
0.377392
0.376795
0.376199
0.375605
0.375012
0.37442
0.373828
0.373238
0.372648
0.372059
0.37147
0.370882
0.370293
0.444626
0.429781
0.414914
0.413492
0.412747
0.412005
0.411266
0.410529
0.409794
0.409062
0.408333
0.407606
0.406883
0.406162
0.405444
0.404729
0.404017
0.403307
0.402601
0.401898
0.401198
0.400501
0.399807
0.399116
0.398428
0.397744
0.397062
0.396384
0.395709
0.395037
0.394368
0.393703
0.39304
0.392381
0.391725
0.391072
0.390422
0.389775
0.389131
0.38849
0.387852
0.387217
0.386585
0.385955
0.385328
0.384704
0.384082
0.383463
0.382847
0.382232
0.38162
0.38101
0.380403
0.379797
0.379193
0.378591
0.377991
0.377392
0.376795
0.3762
0.375605
0.375012
0.37442
0.373828
0.373238
0.372648
0.372059
0.37147
0.370882
0.370293
0.444626
0.429781
0.414915
0.413493
0.412748
0.412006
0.411266
0.410529
0.409794
0.409063
0.408333
0.407607
0.406883
0.406162
0.405444
0.404729
0.404017
0.403308
0.402602
0.401898
0.401198
0.400501
0.399807
0.399116
0.398429
0.397744
0.397063
0.396385
0.39571
0.395038
0.394369
0.393703
0.393041
0.392382
0.391725
0.391072
0.390422
0.389775
0.389131
0.38849
0.387852
0.387217
0.386585
0.385955
0.385328
0.384704
0.384083
0.383463
0.382847
0.382233
0.38162
0.381011
0.380403
0.379797
0.379193
0.378591
0.377991
0.377393
0.376795
0.3762
0.375605
0.375012
0.37442
0.373828
0.373238
0.372648
0.372059
0.37147
0.370882
0.370293
0.444626
0.429782
0.414915
0.413493
0.412748
0.412006
0.411266
0.410529
0.409795
0.409063
0.408334
0.407607
0.406884
0.406163
0.405445
0.40473
0.404017
0.403308
0.402602
0.401899
0.401199
0.400502
0.399808
0.399117
0.398429
0.397745
0.397063
0.396385
0.39571
0.395038
0.394369
0.393704
0.393041
0.392382
0.391726
0.391073
0.390423
0.389776
0.389132
0.388491
0.387853
0.387218
0.386585
0.385956
0.385329
0.384704
0.384083
0.383464
0.382847
0.382233
0.381621
0.381011
0.380403
0.379797
0.379194
0.378592
0.377991
0.377393
0.376796
0.3762
0.375605
0.375012
0.37442
0.373829
0.373238
0.372648
0.372059
0.37147
0.370882
0.370293
0.444626
0.429782
0.414915
0.413493
0.412749
0.412006
0.411267
0.41053
0.409795
0.409063
0.408334
0.407608
0.406884
0.406163
0.405445
0.40473
0.404018
0.403309
0.402602
0.401899
0.401199
0.400502
0.399808
0.399117
0.39843
0.397745
0.397064
0.396385
0.39571
0.395038
0.39437
0.393704
0.393042
0.392382
0.391726
0.391073
0.390423
0.389776
0.389132
0.388491
0.387853
0.387218
0.386585
0.385956
0.385329
0.384705
0.384083
0.383464
0.382847
0.382233
0.381621
0.381011
0.380403
0.379798
0.379194
0.378592
0.377992
0.377393
0.376796
0.3762
0.375605
0.375012
0.37442
0.373829
0.373238
0.372648
0.372059
0.37147
0.370882
0.370293
0.444626
0.429782
0.414916
0.413493
0.412749
0.412007
0.411267
0.41053
0.409795
0.409064
0.408334
0.407608
0.406884
0.406163
0.405445
0.40473
0.404018
0.403309
0.402603
0.401899
0.401199
0.400502
0.399808
0.399117
0.39843
0.397745
0.397064
0.396386
0.39571
0.395039
0.39437
0.393704
0.393042
0.392383
0.391726
0.391073
0.390423
0.389776
0.389132
0.388491
0.387853
0.387218
0.386586
0.385956
0.385329
0.384705
0.384083
0.383464
0.382847
0.382233
0.381621
0.381011
0.380403
0.379798
0.379194
0.378592
0.377992
0.377393
0.376796
0.3762
0.375606
0.375012
0.37442
0.373829
0.373238
0.372648
0.372059
0.37147
0.370882
0.370293
0.444626
0.429782
0.414916
0.413494
0.412749
0.412007
0.411267
0.41053
0.409796
0.409064
0.408335
0.407608
0.406884
0.406164
0.405446
0.404731
0.404018
0.403309
0.402603
0.4019
0.4012
0.400503
0.399809
0.399118
0.39843
0.397745
0.397064
0.396386
0.395711
0.395039
0.39437
0.393704
0.393042
0.392383
0.391727
0.391073
0.390423
0.389776
0.389132
0.388491
0.387853
0.387218
0.386586
0.385956
0.385329
0.384705
0.384083
0.383464
0.382848
0.382233
0.381621
0.381011
0.380404
0.379798
0.379194
0.378592
0.377992
0.377393
0.376796
0.3762
0.375606
0.375012
0.37442
0.373829
0.373238
0.372648
0.372059
0.37147
0.370882
0.370293
0.444626
0.429782
0.414916
0.413494
0.412749
0.412007
0.411267
0.41053
0.409796
0.409064
0.408335
0.407608
0.406885
0.406164
0.405446
0.404731
0.404019
0.403309
0.402603
0.4019
0.4012
0.400503
0.399809
0.399118
0.39843
0.397746
0.397064
0.396386
0.395711
0.395039
0.39437
0.393705
0.393042
0.392383
0.391727
0.391074
0.390424
0.389777
0.389133
0.388492
0.387853
0.387218
0.386586
0.385956
0.385329
0.384705
0.384083
0.383464
0.382848
0.382233
0.381621
0.381011
0.380404
0.379798
0.379194
0.378592
0.377992
0.377393
0.376796
0.3762
0.375606
0.375012
0.37442
0.373829
0.373238
0.372648
0.372059
0.37147
0.370882
0.370293
0.444626
0.429782
0.414916
0.413494
0.412749
0.412007
0.411268
0.41053
0.409796
0.409064
0.408335
0.407608
0.406885
0.406164
0.405446
0.404731
0.404019
0.403309
0.402603
0.4019
0.4012
0.400503
0.399809
0.399118
0.39843
0.397746
0.397064
0.396386
0.395711
0.395039
0.39437
0.393705
0.393042
0.392383
0.391727
0.391074
0.390424
0.389777
0.389133
0.388492
0.387854
0.387218
0.386586
0.385956
0.385329
0.384705
0.384084
0.383464
0.382848
0.382233
0.381621
0.381011
0.380404
0.379798
0.379194
0.378592
0.377992
0.377393
0.376796
0.3762
0.375606
0.375012
0.37442
0.373829
0.373238
0.372648
0.372059
0.37147
0.370882
0.370293
0.444626
0.429782
0.414916
0.413494
0.412749
0.412007
0.411268
0.410531
0.409796
0.409064
0.408335
0.407609
0.406885
0.406164
0.405446
0.404731
0.404019
0.40331
0.402603
0.4019
0.4012
0.400503
0.399809
0.399118
0.39843
0.397746
0.397064
0.396386
0.395711
0.395039
0.39437
0.393705
0.393042
0.392383
0.391727
0.391074
0.390424
0.389777
0.389133
0.388492
0.387854
0.387218
0.386586
0.385956
0.385329
0.384705
0.384084
0.383464
0.382848
0.382233
0.381621
0.381011
0.380404
0.379798
0.379194
0.378592
0.377992
0.377393
0.376796
0.3762
0.375606
0.375012
0.37442
0.373829
0.373238
0.372648
0.372059
0.37147
0.370882
0.370293
0.444626
0.429782
0.414916
0.413494
0.412749
0.412007
0.411268
0.410531
0.409796
0.409064
0.408335
0.407609
0.406885
0.406164
0.405446
0.404731
0.404019
0.40331
0.402603
0.4019
0.4012
0.400503
0.399809
0.399118
0.39843
0.397746
0.397064
0.396386
0.395711
0.395039
0.39437
0.393705
0.393042
0.392383
0.391727
0.391074
0.390424
0.389777
0.389133
0.388492
0.387854
0.387218
0.386586
0.385956
0.38533
0.384705
0.384084
0.383464
0.382848
0.382233
0.381621
0.381011
0.380404
0.379798
0.379194
0.378592
0.377992
0.377393
0.376796
0.3762
0.375606
0.375012
0.37442
0.373829
0.373238
0.372648
0.372059
0.37147
0.370882
0.370293
0.444626
0.429782
0.414916
0.413494
0.412749
0.412007
0.411268
0.410531
0.409796
0.409064
0.408335
0.407609
0.406885
0.406164
0.405446
0.404731
0.404019
0.40331
0.402603
0.4019
0.4012
0.400503
0.399809
0.399118
0.39843
0.397746
0.397064
0.396386
0.395711
0.395039
0.39437
0.393705
0.393042
0.392383
0.391727
0.391074
0.390424
0.389777
0.389133
0.388492
0.387854
0.387218
0.386586
0.385956
0.38533
0.384705
0.384084
0.383464
0.382848
0.382233
0.381621
0.381011
0.380404
0.379798
0.379194
0.378592
0.377992
0.377393
0.376796
0.3762
0.375606
0.375012
0.37442
0.373829
0.373238
0.372648
0.372059
0.37147
0.370882
0.370293
0.444626
0.429782
0.414916
0.413494
0.412749
0.412007
0.411268
0.410531
0.409796
0.409064
0.408335
0.407609
0.406885
0.406164
0.405446
0.404731
0.404019
0.40331
0.402603
0.4019
0.4012
0.400503
0.399809
0.399118
0.39843
0.397746
0.397065
0.396386
0.395711
0.395039
0.394371
0.393705
0.393042
0.392383
0.391727
0.391074
0.390424
0.389777
0.389133
0.388492
0.387854
0.387218
0.386586
0.385956
0.38533
0.384705
0.384084
0.383464
0.382848
0.382233
0.381621
0.381012
0.380404
0.379798
0.379194
0.378592
0.377992
0.377393
0.376796
0.3762
0.375606
0.375012
0.37442
0.373829
0.373238
0.372648
0.372059
0.37147
0.370882
0.370293
0.444626
0.429782
0.414916
0.413494
0.412749
0.412007
0.411268
0.410531
0.409796
0.409064
0.408335
0.407609
0.406885
0.406164
0.405446
0.404731
0.404019
0.40331
0.402603
0.4019
0.4012
0.400503
0.399809
0.399118
0.39843
0.397746
0.397065
0.396386
0.395711
0.395039
0.394371
0.393705
0.393042
0.392383
0.391727
0.391074
0.390424
0.389777
0.389133
0.388492
0.387854
0.387219
0.386586
0.385956
0.38533
0.384705
0.384084
0.383464
0.382848
0.382233
0.381621
0.381012
0.380404
0.379798
0.379194
0.378592
0.377992
0.377393
0.376796
0.3762
0.375606
0.375012
0.37442
0.373829
0.373238
0.372648
0.372059
0.37147
0.370882
0.370293
0.444626
0.429782
0.414916
0.413494
0.41275
0.412007
0.411268
0.410531
0.409796
0.409064
0.408335
0.407609
0.406885
0.406164
0.405446
0.404731
0.404019
0.40331
0.402603
0.4019
0.4012
0.400503
0.399809
0.399118
0.398431
0.397746
0.397065
0.396386
0.395711
0.395039
0.394371
0.393705
0.393042
0.392383
0.391727
0.391074
0.390424
0.389777
0.389133
0.388492
0.387854
0.387219
0.386586
0.385956
0.38533
0.384705
0.384084
0.383465
0.382848
0.382233
0.381621
0.381012
0.380404
0.379798
0.379194
0.378592
0.377992
0.377393
0.376796
0.3762
0.375606
0.375012
0.37442
0.373829
0.373238
0.372648
0.372059
0.37147
0.370882
0.370293
0.444626
0.429782
0.414916
0.413494
0.41275
0.412007
0.411268
0.410531
0.409796
0.409064
0.408335
0.407609
0.406885
0.406164
0.405446
0.404731
0.404019
0.40331
0.402603
0.4019
0.4012
0.400503
0.399809
0.399118
0.398431
0.397746
0.397065
0.396386
0.395711
0.395039
0.394371
0.393705
0.393043
0.392383
0.391727
0.391074
0.390424
0.389777
0.389133
0.388492
0.387854
0.387219
0.386586
0.385956
0.38533
0.384705
0.384084
0.383465
0.382848
0.382233
0.381621
0.381012
0.380404
0.379798
0.379194
0.378592
0.377992
0.377393
0.376796
0.3762
0.375606
0.375012
0.37442
0.373829
0.373238
0.372648
0.372059
0.37147
0.370882
0.370293
0.444626
0.429782
0.414916
0.413494
0.41275
0.412007
0.411268
0.410531
0.409796
0.409064
0.408335
0.407609
0.406885
0.406164
0.405446
0.404731
0.404019
0.40331
0.402603
0.4019
0.4012
0.400503
0.399809
0.399118
0.398431
0.397746
0.397065
0.396386
0.395711
0.395039
0.394371
0.393705
0.393043
0.392383
0.391727
0.391074
0.390424
0.389777
0.389133
0.388492
0.387854
0.387219
0.386586
0.385956
0.38533
0.384705
0.384084
0.383465
0.382848
0.382233
0.381621
0.381012
0.380404
0.379798
0.379194
0.378592
0.377992
0.377393
0.376796
0.3762
0.375606
0.375012
0.37442
0.373829
0.373238
0.372648
0.372059
0.37147
0.370882
0.370293
0.444626
0.429782
0.414916
0.413494
0.41275
0.412007
0.411268
0.410531
0.409796
0.409064
0.408335
0.407609
0.406885
0.406164
0.405446
0.404731
0.404019
0.40331
0.402603
0.4019
0.4012
0.400503
0.399809
0.399118
0.398431
0.397746
0.397065
0.396386
0.395711
0.395039
0.394371
0.393705
0.393043
0.392383
0.391727
0.391074
0.390424
0.389777
0.389133
0.388492
0.387854
0.387219
0.386586
0.385956
0.38533
0.384705
0.384084
0.383465
0.382848
0.382233
0.381621
0.381012
0.380404
0.379798
0.379194
0.378592
0.377992
0.377393
0.376796
0.3762
0.375606
0.375012
0.37442
0.373829
0.373238
0.372648
0.372059
0.37147
0.370882
0.370293
0.444626
0.429782
0.414916
0.413494
0.41275
0.412007
0.411268
0.410531
0.409796
0.409064
0.408335
0.407609
0.406885
0.406164
0.405446
0.404731
0.404019
0.40331
0.402603
0.4019
0.4012
0.400503
0.399809
0.399118
0.398431
0.397746
0.397065
0.396386
0.395711
0.395039
0.394371
0.393705
0.393043
0.392383
0.391727
0.391074
0.390424
0.389777
0.389133
0.388492
0.387854
0.387219
0.386586
0.385956
0.38533
0.384705
0.384084
0.383465
0.382848
0.382233
0.381621
0.381012
0.380404
0.379798
0.379194
0.378592
0.377992
0.377393
0.376796
0.3762
0.375606
0.375012
0.37442
0.373829
0.373238
0.372648
0.372059
0.37147
0.370882
0.370293
0.444626
0.429782
0.414916
0.413494
0.41275
0.412007
0.411268
0.410531
0.409796
0.409064
0.408335
0.407609
0.406885
0.406164
0.405446
0.404731
0.404019