/*--------------------------------*- C++ -*----------------------------------*\
  =========                 |
  \\      /  F ield         | OpenFOAM: The Open Source CFD Toolbox
   \\    /   O peration     | Website:  https://openfoam.org
    \\  /    A nd           | Version:  13
     \\/     M anipulation  |
\*---------------------------------------------------------------------------*/
FoamFile
{
    format      ascii;
    class       volScalarField;
    location    "460";
    object      k;
}
// * * * * * * * * * * * * * * * * * * * * * * * * * * * * * * * * * * * * * //

dimensions      [0 2 -2 0 0 0 0];

internalField   nonuniform List<scalar> 
78750
(
2.22045e-16
2.22045e-16
2.22045e-16
2.22045e-16
2.22045e-16
2.22045e-16
2.22045e-16
2.22045e-16
2.22045e-16
2.22045e-16
2.22045e-16
2.22045e-16
2.22045e-16
2.22045e-16
2.22045e-16
2.22045e-16
2.22045e-16
2.22045e-16
2.22045e-16
2.22045e-16
2.22045e-16
2.22045e-16
2.22045e-16
2.22045e-16
2.22045e-16
2.22045e-16
2.22045e-16
2.22045e-16
2.22045e-16
2.22045e-16
2.22045e-16
2.22045e-16
2.22045e-16
2.22045e-16
2.22045e-16
2.22045e-16
2.22045e-16
2.22045e-16
2.22045e-16
2.22045e-16
2.22045e-16
2.22045e-16
2.22045e-16
2.22045e-16
2.22045e-16
2.22045e-16
2.22045e-16
2.22045e-16
2.22045e-16
2.22045e-16
2.22045e-16
2.22045e-16
2.22045e-16
2.22045e-16
2.22045e-16
2.22045e-16
2.22045e-16
2.22045e-16
2.22045e-16
2.22045e-16
2.22045e-16
2.22045e-16
2.22045e-16
2.22045e-16
2.22045e-16
2.22045e-16
2.22045e-16
2.22045e-16
2.22045e-16
2.22045e-16
2.22045e-16
2.22045e-16
2.22045e-16
2.22045e-16
2.22045e-16
2.22045e-16
2.22045e-16
2.22045e-16
2.22045e-16
2.22045e-16
2.22045e-16
2.35757e-16
2.525e-16
2.68704e-16
2.82811e-16
2.93716e-16
3.00664e-16
3.03207e-16
3.01182e-16
2.94719e-16
2.84231e-16
2.70441e-16
2.54409e-16
2.37638e-16
2.22289e-16
2.22045e-16
2.22045e-16
2.22045e-16
2.22045e-16
2.22045e-16
2.22045e-16
2.22045e-16
2.22045e-16
2.22045e-16
2.22045e-16
2.22045e-16
2.22045e-16
2.22045e-16
2.22045e-16
2.22045e-16
2.22045e-16
2.233e-16
2.51208e-16
2.87175e-16
3.28331e-16
3.72186e-16
4.16353e-16
4.58529e-16
4.96551e-16
5.2848e-16
5.52681e-16
5.67911e-16
5.73383e-16
5.68814e-16
5.54436e-16
5.30992e-16
4.99686e-16
4.62121e-16
4.20224e-16
3.7616e-16
3.32228e-16
2.90762e-16
2.54218e-16
2.25436e-16
2.22045e-16
2.22045e-16
2.22045e-16
2.22045e-16
2.22045e-16
2.22045e-16
2.22045e-16
2.22045e-16
2.22045e-16
2.22045e-16
2.22045e-16
2.48482e-16
2.95959e-16
3.53316e-16
4.18138e-16
4.87861e-16
5.59694e-16
6.30648e-16
6.97632e-16
7.57609e-16
8.0776e-16
8.45664e-16
8.69454e-16
8.77941e-16
8.70697e-16
8.48083e-16
8.11226e-16
7.6194e-16
7.02607e-16
6.3602e-16
5.65211e-16
4.93275e-16
4.2322e-16
3.57867e-16
2.99807e-16
2.51384e-16
2.22045e-16
2.22045e-16
2.22045e-16
2.22045e-16
2.22045e-16
2.22045e-16
2.22045e-16
2.22045e-16
2.22045e-16
2.48889e-16
3.07559e-16
3.78912e-16
4.60835e-16
5.50962e-16
6.46461e-16
7.44003e-16
8.39857e-16
9.30064e-16
1.01067e-15
1.07798e-15
1.12879e-15
1.16065e-15
1.17196e-15
1.16217e-15
1.13177e-15
1.08224e-15
1.016e-15
9.36188e-16
8.46479e-16
7.50815e-16
6.53163e-16
5.57282e-16
4.66538e-16
3.83797e-16
3.1145e-16
2.51611e-16
2.22045e-16
2.22045e-16
2.22045e-16
2.22045e-16
2.22045e-16
2.22045e-16
2.22045e-16
2.23172e-16
2.87194e-16
3.65556e-16
4.57119e-16
5.60222e-16
6.72489e-16
7.90755e-16
9.11134e-16
1.02917e-15
1.1401e-15
1.23913e-15
1.32177e-15
1.38411e-15
1.42316e-15
1.43699e-15
1.42492e-15
1.38754e-15
1.32668e-15
1.24528e-15
1.14717e-15
1.03681e-15
9.18997e-16
7.985e-16
6.79804e-16
5.66848e-16
4.62851e-16
3.70252e-16
2.90775e-16
2.25539e-16
2.22045e-16
2.22045e-16
2.22045e-16
2.22045e-16
2.22045e-16
2.22045e-16
2.44311e-16
3.23012e-16
4.17017e-16
5.25341e-16
6.46326e-16
7.77421e-16
9.15114e-16
1.05501e-15
1.19202e-15
1.32068e-15
1.43547e-15
1.53122e-15
1.60343e-15
1.64863e-15
1.66461e-15
1.65057e-15
1.60721e-15
1.53665e-15
1.44226e-15
1.32849e-15
1.20047e-15
1.0637e-15
9.23679e-16
7.85514e-16
6.53656e-16
5.31681e-16
4.22202e-16
3.26935e-16
2.46909e-16
2.22045e-16
2.22045e-16
2.22045e-16
2.22045e-16
2.22045e-16
2.22045e-16
2.61991e-16
3.5282e-16
4.5968e-16
5.81737e-16
7.17358e-16
8.63866e-16
1.01747e-15
1.17335e-15
1.32592e-15
1.46912e-15
1.59684e-15
1.70334e-15
1.78365e-15
1.83389e-15
1.85163e-15
1.83598e-15
1.78771e-15
1.70917e-15
1.60412e-15
1.47749e-15
1.33498e-15
1.18268e-15
1.02666e-15
8.72546e-16
7.2522e-16
5.88534e-16
4.65234e-16
3.57012e-16
2.64748e-16
2.22045e-16
2.22045e-16
2.22045e-16
2.22045e-16
2.22045e-16
2.22045e-16
2.76072e-16
3.76488e-16
4.93448e-16
6.26263e-16
7.73345e-16
9.3193e-16
1.09801e-15
1.26644e-15
1.43122e-15
1.58584e-15
1.72372e-15
1.83867e-15
1.92533e-15
1.97954e-15
1.99865e-15
1.98173e-15
1.92959e-15
1.84478e-15
1.73136e-15
1.59463e-15
1.44073e-15
1.27623e-15
1.10765e-15
9.41038e-16
7.81597e-16
6.334e-16
4.9928e-16
3.80888e-16
2.78954e-16
2.22045e-16
2.22045e-16
2.22045e-16
2.22045e-16
2.22045e-16
2.22045e-16
2.868e-16
3.94447e-16
5.18977e-16
6.59841e-16
8.15504e-16
9.8314e-16
1.15858e-15
1.33643e-15
1.51039e-15
1.67359e-15
1.8191e-15
1.9404e-15
2.03183e-15
2.08902e-15
2.10916e-15
2.09127e-15
2.03623e-15
1.9467e-15
1.82698e-15
1.68265e-15
1.5202e-15
1.34653e-15
1.16853e-15
9.92544e-16
8.24029e-16
6.67223e-16
5.2502e-16
3.99014e-16
2.89789e-16
2.22045e-16
2.22045e-16
2.22045e-16
2.22045e-16
2.22045e-16
2.22045e-16
2.94577e-16
4.07425e-16
5.37379e-16
6.84008e-16
8.45817e-16
1.01994e-15
1.2021e-15
1.38672e-15
1.56726e-15
1.73662e-15
1.88762e-15
2.01348e-15
2.10834e-15
2.16766e-15
2.18854e-15
2.16996e-15
2.11282e-15
2.01991e-15
1.89566e-15
1.74587e-15
1.57726e-15
1.39702e-15
1.21225e-15
1.02954e-15
8.54519e-16
6.91549e-16
5.43564e-16
4.12113e-16
2.9765e-16
2.22045e-16
2.22045e-16
2.22045e-16
2.22045e-16
2.22045e-16
2.22045e-16
3.00013e-16
4.16426e-16
5.50076e-16
7.00636e-16
8.66648e-16
1.04522e-15
1.23198e-15
1.42124e-15
1.6063e-15
1.77989e-15
1.93465e-15
2.06364e-15
2.16085e-15
2.22164e-15
2.24303e-15
2.22397e-15
2.16539e-15
2.07015e-15
1.94279e-15
1.78925e-15
1.61643e-15
1.43166e-15
1.24225e-15
1.05493e-15
8.75455e-16
7.08273e-16
5.56347e-16
4.21186e-16
3.03134e-16
2.22045e-16
2.22045e-16
2.22045e-16
2.22045e-16
2.22045e-16
2.22045e-16
3.03604e-16
4.22356e-16
5.58423e-16
7.11555e-16
8.8032e-16
1.06181e-15
1.25159e-15
1.44389e-15
1.63192e-15
1.80828e-15
1.96551e-15
2.09655e-15
2.19531e-15
2.25705e-15
2.27877e-15
2.2594e-15
2.19988e-15
2.1031e-15
1.9737e-15
1.8177e-15
1.64211e-15
1.45438e-15
1.26192e-15
1.07158e-15
8.89185e-16
7.19241e-16
5.64731e-16
4.2714e-16
3.06734e-16
2.22045e-16
2.22045e-16
2.22045e-16
2.22045e-16
2.22045e-16
2.22045e-16
3.05858e-16
4.26077e-16
5.63662e-16
7.18408e-16
8.889e-16
1.07221e-15
1.26389e-15
1.4581e-15
1.64799e-15
1.8261e-15
1.98487e-15
2.1172e-15
2.21693e-15
2.27927e-15
2.3012e-15
2.28163e-15
2.22151e-15
2.12377e-15
1.99309e-15
1.83555e-15
1.65822e-15
1.46863e-15
1.27426e-15
1.08202e-15
8.97794e-16
7.26118e-16
5.69989e-16
4.30873e-16
3.08991e-16
2.22045e-16
2.22045e-16
2.22045e-16
2.22045e-16
2.22045e-16
2.22045e-16
3.07213e-16
4.28313e-16
5.66809e-16
7.22524e-16
8.94053e-16
1.07846e-15
1.27128e-15
1.46664e-15
1.65765e-15
1.8368e-15
1.9965e-15
2.12961e-15
2.22991e-15
2.29262e-15
2.31467e-15
2.29498e-15
2.2345e-15
2.13619e-15
2.00474e-15
1.84627e-15
1.66789e-15
1.47719e-15
1.28167e-15
1.08829e-15
9.02963e-16
7.30246e-16
5.73144e-16
4.33113e-16
3.10345e-16
2.22045e-16
2.22045e-16
2.22045e-16
2.22045e-16
2.22045e-16
2.22045e-16
3.07992e-16
4.29599e-16
5.68619e-16
7.24892e-16
8.97018e-16
1.08206e-15
1.27553e-15
1.47155e-15
1.6632e-15
1.84295e-15
2.00319e-15
2.13674e-15
2.23738e-15
2.3003e-15
2.32242e-15
2.30266e-15
2.24198e-15
2.14333e-15
2.01144e-15
1.85243e-15
1.67346e-15
1.48211e-15
1.28593e-15
1.0919e-15
9.05935e-16
7.3262e-16
5.74958e-16
4.34401e-16
3.11124e-16
2.22045e-16
2.22045e-16
2.22045e-16
2.22045e-16
2.22045e-16
2.22045e-16
3.08422e-16
4.30309e-16
5.69618e-16
7.26199e-16
8.98654e-16
1.08405e-15
1.27788e-15
1.47426e-15
1.66627e-15
1.84635e-15
2.00689e-15
2.14068e-15
2.24151e-15
2.30453e-15
2.3267e-15
2.3069e-15
2.24611e-15
2.14727e-15
2.01513e-15
1.85584e-15
1.67653e-15
1.48482e-15
1.28828e-15
1.09388e-15
9.07574e-16
7.33929e-16
5.75959e-16
4.35111e-16
3.11553e-16
2.22045e-16
2.22045e-16
2.22045e-16
2.22045e-16
2.22045e-16
2.22045e-16
3.0865e-16
4.30685e-16
5.70147e-16
7.26891e-16
8.99521e-16
1.0851e-15
1.27912e-15
1.4757e-15
1.66789e-15
1.84815e-15
2.00884e-15
2.14277e-15
2.24369e-15
2.30678e-15
2.32896e-15
2.30914e-15
2.24829e-15
2.14936e-15
2.01709e-15
1.85764e-15
1.67815e-15
1.48626e-15
1.28953e-15
1.09494e-15
9.08442e-16
7.34623e-16
5.76489e-16
4.35489e-16
3.11782e-16
2.22045e-16
2.22045e-16
2.22045e-16
2.22045e-16
2.22045e-16
2.22045e-16
3.08766e-16
4.30876e-16
5.70417e-16
7.27244e-16
8.99963e-16
1.08563e-15
1.27975e-15
1.47643e-15
1.66872e-15
1.84907e-15
2.00984e-15
2.14383e-15
2.2448e-15
2.30792e-15
2.33012e-15
2.31029e-15
2.2494e-15
2.15043e-15
2.01809e-15
1.85855e-15
1.67898e-15
1.48699e-15
1.29016e-15
1.09547e-15
9.08884e-16
7.34976e-16
5.76761e-16
4.35684e-16
3.11903e-16
2.22045e-16
2.22045e-16
2.22045e-16
2.22045e-16
2.22045e-16
2.22045e-16
3.08823e-16
4.3097e-16
5.70549e-16
7.27417e-16
9.00179e-16
1.0859e-15
1.28006e-15
1.47679e-15
1.66912e-15
1.84952e-15
2.01033e-15
2.14435e-15
2.24535e-15
2.30848e-15
2.33068e-15
2.31085e-15
2.24995e-15
2.15095e-15
2.01858e-15
1.859e-15
1.67939e-15
1.48735e-15
1.29047e-15
1.09574e-15
9.09101e-16
7.3515e-16
5.76894e-16
4.35779e-16
3.11962e-16
2.22045e-16
2.22045e-16
2.22045e-16
2.22045e-16
2.22045e-16
2.22045e-16
3.0885e-16
4.31014e-16
5.70611e-16
7.27498e-16
9.00281e-16
1.08602e-15
1.28021e-15
1.47696e-15
1.66932e-15
1.84973e-15
2.01056e-15
2.1446e-15
2.24561e-15
2.30875e-15
2.33095e-15
2.31111e-15
2.25021e-15
2.15119e-15
2.01881e-15
1.85922e-15
1.67958e-15
1.48752e-15
1.29062e-15
1.09586e-15
9.09203e-16
7.35231e-16
5.76956e-16
4.35824e-16
3.1199e-16
2.22045e-16
2.22045e-16
2.22045e-16
2.22045e-16
2.22045e-16
2.22045e-16
3.08862e-16
4.31035e-16
5.7064e-16
7.27535e-16
9.00328e-16
1.08608e-15
1.28028e-15
1.47704e-15
1.6694e-15
1.84983e-15
2.01066e-15
2.14471e-15
2.24572e-15
2.30887e-15
2.33107e-15
2.31123e-15
2.25032e-15
2.1513e-15
2.01891e-15
1.85931e-15
1.67966e-15
1.4876e-15
1.29068e-15
1.09592e-15
9.09249e-16
7.35269e-16
5.76985e-16
4.35845e-16
3.12002e-16
2.22045e-16
2.22045e-16
2.22045e-16
2.22045e-16
2.22045e-16
2.22045e-16
3.08867e-16
4.31043e-16
5.70652e-16
7.27552e-16
9.00348e-16
1.0861e-15
1.28031e-15
1.47707e-15
1.66944e-15
1.84987e-15
2.01071e-15
2.14476e-15
2.24577e-15
2.30892e-15
2.33112e-15
2.31128e-15
2.25037e-15
2.15135e-15
2.01896e-15
1.85935e-15
1.6797e-15
1.48763e-15
1.29071e-15
1.09594e-15
9.0927e-16
7.35285e-16
5.76998e-16
4.35854e-16
3.12008e-16
2.22045e-16
2.22045e-16
2.22045e-16
2.22045e-16
2.22045e-16
2.22045e-16
3.0887e-16
4.31047e-16
5.70657e-16
7.27558e-16
9.00357e-16
1.08611e-15
1.28032e-15
1.47708e-15
1.66946e-15
1.84989e-15
2.01073e-15
2.14478e-15
2.2458e-15
2.30894e-15
2.33115e-15
2.31131e-15
2.2504e-15
2.15137e-15
2.01898e-15
1.85937e-15
1.67972e-15
1.48765e-15
1.29073e-15
1.09595e-15
9.09278e-16
7.35292e-16
5.77003e-16
4.35857e-16
3.1201e-16
2.22045e-16
2.22045e-16
2.22045e-16
2.22045e-16
2.22045e-16
2.22045e-16
3.08871e-16
4.31049e-16
5.7066e-16
7.27561e-16
9.0036e-16
1.08612e-15
1.28032e-15
1.47709e-15
1.66946e-15
1.8499e-15
2.01074e-15
2.14479e-15
2.24581e-15
2.30895e-15
2.33115e-15
2.31132e-15
2.25041e-15
2.15138e-15
2.01898e-15
1.85938e-15
1.67973e-15
1.48765e-15
1.29073e-15
1.09596e-15
9.09282e-16
7.35295e-16
5.77005e-16
4.35859e-16
3.12011e-16
2.22045e-16
2.22045e-16
2.22045e-16
2.22045e-16
2.22045e-16
2.22045e-16
3.08871e-16
4.31049e-16
5.7066e-16
7.27562e-16
9.00362e-16
1.08612e-15
1.28033e-15
1.47709e-15
1.66947e-15
1.8499e-15
2.01074e-15
2.14479e-15
2.24581e-15
2.30896e-15
2.33116e-15
2.31132e-15
2.25041e-15
2.15139e-15
2.01899e-15
1.85938e-15
1.67973e-15
1.48765e-15
1.29073e-15
1.09596e-15
9.09283e-16
7.35296e-16
5.77006e-16
4.3586e-16
3.12012e-16
2.22045e-16
2.22045e-16
2.22045e-16
2.22045e-16
2.22045e-16
2.22045e-16
3.08871e-16
4.3105e-16
5.70661e-16
7.27563e-16
9.00362e-16
1.08612e-15
1.28033e-15
1.47709e-15
1.66947e-15
1.8499e-15
2.01074e-15
2.14479e-15
2.24581e-15
2.30896e-15
2.33116e-15
2.31132e-15
2.25041e-15
2.15139e-15
2.01899e-15
1.85938e-15
1.67973e-15
1.48766e-15
1.29073e-15
1.09596e-15
9.09284e-16
7.35296e-16
5.77006e-16
4.3586e-16
3.12012e-16
2.22045e-16
2.22045e-16
2.22045e-16
2.22045e-16
2.22045e-16
2.22045e-16
3.08871e-16
4.3105e-16
5.70661e-16
7.27563e-16
9.00362e-16
1.08612e-15
1.28033e-15
1.47709e-15
1.66947e-15
1.8499e-15
2.01074e-15
2.14479e-15
2.24581e-15
2.30896e-15
2.33116e-15
2.31132e-15
2.25041e-15
2.15139e-15
2.01899e-15
1.85938e-15
1.67973e-15
1.48766e-15
1.29073e-15
1.09596e-15
9.09284e-16
7.35296e-16
5.77006e-16
4.3586e-16
3.12012e-16
2.22045e-16
2.22045e-16
2.22045e-16
2.22045e-16
2.22045e-16
2.22045e-16
3.08871e-16
4.3105e-16
5.70661e-16
7.27563e-16
9.00362e-16
1.08612e-15
1.28033e-15
1.47709e-15
1.66947e-15
1.8499e-15
2.01074e-15
2.14479e-15
2.24581e-15
2.30896e-15
2.33116e-15
2.31132e-15
2.25041e-15
2.15139e-15
2.01899e-15
1.85938e-15
1.67973e-15
1.48766e-15
1.29073e-15
1.09596e-15
9.09284e-16
7.35296e-16
5.77006e-16
4.3586e-16
3.12012e-16
2.22045e-16
2.22045e-16
2.22045e-16
2.22045e-16
2.22045e-16
2.22045e-16
3.08871e-16
4.3105e-16
5.70661e-16
7.27563e-16
9.00362e-16
1.08612e-15
1.28033e-15
1.47709e-15
1.66947e-15
1.8499e-15
2.01074e-15
2.14479e-15
2.24581e-15
2.30896e-15
2.33116e-15
2.31132e-15
2.25041e-15
2.15139e-15
2.01899e-15
1.85938e-15
1.67973e-15
1.48766e-15
1.29073e-15
1.09596e-15
9.09284e-16
7.35296e-16
5.77006e-16
4.3586e-16
3.12012e-16
2.22045e-16
2.22045e-16
2.22045e-16
2.22045e-16
2.22045e-16
2.22045e-16
3.08871e-16
4.3105e-16
5.70661e-16
7.27563e-16
9.00362e-16
1.08612e-15
1.28033e-15
1.47709e-15
1.66947e-15
1.8499e-15
2.01074e-15
2.14479e-15
2.24581e-15
2.30896e-15
2.33116e-15
2.31132e-15
2.25041e-15
2.15139e-15
2.01899e-15
1.85938e-15
1.67973e-15
1.48766e-15
1.29073e-15
1.09596e-15
9.09284e-16
7.35296e-16
5.77006e-16
4.3586e-16
3.12012e-16
2.22045e-16
2.22045e-16
2.22045e-16
2.22045e-16
2.22045e-16
2.22045e-16
3.08871e-16
4.3105e-16
5.70661e-16
7.27563e-16
9.00362e-16
1.08612e-15
1.28033e-15
1.47709e-15
1.66947e-15
1.8499e-15
2.01074e-15
2.14479e-15
2.24581e-15
2.30896e-15
2.33116e-15
2.31132e-15
2.25041e-15
2.15139e-15
2.01899e-15
1.85938e-15
1.67973e-15
1.48766e-15
1.29073e-15
1.09596e-15
9.09284e-16
7.35296e-16
5.77006e-16
4.3586e-16
3.12012e-16
2.22045e-16
2.22045e-16
2.22045e-16
2.22045e-16
2.22045e-16
2.22045e-16
3.08871e-16
4.3105e-16
5.70661e-16
7.27563e-16
9.00362e-16
1.08612e-15
1.28033e-15
1.47709e-15
1.66947e-15
1.8499e-15
2.01074e-15
2.14479e-15
2.24581e-15
2.30896e-15
2.33116e-15
2.31132e-15
2.25041e-15
2.15139e-15
2.01899e-15
1.85938e-15
1.67973e-15
1.48766e-15
1.29073e-15
1.09596e-15
9.09284e-16
7.35296e-16
5.77006e-16
4.3586e-16
3.12012e-16
2.22045e-16
2.22045e-16
2.22045e-16
2.22045e-16
2.22045e-16
2.22045e-16
3.08871e-16
4.3105e-16
5.70661e-16
7.27563e-16
9.00362e-16
1.08612e-15
1.28033e-15
1.47709e-15
1.66947e-15
1.8499e-15
2.01074e-15
2.14479e-15
2.24581e-15
2.30896e-15
2.33116e-15
2.31132e-15
2.25041e-15
2.15139e-15
2.01899e-15
1.85938e-15
1.67973e-15
1.48766e-15
1.29073e-15
1.09596e-15
9.09284e-16
7.35296e-16
5.77006e-16
4.3586e-16
3.12012e-16
2.22045e-16
2.22045e-16
2.22045e-16
2.22045e-16
2.22045e-16
2.22045e-16
3.08871e-16
4.3105e-16
5.70661e-16
7.27563e-16
9.00362e-16
1.08612e-15
1.28033e-15
1.47709e-15
1.66947e-15
1.8499e-15
2.01074e-15
2.14479e-15
2.24581e-15
2.30896e-15
2.33116e-15
2.31132e-15
2.25041e-15
2.15139e-15
2.01899e-15
1.85938e-15
1.67973e-15
1.48766e-15
1.29073e-15
1.09596e-15
9.09284e-16
7.35296e-16
5.77006e-16
4.3586e-16
3.12012e-16
2.22045e-16
2.22045e-16
2.22045e-16
2.22045e-16
2.22045e-16
2.22045e-16
3.08871e-16
4.3105e-16
5.70661e-16
7.27563e-16
9.00362e-16
1.08612e-15
1.28033e-15
1.47709e-15
1.66947e-15
1.8499e-15
2.01074e-15
2.14479e-15
2.24581e-15
2.30896e-15
2.33116e-15
2.31132e-15
2.25041e-15
2.15139e-15
2.01899e-15
1.85938e-15
1.67973e-15
1.48766e-15
1.29073e-15
1.09596e-15
9.09284e-16
7.35296e-16
5.77006e-16
4.3586e-16
3.12012e-16
2.22045e-16
2.22045e-16
2.22045e-16
2.22045e-16
2.22045e-16
2.22045e-16
3.08871e-16
4.3105e-16
5.70661e-16
7.27563e-16
9.00362e-16
1.08612e-15
1.28033e-15
1.47709e-15
1.66947e-15
1.8499e-15
2.01074e-15
2.14479e-15
2.24581e-15
2.30896e-15
2.33116e-15
2.31132e-15
2.25041e-15
2.15139e-15
2.01899e-15
1.85938e-15
1.67973e-15
1.48766e-15
1.29073e-15
1.09596e-15
9.09284e-16
7.35296e-16
5.77006e-16
4.3586e-16
3.12012e-16
2.22045e-16
2.22045e-16
2.22045e-16
2.22045e-16
2.22045e-16
2.22045e-16
3.08871e-16
4.3105e-16
5.70661e-16
7.27563e-16
9.00362e-16
1.08612e-15
1.28033e-15
1.47709e-15
1.66947e-15
1.8499e-15
2.01074e-15
2.14479e-15
2.24581e-15
2.30896e-15
2.33116e-15
2.31132e-15
2.25041e-15
2.15139e-15
2.01899e-15
1.85938e-15
1.67973e-15
1.48766e-15
1.29073e-15
1.09596e-15
9.09284e-16
7.35296e-16
5.77006e-16
4.3586e-16
3.12012e-16
2.22045e-16
2.22045e-16
2.22045e-16
2.22045e-16
2.22045e-16
2.22045e-16
3.08871e-16
4.3105e-16
5.70661e-16
7.27563e-16
9.00362e-16
1.08612e-15
1.28033e-15
1.47709e-15
1.66947e-15
1.8499e-15
2.01074e-15
2.14479e-15
2.24581e-15
2.30896e-15
2.33116e-15
2.31132e-15
2.25041e-15
2.15139e-15
2.01899e-15
1.85938e-15
1.67973e-15
1.48766e-15
1.29073e-15
1.09596e-15
9.09284e-16
7.35296e-16
5.77006e-16
4.3586e-16
3.12012e-16
2.22045e-16
2.22045e-16
2.22045e-16
2.22045e-16
2.22045e-16
2.22045e-16
3.08871e-16
4.3105e-16
5.70661e-16
7.27563e-16
9.00362e-16
1.08612e-15
1.28033e-15
1.47709e-15
1.66947e-15
1.8499e-15
2.01074e-15
2.14479e-15
2.24581e-15
2.30896e-15
2.33116e-15
2.31132e-15
2.25041e-15
2.15139e-15
2.01899e-15
1.85938e-15
1.67973e-15
1.48766e-15
1.29073e-15
1.09596e-15
9.09284e-16
7.35296e-16
5.77006e-16
4.3586e-16
3.12012e-16
2.22045e-16
2.22045e-16
2.22045e-16
2.22045e-16
2.22045e-16
2.22045e-16
3.08871e-16
4.3105e-16
5.70661e-16
7.27563e-16
9.00362e-16
1.08612e-15
1.28033e-15
1.47709e-15
1.66947e-15
1.8499e-15
2.01074e-15
2.14479e-15
2.24581e-15
2.30896e-15
2.33116e-15
2.31132e-15
2.25041e-15
2.15139e-15
2.01899e-15
1.85938e-15
1.67973e-15
1.48766e-15
1.29073e-15
1.09596e-15
9.09284e-16
7.35296e-16
5.77006e-16
4.3586e-16
3.12012e-16
2.22045e-16
2.22045e-16
2.22045e-16
2.22045e-16
2.22045e-16
2.22045e-16
3.08871e-16
4.3105e-16
5.70661e-16
7.27563e-16
9.00362e-16
1.08612e-15
1.28033e-15
1.47709e-15
1.66947e-15
1.8499e-15
2.01074e-15
2.14479e-15
2.24581e-15
2.30896e-15
2.33116e-15
2.31132e-15
2.25041e-15
2.15139e-15
2.01899e-15
1.85938e-15
1.67973e-15
1.48766e-15
1.29073e-15
1.09596e-15
9.09284e-16
7.35296e-16
5.77006e-16
4.3586e-16
3.12012e-16
2.22045e-16
2.22045e-16
2.22045e-16
2.22045e-16
2.22045e-16
2.22045e-16
3.08871e-16
4.3105e-16
5.70661e-16
7.27563e-16
9.00362e-16
1.08612e-15
1.28033e-15
1.47709e-15
1.66947e-15
1.8499e-15
2.01074e-15
2.14479e-15
2.24581e-15
2.30896e-15
2.33116e-15
2.31132e-15
2.25041e-15
2.15139e-15
2.01899e-15
1.85938e-15
1.67973e-15
1.48766e-15
1.29073e-15
1.09596e-15
9.09284e-16
7.35296e-16
5.77006e-16
4.3586e-16
3.12012e-16
2.22045e-16
2.22045e-16
2.22045e-16
2.22045e-16
2.22045e-16
2.22045e-16
3.08871e-16
4.3105e-16
5.70661e-16
7.27563e-16
9.00362e-16
1.08612e-15
1.28033e-15
1.47709e-15
1.66947e-15
1.8499e-15
2.01074e-15
2.14479e-15
2.24581e-15
2.30896e-15
2.33116e-15
2.31132e-15
2.25041e-15
2.15139e-15
2.01899e-15
1.85938e-15
1.67973e-15
1.48766e-15
1.29073e-15
1.09596e-15
9.09284e-16
7.35296e-16
5.77006e-16
4.3586e-16
3.12012e-16
2.22045e-16
2.22045e-16
2.22045e-16
2.22045e-16
2.22045e-16
2.22045e-16
3.08871e-16
4.3105e-16
5.70661e-16
7.27563e-16
9.00362e-16
1.08612e-15
1.28033e-15
1.47709e-15
1.66947e-15
1.8499e-15
2.01074e-15
2.14479e-15
2.24581e-15
2.30896e-15
2.33116e-15
2.31132e-15
2.25041e-15
2.15139e-15
2.01899e-15
1.85938e-15
1.67973e-15
1.48766e-15
1.29073e-15
1.09596e-15
9.09284e-16
7.35296e-16
5.77006e-16
4.3586e-16
3.12012e-16
2.22045e-16
2.22045e-16
2.22045e-16
2.22045e-16
2.22045e-16
2.22045e-16
3.08871e-16
4.3105e-16
5.70661e-16
7.27563e-16
9.00362e-16
1.08612e-15
1.28033e-15
1.47709e-15
1.66947e-15
1.8499e-15
2.01074e-15
2.14479e-15
2.24581e-15
2.30896e-15
2.33116e-15
2.31132e-15
2.25041e-15
2.15139e-15
2.01899e-15
1.85938e-15
1.67973e-15
1.48766e-15
1.29073e-15
1.09596e-15
9.09284e-16
7.35296e-16
5.77006e-16
4.3586e-16
3.12012e-16
2.22045e-16
2.22045e-16
2.22045e-16
2.22045e-16
2.22045e-16
2.22045e-16
3.08871e-16
4.3105e-16
5.70661e-16
7.27563e-16
9.00362e-16
1.08612e-15
1.28033e-15
1.47709e-15
1.66947e-15
1.8499e-15
2.01074e-15
2.14479e-15
2.24581e-15
2.30896e-15
2.33116e-15
2.31132e-15
2.25041e-15
2.15139e-15
2.01899e-15
1.85938e-15
1.67973e-15
1.48766e-15
1.29073e-15
1.09596e-15
9.09284e-16
7.35296e-16
5.77006e-16
4.3586e-16
3.12012e-16
2.22045e-16
2.22045e-16
2.22045e-16
2.22045e-16
2.22045e-16
2.22045e-16
3.08871e-16
4.3105e-16
5.70661e-16
7.27563e-16
9.00362e-16
1.08612e-15
1.28033e-15
1.47709e-15
1.66947e-15
1.8499e-15
2.01074e-15
2.14479e-15
2.24581e-15
2.30896e-15
2.33116e-15
2.31132e-15
2.25041e-15
2.15139e-15
2.01899e-15
1.85938e-15
1.67973e-15
1.48766e-15
1.29073e-15
1.09596e-15
9.09284e-16
7.35296e-16
5.77006e-16
4.3586e-16
3.12012e-16
2.22045e-16
2.22045e-16
2.22045e-16
2.22045e-16
2.22045e-16
2.22045e-16
3.08871e-16
4.3105e-16
5.70661e-16
7.27563e-16
9.00362e-16
1.08612e-15
1.28033e-15
1.47709e-15
1.66947e-15
1.8499e-15
2.01074e-15
2.14479e-15
2.24581e-15
2.30896e-15
2.33116e-15
2.31132e-15
2.25041e-15
2.15139e-15
2.01899e-15
1.85938e-15
1.67973e-15
1.48766e-15
1.29073e-15
1.09596e-15
9.09284e-16
7.35296e-16
5.77006e-16
4.3586e-16
3.12012e-16
2.22045e-16
2.22045e-16
2.22045e-16
2.22045e-16
2.22045e-16
2.22045e-16
3.08871e-16
4.3105e-16
5.70661e-16
7.27563e-16
9.00362e-16
1.08612e-15
1.28033e-15
1.47709e-15
1.66947e-15
1.8499e-15
2.01074e-15
2.14479e-15
2.24581e-15
2.30896e-15
2.33116e-15
2.31132e-15
2.25041e-15
2.15139e-15
2.01899e-15
1.85938e-15
1.67973e-15
1.48766e-15
1.29073e-15
1.09596e-15
9.09284e-16
7.35296e-16
5.77006e-16
4.3586e-16
3.12012e-16
2.22045e-16
2.22045e-16
2.22045e-16
2.22045e-16
2.22045e-16
2.22045e-16
3.08871e-16
4.3105e-16
5.70661e-16
7.27563e-16
9.00362e-16
1.08612e-15
1.28033e-15
1.47709e-15
1.66947e-15
1.8499e-15
2.01074e-15
2.14479e-15
2.24581e-15
2.30896e-15
2.33116e-15
2.31132e-15
2.25041e-15
2.15139e-15
2.01899e-15
1.85938e-15
1.67973e-15
1.48766e-15
1.29073e-15
1.09596e-15
9.09284e-16
7.35296e-16
5.77006e-16
4.3586e-16
3.12012e-16
2.22045e-16
2.22045e-16
2.22045e-16
2.22045e-16
2.22045e-16
2.22045e-16
3.08871e-16
4.3105e-16
5.70661e-16
7.27563e-16
9.00362e-16
1.08612e-15
1.28033e-15
1.47709e-15
1.66947e-15
1.8499e-15
2.01074e-15
2.14479e-15
2.24581e-15
2.30896e-15
2.33116e-15
2.31132e-15
2.25041e-15
2.15139e-15
2.01899e-15
1.85938e-15
1.67973e-15
1.48766e-15
1.29073e-15
1.09596e-15
9.09284e-16
7.35296e-16
5.77006e-16
4.3586e-16
3.12012e-16
2.22045e-16
2.22045e-16
2.22045e-16
2.22045e-16
2.22045e-16
2.22045e-16
3.08871e-16
4.3105e-16
5.70661e-16
7.27563e-16
9.00362e-16
1.08612e-15
1.28033e-15
1.47709e-15
1.66947e-15
1.8499e-15
2.01074e-15
2.14479e-15
2.24581e-15
2.30896e-15
2.33116e-15
2.31132e-15
2.25041e-15
2.15139e-15
2.01899e-15
1.85938e-15
1.67973e-15
1.48766e-15
1.29073e-15
1.09596e-15
9.09284e-16
7.35296e-16
5.77006e-16
4.3586e-16
3.12012e-16
2.22045e-16
2.22045e-16
2.22045e-16
2.22045e-16
2.22045e-16
2.22045e-16
3.08871e-16
4.3105e-16
5.70661e-16
7.27563e-16
9.00362e-16
1.08612e-15
1.28033e-15
1.47709e-15
1.66947e-15
1.8499e-15
2.01074e-15
2.14479e-15
2.24581e-15
2.30896e-15
2.33116e-15
2.31132e-15
2.25041e-15
2.15139e-15
2.01899e-15
1.85938e-15
1.67973e-15
1.48766e-15
1.29073e-15
1.09596e-15
9.09284e-16
7.35296e-16
5.77006e-16
4.3586e-16
3.12012e-16
2.22045e-16
2.22045e-16
2.22045e-16
2.22045e-16
2.22045e-16
2.22045e-16
3.08871e-16
4.3105e-16
5.70661e-16
7.27563e-16
9.00362e-16
1.08612e-15
1.28033e-15
1.47709e-15
1.66947e-15
1.8499e-15
2.01074e-15
2.14479e-15
2.24581e-15
2.30896e-15
2.33116e-15
2.31132e-15
2.25041e-15
2.15139e-15
2.01899e-15
1.85938e-15
1.67973e-15
1.48766e-15
1.29073e-15
1.09596e-15
9.09284e-16
7.35296e-16
5.77006e-16
4.3586e-16
3.12012e-16
2.22045e-16
2.22045e-16
2.22045e-16
2.22045e-16
2.22045e-16
2.22045e-16
3.08871e-16
4.3105e-16
5.70661e-16
7.27563e-16
9.00362e-16
1.08612e-15
1.28033e-15
1.47709e-15
1.66947e-15
1.8499e-15
2.01074e-15
2.14479e-15
2.24581e-15
2.30896e-15
2.33116e-15
2.31132e-15
2.25041e-15
2.15139e-15
2.01899e-15
1.85938e-15
1.67973e-15
1.48766e-15
1.29073e-15
1.09596e-15
9.09284e-16
7.35296e-16
5.77006e-16
4.3586e-16
3.12012e-16
2.22045e-16
2.22045e-16
2.22045e-16
2.22045e-16
2.22045e-16
2.22045e-16
3.08871e-16
4.3105e-16
5.70661e-16
7.27563e-16
9.00362e-16
1.08612e-15
1.28033e-15
1.47709e-15
1.66947e-15
1.8499e-15
2.01074e-15
2.14479e-15
2.24581e-15
2.30896e-15
2.33116e-15
2.31132e-15
2.25041e-15
2.15139e-15
2.01899e-15
1.85938e-15
1.67973e-15
1.48766e-15
1.29073e-15
1.09596e-15
9.09284e-16
7.35296e-16
5.77006e-16
4.3586e-16
3.12012e-16
2.22045e-16
2.22045e-16
2.22045e-16
2.22045e-16
2.22045e-16
2.22045e-16
3.08871e-16
4.3105e-16
5.70661e-16
7.27563e-16
9.00362e-16
1.08612e-15
1.28033e-15
1.47709e-15
1.66947e-15
1.8499e-15
2.01074e-15
2.14479e-15
2.24581e-15
2.30896e-15
2.33116e-15
2.31132e-15
2.25041e-15
2.15139e-15
2.01899e-15
1.85938e-15
1.67973e-15
1.48766e-15
1.29073e-15
1.09596e-15
9.09284e-16
7.35296e-16
5.77006e-16
4.3586e-16
3.12012e-16
2.22045e-16
2.22045e-16
2.22045e-16
2.22045e-16
2.22045e-16
2.22045e-16
3.08871e-16
4.3105e-16
5.70661e-16
7.27563e-16
9.00362e-16
1.08612e-15
1.28033e-15
1.47709e-15
1.66947e-15
1.8499e-15
2.01074e-15
2.14479e-15
2.24581e-15
2.30896e-15
2.33116e-15
2.31132e-15
2.25041e-15
2.15139e-15
2.01899e-15
1.85938e-15
1.67973e-15
1.48766e-15
1.29073e-15
1.09596e-15
9.09284e-16
7.35296e-16
5.77006e-16
4.3586e-16
3.12012e-16
2.22045e-16
2.22045e-16
2.22045e-16
2.22045e-16
2.22045e-16
2.22045e-16
3.08871e-16
4.3105e-16
5.70661e-16
7.27563e-16
9.00362e-16
1.08612e-15
1.28033e-15
1.47709e-15
1.66947e-15
1.8499e-15
2.01074e-15
2.14479e-15
2.24581e-15
2.30896e-15
2.33116e-15
2.31132e-15
2.25041e-15
2.15139e-15
2.01899e-15
1.85938e-15
1.67973e-15
1.48766e-15
1.29073e-15
1.09596e-15
9.09284e-16
7.35296e-16
5.77006e-16
4.3586e-16
3.12012e-16
2.22045e-16
2.22045e-16
2.22045e-16
2.22045e-16
2.22045e-16
2.22045e-16
3.08871e-16
4.3105e-16
5.70661e-16
7.27563e-16
9.00362e-16
1.08612e-15
1.28033e-15
1.47709e-15
1.66947e-15
1.8499e-15
2.01074e-15
2.14479e-15
2.24581e-15
2.30896e-15
2.33116e-15
2.31132e-15
2.25041e-15
2.15139e-15
2.01899e-15
1.85938e-15
1.67973e-15
1.48766e-15
1.29073e-15
1.09596e-15
9.09284e-16
7.35296e-16
5.77006e-16
4.3586e-16
3.12012e-16
2.22045e-16
2.22045e-16
2.22045e-16
2.22045e-16
2.22045e-16
2.22045e-16
3.08871e-16
4.3105e-16
5.70661e-16
7.27563e-16
9.00362e-16
1.08612e-15
1.28033e-15
1.47709e-15
1.66947e-15
1.8499e-15
2.01074e-15
2.14479e-15
2.24581e-15
2.30896e-15
2.33116e-15
2.31132e-15
2.25041e-15
2.15139e-15
2.01899e-15
1.85938e-15
1.67973e-15
1.48766e-15
1.29073e-15
1.09596e-15
9.09284e-16
7.35296e-16
5.77006e-16
4.3586e-16
3.12012e-16
2.22045e-16
2.22045e-16
2.22045e-16
2.22045e-16
2.22045e-16
2.22045e-16
3.08871e-16
4.3105e-16
5.70661e-16
7.27563e-16
9.00362e-16
1.08612e-15
1.28033e-15
1.47709e-15
1.66947e-15
1.8499e-15
2.01074e-15
2.14479e-15
2.24581e-15
2.30896e-15
2.33116e-15
2.31132e-15
2.25041e-15
2.15139e-15
2.01899e-15
1.85938e-15
1.67973e-15
1.48766e-15
1.29073e-15
1.09596e-15
9.09284e-16
7.35296e-16
5.77006e-16
4.3586e-16
3.12012e-16
2.22045e-16
2.22045e-16
2.22045e-16
2.22045e-16
2.22045e-16
2.22045e-16
3.08871e-16
4.3105e-16
5.70661e-16
7.27563e-16
9.00362e-16
1.08612e-15
1.28033e-15
1.47709e-15
1.66947e-15
1.8499e-15
2.01074e-15
2.14479e-15
2.24581e-15
2.30896e-15
2.33116e-15
2.31132e-15
2.25041e-15
2.15139e-15
2.01899e-15
1.85938e-15
1.67973e-15
1.48766e-15
1.29073e-15
1.09596e-15
9.09284e-16
7.35296e-16
5.77006e-16
4.3586e-16
3.12012e-16
2.22045e-16
2.22045e-16
2.22045e-16
2.22045e-16
2.22045e-16
2.22045e-16
3.08871e-16
4.3105e-16
5.70661e-16
7.27563e-16
9.00362e-16
1.08612e-15
1.28033e-15
1.47709e-15
1.66947e-15
1.8499e-15
2.01074e-15
2.14479e-15
2.24581e-15
2.30896e-15
2.33116e-15
2.31132e-15
2.25041e-15
2.15139e-15
2.01899e-15
1.85938e-15
1.67973e-15
1.48766e-15
1.29073e-15
1.09596e-15
9.09284e-16
7.35296e-16
5.77006e-16
4.3586e-16
3.12012e-16
2.22045e-16
2.22045e-16
2.22045e-16
2.22045e-16
2.22045e-16
2.22045e-16
3.08871e-16
4.3105e-16
5.70661e-16
7.27563e-16
9.00362e-16
1.08612e-15
1.28033e-15
1.47709e-15
1.66947e-15
1.8499e-15
2.01074e-15
2.14479e-15
2.24581e-15
2.30896e-15
2.33116e-15
2.31132e-15
2.25041e-15
2.15139e-15
2.01899e-15
1.85938e-15
1.67973e-15
1.48766e-15
1.29073e-15
1.09596e-15
9.09284e-16
7.35296e-16
5.77006e-16
4.3586e-16
3.12012e-16
2.22045e-16
2.22045e-16
2.22045e-16
2.22045e-16
2.22045e-16
2.22045e-16
3.08871e-16
4.3105e-16
5.70661e-16
7.27563e-16
9.00362e-16
1.08612e-15
1.28033e-15
1.47709e-15
1.66947e-15
1.8499e-15
2.01074e-15
2.14479e-15
2.24581e-15
2.30896e-15
2.33116e-15
2.31132e-15
2.25041e-15
2.15139e-15
2.01899e-15
1.85938e-15
1.67973e-15
1.48766e-15
1.29073e-15
1.09596e-15
9.09284e-16
7.35296e-16
5.77006e-16
4.3586e-16
3.12012e-16
2.22045e-16
2.22045e-16
2.22045e-16
2.22045e-16
2.22045e-16
2.22045e-16
3.08871e-16
4.3105e-16
5.70661e-16
7.27563e-16
9.00362e-16
1.08612e-15
1.28033e-15
1.47709e-15
1.66947e-15
1.8499e-15
2.01074e-15
2.14479e-15
2.24581e-15
2.30896e-15
2.33116e-15
2.31132e-15
2.25041e-15
2.15139e-15
2.01899e-15
1.85938e-15
1.67973e-15
1.48766e-15
1.29073e-15
1.09596e-15
9.09284e-16
7.35296e-16
5.77006e-16
4.3586e-16
3.12012e-16
2.22045e-16
2.22045e-16
2.22045e-16
2.22045e-16
2.22045e-16
2.22045e-16
3.08871e-16
4.3105e-16
5.70661e-16
7.27563e-16
9.00362e-16
1.08612e-15
1.28033e-15
1.47709e-15
1.66947e-15
1.8499e-15
2.01074e-15
2.14479e-15
2.24581e-15
2.30896e-15
2.33116e-15
2.31132e-15
2.25041e-15
2.15139e-15
2.01899e-15
1.85938e-15
1.67973e-15
1.48766e-15
1.29073e-15
1.09596e-15
9.09284e-16
7.35296e-16
5.77006e-16
4.3586e-16
3.12012e-16
2.22045e-16
2.22045e-16
2.22045e-16
2.22045e-16
2.22045e-16
2.22045e-16
3.08871e-16
4.3105e-16
5.70661e-16
7.27563e-16
9.00362e-16
1.08612e-15
1.28033e-15
1.47709e-15
1.66947e-15