/*--------------------------------*- C++ -*----------------------------------*\
  =========                 |
  \\      /  F ield         | OpenFOAM: The Open Source CFD Toolbox
   \\    /   O peration     | Website:  https://openfoam.org
    \\  /    A nd           | Version:  13
     \\/     M anipulation  |
\*---------------------------------------------------------------------------*/
FoamFile
{
    format      ascii;
    class       volScalarField;
    location    "190";
    object      nut;
}
// * * * * * * * * * * * * * * * * * * * * * * * * * * * * * * * * * * * * * //

dimensions      [0 2 -1 0 0 0 0];

internalField   nonuniform List<scalar> 
315000
(
1.43401e-16
3.75698e-14
8.57665e-13
1.54034e-12
2.23552e-12
2.94522e-12
3.67181e-12
4.41742e-12
5.18364e-12
5.97137e-12
6.78078e-12
7.61122e-12
8.46128e-12
9.32878e-12
1.02108e-11
1.11037e-11
1.20033e-11
1.29048e-11
1.38029e-11
1.46919e-11
1.5566e-11
1.64189e-11
1.72444e-11
1.80361e-11
1.87878e-11
1.94935e-11
2.01473e-11
2.07438e-11
2.12778e-11
2.17448e-11
2.21408e-11
2.24621e-11
2.2706e-11
2.28703e-11
2.29535e-11
2.2955e-11
2.28746e-11
2.27132e-11
2.24721e-11
2.21534e-11
2.17601e-11
2.12955e-11
2.07637e-11
2.01693e-11
1.95174e-11
1.88133e-11
1.8063e-11
1.72725e-11
1.64479e-11
1.55957e-11
1.4722e-11
1.38332e-11
1.2935e-11
1.20332e-11
1.11331e-11
1.02394e-11
9.35641e-12
8.48778e-12
7.63641e-12
6.8045e-12
5.99349e-12
5.20401e-12
4.43592e-12
3.68829e-12
2.95951e-12
2.24741e-12
1.54951e-12
8.63548e-13
3.78755e-14
1.44675e-16
3.593e-15
9.57199e-13
2.18125e-10
3.94859e-10
5.74132e-10
7.56891e-10
9.43951e-10
1.13596e-09
1.33338e-09
1.53649e-09
1.74532e-09
1.95974e-09
2.17937e-09
2.40366e-09
2.63184e-09
2.86298e-09
3.09597e-09
3.32955e-09
3.56237e-09
3.79293e-09
4.01967e-09
4.241e-09
4.45526e-09
4.6608e-09
4.85601e-09
5.03929e-09
5.20912e-09
5.36407e-09
5.50282e-09
5.62415e-09
5.72701e-09
5.81049e-09
5.87384e-09
5.9165e-09
5.9381e-09
5.93842e-09
5.91747e-09
5.87545e-09
5.81271e-09
5.72983e-09
5.62755e-09
5.50675e-09
5.3685e-09
5.21401e-09
5.04459e-09
4.86167e-09
4.66677e-09
4.46148e-09
4.24741e-09
4.02623e-09
3.79956e-09
3.56903e-09
3.33618e-09
3.10251e-09
2.86939e-09
2.63806e-09
2.40965e-09
2.18509e-09
1.96514e-09
1.75037e-09
1.54115e-09
1.33763e-09
1.13976e-09
9.47267e-10
7.59689e-10
5.76371e-10
3.9649e-10
2.19083e-10
9.61674e-13
3.61025e-15
1.45358e-14
3.87807e-12
2.25354e-09
4.0846e-09
5.94538e-09
7.8476e-09
9.80149e-09
1.18154e-08
1.38957e-08
1.60462e-08
1.82684e-08
2.05612e-08
2.29209e-08
2.53416e-08
2.78147e-08
3.03296e-08
3.28736e-08
3.54323e-08
3.799e-08
4.05293e-08
4.30324e-08
4.54805e-08
4.78547e-08
5.01359e-08
5.23052e-08
5.43443e-08
5.62358e-08
5.79629e-08
5.95105e-08
6.08646e-08
6.2013e-08
6.29452e-08
6.36528e-08
6.41291e-08
6.43699e-08
6.43728e-08
6.41379e-08
6.36673e-08
6.29654e-08
6.20386e-08
6.08953e-08
5.9546e-08
5.80029e-08
5.62799e-08
5.43921e-08
5.23561e-08
5.01895e-08
4.79105e-08
4.55379e-08
4.30909e-08
4.05884e-08
3.8049e-08
3.54909e-08
3.29312e-08
3.03857e-08
2.78689e-08
2.53935e-08
2.29701e-08
2.06073e-08
1.83112e-08
1.60854e-08
1.3931e-08
1.18466e-08
9.82839e-09
7.86997e-09
5.96299e-09
4.09718e-09
2.26077e-09
3.89103e-12
1.45852e-14
2.78429e-14
7.42889e-12
4.31797e-09
7.83261e-09
1.14154e-08
1.50938e-08
1.88923e-08
2.28313e-08
2.69268e-08
3.11898e-08
3.56258e-08
4.02346e-08
4.50103e-08
4.99412e-08
5.50102e-08
6.01947e-08
6.54677e-08
7.07976e-08
7.61495e-08
8.14852e-08
8.67645e-08
9.19455e-08
9.69854e-08
1.01841e-07
1.0647e-07
1.10831e-07
1.14883e-07
1.18589e-07
1.21915e-07
1.24828e-07
1.273e-07
1.29309e-07
1.30834e-07
1.31861e-07
1.32379e-07
1.32384e-07
1.31876e-07
1.30859e-07
1.29344e-07
1.27345e-07
1.24881e-07
1.21976e-07
1.18658e-07
1.14959e-07
1.10913e-07
1.06558e-07
1.01933e-07
9.70811e-08
9.20437e-08
8.68643e-08
8.15857e-08
7.62496e-08
7.08966e-08
6.55646e-08
6.02888e-08
5.51007e-08
5.00275e-08
4.50916e-08
4.03105e-08
3.56958e-08
3.12534e-08
2.69838e-08
2.28813e-08
1.89351e-08
1.51292e-08
1.1443e-08
7.85219e-09
4.32914e-09
7.44886e-12
2.79191e-14
4.37275e-14
1.16679e-11
6.78292e-09
1.2311e-08
1.79592e-08
2.37769e-08
2.9808e-08
3.609e-08
4.26528e-08
4.9518e-08
5.66976e-08
6.4194e-08
7.19998e-08
8.00971e-08
8.84588e-08
9.7048e-08
1.05819e-07
1.1472e-07
1.2369e-07
1.32665e-07
1.41575e-07
1.50349e-07
1.5891e-07
1.67184e-07
1.75093e-07
1.82563e-07
1.8952e-07
1.95896e-07
2.01627e-07
2.06653e-07
2.10925e-07
2.14399e-07
2.17037e-07
2.18814e-07
2.19711e-07
2.19718e-07
2.18835e-07
2.17073e-07
2.14448e-07
2.10988e-07
2.06728e-07
2.01713e-07
1.95993e-07
1.89627e-07
1.82678e-07
1.75215e-07
1.67312e-07
1.59043e-07
1.50485e-07
1.41714e-07
1.32804e-07
1.23828e-07
1.14856e-07
1.05953e-07
9.71771e-08
8.85827e-08
8.02149e-08
7.21105e-08
6.42971e-08
5.67923e-08
4.96039e-08
4.27295e-08
3.6157e-08
2.98651e-08
2.38239e-08
1.79958e-08
1.23368e-08
6.79762e-09
1.16942e-11
4.38277e-14
6.1484e-14
1.64067e-11
9.53842e-09
1.73177e-08
2.52772e-08
3.34912e-08
4.20267e-08
5.09408e-08
6.02799e-08
7.00774e-08
8.03535e-08
9.11136e-08
1.02349e-07
1.14034e-07
1.26132e-07
1.38589e-07
1.51339e-07
1.64307e-07
1.77403e-07
1.90535e-07
2.03601e-07
2.16494e-07
2.29103e-07
2.41311e-07
2.53003e-07
2.64062e-07
2.74377e-07
2.83842e-07
2.92357e-07
2.99832e-07
3.06189e-07
3.1136e-07
3.1529e-07
3.17937e-07
3.19271e-07
3.1928e-07
3.17963e-07
3.15334e-07
3.11421e-07
3.06266e-07
2.99924e-07
2.92463e-07
2.83961e-07
2.74509e-07
2.64204e-07
2.53153e-07
2.41469e-07
2.29266e-07
2.16662e-07
2.03771e-07
1.90706e-07
1.77573e-07
1.64474e-07
1.51503e-07
1.38747e-07
1.26284e-07
1.14178e-07
1.02484e-07
9.12393e-08
8.04688e-08
7.01819e-08
6.03729e-08
5.1022e-08
4.20957e-08
3.35479e-08
2.53212e-08
1.73487e-08
9.55603e-09
1.64383e-11
6.16045e-14
8.00249e-14
2.13551e-11
1.24153e-08
2.25441e-08
3.2915e-08
4.36288e-08
5.4776e-08
6.64344e-08
7.86666e-08
9.15186e-08
1.05018e-07
1.19173e-07
1.33973e-07
1.49384e-07
1.65357e-07
1.81821e-07
1.98689e-07
2.15858e-07
2.33212e-07
2.50628e-07
2.6797e-07
2.85098e-07
3.0186e-07
3.18102e-07
3.33665e-07
3.48395e-07
3.62139e-07
3.74754e-07
3.86107e-07
3.96076e-07
4.04555e-07
4.11452e-07
4.16694e-07
4.20224e-07
4.22004e-07
4.22014e-07
4.20254e-07
4.16744e-07
4.11521e-07
4.04642e-07
3.9618e-07
3.86227e-07
3.7489e-07
3.62288e-07
3.48556e-07
3.33836e-07
3.18281e-07
3.02045e-07
2.85288e-07
2.68163e-07
2.50821e-07
2.33405e-07
2.16048e-07
1.98875e-07
1.82001e-07
1.6553e-07
1.49548e-07
1.34126e-07
1.19316e-07
1.05149e-07
9.16372e-08
7.87721e-08
6.65263e-08
5.48541e-08
4.36928e-08
3.29646e-08
2.2579e-08
1.24351e-08
2.13907e-11
8.01608e-14
9.82767e-14
2.62266e-11
1.5247e-08
2.7687e-08
4.04288e-08
5.35988e-08
6.73103e-08
8.16608e-08
9.67287e-08
1.12571e-07
1.29223e-07
1.46694e-07
1.64969e-07
1.84008e-07
2.03747e-07
2.24098e-07
2.4495e-07
2.66176e-07
2.87634e-07
3.09167e-07
3.30611e-07
3.51789e-07
3.72517e-07
3.926e-07
4.11844e-07
4.30055e-07
4.47045e-07
4.62637e-07
4.76667e-07
4.88985e-07
4.99461e-07
5.07982e-07
5.14456e-07
5.18815e-07
5.21012e-07
5.21023e-07
5.18847e-07
5.1451e-07
5.08056e-07
4.99555e-07
4.89098e-07
4.76797e-07
4.62783e-07
4.47205e-07
4.30228e-07
4.12028e-07
3.92793e-07
3.72717e-07
3.51994e-07
3.30819e-07
3.09376e-07
2.87842e-07
2.66382e-07
2.45151e-07
2.24292e-07
2.03934e-07
1.84186e-07
1.65136e-07
1.46849e-07
1.29365e-07
1.127e-07
9.68428e-08
8.17602e-08
6.73947e-08
5.36677e-08
4.04822e-08
2.77245e-08
1.52682e-08
2.62648e-11
9.84231e-14
1.15363e-13
3.07871e-11
1.78975e-08
3.24998e-08
4.74585e-08
6.29237e-08
7.903e-08
9.58925e-08
1.13604e-07
1.32232e-07
1.51816e-07
1.72367e-07
1.93867e-07
2.16267e-07
2.39489e-07
2.63426e-07
2.8795e-07
3.12906e-07
3.38126e-07
3.63427e-07
3.88615e-07
4.13483e-07
4.37814e-07
4.61381e-07
4.83955e-07
5.0531e-07
5.25227e-07
5.43499e-07
5.59935e-07
5.74362e-07
5.86627e-07
5.96602e-07
6.04179e-07
6.09279e-07
6.11849e-07
6.1186e-07
6.09313e-07
6.04235e-07
5.96679e-07
5.86725e-07
5.74479e-07
5.6007e-07
5.43651e-07
5.25394e-07
5.05491e-07
4.84147e-07
4.61582e-07
4.38023e-07
4.13697e-07
3.88832e-07
3.63645e-07
3.38343e-07
3.1312e-07
2.8816e-07
2.6363e-07
2.39684e-07
2.16453e-07
1.94042e-07
1.7253e-07
1.51965e-07
1.32366e-07
1.13723e-07
9.59964e-08
7.91179e-08
6.29956e-08
4.7514e-08
3.25387e-08
1.79195e-08
3.08269e-11
1.15516e-13
1.30662e-13
3.48709e-11
2.02706e-08
3.6808e-08
5.37499e-08
7.12676e-08
8.95142e-08
1.08621e-07
1.28692e-07
1.49804e-07
1.72002e-07
1.95296e-07
2.19665e-07
2.45049e-07
2.71361e-07
2.98476e-07
3.26244e-07
3.54492e-07
3.83027e-07
4.11642e-07
4.40116e-07
4.68217e-07
4.95699e-07
5.22307e-07
5.47783e-07
5.71873e-07
5.94333e-07
6.1493e-07
6.33451e-07
6.49703e-07
6.63517e-07
6.74747e-07
6.83277e-07
6.89017e-07
6.91908e-07
6.9192e-07
6.89051e-07
6.83333e-07
6.74825e-07
6.63616e-07
6.49822e-07
6.33589e-07
6.15085e-07
5.94503e-07
5.72057e-07
5.47978e-07
5.22512e-07
4.95911e-07
4.68435e-07
4.40338e-07
4.11864e-07
3.83249e-07
3.54712e-07
3.26459e-07
2.98684e-07
2.7156e-07
2.45239e-07
2.19843e-07
1.95462e-07
1.72154e-07
1.49942e-07
1.28814e-07
1.08727e-07
8.96037e-08
7.13406e-08
5.38063e-08
3.68475e-08
2.02929e-08
3.49113e-11
1.30817e-13
1.43809e-13
3.83807e-11
2.23099e-08
4.05097e-08
5.9155e-08
7.8435e-08
9.8519e-08
1.19551e-07
1.41647e-07
1.6489e-07
1.89328e-07
2.14971e-07
2.41794e-07
2.69731e-07
2.98681e-07
3.28507e-07
3.59042e-07
3.90091e-07
4.21443e-07
4.52869e-07
4.84128e-07
5.14964e-07
5.45107e-07
5.74281e-07
6.02203e-07
6.28595e-07
6.53193e-07
6.75743e-07
6.96014e-07
7.13797e-07
7.28908e-07
7.4119e-07
7.50517e-07
7.56793e-07
7.59953e-07
7.59965e-07
7.56827e-07
7.50574e-07
7.41268e-07
7.29007e-07
7.13916e-07
6.96152e-07
6.75898e-07
6.53363e-07
6.2878e-07
6.02398e-07
5.74486e-07
5.45321e-07
5.15182e-07
4.8435e-07
4.53092e-07
4.21666e-07
3.90311e-07
3.59257e-07
3.28716e-07
2.98882e-07
2.69922e-07
2.41973e-07
2.15138e-07
1.8948e-07
1.65028e-07
1.4177e-07
1.19657e-07
9.86087e-08
7.85081e-08
5.92113e-08
4.05491e-08
2.23322e-08
3.8421e-11
1.43964e-13
1.54675e-13
4.12817e-11
2.39955e-08
4.35692e-08
6.36219e-08
8.43582e-08
1.0596e-07
1.28583e-07
1.52352e-07
1.77354e-07
2.03641e-07
2.31224e-07
2.60072e-07
2.90114e-07
3.21239e-07
3.53297e-07
3.86106e-07
4.19458e-07
4.53123e-07
4.86855e-07
5.20395e-07
5.53469e-07
5.8579e-07
6.17059e-07
6.46976e-07
6.75247e-07
7.01586e-07
7.25727e-07
7.47422e-07
7.6645e-07
7.82615e-07
7.95752e-07
8.05728e-07
8.12439e-07
8.15817e-07
8.15828e-07
8.12472e-07
8.05784e-07
7.9583e-07
7.82713e-07
7.66568e-07
7.47559e-07
7.2588e-07
7.01755e-07
6.7543e-07
6.47171e-07
6.17263e-07
5.86001e-07
5.53686e-07
5.20616e-07
4.87077e-07
4.53344e-07
4.19677e-07
3.86321e-07
3.53505e-07
3.21438e-07
2.90304e-07
2.60251e-07
2.3139e-07
2.03793e-07
1.77491e-07
1.52473e-07
1.28689e-07
1.06049e-07
8.44304e-08
6.36775e-08
4.3608e-08
2.40175e-08
4.13216e-11
1.54828e-13
1.63324e-13
4.35914e-11
2.53375e-08
4.60048e-08
6.71781e-08
8.90737e-08
1.11885e-07
1.35775e-07
1.60875e-07
1.87279e-07
2.15039e-07
2.44166e-07
2.74627e-07
3.06345e-07
3.392e-07
3.73034e-07
4.07652e-07
4.42833e-07
4.78334e-07
5.13896e-07
5.49245e-07
5.84092e-07
6.18136e-07
6.51064e-07
6.82559e-07
7.12314e-07
7.40029e-07
7.65426e-07
7.88245e-07
8.08255e-07
8.25252e-07
8.39064e-07
8.4955e-07
8.56603e-07
8.60154e-07
8.60165e-07
8.56637e-07
8.49605e-07
8.3914e-07
8.25349e-07
8.08372e-07
7.8838e-07
7.65578e-07
7.40196e-07
7.12494e-07
6.82751e-07
6.51265e-07
6.18345e-07
5.84307e-07
5.49463e-07
5.14115e-07
4.78553e-07
4.4305e-07
4.07864e-07
3.73239e-07
3.39398e-07
3.06533e-07
2.74804e-07
2.4433e-07
2.1519e-07
1.87414e-07
1.60995e-07
1.35879e-07
1.11972e-07
8.91448e-08
6.72327e-08
4.6043e-08
2.53591e-08
4.36306e-11
1.63475e-13
1.69964e-13
4.53646e-11
2.63679e-08
4.78748e-08
6.99085e-08
9.26945e-08
1.16434e-07
1.41298e-07
1.67422e-07
1.94904e-07
2.23797e-07
2.54112e-07
2.85814e-07
3.1882e-07
3.53007e-07
3.88206e-07
4.24215e-07
4.60801e-07
4.97713e-07
5.3468e-07
5.71417e-07
6.07626e-07
6.42991e-07
6.7719e-07
7.09895e-07
7.40787e-07
7.69557e-07
7.95914e-07
8.19594e-07
8.40356e-07
8.5799e-07
8.72317e-07
8.83194e-07
8.9051e-07
8.94192e-07
8.94203e-07
8.90543e-07
8.83248e-07
8.72393e-07
8.58086e-07
8.40471e-07
8.19727e-07
7.96064e-07
7.69721e-07
7.40965e-07
7.10085e-07
6.77389e-07
6.43197e-07
6.07837e-07
5.71632e-07
5.34896e-07
4.97929e-07
4.61015e-07
4.24424e-07
3.88409e-07
3.53202e-07
3.19006e-07
2.85988e-07
2.54274e-07
2.23945e-07
1.95037e-07
1.6754e-07
1.414e-07
1.1652e-07
9.27644e-08
6.99621e-08
4.79122e-08
2.6389e-08
4.5403e-11
1.70112e-13
1.74883e-13
4.66786e-11
2.71315e-08
4.92608e-08
7.19324e-08
9.53788e-08
1.19807e-07
1.45394e-07
1.72279e-07
2.00561e-07
2.30297e-07
2.61495e-07
2.94119e-07
3.28084e-07
3.63261e-07
3.99476e-07
4.36519e-07
4.74152e-07
5.12113e-07
5.50124e-07
5.87894e-07
6.25114e-07
6.61462e-07
6.96605e-07
7.3021e-07
7.61946e-07
7.91498e-07
8.1857e-07
8.42889e-07
8.64209e-07
8.82315e-07
8.97026e-07
9.08192e-07
9.15703e-07
9.19483e-07
9.19494e-07
9.15736e-07
9.08246e-07
8.971e-07
8.8241e-07
8.64322e-07
8.4302e-07
8.18718e-07
7.91661e-07
7.62121e-07
7.30397e-07
6.96802e-07
6.61665e-07
6.25323e-07
5.88106e-07
5.50338e-07
5.12326e-07
4.74363e-07
4.36726e-07
3.99676e-07
3.63453e-07
3.28267e-07
2.94291e-07
2.61655e-07
2.30443e-07
2.00693e-07
1.72395e-07
1.45495e-07
1.19892e-07
9.54475e-08
7.1985e-08
4.92975e-08
2.71522e-08
4.67164e-11
1.75029e-13
1.78406e-13
4.76197e-11
2.76784e-08
5.02536e-08
7.33822e-08
9.73021e-08
1.22225e-07
1.4833e-07
1.75761e-07
2.04619e-07
2.3496e-07
2.66793e-07
3.00081e-07
3.34737e-07
3.70626e-07
4.07573e-07
4.45361e-07
4.83747e-07
5.22464e-07
5.61228e-07
5.99742e-07
6.37691e-07
6.74747e-07
7.10571e-07
7.44822e-07
7.77167e-07
8.07283e-07
8.3487e-07
8.59649e-07
8.81371e-07
8.99818e-07
9.14804e-07
9.2618e-07
9.33831e-07
9.37681e-07
9.37692e-07
9.33863e-07
9.26233e-07
9.14878e-07
8.99911e-07
8.81483e-07
8.59779e-07
8.35016e-07
8.07444e-07
7.77341e-07
7.45007e-07
7.10765e-07
6.74948e-07
6.37897e-07
5.99952e-07
5.6144e-07
5.22675e-07
4.83956e-07
4.45566e-07
4.07771e-07
3.70817e-07
3.34918e-07
3.00252e-07
2.66951e-07
2.35104e-07
2.04749e-07
1.75876e-07
1.4843e-07
1.22309e-07
9.73699e-08
7.34341e-08
5.02897e-08
2.76988e-08
4.76569e-11
1.78549e-13
1.80845e-13
4.82716e-11
2.80574e-08
5.09415e-08
7.4387e-08
9.86353e-08
1.23901e-07
1.50367e-07
1.78177e-07
2.07435e-07
2.38197e-07
2.70474e-07
3.04224e-07
3.39361e-07
3.75748e-07
4.13205e-07
4.51513e-07
4.90425e-07
5.2967e-07
5.6896e-07
6.07993e-07
6.46451e-07
6.84001e-07
7.20301e-07
7.55005e-07
7.87775e-07
8.18286e-07
8.46232e-07
8.71333e-07
8.93336e-07
9.12021e-07
9.272e-07
9.38722e-07
9.46471e-07
9.5037e-07
9.50381e-07
9.46502e-07
9.38774e-07
9.27273e-07
9.12114e-07
8.93447e-07
8.71461e-07
8.46377e-07
8.18445e-07
7.87947e-07
7.55189e-07
7.20493e-07
6.84201e-07
6.46656e-07
6.08201e-07
5.69169e-07
5.29879e-07
4.90632e-07
4.51716e-07
4.13401e-07
3.75937e-07
3.3954e-07
3.04393e-07
2.7063e-07
2.38341e-07
2.07564e-07
1.78291e-07
1.50465e-07
1.23984e-07
9.87023e-08
7.44383e-08
5.09772e-08
2.80775e-08
4.83084e-11
1.80987e-13
1.82481e-13
4.87089e-11
2.83116e-08
5.1403e-08
7.50614e-08
9.95303e-08
1.25027e-07
1.51735e-07
1.79801e-07
2.09328e-07
2.40375e-07
2.7295e-07
3.07013e-07
3.42474e-07
3.79198e-07
4.17e-07
4.5566e-07
4.94928e-07
5.34531e-07
5.74177e-07
6.13562e-07
6.52365e-07
6.9025e-07
7.26873e-07
7.61884e-07
7.94943e-07
8.25721e-07
8.53911e-07
8.7923e-07
9.01424e-07
9.20271e-07
9.35581e-07
9.47201e-07
9.55017e-07
9.5895e-07
9.5896e-07
9.55049e-07
9.47254e-07
9.35653e-07
9.20363e-07
9.01535e-07
8.79358e-07
8.54055e-07
8.25879e-07
7.95114e-07
7.62066e-07
7.27064e-07
6.90449e-07
6.52569e-07
6.13769e-07
5.74385e-07
5.34738e-07
4.95134e-07
4.55862e-07
4.17195e-07
3.79385e-07
3.42653e-07
3.0718e-07
2.73105e-07
2.40517e-07
2.09457e-07
1.79914e-07
1.51833e-07
1.25109e-07
9.95968e-08
7.51123e-08
5.14384e-08
2.83315e-08
4.87454e-11
1.82622e-13
1.83545e-13
4.89932e-11
2.84769e-08
5.17032e-08
7.55e-08
1.00113e-07
1.25759e-07
1.52626e-07
1.80859e-07
2.10562e-07
2.41794e-07
2.74565e-07
3.08832e-07
3.44507e-07
3.81451e-07
4.1948e-07
4.58372e-07
4.97874e-07
5.37711e-07
5.77591e-07
6.17208e-07
6.56238e-07
6.94344e-07
7.31179e-07
7.66392e-07
7.99641e-07
8.30595e-07
8.58946e-07
8.84409e-07
9.06729e-07
9.25682e-07
9.41079e-07
9.52765e-07
9.60624e-07
9.64579e-07
9.64589e-07
9.60656e-07
9.52817e-07
9.41151e-07
9.25774e-07
9.06839e-07
8.84537e-07
8.59089e-07
8.30753e-07
7.99811e-07
7.66574e-07
7.3137e-07
6.94542e-07
6.56441e-07
6.17414e-07
5.77798e-07
5.37918e-07
4.98078e-07
4.58572e-07
4.19674e-07
3.81638e-07
3.44685e-07
3.09e-07
2.7472e-07
2.41936e-07
2.1069e-07
1.80971e-07
1.52723e-07
1.25841e-07
1.00179e-07
7.55506e-08
5.17384e-08
2.84967e-08
4.90295e-11
1.83685e-13
1.84215e-13
4.91726e-11
2.85812e-08
5.18927e-08
7.57769e-08
1.0048e-07
1.26222e-07
1.53188e-07
1.81527e-07
2.11342e-07
2.42693e-07
2.75587e-07
3.09985e-07
3.45796e-07
3.8288e-07
4.21053e-07
4.60092e-07
4.99743e-07
5.3973e-07
5.7976e-07
6.19525e-07
6.587e-07
6.96948e-07
7.33918e-07
7.69261e-07
8.02631e-07
8.33698e-07
8.62152e-07
8.87708e-07
9.10108e-07
9.29129e-07
9.44581e-07
9.56309e-07
9.64197e-07
9.68166e-07
9.68176e-07
9.64228e-07
9.56361e-07
9.44653e-07
9.29221e-07
9.10218e-07
8.87835e-07
8.62295e-07
8.33856e-07
8.02801e-07
7.69442e-07
7.34108e-07
6.97145e-07
6.58903e-07
6.1973e-07
5.79967e-07
5.39937e-07
4.99947e-07
4.60292e-07
4.21247e-07
3.83066e-07
3.45973e-07
3.10152e-07
2.75742e-07
2.42834e-07
2.1147e-07
1.81639e-07
1.53286e-07
1.26304e-07
1.00546e-07
7.58273e-08
5.19277e-08
2.8601e-08
4.92087e-11
1.84355e-13
1.84626e-13
4.92824e-11
2.86451e-08
5.20087e-08
7.59466e-08
1.00706e-07
1.26506e-07
1.53534e-07
1.81937e-07
2.11822e-07
2.43245e-07
2.76216e-07
3.10694e-07
3.46589e-07
3.8376e-07
4.22022e-07
4.61153e-07
5.00896e-07
5.40976e-07
5.81099e-07
6.20956e-07
6.60221e-07
6.98556e-07
7.35612e-07
7.71035e-07
8.0448e-07
8.35618e-07
8.64136e-07
8.89749e-07
9.12199e-07
9.31263e-07
9.46749e-07
9.58503e-07
9.66409e-07
9.70386e-07
9.70397e-07
9.6644e-07
9.58555e-07
9.46821e-07
9.31354e-07
9.12309e-07
8.89876e-07
8.64279e-07
8.35775e-07
8.0465e-07
7.71215e-07
7.35801e-07
6.98753e-07
6.60423e-07
6.21161e-07
5.81306e-07
5.41183e-07
5.011e-07
4.61352e-07
4.22216e-07
3.83946e-07
3.46766e-07
3.1086e-07
2.7637e-07
2.43386e-07
2.11949e-07
1.8205e-07
1.53631e-07
1.26587e-07
1.00771e-07
7.59969e-08
5.20437e-08
2.86648e-08
4.93184e-11
1.84766e-13
1.8487e-13
4.93478e-11
2.86832e-08
5.20778e-08
7.60476e-08
1.0084e-07
1.26675e-07
1.5374e-07
1.82182e-07
2.12108e-07
2.43574e-07
2.76591e-07
3.11118e-07
3.47063e-07
3.84286e-07
4.22603e-07
4.61788e-07
5.01588e-07
5.41724e-07
5.81903e-07
6.21815e-07
6.61135e-07
6.99523e-07
7.36629e-07
7.72101e-07
8.05592e-07
8.36772e-07
8.65329e-07
8.90977e-07
9.13458e-07
9.32547e-07
9.48054e-07
9.59824e-07
9.6774e-07
9.71723e-07
9.71733e-07
9.67771e-07
9.59876e-07
9.48126e-07
9.32639e-07
9.13567e-07
8.91103e-07
8.65472e-07
8.36929e-07
8.05762e-07
7.72281e-07
7.36819e-07
6.9972e-07
6.61337e-07
6.2202e-07
5.82109e-07
5.4193e-07
5.01791e-07
4.61988e-07
4.22796e-07
3.84472e-07
3.4724e-07
3.11284e-07
2.76746e-07
2.43715e-07
2.12235e-07
1.82294e-07
1.53836e-07
1.26756e-07
1.00906e-07
7.60979e-08
5.21128e-08
2.87028e-08
4.93838e-11
1.8501e-13
1.85012e-13
4.93856e-11
2.87052e-08
5.21178e-08
7.61061e-08
1.00918e-07
1.26773e-07
1.53859e-07
1.82324e-07
2.12274e-07
2.43766e-07
2.7681e-07
3.11365e-07
3.47339e-07
3.84593e-07
4.22941e-07
4.62158e-07
5.01991e-07
5.4216e-07
5.82372e-07
6.22316e-07
6.61668e-07
7.00088e-07
7.37224e-07
7.72724e-07
8.06243e-07
8.37448e-07
8.66028e-07
8.91696e-07
9.14195e-07
9.33299e-07
9.48819e-07
9.60598e-07
9.6852e-07
9.72506e-07
9.72516e-07
9.68551e-07
9.6065e-07
9.48891e-07
9.33391e-07
9.14304e-07
8.91822e-07
8.6617e-07
8.37605e-07
8.06413e-07
7.72905e-07
7.37413e-07
7.00284e-07
6.6187e-07
6.22521e-07
5.82578e-07
5.42366e-07
5.02194e-07
4.62358e-07
4.23134e-07
3.84779e-07
3.47516e-07
3.11531e-07
2.76964e-07
2.43907e-07
2.12401e-07
1.82436e-07
1.53956e-07
1.26854e-07
1.00983e-07
7.61564e-08
5.21528e-08
2.87248e-08
4.94216e-11
1.85151e-13
1.85091e-13
4.94069e-11
2.87176e-08
5.21404e-08
7.61391e-08
1.00962e-07
1.26828e-07
1.53926e-07
1.82405e-07
2.12368e-07
2.43874e-07
2.76933e-07
3.11504e-07
3.47495e-07
3.84767e-07
4.23133e-07
4.62369e-07
5.0222e-07
5.42408e-07
5.82638e-07
6.22601e-07
6.61972e-07
7.00409e-07
7.37562e-07
7.73079e-07
8.06613e-07
8.37833e-07
8.66426e-07
8.92105e-07
9.14615e-07
9.33728e-07
9.49255e-07
9.61039e-07
9.68965e-07
9.72953e-07
9.72963e-07
9.68996e-07
9.61091e-07
9.49327e-07
9.33819e-07
9.14724e-07
8.92232e-07
8.66568e-07
8.3799e-07
8.06783e-07
7.7326e-07
7.37752e-07
7.00606e-07
6.62174e-07
6.22806e-07
5.82844e-07
5.42613e-07
5.02423e-07
4.62568e-07
4.23326e-07
3.84953e-07
3.47672e-07
3.1167e-07
2.77087e-07
2.44015e-07
2.12494e-07
1.82517e-07
1.54023e-07
1.2691e-07
1.01027e-07
7.61894e-08
5.21753e-08
2.87372e-08
4.94429e-11
1.85231e-13
1.85135e-13
4.94186e-11
2.87244e-08
5.21528e-08
7.61572e-08
1.00986e-07
1.26859e-07
1.53964e-07
1.82449e-07
2.12419e-07
2.43934e-07
2.77001e-07
3.11581e-07
3.47582e-07
3.84863e-07
4.23238e-07
4.62485e-07
5.02346e-07
5.42545e-07
5.82786e-07
6.22759e-07
6.6214e-07
7.00587e-07
7.3775e-07
7.73276e-07
8.06819e-07
8.38046e-07
8.66646e-07
8.92333e-07
9.14848e-07
9.33966e-07
9.49497e-07
9.61284e-07
9.69212e-07
9.73201e-07
9.73211e-07
9.69243e-07
9.61336e-07
9.49569e-07
9.34057e-07
9.14958e-07
8.9246e-07
8.66789e-07
8.38203e-07
8.06989e-07
7.73457e-07
7.3794e-07
7.00784e-07
6.62342e-07
6.22964e-07
5.82992e-07
5.4275e-07
5.0255e-07
4.62684e-07
4.23432e-07
3.85048e-07
3.47758e-07
3.11747e-07
2.77155e-07
2.44075e-07
2.12546e-07
1.82561e-07
1.5406e-07
1.2694e-07
1.01051e-07
7.62075e-08
5.21877e-08
2.87441e-08
4.94546e-11
1.85274e-13
1.85158e-13
4.94249e-11
2.8728e-08
5.21594e-08
7.61669e-08
1.00999e-07
1.26875e-07
1.53983e-07
1.82472e-07
2.12447e-07
2.43966e-07
2.77038e-07
3.11622e-07
3.47628e-07
3.84914e-07
4.23295e-07
4.62547e-07
5.02414e-07
5.42619e-07
5.82865e-07
6.22844e-07
6.62231e-07
7.00683e-07
7.37852e-07
7.73383e-07
8.0693e-07
8.38162e-07
8.66766e-07
8.92456e-07
9.14974e-07
9.34095e-07
9.49628e-07
9.61417e-07
9.69346e-07
9.73335e-07
9.73346e-07
9.69377e-07
9.61469e-07
9.497e-07
9.34186e-07
9.15084e-07
8.92583e-07
8.66909e-07
8.38319e-07
8.071e-07
7.73563e-07
7.38041e-07
7.0088e-07
6.62432e-07
6.23049e-07
5.83071e-07
5.42824e-07
5.02618e-07
4.62747e-07
4.23489e-07
3.851e-07
3.47805e-07
3.11788e-07
2.77192e-07
2.44107e-07
2.12574e-07
1.82584e-07
1.5408e-07
1.26956e-07
1.01064e-07
7.62172e-08
5.21943e-08
2.87477e-08
4.94608e-11
1.85298e-13
1.85171e-13
4.94281e-11
2.87299e-08
5.21628e-08
7.6172e-08
1.01005e-07
1.26883e-07
1.53994e-07
1.82485e-07
2.12461e-07
2.43982e-07
2.77057e-07
3.11644e-07
3.47652e-07
3.84941e-07
4.23325e-07
4.6258e-07
5.0245e-07
5.42657e-07
5.82907e-07
6.22889e-07
6.62279e-07
7.00734e-07
7.37905e-07
7.73439e-07
8.06989e-07
8.38223e-07
8.66829e-07
8.92521e-07
9.15041e-07
9.34163e-07
9.49697e-07
9.61487e-07
9.69416e-07
9.73406e-07
9.73417e-07
9.69448e-07
9.61539e-07
9.49769e-07
9.34255e-07
9.1515e-07
8.92648e-07
8.66972e-07
8.3838e-07
8.07158e-07
7.73619e-07
7.38095e-07
7.00931e-07
6.6248e-07
6.23094e-07
5.83113e-07
5.42863e-07
5.02654e-07
4.6278e-07
4.23519e-07
3.85127e-07
3.47829e-07
3.1181e-07
2.77211e-07
2.44123e-07
2.12588e-07
1.82597e-07
1.5409e-07
1.26965e-07
1.01071e-07
7.62222e-08
5.21978e-08
2.87496e-08
4.94641e-11
1.8531e-13
1.85177e-13
4.94298e-11
2.87309e-08
5.21646e-08
7.61746e-08
1.01009e-07
1.26888e-07
1.53999e-07
1.82491e-07
2.12469e-07
2.43991e-07
2.77067e-07
3.11655e-07
3.47665e-07
3.84955e-07
4.23341e-07
4.62597e-07
5.02469e-07
5.42677e-07
5.82929e-07
6.22912e-07
6.62303e-07
7.0076e-07
7.37933e-07
7.73468e-07
8.07019e-07
8.38254e-07
8.66862e-07
8.92555e-07
9.15075e-07
9.34198e-07
9.49733e-07
9.61523e-07
9.69453e-07
9.73443e-07
9.73453e-07
9.69484e-07
9.61575e-07
9.49805e-07
9.3429e-07
9.15185e-07
8.92681e-07
8.67004e-07
8.38411e-07
8.07189e-07
7.73648e-07
7.38122e-07
7.00957e-07
6.62505e-07
6.23117e-07
5.83135e-07
5.42883e-07
5.02672e-07
4.62796e-07
4.23534e-07
3.85141e-07
3.47841e-07
3.11821e-07
2.77221e-07
2.44132e-07
2.12596e-07
1.82603e-07
1.54096e-07
1.26969e-07
1.01074e-07
7.62248e-08
5.21995e-08
2.87506e-08
4.94658e-11
1.85316e-13
1.8518e-13
4.94306e-11
2.87314e-08
5.21655e-08
7.61758e-08
1.0101e-07
1.2689e-07
1.54002e-07
1.82494e-07
2.12473e-07
2.43995e-07
2.77072e-07
3.11661e-07
3.47671e-07
3.84962e-07
4.23348e-07
4.62606e-07
5.02478e-07
5.42687e-07
5.82939e-07
6.22924e-07
6.62316e-07
7.00773e-07
7.37946e-07
7.73482e-07
8.07034e-07
8.3827e-07
8.66878e-07
8.92571e-07
9.15093e-07
9.34216e-07
9.49751e-07
9.61542e-07
9.69471e-07
9.73461e-07
9.73472e-07
9.69503e-07
9.61593e-07
9.49823e-07
9.34307e-07
9.15202e-07
8.92698e-07
8.67021e-07
8.38427e-07
8.07204e-07
7.73663e-07
7.38136e-07
7.0097e-07
6.62517e-07
6.23129e-07
5.83146e-07
5.42893e-07
5.02681e-07
4.62805e-07
4.23542e-07
3.85148e-07
3.47848e-07
3.11827e-07
2.77226e-07
2.44136e-07
2.12599e-07
1.82606e-07
1.54098e-07
1.26971e-07
1.01076e-07
7.62261e-08
5.22004e-08
2.8751e-08
4.94666e-11
1.85319e-13
1.85181e-13
4.9431e-11
2.87316e-08
5.21659e-08
7.61765e-08
1.01011e-07
1.26891e-07
1.54003e-07
1.82496e-07
2.12474e-07
2.43997e-07
2.77074e-07
3.11663e-07
3.47674e-07
3.84965e-07
4.23352e-07
4.6261e-07
5.02482e-07
5.42692e-07
5.82945e-07
6.2293e-07
6.62322e-07
7.0078e-07
7.37953e-07
7.73489e-07
8.07042e-07
8.38278e-07
8.66886e-07
8.9258e-07
9.15101e-07
9.34225e-07
9.49759e-07
9.6155e-07
9.6948e-07
9.7347e-07
9.73481e-07
9.69512e-07
9.61602e-07
9.49831e-07
9.34316e-07
9.15211e-07
8.92706e-07
8.67029e-07
8.38435e-07
8.07211e-07
7.7367e-07
7.38143e-07
7.00976e-07
6.62523e-07
6.23135e-07
5.83151e-07
5.42898e-07
5.02686e-07
4.62809e-07
4.23546e-07
3.85151e-07
3.47851e-07
3.11829e-07
2.77228e-07
2.44138e-07
2.12601e-07
1.82608e-07
1.541e-07
1.26972e-07
1.01077e-07
7.62267e-08
5.22008e-08
2.87513e-08
4.9467e-11
1.85321e-13
1.85182e-13
4.94312e-11
2.87317e-08
5.21661e-08
7.61768e-08
1.01012e-07
1.26891e-07
1.54004e-07
1.82496e-07
2.12475e-07
2.43998e-07
2.77075e-07
3.11665e-07
3.47675e-07
3.84967e-07
4.23354e-07
4.62612e-07
5.02484e-07
5.42695e-07
5.82947e-07
6.22932e-07
6.62324e-07
7.00783e-07
7.37956e-07
7.73493e-07
8.07045e-07
8.38281e-07
8.6689e-07
8.92584e-07
9.15105e-07
9.34229e-07
9.49764e-07
9.61555e-07
9.69485e-07
9.73475e-07
9.73485e-07
9.69516e-07
9.61607e-07
9.49836e-07
9.3432e-07
9.15215e-07
8.9271e-07
8.67032e-07
8.38438e-07
8.07215e-07
7.73673e-07
7.38146e-07
7.00979e-07
6.62526e-07
6.23137e-07
5.83153e-07
5.429e-07
5.02688e-07
4.62811e-07
4.23547e-07
3.85153e-07
3.47852e-07
3.11831e-07
2.77229e-07
2.44139e-07
2.12602e-07
1.82608e-07
1.541e-07
1.26973e-07
1.01077e-07
7.6227e-08
5.2201e-08
2.87514e-08
4.94672e-11
1.85321e-13
1.85182e-13
4.94313e-11
2.87318e-08
5.21662e-08
7.61769e-08
1.01012e-07
1.26892e-07
1.54004e-07
1.82497e-07
2.12476e-07
2.43999e-07
2.77076e-07
3.11665e-07
3.47676e-07
3.84968e-07
4.23355e-07
4.62613e-07
5.02485e-07
5.42696e-07
5.82948e-07
6.22934e-07
6.62326e-07
7.00784e-07
7.37958e-07
7.73494e-07
8.07047e-07
8.38283e-07
8.66892e-07
8.92585e-07
9.15107e-07
9.34231e-07
9.49766e-07
9.61557e-07
9.69487e-07
9.73477e-07
9.73487e-07
9.69518e-07
9.61609e-07
9.49838e-07
9.34322e-07
9.15217e-07
8.92712e-07
8.67034e-07
8.3844e-07
8.07216e-07
7.73675e-07
7.38148e-07
7.00981e-07
6.62528e-07
6.23139e-07
5.83155e-07
5.42901e-07
5.02689e-07
4.62812e-07
4.23548e-07
3.85154e-07
3.47853e-07
3.11831e-07
2.7723e-07
2.4414e-07
2.12602e-07
1.82609e-07
1.54101e-07
1.26973e-07
1.01078e-07
7.62271e-08
5.22011e-08
2.87514e-08
4.94673e-11
1.85322e-13
1.85182e-13
4.94313e-11
2.87318e-08
5.21662e-08
7.6177e-08
1.01012e-07
1.26892e-07
1.54004e-07
1.82497e-07
2.12476e-07
2.43999e-07
2.77076e-07
3.11666e-07
3.47676e-07
3.84968e-07
4.23355e-07
4.62613e-07
5.02486e-07
5.42696e-07
5.82949e-07
6.22934e-07
6.62326e-07
7.00785e-07
7.37959e-07
7.73495e-07
8.07048e-07
8.38284e-07
8.66892e-07
8.92586e-07
9.15108e-07
9.34232e-07
9.49767e-07
9.61558e-07
9.69488e-07
9.73478e-07
9.73488e-07
9.69519e-07
9.6161e-07
9.49839e-07
9.34323e-07
9.15217e-07
8.92713e-07
8.67035e-07
8.38441e-07
8.07217e-07
7.73676e-07
7.38148e-07
7.00981e-07
6.62528e-07
6.23139e-07
5.83155e-07
5.42902e-07
5.02689e-07
4.62812e-07
4.23549e-07
3.85154e-07
3.47853e-07
3.11832e-07
2.7723e-07
2.4414e-07
2.12603e-07
1.82609e-07
1.54101e-07
1.26973e-07
1.01078e-07
7.62272e-08
5.22011e-08
2.87515e-08
4.94673e-11
1.85322e-13
1.85183e-13
4.94313e-11
2.87318e-08
5.21662e-08
7.6177e-08
1.01012e-07
1.26892e-07
1.54004e-07
1.82497e-07
2.12476e-07
2.43999e-07
2.77076e-07
3.11666e-07
3.47676e-07
3.84968e-07
4.23355e-07
4.62613e-07
5.02486e-07
5.42696e-07
5.82949e-07
6.22934e-07
6.62327e-07
7.00785e-07
7.37959e-07
7.73495e-07
8.07048e-07
8.38284e-07
8.66893e-07
8.92587e-07
9.15108e-07
9.34232e-07
9.49767e-07
9.61558e-07
9.69488e-07
9.73478e-07
9.73489e-07
9.69519e-07
9.6161e-07
9.49839e-07
9.34323e-07
9.15218e-07
8.92713e-07
8.67035e-07
8.38441e-07
8.07218e-07
7.73676e-07
7.38149e-07
7.00982e-07
6.62528e-07
6.23139e-07
5.83155e-07
5.42902e-07
5.0269e-07
4.62812e-07
4.23549e-07
3.85154e-07
3.47853e-07
3.11832e-07
2.7723e-07
2.4414e-07
2.12603e-07
1.82609e-07
1.54101e-07
1.26973e-07
1.01078e-07
7.62272e-08
5.22012e-08
2.87515e-08
4.94673e-11
1.85322e-13
1.85183e-13
4.94314e-11
2.87318e-08
5.21662e-08
7.6177e-08
1.01012e-07
1.26892e-07
1.54004e-07
1.82497e-07
2.12476e-07
2.43999e-07
2.77076e-07
3.11666e-07
3.47677e-07
3.84968e-07
4.23355e-07
4.62613e-07
5.02486e-07
5.42696e-07
5.82949e-07
6.22935e-07
6.62327e-07
7.00785e-07
7.37959e-07
7.73496e-07
8.07048e-07
8.38285e-07
8.66893e-07
8.92587e-07
9.15108e-07
9.34232e-07
9.49767e-07
9.61558e-07
9.69488e-07
9.73478e-07
9.73489e-07
9.6952e-07
9.6161e-07
9.49839e-07
9.34324e-07
9.15218e-07
8.92714e-07
8.67036e-07
8.38441e-07
8.07218e-07
7.73676e-07
7.38149e-07
7.00982e-07
6.62529e-07
6.2314e-07
5.83156e-07
5.42902e-07
5.0269e-07
4.62813e-07
4.23549e-07
3.85154e-07
3.47853e-07
3.11832e-07
2.7723e-07
2.4414e-07
2.12603e-07
1.82609e-07
1.54101e-07
1.26973e-07
1.01078e-07
7.62272e-08
5.22012e-08
2.87515e-08
4.94673e-11
1.85322e-13
1.85183e-13
4.94314e-11
2.87318e-08
5.21662e-08
7.6177e-08
1.01012e-07
1.26892e-07
1.54004e-07
1.82497e-07
2.12476e-07
2.43999e-07
2.77076e-07
3.11666e-07
3.47677e-07
3.84968e-07
4.23355e-07