/*--------------------------------*- C++ -*----------------------------------*\
  =========                 |
  \\      /  F ield         | OpenFOAM: The Open Source CFD Toolbox
   \\    /   O peration     | Website:  https://openfoam.org
    \\  /    A nd           | Version:  13
     \\/     M anipulation  |
\*---------------------------------------------------------------------------*/
FoamFile
{
    format      ascii;
    class       volScalarField;
    location    "190";
    object      rhok;
}
// * * * * * * * * * * * * * * * * * * * * * * * * * * * * * * * * * * * * * //

dimensions      [];

internalField   nonuniform List<scalar> 
315000
(
0.444654
0.430922
0.417683
0.413677
0.412876
0.412302
0.411659
0.410989
0.410308
0.409623
0.408937
0.40825
0.407564
0.406879
0.406194
0.40551
0.404827
0.404144
0.403462
0.402782
0.402102
0.401423
0.400746
0.400069
0.399394
0.39872
0.398047
0.397375
0.396705
0.396036
0.395368
0.394702
0.394037
0.393373
0.392711
0.392051
0.391392
0.390734
0.390078
0.389423
0.38877
0.388118
0.387468
0.386819
0.386171
0.385525
0.38488
0.384236
0.383594
0.382953
0.382313
0.381674
0.381036
0.3804
0.379764
0.37913
0.378496
0.377863
0.377231
0.3766
0.375969
0.375339
0.374709
0.37408
0.373452
0.372823
0.372195
0.371568
0.37094
0.370313
0.444654
0.430916
0.417671
0.413668
0.41287
0.412296
0.411654
0.410984
0.410304
0.40962
0.408934
0.408248
0.407563
0.406878
0.406193
0.405509
0.404826
0.404144
0.403462
0.402782
0.402102
0.401423
0.400746
0.400069
0.399394
0.398719
0.398046
0.397375
0.396704
0.396035
0.395367
0.394701
0.394036
0.393372
0.39271
0.39205
0.39139
0.390733
0.390077
0.389422
0.388769
0.388117
0.387466
0.386817
0.38617
0.385524
0.384879
0.384235
0.383593
0.382952
0.382312
0.381673
0.381035
0.380399
0.379763
0.379129
0.378495
0.377862
0.37723
0.376599
0.375968
0.375338
0.374709
0.37408
0.373451
0.372823
0.372195
0.371568
0.37094
0.370313
0.444653
0.430907
0.417665
0.413677
0.412875
0.412296
0.411654
0.410985
0.410305
0.409621
0.408935
0.408249
0.407564
0.406878
0.406194
0.40551
0.404827
0.404145
0.403463
0.402783
0.402103
0.401424
0.400746
0.40007
0.399394
0.39872
0.398047
0.397375
0.396704
0.396035
0.395367
0.3947
0.394035
0.393372
0.39271
0.392049
0.39139
0.390732
0.390076
0.389421
0.388768
0.388116
0.387465
0.386816
0.386169
0.385522
0.384878
0.384234
0.383592
0.382951
0.382311
0.381672
0.381034
0.380398
0.379762
0.379128
0.378494
0.377861
0.377229
0.376598
0.375968
0.375338
0.374708
0.374079
0.373451
0.372823
0.372195
0.371567
0.37094
0.370313
0.444653
0.430853
0.416494
0.414234
0.413264
0.41246
0.411724
0.411016
0.41032
0.409629
0.40894
0.408253
0.407567
0.406881
0.406196
0.405512
0.404829
0.404146
0.403465
0.402784
0.402104
0.401425
0.400747
0.40007
0.399394
0.39872
0.398047
0.397375
0.396704
0.396034
0.395366
0.3947
0.394035
0.393371
0.392709
0.392048
0.391389
0.390731
0.390075
0.38942
0.388767
0.388115
0.387464
0.386815
0.386168
0.385521
0.384877
0.384233
0.383591
0.38295
0.38231
0.381671
0.381034
0.380397
0.379762
0.379127
0.378494
0.377861
0.377229
0.376598
0.375967
0.375337
0.374708
0.374079
0.373451
0.372823
0.372195
0.371567
0.37094
0.370313
0.444652
0.43085
0.416486
0.414225
0.413259
0.412455
0.411719
0.411011
0.410316
0.409625
0.408937
0.40825
0.407564
0.406879
0.406194
0.40551
0.404827
0.404144
0.403463
0.402782
0.402102
0.401423
0.400745
0.400068
0.399393
0.398718
0.398045
0.397373
0.396702
0.396033
0.395365
0.394698
0.394033
0.393369
0.392707
0.392047
0.391387
0.39073
0.390073
0.389419
0.388765
0.388113
0.387463
0.386814
0.386167
0.38552
0.384875
0.384232
0.38359
0.382949
0.382309
0.38167
0.381033
0.380396
0.379761
0.379126
0.378493
0.37786
0.377228
0.376597
0.375967
0.375337
0.374708
0.374079
0.37345
0.372822
0.372195
0.371567
0.37094
0.370313
0.444652
0.430832
0.416472
0.414213
0.413252
0.41245
0.411714
0.411005
0.410308
0.409617
0.408929
0.408242
0.407557
0.406872
0.406187
0.405504
0.404821
0.404139
0.403457
0.402777
0.402097
0.401418
0.400741
0.400064
0.399389
0.398714
0.398041
0.397369
0.396699
0.39603
0.395362
0.394696
0.394031
0.393367
0.392705
0.392044
0.391385
0.390728
0.390071
0.389417
0.388764
0.388112
0.387462
0.386813
0.386165
0.385519
0.384874
0.384231
0.383589
0.382948
0.382308
0.381669
0.381032
0.380396
0.37976
0.379126
0.378492
0.37786
0.377228
0.376597
0.375966
0.375336
0.374707
0.374078
0.37345
0.372822
0.372194
0.371567
0.37094
0.370313
0.444654
0.430912
0.417662
0.413665
0.412865
0.412289
0.411645
0.410974
0.410292
0.409608
0.408922
0.408235
0.40755
0.406865
0.40618
0.405497
0.404814
0.404131
0.40345
0.40277
0.40209
0.401412
0.400734
0.400058
0.399383
0.398709
0.398036
0.397365
0.396694
0.396025
0.395358
0.394692
0.394027
0.393364
0.392702
0.392042
0.391383
0.390725
0.390069
0.389415
0.388762
0.38811
0.38746
0.386811
0.386164
0.385518
0.384873
0.38423
0.383588
0.382947
0.382307
0.381669
0.381031
0.380395
0.37976
0.379125
0.378492
0.377859
0.377227
0.376596
0.375966
0.375336
0.374707
0.374078
0.37345
0.372822
0.372194
0.371567
0.37094
0.370313
0.444653
0.430906
0.417652
0.413646
0.412847
0.412273
0.411631
0.410961
0.410281
0.409597
0.408911
0.408225
0.40754
0.406855
0.406171
0.405487
0.404804
0.404123
0.403442
0.402761
0.402082
0.401404
0.400727
0.400051
0.399376
0.398703
0.39803
0.397359
0.396689
0.396021
0.395353
0.394688
0.394023
0.39336
0.392699
0.392039
0.39138
0.390723
0.390067
0.389413
0.38876
0.388108
0.387458
0.38681
0.386162
0.385517
0.384872
0.384229
0.383587
0.382946
0.382306
0.381668
0.38103
0.380394
0.379759
0.379125
0.378491
0.377859
0.377227
0.376596
0.375966
0.375336
0.374707
0.374078
0.37345
0.372822
0.372194
0.371567
0.37094
0.370313
0.444653
0.4309
0.417641
0.413634
0.412835
0.412261
0.411619
0.41095
0.41027
0.409586
0.4089
0.408215
0.407529
0.406845
0.406161
0.405478
0.404795
0.404114
0.403433
0.402753
0.402074
0.401397
0.40072
0.400044
0.39937
0.398697
0.398025
0.397354
0.396684
0.396016
0.395349
0.394684
0.39402
0.393357
0.392696
0.392036
0.391377
0.39072
0.390065
0.389411
0.388758
0.388107
0.387457
0.386808
0.386161
0.385515
0.384871
0.384228
0.383586
0.382945
0.382306
0.381667
0.38103
0.380394
0.379758
0.379124
0.378491
0.377858
0.377227
0.376596
0.375965
0.375336
0.374706
0.374078
0.37345
0.372822
0.372194
0.371567
0.37094
0.370313
0.444653
0.430896
0.417634
0.413627
0.412827
0.412253
0.411611
0.410941
0.410261
0.409577
0.408892
0.408206
0.407521
0.406837
0.406153
0.40547
0.404788
0.404106
0.403426
0.402747
0.402068
0.401391
0.400714
0.400039
0.399365
0.398692
0.39802
0.39735
0.396681
0.396013
0.395346
0.394681
0.394017
0.393354
0.392693
0.392034
0.391375
0.390719
0.390063
0.389409
0.388757
0.388105
0.387456
0.386807
0.38616
0.385515
0.38487
0.384227
0.383585
0.382944
0.382305
0.381667
0.381029
0.380393
0.379758
0.379124
0.37849
0.377858
0.377226
0.376595
0.375965
0.375335
0.374706
0.374078
0.373449
0.372822
0.372194
0.371567
0.37094
0.370313
0.444653
0.430894
0.417629
0.413621
0.412822
0.412247
0.411605
0.410936
0.410255
0.409571
0.408886
0.408201
0.407516
0.406831
0.406148
0.405465
0.404783
0.404102
0.403421
0.402742
0.402064
0.401387
0.40071
0.400035
0.399362
0.398689
0.398017
0.397347
0.396678
0.39601
0.395344
0.394679
0.394015
0.393353
0.392692
0.392032
0.391374
0.390717
0.390062
0.389408
0.388756
0.388105
0.387455
0.386807
0.38616
0.385514
0.38487
0.384226
0.383585
0.382944
0.382305
0.381666
0.381029
0.380393
0.379758
0.379124
0.37849
0.377858
0.377226
0.376595
0.375965
0.375335
0.374706
0.374078
0.373449
0.372822
0.372194
0.371567
0.37094
0.370313
0.444653
0.430892
0.417626
0.413618
0.412818
0.412244
0.411602
0.410932
0.410252
0.409568
0.408883
0.408197
0.407512
0.406828
0.406144
0.405462
0.40478
0.404099
0.403419
0.402739
0.402061
0.401384
0.400708
0.400033
0.39936
0.398687
0.398016
0.397345
0.396676
0.396009
0.395343
0.394678
0.394014
0.393352
0.392691
0.392031
0.391373
0.390717
0.390061
0.389408
0.388755
0.388104
0.387454
0.386806
0.386159
0.385513
0.384869
0.384226
0.383584
0.382944
0.382304
0.381666
0.381029
0.380393
0.379758
0.379123
0.37849
0.377858
0.377226
0.376595
0.375965
0.375335
0.374706
0.374077
0.373449
0.372821
0.372194
0.371567
0.37094
0.370313
0.444653
0.430892
0.417625
0.413616
0.412817
0.412242
0.4116
0.410931
0.410251
0.409566
0.408881
0.408196
0.407511
0.406827
0.406143
0.40546
0.404778
0.404097
0.403417
0.402738
0.40206
0.401383
0.400707
0.400032
0.399359
0.398686
0.398015
0.397345
0.396676
0.396008
0.395342
0.394677
0.394013
0.393351
0.39269
0.392031
0.391373
0.390716
0.390061
0.389407
0.388755
0.388104
0.387454
0.386806
0.386159
0.385513
0.384869
0.384226
0.383584
0.382944
0.382304
0.381666
0.381029
0.380393
0.379757
0.379123
0.37849
0.377858
0.377226
0.376595
0.375965
0.375335
0.374706
0.374077
0.373449
0.372821
0.372194
0.371567
0.37094
0.370313
0.444653
0.430892
0.417625
0.413616
0.412817
0.412242
0.4116
0.410931
0.410251
0.409566
0.408881
0.408196
0.407511
0.406827
0.406143
0.40546
0.404778
0.404097
0.403417
0.402738
0.40206
0.401383
0.400707
0.400032
0.399359
0.398686
0.398015
0.397345
0.396676
0.396008
0.395342
0.394677
0.394013
0.393351
0.39269
0.392031
0.391373
0.390716
0.390061
0.389407
0.388755
0.388104
0.387454
0.386806
0.386159
0.385513
0.384869
0.384226
0.383584
0.382944
0.382304
0.381666
0.381029
0.380393
0.379757
0.379123
0.37849
0.377858
0.377226
0.376595
0.375965
0.375335
0.374706
0.374077
0.373449
0.372821
0.372194
0.371567
0.37094
0.370313
0.444653
0.430892
0.417626
0.413617
0.412818
0.412243
0.411601
0.410932
0.410252
0.409567
0.408882
0.408197
0.407512
0.406827
0.406144
0.405461
0.404779
0.404098
0.403418
0.402739
0.402061
0.401384
0.400708
0.400033
0.399359
0.398686
0.398015
0.397345
0.396676
0.396008
0.395342
0.394677
0.394014
0.393351
0.39269
0.392031
0.391373
0.390716
0.390061
0.389407
0.388755
0.388104
0.387454
0.386806
0.386159
0.385513
0.384869
0.384226
0.383584
0.382944
0.382304
0.381666
0.381029
0.380393
0.379757
0.379123
0.37849
0.377858
0.377226
0.376595
0.375965
0.375335
0.374706
0.374077
0.373449
0.372821
0.372194
0.371567
0.37094
0.370313
0.444653
0.430893
0.417627
0.413619
0.412819
0.412245
0.411602
0.410933
0.410253
0.409569
0.408883
0.408198
0.407513
0.406829
0.406145
0.405462
0.40478
0.404099
0.403419
0.40274
0.402062
0.401384
0.400708
0.400033
0.39936
0.398687
0.398016
0.397345
0.396676
0.396009
0.395342
0.394678
0.394014
0.393352
0.392691
0.392031
0.391373
0.390717
0.390061
0.389408
0.388755
0.388104
0.387454
0.386806
0.386159
0.385514
0.384869
0.384226
0.383584
0.382944
0.382304
0.381666
0.381029
0.380393
0.379758
0.379123
0.37849
0.377858
0.377226
0.376595
0.375965
0.375335
0.374706
0.374077
0.373449
0.372821
0.372194
0.371567
0.37094
0.370313
0.444653
0.430893
0.417627
0.413619
0.412819
0.412245
0.411603
0.410933
0.410253
0.409569
0.408884
0.408198
0.407513
0.406829
0.406145
0.405463
0.404781
0.4041
0.403419
0.40274
0.402062
0.401385
0.400709
0.400034
0.39936
0.398687
0.398016
0.397346
0.396677
0.396009
0.395343
0.394678
0.394014
0.393352
0.392691
0.392032
0.391374
0.390717
0.390062
0.389408
0.388755
0.388104
0.387455
0.386806
0.386159
0.385514
0.384869
0.384226
0.383585
0.382944
0.382305
0.381666
0.381029
0.380393
0.379758
0.379124
0.37849
0.377858
0.377226
0.376595
0.375965
0.375335
0.374706
0.374078
0.373449
0.372822
0.372194
0.371567
0.37094
0.370313
0.444653
0.430893
0.417627
0.413618
0.412819
0.412245
0.411603
0.410933
0.410253
0.409569
0.408884
0.408198
0.407513
0.406829
0.406146
0.405463
0.404781
0.4041
0.40342
0.40274
0.402062
0.401385
0.400709
0.400034
0.39936
0.398688
0.398016
0.397346
0.396677
0.396009
0.395343
0.394678
0.394015
0.393352
0.392691
0.392032
0.391374
0.390717
0.390062
0.389408
0.388756
0.388105
0.387455
0.386807
0.38616
0.385514
0.38487
0.384227
0.383585
0.382944
0.382305
0.381666
0.381029
0.380393
0.379758
0.379124
0.37849
0.377858
0.377226
0.376595
0.375965
0.375335
0.374706
0.374078
0.373449
0.372822
0.372194
0.371567
0.37094
0.370313
0.444653
0.430893
0.417627
0.413618
0.412819
0.412245
0.411603
0.410933
0.410253
0.409569
0.408884
0.408198
0.407513
0.406829
0.406146
0.405463
0.404781
0.4041
0.40342
0.402741
0.402063
0.401385
0.400709
0.400034
0.399361
0.398688
0.398017
0.397346
0.396677
0.39601
0.395344
0.394679
0.394015
0.393353
0.392692
0.392032
0.391374
0.390717
0.390062
0.389408
0.388756
0.388105
0.387455
0.386807
0.38616
0.385514
0.38487
0.384227
0.383585
0.382944
0.382305
0.381667
0.381029
0.380393
0.379758
0.379124
0.37849
0.377858
0.377226
0.376595
0.375965
0.375335
0.374706
0.374078
0.373449
0.372822
0.372194
0.371567
0.37094
0.370313
0.444653
0.430893
0.417628
0.413619
0.41282
0.412246
0.411604
0.410935
0.410255
0.409571
0.408885
0.4082
0.407515
0.406831
0.406147
0.405464
0.404782
0.404101
0.403421
0.402742
0.402064
0.401387
0.400711
0.400036
0.399362
0.398689
0.398018
0.397347
0.396678
0.396011
0.395344
0.394679
0.394016
0.393353
0.392692
0.392033
0.391375
0.390718
0.390063
0.389409
0.388756
0.388105
0.387456
0.386807
0.38616
0.385515
0.38487
0.384227
0.383585
0.382945
0.382305
0.381667
0.38103
0.380393
0.379758
0.379124
0.378491
0.377858
0.377226
0.376595
0.375965
0.375336
0.374706
0.374078
0.37345
0.372822
0.372194
0.371567
0.37094
0.370313
0.444653
0.430895
0.417632
0.413624
0.412825
0.412251
0.411609
0.410939
0.410259
0.409575
0.40889
0.408204
0.407519
0.406835
0.406151
0.405468
0.404786
0.404105
0.403425
0.402745
0.402067
0.40139
0.400714
0.400038
0.399364
0.398692
0.39802
0.39735
0.39668
0.396013
0.395346
0.394681
0.394017
0.393355
0.392694
0.392034
0.391376
0.390719
0.390064
0.38941
0.388757
0.388106
0.387456
0.386808
0.386161
0.385515
0.384871
0.384228
0.383586
0.382945
0.382306
0.381667
0.38103
0.380394
0.379759
0.379124
0.378491
0.377858
0.377227
0.376596
0.375965
0.375336
0.374706
0.374078
0.37345
0.372822
0.372194
0.371567
0.37094
0.370313
0.444653
0.430899
0.41764
0.413633
0.412834
0.41226
0.411618
0.410948
0.410268
0.409584
0.408898
0.408213
0.407528
0.406843
0.406159
0.405476
0.404793
0.404112
0.403431
0.402752
0.402073
0.401395
0.400719
0.400043
0.399369
0.398696
0.398024
0.397353
0.396684
0.396016
0.395349
0.394683
0.394019
0.393357
0.392696
0.392036
0.391377
0.390721
0.390065
0.389411
0.388758
0.388107
0.387457
0.386809
0.386162
0.385516
0.384871
0.384228
0.383586
0.382946
0.382306
0.381668
0.38103
0.380394
0.379759
0.379125
0.378491
0.377859
0.377227
0.376596
0.375966
0.375336
0.374707
0.374078
0.37345
0.372822
0.372194
0.371567
0.37094
0.370313
0.444653
0.430906
0.417651
0.413644
0.412845
0.412271
0.411629
0.41096
0.410279
0.409595
0.40891
0.408224
0.407539
0.406854
0.406169
0.405486
0.404803
0.404121
0.40344
0.40276
0.402081
0.401403
0.400726
0.40005
0.399375
0.398701
0.398029
0.397358
0.396688
0.396019
0.395352
0.394687
0.394022
0.393359
0.392698
0.392038
0.391379
0.390722
0.390067
0.389412
0.38876
0.388108
0.387458
0.38681
0.386162
0.385517
0.384872
0.384229
0.383587
0.382946
0.382306
0.381668
0.381031
0.380394
0.379759
0.379125
0.378491
0.377859
0.377227
0.376596
0.375966
0.375336
0.374707
0.374078
0.37345
0.372822
0.372194
0.371567
0.37094
0.370313
0.444653
0.430908
0.417655
0.413649
0.41285
0.412276
0.411634
0.410965
0.410286
0.409602
0.408917
0.408232
0.407546
0.406862
0.406178
0.405494
0.404811
0.404129
0.403448
0.402767
0.402088
0.401409
0.400732
0.400055
0.39938
0.398706
0.398033
0.397362
0.396692
0.396023
0.395356
0.39469
0.394025
0.393362
0.3927
0.39204
0.391381
0.390724
0.390068
0.389414
0.388761
0.388109
0.387459
0.38681
0.386163
0.385517
0.384873
0.384229
0.383587
0.382947
0.382307
0.381668
0.381031
0.380395
0.379759
0.379125
0.378492
0.377859
0.377227
0.376596
0.375966
0.375336
0.374707
0.374078
0.37345
0.372822
0.372194
0.371567
0.37094
0.370313
0.444652
0.430864
0.417623
0.413642
0.412843
0.412266
0.411625
0.410959
0.410281
0.409598
0.408915
0.40823
0.407546
0.406862
0.406179
0.405496
0.404813
0.404131
0.40345
0.40277
0.40209
0.401412
0.400734
0.400058
0.399382
0.398708
0.398035
0.397364
0.396693
0.396025
0.395357
0.394691
0.394026
0.393363
0.392701
0.392041
0.391382
0.390725
0.390069
0.389414
0.388761
0.38811
0.38746
0.386811
0.386164
0.385518
0.384873
0.38423
0.383588
0.382947
0.382307
0.381669
0.381031
0.380395
0.37976
0.379125
0.378492
0.377859
0.377227
0.376596
0.375966
0.375336
0.374707
0.374078
0.37345
0.372822
0.372194
0.371567
0.37094
0.370313
0.444652
0.430843
0.416474
0.414212
0.413242
0.412438
0.411702
0.410994
0.410299
0.409608
0.40892
0.408233
0.407548
0.406862
0.406178
0.405494
0.404811
0.404129
0.403448
0.402768
0.402088
0.401409
0.400732
0.400056
0.39938
0.398706
0.398034
0.397362
0.396692
0.396023
0.395356
0.39469
0.394025
0.393362
0.3927
0.39204
0.391382
0.390724
0.390068
0.389414
0.388761
0.38811
0.38746
0.386811
0.386164
0.385518
0.384873
0.38423
0.383588
0.382947
0.382307
0.381669
0.381031
0.380395
0.37976
0.379125
0.378492
0.377859
0.377228
0.376596
0.375966
0.375336
0.374707
0.374078
0.37345
0.372822
0.372194
0.371567
0.37094
0.370313
0.444652
0.430839
0.416464
0.414202
0.413235
0.41243
0.411694
0.410987
0.410291
0.4096
0.408912
0.408225
0.407539
0.406854
0.40617
0.405486
0.404803
0.404121
0.40344
0.40276
0.402081
0.401403
0.400726
0.40005
0.399375
0.398702
0.398029
0.397358
0.396688
0.39602
0.395353
0.394687
0.394023
0.39336
0.392699
0.392039
0.39138
0.390723
0.390067
0.389413
0.38876
0.388109
0.387459
0.386811
0.386163
0.385517
0.384873
0.38423
0.383588
0.382947
0.382307
0.381669
0.381031
0.380395
0.37976
0.379125
0.378492
0.377859
0.377228
0.376597
0.375966
0.375336
0.374707
0.374078
0.37345
0.372822
0.372194
0.371567
0.37094
0.370313
0.444652
0.430832
0.416452
0.414189
0.413222
0.412418
0.411682
0.410974
0.410279
0.409588
0.4089
0.408213
0.407528
0.406843
0.406159
0.405476
0.404794
0.404112
0.403431
0.402752
0.402073
0.401396
0.400719
0.400044
0.399369
0.398696
0.398024
0.397354
0.396685
0.396017
0.39535
0.394684
0.394021
0.393358
0.392697
0.392037
0.391379
0.390722
0.390066
0.389412
0.38876
0.388108
0.387458
0.38681
0.386163
0.385517
0.384873
0.384229
0.383587
0.382947
0.382307
0.381669
0.381031
0.380395
0.37976
0.379125
0.378492
0.377859
0.377228
0.376597
0.375966
0.375336
0.374707
0.374078
0.37345
0.372822
0.372194
0.371567
0.37094
0.370313
0.444652
0.430828
0.416443
0.41418
0.413213
0.412409
0.411673
0.410965
0.41027
0.409579
0.408891
0.408205
0.407519
0.406835
0.406151
0.405468
0.404786
0.404105
0.403425
0.402746
0.402068
0.40139
0.400714
0.400039
0.399365
0.398692
0.398021
0.397351
0.396682
0.396014
0.395347
0.394682
0.394019
0.393356
0.392695
0.392036
0.391378
0.390721
0.390065
0.389411
0.388759
0.388108
0.387458
0.38681
0.386163
0.385517
0.384872
0.384229
0.383587
0.382947
0.382307
0.381669
0.381031
0.380395
0.37976
0.379125
0.378492
0.377859
0.377228
0.376597
0.375966
0.375336
0.374707
0.374078
0.37345
0.372822
0.372195
0.371567
0.37094
0.370313
0.444652
0.430825
0.416439
0.414176
0.413208
0.412403
0.411668
0.41096
0.410264
0.409574
0.408886
0.4082
0.407515
0.40683
0.406147
0.405464
0.404782
0.404101
0.403421
0.402742
0.402064
0.401387
0.400711
0.400036
0.399363
0.39869
0.398019
0.397349
0.39668
0.396012
0.395346
0.394681
0.394017
0.393355
0.392694
0.392035
0.391377
0.39072
0.390065
0.389411
0.388759
0.388107
0.387458
0.386809
0.386162
0.385517
0.384872
0.384229
0.383587
0.382947
0.382307
0.381669
0.381031
0.380395
0.37976
0.379126
0.378492
0.37786
0.377228
0.376597
0.375966
0.375336
0.374707
0.374078
0.37345
0.372822
0.372195
0.371567
0.37094
0.370313
0.444652
0.430824
0.416437
0.414173
0.413206
0.412401
0.411665
0.410957
0.410262
0.409572
0.408884
0.408197
0.407512
0.406828
0.406144
0.405462
0.40478
0.404099
0.403419
0.40274
0.402062
0.401385
0.40071
0.400035
0.399361
0.398689
0.398018
0.397348
0.396679
0.396011
0.395345
0.39468
0.394017
0.393355
0.392694
0.392034
0.391376
0.39072
0.390065
0.389411
0.388758
0.388107
0.387458
0.386809
0.386162
0.385517
0.384872
0.384229
0.383587
0.382947
0.382307
0.381669
0.381031
0.380395
0.37976
0.379126
0.378492
0.37786
0.377228
0.376597
0.375966
0.375337
0.374707
0.374079
0.37345
0.372822
0.372195
0.371567
0.37094
0.370313
0.444652
0.430824
0.416436
0.414172
0.413205
0.4124
0.411664
0.410956
0.410261
0.40957
0.408883
0.408196
0.407511
0.406827
0.406143
0.405461
0.404779
0.404098
0.403418
0.40274
0.402062
0.401385
0.400709
0.400034
0.399361
0.398688
0.398017
0.397347
0.396678
0.396011
0.395345
0.39468
0.394017
0.393354
0.392694
0.392034
0.391376
0.39072
0.390065
0.389411
0.388758
0.388107
0.387458
0.386809
0.386162
0.385517
0.384872
0.384229
0.383587
0.382947
0.382307
0.381669
0.381032
0.380395
0.37976
0.379126
0.378492
0.37786
0.377228
0.376597
0.375966
0.375337
0.374707
0.374079
0.37345
0.372822
0.372195
0.371567
0.37094
0.370313
0.444652
0.430824
0.416436
0.414172
0.413204
0.4124
0.411664
0.410956
0.41026
0.40957
0.408882
0.408196
0.407511
0.406827
0.406143
0.405461
0.404779
0.404098
0.403418
0.402739
0.402061
0.401385
0.400709
0.400034
0.399361
0.398688
0.398017
0.397347
0.396678
0.396011
0.395345
0.39468
0.394017
0.393354
0.392694
0.392034
0.391376
0.39072
0.390065
0.389411
0.388758
0.388107
0.387458
0.386809
0.386162
0.385517
0.384872
0.384229
0.383587
0.382947
0.382307
0.381669
0.381032
0.380395
0.37976
0.379126
0.378492
0.37786
0.377228
0.376597
0.375966
0.375337
0.374707
0.374079
0.37345
0.372822
0.372195
0.371567
0.37094
0.370313
0.444652
0.430824
0.416436
0.414172
0.413204
0.4124
0.411664
0.410956
0.41026
0.40957
0.408882
0.408196
0.407511
0.406827
0.406143
0.405461
0.404779
0.404098
0.403418
0.402739
0.402061
0.401385
0.400709
0.400034
0.399361
0.398688
0.398017
0.397347
0.396678
0.396011
0.395345
0.39468
0.394017
0.393355
0.392694
0.392034
0.391376
0.39072
0.390065
0.389411
0.388758
0.388107
0.387458
0.38681
0.386163
0.385517
0.384873
0.384229
0.383588
0.382947
0.382307
0.381669
0.381032
0.380395
0.37976
0.379126
0.378492
0.37786
0.377228
0.376597
0.375966
0.375337
0.374707
0.374079
0.37345
0.372822
0.372195
0.371567
0.37094
0.370313
0.444652
0.430824
0.416436
0.414172
0.413204
0.4124
0.411664
0.410956
0.41026
0.40957
0.408882
0.408196
0.407511
0.406827
0.406143
0.405461
0.404779
0.404098
0.403418
0.402739
0.402062
0.401385
0.400709
0.400034
0.399361
0.398688
0.398017
0.397347
0.396679
0.396011
0.395345
0.39468
0.394017
0.393355
0.392694
0.392035
0.391377
0.39072
0.390065
0.389411
0.388759
0.388108
0.387458
0.38681
0.386163
0.385517
0.384873
0.384229
0.383588
0.382947
0.382307
0.381669
0.381032
0.380395
0.37976
0.379126
0.378492
0.37786
0.377228
0.376597
0.375966
0.375337
0.374707
0.374079
0.37345
0.372822
0.372195
0.371567
0.37094
0.370313
0.444652
0.430824
0.416436
0.414172
0.413204
0.4124
0.411664
0.410956
0.410261
0.40957
0.408882
0.408196
0.407511
0.406827
0.406143
0.405461
0.404779
0.404098
0.403418
0.402739
0.402062
0.401385
0.400709
0.400034
0.399361
0.398688
0.398017
0.397347
0.396679
0.396011
0.395345
0.39468
0.394017
0.393355
0.392694
0.392035
0.391377
0.39072
0.390065
0.389411
0.388759
0.388108
0.387458
0.38681
0.386163
0.385517
0.384873
0.38423
0.383588
0.382947
0.382307
0.381669
0.381032
0.380396
0.37976
0.379126
0.378492
0.37786
0.377228
0.376597
0.375967
0.375337
0.374707
0.374079
0.37345
0.372822
0.372195
0.371567
0.37094
0.370313
0.444652
0.430824
0.416436
0.414172
0.413205
0.4124
0.411664
0.410956
0.410261
0.40957
0.408883
0.408196
0.407511
0.406827
0.406143
0.405461
0.404779
0.404098
0.403418
0.40274
0.402062
0.401385
0.400709
0.400034
0.399361
0.398689
0.398017
0.397347
0.396679
0.396011
0.395345
0.39468
0.394017
0.393355
0.392694
0.392035
0.391377
0.39072
0.390065
0.389411
0.388759
0.388108
0.387458
0.38681
0.386163
0.385517
0.384873
0.38423
0.383588
0.382947
0.382308
0.381669
0.381032
0.380396
0.37976
0.379126
0.378492
0.37786
0.377228
0.376597
0.375967
0.375337
0.374707
0.374079
0.37345
0.372822
0.372195
0.371567
0.37094
0.370313
0.444652
0.430824
0.416436
0.414172
0.413205
0.4124
0.411664
0.410956
0.410261
0.40957
0.408883
0.408196
0.407511
0.406827
0.406143
0.405461
0.404779
0.404098
0.403418
0.40274
0.402062
0.401385
0.400709
0.400034
0.399361
0.398689
0.398017
0.397347
0.396679
0.396011
0.395345
0.39468
0.394017
0.393355
0.392694
0.392035
0.391377
0.39072
0.390065
0.389411
0.388759
0.388108
0.387458
0.38681
0.386163
0.385517
0.384873
0.38423
0.383588
0.382947
0.382308
0.381669
0.381032
0.380396
0.37976
0.379126
0.378493
0.37786
0.377228
0.376597
0.375967
0.375337
0.374707
0.374079
0.37345
0.372822
0.372195
0.371567
0.37094
0.370313
0.444652
0.430824
0.416436
0.414172
0.413205
0.4124
0.411664
0.410956
0.410261
0.40957
0.408883
0.408196
0.407511
0.406827
0.406143
0.405461
0.404779
0.404098
0.403419
0.40274
0.402062
0.401385
0.400709
0.400035
0.399361
0.398689
0.398017
0.397348
0.396679
0.396011
0.395345
0.39468
0.394017
0.393355
0.392694
0.392035
0.391377
0.39072
0.390065
0.389411
0.388759
0.388108
0.387458
0.38681
0.386163
0.385517
0.384873
0.38423
0.383588
0.382947
0.382308
0.381669
0.381032
0.380396
0.37976
0.379126
0.378493
0.37786
0.377228
0.376597
0.375967
0.375337
0.374707
0.374079
0.37345
0.372822
0.372195
0.371567
0.37094
0.370313
0.444652
0.430824
0.416436
0.414172
0.413205
0.4124
0.411664
0.410956
0.410261
0.40957
0.408883
0.408196
0.407511
0.406827
0.406143
0.405461
0.404779
0.404098
0.403419
0.40274
0.402062
0.401385
0.400709
0.400035
0.399361
0.398689
0.398017
0.397348
0.396679
0.396011
0.395345
0.394681
0.394017
0.393355
0.392694
0.392035
0.391377
0.39072
0.390065
0.389411
0.388759
0.388108
0.387458
0.38681
0.386163
0.385517
0.384873
0.38423
0.383588
0.382947
0.382308
0.381669
0.381032
0.380396
0.37976
0.379126
0.378493
0.37786
0.377228
0.376597
0.375967
0.375337
0.374707
0.374079
0.37345
0.372822
0.372195
0.371567
0.37094
0.370313
0.444652
0.430824
0.416436
0.414172
0.413205
0.4124
0.411664
0.410956
0.410261
0.40957
0.408883
0.408196
0.407511
0.406827
0.406143
0.405461
0.404779
0.404098
0.403419
0.40274
0.402062
0.401385
0.400709
0.400035
0.399361
0.398689
0.398018
0.397348
0.396679
0.396011
0.395345
0.394681
0.394017
0.393355
0.392694
0.392035
0.391377
0.39072
0.390065
0.389411
0.388759
0.388108
0.387458
0.38681
0.386163
0.385517
0.384873
0.38423
0.383588
0.382947
0.382308
0.381669
0.381032
0.380396
0.37976
0.379126
0.378493
0.37786
0.377228
0.376597
0.375967
0.375337
0.374707
0.374079
0.37345
0.372822
0.372195
0.371567
0.37094
0.370313
0.444652
0.430824
0.416436
0.414172
0.413205
0.4124
0.411664
0.410956
0.410261
0.40957
0.408883
0.408196
0.407511
0.406827
0.406144
0.405461
0.404779
0.404098
0.403419
0.40274
0.402062
0.401385
0.400709
0.400035
0.399361
0.398689
0.398018
0.397348
0.396679
0.396011
0.395345
0.394681
0.394017
0.393355
0.392694
0.392035
0.391377
0.39072
0.390065
0.389411
0.388759
0.388108
0.387458
0.38681
0.386163
0.385517
0.384873
0.38423
0.383588
0.382947
0.382308
0.381669
0.381032
0.380396
0.37976
0.379126
0.378493
0.37786
0.377228
0.376597
0.375967
0.375337
0.374707
0.374079
0.37345
0.372822
0.372195
0.371567
0.37094
0.370313
0.444652
0.430824
0.416436
0.414172
0.413205
0.4124
0.411664
0.410956
0.410261
0.40957
0.408883
0.408196
0.407511
0.406827
0.406144
0.405461
0.404779
0.404098
0.403419
0.40274
0.402062
0.401385
0.400709
0.400035
0.399361
0.398689
0.398018
0.397348
0.396679
0.396011
0.395345
0.394681
0.394017
0.393355
0.392694
0.392035
0.391377
0.39072
0.390065
0.389411
0.388759
0.388108
0.387458
0.38681
0.386163
0.385517
0.384873
0.38423
0.383588
0.382947
0.382308
0.381669
0.381032
0.380396
0.37976
0.379126
0.378493
0.37786
0.377228
0.376597
0.375967
0.375337
0.374708
0.374079
0.37345
0.372822
0.372195
0.371567
0.37094
0.370313
0.444652
0.430824
0.416436
0.414172
0.413205
0.4124
0.411664
0.410956
0.410261
0.409571
0.408883
0.408196
0.407511
0.406827
0.406144
0.405461
0.404779
0.404098
0.403419
0.40274
0.402062
0.401385
0.400709
0.400035
0.399361
0.398689
0.398018
0.397348
0.396679
0.396012
0.395345
0.394681
0.394017
0.393355
0.392694
0.392035
0.391377
0.39072
0.390065
0.389411
0.388759
0.388108
0.387458
0.38681
0.386163
0.385517
0.384873
0.38423
0.383588
0.382947
0.382308
0.381669
0.381032
0.380396
0.37976
0.379126
0.378493
0.37786
0.377228
0.376597
0.375967
0.375337
0.374708
0.374079
0.37345
0.372822
0.372195
0.371567
0.37094
0.370313
0.444652
0.430824
0.416436
0.414172
0.413205
0.4124
0.411664
0.410956
0.410261
0.409571
0.408883
0.408196
0.407511
0.406827
0.406144
0.405461
0.404779
0.404099
0.403419
0.40274
0.402062
0.401385
0.400709
0.400035
0.399361
0.398689
0.398018
0.397348
0.396679
0.396012
0.395345
0.394681
0.394017
0.393355
0.392694
0.392035
0.391377
0.39072
0.390065
0.389411
0.388759
0.388108
0.387458
0.38681
0.386163
0.385517
0.384873
0.38423
0.383588
0.382947
0.382308
0.381669
0.381032
0.380396
0.37976
0.379126
0.378493
0.37786
0.377228
0.376597
0.375967
0.375337
0.374708
0.374079
0.37345
0.372822
0.372195
0.371567
0.37094
0.370313
0.444652
0.430824
0.416436
0.414172
0.413205
0.4124
0.411664
0.410956
0.410261
0.409571
0.408883
0.408196
0.407511
0.406827
0.406144
0.405461
0.404779
0.404099
0.403419
0.40274
0.402062
0.401385
0.400709
0.400035
0.399361
0.398689
0.398018
0.397348
0.396679
0.396012
0.395345
0.394681
0.394017
0.393355
0.392694
0.392035
0.391377
0.39072
0.390065
0.389411
0.388759
0.388108
0.387458
0.38681
0.386163
0.385517
0.384873
0.38423
0.383588
0.382947
0.382308
0.381669
0.381032
0.380396
0.37976
0.379126
0.378493
0.37786
0.377228
0.376597
0.375967
0.375337
0.374708
0.374079
0.37345
0.372822
0.372195
0.371567
0.37094
0.370313
0.444652
0.430824
0.416436
0.414172
0.413205
0.4124
0.411664
0.410956
0.410261
0.409571
0.408883
0.408196
0.407511
0.406827
0.406144
0.405461
0.404779
0.404099
0.403419
0.40274
0.402062
0.401385
0.400709
0.400035
0.399361
0.398689
0.398018
0.397348
0.396679
0.396012
0.395345
0.394681
0.394017
0.393355
0.392694
0.392035
0.391377
0.39072
0.390065
0.389411
0.388759
0.388108
0.387458
0.38681
0.386163
0.385517
0.384873
0.38423
0.383588
0.382947
0.382308
0.381669
0.381032
0.380396
0.37976
0.379126
0.378493
0.37786
0.377228
0.376597
0.375967
0.375337
0.374708
0.374079
0.37345
0.372822
0.372195
0.371567
0.37094
0.370313
0.444652
0.430824
0.416436
0.414172
0.413205
0.4124
0.411664
0.410956
0.410261
0.409571
0.408883
0.408196
0.407511
0.406827
0.406144
0.405461
0.404779
0.404099
0.403419