/*--------------------------------*- C++ -*----------------------------------*\
  =========                 |
  \\      /  F ield         | OpenFOAM: The Open Source CFD Toolbox
   \\    /   O peration     | Website:  https://openfoam.org
    \\  /    A nd           | Version:  13
     \\/     M anipulation  |
\*---------------------------------------------------------------------------*/
FoamFile
{
    format      ascii;
    class       volScalarField;
    location    "75";
    object      rhok;
}
// * * * * * * * * * * * * * * * * * * * * * * * * * * * * * * * * * * * * * //

dimensions      [];

internalField   nonuniform List<scalar> 
315000
(
0.444484
0.424134
0.416832
0.41311
0.411976
0.411141
0.410224
0.409288
0.408353
0.407425
0.406506
0.405593
0.404686
0.403786
0.402893
0.402006
0.401126
0.400254
0.39939
0.398536
0.39769
0.396855
0.396029
0.395215
0.394412
0.39362
0.39284
0.392072
0.391317
0.390574
0.389844
0.389128
0.388424
0.387734
0.387056
0.386393
0.385742
0.385105
0.384481
0.38387
0.383271
0.382686
0.382114
0.381553
0.381005
0.380469
0.379945
0.379432
0.37893
0.378438
0.377957
0.377486
0.377025
0.376573
0.376129
0.375694
0.375266
0.374846
0.374433
0.374025
0.373624
0.373228
0.372837
0.37245
0.372067
0.371687
0.371309
0.370933
0.370559
0.370186
0.44455
0.426816
0.414287
0.412832
0.411984
0.411093
0.410182
0.409261
0.408338
0.407417
0.4065
0.405587
0.40468
0.403779
0.402885
0.401997
0.401116
0.400244
0.39938
0.398525
0.397679
0.396843
0.396018
0.395203
0.394399
0.393607
0.392827
0.392059
0.391304
0.390561
0.389831
0.389115
0.388411
0.38772
0.387043
0.38638
0.385729
0.385092
0.384468
0.383857
0.383259
0.382674
0.382102
0.381542
0.380994
0.380458
0.379934
0.379421
0.37892
0.378429
0.377948
0.377477
0.377016
0.376564
0.376121
0.375686
0.375259
0.37484
0.374427
0.37402
0.373619
0.373224
0.372833
0.372447
0.372064
0.371684
0.371307
0.370932
0.370559
0.370186
0.444511
0.425291
0.415283
0.413183
0.412124
0.411153
0.410206
0.409269
0.408338
0.407413
0.406493
0.40558
0.404673
0.403772
0.402877
0.401989
0.401109
0.400236
0.399372
0.398517
0.397671
0.396835
0.396009
0.395194
0.39439
0.393598
0.392818
0.39205
0.391295
0.390552
0.389822
0.389105
0.388401
0.387711
0.387034
0.38637
0.38572
0.385083
0.384459
0.383848
0.38325
0.382665
0.382093
0.381533
0.380985
0.38045
0.379926
0.379414
0.378912
0.378421
0.377941
0.377471
0.37701
0.376558
0.376116
0.375681
0.375254
0.374835
0.374422
0.374016
0.373616
0.373221
0.37283
0.372444
0.372062
0.371683
0.371306
0.370931
0.370558
0.370186
0.444466
0.42242
0.416356
0.41413
0.412567
0.411335
0.410267
0.409279
0.408331
0.407402
0.406484
0.405572
0.404667
0.403767
0.402873
0.401985
0.401105
0.400232
0.399367
0.398512
0.397666
0.39683
0.396004
0.395189
0.394385
0.393593
0.392812
0.392044
0.391288
0.390546
0.389816
0.389099
0.388395
0.387705
0.387027
0.386364
0.385713
0.385076
0.384452
0.383842
0.383244
0.382659
0.382087
0.381527
0.38098
0.380444
0.37992
0.379408
0.378907
0.378416
0.377936
0.377466
0.377005
0.376554
0.376111
0.375677
0.375251
0.374831
0.374419
0.374013
0.373613
0.373218
0.372828
0.372442
0.37206
0.371681
0.371305
0.37093
0.370558
0.370185
0.44455
0.426817
0.414284
0.412827
0.411976
0.411083
0.410171
0.40925
0.408328
0.407407
0.406489
0.405576
0.404669
0.403767
0.402872
0.401984
0.401103
0.40023
0.399365
0.39851
0.397663
0.396827
0.396001
0.395186
0.394382
0.393589
0.392809
0.392041
0.391285
0.390542
0.389812
0.389095
0.388391
0.387701
0.387024
0.38636
0.385709
0.385072
0.384448
0.383838
0.38324
0.382655
0.382083
0.381523
0.380976
0.380441
0.379917
0.379405
0.378903
0.378413
0.377933
0.377463
0.377003
0.376551
0.376109
0.375675
0.375248
0.374829
0.374417
0.374011
0.373611
0.373217
0.372827
0.372441
0.372059
0.371681
0.371304
0.37093
0.370557
0.370185
0.444511
0.425291
0.415282
0.41318
0.412121
0.411149
0.410203
0.409266
0.408335
0.40741
0.406491
0.405577
0.404669
0.403768
0.402873
0.401984
0.401103
0.40023
0.399366
0.39851
0.397663
0.396827
0.396001
0.395185
0.394381
0.393589
0.392808
0.39204
0.391284
0.390541
0.389811
0.389093
0.38839
0.387699
0.387022
0.386358
0.385708
0.38507
0.384447
0.383836
0.383238
0.382653
0.382081
0.381521
0.380974
0.380439
0.379915
0.379403
0.378902
0.378411
0.377931
0.377461
0.377001
0.37655
0.376107
0.375673
0.375247
0.374828
0.374416
0.37401
0.37361
0.373216
0.372826
0.372441
0.372059
0.37168
0.371304
0.37093
0.370557
0.370185
0.444466
0.422421
0.416361
0.414118
0.412548
0.411317
0.410253
0.40927
0.408326
0.4074
0.406484
0.405573
0.404668
0.403769
0.402875
0.401987
0.401106
0.400233
0.399368
0.398512
0.397665
0.396828
0.396002
0.395186
0.394382
0.393589
0.392808
0.39204
0.391284
0.390541
0.389811
0.389093
0.388389
0.387699
0.387022
0.386358
0.385707
0.38507
0.384446
0.383835
0.383237
0.382653
0.38208
0.381521
0.380973
0.380438
0.379914
0.379402
0.378901
0.378411
0.377931
0.377461
0.377
0.376549
0.376107
0.375673
0.375246
0.374827
0.374415
0.37401
0.37361
0.373215
0.372826
0.37244
0.372058
0.37168
0.371304
0.37093
0.370557
0.370185
0.444466
0.422412
0.416347
0.414112
0.412543
0.411312
0.410249
0.409268
0.408325
0.407401
0.406485
0.405576
0.404671
0.403772
0.402878
0.40199
0.401109
0.400235
0.39937
0.398514
0.397667
0.39683
0.396004
0.395188
0.394383
0.393591
0.39281
0.392041
0.391285
0.390542
0.389811
0.389094
0.38839
0.387699
0.387022
0.386358
0.385708
0.38507
0.384446
0.383836
0.383238
0.382653
0.382081
0.381521
0.380974
0.380438
0.379914
0.379402
0.378901
0.378411
0.377931
0.377461
0.377
0.376549
0.376107
0.375673
0.375246
0.374827
0.374415
0.37401
0.37361
0.373215
0.372826
0.37244
0.372058
0.37168
0.371304
0.37093
0.370557
0.370185
0.444466
0.422416
0.416346
0.414128
0.412566
0.411335
0.410269
0.409283
0.408337
0.40741
0.406493
0.405582
0.404676
0.403776
0.402881
0.401993
0.401112
0.400238
0.399373
0.398516
0.397669
0.396832
0.396005
0.395189
0.394385
0.393592
0.392811
0.392042
0.391286
0.390543
0.389812
0.389095
0.388391
0.3877
0.387023
0.386359
0.385708
0.385071
0.384447
0.383836
0.383238
0.382654
0.382081
0.381522
0.380974
0.380439
0.379915
0.379403
0.378902
0.378411
0.377931
0.377461
0.377001
0.376549
0.376107
0.375673
0.375247
0.374828
0.374416
0.37401
0.37361
0.373216
0.372826
0.37244
0.372059
0.37168
0.371304
0.37093
0.370557
0.370185
0.44455
0.426809
0.414293
0.41283
0.411982
0.411092
0.41018
0.40926
0.408338
0.407418
0.406501
0.405589
0.404681
0.403779
0.402884
0.401995
0.401113
0.400239
0.399373
0.398517
0.39767
0.396833
0.396006
0.39519
0.394386
0.393593
0.392812
0.392043
0.391287
0.390544
0.389813
0.389096
0.388392
0.387701
0.387024
0.38636
0.385709
0.385072
0.384448
0.383837
0.383239
0.382654
0.382082
0.381522
0.380975
0.38044
0.379916
0.379403
0.378902
0.378412
0.377932
0.377462
0.377001
0.37655
0.376108
0.375673
0.375247
0.374828
0.374416
0.37401
0.37361
0.373216
0.372826
0.372441
0.372059
0.37168
0.371304
0.37093
0.370557
0.370185
0.444484
0.424128
0.416801
0.413083
0.411957
0.411127
0.410214
0.409281
0.408348
0.40742
0.4065
0.405586
0.404678
0.403776
0.402881
0.401993
0.401111
0.400238
0.399373
0.398516
0.397669
0.396832
0.396006
0.39519
0.394386
0.393593
0.392812
0.392044
0.391288
0.390545
0.389814
0.389097
0.388393
0.387702
0.387025
0.386361
0.38571
0.385073
0.384449
0.383838
0.38324
0.382655
0.382083
0.381523
0.380976
0.38044
0.379917
0.379404
0.378903
0.378412
0.377932
0.377462
0.377002
0.376551
0.376108
0.375674
0.375247
0.374828
0.374416
0.374011
0.373611
0.373216
0.372826
0.372441
0.372059
0.37168
0.371304
0.37093
0.370557
0.370185
0.444563
0.427311
0.414101
0.41269
0.411877
0.411019
0.410133
0.409231
0.40832
0.407406
0.406493
0.405583
0.404677
0.403776
0.402881
0.401992
0.401111
0.400237
0.399372
0.398516
0.397669
0.396833
0.396006
0.395191
0.394386
0.393594
0.392813
0.392045
0.391289
0.390545
0.389815
0.389098
0.388394
0.387703
0.387026
0.386362
0.385711
0.385074
0.38445
0.383839
0.383241
0.382656
0.382084
0.381524
0.380977
0.380441
0.379917
0.379405
0.378904
0.378413
0.377933
0.377463
0.377002
0.376551
0.376109
0.375674
0.375248
0.374829
0.374417
0.374011
0.373611
0.373216
0.372827
0.372441
0.372059
0.37168
0.371304
0.37093
0.370557
0.370185
0.444511
0.425297
0.415275
0.41318
0.41213
0.41116
0.410214
0.409276
0.408344
0.407418
0.406498
0.405584
0.404676
0.403775
0.40288
0.401991
0.40111
0.400237
0.399372
0.398516
0.39767
0.396833
0.396007
0.395191
0.394387
0.393594
0.392814
0.392045
0.391289
0.390546
0.389816
0.389099
0.388395
0.387704
0.387027
0.386363
0.385712
0.385075
0.384451
0.38384
0.383242
0.382657
0.382085
0.381525
0.380977
0.380442
0.379918
0.379406
0.378904
0.378414
0.377934
0.377463
0.377003
0.376552
0.376109
0.375675
0.375248
0.374829
0.374417
0.374011
0.373611
0.373217
0.372827
0.372441
0.372059
0.37168
0.371304
0.37093
0.370557
0.370185
0.444511
0.425297
0.415277
0.413186
0.412139
0.411169
0.410221
0.409282
0.408348
0.407421
0.406501
0.405586
0.404678
0.403776
0.402881
0.401993
0.401111
0.400238
0.399373
0.398517
0.397671
0.396834
0.396008
0.395192
0.394388
0.393595
0.392814
0.392046
0.39129
0.390547
0.389817
0.389099
0.388395
0.387705
0.387027
0.386363
0.385713
0.385075
0.384451
0.383841
0.383243
0.382658
0.382085
0.381525
0.380978
0.380442
0.379918
0.379406
0.378905
0.378414
0.377934
0.377464
0.377003
0.376552
0.376109
0.375675
0.375249
0.374829
0.374417
0.374011
0.373611
0.373217
0.372827
0.372441
0.372059
0.37168
0.371304
0.37093
0.370557
0.370185
0.444563
0.427314
0.414103
0.412686
0.411878
0.411023
0.410136
0.409232
0.408321
0.407408
0.406495
0.405585
0.404679
0.403778
0.402883
0.401994
0.401113
0.40024
0.399374
0.398518
0.397672
0.396835
0.396008
0.395193
0.394388
0.393596
0.392815
0.392047
0.391291
0.390547
0.389817
0.3891
0.388396
0.387705
0.387028
0.386364
0.385713
0.385076
0.384452
0.383841
0.383243
0.382658
0.382086
0.381526
0.380978
0.380443
0.379919
0.379406
0.378905
0.378414
0.377934
0.377464
0.377004
0.376552
0.37611
0.375675
0.375249
0.37483
0.374417
0.374012
0.373612
0.373217
0.372827
0.372441
0.372059
0.371681
0.371304
0.37093
0.370557
0.370185
0.444484
0.424112
0.416794
0.413064
0.411938
0.411111
0.4102
0.409268
0.408337
0.407412
0.406494
0.405582
0.404675
0.403775
0.40288
0.401993
0.401112
0.400239
0.399374
0.398518
0.397671
0.396835
0.396008
0.395193
0.394388
0.393596
0.392815
0.392047
0.391291
0.390548
0.389817
0.3891
0.388396
0.387705
0.387028
0.386364
0.385713
0.385076
0.384452
0.383841
0.383243
0.382658
0.382086
0.381526
0.380978
0.380443
0.379919
0.379407
0.378905
0.378415
0.377934
0.377464
0.377004
0.376552
0.37611
0.375675
0.375249
0.37483
0.374418
0.374012
0.373612
0.373217
0.372827
0.372441
0.372059
0.371681
0.371304
0.37093
0.370557
0.370185
0.444483
0.4241
0.416798
0.413073
0.411944
0.411115
0.410201
0.409267
0.408335
0.40741
0.406492
0.40558
0.404674
0.403774
0.40288
0.401992
0.401112
0.400239
0.399374
0.398518
0.397671
0.396835
0.396008
0.395193
0.394389
0.393596
0.392815
0.392047
0.391291
0.390548
0.389817
0.3891
0.388396
0.387705
0.387028
0.386364
0.385713
0.385076
0.384452
0.383841
0.383243
0.382658
0.382086
0.381526
0.380978
0.380443
0.379919
0.379407
0.378905
0.378415
0.377934
0.377464
0.377004
0.376552
0.37611
0.375675
0.375249
0.37483
0.374418
0.374012
0.373612
0.373217
0.372827
0.372441
0.372059
0.371681
0.371304
0.37093
0.370557
0.370185
0.444484
0.424119
0.416815
0.413101
0.41197
0.411134
0.410217
0.409282
0.408348
0.407421
0.406501
0.405588
0.404681
0.40378
0.402885
0.401997
0.401115
0.400242
0.399377
0.39852
0.397673
0.396836
0.39601
0.395194
0.394389
0.393596
0.392816
0.392047
0.391291
0.390548
0.389817
0.3891
0.388396
0.387705
0.387028
0.386364
0.385713
0.385076
0.384452
0.383841
0.383243
0.382658
0.382086
0.381526
0.380978
0.380443
0.379919
0.379407
0.378905
0.378415
0.377934
0.377464
0.377004
0.376552
0.37611
0.375675
0.375249
0.37483
0.374418
0.374012
0.373612
0.373217
0.372827
0.372441
0.372059
0.371681
0.371304
0.37093
0.370557
0.370185
0.444532
0.426138
0.414612
0.413011
0.412095
0.41116
0.410223
0.409289
0.408359
0.407433
0.406514
0.405599
0.404691
0.403789
0.402893
0.402003
0.401121
0.400247
0.399381
0.398524
0.397676
0.396839
0.396012
0.395195
0.394391
0.393598
0.392816
0.392048
0.391291
0.390548
0.389818
0.3891
0.388396
0.387705
0.387028
0.386364
0.385713
0.385076
0.384452
0.383841
0.383243
0.382658
0.382086
0.381526
0.380978
0.380443
0.379919
0.379407
0.378905
0.378415
0.377934
0.377464
0.377004
0.376552
0.37611
0.375675
0.375249
0.37483
0.374418
0.374012
0.373612
0.373217
0.372827
0.372441
0.372059
0.371681
0.371304
0.37093
0.370557
0.370185
0.444533
0.426151
0.414615
0.413013
0.4121
0.411167
0.410232
0.409298
0.408367
0.407442
0.406521
0.405607
0.404698
0.403795
0.402898
0.402008
0.401125
0.40025
0.399384
0.398526
0.397679
0.396841
0.396013
0.395197
0.394392
0.393598
0.392817
0.392048
0.391292
0.390548
0.389818
0.3891
0.388396
0.387705
0.387028
0.386364
0.385713
0.385076
0.384452
0.383841
0.383243
0.382658
0.382086
0.381526
0.380978
0.380443
0.379919
0.379407
0.378905
0.378415
0.377934
0.377464
0.377004
0.376552
0.37611
0.375675
0.375249
0.37483
0.374418
0.374012
0.373612
0.373217
0.372827
0.372441
0.372059
0.371681
0.371304
0.37093
0.370557
0.370185
0.444533
0.426153
0.414619
0.413017
0.412104
0.411171
0.410236
0.409302
0.408371
0.407445
0.406525
0.40561
0.404701
0.403797
0.4029
0.40201
0.401127
0.400252
0.399385
0.398528
0.39768
0.396841
0.396014
0.395197
0.394392
0.393599
0.392817
0.392048
0.391292
0.390548
0.389818
0.3891
0.388396
0.387705
0.387028
0.386364
0.385713
0.385076
0.384452
0.383841
0.383243
0.382658
0.382086
0.381526
0.380978
0.380443
0.379919
0.379406
0.378905
0.378415
0.377934
0.377464
0.377004
0.376552
0.37611
0.375675
0.375249
0.37483
0.374418
0.374012
0.373612
0.373217
0.372827
0.372441
0.372059
0.371681
0.371304
0.37093
0.370557
0.370185
0.444533
0.426153
0.41462
0.413018
0.412105
0.411173
0.410237
0.409303
0.408372
0.407447
0.406526
0.405611
0.404701
0.403798
0.402901
0.402011
0.401128
0.400253
0.399386
0.398528
0.39768
0.396842
0.396014
0.395197
0.394392
0.393599
0.392817
0.392048
0.391292
0.390548
0.389818
0.3891
0.388396
0.387705
0.387028
0.386364
0.385713
0.385076
0.384452
0.383841
0.383243
0.382658
0.382086
0.381526
0.380978
0.380443
0.379919
0.379406
0.378905
0.378415
0.377934
0.377464
0.377004
0.376552
0.37611
0.375675
0.375249
0.37483
0.374418
0.374012
0.373612
0.373217
0.372827
0.372441
0.372059
0.371681
0.371304
0.37093
0.370557
0.370185
0.444533
0.426153
0.41462
0.413018
0.412106
0.411173
0.410237
0.409303
0.408373
0.407447
0.406526
0.405611
0.404702
0.403798
0.402901
0.402011
0.401128
0.400253
0.399386
0.398528
0.39768
0.396842
0.396014
0.395197
0.394392
0.393599
0.392817
0.392048
0.391292
0.390548
0.389818
0.3891
0.388396
0.387705
0.387028
0.386364
0.385713
0.385076
0.384452
0.383841
0.383243
0.382658
0.382086
0.381526
0.380978
0.380443
0.379919
0.379406
0.378905
0.378415
0.377934
0.377464
0.377004
0.376552
0.37611
0.375675
0.375249
0.37483
0.374418
0.374012
0.373612
0.373217
0.372827
0.372441
0.372059
0.371681
0.371304
0.37093
0.370557
0.370185
0.444533
0.426153
0.41462
0.413018
0.412106
0.411173
0.410237
0.409303
0.408373
0.407447
0.406526
0.405611
0.404702
0.403798
0.402901
0.402011
0.401128
0.400253
0.399386
0.398528
0.39768
0.396842
0.396014
0.395197
0.394392
0.393599
0.392817
0.392048
0.391292
0.390548
0.389818
0.3891
0.388396
0.387705
0.387028
0.386364
0.385713
0.385076
0.384452
0.383841
0.383243
0.382658
0.382086
0.381526
0.380978
0.380443
0.379919
0.379406
0.378905
0.378415
0.377934
0.377464
0.377004
0.376552
0.37611
0.375675
0.375249
0.37483
0.374418
0.374012
0.373612
0.373217
0.372827
0.372441
0.372059
0.371681
0.371304
0.37093
0.370557
0.370185
0.444533
0.426153
0.41462
0.413018
0.412106
0.411173
0.410237
0.409303
0.408373
0.407447
0.406526
0.405611
0.404702
0.403798
0.402901
0.402011
0.401128
0.400253
0.399386
0.398528
0.39768
0.396842
0.396014
0.395197
0.394392
0.393599
0.392817
0.392048
0.391292
0.390548
0.389818
0.3891
0.388396
0.387705
0.387028
0.386364
0.385713
0.385076
0.384452
0.383841
0.383243
0.382658
0.382086
0.381526
0.380978
0.380443
0.379919
0.379406
0.378905
0.378415
0.377934
0.377464
0.377004
0.376552
0.37611
0.375675
0.375249
0.37483
0.374418
0.374012
0.373612
0.373217
0.372827
0.372441
0.372059
0.371681
0.371304
0.37093
0.370557
0.370185
0.444533
0.426153
0.41462
0.413018
0.412106
0.411173
0.410237
0.409303
0.408373
0.407447
0.406526
0.405611
0.404702
0.403798
0.402901
0.402011
0.401128
0.400253
0.399386
0.398528
0.39768
0.396842
0.396014
0.395197
0.394392
0.393599
0.392817
0.392048
0.391292
0.390548
0.389818
0.3891
0.388396
0.387705
0.387028
0.386364
0.385713
0.385076
0.384452
0.383841
0.383243
0.382658
0.382086
0.381526
0.380978
0.380443
0.379919
0.379406
0.378905
0.378415
0.377934
0.377464
0.377004
0.376552
0.37611
0.375675
0.375249
0.37483
0.374418
0.374012
0.373612
0.373217
0.372827
0.372441
0.372059
0.371681
0.371304
0.37093
0.370557
0.370185
0.444533
0.426153
0.41462
0.413018
0.412106
0.411173
0.410237
0.409303
0.408373
0.407447
0.406526
0.405611
0.404702
0.403798
0.402901
0.402011
0.401128
0.400253
0.399386
0.398528
0.39768
0.396842
0.396014
0.395197
0.394392
0.393599
0.392817
0.392048
0.391292
0.390548
0.389818
0.3891
0.388396
0.387705
0.387028
0.386364
0.385713
0.385076
0.384452
0.383841
0.383243
0.382658
0.382086
0.381526
0.380978
0.380443
0.379919
0.379406
0.378905
0.378415
0.377934
0.377464
0.377004
0.376552
0.37611
0.375675
0.375249
0.37483
0.374418
0.374012
0.373612
0.373217
0.372827
0.372441
0.372059
0.371681
0.371304
0.37093
0.370557
0.370185
0.444533
0.426153
0.41462
0.413018
0.412106
0.411173
0.410237
0.409303
0.408373
0.407447
0.406526
0.405611
0.404702
0.403798
0.402901
0.402011
0.401128
0.400253
0.399386
0.398528
0.39768
0.396842
0.396014
0.395197
0.394392
0.393599
0.392817
0.392048
0.391292
0.390548
0.389818
0.3891
0.388396
0.387705
0.387028
0.386364
0.385713
0.385076
0.384452
0.383841
0.383243
0.382658
0.382086
0.381526
0.380978
0.380443
0.379919
0.379406
0.378905
0.378415
0.377934
0.377464
0.377004
0.376552
0.37611
0.375675
0.375249
0.37483
0.374418
0.374012
0.373612
0.373217
0.372827
0.372441
0.372059
0.371681
0.371304
0.37093
0.370557
0.370185
0.444533
0.426153
0.41462
0.413018
0.412106
0.411173
0.410237
0.409303
0.408373
0.407447
0.406526
0.405611
0.404702
0.403798
0.402901
0.402011
0.401128
0.400253
0.399386
0.398528
0.39768
0.396842
0.396014
0.395197
0.394392
0.393599
0.392817
0.392048
0.391292
0.390548
0.389818
0.3891
0.388396
0.387705
0.387028
0.386364
0.385713
0.385076
0.384452
0.383841
0.383243
0.382658
0.382086
0.381526
0.380978
0.380443
0.379919
0.379406
0.378905
0.378415
0.377934
0.377464
0.377004
0.376552
0.37611
0.375675
0.375249
0.37483
0.374418
0.374012
0.373612
0.373217
0.372827
0.372441
0.372059
0.371681
0.371304
0.37093
0.370557
0.370185
0.444533
0.426153
0.41462
0.413018
0.412106
0.411173
0.410237
0.409303
0.408373
0.407447
0.406526
0.405611
0.404702
0.403798
0.402901
0.402011
0.401128
0.400253
0.399386
0.398528
0.39768
0.396842
0.396014
0.395197
0.394392
0.393599
0.392817
0.392048
0.391292
0.390548
0.389818
0.3891
0.388396
0.387705
0.387028
0.386364
0.385713
0.385076
0.384452
0.383841
0.383243
0.382658
0.382086
0.381526
0.380978
0.380443
0.379919
0.379406
0.378905
0.378415
0.377934
0.377464
0.377004
0.376552
0.37611
0.375675
0.375249
0.37483
0.374418
0.374012
0.373612
0.373217
0.372827
0.372441
0.372059
0.371681
0.371304
0.37093
0.370557
0.370185
0.444533
0.426153
0.41462
0.413018
0.412106
0.411173
0.410237
0.409303
0.408373
0.407447
0.406526
0.405611
0.404702
0.403798
0.402901
0.402011
0.401128
0.400253
0.399386
0.398528
0.39768
0.396842
0.396014
0.395197
0.394392
0.393599
0.392817
0.392048
0.391292
0.390548
0.389818
0.3891
0.388396
0.387705
0.387028
0.386364
0.385713
0.385076
0.384452
0.383841
0.383243
0.382658
0.382086
0.381526
0.380978
0.380443
0.379919
0.379406
0.378905
0.378415
0.377934
0.377464
0.377004
0.376552
0.37611
0.375675
0.375249
0.37483
0.374418
0.374012
0.373612
0.373217
0.372827
0.372441
0.372059
0.371681
0.371304
0.37093
0.370557
0.370185
0.444533
0.426153
0.41462
0.413018
0.412106
0.411173
0.410237
0.409303
0.408373
0.407447
0.406526
0.405611
0.404702
0.403798
0.402901
0.402011
0.401128
0.400253
0.399386
0.398528
0.39768
0.396842
0.396014
0.395197
0.394392
0.393599
0.392817
0.392048
0.391292
0.390548
0.389818
0.3891
0.388396
0.387705
0.387028
0.386364
0.385713
0.385076
0.384452
0.383841
0.383243
0.382658
0.382086
0.381526
0.380978
0.380443
0.379919
0.379406
0.378905
0.378415
0.377934
0.377464
0.377004
0.376552
0.37611
0.375675
0.375249
0.37483
0.374418
0.374012
0.373612
0.373217
0.372827
0.372441
0.372059
0.371681
0.371304
0.37093
0.370557
0.370185
0.444533
0.426153
0.41462
0.413018
0.412106
0.411173
0.410237
0.409303
0.408373
0.407447
0.406526
0.405611
0.404702
0.403798
0.402901
0.402011
0.401128
0.400253
0.399386
0.398528
0.39768
0.396842
0.396014
0.395197
0.394392
0.393599
0.392817
0.392048
0.391292
0.390548
0.389818
0.3891
0.388396
0.387705
0.387028
0.386364
0.385713
0.385076
0.384452
0.383841
0.383243
0.382658
0.382086
0.381526
0.380978
0.380443
0.379919
0.379406
0.378905
0.378415
0.377934
0.377464
0.377004
0.376552
0.37611
0.375675
0.375249
0.37483
0.374418
0.374012
0.373612
0.373217
0.372827
0.372441
0.372059
0.371681
0.371304
0.37093
0.370557
0.370185
0.444533
0.426153
0.41462
0.413018
0.412106
0.411173
0.410237
0.409303
0.408373
0.407447
0.406526
0.405611
0.404702
0.403798
0.402901
0.402011
0.401128
0.400253
0.399386
0.398528
0.39768
0.396842
0.396014
0.395197
0.394392
0.393599
0.392817
0.392048
0.391292
0.390548
0.389818
0.3891
0.388396
0.387705
0.387028
0.386364
0.385713
0.385076
0.384452
0.383841
0.383243
0.382658
0.382086
0.381526
0.380978
0.380443
0.379919
0.379406
0.378905
0.378415
0.377934
0.377464
0.377004
0.376552
0.37611
0.375675
0.375249
0.37483
0.374418
0.374012
0.373612
0.373217
0.372827
0.372441
0.372059
0.371681
0.371304
0.37093
0.370557
0.370185
0.444533
0.426153
0.41462
0.413018
0.412106
0.411173
0.410237
0.409303
0.408373
0.407447
0.406526
0.405611
0.404702
0.403798
0.402901
0.402011
0.401128
0.400253
0.399386
0.398528
0.39768
0.396842
0.396014
0.395197
0.394392
0.393599
0.392817
0.392048
0.391292
0.390548
0.389818
0.3891
0.388396
0.387705
0.387028
0.386364
0.385713
0.385076
0.384452
0.383841
0.383243
0.382658
0.382086
0.381526
0.380978
0.380443
0.379919
0.379406
0.378905
0.378415
0.377934
0.377464
0.377004
0.376552
0.37611
0.375675
0.375249
0.37483
0.374418
0.374012
0.373612
0.373217
0.372827
0.372441
0.372059
0.371681
0.371304
0.37093
0.370557
0.370185
0.444533
0.426153
0.41462
0.413018
0.412106
0.411173
0.410237
0.409303
0.408373
0.407447
0.406526
0.405611
0.404702
0.403798
0.402901
0.402011
0.401128
0.400253
0.399386
0.398528
0.39768
0.396842
0.396014
0.395197
0.394392
0.393599
0.392817
0.392048
0.391292
0.390548
0.389818
0.3891
0.388396
0.387705
0.387028
0.386364
0.385713
0.385076
0.384452
0.383841
0.383243
0.382658
0.382086
0.381526
0.380978
0.380443
0.379919
0.379406
0.378905
0.378415
0.377934
0.377464
0.377004
0.376552
0.37611
0.375675
0.375249
0.37483
0.374418
0.374012
0.373612
0.373217
0.372827
0.372441
0.372059
0.371681
0.371304
0.37093
0.370557
0.370185
0.444533
0.426153
0.41462
0.413018
0.412106
0.411173
0.410237
0.409303
0.408373
0.407447
0.406526
0.405611
0.404702
0.403798
0.402901
0.402011
0.401128
0.400253
0.399386
0.398528
0.39768
0.396842
0.396014
0.395197
0.394392
0.393599
0.392817
0.392048
0.391292
0.390548
0.389818
0.3891
0.388396
0.387705
0.387028
0.386364
0.385713
0.385076
0.384452
0.383841
0.383243
0.382658
0.382086
0.381526
0.380978
0.380443
0.379919
0.379406
0.378905
0.378415
0.377934
0.377464
0.377004
0.376552
0.37611
0.375675
0.375249
0.37483
0.374418
0.374012
0.373612
0.373217
0.372827
0.372441
0.372059
0.371681
0.371304
0.37093
0.370557
0.370185
0.444533
0.426153
0.41462
0.413018
0.412106
0.411173
0.410237
0.409303
0.408373
0.407447
0.406526
0.405611
0.404702
0.403798
0.402901
0.402011
0.401128
0.400253
0.399386
0.398528
0.39768
0.396842
0.396014
0.395197
0.394392
0.393599
0.392817
0.392048
0.391292
0.390548
0.389818
0.3891
0.388396
0.387705
0.387028
0.386364
0.385713
0.385076
0.384452
0.383841
0.383243
0.382658
0.382086
0.381526
0.380978
0.380443
0.379919
0.379406
0.378905
0.378415
0.377934
0.377464
0.377004
0.376552
0.37611
0.375675
0.375249
0.37483
0.374418
0.374012
0.373612
0.373217
0.372827
0.372441
0.372059
0.371681
0.371304
0.37093
0.370557
0.370185
0.444533
0.426153
0.41462
0.413018
0.412106
0.411173
0.410237
0.409303
0.408373
0.407447
0.406526
0.405611
0.404702
0.403798
0.402901
0.402011
0.401128
0.400253
0.399386
0.398528
0.39768
0.396842
0.396014
0.395197
0.394392
0.393599
0.392817
0.392048
0.391292
0.390548
0.389818
0.3891
0.388396
0.387705
0.387028
0.386364
0.385713
0.385076
0.384452
0.383841
0.383243
0.382658
0.382086
0.381526
0.380978
0.380443
0.379919
0.379406
0.378905
0.378415
0.377934
0.377464
0.377004
0.376552
0.37611
0.375675
0.375249
0.37483
0.374418
0.374012
0.373612
0.373217
0.372827
0.372441
0.372059
0.371681
0.371304
0.37093
0.370557
0.370185
0.444533
0.426153
0.41462
0.413018
0.412106
0.411173
0.410237
0.409303
0.408373
0.407447
0.406526
0.405611
0.404702
0.403798
0.402901
0.402011
0.401128
0.400253
0.399386
0.398528
0.39768
0.396842
0.396014
0.395197
0.394392
0.393599
0.392817
0.392048
0.391292
0.390548
0.389818
0.3891
0.388396
0.387705
0.387028
0.386364
0.385713
0.385076
0.384452
0.383841
0.383243
0.382658
0.382086
0.381526
0.380978
0.380443
0.379919
0.379406
0.378905
0.378415
0.377934
0.377464
0.377004
0.376552
0.37611
0.375675
0.375249
0.37483
0.374418
0.374012
0.373612
0.373217
0.372827
0.372441
0.372059
0.371681
0.371304
0.37093
0.370557
0.370185
0.444533
0.426153
0.41462
0.413018
0.412106
0.411173
0.410237
0.409303
0.408373
0.407447
0.406526
0.405611
0.404702
0.403798
0.402901
0.402011
0.401128
0.400253
0.399386
0.398528
0.39768
0.396842
0.396014
0.395197
0.394392
0.393599
0.392817
0.392048
0.391292
0.390548
0.389818
0.3891
0.388396
0.387705
0.387028
0.386364
0.385713
0.385076
0.384452
0.383841
0.383243
0.382658
0.382086
0.381526
0.380978
0.380443
0.379919
0.379406
0.378905
0.378415
0.377934
0.377464
0.377004
0.376552
0.37611
0.375675
0.375249
0.37483
0.374418
0.374012
0.373612
0.373217
0.372827
0.372441
0.372059
0.371681
0.371304
0.37093
0.370557
0.370185
0.444533
0.426153
0.41462
0.413018
0.412106
0.411173
0.410237
0.409303
0.408373
0.407447
0.406526
0.405611
0.404702
0.403798
0.402901
0.402011
0.401128
0.400253
0.399386
0.398528
0.39768
0.396842
0.396014
0.395197
0.394392
0.393599
0.392817
0.392048
0.391292
0.390548
0.389818
0.3891
0.388396
0.387705
0.387028
0.386364
0.385713
0.385076
0.384452
0.383841
0.383243
0.382658
0.382086
0.381526
0.380978
0.380443
0.379919
0.379406
0.378905
0.378415
0.377934
0.377464
0.377004
0.376552
0.37611
0.375675
0.375249
0.37483
0.374418
0.374012
0.373612
0.373217
0.372827
0.372441
0.372059
0.371681
0.371304
0.37093
0.370557
0.370185
0.444533
0.426153
0.41462
0.413018
0.412106
0.411173
0.410237
0.409303
0.408373
0.407447
0.406526
0.405611
0.404702
0.403798
0.402901
0.402011
0.401128
0.400253
0.399386
0.398528
0.39768
0.396842
0.396014
0.395197
0.394392
0.393599
0.392817
0.392048
0.391292
0.390548
0.389818
0.3891
0.388396
0.387705
0.387028
0.386364
0.385713
0.385076
0.384452
0.383841
0.383243
0.382658
0.382086
0.381526
0.380978
0.380443
0.379919
0.379406
0.378905
0.378415
0.377934
0.377464
0.377004
0.376552
0.37611
0.375675
0.375249
0.37483
0.374418
0.374012
0.373612
0.373217
0.372827
0.372441
0.372059
0.371681
0.371304
0.37093
0.370557
0.370185
0.444533
0.426153
0.41462
0.413018
0.412106
0.411173
0.410237
0.409303
0.408373
0.407447
0.406526
0.405611
0.404702
0.403798
0.402901
0.402011
0.401128
0.400253
0.399386
0.398528
0.39768
0.396842
0.396014
0.395197
0.394392
0.393599
0.392817
0.392048
0.391292
0.390548
0.389818
0.3891
0.388396
0.387705
0.387028
0.386364
0.385713
0.385076
0.384452
0.383841
0.383243
0.382658
0.382086
0.381526
0.380978
0.380443
0.379919
0.379406
0.378905
0.378415
0.377934
0.377464
0.377004
0.376552
0.37611
0.375675
0.375249
0.37483
0.374418
0.374012
0.373612
0.373217
0.372827
0.372441
0.372059
0.371681
0.371304
0.37093
0.370557
0.370185
0.444533
0.426153
0.41462
0.413018
0.412106
0.411173
0.410237
0.409303
0.408373
0.407447
0.406526
0.405611
0.404702
0.403798
0.402901
0.402011
0.401128
0.400253
0.399386
0.398528
0.39768
0.396842
0.396014
0.395197
0.394392
0.393599
0.392817
0.392048
0.391292
0.390548
0.389818
0.3891
0.388396
0.387705
0.387028
0.386364
0.385713
0.385076
0.384452
0.383841
0.383243
0.382658
0.382086
0.381526
0.380978
0.380443
0.379919
0.379406
0.378905
0.378415
0.377934
0.377464
0.377004
0.376552
0.37611
0.375675
0.375249
0.37483
0.374418
0.374012
0.373612
0.373217
0.372827
0.372441
0.372059
0.371681
0.371304
0.37093
0.370557
0.370185
0.444533
0.426153
0.41462
0.413018
0.412106
0.411173
0.410237
0.409303
0.408373
0.407447
0.406526
0.405611
0.404702
0.403798
0.402901
0.402011
0.401128
0.400253
0.399386
0.398528
0.39768
0.396842
0.396014
0.395197
0.394392
0.393599
0.392817
0.392048
0.391292
0.390548
0.389818
0.3891
0.388396
0.387705
0.387028
0.386364
0.385713
0.385076
0.384452
0.383841
0.383243
0.382658
0.382086
0.381526
0.380978
0.380443
0.379919
0.379406
0.378905
0.378415
0.377934
0.377464
0.377004
0.376552
0.37611
0.375675
0.375249
0.37483
0.374418
0.374012
0.373612
0.373217
0.372827
0.372441
0.372059
0.371681
0.371304
0.37093
0.370557
0.370185
0.444533
0.426153
0.41462
0.413018
0.412106
0.411173
0.410237
0.409303
0.408373
0.407447
0.406526
0.405611
0.404702
0.403798
0.402901
0.402011
0.401128
0.400253
0.399386
0.398528
0.39768
0.396842
0.396014
0.395197
0.394392
0.393599
0.392817
0.392048
0.391292
0.390548
0.389818
0.3891
0.388396
0.387705
0.387028
0.386364
0.385713
0.385076
0.384452
0.383841
0.383243
0.382658
0.382086
0.381526
0.380978
0.380443
0.379919
0.379406
0.378905
0.378415
0.377934
0.377464
0.377004
0.376552
0.37611
0.375675
0.375249
0.37483
0.374418
0.374012
0.373612
0.373217
0.372827
0.372441
0.372059
0.371681
0.371304
0.37093
0.370557
0.370185
0.444533
0.426153
0.41462
0.413018
0.412106
0.411173
0.410237
0.409303
0.408373
0.407447
0.406526