/*--------------------------------*- C++ -*----------------------------------*\
  =========                 |
  \\      /  F ield         | OpenFOAM: The Open Source CFD Toolbox
   \\    /   O peration     | Website:  https://openfoam.org
    \\  /    A nd           | Version:  13
     \\/     M anipulation  |
\*---------------------------------------------------------------------------*/
FoamFile
{
    format      ascii;
    class       volScalarField;
    location    "4";
    object      difft;
}
// * * * * * * * * * * * * * * * * * * * * * * * * * * * * * * * * * * * * * //

dimensions      [0 2 -1 0 0 0 0];

internalField   nonuniform List<scalar> 
78750
(
1.31225e-09
2.24623e-07
3.6449e-06
6.14291e-06
7.55884e-06
9.14765e-06
1.08422e-05
1.14668e-05
1.01284e-05
8.75756e-06
7.47011e-06
6.32093e-06
5.34606e-06
4.54132e-06
3.89125e-06
3.38827e-06
3.03276e-06
2.79113e-06
2.62556e-06
2.50863e-06
2.43408e-06
2.39299e-06
2.37736e-06
2.38763e-06
2.38855e-06
2.4078e-06
2.40872e-06
2.39316e-06
2.37558e-06
2.32785e-06
2.35194e-06
2.12194e-06
1.81099e-06
3.22915e-07
2.23741e-09
1.60258e-09
4.16141e-07
1.13684e-05
1.05965e-05
1.11419e-05
1.52524e-05
3.16493e-05
7.66047e-05
7.5153e-05
7.42052e-05
7.26837e-05
6.55268e-05
6.16567e-05
5.94804e-05
5.83168e-05
5.82994e-05
5.92002e-05
6.01151e-05
6.0535e-05
6.07972e-05
6.13417e-05
6.21301e-05
6.28399e-05
6.45965e-05
7.00691e-05
7.72729e-05
7.6295e-05
7.57378e-05
5.24663e-05
2.39487e-05
1.2759e-05
7.06781e-06
5.42012e-06
7.91604e-07
4.22936e-09
1.98431e-09
5.10287e-07
1.10804e-05
9.78388e-06
1.08047e-05
1.35561e-05
2.37859e-05
5.69625e-05
7.77918e-05
7.69317e-05
7.65359e-05
7.65511e-05
7.68533e-05
7.73127e-05
7.77788e-05
7.81323e-05
6.67316e-05
6.68228e-05
6.70028e-05
6.71909e-05
6.73437e-05
6.74456e-05
6.74384e-05
6.73161e-05
6.71321e-05
6.69045e-05
6.66827e-05
6.65149e-05
3.06045e-05
1.62023e-05
8.07862e-06
4.97802e-06
3.97468e-06
8.57906e-07
4.03981e-09
2.00562e-09
5.1715e-07
1.14298e-05
9.90569e-06
1.15619e-05
1.46385e-05
2.21547e-05
4.32549e-05
7.96572e-05
7.84946e-05
7.80194e-05
7.80763e-05
6.68549e-05
6.71566e-05
6.76187e-05
6.81337e-05
6.86259e-05
6.90467e-05
6.93638e-05
6.95524e-05
6.96312e-05
6.95522e-05
6.92526e-05
6.88396e-05
6.83571e-05
6.78802e-05
6.74916e-05
5.28018e-05
2.41645e-05
1.29489e-05
6.76511e-06
4.62595e-06
4.48649e-06
7.91974e-07
3.50279e-09
2.04485e-09
5.25972e-07
1.09817e-05
9.41698e-06
9.78927e-06
1.2352e-05
2.02894e-05
4.30176e-05
7.88865e-05
7.82849e-05
7.83961e-05
6.70439e-05
6.74174e-05
6.79528e-05
6.85404e-05
6.91027e-05
6.95851e-05
6.99504e-05
7.0177e-05
7.02551e-05
7.01543e-05
6.98601e-05
6.94448e-05
6.89461e-05
6.84267e-05
6.79943e-05
6.77578e-05
4.94186e-05
2.05972e-05
1.11337e-05
6.04573e-06
4.19797e-06
4.41338e-06
7.51622e-07
3.19061e-09
2.10153e-09
5.42452e-07
1.1408e-05
9.87394e-06
9.82687e-06
1.22236e-05
1.92002e-05
3.83548e-05
7.87857e-05
7.86242e-05
6.70173e-05
6.72565e-05
6.77125e-05
6.82763e-05
6.88636e-05
6.94071e-05
6.98562e-05
7.01768e-05
7.03507e-05
7.03321e-05
7.01045e-05
6.97335e-05
6.92477e-05
6.86925e-05
6.81338e-05
6.76606e-05
6.7371e-05
4.31172e-05
1.80263e-05
1.0048e-05
6.14561e-06
4.41638e-06
4.56146e-06
7.15212e-07
2.93772e-09
2.15037e-09
5.54282e-07
1.15823e-05
1.06873e-05
1.00933e-05
1.24206e-05
1.90466e-05
3.70592e-05
6.66175e-05
6.67252e-05
6.69515e-05
6.73503e-05
6.78778e-05
6.8467e-05
6.90508e-05
6.95723e-05
6.99846e-05
7.02567e-05
7.0374e-05
7.02883e-05
7.00098e-05
6.95958e-05
6.90835e-05
6.85288e-05
6.80103e-05
6.7616e-05
6.73875e-05
4.44799e-05
1.69408e-05
9.01026e-06
5.61405e-06
3.96473e-06
4.30084e-06
6.73969e-07
2.7351e-09
2.20333e-09
5.6932e-07
1.16573e-05
1.03886e-05
1.00304e-05
1.25372e-05
1.90191e-05
3.58945e-05
6.70157e-05
6.69786e-05
6.71354e-05
6.75126e-05
6.8035e-05
6.86175e-05
6.91856e-05
6.96809e-05
7.00573e-05
7.02849e-05
7.03482e-05
7.02136e-05
6.99029e-05
6.94571e-05
6.89173e-05
6.83523e-05
6.78594e-05
6.75654e-05
6.75709e-05
3.99326e-05
1.57192e-05
8.0502e-06
5.07372e-06
4.30359e-06
4.98187e-06
6.33332e-07
2.55718e-09
2.22086e-09
5.73552e-07
1.1733e-05
1.06028e-05
1.03166e-05
1.28609e-05
1.91194e-05
3.53735e-05
6.74198e-05
6.73204e-05
6.73366e-05
6.76462e-05
6.81465e-05
6.87218e-05
6.92816e-05
6.97615e-05
7.01167e-05
7.03171e-05
7.0344e-05
7.0193e-05
6.98681e-05
6.94035e-05
6.88456e-05
6.82625e-05
6.77368e-05
6.7353e-05
6.71378e-05
3.60729e-05
1.4553e-05
7.74527e-06
5.11594e-06
4.19518e-06
4.13512e-06
6.17025e-07
2.55778e-09
2.26072e-09
5.83284e-07
1.174e-05
9.83914e-06
1.03941e-05
1.26515e-05
1.87852e-05
3.45521e-05
6.74805e-05
6.73833e-05
6.74336e-05
6.77621e-05
6.82673e-05
6.88378e-05
6.93862e-05
6.98498e-05
7.01851e-05
7.03644e-05
7.03751e-05
7.02134e-05
6.98795e-05
6.93934e-05
6.88219e-05
6.82447e-05
6.77625e-05
6.74899e-05
6.74297e-05
3.53842e-05
1.42465e-05
7.33075e-06
4.80592e-06
3.91536e-06
4.28591e-06
6.05529e-07
2.50399e-09
2.28052e-09
5.90081e-07
1.18096e-05
1.0245e-05
1.13313e-05
1.36324e-05
1.93066e-05
3.45568e-05
6.76428e-05
6.74098e-05
6.74668e-05
6.78201e-05
6.83439e-05
6.89235e-05
6.94728e-05
6.9931e-05
7.02565e-05
7.04239e-05
7.04178e-05
7.02439e-05
6.98925e-05
6.93927e-05
6.88304e-05
6.82888e-05
6.79247e-05
6.80873e-05
8.15364e-05
3.66646e-05
1.61135e-05
9.11364e-06
5.16345e-06
4.14395e-06
4.55783e-06
6.11885e-07
2.48313e-09
2.30471e-09
5.93776e-07
1.19345e-05
1.05054e-05
1.20046e-05
1.43557e-05
1.89463e-05
3.37202e-05
6.73888e-05
6.72374e-05
6.74128e-05
6.78492e-05
6.84234e-05
6.90315e-05
6.95951e-05
7.00637e-05
7.03901e-05
7.05418e-05
7.05072e-05
7.0294e-05
6.99129e-05
6.9405e-05
6.88342e-05
6.82825e-05
6.7921e-05
6.80977e-05
8.16052e-05
3.5719e-05
1.56207e-05
8.81986e-06
5.21385e-06
4.2486e-06
4.54564e-06
6.08125e-07
2.49664e-09
2.29091e-09
5.90912e-07
1.19413e-05
1.10437e-05
1.14853e-05
1.35802e-05
1.85798e-05
3.41895e-05
6.79054e-05
6.77934e-05
6.7672e-05
6.80232e-05
6.85707e-05
6.91633e-05
6.9708e-05
7.01483e-05
7.04377e-05
7.05569e-05
7.0505e-05
7.02854e-05
6.99109e-05
6.94044e-05
6.88243e-05
6.82652e-05
6.78525e-05
6.77198e-05
6.78824e-05
3.38523e-05
1.41334e-05
7.83124e-06
5.11381e-06
4.22801e-06
4.62429e-06
6.0551e-07
2.47212e-09
2.28178e-09
5.85114e-07
1.16325e-05
9.36359e-06
9.57732e-06
1.19267e-05
1.81567e-05
3.29334e-05
6.60173e-05
6.72999e-05
6.75565e-05
6.80208e-05
6.85977e-05
6.91947e-05
6.97366e-05
7.01704e-05
7.04507e-05
7.05705e-05
7.05152e-05
7.0288e-05
6.98945e-05
6.93687e-05
6.87526e-05
6.81126e-05
6.75279e-05
6.70529e-05
6.67015e-05
3.05878e-05
1.23909e-05
7.02542e-06
4.95786e-06
4.12326e-06
4.31654e-06
5.97291e-07
2.45166e-09
2.28568e-09
5.87301e-07
1.17006e-05
9.82011e-06
9.70895e-06
1.20514e-05
1.91262e-05
3.39631e-05
6.71099e-05
6.78313e-05
6.76879e-05
6.80383e-05
6.85842e-05
6.9172e-05
6.9712e-05
7.01459e-05
7.04324e-05
7.05496e-05
7.04858e-05
7.0244e-05
6.98454e-05
6.9323e-05
6.87242e-05
6.81152e-05
6.75559e-05
6.70764e-05
6.66542e-05
3.04403e-05
1.21945e-05
6.72474e-06
4.81756e-06
4.08082e-06
4.5362e-06
6.01568e-07
2.46706e-09
2.29569e-09
5.90543e-07
1.20253e-05
1.0671e-05
9.86952e-06
1.19379e-05
1.74791e-05
3.19911e-05
6.5112e-05
6.7133e-05
6.7543e-05
6.80712e-05
6.86683e-05
6.92722e-05
6.98237e-05
7.0267e-05
7.05547e-05
7.06641e-05
7.05891e-05
7.03344e-05
6.99216e-05
6.93839e-05
6.87719e-05
6.81563e-05
6.76154e-05
6.72339e-05
6.70404e-05
3.06791e-05
1.25505e-05
6.7907e-06
4.96546e-06
4.7897e-06
4.58469e-06
6.04125e-07
2.43734e-09
2.30183e-09
5.91607e-07
1.18586e-05
1.03948e-05
9.88356e-06
1.21721e-05
1.79572e-05
3.25788e-05
6.55015e-05
6.73377e-05
6.76747e-05
6.81517e-05
6.87275e-05
6.93203e-05
6.98576e-05
7.02994e-05
7.05811e-05
7.06838e-05
7.06058e-05
7.03447e-05
6.99246e-05
6.93842e-05
6.87851e-05
6.822e-05
6.78002e-05
6.76289e-05
6.7632e-05
3.07228e-05
1.23456e-05
6.47331e-06
4.72934e-06
4.82361e-06
4.92345e-06
6.08253e-07
2.45011e-09
2.29875e-09
5.91508e-07
1.17611e-05
1.04925e-05
9.95226e-06
1.20551e-05
1.78769e-05
3.22002e-05
6.47498e-05
6.7186e-05
6.75923e-05
6.81374e-05
6.87502e-05
6.93551e-05
6.9888e-05
7.03025e-05
7.05426e-05
7.06271e-05
7.05354e-05
7.02641e-05
6.98454e-05
6.93174e-05
6.87504e-05
6.82305e-05
6.78872e-05
6.78669e-05
6.81664e-05
3.16513e-05
1.34825e-05
7.58571e-06
5.15921e-06
4.63742e-06
5.08026e-06
6.26856e-07
2.49396e-09
2.30859e-09
5.94472e-07
1.18102e-05
9.65001e-06
1.01287e-05
1.39145e-05
1.98202e-05
3.41335e-05
6.60261e-05
6.76366e-05
6.77565e-05
6.82079e-05
6.87858e-05
6.93759e-05
6.99017e-05
7.03096e-05
7.0561e-05
7.06476e-05
7.05536e-05
7.02873e-05
6.98697e-05
6.93392e-05
6.8758e-05
6.8222e-05
6.78702e-05
6.78751e-05
6.82821e-05
3.22264e-05
1.35039e-05
7.7999e-06
5.49045e-06
4.36476e-06
4.23957e-06
6.07549e-07
2.47293e-09
2.3211e-09
5.98841e-07
1.18656e-05
9.90537e-06
1.02405e-05
1.40296e-05
1.99356e-05
3.4164e-05
6.65946e-05
6.80659e-05
6.78627e-05
6.81963e-05
6.87321e-05
6.93072e-05
6.98287e-05
7.02381e-05
7.04962e-05
7.05812e-05
7.04853e-05
7.02151e-05
6.97927e-05
6.92571e-05
6.86711e-05
6.81373e-05
6.78394e-05
6.81396e-05
7.8582e-05
3.14401e-05
1.38628e-05
7.195e-06
5.18433e-06
4.29433e-06
4.32733e-06
5.91588e-07
2.45048e-09
2.33221e-09
5.99858e-07
1.1777e-05
9.67578e-06
9.86746e-06
1.20893e-05
1.76936e-05
3.18923e-05
6.42967e-05
6.7197e-05
6.75957e-05
6.81275e-05
6.87226e-05
6.93143e-05
6.98446e-05
7.02646e-05
7.05444e-05
7.065e-05
7.05663e-05
7.03052e-05
6.98916e-05
6.93658e-05
6.87903e-05
6.82582e-05
6.79028e-05
6.78694e-05
6.81684e-05
3.10016e-05
1.32491e-05
7.62753e-06
5.31741e-06
4.31108e-06
4.93144e-06
6.1657e-07
2.48264e-09
2.33159e-09
5.99444e-07
1.20253e-05
9.77212e-06
1.00375e-05
1.23712e-05
1.80746e-05
3.23567e-05
6.49212e-05
6.74771e-05
6.77504e-05
6.82119e-05
6.87737e-05
6.93528e-05
6.98743e-05
7.02826e-05
7.05674e-05
7.06706e-05
7.05814e-05
7.03148e-05
6.98959e-05
6.93641e-05
6.87768e-05
6.82109e-05
6.77583e-05
6.74911e-05
6.73827e-05
3.04008e-05
1.23576e-05
7.24311e-06
5.26962e-06
4.32338e-06
4.71301e-06
6.15912e-07
2.47143e-09
2.34978e-09
6.04493e-07
1.18122e-05
1.00131e-05
1.03064e-05
1.26712e-05
1.8541e-05
3.30081e-05
6.54683e-05
6.76522e-05
6.78614e-05
6.83061e-05
6.88665e-05
6.94354e-05
6.99345e-05
7.03163e-05
7.05566e-05
7.0627e-05
7.05245e-05
7.02574e-05
6.98449e-05
6.93198e-05
6.87315e-05
6.81459e-05
6.76317e-05
6.72246e-05
6.69082e-05
2.88394e-05
1.16276e-05
6.82795e-06
5.26767e-06
4.42546e-06
4.88026e-06
6.14074e-07
2.46565e-09
2.35935e-09
6.05707e-07
1.19508e-05
1.10349e-05
1.12494e-05
1.22026e-05
1.78555e-05
3.1902e-05
6.40426e-05
6.73314e-05
6.77226e-05
6.82646e-05
6.88686e-05
6.94595e-05
6.99609e-05
7.03586e-05
7.06234e-05
7.07031e-05
7.05977e-05
7.03161e-05
6.98889e-05
6.93377e-05
6.87197e-05
6.81013e-05
6.75301e-05
6.70278e-05
6.65763e-05
2.80557e-05
1.1359e-05
6.61933e-06
4.87743e-06
4.25148e-06
4.88704e-06
6.11456e-07
2.43847e-09
2.32972e-09
5.97301e-07
1.185e-05
1.01843e-05
9.66688e-06
1.19172e-05
1.79435e-05
3.1886e-05
6.37556e-05
6.73004e-05
6.76908e-05
6.82308e-05
6.88365e-05
6.94323e-05
6.99534e-05
7.03732e-05
7.06337e-05
7.0709e-05
7.06016e-05
7.03207e-05
6.9888e-05
6.93388e-05
6.87291e-05
6.81161e-05
6.75603e-05
6.7092e-05
6.66795e-05
2.86605e-05
1.12575e-05
6.27249e-06
4.68593e-06
4.2073e-06
5.06921e-06
6.17675e-07
2.45068e-09
2.33194e-09
5.96462e-07
1.17908e-05
9.39986e-06
9.53915e-06
1.18543e-05
1.88956e-05
3.3361e-05
6.50471e-05
6.77572e-05
6.7913e-05
6.83644e-05
6.89293e-05
6.94989e-05
7.00004e-05
7.03862e-05
7.06143e-05
7.06677e-05
7.05352e-05
7.02265e-05
6.97764e-05
6.92251e-05
6.86313e-05
6.8096e-05
6.77999e-05
6.81083e-05
7.87647e-05
3.13111e-05
1.35709e-05
6.71282e-06
4.86066e-06
4.30946e-06
4.80243e-06
6.21446e-07
2.4665e-09
2.32252e-09
5.96941e-07
1.18638e-05
9.8569e-06
9.71364e-06
1.17173e-05
1.73719e-05
3.16556e-05
6.40084e-05
6.74359e-05
6.78436e-05
6.83627e-05
6.89406e-05
6.95094e-05
7.00073e-05
7.03845e-05
7.06019e-05
7.06479e-05
7.05228e-05
7.02362e-05
6.97919e-05
6.92455e-05
6.86527e-05
6.81098e-05
6.77964e-05
6.80741e-05
7.73445e-05
3.0685e-05
1.34349e-05
6.65442e-06
4.8018e-06
4.2638e-06
4.84617e-06
6.11747e-07
2.43541e-09
2.32317e-09
5.95739e-07
1.1762e-05
9.53137e-06
9.65549e-06
1.18406e-05
1.72949e-05
3.15488e-05
6.35389e-05
6.73672e-05
6.77899e-05
6.83114e-05
6.8888e-05
6.94557e-05
6.9956e-05
7.03433e-05
7.05877e-05
7.06629e-05
7.05599e-05
7.02812e-05
6.98523e-05
6.93134e-05
6.87278e-05
6.81944e-05
6.7922e-05
6.83394e-05
7.82643e-05
3.17463e-05
1.46216e-05
8.93682e-06
6.15516e-06
4.42926e-06
5.1094e-06
6.21283e-07
2.47318e-09
2.33297e-09
6.00231e-07
1.18101e-05
9.98629e-06
9.8166e-06
1.17325e-05
1.73812e-05
3.13489e-05
6.31744e-05
6.74371e-05
6.78386e-05
6.83484e-05
6.89155e-05
6.94739e-05
6.99648e-05
7.03428e-05
7.0578e-05
7.06424e-05
7.05353e-05
7.02676e-05
6.9851e-05
6.93114e-05
6.87067e-05
6.81098e-05
6.76326e-05
6.7368e-05
6.73762e-05
2.96197e-05
1.21031e-05
7.65605e-06
5.7712e-06
4.48136e-06
4.82781e-06
6.1298e-07
2.45491e-09
2.3409e-09
6.01111e-07
1.20083e-05
9.99161e-06
9.74986e-06
1.2011e-05
1.75278e-05
3.15281e-05
6.34973e-05
6.75774e-05
6.79482e-05
6.84428e-05
6.89984e-05
6.95523e-05
7.00378e-05
7.04046e-05
7.06267e-05
7.06846e-05
7.05684e-05
7.02861e-05
6.9853e-05
6.93143e-05
6.87287e-05
6.81736e-05
6.77383e-05
6.75122e-05
6.74873e-05
2.98729e-05
1.20559e-05
6.97586e-06
5.35841e-06
4.5223e-06
4.99642e-06
6.02697e-07
2.40385e-09
2.34053e-09
6.02392e-07
1.20281e-05
1.03717e-05
1.00063e-05
1.22471e-05
1.7742e-05
3.16504e-05
6.34577e-05
6.76673e-05
6.80056e-05
6.84977e-05
6.90752e-05
6.96269e-05
7.01123e-05
7.0479e-05
7.06961e-05
7.07409e-05
7.05996e-05
7.0292e-05
6.98516e-05
6.92984e-05
6.86858e-05
6.80973e-05
6.75898e-05
6.72014e-05
6.69168e-05
2.84491e-05
1.16229e-05
6.92665e-06
5.23646e-06
4.43883e-06
4.74319e-06
6.15021e-07
2.46647e-09
2.36424e-09
6.07198e-07
1.19559e-05
9.44715e-06
9.90167e-06
1.23336e-05
1.78286e-05
3.14191e-05
6.30472e-05
6.76716e-05
6.8011e-05
6.85038e-05
6.90739e-05
6.96365e-05
7.01254e-05
7.04931e-05
7.07077e-05
7.07494e-05
7.06128e-05
7.03132e-05
6.98647e-05
6.92929e-05
6.86626e-05
6.8045e-05
6.75082e-05
6.71206e-05
6.68529e-05
2.82462e-05
1.1344e-05
6.44589e-06
4.97312e-06
4.27638e-06
4.34748e-06
5.87482e-07
2.4053e-09
2.3804e-09
6.09543e-07
1.19748e-05
9.83753e-06
1.01294e-05
1.2342e-05
1.75015e-05
3.128e-05
6.27421e-05
6.76523e-05
6.79813e-05
6.84507e-05
6.90025e-05
6.95532e-05
7.00359e-05
7.04018e-05
7.06185e-05
7.06669e-05
7.05446e-05
7.02681e-05
6.98432e-05
6.92997e-05
6.87252e-05
6.82247e-05
6.79164e-05
6.79273e-05
6.82532e-05
3.02606e-05
1.24864e-05
7.10427e-06
4.90514e-06
4.36245e-06
4.69967e-06
5.88824e-07
2.38678e-09
2.373e-09
6.09276e-07
1.21947e-05
9.9537e-06
9.6591e-06
1.19662e-05
1.75335e-05
3.11852e-05
6.26645e-05
6.75922e-05
6.7964e-05
6.84729e-05
6.90386e-05
6.95937e-05
7.00763e-05
7.04352e-05
7.06404e-05
7.06795e-05
7.05518e-05
7.02718e-05
6.98452e-05
6.93e-05
6.87048e-05
6.81487e-05
6.7725e-05
6.75042e-05
6.74543e-05
2.91834e-05
1.22085e-05
7.21026e-06
5.26668e-06
4.54947e-06
4.94951e-06
6.18098e-07
2.49853e-09
2.36384e-09
6.0752e-07
1.22696e-05
1.07681e-05
1.00108e-05
1.26382e-05
1.80692e-05
3.14151e-05
6.25836e-05
6.77385e-05
6.80549e-05
6.85454e-05
6.91114e-05
6.96608e-05
7.01379e-05
7.04943e-05
7.07076e-05
7.07386e-05
7.06022e-05
7.03e-05
6.98488e-05
6.92808e-05
6.86828e-05
6.81161e-05
6.76598e-05
6.73761e-05
6.72308e-05
2.93914e-05
1.17448e-05
6.96851e-06
5.22081e-06
4.39111e-06
4.31918e-06
5.97934e-07
2.44921e-09
2.36059e-09
6.05139e-07
1.19447e-05
1.0434e-05
9.9151e-06
1.24205e-05
1.82302e-05
3.13144e-05
6.23056e-05
6.76739e-05
6.80333e-05
6.85418e-05
6.9115e-05
6.96715e-05
7.01498e-05
7.05053e-05
7.07083e-05
7.07403e-05
7.0599e-05
7.02933e-05
6.98468e-05
6.92988e-05
6.87109e-05
6.81715e-05
6.78029e-05
6.77311e-05
6.79147e-05
3.01827e-05
1.21959e-05
6.70875e-06
5.05754e-06
4.50327e-06
4.39839e-06
5.84493e-07
2.39724e-09
2.36e-09
6.04162e-07
1.19845e-05
9.35071e-06
9.98485e-06
1.3894e-05
1.9244e-05
3.25383e-05
6.30006e-05
6.79859e-05
6.80927e-05
6.85283e-05
6.90832e-05
6.9635e-05
7.01102e-05
7.04607e-05
7.0654e-05
7.06797e-05
7.05384e-05
7.02391e-05
6.98055e-05
6.92698e-05
6.86923e-05
6.81743e-05
6.78486e-05
6.78697e-05
6.82349e-05
3.05967e-05
1.24802e-05
7.07824e-06
5.06841e-06
4.54265e-06
4.94494e-06
6.10145e-07
2.44908e-09
2.34835e-09
6.01271e-07
1.19631e-05
9.68825e-06
9.85794e-06
1.32608e-05
1.88383e-05
3.25853e-05
6.30812e-05
6.80159e-05
6.81845e-05
6.86404e-05
6.91968e-05
6.97469e-05
7.0219e-05
7.05681e-05
7.07727e-05
7.07984e-05
7.06477e-05
7.03355e-05
6.98829e-05
6.93291e-05
6.87238e-05
6.8137e-05
6.76772e-05
6.74438e-05
6.74684e-05
2.965e-05
1.19416e-05
6.52043e-06
4.89338e-06
4.15742e-06
4.48166e-06
6.00827e-07
2.44342e-09
2.37263e-09
6.08817e-07
1.20587e-05
9.88989e-06
9.84851e-06
1.32418e-05
1.87981e-05
3.22556e-05
6.24111e-05
6.80129e-05
6.81916e-05
6.86505e-05
6.92085e-05
6.97568e-05
7.02276e-05
7.05753e-05
7.0771e-05
7.0796e-05
7.06478e-05
7.03379e-05
6.98884e-05
6.93371e-05
6.87412e-05
6.82054e-05
6.79014e-05
6.81461e-05
6.96808e-05
3.13542e-05
1.43433e-05
8.51558e-06
5.00924e-06
4.39271e-06
4.77012e-06
5.981e-07
2.43565e-09
2.37065e-09
6.09893e-07
1.22639e-05
1.05759e-05
9.81721e-06
1.1555e-05
1.67319e-05
3.01444e-05
6.11039e-05
6.75613e-05
6.80209e-05
6.85689e-05
6.91491e-05
6.96896e-05
7.01487e-05
7.04905e-05
7.06826e-05
7.07054e-05
7.05561e-05
7.02467e-05
6.9804e-05
6.92675e-05
6.8704e-05
6.81966e-05
6.78612e-05
6.78467e-05
6.8149e-05
3.04298e-05
1.27553e-05
7.39662e-06
5.11352e-06
4.25138e-06
4.2025e-06
5.86684e-07
2.37952e-09
2.3915e-09
6.13346e-07
1.19501e-05
9.6584e-06
1.03113e-05
1.25842e-05
1.77676e-05
3.08793e-05
6.15227e-05
6.78733e-05
6.81758e-05
6.86355e-05
6.91799e-05
6.97284e-05
7.02009e-05
7.05453e-05
7.07365e-05
7.07577e-05
7.06068e-05
7.02949e-05
6.9842e-05
6.92853e-05
6.86702e-05
6.80611e-05
6.75321e-05
6.7143e-05
6.69023e-05
2.85615e-05
1.12974e-05
6.67283e-06
4.79816e-06
4.11242e-06
4.30439e-06
5.74805e-07
2.36841e-09
2.40568e-09
6.18843e-07
1.21146e-05
1.00422e-05
1.06785e-05
1.28066e-05
1.78414e-05
3.09311e-05
6.15472e-05
6.79395e-05
6.81984e-05
6.8649e-05
6.91913e-05
6.97255e-05
7.01868e-05
7.05284e-05
7.07196e-05
7.07411e-05
7.059e-05
7.02782e-05
6.9825e-05
6.92622e-05
6.86516e-05
6.80673e-05
6.75748e-05
6.72095e-05
6.69305e-05
2.76218e-05
1.11421e-05
6.41398e-06
4.96998e-06
4.39416e-06
4.78084e-06
5.94623e-07
2.39683e-09
2.3791e-09
6.11602e-07
1.19656e-05
9.96162e-06
1.05814e-05
1.3016e-05
1.82882e-05
3.13276e-05
6.16112e-05
6.79766e-05
6.81937e-05
6.85985e-05
6.91058e-05
6.96245e-05
7.0079e-05
7.04191e-05
7.06133e-05
7.06423e-05
7.05032e-05
7.02054e-05
6.97743e-05
6.92235e-05
6.86152e-05
6.80144e-05
6.74945e-05
6.71059e-05
6.68666e-05
2.83499e-05
1.1234e-05
6.48516e-06
4.93139e-06
4.42071e-06
5.04374e-06
6.2613e-07
2.51135e-09
2.37275e-09
6.07015e-07
1.19044e-05
9.55432e-06
9.74573e-06
1.32118e-05
1.87442e-05
3.19709e-05
6.18228e-05
6.80372e-05
6.81803e-05
6.86171e-05
6.91579e-05
6.96899e-05
7.01438e-05
7.04778e-05
7.06709e-05
7.06978e-05
7.05477e-05
7.02344e-05
6.97968e-05
6.92649e-05
6.86833e-05
6.81518e-05
6.78474e-05
6.81545e-05
7.98238e-05
3.15524e-05
1.33892e-05
6.6661e-06
4.89365e-06
4.27531e-06
4.21613e-06
5.93556e-07
2.43598e-09
2.35769e-09
6.04717e-07
1.21324e-05
9.59943e-06
9.37432e-06
1.12393e-05
1.64195e-05
2.97464e-05
6.03665e-05
6.75069e-05
6.80371e-05
6.86116e-05
6.92011e-05
6.9749e-05
7.0207e-05
7.05427e-05
7.07263e-05
7.07402e-05
7.05795e-05
7.02697e-05
6.98193e-05
6.92722e-05
6.86937e-05
6.81915e-05
6.79693e-05
6.84394e-05
7.60702e-05
3.04327e-05
1.39875e-05
8.29072e-06
5.24974e-06
4.51412e-06
4.46631e-06
5.8933e-07
2.40919e-09
2.37043e-09
6.09398e-07
1.21191e-05
1.05307e-05
9.73666e-06
1.157e-05
1.66315e-05
2.98382e-05
6.03482e-05
6.75966e-05
6.80859e-05
6.86414e-05
6.92214e-05
6.97663e-05
7.02243e-05
7.05566e-05
7.07349e-05
7.07445e-05
7.05839e-05
7.0268e-05
6.98193e-05
6.92768e-05
6.86972e-05
6.81561e-05
6.77415e-05
6.75322e-05
6.75127e-05
2.93018e-05
1.20653e-05
7.14014e-06
5.29413e-06
4.39882e-06
4.78291e-06
6.11881e-07
2.46907e-09
2.38366e-09
6.09603e-07
1.19721e-05
9.35399e-06
9.56397e-06
1.18209e-05
1.72079e-05
3.03097e-05
6.06129e-05
6.77633e-05
6.81461e-05
6.86364e-05
6.91844e-05
6.97295e-05
7.0191e-05
7.05158e-05
7.06872e-05
7.06926e-05
7.05277e-05
7.02104e-05
6.97714e-05
6.92404e-05
6.86591e-05
6.80995e-05
6.76372e-05
6.73264e-05
6.71408e-05
2.91449e-05
1.15812e-05
6.86419e-06
5.01408e-06
4.42308e-06
4.9211e-06
6.18517e-07
2.49017e-09
2.37826e-09
6.08173e-07
1.20847e-05
9.57475e-06
9.92275e-06
1.27122e-05
1.77864e-05
3.06415e-05
6.09248e-05
6.78603e-05
6.82152e-05
6.87019e-05
6.92444e-05
6.97716e-05
7.02347e-05
7.05686e-05
7.0749e-05
7.07605e-05
7.06054e-05
7.02916e-05
6.9826e-05
6.92556e-05
6.86309e-05
6.80232e-05
6.74986e-05
6.71276e-05
6.69281e-05
2.73037e-05
1.08059e-05
6.33391e-06
5.28652e-06
4.72586e-06
5.01812e-06
6.18098e-07
2.48911e-09
2.38475e-09
6.09809e-07
1.19095e-05
9.654e-06
9.91218e-06
1.34051e-05
1.89615e-05
3.22798e-05
6.17308e-05
6.81742e-05
6.82955e-05
6.87335e-05
6.92769e-05
6.9795e-05
7.02362e-05
7.05713e-05
7.0757e-05
7.07688e-05
7.06078e-05
7.02886e-05
6.98337e-05
6.92821e-05
6.86846e-05
6.81385e-05
6.78054e-05
6.79695e-05
6.93011e-05
2.98443e-05
1.33493e-05
6.71691e-06
4.80137e-06
4.38048e-06
4.91875e-06
6.12723e-07
2.44236e-09
2.40113e-09
6.14462e-07
1.20526e-05
9.76198e-06
9.50257e-06
1.15011e-05
1.66038e-05
2.96809e-05
6.05449e-05
6.76386e-05
6.81328e-05
6.86804e-05
6.92488e-05
6.97732e-05
7.02043e-05
7.05267e-05
7.06939e-05
7.07074e-05
7.05534e-05
7.02405e-05
6.97932e-05
6.92507e-05
6.86792e-05
6.81714e-05
6.78924e-05
6.81793e-05
6.98032e-05
3.10958e-05
1.41256e-05
8.26258e-06
5.11013e-06
4.24811e-06
4.95546e-06
6.19642e-07
2.47041e-09
2.39155e-09
6.13115e-07
1.2219e-05
1.06127e-05
9.90368e-06
1.18617e-05
1.70123e-05
3.04732e-05
6.13188e-05
6.78764e-05
6.82575e-05
6.87182e-05
6.92361e-05
6.97491e-05
7.01933e-05
7.05198e-05
7.06996e-05
7.07235e-05
7.05529e-05
7.02182e-05
6.97586e-05
6.9211e-05
6.86436e-05
6.81419e-05
6.79054e-05
6.83603e-05
7.68065e-05
3.06161e-05
1.40407e-05
8.35922e-06
5.01481e-06
4.46253e-06
4.89983e-06
5.97864e-07
2.39793e-09
2.3994e-09
6.11406e-07
1.20837e-05
1.01588e-05
9.60549e-06
1.15993e-05
1.69535e-05
3.05835e-05
6.13031e-05
6.78421e-05
6.82673e-05
6.87581e-05
6.92935e-05
6.98101e-05
7.02367e-05
7.0547e-05
7.07262e-05
7.07393e-05
7.05734e-05
7.0249e-05
6.9791e-05
6.92377e-05
6.86434e-05
6.80897e-05
6.76651e-05
6.74308e-05
6.73173e-05
2.71692e-05
1.12636e-05
6.78777e-06
5.0337e-06
4.2816e-06
4.20051e-06
5.74122e-07
2.35635e-09
2.41847e-09
6.18027e-07
1.20141e-05
9.25263e-06
9.49946e-06
1.1616e-05
1.66946e-05
3.01295e-05
6.11592e-05
6.77467e-05
6.82245e-05
6.87555e-05
6.9296e-05
6.98067e-05
7.02505e-05
7.05688e-05
7.0714e-05
7.0692e-05
7.05136e-05
7.01888e-05
6.97412e-05
6.92026e-05
6.8618e-05
6.80611e-05
6.75958e-05
6.72739e-05
6.70232e-05
2.64837e-05
1.10728e-05
6.66201e-06
4.97271e-06
4.19811e-06
4.59272e-06
5.75372e-07
2.34099e-09
2.43599e-09
6.20813e-07
1.21916e-05
9.58278e-06
9.37335e-06
1.11994e-05
1.64733e-05
3.04511e-05
6.17059e-05
6.76981e-05
6.81947e-05
6.87286e-05
6.92814e-05
6.97964e-05
7.02299e-05
7.05504e-05
7.07261e-05
7.07382e-05
7.05804e-05
7.02621e-05
6.98029e-05
6.92609e-05
6.8677e-05
6.80792e-05
6.75299e-05
6.70668e-05
6.67021e-05
2.65701e-05
1.06844e-05
6.24044e-06
4.84949e-06
4.44827e-06
4.69075e-06
5.88987e-07
2.3768e-09
2.42702e-09
6.19596e-07
1.23448e-05
9.88231e-06
9.43219e-06
1.13841e-05
1.67418e-05
3.0515e-05
6.17311e-05
6.773e-05
6.82069e-05
6.87375e-05
6.93003e-05
6.9828e-05
7.02651e-05
7.0582e-05
7.07428e-05
7.07418e-05
7.05778e-05
7.02586e-05
6.9811e-05
6.9266e-05
6.86673e-05
6.80671e-05
6.75185e-05
6.70527e-05
6.66756e-05
2.62659e-05
1.06289e-05
6.34059e-06
4.94431e-06
4.43981e-06
5.02292e-06
6.04225e-07
2.41521e-09
2.43707e-09
6.22181e-07
1.21866e-05
1.05962e-05
9.60821e-06
1.14464e-05
1.6776e-05
3.05596e-05
6.21035e-05
6.77602e-05
6.82178e-05
6.87373e-05
6.92909e-05
6.98169e-05
7.02543e-05
7.05671e-05
7.07174e-05
7.06922e-05
7.05077e-05
7.0181e-05
6.97298e-05
6.919e-05
6.86152e-05
6.8057e-05
6.758e-05
6.72293e-05
6.69446e-05
2.49252e-05
1.04221e-05
6.1701e-06
4.94252e-06
4.49046e-06
5.03633e-06
6.12201e-07
2.43695e-09
2.42231e-09
6.20279e-07
1.2425e-05
1.0528e-05
9.54431e-06
1.15738e-05
1.727e-05
3.12189e-05
6.23931e-05
6.78196e-05
6.82193e-05
6.87283e-05
6.92815e-05
6.98036e-05
7.0242e-05
7.05578e-05
7.07164e-05
7.07047e-05
7.05335e-05
7.02273e-05
6.97989e-05
6.92715e-05
6.86983e-05
6.81622e-05
6.77696e-05
6.76065e-05
6.76081e-05
2.72199e-05
1.13514e-05
6.59106e-06
4.96308e-06
4.37068e-06
4.55902e-06
6.06754e-07
2.46973e-09
2.39756e-09
6.11989e-07
1.2139e-05
1.04876e-05
9.75539e-06
1.14867e-05
1.68027e-05
3.07265e-05
6.24954e-05
6.77273e-05
6.8179e-05
6.86847e-05
6.92208e-05
6.97322e-05
7.01698e-05
7.04957e-05
7.06852e-05
7.0707e-05
7.05533e-05
7.023e-05
6.97734e-05
6.92243e-05
6.86628e-05
6.81805e-05
6.79012e-05
6.79676e-05
6.83716e-05
2.81776e-05
1.22508e-05
7.29306e-06
4.8253e-06
4.25253e-06
4.97922e-06
5.9254e-07
2.4086e-09
2.41083e-09
6.12333e-07
1.19355e-05
9.20537e-06
9.66202e-06
1.18852e-05
1.7086e-05
3.12463e-05
6.2937e-05
6.78452e-05
6.82547e-05
6.87424e-05
6.92657e-05
6.97653e-05
7.01919e-05
7.05085e-05
7.06909e-05
7.07071e-05
7.05482e-05
7.02306e-05
6.9779e-05
6.92274e-05
6.86143e-05
6.80252e-05
6.7598e-05
6.7515e-05
6.60712e-05
2.52793e-05
1.02177e-05
6.16593e-06
5.0368e-06
4.53222e-06
4.82393e-06
5.931e-07
2.37982e-09
2.40293e-09
6.1292e-07
1.21233e-05
9.27049e-06
9.70708e-06
1.19472e-05
1.7256e-05
3.13175e-05
6.34033e-05
6.78577e-05
6.82872e-05
6.87832e-05
6.93258e-05
6.98386e-05
7.02633e-05
7.05664e-05
7.07165e-05
7.07051e-05
7.05304e-05
7.01957e-05
6.97316e-05
6.91755e-05
6.85747e-05
6.79809e-05
6.74535e-05
6.70401e-05
6.67222e-05
2.47688e-05
1.03637e-05
6.26724e-06
4.72481e-06
4.20957e-06
4.83701e-06
6.03392e-07
2.43441e-09
2.41331e-09
6.14283e-07
1.19802e-05
9.38959e-06
9.72609e-06
1.19764e-05
1.73197e-05
3.16419e-05
6.39336e-05
6.78517e-05
6.83042e-05
6.88287e-05
6.93579e-05
6.98566e-05
7.028e-05
7.05845e-05
7.07346e-05
7.07217e-05
7.05488e-05
7.02296e-05
6.98035e-05
6.92756e-05
6.87179e-05
6.82176e-05
6.78891e-05
6.78578e-05
6.81538e-05
2.64022e-05
1.18665e-05
6.89095e-06
4.8168e-06
4.28813e-06
5.00761e-06
6.19691e-07
2.46388e-09
2.39382e-09
6.11596e-07
1.2013e-05
9.11676e-06
9.44986e-06
1.1883e-05
1.70131e-05
3.14022e-05
6.43896e-05
6.78302e-05
6.82933e-05
6.88241e-05
6.93765e-05
6.98887e-05
7.03149e-05
7.06192e-05
7.07686e-05
7.0755e-05
7.05778e-05
7.02369e-05
6.97737e-05
6.92419e-05
6.86892e-05
6.81986e-05
6.78634e-05
6.77327e-05
6.58686e-05
2.46551e-05
1.06631e-05
6.68199e-06
5.00058e-06
4.40281e-06
4.50931e-06
5.81188e-07
2.37282e-09
2.43201e-09
6.21655e-07
1.21566e-05
9.65246e-06
9.47387e-06
1.15958e-05
1.75084e-05
3.25142e-05
6.53332e-05
6.78704e-05
6.83056e-05
6.88234e-05
6.93694e-05
6.98806e-05
7.03077e-05
7.06132e-05
7.07633e-05
7.07503e-05
7.05735e-05
7.02338e-05
6.97723e-05
6.92403e-05
6.86883e-05
6.81777e-05
6.77977e-05
6.76359e-05
6.65239e-05
2.50193e-05
1.10521e-05
6.71965e-06
5.30561e-06
4.74875e-06
4.87521e-06
5.99042e-07
2.43232e-09
2.4655e-09
6.31848e-07
1.26903e-05
9.78375e-06
9.59246e-06
1.25169e-05
1.84372e-05
3.32888e-05
6.64033e-05
6.80095e-05
6.83621e-05
6.88358e-05
6.9364e-05
6.98678e-05
7.02906e-05
7.05929e-05
7.07395e-05
7.07225e-05
7.05414e-05
7.02011e-05
6.97318e-05
6.91756e-05
6.858e-05
6.79819e-05
6.74276e-05
6.70094e-05
6.34462e-05
2.34154e-05
1.04431e-05
6.82138e-06
5.44774e-06
4.64262e-06
4.72909e-06
6.09658e-07
2.45342e-09
2.47604e-09
6.33992e-07
1.24758e-05
1.06408e-05
1.00471e-05
1.35197e-05
1.94388e-05
3.44645e-05
6.72245e-05
6.82464e-05
6.8385e-05
6.87951e-05
6.92975e-05
6.97869e-05
7.02e-05
7.04959e-05
7.06397e-05
7.06249e-05
7.04539e-05
7.01379e-05
6.97092e-05
6.91704e-05
6.85727e-05
6.79714e-05
6.74248e-05
6.69719e-05
6.12442e-05
2.25345e-05
1.00245e-05
6.29526e-06
5.02976e-06
4.62646e-06
5.02566e-06
5.99011e-07
2.40387e-09
2.46834e-09
6.28489e-07
1.23516e-05
1.00395e-05
9.51546e-06
1.14697e-05
1.72776e-05
3.29859e-05
6.7041e-05
6.79053e-05
6.83906e-05
6.88989e-05
6.94119e-05
6.98933e-05
7.02954e-05
7.05746e-05
7.06976e-05
7.06594e-05
7.0464e-05
7.01249e-05
6.96626e-05
6.9111e-05
6.8514e-05
6.79287e-05
6.74181e-05
6.70191e-05
5.9912e-05
2.1748e-05
9.52486e-06
6.10784e-06
5.00169e-06
4.53929e-06
4.91209e-06
6.00754e-07
2.44165e-09
2.45125e-09
6.27372e-07
1.24492e-05
9.27756e-06
9.43133e-06
1.19095e-05
1.80291e-05
3.37092e-05
6.77398e-05
6.80786e-05
6.84684e-05
6.89565e-05
6.94957e-05
6.99771e-05
7.03755e-05
7.06484e-05
7.07582e-05
7.07148e-05
7.05297e-05
7.01958e-05
6.97414e-05
6.92069e-05
6.86439e-05
6.81208e-05
6.77117e-05
6.74905e-05
6.02641e-05
2.25031e-05
1.03795e-05
6.56272e-06
5.04396e-06
4.52825e-06
5.14741e-06
6.15566e-07
2.4505e-09
2.45169e-09
6.27889e-07
1.23847e-05
9.59283e-06
9.48609e-06
1.22015e-05
1.85714e-05
3.45106e-05
6.8003e-05
6.81767e-05
6.85302e-05
6.89927e-05
6.95079e-05
6.99963e-05
7.04002e-05
7.06767e-05
7.07874e-05
7.07408e-05
7.05466e-05
7.02116e-05
6.97582e-05
6.92231e-05
6.86527e-05
6.81073e-05
6.76487e-05
6.73122e-05
5.89538e-05
2.17777e-05
1.01081e-05
6.64934e-06
5.22567e-06
4.56953e-06
4.77198e-06
5.95381e-07
2.40134e-09
2.44629e-09
6.2651e-07
1.22967e-05
1.00107e-05
9.46249e-06
1.14963e-05
1.74009e-05
3.38076e-05
6.75147e-05
6.794e-05
6.84257e-05
6.89464e-05
6.94706e-05
6.99628e-05
7.03875e-05
7.06939e-05
7.08396e-05
7.08242e-05
7.065e-05
7.03241e-05
6.98639e-05
6.93203e-05
6.87417e-05
6.81777e-05
6.76852e-05
6.72998e-05
5.9219e-05
2.14864e-05
9.78816e-06
6.30984e-06
5.26445e-06
4.91089e-06
4.7892e-06
5.90603e-07
2.4122e-09
2.45678e-09
6.26203e-07
1.22519e-05
8.99628e-06
9.12231e-06
1.1415e-05
1.78409e-05
3.45285e-05
6.75024e-05
6.79516e-05
6.84558e-05
6.89904e-05
6.95336e-05
7.00211e-05
7.04334e-05
7.07234e-05
7.08674e-05
7.08552e-05
7.06879e-05
7.03771e-05
6.9938e-05
6.93905e-05
6.87847e-05
6.81884e-05
6.76612e-05
6.72489e-05
5.67277e-05
2.12348e-05
9.8049e-06
6.52292e-06
5.33138e-06
4.64406e-06
4.5723e-06
5.96308e-07
2.44635e-09
2.45609e-09
6.29346e-07
1.26595e-05
1.02638e-05
9.31568e-06
1.15166e-05
1.9223e-05
3.56374e-05
6.78444e-05
6.80073e-05
6.84304e-05
6.89501e-05
6.9498e-05
7.00173e-05
7.04459e-05
7.07489e-05