/*--------------------------------*- C++ -*----------------------------------*\
  =========                 |
  \\      /  F ield         | OpenFOAM: The Open Source CFD Toolbox
   \\    /   O peration     | Website:  https://openfoam.org
    \\  /    A nd           | Version:  13
     \\/     M anipulation  |
\*---------------------------------------------------------------------------*/
FoamFile
{
    format      ascii;
    class       volScalarField;
    location    "4";
    object      p_rgh;
}
// * * * * * * * * * * * * * * * * * * * * * * * * * * * * * * * * * * * * * //

dimensions      [0 2 -2 0 0 0 0];

internalField   nonuniform List<scalar> 
78750
(
0.073713
0.073586
0.0733801
0.073105
0.0727527
0.0724421
0.0721936
0.0720058
0.0718345
0.0716594
0.0715186
0.0713996
0.0712867
0.0711792
0.0710768
0.0709779
0.0708817
0.0707873
0.0706947
0.0706036
0.070514
0.0704248
0.0703348
0.0702432
0.0701448
0.0700434
0.0699196
0.0697523
0.0695496
0.0693069
0.0690306
0.0686742
0.0682777
0.0678431
0.0673451
0.0739736
0.0733713
0.072794
0.072249
0.0718208
0.071512
0.0712899
0.0711372
0.0710216
0.0709329
0.0708658
0.0708099
0.0707574
0.0707059
0.070652
0.0705941
0.0705315
0.0704644
0.0703931
0.0703172
0.0702368
0.070151
0.0700565
0.0699465
0.0698098
0.0696289
0.0693766
0.0690299
0.0685538
0.067923
0.0670855
0.0659894
0.0646305
0.063034
0.0612363
0.0756106
0.0745793
0.0736379
0.0728341
0.0721932
0.0717161
0.0713798
0.071149
0.0709873
0.0708689
0.0707797
0.0707099
0.070651
0.070595
0.0705394
0.0704837
0.070429
0.0703747
0.0703188
0.0702594
0.0701945
0.0701213
0.0700355
0.069928
0.0697833
0.0695712
0.0692471
0.0687647
0.0680548
0.0670348
0.0656215
0.0637484
0.0614104
0.0586545
0.0555739
0.077249
0.075816
0.074525
0.0734293
0.0725583
0.0719077
0.0714482
0.0711374
0.070929
0.0707838
0.0706818
0.0706082
0.0705494
0.0704997
0.0704546
0.070409
0.0703618
0.0703123
0.0702599
0.070204
0.0701428
0.0700727
0.0699868
0.0698722
0.0697035
0.0694423
0.0690347
0.068406
0.0674524
0.0660532
0.06409
0.0614674
0.0581651
0.054264
0.0499228
0.0790444
0.0772017
0.0755421
0.0741364
0.0730208
0.0721887
0.071603
0.0712106
0.0709541
0.0707866
0.0706777
0.0706052
0.0705525
0.0705102
0.0704728
0.0704362
0.0703988
0.0703597
0.070318
0.0702725
0.0702209
0.0701584
0.0700759
0.0699566
0.0697695
0.0694654
0.0689731
0.0681909
0.0669875
0.0652048
0.0626868
0.0593156
0.0550637
0.0500311
0.0444408
0.080952
0.0786997
0.0766723
0.0749565
0.0735961
0.0725825
0.0718696
0.0713929
0.0710847
0.0708874
0.070763
0.0706842
0.0706306
0.0705891
0.0705524
0.0705178
0.0704836
0.0704478
0.0704093
0.0703666
0.0703168
0.070254
0.0701669
0.0700338
0.0698179
0.0694612
0.0688739
0.0679313
0.0664717
0.064298
0.0612182
0.0570912
0.0518812
0.0457197
0.0388871
0.0829282
0.080266
0.0778699
0.075843
0.0742367
0.0730401
0.0721995
0.071639
0.07128
0.0710558
0.0709189
0.0708351
0.0707808
0.0707417
0.0707094
0.0706791
0.070649
0.070618
0.0705841
0.0705455
0.0704985
0.0704362
0.070345
0.0701996
0.0699552
0.0695429
0.0688581
0.0677522
0.0660319
0.0634643
0.059822
0.0549446
0.0487963
0.0415096
0.0334241
0.0849999
0.081928
0.0791634
0.0768258
0.0749738
0.0735943
0.0726252
0.0719797
0.0715691
0.0713164
0.0711652
0.0710758
0.0710212
0.070985
0.0709578
0.0709341
0.070911
0.0708874
0.0708618
0.0708319
0.0707933
0.0707382
0.0706508
0.0705023
0.0702429
0.069792
0.0690251
0.0677697
0.0658019
0.0628545
0.058664
0.053044
0.0459541
0.0375619
0.0282276
0.0871057
0.0836239
0.080491
0.0778428
0.0757453
0.074183
0.0730854
0.0723553
0.0718924
0.07161
0.0714437
0.071348
0.0712922
0.0712579
0.0712344
0.0712157
0.0711986
0.0711811
0.071162
0.0711387
0.0711064
0.0710561
0.07097
0.0708158
0.0705376
0.0700431
0.069192
0.067787
0.0655703
0.0622392
0.057497
0.0511225
0.0430608
0.0335256
0.0229492
0.0892689
0.0853772
0.0818754
0.078916
0.0765726
0.0748278
0.0736026
0.0727882
0.0722727
0.0719596
0.0717771
0.0716736
0.0716151
0.0715809
0.071559
0.0715428
0.0715288
0.0715146
0.0714986
0.071478
0.0714475
0.0713968
0.0713061
0.0711391
0.070833
0.0702846
0.0693369
0.0677688
0.0652921
0.0615688
0.0562659
0.049145
0.040157
0.0295082
0.0176807
0.0914592
0.0871576
0.0832872
0.080018
0.0774291
0.0755014
0.0741479
0.0732485
0.0726798
0.0723359
0.0721366
0.0720248
0.071963
0.0719282
0.0719072
0.0718928
0.071881
0.0718693
0.0718556
0.0718369
0.0718073
0.0717554
0.0716593
0.0714788
0.0711443
0.0705413
0.0694947
0.0677607
0.0650217
0.060904
0.0550393
0.0471685
0.037237
0.025482
0.0124221
0.0936936
0.0889848
0.0847464
0.0811657
0.07833
0.0762176
0.0747343
0.0737488
0.0731263
0.0727507
0.0725336
0.0724126
0.0723466
0.0723105
0.0722898
0.0722765
0.0722664
0.0722566
0.0722449
0.0722279
0.0721993
0.0721464
0.0720453
0.0718521
0.0714906
0.0708352
0.0696935
0.0677978
0.064801
0.0602932
0.0538734
0.0452505
0.0343565
0.0214569
0.00713792
0.0959423
0.0908264
0.0862213
0.0823287
0.0792457
0.0769492
0.0753368
0.0742657
0.0735893
0.0731813
0.0729462
0.0728158
0.0727453
0.0727076
0.0726868
0.0726744
0.0726655
0.0726574
0.0726475
0.0726321
0.0726043
0.0725505
0.0724447
0.0722393
0.0718515
0.0711457
0.0699133
0.0678616
0.0646107
0.0597171
0.0527454
0.0433781
0.0315446
0.0175263
0.00195347
0.0982112
0.092688
0.0877138
0.0835095
0.08018
0.0777009
0.0759603
0.0748038
0.0740732
0.0736327
0.0733788
0.0732379
0.0731617
0.0731208
0.0730982
0.0730845
0.0730745
0.0730652
0.0730538
0.0730362
0.0730049
0.0729452
0.0728289
0.0726046
0.0721829
0.071417
0.0700824
0.0678634
0.0643499
0.0590607
0.0515244
0.0414053
0.0286238
0.0135064
-0.00328569
0.100492
0.094554
0.0892065
0.0846911
0.0811158
0.0784533
0.0765842
0.0753423
0.074558
0.0740859
0.0738143
0.0736641
0.0735834
0.0735406
0.0735175
0.0735039
0.0734944
0.0734856
0.0734744
0.0734565
0.0734239
0.0733604
0.073236
0.0729951
0.0725416
0.0717177
0.0702823
0.0678969
0.0641218
0.0584393
0.0503414
0.0394642
0.02573
0.00946782
-0.00858625
0.102786
0.0964333
0.0907173
0.0858905
0.0820685
0.0792224
0.0772246
0.0758973
0.0750592
0.0745544
0.0742639
0.0741031
0.0740167
0.0739708
0.073946
0.0739314
0.0739211
0.0739116
0.0738996
0.0738805
0.0738457
0.0737783
0.0736458
0.0733892
0.0729059
0.0720274
0.0704955
0.0679482
0.0639149
0.0578438
0.0491943
0.0375753
0.0229014
0.00551841
-0.0137776
0.105075
0.0983161
0.0922352
0.0870956
0.0830263
0.079996
0.0778689
0.076456
0.0755639
0.0750268
0.0747181
0.0745478
0.0744567
0.0744091
0.0743841
0.0743703
0.0743613
0.0743534
0.0743433
0.0743259
0.0742921
0.074224
0.0740871
0.0738185
0.0733091
0.0723795
0.0707547
0.0680479
0.0637577
0.0572985
0.0480928
0.0357263
0.0201052
0.00160374
-0.0189385
0.107347
0.100182
0.0937301
0.088281
0.0839673
0.0807547
0.0785
0.0770024
0.0760571
0.0754884
0.0751618
0.0749817
0.0748855
0.0748352
0.0748087
0.074794
0.0747843
0.0747756
0.0747643
0.0747454
0.0747089
0.0746359
0.0744898
0.0742039
0.0736625
0.0726752
0.0709499
0.0680768
0.0635255
0.0566733
0.0469069
0.0337834
0.0172036
-0.00242099
-0.0242229
0.109612
0.102041
0.0952265
0.0894683
0.084908
0.0815117
0.0791273
0.0775438
0.0765445
0.0759435
0.0755985
0.0754083
0.0753067
0.0752535
0.0752255
0.0752096
0.075199
0.0751893
0.0751766
0.0751555
0.0751156
0.0750365
0.0748797
0.0745745
0.0739984
0.0729501
0.071121
0.0680781
0.0632606
0.0560091
0.0456785
0.0318108
0.0142992
-0.00643224
-0.0294477
0.11189
0.103915
0.0967329
0.0906598
0.0858524
0.0822716
0.0797565
0.0780852
0.0770299
0.0763948
0.0760298
0.0758284
0.0757208
0.0756643
0.0756344
0.0756176
0.0756065
0.0755964
0.0755835
0.0755618
0.0755205
0.0754383
0.0752745
0.0749547
0.0743497
0.073247
0.0713202
0.0681136
0.0630376
0.0553996
0.0445183
0.0299005
0.0114396
-0.0104135
-0.0346846
0.11415
0.10576
0.0982012
0.0918173
0.0867627
0.0829985
0.0803556
0.0785997
0.0774906
0.0768226
0.0764382
0.0762255
0.0761113
0.0760507
0.076018
0.075999
0.0759858
0.0759737
0.0759584
0.0759337
0.0758883
0.0757997
0.0756251
0.0752864
0.0746479
0.0734862
0.0714594
0.0680884
0.0627529
0.0547213
0.0432747
0.0278954
0.00848388
-0.0145088
-0.0400494
0.116379
0.107574
0.0996464
0.0929538
0.087653
0.0837057
0.0809343
0.0790935
0.0779313
0.0772318
0.0768297
0.0766076
0.0764886
0.0764259
0.0763924
0.0763732
0.0763601
0.0763481
0.0763328
0.0763077
0.0762607
0.0761685
0.0759861
0.0756314
0.0749622
0.0737447
0.0716203
0.0680861
0.0624909
0.0540671
0.0420632
0.0259503
0.0055964
-0.0185047
-0.0452521
0.118588
0.109382
0.101091
0.0940838
0.0885367
0.0844057
0.0815048
0.0795772
0.07836
0.0776273
0.0772062
0.0769737
0.0768492
0.0767838
0.0767492
0.0767297
0.0767167
0.0767051
0.0766903
0.0766654
0.0766179
0.0765233
0.0763346
0.0759661
0.0752688
0.0739982
0.0717797
0.0680869
0.0622363
0.0534278
0.0408761
0.0240138
0.00271305
-0.0225038
-0.0505094
0.120792
0.111171
0.102509
0.0951908
0.0893961
0.0850798
0.0820496
0.0800356
0.0787633
0.077997
0.0775562
0.0773124
0.0771816
0.0771125
0.0770754
0.0770541
0.0770396
0.0770263
0.0770095
0.076982
0.0769307
0.0768299
0.0766305
0.0762429
0.0755116
0.0741808
0.0718593
0.0679981
0.0618845
0.0526782
0.0395563
0.0219257
-0.000329781
-0.02666
-0.0559225
0.122937
0.112899
0.103865
0.0962376
0.0901979
0.0857015
0.0825447
0.0804478
0.0791245
0.0783289
0.0778724
0.0776209
0.0774868
0.0774167
0.0773799
0.0773592
0.0773455
0.0773329
0.0773164
0.0772887
0.077236
0.0771316
0.0769243
0.0765208
0.0757589
0.074372
0.0719526
0.067928
0.0615544
0.05196
0.0382829
0.0199196
-0.00328271
-0.0307573
-0.0612371
0.125075
0.114631
0.105235
0.0972951
0.0910095
0.0863291
0.0830441
0.0808621
0.0794854
0.0786583
0.0781842
0.0779237
0.0777856
0.0777142
0.0776777
0.0776582
0.0776461
0.0776356
0.0776213
0.0775956
0.0775444
0.0774397
0.0772284
0.0768132
0.0760253
0.0745866
0.0720706
0.0678804
0.0612445
0.0512554
0.0370243
0.0179062
-0.00623042
-0.0347973
-0.0665215
0.127206
0.116353
0.106589
0.0983396
0.0918067
0.0869421
0.0835267
0.0812583
0.0798271
0.0789668
0.0784735
0.0782024
0.0780585
0.0779843
0.0779463
0.0779262
0.0779139
0.0779031
0.0778885
0.0778622
0.0778092
0.0777007
0.0774814
0.0770502
0.0762318
0.0747371
0.0721228
0.067769
0.0608745
0.050495
0.035704
0.0158351
-0.00926082
-0.0389722
-0.0719445
0.129321
0.118059
0.107928
0.099366
0.0925857
0.0875366
0.0839922
0.0816377
0.0801518
0.0792584
0.0787459
0.0784639
0.0783142
0.0782367
0.0781968
0.0781756
0.0781625
0.0781511
0.0781357
0.0781083
0.0780534
0.0779411
0.077714
0.0772674
0.0764194
0.0748702
0.0721594
0.0676428
0.0604879
0.0497164
0.0343702
0.0137593
-0.0122742
-0.0430986
-0.0773239
0.131401
0.119731
0.109226
0.100352
0.0933272
0.0880951
0.0844221
0.0819826
0.0804433
0.079518
0.0789872
0.0786953
0.0785402
0.0784599
0.0784186
0.0783963
0.0783822
0.0783698
0.0783531
0.0783235
0.0782652
0.0781469
0.0779089
0.0774426
0.0765595
0.0749496
0.0721378
0.0674571
0.0600428
0.048881
0.0329713
0.0116008
-0.0153957
-0.0473451
-0.0828112
0.133465
0.12139
0.110516
0.101329
0.0940568
0.0886442
0.0848438
0.0823194
0.0807267
0.0797695
0.0792205
0.0789185
0.0787579
0.0786746
0.0786312
0.0786074
0.0785919
0.0785778
0.0785591
0.0785268
0.0784644
0.0783397
0.0780908
0.0776054
0.0766883
0.0750188
0.0721056
0.0672591
0.0595845
0.0480296
0.0315615
0.00944345
-0.0184922
-0.0515854
-0.0883283
0.135527
0.123042
0.111804
0.102307
0.0947847
0.089185
0.0852547
0.0826444
0.0809975
0.0800078
0.0794405
0.0791286
0.0789631
0.0788776
0.0788336
0.07881
0.0787951
0.0787818
0.0787639
0.0787321
0.0786694
0.0785423
0.0782873
0.077788
0.0768423
0.0751187
0.0721093
0.0671009
0.0591673
0.0472203
0.0301935
0.00731967
-0.0215529
-0.055729
-0.0936905
0.137578
0.124675
0.113063
0.103255
0.0954911
0.0897098
0.0856504
0.0829553
0.0812552
0.0802339
0.0796485
0.0793268
0.0791561
0.0790679
0.0790223
0.0789977
0.0789819
0.0789676
0.0789484
0.0789147
0.078849
0.0787169
0.0784526
0.0779361
0.076959
0.0751783
0.0720689
0.0668946
0.0587009
0.046366
0.0287815
0.00516606
-0.0246598
-0.0599601
-0.099187
0.139622
0.126307
0.114333
0.104214
0.096204
0.0902379
0.0860504
0.0832693
0.0815152
0.0804616
0.0798579
0.0795266
0.0793512
0.0792611
0.0792155
0.0791917
0.0791773
0.0791649
0.0791477
0.079116
0.0790517
0.0789191
0.0786507
0.0781223
0.077119
0.0752875
0.0720852
0.06675
0.0582961
0.0455674
0.0274313
0.00306791
-0.0277029
-0.0641209
-0.10459
0.141668
0.127944
0.1156
0.105171
0.0969107
0.0907591
0.0864409
0.0835733
0.0817641
0.080677
0.0800541
0.0797119
0.0795307
0.0794375
0.0793902
0.0793654
0.0793504
0.0793375
0.0793197
0.079287
0.0792207
0.0790841
0.0788075
0.078263
0.0772291
0.0753415
0.072042
0.0665465
0.0578373
0.0447216
0.026025
0.00091092
-0.0308167
-0.0683865
-0.110091
0.143684
0.129559
0.116841
0.106098
0.0975935
0.0912595
0.0868126
0.0838591
0.0819956
0.0808756
0.0802333
0.0798802
0.0796927
0.0795958
0.079546
0.0795193
0.0795025
0.0794877
0.0794677
0.0794321
0.0793616
0.0792186
0.078931
0.0783673
0.0772993
0.0753518
0.0719505
0.0662881
0.057317
0.043807
0.0245549
-0.00130853
-0.033972
-0.0726381
-0.115593
0.145693
0.131161
0.118076
0.107021
0.0982687
0.0917528
0.0871774
0.0841373
0.0822199
0.0810677
0.0804071
0.0800439
0.0798511
0.0797514
0.0797002
0.0796727
0.0796554
0.07964
0.0796192
0.0795824
0.0795096
0.0793621
0.0790658
0.0784852
0.0773855
0.0753806
0.0718788
0.0660492
0.0568152
0.042912
0.0230928
-0.00352249
-0.0371341
-0.0769278
-0.121111
0.147704
0.132756
0.119294
0.107932
0.0989338
0.0922331
0.087528
0.084402
0.0824304
0.0812459
0.080567
0.0801938
0.0799958
0.0798935
0.0798409
0.0798126
0.0797947
0.0797787
0.0797572
0.079719
0.0796438
0.0794916
0.0791862
0.0785886
0.0774572
0.075395
0.0717937
0.065798
0.0562999
0.0419999
0.0216279
-0.00573669
-0.0402983
-0.0811991
-0.126631
0.149689
0.134344
0.120522
0.108846
0.0996016
0.0927172
0.0878846
0.0846748
0.0826491
0.081432
0.0807344
0.080351
0.0801477
0.0800428
0.079989
0.0799602
0.0799422
0.0799262
0.0799044
0.0798656
0.0797888
0.0796328
0.0793192
0.0787054
0.0775434
0.0754251
0.0717256
0.0655659
0.0558083
0.0411195
0.0201858
-0.00793721
-0.0434459
-0.0854688
-0.13213
0.151686
0.135921
0.121733
0.109748
0.100257
0.0931881
0.0882253
0.0849289
0.0828498
0.0816011
0.0808858
0.0804931
0.0802853
0.0801785
0.0801242
0.0800958
0.0800785
0.0800634
0.0800426
0.0800046
0.0799279
0.0797706
0.0794523
0.078826
0.0776369
0.0754663
0.0716716
0.0653506
0.0553334
0.0402521
0.0187626
-0.0100995
-0.0465469
-0.0897302
-0.137696
0.153684
0.137504
0.122937
0.11064
0.100906
0.0936555
0.0885659
0.0851858
0.0830538
0.0817733
0.0810398
0.0806371
0.0804239
0.0803144
0.0802588
0.0802297
0.0802119
0.0801963
0.0801747
0.0801353
0.080056
0.0798935
0.0795654
0.078921
0.0776987
0.0754691
0.0715736
0.0650863
0.0548087
0.0393351
0.0172797
-0.0123398
-0.0497438
-0.0940089
-0.14319
0.155639
0.139066
0.124145
0.111535
0.101552
0.0941187
0.0888983
0.0854321
0.0832455
0.0819317
0.0811787
0.0807649
0.0805455
0.0804323
0.0803743
0.0803433
0.0803238
0.0803064
0.0802828
0.0802408
0.0801576
0.079989
0.0796505
0.0789873
0.0777312
0.0754421
0.0714465
0.0647959
0.0542602
0.0383966
0.0157957
-0.0145589
-0.0529086
-0.0983299
-0.148763
0.157632
0.140643
0.125346
0.112427
0.102196
0.0945779
0.0892295
0.0856777
0.0834374
0.0820917
0.0813208
0.0808975
0.0806736
0.0805585
0.0805002
0.0804696
0.080451
0.0804347
0.0804121
0.0803707
0.0802873
0.0801165
0.0797716
0.0790941
0.0778092
0.0754656
0.0713729
0.0645606
0.0537677
0.0375176
0.0143563
-0.0167644
-0.0560534
-0.10255
-0.154188
0.159599
0.142197
0.126527
0.113292
0.102816
0.095017
0.089542
0.0859051
0.0836112
0.0822337
0.0814448
0.0810119
0.080783
0.0806657
0.0806064
0.0805756
0.080557
0.0805408
0.0805182
0.0804766
0.0803922
0.0802185
0.0798667
0.0791749
0.0778617
0.0754652
0.0712776
0.0643033
0.0532523
0.0366111
0.0128898
-0.0189766
-0.0592344
-0.106922
-0.159855
0.161556
0.143746
0.12772
0.114181
0.103456
0.0954664
0.0898585
0.0861335
0.0837838
0.0823725
0.081564
0.0811202
0.0808853
0.0807646
0.0807034
0.0806715
0.0806523
0.0806354
0.0806121
0.0805693
0.0804828
0.0803053
0.0799459
0.0792386
0.0778954
0.0754425
0.071152
0.0640053
0.0526867
0.0356481
0.0113638
-0.02124
-0.0624172
-0.111163
-0.165319
0.163504
0.145282
0.128874
0.115019
0.10405
0.095881
0.0901459
0.0863373
0.0839349
0.082492
0.0816653
0.0812115
0.0809715
0.0808483
0.080786
0.0807536
0.0807342
0.0807174
0.0806941
0.080651
0.0805631
0.0803819
0.0800147
0.0792917
0.0779185
0.0754101
0.0710221
0.0637124
0.052132
0.0347011
0.00987043
-0.0234889
-0.0656178
-0.115489
-0.170862
0.165418
0.146792
0.130021
0.115851
0.104635
0.096284
0.0904219
0.0865287
0.0840728
0.0825973
0.0817517
0.0812871
0.0810408
0.0809137
0.0808485
0.0808137
0.0807918
0.0807722
0.0807456
0.0806981
0.0806043
0.0804144
0.0800335
0.0792878
0.0778763
0.0753042
0.0708136
0.0633401
0.0515038
0.0336837
0.00828391
-0.0258407
-0.0689397
-0.119907
-0.176499
0.167347
0.148296
0.13116
0.116686
0.105222
0.0966863
0.0906926
0.0867111
0.0842005
0.082692
0.0818273
0.081352
0.0810997
0.0809693
0.0809021
0.0808658
0.0808424
0.0808211
0.0807925
0.0807426
0.0806451
0.0804497
0.0800592
0.079296
0.0778525
0.0752231
0.0706337
0.0629968
0.0509002
0.0326858
0.00672325
-0.028133
-0.0721577
-0.124309
-0.182185
0.169272
0.149807
0.132292
0.117504
0.105796
0.0970748
0.0909513
0.0868856
0.0843214
0.0827812
0.0818986
0.0814139
0.0811571
0.0810248
0.0809573
0.0809214
0.080899
0.080879
0.0808519
0.0808032
0.0807063
0.0805094
0.0801131
0.0793363
0.0778646
0.0751815
0.0704961
0.0626964
0.050341
0.0317411
0.00523766
-0.0303734
-0.0753523
-0.128578
-0.187708
0.171147
0.151282
0.133408
0.118307
0.106352
0.0974474
0.0911944
0.0870412
0.0844224
0.0828496
0.0819486
0.0814539
0.0811919
0.0810572
0.0809885
0.0809523
0.0809299
0.0809102
0.080883
0.080834
0.0807358
0.0805357
0.0801323
0.0793408
0.0778403
0.0751029
0.0703195
0.0623526
0.0497319
0.0307349
0.00366027
-0.0327111
-0.0786525
-0.133033
-0.193401
0.173017
0.152736
0.134495
0.119086
0.106885
0.0978007
0.0914229
0.0871879
0.0845154
0.0829105
0.0819912
0.0814866
0.0812198
0.0810828
0.0810134
0.0809772
0.0809552
0.0809361
0.0809097
0.0808609
0.0807622
0.0805595
0.0801495
0.0793432
0.0778131
0.0750202
0.0701383
0.0620079
0.0491248
0.0297279
0.00208599
-0.0350235
-0.0818704
-0.137369
-0.198984
0.174878
0.15419
0.135577
0.119855
0.107406
0.0981343
0.0916262
0.0873038
0.0845782
0.0829417
0.0820046
0.0814906
0.0812191
0.0810801
0.0810101
0.080974
0.0809527
0.0809342
0.0809081
0.0808595
0.08076
0.0805545
0.0801376
0.0793167
0.0777578
0.0749105
0.0699304
0.0616341
0.0484913
0.0287069
0.000525936
-0.0373277
-0.085137
-0.141725
-0.204573
0.176725
0.15562
0.136629
0.120596
0.107902
0.0984497
0.0918136
0.087407
0.0846281
0.0829584
0.0820019
0.0814771
0.0811998
0.0810575
0.0809855
0.080948
0.0809252
0.0809051
0.0808771
0.0808256
0.0807219
0.0805098
0.0800816
0.0792405
0.0776459
0.0747372
0.0696566
0.0611994
0.0478019
0.0276356
-0.00111339
-0.0397342
-0.0885055
-0.146197
-0.210293
0.178525
0.157016
0.137663
0.121318
0.108376
0.0987404
0.091977
0.0874823
0.0846467
0.0829443
0.081969
0.0814334
0.0811499
0.0810041
0.0809301
0.0808912
0.0808673
0.0808461
0.0808168
0.0807635
0.0806569
0.0804392
0.0800006
0.0791411
0.0775133
0.0745457
0.0693651
0.0607452
0.0470907
0.0265289
-0.00277323
-0.0421364
-0.0918485
-0.150727
-0.216103
0.180301
0.158387
0.138666
0.122006
0.10882
0.0990008
0.0921056
0.087528
0.0846409
0.0829071
0.0819145
0.08137
0.0810825
0.0809355
0.0808616
0.0808235
0.0808009
0.0807812
0.0807536
0.0807021
0.0805966
0.0803787
0.0799368
0.0790669
0.0774153
0.0744006
0.0691317
0.0603553
0.0464458
0.0254942
-0.00436422
-0.0444648
-0.0951158
-0.155087
-0.221714
0.182056
0.159726
0.139639
0.12267
0.109236
0.0992336
0.0922126
0.0875515
0.0846104
0.0828435
0.0818318
0.0812768
0.0809836
0.0808334
0.0807576
0.0807183
0.0806947
0.0806741
0.0806454
0.0805921
0.0804837
0.0802604
0.0798086
0.0789203
0.0772348
0.0741595
0.0687871
0.059841
0.0456665
0.0243272
-0.00609042
-0.0469581
-0.0985699
-0.159622
-0.227445
0.183812
0.161068
0.140609
0.123335
0.109653
0.099463
0.0923098
0.087559
0.0845638
0.0827657
0.0817368
0.0811729
0.0808755
0.0807237
0.0806479
0.0806093
0.0805868
0.0805675
0.0805398
0.0804872
0.0803787
0.0801536
0.079696
0.0787943
0.0770816
0.0739542
0.0684866
0.0593816
0.0449523
0.0232205
-0.00775648
-0.0493707
-0.10193
-0.164208
-0.233377
0.185509
0.162367
0.141547
0.123955
0.110029
0.0996572
0.0923762
0.0875403
0.0844901
0.0826582
0.081609
0.0810332
0.0807289
0.080573
0.0804947
0.0804546
0.080431
0.0804109
0.0803826
0.0803292
0.080219
0.0799904
0.0795256
0.078609
0.0768671
0.0736856
0.0681231
0.0588564
0.0441698
0.0220496
-0.00948839
-0.0518465
-0.105344
-0.168671
-0.239024
0.187198
0.163639
0.142451
0.124551
0.110375
0.0998229
0.0924166
0.0874967
0.0843917
0.0825268
0.0814583
0.0808716
0.080561
0.0804013
0.0803201
0.0802774
0.0802513
0.0802284
0.0801969
0.0801395
0.0800239
0.0797874
0.07931
0.0783722
0.0765935
0.0733481
0.0676776
0.0582361
0.0432779
0.0207574
-0.01133
-0.0544274
-0.10887
-0.173301
-0.244895
0.188872
0.1649
0.14333
0.125117
0.110698
0.0999611
0.0924248
0.0874186
0.0842604
0.0823636
0.0812773
0.0806809
0.0803654
0.0802034
0.0801212
0.0800782
0.0800522
0.0800294
0.0799979
0.0799399
0.0798229
0.0795828
0.0790975
0.0781441
0.0763359
0.0730367
0.0672721
0.0576725
0.0424599
0.0195495
-0.0130999
-0.0569561
-0.112351
-0.177937
-0.250757
0.190498
0.166126
0.144204
0.125677
0.111011
0.100092
0.0924228
0.0873308
0.0841178
0.0821874
0.0810811
0.0804732
0.0801509
0.0799844
0.0798991
0.0798534
0.0798245
0.0797988
0.0797637
0.0797012
0.0795781
0.0793292
0.0788304
0.0778544
0.0760075
0.0726423
0.0667679
0.0569937
0.0415158
0.0182054
-0.0150245
-0.0596613
-0.115999
-0.182634
-0.256663
0.192145
0.167358
0.145056
0.126221
0.111305
0.100198
0.0924007
0.087222
0.0839543
0.0819913
0.0808666
0.0802488
0.0799214
0.0797526
0.0796662
0.0796201
0.0795914
0.0795658
0.079531
0.0794688
0.0793452
0.079094
0.0785891
0.0775997
0.0757256
0.0723088
0.0663417
0.0564085
0.0406722
0.0169802
-0.0167856
-0.0621368
-0.119418
-0.187274
-0.26263
0.193759
0.168561
0.145888
0.126738
0.111578
0.100289
0.0923649
0.0870993
0.0837783
0.0817842
0.0806423
0.0800155
0.079684
0.0795137
0.0794274
0.0793824
0.0793552
0.0793317
0.0792992
0.0792394
0.0791179
0.0788676
0.0783601
0.0773614
0.0754647
0.0720011
0.0659467
0.0558634
0.0398784
0.0158014
-0.0185174
-0.0646088
-0.122826
-0.191753
-0.268298
0.195325
0.169728
0.146702
0.127245
0.111837
0.100365
0.0923085
0.08696
0.0835841
0.081555
0.0803919
0.0797525
0.0794133
0.0792381
0.0791482
0.0791
0.0790697
0.0790427
0.0790062
0.0789413
0.0788131
0.0785531
0.0780308
0.0770079
0.075071
0.0715395
0.0653722
0.0551115
0.0388569
0.0143749
-0.0205209
-0.0673942
-0.126587
-0.196586
-0.274348
0.196924
0.170906
0.147507
0.127737
0.112085
0.100429
0.0922456
0.0868097
0.0833799
0.0813196
0.0801392
0.0794907
0.0791469
0.0789695
0.0788787
0.0788303
0.0787999
0.0787731
0.0787364
0.078671
0.078541
0.0782772
0.077747
0.0767083
0.074741
0.071155
0.0648938
0.0544715
0.0379578
0.0130846
-0.0223637
-0.0699711
-0.130086
-0.201309
-0.280399
0.198481
0.172062
0.148298
0.128216
0.112314
0.100473
0.0921582
0.0866318
0.0831459
0.0810532
0.0798552
0.0791976
0.0788494
0.0786704
0.0785792
0.0785311
0.0785014
0.0784752
0.0784391
0.0783739
0.0782434
0.077977
0.0774402
0.0763869
0.0743907
0.0707507
0.0643942
0.0538111
0.0370404
0.011781
-0.024227
-0.0725783
-0.133623
-0.205872
-0.286135
0.200039
0.173211
0.149069
0.128675
0.112529
0.100505
0.0920641
0.0864569
0.0829186
0.0807935
0.0795767
0.0789087
0.0785552
0.0783735
0.0782813
0.0782329
0.0782033
0.0781774
0.0781415
0.0780761
0.0779446
0.0776751
0.0771311
0.0760628
0.0740369
0.0703419
0.0638888
0.0531439
0.0361143
0.0104667
-0.0260859
-0.075196
-0.137227
-0.210648
-0.29219
0.201563
0.174324
0.149821
0.129114
0.112724
0.100519
0.0919506
0.0862599
0.0826679
0.0805107
0.0792756
0.0785978
0.0782395
0.0780557
0.077963
0.0779149
0.0778861
0.0778613
0.0778267
0.0777624
0.0776312
0.0773604
0.0768113
0.0757304
0.0736778
0.0699314
0.0633856
0.0524824
0.0351973
0.00915927
-0.027958
-0.0778193
-0.140793
-0.21537
-0.298176
0.203092
0.175438
0.150569
0.129554
0.112914
0.100526
0.0918291
0.0860503
0.082404
0.0802145
0.078961
0.078273
0.0779091
0.0777221
0.0776273
0.0775777
0.0775474
0.0775208
0.077484
0.0774167
0.0772811
0.0770035
0.0764428
0.0753416
0.0732537
0.0694456
0.0627959
0.0517239
0.034175
0.00773507
-0.0299554
-0.0805607
-0.14446
-0.220121
-0.304118
0.204616
0.176556
0.151314
0.129988
0.1131
0.100523
0.0916949
0.0858295
0.0821291
0.0799068
0.0786342
0.0779355
0.0775655
0.0773752
0.0772784
0.0772273
0.0771959
0.0771682
0.0771301
0.0770611
0.0769228
0.0766403
0.0760705
0.0749523
0.0728329
0.0689677
0.0622183
0.0509806
0.0331715
0.00634463
-0.0318834
-0.0832299
-0.148106
-0.2249
-0.310188
0.206133
0.177665
0.152047
0.13041
0.113278
0.10052
0.0915639
0.0856141
0.0818588
0.0796029
0.0783107
0.077601
0.0772249
0.0770313
0.0769324
0.0768802
0.0768478
0.0768192
0.07678
0.0767095
0.0765685
0.0762811
0.0757022
0.0745668
0.0724147
0.0684913
0.0616428
0.0502409
0.0321701
0.00495305
-0.0338444
-0.0859661
-0.151781
-0.229649
-0.316151
0.207625
0.178746
0.152767
0.130814
0.113437
0.100498
0.0914113
0.0853753
0.0815663
0.0792788
0.0779688
0.0772495
0.0768685
0.0766723
0.0765722
0.0765192
0.0764863
0.0764571
0.0764171
0.0763451
0.0762015
0.0759093
0.0753213
0.0741685
0.0719842
0.0680024
0.0610522
0.0494828
0.0311484
0.00353114
-0.0358364
-0.0886969
-0.155448
-0.234504
-0.322293
0.209131
0.179841
0.153491
0.131226
0.113601
0.100479
0.0912652
0.0851435
0.0812811
0.0789623
0.0776349
0.0769065
0.0765212
0.0763234
0.0762231
0.0761706
0.0761385
0.0761103
0.0760712
0.0759999
0.0758561
0.0755618
0.0749676
0.0738009
0.0715889
0.0675552
0.0605121
0.0487854
0.0301962
0.00219798
-0.0377052
-0.091302
-0.158984
-0.239103
-0.328139
0.210634
0.180934
0.154215
0.131642
0.113771
0.100465
0.0911248
0.0849185
0.0810015
0.0786497
0.0773034
0.0765646
0.0761739
0.0759736
0.0758723
0.0758197
0.0757881
0.0757606
0.0757224
0.0756517
0.075508
0.075212
0.0746124
0.0734329
0.0711939
0.0671081
0.0599712
0.0480808
0.0292298
0.000834457
-0.0396401
-0.093999
-0.162638
-0.243869
-0.334136
0.212121
0.182019
0.154948
0.132062
0.113943
0.100452
0.0909813
0.0846892
0.0807186
0.0783342
0.0769687
0.076219
0.0758221
0.075618
0.0755141
0.0754595
0.075426
0.0753963
0.0753557
0.0752818
0.0751335
0.0748305
0.0742191
0.0730191
0.0707445
0.0665972
0.0593577
0.0473021
0.0281914
-0.000603809
-0.0416484
-0.0967479
-0.166349
-0.248764
-0.340259
0.213642
0.183125
0.155668
0.132473
0.114108
0.10043
0.090829
0.0844516
0.0804274
0.0780108
0.0766269
0.075867
0.0754649
0.0752582
0.0751532
0.075098
0.0750643
0.0750346
0.0749937
0.0749193
0.0747696
0.0744631
0.0738444
0.0726293
0.0703254
0.0661237
0.0587878
0.0465722
0.0272032
-0.00197155
-0.043546
-0.0993983
-0.169936
-0.25345
-0.346158
0.215171
0.184232
0.156394
0.13289
0.114281
0.100424
0.090697
0.0842333
0.080154
0.0777042
0.0763012
0.0755306
0.0751226
0.0749127
0.0748058
0.0747496
0.0747151
0.0746847
0.0746431
0.0745675
0.0744156
0.074105
0.073478
0.0722467
0.0699121
0.0656545
0.0582214
0.045843
0.026217
-0.00335653
-0.0455108
-0.102119
-0.173609
-0.258247
-0.352237
0.216666
0.185328
0.157135
0.133317
0.114458
0.100415
0.0905556
0.0840046
0.0798702
0.0773873
0.0759651
0.0751837
0.0747694
0.0745557
0.0744463
0.0743879
0.0743515
0.074319
0.0742749
0.0741961
0.0740397
0.0737221
0.0730834
0.0718319
0.0694616
0.0651419
0.0576041
0.0450561
0.025165
-0.00479406
-0.047503
-0.104856
-0.177287
-0.263015
-0.358262
0.218157
0.186424
0.157862
0.133729
0.114626
0.100404
0.0904161
0.0837807
0.0795933
0.0770787
0.0756385
0.0748475
0.0744285
0.0742126
0.0741025
0.0740441
0.0740079
0.0739758
0.0739319
0.073853
0.0736957
0.0733752
0.0727297
0.0714637
0.069065
0.0646923
0.0570602
0.0443514
0.0241998
-0.00616211
-0.049423
-0.107527
-0.180919
-0.267789
-0.364243
0.219656
0.187521
0.158593
0.134148
0.114798
0.100392
0.0902776
0.083557
0.0793159
0.0767694
0.0753113
0.0745108
0.0740872
0.0738696
0.0737592
0.0737015
0.0736665
0.0736359
0.0735936
0.0735161
0.0733594
0.0730378
0.0723873
0.0711086
0.0686826
0.064257
0.0565294
0.0436578
0.0232466
-0.00750441
-0.0513298
-0.110187
-0.18451
-0.272491
-0.370261
0.221195
0.18864
0.159339
0.134587
0.114989
0.100397
0.090152
0.0833448
0.0790493
0.0764705
0.0749938
0.0741829
0.0737537
0.0735329
0.0734205
0.0733613
0.0733249
0.0732927
0.0732484
0.0731683
0.0730079
0.0726802
0.0720191
0.0707216
0.0682621
0.0637771
0.0559482
0.0429118
0.0222438
-0.00889304
-0.0532726
-0.112874
-0.188148
-0.27726
-0.376287
0.222718
0.189742
0.160063
0.135
0.115158
0.100382
0.0900094
0.0831186
0.0787701
0.0761593
0.0746643
0.0738434
0.0734087
0.073185
0.0730709
0.0730105
0.0729731
0.0729398
0.0728942
0.0728122
0.0726486
0.0723154
0.0716444
0.0703289
0.0678369
0.0632932
0.0553623
0.042159
0.0212299
-0.0103028
-0.0552434
-0.115591
-0.191794
-0.282017
-0.382248
0.224254
0.190866
0.160824
0.135449
0.115358
0.1004
0.0898993
0.0829219
0.0785191
0.0758758
0.074362
0.0735306
0.0730903
0.0728636
0.072748
0.0726867
0.0726485
0.0726145
0.072568
0.0724844
0.0723179
0.0719795
0.0712988
0.069965
0.0674392
0.0628367
0.0548065
0.041439
0.0202454
-0.0116859
-0.0571966
-0.118312
-0.19548
-0.28675
-0.388161
0.225778
0.191996
0.161594
0.13591
0.115572
0.100427
0.0897934
0.0827277
0.0782697
0.0755937
0.0740616
0.0732205
0.0727754
0.0725466
0.0724304
0.0723694
0.0723322
0.0722994
0.0722539
0.0721713
0.0720053
0.0716656
0.07098
0.0696338
0.0670816
0.0624282
0.054306
0.0407797
0.0193322
-0.0129814
-0.0590418
-0.12089
-0.199017
-0.291575
-0.394348
0.227318
0.193125
0.162354
0.136354
0.115772
0.100447
0.0896871
0.0825381
0.0780266
0.075318
0.0737669
0.072915
0.0724641
0.072232
0.072114
0.0720518
0.0720138
0.0719803
0.0719342
0.0718508
0.0716832
0.0713401
0.0706475
0.069287
0.0667065
0.0619996
0.0537813
0.0400893
0.0183761
-0.0143398
-0.060955
-0.123547
-0.202601
-0.296179
-0.400141
0.228867
0.194252
0.163112
0.136805
0.115976
0.100467
0.0895793
0.0823453
0.0777804
0.0750399
0.0734704
0.0726085
0.0721522
0.0719174
0.071798
0.071735
0.0716964
0.0716624
0.0716155
0.0715306
0.0713605
0.0710127
0.0703109
0.0689329
0.0663199
0.0615547
0.053236
0.039381
0.0174079
-0.0156965
-0.0628702
-0.126217
-0.206229
-0.300961
-0.406127
0.230443
0.195418