/*--------------------------------*- C++ -*----------------------------------*\
  =========                 |
  \\      /  F ield         | OpenFOAM: The Open Source CFD Toolbox
   \\    /   O peration     | Website:  https://openfoam.org
    \\  /    A nd           | Version:  13
     \\/     M anipulation  |
\*---------------------------------------------------------------------------*/
FoamFile
{
    format      ascii;
    class       volScalarField;
    location    "142.5";
    object      nut;
}
// * * * * * * * * * * * * * * * * * * * * * * * * * * * * * * * * * * * * * //

dimensions      [0 2 -1 0 0 0 0];

internalField   nonuniform List<scalar> 
315000
(
1.3368e-15
3.50157e-13
7.99199e-12
1.43503e-11
2.082e-11
2.74177e-11
3.41629e-11
4.10731e-11
4.81607e-11
5.54317e-11
6.28849e-11
7.05122e-11
7.8298e-11
8.62201e-11
9.42497e-11
1.02352e-10
1.10487e-10
1.18611e-10
1.26676e-10
1.34631e-10
1.42424e-10
1.50002e-10
1.57311e-10
1.64298e-10
1.70912e-10
1.77102e-10
1.82822e-10
1.88027e-10
1.92677e-10
1.96735e-10
2.00169e-10
2.02953e-10
2.05063e-10
2.06483e-10
2.07201e-10
2.07212e-10
2.06516e-10
2.05118e-10
2.0303e-10
2.00268e-10
1.96854e-10
1.92815e-10
1.88183e-10
1.82994e-10
1.7729e-10
1.71113e-10
1.64511e-10
1.57535e-10
1.50234e-10
1.42663e-10
1.34874e-10
1.26922e-10
1.18858e-10
1.10733e-10
1.02595e-10
9.44878e-11
8.64518e-11
7.85216e-11
7.0726e-11
6.30877e-11
5.5622e-11
4.83373e-11
4.12346e-11
3.43078e-11
2.75443e-11
2.09263e-11
1.4433e-11
8.04557e-12
3.5297e-13
1.34858e-15
3.34645e-14
8.9133e-12
2.03062e-09
3.67484e-09
5.34117e-09
7.03782e-09
8.77175e-09
1.05484e-08
1.23713e-08
1.42425e-08
1.61616e-08
1.81266e-08
2.01336e-08
2.21766e-08
2.42483e-08
2.63395e-08
2.84399e-08
3.05379e-08
3.26211e-08
3.46763e-08
3.66898e-08
3.86479e-08
4.05366e-08
4.23422e-08
4.40512e-08
4.56509e-08
4.71289e-08
4.84738e-08
4.96751e-08
5.07235e-08
5.16107e-08
5.23295e-08
5.28744e-08
5.32409e-08
5.34261e-08
5.34285e-08
5.32481e-08
5.28864e-08
5.23463e-08
5.1632e-08
5.07492e-08
4.97049e-08
4.85074e-08
4.71661e-08
4.56914e-08
4.40947e-08
4.23882e-08
4.05848e-08
3.86978e-08
3.67411e-08
3.47285e-08
3.26738e-08
3.05907e-08
2.84924e-08
2.63912e-08
2.42988e-08
2.22255e-08
2.01805e-08
1.81713e-08
1.62036e-08
1.42816e-08
1.24072e-08
1.05806e-08
8.80007e-09
7.06187e-09
5.36054e-09
3.68905e-09
2.03902e-09
8.95279e-12
3.36171e-14
1.34764e-13
3.5947e-11
2.08714e-08
3.77959e-08
5.49612e-08
7.24689e-08
9.04056e-08
1.0884e-07
1.27821e-07
1.47375e-07
1.67505e-07
1.8819e-07
2.09388e-07
2.31031e-07
2.53036e-07
2.75297e-07
2.97695e-07
3.20098e-07
3.42365e-07
3.64347e-07
3.85893e-07
4.06849e-07
4.27061e-07
4.46382e-07
4.64665e-07
4.81772e-07
4.97572e-07
5.11943e-07
5.24776e-07
5.3597e-07
5.45438e-07
5.53108e-07
5.58918e-07
5.62824e-07
5.64794e-07
5.64815e-07
5.62885e-07
5.59019e-07
5.53248e-07
5.45617e-07
5.36185e-07
5.25026e-07
5.12226e-07
4.97884e-07
4.82112e-07
4.65029e-07
4.46768e-07
4.27465e-07
4.07267e-07
3.86322e-07
3.64784e-07
3.42805e-07
3.20538e-07
2.9813e-07
2.75725e-07
2.53453e-07
2.31434e-07
2.09772e-07
1.88554e-07
1.67845e-07
1.47689e-07
1.28106e-07
1.09094e-07
9.06255e-08
7.2653e-08
5.51071e-08
3.79008e-08
2.0932e-08
3.60565e-11
1.35183e-13
2.55045e-13
6.80359e-11
3.94892e-08
7.15179e-08
1.04059e-07
1.37344e-07
1.71571e-07
2.069e-07
2.43448e-07
2.81282e-07
3.20417e-07
3.60818e-07
4.02396e-07
4.45011e-07
4.88479e-07
5.32573e-07
5.77032e-07
6.21571e-07
6.65887e-07
7.09665e-07
7.52588e-07
7.9434e-07
8.34608e-07
8.73089e-07
9.09493e-07
9.43542e-07
9.74978e-07
1.00356e-06
1.02907e-06
1.05131e-06
1.07012e-06
1.08535e-06
1.09688e-06
1.10462e-06
1.10853e-06
1.10856e-06
1.10472e-06
1.09703e-06
1.08557e-06
1.0704e-06
1.05165e-06
1.02946e-06
1.004e-06
9.75468e-07
9.44076e-07
9.10064e-07
8.73694e-07
8.35241e-07
7.94995e-07
7.53261e-07
7.10349e-07
6.66576e-07
6.22259e-07
5.77713e-07
5.33241e-07
4.89129e-07
4.45637e-07
4.02992e-07
3.61381e-07
3.20942e-07
2.81763e-07
2.43883e-07
2.07286e-07
1.71903e-07
1.3762e-07
1.04277e-07
7.16736e-08
3.95788e-08
6.81974e-11
2.55663e-13
3.94744e-13
1.05309e-10
6.10919e-08
1.10618e-07
1.60974e-07
2.12558e-07
2.65712e-07
3.20711e-07
3.77753e-07
4.36953e-07
4.98339e-07
5.61849e-07
6.27329e-07
6.94542e-07
7.63171e-07
8.32832e-07
9.0309e-07
9.73477e-07
1.0435e-06
1.11267e-06
1.18049e-06
1.24645e-06
1.31008e-06
1.3709e-06
1.42844e-06
1.48227e-06
1.53197e-06
1.57716e-06
1.6175e-06
1.65267e-06
1.6824e-06
1.70648e-06
1.7247e-06
1.73694e-06
1.74311e-06
1.74315e-06
1.73707e-06
1.72491e-06
1.70676e-06
1.68276e-06
1.6531e-06
1.618e-06
1.57773e-06
1.53259e-06
1.48295e-06
1.42917e-06
1.37167e-06
1.31089e-06
1.24729e-06
1.18135e-06
1.11355e-06
1.04439e-06
9.74358e-07
9.03962e-07
8.33688e-07
7.64003e-07
6.95344e-07
6.28093e-07
5.62569e-07
4.9901e-07
4.37569e-07
3.78308e-07
3.21202e-07
2.66135e-07
2.12909e-07
1.61249e-07
1.10814e-07
6.12049e-08
1.05514e-10
3.95526e-13
5.47111e-13
1.45966e-10
8.46222e-08
1.53147e-07
2.22809e-07
2.94192e-07
3.67793e-07
4.44006e-07
5.23113e-07
6.05269e-07
6.90502e-07
7.78706e-07
8.69645e-07
9.62958e-07
1.05817e-06
1.15473e-06
1.25202e-06
1.34937e-06
1.44612e-06
1.5416e-06
1.63513e-06
1.72605e-06
1.81371e-06
1.89745e-06
1.97666e-06
2.05073e-06
2.1191e-06
2.18125e-06
2.23671e-06
2.28505e-06
2.32591e-06
2.35898e-06
2.38401e-06
2.40082e-06
2.40928e-06
2.40933e-06
2.40096e-06
2.38425e-06
2.3593e-06
2.32632e-06
2.28555e-06
2.23729e-06
2.1819e-06
2.11982e-06
2.05151e-06
1.9775e-06
1.89834e-06
1.81464e-06
1.72702e-06
1.63612e-06
1.5426e-06
1.44713e-06
1.35038e-06
1.25302e-06
1.15572e-06
1.05913e-06
9.63884e-07
8.70529e-07
7.7954e-07
6.91278e-07
6.05981e-07
5.23755e-07
4.44574e-07
3.68282e-07
2.94598e-07
2.23128e-07
1.53374e-07
8.47525e-08
1.46202e-10
5.48017e-13
7.02378e-13
1.874e-10
1.08566e-07
1.96353e-07
2.85536e-07
3.76886e-07
4.71051e-07
5.68542e-07
6.69712e-07
7.74747e-07
8.83659e-07
9.96285e-07
1.11229e-06
1.23117e-06
1.35229e-06
1.47493e-06
1.59828e-06
1.72151e-06
1.84378e-06
1.96427e-06
2.08213e-06
2.19656e-06
2.30676e-06
2.41193e-06
2.51132e-06
2.60419e-06
2.68985e-06
2.76767e-06
2.83707e-06
2.89754e-06
2.94864e-06
2.98997e-06
3.02126e-06
3.04225e-06
3.05282e-06
3.05287e-06
3.0424e-06
3.0215e-06
2.99032e-06
2.94907e-06
2.89807e-06
2.83769e-06
2.76837e-06
2.69062e-06
2.60502e-06
2.51222e-06
2.41288e-06
2.30775e-06
2.1976e-06
2.08319e-06
1.96534e-06
1.84487e-06
1.7226e-06
1.59936e-06
1.47599e-06
1.35333e-06
1.23217e-06
1.11324e-06
9.97186e-07
8.84499e-07
7.75518e-07
6.70408e-07
5.69157e-07
4.7158e-07
3.77325e-07
2.8588e-07
1.96598e-07
1.08707e-07
1.87657e-10
7.03365e-13
8.50683e-13
2.2698e-10
1.31404e-07
2.37497e-07
3.4518e-07
4.55401e-07
5.6895e-07
6.86439e-07
8.08282e-07
9.34683e-07
1.06563e-06
1.20089e-06
1.34002e-06
1.48239e-06
1.62721e-06
1.77359e-06
1.92056e-06
2.06714e-06
2.21234e-06
2.3552e-06
2.49474e-06
2.63004e-06
2.76016e-06
2.88422e-06
3.00133e-06
3.11067e-06
3.21144e-06
3.30294e-06
3.38448e-06
3.4555e-06
3.51548e-06
3.564e-06
3.6007e-06
3.62533e-06
3.63771e-06
3.63776e-06
3.62548e-06
3.60095e-06
3.56435e-06
3.51593e-06
3.45604e-06
3.38511e-06
3.30364e-06
3.21223e-06
3.11152e-06
3.00224e-06
2.88519e-06
2.76118e-06
2.63109e-06
2.49582e-06
2.3563e-06
2.21345e-06
2.06825e-06
1.92166e-06
1.77468e-06
1.62827e-06
1.48342e-06
1.341e-06
1.20182e-06
1.06649e-06
9.35478e-07
8.09e-07
6.87074e-07
5.69496e-07
4.55853e-07
3.45535e-07
2.37749e-07
1.31549e-07
2.27246e-10
8.51707e-13
9.83964e-13
2.62556e-10
1.51904e-07
2.74373e-07
3.98565e-07
5.25586e-07
6.5635e-07
7.91554e-07
9.31663e-07
1.07689e-06
1.22719e-06
1.38227e-06
1.54158e-06
1.70437e-06
1.86972e-06
2.03659e-06
2.20388e-06
2.37048e-06
2.53529e-06
2.69721e-06
2.85517e-06
3.00815e-06
3.15512e-06
3.29509e-06
3.42712e-06
3.55028e-06
3.66372e-06
3.76665e-06
3.85836e-06
3.93818e-06
4.00558e-06
4.06008e-06
4.1013e-06
4.12896e-06
4.14286e-06
4.14291e-06
4.12911e-06
4.10155e-06
4.06043e-06
4.00602e-06
3.93871e-06
3.85897e-06
3.76735e-06
3.66449e-06
3.55112e-06
3.42802e-06
3.29605e-06
3.15612e-06
3.00919e-06
2.85624e-06
2.69829e-06
2.53639e-06
2.37159e-06
2.20498e-06
2.03767e-06
1.87078e-06
1.70539e-06
1.54256e-06
1.38319e-06
1.22805e-06
1.07768e-06
9.32379e-07
7.92187e-07
6.56893e-07
5.26036e-07
3.98918e-07
2.74623e-07
1.52049e-07
2.62821e-10
9.84989e-13
1.09704e-12
2.92745e-10
1.69281e-07
3.0559e-07
4.43708e-07
5.84872e-07
7.301e-07
8.80162e-07
1.03556e-06
1.19651e-06
1.36293e-06
1.53448e-06
1.71053e-06
1.89021e-06
2.07249e-06
2.25621e-06
2.44019e-06
2.62319e-06
2.80401e-06
2.98148e-06
3.15445e-06
3.32179e-06
3.48243e-06
3.6353e-06
3.77938e-06
3.91372e-06
4.03739e-06
4.14955e-06
4.24944e-06
4.33636e-06
4.40974e-06
4.46906e-06
4.51391e-06
4.54401e-06
4.55913e-06
4.55918e-06
4.54415e-06
4.51415e-06
4.46939e-06
4.41016e-06
4.33688e-06
4.25003e-06
4.15022e-06
4.03813e-06
3.91453e-06
3.78025e-06
3.63622e-06
3.4834e-06
3.3228e-06
3.15548e-06
2.98254e-06
2.80508e-06
2.62426e-06
2.44125e-06
2.25727e-06
2.07351e-06
1.8912e-06
1.71148e-06
1.53539e-06
1.36378e-06
1.19728e-06
1.03626e-06
8.80779e-07
7.3063e-07
5.8531e-07
4.44051e-07
3.05834e-07
1.69421e-07
2.93005e-10
1.09805e-12
1.18789e-12
3.17005e-10
1.83232e-07
3.30629e-07
4.79884e-07
6.32344e-07
7.8911e-07
9.51008e-07
1.11857e-06
1.292e-06
1.47122e-06
1.65581e-06
1.84508e-06
2.03809e-06
2.2337e-06
2.43069e-06
2.62776e-06
2.82362e-06
3.017e-06
3.20663e-06
3.39132e-06
3.56988e-06
3.74117e-06
3.90409e-06
4.05757e-06
4.2006e-06
4.33223e-06
4.45157e-06
4.55782e-06
4.65027e-06
4.72828e-06
4.79135e-06
4.83903e-06
4.87101e-06
4.88708e-06
4.88713e-06
4.87115e-06
4.83926e-06
4.79167e-06
4.72869e-06
4.65076e-06
4.55839e-06
4.45221e-06
4.33294e-06
4.20138e-06
4.05841e-06
3.90498e-06
3.7421e-06
3.57085e-06
3.39231e-06
3.20765e-06
3.01803e-06
2.82466e-06
2.62879e-06
2.43171e-06
2.2347e-06
2.03905e-06
1.84601e-06
1.65669e-06
1.47204e-06
1.29275e-06
1.11924e-06
9.51605e-07
7.89623e-07
6.32768e-07
4.80215e-07
3.30864e-07
1.83367e-07
3.17256e-10
1.18887e-12
1.2572e-12
3.35516e-10
1.9387e-07
3.49709e-07
5.07435e-07
6.68478e-07
8.34005e-07
1.00488e-06
1.18166e-06
1.36456e-06
1.55346e-06
1.74791e-06
1.94718e-06
2.15023e-06
2.3559e-06
2.56288e-06
2.76981e-06
2.97534e-06
3.17815e-06
3.37692e-06
3.5704e-06
3.75738e-06
3.93667e-06
4.10712e-06
4.26765e-06
4.4172e-06
4.55479e-06
4.67951e-06
4.79053e-06
4.88712e-06
4.96862e-06
5.0345e-06
5.08432e-06
5.11773e-06
5.13452e-06
5.13457e-06
5.11787e-06
5.08454e-06
5.03481e-06
4.96901e-06
4.88759e-06
4.79108e-06
4.68013e-06
4.55548e-06
4.41795e-06
4.26845e-06
4.10798e-06
3.93757e-06
3.75831e-06
3.57136e-06
3.3779e-06
3.17914e-06
2.97634e-06
2.7708e-06
2.56386e-06
2.35686e-06
2.15116e-06
1.94807e-06
1.74876e-06
1.55425e-06
1.36528e-06
1.18231e-06
1.00546e-06
8.34499e-07
6.68886e-07
5.07753e-07
3.49935e-07
1.94e-07
3.35758e-10
1.25814e-12
1.30753e-12
3.48961e-10
2.01595e-07
3.63556e-07
5.27422e-07
6.94685e-07
8.66558e-07
1.04394e-06
1.2274e-06
1.41714e-06
1.61305e-06
1.81464e-06
2.02113e-06
2.23146e-06
2.44439e-06
2.65858e-06
2.87264e-06
3.08515e-06
3.29476e-06
3.50013e-06
3.69996e-06
3.89301e-06
4.07807e-06
4.25396e-06
4.41957e-06
4.57382e-06
4.71572e-06
4.84433e-06
4.9588e-06
5.05839e-06
5.14244e-06
5.21038e-06
5.26177e-06
5.29623e-06
5.31355e-06
5.31359e-06
5.29636e-06
5.26198e-06
5.21068e-06
5.14281e-06
5.05884e-06
4.95933e-06
4.84493e-06
4.71638e-06
4.57455e-06
4.42035e-06
4.25479e-06
4.07894e-06
3.89392e-06
3.70089e-06
3.50108e-06
3.29572e-06
3.08612e-06
2.8736e-06
2.65953e-06
2.44532e-06
2.23236e-06
2.02199e-06
1.81546e-06
1.61382e-06
1.41785e-06
1.22803e-06
1.0445e-06
8.67037e-07
6.9508e-07
5.27729e-07
3.63774e-07
2.0172e-07
3.49196e-10
1.30844e-12
1.34239e-12
3.5828e-10
2.06947e-07
3.73148e-07
5.41265e-07
7.12836e-07
8.89104e-07
1.07099e-06
1.25907e-06
1.45357e-06
1.65434e-06
1.86088e-06
2.07238e-06
2.28775e-06
2.50572e-06
2.72491e-06
2.9439e-06
3.16127e-06
3.3756e-06
3.58554e-06
3.78978e-06
3.98705e-06
4.17611e-06
4.35578e-06
4.52491e-06
4.68244e-06
4.82732e-06
4.95863e-06
5.07552e-06
5.17722e-06
5.26305e-06
5.33245e-06
5.38493e-06
5.42013e-06
5.43781e-06
5.43785e-06
5.42026e-06
5.38514e-06
5.33274e-06
5.26342e-06
5.17766e-06
5.07603e-06
4.95922e-06
4.82797e-06
4.68314e-06
4.52567e-06
4.35658e-06
4.17695e-06
3.98793e-06
3.79069e-06
3.58647e-06
3.37654e-06
3.16221e-06
2.94485e-06
2.72584e-06
2.50663e-06
2.28863e-06
2.07322e-06
1.86168e-06
1.65508e-06
1.45426e-06
1.25969e-06
1.07154e-06
8.89572e-07
7.13221e-07
5.41565e-07
3.7336e-07
2.07069e-07
3.58509e-10
1.34329e-12
1.36549e-12
3.64455e-10
2.10494e-07
3.79504e-07
5.50439e-07
7.24864e-07
9.04049e-07
1.08893e-06
1.28008e-06
1.47774e-06
1.68173e-06
1.89157e-06
2.1064e-06
2.32513e-06
2.54646e-06
2.76899e-06
2.99127e-06
3.21187e-06
3.42935e-06
3.64235e-06
3.84953e-06
4.04961e-06
4.24135e-06
4.42354e-06
4.59504e-06
4.75475e-06
4.90164e-06
5.03476e-06
5.15327e-06
5.25639e-06
5.34343e-06
5.4138e-06
5.46701e-06
5.50271e-06
5.52064e-06
5.52068e-06
5.50283e-06
5.46722e-06
5.41408e-06
5.34379e-06
5.25683e-06
5.15378e-06
5.03533e-06
4.90227e-06
4.75544e-06
4.59578e-06
4.42433e-06
4.24218e-06
4.05048e-06
3.85042e-06
3.64326e-06
3.43027e-06
3.2128e-06
2.9922e-06
2.76991e-06
2.54736e-06
2.326e-06
2.10723e-06
1.89236e-06
1.68247e-06
1.47841e-06
1.28069e-06
1.08947e-06
9.04509e-07
7.25244e-07
5.50734e-07
3.79713e-07
2.10614e-07
3.64681e-10
1.36637e-12
1.38016e-12
3.68377e-10
2.12747e-07
3.83541e-07
5.56266e-07
7.32507e-07
9.13547e-07
1.10033e-06
1.29345e-06
1.49311e-06
1.69918e-06
1.91112e-06
2.12808e-06
2.34896e-06
2.57244e-06
2.79711e-06
3.02151e-06
3.24418e-06
3.46368e-06
3.67864e-06
3.88772e-06
4.08961e-06
4.28307e-06
4.46688e-06
4.6399e-06
4.80102e-06
4.9492e-06
5.0835e-06
5.20306e-06
5.3071e-06
5.39492e-06
5.46592e-06
5.51961e-06
5.55562e-06
5.57371e-06
5.57375e-06
5.55574e-06
5.51981e-06
5.4662e-06
5.39528e-06
5.30753e-06
5.20356e-06
5.08407e-06
4.94983e-06
4.80171e-06
4.64064e-06
4.46767e-06
4.28389e-06
4.09047e-06
3.8886e-06
3.67955e-06
3.4646e-06
3.2451e-06
3.02243e-06
2.79802e-06
2.57333e-06
2.34982e-06
2.12891e-06
1.9119e-06
1.69991e-06
1.49378e-06
1.29405e-06
1.10086e-06
9.14003e-07
7.32882e-07
5.56558e-07
3.83748e-07
2.12866e-07
3.686e-10
1.38103e-12
1.3891e-12
3.70768e-10
2.14121e-07
3.86003e-07
5.59821e-07
7.37171e-07
9.19346e-07
1.1073e-06
1.30161e-06
1.50252e-06
1.70985e-06
1.92308e-06
2.14137e-06
2.36357e-06
2.58838e-06
2.81437e-06
3.04007e-06
3.26402e-06
3.48478e-06
3.70095e-06
3.9112e-06
4.11421e-06
4.30874e-06
4.49356e-06
4.66752e-06
4.82951e-06
4.97849e-06
5.11353e-06
5.23375e-06
5.33836e-06
5.42666e-06
5.49805e-06
5.55204e-06
5.58825e-06
5.60644e-06
5.60648e-06
5.58837e-06
5.55224e-06
5.49833e-06
5.42702e-06
5.33879e-06
5.23425e-06
5.11409e-06
4.97912e-06
4.8302e-06
4.66826e-06
4.49434e-06
4.30956e-06
4.11507e-06
3.91208e-06
3.70185e-06
3.48569e-06
3.26494e-06
3.04099e-06
2.81527e-06
2.58926e-06
2.36443e-06
2.14219e-06
1.92386e-06
1.71058e-06
1.50319e-06
1.30222e-06
1.10783e-06
9.19799e-07
7.37544e-07
5.60111e-07
3.86208e-07
2.14239e-07
3.7099e-10
1.38996e-12
1.39433e-12
3.7217e-10
2.14927e-07
3.87448e-07
5.61907e-07
7.39909e-07
9.22752e-07
1.11139e-06
1.30642e-06
1.50805e-06
1.71613e-06
1.93014e-06
2.1492e-06
2.37219e-06
2.59779e-06
2.82456e-06
3.05104e-06
3.27576e-06
3.49726e-06
3.71416e-06
3.92511e-06
4.12879e-06
4.32395e-06
4.50938e-06
4.68391e-06
4.84642e-06
4.99588e-06
5.13135e-06
5.25197e-06
5.35693e-06
5.44552e-06
5.51714e-06
5.5713e-06
5.60763e-06
5.62588e-06
5.62592e-06
5.60776e-06
5.5715e-06
5.51742e-06
5.44587e-06
5.35735e-06
5.25247e-06
5.13192e-06
4.99651e-06
4.8471e-06
4.68464e-06
4.51016e-06
4.32477e-06
4.12964e-06
3.92598e-06
3.71506e-06
3.49817e-06
3.27667e-06
3.05196e-06
2.82547e-06
2.59867e-06
2.37305e-06
2.15002e-06
1.93091e-06
1.71686e-06
1.50872e-06
1.30702e-06
1.11192e-06
9.23204e-07
7.40282e-07
5.62196e-07
3.87652e-07
2.15044e-07
3.72391e-10
1.3952e-12
1.39729e-12
3.72962e-10
2.15382e-07
3.88264e-07
5.63086e-07
7.41458e-07
9.2468e-07
1.11371e-06
1.30914e-06
1.51119e-06
1.7197e-06
1.93414e-06
2.15365e-06
2.37709e-06
2.60314e-06
2.83037e-06
3.0573e-06
3.28245e-06
3.50438e-06
3.7217e-06
3.93305e-06
4.13712e-06
4.33265e-06
4.51843e-06
4.69328e-06
4.8561e-06
5.00584e-06
5.14156e-06
5.2624e-06
5.36756e-06
5.45632e-06
5.52808e-06
5.58235e-06
5.61875e-06
5.63703e-06
5.63707e-06
5.61887e-06
5.58255e-06
5.52836e-06
5.45668e-06
5.36799e-06
5.2629e-06
5.14213e-06
5.00646e-06
4.85678e-06
4.69401e-06
4.51921e-06
4.33347e-06
4.13797e-06
3.93393e-06
3.7226e-06
3.50529e-06
3.28336e-06
3.05821e-06
2.83127e-06
2.60403e-06
2.37795e-06
2.15447e-06
1.93492e-06
1.72043e-06
1.51186e-06
1.30974e-06
1.11424e-06
9.25132e-07
7.4183e-07
5.63375e-07
3.88468e-07
2.15499e-07
3.73183e-10
1.39815e-12
1.3989e-12
3.73394e-10
2.1563e-07
3.88709e-07
5.6373e-07
7.42304e-07
9.25733e-07
1.11498e-06
1.31063e-06
1.51291e-06
1.72166e-06
1.93634e-06
2.1561e-06
2.37979e-06
2.60609e-06
2.83357e-06
3.06074e-06
3.28614e-06
3.50831e-06
3.72586e-06
3.93743e-06
4.14172e-06
4.33745e-06
4.52342e-06
4.69846e-06
4.86144e-06
5.01134e-06
5.14721e-06
5.26818e-06
5.37345e-06
5.4623e-06
5.53414e-06
5.58846e-06
5.6249e-06
5.6432e-06
5.64324e-06
5.62502e-06
5.58866e-06
5.53441e-06
5.46265e-06
5.37387e-06
5.26868e-06
5.14777e-06
5.01196e-06
4.86213e-06
4.69919e-06
4.5242e-06
4.33827e-06
4.14257e-06
3.93831e-06
3.72676e-06
3.50922e-06
3.28705e-06
3.06165e-06
2.83447e-06
2.60697e-06
2.38064e-06
2.15692e-06
1.93712e-06
1.72238e-06
1.51357e-06
1.31123e-06
1.11551e-06
9.26185e-07
7.42676e-07
5.64019e-07
3.88914e-07
2.15748e-07
3.73614e-10
1.39977e-12
1.39975e-12
3.73621e-10
2.15761e-07
3.88944e-07
5.64069e-07
7.4275e-07
9.26289e-07
1.11565e-06
1.31142e-06
1.51382e-06
1.72269e-06
1.9375e-06
2.15739e-06
2.38122e-06
2.60765e-06
2.83526e-06
3.06257e-06
3.2881e-06
3.5104e-06
3.72808e-06
3.93977e-06
4.14417e-06
4.34002e-06
4.52609e-06
4.70122e-06
4.8643e-06
5.01428e-06
5.15023e-06
5.27127e-06
5.37659e-06
5.4655e-06
5.53738e-06
5.59173e-06
5.62819e-06
5.6465e-06
5.64654e-06
5.62831e-06
5.59193e-06
5.53765e-06
5.46585e-06
5.37702e-06
5.27176e-06
5.15079e-06
5.01491e-06
4.86498e-06
4.70196e-06
4.52687e-06
4.34084e-06
4.14502e-06
3.94065e-06
3.72897e-06
3.51131e-06
3.28901e-06
3.06348e-06
2.83617e-06
2.60854e-06
2.38207e-06
2.15821e-06
1.93828e-06
1.72342e-06
1.51448e-06
1.31202e-06
1.11617e-06
9.26741e-07
7.43122e-07
5.64358e-07
3.89148e-07
2.15878e-07
3.73842e-10
1.40061e-12
1.40018e-12
3.73737e-10
2.15827e-07
3.89063e-07
5.64242e-07
7.42977e-07
9.26572e-07
1.11599e-06
1.31182e-06
1.51428e-06
1.72322e-06
1.9381e-06
2.15806e-06
2.38195e-06
2.60846e-06
2.83614e-06
3.06351e-06
3.28911e-06
3.51148e-06
3.72922e-06
3.94097e-06
4.14544e-06
4.34134e-06
4.52747e-06
4.70265e-06
4.86578e-06
5.0158e-06
5.15179e-06
5.27286e-06
5.37822e-06
5.46715e-06
5.53905e-06
5.59342e-06
5.62989e-06
5.64821e-06
5.64825e-06
5.63002e-06
5.59362e-06
5.53933e-06
5.46751e-06
5.37865e-06
5.27336e-06
5.15235e-06
5.01643e-06
4.86646e-06
4.70339e-06
4.52825e-06
4.34216e-06
4.14629e-06
3.94185e-06
3.73012e-06
3.51239e-06
3.29002e-06
3.06443e-06
2.83704e-06
2.60934e-06
2.38281e-06
2.15888e-06
1.93888e-06
1.72395e-06
1.51495e-06
1.31242e-06
1.11652e-06
9.27025e-07
7.43349e-07
5.64531e-07
3.89268e-07
2.15945e-07
3.73957e-10
1.40105e-12
1.4004e-12
3.73794e-10
2.1586e-07
3.89122e-07
5.64327e-07
7.43089e-07
9.26713e-07
1.11616e-06
1.31202e-06
1.51451e-06
1.72348e-06
1.9384e-06
2.15839e-06
2.38232e-06
2.60886e-06
2.83657e-06
3.06398e-06
3.28961e-06
3.51202e-06
3.72979e-06
3.94158e-06
4.14607e-06
4.342e-06
4.52816e-06
4.70337e-06
4.86652e-06
5.01656e-06
5.15257e-06
5.27366e-06
5.37904e-06
5.46799e-06
5.53989e-06
5.59427e-06
5.63075e-06
5.64907e-06
5.64911e-06
5.63087e-06
5.59447e-06
5.54017e-06
5.46834e-06
5.37947e-06
5.27416e-06
5.15314e-06
5.01719e-06
4.8672e-06
4.7041e-06
4.52894e-06
4.34282e-06
4.14692e-06
3.94245e-06
3.73069e-06
3.51293e-06
3.29053e-06
3.0649e-06
2.83747e-06
2.60974e-06
2.38317e-06
2.15921e-06
1.93917e-06
1.72421e-06
1.51518e-06
1.31262e-06
1.11669e-06
9.27165e-07
7.43462e-07
5.64617e-07
3.89327e-07
2.15978e-07
3.74015e-10
1.40126e-12
1.4005e-12
3.73821e-10
2.15876e-07
3.8915e-07
5.64368e-07
7.43143e-07
9.2678e-07
1.11624e-06
1.31211e-06
1.51462e-06
1.72361e-06
1.93854e-06
2.15855e-06
2.38249e-06
2.60905e-06
2.83678e-06
3.06421e-06
3.28986e-06
3.51228e-06
3.73006e-06
3.94187e-06
4.14638e-06
4.34233e-06
4.52849e-06
4.70372e-06
4.86688e-06
5.01693e-06
5.15295e-06
5.27405e-06
5.37944e-06
5.46839e-06
5.5403e-06
5.59469e-06
5.63117e-06
5.64949e-06
5.64953e-06
5.63129e-06
5.59489e-06
5.54058e-06
5.46874e-06
5.37986e-06
5.27455e-06
5.15352e-06
5.01756e-06
4.86756e-06
4.70445e-06
4.52927e-06
4.34314e-06
4.14723e-06
3.94275e-06
3.73096e-06
3.51319e-06
3.29077e-06
3.06512e-06
2.83768e-06
2.60993e-06
2.38335e-06
2.15937e-06
1.93932e-06
1.72434e-06
1.51529e-06
1.31271e-06
1.11677e-06
9.27232e-07
7.43516e-07
5.64657e-07
3.89355e-07
2.15994e-07
3.74042e-10
1.40136e-12
1.40055e-12
3.73833e-10
2.15883e-07
3.89163e-07
5.64387e-07
7.43168e-07
9.26811e-07
1.11628e-06
1.31216e-06
1.51468e-06
1.72367e-06
1.93861e-06
2.15862e-06
2.38257e-06
2.60914e-06
2.83688e-06
3.06432e-06
3.28997e-06
3.5124e-06
3.73019e-06
3.94201e-06
4.14652e-06
4.34248e-06
4.52865e-06
4.70388e-06
4.86705e-06
5.01711e-06
5.15313e-06
5.27424e-06
5.37962e-06
5.46858e-06
5.5405e-06
5.59488e-06
5.63136e-06
5.64969e-06
5.64973e-06
5.63148e-06
5.59508e-06
5.54078e-06
5.46893e-06
5.38005e-06
5.27474e-06
5.1537e-06
5.01773e-06
4.86773e-06
4.70461e-06
4.52943e-06
4.34329e-06
4.14737e-06
3.94288e-06
3.73109e-06
3.51331e-06
3.29089e-06
3.06523e-06
2.83778e-06
2.61002e-06
2.38343e-06
2.15944e-06
1.93938e-06
1.72439e-06
1.51534e-06
1.31276e-06
1.1168e-06
9.27264e-07
7.43541e-07
5.64676e-07
3.89368e-07
2.16001e-07
3.74055e-10
1.40141e-12
1.40057e-12
3.73839e-10
2.15887e-07
3.89169e-07
5.64395e-07
7.43179e-07
9.26825e-07
1.11629e-06
1.31218e-06
1.5147e-06
1.7237e-06
1.93864e-06
2.15865e-06
2.38261e-06
2.60918e-06
2.83693e-06
3.06436e-06
3.29002e-06
3.51245e-06
3.73025e-06
3.94207e-06
4.14659e-06
4.34255e-06
4.52872e-06
4.70395e-06
4.86712e-06
5.01719e-06
5.15321e-06
5.27432e-06
5.37971e-06
5.46867e-06
5.54059e-06
5.59497e-06
5.63145e-06
5.64978e-06
5.64982e-06
5.63157e-06
5.59517e-06
5.54086e-06
5.46902e-06
5.38014e-06
5.27482e-06
5.15378e-06
5.01781e-06
4.86781e-06
4.70469e-06
4.5295e-06
4.34336e-06
4.14744e-06
3.94295e-06
3.73115e-06
3.51336e-06
3.29094e-06
3.06528e-06
2.83783e-06
2.61007e-06
2.38347e-06
2.15948e-06
1.93941e-06
1.72442e-06
1.51537e-06
1.31278e-06
1.11682e-06
9.27278e-07
7.43552e-07
5.64685e-07
3.89374e-07
2.16004e-07
3.7406e-10
1.40143e-12
1.40058e-12
3.73842e-10
2.15888e-07
3.89172e-07
5.64399e-07
7.43184e-07
9.26831e-07
1.1163e-06
1.31219e-06
1.51471e-06
1.72371e-06
1.93865e-06
2.15867e-06
2.38263e-06
2.6092e-06
2.83695e-06
3.06439e-06
3.29005e-06
3.51248e-06
3.73028e-06
3.9421e-06
4.14662e-06
4.34258e-06
4.52876e-06
4.70399e-06
4.86716e-06
5.01722e-06
5.15325e-06
5.27436e-06
5.37975e-06
5.46871e-06
5.54062e-06
5.59501e-06
5.63149e-06
5.64982e-06
5.64986e-06
5.63161e-06
5.59521e-06
5.5409e-06
5.46906e-06
5.38018e-06
5.27486e-06
5.15381e-06
5.01785e-06
4.86784e-06
4.70472e-06
4.52954e-06
4.34339e-06
4.14747e-06
3.94297e-06
3.73118e-06
3.51339e-06
3.29096e-06
3.0653e-06
2.83785e-06
2.61008e-06
2.38349e-06
2.15949e-06
1.93943e-06
1.72443e-06
1.51538e-06
1.31279e-06
1.11683e-06
9.27284e-07
7.43557e-07
5.64689e-07
3.89377e-07
2.16006e-07
3.74063e-10
1.40144e-12
1.40058e-12
3.73843e-10
2.15889e-07
3.89173e-07
5.64401e-07
7.43187e-07
9.26834e-07
1.1163e-06
1.31219e-06
1.51471e-06
1.72371e-06
1.93866e-06
2.15868e-06
2.38264e-06
2.60921e-06
2.83695e-06
3.0644e-06
3.29006e-06
3.51249e-06
3.73029e-06
3.94211e-06
4.14663e-06
4.34259e-06
4.52877e-06
4.704e-06
4.86717e-06
5.01724e-06
5.15327e-06
5.27438e-06
5.37976e-06
5.46872e-06
5.54064e-06
5.59503e-06
5.63151e-06
5.64983e-06
5.64987e-06
5.63163e-06
5.59523e-06
5.54092e-06
5.46908e-06
5.38019e-06
5.27487e-06
5.15383e-06
5.01787e-06
4.86786e-06
4.70474e-06
4.52955e-06
4.34341e-06
4.14748e-06
3.94299e-06
3.73119e-06
3.5134e-06
3.29097e-06
3.06531e-06
2.83786e-06
2.61009e-06
2.38349e-06
2.1595e-06
1.93943e-06
1.72444e-06
1.51538e-06
1.31279e-06
1.11683e-06
9.27287e-07
7.43559e-07
5.6469e-07
3.89378e-07
2.16006e-07
3.74064e-10
1.40144e-12
1.40058e-12
3.73843e-10
2.15889e-07
3.89173e-07
5.64401e-07
7.43187e-07
9.26835e-07
1.1163e-06
1.31219e-06
1.51472e-06
1.72371e-06
1.93866e-06
2.15868e-06
2.38264e-06
2.60921e-06
2.83696e-06
3.0644e-06
3.29006e-06
3.51249e-06
3.7303e-06
3.94211e-06
4.14663e-06
4.3426e-06
4.52878e-06
4.70401e-06
4.86718e-06
5.01725e-06
5.15327e-06
5.27438e-06
5.37977e-06
5.46873e-06
5.54065e-06
5.59504e-06
5.63152e-06
5.64984e-06
5.64988e-06
5.63164e-06
5.59524e-06
5.54093e-06
5.46909e-06
5.3802e-06
5.27488e-06
5.15384e-06
5.01787e-06
4.86786e-06
4.70474e-06
4.52956e-06
4.34341e-06
4.14749e-06
3.94299e-06
3.73119e-06
3.5134e-06
3.29098e-06
3.06531e-06
2.83786e-06
2.61009e-06
2.3835e-06
2.1595e-06
1.93943e-06
1.72444e-06
1.51538e-06
1.31279e-06
1.11683e-06
9.27288e-07
7.4356e-07
5.64691e-07
3.89378e-07
2.16006e-07
3.74064e-10
1.40144e-12
1.40058e-12
3.73843e-10
2.15889e-07
3.89174e-07
5.64402e-07
7.43188e-07
9.26835e-07
1.11631e-06
1.31219e-06
1.51472e-06
1.72372e-06
1.93866e-06
2.15868e-06
2.38264e-06
2.60921e-06
2.83696e-06
3.0644e-06
3.29006e-06
3.5125e-06
3.7303e-06
3.94212e-06
4.14664e-06
4.3426e-06
4.52878e-06
4.70401e-06
4.86718e-06
5.01725e-06
5.15327e-06
5.27438e-06
5.37977e-06
5.46873e-06
5.54065e-06
5.59504e-06
5.63152e-06
5.64984e-06
5.64988e-06
5.63164e-06
5.59524e-06
5.54093e-06
5.46909e-06
5.3802e-06
5.27488e-06
5.15384e-06
5.01787e-06
4.86787e-06
4.70474e-06
4.52956e-06
4.34342e-06
4.14749e-06
3.94299e-06
3.7312e-06
3.51341e-06
3.29098e-06
3.06531e-06
2.83786e-06
2.6101e-06
2.3835e-06
2.1595e-06
1.93944e-06
1.72444e-06
1.51538e-06
1.31279e-06
1.11683e-06
9.27288e-07
7.4356e-07
5.64691e-07
3.89378e-07
2.16007e-07
3.74064e-10
1.40144e-12
1.40058e-12
3.73843e-10
2.15889e-07
3.89174e-07
5.64402e-07
7.43188e-07
9.26836e-07
1.11631e-06
1.31219e-06
1.51472e-06
1.72372e-06
1.93866e-06
2.15868e-06
2.38264e-06
2.60921e-06
2.83696e-06
3.0644e-06
3.29006e-06
3.5125e-06
3.7303e-06
3.94212e-06
4.14664e-06
4.3426e-06
4.52878e-06
4.70401e-06
4.86718e-06
5.01725e-06
5.15328e-06
5.27439e-06
5.37978e-06
5.46873e-06
5.54065e-06
5.59504e-06
5.63152e-06
5.64984e-06
5.64989e-06
5.63164e-06
5.59524e-06
5.54093e-06
5.46909e-06
5.3802e-06
5.27488e-06
5.15384e-06
5.01788e-06
4.86787e-06
4.70475e-06
4.52956e-06
4.34342e-06
4.14749e-06
3.94299e-06
3.7312e-06
3.51341e-06
3.29098e-06
3.06532e-06
2.83786e-06
2.6101e-06
2.3835e-06
2.1595e-06
1.93944e-06
1.72444e-06
1.51538e-06
1.31279e-06
1.11683e-06
9.27288e-07
7.4356e-07
5.64691e-07
3.89378e-07
2.16007e-07
3.74064e-10
1.40144e-12
1.40058e-12
3.73843e-10
2.15889e-07
3.89174e-07
5.64402e-07
7.43188e-07
9.26836e-07
1.11631e-06
1.31219e-06
1.51472e-06
1.72372e-06
1.93866e-06
2.15868e-06
2.38264e-06
2.60921e-06
2.83696e-06
3.0644e-06
3.29006e-06
3.5125e-06
3.7303e-06
3.94212e-06
4.14664e-06
4.3426e-06
4.52878e-06
4.70401e-06
4.86718e-06
5.01725e-06
5.15328e-06
5.27439e-06
5.37978e-06
5.46873e-06
5.54065e-06
5.59504e-06
5.63152e-06
5.64985e-06
5.64989e-06
5.63164e-06
5.59524e-06
5.54093e-06
5.46909e-06
5.3802e-06
5.27488e-06
5.15384e-06
5.01788e-06
4.86787e-06
4.70475e-06
4.52956e-06
4.34342e-06
4.14749e-06
3.94299e-06
3.7312e-06
3.51341e-06
3.29098e-06
3.06532e-06
2.83786e-06
2.6101e-06
2.3835e-06
2.1595e-06
1.93944e-06
1.72444e-06
1.51538e-06
1.31279e-06
1.11683e-06
9.27288e-07
7.4356e-07
5.64691e-07
3.89379e-07
2.16007e-07
3.74064e-10
1.40144e-12
1.40058e-12
3.73843e-10
2.15889e-07
3.89174e-07
5.64402e-07
7.43188e-07
9.26836e-07
1.11631e-06
1.31219e-06
1.51472e-06
1.72372e-06
1.93866e-06
2.15868e-06
2.38264e-06
2.60921e-06
2.83696e-06
3.0644e-06
3.29006e-06
3.5125e-06
3.7303e-06
3.94212e-06
4.14664e-06
4.3426e-06
4.52878e-06
4.70401e-06
4.86718e-06
5.01725e-06
5.15328e-06
5.27439e-06
5.37978e-06
5.46873e-06
5.54065e-06
5.59504e-06
5.63152e-06
5.64985e-06
5.64989e-06
5.63164e-06
5.59524e-06
5.54093e-06
5.46909e-06
5.3802e-06
5.27488e-06
5.15384e-06
5.01788e-06
4.86787e-06
4.70475e-06
4.52956e-06
4.34342e-06
4.14749e-06
3.94299e-06
3.7312e-06
3.51341e-06
3.29098e-06
3.06532e-06
2.83786e-06
2.6101e-06
2.3835e-06
2.1595e-06
1.93944e-06
1.72444e-06
1.51538e-06
1.31279e-06
1.11683e-06
9.27288e-07
7.4356e-07
5.64691e-07
3.89379e-07
2.16007e-07
3.74064e-10
1.40144e-12
1.40058e-12
3.73843e-10
2.15889e-07
3.89174e-07
5.64402e-07
7.43188e-07
9.26836e-07
1.11631e-06
1.31219e-06
1.51472e-06
1.72372e-06
1.93866e-06
2.15868e-06
2.38264e-06
2.60921e-06
2.83696e-06
3.0644e-06
3.29006e-06
3.5125e-06
3.7303e-06
3.94212e-06
4.14664e-06
4.3426e-06
4.52878e-06
4.70401e-06
4.86718e-06
5.01725e-06
5.15328e-06
5.27439e-06
5.37978e-06
5.46873e-06
5.54065e-06
5.59504e-06
5.63152e-06
5.64985e-06
5.64989e-06
5.63164e-06
5.59524e-06
5.54093e-06
5.46909e-06
5.3802e-06
5.27488e-06
5.15384e-06
5.01788e-06
4.86787e-06
4.70475e-06
4.52956e-06
4.34342e-06
4.14749e-06
3.94299e-06
3.7312e-06
3.51341e-06
3.29098e-06
3.06532e-06
2.83786e-06
2.6101e-06
2.3835e-06
2.1595e-06
1.93944e-06
1.72444e-06
1.51538e-06
1.31279e-06
1.11683e-06
9.27288e-07
7.4356e-07
5.64691e-07
3.89379e-07
2.16007e-07
3.74064e-10
1.40144e-12
1.40058e-12
3.73843e-10
2.15889e-07
3.89174e-07
5.64402e-07
7.43188e-07
9.26836e-07
1.11631e-06
1.31219e-06
1.51472e-06
1.72372e-06
1.93866e-06
2.15868e-06
2.38264e-06
2.60921e-06
2.83696e-06
3.0644e-06
3.29006e-06
3.5125e-06
3.7303e-06
3.94212e-06
4.14664e-06
4.3426e-06
4.52878e-06
4.70401e-06
4.86718e-06
5.01725e-06
5.15328e-06
5.27439e-06
5.37978e-06
5.46873e-06
5.54065e-06
5.59504e-06
5.63152e-06
5.64985e-06
5.64989e-06
5.63164e-06
5.59524e-06
5.54093e-06
5.46909e-06
5.3802e-06
5.27488e-06
5.15384e-06
5.01788e-06
4.86787e-06
4.70475e-06
4.52956e-06
4.34342e-06
4.14749e-06
3.94299e-06
3.7312e-06
3.51341e-06
3.29098e-06
3.06532e-06
2.83786e-06
2.6101e-06
2.3835e-06
2.1595e-06
1.93944e-06
1.72444e-06
1.51538e-06
1.31279e-06
1.11683e-06
9.27288e-07
7.4356e-07
5.64691e-07
3.89379e-07
2.16007e-07
3.74064e-10
1.40145e-12
1.40058e-12
3.73843e-10
2.15889e-07
3.89174e-07
5.64402e-07
7.43188e-07
9.26836e-07
1.11631e-06
1.31219e-06
1.51472e-06
1.72372e-06
1.93866e-06
2.15868e-06
2.38264e-06
2.60921e-06