/*--------------------------------*- C++ -*----------------------------------*\
  =========                 |
  \\      /  F ield         | OpenFOAM: The Open Source CFD Toolbox
   \\    /   O peration     | Website:  https://openfoam.org
    \\  /    A nd           | Version:  13
     \\/     M anipulation  |
\*---------------------------------------------------------------------------*/
FoamFile
{
    format      ascii;
    class       volScalarField;
    location    "167.5";
    object      nut;
}
// * * * * * * * * * * * * * * * * * * * * * * * * * * * * * * * * * * * * * //

dimensions      [0 2 -1 0 0 0 0];

internalField   nonuniform List<scalar> 
315000
(
4.07801e-16
1.06831e-13
2.43861e-12
4.37937e-12
6.35518e-12
8.37155e-12
1.0435e-11
1.25512e-11
1.47244e-11
1.6957e-11
1.92491e-11
2.15985e-11
2.4001e-11
2.645e-11
2.89371e-11
3.14518e-11
3.39821e-11
3.65142e-11
3.90333e-11
4.15235e-11
4.39683e-11
4.63505e-11
4.86528e-11
5.08581e-11
5.29493e-11
5.491e-11
5.67245e-11
5.83781e-11
5.98572e-11
6.11496e-11
6.22443e-11
6.31323e-11
6.38059e-11
6.42595e-11
6.44892e-11
6.4493e-11
6.42709e-11
6.38248e-11
6.31585e-11
6.22776e-11
6.11897e-11
5.99038e-11
5.84307e-11
5.67826e-11
5.49731e-11
5.30169e-11
5.09296e-11
4.87276e-11
4.64279e-11
4.40476e-11
4.16042e-11
3.91146e-11
3.65955e-11
3.40628e-11
3.15313e-11
2.90148e-11
2.65253e-11
2.40733e-11
2.16675e-11
1.93142e-11
1.70179e-11
1.47807e-11
1.26024e-11
1.04807e-11
8.41138e-12
6.38843e-12
4.40509e-12
2.45518e-12
1.07695e-13
4.11411e-16
1.02133e-14
2.72068e-12
6.19929e-10
1.12213e-09
1.63139e-09
2.15036e-09
2.68128e-09
3.22593e-09
3.78555e-09
4.3608e-09
4.95178e-09
5.55796e-09
6.17824e-09
6.81093e-09
7.45383e-09
8.10421e-09
8.75891e-09
9.41437e-09
1.00667e-08
1.07118e-08
1.13453e-08
1.19627e-08
1.25595e-08
1.31313e-08
1.36735e-08
1.4182e-08
1.46527e-08
1.50816e-08
1.54652e-08
1.58004e-08
1.60844e-08
1.63147e-08
1.64894e-08
1.66069e-08
1.66664e-08
1.66672e-08
1.66094e-08
1.64935e-08
1.63205e-08
1.60917e-08
1.58093e-08
1.54755e-08
1.50931e-08
1.46654e-08
1.41959e-08
1.36884e-08
1.3147e-08
1.25759e-08
1.19796e-08
1.13626e-08
1.07294e-08
1.00844e-08
9.43205e-09
8.77641e-09
8.12139e-09
7.47056e-09
6.82708e-09
6.19369e-09
5.5726e-09
4.96551e-09
4.37352e-09
3.79715e-09
3.23633e-09
2.69039e-09
2.15806e-09
1.63757e-09
1.12664e-09
6.22587e-10
2.73312e-12
1.02614e-14
4.12269e-14
1.09982e-11
6.38969e-09
1.15789e-08
1.68497e-08
2.22344e-08
2.77614e-08
3.34535e-08
3.93275e-08
4.53934e-08
5.16541e-08
5.81056e-08
6.47362e-08
7.15278e-08
7.84553e-08
8.54877e-08
9.25888e-08
9.97176e-08
1.06829e-07
1.13876e-07
1.20809e-07
1.27575e-07
1.34125e-07
1.40406e-07
1.46368e-07
1.51963e-07
1.57144e-07
1.61869e-07
1.66096e-07
1.69791e-07
1.72921e-07
1.7546e-07
1.77385e-07
1.78681e-07
1.79335e-07
1.79342e-07
1.78703e-07
1.77422e-07
1.75511e-07
1.72986e-07
1.69868e-07
1.66186e-07
1.6197e-07
1.57257e-07
1.52085e-07
1.46498e-07
1.40543e-07
1.34268e-07
1.27723e-07
1.2096e-07
1.14029e-07
1.06983e-07
9.98704e-08
9.27395e-08
8.56351e-08
7.85981e-08
7.16649e-08
6.48667e-08
5.82283e-08
5.17683e-08
4.54982e-08
3.94222e-08
3.35375e-08
2.7834e-08
2.22949e-08
1.68974e-08
1.16131e-08
6.40938e-09
1.10336e-11
4.13621e-14
7.85572e-14
2.09586e-11
1.21778e-08
2.20815e-08
3.21688e-08
4.25153e-08
5.31873e-08
6.42401e-08
7.57159e-08
8.76421e-08
1.00031e-07
1.12878e-07
1.26163e-07
1.39849e-07
1.53885e-07
1.68204e-07
1.82729e-07
1.97369e-07
2.12026e-07
2.26595e-07
2.40966e-07
2.55028e-07
2.68668e-07
2.81771e-07
2.9423e-07
3.05936e-07
3.16789e-07
3.26694e-07
3.35565e-07
3.43322e-07
3.49896e-07
3.5523e-07
3.59276e-07
3.61998e-07
3.63371e-07
3.63383e-07
3.62035e-07
3.59338e-07
3.55315e-07
3.50004e-07
3.43451e-07
3.35715e-07
3.26863e-07
3.16976e-07
3.06138e-07
2.94446e-07
2.81999e-07
2.68905e-07
2.55273e-07
2.41216e-07
2.26847e-07
2.12278e-07
1.97619e-07
1.82975e-07
1.68445e-07
1.54117e-07
1.40071e-07
1.26373e-07
1.13075e-07
1.00213e-07
8.78087e-08
7.58656e-08
6.4372e-08
5.33005e-08
4.2609e-08
3.22422e-08
2.21337e-08
1.22076e-08
2.10121e-11
7.87616e-14
1.22577e-13
3.27051e-11
1.9003e-08
3.44707e-08
5.02552e-08
6.64899e-08
8.32929e-08
1.00763e-07
1.18977e-07
1.37988e-07
1.5782e-07
1.78472e-07
1.99913e-07
2.22086e-07
2.44905e-07
2.6826e-07
2.9202e-07
3.16034e-07
3.40136e-07
3.64151e-07
3.87896e-07
4.11184e-07
4.33822e-07
4.55619e-07
4.76384e-07
4.9593e-07
5.14079e-07
5.30666e-07
5.45536e-07
5.58551e-07
5.69589e-07
5.78549e-07
5.85347e-07
5.8992e-07
5.92226e-07
5.92243e-07
5.89971e-07
5.8543e-07
5.78664e-07
5.69735e-07
5.58726e-07
5.45739e-07
5.30895e-07
5.14331e-07
4.96202e-07
4.76674e-07
4.55925e-07
4.34141e-07
4.11512e-07
3.88231e-07
3.64489e-07
3.40474e-07
3.16369e-07
2.9235e-07
2.68581e-07
2.45214e-07
2.22382e-07
2.00193e-07
1.78733e-07
1.58062e-07
1.38208e-07
1.19175e-07
1.00936e-07
8.34411e-08
6.66122e-08
5.03506e-08
3.45383e-08
1.90416e-08
3.27744e-11
1.22842e-13
1.71251e-13
4.56944e-11
2.65477e-08
4.81621e-08
7.0241e-08
9.29837e-08
1.16566e-07
1.41137e-07
1.66812e-07
1.93668e-07
2.21747e-07
2.51046e-07
2.81523e-07
3.13093e-07
3.45632e-07
3.78979e-07
4.12942e-07
4.47301e-07
4.81821e-07
5.1625e-07
5.50328e-07
5.83786e-07
6.16346e-07
6.47726e-07
6.77645e-07
7.05829e-07
7.32013e-07
7.55953e-07
7.77421e-07
7.96215e-07
8.12158e-07
8.25099e-07
8.34918e-07
8.41522e-07
8.44849e-07
8.44869e-07
8.41582e-07
8.35017e-07
8.25237e-07
8.12332e-07
7.96425e-07
7.77664e-07
7.56226e-07
7.32315e-07
7.06155e-07
6.77994e-07
6.48093e-07
6.16727e-07
5.84179e-07
5.50728e-07
5.16654e-07
4.82225e-07
4.47702e-07
4.13336e-07
3.79363e-07
3.46002e-07
3.13447e-07
2.81858e-07
2.51359e-07
2.22036e-07
1.93931e-07
1.67047e-07
1.41344e-07
1.16743e-07
9.31288e-08
7.03541e-08
4.82421e-08
2.65933e-08
4.57764e-11
1.71565e-13
2.21581e-13
5.91262e-11
3.43457e-08
6.23058e-08
9.08772e-08
1.20327e-07
1.5089e-07
1.82765e-07
2.16103e-07
2.51009e-07
2.87533e-07
3.25671e-07
3.65363e-07
4.06494e-07
4.48893e-07
4.92345e-07
5.36591e-07
5.81342e-07
6.26289e-07
6.71105e-07
7.15455e-07
7.58988e-07
8.01344e-07
8.42157e-07
8.8106e-07
9.17698e-07
9.51728e-07
9.82831e-07
1.01072e-06
1.03512e-06
1.05582e-06
1.07262e-06
1.08536e-06
1.09393e-06
1.09825e-06
1.09827e-06
1.094e-06
1.08547e-06
1.07277e-06
1.05602e-06
1.03536e-06
1.01099e-06
9.83134e-07
9.52062e-07
9.18059e-07
8.81446e-07
8.42563e-07
8.01767e-07
7.59424e-07
7.15899e-07
6.71554e-07
6.26738e-07
5.81788e-07
5.3703e-07
4.92773e-07
4.49307e-07
4.06889e-07
3.65737e-07
3.26021e-07
2.87856e-07
2.51302e-07
2.16366e-07
1.82995e-07
1.51086e-07
1.20488e-07
9.10028e-08
6.23946e-08
3.43962e-08
5.92173e-11
2.2193e-13
2.70591e-13
7.22064e-11
4.19358e-08
7.60645e-08
1.1094e-07
1.46895e-07
1.8422e-07
2.23159e-07
2.63899e-07
3.06564e-07
3.51212e-07
3.97834e-07
4.46348e-07
4.96602e-07
5.48382e-07
6.01412e-07
6.5537e-07
7.09897e-07
7.64614e-07
8.19125e-07
8.73022e-07
9.25883e-07
9.77276e-07
1.02676e-06
1.0739e-06
1.11826e-06
1.15944e-06
1.19706e-06
1.23077e-06
1.26026e-06
1.28526e-06
1.30555e-06
1.32093e-06
1.33127e-06
1.33647e-06
1.3365e-06
1.33134e-06
1.32104e-06
1.30571e-06
1.28546e-06
1.2605e-06
1.23105e-06
1.19738e-06
1.15979e-06
1.11864e-06
1.0743e-06
1.02719e-06
9.77723e-07
9.26344e-07
8.73492e-07
8.196e-07
7.6509e-07
7.1037e-07
6.55836e-07
6.01867e-07
5.48822e-07
4.97023e-07
4.46746e-07
3.98207e-07
3.51556e-07
3.06876e-07
2.64178e-07
2.23404e-07
1.84429e-07
1.47066e-07
1.11073e-07
7.61585e-08
4.19893e-08
7.23032e-11
2.70962e-13
3.15821e-13
8.42788e-11
4.89379e-08
8.87504e-08
1.29429e-07
1.71365e-07
2.14901e-07
2.6032e-07
3.07839e-07
3.576e-07
4.09665e-07
4.64015e-07
5.20546e-07
5.79071e-07
6.3933e-07
7.0099e-07
7.63669e-07
8.26946e-07
8.90379e-07
9.53507e-07
1.01586e-06
1.07696e-06
1.13631e-06
1.1934e-06
1.24774e-06
1.29885e-06
1.34626e-06
1.38954e-06
1.42831e-06
1.4622e-06
1.49093e-06
1.51423e-06
1.5319e-06
1.54377e-06
1.54974e-06
1.54976e-06
1.54384e-06
1.53201e-06
1.5144e-06
1.49114e-06
1.46245e-06
1.42859e-06
1.38986e-06
1.34661e-06
1.29923e-06
1.24816e-06
1.19384e-06
1.13676e-06
1.07743e-06
1.01634e-06
9.53994e-07
8.90867e-07
8.27432e-07
7.64147e-07
7.01457e-07
6.39781e-07
5.79504e-07
5.20955e-07
4.64398e-07
4.1002e-07
3.57922e-07
3.08127e-07
2.60572e-07
2.15115e-07
1.71541e-07
1.29566e-07
8.88465e-08
4.89926e-08
8.4378e-11
3.16202e-13
3.55548e-13
9.48836e-11
5.50866e-08
9.98848e-08
1.4565e-07
1.92825e-07
2.41795e-07
2.9288e-07
3.46319e-07
4.0227e-07
4.60794e-07
5.21864e-07
5.85354e-07
6.51044e-07
7.1863e-07
7.87731e-07
8.5791e-07
9.28693e-07
9.99581e-07
1.07006e-06
1.13961e-06
1.2077e-06
1.27378e-06
1.3373e-06
1.39772e-06
1.4545e-06
1.50714e-06
1.55517e-06
1.59818e-06
1.63576e-06
1.66761e-06
1.69343e-06
1.71299e-06
1.72614e-06
1.73276e-06
1.73278e-06
1.72621e-06
1.71311e-06
1.69359e-06
1.66781e-06
1.63601e-06
1.59846e-06
1.5555e-06
1.5075e-06
1.45488e-06
1.39813e-06
1.33774e-06
1.27424e-06
1.20817e-06
1.1401e-06
1.07055e-06
1.00007e-06
9.29179e-07
8.5839e-07
7.882e-07
7.19083e-07
6.51479e-07
5.85765e-07
5.2225e-07
4.6115e-07
4.02593e-07
3.46608e-07
2.93132e-07
2.4201e-07
1.93001e-07
1.45786e-07
9.99808e-08
5.51411e-08
9.49829e-11
3.5593e-13
3.88852e-13
1.03775e-10
6.02402e-08
1.09214e-07
1.59237e-07
2.10794e-07
2.64309e-07
3.20128e-07
3.78512e-07
4.39626e-07
5.03536e-07
5.70202e-07
6.39479e-07
7.1112e-07
7.8478e-07
8.60039e-07
9.36414e-07
1.01339e-06
1.09041e-06
1.16693e-06
1.24238e-06
1.31619e-06
1.38777e-06
1.45653e-06
1.52189e-06
1.58328e-06
1.64017e-06
1.69206e-06
1.7385e-06
1.77908e-06
1.81344e-06
1.8413e-06
1.86241e-06
1.87659e-06
1.88372e-06
1.88374e-06
1.87666e-06
1.86252e-06
1.84146e-06
1.81364e-06
1.77932e-06
1.73878e-06
1.69238e-06
1.64052e-06
1.58366e-06
1.5223e-06
1.45696e-06
1.38822e-06
1.31665e-06
1.24285e-06
1.16741e-06
1.09089e-06
1.01387e-06
9.36888e-07
8.60502e-07
7.85229e-07
7.11549e-07
6.39887e-07
5.70584e-07
5.03889e-07
4.39946e-07
3.78797e-07
3.20377e-07
2.64521e-07
2.10968e-07
1.59371e-07
1.09309e-07
6.02938e-08
1.03873e-10
3.89229e-13
4.15553e-13
1.10905e-10
6.43722e-08
1.16692e-07
1.70125e-07
2.25192e-07
2.82345e-07
3.41953e-07
4.04294e-07
4.69539e-07
5.37755e-07
6.08892e-07
6.82789e-07
7.59175e-07
8.37675e-07
9.17834e-07
9.99134e-07
1.08102e-06
1.1629e-06
1.2442e-06
1.32432e-06
1.40265e-06
1.47856e-06
1.55145e-06
1.6207e-06
1.68572e-06
1.74595e-06
1.80087e-06
1.85e-06
1.89292e-06
1.92927e-06
1.95872e-06
1.98104e-06
1.99603e-06
2.00356e-06
2.00359e-06
1.99609e-06
1.98115e-06
1.95888e-06
1.92946e-06
1.89316e-06
1.85028e-06
1.80118e-06
1.7463e-06
1.6861e-06
1.6211e-06
1.55187e-06
1.479e-06
1.4031e-06
1.32479e-06
1.24467e-06
1.16338e-06
1.08149e-06
9.99599e-07
9.18289e-07
8.38116e-07
7.59597e-07
6.83189e-07
6.09266e-07
5.381e-07
4.69853e-07
4.04574e-07
3.42198e-07
2.82552e-07
2.25362e-07
1.70256e-07
1.16784e-07
6.44244e-08
1.11e-10
4.15922e-13
4.36063e-13
1.16382e-10
6.75465e-08
1.22436e-07
1.78488e-07
2.3625e-07
2.96196e-07
3.58715e-07
4.24094e-07
4.92512e-07
5.64033e-07
6.38603e-07
7.16046e-07
7.96071e-07
8.78282e-07
9.62194e-07
1.04726e-06
1.1329e-06
1.21851e-06
1.30346e-06
1.38713e-06
1.4689e-06
1.54812e-06
1.62415e-06
1.69637e-06
1.76415e-06
1.82691e-06
1.88413e-06
1.93531e-06
1.98001e-06
2.01785e-06
2.04852e-06
2.07175e-06
2.08735e-06
2.0952e-06
2.09522e-06
2.08742e-06
2.07186e-06
2.04867e-06
2.01805e-06
1.98024e-06
1.93558e-06
1.88444e-06
1.82725e-06
1.76451e-06
1.69676e-06
1.62457e-06
1.54855e-06
1.46935e-06
1.38759e-06
1.30392e-06
1.21897e-06
1.13336e-06
1.04772e-06
9.6264e-07
8.78713e-07
7.96485e-07
7.16438e-07
6.3897e-07
5.64372e-07
4.92819e-07
4.24368e-07
3.58954e-07
2.96399e-07
2.36415e-07
1.78615e-07
1.22525e-07
6.75972e-08
1.16475e-10
4.36424e-13
4.51184e-13
1.20422e-10
6.98871e-08
1.26671e-07
1.84654e-07
2.44403e-07
3.06411e-07
3.71077e-07
4.38698e-07
5.09459e-07
5.83422e-07
6.60526e-07
7.40588e-07
8.23301e-07
9.08251e-07
9.94934e-07
1.08278e-06
1.17119e-06
1.25954e-06
1.34718e-06
1.43348e-06
1.51778e-06
1.59943e-06
1.67778e-06
1.75217e-06
1.82198e-06
1.88661e-06
1.94552e-06
1.9982e-06
2.04421e-06
2.08315e-06
2.11471e-06
2.13861e-06
2.15467e-06
2.16274e-06
2.16276e-06
2.15473e-06
2.13872e-06
2.11486e-06
2.08334e-06
2.04443e-06
1.99846e-06
1.94582e-06
1.88694e-06
1.82233e-06
1.75255e-06
1.67818e-06
1.59985e-06
1.51822e-06
1.43392e-06
1.34763e-06
1.25999e-06
1.17165e-06
1.08323e-06
9.9537e-07
9.08674e-07
8.23707e-07
7.40972e-07
6.60886e-07
5.83754e-07
5.0976e-07
4.38967e-07
3.71311e-07
3.06609e-07
2.44565e-07
1.84778e-07
1.26758e-07
6.99365e-08
1.20512e-10
4.51536e-13
4.61898e-13
1.23284e-10
7.15461e-08
1.29673e-07
1.89024e-07
2.50184e-07
3.13654e-07
3.79845e-07
4.4906e-07
5.21485e-07
5.97184e-07
6.76092e-07
7.58018e-07
8.42644e-07
9.29543e-07
1.0182e-06
1.10803e-06
1.19841e-06
1.2887e-06
1.37826e-06
1.46642e-06
1.55253e-06
1.63591e-06
1.7159e-06
1.79184e-06
1.86309e-06
1.92905e-06
1.98916e-06
2.04291e-06
2.08985e-06
2.12958e-06
2.16177e-06
2.18615e-06
2.20253e-06
2.21076e-06
2.21078e-06
2.20259e-06
2.18626e-06
2.16191e-06
2.12976e-06
2.09007e-06
2.04317e-06
1.98946e-06
1.92938e-06
1.86345e-06
1.79222e-06
1.7163e-06
1.63633e-06
1.55296e-06
1.46686e-06
1.3787e-06
1.28915e-06
1.19885e-06
1.10847e-06
1.01863e-06
9.29959e-07
8.43043e-07
7.58396e-07
6.76446e-07
5.97511e-07
5.21782e-07
4.49324e-07
3.80075e-07
3.13848e-07
2.50342e-07
1.89146e-07
1.29758e-07
7.15945e-08
1.23373e-10
4.62244e-13
4.69207e-13
1.25238e-10
7.26782e-08
1.31721e-07
1.92008e-07
2.5413e-07
3.186e-07
3.85834e-07
4.5614e-07
5.29706e-07
6.06595e-07
6.86741e-07
7.69945e-07
8.55885e-07
9.44124e-07
1.03413e-06
1.12532e-06
1.21706e-06
1.3087e-06
1.39957e-06
1.48902e-06
1.57637e-06
1.66094e-06
1.74206e-06
1.81906e-06
1.89131e-06
1.95818e-06
2.01912e-06
2.0736e-06
2.12118e-06
2.16145e-06
2.19407e-06
2.21878e-06
2.23538e-06
2.24372e-06
2.24374e-06
2.23544e-06
2.21889e-06
2.19421e-06
2.16163e-06
2.1214e-06
2.07386e-06
2.0194e-06
1.9585e-06
1.89165e-06
1.81943e-06
1.74245e-06
1.66135e-06
1.57679e-06
1.48945e-06
1.40001e-06
1.30914e-06
1.2175e-06
1.12576e-06
1.03456e-06
9.44535e-07
8.56279e-07
7.70319e-07
6.87091e-07
6.06918e-07
5.29999e-07
4.56401e-07
3.86061e-07
3.18792e-07
2.54286e-07
1.92128e-07
1.31805e-07
7.27259e-08
1.25325e-10
4.69548e-13
4.74014e-13
1.26523e-10
7.34231e-08
1.33069e-07
1.93971e-07
2.56728e-07
3.21857e-07
3.8978e-07
4.60806e-07
5.35127e-07
6.12804e-07
6.93769e-07
7.77821e-07
8.64632e-07
9.5376e-07
1.04467e-06
1.13676e-06
1.2294e-06
1.32193e-06
1.41368e-06
1.50398e-06
1.59215e-06
1.67751e-06
1.75939e-06
1.8371e-06
1.91001e-06
1.97749e-06
2.03897e-06
2.09395e-06
2.14195e-06
2.18258e-06
2.21549e-06
2.24042e-06
2.25716e-06
2.26558e-06
2.2656e-06
2.25723e-06
2.24053e-06
2.21564e-06
2.18276e-06
2.14217e-06
2.0942e-06
2.03926e-06
1.9778e-06
1.91035e-06
1.83747e-06
1.75978e-06
1.67792e-06
1.59257e-06
1.50441e-06
1.41411e-06
1.32237e-06
1.22984e-06
1.13719e-06
1.04509e-06
9.54168e-07
8.65023e-07
7.78192e-07
6.94116e-07
6.13124e-07
5.35417e-07
4.61065e-07
3.90005e-07
3.22047e-07
2.56882e-07
1.9409e-07
1.33152e-07
7.34702e-08
1.26609e-10
4.74351e-13
4.77065e-13
1.27339e-10
7.38962e-08
1.33926e-07
1.95219e-07
2.58379e-07
3.23928e-07
3.9229e-07
4.63776e-07
5.38579e-07
6.1676e-07
6.98249e-07
7.82844e-07
8.70214e-07
9.59912e-07
1.0514e-06
1.14407e-06
1.23729e-06
1.33039e-06
1.4227e-06
1.51355e-06
1.60226e-06
1.68813e-06
1.77049e-06
1.84866e-06
1.92199e-06
1.98986e-06
2.0517e-06
2.10699e-06
2.15527e-06
2.19613e-06
2.22923e-06
2.2543e-06
2.27114e-06
2.2796e-06
2.27962e-06
2.2712e-06
2.25441e-06
2.22937e-06
2.19631e-06
2.15549e-06
2.10725e-06
2.05199e-06
1.99018e-06
1.92233e-06
1.84902e-06
1.77088e-06
1.68853e-06
1.60267e-06
1.51398e-06
1.42313e-06
1.33083e-06
1.23772e-06
1.1445e-06
1.05182e-06
9.60318e-07
8.70603e-07
7.83213e-07
6.98594e-07
6.17078e-07
5.38867e-07
4.64033e-07
3.92513e-07
3.24117e-07
2.58533e-07
1.95337e-07
1.34008e-07
7.3943e-08
1.27425e-10
4.774e-13
4.78938e-13
1.27839e-10
7.41866e-08
1.34451e-07
1.95985e-07
2.59394e-07
3.25201e-07
3.93834e-07
4.65604e-07
5.40704e-07
6.19197e-07
7.01011e-07
7.85943e-07
8.7366e-07
9.63712e-07
1.05556e-06
1.14859e-06
1.24217e-06
1.33563e-06
1.42829e-06
1.51948e-06
1.60852e-06
1.69471e-06
1.77737e-06
1.85583e-06
1.92942e-06
1.99754e-06
2.0596e-06
2.11509e-06
2.16354e-06
2.20454e-06
2.23776e-06
2.26292e-06
2.27982e-06
2.28831e-06
2.28833e-06
2.27988e-06
2.26302e-06
2.2379e-06
2.20472e-06
2.16375e-06
2.11534e-06
2.05988e-06
1.99785e-06
1.92976e-06
1.85619e-06
1.77776e-06
1.69511e-06
1.60893e-06
1.51991e-06
1.42872e-06
1.33606e-06
1.2426e-06
1.14902e-06
1.05598e-06
9.64116e-07
8.74047e-07
7.86311e-07
7.01355e-07
6.19514e-07
5.40992e-07
4.6586e-07
3.94057e-07
3.2539e-07
2.59547e-07
1.96103e-07
1.34534e-07
7.42333e-08
1.27925e-10
4.79272e-13
4.80049e-13
1.28137e-10
7.43592e-08
1.34764e-07
1.96441e-07
2.59997e-07
3.25959e-07
3.94753e-07
4.66693e-07
5.41971e-07
6.2065e-07
7.0266e-07
7.87794e-07
8.75719e-07
9.65984e-07
1.05805e-06
1.1513e-06
1.24509e-06
1.33877e-06
1.43164e-06
1.52304e-06
1.61227e-06
1.69866e-06
1.7815e-06
1.86013e-06
1.93389e-06
2.00215e-06
2.06435e-06
2.11996e-06
2.16851e-06
2.2096e-06
2.24289e-06
2.2681e-06
2.28504e-06
2.29355e-06
2.29357e-06
2.2851e-06
2.26821e-06
2.24303e-06
2.20978e-06
2.16873e-06
2.12021e-06
2.06463e-06
2.00246e-06
1.93423e-06
1.86049e-06
1.78189e-06
1.69906e-06
1.61269e-06
1.52346e-06
1.43207e-06
1.3392e-06
1.24552e-06
1.15172e-06
1.05846e-06
9.66387e-07
8.76106e-07
7.88161e-07
7.03003e-07
6.20967e-07
5.42259e-07
4.66949e-07
3.94975e-07
3.26147e-07
2.6015e-07
1.96558e-07
1.34846e-07
7.44058e-08
1.28223e-10
4.80383e-13
4.80689e-13
1.28308e-10
7.44586e-08
1.34944e-07
1.96703e-07
2.60345e-07
3.26396e-07
3.95283e-07
4.67321e-07
5.42703e-07
6.21491e-07
7.03613e-07
7.88865e-07
8.76911e-07
9.673e-07
1.05949e-06
1.15287e-06
1.24679e-06
1.34059e-06
1.43359e-06
1.5251e-06
1.61446e-06
1.70095e-06
1.78391e-06
1.86264e-06
1.93649e-06
2.00484e-06
2.06711e-06
2.12279e-06
2.17141e-06
2.21255e-06
2.24588e-06
2.27113e-06
2.28808e-06
2.2966e-06
2.29662e-06
2.28814e-06
2.27123e-06
2.24602e-06
2.21273e-06
2.17162e-06
2.12304e-06
2.0674e-06
2.00515e-06
1.93683e-06
1.863e-06
1.78429e-06
1.70136e-06
1.61487e-06
1.52553e-06
1.43402e-06
1.34102e-06
1.24722e-06
1.15329e-06
1.05991e-06
9.67704e-07
8.77298e-07
7.89232e-07
7.03956e-07
6.21807e-07
5.4299e-07
4.67577e-07
3.95505e-07
3.26584e-07
2.60498e-07
1.9682e-07
1.35026e-07
7.45051e-08
1.28394e-10
4.81022e-13
4.81046e-13
1.28404e-10
7.45141e-08
1.35044e-07
1.96849e-07
2.60539e-07
3.2664e-07
3.9558e-07
4.67673e-07
5.43113e-07
6.21962e-07
7.04148e-07
7.89466e-07
8.77581e-07
9.68041e-07
1.0603e-06
1.15375e-06
1.24775e-06
1.34162e-06
1.43468e-06
1.52627e-06
1.61569e-06
1.70225e-06
1.78526e-06
1.86405e-06
1.93796e-06
2.00636e-06
2.06868e-06
2.1244e-06
2.17305e-06
2.21422e-06
2.24757e-06
2.27284e-06
2.2898e-06
2.29833e-06
2.29835e-06
2.28986e-06
2.27294e-06
2.24771e-06
2.2144e-06
2.17326e-06
2.12465e-06
2.06896e-06
2.00667e-06
1.9383e-06
1.86441e-06
1.78565e-06
1.70265e-06
1.6161e-06
1.52669e-06
1.43511e-06
1.34205e-06
1.24818e-06
1.15418e-06
1.06072e-06
9.68444e-07
8.77968e-07
7.89833e-07
7.04491e-07
6.22278e-07
5.434e-07
4.67929e-07
3.95802e-07
3.26828e-07
2.60692e-07
1.96967e-07
1.35126e-07
7.45605e-08
1.28489e-10
4.81379e-13
4.81239e-13
1.28456e-10
7.45441e-08
1.35099e-07
1.96929e-07
2.60645e-07
3.26773e-07
3.95741e-07
4.67864e-07
5.43336e-07
6.22218e-07
7.04439e-07
7.89794e-07
8.77946e-07
9.68445e-07
1.06074e-06
1.15424e-06
1.24827e-06
1.34218e-06
1.43528e-06
1.52691e-06
1.61637e-06
1.70296e-06
1.78601e-06
1.86483e-06
1.93876e-06
2.00719e-06
2.06954e-06
2.12528e-06
2.17395e-06
2.21514e-06
2.2485e-06
2.27378e-06
2.29075e-06
2.29928e-06
2.2993e-06
2.29081e-06
2.27388e-06
2.24864e-06
2.21531e-06
2.17416e-06
2.12553e-06
2.06982e-06
2.0075e-06
1.9391e-06
1.86519e-06
1.78639e-06
1.70336e-06
1.61678e-06
1.52733e-06
1.43571e-06
1.34261e-06
1.2487e-06
1.15466e-06
1.06116e-06
9.68848e-07
8.78333e-07
7.90161e-07
7.04783e-07
6.22534e-07
5.43623e-07
4.6812e-07
3.95963e-07
3.2696e-07
2.60797e-07
1.97046e-07
1.35181e-07
7.45905e-08
1.28541e-10
4.81572e-13
4.81341e-13
1.28483e-10
7.45599e-08
1.35128e-07
1.96971e-07
2.607e-07
3.26842e-07
3.95826e-07
4.67965e-07
5.43454e-07
6.22354e-07
7.04594e-07
7.89968e-07
8.7814e-07
9.68659e-07
1.06098e-06
1.15449e-06
1.24855e-06
1.34248e-06
1.4356e-06
1.52725e-06
1.61673e-06
1.70334e-06
1.78641e-06
1.86524e-06
1.93919e-06
2.00764e-06
2.07e-06
2.12575e-06
2.17443e-06
2.21562e-06
2.249e-06
2.27428e-06
2.29125e-06
2.29979e-06
2.29981e-06
2.29132e-06
2.27438e-06
2.24914e-06
2.2158e-06
2.17464e-06
2.126e-06
2.07028e-06
2.00795e-06
1.93953e-06
1.86561e-06
1.78679e-06
1.70374e-06
1.61714e-06
1.52767e-06
1.43603e-06
1.34291e-06
1.24898e-06
1.15492e-06
1.0614e-06
9.69062e-07
8.78527e-07
7.90334e-07
7.04937e-07
6.2267e-07
5.43741e-07
4.68221e-07
3.96048e-07
3.2703e-07
2.60853e-07
1.97088e-07
1.3521e-07
7.46064e-08
1.28568e-10
4.81674e-13
4.81393e-13
1.28497e-10
7.4568e-08
1.35142e-07
1.96992e-07
2.60729e-07
3.26878e-07
3.95869e-07
4.68017e-07
5.43514e-07
6.22423e-07
7.04673e-07
7.90057e-07
8.7824e-07
9.6877e-07
1.0611e-06
1.15462e-06
1.24869e-06
1.34263e-06
1.43577e-06
1.52743e-06
1.61691e-06
1.70354e-06
1.78661e-06
1.86546e-06
1.93942e-06
2.00787e-06
2.07023e-06
2.12599e-06
2.17468e-06
2.21588e-06
2.24926e-06
2.27454e-06
2.29152e-06
2.30005e-06
2.30007e-06
2.29158e-06
2.27464e-06
2.2494e-06
2.21606e-06
2.17489e-06
2.12624e-06
2.07052e-06
2.00818e-06
1.93976e-06
1.86582e-06
1.787e-06
1.70394e-06
1.61733e-06
1.52785e-06
1.4362e-06
1.34306e-06
1.24912e-06
1.15505e-06
1.06152e-06
9.69173e-07
8.78627e-07
7.90424e-07
7.05016e-07
6.2274e-07
5.43801e-07
4.68273e-07
3.96092e-07
3.27066e-07
2.60881e-07
1.9711e-07
1.35224e-07
7.46145e-08
1.28582e-10
4.81726e-13
4.81419e-13
1.28504e-10
7.45721e-08
1.3515e-07
1.97003e-07
2.60743e-07
3.26896e-07
3.95891e-07
4.68043e-07
5.43544e-07
6.22458e-07
7.04713e-07
7.90102e-07
8.7829e-07
9.68825e-07
1.06116e-06
1.15469e-06
1.24876e-06
1.34271e-06
1.43585e-06
1.52751e-06
1.61701e-06
1.70364e-06
1.78672e-06
1.86557e-06
1.93953e-06
2.00798e-06
2.07035e-06
2.12612e-06
2.1748e-06
2.21601e-06
2.24939e-06
2.27467e-06
2.29165e-06
2.30018e-06
2.30021e-06
2.29171e-06
2.27477e-06
2.24953e-06
2.21619e-06
2.17502e-06
2.12637e-06
2.07064e-06
2.0083e-06
1.93987e-06
1.86593e-06
1.7871e-06
1.70404e-06
1.61742e-06
1.52794e-06
1.43628e-06
1.34314e-06
1.24919e-06
1.15512e-06
1.06158e-06
9.69228e-07
8.78677e-07
7.90469e-07
7.05056e-07
6.22775e-07
5.43832e-07
4.68298e-07
3.96113e-07
3.27084e-07
2.60895e-07
1.9712e-07
1.35232e-07
7.46185e-08
1.28589e-10
4.81752e-13
4.81431e-13
1.28507e-10
7.4574e-08
1.35153e-07
1.97008e-07
2.6075e-07
3.26905e-07
3.95902e-07
4.68056e-07
5.43559e-07
6.22475e-07
7.04732e-07
7.90124e-07
8.78314e-07
9.68852e-07
1.06119e-06
1.15472e-06
1.2488e-06
1.34275e-06
1.43589e-06
1.52756e-06
1.61705e-06
1.70369e-06
1.78677e-06
1.86562e-06
1.93958e-06
2.00804e-06
2.07041e-06
2.12618e-06
2.17487e-06
2.21607e-06
2.24945e-06
2.27474e-06
2.29172e-06
2.30025e-06
2.30027e-06
2.29178e-06
2.27484e-06
2.24959e-06
2.21625e-06
2.17508e-06
2.12643e-06
2.0707e-06
2.00835e-06
1.93992e-06
1.86598e-06
1.78715e-06
1.70409e-06
1.61747e-06
1.52798e-06
1.43632e-06
1.34318e-06
1.24923e-06
1.15515e-06
1.06161e-06
9.69256e-07
8.78701e-07
7.9049e-07
7.05075e-07
6.22792e-07
5.43846e-07
4.68311e-07
3.96124e-07
3.27093e-07
2.60902e-07
1.97125e-07
1.35235e-07
7.46205e-08
1.28593e-10
4.81764e-13
4.81437e-13
1.28509e-10
7.45749e-08
1.35155e-07
1.97011e-07
2.60753e-07
3.26909e-07
3.95907e-07
4.68062e-07
5.43566e-07
6.22483e-07
7.04741e-07
7.90134e-07
8.78326e-07
9.68865e-07
1.06121e-06
1.15474e-06
1.24881e-06
1.34276e-06
1.43591e-06
1.52758e-06
1.61707e-06
1.70371e-06
1.78679e-06
1.86564e-06
1.93961e-06
2.00807e-06
2.07044e-06
2.12621e-06
2.17489e-06
2.2161e-06
2.24948e-06
2.27477e-06
2.29175e-06
2.30028e-06
2.3003e-06
2.29181e-06
2.27487e-06
2.24963e-06
2.21628e-06
2.17511e-06
2.12646e-06
2.07073e-06
2.00838e-06
1.93995e-06
1.86601e-06
1.78718e-06
1.70411e-06
1.61749e-06
1.528e-06
1.43634e-06
1.3432e-06
1.24925e-06
1.15516e-06
1.06162e-06
9.69268e-07
8.78713e-07
7.90501e-07
7.05084e-07
6.228e-07
5.43853e-07
4.68317e-07
3.96129e-07
3.27097e-07
2.60906e-07
1.97128e-07
1.35237e-07
7.46214e-08
1.28594e-10
4.8177e-13
4.8144e-13
1.28509e-10
7.45754e-08
1.35156e-07
1.97012e-07
2.60754e-07
3.26911e-07
3.95909e-07
4.68064e-07
5.43569e-07
6.22487e-07
7.04746e-07
7.90139e-07
8.78331e-07
9.68871e-07
1.06121e-06
1.15475e-06
1.24882e-06
1.34277e-06
1.43592e-06
1.52759e-06
1.61708e-06
1.70372e-06
1.7868e-06
1.86566e-06
1.93962e-06
2.00808e-06
2.07046e-06
2.12622e-06
2.17491e-06
2.21612e-06
2.2495e-06
2.27478e-06
2.29176e-06
2.3003e-06
2.30032e-06
2.29182e-06
2.27488e-06
2.24964e-06
2.21629e-06
2.17512e-06
2.12647e-06
2.07074e-06
2.00839e-06
1.93996e-06
1.86602e-06
1.78719e-06
1.70412e-06
1.6175e-06
1.52801e-06
1.43635e-06
1.34321e-06
1.24925e-06
1.15517e-06
1.06163e-06
9.69274e-07
8.78718e-07
7.90506e-07
7.05089e-07
6.22803e-07
5.43857e-07
4.6832e-07
3.96131e-07
3.27099e-07
2.60907e-07
1.97129e-07
1.35238e-07
7.46218e-08
1.28595e-10
4.81773e-13
4.81441e-13
1.2851e-10
7.45756e-08
1.35156e-07
1.97012e-07
2.60755e-07
3.26912e-07
3.9591e-07
4.68066e-07
5.43571e-07
6.22489e-07
7.04748e-07
7.90141e-07
8.78334e-07
9.68874e-07
1.06122e-06
1.15475e-06
1.24883e-06
1.34278e-06
1.43593e-06
1.52759e-06
1.61709e-06
1.70372e-06
1.78681e-06
1.86566e-06
1.93963e-06
2.00809e-06
2.07046e-06
2.12623e-06
2.17492e-06
2.21612e-06
2.2495e-06
2.27479e-06
2.29177e-06
2.3003e-06
2.30032e-06
2.29183e-06
2.27489e-06
2.24965e-06
2.2163e-06
2.17513e-06
2.12648e-06
2.07074e-06
2.0084e-06
1.93997e-06
1.86603e-06
1.78719e-06
1.70413e-06
1.6175e-06
1.52802e-06
1.43636e-06
1.34321e-06
1.24926e-06
1.15518e-06
1.06163e-06
9.69277e-07
8.78721e-07
7.90508e-07
7.05091e-07
6.22805e-07
5.43858e-07
4.68321e-07
3.96132e-07
3.27099e-07
2.60908e-07
1.9713e-07
1.35238e-07
7.4622e-08
1.28595e-10
4.81774e-13
4.81442e-13
1.2851e-10
7.45756e-08
1.35156e-07
1.97012e-07
2.60755e-07
3.26912e-07
3.9591e-07
4.68066e-07
5.43571e-07
6.22489e-07
7.04748e-07
7.90142e-07
8.78335e-07
9.68875e-07
1.06122e-06
1.15475e-06
1.24883e-06
1.34278e-06
1.43593e-06
1.52759e-06
1.61709e-06
1.70373e-06
1.78681e-06
1.86566e-06
1.93963e-06
2.00809e-06
2.07046e-06
2.12623e-06
2.17492e-06
2.21612e-06
2.24951e-06
2.27479e-06
2.29177e-06
2.30031e-06
2.30033e-06
2.29183e-06
2.27489e-06
2.24965e-06
2.2163e-06
2.17513e-06
2.12648e-06
2.07075e-06
2.0084e-06
1.93997e-06
1.86603e-06
1.78719e-06
1.70413e-06
1.61751e-06
1.52802e-06
1.43636e-06
1.34321e-06
1.24926e-06
1.15518e-06
1.06163e-06
9.69278e-07
8.78722e-07
7.90509e-07
7.05091e-07
6.22806e-07
5.43859e-07
4.68322e-07
3.96133e-07
3.271e-07
2.60908e-07
1.9713e-07
1.35238e-07
7.46221e-08
1.28595e-10
4.81775e-13
4.81442e-13
1.2851e-10
7.45757e-08
1.35156e-07
1.97013e-07
2.60756e-07
3.26912e-07
3.95911e-07
4.68066e-07
5.43572e-07
6.2249e-07
7.04749e-07
7.90143e-07
8.78335e-07
9.68875e-07
1.06122e-06
1.15475e-06
1.24883e-06
1.34278e-06
1.43593e-06
1.5276e-06
1.61709e-06
1.70373e-06
1.78681e-06
1.86567e-06
1.93963e-06
2.00809e-06
2.07047e-06
2.12623e-06
2.17492e-06
2.21613e-06
2.24951e-06
2.27479e-06
2.29177e-06
2.30031e-06
2.30033e-06
2.29183e-06
2.2749e-06
2.24965e-06
2.21631e-06
2.17514e-06
2.12648e-06
2.07075e-06
2.0084e-06
1.93997e-06
1.86603e-06
1.7872e-06
1.70413e-06
1.61751e-06
1.52802e-06
1.43636e-06
1.34321e-06
1.24926e-06
1.15518e-06
1.06163e-06
9.69279e-07
8.78722e-07
7.90509e-07
7.05092e-07
6.22806e-07
5.43859e-07
4.68322e-07
3.96133e-07
3.271e-07
2.60908e-07
1.9713e-07
1.35238e-07
7.46221e-08
1.28596e-10
4.81775e-13
4.81442e-13
1.2851e-10
7.45757e-08
1.35156e-07
1.97013e-07
2.60756e-07
3.26912e-07
3.95911e-07
4.68066e-07
5.43572e-07
6.2249e-07
7.04749e-07
7.90143e-07
8.78336e-07
9.68876e-07
1.06122e-06
1.15475e-06
1.24883e-06
1.34278e-06
1.43593e-06
1.5276e-06
1.61709e-06
1.70373e-06
1.78681e-06
1.86567e-06
1.93963e-06
2.00809e-06
2.07047e-06
2.12623e-06
2.17492e-06
2.21613e-06
2.24951e-06
2.27479e-06
2.29177e-06
2.30031e-06
2.30033e-06
2.29183e-06
2.2749e-06
2.24965e-06
2.21631e-06
2.17514e-06
2.12648e-06
2.07075e-06
2.0084e-06
1.93997e-06
1.86603e-06
1.7872e-06
1.70413e-06
1.61751e-06
1.52802e-06
1.43636e-06
1.34321e-06
1.24926e-06
1.15518e-06
1.06163e-06
9.69279e-07
8.78722e-07
7.90509e-07
7.05092e-07
6.22806e-07
5.43859e-07
4.68322e-07
3.96133e-07
3.271e-07
2.60908e-07
1.9713e-07
1.35238e-07
7.46221e-08
1.28596e-10
4.81775e-13
4.81442e-13
1.2851e-10
7.45757e-08
1.35156e-07
1.97013e-07
2.60756e-07
3.26912e-07
3.95911e-07
4.68066e-07
5.43572e-07
6.2249e-07
7.04749e-07
7.90143e-07
8.78336e-07
9.68876e-07
1.06122e-06
1.15475e-06
1.24883e-06
1.34278e-06
1.43593e-06
1.5276e-06
1.61709e-06
1.70373e-06
1.78681e-06
1.86567e-06
1.93963e-06
2.00809e-06
2.07047e-06
2.12623e-06
2.17492e-06
2.21613e-06
2.24951e-06
2.27479e-06
2.29177e-06
2.30031e-06
2.30033e-06
2.29184e-06
2.2749e-06
2.24965e-06
2.21631e-06
2.17514e-06
2.12648e-06
2.07075e-06
2.0084e-06
1.93997e-06
1.86603e-06
1.7872e-06
1.70413e-06
1.61751e-06
1.52802e-06
1.43636e-06
1.34321e-06
1.24926e-06
1.15518e-06
1.06163e-06
9.69279e-07
8.78723e-07
7.9051e-07
7.05092e-07
6.22806e-07
5.43859e-07
4.68322e-07
3.96133e-07
3.271e-07
2.60908e-07
1.9713e-07
1.35238e-07
7.46221e-08
1.28596e-10
4.81775e-13
4.81442e-13
1.2851e-10
7.45757e-08
1.35156e-07
1.97013e-07
2.60756e-07
3.26912e-07
3.95911e-07
4.68066e-07
5.43572e-07
6.2249e-07
7.04749e-07
7.90143e-07
8.78336e-07
9.68876e-07
1.06122e-06
1.15475e-06
1.24883e-06
1.34278e-06
1.43593e-06
1.5276e-06
1.61709e-06
1.70373e-06
1.78681e-06
1.86567e-06
1.93963e-06
2.00809e-06
2.07047e-06
2.12623e-06
2.17492e-06
2.21613e-06
2.24951e-06
2.27479e-06
2.29177e-06
2.30031e-06
2.30033e-06
2.29184e-06
2.2749e-06
2.24965e-06
2.21631e-06
2.17514e-06
2.12648e-06
2.07075e-06
2.0084e-06
1.93997e-06
1.86603e-06
1.7872e-06
1.70413e-06
1.61751e-06
1.52802e-06
1.43636e-06
1.34321e-06
1.24926e-06
1.15518e-06
1.06163e-06
9.69279e-07
8.78723e-07
7.9051e-07
7.05092e-07
6.22806e-07
5.43859e-07
4.68322e-07
3.96133e-07
3.271e-07
2.60908e-07
1.9713e-07
1.35238e-07
7.46221e-08
1.28596e-10
4.81775e-13
4.81442e-13
1.2851e-10
7.45757e-08
1.35156e-07
1.97013e-07
2.60756e-07
3.26912e-07
3.95911e-07
4.68066e-07
5.43572e-07
6.2249e-07
7.04749e-07
7.90143e-07
8.78336e-07
9.68876e-07
1.06122e-06
1.15475e-06
1.24883e-06