/*--------------------------------*- C++ -*----------------------------------*\
  =========                 |
  \\      /  F ield         | OpenFOAM: The Open Source CFD Toolbox
   \\    /   O peration     | Website:  https://openfoam.org
    \\  /    A nd           | Version:  13
     \\/     M anipulation  |
\*---------------------------------------------------------------------------*/
FoamFile
{
    format      ascii;
    class       volScalarField;
    location    "12.5";
    object      nut;
}
// * * * * * * * * * * * * * * * * * * * * * * * * * * * * * * * * * * * * * //

dimensions      [0 2 -1 0 0 0 0];

internalField   nonuniform List<scalar> 
315000
(
3.033e-12
7.86113e-10
1.77545e-08
3.1269e-08
4.42981e-08
5.67383e-08
6.85159e-08
7.95882e-08
8.99651e-08
9.96232e-08
1.0853e-07
1.16661e-07
1.24004e-07
1.30565e-07
1.36364e-07
1.41436e-07
1.45827e-07
1.49589e-07
1.52781e-07
1.55463e-07
1.57696e-07
1.59538e-07
1.61044e-07
1.62265e-07
1.63246e-07
1.64027e-07
1.64645e-07
1.65128e-07
1.65502e-07
1.65787e-07
1.66002e-07
1.66158e-07
1.66267e-07
1.66335e-07
1.66367e-07
1.66366e-07
1.66331e-07
1.6626e-07
1.66148e-07
1.65988e-07
1.6577e-07
1.6548e-07
1.65102e-07
1.64614e-07
1.63992e-07
1.63206e-07
1.6222e-07
1.60995e-07
1.59485e-07
1.5764e-07
1.55406e-07
1.52724e-07
1.49535e-07
1.45779e-07
1.41397e-07
1.36338e-07
1.30554e-07
1.24012e-07
1.1669e-07
1.08582e-07
9.96983e-08
9.00634e-08
7.97077e-08
6.86545e-08
5.68924e-08
4.44612e-08
3.14292e-08
1.78868e-08
7.94732e-10
3.07303e-12
7.2455e-11
1.90924e-08
3.80926e-06
6.15275e-06
8.15617e-06
9.90272e-06
1.1439e-05
1.2794e-05
1.40129e-05
1.51078e-05
1.60869e-05
1.69578e-05
1.77275e-05
1.84032e-05
1.8992e-05
1.95013e-05
1.99385e-05
2.0311e-05
2.06259e-05
2.08901e-05
2.111e-05
2.12916e-05
2.14404e-05
2.15614e-05
2.16591e-05
2.17373e-05
2.17994e-05
2.18483e-05
2.18864e-05
2.19157e-05
2.19378e-05
2.1954e-05
2.19653e-05
2.19724e-05
2.19758e-05
2.19757e-05
2.19721e-05
2.19647e-05
2.19532e-05
2.19367e-05
2.19143e-05
2.18847e-05
2.18463e-05
2.17971e-05
2.17346e-05
2.1656e-05
2.15579e-05
2.14365e-05
2.12873e-05
2.11054e-05
2.08852e-05
2.06209e-05
2.0306e-05
1.99336e-05
1.94967e-05
1.89879e-05
1.83998e-05
1.77251e-05
1.69564e-05
1.60868e-05
1.51089e-05
1.40155e-05
1.27976e-05
1.14439e-05
9.9088e-06
8.16305e-06
6.1598e-06
3.81538e-06
1.91357e-08
7.26364e-11
2.4281e-10
6.4179e-08
2.23556e-05
3.12272e-05
3.83961e-05
4.44426e-05
4.96304e-05
5.44373e-05
4.84011e-05
5.00578e-05
5.15018e-05
5.27567e-05
5.3844e-05
5.47825e-05
5.55895e-05
5.62805e-05
5.68695e-05
5.7369e-05
5.77904e-05
5.81442e-05
5.84394e-05
5.86844e-05
5.88865e-05
5.90522e-05
5.91874e-05
5.92967e-05
5.93847e-05
5.94548e-05
5.95102e-05
5.95533e-05
5.95864e-05
5.96109e-05
5.96282e-05
5.96392e-05
5.96445e-05
5.96444e-05
5.96389e-05
5.96277e-05
5.96102e-05
5.95855e-05
5.95523e-05
5.95089e-05
5.94533e-05
5.93828e-05
5.92946e-05
5.91849e-05
5.90495e-05
5.88834e-05
5.8681e-05
5.84357e-05
5.81402e-05
5.77863e-05
5.73646e-05
5.6865e-05
5.62761e-05
5.55852e-05
5.47783e-05
5.38401e-05
5.27533e-05
5.14989e-05
5.00555e-05
4.83994e-05
5.44343e-05
4.96289e-05
4.44431e-05
3.83985e-05
3.12311e-05
2.23608e-05
6.42075e-08
2.42929e-10
2.91891e-10
7.72447e-08
2.57049e-05
3.5427e-05
4.32556e-05
4.95119e-05
4.6798e-05
4.90661e-05
5.11174e-05
5.29026e-05
5.44565e-05
5.58077e-05
5.69807e-05
5.79967e-05
5.88743e-05
5.96298e-05
6.0278e-05
6.0832e-05
6.13037e-05
6.17037e-05
6.20414e-05
6.23251e-05
6.25625e-05
6.276e-05
6.29234e-05
6.30579e-05
6.31677e-05
6.32568e-05
6.33282e-05
6.33847e-05
6.34286e-05
6.34616e-05
6.34851e-05
6.35002e-05
6.35076e-05
6.35075e-05
6.35e-05
6.34848e-05
6.34612e-05
6.3428e-05
6.3384e-05
6.33274e-05
6.32558e-05
6.31666e-05
6.30566e-05
6.2922e-05
6.27584e-05
6.25607e-05
6.23232e-05
6.20393e-05
6.17015e-05
6.13014e-05
6.08296e-05
6.02754e-05
5.96272e-05
5.88716e-05
5.79941e-05
5.69781e-05
5.58052e-05
5.44542e-05
5.29005e-05
5.11155e-05
4.90645e-05
4.67965e-05
4.95093e-05
4.32541e-05
3.54262e-05
2.5705e-05
7.72529e-08
2.91933e-10
3.05971e-10
8.10377e-08
2.66656e-05
3.66425e-05
4.46859e-05
5.10762e-05
4.75419e-05
4.98614e-05
5.19709e-05
5.38081e-05
5.54094e-05
5.6805e-05
5.80204e-05
5.90775e-05
5.99952e-05
6.07903e-05
6.14776e-05
6.20702e-05
6.25797e-05
6.30164e-05
6.33894e-05
6.37067e-05
6.39756e-05
6.42023e-05
6.43926e-05
6.45512e-05
6.46826e-05
6.47904e-05
6.48781e-05
6.49482e-05
6.50032e-05
6.50449e-05
6.50749e-05
6.50943e-05
6.51038e-05
6.51038e-05
6.50942e-05
6.50747e-05
6.50447e-05
6.50028e-05
6.49478e-05
6.48776e-05
6.47899e-05
6.46819e-05
6.45505e-05
6.43918e-05
6.42014e-05
6.39746e-05
6.37057e-05
6.33883e-05
6.30153e-05
6.25786e-05
6.20691e-05
6.14766e-05
6.07893e-05
5.99942e-05
5.90765e-05
5.80196e-05
5.68042e-05
5.54087e-05
5.38076e-05
5.19706e-05
4.98612e-05
4.75418e-05
5.10768e-05
4.46869e-05
3.66434e-05
2.66669e-05
8.1051e-08
3.06034e-10
3.09088e-10
8.1886e-08
2.6885e-05
3.69266e-05
4.50321e-05
5.14709e-05
4.77378e-05
5.00753e-05
5.22053e-05
5.40611e-05
5.56796e-05
5.70918e-05
5.83236e-05
5.93973e-05
6.0332e-05
6.11446e-05
6.18499e-05
6.24607e-05
6.29884e-05
6.34431e-05
6.38336e-05
6.41678e-05
6.44527e-05
6.46944e-05
6.48983e-05
6.50694e-05
6.52118e-05
6.53294e-05
6.54254e-05
6.55025e-05
6.55633e-05
6.56095e-05
6.56429e-05
6.56645e-05
6.56751e-05
6.5675e-05
6.56644e-05
6.56428e-05
6.56094e-05
6.55631e-05
6.55023e-05
6.54251e-05
6.53291e-05
6.52114e-05
6.5069e-05
6.48979e-05
6.46939e-05
6.44522e-05
6.41673e-05
6.38331e-05
6.34426e-05
6.2988e-05
6.24603e-05
6.18496e-05
6.11445e-05
6.03319e-05
5.93973e-05
5.83238e-05
5.70921e-05
5.56801e-05
5.40617e-05
5.22061e-05
5.00761e-05
4.77387e-05
5.14736e-05
4.50352e-05
3.69296e-05
2.68882e-05
8.19074e-08
3.09183e-10
3.09842e-10
8.20913e-08
2.69376e-05
3.69943e-05
4.51136e-05
5.1563e-05
4.77837e-05
5.01255e-05
5.22606e-05
5.41213e-05
5.57446e-05
5.71616e-05
5.83985e-05
5.94774e-05
6.04176e-05
6.12359e-05
6.1947e-05
6.25637e-05
6.30975e-05
6.35581e-05
6.39544e-05
6.42942e-05
6.45844e-05
6.4831e-05
6.50395e-05
6.52147e-05
6.53608e-05
6.54815e-05
6.55802e-05
6.56597e-05
6.57223e-05
6.577e-05
6.58045e-05
6.58268e-05
6.58377e-05
6.58377e-05
6.58267e-05
6.58044e-05
6.57699e-05
6.57222e-05
6.56595e-05
6.558e-05
6.54813e-05
6.53605e-05
6.52144e-05
6.50392e-05
6.48307e-05
6.45841e-05
6.4294e-05
6.39542e-05
6.35579e-05
6.30974e-05
6.25638e-05
6.19471e-05
6.12361e-05
6.04179e-05
5.94779e-05
5.83991e-05
5.71625e-05
5.57455e-05
5.41224e-05
5.22619e-05
5.01267e-05
4.7785e-05
5.15666e-05
4.51178e-05
3.69984e-05
2.69419e-05
8.21171e-08
3.09953e-10
3.09992e-10
8.21325e-08
2.69483e-05
3.7008e-05
4.513e-05
5.15815e-05
4.7793e-05
5.01357e-05
5.22719e-05
5.41336e-05
5.5758e-05
5.71762e-05
5.84143e-05
5.94944e-05
6.0436e-05
6.12557e-05
6.19683e-05
6.25866e-05
6.31218e-05
6.35839e-05
6.39817e-05
6.43229e-05
6.46144e-05
6.48623e-05
6.50719e-05
6.52481e-05
6.53951e-05
6.55166e-05
6.5616e-05
6.5696e-05
6.57591e-05
6.58072e-05
6.58419e-05
6.58644e-05
6.58754e-05
6.58754e-05
6.58643e-05
6.58418e-05
6.58071e-05
6.5759e-05
6.56959e-05
6.56158e-05
6.55164e-05
6.53949e-05
6.52479e-05
6.50717e-05
6.48621e-05
6.46142e-05
6.43228e-05
6.39816e-05
6.35839e-05
6.31218e-05
6.25867e-05
6.19686e-05
6.12561e-05
6.04365e-05
5.94951e-05
5.84151e-05
5.71772e-05
5.57591e-05
5.41349e-05
5.22733e-05
5.01371e-05
4.77945e-05
5.15854e-05
4.51345e-05
3.70124e-05
2.69528e-05
8.21595e-08
3.10107e-10
3.10017e-10
8.21395e-08
2.69501e-05
3.70103e-05
4.51329e-05
5.15847e-05
4.77947e-05
5.01375e-05
5.22739e-05
5.41358e-05
5.57604e-05
5.71789e-05
5.84172e-05
5.94976e-05
6.04394e-05
6.12595e-05
6.19723e-05
6.25909e-05
6.31264e-05
6.35889e-05
6.3987e-05
6.43285e-05
6.46202e-05
6.48683e-05
6.50782e-05
6.52546e-05
6.54018e-05
6.55235e-05
6.5623e-05
6.57031e-05
6.57663e-05
6.58144e-05
6.58492e-05
6.58717e-05
6.58828e-05
6.58828e-05
6.58717e-05
6.58491e-05
6.58143e-05
6.57662e-05
6.5703e-05
6.56228e-05
6.55233e-05
6.54015e-05
6.52544e-05
6.5078e-05
6.48681e-05
6.46201e-05
6.43283e-05
6.39869e-05
6.35889e-05
6.31265e-05
6.25911e-05
6.19726e-05
6.12599e-05
6.044e-05
5.94983e-05
5.8418e-05
5.71799e-05
5.57616e-05
5.41371e-05
5.22753e-05
5.01389e-05
4.77961e-05
5.15887e-05
4.51375e-05
3.70149e-05
2.69547e-05
8.21668e-08
3.10133e-10
3.10021e-10
8.21405e-08
2.69504e-05
3.70107e-05
4.51333e-05
5.15852e-05
4.77949e-05
5.01377e-05
5.22742e-05
5.41361e-05
5.57608e-05
5.71793e-05
5.84176e-05
5.94981e-05
6.044e-05
6.12601e-05
6.1973e-05
6.25916e-05
6.31272e-05
6.35897e-05
6.39878e-05
6.43294e-05
6.46212e-05
6.48693e-05
6.50792e-05
6.52557e-05
6.54029e-05
6.55246e-05
6.56242e-05
6.57043e-05
6.57675e-05
6.58157e-05
6.58504e-05
6.5873e-05
6.5884e-05
6.5884e-05
6.58729e-05
6.58504e-05
6.58156e-05
6.57674e-05
6.57042e-05
6.5624e-05
6.55244e-05
6.54027e-05
6.52555e-05
6.5079e-05
6.48692e-05
6.4621e-05
6.43293e-05
6.39878e-05
6.35897e-05
6.31273e-05
6.25918e-05
6.19733e-05
6.12605e-05
6.04406e-05
5.94988e-05
5.84185e-05
5.71803e-05
5.5762e-05
5.41375e-05
5.22756e-05
5.01392e-05
4.77964e-05
5.15892e-05
4.51379e-05
3.70153e-05
2.6955e-05
8.21679e-08
3.10137e-10
3.10021e-10
8.21407e-08
2.69504e-05
3.70107e-05
4.51334e-05
5.15852e-05
4.7795e-05
5.01378e-05
5.22742e-05
5.41362e-05
5.57608e-05
5.71793e-05
5.84177e-05
5.94982e-05
6.04401e-05
6.12602e-05
6.19731e-05
6.25917e-05
6.31273e-05
6.35898e-05
6.3988e-05
6.43295e-05
6.46213e-05
6.48695e-05
6.50794e-05
6.52558e-05
6.5403e-05
6.55248e-05
6.56243e-05
6.57045e-05
6.57677e-05
6.58159e-05
6.58506e-05
6.58731e-05
6.58842e-05
6.58842e-05
6.58731e-05
6.58505e-05
6.58158e-05
6.57675e-05
6.57043e-05
6.56242e-05
6.55246e-05
6.54028e-05
6.52556e-05
6.50792e-05
6.48693e-05
6.46212e-05
6.43294e-05
6.39879e-05
6.35898e-05
6.31274e-05
6.25919e-05
6.19734e-05
6.12606e-05
6.04406e-05
5.94989e-05
5.84186e-05
5.71804e-05
5.5762e-05
5.41375e-05
5.22757e-05
5.01392e-05
4.77964e-05
5.15893e-05
4.5138e-05
3.70153e-05
2.6955e-05
8.2168e-08
3.10137e-10
3.10022e-10
8.21407e-08
2.69504e-05
3.70107e-05
4.51334e-05
5.15852e-05
4.7795e-05
5.01378e-05
5.22742e-05
5.41362e-05
5.57609e-05
5.71794e-05
5.84177e-05
5.94982e-05
6.04401e-05
6.12602e-05
6.19731e-05
6.25917e-05
6.31273e-05
6.35898e-05
6.3988e-05
6.43295e-05
6.46214e-05
6.48695e-05
6.50794e-05
6.52559e-05
6.54031e-05
6.55248e-05
6.56244e-05
6.57045e-05
6.57677e-05
6.58159e-05
6.58506e-05
6.58732e-05
6.58842e-05
6.58842e-05
6.58731e-05
6.58506e-05
6.58158e-05
6.57676e-05
6.57044e-05
6.56242e-05
6.55246e-05
6.54029e-05
6.52556e-05
6.50792e-05
6.48693e-05
6.46212e-05
6.43294e-05
6.39879e-05
6.35898e-05
6.31274e-05
6.25919e-05
6.19734e-05
6.12606e-05
6.04407e-05
5.94989e-05
5.84186e-05
5.71804e-05
5.57621e-05
5.41375e-05
5.22757e-05
5.01392e-05
4.77964e-05
5.15893e-05
4.5138e-05
3.70153e-05
2.6955e-05
8.2168e-08
3.10138e-10
3.10022e-10
8.21407e-08
2.69504e-05
3.70107e-05
4.51334e-05
5.15852e-05
4.7795e-05
5.01378e-05
5.22742e-05
5.41362e-05
5.57609e-05
5.71794e-05
5.84177e-05
5.94982e-05
6.04401e-05
6.12602e-05
6.19731e-05
6.25917e-05
6.31273e-05
6.35898e-05
6.3988e-05
6.43296e-05
6.46214e-05
6.48695e-05
6.50794e-05
6.52559e-05
6.54031e-05
6.55248e-05
6.56244e-05
6.57045e-05
6.57677e-05
6.58159e-05
6.58506e-05
6.58732e-05
6.58842e-05
6.58842e-05
6.58731e-05
6.58506e-05
6.58158e-05
6.57676e-05
6.57044e-05
6.56242e-05
6.55246e-05
6.54029e-05
6.52556e-05
6.50792e-05
6.48693e-05
6.46212e-05
6.43294e-05
6.39879e-05
6.35898e-05
6.31274e-05
6.25919e-05
6.19734e-05
6.12606e-05
6.04407e-05
5.94989e-05
5.84186e-05
5.71804e-05
5.57621e-05
5.41375e-05
5.22757e-05
5.01392e-05
4.77964e-05
5.15893e-05
4.5138e-05
3.70153e-05
2.6955e-05
8.2168e-08
3.10138e-10
3.10022e-10
8.21407e-08
2.69504e-05
3.70107e-05
4.51334e-05
5.15852e-05
4.7795e-05
5.01378e-05
5.22742e-05
5.41362e-05
5.57609e-05
5.71794e-05
5.84177e-05
5.94982e-05
6.04401e-05
6.12602e-05
6.19731e-05
6.25917e-05
6.31273e-05
6.35898e-05
6.3988e-05
6.43296e-05
6.46214e-05
6.48695e-05
6.50794e-05
6.52559e-05
6.54031e-05
6.55248e-05
6.56244e-05
6.57045e-05
6.57677e-05
6.58159e-05
6.58506e-05
6.58732e-05
6.58842e-05
6.58842e-05
6.58731e-05
6.58506e-05
6.58158e-05
6.57676e-05
6.57044e-05
6.56242e-05
6.55246e-05
6.54029e-05
6.52556e-05
6.50792e-05
6.48693e-05
6.46212e-05
6.43294e-05
6.39879e-05
6.35898e-05
6.31274e-05
6.25919e-05
6.19734e-05
6.12606e-05
6.04407e-05
5.94989e-05
5.84186e-05
5.71804e-05
5.57621e-05
5.41375e-05
5.22757e-05
5.01392e-05
4.77964e-05
5.15893e-05
4.5138e-05
3.70153e-05
2.6955e-05
8.2168e-08
3.10138e-10
3.10022e-10
8.21407e-08
2.69504e-05
3.70107e-05
4.51334e-05
5.15852e-05
4.7795e-05
5.01378e-05
5.22742e-05
5.41362e-05
5.57609e-05
5.71794e-05
5.84177e-05
5.94982e-05
6.04401e-05
6.12602e-05
6.19731e-05
6.25917e-05
6.31273e-05
6.35898e-05
6.3988e-05
6.43296e-05
6.46214e-05
6.48695e-05
6.50794e-05
6.52559e-05
6.54031e-05
6.55248e-05
6.56244e-05
6.57045e-05
6.57677e-05
6.58159e-05
6.58506e-05
6.58732e-05
6.58842e-05
6.58842e-05
6.58731e-05
6.58506e-05
6.58158e-05
6.57676e-05
6.57044e-05
6.56242e-05
6.55246e-05
6.54029e-05
6.52556e-05
6.50792e-05
6.48693e-05
6.46212e-05
6.43294e-05
6.39879e-05
6.35898e-05
6.31274e-05
6.25919e-05
6.19734e-05
6.12606e-05
6.04407e-05
5.94989e-05
5.84186e-05
5.71804e-05
5.57621e-05
5.41375e-05
5.22757e-05
5.01392e-05
4.77964e-05
5.15893e-05
4.5138e-05
3.70153e-05
2.6955e-05
8.2168e-08
3.10138e-10
3.10022e-10
8.21407e-08
2.69504e-05
3.70107e-05
4.51334e-05
5.15852e-05
4.7795e-05
5.01378e-05
5.22742e-05
5.41362e-05
5.57609e-05
5.71794e-05
5.84177e-05
5.94982e-05
6.04401e-05
6.12602e-05
6.19731e-05
6.25917e-05
6.31273e-05
6.35898e-05
6.3988e-05
6.43296e-05
6.46214e-05
6.48695e-05
6.50794e-05
6.52559e-05
6.54031e-05
6.55248e-05
6.56244e-05
6.57045e-05
6.57677e-05
6.58159e-05
6.58506e-05
6.58732e-05
6.58842e-05
6.58842e-05
6.58731e-05
6.58506e-05
6.58158e-05
6.57676e-05
6.57044e-05
6.56242e-05
6.55246e-05
6.54029e-05
6.52556e-05
6.50792e-05
6.48693e-05
6.46212e-05
6.43294e-05
6.39879e-05
6.35898e-05
6.31274e-05
6.25919e-05
6.19734e-05
6.12606e-05
6.04407e-05
5.94989e-05
5.84186e-05
5.71804e-05
5.57621e-05
5.41375e-05
5.22757e-05
5.01392e-05
4.77964e-05
5.15893e-05
4.5138e-05
3.70153e-05
2.6955e-05
8.2168e-08
3.10138e-10
3.10022e-10
8.21407e-08
2.69504e-05
3.70107e-05
4.51334e-05
5.15852e-05
4.7795e-05
5.01378e-05
5.22742e-05
5.41362e-05
5.57609e-05
5.71794e-05
5.84177e-05
5.94982e-05
6.04401e-05
6.12602e-05
6.19731e-05
6.25917e-05
6.31273e-05
6.35898e-05
6.3988e-05
6.43296e-05
6.46214e-05
6.48695e-05
6.50794e-05
6.52559e-05
6.54031e-05
6.55248e-05
6.56244e-05
6.57045e-05
6.57677e-05
6.58159e-05
6.58506e-05
6.58732e-05
6.58842e-05
6.58842e-05
6.58731e-05
6.58506e-05
6.58158e-05
6.57676e-05
6.57044e-05
6.56242e-05
6.55246e-05
6.54029e-05
6.52556e-05
6.50792e-05
6.48693e-05
6.46212e-05
6.43294e-05
6.39879e-05
6.35898e-05
6.31274e-05
6.25919e-05
6.19734e-05
6.12606e-05
6.04407e-05
5.94989e-05
5.84186e-05
5.71804e-05
5.57621e-05
5.41375e-05
5.22757e-05
5.01392e-05
4.77964e-05
5.15893e-05
4.5138e-05
3.70153e-05
2.6955e-05
8.2168e-08
3.10138e-10
3.10022e-10
8.21407e-08
2.69504e-05
3.70107e-05
4.51334e-05
5.15852e-05
4.7795e-05
5.01378e-05
5.22742e-05
5.41362e-05
5.57609e-05
5.71794e-05
5.84177e-05
5.94982e-05
6.04401e-05
6.12602e-05
6.19731e-05
6.25917e-05
6.31273e-05
6.35898e-05
6.3988e-05
6.43296e-05
6.46214e-05
6.48695e-05
6.50794e-05
6.52559e-05
6.54031e-05
6.55248e-05
6.56244e-05
6.57045e-05
6.57677e-05
6.58159e-05
6.58506e-05
6.58732e-05
6.58842e-05
6.58842e-05
6.58731e-05
6.58506e-05
6.58158e-05
6.57676e-05
6.57044e-05
6.56242e-05
6.55246e-05
6.54029e-05
6.52556e-05
6.50792e-05
6.48693e-05
6.46212e-05
6.43294e-05
6.39879e-05
6.35898e-05
6.31274e-05
6.25919e-05
6.19734e-05
6.12606e-05
6.04407e-05
5.94989e-05
5.84186e-05
5.71804e-05
5.57621e-05
5.41375e-05
5.22757e-05
5.01392e-05
4.77964e-05
5.15893e-05
4.5138e-05
3.70153e-05
2.6955e-05
8.2168e-08
3.10138e-10
3.10022e-10
8.21407e-08
2.69504e-05
3.70107e-05
4.51334e-05
5.15852e-05
4.7795e-05
5.01378e-05
5.22742e-05
5.41362e-05
5.57609e-05
5.71794e-05
5.84177e-05
5.94982e-05
6.04401e-05
6.12602e-05
6.19731e-05
6.25917e-05
6.31273e-05
6.35898e-05
6.3988e-05
6.43296e-05
6.46214e-05
6.48695e-05
6.50794e-05
6.52559e-05
6.54031e-05
6.55248e-05
6.56244e-05
6.57045e-05
6.57677e-05
6.58159e-05
6.58506e-05
6.58732e-05
6.58842e-05
6.58842e-05
6.58731e-05
6.58506e-05
6.58158e-05
6.57676e-05
6.57044e-05
6.56242e-05
6.55246e-05
6.54029e-05
6.52556e-05
6.50792e-05
6.48693e-05
6.46212e-05
6.43294e-05
6.39879e-05
6.35898e-05
6.31274e-05
6.25919e-05
6.19734e-05
6.12606e-05
6.04407e-05
5.94989e-05
5.84186e-05
5.71804e-05
5.57621e-05
5.41375e-05
5.22757e-05
5.01392e-05
4.77964e-05
5.15893e-05
4.5138e-05
3.70153e-05
2.6955e-05
8.2168e-08
3.10138e-10
3.10022e-10
8.21407e-08
2.69504e-05
3.70107e-05
4.51334e-05
5.15852e-05
4.7795e-05
5.01378e-05
5.22742e-05
5.41362e-05
5.57609e-05
5.71794e-05
5.84177e-05
5.94982e-05
6.04401e-05
6.12602e-05
6.19731e-05
6.25917e-05
6.31273e-05
6.35898e-05
6.3988e-05
6.43296e-05
6.46214e-05
6.48695e-05
6.50794e-05
6.52559e-05
6.54031e-05
6.55248e-05
6.56244e-05
6.57045e-05
6.57677e-05
6.58159e-05
6.58506e-05
6.58732e-05
6.58842e-05
6.58842e-05
6.58731e-05
6.58506e-05
6.58158e-05
6.57676e-05
6.57044e-05
6.56242e-05
6.55246e-05
6.54029e-05
6.52556e-05
6.50792e-05
6.48693e-05
6.46212e-05
6.43294e-05
6.39879e-05
6.35898e-05
6.31274e-05
6.25919e-05
6.19734e-05
6.12606e-05
6.04407e-05
5.94989e-05
5.84186e-05
5.71804e-05
5.57621e-05
5.41375e-05
5.22757e-05
5.01392e-05
4.77964e-05
5.15893e-05
4.5138e-05
3.70153e-05
2.6955e-05
8.2168e-08
3.10138e-10
3.10022e-10
8.21407e-08
2.69504e-05
3.70107e-05
4.51334e-05
5.15852e-05
4.7795e-05
5.01378e-05
5.22742e-05
5.41362e-05
5.57609e-05
5.71794e-05
5.84177e-05
5.94982e-05
6.04401e-05
6.12602e-05
6.19731e-05
6.25917e-05
6.31273e-05
6.35898e-05
6.3988e-05
6.43296e-05
6.46214e-05
6.48695e-05
6.50794e-05
6.52559e-05
6.54031e-05
6.55248e-05
6.56244e-05
6.57045e-05
6.57677e-05
6.58159e-05
6.58506e-05
6.58732e-05
6.58842e-05
6.58842e-05
6.58731e-05
6.58506e-05
6.58158e-05
6.57676e-05
6.57044e-05
6.56242e-05
6.55246e-05
6.54029e-05
6.52556e-05
6.50792e-05
6.48693e-05
6.46212e-05
6.43294e-05
6.39879e-05
6.35898e-05
6.31274e-05
6.25919e-05
6.19734e-05
6.12606e-05
6.04407e-05
5.94989e-05
5.84186e-05
5.71804e-05
5.57621e-05
5.41375e-05
5.22757e-05
5.01392e-05
4.77964e-05
5.15893e-05
4.5138e-05
3.70153e-05
2.6955e-05
8.2168e-08
3.10138e-10
3.10022e-10
8.21407e-08
2.69504e-05
3.70107e-05
4.51334e-05
5.15852e-05
4.7795e-05
5.01378e-05
5.22742e-05
5.41362e-05
5.57609e-05
5.71794e-05
5.84177e-05
5.94982e-05
6.04401e-05
6.12602e-05
6.19731e-05
6.25917e-05
6.31273e-05
6.35898e-05
6.3988e-05
6.43296e-05
6.46214e-05
6.48695e-05
6.50794e-05
6.52559e-05
6.54031e-05
6.55248e-05
6.56244e-05
6.57045e-05
6.57677e-05
6.58159e-05
6.58506e-05
6.58732e-05
6.58842e-05
6.58842e-05
6.58731e-05
6.58506e-05
6.58158e-05
6.57676e-05
6.57044e-05
6.56242e-05
6.55246e-05
6.54029e-05
6.52556e-05
6.50792e-05
6.48693e-05
6.46212e-05
6.43294e-05
6.39879e-05
6.35898e-05
6.31274e-05
6.25919e-05
6.19734e-05
6.12606e-05
6.04407e-05
5.94989e-05
5.84186e-05
5.71804e-05
5.57621e-05
5.41375e-05
5.22757e-05
5.01392e-05
4.77964e-05
5.15893e-05
4.5138e-05
3.70153e-05
2.6955e-05
8.2168e-08
3.10138e-10
3.10022e-10
8.21407e-08
2.69504e-05
3.70107e-05
4.51334e-05
5.15852e-05
4.7795e-05
5.01378e-05
5.22742e-05
5.41362e-05
5.57609e-05
5.71794e-05
5.84177e-05
5.94982e-05
6.04401e-05
6.12602e-05
6.19731e-05
6.25917e-05
6.31273e-05
6.35898e-05
6.3988e-05
6.43296e-05
6.46214e-05
6.48695e-05
6.50794e-05
6.52559e-05
6.54031e-05
6.55248e-05
6.56244e-05
6.57045e-05
6.57677e-05
6.58159e-05
6.58506e-05
6.58732e-05
6.58842e-05
6.58842e-05
6.58731e-05
6.58506e-05
6.58158e-05
6.57676e-05
6.57044e-05
6.56242e-05
6.55246e-05
6.54029e-05
6.52556e-05
6.50792e-05
6.48693e-05
6.46212e-05
6.43294e-05
6.39879e-05
6.35898e-05
6.31274e-05
6.25919e-05
6.19734e-05
6.12606e-05
6.04407e-05
5.94989e-05
5.84186e-05
5.71804e-05
5.57621e-05
5.41375e-05
5.22757e-05
5.01392e-05
4.77964e-05
5.15893e-05
4.5138e-05
3.70153e-05
2.6955e-05
8.2168e-08
3.10138e-10
3.10022e-10
8.21407e-08
2.69504e-05
3.70107e-05
4.51334e-05
5.15852e-05
4.7795e-05
5.01378e-05
5.22742e-05
5.41362e-05
5.57609e-05
5.71794e-05
5.84177e-05
5.94982e-05
6.04401e-05
6.12602e-05
6.19731e-05
6.25917e-05
6.31273e-05
6.35898e-05
6.3988e-05
6.43296e-05
6.46214e-05
6.48695e-05
6.50794e-05
6.52559e-05
6.54031e-05
6.55248e-05
6.56244e-05
6.57045e-05
6.57677e-05
6.58159e-05
6.58506e-05
6.58732e-05
6.58842e-05
6.58842e-05
6.58731e-05
6.58506e-05
6.58158e-05
6.57676e-05
6.57044e-05
6.56242e-05
6.55246e-05
6.54029e-05
6.52556e-05
6.50792e-05
6.48693e-05
6.46212e-05
6.43294e-05
6.39879e-05
6.35898e-05
6.31274e-05
6.25919e-05
6.19734e-05
6.12606e-05
6.04407e-05
5.94989e-05
5.84186e-05
5.71804e-05
5.57621e-05
5.41375e-05
5.22757e-05
5.01392e-05
4.77964e-05
5.15893e-05
4.5138e-05
3.70153e-05
2.6955e-05
8.2168e-08
3.10138e-10
3.10022e-10
8.21407e-08
2.69504e-05
3.70107e-05
4.51334e-05
5.15852e-05
4.7795e-05
5.01378e-05
5.22742e-05
5.41362e-05
5.57609e-05
5.71794e-05
5.84177e-05
5.94982e-05
6.04401e-05
6.12602e-05
6.19731e-05
6.25917e-05
6.31273e-05
6.35898e-05
6.3988e-05
6.43296e-05
6.46214e-05
6.48695e-05
6.50794e-05
6.52559e-05
6.54031e-05
6.55248e-05
6.56244e-05
6.57045e-05
6.57677e-05
6.58159e-05
6.58506e-05
6.58732e-05
6.58842e-05
6.58842e-05
6.58731e-05
6.58506e-05
6.58158e-05
6.57676e-05
6.57044e-05
6.56242e-05
6.55246e-05
6.54029e-05
6.52556e-05
6.50792e-05
6.48693e-05
6.46212e-05
6.43294e-05
6.39879e-05
6.35898e-05
6.31274e-05
6.25919e-05
6.19734e-05
6.12606e-05
6.04407e-05
5.94989e-05
5.84186e-05
5.71804e-05
5.57621e-05
5.41375e-05
5.22757e-05
5.01392e-05
4.77964e-05
5.15893e-05
4.5138e-05
3.70153e-05
2.6955e-05
8.2168e-08
3.10138e-10
3.10022e-10
8.21407e-08
2.69504e-05
3.70107e-05
4.51334e-05
5.15852e-05
4.7795e-05
5.01378e-05
5.22742e-05
5.41362e-05
5.57609e-05
5.71794e-05
5.84177e-05
5.94982e-05
6.04401e-05
6.12602e-05
6.19731e-05
6.25917e-05
6.31273e-05
6.35898e-05
6.3988e-05
6.43296e-05
6.46214e-05
6.48695e-05
6.50794e-05
6.52559e-05
6.54031e-05
6.55248e-05
6.56244e-05
6.57045e-05
6.57677e-05
6.58159e-05
6.58506e-05
6.58732e-05
6.58842e-05
6.58842e-05
6.58731e-05
6.58506e-05
6.58158e-05
6.57676e-05
6.57044e-05
6.56242e-05
6.55246e-05
6.54029e-05
6.52556e-05
6.50792e-05
6.48693e-05
6.46212e-05
6.43294e-05
6.39879e-05
6.35898e-05
6.31274e-05
6.25919e-05
6.19734e-05
6.12606e-05
6.04407e-05
5.94989e-05
5.84186e-05
5.71804e-05
5.57621e-05
5.41375e-05
5.22757e-05
5.01392e-05
4.77964e-05
5.15893e-05
4.5138e-05
3.70153e-05
2.6955e-05
8.2168e-08
3.10138e-10
3.10022e-10
8.21407e-08
2.69504e-05
3.70107e-05
4.51334e-05
5.15852e-05
4.7795e-05
5.01378e-05
5.22742e-05
5.41362e-05
5.57609e-05
5.71794e-05
5.84177e-05
5.94982e-05
6.04401e-05
6.12602e-05
6.19731e-05
6.25917e-05
6.31273e-05
6.35898e-05
6.3988e-05
6.43296e-05
6.46214e-05
6.48695e-05
6.50794e-05
6.52559e-05
6.54031e-05
6.55248e-05
6.56244e-05
6.57045e-05
6.57677e-05
6.58159e-05
6.58506e-05
6.58732e-05
6.58842e-05
6.58842e-05
6.58731e-05
6.58506e-05
6.58158e-05
6.57676e-05
6.57044e-05
6.56242e-05
6.55246e-05
6.54029e-05
6.52556e-05
6.50792e-05
6.48693e-05
6.46212e-05
6.43294e-05
6.39879e-05
6.35898e-05
6.31274e-05
6.25919e-05
6.19734e-05
6.12606e-05
6.04407e-05
5.94989e-05
5.84186e-05
5.71804e-05
5.57621e-05
5.41375e-05
5.22757e-05
5.01392e-05
4.77964e-05
5.15893e-05
4.5138e-05
3.70153e-05
2.6955e-05
8.2168e-08
3.10138e-10
3.10022e-10
8.21407e-08
2.69504e-05
3.70107e-05
4.51334e-05
5.15852e-05
4.7795e-05
5.01378e-05
5.22742e-05
5.41362e-05
5.57609e-05
5.71794e-05
5.84177e-05
5.94982e-05
6.04401e-05
6.12602e-05
6.19731e-05
6.25917e-05
6.31273e-05
6.35898e-05
6.3988e-05
6.43296e-05
6.46214e-05
6.48695e-05
6.50794e-05
6.52559e-05
6.54031e-05
6.55248e-05
6.56244e-05
6.57045e-05
6.57677e-05
6.58159e-05
6.58506e-05
6.58732e-05
6.58842e-05
6.58842e-05
6.58731e-05
6.58506e-05
6.58158e-05
6.57676e-05
6.57044e-05
6.56242e-05
6.55246e-05
6.54029e-05
6.52556e-05
6.50792e-05
6.48693e-05
6.46212e-05
6.43294e-05
6.39879e-05
6.35898e-05
6.31274e-05
6.25919e-05
6.19734e-05
6.12606e-05
6.04407e-05
5.94989e-05
5.84186e-05
5.71804e-05
5.57621e-05
5.41375e-05
5.22757e-05
5.01392e-05
4.77964e-05
5.15893e-05
4.5138e-05
3.70153e-05
2.6955e-05
8.2168e-08
3.10138e-10
3.10022e-10
8.21407e-08
2.69504e-05
3.70107e-05
4.51334e-05
5.15852e-05
4.7795e-05
5.01378e-05
5.22742e-05
5.41362e-05
5.57609e-05
5.71794e-05
5.84177e-05
5.94982e-05
6.04401e-05
6.12602e-05
6.19731e-05
6.25917e-05
6.31273e-05
6.35898e-05
6.3988e-05
6.43296e-05
6.46214e-05
6.48695e-05
6.50794e-05
6.52559e-05
6.54031e-05
6.55248e-05
6.56244e-05
6.57045e-05
6.57677e-05
6.58159e-05
6.58506e-05
6.58732e-05
6.58842e-05
6.58842e-05
6.58731e-05
6.58506e-05
6.58158e-05
6.57676e-05
6.57044e-05
6.56242e-05
6.55246e-05
6.54029e-05
6.52556e-05
6.50792e-05
6.48693e-05
6.46212e-05
6.43294e-05
6.39879e-05
6.35898e-05
6.31274e-05
6.25919e-05
6.19734e-05
6.12606e-05
6.04407e-05
5.94989e-05
5.84186e-05
5.71804e-05
5.57621e-05
5.41375e-05
5.22757e-05
5.01392e-05
4.77964e-05
5.15893e-05
4.5138e-05
3.70153e-05
2.6955e-05
8.2168e-08
3.10138e-10
3.10022e-10
8.21407e-08
2.69504e-05
3.70107e-05
4.51334e-05
5.15852e-05
4.7795e-05
5.01378e-05
5.22742e-05
5.41362e-05
5.57609e-05
5.71794e-05
5.84177e-05
5.94982e-05
6.04401e-05
6.12602e-05
6.19731e-05
6.25917e-05
6.31273e-05
6.35898e-05
6.3988e-05
6.43296e-05
6.46214e-05
6.48695e-05
6.50794e-05
6.52559e-05
6.54031e-05
6.55248e-05
6.56244e-05
6.57045e-05
6.57677e-05
6.58159e-05
6.58506e-05
6.58732e-05
6.58842e-05
6.58842e-05
6.58731e-05
6.58506e-05
6.58158e-05
6.57676e-05
6.57044e-05
6.56242e-05
6.55246e-05
6.54029e-05
6.52556e-05
6.50792e-05
6.48693e-05
6.46212e-05
6.43294e-05
6.39879e-05
6.35898e-05
6.31274e-05
6.25919e-05
6.19734e-05
6.12606e-05
6.04407e-05
5.94989e-05
5.84186e-05
5.71804e-05
5.57621e-05
5.41375e-05
5.22757e-05
5.01392e-05
4.77964e-05
5.15893e-05
4.5138e-05
3.70153e-05
2.6955e-05
8.2168e-08
3.10138e-10
3.10022e-10
8.21407e-08
2.69504e-05
3.70107e-05
4.51334e-05
5.15852e-05
4.7795e-05
5.01378e-05
5.22742e-05
5.41362e-05
5.57609e-05
5.71794e-05
5.84177e-05
5.94982e-05
6.04401e-05
6.12602e-05
6.19731e-05
6.25917e-05
6.31273e-05
6.35898e-05
6.3988e-05
6.43296e-05
6.46214e-05
6.48695e-05
6.50794e-05
6.52559e-05
6.54031e-05
6.55248e-05
6.56244e-05
6.57045e-05
6.57677e-05
6.58159e-05
6.58506e-05
6.58732e-05
6.58842e-05
6.58842e-05
6.58731e-05
6.58506e-05
6.58158e-05
6.57676e-05
6.57044e-05
6.56242e-05
6.55246e-05
6.54029e-05
6.52556e-05
6.50792e-05
6.48693e-05
6.46212e-05
6.43294e-05
6.39879e-05
6.35898e-05
6.31274e-05
6.25919e-05
6.19734e-05
6.12606e-05
6.04407e-05
5.94989e-05
5.84186e-05
5.71804e-05
5.57621e-05
5.41375e-05
5.22757e-05
5.01392e-05
4.77964e-05
5.15893e-05
4.5138e-05
3.70153e-05
2.6955e-05
8.2168e-08
3.10138e-10
3.10022e-10
8.21407e-08
2.69504e-05
3.70107e-05
4.51334e-05
5.15852e-05
4.7795e-05
5.01378e-05
5.22742e-05
5.41362e-05
5.57609e-05
5.71794e-05
5.84177e-05
5.94982e-05
6.04401e-05
6.12602e-05
6.19731e-05
6.25917e-05
6.31273e-05
6.35898e-05
6.3988e-05
6.43296e-05
6.46214e-05
6.48695e-05
6.50794e-05
6.52559e-05
6.54031e-05
6.55248e-05
6.56244e-05
6.57045e-05
6.57677e-05
6.58159e-05
6.58506e-05
6.58732e-05
6.58842e-05
6.58842e-05
6.58731e-05
6.58506e-05
6.58158e-05
6.57676e-05
6.57044e-05
6.56242e-05
6.55246e-05
6.54029e-05
6.52556e-05
6.50792e-05
6.48693e-05
6.46212e-05
6.43294e-05
6.39879e-05
6.35898e-05
6.31274e-05
6.25919e-05
6.19734e-05
6.12606e-05
6.04407e-05
5.94989e-05
5.84186e-05
5.71804e-05
5.57621e-05
5.41375e-05
5.22757e-05
5.01392e-05
4.77964e-05
5.15893e-05
4.5138e-05
3.70153e-05
2.6955e-05
8.2168e-08
3.10138e-10
3.10022e-10
8.21407e-08
2.69504e-05
3.70107e-05
4.51334e-05
5.15852e-05
4.7795e-05
5.01378e-05
5.22742e-05
5.41362e-05
5.57609e-05
5.71794e-05
5.84177e-05
5.94982e-05
6.04401e-05
6.12602e-05
6.19731e-05
6.25917e-05
6.31273e-05
6.35898e-05
6.3988e-05
6.43296e-05
6.46214e-05
6.48695e-05
6.50794e-05
6.52559e-05
6.54031e-05
6.55248e-05
6.56244e-05
6.57045e-05
6.57677e-05
6.58159e-05
6.58506e-05
6.58732e-05
6.58842e-05
6.58842e-05
6.58731e-05
6.58506e-05
6.58158e-05
6.57676e-05
6.57044e-05
6.56242e-05
6.55246e-05
6.54029e-05
6.52556e-05
6.50792e-05
6.48693e-05
6.46212e-05
6.43294e-05
6.39879e-05
6.35898e-05
6.31274e-05
6.25919e-05
6.19734e-05
6.12606e-05
6.04407e-05
5.94989e-05
5.84186e-05
5.71804e-05
5.57621e-05
5.41375e-05
5.22757e-05
5.01392e-05
4.77964e-05
5.15893e-05
4.5138e-05
3.70153e-05
2.6955e-05
8.2168e-08
3.10138e-10
3.10022e-10
8.21407e-08
2.69504e-05
3.70107e-05
4.51334e-05
5.15852e-05
4.7795e-05
5.01378e-05
5.22742e-05
5.41362e-05
5.57609e-05
5.71794e-05
5.84177e-05
5.94982e-05
6.04401e-05
6.12602e-05
6.19731e-05
6.25917e-05
6.31273e-05
6.35898e-05
6.3988e-05
6.43296e-05
6.46214e-05
6.48695e-05
6.50794e-05
6.52559e-05
6.54031e-05
6.55248e-05
6.56244e-05
6.57045e-05
6.57677e-05
6.58159e-05
6.58506e-05
6.58732e-05
6.58842e-05
6.58842e-05
6.58731e-05
6.58506e-05
6.58158e-05
6.57676e-05
6.57044e-05
6.56242e-05
6.55246e-05
6.54029e-05
6.52556e-05
6.50792e-05
6.48693e-05
6.46212e-05
6.43294e-05
6.39879e-05
6.35898e-05
6.31274e-05
6.25919e-05
6.19734e-05
6.12606e-05
6.04407e-05
5.94989e-05
5.84186e-05
5.71804e-05
5.57621e-05
5.41375e-05
5.22757e-05
5.01392e-05
4.77964e-05
5.15893e-05
4.5138e-05
3.70153e-05
2.6955e-05
8.2168e-08
3.10138e-10
3.10022e-10
8.21407e-08
2.69504e-05
3.70107e-05
4.51334e-05
5.15852e-05
4.7795e-05
5.01378e-05
5.22742e-05
5.41362e-05
5.57609e-05
5.71794e-05
5.84177e-05
5.94982e-05
6.04401e-05
6.12602e-05
6.19731e-05
6.25917e-05
6.31273e-05
6.35898e-05
6.3988e-05
6.43296e-05
6.46214e-05
6.48695e-05
6.50794e-05
6.52559e-05
6.54031e-05
6.55248e-05
6.56244e-05
6.57045e-05
6.57677e-05
6.58159e-05
6.58506e-05
6.58732e-05
6.58842e-05
6.58842e-05
6.58731e-05
6.58506e-05
6.58158e-05
6.57676e-05
6.57044e-05
6.56242e-05
6.55246e-05
6.54029e-05
6.52556e-05
6.50792e-05
6.48693e-05
6.46212e-05
6.43294e-05
6.39879e-05
6.35898e-05
6.31274e-05
6.25919e-05
6.19734e-05
6.12606e-05
6.04407e-05
5.94989e-05
5.84186e-05
5.71804e-05
5.57621e-05
5.41375e-05
5.22757e-05
5.01392e-05
4.77964e-05
5.15893e-05
4.5138e-05
3.70153e-05
2.6955e-05
8.2168e-08
3.10138e-10
3.10022e-10
8.21407e-08
2.69504e-05
3.70107e-05
4.51334e-05
5.15852e-05
4.7795e-05
5.01378e-05
5.22742e-05
5.41362e-05
5.57609e-05