/*--------------------------------*- C++ -*----------------------------------*\
  =========                 |
  \\      /  F ield         | OpenFOAM: The Open Source CFD Toolbox
   \\    /   O peration     | Website:  https://openfoam.org
    \\  /    A nd           | Version:  13
     \\/     M anipulation  |
\*---------------------------------------------------------------------------*/
FoamFile
{
    format      ascii;
    class       volScalarField;
    location    "105";
    object      rhok;
}
// * * * * * * * * * * * * * * * * * * * * * * * * * * * * * * * * * * * * * //

dimensions      [];

internalField   nonuniform List<scalar> 
315000
(
0.444615
0.429351
0.414047
0.412579
0.411808
0.411038
0.410269
0.4095
0.408732
0.407965
0.407199
0.406434
0.405671
0.40491
0.404151
0.403395
0.402641
0.40189
0.401143
0.400399
0.399659
0.398923
0.398192
0.397465
0.396743
0.396027
0.395316
0.394611
0.393911
0.393217
0.39253
0.391848
0.391173
0.390505
0.389843
0.389188
0.388539
0.387897
0.387262
0.386633
0.386011
0.385396
0.384787
0.384184
0.383588
0.382999
0.382415
0.381838
0.381266
0.380701
0.380141
0.379586
0.379036
0.378492
0.377952
0.377417
0.376886
0.376359
0.375836
0.375316
0.3748
0.374287
0.373776
0.373268
0.372761
0.372257
0.371753
0.371251
0.37075
0.37025
0.444615
0.429348
0.414036
0.412567
0.411797
0.411026
0.410257
0.409488
0.40872
0.407953
0.407187
0.406422
0.40566
0.404899
0.40414
0.403384
0.40263
0.40188
0.401132
0.400389
0.399649
0.398914
0.398183
0.397456
0.396735
0.396018
0.395308
0.394602
0.393903
0.393209
0.392522
0.391841
0.391166
0.390497
0.389835
0.38918
0.388532
0.38789
0.387254
0.386626
0.386004
0.385389
0.38478
0.384178
0.383582
0.382992
0.382409
0.381832
0.381261
0.380695
0.380135
0.379581
0.379031
0.378487
0.377948
0.377413
0.376882
0.376355
0.375833
0.375313
0.374797
0.374284
0.373774
0.373266
0.37276
0.372255
0.371752
0.371251
0.37075
0.370249
0.444615
0.429339
0.414022
0.412553
0.411783
0.411012
0.410243
0.409474
0.408706
0.407939
0.407174
0.40641
0.405647
0.404887
0.404128
0.403373
0.40262
0.401869
0.401123
0.400379
0.39964
0.398905
0.398174
0.397448
0.396727
0.396011
0.3953
0.394595
0.393896
0.393202
0.392515
0.391834
0.391159
0.390491
0.389829
0.389174
0.388525
0.387883
0.387248
0.38662
0.385998
0.385383
0.384774
0.384172
0.383576
0.382987
0.382404
0.381827
0.381256
0.38069
0.380131
0.379576
0.379027
0.378483
0.377944
0.377409
0.376879
0.376352
0.37583
0.375311
0.374795
0.374282
0.373772
0.373264
0.372758
0.372254
0.371752
0.37125
0.370749
0.370249
0.444615
0.429337
0.414017
0.412548
0.411777
0.411007
0.410237
0.409468
0.4087
0.407934
0.407168
0.406404
0.405642
0.404881
0.404123
0.403367
0.402614
0.401864
0.401118
0.400375
0.399635
0.3989
0.398169
0.397443
0.396722
0.396006
0.395296
0.39459
0.393891
0.393198
0.39251
0.391829
0.391154
0.390486
0.389824
0.389169
0.388521
0.387879
0.387244
0.386615
0.385993
0.385378
0.38477
0.384168
0.383572
0.382983
0.3824
0.381823
0.381252
0.380687
0.380127
0.379573
0.379024
0.37848
0.377941
0.377406
0.376876
0.37635
0.375827
0.375309
0.374793
0.37428
0.37377
0.373263
0.372757
0.372253
0.371751
0.37125
0.370749
0.370249
0.444615
0.429337
0.414017
0.412548
0.411777
0.411007
0.410237
0.409469
0.408701
0.407934
0.407168
0.406404
0.405641
0.404881
0.404123
0.403367
0.402613
0.401863
0.401116
0.400373
0.399634
0.398898
0.398168
0.397441
0.39672
0.396004
0.395293
0.394588
0.393888
0.393195
0.392507
0.391826
0.391151
0.390483
0.389821
0.389166
0.388517
0.387875
0.38724
0.386612
0.38599
0.385375
0.384766
0.384164
0.383569
0.38298
0.382397
0.38182
0.381249
0.380684
0.380124
0.37957
0.379022
0.378478
0.377939
0.377404
0.376874
0.376348
0.375826
0.375307
0.374792
0.374279
0.373769
0.373262
0.372756
0.372253
0.37175
0.371249
0.370749
0.370249
0.444615
0.429341
0.414021
0.412552
0.411781
0.411011
0.410241
0.409472
0.408704
0.407937
0.407171
0.406406
0.405644
0.404883
0.404124
0.403368
0.402614
0.401864
0.401117
0.400373
0.399634
0.398898
0.398167
0.39744
0.396719
0.396002
0.395291
0.394586
0.393886
0.393193
0.392505
0.391824
0.391149
0.39048
0.389819
0.389163
0.388515
0.387873
0.387238
0.386609
0.385988
0.385372
0.384764
0.384162
0.383567
0.382977
0.382395
0.381818
0.381247
0.380682
0.380122
0.379568
0.37902
0.378476
0.377937
0.377403
0.376873
0.376347
0.375824
0.375306
0.37479
0.374278
0.373768
0.373261
0.372756
0.372252
0.37175
0.371249
0.370749
0.370249
0.444615
0.42934
0.414023
0.412554
0.411783
0.411012
0.410243
0.409474
0.408705
0.407938
0.407172
0.406408
0.405645
0.404884
0.404125
0.403369
0.402615
0.401864
0.401117
0.400373
0.399633
0.398898
0.398166
0.39744
0.396718
0.396001
0.39529
0.394585
0.393885
0.393191
0.392504
0.391822
0.391147
0.390479
0.389817
0.389162
0.388513
0.387871
0.387236
0.386608
0.385986
0.385371
0.384762
0.38416
0.383565
0.382976
0.382393
0.381816
0.381246
0.380681
0.380121
0.379567
0.379018
0.378475
0.377936
0.377402
0.376872
0.376346
0.375824
0.375305
0.37479
0.374277
0.373768
0.37326
0.372755
0.372252
0.37175
0.371249
0.370749
0.370249
0.444615
0.429343
0.414024
0.412555
0.411784
0.411014
0.410244
0.409475
0.408706
0.407939
0.407173
0.406408
0.405645
0.404884
0.404125
0.403369
0.402615
0.401864
0.401116
0.400373
0.399633
0.398897
0.398165
0.397439
0.396717
0.396
0.395289
0.394584
0.393884
0.39319
0.392503
0.391821
0.391146
0.390478
0.389816
0.389161
0.388512
0.38787
0.387235
0.386607
0.385985
0.38537
0.384761
0.384159
0.383564
0.382975
0.382392
0.381815
0.381245
0.38068
0.38012
0.379566
0.379018
0.378474
0.377935
0.377401
0.376871
0.376345
0.375823
0.375305
0.374789
0.374277
0.373767
0.37326
0.372755
0.372251
0.371749
0.371249
0.370749
0.370249
0.444615
0.429338
0.414022
0.412554
0.411783
0.411013
0.410243
0.409474
0.408706
0.407939
0.407172
0.406408
0.405645
0.404883
0.404124
0.403368
0.402614
0.401863
0.401116
0.400372
0.399632
0.398896
0.398164
0.397438
0.396716
0.395999
0.395288
0.394583
0.393883
0.393189
0.392502
0.39182
0.391146
0.390477
0.389815
0.38916
0.388511
0.38787
0.387234
0.386606
0.385984
0.385369
0.384761
0.384159
0.383564
0.382975
0.382392
0.381815
0.381244
0.380679
0.38012
0.379566
0.379017
0.378474
0.377935
0.377401
0.376871
0.376345
0.375823
0.375304
0.374789
0.374277
0.373767
0.37326
0.372755
0.372251
0.371749
0.371249
0.370749
0.370249
0.444615
0.429344
0.414029
0.412561
0.41179
0.411019
0.410249
0.40948
0.408711
0.407944
0.407177
0.406412
0.405648
0.404887
0.404127
0.40337
0.402616
0.401864
0.401117
0.400372
0.399632
0.398896
0.398164
0.397438
0.396716
0.395999
0.395288
0.394582
0.393883
0.393189
0.392501
0.39182
0.391145
0.390477
0.389815
0.38916
0.388511
0.387869
0.387234
0.386606
0.385984
0.385369
0.384761
0.384159
0.383563
0.382974
0.382392
0.381815
0.381244
0.380679
0.38012
0.379566
0.379017
0.378474
0.377935
0.377401
0.376871
0.376345
0.375823
0.375304
0.374789
0.374277
0.373767
0.37326
0.372755
0.372251
0.371749
0.371249
0.370749
0.370249
0.444615
0.429353
0.414044
0.412575
0.411804
0.411034
0.410264
0.409494
0.408725
0.407956
0.407189
0.406423
0.405659
0.404896
0.404136
0.403378
0.402623
0.401871
0.401122
0.400377
0.399636
0.398899
0.398167
0.39744
0.396718
0.396001
0.395289
0.394583
0.393883
0.39319
0.392502
0.391821
0.391146
0.390477
0.389815
0.38916
0.388511
0.38787
0.387234
0.386606
0.385984
0.385369
0.384761
0.384159
0.383564
0.382975
0.382392
0.381815
0.381244
0.380679
0.38012
0.379566
0.379017
0.378474
0.377935
0.377401
0.376871
0.376345
0.375823
0.375304
0.374789
0.374277
0.373767
0.37326
0.372755
0.372251
0.371749
0.371249
0.370749
0.370249
0.444615
0.42932
0.414043
0.412579
0.411809
0.41104
0.410271
0.409502
0.408734
0.407966
0.407199
0.406433
0.405668
0.404905
0.404144
0.403385
0.40263
0.401877
0.401128
0.400382
0.39964
0.398903
0.398171
0.397443
0.39672
0.396003
0.395291
0.394585
0.393885
0.393191
0.392503
0.391822
0.391146
0.390478
0.389816
0.389161
0.388512
0.38787
0.387235
0.386606
0.385985
0.38537
0.384761
0.384159
0.383564
0.382975
0.382392
0.381815
0.381245
0.38068
0.38012
0.379566
0.379018
0.378474
0.377935
0.377401
0.376871
0.376345
0.375823
0.375304
0.374789
0.374277
0.373767
0.37326
0.372755
0.372251
0.371749
0.371249
0.370749
0.370249
0.444616
0.429358
0.414053
0.412584
0.411813
0.411043
0.410272
0.409502
0.408733
0.407965
0.407197
0.406431
0.405666
0.404904
0.404143
0.403384
0.402629
0.401877
0.401127
0.400382
0.399641
0.398904
0.398171
0.397444
0.396721
0.396004
0.395292
0.394586
0.393886
0.393192
0.392504
0.391823
0.391147
0.390479
0.389817
0.389161
0.388513
0.387871
0.387235
0.386607
0.385985
0.38537
0.384762
0.38416
0.383564
0.382975
0.382392
0.381816
0.381245
0.38068
0.38012
0.379567
0.379018
0.378474
0.377935
0.377401
0.376871
0.376345
0.375823
0.375305
0.374789
0.374277
0.373767
0.37326
0.372755
0.372251
0.371749
0.371249
0.370749
0.370249
0.444615
0.42935
0.41404
0.412572
0.411801
0.411031
0.410261
0.409491
0.408723
0.407955
0.407188
0.406422
0.405659
0.404897
0.404137
0.403379
0.402625
0.401873
0.401125
0.40038
0.399639
0.398903
0.398171
0.397443
0.396721
0.396004
0.395293
0.394587
0.393887
0.393193
0.392505
0.391823
0.391148
0.390479
0.389817
0.389162
0.388513
0.387871
0.387236
0.386608
0.385986
0.385371
0.384762
0.38416
0.383565
0.382976
0.382393
0.381816
0.381245
0.38068
0.380121
0.379567
0.379018
0.378474
0.377936
0.377401
0.376871
0.376345
0.375823
0.375305
0.374789
0.374277
0.373767
0.37326
0.372755
0.372252
0.37175
0.371249
0.370749
0.370249
0.444615
0.429345
0.414031
0.412562
0.411792
0.411021
0.410251
0.409482
0.408714
0.407946
0.40718
0.406415
0.405652
0.40489
0.404131
0.403374
0.40262
0.401869
0.401122
0.400377
0.399637
0.398901
0.398169
0.397442
0.396721
0.396004
0.395292
0.394587
0.393887
0.393193
0.392505
0.391823
0.391148
0.39048
0.389818
0.389162
0.388514
0.387872
0.387236
0.386608
0.385986
0.385371
0.384763
0.384161
0.383565
0.382976
0.382393
0.381816
0.381245
0.38068
0.380121
0.379567
0.379018
0.378475
0.377936
0.377401
0.376871
0.376346
0.375823
0.375305
0.37479
0.374277
0.373768
0.37326
0.372755
0.372252
0.37175
0.371249
0.370749
0.370249
0.444615
0.429342
0.414024
0.412555
0.411784
0.411013
0.410244
0.409474
0.408706
0.407939
0.407173
0.406408
0.405646
0.404885
0.404126
0.403369
0.402616
0.401865
0.401118
0.400374
0.399634
0.398898
0.398167
0.39744
0.396719
0.396002
0.395291
0.394586
0.393886
0.393192
0.392504
0.391823
0.391148
0.39048
0.389818
0.389162
0.388514
0.387872
0.387237
0.386608
0.385986
0.385371
0.384763
0.384161
0.383565
0.382976
0.382393
0.381817
0.381246
0.380681
0.380121
0.379567
0.379019
0.378475
0.377936
0.377402
0.376872
0.376346
0.375824
0.375305
0.37479
0.374277
0.373768
0.37326
0.372755
0.372252
0.37175
0.371249
0.370749
0.370249
0.444615
0.429336
0.414016
0.412548
0.411777
0.411007
0.410237
0.409468
0.4087
0.407933
0.407167
0.406403
0.40564
0.40488
0.404121
0.403365
0.402612
0.401861
0.401114
0.400371
0.399631
0.398896
0.398165
0.397438
0.396717
0.396001
0.39529
0.394584
0.393885
0.393191
0.392504
0.391823
0.391148
0.390479
0.389817
0.389162
0.388514
0.387872
0.387237
0.386608
0.385987
0.385371
0.384763
0.384161
0.383566
0.382976
0.382394
0.381817
0.381246
0.380681
0.380121
0.379568
0.379019
0.378475
0.377936
0.377402
0.376872
0.376346
0.375824
0.375305
0.37479
0.374277
0.373768
0.37326
0.372755
0.372252
0.37175
0.371249
0.370749
0.370249
0.444615
0.429338
0.414019
0.41255
0.411779
0.411009
0.410239
0.40947
0.408702
0.407935
0.407169
0.406404
0.405642
0.404881
0.404122
0.403366
0.402612
0.401862
0.401114
0.400371
0.399631
0.398896
0.398165
0.397438
0.396717
0.396
0.39529
0.394584
0.393885
0.393191
0.392504
0.391823
0.391148
0.390479
0.389818
0.389162
0.388514
0.387872
0.387237
0.386609
0.385987
0.385372
0.384763
0.384161
0.383566
0.382977
0.382394
0.381817
0.381246
0.380681
0.380122
0.379568
0.379019
0.378475
0.377936
0.377402
0.376872
0.376346
0.375824
0.375305
0.37479
0.374278
0.373768
0.373261
0.372755
0.372252
0.37175
0.371249
0.370749
0.370249
0.444615
0.429346
0.414031
0.412562
0.411791
0.41102
0.410251
0.409481
0.408713
0.407945
0.407179
0.406414
0.405651
0.404889
0.40413
0.403373
0.402619
0.401868
0.40112
0.400376
0.399636
0.3989
0.398168
0.397441
0.396719
0.396003
0.395292
0.394586
0.393886
0.393193
0.392505
0.391824
0.391149
0.39048
0.389818
0.389163
0.388515
0.387873
0.387238
0.386609
0.385987
0.385372
0.384764
0.384162
0.383566
0.382977
0.382394
0.381817
0.381247
0.380681
0.380122
0.379568
0.379019
0.378476
0.377937
0.377402
0.376872
0.376346
0.375824
0.375305
0.37479
0.374278
0.373768
0.373261
0.372755
0.372252
0.37175
0.371249
0.370749
0.370249
0.444615
0.429342
0.41404
0.412572
0.411802
0.411032
0.410262
0.409493
0.408725
0.407957
0.40719
0.406425
0.405661
0.404899
0.40414
0.403382
0.402627
0.401876
0.401127
0.400382
0.399642
0.398905
0.398173
0.397446
0.396723
0.396006
0.395295
0.394589
0.393889
0.393195
0.392507
0.391825
0.39115
0.390482
0.38982
0.389164
0.388516
0.387874
0.387238
0.38661
0.385988
0.385373
0.384764
0.384162
0.383567
0.382978
0.382395
0.381818
0.381247
0.380682
0.380122
0.379568
0.37902
0.378476
0.377937
0.377402
0.376872
0.376346
0.375824
0.375306
0.37479
0.374278
0.373768
0.373261
0.372755
0.372252
0.37175
0.371249
0.370749
0.370249
0.444616
0.429359
0.414052
0.412583
0.411812
0.411041
0.410271
0.409501
0.408732
0.407964
0.407197
0.406432
0.405667
0.404905
0.404145
0.403387
0.402632
0.40188
0.401131
0.400386
0.399645
0.398908
0.398176
0.397448
0.396726
0.396008
0.395297
0.394591
0.39389
0.393196
0.392508
0.391827
0.391151
0.390483
0.389821
0.389165
0.388516
0.387874
0.387239
0.386611
0.385989
0.385373
0.384765
0.384163
0.383567
0.382978
0.382395
0.381818
0.381247
0.380682
0.380123
0.379569
0.37902
0.378476
0.377937
0.377403
0.376873
0.376347
0.375824
0.375306
0.37479
0.374278
0.373768
0.373261
0.372755
0.372252
0.37175
0.371249
0.370749
0.370249
0.444615
0.429345
0.414043
0.412575
0.411805
0.411035
0.410265
0.409496
0.408728
0.40796
0.407193
0.406428
0.405664
0.404902
0.404142
0.403385
0.40263
0.401878
0.40113
0.400385
0.399644
0.398908
0.398175
0.397448
0.396726
0.396009
0.395297
0.394591
0.393891
0.393197
0.392509
0.391827
0.391152
0.390483
0.389821
0.389166
0.388517
0.387875
0.38724
0.386611
0.385989
0.385374
0.384765
0.384163
0.383568
0.382978
0.382395
0.381819
0.381248
0.380682
0.380123
0.379569
0.37902
0.378476
0.377937
0.377403
0.376873
0.376347
0.375825
0.375306
0.37479
0.374278
0.373768
0.373261
0.372756
0.372252
0.37175
0.371249
0.370749
0.370249
0.444615
0.429349
0.414037
0.412569
0.411798
0.411028
0.410258
0.409489
0.40872
0.407953
0.407186
0.406421
0.405658
0.404896
0.404136
0.403379
0.402625
0.401874
0.401126
0.400381
0.399641
0.398905
0.398173
0.397446
0.396724
0.396007
0.395296
0.39459
0.393891
0.393197
0.392509
0.391827
0.391152
0.390484
0.389822
0.389166
0.388517
0.387875
0.38724
0.386612
0.38599
0.385374
0.384766
0.384164
0.383568
0.382979
0.382396
0.381819
0.381248
0.380683
0.380123
0.379569
0.37902
0.378476
0.377937
0.377403
0.376873
0.376347
0.375825
0.375306
0.374791
0.374278
0.373768
0.373261
0.372756
0.372252
0.37175
0.371249
0.370749
0.370249
0.444615
0.429345
0.414033
0.412565
0.411794
0.411024
0.410254
0.409485
0.408717
0.407949
0.407183
0.406418
0.405655
0.404893
0.404134
0.403377
0.402623
0.401872
0.401124
0.40038
0.39964
0.398904
0.398172
0.397446
0.396724
0.396007
0.395296
0.39459
0.393891
0.393197
0.392509
0.391828
0.391153
0.390484
0.389822
0.389167
0.388518
0.387876
0.387241
0.386612
0.38599
0.385375
0.384766
0.384164
0.383568
0.382979
0.382396
0.381819
0.381248
0.380683
0.380123
0.379569
0.37902
0.378477
0.377938
0.377403
0.376873
0.376347
0.375825
0.375306
0.374791
0.374278
0.373768
0.373261
0.372756
0.372252
0.37175
0.371249
0.370749
0.370249
0.444615
0.429351
0.414042
0.412574
0.411803
0.411033
0.410263
0.409493
0.408725
0.407957
0.40719
0.406425
0.405661
0.404899
0.40414
0.403382
0.402628
0.401876
0.401128
0.400384
0.399643
0.398907
0.398175
0.397448
0.396726
0.396009
0.395298
0.394592
0.393892
0.393198
0.39251
0.391829
0.391154
0.390485
0.389823
0.389167
0.388519
0.387877
0.387241
0.386613
0.385991
0.385375
0.384767
0.384165
0.383569
0.38298
0.382396
0.381819
0.381248
0.380683
0.380124
0.37957
0.379021
0.378477
0.377938
0.377403
0.376873
0.376347
0.375825
0.375306
0.374791
0.374278
0.373768
0.373261
0.372756
0.372252
0.37175
0.371249
0.370749
0.370249
0.444615
0.429331
0.414043
0.412577
0.411807
0.411038
0.410269
0.4095
0.408732
0.407965
0.407198
0.406433
0.405669
0.404907
0.404147
0.403389
0.402634
0.401882
0.401134
0.400389
0.399648
0.398911
0.398179
0.397451
0.396729
0.396012
0.3953
0.394594
0.393894
0.3932
0.392512
0.39183
0.391155
0.390486
0.389824
0.389168
0.38852
0.387877
0.387242
0.386613
0.385991
0.385376
0.384767
0.384165
0.383569
0.38298
0.382397
0.38182
0.381249
0.380683
0.380124
0.37957
0.379021
0.378477
0.377938
0.377403
0.376873
0.376347
0.375825
0.375306
0.374791
0.374278
0.373768
0.373261
0.372756
0.372252
0.37175
0.371249
0.370749
0.370249
0.444616
0.429357
0.414052
0.412584
0.411813
0.411043
0.410273
0.409503
0.408735
0.407967
0.4072
0.406435
0.405671
0.404909
0.404149
0.403391
0.402636
0.401884
0.401136
0.400391
0.39965
0.398913
0.398181
0.397454
0.396731
0.396014
0.395302
0.394596
0.393896
0.393202
0.392514
0.391832
0.391157
0.390488
0.389825
0.38917
0.388521
0.387878
0.387243
0.386614
0.385992
0.385377
0.384768
0.384166
0.38357
0.38298
0.382397
0.38182
0.381249
0.380684
0.380124
0.37957
0.379021
0.378477
0.377938
0.377404
0.376873
0.376347
0.375825
0.375306
0.374791
0.374278
0.373769
0.373261
0.372756
0.372252
0.37175
0.371249
0.370749
0.370249
0.444615
0.429353
0.414048
0.41258
0.411809
0.411039
0.41027
0.409501
0.408732
0.407965
0.407198
0.406433
0.40567
0.404908
0.404149
0.403391
0.402637
0.401886
0.401138
0.400393
0.399652
0.398916
0.398184
0.397456
0.396734
0.396017
0.395305
0.394599
0.393899
0.393204
0.392516
0.391834
0.391158
0.390489
0.389827
0.389171
0.388522
0.38788
0.387244
0.386615
0.385993
0.385377
0.384768
0.384166
0.38357
0.382981
0.382397
0.38182
0.381249
0.380684
0.380124
0.37957
0.379021
0.378477
0.377938
0.377404
0.376873
0.376347
0.375825
0.375306
0.374791
0.374278
0.373769
0.373261
0.372756
0.372252
0.37175
0.371249
0.370749
0.370249
0.444616
0.429355
0.41405
0.412582
0.411811
0.411041
0.410272
0.409503
0.408734
0.407967
0.407201
0.406436
0.405673
0.404911
0.404152
0.403395
0.402641
0.401889
0.401141
0.400397
0.399656
0.39892
0.398187
0.39746
0.396737
0.39602
0.395308
0.394602
0.393901
0.393207
0.392518
0.391836
0.39116
0.390491
0.389828
0.389172
0.388523
0.387881
0.387245
0.386616
0.385993
0.385378
0.384769
0.384166
0.383571
0.382981
0.382398
0.381821
0.381249
0.380684
0.380124
0.37957
0.379021
0.378477
0.377938
0.377404
0.376873
0.376347
0.375825
0.375306
0.374791
0.374278
0.373769
0.373261
0.372756
0.372252
0.37175
0.371249
0.370749
0.370249
0.444616
0.429358
0.414055
0.412587
0.411816
0.411046
0.410277
0.409508
0.408739
0.407972
0.407206
0.406441
0.405678
0.404916
0.404157
0.4034
0.402645
0.401894
0.401146
0.400401
0.39966
0.398923
0.398191
0.397463
0.39674
0.396023
0.395311
0.394604
0.393903
0.393209
0.39252
0.391838
0.391162
0.390492
0.389829
0.389173
0.388524
0.387881
0.387245
0.386616
0.385994
0.385378
0.384769
0.384167
0.383571
0.382981
0.382398
0.381821
0.38125
0.380684
0.380125
0.37957
0.379021
0.378477
0.377938
0.377404
0.376874
0.376347
0.375825
0.375306
0.374791
0.374278
0.373769
0.373261
0.372756
0.372252
0.37175
0.371249
0.370749
0.370249
0.444616
0.42936
0.414059
0.412591
0.411821
0.41105
0.410281
0.409512
0.408744
0.407976
0.40721
0.406445
0.405682
0.40492
0.40416
0.403403
0.402649
0.401897
0.401149
0.400404
0.399663
0.398926
0.398193
0.397465
0.396742
0.396025
0.395312
0.394606
0.393905
0.39321
0.392521
0.391839
0.391163
0.390493
0.38983
0.389174
0.388524
0.387882
0.387246
0.386617
0.385994
0.385379
0.384769
0.384167
0.383571
0.382981
0.382398
0.381821
0.38125
0.380684
0.380125
0.37957
0.379021
0.378477
0.377938
0.377404
0.376874
0.376347
0.375825
0.375306
0.374791
0.374278
0.373769
0.373261
0.372756
0.372252
0.37175
0.371249
0.370749
0.370249
0.444616
0.429361
0.414061
0.412593
0.411823
0.411053
0.410283
0.409514
0.408746
0.407978
0.407212
0.406447
0.405684
0.404922
0.404162
0.403405
0.40265
0.401899
0.40115
0.400405
0.399664
0.398927
0.398194
0.397466
0.396743
0.396026
0.395313
0.394606
0.393905
0.39321
0.392522
0.391839
0.391163
0.390493
0.38983
0.389174
0.388525
0.387882
0.387246
0.386617
0.385994
0.385379
0.38477
0.384167
0.383571
0.382982
0.382398
0.381821
0.38125
0.380684
0.380125
0.37957
0.379021
0.378477
0.377938
0.377404
0.376874
0.376347
0.375825
0.375306
0.374791
0.374278
0.373769
0.373261
0.372756
0.372252
0.37175
0.371249
0.370749
0.370249
0.444616
0.429362
0.414061
0.412594
0.411824
0.411053
0.410284
0.409515
0.408747
0.407979
0.407213
0.406448
0.405684
0.404923
0.404163
0.403406
0.402651
0.401899
0.401151
0.400406
0.399665
0.398928
0.398195
0.397467
0.396744
0.396026
0.395313
0.394607
0.393906
0.393211
0.392522
0.391839
0.391163
0.390494
0.389831
0.389174
0.388525
0.387882
0.387246
0.386617
0.385994
0.385379
0.38477
0.384167
0.383571
0.382982
0.382398
0.381821
0.38125
0.380684
0.380125
0.37957
0.379021
0.378477
0.377938
0.377404
0.376874
0.376347
0.375825
0.375306
0.374791
0.374278
0.373769
0.373261
0.372756
0.372252
0.37175
0.371249
0.370749
0.370249
0.444616
0.429362
0.414062
0.412594
0.411824
0.411054
0.410284
0.409515
0.408747
0.40798
0.407213
0.406448
0.405685
0.404923
0.404163
0.403406
0.402651
0.4019
0.401151
0.400406
0.399665
0.398928
0.398195
0.397467
0.396744
0.396026
0.395314
0.394607
0.393906
0.393211
0.392522
0.391839
0.391163
0.390494
0.389831
0.389174
0.388525
0.387882
0.387246
0.386617
0.385994
0.385379
0.38477
0.384167
0.383571
0.382982
0.382398
0.381821
0.38125
0.380684
0.380125
0.37957
0.379021
0.378477
0.377938
0.377404
0.376874
0.376347
0.375825
0.375306
0.374791
0.374278
0.373769
0.373261
0.372756
0.372252
0.37175
0.371249
0.370749
0.370249
0.444616
0.429362
0.414062
0.412594
0.411824
0.411054
0.410284
0.409515
0.408747
0.40798
0.407213
0.406448
0.405685
0.404923
0.404163
0.403406
0.402651
0.4019
0.401151
0.400406
0.399665
0.398928
0.398195
0.397467
0.396744
0.396026
0.395314
0.394607
0.393906
0.393211
0.392522
0.391839
0.391163
0.390494
0.389831
0.389174
0.388525
0.387882
0.387246
0.386617
0.385994
0.385379
0.38477
0.384167
0.383571
0.382982
0.382398
0.381821
0.38125
0.380684
0.380125
0.37957
0.379021
0.378477
0.377938
0.377404
0.376874
0.376347
0.375825
0.375306
0.374791
0.374278
0.373769
0.373261
0.372756
0.372252
0.37175
0.371249
0.370749
0.370249
0.444616
0.429362
0.414062
0.412594
0.411824
0.411054
0.410284
0.409515
0.408747
0.40798
0.407213
0.406448
0.405685
0.404923
0.404163
0.403406
0.402651
0.4019
0.401151
0.400406
0.399665
0.398928
0.398195
0.397467
0.396744
0.396026
0.395314
0.394607
0.393906
0.393211
0.392522
0.391839
0.391163
0.390494
0.389831
0.389174
0.388525
0.387882
0.387246
0.386617
0.385994
0.385379
0.38477
0.384167
0.383571
0.382982
0.382398
0.381821
0.38125
0.380684
0.380125
0.37957
0.379021
0.378477
0.377938
0.377404
0.376874
0.376347
0.375825
0.375306
0.374791
0.374278
0.373769
0.373261
0.372756
0.372252
0.37175
0.371249
0.370749
0.370249
0.444616
0.429362
0.414062
0.412594
0.411824
0.411054
0.410284
0.409515
0.408747
0.40798
0.407213
0.406448
0.405685
0.404923
0.404163
0.403406
0.402651
0.4019
0.401151
0.400406
0.399665
0.398928
0.398195
0.397467
0.396744
0.396026
0.395314
0.394607
0.393906
0.393211
0.392522
0.391839
0.391163
0.390494
0.389831
0.389174
0.388525
0.387882
0.387246
0.386617
0.385994
0.385379
0.38477
0.384167
0.383571
0.382982
0.382398
0.381821
0.38125
0.380684
0.380125
0.37957
0.379021
0.378477
0.377938
0.377404
0.376874
0.376347
0.375825
0.375306
0.374791
0.374278
0.373769
0.373261
0.372756
0.372252
0.37175
0.371249
0.370749
0.370249
0.444616
0.429362
0.414062
0.412594
0.411824
0.411054
0.410284
0.409515
0.408747
0.40798
0.407213
0.406448
0.405685
0.404923
0.404163
0.403406
0.402651
0.4019
0.401151
0.400406
0.399665
0.398928
0.398195
0.397467
0.396744
0.396026
0.395314
0.394607
0.393906
0.393211
0.392522
0.391839
0.391163
0.390494
0.389831
0.389174
0.388525
0.387882
0.387246
0.386617
0.385994
0.385379
0.38477
0.384167
0.383571
0.382982
0.382398
0.381821
0.38125
0.380684
0.380125
0.37957
0.379021
0.378477
0.377938
0.377404
0.376874
0.376347
0.375825
0.375306
0.374791
0.374278
0.373769
0.373261
0.372756
0.372252
0.37175
0.371249
0.370749
0.370249
0.444616
0.429362
0.414062
0.412594
0.411824
0.411054
0.410284
0.409515
0.408747
0.40798
0.407213
0.406448
0.405685
0.404923
0.404163
0.403406
0.402651
0.4019
0.401151
0.400406
0.399665
0.398928
0.398195
0.397467
0.396744
0.396026
0.395314
0.394607
0.393906
0.393211
0.392522
0.391839
0.391163
0.390494
0.389831
0.389174
0.388525
0.387882
0.387246
0.386617
0.385994
0.385379
0.38477
0.384167
0.383571
0.382982
0.382398
0.381821
0.38125
0.380684
0.380125
0.37957
0.379021
0.378477
0.377938
0.377404
0.376874
0.376347
0.375825
0.375306
0.374791
0.374278
0.373769
0.373261
0.372756
0.372252
0.37175
0.371249
0.370749
0.370249
0.444616
0.429362
0.414062
0.412594
0.411824
0.411054
0.410284
0.409515
0.408747
0.40798
0.407213
0.406448
0.405685
0.404923
0.404163
0.403406
0.402651
0.4019
0.401151
0.400406
0.399665
0.398928
0.398195
0.397467
0.396744
0.396026
0.395314
0.394607
0.393906
0.393211
0.392522
0.391839
0.391163
0.390494
0.389831
0.389174
0.388525
0.387882
0.387246
0.386617
0.385994
0.385379
0.38477
0.384167
0.383571
0.382982
0.382398
0.381821
0.38125
0.380684
0.380125
0.37957
0.379021
0.378477
0.377938
0.377404
0.376874
0.376347
0.375825
0.375306
0.374791
0.374278
0.373769
0.373261
0.372756
0.372252
0.37175
0.371249
0.370749
0.370249
0.444616
0.429362
0.414062
0.412594
0.411824
0.411054
0.410284
0.409515
0.408747
0.40798
0.407213
0.406448
0.405685
0.404923
0.404163
0.403406
0.402651
0.4019
0.401151
0.400406
0.399665
0.398928
0.398195
0.397467
0.396744
0.396026
0.395314
0.394607
0.393906
0.393211
0.392522
0.391839
0.391163
0.390494
0.389831
0.389174
0.388525
0.387882
0.387246
0.386617
0.385994
0.385379
0.38477
0.384167
0.383571
0.382982
0.382398
0.381821
0.38125
0.380684
0.380125
0.37957
0.379021
0.378477
0.377938
0.377404
0.376874
0.376347
0.375825
0.375306
0.374791
0.374278
0.373769
0.373261
0.372756
0.372252
0.37175
0.371249
0.370749
0.370249
0.444616
0.429362
0.414062
0.412594
0.411824
0.411054
0.410284
0.409515
0.408747
0.40798
0.407213
0.406448
0.405685
0.404923
0.404163
0.403406
0.402651
0.4019
0.401151
0.400406
0.399665
0.398928
0.398195
0.397467
0.396744
0.396026
0.395314
0.394607
0.393906
0.393211
0.392522
0.391839
0.391163
0.390494
0.389831
0.389174
0.388525
0.387882
0.387246
0.386617
0.385994
0.385379
0.38477
0.384167
0.383571
0.382982
0.382398
0.381821
0.38125
0.380684
0.380125
0.37957
0.379021
0.378477
0.377938
0.377404
0.376874
0.376347
0.375825
0.375306
0.374791
0.374278
0.373769
0.373261
0.372756
0.372252
0.37175
0.371249
0.370749
0.370249
0.444616
0.429362
0.414062
0.412594
0.411824
0.411054
0.410284
0.409515
0.408747
0.40798
0.407213
0.406448
0.405685
0.404923
0.404163
0.403406
0.402651
0.4019
0.401151
0.400406
0.399665
0.398928
0.398195
0.397467
0.396744
0.396026
0.395314
0.394607
0.393906
0.393211
0.392522
0.391839
0.391163
0.390494
0.389831
0.389174
0.388525
0.387882
0.387246
0.386617
0.385994
0.385379
0.38477
0.384167
0.383571
0.382982
0.382398
0.381821
0.38125
0.380684
0.380125
0.37957
0.379021
0.378477
0.377938
0.377404
0.376874
0.376347
0.375825
0.375306
0.374791
0.374278
0.373769
0.373261
0.372756
0.372252
0.37175
0.371249
0.370749
0.370249
0.444616
0.429362
0.414062
0.412594
0.411824
0.411054
0.410284
0.409515
0.408747
0.40798
0.407213
0.406448
0.405685
0.404923
0.404163
0.403406
0.402651
0.4019
0.401151
0.400406
0.399665
0.398928
0.398195
0.397467
0.396744
0.396026
0.395314
0.394607
0.393906
0.393211
0.392522
0.391839
0.391163
0.390494
0.389831
0.389174
0.388525
0.387882
0.387246
0.386617
0.385994
0.385379
0.38477
0.384167
0.383571
0.382982
0.382398
0.381821
0.38125
0.380684
0.380125
0.37957
0.379021
0.378477
0.377938
0.377404
0.376874
0.376347
0.375825
0.375306
0.374791
0.374278
0.373769
0.373261
0.372756
0.372252
0.37175
0.371249
0.370749
0.370249
0.444616
0.429362
0.414062
0.412594
0.411824
0.411054
0.410284
0.409515
0.408747
0.40798
0.407213
0.406448
0.405685
0.404923
0.404163
0.403406
0.402651
0.4019
0.401151
0.400406
0.399665
0.398928
0.398195
0.397467
0.396744
0.396026
0.395314
0.394607
0.393906
0.393211
0.392522
0.391839
0.391163
0.390494
0.389831
0.389174
0.388525
0.387882
0.387246
0.386617
0.385994
0.385379
0.38477
0.384167
0.383571
0.382982
0.382398
0.381821
0.38125
0.380684
0.380125
0.37957
0.379021
0.378477
0.377938
0.377404
0.376874
0.376347
0.375825
0.375306
0.374791
0.374278
0.373769
0.373261
0.372756
0.372252
0.37175
0.371249
0.370749
0.370249
0.444616
0.429362
0.414062
0.412594
0.411824
0.411054
0.410284
0.409515
0.408747
0.40798
0.407213
0.406448
0.405685
0.404923
0.404163
0.403406
0.402651
0.4019
0.401151
0.400406
0.399665
0.398928
0.398195
0.397467
0.396744
0.396026
0.395314
0.394607
0.393906
0.393211
0.392522
0.391839
0.391163
0.390494
0.389831
0.389174
0.388525
0.387882
0.387246
0.386617
0.385994
0.385379
0.38477
0.384167
0.383571
0.382982
0.382398
0.381821
0.38125
0.380684
0.380125
0.37957
0.379021
0.378477
0.377938
0.377404
0.376874
0.376347
0.375825
0.375306
0.374791
0.374278
0.373769
0.373261
0.372756
0.372252
0.37175
0.371249
0.370749
0.370249
0.444616
0.429362
0.414062
0.412594
0.411824
0.411054
0.410284
0.409515
0.408747
0.40798
0.407213
0.406448
0.405685
0.404923
0.404163
0.403406
0.402651
0.4019
0.401151
0.400406
0.399665
0.398928
0.398195
0.397467
0.396744
0.396026
0.395314
0.394607
0.393906
0.393211
0.392522
0.391839
0.391163
0.390494
0.389831
0.389174
0.388525
0.387882
0.387246
0.386617
0.385994
0.385379
0.38477
0.384167
0.383571
0.382982
0.382398
0.381821
0.38125
0.380684
0.380125
0.37957
0.379021
0.378477
0.377938
0.377404
0.376874
0.376347
0.375825
0.375306
0.374791
0.374278
0.373769
0.373261
0.372756
0.372252
0.37175
0.371249
0.370749
0.370249
0.444616
0.429362
0.414062
0.412594
0.411824
0.411054
0.410284
0.409515
0.408747