/*--------------------------------*- C++ -*----------------------------------*\
  =========                 |
  \\      /  F ield         | OpenFOAM: The Open Source CFD Toolbox
   \\    /   O peration     | Website:  https://openfoam.org
    \\  /    A nd           | Version:  13
     \\/     M anipulation  |
\*---------------------------------------------------------------------------*/
FoamFile
{
    format      ascii;
    class       volScalarField;
    location    "180";
    object      nut;
}
// * * * * * * * * * * * * * * * * * * * * * * * * * * * * * * * * * * * * * //

dimensions      [0 2 -1 0 0 0 0];

internalField   nonuniform List<scalar> 
315000
(
2.27642e-16
5.96379e-14
1.36141e-12
2.44499e-12
3.54831e-12
4.67455e-12
5.8274e-12
7.01017e-12
8.22534e-12
9.47429e-12
1.07572e-11
1.2073e-11
1.34193e-11
1.47927e-11
1.61885e-11
1.76008e-11
1.9023e-11
2.04474e-11
2.18657e-11
2.3269e-11
2.46479e-11
2.59927e-11
2.72935e-11
2.85404e-11
2.97238e-11
3.08342e-11
3.18625e-11
3.28002e-11
3.36394e-11
3.43731e-11
3.49949e-11
3.54994e-11
3.58822e-11
3.61401e-11
3.62707e-11
3.6273e-11
3.61468e-11
3.58933e-11
3.55147e-11
3.50143e-11
3.43965e-11
3.36666e-11
3.28308e-11
3.18963e-11
3.08709e-11
2.97631e-11
2.85819e-11
2.73368e-11
2.60375e-11
2.46939e-11
2.33157e-11
2.19127e-11
2.04943e-11
1.90694e-11
1.76464e-11
1.6233e-11
1.48358e-11
1.34607e-11
1.21123e-11
1.07943e-11
9.50893e-12
8.25729e-12
7.03921e-12
5.8533e-12
4.69704e-12
3.56706e-12
2.45946e-12
1.37071e-12
6.01219e-14
2.2966e-16
5.70266e-15
1.51918e-12
3.46176e-10
6.26644e-10
9.11112e-10
1.20107e-09
1.49781e-09
1.80233e-09
2.11535e-09
2.43729e-09
2.76821e-09
3.10784e-09
3.45561e-09
3.81059e-09
4.17157e-09
4.53705e-09
4.90526e-09
5.27422e-09
5.64176e-09
6.00553e-09
6.36309e-09
6.7119e-09
7.04938e-09
7.37297e-09
7.68012e-09
7.96835e-09
8.23532e-09
8.47879e-09
8.6967e-09
8.8872e-09
9.04865e-09
9.17964e-09
9.27903e-09
9.34595e-09
9.3798e-09
9.3803e-09
9.34743e-09
9.28148e-09
9.18304e-09
9.05297e-09
8.89239e-09
8.70272e-09
8.48557e-09
8.2428e-09
7.97648e-09
7.6888e-09
7.38213e-09
7.05895e-09
6.72177e-09
6.37319e-09
6.01577e-09
5.65204e-09
5.28447e-09
4.91539e-09
4.54697e-09
4.18122e-09
3.81989e-09
3.46449e-09
3.11625e-09
2.77607e-09
2.44456e-09
2.12198e-09
1.80826e-09
1.50299e-09
1.20545e-09
9.14622e-10
6.29203e-10
3.47681e-10
1.52621e-12
5.7298e-15
2.30486e-14
6.14905e-12
3.57294e-09
6.47559e-09
9.42484e-09
1.24391e-08
1.55345e-08
1.87242e-08
2.20177e-08
2.54212e-08
2.89367e-08
3.25623e-08
3.62919e-08
4.01156e-08
4.40199e-08
4.79877e-08
5.19988e-08
5.60304e-08
6.00573e-08
6.40525e-08
6.79878e-08
7.18338e-08
7.55609e-08
7.91394e-08
8.25402e-08
8.57348e-08
8.86962e-08
9.13989e-08
9.38194e-08
9.59363e-08
9.77309e-08
9.91872e-08
1.00292e-07
1.01036e-07
1.01412e-07
1.01416e-07
1.01049e-07
1.00314e-07
9.92177e-08
9.77696e-08
9.59827e-08
9.38732e-08
9.14596e-08
8.87631e-08
8.58073e-08
8.26175e-08
7.92209e-08
7.56458e-08
7.19212e-08
6.8077e-08
6.41427e-08
6.01477e-08
5.61201e-08
5.20872e-08
4.80739e-08
4.41033e-08
4.01955e-08
3.63677e-08
3.26335e-08
2.90029e-08
2.54818e-08
2.20724e-08
1.87726e-08
1.55763e-08
1.24739e-08
9.45223e-09
6.49518e-09
3.58421e-09
6.16927e-12
2.31258e-14
4.40529e-14
1.17536e-11
6.83089e-09
1.23894e-08
1.80541e-08
2.38682e-08
2.98698e-08
3.60907e-08
4.25558e-08
4.92816e-08
5.62761e-08
6.35385e-08
7.10584e-08
7.88167e-08
8.67855e-08
9.49288e-08
1.03203e-07
1.11558e-07
1.19939e-07
1.28286e-07
1.36536e-07
1.44623e-07
1.52482e-07
1.60046e-07
1.6725e-07
1.7403e-07
1.80325e-07
1.86077e-07
1.91236e-07
1.95751e-07
1.99582e-07
2.02692e-07
2.05053e-07
2.06642e-07
2.07444e-07
2.07451e-07
2.06665e-07
2.05091e-07
2.02744e-07
1.99648e-07
1.9583e-07
1.91327e-07
1.86181e-07
1.80438e-07
1.74153e-07
1.67381e-07
1.60184e-07
1.52626e-07
1.44771e-07
1.36686e-07
1.28438e-07
1.20091e-07
1.11708e-07
1.0335e-07
9.50718e-08
8.69233e-08
7.89482e-08
7.11826e-08
6.36545e-08
5.63833e-08
4.93792e-08
4.26433e-08
3.61677e-08
2.99357e-08
2.39227e-08
1.80967e-08
1.24196e-08
6.84816e-09
1.17845e-11
4.41709e-14
6.89965e-14
1.841e-11
1.07006e-08
1.94179e-08
2.83212e-08
3.74872e-08
4.69844e-08
5.68706e-08
6.71918e-08
7.79803e-08
8.92533e-08
1.01013e-07
1.13246e-07
1.25922e-07
1.38997e-07
1.5241e-07
1.66091e-07
1.79953e-07
1.93904e-07
2.07843e-07
2.21662e-07
2.35249e-07
2.48491e-07
2.61272e-07
2.73475e-07
2.84986e-07
2.95696e-07
3.05501e-07
3.14305e-07
3.22022e-07
3.28576e-07
3.339e-07
3.37944e-07
3.40665e-07
3.42038e-07
3.42049e-07
3.40697e-07
3.37996e-07
3.33972e-07
3.28667e-07
3.22132e-07
3.14432e-07
3.05643e-07
2.95853e-07
2.85155e-07
2.73655e-07
2.61461e-07
2.48688e-07
2.35451e-07
2.21867e-07
2.0805e-07
1.94111e-07
1.80157e-07
1.6629e-07
1.52604e-07
1.39183e-07
1.261e-07
1.13413e-07
1.01169e-07
8.93972e-08
7.81109e-08
6.73086e-08
5.69729e-08
4.70716e-08
3.75591e-08
2.83772e-08
1.94575e-08
1.07231e-08
1.84504e-11
6.91508e-14
9.6749e-14
2.58164e-11
1.50057e-08
2.72371e-08
3.97451e-08
5.26452e-08
6.60407e-08
8.00195e-08
9.46516e-08
1.09987e-07
1.26054e-07
1.42857e-07
1.6038e-07
1.7858e-07
1.97393e-07
2.16733e-07
2.36495e-07
2.56556e-07
2.76781e-07
2.97023e-07
3.17127e-07
3.3693e-07
3.56264e-07
3.74953e-07
3.92823e-07
4.09701e-07
4.25421e-07
4.39825e-07
4.52769e-07
4.6412e-07
4.73763e-07
4.81601e-07
4.87554e-07
4.91561e-07
4.93581e-07
4.93594e-07
4.91599e-07
4.87618e-07
4.81689e-07
4.73875e-07
4.64253e-07
4.52923e-07
4.39999e-07
4.25612e-07
4.09908e-07
3.93043e-07
3.75184e-07
3.56503e-07
3.37176e-07
3.17376e-07
2.97274e-07
2.77031e-07
2.56804e-07
2.36737e-07
2.16968e-07
1.97619e-07
1.78795e-07
1.60583e-07
1.43046e-07
1.26228e-07
1.10145e-07
9.47923e-08
8.01425e-08
6.61455e-08
5.27313e-08
3.9812e-08
2.72843e-08
1.50325e-08
2.58646e-11
9.69332e-14
1.25606e-13
3.35179e-11
1.94811e-08
3.53633e-08
5.16145e-08
6.83905e-08
8.58304e-08
1.04053e-07
1.23151e-07
1.43194e-07
1.64219e-07
1.86234e-07
2.09213e-07
2.33103e-07
2.57817e-07
2.83239e-07
3.09229e-07
3.35625e-07
3.62246e-07
3.88899e-07
4.15383e-07
4.41481e-07
4.66969e-07
4.91616e-07
5.15189e-07
5.37457e-07
5.58198e-07
5.77205e-07
5.94285e-07
6.09263e-07
6.21988e-07
6.3233e-07
6.40184e-07
6.45469e-07
6.48132e-07
6.48147e-07
6.45512e-07
6.40255e-07
6.32429e-07
6.22113e-07
6.09413e-07
5.94458e-07
5.774e-07
5.58413e-07
5.37689e-07
5.15436e-07
4.91876e-07
4.67238e-07
4.41757e-07
4.15663e-07
3.89182e-07
3.62528e-07
3.35904e-07
3.09503e-07
2.83505e-07
2.58072e-07
2.33346e-07
2.09442e-07
1.86447e-07
1.64415e-07
1.43372e-07
1.2331e-07
1.04191e-07
8.59482e-08
6.84872e-08
5.16895e-08
3.54162e-08
1.95111e-08
3.35718e-11
1.25812e-13
1.53885e-13
4.10656e-11
2.3866e-08
4.33223e-08
6.32353e-08
8.37999e-08
1.05189e-07
1.27551e-07
1.51003e-07
1.75626e-07
2.01469e-07
2.28537e-07
2.568e-07
2.86187e-07
3.16587e-07
3.47855e-07
3.79815e-07
4.12264e-07
4.44978e-07
4.77722e-07
5.10245e-07
5.42285e-07
5.73565e-07
6.03803e-07
6.32712e-07
6.60011e-07
6.8543e-07
7.08716e-07
7.29633e-07
7.47972e-07
7.63547e-07
7.76202e-07
7.85811e-07
7.92275e-07
7.95532e-07
7.95547e-07
7.92321e-07
7.85887e-07
7.76308e-07
7.6368e-07
7.48132e-07
7.29818e-07
7.08924e-07
6.8566e-07
6.60259e-07
6.32976e-07
6.0408e-07
5.73853e-07
5.4258e-07
5.10546e-07
4.78025e-07
4.45281e-07
4.12563e-07
3.80109e-07
3.4814e-07
3.16861e-07
2.86448e-07
2.57047e-07
2.28767e-07
2.0168e-07
1.75818e-07
1.51173e-07
1.277e-07
1.05316e-07
8.39034e-08
6.33155e-08
4.33787e-08
2.38981e-08
4.11234e-11
1.54107e-13
1.80208e-13
4.80915e-11
2.79466e-08
5.07264e-08
7.40423e-08
9.81249e-08
1.23179e-07
1.49378e-07
1.76859e-07
2.05719e-07
2.3601e-07
2.67738e-07
3.00864e-07
3.35299e-07
3.7091e-07
4.07524e-07
4.44927e-07
4.8288e-07
5.21121e-07
5.59371e-07
5.9734e-07
6.34722e-07
6.71195e-07
7.06432e-07
7.40102e-07
7.7188e-07
8.01454e-07
8.28533e-07
8.52848e-07
8.74158e-07
8.9225e-07
9.06946e-07
9.18101e-07
9.25604e-07
9.29382e-07
9.29398e-07
9.25651e-07
9.18179e-07
9.07054e-07
8.92387e-07
8.74323e-07
8.53039e-07
8.28748e-07
8.01691e-07
7.72136e-07
7.40375e-07
7.06719e-07
6.71493e-07
6.35028e-07
5.97652e-07
5.59685e-07
5.21434e-07
4.83191e-07
4.45232e-07
4.0782e-07
3.71196e-07
3.3557e-07
3.0112e-07
2.67977e-07
2.36229e-07
2.05918e-07
1.77036e-07
1.49532e-07
1.2331e-07
9.82321e-08
7.41253e-08
5.07848e-08
2.79797e-08
4.81513e-11
1.80438e-13
2.03598e-13
5.4335e-11
3.15721e-08
5.73029e-08
8.36386e-08
1.10841e-07
1.39144e-07
1.68741e-07
1.99789e-07
2.32395e-07
2.66615e-07
3.02454e-07
3.39863e-07
3.78739e-07
4.18926e-07
4.60223e-07
5.02387e-07
5.45142e-07
5.88193e-07
6.31226e-07
6.73914e-07
7.15912e-07
7.56865e-07
7.96406e-07
8.34166e-07
8.69785e-07
9.02918e-07
9.33241e-07
9.60457e-07
9.84301e-07
1.00454e-06
1.02097e-06
1.03344e-06
1.04183e-06
1.04605e-06
1.04607e-06
1.04188e-06
1.03352e-06
1.02108e-06
1.00468e-06
9.84467e-07
9.6065e-07
9.33458e-07
9.03157e-07
8.70043e-07
8.34441e-07
7.96695e-07
7.57166e-07
7.16222e-07
6.74228e-07
6.31544e-07
5.8851e-07
5.45457e-07
5.02695e-07
4.60524e-07
4.19216e-07
3.79015e-07
3.40123e-07
3.02697e-07
2.66838e-07
2.32597e-07
1.99969e-07
1.68898e-07
1.39276e-07
1.1095e-07
8.37223e-08
5.73617e-08
3.16054e-08
5.43954e-11
2.0383e-13
2.235e-13
5.96482e-11
3.46569e-08
6.28974e-08
9.18004e-08
1.21655e-07
1.52717e-07
1.85201e-07
2.19276e-07
2.55059e-07
2.9261e-07
3.31931e-07
3.72965e-07
4.15594e-07
4.59644e-07
5.04888e-07
5.51057e-07
5.97847e-07
6.44932e-07
6.91969e-07
7.38599e-07
7.84451e-07
8.29134e-07
8.72254e-07
9.13411e-07
9.52215e-07
9.88296e-07
1.0213e-06
1.05092e-06
1.07686e-06
1.09887e-06
1.11673e-06
1.13029e-06
1.13941e-06
1.14399e-06
1.14401e-06
1.13945e-06
1.13037e-06
1.11684e-06
1.099e-06
1.07702e-06
1.05111e-06
1.02152e-06
9.88534e-07
9.52472e-07
9.13684e-07
8.72542e-07
8.29434e-07
7.84759e-07
7.38913e-07
6.92285e-07
6.45248e-07
5.98161e-07
5.51365e-07
5.05188e-07
4.59933e-07
4.1587e-07
3.73225e-07
3.32174e-07
2.92833e-07
2.55261e-07
2.19456e-07
1.85357e-07
1.52849e-07
1.21763e-07
9.18835e-08
6.29556e-08
3.46899e-08
5.97082e-11
2.23731e-13
2.3975e-13
6.39869e-11
3.71757e-08
6.74647e-08
9.84629e-08
1.30481e-07
1.63795e-07
1.98634e-07
2.35178e-07
2.73552e-07
3.13818e-07
3.55976e-07
3.99961e-07
4.45644e-07
4.92833e-07
5.41284e-07
5.90702e-07
6.40761e-07
6.9111e-07
7.41383e-07
7.91197e-07
8.40154e-07
8.87842e-07
9.3384e-07
9.77727e-07
1.01909e-06
1.05754e-06
1.0927e-06
1.12423e-06
1.15185e-06
1.17528e-06
1.19429e-06
1.20872e-06
1.21841e-06
1.22329e-06
1.22331e-06
1.21846e-06
1.20879e-06
1.1944e-06
1.17541e-06
1.15201e-06
1.12442e-06
1.09291e-06
1.05777e-06
1.01934e-06
9.77997e-07
9.34125e-07
8.88138e-07
8.40458e-07
7.91506e-07
7.41695e-07
6.91423e-07
6.41071e-07
5.91006e-07
5.4158e-07
4.93119e-07
4.45917e-07
4.00219e-07
3.56216e-07
3.14039e-07
2.73752e-07
2.35355e-07
1.98787e-07
1.63925e-07
1.30587e-07
9.85446e-08
6.75219e-08
3.72081e-08
6.40458e-11
2.39977e-13
2.525e-13
6.73917e-11
3.91523e-08
7.10485e-08
1.03691e-07
1.37407e-07
1.72487e-07
2.09174e-07
2.47657e-07
2.88064e-07
3.30461e-07
3.74846e-07
4.21146e-07
4.69223e-07
5.18874e-07
5.69835e-07
6.21796e-07
6.74412e-07
7.27313e-07
7.80113e-07
8.3241e-07
8.83789e-07
9.33818e-07
9.82057e-07
1.02807e-06
1.07142e-06
1.1117e-06
1.14854e-06
1.18157e-06
1.21048e-06
1.23501e-06
1.25492e-06
1.27001e-06
1.28016e-06
1.28527e-06
1.28529e-06
1.28021e-06
1.27009e-06
1.25502e-06
1.23514e-06
1.21064e-06
1.18175e-06
1.14874e-06
1.11193e-06
1.07167e-06
1.02833e-06
9.82337e-07
9.34109e-07
8.84088e-07
8.32715e-07
7.8042e-07
7.27621e-07
6.74717e-07
6.22096e-07
5.70127e-07
5.19155e-07
4.69492e-07
4.21399e-07
3.75082e-07
3.30678e-07
2.8826e-07
2.47831e-07
2.09325e-07
1.72615e-07
1.37511e-07
1.03771e-07
7.11045e-08
3.91839e-08
6.74494e-11
2.52722e-13
2.62127e-13
6.9963e-11
4.06451e-08
7.37551e-08
1.07639e-07
1.42638e-07
1.79053e-07
2.17137e-07
2.57085e-07
2.99031e-07
3.4304e-07
3.89108e-07
4.3716e-07
4.8705e-07
5.38561e-07
5.91421e-07
6.45305e-07
6.99853e-07
7.54681e-07
8.09389e-07
8.6356e-07
9.16765e-07
9.68559e-07
1.01849e-06
1.0661e-06
1.11095e-06
1.15261e-06
1.19071e-06
1.22486e-06
1.25475e-06
1.28011e-06
1.30068e-06
1.31629e-06
1.32678e-06
1.33206e-06
1.33207e-06
1.32682e-06
1.31636e-06
1.30079e-06
1.28024e-06
1.25491e-06
1.22504e-06
1.19091e-06
1.15284e-06
1.11119e-06
1.06636e-06
1.01876e-06
9.68845e-07
9.17059e-07
8.6386e-07
8.09691e-07
7.54984e-07
7.00153e-07
6.456e-07
5.91709e-07
5.38838e-07
4.87314e-07
4.3741e-07
3.89341e-07
3.43253e-07
2.99224e-07
2.57256e-07
2.17285e-07
1.79178e-07
1.4274e-07
1.07717e-07
7.38098e-08
4.0676e-08
7.00195e-11
2.62345e-13
2.69131e-13
7.18342e-11
4.17315e-08
7.57249e-08
1.10512e-07
1.46445e-07
1.83833e-07
2.22936e-07
2.63953e-07
3.07021e-07
3.52206e-07
3.99505e-07
4.48836e-07
5.00049e-07
5.5292e-07
6.07168e-07
6.62456e-07
7.18415e-07
7.74651e-07
8.30751e-07
8.86291e-07
9.40829e-07
9.9391e-07
1.04507e-06
1.09385e-06
1.13979e-06
1.18247e-06
1.22147e-06
1.25645e-06
1.28706e-06
1.31301e-06
1.33408e-06
1.35005e-06
1.36079e-06
1.36619e-06
1.3662e-06
1.36083e-06
1.35012e-06
1.33418e-06
1.31314e-06
1.28721e-06
1.25663e-06
1.22168e-06
1.18269e-06
1.14003e-06
1.0941e-06
1.04534e-06
9.94191e-07
9.41118e-07
8.86586e-07
8.31049e-07
7.74949e-07
7.18711e-07
6.62747e-07
6.07451e-07
5.53194e-07
5.00309e-07
4.49082e-07
3.99734e-07
3.52417e-07
3.07211e-07
2.64121e-07
2.23082e-07
1.83957e-07
1.46545e-07
1.10589e-07
7.57785e-08
4.17617e-08
7.18896e-11
2.69345e-13
2.74047e-13
7.31478e-11
4.24942e-08
7.7108e-08
1.12531e-07
1.4912e-07
1.87192e-07
2.27011e-07
2.6878e-07
3.12639e-07
3.58655e-07
4.06821e-07
4.57055e-07
5.09202e-07
5.63034e-07
6.18261e-07
6.74542e-07
7.31498e-07
7.88728e-07
8.45812e-07
9.02319e-07
9.57799e-07
1.01179e-06
1.06382e-06
1.11342e-06
1.16014e-06
1.20353e-06
1.24318e-06
1.27873e-06
1.30985e-06
1.33623e-06
1.35764e-06
1.37388e-06
1.38479e-06
1.39028e-06
1.39029e-06
1.38483e-06
1.37395e-06
1.35774e-06
1.33636e-06
1.31e-06
1.27891e-06
1.24338e-06
1.20375e-06
1.16037e-06
1.11368e-06
1.06409e-06
1.01207e-06
9.58085e-07
9.02611e-07
8.46107e-07
7.89022e-07
7.3179e-07
6.74829e-07
6.18541e-07
5.63304e-07
5.0946e-07
4.57298e-07
4.07047e-07
3.58862e-07
3.12827e-07
2.68947e-07
2.27155e-07
1.87314e-07
1.49219e-07
1.12606e-07
7.71608e-08
4.2524e-08
7.32023e-11
2.74258e-13
2.7738e-13
7.40385e-11
4.30116e-08
7.80462e-08
1.139e-07
1.50935e-07
1.89472e-07
2.29778e-07
2.7206e-07
3.16457e-07
3.63038e-07
4.11796e-07
4.62647e-07
5.15432e-07
5.6992e-07
6.25817e-07
6.82776e-07
7.40414e-07
7.98324e-07
8.56083e-07
9.13251e-07
9.69375e-07
1.02399e-06
1.07662e-06
1.12678e-06
1.17403e-06
1.2179e-06
1.258e-06
1.29395e-06
1.32541e-06
1.35209e-06
1.37373e-06
1.39015e-06
1.40118e-06
1.40673e-06
1.40674e-06
1.40122e-06
1.39022e-06
1.37383e-06
1.35221e-06
1.32556e-06
1.29413e-06
1.2582e-06
1.21812e-06
1.17426e-06
1.12704e-06
1.07688e-06
1.02427e-06
9.69659e-07
9.1354e-07
8.56375e-07
7.98617e-07
7.40704e-07
6.83061e-07
6.26094e-07
5.70188e-07
5.15687e-07
4.62888e-07
4.1202e-07
3.63244e-07
3.16643e-07
2.72225e-07
2.29921e-07
1.89592e-07
1.51033e-07
1.13974e-07
7.80983e-08
4.3041e-08
7.40925e-11
2.77589e-13
2.79565e-13
7.46227e-11
4.33509e-08
7.86616e-08
1.14798e-07
1.52126e-07
1.90969e-07
2.31595e-07
2.74215e-07
3.18967e-07
3.65921e-07
4.1507e-07
4.66328e-07
5.19535e-07
5.74457e-07
6.30797e-07
6.88206e-07
7.46296e-07
8.04657e-07
8.62862e-07
9.20469e-07
9.77021e-07
1.03205e-06
1.08507e-06
1.13561e-06
1.18321e-06
1.22741e-06
1.2678e-06
1.30402e-06
1.3357e-06
1.36257e-06
1.38438e-06
1.40091e-06
1.41202e-06
1.41761e-06
1.41762e-06
1.41206e-06
1.40098e-06
1.38447e-06
1.3627e-06
1.33586e-06
1.30419e-06
1.268e-06
1.22763e-06
1.18344e-06
1.13586e-06
1.08534e-06
1.03232e-06
9.77303e-07
9.20756e-07
8.63152e-07
8.04947e-07
7.46584e-07
6.88489e-07
6.31073e-07
5.74723e-07
5.19789e-07
4.66567e-07
4.15293e-07
3.66126e-07
3.19152e-07
2.74378e-07
2.31737e-07
1.91088e-07
1.52223e-07
1.14872e-07
7.87133e-08
4.33801e-08
7.46762e-11
2.79773e-13
2.80952e-13
7.49935e-11
4.35663e-08
7.90524e-08
1.15369e-07
1.52883e-07
1.9192e-07
2.32751e-07
2.75586e-07
3.20565e-07
3.67757e-07
4.17156e-07
4.68675e-07
5.22152e-07
5.77353e-07
6.33977e-07
6.91674e-07
7.50055e-07
8.08706e-07
8.67198e-07
9.25087e-07
9.81915e-07
1.03721e-06
1.09049e-06
1.14127e-06
1.18909e-06
1.2335e-06
1.27409e-06
1.31047e-06
1.3423e-06
1.3693e-06
1.3912e-06
1.40781e-06
1.41897e-06
1.42459e-06
1.4246e-06
1.41902e-06
1.40788e-06
1.3913e-06
1.36942e-06
1.34245e-06
1.31064e-06
1.27428e-06
1.23372e-06
1.18932e-06
1.14152e-06
1.09075e-06
1.03748e-06
9.82196e-07
9.25373e-07
8.67487e-07
8.08995e-07
7.50342e-07
6.91957e-07
6.34252e-07
5.77618e-07
5.22405e-07
4.68913e-07
4.17378e-07
3.67961e-07
3.20749e-07
2.75749e-07
2.32892e-07
1.92039e-07
1.52979e-07
1.15442e-07
7.91039e-08
4.35954e-08
7.50468e-11
2.81158e-13
2.81805e-13
7.52217e-11
4.36989e-08
7.9293e-08
1.1572e-07
1.53349e-07
1.92506e-07
2.33464e-07
2.76431e-07
3.21551e-07
3.68891e-07
4.18445e-07
4.70125e-07
5.23771e-07
5.79145e-07
6.35946e-07
6.93823e-07
7.52384e-07
8.11216e-07
8.69887e-07
9.27952e-07
9.84952e-07
1.04041e-06
1.09385e-06
1.14478e-06
1.19274e-06
1.23729e-06
1.27799e-06
1.31448e-06
1.34641e-06
1.37348e-06
1.39545e-06
1.4121e-06
1.4233e-06
1.42893e-06
1.42894e-06
1.42334e-06
1.41218e-06
1.39555e-06
1.3736e-06
1.34656e-06
1.31465e-06
1.27819e-06
1.2375e-06
1.19298e-06
1.14503e-06
1.09411e-06
1.04068e-06
9.85232e-07
9.28238e-07
8.70175e-07
8.11504e-07
7.52671e-07
6.94104e-07
6.36221e-07
5.79409e-07
5.24023e-07
4.70363e-07
4.18666e-07
3.69095e-07
3.21734e-07
2.76594e-07
2.33605e-07
1.92625e-07
1.53445e-07
1.15794e-07
7.93443e-08
4.37279e-08
7.52748e-11
2.82011e-13
2.82314e-13
7.53578e-11
4.37781e-08
7.94366e-08
1.1593e-07
1.53628e-07
1.92857e-07
2.3389e-07
2.76937e-07
3.22141e-07
3.6957e-07
4.19217e-07
4.70995e-07
5.24742e-07
5.80221e-07
6.37129e-07
6.95114e-07
7.53785e-07
8.12726e-07
8.71506e-07
9.29678e-07
9.86782e-07
1.04234e-06
1.09588e-06
1.1469e-06
1.19495e-06
1.23957e-06
1.28035e-06
1.3169e-06
1.34888e-06
1.37601e-06
1.39801e-06
1.4147e-06
1.42591e-06
1.43155e-06
1.43157e-06
1.42595e-06
1.41477e-06
1.39811e-06
1.37613e-06
1.34903e-06
1.31707e-06
1.28054e-06
1.23978e-06
1.19518e-06
1.14715e-06
1.09614e-06
1.04261e-06
9.87062e-07
9.29963e-07
8.71794e-07
8.13014e-07
7.54071e-07
6.95396e-07
6.37403e-07
5.80485e-07
5.24994e-07
4.71233e-07
4.19438e-07
3.69773e-07
3.22324e-07
2.77099e-07
2.3403e-07
1.92975e-07
1.53724e-07
1.16003e-07
7.94879e-08
4.3807e-08
7.54109e-11
2.8252e-13
2.82609e-13
7.54367e-11
4.38239e-08
7.95199e-08
1.16051e-07
1.53789e-07
1.9306e-07
2.34137e-07
2.77231e-07
3.22484e-07
3.69965e-07
4.19667e-07
4.71502e-07
5.25308e-07
5.80848e-07
6.37819e-07
6.95868e-07
7.54603e-07
8.13609e-07
8.72452e-07
9.30687e-07
9.87853e-07
1.04347e-06
1.09706e-06
1.14814e-06
1.19624e-06
1.24091e-06
1.28173e-06
1.31832e-06
1.35034e-06
1.37749e-06
1.39951e-06
1.41622e-06
1.42745e-06
1.43309e-06
1.43311e-06
1.42749e-06
1.41629e-06
1.39961e-06
1.37761e-06
1.35049e-06
1.31849e-06
1.28192e-06
1.24112e-06
1.19647e-06
1.14839e-06
1.09732e-06
1.04374e-06
9.88132e-07
9.30972e-07
8.7274e-07
8.13897e-07
7.54889e-07
6.96149e-07
6.38093e-07
5.81112e-07
5.2556e-07
4.7174e-07
4.19888e-07
3.70168e-07
3.22667e-07
2.77393e-07
2.34278e-07
1.93179e-07
1.53885e-07
1.16125e-07
7.95711e-08
4.38528e-08
7.54898e-11
2.82814e-13
2.82775e-13
7.54812e-11
4.38498e-08
7.95668e-08
1.1612e-07
1.5388e-07
1.93175e-07
2.34277e-07
2.77397e-07
3.22678e-07
3.70189e-07
4.19921e-07
4.71789e-07
5.25629e-07
5.81204e-07
6.38211e-07
6.96296e-07
7.55068e-07
8.1411e-07
8.7299e-07
9.31261e-07
9.88462e-07
1.04412e-06
1.09774e-06
1.14885e-06
1.19698e-06
1.24167e-06
1.28252e-06
1.31913e-06
1.35117e-06
1.37833e-06
1.40037e-06
1.41709e-06
1.42832e-06
1.43397e-06
1.43398e-06
1.42836e-06
1.41716e-06
1.40047e-06
1.37846e-06
1.35132e-06
1.3193e-06
1.28271e-06
1.24189e-06
1.19721e-06
1.1491e-06
1.098e-06
1.04439e-06
9.88742e-07
9.31546e-07
8.73278e-07
8.14398e-07
7.55354e-07
6.96577e-07
6.38485e-07
5.81468e-07
5.25881e-07
4.72027e-07
4.20142e-07
3.70392e-07
3.22861e-07
2.77559e-07
2.34417e-07
1.93293e-07
1.53976e-07
1.16193e-07
7.9618e-08
4.38786e-08
7.55342e-11
2.8298e-13
2.82865e-13
7.55055e-11
4.38639e-08
7.95925e-08
1.16157e-07
1.5393e-07
1.93238e-07
2.34353e-07
2.77488e-07
3.22784e-07
3.70311e-07
4.20061e-07
4.71947e-07
5.25806e-07
5.814e-07
6.38427e-07
6.96533e-07
7.55325e-07
8.14387e-07
8.73288e-07
9.31579e-07
9.88799e-07
1.04447e-06
1.09811e-06
1.14924e-06
1.19738e-06
1.24209e-06
1.28295e-06
1.31958e-06
1.35163e-06
1.3788e-06
1.40085e-06
1.41757e-06
1.4288e-06
1.43446e-06
1.43447e-06
1.42885e-06
1.41764e-06
1.40095e-06
1.37892e-06
1.35178e-06
1.31975e-06
1.28315e-06
1.24231e-06
1.19762e-06
1.14949e-06
1.09838e-06
1.04474e-06
9.89079e-07
9.31864e-07
8.73576e-07
8.14675e-07
7.55611e-07
6.96814e-07
6.38701e-07
5.81664e-07
5.26058e-07
4.72185e-07
4.20282e-07
3.70514e-07
3.22968e-07
2.7765e-07
2.34494e-07
1.93356e-07
1.54026e-07
1.16231e-07
7.96437e-08
4.38928e-08
7.55585e-11
2.83071e-13
2.82914e-13
7.55185e-11
4.38715e-08
7.96062e-08
1.16178e-07
1.53957e-07
1.93271e-07
2.34394e-07
2.77537e-07
3.22841e-07
3.70377e-07
4.20136e-07
4.72032e-07
5.259e-07
5.81505e-07
6.38543e-07
6.96659e-07
7.55463e-07
8.14536e-07
8.73448e-07
9.3175e-07
9.88981e-07
1.04466e-06
1.09832e-06
1.14945e-06
1.1976e-06
1.24232e-06
1.28319e-06
1.31982e-06
1.35187e-06
1.37905e-06
1.40111e-06
1.41783e-06
1.42907e-06
1.43472e-06
1.43473e-06
1.42911e-06
1.4179e-06
1.4012e-06
1.37918e-06
1.35202e-06
1.31999e-06
1.28338e-06
1.24254e-06
1.19784e-06
1.1497e-06
1.09858e-06
1.04494e-06
9.8926e-07
9.32035e-07
8.73736e-07
8.14825e-07
7.55749e-07
6.9694e-07
6.38817e-07
5.81769e-07
5.26152e-07
4.72269e-07
4.20357e-07
3.7058e-07
3.23025e-07
2.77699e-07
2.34535e-07
1.9339e-07
1.54053e-07
1.16251e-07
7.96574e-08
4.39003e-08
7.55714e-11
2.83119e-13
2.82939e-13
7.55252e-11
4.38754e-08
7.96133e-08
1.16188e-07
1.53971e-07
1.93289e-07
2.34415e-07
2.77562e-07
3.22871e-07
3.70411e-07
4.20175e-07
4.72076e-07
5.2595e-07
5.8156e-07
6.38604e-07
6.96726e-07
7.55535e-07
8.14615e-07
8.73532e-07
9.3184e-07
9.89076e-07
1.04476e-06
1.09842e-06
1.14956e-06
1.19772e-06
1.24244e-06
1.28331e-06
1.31995e-06
1.35201e-06
1.37919e-06
1.40124e-06
1.41797e-06
1.42921e-06
1.43486e-06
1.43487e-06
1.42925e-06
1.41804e-06
1.40134e-06
1.37931e-06
1.35215e-06
1.32012e-06
1.28351e-06
1.24266e-06
1.19795e-06
1.14981e-06
1.09868e-06
1.04504e-06
9.89356e-07
9.32125e-07
8.7382e-07
8.14903e-07
7.55821e-07
6.97007e-07
6.38877e-07
5.81824e-07
5.26202e-07
4.72313e-07
4.20396e-07
3.70614e-07
3.23054e-07
2.77724e-07
2.34556e-07
1.93407e-07
1.54067e-07
1.16261e-07
7.96645e-08
4.39042e-08
7.55782e-11
2.83144e-13
2.82952e-13
7.55286e-11
4.38774e-08
7.96169e-08
1.16193e-07
1.53978e-07
1.93298e-07
2.34426e-07
2.77575e-07
3.22886e-07
3.70429e-07
4.20195e-07
4.72098e-07
5.25975e-07
5.81588e-07
6.38634e-07
6.9676e-07
7.55572e-07
8.14654e-07
8.73575e-07
9.31885e-07
9.89125e-07
1.04482e-06
1.09848e-06
1.14962e-06
1.19778e-06
1.2425e-06
1.28338e-06
1.32001e-06
1.35207e-06
1.37926e-06
1.40131e-06
1.41804e-06
1.42928e-06
1.43493e-06
1.43494e-06
1.42932e-06
1.41811e-06
1.40141e-06
1.37938e-06
1.35222e-06
1.32019e-06
1.28357e-06
1.24272e-06
1.19801e-06
1.14987e-06
1.09874e-06
1.04509e-06
9.89404e-07
9.32171e-07
8.73863e-07
8.14943e-07
7.55858e-07
6.97041e-07
6.38908e-07
5.81852e-07
5.26227e-07
4.72336e-07
4.20416e-07
3.70632e-07
3.23069e-07
2.77737e-07
2.34567e-07
1.93416e-07
1.54074e-07
1.16267e-07
7.96681e-08
4.39062e-08
7.55816e-11
2.83157e-13
2.82958e-13
7.55303e-11
4.38783e-08
7.96187e-08
1.16196e-07
1.53981e-07
1.93302e-07
2.34432e-07
2.77581e-07
3.22894e-07
3.70437e-07
4.20205e-07
4.72109e-07
5.25988e-07
5.81602e-07
6.3865e-07
6.96777e-07
7.5559e-07
8.14674e-07
8.73596e-07
9.31908e-07
9.89149e-07
1.04484e-06
1.0985e-06
1.14965e-06
1.19781e-06
1.24254e-06
1.28341e-06
1.32005e-06
1.35211e-06
1.37929e-06
1.40135e-06
1.41807e-06
1.42931e-06
1.43496e-06
1.43498e-06
1.42935e-06
1.41814e-06
1.40144e-06
1.37941e-06
1.35226e-06
1.32022e-06
1.2836e-06
1.24275e-06
1.19804e-06
1.1499e-06
1.09876e-06
1.04511e-06
9.89429e-07
9.32193e-07
8.73884e-07
8.14962e-07
7.55876e-07
6.97058e-07
6.38924e-07
5.81866e-07
5.2624e-07
4.72347e-07
4.20426e-07
3.7064e-07
3.23077e-07
2.77744e-07
2.34572e-07
1.9342e-07
1.54077e-07
1.16269e-07
7.96699e-08
4.39072e-08
7.55832e-11
2.83163e-13
2.82961e-13
7.55311e-11
4.38788e-08
7.96195e-08
1.16197e-07
1.53983e-07
1.93304e-07
2.34434e-07
2.77584e-07
3.22897e-07
3.70442e-07
4.2021e-07
4.72115e-07
5.25994e-07
5.81609e-07
6.38657e-07
6.96785e-07
7.55599e-07
8.14684e-07
8.73606e-07
9.31919e-07
9.89161e-07
1.04485e-06
1.09852e-06
1.14966e-06
1.19782e-06
1.24255e-06
1.28342e-06
1.32006e-06
1.35212e-06
1.37931e-06
1.40136e-06
1.41809e-06
1.42933e-06
1.43498e-06
1.435e-06
1.42937e-06
1.41816e-06
1.40146e-06
1.37943e-06
1.35227e-06
1.32023e-06
1.28362e-06
1.24277e-06
1.19806e-06
1.14991e-06
1.09878e-06
1.04513e-06
9.89441e-07
9.32205e-07
8.73894e-07
8.14972e-07
7.55885e-07
6.97066e-07
6.38931e-07
5.81873e-07
5.26246e-07
4.72352e-07
4.20431e-07
3.70645e-07
3.2308e-07
2.77747e-07
2.34575e-07
1.93422e-07
1.54079e-07
1.16271e-07
7.96707e-08
4.39077e-08
7.55841e-11
2.83166e-13
2.82962e-13
7.55314e-11
4.3879e-08
7.96199e-08
1.16198e-07
1.53984e-07
1.93305e-07
2.34435e-07
2.77586e-07
3.22899e-07
3.70444e-07
4.20212e-07
4.72117e-07
5.25997e-07
5.81612e-07
6.38661e-07
6.96789e-07
7.55603e-07
8.14689e-07
8.73611e-07
9.31925e-07
9.89166e-07
1.04486e-06
1.09852e-06
1.14967e-06
1.19783e-06
1.24256e-06
1.28343e-06
1.32007e-06
1.35213e-06
1.37931e-06
1.40137e-06
1.4181e-06
1.42934e-06
1.43499e-06
1.435e-06
1.42938e-06
1.41817e-06
1.40147e-06
1.37944e-06
1.35228e-06
1.32024e-06
1.28363e-06
1.24277e-06
1.19806e-06
1.14992e-06
1.09878e-06
1.04513e-06
9.89446e-07
9.3221e-07
8.73899e-07
8.14977e-07
7.55889e-07
6.9707e-07
6.38935e-07
5.81876e-07
5.26248e-07
4.72355e-07
4.20433e-07
3.70647e-07
3.23082e-07
2.77748e-07
2.34576e-07
1.93423e-07
1.54079e-07
1.16271e-07
7.96711e-08
4.39079e-08
7.55844e-11
2.83168e-13
2.82963e-13
7.55316e-11
4.38791e-08
7.96201e-08
1.16198e-07
1.53984e-07
1.93306e-07
2.34436e-07
2.77586e-07
3.229e-07
3.70444e-07
4.20213e-07
4.72119e-07
5.25998e-07
5.81613e-07
6.38662e-07
6.96791e-07
7.55605e-07
8.14691e-07
8.73614e-07
9.31927e-07
9.89169e-07
1.04486e-06
1.09853e-06
1.14967e-06
1.19783e-06
1.24256e-06
1.28343e-06
1.32007e-06
1.35213e-06
1.37932e-06
1.40137e-06
1.4181e-06
1.42934e-06
1.43499e-06
1.43501e-06
1.42938e-06
1.41817e-06
1.40147e-06
1.37944e-06
1.35228e-06
1.32025e-06
1.28363e-06
1.24278e-06
1.19807e-06
1.14992e-06
1.09879e-06
1.04514e-06
9.89449e-07
9.32212e-07
8.73901e-07
8.14979e-07
7.55891e-07
6.97072e-07
6.38936e-07
5.81877e-07
5.2625e-07
4.72356e-07
4.20434e-07
3.70647e-07
3.23083e-07
2.77749e-07
2.34577e-07
1.93424e-07
1.5408e-07
1.16271e-07
7.96713e-08
4.3908e-08
7.55846e-11
2.83168e-13
2.82963e-13
7.55317e-11
4.38792e-08
7.96202e-08
1.16198e-07
1.53984e-07
1.93306e-07
2.34436e-07
2.77587e-07
3.229e-07
3.70445e-07
4.20213e-07
4.72119e-07
5.25999e-07
5.81614e-07
6.38663e-07
6.96791e-07
7.55606e-07
8.14692e-07
8.73615e-07
9.31928e-07
9.8917e-07
1.04486e-06
1.09853e-06
1.14967e-06
1.19784e-06
1.24256e-06
1.28344e-06
1.32007e-06
1.35213e-06
1.37932e-06
1.40138e-06
1.4181e-06
1.42934e-06
1.435e-06
1.43501e-06
1.42939e-06
1.41817e-06
1.40147e-06
1.37944e-06
1.35228e-06
1.32025e-06
1.28363e-06
1.24278e-06
1.19807e-06
1.14992e-06
1.09879e-06
1.04514e-06
9.8945e-07
9.32213e-07
8.73903e-07
8.1498e-07
7.55892e-07
6.97072e-07
6.38937e-07
5.81878e-07
5.2625e-07
4.72357e-07
4.20434e-07
3.70648e-07
3.23083e-07
2.77749e-07
2.34577e-07
1.93424e-07
1.5408e-07
1.16271e-07
7.96714e-08
4.3908e-08
7.55847e-11
2.83169e-13
2.82963e-13
7.55317e-11
4.38792e-08
7.96203e-08
1.16198e-07
1.53984e-07
1.93306e-07
2.34436e-07
2.77587e-07
3.229e-07
3.70445e-07
4.20214e-07
4.72119e-07
5.25999e-07
5.81614e-07
6.38664e-07
6.96792e-07
7.55607e-07
8.14692e-07
8.73615e-07
9.31929e-07
9.89171e-07
1.04487e-06
1.09853e-06
1.14967e-06
1.19784e-06
1.24256e-06
1.28344e-06
1.32008e-06
1.35214e-06
1.37932e-06
1.40138e-06
1.4181e-06
1.42934e-06
1.435e-06
1.43501e-06
1.42939e-06
1.41817e-06
1.40147e-06
1.37944e-06
1.35229e-06
1.32025e-06
1.28363e-06
1.24278e-06
1.19807e-06
1.14992e-06
1.09879e-06
1.04514e-06
9.89451e-07
9.32214e-07
8.73903e-07
8.1498e-07
7.55892e-07
6.97073e-07
6.38937e-07
5.81878e-07
5.26251e-07
4.72357e-07
4.20435e-07
3.70648e-07
3.23083e-07
2.77749e-07
2.34577e-07
1.93424e-07
1.5408e-07
1.16272e-07
7.96714e-08
4.39081e-08
7.55847e-11
2.83169e-13
2.82963e-13
7.55317e-11
4.38792e-08
7.96203e-08
1.16198e-07
1.53984e-07
1.93306e-07
2.34436e-07
2.77587e-07
3.229e-07
3.70445e-07
4.20214e-07
4.72119e-07
5.25999e-07
5.81614e-07
6.38664e-07
6.96792e-07
7.55607e-07
8.14692e-07
8.73615e-07
9.31929e-07
9.89171e-07
1.04487e-06
1.09853e-06
1.14967e-06
1.19784e-06
1.24256e-06
1.28344e-06
1.32008e-06
1.35214e-06
1.37932e-06
1.40138e-06
1.4181e-06
1.42934e-06
1.435e-06
1.43501e-06
1.42939e-06
1.41817e-06
1.40148e-06
1.37944e-06
1.35229e-06
1.32025e-06
1.28363e-06
1.24278e-06
1.19807e-06
1.14992e-06
1.09879e-06
1.04514e-06
9.89451e-07
9.32214e-07
8.73903e-07
8.1498e-07
7.55893e-07
6.97073e-07
6.38937e-07
5.81878e-07
5.26251e-07
4.72357e-07
4.20435e-07
3.70648e-07
3.23084e-07
2.77749e-07
2.34577e-07
1.93424e-07
1.5408e-07
1.16272e-07
7.96714e-08
4.39081e-08
7.55847e-11
2.83169e-13
2.82963e-13
7.55317e-11
4.38792e-08
7.96203e-08
1.16198e-07
1.53984e-07
1.93306e-07
2.34436e-07
2.77587e-07
3.229e-07
3.70445e-07
4.20214e-07
4.7212e-07
5.25999e-07
5.81615e-07
6.38664e-07
6.96792e-07
7.55607e-07
8.14692e-07
8.73615e-07
9.31929e-07
9.89171e-07
1.04487e-06
1.09853e-06
1.14967e-06
1.19784e-06
1.24256e-06
1.28344e-06
1.32008e-06
1.35214e-06
1.37932e-06
1.40138e-06
1.4181e-06
1.42934e-06
1.435e-06
1.43501e-06
1.42939e-06
1.41817e-06
1.40148e-06
1.37944e-06
1.35229e-06
1.32025e-06
1.28363e-06
1.24278e-06
1.19807e-06
1.14992e-06
1.09879e-06
1.04514e-06
9.89451e-07
9.32214e-07
8.73903e-07
8.1498e-07
7.55893e-07
6.97073e-07
6.38937e-07
5.81878e-07
5.26251e-07
4.72357e-07
4.20435e-07
3.70648e-07
3.23084e-07
2.77749e-07
2.34577e-07
1.93424e-07
1.5408e-07
1.16272e-07
7.96714e-08
4.39081e-08
7.55847e-11
2.83169e-13
2.82963e-13
7.55318e-11
4.38792e-08
7.96203e-08
1.16198e-07
1.53984e-07
1.93306e-07
2.34436e-07
2.77587e-07
3.229e-07
3.70445e-07
4.20214e-07
4.7212e-07
5.25999e-07