/*--------------------------------*- C++ -*----------------------------------*\
  =========                 |
  \\      /  F ield         | OpenFOAM: The Open Source CFD Toolbox
   \\    /   O peration     | Website:  https://openfoam.org
    \\  /    A nd           | Version:  13
     \\/     M anipulation  |
\*---------------------------------------------------------------------------*/
FoamFile
{
    format      ascii;
    class       volScalarField;
    location    "180";
    object      rhok;
}
// * * * * * * * * * * * * * * * * * * * * * * * * * * * * * * * * * * * * * //

dimensions      [];

internalField   nonuniform List<scalar> 
315000
(
0.444653
0.430895
0.417635
0.413625
0.412823
0.412247
0.411603
0.41093
0.410246
0.409557
0.408867
0.408176
0.407486
0.406795
0.406106
0.405416
0.404728
0.404041
0.403354
0.402668
0.401984
0.4013
0.400618
0.399938
0.399258
0.39858
0.397904
0.397229
0.396556
0.395884
0.395214
0.394546
0.39388
0.393215
0.392552
0.391892
0.391233
0.390575
0.38992
0.389267
0.388615
0.387965
0.387317
0.386671
0.386026
0.385383
0.384742
0.384102
0.383464
0.382827
0.382192
0.381558
0.380925
0.380294
0.379664
0.379035
0.378407
0.37778
0.377154
0.376529
0.375904
0.375281
0.374658
0.374036
0.373414
0.372792
0.372171
0.37155
0.37093
0.370309
0.444653
0.430891
0.417643
0.41366
0.412863
0.412285
0.411638
0.410963
0.410277
0.409585
0.408892
0.408199
0.407505
0.406812
0.40612
0.405429
0.404739
0.404049
0.403361
0.402674
0.401989
0.401304
0.400621
0.39994
0.39926
0.398581
0.397904
0.397229
0.396555
0.395883
0.395213
0.394545
0.393878
0.393214
0.392551
0.39189
0.391231
0.390574
0.389918
0.389265
0.388613
0.387963
0.387315
0.386669
0.386024
0.385381
0.38474
0.3841
0.383462
0.382825
0.38219
0.381556
0.380924
0.380292
0.379662
0.379033
0.378406
0.377779
0.377153
0.376528
0.375904
0.37528
0.374657
0.374035
0.373413
0.372792
0.372171
0.37155
0.37093
0.370309
0.444633
0.430049
0.415394
0.413983
0.413238
0.412507
0.411784
0.411067
0.410355
0.409646
0.40894
0.408237
0.407536
0.406838
0.406141
0.405446
0.404752
0.404061
0.40337
0.402682
0.401995
0.401309
0.400625
0.399943
0.399262
0.398583
0.397905
0.397229
0.396555
0.395883
0.395213
0.394544
0.393877
0.393213
0.39255
0.391889
0.391229
0.390572
0.389917
0.389263
0.388612
0.387962
0.387314
0.386667
0.386023
0.38538
0.384738
0.384099
0.383461
0.382824
0.382189
0.381555
0.380923
0.380291
0.379661
0.379032
0.378405
0.377778
0.377152
0.376527
0.375903
0.37528
0.374657
0.374035
0.373413
0.372792
0.372171
0.37155
0.37093
0.370309
0.444652
0.430832
0.416478
0.414226
0.413262
0.412457
0.411718
0.411005
0.410303
0.409604
0.408908
0.408212
0.407517
0.406823
0.40613
0.405438
0.404746
0.404056
0.403367
0.402679
0.401993
0.401307
0.400624
0.399941
0.399261
0.398581
0.397904
0.397228
0.396554
0.395882
0.395211
0.394543
0.393876
0.393211
0.392548
0.391887
0.391228
0.390571
0.389915
0.389262
0.38861
0.38796
0.387312
0.386666
0.386021
0.385378
0.384737
0.384097
0.383459
0.382823
0.382188
0.381554
0.380921
0.38029
0.37966
0.379032
0.378404
0.377777
0.377151
0.376527
0.375902
0.375279
0.374656
0.374034
0.373413
0.372791
0.37217
0.37155
0.37093
0.370309
0.444652
0.43083
0.416476
0.414224
0.413265
0.412461
0.411721
0.411007
0.410304
0.409605
0.408908
0.408212
0.407517
0.406823
0.40613
0.405437
0.404746
0.404055
0.403366
0.402678
0.401992
0.401306
0.400622
0.39994
0.399259
0.39858
0.397903
0.397227
0.396553
0.395881
0.39521
0.394541
0.393875
0.39321
0.392547
0.391886
0.391227
0.390569
0.389914
0.38926
0.388609
0.387959
0.387311
0.386665
0.38602
0.385377
0.384736
0.384096
0.383458
0.382822
0.382187
0.381553
0.380921
0.380289
0.37966
0.379031
0.378403
0.377776
0.377151
0.376526
0.375902
0.375279
0.374656
0.374034
0.373412
0.372791
0.37217
0.37155
0.370929
0.370309
0.444633
0.430048
0.415389
0.413976
0.413238
0.412508
0.411784
0.411065
0.410352
0.409642
0.408936
0.408233
0.407532
0.406833
0.406137
0.405442
0.404748
0.404057
0.403367
0.402678
0.401991
0.401305
0.400621
0.399939
0.399258
0.398579
0.397901
0.397225
0.396551
0.395879
0.395209
0.39454
0.393873
0.393208
0.392546
0.391884
0.391225
0.390568
0.389913
0.389259
0.388608
0.387958
0.38731
0.386663
0.386019
0.385376
0.384735
0.384095
0.383457
0.382821
0.382186
0.381552
0.38092
0.380289
0.379659
0.37903
0.378403
0.377776
0.37715
0.376525
0.375901
0.375278
0.374656
0.374034
0.373412
0.372791
0.37217
0.37155
0.370929
0.370309
0.444653
0.430887
0.417635
0.413648
0.41285
0.412273
0.411626
0.410951
0.410265
0.409574
0.408881
0.408188
0.407495
0.406803
0.406111
0.40542
0.40473
0.404041
0.403353
0.402667
0.401981
0.401297
0.400614
0.399933
0.399253
0.398574
0.397897
0.397222
0.396548
0.395876
0.395206
0.394538
0.393871
0.393207
0.392544
0.391883
0.391224
0.390567
0.389911
0.389258
0.388606
0.387957
0.387309
0.386662
0.386018
0.385375
0.384734
0.384095
0.383457
0.38282
0.382185
0.381551
0.380919
0.380288
0.379658
0.37903
0.378402
0.377775
0.37715
0.376525
0.375901
0.375278
0.374655
0.374033
0.373412
0.372791
0.37217
0.37155
0.370929
0.370309
0.444653
0.430881
0.417608
0.413597
0.412797
0.412222
0.411578
0.410907
0.410224
0.409536
0.408847
0.408157
0.407467
0.406778
0.406089
0.405401
0.404713
0.404027
0.403341
0.402655
0.401971
0.401288
0.400607
0.399926
0.399247
0.398569
0.397893
0.397218
0.396545
0.395873
0.395204
0.394536
0.393869
0.393205
0.392542
0.391881
0.391223
0.390565
0.38991
0.389257
0.388605
0.387956
0.387308
0.386662
0.386017
0.385374
0.384733
0.384094
0.383456
0.382819
0.382184
0.381551
0.380919
0.380288
0.379658
0.379029
0.378402
0.377775
0.377149
0.376525
0.375901
0.375278
0.374655
0.374033
0.373412
0.372791
0.37217
0.371549
0.370929
0.370309
0.444653
0.430874
0.417593
0.41358
0.41278
0.412205
0.411561
0.410889
0.410207
0.40952
0.408831
0.408143
0.407454
0.406766
0.406078
0.405391
0.404704
0.404018
0.403333
0.402649
0.401965
0.401283
0.400602
0.399922
0.399243
0.398566
0.39789
0.397215
0.396543
0.395871
0.395202
0.394534
0.393868
0.393203
0.392541
0.39188
0.391221
0.390565
0.389909
0.389256
0.388605
0.387955
0.387307
0.386661
0.386017
0.385374
0.384733
0.384093
0.383455
0.382819
0.382184
0.38155
0.380918
0.380287
0.379657
0.379029
0.378401
0.377775
0.377149
0.376524
0.375901
0.375277
0.374655
0.374033
0.373411
0.37279
0.37217
0.371549
0.370929
0.370309
0.444653
0.430871
0.417587
0.413572
0.412771
0.412196
0.411552
0.410881
0.410198
0.409512
0.408824
0.408135
0.407447
0.406759
0.406072
0.405385
0.404699
0.404013
0.403329
0.402645
0.401962
0.40128
0.400599
0.399919
0.399241
0.398564
0.397888
0.397214
0.396541
0.39587
0.395201
0.394533
0.393867
0.393203
0.39254
0.39188
0.391221
0.390564
0.389909
0.389256
0.388604
0.387954
0.387307
0.38666
0.386016
0.385373
0.384732
0.384093
0.383455
0.382819
0.382184
0.38155
0.380918
0.380287
0.379657
0.379029
0.378401
0.377774
0.377149
0.376524
0.3759
0.375277
0.374655
0.374033
0.373411
0.37279
0.37217
0.371549
0.370929
0.370309
0.444652
0.43087
0.417584
0.413569
0.412768
0.412192
0.411548
0.410877
0.410195
0.409508
0.40882
0.408132
0.407444
0.406756
0.406069
0.405382
0.404696
0.404011
0.403326
0.402643
0.40196
0.401278
0.400597
0.399918
0.39924
0.398563
0.397887
0.397213
0.39654
0.395869
0.3952
0.394532
0.393866
0.393202
0.39254
0.391879
0.39122
0.390563
0.389908
0.389255
0.388604
0.387954
0.387306
0.38666
0.386016
0.385373
0.384732
0.384093
0.383455
0.382818
0.382183
0.38155
0.380918
0.380287
0.379657
0.379028
0.378401
0.377774
0.377149
0.376524
0.3759
0.375277
0.374655
0.374033
0.373411
0.37279
0.37217
0.371549
0.370929
0.370309
0.444652
0.430869
0.417582
0.413567
0.412766
0.41219
0.411547
0.410875
0.410193
0.409507
0.408819
0.408131
0.407443
0.406755
0.406068
0.405381
0.404695
0.40401
0.403325
0.402642
0.401959
0.401277
0.400597
0.399917
0.399239
0.398562
0.397886
0.397212
0.39654
0.395869
0.395199
0.394532
0.393866
0.393202
0.392539
0.391879
0.39122
0.390563
0.389908
0.389255
0.388603
0.387954
0.387306
0.38666
0.386016
0.385373
0.384732
0.384092
0.383455
0.382818
0.382183
0.38155
0.380917
0.380287
0.379657
0.379028
0.378401
0.377774
0.377149
0.376524
0.3759
0.375277
0.374655
0.374033
0.373411
0.37279
0.37217
0.371549
0.370929
0.370309
0.444652
0.430869
0.417582
0.413567
0.412766
0.41219
0.411546
0.410875
0.410193
0.409506
0.408818
0.40813
0.407442
0.406755
0.406067
0.405381
0.404695
0.40401
0.403325
0.402642
0.401959
0.401277
0.400597
0.399917
0.399239
0.398562
0.397886
0.397212
0.39654
0.395869
0.395199
0.394532
0.393866
0.393202
0.392539
0.391879
0.39122
0.390563
0.389908
0.389255
0.388603
0.387954
0.387306
0.38666
0.386016
0.385373
0.384732
0.384092
0.383455
0.382818
0.382183
0.38155
0.380917
0.380286
0.379657
0.379028
0.378401
0.377774
0.377149
0.376524
0.3759
0.375277
0.374655
0.374033
0.373411
0.37279
0.37217
0.371549
0.370929
0.370309
0.444652
0.430869
0.417582
0.413567
0.412766
0.41219
0.411546
0.410875
0.410193
0.409506
0.408819
0.40813
0.407442
0.406755
0.406068
0.405381
0.404695
0.40401
0.403325
0.402642
0.401959
0.401277
0.400597
0.399917
0.399239
0.398562
0.397886
0.397212
0.39654
0.395869
0.395199
0.394532
0.393866
0.393202
0.392539
0.391879
0.39122
0.390563
0.389908
0.389255
0.388603
0.387954
0.387306
0.38666
0.386016
0.385373
0.384732
0.384092
0.383455
0.382818
0.382183
0.38155
0.380917
0.380286
0.379657
0.379028
0.378401
0.377774
0.377149
0.376524
0.3759
0.375277
0.374655
0.374033
0.373411
0.37279
0.37217
0.371549
0.370929
0.370309
0.444652
0.43087
0.417583
0.413568
0.412767
0.412191
0.411547
0.410876
0.410194
0.409507
0.408819
0.408131
0.407443
0.406755
0.406068
0.405382
0.404696
0.40401
0.403326
0.402642
0.401959
0.401278
0.400597
0.399917
0.399239
0.398562
0.397887
0.397213
0.39654
0.395869
0.3952
0.394532
0.393866
0.393202
0.392539
0.391879
0.39122
0.390563
0.389908
0.389255
0.388604
0.387954
0.387306
0.38666
0.386016
0.385373
0.384732
0.384092
0.383455
0.382818
0.382183
0.38155
0.380918
0.380287
0.379657
0.379028
0.378401
0.377774
0.377149
0.376524
0.3759
0.375277
0.374655
0.374033
0.373411
0.37279
0.37217
0.371549
0.370929
0.370309
0.444652
0.43087
0.417584
0.41357
0.412768
0.412193
0.411549
0.410878
0.410195
0.409509
0.408821
0.408133
0.407444
0.406757
0.406069
0.405383
0.404697
0.404011
0.403327
0.402643
0.40196
0.401278
0.400598
0.399918
0.39924
0.398563
0.397887
0.397213
0.39654
0.395869
0.3952
0.394532
0.393866
0.393202
0.39254
0.391879
0.39122
0.390563
0.389908
0.389255
0.388604
0.387954
0.387306
0.38666
0.386016
0.385373
0.384732
0.384093
0.383455
0.382818
0.382183
0.38155
0.380918
0.380287
0.379657
0.379028
0.378401
0.377774
0.377149
0.376524
0.3759
0.375277
0.374655
0.374033
0.373411
0.37279
0.37217
0.371549
0.370929
0.370309
0.444652
0.43087
0.417585
0.413571
0.41277
0.412194
0.41155
0.410879
0.410197
0.40951
0.408822
0.408134
0.407445
0.406757
0.40607
0.405383
0.404697
0.404012
0.403327
0.402643
0.401961
0.401279
0.400598
0.399918
0.39924
0.398563
0.397887
0.397213
0.396541
0.39587
0.3952
0.394532
0.393867
0.393202
0.39254
0.391879
0.391221
0.390564
0.389909
0.389255
0.388604
0.387954
0.387307
0.38666
0.386016
0.385373
0.384732
0.384093
0.383455
0.382819
0.382184
0.38155
0.380918
0.380287
0.379657
0.379028
0.378401
0.377774
0.377149
0.376524
0.3759
0.375277
0.374655
0.374033
0.373411
0.37279
0.37217
0.371549
0.370929
0.370309
0.444652
0.43087
0.417584
0.413569
0.412768
0.412193
0.411549
0.410878
0.410195
0.409509
0.408821
0.408133
0.407445
0.406757
0.40607
0.405383
0.404697
0.404012
0.403327
0.402643
0.401961
0.401279
0.400598
0.399918
0.39924
0.398563
0.397888
0.397213
0.396541
0.39587
0.3952
0.394533
0.393867
0.393203
0.39254
0.39188
0.391221
0.390564
0.389909
0.389256
0.388604
0.387955
0.387307
0.386661
0.386016
0.385374
0.384733
0.384093
0.383455
0.382819
0.382184
0.38155
0.380918
0.380287
0.379657
0.379029
0.378401
0.377775
0.377149
0.376524
0.3759
0.375277
0.374655
0.374033
0.373411
0.37279
0.37217
0.371549
0.370929
0.370309
0.444652
0.43087
0.417583
0.413568
0.412767
0.412192
0.411548
0.410877
0.410194
0.409508
0.40882
0.408132
0.407444
0.406756
0.406069
0.405383
0.404697
0.404011
0.403327
0.402643
0.401961
0.401279
0.400598
0.399919
0.39924
0.398563
0.397888
0.397214
0.396541
0.39587
0.395201
0.394533
0.393867
0.393203
0.392541
0.39188
0.391221
0.390564
0.389909
0.389256
0.388605
0.387955
0.387307
0.386661
0.386017
0.385374
0.384733
0.384093
0.383455
0.382819
0.382184
0.38155
0.380918
0.380287
0.379657
0.379029
0.378401
0.377775
0.377149
0.376524
0.375901
0.375277
0.374655
0.374033
0.373411
0.37279
0.37217
0.371549
0.370929
0.370309
0.444652
0.43087
0.417583
0.413568
0.412767
0.412192
0.411548
0.410877
0.410195
0.409508
0.40882
0.408132
0.407444
0.406757
0.40607
0.405383
0.404697
0.404012
0.403327
0.402644
0.401961
0.401279
0.400599
0.399919
0.399241
0.398564
0.397888
0.397214
0.396542
0.395871
0.395201
0.394533
0.393868
0.393203
0.392541
0.39188
0.391222
0.390565
0.38991
0.389256
0.388605
0.387955
0.387307
0.386661
0.386017
0.385374
0.384733
0.384094
0.383456
0.382819
0.382184
0.381551
0.380918
0.380287
0.379658
0.379029
0.378401
0.377775
0.377149
0.376525
0.375901
0.375277
0.374655
0.374033
0.373412
0.372791
0.37217
0.371549
0.370929
0.370309
0.444652
0.430871
0.417585
0.41357
0.412769
0.412194
0.41155
0.410879
0.410197
0.409511
0.408823
0.408134
0.407446
0.406759
0.406071
0.405385
0.404699
0.404013
0.403329
0.402645
0.401962
0.40128
0.4006
0.39992
0.399242
0.398565
0.397889
0.397215
0.396542
0.395871
0.395202
0.394534
0.393868
0.393204
0.392542
0.391881
0.391222
0.390565
0.38991
0.389257
0.388605
0.387956
0.387308
0.386662
0.386017
0.385375
0.384733
0.384094
0.383456
0.38282
0.382185
0.381551
0.380919
0.380288
0.379658
0.379029
0.378402
0.377775
0.377149
0.376525
0.375901
0.375278
0.374655
0.374033
0.373412
0.372791
0.37217
0.371549
0.370929
0.370309
0.444653
0.430873
0.417591
0.413577
0.412777
0.412201
0.411558
0.410886
0.410204
0.409517
0.408829
0.408141
0.407452
0.406764
0.406077
0.40539
0.404703
0.404018
0.403333
0.402649
0.401965
0.401283
0.400602
0.399922
0.399244
0.398567
0.397891
0.397216
0.396544
0.395872
0.395203
0.394535
0.393869
0.393205
0.392542
0.391882
0.391223
0.390566
0.389911
0.389257
0.388606
0.387956
0.387308
0.386662
0.386018
0.385375
0.384734
0.384094
0.383456
0.38282
0.382185
0.381551
0.380919
0.380288
0.379658
0.379029
0.378402
0.377775
0.37715
0.376525
0.375901
0.375278
0.374655
0.374033
0.373412
0.372791
0.37217
0.37155
0.370929
0.370309
0.444653
0.430881
0.417607
0.413596
0.412796
0.412221
0.411577
0.410905
0.410222
0.409535
0.408846
0.408156
0.407467
0.406777
0.406089
0.405401
0.404713
0.404026
0.40334
0.402656
0.401972
0.401289
0.400607
0.399927
0.399248
0.39857
0.397894
0.397219
0.396546
0.395874
0.395205
0.394537
0.39387
0.393206
0.392543
0.391882
0.391224
0.390566
0.389911
0.389258
0.388606
0.387957
0.387309
0.386663
0.386018
0.385375
0.384734
0.384095
0.383457
0.38282
0.382185
0.381551
0.380919
0.380288
0.379658
0.37903
0.378402
0.377775
0.37715
0.376525
0.375901
0.375278
0.374655
0.374033
0.373412
0.372791
0.37217
0.37155
0.370929
0.370309
0.444653
0.430886
0.417633
0.413647
0.412849
0.41227
0.411624
0.410949
0.410263
0.409572
0.408879
0.408186
0.407493
0.406801
0.40611
0.405419
0.404729
0.40404
0.403352
0.402666
0.401981
0.401296
0.400614
0.399932
0.399252
0.398574
0.397897
0.397222
0.396548
0.395877
0.395206
0.394538
0.393872
0.393207
0.392544
0.391883
0.391224
0.390567
0.389912
0.389259
0.388607
0.387957
0.387309
0.386663
0.386018
0.385376
0.384735
0.384095
0.383457
0.38282
0.382185
0.381552
0.380919
0.380288
0.379659
0.37903
0.378402
0.377776
0.37715
0.376525
0.375901
0.375278
0.374655
0.374033
0.373412
0.372791
0.37217
0.37155
0.370929
0.370309
0.444632
0.430044
0.415382
0.41397
0.413226
0.412494
0.411771
0.411054
0.410342
0.409633
0.408927
0.408225
0.407524
0.406826
0.40613
0.405435
0.404743
0.404051
0.403362
0.402673
0.401987
0.401302
0.400618
0.399936
0.399255
0.398576
0.397899
0.397224
0.39655
0.395878
0.395208
0.394539
0.393873
0.393208
0.392545
0.391884
0.391225
0.390568
0.389912
0.389259
0.388607
0.387958
0.38731
0.386663
0.386019
0.385376
0.384735
0.384095
0.383457
0.382821
0.382186
0.381552
0.38092
0.380289
0.379659
0.37903
0.378402
0.377776
0.37715
0.376525
0.375901
0.375278
0.374656
0.374033
0.373412
0.372791
0.37217
0.37155
0.370929
0.370309
0.444652
0.43082
0.416451
0.414196
0.413231
0.412426
0.411687
0.410974
0.410273
0.409576
0.40888
0.408186
0.407493
0.406801
0.406109
0.405418
0.404729
0.40404
0.403352
0.402666
0.40198
0.401296
0.400614
0.399932
0.399253
0.398574
0.397897
0.397222
0.396549
0.395877
0.395207
0.394539
0.393872
0.393208
0.392545
0.391884
0.391225
0.390568
0.389913
0.389259
0.388608
0.387958
0.38731
0.386664
0.386019
0.385376
0.384735
0.384096
0.383458
0.382821
0.382186
0.381552
0.38092
0.380289
0.379659
0.37903
0.378403
0.377776
0.37715
0.376526
0.375902
0.375278
0.374656
0.374034
0.373412
0.372791
0.37217
0.37155
0.370929
0.370309
0.444652
0.430814
0.416418
0.414153
0.413185
0.412379
0.411641
0.410931
0.410232
0.409538
0.408847
0.408156
0.407466
0.406777
0.406088
0.4054
0.404713
0.404026
0.40334
0.402655
0.401972
0.401289
0.400607
0.399927
0.399248
0.39857
0.397894
0.39722
0.396547
0.395875
0.395206
0.394538
0.393871
0.393207
0.392544
0.391884
0.391225
0.390568
0.389913
0.389259
0.388608
0.387958
0.38731
0.386664
0.386019
0.385376
0.384735
0.384096
0.383458
0.382821
0.382186
0.381552
0.38092
0.380289
0.379659
0.37903
0.378403
0.377776
0.37715
0.376526
0.375902
0.375278
0.374656
0.374034
0.373412
0.372791
0.37217
0.37155
0.370929
0.370309
0.444651
0.430806
0.416401
0.414135
0.413166
0.412359
0.411622
0.410912
0.410214
0.409521
0.408831
0.408141
0.407452
0.406764
0.406076
0.405389
0.404703
0.404017
0.403333
0.402649
0.401966
0.401284
0.400603
0.399923
0.399245
0.398568
0.397892
0.397218
0.396545
0.395874
0.395205
0.394537
0.393871
0.393207
0.392544
0.391883
0.391225
0.390568
0.389913
0.389259
0.388608
0.387958
0.38731
0.386664
0.386019
0.385377
0.384736
0.384096
0.383458
0.382821
0.382186
0.381553
0.38092
0.380289
0.379659
0.379031
0.378403
0.377776
0.377151
0.376526
0.375902
0.375278
0.374656
0.374034
0.373412
0.372791
0.37217
0.37155
0.370929
0.370309
0.444651
0.430803
0.416395
0.414128
0.413159
0.412352
0.411615
0.410905
0.410207
0.409515
0.408824
0.408135
0.407447
0.406759
0.406071
0.405385
0.404699
0.404014
0.403329
0.402646
0.401963
0.401281
0.400601
0.399921
0.399243
0.398566
0.397891
0.397217
0.396544
0.395873
0.395204
0.394536
0.393871
0.393206
0.392544
0.391883
0.391225
0.390568
0.389913
0.389259
0.388608
0.387958
0.38731
0.386664
0.38602
0.385377
0.384736
0.384096
0.383458
0.382822
0.382187
0.381553
0.38092
0.380289
0.37966
0.379031
0.378403
0.377776
0.377151
0.376526
0.375902
0.375279
0.374656
0.374034
0.373412
0.372791
0.37217
0.37155
0.370929
0.370309
0.444651
0.430803
0.416393
0.414126
0.413157
0.41235
0.411612
0.410903
0.410205
0.409513
0.408822
0.408133
0.407445
0.406757
0.40607
0.405383
0.404698
0.404012
0.403328
0.402645
0.401962
0.401281
0.4006
0.399921
0.399243
0.398566
0.397891
0.397217
0.396544
0.395873
0.395204
0.394536
0.393871
0.393206
0.392544
0.391884
0.391225
0.390568
0.389913
0.38926
0.388608
0.387958
0.387311
0.386664
0.38602
0.385377
0.384736
0.384096
0.383458
0.382822
0.382187
0.381553
0.380921
0.38029
0.37966
0.379031
0.378403
0.377777
0.377151
0.376526
0.375902
0.375279
0.374656
0.374034
0.373412
0.372791
0.37217
0.37155
0.370929
0.370309
0.444651
0.430802
0.416393
0.414126
0.413156
0.41235
0.411612
0.410903
0.410205
0.409512
0.408822
0.408133
0.407444
0.406757
0.406069
0.405383
0.404697
0.404012
0.403328
0.402645
0.401962
0.401281
0.4006
0.399921
0.399243
0.398566
0.397891
0.397217
0.396544
0.395873
0.395204
0.394537
0.393871
0.393207
0.392544
0.391884
0.391225
0.390568
0.389913
0.38926
0.388608
0.387959
0.387311
0.386665
0.38602
0.385377
0.384736
0.384097
0.383459
0.382822
0.382187
0.381553
0.380921
0.38029
0.37966
0.379031
0.378403
0.377777
0.377151
0.376526
0.375902
0.375279
0.374656
0.374034
0.373412
0.372791
0.37217
0.37155
0.370929
0.370309
0.444651
0.430803
0.416393
0.414126
0.413156
0.41235
0.411612
0.410903
0.410205
0.409512
0.408822
0.408133
0.407444
0.406757
0.40607
0.405383
0.404697
0.404012
0.403328
0.402645
0.401962
0.401281
0.4006
0.399921
0.399243
0.398566
0.397891
0.397217
0.396544
0.395874
0.395204
0.394537
0.393871
0.393207
0.392545
0.391884
0.391225
0.390568
0.389913
0.38926
0.388609
0.387959
0.387311
0.386665
0.38602
0.385377
0.384736
0.384097
0.383459
0.382822
0.382187
0.381553
0.380921
0.38029
0.37966
0.379031
0.378403
0.377777
0.377151
0.376526
0.375902
0.375279
0.374656
0.374034
0.373412
0.372791
0.37217
0.37155
0.370929
0.370309
0.444651
0.430803
0.416393
0.414126
0.413156
0.41235
0.411612
0.410903
0.410205
0.409512
0.408822
0.408133
0.407444
0.406757
0.40607
0.405383
0.404698
0.404012
0.403328
0.402645
0.401962
0.401281
0.4006
0.399921
0.399243
0.398566
0.397891
0.397217
0.396545
0.395874
0.395205
0.394537
0.393871
0.393207
0.392545
0.391884
0.391225
0.390569
0.389913
0.38926
0.388609
0.387959
0.387311
0.386665
0.38602
0.385378
0.384736
0.384097
0.383459
0.382822
0.382187
0.381553
0.380921
0.38029
0.37966
0.379031
0.378404
0.377777
0.377151
0.376526
0.375902
0.375279
0.374656
0.374034
0.373412
0.372791
0.37217
0.37155
0.370929
0.370309
0.444651
0.430803
0.416393
0.414126
0.413156
0.41235
0.411612
0.410903
0.410205
0.409512
0.408822
0.408133
0.407445
0.406757
0.40607
0.405383
0.404698
0.404013
0.403328
0.402645
0.401963
0.401281
0.400601
0.399921
0.399243
0.398567
0.397891
0.397217
0.396545
0.395874
0.395205
0.394537
0.393871
0.393207
0.392545
0.391884
0.391226
0.390569
0.389914
0.38926
0.388609
0.387959
0.387311
0.386665
0.386021
0.385378
0.384737
0.384097
0.383459
0.382822
0.382187
0.381554
0.380921
0.38029
0.37966
0.379031
0.378404
0.377777
0.377151
0.376526
0.375902
0.375279
0.374656
0.374034
0.373412
0.372791
0.37217
0.37155
0.370929
0.370309
0.444651
0.430803
0.416393
0.414126
0.413157
0.41235
0.411612
0.410903
0.410205
0.409512
0.408822
0.408133
0.407445
0.406757
0.40607
0.405384
0.404698
0.404013
0.403329
0.402645
0.401963
0.401281
0.400601
0.399921
0.399243
0.398567
0.397891
0.397217
0.396545
0.395874
0.395205
0.394537
0.393871
0.393207
0.392545
0.391884
0.391226
0.390569
0.389914
0.38926
0.388609
0.387959
0.387311
0.386665
0.386021
0.385378
0.384737
0.384097
0.383459
0.382822
0.382187
0.381554
0.380921
0.38029
0.37966
0.379031
0.378404
0.377777
0.377151
0.376526
0.375902
0.375279
0.374656
0.374034
0.373412
0.372791
0.37217
0.37155
0.370929
0.370309
0.444651
0.430803
0.416393
0.414126
0.413157
0.41235
0.411613
0.410903
0.410205
0.409513
0.408822
0.408133
0.407445
0.406757
0.40607
0.405384
0.404698
0.404013
0.403329
0.402645
0.401963
0.401281
0.400601
0.399922
0.399244
0.398567
0.397891
0.397217
0.396545
0.395874
0.395205
0.394537
0.393872
0.393207
0.392545
0.391885
0.391226
0.390569
0.389914
0.389261
0.388609
0.387959
0.387311
0.386665
0.386021
0.385378
0.384737
0.384097
0.383459
0.382823
0.382187
0.381554
0.380921
0.38029
0.37966
0.379031
0.378404
0.377777
0.377151
0.376526
0.375902
0.375279
0.374656
0.374034
0.373412
0.372791
0.37217
0.37155
0.370929
0.370309
0.444651
0.430803
0.416393
0.414126
0.413157
0.41235
0.411613
0.410903
0.410205
0.409513
0.408822
0.408133
0.407445
0.406757
0.40607
0.405384
0.404698
0.404013
0.403329
0.402645
0.401963
0.401281
0.400601
0.399922
0.399244
0.398567
0.397892
0.397218
0.396545
0.395874
0.395205
0.394538
0.393872
0.393208
0.392545
0.391885
0.391226
0.390569
0.389914
0.389261
0.388609
0.387959
0.387311
0.386665
0.386021
0.385378
0.384737
0.384097
0.383459
0.382823
0.382187
0.381554
0.380921
0.38029
0.37966
0.379031
0.378404
0.377777
0.377151
0.376526
0.375902
0.375279
0.374656
0.374034
0.373413
0.372791
0.37217
0.37155
0.370929
0.370309
0.444651
0.430803
0.416393
0.414126
0.413157
0.41235
0.411613
0.410903
0.410205
0.409513
0.408822
0.408133
0.407445
0.406757
0.40607
0.405384
0.404698
0.404013
0.403329
0.402645
0.401963
0.401281
0.400601
0.399922
0.399244
0.398567
0.397892
0.397218
0.396545
0.395874
0.395205
0.394538
0.393872
0.393208
0.392545
0.391885
0.391226
0.390569
0.389914
0.389261
0.388609
0.387959
0.387312
0.386665
0.386021
0.385378
0.384737
0.384097
0.383459
0.382823
0.382187
0.381554
0.380921
0.38029
0.37966
0.379031
0.378404
0.377777
0.377151
0.376526
0.375902
0.375279
0.374656
0.374034
0.373413
0.372791
0.37217
0.37155
0.370929
0.370309
0.444651
0.430803
0.416393
0.414126
0.413157
0.41235
0.411613
0.410903
0.410206
0.409513
0.408822
0.408133
0.407445
0.406757
0.40607
0.405384
0.404698
0.404013
0.403329
0.402645
0.401963
0.401281
0.400601
0.399922
0.399244
0.398567
0.397892
0.397218
0.396545
0.395874
0.395205
0.394538
0.393872
0.393208
0.392545
0.391885
0.391226
0.390569
0.389914
0.389261
0.388609
0.38796
0.387312
0.386665
0.386021
0.385378
0.384737
0.384097
0.383459
0.382823
0.382188
0.381554
0.380921
0.38029
0.37966
0.379032
0.378404
0.377777
0.377151
0.376526
0.375902
0.375279
0.374656
0.374034
0.373413
0.372791
0.37217
0.37155
0.370929
0.370309
0.444651
0.430803
0.416393
0.414126
0.413157
0.41235
0.411613
0.410903
0.410206
0.409513
0.408822
0.408133
0.407445
0.406757
0.40607
0.405384
0.404698
0.404013
0.403329
0.402646
0.401963
0.401282
0.400601
0.399922
0.399244
0.398567
0.397892
0.397218
0.396545
0.395874
0.395205
0.394538
0.393872
0.393208
0.392545
0.391885
0.391226
0.390569
0.389914
0.389261
0.388609
0.38796
0.387312
0.386665
0.386021
0.385378
0.384737
0.384097
0.383459
0.382823
0.382188
0.381554
0.380921
0.38029
0.37966
0.379032
0.378404
0.377777
0.377151
0.376526
0.375902
0.375279
0.374656
0.374034
0.373413
0.372791
0.37217
0.37155
0.370929
0.370309
0.444651
0.430803
0.416393
0.414126
0.413157
0.41235
0.411613
0.410903
0.410206
0.409513
0.408823
0.408133
0.407445
0.406757
0.40607
0.405384
0.404698
0.404013
0.403329
0.402646
0.401963
0.401282
0.400601
0.399922
0.399244
0.398567
0.397892
0.397218
0.396545
0.395874
0.395205
0.394538
0.393872
0.393208
0.392545
0.391885
0.391226
0.390569
0.389914
0.389261
0.388609
0.38796
0.387312
0.386665
0.386021
0.385378
0.384737
0.384097
0.383459
0.382823
0.382188
0.381554
0.380921
0.38029
0.37966
0.379032
0.378404
0.377777
0.377151
0.376526
0.375902
0.375279
0.374656
0.374034
0.373413
0.372791
0.37217
0.37155
0.370929
0.370309
0.444651
0.430803
0.416393
0.414126
0.413157
0.412351
0.411613
0.410903
0.410206
0.409513
0.408823
0.408133
0.407445
0.406757
0.40607
0.405384
0.404698
0.404013
0.403329
0.402646
0.401963
0.401282
0.400601
0.399922
0.399244
0.398567
0.397892
0.397218
0.396545
0.395875
0.395205
0.394538
0.393872
0.393208
0.392545
0.391885
0.391226
0.390569
0.389914
0.389261
0.388609
0.38796
0.387312
0.386665
0.386021
0.385378
0.384737
0.384097
0.383459
0.382823
0.382188
0.381554
0.380921
0.38029
0.37966
0.379032
0.378404
0.377777
0.377151
0.376526
0.375902
0.375279
0.374656
0.374034
0.373413
0.372791
0.37217
0.37155
0.370929
0.370309
0.444651
0.430803
0.416394
0.414126
0.413157
0.412351
0.411613
0.410903
0.410206
0.409513
0.408823
0.408133
0.407445
0.406757
0.40607
0.405384
0.404698
0.404013
0.403329
0.402646
0.401963
0.401282
0.400601
0.399922
0.399244
0.398567
0.397892
0.397218
0.396545
0.395875
0.395205
0.394538
0.393872
0.393208
0.392545
0.391885
0.391226
0.390569
0.389914
0.389261
0.388609
0.38796
0.387312
0.386665
0.386021
0.385378
0.384737
0.384097
0.383459
0.382823
0.382188
0.381554
0.380921
0.38029
0.37966
0.379032
0.378404
0.377777
0.377151
0.376526
0.375902
0.375279
0.374656
0.374034
0.373413
0.372791
0.37217
0.37155
0.370929
0.370309
0.444651
0.430803
0.416394
0.414126
0.413157
0.412351
0.411613
0.410903
0.410206
0.409513
0.408823
0.408133
0.407445
0.406757
0.40607
0.405384
0.404698
0.404013
0.403329
0.402646
0.401963
0.401282
0.400601
0.399922
0.399244
0.398567
0.397892
0.397218
0.396545
0.395875
0.395205
0.394538
0.393872
0.393208
0.392545
0.391885
0.391226
0.390569
0.389914
0.389261
0.388609
0.38796
0.387312
0.386665
0.386021
0.385378
0.384737
0.384097
0.383459
0.382823
0.382188
0.381554
0.380921
0.38029
0.37966
0.379032
0.378404
0.377777
0.377151
0.376526
0.375902
0.375279
0.374656
0.374034
0.373413
0.372791
0.37217
0.37155
0.37093
0.370309
0.444651
0.430803
0.416394
0.414126
0.413157
0.412351
0.411613
0.410903
0.410206
0.409513
0.408823
0.408133
0.407445
0.406757
0.40607
0.405384
0.404698
0.404013
0.403329
0.402646
0.401963
0.401282
0.400601
0.399922
0.399244
0.398567
0.397892
0.397218
0.396545
0.395875
0.395205
0.394538
0.393872
0.393208
0.392545
0.391885
0.391226
0.390569
0.389914
0.389261
0.388609
0.38796
0.387312
0.386665
0.386021
0.385378
0.384737
0.384097
0.383459
0.382823
0.382188
0.381554
0.380921
0.38029
0.37966
0.379032
0.378404
0.377777
0.377151
0.376526
0.375902
0.375279
0.374656
0.374034
0.373413
0.372791
0.37217
0.37155
0.37093
0.370309
0.444651
0.430803
0.416394
0.414126
0.413157
0.412351
0.411613
0.410903
0.410206
0.409513
0.408823
0.408133
0.407445
0.406757
0.40607
0.405384
0.404698
0.404013
0.403329
0.402646
0.401963
0.401282
0.400601
0.399922
0.399244
0.398567
0.397892
0.397218
0.396545
0.395875
0.395205
0.394538
0.393872
0.393208
0.392545
0.391885
0.391226
0.390569
0.389914
0.389261
0.388609
0.38796
0.387312
0.386665
0.386021
0.385378
0.384737
0.384097
0.383459
0.382823
0.382188
0.381554
0.380921
0.38029
0.37966
0.379032
0.378404
0.377777
0.377151
0.376526
0.375902
0.375279
0.374656
0.374034
0.373413
0.372791
0.37217
0.37155
0.37093
0.370309
0.444651
0.430803
0.416394
0.414126
0.413157
0.412351
0.411613
0.410903
0.410206
0.409513
0.408823
0.408133
0.407445
0.406757
0.40607
0.405384
0.404698
0.404013
0.403329
0.402646
0.401963
0.401282
0.400601
0.399922
0.399244
0.398567
0.397892
0.397218
0.396545
0.395875
0.395205
0.394538
0.393872
0.393208
0.392545
0.391885
0.391226
0.390569
0.389914
0.389261
0.388609
0.38796
0.387312
0.386665
0.386021
0.385378
0.384737
0.384097
0.383459
0.382823
0.382188
0.381554
0.380921
0.38029
0.37966
0.379032
0.378404
0.377777
0.377151
0.376527
0.375902
0.375279
0.374656
0.374034
0.373413
0.372791
0.37217
0.37155
0.37093
0.370309
0.444651
0.430803
0.416394
0.414126
0.413157
0.412351
0.411613
0.410903
0.410206
0.409513
0.408823
0.408133
0.407445
0.406757
0.40607