/*--------------------------------*- C++ -*----------------------------------*\
  =========                 |
  \\      /  F ield         | OpenFOAM: The Open Source CFD Toolbox
   \\    /   O peration     | Website:  https://openfoam.org
    \\  /    A nd           | Version:  13
     \\/     M anipulation  |
\*---------------------------------------------------------------------------*/
FoamFile
{
    format      ascii;
    class       volScalarField;
    location    "270";
    object      k;
}
// * * * * * * * * * * * * * * * * * * * * * * * * * * * * * * * * * * * * * //

dimensions      [0 2 -2 0 0 0 0];

internalField   nonuniform List<scalar> 
78750
(
2.03526e-15
5.78137e-14
2.61802e-13
4.74902e-13
6.99541e-13
9.37375e-13
1.18854e-12
1.45125e-12
1.72181e-12
1.99475e-12
2.26324e-12
2.51948e-12
2.75528e-12
2.96252e-12
3.1337e-12
3.26238e-12
3.34359e-12
3.37416e-12
3.35284e-12
3.28044e-12
3.15978e-12
2.99546e-12
2.79366e-12
2.56168e-12
2.30757e-12
2.03954e-12
1.76547e-12
1.49236e-12
1.2259e-12
9.69996e-13
7.26598e-13
4.95577e-13
2.74926e-13
6.12245e-14
2.1649e-15
4.4179e-14
1.27472e-12
6.35427e-12
1.16097e-11
1.71441e-11
2.30188e-11
2.92457e-11
3.57833e-11
4.2538e-11
4.93705e-11
5.61054e-11
6.25431e-11
6.84729e-11
7.36867e-11
7.79918e-11
8.12235e-11
8.32547e-11
8.40039e-11
8.34405e-11
8.15864e-11
7.85147e-11
7.43452e-11
6.92372e-11
6.33795e-11
5.69785e-11
5.02452e-11
4.33815e-11
3.65662e-11
2.99435e-11
2.36118e-11
1.76173e-11
1.19511e-11
6.55254e-12
1.31669e-12
4.56628e-14
1.23089e-13
3.5524e-12
1.77445e-11
3.26112e-11
4.85764e-11
6.59222e-11
8.47561e-11
1.04991e-10
1.26344e-10
1.48352e-10
1.70401e-10
1.91769e-10
2.11677e-10
2.29338e-10
2.44016e-10
2.55075e-10
2.62022e-10
2.64542e-10
2.62519e-10
2.56044e-10
2.45407e-10
2.31081e-10
2.13686e-10
1.93951e-10
1.72656e-10
1.50587e-10
1.28472e-10
1.0694e-10
8.64671e-11
6.73533e-11
4.96993e-11
3.34078e-11
1.81998e-11
3.64782e-12
1.26453e-13
2.36458e-13
6.82422e-12
3.41111e-11
6.28265e-11
9.38866e-11
1.2792e-10
1.65199e-10
2.05591e-10
2.48554e-10
2.93156e-10
3.38133e-10
3.81973e-10
4.23016e-10
4.59571e-10
4.90041e-10
5.13035e-10
5.27471e-10
5.32657e-10
5.2834e-10
5.14726e-10
4.92465e-10
4.62602e-10
4.26501e-10
3.85745e-10
3.4202e-10
2.96991e-10
2.5219e-10
2.08903e-10
1.6809e-10
1.30323e-10
9.57595e-11
6.41457e-11
3.48599e-11
6.98057e-12
2.41965e-13
3.65273e-13
1.0541e-11
5.26974e-11
9.71194e-11
1.4527e-10
1.9816e-10
2.5624e-10
3.19323e-10
3.8657e-10
4.56524e-10
5.27194e-10
5.96185e-10
6.6086e-10
7.18523e-10
7.66619e-10
8.02919e-10
8.25687e-10
8.33814e-10
8.26897e-10
8.05273e-10
7.69993e-10
7.22741e-10
6.65707e-10
6.01427e-10
5.32589e-10
4.61842e-10
3.91604e-10
3.239e-10
2.60226e-10
2.01465e-10
1.47836e-10
9.89202e-11
5.37155e-11
1.07532e-11
3.72747e-13
4.91191e-13
1.41741e-11
7.08616e-11
1.30615e-10
1.95421e-10
2.66655e-10
3.44932e-10
4.30005e-10
5.20747e-10
6.15188e-10
7.10637e-10
8.03851e-10
8.91256e-10
9.69198e-10
1.03421e-09
1.08326e-09
1.114e-09
1.12493e-09
1.11549e-09
1.08616e-09
1.03836e-09
9.74384e-10
8.97217e-10
8.10296e-10
7.17268e-10
6.21721e-10
5.26926e-10
4.35618e-10
3.49814e-10
2.70695e-10
1.98551e-10
1.32805e-10
7.20958e-11
1.44312e-11
5.00244e-13
6.0118e-13
1.73482e-11
8.67317e-11
1.59874e-10
2.39212e-10
3.26437e-10
4.22303e-10
5.26513e-10
6.37682e-10
7.53397e-10
8.70357e-10
9.84585e-10
1.0917e-09
1.1872e-09
1.26686e-09
1.32694e-09
1.36457e-09
1.3779e-09
1.36627e-09
1.33024e-09
1.27158e-09
1.19311e-09
1.09848e-09
9.91918e-10
8.77901e-10
7.60827e-10
6.44707e-10
5.32889e-10
4.27844e-10
3.31013e-10
2.42752e-10
1.62344e-10
8.81207e-11
1.76373e-11
6.11363e-13
6.88213e-13
1.98609e-11
9.92982e-11
1.83039e-10
2.73879e-10
3.73756e-10
4.83536e-10
6.02878e-10
7.30194e-10
8.62721e-10
9.96676e-10
1.1275e-09
1.25017e-09
1.35955e-09
1.45075e-09
1.51954e-09
1.5626e-09
1.57781e-09
1.56443e-09
1.5231e-09
1.45585e-09
1.36592e-09
1.2575e-09
1.13542e-09
1.00482e-09
8.70744e-10
7.37776e-10
6.09755e-10
4.89507e-10
3.78683e-10
2.77683e-10
1.85689e-10
1.00785e-10
2.01703e-11
6.9911e-13
7.50965e-13
2.16738e-11
1.08368e-10
1.99759e-10
2.989e-10
4.07908e-10
5.27728e-10
6.57988e-10
7.96956e-10
9.41613e-10
1.08783e-09
1.23062e-09
1.36451e-09
1.48389e-09
1.58343e-09
1.65848e-09
1.70545e-09
1.72201e-09
1.70736e-09
1.6622e-09
1.58875e-09
1.49054e-09
1.37216e-09
1.23889e-09
1.09633e-09
9.49982e-10
8.04863e-10
6.65157e-10
5.33948e-10
4.13034e-10
3.02854e-10
2.02509e-10
1.09908e-10
2.19943e-11
7.62253e-13
7.92373e-13
2.2871e-11
1.1436e-10
2.10807e-10
3.15433e-10
4.30474e-10
5.5693e-10
6.94406e-10
8.41075e-10
9.93748e-10
1.14807e-09
1.29877e-09
1.44008e-09
1.56606e-09
1.6711e-09
1.7503e-09
1.79984e-09
1.81729e-09
1.80179e-09
1.75409e-09
1.67654e-09
1.57286e-09
1.44789e-09
1.30722e-09
1.15675e-09
1.0023e-09
8.49148e-10
7.01724e-10
5.63275e-10
4.35701e-10
3.1946e-10
2.13605e-10
1.15926e-10
2.31966e-11
8.03842e-13
8.17495e-13
2.3598e-11
1.18002e-10
2.1752e-10
3.2548e-10
4.44188e-10
5.74678e-10
7.16541e-10
8.6789e-10
1.02544e-09
1.18468e-09
1.3402e-09
1.48601e-09
1.61601e-09
1.7244e-09
1.80611e-09
1.85721e-09
1.8752e-09
1.85918e-09
1.80994e-09
1.72988e-09
1.62287e-09
1.4939e-09
1.34872e-09
1.19344e-09
1.03406e-09
8.76037e-10
7.23922e-10
5.81076e-10
4.49457e-10
3.29537e-10
2.20336e-10
1.19576e-10
2.39255e-11
8.29032e-13
8.31579e-13
2.40059e-11
1.20046e-10
2.2129e-10
3.31122e-10
4.5189e-10
5.84645e-10
7.28973e-10
8.82953e-10
1.04324e-09
1.20525e-09
1.36347e-09
1.51182e-09
1.64407e-09
1.75433e-09
1.83746e-09
1.88944e-09
1.90773e-09
1.89141e-09
1.8413e-09
1.75984e-09
1.65096e-09
1.51973e-09
1.37202e-09
1.21404e-09
1.05189e-09
8.91126e-10
7.36378e-10
5.91063e-10
4.57173e-10
3.35188e-10
2.24111e-10
1.21623e-10
2.43338e-11
8.4313e-13
8.38909e-13
2.42185e-11
1.21112e-10
2.23255e-10
3.34064e-10
4.55907e-10
5.89844e-10
7.35457e-10
8.9081e-10
1.05252e-09
1.21598e-09
1.37561e-09
1.52528e-09
1.65871e-09
1.76995e-09
1.85381e-09
1.90625e-09
1.9247e-09
1.90823e-09
1.85766e-09
1.77547e-09
1.6656e-09
1.5332e-09
1.38417e-09
1.22478e-09
1.06119e-09
8.9899e-10
7.42868e-10
5.96266e-10
4.61192e-10
3.38131e-10
2.26077e-10
1.22688e-10
2.45463e-11
8.50458e-13
8.42469e-13
2.43218e-11
1.21631e-10
2.24212e-10
3.35496e-10
4.57862e-10
5.92374e-10
7.38613e-10
8.94634e-10
1.05704e-09
1.2212e-09
1.38152e-09
1.53183e-09
1.66584e-09
1.77756e-09
1.86177e-09
1.91444e-09
1.93296e-09
1.91641e-09
1.86562e-09
1.78307e-09
1.67273e-09
1.53975e-09
1.39008e-09
1.23001e-09
1.06571e-09
9.02814e-10
7.46024e-10
5.98795e-10
4.63146e-10
3.39562e-10
2.27032e-10
1.23206e-10
2.46495e-11
8.54012e-13
8.44088e-13
2.43689e-11
1.21867e-10
2.24648e-10
3.36148e-10
4.58753e-10
5.93527e-10
7.40052e-10
8.96378e-10
1.05911e-09
1.22359e-09
1.38422e-09
1.53482e-09
1.66909e-09
1.78103e-09
1.86541e-09
1.91817e-09
1.93672e-09
1.92015e-09
1.86925e-09
1.78654e-09
1.67598e-09
1.54274e-09
1.39277e-09
1.23239e-09
1.06777e-09
9.04557e-10
7.47462e-10
5.99948e-10
4.64036e-10
3.40213e-10
2.27467e-10
1.23442e-10
2.46964e-11
8.55627e-13
8.44781e-13
2.4389e-11
1.21969e-10
2.24835e-10
3.36428e-10
4.59135e-10
5.94022e-10
7.40669e-10
8.97126e-10
1.05999e-09
1.22461e-09
1.38537e-09
1.53611e-09
1.67048e-09
1.78251e-09
1.86696e-09
1.91977e-09
1.93834e-09
1.92175e-09
1.87081e-09
1.78802e-09
1.67737e-09
1.54402e-09
1.39393e-09
1.23341e-09
1.06865e-09
9.05304e-10
7.48078e-10
6.00442e-10
4.64417e-10
3.40492e-10
2.27654e-10
1.23543e-10
2.47165e-11
8.56317e-13
8.45061e-13
2.43972e-11
1.2201e-10
2.2491e-10
3.36541e-10
4.5929e-10
5.94223e-10
7.40919e-10
8.97429e-10
1.06035e-09
1.22502e-09
1.38584e-09
1.53663e-09
1.67105e-09
1.78312e-09
1.8676e-09
1.92042e-09
1.939e-09
1.9224e-09
1.87144e-09
1.78863e-09
1.67794e-09
1.54454e-09
1.3944e-09
1.23382e-09
1.06901e-09
9.05607e-10
7.48328e-10
6.00641e-10
4.64572e-10
3.40605e-10
2.27729e-10
1.23584e-10
2.47246e-11
8.56596e-13
8.45168e-13
2.44003e-11
1.22025e-10
2.2494e-10
3.36585e-10
4.59349e-10
5.94299e-10
7.41015e-10
8.97545e-10
1.06049e-09
1.22518e-09
1.38602e-09
1.53682e-09
1.67127e-09
1.78335e-09
1.86784e-09
1.92067e-09
1.93925e-09
1.92265e-09
1.87168e-09
1.78886e-09
1.67815e-09
1.54474e-09
1.39458e-09
1.23398e-09
1.06915e-09
9.05722e-10
7.48423e-10
6.00718e-10
4.64631e-10
3.40649e-10
2.27758e-10
1.23599e-10
2.47277e-11
8.56703e-13
8.45207e-13
2.44014e-11
1.22031e-10
2.2495e-10
3.36601e-10
4.59371e-10
5.94327e-10
7.4105e-10
8.97587e-10
1.06054e-09
1.22524e-09
1.38609e-09
1.5369e-09
1.67135e-09
1.78343e-09
1.86793e-09
1.92076e-09
1.93934e-09
1.92274e-09
1.87177e-09
1.78894e-09
1.67823e-09
1.54481e-09
1.39464e-09
1.23404e-09
1.0692e-09
9.05765e-10
7.48458e-10
6.00746e-10
4.64652e-10
3.40664e-10
2.27768e-10
1.23605e-10
2.47288e-11
8.56741e-13
8.45221e-13
2.44018e-11
1.22033e-10
2.24954e-10
3.36606e-10
4.59378e-10
5.94337e-10
7.41062e-10
8.97602e-10
1.06055e-09
1.22526e-09
1.38611e-09
1.53692e-09
1.67137e-09
1.78346e-09
1.86796e-09
1.92079e-09
1.93937e-09
1.92277e-09
1.8718e-09
1.78897e-09
1.67826e-09
1.54484e-09
1.39467e-09
1.23406e-09
1.06921e-09
9.05779e-10
7.4847e-10
6.00756e-10
4.6466e-10
3.4067e-10
2.27772e-10
1.23607e-10
2.47292e-11
8.56755e-13
8.45225e-13
2.4402e-11
1.22034e-10
2.24955e-10
3.36608e-10
4.59381e-10
5.9434e-10
7.41066e-10
8.97607e-10
1.06056e-09
1.22527e-09
1.38612e-09
1.53693e-09
1.67138e-09
1.78347e-09
1.86797e-09
1.9208e-09
1.93938e-09
1.92278e-09
1.87181e-09
1.78898e-09
1.67827e-09
1.54485e-09
1.39467e-09
1.23406e-09
1.06922e-09
9.05784e-10
7.48474e-10
6.00759e-10
4.64662e-10
3.40672e-10
2.27773e-10
1.23608e-10
2.47294e-11
8.56759e-13
8.45226e-13
2.4402e-11
1.22034e-10
2.24955e-10
3.36609e-10
4.59382e-10
5.94341e-10
7.41068e-10
8.97608e-10
1.06056e-09
1.22527e-09
1.38612e-09
1.53693e-09
1.67138e-09
1.78347e-09
1.86797e-09
1.92081e-09
1.93938e-09
1.92278e-09
1.87182e-09
1.78898e-09
1.67827e-09
1.54485e-09
1.39468e-09
1.23407e-09
1.06922e-09
9.05786e-10
7.48475e-10
6.0076e-10
4.64663e-10
3.40672e-10
2.27774e-10
1.23608e-10
2.47294e-11
8.5676e-13
8.45227e-13
2.4402e-11
1.22034e-10
2.24955e-10
3.36609e-10
4.59382e-10
5.94342e-10
7.41068e-10
8.97609e-10
1.06056e-09
1.22527e-09
1.38612e-09
1.53693e-09
1.67139e-09
1.78347e-09
1.86797e-09
1.92081e-09
1.93938e-09
1.92278e-09
1.87182e-09
1.78898e-09
1.67827e-09
1.54485e-09
1.39468e-09
1.23407e-09
1.06922e-09
9.05786e-10
7.48476e-10
6.0076e-10
4.64663e-10
3.40672e-10
2.27774e-10
1.23608e-10
2.47294e-11
8.56761e-13
8.45227e-13
2.4402e-11
1.22034e-10
2.24955e-10
3.36609e-10
4.59382e-10
5.94342e-10
7.41068e-10
8.97609e-10
1.06056e-09
1.22527e-09
1.38612e-09
1.53693e-09
1.67139e-09
1.78347e-09
1.86797e-09
1.92081e-09
1.93938e-09
1.92278e-09
1.87182e-09
1.78899e-09
1.67827e-09
1.54485e-09
1.39468e-09
1.23407e-09
1.06922e-09
9.05786e-10
7.48476e-10
6.0076e-10
4.64663e-10
3.40672e-10
2.27774e-10
1.23608e-10
2.47294e-11
8.56761e-13
8.45227e-13
2.4402e-11
1.22034e-10
2.24955e-10
3.36609e-10
4.59382e-10
5.94342e-10
7.41068e-10
8.97609e-10
1.06056e-09
1.22527e-09
1.38612e-09
1.53693e-09
1.67139e-09
1.78348e-09
1.86797e-09
1.92081e-09
1.93939e-09
1.92278e-09
1.87182e-09
1.78899e-09
1.67827e-09
1.54485e-09
1.39468e-09
1.23407e-09
1.06922e-09
9.05786e-10
7.48476e-10
6.0076e-10
4.64663e-10
3.40672e-10
2.27774e-10
1.23608e-10
2.47294e-11
8.56761e-13
8.45227e-13
2.4402e-11
1.22034e-10
2.24955e-10
3.36609e-10
4.59382e-10
5.94342e-10
7.41068e-10
8.97609e-10
1.06056e-09
1.22527e-09
1.38612e-09
1.53693e-09
1.67139e-09
1.78348e-09
1.86797e-09
1.92081e-09
1.93939e-09
1.92278e-09
1.87182e-09
1.78899e-09
1.67827e-09
1.54485e-09
1.39468e-09
1.23407e-09
1.06922e-09
9.05786e-10
7.48476e-10
6.0076e-10
4.64663e-10
3.40672e-10
2.27774e-10
1.23608e-10
2.47294e-11
8.56761e-13
8.45227e-13
2.4402e-11
1.22034e-10
2.24955e-10
3.36609e-10
4.59382e-10
5.94342e-10
7.41068e-10
8.97609e-10
1.06056e-09
1.22527e-09
1.38612e-09
1.53693e-09
1.67139e-09
1.78348e-09
1.86797e-09
1.92081e-09
1.93939e-09
1.92278e-09
1.87182e-09
1.78899e-09
1.67827e-09
1.54485e-09
1.39468e-09
1.23407e-09
1.06922e-09
9.05786e-10
7.48476e-10
6.0076e-10
4.64663e-10
3.40672e-10
2.27774e-10
1.23608e-10
2.47294e-11
8.56761e-13
8.45227e-13
2.4402e-11
1.22034e-10
2.24955e-10
3.36609e-10
4.59382e-10
5.94342e-10
7.41068e-10
8.97609e-10
1.06056e-09
1.22527e-09
1.38612e-09
1.53693e-09
1.67139e-09
1.78348e-09
1.86797e-09
1.92081e-09
1.93939e-09
1.92278e-09
1.87182e-09
1.78899e-09
1.67827e-09
1.54485e-09
1.39468e-09
1.23407e-09
1.06922e-09
9.05786e-10
7.48476e-10
6.0076e-10
4.64663e-10
3.40672e-10
2.27774e-10
1.23608e-10
2.47294e-11
8.56761e-13
8.45227e-13
2.4402e-11
1.22034e-10
2.24955e-10
3.36609e-10
4.59382e-10
5.94342e-10
7.41068e-10
8.97609e-10
1.06056e-09
1.22527e-09
1.38612e-09
1.53693e-09
1.67139e-09
1.78348e-09
1.86797e-09
1.92081e-09
1.93939e-09
1.92278e-09
1.87182e-09
1.78899e-09
1.67827e-09
1.54485e-09
1.39468e-09
1.23407e-09
1.06922e-09
9.05786e-10
7.48476e-10
6.0076e-10
4.64663e-10
3.40672e-10
2.27774e-10
1.23608e-10
2.47294e-11
8.56761e-13
8.45227e-13
2.4402e-11
1.22034e-10
2.24955e-10
3.36609e-10
4.59382e-10
5.94342e-10
7.41068e-10
8.97609e-10
1.06056e-09
1.22527e-09
1.38612e-09
1.53693e-09
1.67139e-09
1.78348e-09
1.86797e-09
1.92081e-09
1.93939e-09
1.92278e-09
1.87182e-09
1.78899e-09
1.67827e-09
1.54485e-09
1.39468e-09
1.23407e-09
1.06922e-09
9.05786e-10
7.48476e-10
6.0076e-10
4.64663e-10
3.40672e-10
2.27774e-10
1.23608e-10
2.47294e-11
8.56761e-13
8.45227e-13
2.4402e-11
1.22034e-10
2.24955e-10
3.36609e-10
4.59382e-10
5.94342e-10
7.41068e-10
8.97609e-10
1.06056e-09
1.22527e-09
1.38612e-09
1.53693e-09
1.67139e-09
1.78348e-09
1.86797e-09
1.92081e-09
1.93939e-09
1.92278e-09
1.87182e-09
1.78899e-09
1.67827e-09
1.54485e-09
1.39468e-09
1.23407e-09
1.06922e-09
9.05786e-10
7.48476e-10
6.0076e-10
4.64663e-10
3.40672e-10
2.27774e-10
1.23608e-10
2.47294e-11
8.56761e-13
8.45227e-13
2.4402e-11
1.22034e-10
2.24955e-10
3.36609e-10
4.59382e-10
5.94342e-10
7.41068e-10
8.97609e-10
1.06056e-09
1.22527e-09
1.38612e-09
1.53693e-09
1.67139e-09
1.78348e-09
1.86797e-09
1.92081e-09
1.93939e-09
1.92278e-09
1.87182e-09
1.78899e-09
1.67827e-09
1.54485e-09
1.39468e-09
1.23407e-09
1.06922e-09
9.05786e-10
7.48476e-10
6.0076e-10
4.64663e-10
3.40672e-10
2.27774e-10
1.23608e-10
2.47294e-11
8.56761e-13
8.45227e-13
2.4402e-11
1.22034e-10
2.24955e-10
3.36609e-10
4.59382e-10
5.94342e-10
7.41068e-10
8.97609e-10
1.06056e-09
1.22527e-09
1.38612e-09
1.53693e-09
1.67139e-09
1.78348e-09
1.86797e-09
1.92081e-09
1.93939e-09
1.92278e-09
1.87182e-09
1.78899e-09
1.67827e-09
1.54485e-09
1.39468e-09
1.23407e-09
1.06922e-09
9.05786e-10
7.48476e-10
6.0076e-10
4.64663e-10
3.40672e-10
2.27774e-10
1.23608e-10
2.47294e-11
8.56761e-13
8.45227e-13
2.4402e-11
1.22034e-10
2.24955e-10
3.36609e-10
4.59382e-10
5.94342e-10
7.41068e-10
8.97609e-10
1.06056e-09
1.22527e-09
1.38612e-09
1.53693e-09
1.67139e-09
1.78348e-09
1.86797e-09
1.92081e-09
1.93939e-09
1.92278e-09
1.87182e-09
1.78899e-09
1.67827e-09
1.54485e-09
1.39468e-09
1.23407e-09
1.06922e-09
9.05786e-10
7.48476e-10
6.0076e-10
4.64663e-10
3.40672e-10
2.27774e-10
1.23608e-10
2.47294e-11
8.56761e-13
8.45227e-13
2.4402e-11
1.22034e-10
2.24955e-10
3.36609e-10
4.59382e-10
5.94342e-10
7.41068e-10
8.97609e-10
1.06056e-09
1.22527e-09
1.38612e-09
1.53693e-09
1.67139e-09
1.78348e-09
1.86797e-09
1.92081e-09
1.93939e-09
1.92278e-09
1.87182e-09
1.78899e-09
1.67827e-09
1.54485e-09
1.39468e-09
1.23407e-09
1.06922e-09
9.05786e-10
7.48476e-10
6.0076e-10
4.64663e-10
3.40672e-10
2.27774e-10
1.23608e-10
2.47294e-11
8.56761e-13
8.45227e-13
2.4402e-11
1.22034e-10
2.24955e-10
3.36609e-10
4.59382e-10
5.94342e-10
7.41068e-10
8.97609e-10
1.06056e-09
1.22527e-09
1.38612e-09
1.53693e-09
1.67139e-09
1.78348e-09
1.86797e-09
1.92081e-09
1.93939e-09
1.92278e-09
1.87182e-09
1.78899e-09
1.67827e-09
1.54485e-09
1.39468e-09
1.23407e-09
1.06922e-09
9.05786e-10
7.48476e-10
6.0076e-10
4.64663e-10
3.40672e-10
2.27774e-10
1.23608e-10
2.47294e-11
8.56761e-13
8.45227e-13
2.4402e-11
1.22034e-10
2.24955e-10
3.36609e-10
4.59382e-10
5.94342e-10
7.41068e-10
8.97609e-10
1.06056e-09
1.22527e-09
1.38612e-09
1.53693e-09
1.67139e-09
1.78348e-09
1.86797e-09
1.92081e-09
1.93939e-09
1.92278e-09
1.87182e-09
1.78899e-09
1.67827e-09
1.54485e-09
1.39468e-09
1.23407e-09
1.06922e-09
9.05786e-10
7.48476e-10
6.0076e-10
4.64663e-10
3.40672e-10
2.27774e-10
1.23608e-10
2.47294e-11
8.56761e-13
8.45227e-13
2.4402e-11
1.22034e-10
2.24955e-10
3.36609e-10
4.59382e-10
5.94342e-10
7.41068e-10
8.97609e-10
1.06056e-09
1.22527e-09
1.38612e-09
1.53693e-09
1.67139e-09
1.78348e-09
1.86797e-09
1.92081e-09
1.93939e-09
1.92278e-09
1.87182e-09
1.78899e-09
1.67827e-09
1.54485e-09
1.39468e-09
1.23407e-09
1.06922e-09
9.05786e-10
7.48476e-10
6.0076e-10
4.64663e-10
3.40672e-10
2.27774e-10
1.23608e-10
2.47294e-11
8.56761e-13
8.45227e-13
2.4402e-11
1.22034e-10
2.24955e-10
3.36609e-10
4.59382e-10
5.94342e-10
7.41068e-10
8.97609e-10
1.06056e-09
1.22527e-09
1.38612e-09
1.53693e-09
1.67139e-09
1.78348e-09
1.86797e-09
1.92081e-09
1.93939e-09
1.92278e-09
1.87182e-09
1.78899e-09
1.67827e-09
1.54485e-09
1.39468e-09
1.23407e-09
1.06922e-09
9.05786e-10
7.48476e-10
6.0076e-10
4.64663e-10
3.40672e-10
2.27774e-10
1.23608e-10
2.47294e-11
8.56761e-13
8.45227e-13
2.4402e-11
1.22034e-10
2.24955e-10
3.36609e-10
4.59382e-10
5.94342e-10
7.41068e-10
8.97609e-10
1.06056e-09
1.22527e-09
1.38612e-09
1.53693e-09
1.67139e-09
1.78348e-09
1.86797e-09
1.92081e-09
1.93939e-09
1.92278e-09
1.87182e-09
1.78899e-09
1.67827e-09
1.54485e-09
1.39468e-09
1.23407e-09
1.06922e-09
9.05786e-10
7.48476e-10
6.0076e-10
4.64663e-10
3.40672e-10
2.27774e-10
1.23608e-10
2.47294e-11
8.56761e-13
8.45227e-13
2.4402e-11
1.22034e-10
2.24955e-10
3.36609e-10
4.59382e-10
5.94342e-10
7.41068e-10
8.97609e-10
1.06056e-09
1.22527e-09
1.38612e-09
1.53693e-09
1.67139e-09
1.78348e-09
1.86797e-09
1.92081e-09
1.93939e-09
1.92278e-09
1.87182e-09
1.78899e-09
1.67827e-09
1.54485e-09
1.39468e-09
1.23407e-09
1.06922e-09
9.05786e-10
7.48476e-10
6.0076e-10
4.64663e-10
3.40672e-10
2.27774e-10
1.23608e-10
2.47294e-11
8.56761e-13
8.45227e-13
2.4402e-11
1.22034e-10
2.24955e-10
3.36609e-10
4.59382e-10
5.94342e-10
7.41068e-10
8.97609e-10
1.06056e-09
1.22527e-09
1.38612e-09
1.53693e-09
1.67139e-09
1.78348e-09
1.86797e-09
1.92081e-09
1.93939e-09
1.92278e-09
1.87182e-09
1.78899e-09
1.67827e-09
1.54485e-09
1.39468e-09
1.23407e-09
1.06922e-09
9.05786e-10
7.48476e-10
6.0076e-10
4.64663e-10
3.40672e-10
2.27774e-10
1.23608e-10
2.47294e-11
8.56761e-13
8.45227e-13
2.4402e-11
1.22034e-10
2.24955e-10
3.36609e-10
4.59382e-10
5.94342e-10
7.41068e-10
8.97609e-10
1.06056e-09
1.22527e-09
1.38612e-09
1.53693e-09
1.67139e-09
1.78348e-09
1.86797e-09
1.92081e-09
1.93939e-09
1.92278e-09
1.87182e-09
1.78899e-09
1.67827e-09
1.54485e-09
1.39468e-09
1.23407e-09
1.06922e-09
9.05786e-10
7.48476e-10
6.0076e-10
4.64663e-10
3.40672e-10
2.27774e-10
1.23608e-10
2.47294e-11
8.56761e-13
8.45227e-13
2.4402e-11
1.22034e-10
2.24955e-10
3.36609e-10
4.59382e-10
5.94342e-10
7.41068e-10
8.97609e-10
1.06056e-09
1.22527e-09
1.38612e-09
1.53693e-09
1.67139e-09
1.78348e-09
1.86797e-09
1.92081e-09
1.93939e-09
1.92278e-09
1.87182e-09
1.78899e-09
1.67827e-09
1.54485e-09
1.39468e-09
1.23407e-09
1.06922e-09
9.05786e-10
7.48476e-10
6.0076e-10
4.64663e-10
3.40672e-10
2.27774e-10
1.23608e-10
2.47294e-11
8.56761e-13
8.45227e-13
2.4402e-11
1.22034e-10
2.24955e-10
3.36609e-10
4.59382e-10
5.94342e-10
7.41068e-10
8.97609e-10
1.06056e-09
1.22527e-09
1.38612e-09
1.53693e-09
1.67139e-09
1.78348e-09
1.86797e-09
1.92081e-09
1.93939e-09
1.92278e-09
1.87182e-09
1.78899e-09
1.67827e-09
1.54485e-09
1.39468e-09
1.23407e-09
1.06922e-09
9.05786e-10
7.48476e-10
6.0076e-10
4.64663e-10
3.40672e-10
2.27774e-10
1.23608e-10
2.47294e-11
8.56761e-13
8.45227e-13
2.4402e-11
1.22034e-10
2.24955e-10
3.36609e-10
4.59382e-10
5.94342e-10
7.41068e-10
8.97609e-10
1.06056e-09
1.22527e-09
1.38612e-09
1.53693e-09
1.67139e-09
1.78348e-09
1.86797e-09
1.92081e-09
1.93939e-09
1.92278e-09
1.87182e-09
1.78899e-09
1.67827e-09
1.54485e-09
1.39468e-09
1.23407e-09
1.06922e-09
9.05786e-10
7.48476e-10
6.0076e-10
4.64663e-10
3.40672e-10
2.27774e-10
1.23608e-10
2.47294e-11
8.56761e-13
8.45227e-13
2.4402e-11
1.22034e-10
2.24955e-10
3.36609e-10
4.59382e-10
5.94342e-10
7.41068e-10
8.97609e-10
1.06056e-09
1.22527e-09
1.38612e-09
1.53693e-09
1.67139e-09
1.78348e-09
1.86797e-09
1.92081e-09
1.93939e-09
1.92278e-09
1.87182e-09
1.78899e-09
1.67827e-09
1.54485e-09
1.39468e-09
1.23407e-09
1.06922e-09
9.05786e-10
7.48476e-10
6.0076e-10
4.64663e-10
3.40672e-10
2.27774e-10
1.23608e-10
2.47294e-11
8.56761e-13
8.45227e-13
2.4402e-11
1.22034e-10
2.24955e-10
3.36609e-10
4.59382e-10
5.94342e-10
7.41068e-10
8.97609e-10
1.06056e-09
1.22527e-09
1.38612e-09
1.53693e-09
1.67139e-09
1.78348e-09
1.86797e-09
1.92081e-09
1.93939e-09
1.92278e-09
1.87182e-09
1.78899e-09
1.67827e-09
1.54485e-09
1.39468e-09
1.23407e-09
1.06922e-09
9.05786e-10
7.48476e-10
6.0076e-10
4.64663e-10
3.40672e-10
2.27774e-10
1.23608e-10
2.47294e-11
8.56761e-13
8.45227e-13
2.4402e-11
1.22034e-10
2.24955e-10
3.36609e-10
4.59382e-10
5.94342e-10
7.41068e-10
8.97609e-10
1.06056e-09
1.22527e-09
1.38612e-09
1.53693e-09
1.67139e-09
1.78348e-09
1.86797e-09
1.92081e-09
1.93939e-09
1.92278e-09
1.87182e-09
1.78899e-09
1.67827e-09
1.54485e-09
1.39468e-09
1.23407e-09
1.06922e-09
9.05786e-10
7.48476e-10
6.0076e-10
4.64663e-10
3.40672e-10
2.27774e-10
1.23608e-10
2.47294e-11
8.56761e-13
8.45227e-13
2.4402e-11
1.22034e-10
2.24955e-10
3.36609e-10
4.59382e-10
5.94342e-10
7.41068e-10
8.97609e-10
1.06056e-09
1.22527e-09
1.38612e-09
1.53693e-09
1.67139e-09
1.78348e-09
1.86797e-09
1.92081e-09
1.93939e-09
1.92278e-09
1.87182e-09
1.78899e-09
1.67827e-09
1.54485e-09
1.39468e-09
1.23407e-09
1.06922e-09
9.05786e-10
7.48476e-10
6.0076e-10
4.64663e-10
3.40672e-10
2.27774e-10
1.23608e-10
2.47294e-11
8.56761e-13
8.45227e-13
2.4402e-11
1.22034e-10
2.24955e-10
3.36609e-10
4.59382e-10
5.94342e-10
7.41068e-10
8.97609e-10
1.06056e-09
1.22527e-09
1.38612e-09
1.53693e-09
1.67139e-09
1.78348e-09
1.86797e-09
1.92081e-09
1.93939e-09
1.92278e-09
1.87182e-09
1.78899e-09
1.67827e-09
1.54485e-09
1.39468e-09
1.23407e-09
1.06922e-09
9.05786e-10
7.48476e-10
6.0076e-10
4.64663e-10
3.40672e-10
2.27774e-10
1.23608e-10
2.47294e-11
8.56761e-13
8.45227e-13
2.4402e-11
1.22034e-10
2.24955e-10
3.36609e-10
4.59382e-10
5.94342e-10
7.41068e-10
8.97609e-10
1.06056e-09
1.22527e-09
1.38612e-09
1.53693e-09
1.67139e-09
1.78348e-09
1.86797e-09
1.92081e-09
1.93939e-09
1.92278e-09
1.87182e-09
1.78899e-09
1.67827e-09
1.54485e-09
1.39468e-09
1.23407e-09
1.06922e-09
9.05786e-10
7.48476e-10
6.0076e-10
4.64663e-10
3.40672e-10
2.27774e-10
1.23608e-10
2.47294e-11
8.56761e-13
8.45227e-13
2.4402e-11
1.22034e-10
2.24955e-10
3.36609e-10
4.59382e-10
5.94342e-10
7.41068e-10
8.97609e-10
1.06056e-09
1.22527e-09
1.38612e-09
1.53693e-09
1.67139e-09
1.78348e-09
1.86797e-09
1.92081e-09
1.93939e-09
1.92278e-09
1.87182e-09
1.78899e-09
1.67827e-09
1.54485e-09
1.39468e-09
1.23407e-09
1.06922e-09
9.05786e-10
7.48476e-10
6.0076e-10
4.64663e-10
3.40672e-10
2.27774e-10
1.23608e-10
2.47294e-11
8.56761e-13
8.45227e-13
2.4402e-11
1.22034e-10
2.24955e-10
3.36609e-10
4.59382e-10
5.94342e-10
7.41068e-10
8.97609e-10
1.06056e-09
1.22527e-09
1.38612e-09
1.53693e-09
1.67139e-09
1.78348e-09
1.86797e-09
1.92081e-09
1.93939e-09
1.92278e-09
1.87182e-09
1.78899e-09
1.67827e-09
1.54485e-09
1.39468e-09
1.23407e-09
1.06922e-09
9.05786e-10
7.48476e-10
6.0076e-10
4.64663e-10
3.40672e-10
2.27774e-10
1.23608e-10
2.47294e-11
8.56761e-13
8.45227e-13
2.4402e-11
1.22034e-10
2.24955e-10
3.36609e-10
4.59382e-10
5.94342e-10
7.41068e-10
8.97609e-10
1.06056e-09
1.22527e-09
1.38612e-09
1.53693e-09
1.67139e-09
1.78348e-09
1.86797e-09
1.92081e-09
1.93939e-09
1.92278e-09
1.87182e-09
1.78899e-09
1.67827e-09
1.54485e-09
1.39468e-09
1.23407e-09
1.06922e-09
9.05786e-10
7.48476e-10
6.0076e-10
4.64663e-10
3.40672e-10
2.27774e-10
1.23608e-10
2.47294e-11
8.56761e-13
8.45227e-13
2.4402e-11
1.22034e-10
2.24955e-10
3.36609e-10
4.59382e-10
5.94342e-10
7.41068e-10
8.97609e-10
1.06056e-09
1.22527e-09
1.38612e-09
1.53693e-09
1.67139e-09
1.78348e-09
1.86797e-09
1.92081e-09
1.93939e-09
1.92278e-09
1.87182e-09
1.78899e-09
1.67827e-09
1.54485e-09
1.39468e-09
1.23407e-09
1.06922e-09
9.05786e-10
7.48476e-10
6.0076e-10
4.64663e-10
3.40672e-10
2.27774e-10
1.23608e-10
2.47294e-11
8.56761e-13
8.45227e-13
2.4402e-11
1.22034e-10
2.24955e-10
3.36609e-10
4.59382e-10
5.94342e-10
7.41068e-10
8.97609e-10
1.06056e-09
1.22527e-09
1.38612e-09
1.53693e-09
1.67139e-09
1.78348e-09
1.86797e-09
1.92081e-09
1.93939e-09
1.92278e-09
1.87182e-09
1.78899e-09
1.67827e-09
1.54485e-09
1.39468e-09
1.23407e-09
1.06922e-09
9.05786e-10
7.48476e-10
6.0076e-10
4.64663e-10
3.40672e-10
2.27774e-10
1.23608e-10
2.47294e-11
8.56761e-13
8.45227e-13
2.4402e-11
1.22034e-10
2.24955e-10
3.36609e-10
4.59382e-10
5.94342e-10
7.41068e-10
8.97609e-10
1.06056e-09
1.22527e-09
1.38612e-09
1.53693e-09
1.67139e-09
1.78348e-09
1.86797e-09
1.92081e-09
1.93939e-09
1.92278e-09
1.87182e-09
1.78899e-09
1.67827e-09
1.54485e-09
1.39468e-09
1.23407e-09
1.06922e-09
9.05786e-10
7.48476e-10
6.0076e-10
4.64663e-10
3.40672e-10
2.27774e-10
1.23608e-10
2.47294e-11
8.56761e-13
8.45227e-13
2.4402e-11
1.22034e-10
2.24955e-10
3.36609e-10
4.59382e-10
5.94342e-10
7.41068e-10
8.97609e-10
1.06056e-09
1.22527e-09
1.38612e-09
1.53693e-09
1.67139e-09
1.78348e-09
1.86797e-09
1.92081e-09
1.93939e-09
1.92278e-09
1.87182e-09
1.78899e-09
1.67827e-09
1.54485e-09
1.39468e-09
1.23407e-09
1.06922e-09
9.05786e-10
7.48476e-10
6.0076e-10
4.64663e-10
3.40672e-10
2.27774e-10
1.23608e-10
2.47294e-11
8.56761e-13
8.45227e-13
2.4402e-11
1.22034e-10
2.24955e-10
3.36609e-10
4.59382e-10
5.94342e-10
7.41068e-10
8.97609e-10
1.06056e-09
1.22527e-09
1.38612e-09
1.53693e-09
1.67139e-09
1.78348e-09
1.86797e-09
1.92081e-09
1.93939e-09
1.92278e-09
1.87182e-09
1.78899e-09
1.67827e-09
1.54485e-09
1.39468e-09
1.23407e-09
1.06922e-09
9.05786e-10
7.48476e-10
6.0076e-10
4.64663e-10
3.40672e-10
2.27774e-10
1.23608e-10
2.47294e-11
8.56761e-13
8.45227e-13
2.4402e-11
1.22034e-10
2.24955e-10
3.36609e-10
4.59382e-10
5.94342e-10
7.41068e-10
8.97609e-10
1.06056e-09
1.22527e-09
1.38612e-09
1.53693e-09
1.67139e-09
1.78348e-09
1.86797e-09
1.92081e-09
1.93939e-09
1.92278e-09
1.87182e-09
1.78899e-09
1.67827e-09
1.54485e-09
1.39468e-09
1.23407e-09
1.06922e-09
9.05786e-10
7.48476e-10
6.0076e-10
4.64663e-10
3.40672e-10
2.27774e-10
1.23608e-10
2.47294e-11
8.56761e-13
8.45227e-13
2.4402e-11
1.22034e-10
2.24955e-10
3.36609e-10
4.59382e-10
5.94342e-10
7.41068e-10
8.97609e-10
1.06056e-09
1.22527e-09
1.38612e-09
1.53693e-09
1.67139e-09
1.78348e-09
1.86797e-09
1.92081e-09
1.93939e-09
1.92278e-09
1.87182e-09
1.78899e-09
1.67827e-09
1.54485e-09
1.39468e-09
1.23407e-09
1.06922e-09
9.05786e-10
7.48476e-10
6.0076e-10
4.64663e-10
3.40672e-10
2.27774e-10
1.23608e-10
2.47294e-11
8.56761e-13
8.45227e-13
2.4402e-11
1.22034e-10
2.24955e-10
3.36609e-10
4.59382e-10
5.94342e-10
7.41068e-10
8.97609e-10
1.06056e-09
1.22527e-09
1.38612e-09
1.53693e-09
1.67139e-09
1.78348e-09
1.86797e-09
1.92081e-09
1.93939e-09
1.92278e-09
1.87182e-09
1.78899e-09
1.67827e-09
1.54485e-09
1.39468e-09
1.23407e-09
1.06922e-09
9.05786e-10
7.48476e-10
6.0076e-10
4.64663e-10
3.40672e-10
2.27774e-10
1.23608e-10
2.47294e-11
8.56761e-13
8.45227e-13
2.4402e-11
1.22034e-10
2.24955e-10
3.36609e-10
4.59382e-10
5.94342e-10
7.41068e-10
8.97609e-10
1.06056e-09
1.22527e-09
1.38612e-09
1.53693e-09
1.67139e-09
1.78348e-09
1.86797e-09
1.92081e-09
1.93939e-09
1.92278e-09
1.87182e-09
1.78899e-09
1.67827e-09
1.54485e-09
1.39468e-09
1.23407e-09
1.06922e-09
9.05786e-10
7.48476e-10
6.0076e-10
4.64663e-10
3.40672e-10
2.27774e-10
1.23608e-10
2.47294e-11
8.56761e-13
8.45227e-13
2.4402e-11
1.22034e-10
2.24955e-10
3.36609e-10
4.59382e-10
5.94342e-10
7.41068e-10
8.97609e-10
1.06056e-09
1.22527e-09
1.38612e-09
1.53693e-09
1.67139e-09
1.78348e-09
1.86797e-09
1.92081e-09
1.93939e-09
1.92278e-09
1.87182e-09
1.78899e-09
1.67827e-09
1.54485e-09
1.39468e-09
1.23407e-09
1.06922e-09
9.05786e-10
7.48476e-10
6.0076e-10
4.64663e-10
3.40672e-10
2.27774e-10
1.23608e-10
2.47294e-11
8.56761e-13
8.45227e-13
2.4402e-11
1.22034e-10
2.24955e-10
3.36609e-10
4.59382e-10
5.94342e-10
7.41068e-10
8.97609e-10
1.06056e-09
1.22527e-09
1.38612e-09
1.53693e-09
1.67139e-09
1.78348e-09
1.86797e-09
1.92081e-09
1.93939e-09
1.92278e-09
1.87182e-09
1.78899e-09
1.67827e-09
1.54485e-09
1.39468e-09
1.23407e-09
1.06922e-09
9.05786e-10
7.48476e-10
6.0076e-10
4.64663e-10
3.40672e-10
2.27774e-10
1.23608e-10
2.47294e-11
8.56761e-13
8.45227e-13
2.4402e-11
1.22034e-10
2.24955e-10
3.36609e-10
4.59382e-10
5.94342e-10
7.41068e-10
8.97609e-10
1.06056e-09
1.22527e-09
1.38612e-09
1.53693e-09
1.67139e-09
1.78348e-09
1.86797e-09
1.92081e-09
1.93939e-09
1.92278e-09
1.87182e-09
1.78899e-09
1.67827e-09
1.54485e-09
1.39468e-09
1.23407e-09
1.06922e-09
9.05786e-10
7.48476e-10
6.0076e-10
4.64663e-10
3.40672e-10
2.27774e-10
1.23608e-10
2.47294e-11
8.56761e-13
8.45227e-13
2.4402e-11
1.22034e-10
2.24955e-10
3.36609e-10
4.59382e-10
5.94342e-10
7.41068e-10
8.97609e-10
1.06056e-09
1.22527e-09
1.38612e-09
1.53693e-09
1.67139e-09
1.78348e-09
1.86797e-09
1.92081e-09
1.93939e-09
1.92278e-09
1.87182e-09
1.78899e-09
1.67827e-09
1.54485e-09
1.39468e-09
1.23407e-09
1.06922e-09
9.05786e-10
7.48476e-10
6.0076e-10
4.64663e-10
3.40672e-10
2.27774e-10
1.23608e-10
2.47294e-11
8.56761e-13
8.45227e-13
2.4402e-11
1.22034e-10
2.24955e-10
3.36609e-10
4.59382e-10
5.94342e-10
7.41068e-10
8.97609e-10
1.06056e-09
1.22527e-09
1.38612e-09
1.53693e-09
1.67139e-09
1.78348e-09
1.86797e-09
1.92081e-09
1.93939e-09
1.92278e-09
1.87182e-09
1.78899e-09
1.67827e-09
1.54485e-09
1.39468e-09
1.23407e-09
1.06922e-09
9.05786e-10
7.48476e-10
6.0076e-10
4.64663e-10
3.40672e-10
2.27774e-10
1.23608e-10
2.47294e-11
8.56761e-13
8.45227e-13
2.4402e-11
1.22034e-10
2.24955e-10
3.36609e-10
4.59382e-10
5.94342e-10
7.41068e-10
8.97609e-10
1.06056e-09
1.22527e-09
1.38612e-09
1.53693e-09
1.67139e-09
1.78348e-09
1.86797e-09
1.92081e-09
1.93939e-09
1.92278e-09
1.87182e-09
1.78899e-09
1.67827e-09
1.54485e-09
1.39468e-09
1.23407e-09
1.06922e-09
9.05786e-10
7.48476e-10
6.0076e-10
4.64663e-10
3.40672e-10
2.27774e-10
1.23608e-10
2.47294e-11
8.56761e-13
8.45227e-13
2.4402e-11
1.22034e-10
2.24955e-10
3.36609e-10
4.59382e-10
5.94342e-10
7.41068e-10
8.97609e-10