/*--------------------------------*- C++ -*----------------------------------*\
  =========                 |
  \\      /  F ield         | OpenFOAM: The Open Source CFD Toolbox
   \\    /   O peration     | Website:  https://openfoam.org
    \\  /    A nd           | Version:  13
     \\/     M anipulation  |
\*---------------------------------------------------------------------------*/
FoamFile
{
    format      ascii;
    class       volScalarField;
    location    "270";
    object      nut;
}
// * * * * * * * * * * * * * * * * * * * * * * * * * * * * * * * * * * * * * //

dimensions      [0 2 -1 0 0 0 0];

internalField   nonuniform List<scalar> 
78750
(
2.9989e-18
7.6668e-16
1.72804e-14
3.13462e-14
4.61736e-14
6.1872e-14
7.84501e-14
9.57907e-14
1.13649e-13
1.31665e-13
1.49386e-13
1.663e-13
1.81864e-13
1.95543e-13
2.06841e-13
2.15335e-13
2.20696e-13
2.22713e-13
2.21306e-13
2.16527e-13
2.08563e-13
1.97717e-13
1.84397e-13
1.69085e-13
1.52313e-13
1.34621e-13
1.16531e-13
9.85042e-14
8.09159e-14
6.40252e-14
4.79595e-14
3.27108e-14
1.81466e-14
8.11911e-16
3.18992e-18
6.50964e-17
1.69044e-14
2.38638e-12
4.3601e-12
6.43855e-12
8.64483e-12
1.09834e-11
1.34386e-11
1.59754e-11
1.85414e-11
2.10707e-11
2.34884e-11
2.57154e-11
2.76734e-11
2.92903e-11
3.05039e-11
3.12667e-11
3.15481e-11
3.13366e-11
3.06402e-11
2.94866e-11
2.79208e-11
2.60024e-11
2.38025e-11
2.13986e-11
1.88699e-11
1.62921e-11
1.37327e-11
1.12454e-11
8.86754e-12
6.61626e-12
4.48832e-12
2.46084e-12
1.74609e-14
6.72828e-17
1.81368e-16
4.71092e-14
6.66403e-12
1.22473e-11
1.82431e-11
2.47575e-11
3.18306e-11
3.94299e-11
4.74491e-11
5.57142e-11
6.39949e-11
7.202e-11
7.94964e-11
8.61291e-11
9.16415e-11
9.57947e-11
9.84037e-11
9.93502e-11
9.85905e-11
9.61586e-11
9.21638e-11
8.67836e-11
8.02511e-11
7.28393e-11
6.48421e-11
5.65537e-11
4.82486e-11
4.01618e-11
3.24732e-11
2.52949e-11
1.86649e-11
1.25465e-11
6.83504e-12
4.83746e-14
1.86324e-16
3.48414e-16
9.04975e-14
1.28106e-11
2.35948e-11
3.52596e-11
4.80412e-11
6.20414e-11
7.7211e-11
9.33459e-11
1.10096e-10
1.26988e-10
1.43452e-10
1.58866e-10
1.72595e-10
1.84038e-10
1.92673e-10
1.98095e-10
2.00042e-10
1.98421e-10
1.93308e-10
1.84948e-10
1.73733e-10
1.60175e-10
1.44869e-10
1.28447e-10
1.11537e-10
9.47112e-11
7.84546e-11
6.31271e-11
4.89436e-11
3.5963e-11
2.40903e-11
1.30918e-11
9.25709e-14
3.56529e-16
5.38218e-16
1.39787e-13
1.97908e-11
3.64737e-11
5.45568e-11
7.44202e-11
9.62323e-11
1.19923e-10
1.45178e-10
1.7145e-10
1.97991e-10
2.23901e-10
2.4819e-10
2.69845e-10
2.87908e-10
3.01541e-10
3.10091e-10
3.13144e-10
3.10546e-10
3.02425e-10
2.89175e-10
2.71429e-10
2.5001e-10
2.25869e-10
2.00017e-10
1.73447e-10
1.47069e-10
1.21642e-10
9.77295e-11
7.56611e-11
5.55208e-11
3.715e-11
2.01731e-11
1.42601e-13
5.49231e-16
7.23754e-16
1.87966e-13
2.66125e-11
4.90534e-11
7.33915e-11
1.00144e-10
1.29541e-10
1.61491e-10
1.95569e-10
2.31037e-10
2.66884e-10
3.01891e-10
3.34716e-10
3.63988e-10
3.88402e-10
4.06825e-10
4.1837e-10
4.22472e-10
4.18929e-10
4.07912e-10
3.89961e-10
3.65936e-10
3.36955e-10
3.04311e-10
2.69374e-10
2.33491e-10
1.9789e-10
1.63599e-10
1.31375e-10
1.01661e-10
7.45671e-11
4.98758e-11
2.7076e-11
1.91375e-13
7.37095e-16
8.8582e-16
2.30058e-13
3.25726e-11
6.00415e-11
8.98374e-11
1.22595e-10
1.58598e-10
1.97735e-10
2.39485e-10
2.82942e-10
3.26868e-10
3.69766e-10
4.09992e-10
4.45861e-10
4.75776e-10
4.98341e-10
5.12474e-10
5.17479e-10
5.1311e-10
4.99579e-10
4.77549e-10
4.48078e-10
4.1254e-10
3.7252e-10
3.29701e-10
2.85733e-10
2.42123e-10
2.0013e-10
1.60679e-10
1.24314e-10
9.11667e-11
6.09693e-11
3.30942e-11
2.33893e-13
9.00825e-16
1.01406e-15
2.6338e-13
3.7292e-11
6.87414e-11
1.02857e-10
1.40366e-10
1.81595e-10
2.26414e-10
2.74228e-10
3.24e-10
3.74307e-10
4.23439e-10
4.69508e-10
5.10585e-10
5.44838e-10
5.70671e-10
5.86842e-10
5.92556e-10
5.87529e-10
5.72008e-10
5.46754e-10
5.12979e-10
4.72259e-10
4.26413e-10
3.77367e-10
3.27013e-10
2.77076e-10
2.28997e-10
1.83837e-10
1.42216e-10
1.04286e-10
6.97366e-11
3.78503e-11
2.67483e-13
1.03012e-15
1.10652e-15
2.87421e-13
4.06982e-11
7.50207e-11
1.12254e-10
1.53192e-10
1.98191e-10
2.47111e-10
2.99301e-10
3.53628e-10
4.0854e-10
4.62168e-10
5.12451e-10
5.57283e-10
5.94665e-10
6.22853e-10
6.4049e-10
6.46711e-10
6.41207e-10
6.24248e-10
5.96664e-10
5.59782e-10
5.15322e-10
4.65271e-10
4.11732e-10
3.56771e-10
3.02271e-10
2.49803e-10
2.00527e-10
1.55117e-10
1.13738e-10
7.60534e-11
4.12767e-11
2.91671e-13
1.12316e-15
1.16754e-15
3.03297e-13
4.29487e-11
7.91697e-11
1.18463e-10
1.61667e-10
2.09158e-10
2.60788e-10
3.1587e-10
3.73208e-10
4.31163e-10
4.87762e-10
5.4083e-10
5.88144e-10
6.27592e-10
6.57334e-10
6.7594e-10
6.82494e-10
6.76672e-10
6.58759e-10
6.29634e-10
5.90696e-10
5.43763e-10
4.90932e-10
4.34423e-10
3.76417e-10
3.18902e-10
2.63536e-10
2.11541e-10
1.6363e-10
1.19975e-10
8.02204e-11
4.35366e-11
3.07615e-13
1.18444e-15
1.20455e-15
3.12938e-13
4.43162e-11
8.16908e-11
1.22236e-10
1.66817e-10
2.15823e-10
2.69101e-10
3.25941e-10
3.85109e-10
4.44914e-10
5.0332e-10
5.58081e-10
6.06903e-10
6.47606e-10
6.78293e-10
6.97486e-10
7.04242e-10
6.98225e-10
6.79732e-10
6.49667e-10
6.09479e-10
5.61041e-10
5.06519e-10
4.48205e-10
3.88348e-10
3.29001e-10
2.71873e-10
2.18226e-10
1.68796e-10
1.23759e-10
8.27485e-11
4.49075e-11
3.17281e-13
1.22155e-15
1.22531e-15
3.18348e-13
4.5084e-11
8.31066e-11
1.24355e-10
1.6971e-10
2.19567e-10
2.7377e-10
3.31598e-10
3.91794e-10
4.52639e-10
5.12059e-10
5.67772e-10
6.17441e-10
6.5885e-10
6.90067e-10
7.0959e-10
7.16458e-10
7.10331e-10
6.9151e-10
6.60918e-10
6.20026e-10
5.70742e-10
5.1527e-10
4.55941e-10
3.95044e-10
3.34667e-10
2.76551e-10
2.21977e-10
1.71694e-10
1.25882e-10
8.41662e-11
4.56761e-11
3.22696e-13
1.24233e-15
1.23611e-15
3.21166e-13
4.54844e-11
8.38448e-11
1.2546e-10
1.71218e-10
2.21519e-10
2.76205e-10
3.34549e-10
3.95281e-10
4.56668e-10
5.16619e-10
5.72828e-10
6.22939e-10
6.64716e-10
6.9621e-10
7.15904e-10
7.22831e-10
7.16646e-10
6.97654e-10
6.66786e-10
6.25526e-10
5.75801e-10
5.19833e-10
4.59974e-10
3.98535e-10
3.37621e-10
2.78988e-10
2.23931e-10
1.73203e-10
1.26987e-10
8.49044e-11
4.60763e-11
3.25514e-13
1.25312e-15
1.24135e-15
3.22537e-13
4.56791e-11
8.4204e-11
1.25997e-10
1.71953e-10
2.22469e-10
2.7739e-10
3.35985e-10
3.96979e-10
4.5863e-10
5.18838e-10
5.75289e-10
6.25615e-10
6.67571e-10
6.992e-10
7.18977e-10
7.25933e-10
7.1972e-10
7.00644e-10
6.69642e-10
6.28203e-10
5.78262e-10
5.22052e-10
4.61935e-10
4.00232e-10
3.39057e-10
2.80173e-10
2.24881e-10
1.73937e-10
1.27524e-10
8.52632e-11
4.62707e-11
3.26882e-13
1.25836e-15
1.24374e-15
3.23161e-13
4.57679e-11
8.43677e-11
1.26242e-10
1.72287e-10
2.22903e-10
2.77931e-10
3.3664e-10
3.97753e-10
4.59525e-10
5.19851e-10
5.76411e-10
6.26836e-10
6.68874e-10
7.00564e-10
7.20379e-10
7.27347e-10
7.21121e-10
7.02008e-10
6.70944e-10
6.29423e-10
5.79385e-10
5.23064e-10
4.6283e-10
4.01006e-10
3.39711e-10
2.80713e-10
2.25314e-10
1.74271e-10
1.27769e-10
8.54266e-11
4.63593e-11
3.27504e-13
1.26074e-15
1.24476e-15
3.23428e-13
4.5806e-11
8.4438e-11
1.26347e-10
1.72431e-10
2.23088e-10
2.78163e-10
3.36921e-10
3.98085e-10
4.59908e-10
5.20285e-10
5.76893e-10
6.2736e-10
6.69433e-10
7.01149e-10
7.20981e-10
7.27955e-10
7.21723e-10
7.02593e-10
6.71502e-10
6.29947e-10
5.79866e-10
5.23498e-10
4.63213e-10
4.01338e-10
3.39992e-10
2.80945e-10
2.25499e-10
1.74414e-10
1.27874e-10
8.54966e-11
4.63972e-11
3.27771e-13
1.26176e-15
1.24517e-15
3.23536e-13
4.58214e-11
8.44664e-11
1.2639e-10
1.72489e-10
2.23164e-10
2.78256e-10
3.37034e-10
3.9822e-10
4.60064e-10
5.20461e-10
5.77088e-10
6.27572e-10
6.69659e-10
7.01386e-10
7.21225e-10
7.282e-10
7.21967e-10
7.0283e-10
6.71729e-10
6.30159e-10
5.80061e-10
5.23674e-10
4.63368e-10
4.01472e-10
3.40106e-10
2.81039e-10
2.25574e-10
1.74472e-10
1.27916e-10
8.55249e-11
4.64126e-11
3.27878e-13
1.26217e-15
1.24533e-15
3.23578e-13
4.58273e-11
8.44773e-11
1.26406e-10
1.72511e-10
2.23192e-10
2.78292e-10
3.37078e-10
3.98271e-10
4.60124e-10
5.20528e-10
5.77163e-10
6.27653e-10
6.69746e-10
7.01477e-10
7.21318e-10
7.28295e-10
7.2206e-10
7.02921e-10
6.71816e-10
6.3024e-10
5.80136e-10
5.23741e-10
4.63428e-10
4.01523e-10
3.40149e-10
2.81074e-10
2.25603e-10
1.74495e-10
1.27932e-10
8.55358e-11
4.64184e-11
3.2792e-13
1.26232e-15
1.24539e-15
3.23593e-13
4.58294e-11
8.44812e-11
1.26412e-10
1.72519e-10
2.23203e-10
2.78306e-10
3.37094e-10
3.9829e-10
4.60145e-10
5.20553e-10
5.7719e-10
6.27683e-10
6.69778e-10
7.0151e-10
7.21352e-10
7.28329e-10
7.22094e-10
7.02954e-10
6.71847e-10
6.3027e-10
5.80163e-10
5.23766e-10
4.6345e-10
4.01542e-10
3.40165e-10
2.81088e-10
2.25613e-10
1.74503e-10
1.27938e-10
8.55397e-11
4.64206e-11
3.27935e-13
1.26238e-15
1.24541e-15
3.23598e-13
4.58302e-11
8.44826e-11
1.26414e-10
1.72522e-10
2.23207e-10
2.7831e-10
3.37099e-10
3.98296e-10
4.60153e-10
5.20561e-10
5.772e-10
6.27693e-10
6.69789e-10
7.01522e-10
7.21364e-10
7.28341e-10
7.22106e-10
7.02966e-10
6.71858e-10
6.3028e-10
5.80172e-10
5.23775e-10
4.63457e-10
4.01549e-10
3.4017e-10
2.81092e-10
2.25617e-10
1.74506e-10
1.2794e-10
8.55411e-11
4.64213e-11
3.2794e-13
1.2624e-15
1.24541e-15
3.236e-13
4.58304e-11
8.44831e-11
1.26415e-10
1.72523e-10
2.23208e-10
2.78312e-10
3.37101e-10
3.98299e-10
4.60155e-10
5.20564e-10
5.77203e-10
6.27697e-10
6.69792e-10
7.01525e-10
7.21368e-10
7.28345e-10
7.2211e-10
7.02969e-10
6.71862e-10
6.30283e-10
5.80175e-10
5.23777e-10
4.6346e-10
4.01551e-10
3.40172e-10
2.81094e-10
2.25618e-10
1.74506e-10
1.27941e-10
8.55415e-11
4.64216e-11
3.27942e-13
1.26241e-15
1.24542e-15
3.236e-13
4.58305e-11
8.44832e-11
1.26415e-10
1.72523e-10
2.23208e-10
2.78312e-10
3.37102e-10
3.98299e-10
4.60156e-10
5.20565e-10
5.77204e-10
6.27698e-10
6.69793e-10
7.01527e-10
7.21369e-10
7.28346e-10
7.22111e-10
7.02971e-10
6.71863e-10
6.30284e-10
5.80176e-10
5.23778e-10
4.6346e-10
4.01552e-10
3.40173e-10
2.81094e-10
2.25619e-10
1.74507e-10
1.27941e-10
8.55417e-11
4.64216e-11
3.27942e-13
1.26241e-15
1.24542e-15
3.23601e-13
4.58305e-11
8.44833e-11
1.26415e-10
1.72523e-10
2.23208e-10
2.78312e-10
3.37102e-10
3.983e-10
4.60156e-10
5.20565e-10
5.77204e-10
6.27698e-10
6.69794e-10
7.01527e-10
7.21369e-10
7.28347e-10
7.22111e-10
7.02971e-10
6.71863e-10
6.30285e-10
5.80177e-10
5.23779e-10
4.63461e-10
4.01552e-10
3.40173e-10
2.81094e-10
2.25619e-10
1.74507e-10
1.27941e-10
8.55417e-11
4.64217e-11
3.27942e-13
1.26241e-15
1.24542e-15
3.23601e-13
4.58305e-11
8.44833e-11
1.26415e-10
1.72523e-10
2.23208e-10
2.78312e-10
3.37102e-10
3.983e-10
4.60156e-10
5.20566e-10
5.77204e-10
6.27698e-10
6.69794e-10
7.01527e-10
7.2137e-10
7.28347e-10
7.22112e-10
7.02971e-10
6.71863e-10
6.30285e-10
5.80177e-10
5.23779e-10
4.63461e-10
4.01552e-10
3.40173e-10
2.81094e-10
2.25619e-10
1.74507e-10
1.27941e-10
8.55417e-11
4.64217e-11
3.27942e-13
1.26241e-15
1.24542e-15
3.23601e-13
4.58305e-11
8.44833e-11
1.26415e-10
1.72523e-10
2.23208e-10
2.78312e-10
3.37102e-10
3.983e-10
4.60156e-10
5.20566e-10
5.77204e-10
6.27698e-10
6.69794e-10
7.01527e-10
7.2137e-10
7.28347e-10
7.22112e-10
7.02971e-10
6.71863e-10
6.30285e-10
5.80177e-10
5.23779e-10
4.63461e-10
4.01552e-10
3.40173e-10
2.81094e-10
2.25619e-10
1.74507e-10
1.27941e-10
8.55417e-11
4.64217e-11
3.27942e-13
1.26241e-15
1.24542e-15
3.23601e-13
4.58305e-11
8.44833e-11
1.26415e-10
1.72523e-10
2.23208e-10
2.78312e-10
3.37102e-10
3.983e-10
4.60156e-10
5.20566e-10
5.77204e-10
6.27698e-10
6.69794e-10
7.01527e-10
7.2137e-10
7.28347e-10
7.22112e-10
7.02971e-10
6.71863e-10
6.30285e-10
5.80177e-10
5.23779e-10
4.63461e-10
4.01552e-10
3.40173e-10
2.81094e-10
2.25619e-10
1.74507e-10
1.27941e-10
8.55417e-11
4.64217e-11
3.27942e-13
1.26241e-15
1.24542e-15
3.23601e-13
4.58305e-11
8.44833e-11
1.26415e-10
1.72523e-10
2.23208e-10
2.78312e-10
3.37102e-10
3.983e-10
4.60156e-10
5.20566e-10
5.77204e-10
6.27698e-10
6.69794e-10
7.01527e-10
7.2137e-10
7.28347e-10
7.22112e-10
7.02971e-10
6.71863e-10
6.30285e-10
5.80177e-10
5.23779e-10
4.63461e-10
4.01552e-10
3.40173e-10
2.81094e-10
2.25619e-10
1.74507e-10
1.27941e-10
8.55417e-11
4.64217e-11
3.27942e-13
1.26241e-15
1.24542e-15
3.23601e-13
4.58305e-11
8.44833e-11
1.26415e-10
1.72523e-10
2.23208e-10
2.78312e-10
3.37102e-10
3.983e-10
4.60156e-10
5.20566e-10
5.77204e-10
6.27698e-10
6.69794e-10
7.01527e-10
7.2137e-10
7.28347e-10
7.22112e-10
7.02971e-10
6.71863e-10
6.30285e-10
5.80177e-10
5.23779e-10
4.63461e-10
4.01552e-10
3.40173e-10
2.81094e-10
2.25619e-10
1.74507e-10
1.27941e-10
8.55417e-11
4.64217e-11
3.27942e-13
1.26241e-15
1.24542e-15
3.23601e-13
4.58305e-11
8.44833e-11
1.26415e-10
1.72523e-10
2.23208e-10
2.78312e-10
3.37102e-10
3.983e-10
4.60156e-10
5.20566e-10
5.77204e-10
6.27698e-10
6.69794e-10
7.01527e-10
7.2137e-10
7.28347e-10
7.22112e-10
7.02971e-10
6.71863e-10
6.30285e-10
5.80177e-10
5.23779e-10
4.63461e-10
4.01552e-10
3.40173e-10
2.81094e-10
2.25619e-10
1.74507e-10
1.27941e-10
8.55417e-11
4.64217e-11
3.27942e-13
1.26241e-15
1.24542e-15
3.23601e-13
4.58305e-11
8.44833e-11
1.26415e-10
1.72523e-10
2.23208e-10
2.78312e-10
3.37102e-10
3.983e-10
4.60156e-10
5.20566e-10
5.77204e-10
6.27698e-10
6.69794e-10
7.01527e-10
7.2137e-10
7.28347e-10
7.22112e-10
7.02971e-10
6.71863e-10
6.30285e-10
5.80177e-10
5.23779e-10
4.63461e-10
4.01552e-10
3.40173e-10
2.81094e-10
2.25619e-10
1.74507e-10
1.27941e-10
8.55417e-11
4.64217e-11
3.27942e-13
1.26241e-15
1.24542e-15
3.23601e-13
4.58305e-11
8.44833e-11
1.26415e-10
1.72523e-10
2.23208e-10
2.78312e-10
3.37102e-10
3.983e-10
4.60156e-10
5.20566e-10
5.77204e-10
6.27698e-10
6.69794e-10
7.01527e-10
7.2137e-10
7.28347e-10
7.22112e-10
7.02971e-10
6.71863e-10
6.30285e-10
5.80177e-10
5.23779e-10
4.63461e-10
4.01552e-10
3.40173e-10
2.81094e-10
2.25619e-10
1.74507e-10
1.27941e-10
8.55417e-11
4.64217e-11
3.27942e-13
1.26241e-15
1.24542e-15
3.23601e-13
4.58305e-11
8.44833e-11
1.26415e-10
1.72523e-10
2.23208e-10
2.78312e-10
3.37102e-10
3.983e-10
4.60156e-10
5.20566e-10
5.77204e-10
6.27698e-10
6.69794e-10
7.01527e-10
7.2137e-10
7.28347e-10
7.22112e-10
7.02971e-10
6.71863e-10
6.30285e-10
5.80177e-10
5.23779e-10
4.63461e-10
4.01552e-10
3.40173e-10
2.81094e-10
2.25619e-10
1.74507e-10
1.27941e-10
8.55417e-11
4.64217e-11
3.27942e-13
1.26241e-15
1.24542e-15
3.23601e-13
4.58305e-11
8.44833e-11
1.26415e-10
1.72523e-10
2.23208e-10
2.78312e-10
3.37102e-10
3.983e-10
4.60156e-10
5.20566e-10
5.77204e-10
6.27698e-10
6.69794e-10
7.01527e-10
7.2137e-10
7.28347e-10
7.22112e-10
7.02971e-10
6.71863e-10
6.30285e-10
5.80177e-10
5.23779e-10
4.63461e-10
4.01552e-10
3.40173e-10
2.81094e-10
2.25619e-10
1.74507e-10
1.27941e-10
8.55417e-11
4.64217e-11
3.27942e-13
1.26241e-15
1.24542e-15
3.23601e-13
4.58305e-11
8.44833e-11
1.26415e-10
1.72523e-10
2.23208e-10
2.78312e-10
3.37102e-10
3.983e-10
4.60156e-10
5.20566e-10
5.77204e-10
6.27698e-10
6.69794e-10
7.01527e-10
7.2137e-10
7.28347e-10
7.22112e-10
7.02971e-10
6.71863e-10
6.30285e-10
5.80177e-10
5.23779e-10
4.63461e-10
4.01552e-10
3.40173e-10
2.81094e-10
2.25619e-10
1.74507e-10
1.27941e-10
8.55417e-11
4.64217e-11
3.27942e-13
1.26241e-15
1.24542e-15
3.23601e-13
4.58305e-11
8.44833e-11
1.26415e-10
1.72523e-10
2.23208e-10
2.78312e-10
3.37102e-10
3.983e-10
4.60156e-10
5.20566e-10
5.77204e-10
6.27698e-10
6.69794e-10
7.01527e-10
7.2137e-10
7.28347e-10
7.22112e-10
7.02971e-10
6.71863e-10
6.30285e-10
5.80177e-10
5.23779e-10
4.63461e-10
4.01552e-10
3.40173e-10
2.81094e-10
2.25619e-10
1.74507e-10
1.27941e-10
8.55417e-11
4.64217e-11
3.27942e-13
1.26241e-15
1.24542e-15
3.23601e-13
4.58305e-11
8.44833e-11
1.26415e-10
1.72523e-10
2.23208e-10
2.78312e-10
3.37102e-10
3.983e-10
4.60156e-10
5.20566e-10
5.77204e-10
6.27698e-10
6.69794e-10
7.01527e-10
7.2137e-10
7.28347e-10
7.22112e-10
7.02971e-10
6.71863e-10
6.30285e-10
5.80177e-10
5.23779e-10
4.63461e-10
4.01552e-10
3.40173e-10
2.81094e-10
2.25619e-10
1.74507e-10
1.27941e-10
8.55417e-11
4.64217e-11
3.27942e-13
1.26241e-15
1.24542e-15
3.23601e-13
4.58305e-11
8.44833e-11
1.26415e-10
1.72523e-10
2.23208e-10
2.78312e-10
3.37102e-10
3.983e-10
4.60156e-10
5.20566e-10
5.77204e-10
6.27698e-10
6.69794e-10
7.01527e-10
7.2137e-10
7.28347e-10
7.22112e-10
7.02971e-10
6.71863e-10
6.30285e-10
5.80177e-10
5.23779e-10
4.63461e-10
4.01552e-10
3.40173e-10
2.81094e-10
2.25619e-10
1.74507e-10
1.27941e-10
8.55417e-11
4.64217e-11
3.27942e-13
1.26241e-15
1.24542e-15
3.23601e-13
4.58305e-11
8.44833e-11
1.26415e-10
1.72523e-10
2.23208e-10
2.78312e-10
3.37102e-10
3.983e-10
4.60156e-10
5.20566e-10
5.77204e-10
6.27698e-10
6.69794e-10
7.01527e-10
7.2137e-10
7.28347e-10
7.22112e-10
7.02971e-10
6.71863e-10
6.30285e-10
5.80177e-10
5.23779e-10
4.63461e-10
4.01552e-10
3.40173e-10
2.81094e-10
2.25619e-10
1.74507e-10
1.27941e-10
8.55417e-11
4.64217e-11
3.27942e-13
1.26241e-15
1.24542e-15
3.23601e-13
4.58305e-11
8.44833e-11
1.26415e-10
1.72523e-10
2.23208e-10
2.78312e-10
3.37102e-10
3.983e-10
4.60156e-10
5.20566e-10
5.77204e-10
6.27698e-10
6.69794e-10
7.01527e-10
7.2137e-10
7.28347e-10
7.22112e-10
7.02971e-10
6.71863e-10
6.30285e-10
5.80177e-10
5.23779e-10
4.63461e-10
4.01552e-10
3.40173e-10
2.81094e-10
2.25619e-10
1.74507e-10
1.27941e-10
8.55417e-11
4.64217e-11
3.27942e-13
1.26241e-15
1.24542e-15
3.23601e-13
4.58305e-11
8.44833e-11
1.26415e-10
1.72523e-10
2.23208e-10
2.78312e-10
3.37102e-10
3.983e-10
4.60156e-10
5.20566e-10
5.77204e-10
6.27698e-10
6.69794e-10
7.01527e-10
7.2137e-10
7.28347e-10
7.22112e-10
7.02971e-10
6.71863e-10
6.30285e-10
5.80177e-10
5.23779e-10
4.63461e-10
4.01552e-10
3.40173e-10
2.81094e-10
2.25619e-10
1.74507e-10
1.27941e-10
8.55417e-11
4.64217e-11
3.27942e-13
1.26241e-15
1.24542e-15
3.23601e-13
4.58305e-11
8.44833e-11
1.26415e-10
1.72523e-10
2.23208e-10
2.78312e-10
3.37102e-10
3.983e-10
4.60156e-10
5.20566e-10
5.77204e-10
6.27698e-10
6.69794e-10
7.01527e-10
7.2137e-10
7.28347e-10
7.22112e-10
7.02971e-10
6.71863e-10
6.30285e-10
5.80177e-10
5.23779e-10
4.63461e-10
4.01552e-10
3.40173e-10
2.81094e-10
2.25619e-10
1.74507e-10
1.27941e-10
8.55417e-11
4.64217e-11
3.27942e-13
1.26241e-15
1.24542e-15
3.23601e-13
4.58305e-11
8.44833e-11
1.26415e-10
1.72523e-10
2.23208e-10
2.78312e-10
3.37102e-10
3.983e-10
4.60156e-10
5.20566e-10
5.77204e-10
6.27698e-10
6.69794e-10
7.01527e-10
7.2137e-10
7.28347e-10
7.22112e-10
7.02971e-10
6.71863e-10
6.30285e-10
5.80177e-10
5.23779e-10
4.63461e-10
4.01552e-10
3.40173e-10
2.81094e-10
2.25619e-10
1.74507e-10
1.27941e-10
8.55417e-11
4.64217e-11
3.27942e-13
1.26241e-15
1.24542e-15
3.23601e-13
4.58305e-11
8.44833e-11
1.26415e-10
1.72523e-10
2.23208e-10
2.78312e-10
3.37102e-10
3.983e-10
4.60156e-10
5.20566e-10
5.77204e-10
6.27698e-10
6.69794e-10
7.01527e-10
7.2137e-10
7.28347e-10
7.22112e-10
7.02971e-10
6.71863e-10
6.30285e-10
5.80177e-10
5.23779e-10
4.63461e-10
4.01552e-10
3.40173e-10
2.81094e-10
2.25619e-10
1.74507e-10
1.27941e-10
8.55417e-11
4.64217e-11
3.27942e-13
1.26241e-15
1.24542e-15
3.23601e-13
4.58305e-11
8.44833e-11
1.26415e-10
1.72523e-10
2.23208e-10
2.78312e-10
3.37102e-10
3.983e-10
4.60156e-10
5.20566e-10
5.77204e-10
6.27698e-10
6.69794e-10
7.01527e-10
7.2137e-10
7.28347e-10
7.22112e-10
7.02971e-10
6.71863e-10
6.30285e-10
5.80177e-10
5.23779e-10
4.63461e-10
4.01552e-10
3.40173e-10
2.81094e-10
2.25619e-10
1.74507e-10
1.27941e-10
8.55417e-11
4.64217e-11
3.27942e-13
1.26241e-15
1.24542e-15
3.23601e-13
4.58305e-11
8.44833e-11
1.26415e-10
1.72523e-10
2.23208e-10
2.78312e-10
3.37102e-10
3.983e-10
4.60156e-10
5.20566e-10
5.77204e-10
6.27698e-10
6.69794e-10
7.01527e-10
7.2137e-10
7.28347e-10
7.22112e-10
7.02971e-10
6.71863e-10
6.30285e-10
5.80177e-10
5.23779e-10
4.63461e-10
4.01552e-10
3.40173e-10
2.81094e-10
2.25619e-10
1.74507e-10
1.27941e-10
8.55417e-11
4.64217e-11
3.27942e-13
1.26241e-15
1.24542e-15
3.23601e-13
4.58305e-11
8.44833e-11
1.26415e-10
1.72523e-10
2.23208e-10
2.78312e-10
3.37102e-10
3.983e-10
4.60156e-10
5.20566e-10
5.77204e-10
6.27698e-10
6.69794e-10
7.01527e-10
7.2137e-10
7.28347e-10
7.22112e-10
7.02971e-10
6.71863e-10
6.30285e-10
5.80177e-10
5.23779e-10
4.63461e-10
4.01552e-10
3.40173e-10
2.81094e-10
2.25619e-10
1.74507e-10
1.27941e-10
8.55417e-11
4.64217e-11
3.27942e-13
1.26241e-15
1.24542e-15
3.23601e-13
4.58305e-11
8.44833e-11
1.26415e-10
1.72523e-10
2.23208e-10
2.78312e-10
3.37102e-10
3.983e-10
4.60156e-10
5.20566e-10
5.77204e-10
6.27698e-10
6.69794e-10
7.01527e-10
7.2137e-10
7.28347e-10
7.22112e-10
7.02971e-10
6.71863e-10
6.30285e-10
5.80177e-10
5.23779e-10
4.63461e-10
4.01552e-10
3.40173e-10
2.81094e-10
2.25619e-10
1.74507e-10
1.27941e-10
8.55417e-11
4.64217e-11
3.27942e-13
1.26241e-15
1.24542e-15
3.23601e-13
4.58305e-11
8.44833e-11
1.26415e-10
1.72523e-10
2.23208e-10
2.78312e-10
3.37102e-10
3.983e-10
4.60156e-10
5.20566e-10
5.77204e-10
6.27698e-10
6.69794e-10
7.01527e-10
7.2137e-10
7.28347e-10
7.22112e-10
7.02971e-10
6.71863e-10
6.30285e-10
5.80177e-10
5.23779e-10
4.63461e-10
4.01552e-10
3.40173e-10
2.81094e-10
2.25619e-10
1.74507e-10
1.27941e-10
8.55417e-11
4.64217e-11
3.27942e-13
1.26241e-15
1.24542e-15
3.23601e-13
4.58305e-11
8.44833e-11
1.26415e-10
1.72523e-10
2.23208e-10
2.78312e-10
3.37102e-10
3.983e-10
4.60156e-10
5.20566e-10
5.77204e-10
6.27698e-10
6.69794e-10
7.01527e-10
7.2137e-10
7.28347e-10
7.22112e-10
7.02971e-10
6.71863e-10
6.30285e-10
5.80177e-10
5.23779e-10
4.63461e-10
4.01552e-10
3.40173e-10
2.81094e-10
2.25619e-10
1.74507e-10
1.27941e-10
8.55417e-11
4.64217e-11
3.27942e-13
1.26241e-15
1.24542e-15
3.23601e-13
4.58305e-11
8.44833e-11
1.26415e-10
1.72523e-10
2.23208e-10
2.78312e-10
3.37102e-10
3.983e-10
4.60156e-10
5.20566e-10
5.77204e-10
6.27698e-10
6.69794e-10
7.01527e-10
7.2137e-10
7.28347e-10
7.22112e-10
7.02971e-10
6.71863e-10
6.30285e-10
5.80177e-10
5.23779e-10
4.63461e-10
4.01552e-10
3.40173e-10
2.81094e-10
2.25619e-10
1.74507e-10
1.27941e-10
8.55417e-11
4.64217e-11
3.27942e-13
1.26241e-15
1.24542e-15
3.23601e-13
4.58305e-11
8.44833e-11
1.26415e-10
1.72523e-10
2.23208e-10
2.78312e-10
3.37102e-10
3.983e-10
4.60156e-10
5.20566e-10
5.77204e-10
6.27698e-10
6.69794e-10
7.01527e-10
7.2137e-10
7.28347e-10
7.22112e-10
7.02971e-10
6.71863e-10
6.30285e-10
5.80177e-10
5.23779e-10
4.63461e-10
4.01552e-10
3.40173e-10
2.81094e-10
2.25619e-10
1.74507e-10
1.27941e-10
8.55417e-11
4.64217e-11
3.27942e-13
1.26241e-15
1.24542e-15
3.23601e-13
4.58305e-11
8.44833e-11
1.26415e-10
1.72523e-10
2.23208e-10
2.78312e-10
3.37102e-10
3.983e-10
4.60156e-10
5.20566e-10
5.77204e-10
6.27698e-10
6.69794e-10
7.01527e-10
7.2137e-10
7.28347e-10
7.22112e-10
7.02971e-10
6.71863e-10
6.30285e-10
5.80177e-10
5.23779e-10
4.63461e-10
4.01552e-10
3.40173e-10
2.81094e-10
2.25619e-10
1.74507e-10
1.27941e-10
8.55417e-11
4.64217e-11
3.27942e-13
1.26241e-15
1.24542e-15
3.23601e-13
4.58305e-11
8.44833e-11
1.26415e-10
1.72523e-10
2.23208e-10
2.78312e-10
3.37102e-10
3.983e-10
4.60156e-10
5.20566e-10
5.77204e-10
6.27698e-10
6.69794e-10
7.01527e-10
7.2137e-10
7.28347e-10
7.22112e-10
7.02971e-10
6.71863e-10
6.30285e-10
5.80177e-10
5.23779e-10
4.63461e-10
4.01552e-10
3.40173e-10
2.81094e-10
2.25619e-10
1.74507e-10
1.27941e-10
8.55417e-11
4.64217e-11
3.27942e-13
1.26241e-15
1.24542e-15
3.23601e-13
4.58305e-11
8.44833e-11
1.26415e-10
1.72523e-10
2.23208e-10
2.78312e-10
3.37102e-10
3.983e-10
4.60156e-10
5.20566e-10
5.77204e-10
6.27698e-10
6.69794e-10
7.01527e-10
7.2137e-10
7.28347e-10
7.22112e-10
7.02971e-10
6.71863e-10
6.30285e-10
5.80177e-10
5.23779e-10
4.63461e-10
4.01552e-10
3.40173e-10
2.81094e-10
2.25619e-10
1.74507e-10
1.27941e-10
8.55417e-11
4.64217e-11
3.27942e-13
1.26241e-15
1.24542e-15
3.23601e-13
4.58305e-11
8.44833e-11
1.26415e-10
1.72523e-10
2.23208e-10
2.78312e-10
3.37102e-10
3.983e-10
4.60156e-10
5.20566e-10
5.77204e-10
6.27698e-10
6.69794e-10
7.01527e-10
7.2137e-10
7.28347e-10
7.22112e-10
7.02971e-10
6.71863e-10
6.30285e-10
5.80177e-10
5.23779e-10
4.63461e-10
4.01552e-10
3.40173e-10
2.81094e-10
2.25619e-10
1.74507e-10
1.27941e-10
8.55417e-11
4.64217e-11
3.27942e-13
1.26241e-15
1.24542e-15
3.23601e-13
4.58305e-11
8.44833e-11
1.26415e-10
1.72523e-10
2.23208e-10
2.78312e-10
3.37102e-10
3.983e-10
4.60156e-10
5.20566e-10
5.77204e-10
6.27698e-10
6.69794e-10
7.01527e-10
7.2137e-10
7.28347e-10
7.22112e-10
7.02971e-10
6.71863e-10
6.30285e-10
5.80177e-10
5.23779e-10
4.63461e-10
4.01552e-10
3.40173e-10
2.81094e-10
2.25619e-10
1.74507e-10
1.27941e-10
8.55417e-11
4.64217e-11
3.27942e-13
1.26241e-15
1.24542e-15
3.23601e-13
4.58305e-11
8.44833e-11
1.26415e-10
1.72523e-10
2.23208e-10
2.78312e-10
3.37102e-10
3.983e-10
4.60156e-10
5.20566e-10
5.77204e-10
6.27698e-10
6.69794e-10
7.01527e-10
7.2137e-10
7.28347e-10
7.22112e-10
7.02971e-10
6.71863e-10
6.30285e-10
5.80177e-10
5.23779e-10
4.63461e-10
4.01552e-10
3.40173e-10
2.81094e-10
2.25619e-10
1.74507e-10
1.27941e-10
8.55417e-11
4.64217e-11
3.27942e-13
1.26241e-15
1.24542e-15
3.23601e-13
4.58305e-11
8.44833e-11
1.26415e-10
1.72523e-10
2.23208e-10
2.78312e-10
3.37102e-10
3.983e-10
4.60156e-10
5.20566e-10
5.77204e-10
6.27698e-10
6.69794e-10
7.01527e-10
7.2137e-10
7.28347e-10
7.22112e-10
7.02971e-10
6.71863e-10
6.30285e-10
5.80177e-10
5.23779e-10
4.63461e-10
4.01552e-10
3.40173e-10
2.81094e-10
2.25619e-10
1.74507e-10
1.27941e-10
8.55417e-11
4.64217e-11
3.27942e-13
1.26241e-15
1.24542e-15
3.23601e-13
4.58305e-11
8.44833e-11
1.26415e-10
1.72523e-10
2.23208e-10
2.78312e-10
3.37102e-10
3.983e-10
4.60156e-10
5.20566e-10
5.77204e-10
6.27698e-10
6.69794e-10
7.01527e-10
7.2137e-10
7.28347e-10
7.22112e-10
7.02971e-10
6.71863e-10
6.30285e-10
5.80177e-10
5.23779e-10
4.63461e-10
4.01552e-10
3.40173e-10
2.81094e-10
2.25619e-10
1.74507e-10
1.27941e-10
8.55417e-11
4.64217e-11
3.27942e-13
1.26241e-15
1.24542e-15
3.23601e-13
4.58305e-11
8.44833e-11
1.26415e-10
1.72523e-10
2.23208e-10
2.78312e-10
3.37102e-10
3.983e-10
4.60156e-10
5.20566e-10
5.77204e-10
6.27698e-10
6.69794e-10
7.01527e-10
7.2137e-10
7.28347e-10
7.22112e-10
7.02971e-10
6.71863e-10
6.30285e-10
5.80177e-10
5.23779e-10
4.63461e-10
4.01552e-10
3.40173e-10
2.81094e-10
2.25619e-10
1.74507e-10
1.27941e-10
8.55417e-11
4.64217e-11
3.27942e-13
1.26241e-15
1.24542e-15
3.23601e-13
4.58305e-11
8.44833e-11
1.26415e-10
1.72523e-10
2.23208e-10
2.78312e-10
3.37102e-10
3.983e-10
4.60156e-10
5.20566e-10
5.77204e-10
6.27698e-10
6.69794e-10
7.01527e-10
7.2137e-10
7.28347e-10
7.22112e-10
7.02971e-10
6.71863e-10
6.30285e-10
5.80177e-10
5.23779e-10
4.63461e-10
4.01552e-10
3.40173e-10
2.81094e-10
2.25619e-10
1.74507e-10
1.27941e-10
8.55417e-11
4.64217e-11
3.27942e-13
1.26241e-15
1.24542e-15
3.23601e-13
4.58305e-11
8.44833e-11
1.26415e-10
1.72523e-10
2.23208e-10
2.78312e-10
3.37102e-10
3.983e-10
4.60156e-10
5.20566e-10
5.77204e-10
6.27698e-10
6.69794e-10
7.01527e-10
7.2137e-10
7.28347e-10
7.22112e-10
7.02971e-10
6.71863e-10
6.30285e-10
5.80177e-10
5.23779e-10
4.63461e-10
4.01552e-10
3.40173e-10
2.81094e-10
2.25619e-10
1.74507e-10
1.27941e-10
8.55417e-11
4.64217e-11
3.27942e-13
1.26241e-15
1.24542e-15
3.23601e-13
4.58305e-11
8.44833e-11
1.26415e-10
1.72523e-10
2.23208e-10
2.78312e-10
3.37102e-10
3.983e-10
4.60156e-10
5.20566e-10
5.77204e-10
6.27698e-10
6.69794e-10
7.01527e-10
7.2137e-10
7.28347e-10
7.22112e-10
7.02971e-10
6.71863e-10
6.30285e-10
5.80177e-10
5.23779e-10
4.63461e-10
4.01552e-10
3.40173e-10
2.81094e-10
2.25619e-10
1.74507e-10
1.27941e-10
8.55417e-11
4.64217e-11
3.27942e-13
1.26241e-15
1.24542e-15
3.23601e-13
4.58305e-11
8.44833e-11
1.26415e-10
1.72523e-10
2.23208e-10
2.78312e-10
3.37102e-10
3.983e-10
4.60156e-10
5.20566e-10
5.77204e-10
6.27698e-10
6.69794e-10
7.01527e-10
7.2137e-10
7.28347e-10
7.22112e-10
7.02971e-10
6.71863e-10
6.30285e-10
5.80177e-10
5.23779e-10
4.63461e-10
4.01552e-10
3.40173e-10
2.81094e-10
2.25619e-10
1.74507e-10
1.27941e-10
8.55417e-11
4.64217e-11
3.27942e-13
1.26241e-15
1.24542e-15
3.23601e-13
4.58305e-11
8.44833e-11
1.26415e-10
1.72523e-10
2.23208e-10
2.78312e-10
3.37102e-10
3.983e-10
4.60156e-10
5.20566e-10
5.77204e-10
6.27698e-10
6.69794e-10
7.01527e-10
7.2137e-10
7.28347e-10
7.22112e-10
7.02971e-10
6.71863e-10
6.30285e-10
5.80177e-10
5.23779e-10
4.63461e-10
4.01552e-10
3.40173e-10
2.81094e-10
2.25619e-10
1.74507e-10
1.27941e-10
8.55417e-11
4.64217e-11
3.27942e-13
1.26241e-15
1.24542e-15
3.23601e-13
4.58305e-11
8.44833e-11
1.26415e-10
1.72523e-10
2.23208e-10
2.78312e-10
3.37102e-10
3.983e-10
4.60156e-10
5.20566e-10
5.77204e-10
6.27698e-10
6.69794e-10
7.01527e-10
7.2137e-10
7.28347e-10
7.22112e-10
7.02971e-10
6.71863e-10
6.30285e-10
5.80177e-10
5.23779e-10
4.63461e-10
4.01552e-10
3.40173e-10
2.81094e-10
2.25619e-10
1.74507e-10
1.27941e-10
8.55417e-11
4.64217e-11
3.27942e-13
1.26241e-15
1.24542e-15
3.23601e-13
4.58305e-11
8.44833e-11
1.26415e-10
1.72523e-10
2.23208e-10
2.78312e-10
3.37102e-10
3.983e-10
4.60156e-10
5.20566e-10
5.77204e-10
6.27698e-10
6.69794e-10
7.01527e-10
7.2137e-10
7.28347e-10
7.22112e-10
7.02971e-10
6.71863e-10
6.30285e-10
5.80177e-10
5.23779e-10
4.63461e-10
4.01552e-10
3.40173e-10
2.81094e-10
2.25619e-10
1.74507e-10
1.27941e-10
8.55417e-11
4.64217e-11
3.27942e-13
1.26241e-15
1.24542e-15
3.23601e-13
4.58305e-11
8.44833e-11
1.26415e-10
1.72523e-10
2.23208e-10
2.78312e-10
3.37102e-10
3.983e-10
4.60156e-10
5.20566e-10
5.77204e-10
6.27698e-10
6.69794e-10
7.01527e-10
7.2137e-10
7.28347e-10
7.22112e-10
7.02971e-10
6.71863e-10
6.30285e-10
5.80177e-10
5.23779e-10
4.63461e-10
4.01552e-10
3.40173e-10
2.81094e-10
2.25619e-10
1.74507e-10
1.27941e-10
8.55417e-11
4.64217e-11
3.27942e-13
1.26241e-15
1.24542e-15
3.23601e-13
4.58305e-11
8.44833e-11
1.26415e-10
1.72523e-10
2.23208e-10
2.78312e-10
3.37102e-10
3.983e-10
4.60156e-10
5.20566e-10
5.77204e-10
6.27698e-10
6.69794e-10
7.01527e-10
7.2137e-10
7.28347e-10
7.22112e-10
7.02971e-10
6.71863e-10
6.30285e-10
5.80177e-10
5.23779e-10
4.63461e-10
4.01552e-10
3.40173e-10
2.81094e-10
2.25619e-10
1.74507e-10
1.27941e-10
8.55417e-11
4.64217e-11
3.27942e-13
1.26241e-15
1.24542e-15
3.23601e-13
4.58305e-11
8.44833e-11
1.26415e-10
1.72523e-10
2.23208e-10
2.78312e-10
3.37102e-10
3.983e-10
4.60156e-10
5.20566e-10
5.77204e-10
6.27698e-10
6.69794e-10
7.01527e-10
7.2137e-10
7.28347e-10
7.22112e-10
7.02971e-10
6.71863e-10
6.30285e-10
5.80177e-10
5.23779e-10
4.63461e-10
4.01552e-10
3.40173e-10
2.81094e-10
2.25619e-10
1.74507e-10
1.27941e-10
8.55417e-11
4.64217e-11
3.27942e-13
1.26241e-15
1.24542e-15
3.23601e-13
4.58305e-11
8.44833e-11
1.26415e-10
1.72523e-10
2.23208e-10
2.78312e-10
3.37102e-10
3.983e-10
4.60156e-10
5.20566e-10
5.77204e-10