/*--------------------------------*- C++ -*----------------------------------*\
  =========                 |
  \\      /  F ield         | OpenFOAM: The Open Source CFD Toolbox
   \\    /   O peration     | Website:  https://openfoam.org
    \\  /    A nd           | Version:  13
     \\/     M anipulation  |
\*---------------------------------------------------------------------------*/
FoamFile
{
    format      ascii;
    class       volScalarField;
    location    "350";
    object      k;
}
// * * * * * * * * * * * * * * * * * * * * * * * * * * * * * * * * * * * * * //

dimensions      [0 2 -2 0 0 0 0];

internalField   nonuniform List<scalar> 
78750
(
2.22045e-16
2.22045e-16
8.16599e-16
1.47039e-15
2.16221e-15
2.89554e-15
3.67012e-15
4.48019e-15
5.31421e-15
6.15533e-15
6.98248e-15
7.77173e-15
8.49785e-15
9.13592e-15
9.66288e-15
1.0059e-14
1.0309e-14
1.04032e-14
1.03376e-14
1.01149e-14
9.74357e-15
9.23783e-15
8.61661e-15
7.90237e-15
7.11976e-15
6.29406e-15
5.44947e-15
4.60761e-15
3.78595e-15
2.99671e-15
2.2461e-15
1.53427e-15
8.56284e-16
2.22045e-16
2.22045e-16
2.22045e-16
3.93751e-15
1.9602e-14
3.58062e-14
5.2865e-14
7.0966e-14
9.01446e-14
1.10272e-13
1.3106e-13
1.5208e-13
1.72794e-13
1.92589e-13
2.10819e-13
2.26845e-13
2.40076e-13
2.50007e-13
2.56249e-13
2.58552e-13
2.56822e-13
2.51127e-13
2.41689e-13
2.28876e-13
2.13177e-13
1.9517e-13
1.75488e-13
1.54779e-13
1.33663e-13
1.12689e-13
9.22989e-14
7.27972e-14
5.43263e-14
3.68605e-14
2.02142e-14
4.06691e-15
2.22045e-16
3.76019e-16
1.08487e-14
5.41798e-14
9.95649e-14
1.48294e-13
2.01227e-13
2.58687e-13
3.20409e-13
3.85528e-13
4.52633e-13
5.19854e-13
5.84991e-13
6.45668e-13
6.99491e-13
7.4422e-13
7.77918e-13
7.99086e-13
8.06765e-13
8.00601e-13
7.8087e-13
7.48458e-13
7.04801e-13
6.51791e-13
5.91639e-13
5.26728e-13
4.59445e-13
3.92016e-13
3.26348e-13
2.63901e-13
2.05588e-13
1.51716e-13
1.01992e-13
5.55666e-14
1.11394e-14
3.86265e-16
7.12961e-16
2.05732e-14
1.02825e-13
1.89376e-13
2.82983e-13
3.85537e-13
4.97853e-13
6.19533e-13
7.4894e-13
8.83267e-13
1.01871e-12
1.15071e-12
1.27428e-12
1.38432e-12
1.47604e-12
1.54525e-12
1.5887e-12
1.60431e-12
1.59131e-12
1.55033e-12
1.48332e-12
1.39342e-12
1.28474e-12
1.16204e-12
1.03038e-12
8.94783e-13
7.59857e-13
6.29477e-13
5.06534e-13
3.92752e-13
2.88605e-13
1.93335e-13
1.05072e-13
2.10423e-14
7.29482e-16
1.08884e-15
3.14202e-14
1.57072e-13
2.89464e-13
4.32947e-13
5.90532e-13
7.63549e-13
9.51441e-13
1.15171e-12
1.36e-12
1.5704e-12
1.77578e-12
1.96829e-12
2.1399e-12
2.28303e-12
2.39104e-12
2.45879e-12
2.48297e-12
2.46239e-12
2.39804e-12
2.29306e-12
2.15243e-12
1.98269e-12
1.79136e-12
1.58644e-12
1.37581e-12
1.16666e-12
9.65041e-13
7.75395e-13
6.0035e-13
4.40573e-13
2.94813e-13
1.60095e-13
3.20505e-14
1.11104e-15
1.45523e-15
4.19928e-14
2.09934e-13
3.86937e-13
5.78867e-13
7.8979e-13
1.02151e-12
1.2733e-12
1.54182e-12
1.82123e-12
2.10357e-12
2.37926e-12
2.63772e-12
2.86817e-12
3.06036e-12
3.20537e-12
3.29624e-12
3.32854e-12
3.30066e-12
3.21396e-12
3.07267e-12
2.88355e-12
2.6554e-12
2.39837e-12
2.12324e-12
1.84061e-12
1.56015e-12
1.28996e-12
1.036e-12
8.01777e-13
5.88157e-13
3.93436e-13
2.13597e-13
4.27558e-14
1.4821e-15
1.78248e-15
5.14365e-14
2.57148e-13
4.73967e-13
7.09094e-13
9.67517e-13
1.25146e-12
1.56003e-12
1.88912e-12
2.23158e-12
2.57766e-12
2.91559e-12
3.2324e-12
3.51485e-12
3.75038e-12
3.92803e-12
4.0393e-12
4.07872e-12
4.04436e-12
3.93788e-12
3.76448e-12
3.53247e-12
3.25265e-12
2.93749e-12
2.6002e-12
2.25378e-12
1.91011e-12
1.57908e-12
1.26802e-12
9.81202e-13
7.19681e-13
4.81359e-13
2.61305e-13
5.2302e-14
1.81296e-15
2.05499e-15
5.9302e-14
2.96475e-13
5.46447e-13
8.17525e-13
1.11546e-12
1.44282e-12
1.79858e-12
2.17798e-12
2.57281e-12
2.97178e-12
3.36134e-12
3.72654e-12
4.05211e-12
4.32355e-12
4.52826e-12
4.6564e-12
4.70171e-12
4.66193e-12
4.53903e-12
4.33899e-12
4.0714e-12
3.74871e-12
3.38531e-12
2.99644e-12
2.59709e-12
2.20094e-12
1.8194e-12
1.46091e-12
1.13039e-12
8.2906e-13
5.54486e-13
3.00988e-13
6.02413e-14
2.08808e-15
2.26758e-15
6.54399e-14
3.27168e-13
6.03013e-13
9.02141e-13
1.2309e-12
1.59213e-12
1.98467e-12
2.40331e-12
2.83894e-12
3.27914e-12
3.70894e-12
4.11183e-12
4.47098e-12
4.7704e-12
4.99616e-12
5.13743e-12
5.18729e-12
5.14329e-12
5.00756e-12
4.78675e-12
4.49142e-12
4.13532e-12
3.73433e-12
3.30526e-12
2.86466e-12
2.42761e-12
2.00671e-12
1.61126e-12
1.24668e-12
9.14315e-13
6.11487e-13
3.31918e-13
6.64283e-14
2.3024e-15
2.42312e-15
6.99323e-14
3.49639e-13
6.44424e-13
9.64085e-13
1.31541e-12
1.70142e-12
2.12088e-12
2.56823e-12
3.03373e-12
3.50409e-12
3.96333e-12
4.3938e-12
4.77751e-12
5.09737e-12
5.33852e-12
5.48938e-12
5.54257e-12
5.49545e-12
5.35034e-12
5.1143e-12
4.79867e-12
4.41812e-12
3.98962e-12
3.53114e-12
3.06035e-12
2.59339e-12
2.14369e-12
1.7212e-12
1.33171e-12
9.76656e-13
6.53164e-13
3.54532e-13
7.09505e-14
2.459e-15
2.52992e-15
7.30184e-14
3.6508e-13
6.72881e-13
1.00665e-12
1.37348e-12
1.77651e-12
2.21448e-12
2.68155e-12
3.16757e-12
3.65866e-12
4.13811e-12
4.58753e-12
4.98811e-12
5.32202e-12
5.57374e-12
5.73118e-12
5.78664e-12
5.73737e-12
5.58579e-12
5.33929e-12
5.00969e-12
4.61234e-12
4.16493e-12
3.68624e-12
3.19472e-12
2.7072e-12
2.23773e-12
1.79667e-12
1.39008e-12
1.01945e-12
6.81769e-13
3.70052e-13
7.40528e-14
2.56637e-15
2.59882e-15
7.50104e-14
3.7505e-13
6.91256e-13
1.03414e-12
1.41098e-12
1.82501e-12
2.27493e-12
2.75474e-12
3.254e-12
3.75847e-12
4.25099e-12
4.71263e-12
5.1241e-12
5.46708e-12
5.72561e-12
5.8873e-12
5.94422e-12
5.89355e-12
5.73779e-12
5.48453e-12
5.14591e-12
4.73769e-12
4.27808e-12
3.78634e-12
3.28143e-12
2.78065e-12
2.29841e-12
1.84537e-12
1.42774e-12
1.04705e-12
7.00218e-13
3.80061e-13
7.60527e-14
2.63554e-15
2.64065e-15
7.62206e-14
3.8111e-13
7.02425e-13
1.05084e-12
1.43377e-12
1.85449e-12
2.31167e-12
2.79922e-12
3.30654e-12
3.81915e-12
4.3196e-12
4.78868e-12
5.20677e-12
5.55525e-12
5.81793e-12
5.98219e-12
6.03999e-12
5.98847e-12
5.83016e-12
5.57279e-12
5.22868e-12
4.81386e-12
4.34682e-12
3.84715e-12
3.33411e-12
2.82525e-12
2.33526e-12
1.87494e-12
1.4506e-12
1.0638e-12
7.11419e-13
3.86136e-13
7.72662e-14
2.67749e-15
2.6646e-15
7.6914e-14
3.84584e-13
7.08828e-13
1.06042e-12
1.44683e-12
1.87139e-12
2.33273e-12
2.82472e-12
3.33666e-12
3.85393e-12
4.35893e-12
4.83228e-12
5.25416e-12
5.60581e-12
5.87085e-12
6.03659e-12
6.0949e-12
6.04289e-12
5.88312e-12
5.62338e-12
5.27612e-12
4.85752e-12
4.38622e-12
3.882e-12
3.36429e-12
2.85081e-12
2.35637e-12
1.89187e-12
1.4637e-12
1.0734e-12
7.17833e-13
3.89615e-13
7.79607e-14
2.70148e-15
2.67756e-15
7.72896e-14
3.86466e-13
7.12297e-13
1.06561e-12
1.45392e-12
1.88054e-12
2.34415e-12
2.83854e-12
3.35299e-12
3.87279e-12
4.38025e-12
4.85591e-12
5.27985e-12
5.63321e-12
5.89954e-12
6.06607e-12
6.12465e-12
6.07238e-12
5.91181e-12
5.65079e-12
5.30183e-12
4.88117e-12
4.40756e-12
3.90087e-12
3.38063e-12
2.86465e-12
2.3678e-12
1.90104e-12
1.47079e-12
1.0786e-12
7.21305e-13
3.91498e-13
7.83364e-14
2.71445e-15
2.68421e-15
7.74823e-14
3.87432e-13
7.14078e-13
1.06828e-12
1.45755e-12
1.88525e-12
2.35001e-12
2.84564e-12
3.36137e-12
3.88247e-12
4.3912e-12
4.86804e-12
5.29304e-12
5.64728e-12
5.91427e-12
6.08121e-12
6.13993e-12
6.08752e-12
5.92654e-12
5.66486e-12
5.31502e-12
4.89331e-12
4.41852e-12
3.91056e-12
3.38902e-12
2.87175e-12
2.37367e-12
1.90575e-12
1.47442e-12
1.08126e-12
7.23085e-13
3.92464e-13
7.85289e-14
2.72109e-15
2.68744e-15
7.75761e-14
3.87903e-13
7.14946e-13
1.06958e-12
1.45932e-12
1.88754e-12
2.35287e-12
2.8491e-12
3.36546e-12
3.88719e-12
4.39654e-12
4.87396e-12
5.29947e-12
5.65414e-12
5.92145e-12
6.08859e-12
6.14738e-12
6.0949e-12
5.93373e-12
5.67172e-12
5.32146e-12
4.89923e-12
4.42385e-12
3.91528e-12
3.39311e-12
2.87521e-12
2.37652e-12
1.90804e-12
1.4762e-12
1.08256e-12
7.23953e-13
3.92934e-13
7.86226e-14
2.72432e-15
2.68894e-15
7.76197e-14
3.88122e-13
7.15349e-13
1.07018e-12
1.46015e-12
1.8886e-12
2.35419e-12
2.85071e-12
3.36736e-12
3.88938e-12
4.39902e-12
4.87671e-12
5.30246e-12
5.65732e-12
5.92478e-12
6.09202e-12
6.15084e-12
6.09833e-12
5.93706e-12
5.67491e-12
5.32444e-12
4.90197e-12
4.42633e-12
3.91747e-12
3.395e-12
2.87682e-12
2.37785e-12
1.9091e-12
1.47702e-12
1.08316e-12
7.24355e-13
3.93152e-13
7.8666e-14
2.72581e-15
2.6896e-15
7.76389e-14
3.88218e-13
7.15527e-13
1.07045e-12
1.46051e-12
1.88907e-12
2.35478e-12
2.85142e-12
3.36819e-12
3.89035e-12
4.40012e-12
4.87792e-12
5.30378e-12
5.65873e-12
5.92626e-12
6.09354e-12
6.15237e-12
6.09984e-12
5.93853e-12
5.67632e-12
5.32576e-12
4.90319e-12
4.42743e-12
3.91844e-12
3.39584e-12
2.87753e-12
2.37844e-12
1.90957e-12
1.47738e-12
1.08343e-12
7.24532e-13
3.93248e-13
7.86852e-14
2.72647e-15
2.68988e-15
7.7647e-14
3.88259e-13
7.15603e-13
1.07056e-12
1.46066e-12
1.88927e-12
2.35503e-12
2.85172e-12
3.36855e-12
3.89076e-12
4.40058e-12
4.87844e-12
5.30434e-12
5.65932e-12
5.92688e-12
6.09418e-12
6.15301e-12
6.10048e-12
5.93916e-12
5.67691e-12
5.32632e-12
4.9037e-12
4.42789e-12
3.91885e-12
3.3962e-12
2.87783e-12
2.37868e-12
1.90977e-12
1.47753e-12
1.08354e-12
7.24607e-13
3.93289e-13
7.86933e-14
2.72675e-15
2.68999e-15
7.76503e-14
3.88276e-13
7.15633e-13
1.0706e-12
1.46073e-12
1.88935e-12
2.35513e-12
2.85184e-12
3.36869e-12
3.89093e-12
4.40077e-12
4.87864e-12
5.30456e-12
5.65957e-12
5.92714e-12
6.09444e-12
6.15328e-12
6.10074e-12
5.93941e-12
5.67715e-12
5.32655e-12
4.90391e-12
4.42808e-12
3.91901e-12
3.39634e-12
2.87795e-12
2.37878e-12
1.90985e-12
1.4776e-12
1.08359e-12
7.24638e-13
3.93305e-13
7.86966e-14
2.72686e-15
2.69004e-15
7.76516e-14
3.88282e-13
7.15645e-13
1.07062e-12
1.46075e-12
1.88938e-12
2.35517e-12
2.85189e-12
3.36875e-12
3.89099e-12
4.40084e-12
4.87872e-12
5.30465e-12
5.65966e-12
5.92723e-12
6.09454e-12
6.15338e-12
6.10084e-12
5.93951e-12
5.67725e-12
5.32663e-12
4.90399e-12
4.42815e-12
3.91908e-12
3.3964e-12
2.878e-12
2.37882e-12
1.90988e-12
1.47762e-12
1.0836e-12
7.2465e-13
3.93312e-13
7.86979e-14
2.7269e-15
2.69005e-15
7.76521e-14
3.88285e-13
7.1565e-13
1.07063e-12
1.46076e-12
1.8894e-12
2.35518e-12
2.85191e-12
3.36877e-12
3.89101e-12
4.40087e-12
4.87875e-12
5.30468e-12
5.65969e-12
5.92727e-12
6.09457e-12
6.15342e-12
6.10088e-12
5.93954e-12
5.67728e-12
5.32667e-12
4.90402e-12
4.42818e-12
3.9191e-12
3.39642e-12
2.87802e-12
2.37884e-12
1.90989e-12
1.47763e-12
1.08361e-12
7.24654e-13
3.93314e-13
7.86983e-14
2.72692e-15
2.69006e-15
7.76522e-14
3.88286e-13
7.15651e-13
1.07063e-12
1.46076e-12
1.8894e-12
2.35519e-12
2.85191e-12
3.36878e-12
3.89102e-12
4.40088e-12
4.87877e-12
5.30469e-12
5.65971e-12
5.92728e-12
6.09459e-12
6.15343e-12
6.10089e-12
5.93956e-12
5.67729e-12
5.32668e-12
4.90403e-12
4.42819e-12
3.91911e-12
3.39643e-12
2.87802e-12
2.37884e-12
1.9099e-12
1.47763e-12
1.08361e-12
7.24656e-13
3.93315e-13
7.86985e-14
2.72693e-15
2.69006e-15
7.76523e-14
3.88286e-13
7.15652e-13
1.07063e-12
1.46076e-12
1.8894e-12
2.35519e-12
2.85191e-12
3.36878e-12
3.89103e-12
4.40088e-12
4.87877e-12
5.3047e-12
5.65971e-12
5.92729e-12
6.09459e-12
6.15343e-12
6.1009e-12
5.93956e-12
5.6773e-12
5.32668e-12
4.90403e-12
4.42819e-12
3.91911e-12
3.39643e-12
2.87802e-12
2.37884e-12
1.9099e-12
1.47763e-12
1.08361e-12
7.24656e-13
3.93315e-13
7.86986e-14
2.72693e-15
2.69006e-15
7.76523e-14
3.88286e-13
7.15652e-13
1.07063e-12
1.46076e-12
1.8894e-12
2.35519e-12
2.85191e-12
3.36878e-12
3.89103e-12
4.40088e-12
4.87877e-12
5.3047e-12
5.65971e-12
5.92729e-12
6.09459e-12
6.15344e-12
6.1009e-12
5.93956e-12
5.6773e-12
5.32668e-12
4.90403e-12
4.42819e-12
3.91912e-12
3.39643e-12
2.87802e-12
2.37884e-12
1.9099e-12
1.47763e-12
1.08361e-12
7.24656e-13
3.93315e-13
7.86986e-14
2.72693e-15
2.69006e-15
7.76523e-14
3.88286e-13
7.15652e-13
1.07063e-12
1.46076e-12
1.8894e-12
2.35519e-12
2.85192e-12
3.36878e-12
3.89103e-12
4.40088e-12
4.87877e-12
5.3047e-12
5.65971e-12
5.92729e-12
6.09459e-12
6.15344e-12
6.1009e-12
5.93956e-12
5.6773e-12
5.32668e-12
4.90404e-12
4.42819e-12
3.91912e-12
3.39643e-12
2.87803e-12
2.37884e-12
1.9099e-12
1.47763e-12
1.08361e-12
7.24656e-13
3.93315e-13
7.86986e-14
2.72693e-15
2.69006e-15
7.76523e-14
3.88286e-13
7.15652e-13
1.07063e-12
1.46076e-12
1.8894e-12
2.35519e-12
2.85192e-12
3.36878e-12
3.89103e-12
4.40088e-12
4.87877e-12
5.3047e-12
5.65971e-12
5.92729e-12
6.09459e-12
6.15344e-12
6.1009e-12
5.93956e-12
5.6773e-12
5.32668e-12
4.90404e-12
4.42819e-12
3.91912e-12
3.39643e-12
2.87803e-12
2.37884e-12
1.9099e-12
1.47763e-12
1.08361e-12
7.24656e-13
3.93315e-13
7.86986e-14
2.72693e-15
2.69006e-15
7.76523e-14
3.88286e-13
7.15652e-13
1.07063e-12
1.46076e-12
1.8894e-12
2.35519e-12
2.85192e-12
3.36878e-12
3.89103e-12
4.40088e-12
4.87877e-12
5.3047e-12
5.65971e-12
5.92729e-12
6.09459e-12
6.15344e-12
6.1009e-12
5.93956e-12
5.6773e-12
5.32668e-12
4.90404e-12
4.42819e-12
3.91912e-12
3.39643e-12
2.87803e-12
2.37884e-12
1.9099e-12
1.47763e-12
1.08361e-12
7.24656e-13
3.93315e-13
7.86986e-14
2.72693e-15
2.69006e-15
7.76523e-14
3.88286e-13
7.15652e-13
1.07063e-12
1.46076e-12
1.8894e-12
2.35519e-12
2.85192e-12
3.36878e-12
3.89103e-12
4.40088e-12
4.87877e-12
5.3047e-12
5.65971e-12
5.92729e-12
6.09459e-12
6.15344e-12
6.1009e-12
5.93956e-12
5.6773e-12
5.32668e-12
4.90404e-12
4.42819e-12
3.91912e-12
3.39643e-12
2.87803e-12
2.37884e-12
1.9099e-12
1.47763e-12
1.08361e-12
7.24656e-13
3.93315e-13
7.86986e-14
2.72693e-15
2.69006e-15
7.76523e-14
3.88286e-13
7.15652e-13
1.07063e-12
1.46076e-12
1.8894e-12
2.35519e-12
2.85192e-12
3.36878e-12
3.89103e-12
4.40088e-12
4.87877e-12
5.3047e-12
5.65971e-12
5.92729e-12
6.09459e-12
6.15344e-12
6.1009e-12
5.93956e-12
5.6773e-12
5.32668e-12
4.90404e-12
4.42819e-12
3.91912e-12
3.39643e-12
2.87803e-12
2.37884e-12
1.9099e-12
1.47763e-12
1.08361e-12
7.24656e-13
3.93315e-13
7.86986e-14
2.72693e-15
2.69006e-15
7.76523e-14
3.88286e-13
7.15652e-13
1.07063e-12
1.46076e-12
1.8894e-12
2.35519e-12
2.85192e-12
3.36878e-12
3.89103e-12
4.40088e-12
4.87877e-12
5.3047e-12
5.65971e-12
5.92729e-12
6.09459e-12
6.15344e-12
6.1009e-12
5.93956e-12
5.6773e-12
5.32668e-12
4.90404e-12
4.42819e-12
3.91912e-12
3.39643e-12
2.87803e-12
2.37884e-12
1.9099e-12
1.47763e-12
1.08361e-12
7.24656e-13
3.93315e-13
7.86986e-14
2.72693e-15
2.69006e-15
7.76523e-14
3.88286e-13
7.15652e-13
1.07063e-12
1.46076e-12
1.8894e-12
2.35519e-12
2.85192e-12
3.36878e-12
3.89103e-12
4.40088e-12
4.87877e-12
5.3047e-12
5.65971e-12
5.92729e-12
6.09459e-12
6.15344e-12
6.1009e-12
5.93956e-12
5.6773e-12
5.32668e-12
4.90404e-12
4.42819e-12
3.91912e-12
3.39643e-12
2.87803e-12
2.37884e-12
1.9099e-12
1.47763e-12
1.08361e-12
7.24656e-13
3.93315e-13
7.86986e-14
2.72693e-15
2.69006e-15
7.76523e-14
3.88286e-13
7.15652e-13
1.07063e-12
1.46076e-12
1.8894e-12
2.35519e-12
2.85192e-12
3.36878e-12
3.89103e-12
4.40088e-12
4.87877e-12
5.3047e-12
5.65971e-12
5.92729e-12
6.09459e-12
6.15344e-12
6.1009e-12
5.93956e-12
5.6773e-12
5.32668e-12
4.90404e-12
4.42819e-12
3.91912e-12
3.39643e-12
2.87803e-12
2.37884e-12
1.9099e-12
1.47763e-12
1.08361e-12
7.24656e-13
3.93315e-13
7.86986e-14
2.72693e-15
2.69006e-15
7.76523e-14
3.88286e-13
7.15652e-13
1.07063e-12
1.46076e-12
1.8894e-12
2.35519e-12
2.85192e-12
3.36878e-12
3.89103e-12
4.40088e-12
4.87877e-12
5.3047e-12
5.65971e-12
5.92729e-12
6.09459e-12
6.15344e-12
6.1009e-12
5.93956e-12
5.6773e-12
5.32668e-12
4.90404e-12
4.42819e-12
3.91912e-12
3.39643e-12
2.87803e-12
2.37884e-12
1.9099e-12
1.47763e-12
1.08361e-12
7.24656e-13
3.93315e-13
7.86986e-14
2.72693e-15
2.69006e-15
7.76523e-14
3.88286e-13
7.15652e-13
1.07063e-12
1.46076e-12
1.8894e-12
2.35519e-12
2.85192e-12
3.36878e-12
3.89103e-12
4.40088e-12
4.87877e-12
5.3047e-12
5.65971e-12
5.92729e-12
6.09459e-12
6.15344e-12
6.1009e-12
5.93956e-12
5.6773e-12
5.32668e-12
4.90404e-12
4.42819e-12
3.91912e-12
3.39643e-12
2.87803e-12
2.37884e-12
1.9099e-12
1.47763e-12
1.08361e-12
7.24656e-13
3.93315e-13
7.86986e-14
2.72693e-15
2.69006e-15
7.76523e-14
3.88286e-13
7.15652e-13
1.07063e-12
1.46076e-12
1.8894e-12
2.35519e-12
2.85192e-12
3.36878e-12
3.89103e-12
4.40088e-12
4.87877e-12
5.3047e-12
5.65971e-12
5.92729e-12
6.09459e-12
6.15344e-12
6.1009e-12
5.93956e-12
5.6773e-12
5.32668e-12
4.90404e-12
4.42819e-12
3.91912e-12
3.39643e-12
2.87803e-12
2.37884e-12
1.9099e-12
1.47763e-12
1.08361e-12
7.24656e-13
3.93315e-13
7.86986e-14
2.72693e-15
2.69006e-15
7.76523e-14
3.88286e-13
7.15652e-13
1.07063e-12
1.46076e-12
1.8894e-12
2.35519e-12
2.85192e-12
3.36878e-12
3.89103e-12
4.40088e-12
4.87877e-12
5.3047e-12
5.65971e-12
5.92729e-12
6.09459e-12
6.15344e-12
6.1009e-12
5.93956e-12
5.6773e-12
5.32668e-12
4.90404e-12
4.42819e-12
3.91912e-12
3.39643e-12
2.87803e-12
2.37884e-12
1.9099e-12
1.47763e-12
1.08361e-12
7.24656e-13
3.93315e-13
7.86986e-14
2.72693e-15
2.69006e-15
7.76523e-14
3.88286e-13
7.15652e-13
1.07063e-12
1.46076e-12
1.8894e-12
2.35519e-12
2.85192e-12
3.36878e-12
3.89103e-12
4.40088e-12
4.87877e-12
5.3047e-12
5.65971e-12
5.92729e-12
6.09459e-12
6.15344e-12
6.1009e-12
5.93956e-12
5.6773e-12
5.32668e-12
4.90404e-12
4.42819e-12
3.91912e-12
3.39643e-12
2.87803e-12
2.37884e-12
1.9099e-12
1.47763e-12
1.08361e-12
7.24656e-13
3.93315e-13
7.86986e-14
2.72693e-15
2.69006e-15
7.76523e-14
3.88286e-13
7.15652e-13
1.07063e-12
1.46076e-12
1.8894e-12
2.35519e-12
2.85192e-12
3.36878e-12
3.89103e-12
4.40088e-12
4.87877e-12
5.3047e-12
5.65971e-12
5.92729e-12
6.09459e-12
6.15344e-12
6.1009e-12
5.93956e-12
5.6773e-12
5.32668e-12
4.90404e-12
4.42819e-12
3.91912e-12
3.39643e-12
2.87803e-12
2.37884e-12
1.9099e-12
1.47763e-12
1.08361e-12
7.24656e-13
3.93315e-13
7.86986e-14
2.72693e-15
2.69006e-15
7.76523e-14
3.88286e-13
7.15652e-13
1.07063e-12
1.46076e-12
1.8894e-12
2.35519e-12
2.85192e-12
3.36878e-12
3.89103e-12
4.40088e-12
4.87877e-12
5.3047e-12
5.65971e-12
5.92729e-12
6.09459e-12
6.15344e-12
6.1009e-12
5.93956e-12
5.6773e-12
5.32668e-12
4.90404e-12
4.42819e-12
3.91912e-12
3.39643e-12
2.87803e-12
2.37884e-12
1.9099e-12
1.47763e-12
1.08361e-12
7.24656e-13
3.93315e-13
7.86986e-14
2.72693e-15
2.69006e-15
7.76523e-14
3.88286e-13
7.15652e-13
1.07063e-12
1.46076e-12
1.8894e-12
2.35519e-12
2.85192e-12
3.36878e-12
3.89103e-12
4.40088e-12
4.87877e-12
5.3047e-12
5.65971e-12
5.92729e-12
6.09459e-12
6.15344e-12
6.1009e-12
5.93956e-12
5.6773e-12
5.32668e-12
4.90404e-12
4.42819e-12
3.91912e-12
3.39643e-12
2.87803e-12
2.37884e-12
1.9099e-12
1.47763e-12
1.08361e-12
7.24656e-13
3.93315e-13
7.86986e-14
2.72693e-15
2.69006e-15
7.76523e-14
3.88286e-13
7.15652e-13
1.07063e-12
1.46076e-12
1.8894e-12
2.35519e-12
2.85192e-12
3.36878e-12
3.89103e-12
4.40088e-12
4.87877e-12
5.3047e-12
5.65971e-12
5.92729e-12
6.09459e-12
6.15344e-12
6.1009e-12
5.93956e-12
5.6773e-12
5.32668e-12
4.90404e-12
4.42819e-12
3.91912e-12
3.39643e-12
2.87803e-12
2.37884e-12
1.9099e-12
1.47763e-12
1.08361e-12
7.24656e-13
3.93315e-13
7.86986e-14
2.72693e-15
2.69006e-15
7.76523e-14
3.88286e-13
7.15652e-13
1.07063e-12
1.46076e-12
1.8894e-12
2.35519e-12
2.85192e-12
3.36878e-12
3.89103e-12
4.40088e-12
4.87877e-12
5.3047e-12
5.65971e-12
5.92729e-12
6.09459e-12
6.15344e-12
6.1009e-12
5.93956e-12
5.6773e-12
5.32668e-12
4.90404e-12
4.42819e-12
3.91912e-12
3.39643e-12
2.87803e-12
2.37884e-12
1.9099e-12
1.47763e-12
1.08361e-12
7.24656e-13
3.93315e-13
7.86986e-14
2.72693e-15
2.69006e-15
7.76523e-14
3.88286e-13
7.15652e-13
1.07063e-12
1.46076e-12
1.8894e-12
2.35519e-12
2.85192e-12
3.36878e-12
3.89103e-12
4.40088e-12
4.87877e-12
5.3047e-12
5.65971e-12
5.92729e-12
6.09459e-12
6.15344e-12
6.1009e-12
5.93956e-12
5.6773e-12
5.32668e-12
4.90404e-12
4.42819e-12
3.91912e-12
3.39643e-12
2.87803e-12
2.37884e-12
1.9099e-12
1.47763e-12
1.08361e-12
7.24656e-13
3.93315e-13
7.86986e-14
2.72693e-15
2.69006e-15
7.76523e-14
3.88286e-13
7.15652e-13
1.07063e-12
1.46076e-12
1.8894e-12
2.35519e-12
2.85192e-12
3.36878e-12
3.89103e-12
4.40088e-12
4.87877e-12
5.3047e-12
5.65971e-12
5.92729e-12
6.09459e-12
6.15344e-12
6.1009e-12
5.93956e-12
5.6773e-12
5.32668e-12
4.90404e-12
4.42819e-12
3.91912e-12
3.39643e-12
2.87803e-12
2.37884e-12
1.9099e-12
1.47763e-12
1.08361e-12
7.24656e-13
3.93315e-13
7.86986e-14
2.72693e-15
2.69006e-15
7.76523e-14
3.88286e-13
7.15652e-13
1.07063e-12
1.46076e-12
1.8894e-12
2.35519e-12
2.85192e-12
3.36878e-12
3.89103e-12
4.40088e-12
4.87877e-12
5.3047e-12
5.65971e-12
5.92729e-12
6.09459e-12
6.15344e-12
6.1009e-12
5.93956e-12
5.6773e-12
5.32668e-12
4.90404e-12
4.42819e-12
3.91912e-12
3.39643e-12
2.87803e-12
2.37884e-12
1.9099e-12
1.47763e-12
1.08361e-12
7.24656e-13
3.93315e-13
7.86986e-14
2.72693e-15
2.69006e-15
7.76523e-14
3.88286e-13
7.15652e-13
1.07063e-12
1.46076e-12
1.8894e-12
2.35519e-12
2.85192e-12
3.36878e-12
3.89103e-12
4.40088e-12
4.87877e-12
5.3047e-12
5.65971e-12
5.92729e-12
6.09459e-12
6.15344e-12
6.1009e-12
5.93956e-12
5.6773e-12
5.32668e-12
4.90404e-12
4.42819e-12
3.91912e-12
3.39643e-12
2.87803e-12
2.37884e-12
1.9099e-12
1.47763e-12
1.08361e-12
7.24656e-13
3.93315e-13
7.86986e-14
2.72693e-15
2.69006e-15
7.76523e-14
3.88286e-13
7.15652e-13
1.07063e-12
1.46076e-12
1.8894e-12
2.35519e-12
2.85192e-12
3.36878e-12
3.89103e-12
4.40088e-12
4.87877e-12
5.3047e-12
5.65971e-12
5.92729e-12
6.09459e-12
6.15344e-12
6.1009e-12
5.93956e-12
5.6773e-12
5.32668e-12
4.90404e-12
4.42819e-12
3.91912e-12
3.39643e-12
2.87803e-12
2.37884e-12
1.9099e-12
1.47763e-12
1.08361e-12
7.24656e-13
3.93315e-13
7.86986e-14
2.72693e-15
2.69006e-15
7.76523e-14
3.88286e-13
7.15652e-13
1.07063e-12
1.46076e-12
1.8894e-12
2.35519e-12
2.85192e-12
3.36878e-12
3.89103e-12
4.40088e-12
4.87877e-12
5.3047e-12
5.65971e-12
5.92729e-12
6.09459e-12
6.15344e-12
6.1009e-12
5.93956e-12
5.6773e-12
5.32668e-12
4.90404e-12
4.42819e-12
3.91912e-12
3.39643e-12
2.87803e-12
2.37884e-12
1.9099e-12
1.47763e-12
1.08361e-12
7.24656e-13
3.93315e-13
7.86986e-14
2.72693e-15
2.69006e-15
7.76523e-14
3.88286e-13
7.15652e-13
1.07063e-12
1.46076e-12
1.8894e-12
2.35519e-12
2.85192e-12
3.36878e-12
3.89103e-12
4.40088e-12
4.87877e-12
5.3047e-12
5.65971e-12
5.92729e-12
6.09459e-12
6.15344e-12
6.1009e-12
5.93956e-12
5.6773e-12
5.32668e-12
4.90404e-12
4.42819e-12
3.91912e-12
3.39643e-12
2.87803e-12
2.37884e-12
1.9099e-12
1.47763e-12
1.08361e-12
7.24656e-13
3.93315e-13
7.86986e-14
2.72693e-15
2.69006e-15
7.76523e-14
3.88286e-13
7.15652e-13
1.07063e-12
1.46076e-12
1.8894e-12
2.35519e-12
2.85192e-12
3.36878e-12
3.89103e-12
4.40088e-12
4.87877e-12
5.3047e-12
5.65971e-12
5.92729e-12
6.09459e-12
6.15344e-12
6.1009e-12
5.93956e-12
5.6773e-12
5.32668e-12
4.90404e-12
4.42819e-12
3.91912e-12
3.39643e-12
2.87803e-12
2.37884e-12
1.9099e-12
1.47763e-12
1.08361e-12
7.24656e-13
3.93315e-13
7.86986e-14
2.72693e-15
2.69006e-15
7.76523e-14
3.88286e-13
7.15652e-13
1.07063e-12
1.46076e-12
1.8894e-12
2.35519e-12
2.85192e-12
3.36878e-12
3.89103e-12
4.40088e-12
4.87877e-12
5.3047e-12
5.65971e-12
5.92729e-12
6.09459e-12
6.15344e-12
6.1009e-12
5.93956e-12
5.6773e-12
5.32668e-12
4.90404e-12
4.42819e-12
3.91912e-12
3.39643e-12
2.87803e-12
2.37884e-12
1.9099e-12
1.47763e-12
1.08361e-12
7.24656e-13
3.93315e-13
7.86986e-14
2.72693e-15
2.69006e-15
7.76523e-14
3.88286e-13
7.15652e-13
1.07063e-12
1.46076e-12
1.8894e-12
2.35519e-12
2.85192e-12
3.36878e-12
3.89103e-12
4.40088e-12
4.87877e-12
5.3047e-12
5.65971e-12
5.92729e-12
6.09459e-12
6.15344e-12
6.1009e-12
5.93956e-12
5.6773e-12
5.32668e-12
4.90404e-12
4.42819e-12
3.91912e-12
3.39643e-12
2.87803e-12
2.37884e-12
1.9099e-12
1.47763e-12
1.08361e-12
7.24656e-13
3.93315e-13
7.86986e-14
2.72693e-15
2.69006e-15
7.76523e-14
3.88286e-13
7.15652e-13
1.07063e-12
1.46076e-12
1.8894e-12
2.35519e-12
2.85192e-12
3.36878e-12
3.89103e-12
4.40088e-12
4.87877e-12
5.3047e-12
5.65971e-12
5.92729e-12
6.09459e-12
6.15344e-12
6.1009e-12
5.93956e-12
5.6773e-12
5.32668e-12
4.90404e-12
4.42819e-12
3.91912e-12
3.39643e-12
2.87803e-12
2.37884e-12
1.9099e-12
1.47763e-12
1.08361e-12
7.24656e-13
3.93315e-13
7.86986e-14
2.72693e-15
2.69006e-15
7.76523e-14
3.88286e-13
7.15652e-13
1.07063e-12
1.46076e-12
1.8894e-12
2.35519e-12
2.85192e-12
3.36878e-12
3.89103e-12
4.40088e-12
4.87877e-12
5.3047e-12
5.65971e-12
5.92729e-12
6.09459e-12
6.15344e-12
6.1009e-12
5.93956e-12
5.6773e-12
5.32668e-12
4.90404e-12
4.42819e-12
3.91912e-12
3.39643e-12
2.87803e-12
2.37884e-12
1.9099e-12
1.47763e-12
1.08361e-12
7.24656e-13
3.93315e-13
7.86986e-14
2.72693e-15
2.69006e-15
7.76523e-14
3.88286e-13
7.15652e-13
1.07063e-12
1.46076e-12
1.8894e-12
2.35519e-12
2.85192e-12
3.36878e-12
3.89103e-12
4.40088e-12
4.87877e-12
5.3047e-12
5.65971e-12
5.92729e-12
6.09459e-12
6.15344e-12
6.1009e-12
5.93956e-12
5.6773e-12
5.32668e-12
4.90404e-12
4.42819e-12
3.91912e-12
3.39643e-12
2.87803e-12
2.37884e-12
1.9099e-12
1.47763e-12
1.08361e-12
7.24656e-13
3.93315e-13
7.86986e-14
2.72693e-15
2.69006e-15
7.76523e-14
3.88286e-13
7.15652e-13
1.07063e-12
1.46076e-12
1.8894e-12
2.35519e-12
2.85192e-12
3.36878e-12
3.89103e-12
4.40088e-12
4.87877e-12
5.3047e-12
5.65971e-12
5.92729e-12
6.09459e-12
6.15344e-12
6.1009e-12
5.93956e-12
5.6773e-12
5.32668e-12
4.90404e-12
4.42819e-12
3.91912e-12
3.39643e-12
2.87803e-12
2.37884e-12
1.9099e-12
1.47763e-12
1.08361e-12
7.24656e-13
3.93315e-13
7.86986e-14
2.72693e-15
2.69006e-15
7.76523e-14
3.88286e-13
7.15652e-13
1.07063e-12
1.46076e-12
1.8894e-12
2.35519e-12
2.85192e-12
3.36878e-12
3.89103e-12
4.40088e-12
4.87877e-12
5.3047e-12
5.65971e-12
5.92729e-12
6.09459e-12
6.15344e-12
6.1009e-12
5.93956e-12
5.6773e-12
5.32668e-12
4.90404e-12
4.42819e-12
3.91912e-12
3.39643e-12
2.87803e-12
2.37884e-12
1.9099e-12
1.47763e-12
1.08361e-12
7.24656e-13
3.93315e-13
7.86986e-14
2.72693e-15
2.69006e-15
7.76523e-14
3.88286e-13
7.15652e-13
1.07063e-12
1.46076e-12
1.8894e-12
2.35519e-12
2.85192e-12
3.36878e-12
3.89103e-12
4.40088e-12
4.87877e-12
5.3047e-12
5.65971e-12
5.92729e-12
6.09459e-12
6.15344e-12
6.1009e-12
5.93956e-12
5.6773e-12
5.32668e-12
4.90404e-12
4.42819e-12
3.91912e-12
3.39643e-12
2.87803e-12
2.37884e-12
1.9099e-12
1.47763e-12
1.08361e-12
7.24656e-13
3.93315e-13
7.86986e-14
2.72693e-15
2.69006e-15
7.76523e-14
3.88286e-13
7.15652e-13
1.07063e-12
1.46076e-12
1.8894e-12
2.35519e-12
2.85192e-12
3.36878e-12
3.89103e-12
4.40088e-12
4.87877e-12
5.3047e-12
5.65971e-12
5.92729e-12
6.09459e-12
6.15344e-12
6.1009e-12
5.93956e-12
5.6773e-12
5.32668e-12
4.90404e-12
4.42819e-12
3.91912e-12
3.39643e-12
2.87803e-12
2.37884e-12
1.9099e-12
1.47763e-12
1.08361e-12
7.24656e-13
3.93315e-13
7.86986e-14
2.72693e-15
2.69006e-15
7.76523e-14
3.88286e-13
7.15652e-13
1.07063e-12
1.46076e-12
1.8894e-12
2.35519e-12
2.85192e-12
3.36878e-12
3.89103e-12
4.40088e-12
4.87877e-12
5.3047e-12
5.65971e-12
5.92729e-12
6.09459e-12
6.15344e-12
6.1009e-12
5.93956e-12
5.6773e-12
5.32668e-12
4.90404e-12
4.42819e-12
3.91912e-12
3.39643e-12
2.87803e-12
2.37884e-12
1.9099e-12
1.47763e-12
1.08361e-12
7.24656e-13
3.93315e-13
7.86986e-14
2.72693e-15
2.69006e-15
7.76523e-14
3.88286e-13
7.15652e-13
1.07063e-12
1.46076e-12
1.8894e-12
2.35519e-12
2.85192e-12
3.36878e-12
3.89103e-12
4.40088e-12
4.87877e-12
5.3047e-12
5.65971e-12
5.92729e-12
6.09459e-12
6.15344e-12
6.1009e-12
5.93956e-12
5.6773e-12
5.32668e-12
4.90404e-12
4.42819e-12
3.91912e-12
3.39643e-12
2.87803e-12
2.37884e-12
1.9099e-12
1.47763e-12
1.08361e-12
7.24656e-13
3.93315e-13
7.86986e-14
2.72693e-15
2.69006e-15
7.76523e-14
3.88286e-13
7.15652e-13
1.07063e-12
1.46076e-12
1.8894e-12
2.35519e-12
2.85192e-12
3.36878e-12
3.89103e-12
4.40088e-12
4.87877e-12
5.3047e-12
5.65971e-12
5.92729e-12
6.09459e-12
6.15344e-12
6.1009e-12
5.93956e-12
5.6773e-12
5.32668e-12
4.90404e-12
4.42819e-12
3.91912e-12
3.39643e-12
2.87803e-12
2.37884e-12
1.9099e-12
1.47763e-12
1.08361e-12
7.24656e-13
3.93315e-13
7.86986e-14
2.72693e-15
2.69006e-15
7.76523e-14
3.88286e-13
7.15652e-13
1.07063e-12
1.46076e-12
1.8894e-12
2.35519e-12
2.85192e-12
3.36878e-12
3.89103e-12
4.40088e-12
4.87877e-12
5.3047e-12
5.65971e-12
5.92729e-12
6.09459e-12
6.15344e-12
6.1009e-12
5.93956e-12
5.6773e-12
5.32668e-12
4.90404e-12
4.42819e-12
3.91912e-12
3.39643e-12
2.87803e-12
2.37884e-12
1.9099e-12
1.47763e-12
1.08361e-12
7.24656e-13
3.93315e-13
7.86986e-14
2.72693e-15
2.69006e-15
7.76523e-14
3.88286e-13
7.15652e-13
1.07063e-12
1.46076e-12
1.8894e-12
2.35519e-12
2.85192e-12
3.36878e-12
3.89103e-12
4.40088e-12
4.87877e-12
5.3047e-12
5.65971e-12
5.92729e-12
6.09459e-12
6.15344e-12
6.1009e-12
5.93956e-12
5.6773e-12
5.32668e-12
4.90404e-12
4.42819e-12
3.91912e-12
3.39643e-12
2.87803e-12
2.37884e-12
1.9099e-12
1.47763e-12
1.08361e-12
7.24656e-13
3.93315e-13
7.86986e-14
2.72693e-15
2.69006e-15
7.76523e-14
3.88286e-13
7.15652e-13
1.07063e-12
1.46076e-12
1.8894e-12
2.35519e-12
2.85192e-12
3.36878e-12
3.89103e-12
4.40088e-12
4.87877e-12
5.3047e-12
5.65971e-12
5.92729e-12
6.09459e-12
6.15344e-12
6.1009e-12
5.93956e-12
5.6773e-12
5.32668e-12
4.90404e-12
4.42819e-12
3.91912e-12
3.39643e-12
2.87803e-12
2.37884e-12
1.9099e-12
1.47763e-12
1.08361e-12
7.24656e-13
3.93315e-13
7.86986e-14
2.72693e-15
2.69006e-15
7.76523e-14
3.88286e-13
7.15652e-13
1.07063e-12
1.46076e-12
1.8894e-12
2.35519e-12
2.85192e-12
3.36878e-12
3.89103e-12
4.40088e-12
4.87877e-12
5.3047e-12
5.65971e-12
5.92729e-12
6.09459e-12
6.15344e-12
6.1009e-12
5.93956e-12
5.6773e-12
5.32668e-12
4.90404e-12
4.42819e-12
3.91912e-12
3.39643e-12
2.87803e-12
2.37884e-12
1.9099e-12
1.47763e-12
1.08361e-12
7.24656e-13
3.93315e-13
7.86986e-14
2.72693e-15
2.69006e-15
7.76523e-14
3.88286e-13
7.15652e-13
1.07063e-12
1.46076e-12
1.8894e-12
2.35519e-12
2.85192e-12
3.36878e-12
3.89103e-12
4.40088e-12
4.87877e-12
5.3047e-12
5.65971e-12
5.92729e-12
6.09459e-12
6.15344e-12
6.1009e-12
5.93956e-12
5.6773e-12
5.32668e-12
4.90404e-12
4.42819e-12
3.91912e-12
3.39643e-12
2.87803e-12
2.37884e-12
1.9099e-12
1.47763e-12
1.08361e-12
7.24656e-13
3.93315e-13
7.86986e-14
2.72693e-15
2.69006e-15
7.76523e-14
3.88286e-13
7.15652e-13
1.07063e-12
1.46076e-12
1.8894e-12
2.35519e-12
2.85192e-12
3.36878e-12
3.89103e-12
4.40088e-12
4.87877e-12
5.3047e-12
5.65971e-12
5.92729e-12
6.09459e-12
6.15344e-12
6.1009e-12
5.93956e-12
5.6773e-12
5.32668e-12
4.90404e-12
4.42819e-12
3.91912e-12
3.39643e-12
2.87803e-12
2.37884e-12
1.9099e-12
1.47763e-12
1.08361e-12
7.24656e-13
3.93315e-13
7.86986e-14
2.72693e-15
2.69006e-15
7.76523e-14
3.88286e-13
7.15652e-13
1.07063e-12
1.46076e-12
1.8894e-12
2.35519e-12
2.85192e-12
3.36878e-12
3.89103e-12
4.40088e-12
4.87877e-12
5.3047e-12
5.65971e-12
5.92729e-12
6.09459e-12
6.15344e-12
6.1009e-12
5.93956e-12
5.6773e-12