/*--------------------------------*- C++ -*----------------------------------*\
  =========                 |
  \\      /  F ield         | OpenFOAM: The Open Source CFD Toolbox
   \\    /   O peration     | Website:  https://openfoam.org
    \\  /    A nd           | Version:  13
     \\/     M anipulation  |
\*---------------------------------------------------------------------------*/
FoamFile
{
    format      ascii;
    class       volScalarField;
    location    "350";
    object      nut;
}
// * * * * * * * * * * * * * * * * * * * * * * * * * * * * * * * * * * * * * //

dimensions      [0 2 -1 0 0 0 0];

internalField   nonuniform List<scalar> 
78750
(
3.27176e-19
2.94458e-18
5.39001e-17
9.70536e-17
1.42718e-16
1.91121e-16
2.42248e-16
2.95717e-16
3.50767e-16
4.06286e-16
4.60882e-16
5.12977e-16
5.60905e-16
6.03021e-16
6.37804e-16
6.6395e-16
6.80453e-16
6.86666e-16
6.8234e-16
6.67639e-16
6.43129e-16
6.09748e-16
5.68744e-16
5.216e-16
4.69944e-16
4.15443e-16
3.59696e-16
3.04128e-16
2.49894e-16
1.978e-16
1.48255e-16
1.0127e-16
5.65195e-17
2.94458e-18
3.27176e-19
3.27176e-19
5.22162e-17
7.36163e-15
1.34472e-14
1.98537e-14
2.66517e-14
3.38543e-14
4.14132e-14
4.92202e-14
5.71145e-14
6.48938e-14
7.2328e-14
7.91743e-14
8.51929e-14
9.01619e-14
9.38917e-14
9.62359e-14
9.71008e-14
9.64511e-14
9.4312e-14
9.07675e-14
8.59556e-14
8.00596e-14
7.3297e-14
6.59055e-14
5.81283e-14
5.01978e-14
4.23208e-14
3.46634e-14
2.73394e-14
2.04026e-14
1.38432e-14
7.59155e-15
5.39323e-17
3.27176e-19
5.54052e-19
1.43868e-16
2.03475e-14
3.73921e-14
5.56928e-14
7.55718e-14
9.71513e-14
1.20331e-13
1.44787e-13
1.69989e-13
1.95234e-13
2.19697e-13
2.42484e-13
2.62698e-13
2.79496e-13
2.92151e-13
3.00101e-13
3.02985e-13
3.0067e-13
2.9326e-13
2.81087e-13
2.64692e-13
2.44784e-13
2.22193e-13
1.97816e-13
1.72547e-13
1.47224e-13
1.22562e-13
9.91097e-14
7.72096e-14
5.69778e-14
3.83036e-14
2.08684e-14
1.47722e-16
5.6915e-19
1.05053e-18
2.72826e-16
3.86166e-14
7.11214e-14
1.06276e-13
1.44791e-13
1.86972e-13
2.32669e-13
2.81269e-13
3.31716e-13
3.82582e-13
4.32156e-13
4.78562e-13
5.19891e-13
5.54337e-13
5.80329e-13
5.96646e-13
6.02507e-13
5.97626e-13
5.82235e-13
5.57069e-13
5.23308e-13
4.82492e-13
4.3641e-13
3.86964e-13
3.36041e-13
2.85369e-13
2.36404e-13
1.90231e-13
1.475e-13
1.08387e-13
7.26082e-14
3.94604e-14
2.79046e-16
1.07487e-18
1.60438e-18
4.16671e-16
5.89892e-14
1.0871e-13
1.62596e-13
2.21777e-13
2.86755e-13
3.57319e-13
4.32529e-13
5.10756e-13
5.89774e-13
6.66905e-13
7.39201e-13
8.03652e-13
8.57405e-13
8.9797e-13
9.23412e-13
9.32493e-13
9.24763e-13
9.00597e-13
8.6117e-13
8.08359e-13
7.4461e-13
6.72755e-13
5.95795e-13
5.16692e-13
4.38148e-13
3.62427e-13
2.91204e-13
2.25465e-13
1.6546e-13
1.10719e-13
6.01248e-14
4.25029e-16
1.63709e-18
2.14424e-18
5.56876e-16
7.88418e-14
1.45316e-13
2.17397e-13
2.9661e-13
3.83635e-13
4.78196e-13
5.79038e-13
6.83971e-13
7.90007e-13
8.93543e-13
9.90611e-13
1.07716e-12
1.14934e-12
1.2038e-12
1.23792e-12
1.25005e-12
1.23958e-12
1.20702e-12
1.15396e-12
1.08293e-12
9.9725e-13
9.00721e-13
7.97393e-13
6.91249e-13
5.85923e-13
4.84451e-13
3.89075e-13
3.01112e-13
2.20886e-13
1.47757e-13
8.02175e-14
5.66994e-16
2.18383e-18
2.62643e-18
6.82111e-16
9.65735e-14
1.78001e-13
2.66304e-13
3.63357e-13
4.69993e-13
5.85877e-13
7.09469e-13
8.38084e-13
9.68055e-13
1.09496e-12
1.21394e-12
1.32002e-12
1.40848e-12
1.4752e-12
1.51698e-12
1.53179e-12
1.51888e-12
1.47889e-12
1.41377e-12
1.32664e-12
1.22155e-12
1.10319e-12
9.76518e-13
8.46421e-13
7.17352e-13
5.93034e-13
4.76213e-13
3.68496e-13
2.7028e-13
1.80777e-13
9.81346e-14
6.93588e-16
2.67134e-18
3.02796e-18
7.86417e-16
1.11343e-13
2.05221e-13
3.07026e-13
4.18918e-13
5.41861e-13
6.75465e-13
8.17954e-13
9.66232e-13
1.11607e-12
1.26237e-12
1.39952e-12
1.52179e-12
1.62373e-12
1.70061e-12
1.74874e-12
1.76575e-12
1.75081e-12
1.70466e-12
1.62953e-12
1.52904e-12
1.40785e-12
1.27137e-12
1.12533e-12
9.75352e-13
8.26575e-13
6.83287e-13
5.48654e-13
4.24525e-13
3.11358e-13
2.0824e-13
1.13038e-13
7.98874e-16
3.07672e-18
3.34122e-18
8.67813e-16
1.2287e-13
2.26465e-13
3.38804e-13
4.62272e-13
5.97932e-13
7.45354e-13
9.02575e-13
1.06618e-12
1.2315e-12
1.39291e-12
1.54422e-12
1.6791e-12
1.79155e-12
1.87633e-12
1.92939e-12
1.94812e-12
1.93159e-12
1.88062e-12
1.79769e-12
1.68678e-12
1.55304e-12
1.40245e-12
1.24131e-12
1.07584e-12
9.11703e-13
7.53632e-13
6.05116e-13
4.68197e-13
3.43376e-13
2.29647e-13
1.24654e-13
8.80921e-16
3.39252e-18
3.5704e-18
9.27388e-16
1.31309e-13
2.42017e-13
3.62067e-13
4.94009e-13
6.38976e-13
7.9651e-13
9.64513e-13
1.13933e-12
1.31598e-12
1.48845e-12
1.65012e-12
1.79422e-12
1.91435e-12
2.00491e-12
2.06157e-12
2.08154e-12
2.06385e-12
2.00935e-12
1.9207e-12
1.80217e-12
1.65925e-12
1.49832e-12
1.32614e-12
1.14933e-12
9.73961e-13
8.05076e-13
6.46406e-13
5.00133e-13
3.66789e-13
2.45299e-13
1.33147e-13
9.4089e-16
3.62325e-18
3.72776e-18
9.68313e-16
1.37108e-13
2.52704e-13
3.78053e-13
5.15817e-13
6.6718e-13
8.31662e-13
1.00707e-12
1.1896e-12
1.37403e-12
1.55409e-12
1.72287e-12
1.87331e-12
1.99872e-12
2.09325e-12
2.15238e-12
2.1732e-12
2.1547e-12
2.09777e-12
2.0052e-12
1.88142e-12
1.73219e-12
1.56416e-12
1.38439e-12
1.1998e-12
1.01671e-12
8.40394e-13
6.74751e-13
5.22054e-13
3.82859e-13
2.56042e-13
1.38975e-13
9.82031e-16
3.78146e-18
3.82928e-18
9.94729e-16
1.40852e-13
2.59605e-13
3.88376e-13
5.299e-13
6.85392e-13
8.54362e-13
1.03456e-12
1.22206e-12
1.41152e-12
1.59648e-12
1.76986e-12
1.92438e-12
2.05319e-12
2.15029e-12
2.21101e-12
2.23238e-12
2.21336e-12
2.15486e-12
2.05974e-12
1.93257e-12
1.77927e-12
1.60666e-12
1.42198e-12
1.23236e-12
1.04429e-12
8.6318e-13
6.93037e-13
5.36195e-13
3.93224e-13
2.62971e-13
1.42734e-13
1.00855e-15
3.88339e-18
3.89091e-18
1.01078e-15
1.43128e-13
2.638e-13
3.94651e-13
5.3846e-13
6.96463e-13
8.6816e-13
1.05126e-12
1.24179e-12
1.4343e-12
1.62225e-12
1.79841e-12
1.95543e-12
2.08631e-12
2.18496e-12
2.24664e-12
2.26835e-12
2.249e-12
2.18955e-12
2.09289e-12
1.96366e-12
1.80787e-12
1.63247e-12
1.44482e-12
1.25214e-12
1.06104e-12
8.7702e-13
7.04142e-13
5.44781e-13
3.99518e-13
2.67177e-13
1.45016e-13
1.02464e-15
3.9452e-18
3.92621e-18
1.01997e-15
1.44433e-13
2.66204e-13
3.98248e-13
5.43367e-13
7.0281e-13
8.7607e-13
1.06084e-12
1.2531e-12
1.44737e-12
1.63702e-12
1.81479e-12
1.97323e-12
2.10529e-12
2.20483e-12
2.26707e-12
2.28897e-12
2.26944e-12
2.20944e-12
2.11189e-12
1.98148e-12
1.82427e-12
1.64727e-12
1.45791e-12
1.26348e-12
1.07064e-12
8.84948e-13
7.10503e-13
5.49699e-13
4.03122e-13
2.69586e-13
1.46322e-13
1.03385e-15
3.98055e-18
3.9453e-18
1.02495e-15
1.45139e-13
2.67507e-13
4.00197e-13
5.46026e-13
7.06249e-13
8.80358e-13
1.06603e-12
1.25923e-12
1.45445e-12
1.64503e-12
1.82366e-12
1.98288e-12
2.11558e-12
2.2156e-12
2.27815e-12
2.30015e-12
2.28051e-12
2.22021e-12
2.12219e-12
1.99113e-12
1.83315e-12
1.65528e-12
1.46499e-12
1.26962e-12
1.07584e-12
8.89241e-13
7.13947e-13
5.52362e-13
4.05073e-13
2.7089e-13
1.47029e-13
1.03884e-15
3.99965e-18
3.9551e-18
1.02751e-15
1.45502e-13
2.68176e-13
4.01197e-13
5.47391e-13
7.08015e-13
8.82559e-13
1.0687e-12
1.26238e-12
1.45808e-12
1.64914e-12
1.82822e-12
1.98783e-12
2.12087e-12
2.22114e-12
2.28383e-12
2.30589e-12
2.2862e-12
2.22575e-12
2.12747e-12
1.99609e-12
1.83771e-12
1.6594e-12
1.46863e-12
1.27277e-12
1.0785e-12
8.91444e-13
7.15714e-13
5.53728e-13
4.06074e-13
2.71559e-13
1.47392e-13
1.04139e-15
4.00944e-18
3.95986e-18
1.02875e-15
1.45679e-13
2.68502e-13
4.01685e-13
5.48057e-13
7.08876e-13
8.83632e-13
1.07e-12
1.26392e-12
1.45986e-12
1.65115e-12
1.83044e-12
1.99025e-12
2.12344e-12
2.22383e-12
2.28661e-12
2.30868e-12
2.28897e-12
2.22844e-12
2.13005e-12
1.9985e-12
1.83993e-12
1.6614e-12
1.47041e-12
1.2743e-12
1.0798e-12
8.92517e-13
7.16575e-13
5.54393e-13
4.06561e-13
2.71884e-13
1.47569e-13
1.04263e-15
4.0142e-18
3.96207e-18
1.02933e-15
1.45761e-13
2.68653e-13
4.01912e-13
5.48366e-13
7.09275e-13
8.8413e-13
1.0706e-12
1.26463e-12
1.46068e-12
1.65208e-12
1.83147e-12
1.99137e-12
2.12464e-12
2.22509e-12
2.28789e-12
2.30998e-12
2.29026e-12
2.2297e-12
2.13124e-12
1.99962e-12
1.84096e-12
1.66233e-12
1.47123e-12
1.27501e-12
1.08041e-12
8.93014e-13
7.16974e-13
5.54702e-13
4.06787e-13
2.72035e-13
1.4765e-13
1.04321e-15
4.0164e-18
3.96305e-18
1.02959e-15
1.45798e-13
2.6872e-13
4.02012e-13
5.48503e-13
7.09452e-13
8.8435e-13
1.07087e-12
1.26494e-12
1.46104e-12
1.65249e-12
1.83193e-12
1.99186e-12
2.12517e-12
2.22564e-12
2.28846e-12
2.31056e-12
2.29083e-12
2.23025e-12
2.13177e-12
2.00012e-12
1.84142e-12
1.66274e-12
1.47159e-12
1.27533e-12
1.08067e-12
8.93234e-13
7.17151e-13
5.54838e-13
4.06887e-13
2.72102e-13
1.47687e-13
1.04346e-15
4.01737e-18
3.96346e-18
1.02969e-15
1.45813e-13
2.68749e-13
4.02054e-13
5.4856e-13
7.09527e-13
8.84444e-13
1.07098e-12
1.26508e-12
1.4612e-12
1.65266e-12
1.83212e-12
1.99207e-12
2.12539e-12
2.22587e-12
2.2887e-12
2.3108e-12
2.29107e-12
2.23048e-12
2.132e-12
2.00033e-12
1.84161e-12
1.66292e-12
1.47175e-12
1.27546e-12
1.08078e-12
8.93327e-13
7.17225e-13
5.54896e-13
4.06929e-13
2.7213e-13
1.47702e-13
1.04357e-15
4.01778e-18
3.96362e-18
1.02974e-15
1.45819e-13
2.6876e-13
4.02071e-13
5.48584e-13
7.09557e-13
8.84481e-13
1.07102e-12
1.26513e-12
1.46126e-12
1.65273e-12
1.8322e-12
1.99216e-12
2.12548e-12
2.22597e-12
2.2888e-12
2.3109e-12
2.29117e-12
2.23058e-12
2.13209e-12
2.00041e-12
1.84169e-12
1.66299e-12
1.47181e-12
1.27551e-12
1.08083e-12
8.93365e-13
7.17255e-13
5.54919e-13
4.06946e-13
2.72142e-13
1.47708e-13
1.04361e-15
4.01795e-18
3.96369e-18
1.02976e-15
1.45822e-13
2.68764e-13
4.02078e-13
5.48593e-13
7.09569e-13
8.84496e-13
1.07104e-12
1.26515e-12
1.46128e-12
1.65276e-12
1.83223e-12
1.99219e-12
2.12552e-12
2.22601e-12
2.28884e-12
2.31094e-12
2.29121e-12
2.23061e-12
2.13212e-12
2.00045e-12
1.84172e-12
1.66302e-12
1.47183e-12
1.27554e-12
1.08085e-12
8.9338e-13
7.17267e-13
5.54928e-13
4.06953e-13
2.72146e-13
1.4771e-13
1.04363e-15
4.01801e-18
3.96371e-18
1.02976e-15
1.45822e-13
2.68766e-13
4.0208e-13
5.48596e-13
7.09573e-13
8.84501e-13
1.07105e-12
1.26516e-12
1.46129e-12
1.65277e-12
1.83224e-12
1.9922e-12
2.12553e-12
2.22602e-12
2.28885e-12
2.31095e-12
2.29122e-12
2.23063e-12
2.13213e-12
2.00046e-12
1.84173e-12
1.66303e-12
1.47184e-12
1.27554e-12
1.08085e-12
8.93385e-13
7.17272e-13
5.54931e-13
4.06955e-13
2.72148e-13
1.47711e-13
1.04364e-15
4.01803e-18
3.96372e-18
1.02976e-15
1.45823e-13
2.68767e-13
4.02081e-13
5.48597e-13
7.09575e-13
8.84503e-13
1.07105e-12
1.26516e-12
1.4613e-12
1.65277e-12
1.83225e-12
1.99221e-12
2.12553e-12
2.22602e-12
2.28886e-12
2.31095e-12
2.29122e-12
2.23063e-12
2.13214e-12
2.00046e-12
1.84174e-12
1.66303e-12
1.47184e-12
1.27555e-12
1.08086e-12
8.93387e-13
7.17273e-13
5.54933e-13
4.06956e-13
2.72148e-13
1.47712e-13
1.04364e-15
4.01804e-18
3.96372e-18
1.02976e-15
1.45823e-13
2.68767e-13
4.02081e-13
5.48598e-13
7.09575e-13
8.84504e-13
1.07105e-12
1.26516e-12
1.4613e-12
1.65277e-12
1.83225e-12
1.99221e-12
2.12554e-12
2.22603e-12
2.28886e-12
2.31096e-12
2.29123e-12
2.23064e-12
2.13214e-12
2.00047e-12
1.84174e-12
1.66303e-12
1.47185e-12
1.27555e-12
1.08086e-12
8.93388e-13
7.17274e-13
5.54933e-13
4.06957e-13
2.72149e-13
1.47712e-13
1.04364e-15
4.01805e-18
3.96372e-18
1.02976e-15
1.45823e-13
2.68767e-13
4.02082e-13
5.48598e-13
7.09575e-13
8.84504e-13
1.07105e-12
1.26516e-12
1.4613e-12
1.65278e-12
1.83225e-12
1.99221e-12
2.12554e-12
2.22603e-12
2.28886e-12
2.31096e-12
2.29123e-12
2.23064e-12
2.13214e-12
2.00047e-12
1.84174e-12
1.66303e-12
1.47185e-12
1.27555e-12
1.08086e-12
8.93388e-13
7.17274e-13
5.54933e-13
4.06957e-13
2.72149e-13
1.47712e-13
1.04364e-15
4.01805e-18
3.96372e-18
1.02976e-15
1.45823e-13
2.68767e-13
4.02082e-13
5.48598e-13
7.09576e-13
8.84504e-13
1.07105e-12
1.26516e-12
1.4613e-12
1.65278e-12
1.83225e-12
1.99221e-12
2.12554e-12
2.22603e-12
2.28886e-12
2.31096e-12
2.29123e-12
2.23064e-12
2.13214e-12
2.00047e-12
1.84174e-12
1.66303e-12
1.47185e-12
1.27555e-12
1.08086e-12
8.93388e-13
7.17274e-13
5.54933e-13
4.06957e-13
2.72149e-13
1.47712e-13
1.04364e-15
4.01805e-18
3.96373e-18
1.02976e-15
1.45823e-13
2.68767e-13
4.02082e-13
5.48598e-13
7.09576e-13
8.84504e-13
1.07105e-12
1.26516e-12
1.4613e-12
1.65278e-12
1.83225e-12
1.99221e-12
2.12554e-12
2.22603e-12
2.28886e-12
2.31096e-12
2.29123e-12
2.23064e-12
2.13214e-12
2.00047e-12
1.84174e-12
1.66303e-12
1.47185e-12
1.27555e-12
1.08086e-12
8.93388e-13
7.17274e-13
5.54933e-13
4.06957e-13
2.72149e-13
1.47712e-13
1.04364e-15
4.01805e-18
3.96373e-18
1.02976e-15
1.45823e-13
2.68767e-13
4.02082e-13
5.48598e-13
7.09576e-13
8.84504e-13
1.07105e-12
1.26516e-12
1.4613e-12
1.65278e-12
1.83225e-12
1.99221e-12
2.12554e-12
2.22603e-12
2.28886e-12
2.31096e-12
2.29123e-12
2.23064e-12
2.13214e-12
2.00047e-12
1.84174e-12
1.66303e-12
1.47185e-12
1.27555e-12
1.08086e-12
8.93388e-13
7.17274e-13
5.54933e-13
4.06957e-13
2.72149e-13
1.47712e-13
1.04364e-15
4.01805e-18
3.96373e-18
1.02976e-15
1.45823e-13
2.68767e-13
4.02082e-13
5.48598e-13
7.09576e-13
8.84504e-13
1.07105e-12
1.26516e-12
1.4613e-12
1.65278e-12
1.83225e-12
1.99221e-12
2.12554e-12
2.22603e-12
2.28886e-12
2.31096e-12
2.29123e-12
2.23064e-12
2.13214e-12
2.00047e-12
1.84174e-12
1.66303e-12
1.47185e-12
1.27555e-12
1.08086e-12
8.93388e-13
7.17274e-13
5.54933e-13
4.06957e-13
2.72149e-13
1.47712e-13
1.04364e-15
4.01805e-18
3.96373e-18
1.02976e-15
1.45823e-13
2.68767e-13
4.02082e-13
5.48598e-13
7.09576e-13
8.84504e-13
1.07105e-12
1.26516e-12
1.4613e-12
1.65278e-12
1.83225e-12
1.99221e-12
2.12554e-12
2.22603e-12
2.28886e-12
2.31096e-12
2.29123e-12
2.23064e-12
2.13214e-12
2.00047e-12
1.84174e-12
1.66303e-12
1.47185e-12
1.27555e-12
1.08086e-12
8.93388e-13
7.17274e-13
5.54933e-13
4.06957e-13
2.72149e-13
1.47712e-13
1.04364e-15
4.01805e-18
3.96373e-18
1.02976e-15
1.45823e-13
2.68767e-13
4.02082e-13
5.48598e-13
7.09576e-13
8.84504e-13
1.07105e-12
1.26516e-12
1.4613e-12
1.65278e-12
1.83225e-12
1.99221e-12
2.12554e-12
2.22603e-12
2.28886e-12
2.31096e-12
2.29123e-12
2.23064e-12
2.13214e-12
2.00047e-12
1.84174e-12
1.66303e-12
1.47185e-12
1.27555e-12
1.08086e-12
8.93388e-13
7.17274e-13
5.54933e-13
4.06957e-13
2.72149e-13
1.47712e-13
1.04364e-15
4.01805e-18
3.96373e-18
1.02976e-15
1.45823e-13
2.68767e-13
4.02082e-13
5.48598e-13
7.09576e-13
8.84504e-13
1.07105e-12
1.26516e-12
1.4613e-12
1.65278e-12
1.83225e-12
1.99221e-12
2.12554e-12
2.22603e-12
2.28886e-12
2.31096e-12
2.29123e-12
2.23064e-12
2.13214e-12
2.00047e-12
1.84174e-12
1.66303e-12
1.47185e-12
1.27555e-12
1.08086e-12
8.93388e-13
7.17274e-13
5.54933e-13
4.06957e-13
2.72149e-13
1.47712e-13
1.04364e-15
4.01805e-18
3.96373e-18
1.02976e-15
1.45823e-13
2.68767e-13
4.02082e-13
5.48598e-13
7.09576e-13
8.84504e-13
1.07105e-12
1.26516e-12
1.4613e-12
1.65278e-12
1.83225e-12
1.99221e-12
2.12554e-12
2.22603e-12
2.28886e-12
2.31096e-12
2.29123e-12
2.23064e-12
2.13214e-12
2.00047e-12
1.84174e-12
1.66303e-12
1.47185e-12
1.27555e-12
1.08086e-12
8.93388e-13
7.17274e-13
5.54933e-13
4.06957e-13
2.72149e-13
1.47712e-13
1.04364e-15
4.01805e-18
3.96373e-18
1.02976e-15
1.45823e-13
2.68767e-13
4.02082e-13
5.48598e-13
7.09576e-13
8.84504e-13
1.07105e-12
1.26516e-12
1.4613e-12
1.65278e-12
1.83225e-12
1.99221e-12
2.12554e-12
2.22603e-12
2.28886e-12
2.31096e-12
2.29123e-12
2.23064e-12
2.13214e-12
2.00047e-12
1.84174e-12
1.66303e-12
1.47185e-12
1.27555e-12
1.08086e-12
8.93388e-13
7.17274e-13
5.54933e-13
4.06957e-13
2.72149e-13
1.47712e-13
1.04364e-15
4.01805e-18
3.96373e-18
1.02976e-15
1.45823e-13
2.68767e-13
4.02082e-13
5.48598e-13
7.09576e-13
8.84504e-13
1.07105e-12
1.26516e-12
1.4613e-12
1.65278e-12
1.83225e-12
1.99221e-12
2.12554e-12
2.22603e-12
2.28886e-12
2.31096e-12
2.29123e-12
2.23064e-12
2.13214e-12
2.00047e-12
1.84174e-12
1.66303e-12
1.47185e-12
1.27555e-12
1.08086e-12
8.93388e-13
7.17274e-13
5.54933e-13
4.06957e-13
2.72149e-13
1.47712e-13
1.04364e-15
4.01805e-18
3.96373e-18
1.02976e-15
1.45823e-13
2.68767e-13
4.02082e-13
5.48598e-13
7.09576e-13
8.84504e-13
1.07105e-12
1.26516e-12
1.4613e-12
1.65278e-12
1.83225e-12
1.99221e-12
2.12554e-12
2.22603e-12
2.28886e-12
2.31096e-12
2.29123e-12
2.23064e-12
2.13214e-12
2.00047e-12
1.84174e-12
1.66303e-12
1.47185e-12
1.27555e-12
1.08086e-12
8.93388e-13
7.17274e-13
5.54933e-13
4.06957e-13
2.72149e-13
1.47712e-13
1.04364e-15
4.01805e-18
3.96373e-18
1.02976e-15
1.45823e-13
2.68767e-13
4.02082e-13
5.48598e-13
7.09576e-13
8.84504e-13
1.07105e-12
1.26516e-12
1.4613e-12
1.65278e-12
1.83225e-12
1.99221e-12
2.12554e-12
2.22603e-12
2.28886e-12
2.31096e-12
2.29123e-12
2.23064e-12
2.13214e-12
2.00047e-12
1.84174e-12
1.66303e-12
1.47185e-12
1.27555e-12
1.08086e-12
8.93388e-13
7.17274e-13
5.54933e-13
4.06957e-13
2.72149e-13
1.47712e-13
1.04364e-15
4.01805e-18
3.96373e-18
1.02976e-15
1.45823e-13
2.68767e-13
4.02082e-13
5.48598e-13
7.09576e-13
8.84504e-13
1.07105e-12
1.26516e-12
1.4613e-12
1.65278e-12
1.83225e-12
1.99221e-12
2.12554e-12
2.22603e-12
2.28886e-12
2.31096e-12
2.29123e-12
2.23064e-12
2.13214e-12
2.00047e-12
1.84174e-12
1.66303e-12
1.47185e-12
1.27555e-12
1.08086e-12
8.93388e-13
7.17274e-13
5.54933e-13
4.06957e-13
2.72149e-13
1.47712e-13
1.04364e-15
4.01805e-18
3.96373e-18
1.02976e-15
1.45823e-13
2.68767e-13
4.02082e-13
5.48598e-13
7.09576e-13
8.84504e-13
1.07105e-12
1.26516e-12
1.4613e-12
1.65278e-12
1.83225e-12
1.99221e-12
2.12554e-12
2.22603e-12
2.28886e-12
2.31096e-12
2.29123e-12
2.23064e-12
2.13214e-12
2.00047e-12
1.84174e-12
1.66303e-12
1.47185e-12
1.27555e-12
1.08086e-12
8.93388e-13
7.17274e-13
5.54933e-13
4.06957e-13
2.72149e-13
1.47712e-13
1.04364e-15
4.01805e-18
3.96373e-18
1.02976e-15
1.45823e-13
2.68767e-13
4.02082e-13
5.48598e-13
7.09576e-13
8.84504e-13
1.07105e-12
1.26516e-12
1.4613e-12
1.65278e-12
1.83225e-12
1.99221e-12
2.12554e-12
2.22603e-12
2.28886e-12
2.31096e-12
2.29123e-12
2.23064e-12
2.13214e-12
2.00047e-12
1.84174e-12
1.66303e-12
1.47185e-12
1.27555e-12
1.08086e-12
8.93388e-13
7.17274e-13
5.54933e-13
4.06957e-13
2.72149e-13
1.47712e-13
1.04364e-15
4.01805e-18
3.96373e-18
1.02976e-15
1.45823e-13
2.68767e-13
4.02082e-13
5.48598e-13
7.09576e-13
8.84504e-13
1.07105e-12
1.26516e-12
1.4613e-12
1.65278e-12
1.83225e-12
1.99221e-12
2.12554e-12
2.22603e-12
2.28886e-12
2.31096e-12
2.29123e-12
2.23064e-12
2.13214e-12
2.00047e-12
1.84174e-12
1.66303e-12
1.47185e-12
1.27555e-12
1.08086e-12
8.93388e-13
7.17274e-13
5.54933e-13
4.06957e-13
2.72149e-13
1.47712e-13
1.04364e-15
4.01805e-18
3.96373e-18
1.02976e-15
1.45823e-13
2.68767e-13
4.02082e-13
5.48598e-13
7.09576e-13
8.84504e-13
1.07105e-12
1.26516e-12
1.4613e-12
1.65278e-12
1.83225e-12
1.99221e-12
2.12554e-12
2.22603e-12
2.28886e-12
2.31096e-12
2.29123e-12
2.23064e-12
2.13214e-12
2.00047e-12
1.84174e-12
1.66303e-12
1.47185e-12
1.27555e-12
1.08086e-12
8.93388e-13
7.17274e-13
5.54933e-13
4.06957e-13
2.72149e-13
1.47712e-13
1.04364e-15
4.01805e-18
3.96373e-18
1.02976e-15
1.45823e-13
2.68767e-13
4.02082e-13
5.48598e-13
7.09576e-13
8.84504e-13
1.07105e-12
1.26516e-12
1.4613e-12
1.65278e-12
1.83225e-12
1.99221e-12
2.12554e-12
2.22603e-12
2.28886e-12
2.31096e-12
2.29123e-12
2.23064e-12
2.13214e-12
2.00047e-12
1.84174e-12
1.66303e-12
1.47185e-12
1.27555e-12
1.08086e-12
8.93388e-13
7.17274e-13
5.54933e-13
4.06957e-13
2.72149e-13
1.47712e-13
1.04364e-15
4.01805e-18
3.96373e-18
1.02976e-15
1.45823e-13
2.68767e-13
4.02082e-13
5.48598e-13
7.09576e-13
8.84504e-13
1.07105e-12
1.26516e-12
1.4613e-12
1.65278e-12
1.83225e-12
1.99221e-12
2.12554e-12
2.22603e-12
2.28886e-12
2.31096e-12
2.29123e-12
2.23064e-12
2.13214e-12
2.00047e-12
1.84174e-12
1.66303e-12
1.47185e-12
1.27555e-12
1.08086e-12
8.93388e-13
7.17274e-13
5.54933e-13
4.06957e-13
2.72149e-13
1.47712e-13
1.04364e-15
4.01805e-18
3.96373e-18
1.02976e-15
1.45823e-13
2.68767e-13
4.02082e-13
5.48598e-13
7.09576e-13
8.84504e-13
1.07105e-12
1.26516e-12
1.4613e-12
1.65278e-12
1.83225e-12
1.99221e-12
2.12554e-12
2.22603e-12
2.28886e-12
2.31096e-12
2.29123e-12
2.23064e-12
2.13214e-12
2.00047e-12
1.84174e-12
1.66303e-12
1.47185e-12
1.27555e-12
1.08086e-12
8.93388e-13
7.17274e-13
5.54933e-13
4.06957e-13
2.72149e-13
1.47712e-13
1.04364e-15
4.01805e-18
3.96373e-18
1.02976e-15
1.45823e-13
2.68767e-13
4.02082e-13
5.48598e-13
7.09576e-13
8.84504e-13
1.07105e-12
1.26516e-12
1.4613e-12
1.65278e-12
1.83225e-12
1.99221e-12
2.12554e-12
2.22603e-12
2.28886e-12
2.31096e-12
2.29123e-12
2.23064e-12
2.13214e-12
2.00047e-12
1.84174e-12
1.66303e-12
1.47185e-12
1.27555e-12
1.08086e-12
8.93388e-13
7.17274e-13
5.54933e-13
4.06957e-13
2.72149e-13
1.47712e-13
1.04364e-15
4.01805e-18
3.96373e-18
1.02976e-15
1.45823e-13
2.68767e-13
4.02082e-13
5.48598e-13
7.09576e-13
8.84504e-13
1.07105e-12
1.26516e-12
1.4613e-12
1.65278e-12
1.83225e-12
1.99221e-12
2.12554e-12
2.22603e-12
2.28886e-12
2.31096e-12
2.29123e-12
2.23064e-12
2.13214e-12
2.00047e-12
1.84174e-12
1.66303e-12
1.47185e-12
1.27555e-12
1.08086e-12
8.93388e-13
7.17274e-13
5.54933e-13
4.06957e-13
2.72149e-13
1.47712e-13
1.04364e-15
4.01805e-18
3.96373e-18
1.02976e-15
1.45823e-13
2.68767e-13
4.02082e-13
5.48598e-13
7.09576e-13
8.84504e-13
1.07105e-12
1.26516e-12
1.4613e-12
1.65278e-12
1.83225e-12
1.99221e-12
2.12554e-12
2.22603e-12
2.28886e-12
2.31096e-12
2.29123e-12
2.23064e-12
2.13214e-12
2.00047e-12
1.84174e-12
1.66303e-12
1.47185e-12
1.27555e-12
1.08086e-12
8.93388e-13
7.17274e-13
5.54933e-13
4.06957e-13
2.72149e-13
1.47712e-13
1.04364e-15
4.01805e-18
3.96373e-18
1.02976e-15
1.45823e-13
2.68767e-13
4.02082e-13
5.48598e-13
7.09576e-13
8.84504e-13
1.07105e-12
1.26516e-12
1.4613e-12
1.65278e-12
1.83225e-12
1.99221e-12
2.12554e-12
2.22603e-12
2.28886e-12
2.31096e-12
2.29123e-12
2.23064e-12
2.13214e-12
2.00047e-12
1.84174e-12
1.66303e-12
1.47185e-12
1.27555e-12
1.08086e-12
8.93388e-13
7.17274e-13
5.54933e-13
4.06957e-13
2.72149e-13
1.47712e-13
1.04364e-15
4.01805e-18
3.96373e-18
1.02976e-15
1.45823e-13
2.68767e-13
4.02082e-13
5.48598e-13
7.09576e-13
8.84504e-13
1.07105e-12
1.26516e-12
1.4613e-12
1.65278e-12
1.83225e-12
1.99221e-12
2.12554e-12
2.22603e-12
2.28886e-12
2.31096e-12
2.29123e-12
2.23064e-12
2.13214e-12
2.00047e-12
1.84174e-12
1.66303e-12
1.47185e-12
1.27555e-12
1.08086e-12
8.93388e-13
7.17274e-13
5.54933e-13
4.06957e-13
2.72149e-13
1.47712e-13
1.04364e-15
4.01805e-18
3.96373e-18
1.02976e-15
1.45823e-13
2.68767e-13
4.02082e-13
5.48598e-13
7.09576e-13
8.84504e-13
1.07105e-12
1.26516e-12
1.4613e-12
1.65278e-12
1.83225e-12
1.99221e-12
2.12554e-12
2.22603e-12
2.28886e-12
2.31096e-12
2.29123e-12
2.23064e-12
2.13214e-12
2.00047e-12
1.84174e-12
1.66303e-12
1.47185e-12
1.27555e-12
1.08086e-12
8.93388e-13
7.17274e-13
5.54933e-13
4.06957e-13
2.72149e-13
1.47712e-13
1.04364e-15
4.01805e-18
3.96373e-18
1.02976e-15
1.45823e-13
2.68767e-13
4.02082e-13
5.48598e-13
7.09576e-13
8.84504e-13
1.07105e-12
1.26516e-12
1.4613e-12
1.65278e-12
1.83225e-12
1.99221e-12
2.12554e-12
2.22603e-12
2.28886e-12
2.31096e-12
2.29123e-12
2.23064e-12
2.13214e-12
2.00047e-12
1.84174e-12
1.66303e-12
1.47185e-12
1.27555e-12
1.08086e-12
8.93388e-13
7.17274e-13
5.54933e-13
4.06957e-13
2.72149e-13
1.47712e-13
1.04364e-15
4.01805e-18
3.96373e-18
1.02976e-15
1.45823e-13
2.68767e-13
4.02082e-13
5.48598e-13
7.09576e-13
8.84504e-13
1.07105e-12
1.26516e-12
1.4613e-12
1.65278e-12
1.83225e-12
1.99221e-12
2.12554e-12
2.22603e-12
2.28886e-12
2.31096e-12
2.29123e-12
2.23064e-12
2.13214e-12
2.00047e-12
1.84174e-12
1.66303e-12
1.47185e-12
1.27555e-12
1.08086e-12
8.93388e-13
7.17274e-13
5.54933e-13
4.06957e-13
2.72149e-13
1.47712e-13
1.04364e-15
4.01805e-18
3.96373e-18
1.02976e-15
1.45823e-13
2.68767e-13
4.02082e-13
5.48598e-13
7.09576e-13
8.84504e-13
1.07105e-12
1.26516e-12
1.4613e-12
1.65278e-12
1.83225e-12
1.99221e-12
2.12554e-12
2.22603e-12
2.28886e-12
2.31096e-12
2.29123e-12
2.23064e-12
2.13214e-12
2.00047e-12
1.84174e-12
1.66303e-12
1.47185e-12
1.27555e-12
1.08086e-12
8.93388e-13
7.17274e-13
5.54933e-13
4.06957e-13
2.72149e-13
1.47712e-13
1.04364e-15
4.01805e-18
3.96373e-18
1.02976e-15
1.45823e-13
2.68767e-13
4.02082e-13
5.48598e-13
7.09576e-13
8.84504e-13
1.07105e-12
1.26516e-12
1.4613e-12
1.65278e-12
1.83225e-12
1.99221e-12
2.12554e-12
2.22603e-12
2.28886e-12
2.31096e-12
2.29123e-12
2.23064e-12
2.13214e-12
2.00047e-12
1.84174e-12
1.66303e-12
1.47185e-12
1.27555e-12
1.08086e-12
8.93388e-13
7.17274e-13
5.54933e-13
4.06957e-13
2.72149e-13
1.47712e-13
1.04364e-15
4.01805e-18
3.96373e-18
1.02976e-15
1.45823e-13
2.68767e-13
4.02082e-13
5.48598e-13
7.09576e-13
8.84504e-13
1.07105e-12
1.26516e-12
1.4613e-12
1.65278e-12
1.83225e-12
1.99221e-12
2.12554e-12
2.22603e-12
2.28886e-12
2.31096e-12
2.29123e-12
2.23064e-12
2.13214e-12
2.00047e-12
1.84174e-12
1.66303e-12
1.47185e-12
1.27555e-12
1.08086e-12
8.93388e-13
7.17274e-13
5.54933e-13
4.06957e-13
2.72149e-13
1.47712e-13
1.04364e-15
4.01805e-18
3.96373e-18
1.02976e-15
1.45823e-13
2.68767e-13
4.02082e-13
5.48598e-13
7.09576e-13
8.84504e-13
1.07105e-12
1.26516e-12
1.4613e-12
1.65278e-12
1.83225e-12
1.99221e-12
2.12554e-12
2.22603e-12
2.28886e-12
2.31096e-12
2.29123e-12
2.23064e-12
2.13214e-12
2.00047e-12
1.84174e-12
1.66303e-12
1.47185e-12
1.27555e-12
1.08086e-12
8.93388e-13
7.17274e-13
5.54933e-13
4.06957e-13
2.72149e-13
1.47712e-13
1.04364e-15
4.01805e-18
3.96373e-18
1.02976e-15
1.45823e-13
2.68767e-13
4.02082e-13
5.48598e-13
7.09576e-13
8.84504e-13
1.07105e-12
1.26516e-12
1.4613e-12
1.65278e-12
1.83225e-12
1.99221e-12
2.12554e-12
2.22603e-12
2.28886e-12
2.31096e-12
2.29123e-12
2.23064e-12
2.13214e-12
2.00047e-12
1.84174e-12
1.66303e-12
1.47185e-12
1.27555e-12
1.08086e-12
8.93388e-13
7.17274e-13
5.54933e-13
4.06957e-13
2.72149e-13
1.47712e-13
1.04364e-15
4.01805e-18
3.96373e-18
1.02976e-15
1.45823e-13
2.68767e-13
4.02082e-13
5.48598e-13
7.09576e-13
8.84504e-13
1.07105e-12
1.26516e-12
1.4613e-12
1.65278e-12
1.83225e-12
1.99221e-12
2.12554e-12
2.22603e-12
2.28886e-12
2.31096e-12
2.29123e-12
2.23064e-12
2.13214e-12
2.00047e-12
1.84174e-12
1.66303e-12
1.47185e-12
1.27555e-12
1.08086e-12
8.93388e-13
7.17274e-13
5.54933e-13
4.06957e-13
2.72149e-13
1.47712e-13
1.04364e-15
4.01805e-18
3.96373e-18
1.02976e-15
1.45823e-13
2.68767e-13
4.02082e-13
5.48598e-13
7.09576e-13
8.84504e-13
1.07105e-12
1.26516e-12
1.4613e-12
1.65278e-12
1.83225e-12
1.99221e-12
2.12554e-12
2.22603e-12
2.28886e-12
2.31096e-12
2.29123e-12
2.23064e-12
2.13214e-12
2.00047e-12
1.84174e-12
1.66303e-12
1.47185e-12
1.27555e-12
1.08086e-12
8.93388e-13
7.17274e-13
5.54933e-13
4.06957e-13
2.72149e-13
1.47712e-13
1.04364e-15
4.01805e-18
3.96373e-18
1.02976e-15
1.45823e-13
2.68767e-13
4.02082e-13
5.48598e-13
7.09576e-13
8.84504e-13
1.07105e-12
1.26516e-12
1.4613e-12
1.65278e-12
1.83225e-12
1.99221e-12
2.12554e-12
2.22603e-12
2.28886e-12
2.31096e-12
2.29123e-12
2.23064e-12
2.13214e-12
2.00047e-12
1.84174e-12
1.66303e-12
1.47185e-12
1.27555e-12
1.08086e-12
8.93388e-13
7.17274e-13
5.54933e-13
4.06957e-13
2.72149e-13
1.47712e-13
1.04364e-15
4.01805e-18
3.96373e-18
1.02976e-15
1.45823e-13
2.68767e-13
4.02082e-13
5.48598e-13
7.09576e-13
8.84504e-13
1.07105e-12
1.26516e-12
1.4613e-12
1.65278e-12
1.83225e-12
1.99221e-12
2.12554e-12
2.22603e-12
2.28886e-12
2.31096e-12
2.29123e-12
2.23064e-12
2.13214e-12
2.00047e-12
1.84174e-12
1.66303e-12
1.47185e-12
1.27555e-12
1.08086e-12
8.93388e-13
7.17274e-13
5.54933e-13
4.06957e-13
2.72149e-13
1.47712e-13
1.04364e-15
4.01805e-18
3.96373e-18
1.02976e-15
1.45823e-13
2.68767e-13
4.02082e-13
5.48598e-13
7.09576e-13
8.84504e-13
1.07105e-12
1.26516e-12
1.4613e-12
1.65278e-12
1.83225e-12
1.99221e-12
2.12554e-12
2.22603e-12
2.28886e-12
2.31096e-12
2.29123e-12
2.23064e-12
2.13214e-12
2.00047e-12
1.84174e-12
1.66303e-12
1.47185e-12
1.27555e-12
1.08086e-12
8.93388e-13
7.17274e-13
5.54933e-13
4.06957e-13
2.72149e-13
1.47712e-13
1.04364e-15
4.01805e-18
3.96373e-18
1.02976e-15
1.45823e-13
2.68767e-13
4.02082e-13
5.48598e-13
7.09576e-13
8.84504e-13
1.07105e-12
1.26516e-12
1.4613e-12
1.65278e-12
1.83225e-12
1.99221e-12
2.12554e-12
2.22603e-12
2.28886e-12
2.31096e-12
2.29123e-12
2.23064e-12
2.13214e-12
2.00047e-12
1.84174e-12
1.66303e-12
1.47185e-12
1.27555e-12
1.08086e-12
8.93388e-13
7.17274e-13
5.54933e-13
4.06957e-13
2.72149e-13
1.47712e-13
1.04364e-15
4.01805e-18
3.96373e-18
1.02976e-15
1.45823e-13
2.68767e-13
4.02082e-13
5.48598e-13
7.09576e-13
8.84504e-13
1.07105e-12
1.26516e-12
1.4613e-12
1.65278e-12
1.83225e-12
1.99221e-12
2.12554e-12
2.22603e-12
2.28886e-12
2.31096e-12
2.29123e-12
2.23064e-12
2.13214e-12
2.00047e-12
1.84174e-12
1.66303e-12
1.47185e-12
1.27555e-12
1.08086e-12
8.93388e-13
7.17274e-13
5.54933e-13
4.06957e-13
2.72149e-13
1.47712e-13
1.04364e-15
4.01805e-18
3.96373e-18
1.02976e-15
1.45823e-13
2.68767e-13
4.02082e-13
5.48598e-13
7.09576e-13
8.84504e-13
1.07105e-12
1.26516e-12
1.4613e-12
1.65278e-12
1.83225e-12
1.99221e-12
2.12554e-12
2.22603e-12
2.28886e-12
2.31096e-12
2.29123e-12
2.23064e-12
2.13214e-12
2.00047e-12
1.84174e-12
1.66303e-12
1.47185e-12
1.27555e-12
1.08086e-12
8.93388e-13
7.17274e-13
5.54933e-13
4.06957e-13
2.72149e-13
1.47712e-13
1.04364e-15
4.01805e-18
3.96373e-18
1.02976e-15
1.45823e-13
2.68767e-13
4.02082e-13
5.48598e-13
7.09576e-13
8.84504e-13
1.07105e-12
1.26516e-12
1.4613e-12
1.65278e-12
1.83225e-12
1.99221e-12
2.12554e-12
2.22603e-12
2.28886e-12
2.31096e-12
2.29123e-12
2.23064e-12
2.13214e-12
2.00047e-12
1.84174e-12
1.66303e-12
1.47185e-12
1.27555e-12
1.08086e-12
8.93388e-13
7.17274e-13
5.54933e-13
4.06957e-13
2.72149e-13
1.47712e-13
1.04364e-15
4.01805e-18
3.96373e-18
1.02976e-15
1.45823e-13
2.68767e-13
4.02082e-13
5.48598e-13
7.09576e-13
8.84504e-13
1.07105e-12
1.26516e-12
1.4613e-12
1.65278e-12
1.83225e-12
1.99221e-12
2.12554e-12
2.22603e-12
2.28886e-12
2.31096e-12
2.29123e-12
2.23064e-12
2.13214e-12
2.00047e-12
1.84174e-12
1.66303e-12
1.47185e-12
1.27555e-12
1.08086e-12
8.93388e-13
7.17274e-13
5.54933e-13
4.06957e-13
2.72149e-13
1.47712e-13
1.04364e-15
4.01805e-18
3.96373e-18
1.02976e-15
1.45823e-13
2.68767e-13
4.02082e-13
5.48598e-13
7.09576e-13
8.84504e-13
1.07105e-12
1.26516e-12
1.4613e-12
1.65278e-12
1.83225e-12
1.99221e-12
2.12554e-12
2.22603e-12
2.28886e-12
2.31096e-12
2.29123e-12
2.23064e-12
2.13214e-12
2.00047e-12
1.84174e-12
1.66303e-12
1.47185e-12
1.27555e-12
1.08086e-12
8.93388e-13
7.17274e-13
5.54933e-13
4.06957e-13
2.72149e-13
1.47712e-13
1.04364e-15
4.01805e-18
3.96373e-18
1.02976e-15
1.45823e-13
2.68767e-13
4.02082e-13