/*--------------------------------*- C++ -*----------------------------------*\
  =========                 |
  \\      /  F ield         | OpenFOAM: The Open Source CFD Toolbox
   \\    /   O peration     | Website:  https://openfoam.org
    \\  /    A nd           | Version:  13
     \\/     M anipulation  |
\*---------------------------------------------------------------------------*/
FoamFile
{
    format      ascii;
    class       volScalarField;
    location    "175";
    object      nut;
}
// * * * * * * * * * * * * * * * * * * * * * * * * * * * * * * * * * * * * * //

dimensions      [0 2 -1 0 0 0 0];

internalField   nonuniform List<scalar> 
315000
(
2.87209e-16
7.52421e-14
1.71759e-12
3.08462e-12
4.47648e-12
5.89712e-12
7.35117e-12
8.84278e-12
1.0375e-11
1.19496e-11
1.35666e-11
1.52247e-11
1.6921e-11
1.86508e-11
2.04084e-11
2.21863e-11
2.39762e-11
2.57682e-11
2.75521e-11
2.93164e-11
3.10495e-11
3.27392e-11
3.43731e-11
3.59389e-11
3.74244e-11
3.88179e-11
4.01081e-11
4.12843e-11
4.23367e-11
4.32566e-11
4.40361e-11
4.46684e-11
4.51482e-11
4.54714e-11
4.56351e-11
4.56378e-11
4.54797e-11
4.51619e-11
4.46874e-11
4.40602e-11
4.32856e-11
4.23704e-11
4.13223e-11
4.01501e-11
3.88635e-11
3.74732e-11
3.59905e-11
3.4427e-11
3.2795e-11
3.11067e-11
2.93745e-11
2.76105e-11
2.58267e-11
2.40341e-11
2.22433e-11
2.0464e-11
1.87047e-11
1.69727e-11
1.52739e-11
1.3613e-11
1.19929e-11
1.04151e-11
8.8792e-12
7.38368e-12
5.92537e-12
4.50003e-12
3.10282e-12
1.7293e-12
7.58521e-14
2.89755e-16
7.19421e-15
1.91649e-12
4.36703e-10
7.90499e-10
1.14932e-09
1.51503e-09
1.88925e-09
2.27323e-09
2.66787e-09
3.07368e-09
3.49072e-09
3.91866e-09
4.35673e-09
4.80377e-09
5.25824e-09
5.71823e-09
6.18153e-09
6.64562e-09
7.10776e-09
7.56502e-09
8.01431e-09
8.45246e-09
8.87624e-09
9.28245e-09
9.66789e-09
1.00295e-08
1.03643e-08
1.06696e-08
1.09428e-08
1.11816e-08
1.13839e-08
1.1548e-08
1.16725e-08
1.17563e-08
1.17987e-08
1.17993e-08
1.17582e-08
1.16755e-08
1.15522e-08
1.13892e-08
1.1188e-08
1.09502e-08
1.0678e-08
1.03736e-08
1.00396e-08
9.67865e-09
9.2938e-09
8.8881e-09
8.46471e-09
8.02684e-09
7.57773e-09
7.12054e-09
6.65836e-09
6.19413e-09
5.73059e-09
5.27026e-09
4.81537e-09
4.36781e-09
3.92915e-09
3.50054e-09
3.08277e-09
2.67616e-09
2.28065e-09
1.89574e-09
1.52052e-09
1.15372e-09
7.93707e-10
4.38591e-10
1.92532e-12
7.22829e-15
2.90624e-14
7.7533e-12
4.50488e-09
8.16423e-09
1.18819e-08
1.5681e-08
1.95817e-08
2.36003e-08
2.7749e-08
3.20351e-08
3.64612e-08
4.10244e-08
4.57171e-08
5.05266e-08
5.54356e-08
6.04225e-08
6.54617e-08
7.05245e-08
7.55791e-08
8.05917e-08
8.55268e-08
9.03478e-08
9.50177e-08
9.94994e-08
1.03757e-07
1.07755e-07
1.11459e-07
1.14839e-07
1.17865e-07
1.2051e-07
1.22753e-07
1.24572e-07
1.25952e-07
1.26881e-07
1.2735e-07
1.27356e-07
1.26897e-07
1.25979e-07
1.2461e-07
1.228e-07
1.20567e-07
1.17931e-07
1.14913e-07
1.11541e-07
1.07844e-07
1.03852e-07
9.95999e-08
9.51223e-08
9.04557e-08
8.5637e-08
8.07032e-08
7.56909e-08
7.06355e-08
6.55711e-08
6.05293e-08
5.5539e-08
5.06258e-08
4.58113e-08
4.11129e-08
3.65435e-08
3.21106e-08
2.78171e-08
2.36607e-08
1.96338e-08
1.57244e-08
1.19161e-08
8.1887e-09
4.51896e-09
7.77859e-12
2.91589e-14
5.54814e-14
1.48025e-11
8.60218e-09
1.56007e-08
2.27316e-08
3.00489e-08
3.76001e-08
4.54252e-08
5.35546e-08
6.20089e-08
7.07975e-08
7.99186e-08
8.93588e-08
9.90934e-08
1.09087e-07
1.19293e-07
1.29657e-07
1.40115e-07
1.50599e-07
1.61033e-07
1.71338e-07
1.81434e-07
1.91237e-07
2.00667e-07
2.09642e-07
2.18084e-07
2.25918e-07
2.33075e-07
2.39488e-07
2.451e-07
2.4986e-07
2.53723e-07
2.56655e-07
2.58627e-07
2.59623e-07
2.59632e-07
2.58655e-07
2.567e-07
2.53786e-07
2.4994e-07
2.45197e-07
2.396e-07
2.33201e-07
2.26057e-07
2.18235e-07
2.09803e-07
2.00836e-07
1.91413e-07
1.81614e-07
1.71522e-07
1.61218e-07
1.50785e-07
1.40299e-07
1.29838e-07
1.19469e-07
1.09257e-07
9.92557e-08
8.95123e-08
8.00622e-08
7.09302e-08
6.21298e-08
5.36631e-08
4.55206e-08
3.7682e-08
3.01165e-08
2.27846e-08
1.56383e-08
8.62368e-09
1.4841e-11
5.56283e-14
8.6769e-14
2.31517e-11
1.34551e-08
2.44133e-08
3.56021e-08
4.71173e-08
5.90441e-08
7.14544e-08
8.44047e-08
9.79342e-08
1.12064e-07
1.26794e-07
1.42106e-07
1.57962e-07
1.74304e-07
1.91056e-07
2.08126e-07
2.25408e-07
2.42784e-07
2.60127e-07
2.77305e-07
2.94181e-07
3.10613e-07
3.26458e-07
3.41575e-07
3.55825e-07
3.69074e-07
3.81195e-07
3.92073e-07
4.01602e-07
4.09691e-07
4.16261e-07
4.21248e-07
4.24604e-07
4.26297e-07
4.2631e-07
4.24642e-07
4.21311e-07
4.16348e-07
4.09801e-07
4.01735e-07
3.92226e-07
3.81367e-07
3.69263e-07
3.5603e-07
3.41794e-07
3.26688e-07
3.10851e-07
2.94426e-07
2.77555e-07
2.60379e-07
2.43035e-07
2.25657e-07
2.08371e-07
1.91294e-07
1.74533e-07
1.58181e-07
1.42312e-07
1.26986e-07
1.12241e-07
9.80952e-08
8.45487e-08
7.15807e-08
5.9152e-08
4.72062e-08
3.56714e-08
2.44623e-08
1.34831e-08
2.32018e-11
8.69604e-14
1.21495e-13
3.24189e-11
1.88405e-08
3.41918e-08
4.98844e-08
6.60621e-08
8.28529e-08
1.00365e-07
1.18685e-07
1.37873e-07
1.57961e-07
1.78954e-07
2.00825e-07
2.23521e-07
2.46958e-07
2.71026e-07
2.9559e-07
3.20497e-07
3.45575e-07
3.70645e-07
3.95513e-07
4.19982e-07
4.43842e-07
4.66883e-07
4.88891e-07
5.09658e-07
5.28982e-07
5.46674e-07
5.6256e-07
5.76483e-07
5.88305e-07
5.97908e-07
6.05199e-07
6.10105e-07
6.12578e-07
6.12593e-07
6.10151e-07
6.05275e-07
5.98013e-07
5.88438e-07
5.76643e-07
5.62746e-07
5.46883e-07
5.29212e-07
5.09906e-07
4.89156e-07
4.67161e-07
4.44131e-07
4.20278e-07
3.95815e-07
3.70949e-07
3.45879e-07
3.20797e-07
2.95885e-07
2.71312e-07
2.47234e-07
2.23784e-07
2.01074e-07
1.79185e-07
1.58174e-07
1.38066e-07
1.18858e-07
1.00517e-07
8.2982e-08
6.61682e-08
4.9967e-08
3.42501e-08
1.88737e-08
3.24785e-11
1.21722e-13
1.57524e-13
4.20345e-11
2.44265e-08
4.43308e-08
6.46882e-08
8.56923e-08
1.07515e-07
1.30302e-07
1.54167e-07
1.79193e-07
2.05422e-07
2.32858e-07
2.61468e-07
2.91178e-07
3.21873e-07
3.53408e-07
3.85601e-07
4.18249e-07
4.51127e-07
4.83997e-07
5.1661e-07
5.48703e-07
5.80004e-07
6.10232e-07
6.39108e-07
6.66354e-07
6.91706e-07
7.14916e-07
7.35754e-07
7.54015e-07
7.69518e-07
7.82111e-07
7.91669e-07
7.981e-07
8.0134e-07
8.01357e-07
7.98152e-07
7.91754e-07
7.82228e-07
7.69667e-07
7.54194e-07
7.35961e-07
7.15149e-07
6.91963e-07
6.66632e-07
6.39404e-07
6.10543e-07
5.80327e-07
5.49035e-07
5.16948e-07
4.84338e-07
4.51467e-07
4.18586e-07
3.85932e-07
3.5373e-07
3.22183e-07
2.91473e-07
2.61747e-07
2.33118e-07
2.05661e-07
1.7941e-07
1.54362e-07
1.30471e-07
1.07659e-07
8.5811e-08
6.47804e-08
4.43958e-08
2.44635e-08
4.2101e-11
1.57779e-13
1.92747e-13
5.14353e-11
2.98858e-08
5.42355e-08
7.91438e-08
1.04852e-07
1.31574e-07
1.5949e-07
1.88742e-07
2.19428e-07
2.51601e-07
2.85264e-07
3.2037e-07
3.56824e-07
3.94482e-07
4.33156e-07
4.72622e-07
5.12623e-07
5.52885e-07
5.93115e-07
6.33008e-07
6.72244e-07
7.10492e-07
7.47411e-07
7.82661e-07
8.15905e-07
8.46824e-07
8.75118e-07
9.0051e-07
9.22754e-07
9.41633e-07
9.56963e-07
9.68597e-07
9.76422e-07
9.80362e-07
9.80381e-07
9.76476e-07
9.68687e-07
9.57088e-07
9.41791e-07
9.22944e-07
9.0073e-07
8.75365e-07
8.47097e-07
8.162e-07
7.82975e-07
7.47742e-07
7.10836e-07
6.72598e-07
6.33368e-07
5.93478e-07
5.53248e-07
5.12983e-07
4.72975e-07
4.335e-07
3.94814e-07
3.5714e-07
3.20669e-07
2.85543e-07
2.51858e-07
2.19661e-07
1.8895e-07
1.59671e-07
1.31728e-07
1.04979e-07
7.92421e-08
5.43048e-08
2.99252e-08
5.15064e-11
1.93019e-13
2.25428e-13
6.01584e-11
3.49499e-08
6.34194e-08
9.25419e-08
1.22602e-07
1.53853e-07
1.86505e-07
2.20724e-07
2.56624e-07
2.94263e-07
3.33641e-07
3.74698e-07
4.17316e-07
4.61322e-07
5.06489e-07
5.52547e-07
5.99197e-07
6.46112e-07
6.92953e-07
7.39365e-07
7.84979e-07
8.29411e-07
8.72269e-07
9.13161e-07
9.51704e-07
9.8753e-07
1.0203e-06
1.04969e-06
1.07543e-06
1.09726e-06
1.11499e-06
1.12844e-06
1.13748e-06
1.14204e-06
1.14205e-06
1.13754e-06
1.12853e-06
1.11512e-06
1.09743e-06
1.07562e-06
1.04992e-06
1.02055e-06
9.8781e-07
9.52007e-07
9.13485e-07
8.72609e-07
8.29765e-07
7.85343e-07
7.39736e-07
6.93328e-07
6.46487e-07
5.99568e-07
5.52913e-07
5.06844e-07
4.61665e-07
4.17644e-07
3.75007e-07
3.3393e-07
2.94529e-07
2.56866e-07
2.20939e-07
1.86693e-07
1.54012e-07
1.22733e-07
9.26432e-08
6.34907e-08
3.49904e-08
6.02317e-11
2.2571e-13
2.54343e-13
6.78769e-11
3.94296e-08
7.15408e-08
1.04386e-07
1.38288e-07
1.73534e-07
2.10361e-07
2.48955e-07
2.89442e-07
3.31884e-07
3.76276e-07
4.22548e-07
4.70558e-07
5.20104e-07
5.70925e-07
6.22713e-07
6.75125e-07
7.27794e-07
7.80338e-07
8.32359e-07
8.83446e-07
9.33173e-07
9.81106e-07
1.02681e-06
1.06986e-06
1.10986e-06
1.14642e-06
1.17921e-06
1.2079e-06
1.23224e-06
1.25199e-06
1.26697e-06
1.27705e-06
1.28212e-06
1.28213e-06
1.2771e-06
1.26707e-06
1.25212e-06
1.2324e-06
1.2081e-06
1.17943e-06
1.14668e-06
1.11014e-06
1.07017e-06
1.02714e-06
9.81448e-07
9.33529e-07
8.83813e-07
8.32733e-07
7.80715e-07
7.28172e-07
6.755e-07
6.23082e-07
5.71285e-07
5.20451e-07
4.70889e-07
4.22861e-07
3.76569e-07
3.32153e-07
2.89686e-07
2.49173e-07
2.10551e-07
1.73695e-07
1.3842e-07
1.04488e-07
7.16124e-08
3.94702e-08
6.79506e-11
2.54627e-13
2.7881e-13
7.44089e-11
4.32199e-08
7.84105e-08
1.14402e-07
1.51551e-07
1.90171e-07
2.30522e-07
2.72807e-07
3.17161e-07
3.6365e-07
4.12263e-07
4.62918e-07
5.15455e-07
5.69647e-07
6.25201e-07
6.81776e-07
7.38995e-07
7.96454e-07
8.53737e-07
9.10412e-07
9.66031e-07
1.02013e-06
1.07226e-06
1.12193e-06
1.16869e-06
1.21211e-06
1.2518e-06
1.28736e-06
1.31848e-06
1.34487e-06
1.36628e-06
1.38252e-06
1.39343e-06
1.39892e-06
1.39894e-06
1.39349e-06
1.38261e-06
1.36641e-06
1.34503e-06
1.31868e-06
1.28759e-06
1.25205e-06
1.21239e-06
1.16899e-06
1.12225e-06
1.07259e-06
1.02049e-06
9.66395e-07
9.10783e-07
8.54112e-07
7.9683e-07
7.39368e-07
6.82143e-07
6.25559e-07
5.69992e-07
5.15785e-07
4.6323e-07
4.12554e-07
3.63918e-07
3.17404e-07
2.73023e-07
2.30711e-07
1.9033e-07
1.51682e-07
1.14503e-07
7.84812e-08
4.326e-08
7.44818e-11
2.79092e-13
2.98651e-13
7.97065e-11
4.62936e-08
8.39804e-08
1.22522e-07
1.62302e-07
2.03655e-07
2.46861e-07
2.92135e-07
3.3962e-07
3.89383e-07
4.4141e-07
4.95608e-07
5.51801e-07
6.0974e-07
6.69109e-07
7.29538e-07
7.9062e-07
8.51926e-07
9.13009e-07
9.73409e-07
1.03265e-06
1.09025e-06
1.14572e-06
1.19855e-06
1.24827e-06
1.29442e-06
1.33658e-06
1.37436e-06
1.4074e-06
1.43542e-06
1.45815e-06
1.47538e-06
1.48696e-06
1.49278e-06
1.4928e-06
1.48701e-06
1.47547e-06
1.45827e-06
1.43558e-06
1.40759e-06
1.37458e-06
1.33683e-06
1.29469e-06
1.24856e-06
1.19886e-06
1.14605e-06
1.0906e-06
1.03301e-06
9.73775e-07
9.13378e-07
8.52296e-07
7.90988e-07
7.29899e-07
6.69461e-07
6.10081e-07
5.52127e-07
4.95915e-07
4.41697e-07
3.89647e-07
3.39859e-07
2.92348e-07
2.47046e-07
2.03812e-07
1.6243e-07
1.22621e-07
8.40496e-08
4.63328e-08
7.9778e-11
2.98927e-13
3.14095e-13
8.38307e-11
4.86864e-08
8.83159e-08
1.28842e-07
1.70669e-07
2.1415e-07
2.59578e-07
3.07179e-07
3.57101e-07
4.09413e-07
4.64097e-07
5.21051e-07
5.80087e-07
6.40939e-07
7.03271e-07
7.6669e-07
8.3077e-07
8.95056e-07
9.59081e-07
1.02236e-06
1.08441e-06
1.14471e-06
1.20275e-06
1.25802e-06
1.31002e-06
1.35827e-06
1.40234e-06
1.44182e-06
1.47635e-06
1.50562e-06
1.52936e-06
1.54735e-06
1.55945e-06
1.56553e-06
1.56555e-06
1.5595e-06
1.54744e-06
1.52948e-06
1.50577e-06
1.47654e-06
1.44204e-06
1.40259e-06
1.35854e-06
1.31031e-06
1.25833e-06
1.20308e-06
1.14505e-06
1.08476e-06
1.02272e-06
9.59443e-07
8.95419e-07
8.3113e-07
7.67045e-07
7.03617e-07
6.41274e-07
5.80407e-07
5.21353e-07
4.64379e-07
4.09673e-07
3.57336e-07
3.07388e-07
2.5976e-07
2.14303e-07
1.70794e-07
1.28939e-07
8.83835e-08
4.87246e-08
8.39006e-11
3.14365e-13
3.2565e-13
8.69172e-11
5.04771e-08
9.15605e-08
1.33572e-07
1.76931e-07
2.22005e-07
2.69098e-07
3.18442e-07
3.70191e-07
4.24414e-07
4.8109e-07
5.4011e-07
6.01278e-07
6.64313e-07
7.28864e-07
7.94524e-07
8.60846e-07
9.27363e-07
9.93588e-07
1.05903e-06
1.12317e-06
1.18548e-06
1.24545e-06
1.30254e-06
1.35624e-06
1.40606e-06
1.45155e-06
1.4923e-06
1.52793e-06
1.55813e-06
1.58263e-06
1.60119e-06
1.61367e-06
1.61994e-06
1.61996e-06
1.61372e-06
1.60128e-06
1.58275e-06
1.55829e-06
1.52812e-06
1.49251e-06
1.45179e-06
1.40632e-06
1.35652e-06
1.30284e-06
1.24577e-06
1.18582e-06
1.12351e-06
1.05938e-06
9.93944e-07
9.27719e-07
8.612e-07
7.94872e-07
7.29204e-07
6.64642e-07
6.01592e-07
5.40407e-07
4.81367e-07
4.24669e-07
3.70423e-07
3.18648e-07
2.69276e-07
2.22156e-07
1.77054e-07
1.33667e-07
9.16265e-08
5.05145e-08
8.69856e-11
3.25915e-13
3.33973e-13
8.91408e-11
5.17673e-08
9.38982e-08
1.3698e-07
1.81445e-07
2.27667e-07
2.75961e-07
3.26565e-07
3.79634e-07
4.35237e-07
4.93353e-07
5.53868e-07
6.16577e-07
6.81191e-07
7.47348e-07
8.14627e-07
8.82573e-07
9.50702e-07
1.01852e-06
1.08551e-06
1.15117e-06
1.21494e-06
1.2763e-06
1.3347e-06
1.38963e-06
1.44058e-06
1.4871e-06
1.52877e-06
1.5652e-06
1.59607e-06
1.62111e-06
1.64009e-06
1.65284e-06
1.65925e-06
1.65927e-06
1.65289e-06
1.64017e-06
1.62123e-06
1.59622e-06
1.56538e-06
1.52897e-06
1.48734e-06
1.44084e-06
1.38991e-06
1.335e-06
1.27661e-06
1.21527e-06
1.15151e-06
1.08586e-06
1.01887e-06
9.51053e-07
8.82922e-07
8.14971e-07
7.47683e-07
6.81515e-07
6.16887e-07
5.5416e-07
4.93626e-07
4.35488e-07
3.79861e-07
3.26767e-07
2.76137e-07
2.27816e-07
1.81565e-07
1.37073e-07
9.39628e-08
5.18039e-08
8.92079e-11
3.34233e-13
3.39752e-13
9.0685e-11
5.26634e-08
9.55219e-08
1.39348e-07
1.8458e-07
2.31603e-07
2.80733e-07
3.32213e-07
3.86202e-07
4.42769e-07
5.0189e-07
5.63448e-07
6.27234e-07
6.92952e-07
7.60231e-07
8.28643e-07
8.97723e-07
9.66979e-07
1.03591e-06
1.10399e-06
1.1707e-06
1.2355e-06
1.29783e-06
1.35715e-06
1.41293e-06
1.46468e-06
1.51192e-06
1.55423e-06
1.59122e-06
1.62256e-06
1.64798e-06
1.66724e-06
1.68019e-06
1.6867e-06
1.68672e-06
1.68024e-06
1.66733e-06
1.64809e-06
1.62271e-06
1.59139e-06
1.55443e-06
1.51215e-06
1.46494e-06
1.41321e-06
1.35745e-06
1.29814e-06
1.23582e-06
1.17104e-06
1.10434e-06
1.03625e-06
9.67326e-07
8.98067e-07
8.28983e-07
7.60562e-07
6.93272e-07
6.2754e-07
5.63737e-07
5.0216e-07
4.43017e-07
3.86427e-07
3.32413e-07
2.80906e-07
2.31749e-07
1.84699e-07
1.39439e-07
9.55855e-08
5.26994e-08
9.0751e-11
3.40008e-13
3.43624e-13
9.172e-11
5.32641e-08
9.66106e-08
1.40936e-07
1.86684e-07
2.34243e-07
2.83936e-07
3.36006e-07
3.90614e-07
4.4783e-07
5.07629e-07
5.69892e-07
6.34406e-07
7.00869e-07
7.68906e-07
8.38084e-07
9.07931e-07
9.77951e-07
1.04763e-06
1.11646e-06
1.18388e-06
1.24937e-06
1.31235e-06
1.3723e-06
1.42867e-06
1.48095e-06
1.52867e-06
1.57141e-06
1.60878e-06
1.64045e-06
1.66612e-06
1.68558e-06
1.69866e-06
1.70523e-06
1.70525e-06
1.69871e-06
1.68567e-06
1.66624e-06
1.64059e-06
1.60896e-06
1.57162e-06
1.5289e-06
1.4812e-06
1.42894e-06
1.37259e-06
1.31266e-06
1.24969e-06
1.18421e-06
1.11679e-06
1.04798e-06
9.78295e-07
9.08273e-07
8.38421e-07
7.69234e-07
7.01186e-07
6.34709e-07
5.70179e-07
5.07897e-07
4.48076e-07
3.90837e-07
3.36204e-07
2.84107e-07
2.34388e-07
1.86801e-07
1.41026e-07
9.66735e-08
5.32997e-08
9.17853e-11
3.43877e-13
3.46131e-13
9.23904e-11
5.36533e-08
9.7316e-08
1.41965e-07
1.88047e-07
2.35956e-07
2.86014e-07
3.38468e-07
3.9348e-07
4.51119e-07
5.1136e-07
5.74083e-07
6.39072e-07
7.06022e-07
7.74556e-07
8.44236e-07
9.14585e-07
9.85105e-07
1.05528e-06
1.12459e-06
1.19248e-06
1.25842e-06
1.32184e-06
1.38219e-06
1.43894e-06
1.49158e-06
1.53962e-06
1.58265e-06
1.62026e-06
1.65214e-06
1.67798e-06
1.69757e-06
1.71073e-06
1.71735e-06
1.71737e-06
1.71078e-06
1.69766e-06
1.6781e-06
1.65228e-06
1.62044e-06
1.58285e-06
1.53985e-06
1.49183e-06
1.43921e-06
1.38248e-06
1.32215e-06
1.25874e-06
1.19281e-06
1.12492e-06
1.05562e-06
9.85447e-07
9.14925e-07
8.4457e-07
7.74883e-07
7.06338e-07
6.39373e-07
5.74368e-07
5.11627e-07
4.51364e-07
3.93701e-07
3.38665e-07
2.86184e-07
2.36099e-07
1.88164e-07
1.42054e-07
9.73784e-08
5.36886e-08
9.24553e-11
3.46383e-13
3.47702e-13
9.28105e-11
5.38973e-08
9.77582e-08
1.4261e-07
1.88903e-07
2.3703e-07
2.87318e-07
3.40015e-07
3.95281e-07
4.53187e-07
5.13708e-07
5.76722e-07
6.42011e-07
7.0927e-07
7.78119e-07
8.48116e-07
9.18784e-07
9.89621e-07
1.06011e-06
1.12972e-06
1.19792e-06
1.26414e-06
1.32784e-06
1.38845e-06
1.44544e-06
1.4983e-06
1.54655e-06
1.58976e-06
1.62753e-06
1.65954e-06
1.68549e-06
1.70517e-06
1.71838e-06
1.72503e-06
1.72504e-06
1.71843e-06
1.70525e-06
1.68561e-06
1.65968e-06
1.62771e-06
1.58996e-06
1.54678e-06
1.49855e-06
1.44572e-06
1.38874e-06
1.32815e-06
1.26446e-06
1.19825e-06
1.13006e-06
1.06045e-06
9.89962e-07
9.19123e-07
8.4845e-07
7.78444e-07
7.09585e-07
6.42312e-07
5.77006e-07
5.13973e-07
4.53431e-07
3.95501e-07
3.4021e-07
2.87488e-07
2.37173e-07
1.89019e-07
1.42699e-07
9.78204e-08
5.39324e-08
9.28751e-11
3.47953e-13
3.48656e-13
9.30656e-11
5.40454e-08
9.80268e-08
1.43002e-07
1.89422e-07
2.37684e-07
2.88112e-07
3.40956e-07
3.96378e-07
4.54447e-07
5.15139e-07
5.78331e-07
6.43805e-07
7.11254e-07
7.80295e-07
8.50489e-07
9.21353e-07
9.92385e-07
1.06307e-06
1.13287e-06
1.20125e-06
1.26765e-06
1.33152e-06
1.39229e-06
1.44943e-06
1.50243e-06
1.5508e-06
1.59412e-06
1.632e-06
1.66409e-06
1.69011e-06
1.70983e-06
1.72308e-06
1.72974e-06
1.72976e-06
1.72313e-06
1.70991e-06
1.69022e-06
1.66423e-06
1.63217e-06
1.59432e-06
1.55103e-06
1.50268e-06
1.4497e-06
1.39258e-06
1.33182e-06
1.26797e-06
1.20158e-06
1.1332e-06
1.06341e-06
9.92725e-07
9.21691e-07
8.50821e-07
7.8062e-07
7.11568e-07
6.44105e-07
5.78615e-07
5.15404e-07
4.5469e-07
3.96598e-07
3.41151e-07
2.88281e-07
2.37826e-07
1.89538e-07
1.43091e-07
9.80888e-08
5.40804e-08
9.313e-11
3.48906e-13
3.49217e-13
9.32157e-11
5.41326e-08
9.81849e-08
1.43233e-07
1.89729e-07
2.38069e-07
2.8858e-07
3.41511e-07
3.97025e-07
4.55192e-07
5.15985e-07
5.79283e-07
6.44867e-07
7.12429e-07
7.81586e-07
8.51895e-07
9.22877e-07
9.94026e-07
1.06482e-06
1.13474e-06
1.20323e-06
1.26974e-06
1.3337e-06
1.39457e-06
1.45181e-06
1.50489e-06
1.55334e-06
1.59672e-06
1.63465e-06
1.66679e-06
1.69285e-06
1.71261e-06
1.72588e-06
1.73255e-06
1.73257e-06
1.72593e-06
1.71269e-06
1.69297e-06
1.66694e-06
1.63483e-06
1.59692e-06
1.55356e-06
1.50514e-06
1.45208e-06
1.39486e-06
1.33401e-06
1.27005e-06
1.20356e-06
1.13507e-06
1.06516e-06
9.94366e-07
9.23215e-07
8.52228e-07
7.8191e-07
7.12742e-07
6.45167e-07
5.79567e-07
5.1625e-07
4.55435e-07
3.97245e-07
3.41706e-07
2.88749e-07
2.38211e-07
1.89844e-07
1.43322e-07
9.82468e-08
5.41676e-08
9.328e-11
3.49466e-13
3.49537e-13
9.33014e-11
5.41824e-08
9.82753e-08
1.43365e-07
1.89904e-07
2.38289e-07
2.88848e-07
3.41829e-07
3.97396e-07
4.55619e-07
5.16471e-07
5.7983e-07
6.45477e-07
7.13105e-07
7.82328e-07
8.52705e-07
9.23755e-07
9.94971e-07
1.06584e-06
1.13582e-06
1.20437e-06
1.27094e-06
1.33497e-06
1.39589e-06
1.45318e-06
1.50631e-06
1.5548e-06
1.59823e-06
1.63619e-06
1.66836e-06
1.69444e-06
1.71421e-06
1.7275e-06
1.73418e-06
1.73419e-06
1.72755e-06
1.7143e-06
1.69456e-06
1.6685e-06
1.63637e-06
1.59843e-06
1.55503e-06
1.50656e-06
1.45345e-06
1.39618e-06
1.33527e-06
1.27126e-06
1.2047e-06
1.13615e-06
1.06617e-06
9.95311e-07
9.24092e-07
8.53038e-07
7.82652e-07
7.13418e-07
6.45777e-07
5.80113e-07
5.16735e-07
4.55862e-07
3.97616e-07
3.42024e-07
2.89017e-07
2.38432e-07
1.9002e-07
1.43453e-07
9.83371e-08
5.42174e-08
9.33657e-11
3.49786e-13
3.49715e-13
9.3349e-11
5.421e-08
9.83254e-08
1.43438e-07
1.90001e-07
2.38411e-07
2.88997e-07
3.42006e-07
3.97603e-07
4.55857e-07
5.16742e-07
5.80135e-07
6.45818e-07
7.13482e-07
7.82743e-07
8.53158e-07
9.24246e-07
9.95501e-07
1.0664e-06
1.13642e-06
1.20501e-06
1.27162e-06
1.33568e-06
1.39663e-06
1.45395e-06
1.5071e-06
1.55562e-06
1.59907e-06
1.63706e-06
1.66924e-06
1.69534e-06
1.71512e-06
1.72841e-06
1.73509e-06
1.73511e-06
1.72846e-06
1.7152e-06
1.69545e-06
1.66938e-06
1.63723e-06
1.59927e-06
1.55585e-06
1.50735e-06
1.45422e-06
1.39692e-06
1.33598e-06
1.27193e-06
1.20534e-06
1.13676e-06
1.06674e-06
9.9584e-07
9.24583e-07
8.53491e-07
7.83067e-07
7.13795e-07
6.46118e-07
5.80418e-07
5.17006e-07
4.56099e-07
3.97823e-07
3.42201e-07
2.89166e-07
2.38554e-07
1.90117e-07
1.43527e-07
9.83873e-08
5.4245e-08
9.34132e-11
3.49964e-13
3.4981e-13
9.33746e-11
5.4225e-08
9.83525e-08
1.43478e-07
1.90054e-07
2.38478e-07
2.89077e-07
3.42102e-07
3.97715e-07
4.55985e-07
5.16889e-07
5.80301e-07
6.46003e-07
7.13687e-07
7.82969e-07
8.53405e-07
9.24514e-07
9.95789e-07
1.06671e-06
1.13675e-06
1.20536e-06
1.27199e-06
1.33606e-06
1.39704e-06
1.45437e-06
1.50754e-06
1.55607e-06
1.59953e-06
1.63753e-06
1.66972e-06
1.69583e-06
1.71561e-06
1.72891e-06
1.73559e-06
1.73561e-06
1.72896e-06
1.71569e-06
1.69594e-06
1.66987e-06
1.6377e-06
1.59973e-06
1.5563e-06
1.50779e-06
1.45464e-06
1.39733e-06
1.33637e-06
1.2723e-06
1.20569e-06
1.13709e-06
1.06705e-06
9.96129e-07
9.24851e-07
8.53737e-07
7.83293e-07
7.14e-07
6.46303e-07
5.80584e-07
5.17153e-07
4.56228e-07
3.97934e-07
3.42297e-07
2.89246e-07
2.3862e-07
1.90169e-07
1.43566e-07
9.84143e-08
5.42599e-08
9.34389e-11
3.5006e-13
3.49861e-13
9.33881e-11
5.42328e-08
9.83667e-08
1.43498e-07
1.90081e-07
2.38512e-07
2.8912e-07
3.42152e-07
3.97774e-07
4.56053e-07
5.16966e-07
5.80388e-07
6.46101e-07
7.13795e-07
7.83088e-07
8.53535e-07
9.24655e-07
9.95942e-07
1.06688e-06
1.13693e-06
1.20555e-06
1.27218e-06
1.33627e-06
1.39725e-06
1.45459e-06
1.50777e-06
1.55631e-06
1.59978e-06
1.63778e-06
1.66998e-06
1.69609e-06
1.71588e-06
1.72917e-06
1.73586e-06
1.73587e-06
1.72922e-06
1.71596e-06
1.6962e-06
1.67012e-06
1.63795e-06
1.59998e-06
1.55654e-06
1.50802e-06
1.45486e-06
1.39754e-06
1.33657e-06
1.2725e-06
1.20587e-06
1.13726e-06
1.06721e-06
9.96282e-07
9.24992e-07
8.53867e-07
7.83412e-07
7.14109e-07
6.464e-07
5.80671e-07
5.1723e-07
4.56296e-07
3.97993e-07
3.42347e-07
2.89289e-07
2.38655e-07
1.90197e-07
1.43587e-07
9.84285e-08
5.42677e-08
9.34523e-11
3.5011e-13
3.49886e-13
9.33949e-11
5.42368e-08
9.83739e-08
1.43509e-07
1.90095e-07
2.3853e-07
2.89141e-07
3.42178e-07
3.97804e-07
4.56088e-07
5.17006e-07
5.80433e-07
6.46151e-07
7.13851e-07
7.83149e-07
8.53602e-07
9.24728e-07
9.96021e-07
1.06696e-06
1.13702e-06
1.20564e-06
1.27228e-06
1.33638e-06
1.39736e-06
1.45471e-06
1.50789e-06
1.55644e-06
1.59991e-06
1.63791e-06
1.67011e-06
1.69622e-06
1.71601e-06
1.72931e-06
1.73599e-06
1.73601e-06
1.72936e-06
1.71609e-06
1.69634e-06
1.67026e-06
1.63808e-06
1.60011e-06
1.55666e-06
1.50814e-06
1.45498e-06
1.39765e-06
1.33668e-06
1.2726e-06
1.20597e-06
1.13735e-06
1.0673e-06
9.9636e-07
9.25065e-07
8.53935e-07
7.83474e-07
7.14164e-07
6.4645e-07
5.80716e-07
5.1727e-07
4.56331e-07
3.98023e-07
3.42373e-07
2.8931e-07
2.38673e-07
1.90211e-07
1.43598e-07
9.84358e-08
5.42717e-08
9.34592e-11
3.50136e-13
3.49899e-13
9.33984e-11
5.42388e-08
9.83775e-08
1.43514e-07
1.90102e-07
2.38539e-07
2.89152e-07
3.42191e-07
3.97819e-07
4.56106e-07
5.17026e-07
5.80455e-07
6.46176e-07
7.13879e-07
7.8318e-07
8.53636e-07
9.24765e-07
9.96061e-07
1.067e-06
1.13706e-06
1.20569e-06
1.27233e-06
1.33643e-06
1.39742e-06
1.45477e-06
1.50795e-06
1.5565e-06
1.59997e-06
1.63798e-06
1.67018e-06
1.69629e-06
1.71608e-06
1.72938e-06
1.73606e-06
1.73608e-06
1.72943e-06
1.71616e-06
1.6964e-06
1.67032e-06
1.63815e-06
1.60017e-06
1.55673e-06
1.5082e-06
1.45504e-06
1.39771e-06
1.33673e-06
1.27265e-06
1.20602e-06
1.1374e-06
1.06734e-06
9.964e-07
9.25102e-07
8.53968e-07
7.83504e-07
7.14192e-07
6.46476e-07
5.80739e-07
5.1729e-07
4.56348e-07
3.98039e-07
3.42386e-07
2.89321e-07
2.38682e-07
1.90218e-07
1.43603e-07
9.84394e-08
5.42737e-08
9.34626e-11
3.50148e-13
3.49905e-13
9.34e-11
5.42397e-08
9.83793e-08
1.43517e-07
1.90106e-07
2.38543e-07
2.89157e-07
3.42197e-07
3.97826e-07
4.56114e-07
5.17035e-07
5.80466e-07
6.46188e-07
7.13893e-07
7.83195e-07
8.53653e-07
9.24783e-07
9.9608e-07
1.06702e-06
1.13708e-06
1.20571e-06
1.27236e-06
1.33645e-06
1.39745e-06
1.45479e-06
1.50798e-06
1.55653e-06
1.6e-06
1.63801e-06
1.67021e-06
1.69632e-06
1.71612e-06
1.72941e-06
1.7361e-06
1.73611e-06
1.72946e-06
1.7162e-06
1.69644e-06
1.67036e-06
1.63818e-06
1.6002e-06
1.55676e-06
1.50823e-06
1.45507e-06
1.39774e-06
1.33676e-06
1.27268e-06
1.20604e-06
1.13742e-06
1.06736e-06
9.96419e-07
9.2512e-07
8.53985e-07
7.83519e-07
7.14206e-07
6.46488e-07
5.80749e-07
5.17299e-07
4.56357e-07
3.98046e-07
3.42392e-07
2.89326e-07
2.38686e-07
1.90221e-07
1.43605e-07
9.84411e-08
5.42747e-08
9.34643e-11
3.50154e-13
3.49908e-13
9.34008e-11
5.42402e-08
9.83801e-08
1.43518e-07
1.90107e-07
2.38545e-07
2.8916e-07
3.422e-07
3.9783e-07
4.56118e-07
5.1704e-07
5.80472e-07
6.46194e-07
7.13899e-07
7.83202e-07
8.5366e-07
9.24791e-07
9.96089e-07
1.06703e-06
1.13709e-06
1.20572e-06
1.27237e-06
1.33647e-06
1.39746e-06
1.45481e-06
1.508e-06
1.55654e-06
1.60002e-06
1.63802e-06
1.67023e-06
1.69634e-06
1.71613e-06
1.72943e-06
1.73611e-06
1.73613e-06
1.72948e-06
1.71621e-06
1.69645e-06
1.67037e-06
1.6382e-06
1.60022e-06
1.55677e-06
1.50825e-06
1.45508e-06
1.39775e-06
1.33677e-06
1.27269e-06
1.20605e-06
1.13743e-06
1.06737e-06
9.96429e-07
9.25129e-07
8.53993e-07
7.83527e-07
7.14213e-07
6.46494e-07
5.80755e-07
5.17304e-07
4.56361e-07
3.98049e-07
3.42395e-07
2.89329e-07
2.38688e-07
1.90223e-07
1.43607e-07
9.8442e-08
5.42751e-08
9.34651e-11
3.50157e-13
3.49909e-13
9.34012e-11
5.42404e-08
9.83805e-08
1.43519e-07
1.90108e-07
2.38546e-07
2.89161e-07
3.42202e-07
3.97831e-07
4.5612e-07
5.17042e-07
5.80474e-07
6.46197e-07
7.13902e-07
7.83206e-07
8.53664e-07
9.24795e-07
9.96094e-07
1.06704e-06
1.1371e-06
1.20573e-06
1.27238e-06
1.33647e-06
1.39747e-06
1.45481e-06
1.508e-06
1.55655e-06
1.60002e-06
1.63803e-06
1.67023e-06
1.69635e-06
1.71614e-06
1.72944e-06
1.73612e-06
1.73614e-06
1.72949e-06
1.71622e-06
1.69646e-06
1.67038e-06
1.63821e-06
1.60023e-06
1.55678e-06
1.50825e-06
1.45509e-06
1.39776e-06
1.33678e-06
1.27269e-06
1.20606e-06
1.13743e-06
1.06738e-06
9.96433e-07
9.25133e-07
8.53996e-07
7.8353e-07
7.14216e-07
6.46496e-07
5.80757e-07
5.17306e-07
4.56363e-07
3.98051e-07
3.42397e-07
2.8933e-07
2.38689e-07
1.90224e-07
1.43607e-07
9.84424e-08
5.42753e-08
9.34654e-11
3.50159e-13
3.4991e-13
9.34013e-11
5.42405e-08
9.83807e-08
1.43519e-07
1.90109e-07
2.38547e-07
2.89161e-07
3.42202e-07
3.97832e-07
4.56121e-07
5.17043e-07
5.80475e-07
6.46198e-07
7.13904e-07
7.83207e-07
8.53666e-07
9.24797e-07
9.96095e-07
1.06704e-06
1.1371e-06
1.20573e-06
1.27238e-06
1.33648e-06
1.39747e-06
1.45482e-06
1.50801e-06
1.55655e-06
1.60003e-06
1.63803e-06
1.67024e-06
1.69635e-06
1.71614e-06
1.72944e-06
1.73613e-06
1.73614e-06
1.72949e-06
1.71622e-06
1.69646e-06
1.67038e-06
1.63821e-06
1.60023e-06
1.55678e-06
1.50826e-06
1.45509e-06
1.39776e-06
1.33678e-06
1.2727e-06
1.20606e-06
1.13744e-06
1.06738e-06
9.96435e-07
9.25135e-07
8.53998e-07
7.83532e-07
7.14217e-07
6.46498e-07
5.80758e-07
5.17307e-07
4.56364e-07
3.98052e-07
3.42397e-07
2.89331e-07
2.38689e-07
1.90224e-07
1.43607e-07
9.84425e-08
5.42754e-08
9.34656e-11
3.50159e-13
3.4991e-13
9.34014e-11
5.42405e-08
9.83808e-08
1.43519e-07
1.90109e-07
2.38547e-07
2.89162e-07
3.42203e-07
3.97832e-07
4.56121e-07
5.17043e-07
5.80476e-07
6.46199e-07
7.13904e-07
7.83208e-07
8.53667e-07
9.24798e-07
9.96096e-07
1.06704e-06
1.1371e-06
1.20573e-06
1.27238e-06
1.33648e-06
1.39747e-06
1.45482e-06
1.50801e-06
1.55656e-06
1.60003e-06
1.63804e-06
1.67024e-06
1.69635e-06
1.71614e-06
1.72944e-06
1.73613e-06
1.73614e-06
1.72949e-06
1.71623e-06
1.69647e-06
1.67038e-06
1.63821e-06
1.60023e-06
1.55678e-06
1.50826e-06
1.45509e-06
1.39776e-06
1.33678e-06
1.2727e-06
1.20606e-06
1.13744e-06
1.06738e-06
9.96436e-07
9.25135e-07
8.53999e-07
7.83532e-07
7.14218e-07
6.46498e-07
5.80759e-07
5.17308e-07
4.56364e-07
3.98052e-07
3.42398e-07
2.89331e-07
2.38689e-07
1.90224e-07
1.43608e-07
9.84426e-08
5.42755e-08
9.34656e-11
3.5016e-13
3.4991e-13
9.34014e-11
5.42406e-08
9.83808e-08
1.43519e-07
1.90109e-07
2.38547e-07
2.89162e-07
3.42203e-07
3.97832e-07
4.56121e-07
5.17044e-07
5.80476e-07
6.46199e-07
7.13905e-07
7.83208e-07
8.53667e-07
9.24798e-07
9.96097e-07
1.06704e-06
1.1371e-06
1.20573e-06
1.27238e-06
1.33648e-06
1.39747e-06
1.45482e-06
1.50801e-06
1.55656e-06
1.60003e-06
1.63804e-06
1.67024e-06
1.69635e-06
1.71614e-06
1.72944e-06
1.73613e-06
1.73614e-06
1.72949e-06
1.71623e-06
1.69647e-06
1.67038e-06
1.63821e-06
1.60023e-06
1.55678e-06
1.50826e-06
1.45509e-06
1.39776e-06
1.33678e-06
1.2727e-06
1.20606e-06
1.13744e-06
1.06738e-06
9.96436e-07
9.25136e-07
8.53999e-07
7.83533e-07
7.14218e-07
6.46498e-07
5.80759e-07
5.17308e-07
4.56364e-07
3.98052e-07
3.42398e-07
2.89331e-07
2.3869e-07
1.90224e-07
1.43608e-07
9.84426e-08
5.42755e-08
9.34657e-11
3.5016e-13
3.4991e-13
9.34014e-11
5.42406e-08
9.83808e-08
1.43519e-07
1.90109e-07
2.38547e-07
2.89162e-07
3.42203e-07
3.97833e-07
4.56121e-07
5.17044e-07
5.80476e-07
6.46199e-07
7.13905e-07
7.83208e-07
8.53667e-07
9.24798e-07
9.96097e-07
1.06704e-06
1.1371e-06
1.20573e-06
1.27238e-06
1.33648e-06
1.39747e-06
1.45482e-06
1.50801e-06
1.55656e-06
1.60003e-06
1.63804e-06
1.67024e-06
1.69635e-06
1.71615e-06
1.72944e-06
1.73613e-06
1.73615e-06
1.72949e-06
1.71623e-06
1.69647e-06
1.67038e-06
1.63821e-06
1.60023e-06
1.55678e-06
1.50826e-06
1.45509e-06
1.39776e-06
1.33678e-06
1.2727e-06
1.20606e-06
1.13744e-06
1.06738e-06
9.96436e-07
9.25136e-07
8.53999e-07
7.83533e-07
7.14218e-07
6.46499e-07
5.80759e-07
5.17308e-07
4.56364e-07
3.98052e-07
3.42398e-07
2.89331e-07
2.3869e-07
1.90224e-07
1.43608e-07
9.84427e-08
5.42755e-08
9.34657e-11
3.5016e-13
3.4991e-13
9.34014e-11
5.42406e-08
9.83808e-08
1.43519e-07
1.90109e-07
2.38547e-07
2.89162e-07
3.42203e-07
3.97833e-07
4.56121e-07
5.17044e-07
5.80476e-07
6.46199e-07
7.13905e-07
7.83208e-07
8.53667e-07
9.24799e-07
9.96097e-07
1.06704e-06
1.1371e-06
1.20573e-06
1.27238e-06
1.33648e-06
1.39747e-06
1.45482e-06
1.50801e-06
1.55656e-06
1.60003e-06
1.63804e-06
1.67024e-06
1.69635e-06
1.71615e-06
1.72944e-06
1.73613e-06
1.73615e-06
1.72949e-06
1.71623e-06
1.69647e-06
1.67038e-06
1.63821e-06
1.60023e-06
1.55678e-06
1.50826e-06
1.45509e-06
1.39776e-06
1.33678e-06
1.2727e-06
1.20606e-06
1.13744e-06
1.06738e-06
9.96436e-07
9.25136e-07
8.53999e-07
7.83533e-07
7.14218e-07
6.46499e-07
5.80759e-07
5.17308e-07
4.56364e-07
3.98052e-07
3.42398e-07
2.89331e-07
2.3869e-07
1.90224e-07
1.43608e-07
9.84427e-08
5.42755e-08
9.34657e-11
3.5016e-13
3.4991e-13
9.34014e-11
5.42406e-08
9.83808e-08
1.43519e-07
1.90109e-07
2.38547e-07
2.89162e-07
3.42203e-07
3.97833e-07
4.56121e-07
5.17044e-07
5.80476e-07
6.46199e-07
7.13905e-07