/*--------------------------------*- C++ -*----------------------------------*\
  =========                 |
  \\      /  F ield         | OpenFOAM: The Open Source CFD Toolbox
   \\    /   O peration     | Website:  https://openfoam.org
    \\  /    A nd           | Version:  13
     \\/     M anipulation  |
\*---------------------------------------------------------------------------*/
FoamFile
{
    format      ascii;
    class       volScalarField;
    location    "175";
    object      rhok;
}
// * * * * * * * * * * * * * * * * * * * * * * * * * * * * * * * * * * * * * //

dimensions      [];

internalField   nonuniform List<scalar> 
315000
(
0.444652
0.430839
0.417576
0.413573
0.412773
0.4122
0.411557
0.410887
0.410205
0.409518
0.408829
0.408139
0.407448
0.406756
0.406065
0.405374
0.404682
0.403992
0.403301
0.402612
0.401923
0.401236
0.400549
0.399865
0.399181
0.3985
0.39782
0.397143
0.396467
0.395793
0.395122
0.394452
0.393785
0.39312
0.392457
0.391796
0.391137
0.390481
0.389826
0.389174
0.388524
0.387875
0.387229
0.386584
0.385942
0.385301
0.384662
0.384025
0.383389
0.382755
0.382123
0.381492
0.380862
0.380234
0.379607
0.378981
0.378357
0.377733
0.377111
0.376489
0.375869
0.375249
0.374629
0.374011
0.373393
0.372775
0.372158
0.371541
0.370924
0.370307
0.444652
0.430838
0.417589
0.413613
0.412819
0.412241
0.411597
0.410924
0.410239
0.409548
0.408855
0.408161
0.407467
0.406773
0.406078
0.405385
0.404691
0.403998
0.403306
0.402615
0.401926
0.401237
0.40055
0.399865
0.399181
0.398499
0.397819
0.397141
0.396465
0.395791
0.39512
0.39445
0.393783
0.393118
0.392455
0.391794
0.391135
0.390479
0.389824
0.389172
0.388521
0.387873
0.387227
0.386582
0.38594
0.385299
0.38466
0.384023
0.383387
0.382753
0.382121
0.38149
0.380861
0.380233
0.379606
0.37898
0.378356
0.377732
0.37711
0.376488
0.375868
0.375248
0.374629
0.37401
0.373392
0.372775
0.372158
0.371541
0.370924
0.370307
0.444632
0.430037
0.415367
0.413953
0.413208
0.412476
0.411753
0.411036
0.410323
0.409613
0.408906
0.408202
0.407499
0.406798
0.406098
0.4054
0.404703
0.404008
0.403313
0.40262
0.401929
0.401239
0.400551
0.399865
0.399181
0.398498
0.397818
0.39714
0.396464
0.39579
0.395118
0.394448
0.393781
0.393116
0.392453
0.391792
0.391133
0.390477
0.389822
0.38917
0.388519
0.387871
0.387225
0.386581
0.385938
0.385297
0.384659
0.384021
0.383386
0.382752
0.38212
0.381489
0.380859
0.380231
0.379605
0.378979
0.378355
0.377731
0.377109
0.376488
0.375867
0.375247
0.374628
0.37401
0.373392
0.372774
0.372157
0.37154
0.370924
0.370307
0.44465
0.430767
0.416415
0.414169
0.413208
0.412406
0.411669
0.410959
0.410258
0.409561
0.408865
0.408169
0.407474
0.406779
0.406083
0.405388
0.404694
0.404
0.403307
0.402616
0.401925
0.401236
0.400548
0.399863
0.399178
0.398496
0.397816
0.397138
0.396462
0.395788
0.395116
0.394446
0.393779
0.393114
0.392451
0.39179
0.391131
0.390475
0.38982
0.389168
0.388518
0.38787
0.387223
0.386579
0.385937
0.385296
0.384657
0.38402
0.383385
0.382751
0.382118
0.381488
0.380858
0.38023
0.379604
0.378978
0.378354
0.377731
0.377108
0.376487
0.375866
0.375247
0.374628
0.374009
0.373391
0.372774
0.372157
0.37154
0.370924
0.370307
0.44465
0.430767
0.416414
0.414168
0.413213
0.412411
0.411674
0.410962
0.41026
0.409563
0.408866
0.40817
0.407475
0.406779
0.406083
0.405388
0.404694
0.404
0.403307
0.402615
0.401924
0.401235
0.400547
0.399861
0.399177
0.398495
0.397814
0.397136
0.39646
0.395786
0.395114
0.394445
0.393777
0.393112
0.392449
0.391788
0.39113
0.390473
0.389819
0.389167
0.388516
0.387868
0.387222
0.386578
0.385935
0.385295
0.384656
0.384019
0.383383
0.38275
0.382117
0.381487
0.380857
0.380229
0.379603
0.378977
0.378353
0.37773
0.377108
0.376486
0.375866
0.375246
0.374627
0.374009
0.373391
0.372774
0.372157
0.37154
0.370924
0.370307
0.444632
0.430037
0.415365
0.41395
0.413211
0.412481
0.411756
0.411038
0.410324
0.409614
0.408906
0.408202
0.407499
0.406797
0.406097
0.405399
0.404702
0.404006
0.403311
0.402618
0.401926
0.401236
0.400548
0.399861
0.399177
0.398494
0.397814
0.397135
0.396459
0.395785
0.395113
0.394443
0.393776
0.393111
0.392448
0.391787
0.391128
0.390472
0.389818
0.389165
0.388515
0.387867
0.387221
0.386576
0.385934
0.385294
0.384655
0.384018
0.383382
0.382749
0.382116
0.381486
0.380857
0.380229
0.379602
0.378977
0.378352
0.377729
0.377107
0.376486
0.375865
0.375246
0.374627
0.374009
0.373391
0.372774
0.372157
0.37154
0.370924
0.370307
0.444651
0.430821
0.417576
0.413602
0.412807
0.412233
0.41159
0.410917
0.410233
0.409543
0.408851
0.408158
0.407464
0.40677
0.406076
0.405382
0.404688
0.403995
0.403302
0.402611
0.401921
0.401232
0.400544
0.399858
0.399174
0.398492
0.397812
0.397134
0.396457
0.395784
0.395112
0.394442
0.393775
0.39311
0.392447
0.391786
0.391127
0.390471
0.389816
0.389164
0.388514
0.387866
0.38722
0.386575
0.385933
0.385293
0.384654
0.384017
0.383382
0.382748
0.382116
0.381485
0.380856
0.380228
0.379601
0.378976
0.378352
0.377729
0.377107
0.376485
0.375865
0.375245
0.374627
0.374008
0.373391
0.372773
0.372156
0.37154
0.370923
0.370307
0.444651
0.430817
0.417552
0.413554
0.412758
0.412186
0.411545
0.410877
0.410196
0.409511
0.408823
0.408134
0.407444
0.406753
0.406061
0.40537
0.404678
0.403987
0.403296
0.402605
0.401916
0.401228
0.400541
0.399856
0.399172
0.39849
0.39781
0.397132
0.396456
0.395782
0.395111
0.394441
0.393774
0.393109
0.392446
0.391785
0.391126
0.39047
0.389816
0.389163
0.388513
0.387865
0.387219
0.386575
0.385932
0.385292
0.384653
0.384016
0.383381
0.382747
0.382115
0.381484
0.380855
0.380227
0.379601
0.378976
0.378351
0.377728
0.377106
0.376485
0.375865
0.375245
0.374626
0.374008
0.37339
0.372773
0.372156
0.37154
0.370923
0.370307
0.444651
0.430813
0.417544
0.413544
0.412748
0.412176
0.411535
0.410867
0.410187
0.409502
0.408815
0.408127
0.407437
0.406747
0.406056
0.405365
0.404674
0.403983
0.403293
0.402603
0.401914
0.401226
0.400539
0.399854
0.399171
0.398489
0.397809
0.397131
0.396455
0.395781
0.39511
0.39444
0.393773
0.393108
0.392445
0.391784
0.391126
0.390469
0.389815
0.389163
0.388513
0.387864
0.387218
0.386574
0.385932
0.385291
0.384653
0.384016
0.38338
0.382747
0.382115
0.381484
0.380855
0.380227
0.3796
0.378975
0.378351
0.377728
0.377106
0.376485
0.375864
0.375245
0.374626
0.374008
0.37339
0.372773
0.372156
0.37154
0.370923
0.370307
0.444651
0.430813
0.417541
0.413541
0.412744
0.412171
0.411531
0.410863
0.410183
0.409499
0.408812
0.408124
0.407434
0.406744
0.406054
0.405363
0.404672
0.403982
0.403291
0.402602
0.401913
0.401225
0.400539
0.399853
0.39917
0.398488
0.397808
0.39713
0.396455
0.395781
0.395109
0.39444
0.393772
0.393107
0.392444
0.391784
0.391125
0.390469
0.389814
0.389162
0.388512
0.387864
0.387218
0.386574
0.385931
0.385291
0.384652
0.384015
0.38338
0.382746
0.382114
0.381484
0.380855
0.380227
0.3796
0.378975
0.378351
0.377728
0.377106
0.376485
0.375864
0.375245
0.374626
0.374008
0.37339
0.372773
0.372156
0.37154
0.370923
0.370307
0.444651
0.430812
0.41754
0.413539
0.412742
0.41217
0.411529
0.410861
0.410182
0.409497
0.408811
0.408122
0.407433
0.406743
0.406053
0.405362
0.404672
0.403981
0.403291
0.402601
0.401912
0.401225
0.400538
0.399853
0.39917
0.398488
0.397808
0.39713
0.396454
0.39578
0.395109
0.394439
0.393772
0.393107
0.392444
0.391783
0.391125
0.390468
0.389814
0.389162
0.388512
0.387864
0.387218
0.386573
0.385931
0.385291
0.384652
0.384015
0.38338
0.382746
0.382114
0.381483
0.380854
0.380227
0.3796
0.378975
0.378351
0.377728
0.377106
0.376484
0.375864
0.375245
0.374626
0.374008
0.37339
0.372773
0.372156
0.37154
0.370923
0.370307
0.444651
0.430812
0.41754
0.413539
0.412742
0.412169
0.411529
0.410861
0.410181
0.409497
0.40881
0.408122
0.407433
0.406743
0.406053
0.405362
0.404671
0.403981
0.403291
0.402601
0.401912
0.401224
0.400538
0.399853
0.399169
0.398488
0.397808
0.39713
0.396454
0.39578
0.395109
0.394439
0.393772
0.393107
0.392444
0.391783
0.391125
0.390468
0.389814
0.389162
0.388512
0.387864
0.387217
0.386573
0.385931
0.385291
0.384652
0.384015
0.38338
0.382746
0.382114
0.381483
0.380854
0.380226
0.3796
0.378975
0.378351
0.377727
0.377105
0.376484
0.375864
0.375245
0.374626
0.374008
0.37339
0.372773
0.372156
0.37154
0.370923
0.370307
0.444651
0.430812
0.41754
0.413539
0.412742
0.412169
0.411529
0.410861
0.410181
0.409497
0.40881
0.408122
0.407433
0.406743
0.406053
0.405362
0.404671
0.403981
0.40329
0.402601
0.401912
0.401224
0.400538
0.399853
0.399169
0.398488
0.397808
0.39713
0.396454
0.39578
0.395109
0.394439
0.393772
0.393107
0.392444
0.391783
0.391125
0.390468
0.389814
0.389162
0.388512
0.387864
0.387217
0.386573
0.385931
0.38529
0.384652
0.384015
0.38338
0.382746
0.382114
0.381483
0.380854
0.380226
0.3796
0.378975
0.37835
0.377727
0.377105
0.376484
0.375864
0.375245
0.374626
0.374008
0.37339
0.372773
0.372156
0.37154
0.370923
0.370307
0.444651
0.430812
0.41754
0.413539
0.412742
0.412169
0.411529
0.410861
0.410181
0.409497
0.40881
0.408122
0.407433
0.406743
0.406053
0.405362
0.404671
0.403981
0.403291
0.402601
0.401912
0.401224
0.400538
0.399853
0.399169
0.398488
0.397808
0.39713
0.396454
0.39578
0.395109
0.394439
0.393772
0.393107
0.392444
0.391783
0.391125
0.390468
0.389814
0.389162
0.388512
0.387864
0.387217
0.386573
0.385931
0.38529
0.384652
0.384015
0.38338
0.382746
0.382114
0.381483
0.380854
0.380226
0.3796
0.378975
0.378351
0.377727
0.377105
0.376484
0.375864
0.375245
0.374626
0.374008
0.37339
0.372773
0.372156
0.37154
0.370923
0.370307
0.444651
0.430812
0.41754
0.413539
0.412742
0.41217
0.411529
0.410861
0.410182
0.409497
0.408811
0.408122
0.407433
0.406743
0.406053
0.405362
0.404672
0.403981
0.403291
0.402601
0.401912
0.401224
0.400538
0.399853
0.399169
0.398488
0.397808
0.39713
0.396454
0.39578
0.395109
0.394439
0.393772
0.393107
0.392444
0.391783
0.391125
0.390468
0.389814
0.389162
0.388512
0.387864
0.387218
0.386573
0.385931
0.385291
0.384652
0.384015
0.38338
0.382746
0.382114
0.381483
0.380854
0.380226
0.3796
0.378975
0.378351
0.377728
0.377105
0.376484
0.375864
0.375245
0.374626
0.374008
0.37339
0.372773
0.372156
0.37154
0.370923
0.370307
0.444651
0.430812
0.417541
0.41354
0.412743
0.412171
0.41153
0.410862
0.410183
0.409498
0.408811
0.408123
0.407434
0.406744
0.406054
0.405363
0.404672
0.403981
0.403291
0.402601
0.401913
0.401225
0.400538
0.399853
0.39917
0.398488
0.397808
0.39713
0.396454
0.395781
0.395109
0.394439
0.393772
0.393107
0.392444
0.391783
0.391125
0.390469
0.389814
0.389162
0.388512
0.387864
0.387218
0.386574
0.385931
0.385291
0.384652
0.384015
0.38338
0.382746
0.382114
0.381484
0.380854
0.380227
0.3796
0.378975
0.378351
0.377728
0.377106
0.376484
0.375864
0.375245
0.374626
0.374008
0.37339
0.372773
0.372156
0.37154
0.370923
0.370307
0.444651
0.430813
0.417542
0.413542
0.412745
0.412173
0.411532
0.410864
0.410184
0.4095
0.408813
0.408124
0.407435
0.406745
0.406054
0.405364
0.404673
0.403982
0.403292
0.402602
0.401913
0.401225
0.400539
0.399854
0.39917
0.398488
0.397808
0.397131
0.396455
0.395781
0.395109
0.39444
0.393773
0.393107
0.392444
0.391784
0.391125
0.390469
0.389815
0.389162
0.388512
0.387864
0.387218
0.386574
0.385931
0.385291
0.384652
0.384015
0.38338
0.382746
0.382114
0.381484
0.380855
0.380227
0.3796
0.378975
0.378351
0.377728
0.377106
0.376485
0.375864
0.375245
0.374626
0.374008
0.37339
0.372773
0.372156
0.37154
0.370923
0.370307
0.444651
0.430813
0.417541
0.41354
0.412743
0.412171
0.411531
0.410863
0.410183
0.409499
0.408812
0.408124
0.407434
0.406744
0.406054
0.405363
0.404673
0.403982
0.403292
0.402602
0.401913
0.401225
0.400539
0.399854
0.39917
0.398489
0.397809
0.397131
0.396455
0.395781
0.39511
0.39444
0.393773
0.393108
0.392445
0.391784
0.391126
0.390469
0.389815
0.389163
0.388513
0.387864
0.387218
0.386574
0.385932
0.385291
0.384653
0.384016
0.38338
0.382747
0.382115
0.381484
0.380855
0.380227
0.3796
0.378975
0.378351
0.377728
0.377106
0.376485
0.375864
0.375245
0.374626
0.374008
0.37339
0.372773
0.372156
0.37154
0.370923
0.370307
0.444651
0.430812
0.417541
0.413539
0.412743
0.41217
0.41153
0.410862
0.410183
0.409498
0.408811
0.408123
0.407434
0.406744
0.406054
0.405363
0.404673
0.403982
0.403292
0.402602
0.401913
0.401226
0.400539
0.399854
0.399171
0.398489
0.397809
0.397131
0.396455
0.395782
0.39511
0.394441
0.393773
0.393108
0.392445
0.391784
0.391126
0.39047
0.389815
0.389163
0.388513
0.387865
0.387219
0.386574
0.385932
0.385292
0.384653
0.384016
0.383381
0.382747
0.382115
0.381484
0.380855
0.380227
0.379601
0.378975
0.378351
0.377728
0.377106
0.376485
0.375865
0.375245
0.374626
0.374008
0.37339
0.372773
0.372156
0.37154
0.370923
0.370307
0.444651
0.430813
0.417541
0.41354
0.412743
0.412171
0.41153
0.410862
0.410183
0.409498
0.408812
0.408124
0.407434
0.406745
0.406054
0.405364
0.404673
0.403983
0.403292
0.402603
0.401914
0.401226
0.40054
0.399855
0.399171
0.39849
0.39781
0.397132
0.396456
0.395782
0.39511
0.394441
0.393774
0.393109
0.392446
0.391785
0.391126
0.39047
0.389816
0.389163
0.388513
0.387865
0.387219
0.386575
0.385932
0.385292
0.384653
0.384016
0.383381
0.382747
0.382115
0.381484
0.380855
0.380227
0.379601
0.378975
0.378351
0.377728
0.377106
0.376485
0.375865
0.375245
0.374626
0.374008
0.37339
0.372773
0.372156
0.37154
0.370923
0.370307
0.444651
0.430813
0.417542
0.41354
0.412744
0.412171
0.411531
0.410863
0.410184
0.409499
0.408812
0.408124
0.407435
0.406745
0.406055
0.405365
0.404674
0.403983
0.403293
0.402603
0.401915
0.401227
0.40054
0.399855
0.399172
0.39849
0.39781
0.397132
0.396456
0.395783
0.395111
0.394441
0.393774
0.393109
0.392446
0.391785
0.391127
0.39047
0.389816
0.389164
0.388514
0.387865
0.387219
0.386575
0.385933
0.385292
0.384653
0.384017
0.383381
0.382747
0.382115
0.381485
0.380855
0.380228
0.379601
0.378976
0.378352
0.377728
0.377106
0.376485
0.375865
0.375245
0.374626
0.374008
0.373391
0.372773
0.372156
0.37154
0.370923
0.370307
0.444651
0.430814
0.417544
0.413543
0.412746
0.412174
0.411534
0.410866
0.410186
0.409502
0.408815
0.408127
0.407437
0.406747
0.406057
0.405366
0.404675
0.403984
0.403294
0.402604
0.401915
0.401228
0.400541
0.399856
0.399172
0.398491
0.397811
0.397133
0.396457
0.395783
0.395111
0.394442
0.393775
0.39311
0.392447
0.391786
0.391127
0.390471
0.389816
0.389164
0.388514
0.387866
0.38722
0.386575
0.385933
0.385293
0.384654
0.384017
0.383382
0.382748
0.382116
0.381485
0.380856
0.380228
0.379601
0.378976
0.378352
0.377729
0.377106
0.376485
0.375865
0.375245
0.374627
0.374008
0.373391
0.372773
0.372156
0.37154
0.370923
0.370307
0.444651
0.430817
0.417553
0.413555
0.412759
0.412187
0.411546
0.410878
0.410197
0.409512
0.408824
0.408135
0.407445
0.406754
0.406062
0.405371
0.404679
0.403988
0.403297
0.402607
0.401918
0.401229
0.400543
0.399857
0.399174
0.398492
0.397812
0.397134
0.396458
0.395784
0.395112
0.394443
0.393775
0.39311
0.392447
0.391786
0.391128
0.390471
0.389817
0.389165
0.388514
0.387866
0.38722
0.386576
0.385933
0.385293
0.384654
0.384017
0.383382
0.382748
0.382116
0.381485
0.380856
0.380228
0.379602
0.378976
0.378352
0.377729
0.377107
0.376485
0.375865
0.375246
0.374627
0.374008
0.373391
0.372773
0.372157
0.37154
0.370924
0.370307
0.444651
0.430821
0.417576
0.413604
0.41281
0.412234
0.41159
0.410919
0.410234
0.409545
0.408853
0.40816
0.407466
0.406771
0.406077
0.405383
0.404689
0.403996
0.403304
0.402612
0.401922
0.401233
0.400545
0.399859
0.399175
0.398493
0.397813
0.397135
0.396459
0.395785
0.395113
0.394443
0.393776
0.393111
0.392448
0.391787
0.391128
0.390472
0.389817
0.389165
0.388515
0.387867
0.387221
0.386576
0.385934
0.385293
0.384655
0.384018
0.383382
0.382748
0.382116
0.381486
0.380856
0.380228
0.379602
0.378976
0.378352
0.377729
0.377107
0.376486
0.375865
0.375246
0.374627
0.374009
0.373391
0.372773
0.372157
0.37154
0.370924
0.370307
0.444632
0.430037
0.415365
0.413951
0.413206
0.412474
0.411751
0.411034
0.410321
0.409612
0.408905
0.4082
0.407498
0.406796
0.406097
0.405398
0.404701
0.404005
0.403311
0.402618
0.401926
0.401236
0.400548
0.399862
0.399177
0.398495
0.397814
0.397136
0.396459
0.395785
0.395113
0.394444
0.393776
0.393111
0.392448
0.391787
0.391129
0.390472
0.389818
0.389166
0.388515
0.387867
0.387221
0.386577
0.385934
0.385294
0.384655
0.384018
0.383382
0.382749
0.382117
0.381486
0.380857
0.380229
0.379602
0.378977
0.378352
0.377729
0.377107
0.376486
0.375865
0.375246
0.374627
0.374009
0.373391
0.372774
0.372157
0.37154
0.370924
0.370307
0.44465
0.430763
0.416403
0.414154
0.413192
0.41239
0.411654
0.410944
0.410244
0.409547
0.408853
0.408158
0.407464
0.40677
0.406075
0.405381
0.404688
0.403995
0.403303
0.402611
0.401921
0.401233
0.400545
0.39986
0.399176
0.398494
0.397813
0.397135
0.396459
0.395785
0.395114
0.394444
0.393777
0.393111
0.392448
0.391788
0.391129
0.390473
0.389818
0.389166
0.388516
0.387867
0.387221
0.386577
0.385935
0.385294
0.384655
0.384018
0.383383
0.382749
0.382117
0.381486
0.380857
0.380229
0.379602
0.378977
0.378353
0.377729
0.377107
0.376486
0.375866
0.375246
0.374627
0.374009
0.373391
0.372774
0.372157
0.37154
0.370924
0.370307
0.44465
0.430758
0.41637
0.414112
0.413147
0.412344
0.411609
0.410902
0.410206
0.409514
0.408823
0.408133
0.407442
0.406751
0.40606
0.405368
0.404677
0.403986
0.403296
0.402606
0.401917
0.401229
0.400543
0.399858
0.399174
0.398493
0.397813
0.397135
0.396459
0.395785
0.395114
0.394444
0.393777
0.393112
0.392449
0.391788
0.391129
0.390473
0.389819
0.389166
0.388516
0.387868
0.387222
0.386577
0.385935
0.385294
0.384656
0.384018
0.383383
0.382749
0.382117
0.381486
0.380857
0.380229
0.379602
0.378977
0.378353
0.37773
0.377107
0.376486
0.375866
0.375246
0.374627
0.374009
0.373391
0.372774
0.372157
0.37154
0.370924
0.370307
0.44465
0.430754
0.41636
0.4141
0.413135
0.412332
0.411597
0.41089
0.410195
0.409503
0.408814
0.408124
0.407435
0.406745
0.406054
0.405364
0.404673
0.403983
0.403293
0.402604
0.401915
0.401228
0.400542
0.399857
0.399174
0.398492
0.397813
0.397135
0.396459
0.395785
0.395114
0.394444
0.393777
0.393112
0.392449
0.391788
0.39113
0.390473
0.389819
0.389167
0.388516
0.387868
0.387222
0.386578
0.385935
0.385295
0.384656
0.384019
0.383383
0.38275
0.382117
0.381487
0.380857
0.380229
0.379603
0.378977
0.378353
0.37773
0.377108
0.376486
0.375866
0.375246
0.374627
0.374009
0.373391
0.372774
0.372157
0.37154
0.370924
0.370307
0.44465
0.430753
0.416358
0.414098
0.413132
0.412329
0.411595
0.410888
0.410192
0.409501
0.408812
0.408122
0.407433
0.406743
0.406053
0.405363
0.404673
0.403982
0.403293
0.402604
0.401915
0.401228
0.400542
0.399857
0.399174
0.398493
0.397813
0.397135
0.396459
0.395786
0.395114
0.394445
0.393777
0.393112
0.392449
0.391789
0.39113
0.390474
0.389819
0.389167
0.388517
0.387868
0.387222
0.386578
0.385935
0.385295
0.384656
0.384019
0.383384
0.38275
0.382118
0.381487
0.380857
0.380229
0.379603
0.378977
0.378353
0.37773
0.377108
0.376486
0.375866
0.375246
0.374627
0.374009
0.373391
0.372774
0.372157
0.37154
0.370924
0.370307
0.44465
0.430754
0.416358
0.414098
0.413132
0.412329
0.411594
0.410888
0.410192
0.409501
0.408812
0.408122
0.407433
0.406743
0.406053
0.405363
0.404673
0.403983
0.403293
0.402604
0.401915
0.401228
0.400542
0.399857
0.399174
0.398493
0.397813
0.397135
0.39646
0.395786
0.395114
0.394445
0.393778
0.393113
0.39245
0.391789
0.39113
0.390474
0.389819
0.389167
0.388517
0.387869
0.387222
0.386578
0.385936
0.385295
0.384656
0.384019
0.383384
0.38275
0.382118
0.381487
0.380858
0.38023
0.379603
0.378978
0.378353
0.37773
0.377108
0.376486
0.375866
0.375246
0.374627
0.374009
0.373391
0.372774
0.372157
0.37154
0.370924
0.370307
0.44465
0.430754
0.416359
0.414098
0.413132
0.412329
0.411595
0.410888
0.410192
0.409501
0.408812
0.408123
0.407433
0.406743
0.406053
0.405363
0.404673
0.403983
0.403293
0.402604
0.401916
0.401228
0.400542
0.399858
0.399175
0.398493
0.397813
0.397136
0.39646
0.395786
0.395115
0.394445
0.393778
0.393113
0.39245
0.391789
0.391131
0.390474
0.38982
0.389167
0.388517
0.387869
0.387223
0.386578
0.385936
0.385295
0.384656
0.384019
0.383384
0.38275
0.382118
0.381487
0.380858
0.38023
0.379603
0.378978
0.378353
0.37773
0.377108
0.376487
0.375866
0.375246
0.374627
0.374009
0.373391
0.372774
0.372157
0.37154
0.370924
0.370307
0.44465
0.430754
0.416359
0.414098
0.413132
0.412329
0.411595
0.410888
0.410193
0.409502
0.408812
0.408123
0.407433
0.406744
0.406054
0.405363
0.404673
0.403983
0.403293
0.402604
0.401916
0.401229
0.400543
0.399858
0.399175
0.398493
0.397814
0.397136
0.39646
0.395787
0.395115
0.394446
0.393778
0.393113
0.39245
0.391789
0.391131
0.390474
0.38982
0.389168
0.388517
0.387869
0.387223
0.386579
0.385936
0.385295
0.384657
0.38402
0.383384
0.38275
0.382118
0.381487
0.380858
0.38023
0.379603
0.378978
0.378353
0.37773
0.377108
0.376487
0.375866
0.375247
0.374628
0.374009
0.373391
0.372774
0.372157
0.37154
0.370924
0.370307
0.44465
0.430754
0.416359
0.414098
0.413133
0.41233
0.411595
0.410888
0.410193
0.409502
0.408812
0.408123
0.407434
0.406744
0.406054
0.405364
0.404673
0.403983
0.403294
0.402604
0.401916
0.401229
0.400543
0.399858
0.399175
0.398494
0.397814
0.397136
0.39646
0.395787
0.395115
0.394446
0.393778
0.393113
0.39245
0.39179
0.391131
0.390475
0.38982
0.389168
0.388518
0.387869
0.387223
0.386579
0.385936
0.385296
0.384657
0.38402
0.383384
0.38275
0.382118
0.381487
0.380858
0.38023
0.379603
0.378978
0.378354
0.37773
0.377108
0.376487
0.375866
0.375247
0.374628
0.374009
0.373391
0.372774
0.372157
0.37154
0.370924
0.370307
0.44465
0.430754
0.416359
0.414099
0.413133
0.41233
0.411595
0.410888
0.410193
0.409502
0.408812
0.408123
0.407434
0.406744
0.406054
0.405364
0.404674
0.403983
0.403294
0.402605
0.401916
0.401229
0.400543
0.399858
0.399175
0.398494
0.397814
0.397136
0.396461
0.395787
0.395115
0.394446
0.393779
0.393114
0.392451
0.39179
0.391131
0.390475
0.38982
0.389168
0.388518
0.387869
0.387223
0.386579
0.385936
0.385296
0.384657
0.38402
0.383384
0.382751
0.382118
0.381487
0.380858
0.38023
0.379603
0.378978
0.378354
0.37773
0.377108
0.376487
0.375866
0.375247
0.374628
0.374009
0.373391
0.372774
0.372157
0.37154
0.370924
0.370307
0.44465
0.430754
0.416359
0.414099
0.413133
0.41233
0.411595
0.410889
0.410193
0.409502
0.408813
0.408123
0.407434
0.406744
0.406054
0.405364
0.404674
0.403984
0.403294
0.402605
0.401916
0.401229
0.400543
0.399858
0.399175
0.398494
0.397814
0.397137
0.396461
0.395787
0.395116
0.394446
0.393779
0.393114
0.392451
0.39179
0.391131
0.390475
0.38982
0.389168
0.388518
0.38787
0.387223
0.386579
0.385937
0.385296
0.384657
0.38402
0.383384
0.382751
0.382118
0.381488
0.380858
0.38023
0.379603
0.378978
0.378354
0.37773
0.377108
0.376487
0.375866
0.375247
0.374628
0.374009
0.373391
0.372774
0.372157
0.37154
0.370924
0.370307
0.44465
0.430754
0.416359
0.414099
0.413133
0.41233
0.411595
0.410889
0.410193
0.409502
0.408813
0.408123
0.407434
0.406744
0.406054
0.405364
0.404674
0.403984
0.403294
0.402605
0.401917
0.401229
0.400543
0.399859
0.399175
0.398494
0.397814
0.397137
0.396461
0.395787
0.395116
0.394446
0.393779
0.393114
0.392451
0.39179
0.391131
0.390475
0.389821
0.389168
0.388518
0.38787
0.387223
0.386579
0.385937
0.385296
0.384657
0.38402
0.383385
0.382751
0.382118
0.381488
0.380858
0.38023
0.379604
0.378978
0.378354
0.37773
0.377108
0.376487
0.375866
0.375247
0.374628
0.374009
0.373391
0.372774
0.372157
0.37154
0.370924
0.370307
0.44465
0.430754
0.416359
0.414099
0.413133
0.41233
0.411595
0.410889
0.410193
0.409502
0.408813
0.408124
0.407434
0.406744
0.406054
0.405364
0.404674
0.403984
0.403294
0.402605
0.401917
0.401229
0.400543
0.399859
0.399176
0.398494
0.397814
0.397137
0.396461
0.395787
0.395116
0.394446
0.393779
0.393114
0.392451
0.39179
0.391131
0.390475
0.389821
0.389168
0.388518
0.38787
0.387223
0.386579
0.385937
0.385296
0.384657
0.38402
0.383385
0.382751
0.382118
0.381488
0.380858
0.38023
0.379604
0.378978
0.378354
0.37773
0.377108
0.376487
0.375866
0.375247
0.374628
0.374009
0.373391
0.372774
0.372157
0.37154
0.370924
0.370307
0.44465
0.430754
0.416359
0.414099
0.413133
0.41233
0.411596
0.410889
0.410193
0.409502
0.408813
0.408124
0.407434
0.406744
0.406054
0.405364
0.404674
0.403984
0.403294
0.402605
0.401917
0.401229
0.400543
0.399859
0.399176
0.398494
0.397815
0.397137
0.396461
0.395787
0.395116
0.394446
0.393779
0.393114
0.392451
0.39179
0.391132
0.390475
0.389821
0.389168
0.388518
0.38787
0.387224
0.386579
0.385937
0.385296
0.384657
0.38402
0.383385
0.382751
0.382119
0.381488
0.380858
0.38023
0.379604
0.378978
0.378354
0.377731
0.377108
0.376487
0.375866
0.375247
0.374628
0.374009
0.373391
0.372774
0.372157
0.37154
0.370924
0.370307
0.44465
0.430754
0.416359
0.414099
0.413133
0.41233
0.411596
0.410889
0.410193
0.409502
0.408813
0.408124
0.407434
0.406744
0.406054
0.405364
0.404674
0.403984
0.403294
0.402605
0.401917
0.40123
0.400543
0.399859
0.399176
0.398494
0.397815
0.397137
0.396461
0.395787
0.395116
0.394446
0.393779
0.393114
0.392451
0.39179
0.391132
0.390475
0.389821
0.389168
0.388518
0.38787
0.387224
0.386579
0.385937
0.385296
0.384657
0.38402
0.383385
0.382751
0.382119
0.381488
0.380858
0.38023
0.379604
0.378978
0.378354
0.377731
0.377108
0.376487
0.375866
0.375247
0.374628
0.374009
0.373391
0.372774
0.372157
0.37154
0.370924
0.370307
0.44465
0.430754
0.416359
0.414099
0.413133
0.41233
0.411596
0.410889
0.410194
0.409502
0.408813
0.408124
0.407434
0.406745
0.406055
0.405364
0.404674
0.403984
0.403294
0.402605
0.401917
0.40123
0.400544
0.399859
0.399176
0.398494
0.397815
0.397137
0.396461
0.395787
0.395116
0.394446
0.393779
0.393114
0.392451
0.39179
0.391132
0.390475
0.389821
0.389168
0.388518
0.38787
0.387224
0.386579
0.385937
0.385296
0.384657
0.38402
0.383385
0.382751
0.382119
0.381488
0.380858
0.38023
0.379604
0.378978
0.378354
0.377731
0.377108
0.376487
0.375866
0.375247
0.374628
0.374009
0.373391
0.372774
0.372157
0.37154
0.370924
0.370307
0.44465
0.430754
0.416359
0.414099
0.413133
0.41233
0.411596
0.410889
0.410194
0.409502
0.408813
0.408124
0.407434
0.406745
0.406055
0.405364
0.404674
0.403984
0.403294
0.402605
0.401917
0.40123
0.400544
0.399859
0.399176
0.398494
0.397815
0.397137
0.396461
0.395788
0.395116
0.394446
0.393779
0.393114
0.392451
0.39179
0.391132
0.390475
0.389821
0.389168
0.388518
0.38787
0.387224
0.386579
0.385937
0.385296
0.384657
0.38402
0.383385
0.382751
0.382119
0.381488
0.380858
0.38023
0.379604
0.378978
0.378354
0.377731
0.377108
0.376487
0.375866
0.375247
0.374628
0.374009
0.373391
0.372774
0.372157
0.37154
0.370924
0.370307
0.44465
0.430754
0.416359
0.414099
0.413133
0.41233
0.411596
0.410889
0.410194
0.409503
0.408813
0.408124
0.407434
0.406745
0.406055
0.405364
0.404674
0.403984
0.403294
0.402605
0.401917
0.40123
0.400544
0.399859
0.399176
0.398494
0.397815
0.397137
0.396461
0.395788
0.395116
0.394447
0.393779
0.393114
0.392451
0.39179
0.391132
0.390475
0.389821
0.389168
0.388518
0.38787
0.387224
0.386579
0.385937
0.385296
0.384657
0.38402
0.383385
0.382751
0.382119
0.381488
0.380858
0.38023
0.379604
0.378978
0.378354
0.377731
0.377108
0.376487
0.375866
0.375247
0.374628
0.374009
0.373391
0.372774
0.372157
0.37154
0.370924
0.370307
0.44465
0.430754
0.416359
0.414099
0.413133
0.41233
0.411596
0.410889
0.410194
0.409503
0.408813
0.408124
0.407434
0.406745
0.406055
0.405364
0.404674
0.403984
0.403294
0.402605
0.401917
0.40123
0.400544
0.399859
0.399176
0.398494
0.397815
0.397137
0.396461
0.395788
0.395116
0.394447
0.393779
0.393114
0.392451
0.39179
0.391132
0.390475
0.389821
0.389168
0.388518
0.38787
0.387224
0.386579
0.385937
0.385296
0.384657
0.38402
0.383385
0.382751
0.382119
0.381488
0.380858
0.38023
0.379604
0.378978
0.378354
0.377731
0.377108
0.376487
0.375866
0.375247
0.374628
0.374009
0.373391
0.372774
0.372157
0.37154
0.370924
0.370307
0.44465
0.430754
0.416359
0.414099
0.413133
0.41233
0.411596
0.410889
0.410194
0.409503
0.408813
0.408124
0.407434
0.406745
0.406055
0.405364
0.404674
0.403984
0.403294
0.402605
0.401917
0.40123
0.400544
0.399859
0.399176
0.398494
0.397815
0.397137
0.396461
0.395788
0.395116
0.394447
0.393779
0.393114
0.392451
0.39179
0.391132
0.390475
0.389821
0.389168
0.388518
0.38787
0.387224
0.386579
0.385937
0.385296
0.384657
0.38402
0.383385
0.382751
0.382119
0.381488
0.380858
0.38023
0.379604
0.378978
0.378354
0.377731
0.377108
0.376487
0.375866
0.375247
0.374628
0.374009
0.373391
0.372774
0.372157
0.37154
0.370924
0.370307
0.44465
0.430754
0.41636
0.414099
0.413133
0.41233
0.411596
0.410889
0.410194
0.409503
0.408813
0.408124
0.407434
0.406745
0.406055
0.405364
0.404674
0.403984
0.403294
0.402605
0.401917
0.40123
0.400544
0.399859
0.399176
0.398494
0.397815
0.397137
0.396461
0.395788
0.395116
0.394447
0.393779
0.393114
0.392451
0.39179
0.391132
0.390475
0.389821
0.389168
0.388518
0.38787
0.387224
0.386579
0.385937
0.385296
0.384657
0.38402
0.383385
0.382751
0.382119
0.381488
0.380858
0.38023
0.379604
0.378978
0.378354
0.377731
0.377108
0.376487
0.375866
0.375247
0.374628
0.374009
0.373391
0.372774
0.372157
0.37154
0.370924
0.370307
0.44465
0.430754
0.41636
0.414099
0.413133
0.41233
0.411596
0.410889
0.410194
0.409503
0.408813
0.408124
0.407434
0.406745
0.406055
0.405364
0.404674
0.403984
0.403294
0.402605
0.401917
0.40123
0.400544
0.399859
0.399176
0.398494
0.397815
0.397137
0.396461
0.395788
0.395116
0.394447
0.393779
0.393114
0.392451
0.39179
0.391132
0.390475
0.389821
0.389168
0.388518
0.38787
0.387224
0.386579
0.385937
0.385296
0.384657
0.38402
0.383385
0.382751
0.382119
0.381488
0.380858
0.38023
0.379604
0.378978
0.378354
0.377731
0.377108
0.376487
0.375866
0.375247
0.374628
0.374009
0.373391
0.372774
0.372157
0.37154
0.370924
0.370307
0.44465
0.430754
0.41636
0.414099
0.413133
0.41233
0.411596
0.410889
0.410194
0.409503
0.408813
0.408124
0.407434
0.406745
0.406055
0.405364
0.404674
0.403984
0.403294
0.402605
0.401917
0.40123
0.400544
0.399859
0.399176
0.398494
0.397815
0.397137
0.396461
0.395788
0.395116
0.394447
0.393779
0.393114
0.392451
0.39179
0.391132
0.390475
0.389821
0.389168
0.388518
0.38787
0.387224
0.386579
0.385937
0.385296
0.384657
0.38402
0.383385
0.382751
0.382119
0.381488
0.380858
0.38023
0.379604
0.378978
0.378354
0.377731
0.377108
0.376487
0.375866
0.375247
0.374628
0.374009
0.373391
0.372774
0.372157
0.37154
0.370924
0.370307
0.44465
0.430754
0.41636
0.414099
0.413133
0.41233
0.411596
0.410889
0.410194
0.409503