/*--------------------------------*- C++ -*----------------------------------*\
  =========                 |
  \\      /  F ield         | OpenFOAM: The Open Source CFD Toolbox
   \\    /   O peration     | Website:  https://openfoam.org
    \\  /    A nd           | Version:  13
     \\/     M anipulation  |
\*---------------------------------------------------------------------------*/
FoamFile
{
    format      ascii;
    class       volScalarField;
    location    "71";
    object      k;
}
// * * * * * * * * * * * * * * * * * * * * * * * * * * * * * * * * * * * * * //

dimensions      [0 2 -2 0 0 0 0];

internalField   uniform 2.22045e-16;

boundaryField
{
    topAndBottom
    {
        type            kqRWallFunction;
        value           uniform 2.22045e-16;
    }
    frontAndBack
    {
        type            kqRWallFunction;
        value           uniform 2.22045e-16;
    }
    hot
    {
        type            kqRWallFunction;
        value           uniform 2.22045e-16;
    }
    cold
    {
        type            kqRWallFunction;
        value           uniform 2.22045e-16;
    }
}


// ************************************************************************* //
