/*--------------------------------*- C++ -*----------------------------------*\
  =========                 |
  \\      /  F ield         | OpenFOAM: The Open Source CFD Toolbox
   \\    /   O peration     | Website:  https://openfoam.org
    \\  /    A nd           | Version:  13
     \\/     M anipulation  |
\*---------------------------------------------------------------------------*/
FoamFile
{
    format      ascii;
    class       volScalarField;
    location    "250";
    object      nut;
}
// * * * * * * * * * * * * * * * * * * * * * * * * * * * * * * * * * * * * * //

dimensions      [0 2 -1 0 0 0 0];

internalField   nonuniform List<scalar> 
78750
(
1.24476e-17
3.18364e-15
7.17807e-14
1.30236e-13
1.91899e-13
2.57238e-13
3.26298e-13
3.98594e-13
4.73103e-13
5.4832e-13
6.2235e-13
6.93038e-13
7.58112e-13
8.1532e-13
8.62583e-13
8.98115e-13
9.2054e-13
9.28971e-13
9.23068e-13
9.03056e-13
8.69713e-13
8.24323e-13
7.68597e-13
7.04566e-13
6.34455e-13
5.60543e-13
4.8501e-13
4.09799e-13
3.36473e-13
2.66117e-13
1.99258e-13
1.35855e-13
7.53449e-14
3.36959e-15
1.32323e-17
2.70567e-16
7.02905e-14
9.92624e-12
1.81405e-11
2.67969e-11
3.59935e-11
4.57501e-11
5.60018e-11
6.66018e-11
7.73309e-11
8.79126e-11
9.80321e-11
1.07357e-10
1.15558e-10
1.22332e-10
1.27417e-10
1.30612e-10
1.31791e-10
1.30902e-10
1.27982e-10
1.23147e-10
1.16584e-10
1.08548e-10
9.93349e-11
8.9272e-11
7.86922e-11
6.79138e-11
5.7219e-11
4.68344e-11
3.69146e-11
2.75316e-11
1.86704e-11
1.02339e-11
7.25893e-14
2.79593e-16
7.59504e-16
1.97345e-13
2.79246e-11
5.13335e-11
7.64907e-11
1.03846e-10
1.33573e-10
1.65535e-10
1.99287e-10
2.34093e-10
2.68982e-10
3.02809e-10
3.34333e-10
3.62308e-10
3.85563e-10
4.03086e-10
4.14094e-10
4.18086e-10
4.14876e-10
4.0461e-10
3.8775e-10
3.65048e-10
3.37491e-10
3.06236e-10
2.72525e-10
2.37602e-10
2.02627e-10
1.68592e-10
1.36256e-10
1.06089e-10
7.82498e-11
5.25811e-11
2.86376e-11
2.02619e-13
7.80154e-16
1.47079e-15
3.82137e-13
5.41089e-11
9.96863e-11
1.49025e-10
2.03136e-10
2.62458e-10
3.26789e-10
3.95262e-10
4.66393e-10
5.38163e-10
6.0815e-10
6.73699e-10
7.32102e-10
7.80796e-10
8.17549e-10
8.40625e-10
8.48911e-10
8.42002e-10
8.2023e-10
7.84638e-10
7.36906e-10
6.79223e-10
6.14126e-10
5.44317e-10
4.72464e-10
4.01015e-10
3.32026e-10
2.67028e-10
2.06932e-10
1.51982e-10
1.01769e-10
5.52908e-11
3.90848e-13
1.50487e-15
2.28555e-15
5.93768e-13
8.40878e-11
1.55019e-10
2.31975e-10
3.16595e-10
4.09613e-10
5.10739e-10
6.18631e-10
7.3095e-10
8.44494e-10
9.55405e-10
1.05943e-09
1.15222e-09
1.22964e-09
1.28809e-09
1.32475e-09
1.33783e-09
1.32668e-09
1.29184e-09
1.23501e-09
1.15894e-09
1.06715e-09
9.63749e-10
8.53078e-10
7.39408e-10
6.26633e-10
5.18009e-10
4.15942e-10
3.21838e-10
2.36045e-10
1.57873e-10
8.57008e-11
6.05637e-13
2.33197e-15
3.08084e-15
8.00357e-13
1.13349e-10
2.09006e-10
3.1286e-10
4.27153e-10
5.52895e-10
6.89706e-10
8.35774e-10
9.8793e-10
1.14183e-09
1.29223e-09
1.43334e-09
1.55925e-09
1.66431e-09
1.7436e-09
1.7933e-09
1.81095e-09
1.79567e-09
1.74822e-09
1.67092e-09
1.56751e-09
1.44284e-09
1.30249e-09
1.15238e-09
9.98319e-10
8.45595e-10
6.9862e-10
5.60644e-10
4.33559e-10
3.17821e-10
2.12474e-10
1.15303e-10
8.14719e-13
3.137e-15
3.76651e-15
9.78534e-13
1.38591e-10
2.55569e-10
3.82608e-10
5.22464e-10
6.76381e-10
8.43899e-10
1.0228e-09
1.2092e-09
1.39778e-09
1.58209e-09
1.75504e-09
1.90936e-09
2.03812e-09
2.13528e-09
2.19614e-09
2.21768e-09
2.19883e-09
2.14052e-09
2.04562e-09
1.91873e-09
1.76581e-09
1.59372e-09
1.40973e-09
1.22097e-09
1.03392e-09
8.53986e-10
6.85139e-10
5.29693e-10
3.88194e-10
2.59465e-10
1.4078e-10
9.94615e-13
3.82939e-15
4.29617e-15
1.11626e-12
1.58109e-10
2.91574e-10
4.3654e-10
5.96161e-10
7.71862e-10
9.63122e-10
1.16741e-09
1.38028e-09
1.59566e-09
1.80619e-09
2.00375e-09
2.18002e-09
2.32709e-09
2.43804e-09
2.50751e-09
2.53204e-09
2.5104e-09
2.44367e-09
2.33514e-09
2.19008e-09
2.01531e-09
1.81868e-09
1.60851e-09
1.39293e-09
1.17935e-09
9.73944e-10
7.8125e-10
6.039e-10
4.4251e-10
2.95729e-10
1.60439e-10
1.13336e-12
4.36306e-15
4.66557e-15
1.21239e-12
1.7174e-10
3.16721e-10
4.7421e-10
6.47641e-10
8.38565e-10
1.04642e-09
1.26845e-09
1.49983e-09
1.73395e-09
1.9628e-09
2.17756e-09
2.36917e-09
2.52904e-09
2.64964e-09
2.72511e-09
2.75171e-09
2.72811e-09
2.65547e-09
2.5374e-09
2.37962e-09
2.18956e-09
1.97577e-09
1.74728e-09
1.51295e-09
1.28084e-09
1.05764e-09
8.48294e-10
6.55653e-10
4.80384e-10
3.21011e-10
1.74141e-10
1.23001e-12
4.7345e-15
4.89967e-15
1.27337e-12
1.80392e-10
3.32685e-10
4.98127e-10
6.80328e-10
8.80923e-10
1.09932e-09
1.33263e-09
1.57577e-09
1.82179e-09
2.0623e-09
2.28799e-09
2.48936e-09
2.65736e-09
2.78408e-09
2.86337e-09
2.89128e-09
2.86642e-09
2.79002e-09
2.66587e-09
2.49999e-09
2.3002e-09
2.07549e-09
1.83536e-09
1.58912e-09
1.34523e-09
1.11073e-09
8.9081e-10
6.88465e-10
5.04391e-10
3.37033e-10
1.82823e-10
1.29121e-12
4.96945e-15
5.03534e-15
1.30875e-12
1.85416e-10
3.41955e-10
5.12015e-10
6.99312e-10
9.05526e-10
1.13005e-09
1.36991e-09
1.61989e-09
1.87284e-09
2.12012e-09
2.35217e-09
2.55921e-09
2.73194e-09
2.86221e-09
2.94371e-09
2.97238e-09
2.94678e-09
2.86819e-09
2.7405e-09
2.56991e-09
2.36446e-09
2.1334e-09
1.8865e-09
1.63333e-09
1.38259e-09
1.14153e-09
9.15474e-10
7.07495e-10
5.18311e-10
3.46322e-10
1.87856e-10
1.32665e-12
5.10539e-15
5.10771e-15
1.32764e-12
1.881e-10
3.46908e-10
5.19438e-10
7.09459e-10
9.18678e-10
1.14648e-09
1.38985e-09
1.64349e-09
1.90014e-09
2.15104e-09
2.38649e-09
2.59657e-09
2.77182e-09
2.90401e-09
2.98669e-09
3.01576e-09
2.98977e-09
2.91e-09
2.78041e-09
2.6073e-09
2.39882e-09
2.16435e-09
1.91383e-09
1.65695e-09
1.40256e-09
1.15799e-09
9.28644e-10
7.17655e-10
5.25742e-10
3.51279e-10
1.90541e-10
1.34555e-12
5.17777e-15
5.14344e-15
1.33698e-12
1.89428e-10
3.4936e-10
5.23111e-10
7.14481e-10
9.25188e-10
1.15461e-09
1.39971e-09
1.65517e-09
1.91366e-09
2.16635e-09
2.40349e-09
2.61507e-09
2.79158e-09
2.9247e-09
3.00797e-09
3.03724e-09
3.01105e-09
2.93069e-09
2.80016e-09
2.6258e-09
2.41582e-09
2.17967e-09
1.92735e-09
1.66864e-09
1.41243e-09
1.16612e-09
9.35156e-10
7.22678e-10
5.29415e-10
3.53729e-10
1.91868e-10
1.35488e-12
5.21347e-15
5.15986e-15
1.34127e-12
1.9004e-10
3.50489e-10
5.24804e-10
7.16795e-10
9.28188e-10
1.15836e-09
1.40426e-09
1.66055e-09
1.91989e-09
2.17341e-09
2.41132e-09
2.6236e-09
2.80068e-09
2.93424e-09
3.01778e-09
3.04714e-09
3.02086e-09
2.94023e-09
2.80927e-09
2.63433e-09
2.42365e-09
2.18673e-09
1.93358e-09
1.67402e-09
1.41698e-09
1.16987e-09
9.38153e-10
7.24989e-10
5.31105e-10
3.54856e-10
1.92478e-10
1.35917e-12
5.22985e-15
5.16692e-15
1.34312e-12
1.90303e-10
3.50975e-10
5.25533e-10
7.17792e-10
9.2948e-10
1.15997e-09
1.40622e-09
1.66287e-09
1.92257e-09
2.17645e-09
2.4147e-09
2.62727e-09
2.80461e-09
2.93835e-09
3.02201e-09
3.05141e-09
3.02509e-09
2.94435e-09
2.81319e-09
2.638e-09
2.42703e-09
2.18977e-09
1.93626e-09
1.67634e-09
1.41893e-09
1.17148e-09
9.39444e-10
7.25985e-10
5.31832e-10
3.55341e-10
1.92741e-10
1.36101e-12
5.23689e-15
5.16977e-15
1.34387e-12
1.9041e-10
3.51172e-10
5.25828e-10
7.18195e-10
9.30004e-10
1.16063e-09
1.40702e-09
1.66381e-09
1.92366e-09
2.17768e-09
2.41607e-09
2.62876e-09
2.8062e-09
2.94002e-09
3.02372e-09
3.05314e-09
3.0268e-09
2.94601e-09
2.81478e-09
2.63949e-09
2.4284e-09
2.191e-09
1.93735e-09
1.67728e-09
1.41973e-09
1.17213e-09
9.39967e-10
7.26387e-10
5.32127e-10
3.55538e-10
1.92847e-10
1.36176e-12
5.23973e-15
5.17085e-15
1.34416e-12
1.90451e-10
3.51247e-10
5.25941e-10
7.18349e-10
9.30204e-10
1.16088e-09
1.40732e-09
1.66417e-09
1.92408e-09
2.17815e-09
2.41659e-09
2.62933e-09
2.80681e-09
2.94066e-09
3.02437e-09
3.0538e-09
3.02745e-09
2.94665e-09
2.81539e-09
2.64006e-09
2.42892e-09
2.19147e-09
1.93776e-09
1.67764e-09
1.42003e-09
1.17238e-09
9.40166e-10
7.26541e-10
5.32239e-10
3.55613e-10
1.92887e-10
1.36204e-12
5.24081e-15
5.17125e-15
1.34426e-12
1.90465e-10
3.51274e-10
5.25981e-10
7.18405e-10
9.30276e-10
1.16097e-09
1.40743e-09
1.6643e-09
1.92423e-09
2.17832e-09
2.41678e-09
2.62954e-09
2.80703e-09
2.94089e-09
3.02461e-09
3.05404e-09
3.02769e-09
2.94688e-09
2.81561e-09
2.64027e-09
2.42911e-09
2.19164e-09
1.93791e-09
1.67777e-09
1.42014e-09
1.17247e-09
9.40238e-10
7.26596e-10
5.32279e-10
3.5564e-10
1.92902e-10
1.36214e-12
5.2412e-15
5.17138e-15
1.34429e-12
1.90471e-10
3.51284e-10
5.25995e-10
7.18424e-10
9.303e-10
1.161e-09
1.40747e-09
1.66435e-09
1.92428e-09
2.17838e-09
2.41685e-09
2.62961e-09
2.8071e-09
2.94097e-09
3.02469e-09
3.05412e-09
3.02777e-09
2.94696e-09
2.81569e-09
2.64034e-09
2.42917e-09
2.1917e-09
1.93797e-09
1.67781e-09
1.42018e-09
1.1725e-09
9.40262e-10
7.26615e-10
5.32293e-10
3.55649e-10
1.92907e-10
1.36218e-12
5.24133e-15
5.17142e-15
1.34431e-12
1.90472e-10
3.51287e-10
5.26e-10
7.1843e-10
9.30309e-10
1.16101e-09
1.40748e-09
1.66436e-09
1.92429e-09
2.1784e-09
2.41687e-09
2.62963e-09
2.80713e-09
2.94099e-09
3.02472e-09
3.05415e-09
3.0278e-09
2.94698e-09
2.81571e-09
2.64036e-09
2.42919e-09
2.19172e-09
1.93798e-09
1.67783e-09
1.42019e-09
1.17251e-09
9.4027e-10
7.26622e-10
5.32298e-10
3.55652e-10
1.92909e-10
1.36219e-12
5.24137e-15
5.17144e-15
1.34431e-12
1.90473e-10
3.51288e-10
5.26001e-10
7.18432e-10
9.30311e-10
1.16101e-09
1.40748e-09
1.66436e-09
1.9243e-09
2.17841e-09
2.41687e-09
2.62964e-09
2.80713e-09
2.941e-09
3.02473e-09
3.05416e-09
3.02781e-09
2.94699e-09
2.81572e-09
2.64037e-09
2.4292e-09
2.19172e-09
1.93799e-09
1.67783e-09
1.42019e-09
1.17252e-09
9.40273e-10
7.26623e-10
5.32299e-10
3.55653e-10
1.92909e-10
1.36219e-12
5.24139e-15
5.17144e-15
1.34431e-12
1.90473e-10
3.51288e-10
5.26002e-10
7.18433e-10
9.30312e-10
1.16101e-09
1.40748e-09
1.66437e-09
1.9243e-09
2.17841e-09
2.41688e-09
2.62964e-09
2.80714e-09
2.941e-09
3.02473e-09
3.05416e-09
3.02781e-09
2.94699e-09
2.81572e-09
2.64037e-09
2.4292e-09
2.19173e-09
1.93799e-09
1.67783e-09
1.42019e-09
1.17252e-09
9.40274e-10
7.26624e-10
5.323e-10
3.55653e-10
1.92909e-10
1.36219e-12
5.24139e-15
5.17144e-15
1.34431e-12
1.90473e-10
3.51288e-10
5.26002e-10
7.18433e-10
9.30312e-10
1.16101e-09
1.40748e-09
1.66437e-09
1.9243e-09
2.17841e-09
2.41688e-09
2.62964e-09
2.80714e-09
2.941e-09
3.02473e-09
3.05416e-09
3.02781e-09
2.94699e-09
2.81572e-09
2.64037e-09
2.4292e-09
2.19173e-09
1.93799e-09
1.67783e-09
1.42019e-09
1.17252e-09
9.40274e-10
7.26624e-10
5.323e-10
3.55653e-10
1.92909e-10
1.36219e-12
5.24139e-15
5.17144e-15
1.34431e-12
1.90473e-10
3.51288e-10
5.26002e-10
7.18433e-10
9.30312e-10
1.16101e-09
1.40749e-09
1.66437e-09
1.9243e-09
2.17841e-09
2.41688e-09
2.62964e-09
2.80714e-09
2.941e-09
3.02473e-09
3.05416e-09
3.02781e-09
2.94699e-09
2.81572e-09
2.64037e-09
2.4292e-09
2.19173e-09
1.93799e-09
1.67783e-09
1.42019e-09
1.17252e-09
9.40274e-10
7.26624e-10
5.323e-10
3.55653e-10
1.92909e-10
1.36219e-12
5.24139e-15
5.17144e-15
1.34431e-12
1.90473e-10
3.51288e-10
5.26002e-10
7.18433e-10
9.30312e-10
1.16101e-09
1.40749e-09
1.66437e-09
1.9243e-09
2.17841e-09
2.41688e-09
2.62964e-09
2.80714e-09
2.941e-09
3.02473e-09
3.05416e-09
3.02781e-09
2.94699e-09
2.81572e-09
2.64037e-09
2.4292e-09
2.19173e-09
1.93799e-09
1.67783e-09
1.42019e-09
1.17252e-09
9.40274e-10
7.26624e-10
5.323e-10
3.55653e-10
1.92909e-10
1.36219e-12
5.24139e-15
5.17144e-15
1.34431e-12
1.90473e-10
3.51288e-10
5.26002e-10
7.18433e-10
9.30312e-10
1.16101e-09
1.40749e-09
1.66437e-09
1.9243e-09
2.17841e-09
2.41688e-09
2.62964e-09
2.80714e-09
2.941e-09
3.02473e-09
3.05416e-09
3.02781e-09
2.94699e-09
2.81572e-09
2.64037e-09
2.4292e-09
2.19173e-09
1.93799e-09
1.67783e-09
1.42019e-09
1.17252e-09
9.40274e-10
7.26624e-10
5.323e-10
3.55653e-10
1.92909e-10
1.36219e-12
5.24139e-15
5.17144e-15
1.34431e-12
1.90473e-10
3.51288e-10
5.26002e-10
7.18433e-10
9.30312e-10
1.16101e-09
1.40749e-09
1.66437e-09
1.9243e-09
2.17841e-09
2.41688e-09
2.62964e-09
2.80714e-09
2.941e-09
3.02473e-09
3.05416e-09
3.02781e-09
2.94699e-09
2.81572e-09
2.64037e-09
2.4292e-09
2.19173e-09
1.93799e-09
1.67783e-09
1.42019e-09
1.17252e-09
9.40274e-10
7.26624e-10
5.323e-10
3.55653e-10
1.92909e-10
1.36219e-12
5.24139e-15
5.17144e-15
1.34431e-12
1.90473e-10
3.51288e-10
5.26002e-10
7.18433e-10
9.30312e-10
1.16101e-09
1.40749e-09
1.66437e-09
1.9243e-09
2.17841e-09
2.41688e-09
2.62964e-09
2.80714e-09
2.941e-09
3.02473e-09
3.05416e-09
3.02781e-09
2.94699e-09
2.81572e-09
2.64037e-09
2.4292e-09
2.19173e-09
1.93799e-09
1.67783e-09
1.42019e-09
1.17252e-09
9.40274e-10
7.26624e-10
5.323e-10
3.55653e-10
1.92909e-10
1.36219e-12
5.24139e-15
5.17144e-15
1.34431e-12
1.90473e-10
3.51288e-10
5.26002e-10
7.18433e-10
9.30312e-10
1.16101e-09
1.40749e-09
1.66437e-09
1.9243e-09
2.17841e-09
2.41688e-09
2.62964e-09
2.80714e-09
2.941e-09
3.02473e-09
3.05416e-09
3.02781e-09
2.94699e-09
2.81572e-09
2.64037e-09
2.4292e-09
2.19173e-09
1.93799e-09
1.67783e-09
1.42019e-09
1.17252e-09
9.40274e-10
7.26624e-10
5.323e-10
3.55653e-10
1.92909e-10
1.36219e-12
5.24139e-15
5.17144e-15
1.34431e-12
1.90473e-10
3.51288e-10
5.26002e-10
7.18433e-10
9.30312e-10
1.16101e-09
1.40749e-09
1.66437e-09
1.9243e-09
2.17841e-09
2.41688e-09
2.62964e-09
2.80714e-09
2.941e-09
3.02473e-09
3.05416e-09
3.02781e-09
2.94699e-09
2.81572e-09
2.64037e-09
2.4292e-09
2.19173e-09
1.93799e-09
1.67783e-09
1.42019e-09
1.17252e-09
9.40274e-10
7.26624e-10
5.323e-10
3.55653e-10
1.92909e-10
1.36219e-12
5.24139e-15
5.17144e-15
1.34431e-12
1.90473e-10
3.51288e-10
5.26002e-10
7.18433e-10
9.30312e-10
1.16101e-09
1.40749e-09
1.66437e-09
1.9243e-09
2.17841e-09
2.41688e-09
2.62964e-09
2.80714e-09
2.941e-09
3.02473e-09
3.05416e-09
3.02781e-09
2.94699e-09
2.81572e-09
2.64037e-09
2.4292e-09
2.19173e-09
1.93799e-09
1.67783e-09
1.42019e-09
1.17252e-09
9.40274e-10
7.26624e-10
5.323e-10
3.55653e-10
1.92909e-10
1.36219e-12
5.24139e-15
5.17144e-15
1.34431e-12
1.90473e-10
3.51288e-10
5.26002e-10
7.18433e-10
9.30312e-10
1.16101e-09
1.40749e-09
1.66437e-09
1.9243e-09
2.17841e-09
2.41688e-09
2.62964e-09
2.80714e-09
2.941e-09
3.02473e-09
3.05416e-09
3.02781e-09
2.94699e-09
2.81572e-09
2.64037e-09
2.4292e-09
2.19173e-09
1.93799e-09
1.67783e-09
1.42019e-09
1.17252e-09
9.40274e-10
7.26624e-10
5.323e-10
3.55653e-10
1.92909e-10
1.36219e-12
5.24139e-15
5.17144e-15
1.34431e-12
1.90473e-10
3.51288e-10
5.26002e-10
7.18433e-10
9.30312e-10
1.16101e-09
1.40749e-09
1.66437e-09
1.9243e-09
2.17841e-09
2.41688e-09
2.62964e-09
2.80714e-09
2.941e-09
3.02473e-09
3.05416e-09
3.02781e-09
2.94699e-09
2.81572e-09
2.64037e-09
2.4292e-09
2.19173e-09
1.93799e-09
1.67783e-09
1.42019e-09
1.17252e-09
9.40274e-10
7.26624e-10
5.323e-10
3.55653e-10
1.92909e-10
1.36219e-12
5.24139e-15
5.17144e-15
1.34431e-12
1.90473e-10
3.51288e-10
5.26002e-10
7.18433e-10
9.30312e-10
1.16101e-09
1.40749e-09
1.66437e-09
1.9243e-09
2.17841e-09
2.41688e-09
2.62964e-09
2.80714e-09
2.941e-09
3.02473e-09
3.05416e-09
3.02781e-09
2.94699e-09
2.81572e-09
2.64037e-09
2.4292e-09
2.19173e-09
1.93799e-09
1.67783e-09
1.42019e-09
1.17252e-09
9.40274e-10
7.26624e-10
5.323e-10
3.55653e-10
1.92909e-10
1.36219e-12
5.24139e-15
5.17144e-15
1.34431e-12
1.90473e-10
3.51288e-10
5.26002e-10
7.18433e-10
9.30312e-10
1.16101e-09
1.40749e-09
1.66437e-09
1.9243e-09
2.17841e-09
2.41688e-09
2.62964e-09
2.80714e-09
2.941e-09
3.02473e-09
3.05416e-09
3.02781e-09
2.94699e-09
2.81572e-09
2.64037e-09
2.4292e-09
2.19173e-09
1.93799e-09
1.67783e-09
1.42019e-09
1.17252e-09
9.40274e-10
7.26624e-10
5.323e-10
3.55653e-10
1.92909e-10
1.36219e-12
5.24139e-15
5.17144e-15
1.34431e-12
1.90473e-10
3.51288e-10
5.26002e-10
7.18433e-10
9.30312e-10
1.16101e-09
1.40749e-09
1.66437e-09
1.9243e-09
2.17841e-09
2.41688e-09
2.62964e-09
2.80714e-09
2.941e-09
3.02473e-09
3.05416e-09
3.02781e-09
2.94699e-09
2.81572e-09
2.64037e-09
2.4292e-09
2.19173e-09
1.93799e-09
1.67783e-09
1.42019e-09
1.17252e-09
9.40274e-10
7.26624e-10
5.323e-10
3.55653e-10
1.92909e-10
1.36219e-12
5.24139e-15
5.17144e-15
1.34431e-12
1.90473e-10
3.51288e-10
5.26002e-10
7.18433e-10
9.30312e-10
1.16101e-09
1.40749e-09
1.66437e-09
1.9243e-09
2.17841e-09
2.41688e-09
2.62964e-09
2.80714e-09
2.941e-09
3.02473e-09
3.05416e-09
3.02781e-09
2.94699e-09
2.81572e-09
2.64037e-09
2.4292e-09
2.19173e-09
1.93799e-09
1.67783e-09
1.42019e-09
1.17252e-09
9.40274e-10
7.26624e-10
5.323e-10
3.55653e-10
1.92909e-10
1.36219e-12
5.24139e-15
5.17144e-15
1.34431e-12
1.90473e-10
3.51288e-10
5.26002e-10
7.18433e-10
9.30312e-10
1.16101e-09
1.40749e-09
1.66437e-09
1.9243e-09
2.17841e-09
2.41688e-09
2.62964e-09
2.80714e-09
2.941e-09
3.02473e-09
3.05416e-09
3.02781e-09
2.94699e-09
2.81572e-09
2.64037e-09
2.4292e-09
2.19173e-09
1.93799e-09
1.67783e-09
1.42019e-09
1.17252e-09
9.40274e-10
7.26624e-10
5.323e-10
3.55653e-10
1.92909e-10
1.36219e-12
5.24139e-15
5.17144e-15
1.34431e-12
1.90473e-10
3.51288e-10
5.26002e-10
7.18433e-10
9.30312e-10
1.16101e-09
1.40749e-09
1.66437e-09
1.9243e-09
2.17841e-09
2.41688e-09
2.62964e-09
2.80714e-09
2.941e-09
3.02473e-09
3.05416e-09
3.02781e-09
2.94699e-09
2.81572e-09
2.64037e-09
2.4292e-09
2.19173e-09
1.93799e-09
1.67783e-09
1.42019e-09
1.17252e-09
9.40274e-10
7.26624e-10
5.323e-10
3.55653e-10
1.92909e-10
1.36219e-12
5.24139e-15
5.17144e-15
1.34431e-12
1.90473e-10
3.51288e-10
5.26002e-10
7.18433e-10
9.30312e-10
1.16101e-09
1.40749e-09
1.66437e-09
1.9243e-09
2.17841e-09
2.41688e-09
2.62964e-09
2.80714e-09
2.941e-09
3.02473e-09
3.05416e-09
3.02781e-09
2.94699e-09
2.81572e-09
2.64037e-09
2.4292e-09
2.19173e-09
1.93799e-09
1.67783e-09
1.42019e-09
1.17252e-09
9.40274e-10
7.26624e-10
5.323e-10
3.55653e-10
1.92909e-10
1.36219e-12
5.24139e-15
5.17144e-15
1.34431e-12
1.90473e-10
3.51288e-10
5.26002e-10
7.18433e-10
9.30312e-10
1.16101e-09
1.40749e-09
1.66437e-09
1.9243e-09
2.17841e-09
2.41688e-09
2.62964e-09
2.80714e-09
2.941e-09
3.02473e-09
3.05416e-09
3.02781e-09
2.94699e-09
2.81572e-09
2.64037e-09
2.4292e-09
2.19173e-09
1.93799e-09
1.67783e-09
1.42019e-09
1.17252e-09
9.40274e-10
7.26624e-10
5.323e-10
3.55653e-10
1.92909e-10
1.36219e-12
5.24139e-15
5.17144e-15
1.34431e-12
1.90473e-10
3.51288e-10
5.26002e-10
7.18433e-10
9.30312e-10
1.16101e-09
1.40749e-09
1.66437e-09
1.9243e-09
2.17841e-09
2.41688e-09
2.62964e-09
2.80714e-09
2.941e-09
3.02473e-09
3.05416e-09
3.02781e-09
2.94699e-09
2.81572e-09
2.64037e-09
2.4292e-09
2.19173e-09
1.93799e-09
1.67783e-09
1.42019e-09
1.17252e-09
9.40274e-10
7.26624e-10
5.323e-10
3.55653e-10
1.92909e-10
1.36219e-12
5.24139e-15
5.17144e-15
1.34431e-12
1.90473e-10
3.51288e-10
5.26002e-10
7.18433e-10
9.30312e-10
1.16101e-09
1.40749e-09
1.66437e-09
1.9243e-09
2.17841e-09
2.41688e-09
2.62964e-09
2.80714e-09
2.941e-09
3.02473e-09
3.05416e-09
3.02781e-09
2.94699e-09
2.81572e-09
2.64037e-09
2.4292e-09
2.19173e-09
1.93799e-09
1.67783e-09
1.42019e-09
1.17252e-09
9.40274e-10
7.26624e-10
5.323e-10
3.55653e-10
1.92909e-10
1.36219e-12
5.24139e-15
5.17144e-15
1.34431e-12
1.90473e-10
3.51288e-10
5.26002e-10
7.18433e-10
9.30312e-10
1.16101e-09
1.40749e-09
1.66437e-09
1.9243e-09
2.17841e-09
2.41688e-09
2.62964e-09
2.80714e-09
2.941e-09
3.02473e-09
3.05416e-09
3.02781e-09
2.94699e-09
2.81572e-09
2.64037e-09
2.4292e-09
2.19173e-09
1.93799e-09
1.67783e-09
1.42019e-09
1.17252e-09
9.40274e-10
7.26624e-10
5.323e-10
3.55653e-10
1.92909e-10
1.36219e-12
5.24139e-15
5.17144e-15
1.34431e-12
1.90473e-10
3.51288e-10
5.26002e-10
7.18433e-10
9.30312e-10
1.16101e-09
1.40749e-09
1.66437e-09
1.9243e-09
2.17841e-09
2.41688e-09
2.62964e-09
2.80714e-09
2.941e-09
3.02473e-09
3.05416e-09
3.02781e-09
2.94699e-09
2.81572e-09
2.64037e-09
2.4292e-09
2.19173e-09
1.93799e-09
1.67783e-09
1.42019e-09
1.17252e-09
9.40274e-10
7.26624e-10
5.323e-10
3.55653e-10
1.92909e-10
1.36219e-12
5.24139e-15
5.17144e-15
1.34431e-12
1.90473e-10
3.51288e-10
5.26002e-10
7.18433e-10
9.30312e-10
1.16101e-09
1.40749e-09
1.66437e-09
1.9243e-09
2.17841e-09
2.41688e-09
2.62964e-09
2.80714e-09
2.941e-09
3.02473e-09
3.05416e-09
3.02781e-09
2.94699e-09
2.81572e-09
2.64037e-09
2.4292e-09
2.19173e-09
1.93799e-09
1.67783e-09
1.42019e-09
1.17252e-09
9.40274e-10
7.26624e-10
5.323e-10
3.55653e-10
1.92909e-10
1.36219e-12
5.24139e-15
5.17144e-15
1.34431e-12
1.90473e-10
3.51288e-10
5.26002e-10
7.18433e-10
9.30312e-10
1.16101e-09
1.40749e-09
1.66437e-09
1.9243e-09
2.17841e-09
2.41688e-09
2.62964e-09
2.80714e-09
2.941e-09
3.02473e-09
3.05416e-09
3.02781e-09
2.94699e-09
2.81572e-09
2.64037e-09
2.4292e-09
2.19173e-09
1.93799e-09
1.67783e-09
1.42019e-09
1.17252e-09
9.40274e-10
7.26624e-10
5.323e-10
3.55653e-10
1.92909e-10
1.36219e-12
5.24139e-15
5.17144e-15
1.34431e-12
1.90473e-10
3.51288e-10
5.26002e-10
7.18433e-10
9.30312e-10
1.16101e-09
1.40749e-09
1.66437e-09
1.9243e-09
2.17841e-09
2.41688e-09
2.62964e-09
2.80714e-09
2.941e-09
3.02473e-09
3.05416e-09
3.02781e-09
2.94699e-09
2.81572e-09
2.64037e-09
2.4292e-09
2.19173e-09
1.93799e-09
1.67783e-09
1.42019e-09
1.17252e-09
9.40274e-10
7.26624e-10
5.323e-10
3.55653e-10
1.92909e-10
1.36219e-12
5.24139e-15
5.17144e-15
1.34431e-12
1.90473e-10
3.51288e-10
5.26002e-10
7.18433e-10
9.30312e-10
1.16101e-09
1.40749e-09
1.66437e-09
1.9243e-09
2.17841e-09
2.41688e-09
2.62964e-09
2.80714e-09
2.941e-09
3.02473e-09
3.05416e-09
3.02781e-09
2.94699e-09
2.81572e-09
2.64037e-09
2.4292e-09
2.19173e-09
1.93799e-09
1.67783e-09
1.42019e-09
1.17252e-09
9.40274e-10
7.26624e-10
5.323e-10
3.55653e-10
1.92909e-10
1.36219e-12
5.24139e-15
5.17144e-15
1.34431e-12
1.90473e-10
3.51288e-10
5.26002e-10
7.18433e-10
9.30312e-10
1.16101e-09
1.40749e-09
1.66437e-09
1.9243e-09
2.17841e-09
2.41688e-09
2.62964e-09
2.80714e-09
2.941e-09
3.02473e-09
3.05416e-09
3.02781e-09
2.94699e-09
2.81572e-09
2.64037e-09
2.4292e-09
2.19173e-09
1.93799e-09
1.67783e-09
1.42019e-09
1.17252e-09
9.40274e-10
7.26624e-10
5.323e-10
3.55653e-10
1.92909e-10
1.36219e-12
5.24139e-15
5.17144e-15
1.34431e-12
1.90473e-10
3.51288e-10
5.26002e-10
7.18433e-10
9.30312e-10
1.16101e-09
1.40749e-09
1.66437e-09
1.9243e-09
2.17841e-09
2.41688e-09
2.62964e-09
2.80714e-09
2.941e-09
3.02473e-09
3.05416e-09
3.02781e-09
2.94699e-09
2.81572e-09
2.64037e-09
2.4292e-09
2.19173e-09
1.93799e-09
1.67783e-09
1.42019e-09
1.17252e-09
9.40274e-10
7.26624e-10
5.323e-10
3.55653e-10
1.92909e-10
1.36219e-12
5.24139e-15
5.17144e-15
1.34431e-12
1.90473e-10
3.51288e-10
5.26002e-10
7.18433e-10
9.30312e-10
1.16101e-09
1.40749e-09
1.66437e-09
1.9243e-09
2.17841e-09
2.41688e-09
2.62964e-09
2.80714e-09
2.941e-09
3.02473e-09
3.05416e-09
3.02781e-09
2.94699e-09
2.81572e-09
2.64037e-09
2.4292e-09
2.19173e-09
1.93799e-09
1.67783e-09
1.42019e-09
1.17252e-09
9.40274e-10
7.26624e-10
5.323e-10
3.55653e-10
1.92909e-10
1.36219e-12
5.24139e-15
5.17144e-15
1.34431e-12
1.90473e-10
3.51288e-10
5.26002e-10
7.18433e-10
9.30312e-10
1.16101e-09
1.40749e-09
1.66437e-09
1.9243e-09
2.17841e-09
2.41688e-09
2.62964e-09
2.80714e-09
2.941e-09
3.02473e-09
3.05416e-09
3.02781e-09
2.94699e-09
2.81572e-09
2.64037e-09
2.4292e-09
2.19173e-09
1.93799e-09
1.67783e-09
1.42019e-09
1.17252e-09
9.40274e-10
7.26624e-10
5.323e-10
3.55653e-10
1.92909e-10
1.36219e-12
5.24139e-15
5.17144e-15
1.34431e-12
1.90473e-10
3.51288e-10
5.26002e-10
7.18433e-10
9.30312e-10
1.16101e-09
1.40749e-09
1.66437e-09
1.9243e-09
2.17841e-09
2.41688e-09
2.62964e-09
2.80714e-09
2.941e-09
3.02473e-09
3.05416e-09
3.02781e-09
2.94699e-09
2.81572e-09
2.64037e-09
2.4292e-09
2.19173e-09
1.93799e-09
1.67783e-09
1.42019e-09
1.17252e-09
9.40274e-10
7.26624e-10
5.323e-10
3.55653e-10
1.92909e-10
1.36219e-12
5.24139e-15
5.17144e-15
1.34431e-12
1.90473e-10
3.51288e-10
5.26002e-10
7.18433e-10
9.30312e-10
1.16101e-09
1.40749e-09
1.66437e-09
1.9243e-09
2.17841e-09
2.41688e-09
2.62964e-09
2.80714e-09
2.941e-09
3.02473e-09
3.05416e-09
3.02781e-09
2.94699e-09
2.81572e-09
2.64037e-09
2.4292e-09
2.19173e-09
1.93799e-09
1.67783e-09
1.42019e-09
1.17252e-09
9.40274e-10
7.26624e-10
5.323e-10
3.55653e-10
1.92909e-10
1.36219e-12
5.24139e-15
5.17144e-15
1.34431e-12
1.90473e-10
3.51288e-10
5.26002e-10
7.18433e-10
9.30312e-10
1.16101e-09
1.40749e-09
1.66437e-09
1.9243e-09
2.17841e-09
2.41688e-09
2.62964e-09
2.80714e-09
2.941e-09
3.02473e-09
3.05416e-09
3.02781e-09
2.94699e-09
2.81572e-09
2.64037e-09
2.4292e-09
2.19173e-09
1.93799e-09
1.67783e-09
1.42019e-09
1.17252e-09
9.40274e-10
7.26624e-10
5.323e-10
3.55653e-10
1.92909e-10
1.36219e-12
5.24139e-15
5.17144e-15
1.34431e-12
1.90473e-10
3.51288e-10
5.26002e-10
7.18433e-10
9.30312e-10
1.16101e-09
1.40749e-09
1.66437e-09
1.9243e-09
2.17841e-09
2.41688e-09
2.62964e-09
2.80714e-09
2.941e-09
3.02473e-09
3.05416e-09
3.02781e-09
2.94699e-09
2.81572e-09
2.64037e-09
2.4292e-09
2.19173e-09
1.93799e-09
1.67783e-09
1.42019e-09
1.17252e-09
9.40274e-10
7.26624e-10
5.323e-10
3.55653e-10
1.92909e-10
1.36219e-12
5.24139e-15
5.17144e-15
1.34431e-12
1.90473e-10
3.51288e-10
5.26002e-10
7.18433e-10
9.30312e-10
1.16101e-09
1.40749e-09
1.66437e-09
1.9243e-09
2.17841e-09
2.41688e-09
2.62964e-09
2.80714e-09
2.941e-09
3.02473e-09
3.05416e-09
3.02781e-09
2.94699e-09
2.81572e-09
2.64037e-09
2.4292e-09
2.19173e-09
1.93799e-09
1.67783e-09
1.42019e-09
1.17252e-09
9.40274e-10
7.26624e-10
5.323e-10
3.55653e-10
1.92909e-10
1.36219e-12
5.24139e-15
5.17144e-15
1.34431e-12
1.90473e-10
3.51288e-10
5.26002e-10
7.18433e-10
9.30312e-10
1.16101e-09
1.40749e-09
1.66437e-09
1.9243e-09
2.17841e-09
2.41688e-09
2.62964e-09
2.80714e-09
2.941e-09
3.02473e-09
3.05416e-09
3.02781e-09
2.94699e-09
2.81572e-09
2.64037e-09
2.4292e-09
2.19173e-09
1.93799e-09
1.67783e-09
1.42019e-09
1.17252e-09
9.40274e-10
7.26624e-10
5.323e-10
3.55653e-10
1.92909e-10
1.36219e-12
5.24139e-15
5.17144e-15
1.34431e-12
1.90473e-10
3.51288e-10
5.26002e-10
7.18433e-10
9.30312e-10
1.16101e-09
1.40749e-09
1.66437e-09
1.9243e-09
2.17841e-09
2.41688e-09
2.62964e-09
2.80714e-09
2.941e-09
3.02473e-09
3.05416e-09
3.02781e-09
2.94699e-09
2.81572e-09
2.64037e-09
2.4292e-09
2.19173e-09
1.93799e-09
1.67783e-09
1.42019e-09
1.17252e-09
9.40274e-10
7.26624e-10
5.323e-10
3.55653e-10
1.92909e-10
1.36219e-12
5.24139e-15
5.17144e-15
1.34431e-12
1.90473e-10
3.51288e-10
5.26002e-10
7.18433e-10
9.30312e-10
1.16101e-09
1.40749e-09
1.66437e-09
1.9243e-09
2.17841e-09
2.41688e-09
2.62964e-09
2.80714e-09
2.941e-09
3.02473e-09
3.05416e-09
3.02781e-09
2.94699e-09
2.81572e-09
2.64037e-09
2.4292e-09
2.19173e-09
1.93799e-09
1.67783e-09
1.42019e-09
1.17252e-09
9.40274e-10
7.26624e-10
5.323e-10
3.55653e-10
1.92909e-10
1.36219e-12
5.24139e-15
5.17144e-15
1.34431e-12
1.90473e-10
3.51288e-10
5.26002e-10
7.18433e-10
9.30312e-10
1.16101e-09
1.40749e-09
1.66437e-09
1.9243e-09
2.17841e-09
2.41688e-09
2.62964e-09
2.80714e-09
2.941e-09
3.02473e-09
3.05416e-09
3.02781e-09
2.94699e-09
2.81572e-09
2.64037e-09
2.4292e-09
2.19173e-09
1.93799e-09
1.67783e-09
1.42019e-09
1.17252e-09
9.40274e-10
7.26624e-10
5.323e-10
3.55653e-10
1.92909e-10
1.36219e-12
5.24139e-15
5.17144e-15
1.34431e-12
1.90473e-10
3.51288e-10
5.26002e-10
7.18433e-10
9.30312e-10
1.16101e-09
1.40749e-09
1.66437e-09
1.9243e-09
2.17841e-09
2.41688e-09
2.62964e-09
2.80714e-09
2.941e-09
3.02473e-09
3.05416e-09
3.02781e-09
2.94699e-09
2.81572e-09
2.64037e-09
2.4292e-09
2.19173e-09
1.93799e-09
1.67783e-09
1.42019e-09
1.17252e-09
9.40274e-10
7.26624e-10
5.323e-10
3.55653e-10
1.92909e-10
1.36219e-12
5.24139e-15
5.17144e-15
1.34431e-12
1.90473e-10
3.51288e-10
5.26002e-10
7.18433e-10
9.30312e-10
1.16101e-09
1.40749e-09
1.66437e-09
1.9243e-09
2.17841e-09
2.41688e-09
2.62964e-09
2.80714e-09
2.941e-09
3.02473e-09
3.05416e-09
3.02781e-09
2.94699e-09
2.81572e-09
2.64037e-09
2.4292e-09
2.19173e-09
1.93799e-09
1.67783e-09
1.42019e-09
1.17252e-09
9.40274e-10
7.26624e-10
5.323e-10
3.55653e-10
1.92909e-10
1.36219e-12
5.24139e-15
5.17144e-15
1.34431e-12
1.90473e-10
3.51288e-10
5.26002e-10
7.18433e-10
9.30312e-10
1.16101e-09
1.40749e-09
1.66437e-09
1.9243e-09
2.17841e-09
2.41688e-09
2.62964e-09
2.80714e-09
2.941e-09
3.02473e-09
3.05416e-09
3.02781e-09
2.94699e-09
2.81572e-09
2.64037e-09
2.4292e-09
2.19173e-09
1.93799e-09
1.67783e-09
1.42019e-09
1.17252e-09
9.40274e-10
7.26624e-10
5.323e-10
3.55653e-10
1.92909e-10
1.36219e-12
5.24139e-15
5.17144e-15
1.34431e-12
1.90473e-10
3.51288e-10
5.26002e-10
7.18433e-10
9.30312e-10
1.16101e-09
1.40749e-09
1.66437e-09
1.9243e-09
2.17841e-09
2.41688e-09
2.62964e-09
2.80714e-09
2.941e-09
3.02473e-09
3.05416e-09
3.02781e-09
2.94699e-09
2.81572e-09
2.64037e-09
2.4292e-09
2.19173e-09
1.93799e-09
1.67783e-09
1.42019e-09
1.17252e-09
9.40274e-10
7.26624e-10
5.323e-10
3.55653e-10
1.92909e-10
1.36219e-12
5.24139e-15
5.17144e-15
1.34431e-12
1.90473e-10
3.51288e-10
5.26002e-10
7.18433e-10
9.30312e-10
1.16101e-09
1.40749e-09
1.66437e-09
1.9243e-09
2.17841e-09
2.41688e-09
2.62964e-09
2.80714e-09
2.941e-09
3.02473e-09
3.05416e-09
3.02781e-09
2.94699e-09
2.81572e-09
2.64037e-09
2.4292e-09
2.19173e-09
1.93799e-09
1.67783e-09
1.42019e-09
1.17252e-09
9.40274e-10
7.26624e-10
5.323e-10
3.55653e-10
1.92909e-10
1.36219e-12
5.24139e-15
5.17144e-15
1.34431e-12
1.90473e-10
3.51288e-10
5.26002e-10
7.18433e-10
9.30312e-10
1.16101e-09
1.40749e-09
1.66437e-09
1.9243e-09
2.17841e-09
2.41688e-09
2.62964e-09
2.80714e-09
2.941e-09
3.02473e-09
3.05416e-09
3.02781e-09
2.94699e-09
2.81572e-09
2.64037e-09
2.4292e-09
2.19173e-09
1.93799e-09
1.67783e-09
1.42019e-09
1.17252e-09
9.40274e-10
7.26624e-10
5.323e-10
3.55653e-10
1.92909e-10
1.36219e-12
5.24139e-15
5.17144e-15
1.34431e-12
1.90473e-10
3.51288e-10
5.26002e-10
7.18433e-10
9.30312e-10
1.16101e-09
1.40749e-09
1.66437e-09
1.9243e-09
2.17841e-09
2.41688e-09
2.62964e-09
2.80714e-09
2.941e-09
3.02473e-09
3.05416e-09
3.02781e-09
2.94699e-09
2.81572e-09
2.64037e-09
2.4292e-09
2.19173e-09
1.93799e-09
1.67783e-09
1.42019e-09
1.17252e-09
9.40274e-10
7.26624e-10
5.323e-10
3.55653e-10
1.92909e-10
1.36219e-12
5.24139e-15
5.17144e-15
1.34431e-12
1.90473e-10
3.51288e-10
5.26002e-10
7.18433e-10
9.30312e-10
1.16101e-09
1.40749e-09
1.66437e-09
1.9243e-09
2.17841e-09
2.41688e-09
2.62964e-09
2.80714e-09
2.941e-09
3.02473e-09
3.05416e-09
3.02781e-09
2.94699e-09
2.81572e-09
2.64037e-09
2.4292e-09
2.19173e-09
1.93799e-09
1.67783e-09
1.42019e-09
1.17252e-09
9.40274e-10
7.26624e-10
5.323e-10
3.55653e-10
1.92909e-10
1.36219e-12
5.24139e-15
5.17144e-15
1.34431e-12
1.90473e-10
3.51288e-10
5.26002e-10
7.18433e-10
9.30312e-10
1.16101e-09
1.40749e-09
1.66437e-09
1.9243e-09
2.17841e-09
2.41688e-09
2.62964e-09
2.80714e-09
2.941e-09
3.02473e-09
3.05416e-09
3.02781e-09
2.94699e-09
2.81572e-09
2.64037e-09
2.4292e-09
2.19173e-09
1.93799e-09