/*--------------------------------*- C++ -*----------------------------------*\
  =========                 |
  \\      /  F ield         | OpenFOAM: The Open Source CFD Toolbox
   \\    /   O peration     | Website:  https://openfoam.org
    \\  /    A nd           | Version:  13
     \\/     M anipulation  |
\*---------------------------------------------------------------------------*/
FoamFile
{
    format      ascii;
    class       volScalarField;
    location    "107.5";
    object      nut;
}
// * * * * * * * * * * * * * * * * * * * * * * * * * * * * * * * * * * * * * //

dimensions      [0 2 -1 0 0 0 0];

internalField   nonuniform List<scalar> 
315000
(
7.45368e-15
1.95197e-12
4.45403e-11
7.99432e-11
1.15915e-10
1.52525e-10
1.89866e-10
2.28015e-10
2.67026e-10
3.06918e-10
3.47671e-10
3.8923e-10
4.315e-10
4.74352e-10
5.17625e-10
5.6113e-10
6.04654e-10
6.47965e-10
6.90816e-10
7.32948e-10
7.74098e-10
8.13999e-10
8.52385e-10
8.88995e-10
9.23574e-10
9.55878e-10
9.85677e-10
1.01275e-09
1.03691e-09
1.05797e-09
1.07578e-09
1.0902e-09
1.10112e-09
1.10847e-09
1.11218e-09
1.11223e-09
1.10862e-09
1.10137e-09
1.09054e-09
1.07622e-09
1.05851e-09
1.03753e-09
1.01346e-09
9.86457e-10
9.56729e-10
9.24489e-10
8.89967e-10
8.53407e-10
8.15063e-10
7.75196e-10
7.34072e-10
6.91957e-10
6.49116e-10
6.05806e-10
5.62274e-10
5.18754e-10
4.75458e-10
4.32575e-10
3.90266e-10
3.48662e-10
3.07856e-10
2.67904e-10
2.28826e-10
1.90601e-10
1.53175e-10
1.16466e-10
8.03782e-11
4.48262e-11
1.9672e-12
7.51786e-15
1.86536e-13
4.96733e-11
1.13099e-08
2.0452e-08
2.96977e-08
3.90875e-08
4.86551e-08
5.84255e-08
6.84145e-08
7.86279e-08
8.90611e-08
9.96993e-08
1.10518e-07
1.21483e-07
1.32552e-07
1.43677e-07
1.54802e-07
1.65867e-07
1.76809e-07
1.87561e-07
1.98056e-07
2.08226e-07
2.18005e-07
2.27326e-07
2.36124e-07
2.4434e-07
2.51914e-07
2.58793e-07
2.64928e-07
2.70274e-07
2.74791e-07
2.78449e-07
2.81218e-07
2.83079e-07
2.84018e-07
2.84029e-07
2.8311e-07
2.8127e-07
2.7852e-07
2.74883e-07
2.70384e-07
2.65056e-07
2.58938e-07
2.52075e-07
2.44515e-07
2.36313e-07
2.27526e-07
2.18215e-07
2.08445e-07
1.98281e-07
1.87791e-07
1.77042e-07
1.66102e-07
1.55037e-07
1.4391e-07
1.32782e-07
1.21707e-07
1.10735e-07
9.99071e-08
8.92583e-08
7.88128e-08
6.85854e-08
5.85807e-08
4.87927e-08
3.92056e-08
2.97937e-08
2.05231e-08
1.13525e-08
4.98753e-11
1.8732e-13
7.50508e-13
2.00146e-10
1.15806e-07
2.08918e-07
3.02682e-07
3.97604e-07
4.94094e-07
5.92454e-07
6.92869e-07
7.95404e-07
8.99999e-07
1.00648e-06
1.11454e-06
1.22381e-06
1.33381e-06
1.44401e-06
1.5538e-06
1.66259e-06
1.76971e-06
1.87454e-06
1.97644e-06
2.07476e-06
2.16891e-06
2.25829e-06
2.34234e-06
2.42055e-06
2.49241e-06
2.55749e-06
2.61536e-06
2.66567e-06
2.70811e-06
2.74239e-06
2.76832e-06
2.78572e-06
2.79448e-06
2.79456e-06
2.78594e-06
2.76869e-06
2.74291e-06
2.70877e-06
2.66647e-06
2.61629e-06
2.55854e-06
2.49359e-06
2.42183e-06
2.34372e-06
2.25976e-06
2.17045e-06
2.07637e-06
1.9781e-06
1.87625e-06
1.77145e-06
1.66434e-06
1.55555e-06
1.44574e-06
1.33552e-06
1.22548e-06
1.11616e-06
1.00802e-06
9.0146e-07
7.96768e-07
6.94123e-07
5.93584e-07
4.95087e-07
3.98447e-07
3.03359e-07
2.09412e-07
1.16096e-07
2.00677e-10
7.52544e-13
1.40123e-12
3.73717e-10
2.15562e-07
3.87744e-07
5.60507e-07
7.34963e-07
9.11997e-07
1.09225e-06
1.27609e-06
1.46364e-06
1.65473e-06
1.84898e-06
2.04574e-06
2.24421e-06
2.44342e-06
2.6423e-06
2.83975e-06
3.03461e-06
3.22577e-06
3.4121e-06
3.59253e-06
3.76602e-06
3.93158e-06
4.08827e-06
4.23521e-06
4.37156e-06
4.49657e-06
4.60954e-06
4.70983e-06
4.79689e-06
4.87021e-06
4.9294e-06
4.97411e-06
5.00409e-06
5.01918e-06
5.01928e-06
5.0044e-06
4.97462e-06
4.9301e-06
4.87111e-06
4.79797e-06
4.7111e-06
4.61097e-06
4.49816e-06
4.3733e-06
4.23708e-06
4.09027e-06
3.93369e-06
3.76822e-06
3.59481e-06
3.41443e-06
3.22814e-06
3.03701e-06
2.84215e-06
2.64469e-06
2.44578e-06
2.24652e-06
2.04797e-06
1.85111e-06
1.65676e-06
1.46553e-06
1.27783e-06
1.09381e-06
9.13372e-07
7.36127e-07
5.6144e-07
3.88423e-07
2.1596e-07
3.74452e-10
1.40405e-12
2.13367e-12
5.69126e-10
3.27114e-07
5.86403e-07
8.45376e-07
1.10594e-06
1.36959e-06
1.63734e-06
1.90976e-06
2.187e-06
2.46874e-06
2.75431e-06
3.04268e-06
3.33255e-06
3.62249e-06
3.91095e-06
4.19633e-06
4.47708e-06
4.75164e-06
5.01854e-06
5.27634e-06
5.52368e-06
5.75923e-06
5.98176e-06
6.19009e-06
6.38316e-06
6.56001e-06
6.71973e-06
6.86146e-06
6.98445e-06
7.08802e-06
7.1716e-06
7.23473e-06
7.27705e-06
7.29833e-06
7.29845e-06
7.2774e-06
7.2353e-06
7.17239e-06
7.08903e-06
6.98566e-06
6.86288e-06
6.72133e-06
6.5618e-06
6.38512e-06
6.1922e-06
5.98402e-06
5.76161e-06
5.52616e-06
5.27892e-06
5.02119e-06
4.75434e-06
4.47981e-06
4.19907e-06
3.91368e-06
3.62519e-06
3.3352e-06
3.04524e-06
2.75677e-06
2.47108e-06
2.18918e-06
1.91178e-06
1.63915e-06
1.37119e-06
1.1073e-06
8.46465e-07
5.87198e-07
3.27583e-07
5.69999e-10
2.13703e-12
2.90295e-12
7.74402e-10
4.43444e-07
7.92072e-07
1.1385e-06
1.48559e-06
1.83549e-06
2.18967e-06
2.54891e-06
2.91334e-06
3.28253e-06
3.65549e-06
4.03085e-06
4.40692e-06
4.78186e-06
5.15375e-06
5.52066e-06
5.88069e-06
6.23202e-06
6.57287e-06
6.90164e-06
7.21684e-06
7.51699e-06
7.80064e-06
8.06638e-06
8.31284e-06
8.5387e-06
8.74273e-06
8.92381e-06
9.08094e-06
9.21324e-06
9.31999e-06
9.4006e-06
9.45462e-06
9.48177e-06
9.48188e-06
9.45497e-06
9.40117e-06
9.32079e-06
9.21426e-06
9.08217e-06
8.92525e-06
8.74436e-06
8.54052e-06
8.31483e-06
8.06853e-06
7.80294e-06
7.51941e-06
7.21938e-06
6.90428e-06
6.57557e-06
6.23479e-06
5.8835e-06
5.52348e-06
5.15656e-06
4.78465e-06
4.40965e-06
4.03351e-06
3.65806e-06
3.28497e-06
2.91563e-06
2.55102e-06
2.19158e-06
1.83718e-06
1.48702e-06
1.13965e-06
7.92919e-07
4.43946e-07
7.75349e-10
2.90659e-12
3.64898e-12
9.7353e-10
5.55473e-07
9.88732e-07
1.41712e-06
1.84455e-06
2.2739e-06
2.70708e-06
3.14508e-06
3.58807e-06
4.03548e-06
4.48613e-06
4.93833e-06
5.39013e-06
5.83941e-06
6.28398e-06
6.72167e-06
7.15042e-06
7.5683e-06
7.97348e-06
8.36423e-06
8.7388e-06
9.09548e-06
9.43253e-06
9.74824e-06
1.00409e-05
1.03091e-05
1.05511e-05
1.07658e-05
1.09521e-05
1.11088e-05
1.12352e-05
1.13306e-05
1.13945e-05
1.14266e-05
1.14267e-05
1.13948e-05
1.13311e-05
1.12359e-05
1.11098e-05
1.09532e-05
1.07672e-05
1.05527e-05
1.03108e-05
1.00428e-05
9.75029e-06
9.43473e-06
9.0978e-06
8.74123e-06
8.36675e-06
7.97608e-06
7.57096e-06
7.15312e-06
6.72439e-06
6.2867e-06
5.84211e-06
5.39279e-06
4.94092e-06
4.48863e-06
4.03787e-06
3.59031e-06
3.14715e-06
2.70896e-06
2.27557e-06
1.84597e-06
1.41827e-06
9.89574e-07
5.55976e-07
9.74489e-10
3.65269e-12
4.3171e-12
1.15192e-09
6.55173e-07
1.16264e-06
1.66224e-06
2.15892e-06
2.65629e-06
3.15668e-06
3.66131e-06
4.17039e-06
4.68329e-06
5.19864e-06
5.7146e-06
6.229e-06
6.73954e-06
7.24386e-06
7.73972e-06
8.22498e-06
8.69761e-06
9.15567e-06
9.59726e-06
1.00204e-05
1.04233e-05
1.08038e-05
1.116e-05
1.14901e-05
1.17922e-05
1.20649e-05
1.23066e-05
1.25161e-05
1.26923e-05
1.28344e-05
1.29416e-05
1.30134e-05
1.30495e-05
1.30496e-05
1.30137e-05
1.29421e-05
1.28351e-05
1.26932e-05
1.25172e-05
1.23078e-05
1.20663e-05
1.17938e-05
1.14918e-05
1.11619e-05
1.08058e-05
1.04254e-05
1.00227e-05
9.59959e-06
9.15808e-06
8.70008e-06
8.22749e-06
7.74226e-06
7.2464e-06
6.74206e-06
6.23149e-06
5.71703e-06
5.20099e-06
4.68554e-06
4.17251e-06
3.66327e-06
3.15846e-06
2.65787e-06
2.16027e-06
1.66332e-06
1.16344e-06
6.55654e-07
1.15285e-09
4.32071e-12
4.87146e-12
1.29998e-09
7.3747e-07
1.30544e-06
1.86267e-06
2.41508e-06
2.9669e-06
3.52085e-06
4.07837e-06
4.63973e-06
5.20423e-06
5.77042e-06
6.33633e-06
6.89967e-06
7.45801e-06
8.00896e-06
8.55018e-06
9.07947e-06
9.59472e-06
1.00939e-05
1.0575e-05
1.10359e-05
1.14744e-05
1.18884e-05
1.22759e-05
1.26346e-05
1.29629e-05
1.32589e-05
1.35213e-05
1.37486e-05
1.39398e-05
1.40939e-05
1.42102e-05
1.4288e-05
1.43271e-05
1.43272e-05
1.42883e-05
1.42106e-05
1.40946e-05
1.39406e-05
1.37496e-05
1.35225e-05
1.32603e-05
1.29643e-05
1.26362e-05
1.22776e-05
1.18903e-05
1.14764e-05
1.10379e-05
1.05771e-05
1.00961e-05
9.59699e-06
9.08178e-06
8.55252e-06
8.01131e-06
7.46035e-06
6.90197e-06
6.33858e-06
5.7726e-06
5.20631e-06
4.64169e-06
4.08019e-06
3.52251e-06
2.96837e-06
2.41634e-06
1.86369e-06
1.30619e-06
7.37922e-07
1.30087e-09
4.87489e-12
5.29946e-12
1.41435e-09
8.00764e-07
1.41482e-06
2.01573e-06
2.61019e-06
3.20297e-06
3.7971e-06
4.39419e-06
4.99456e-06
5.59751e-06
6.20151e-06
6.80452e-06
7.40416e-06
7.99796e-06
8.58346e-06
9.15828e-06
9.72017e-06
1.0267e-05
1.07966e-05
1.13068e-05
1.17955e-05
1.22604e-05
1.26991e-05
1.31095e-05
1.34893e-05
1.38367e-05
1.415e-05
1.44275e-05
1.46679e-05
1.48701e-05
1.50329e-05
1.51558e-05
1.52381e-05
1.52793e-05
1.52794e-05
1.52383e-05
1.51562e-05
1.50335e-05
1.48708e-05
1.46688e-05
1.44286e-05
1.41512e-05
1.38381e-05
1.34908e-05
1.31111e-05
1.27008e-05
1.22622e-05
1.17974e-05
1.13088e-05
1.07986e-05
1.02691e-05
9.72231e-06
9.16045e-06
8.58564e-06
8.00013e-06
7.4063e-06
6.80662e-06
6.20354e-06
5.59945e-06
4.9964e-06
4.39589e-06
3.79865e-06
3.20434e-06
2.61137e-06
2.01668e-06
1.41552e-06
8.01187e-07
1.41518e-09
5.30272e-12
5.60832e-12
1.49692e-09
8.4632e-07
1.49333e-06
2.12536e-06
2.74971e-06
3.37153e-06
3.99413e-06
4.61921e-06
5.24716e-06
5.87726e-06
6.50794e-06
7.13712e-06
7.76236e-06
8.38115e-06
8.99101e-06
9.58953e-06
1.01744e-05
1.07434e-05
1.12945e-05
1.18253e-05
1.23336e-05
1.2817e-05
1.32731e-05
1.36995e-05
1.40942e-05
1.44551e-05
1.47804e-05
1.50686e-05
1.53182e-05
1.5528e-05
1.56971e-05
1.58246e-05
1.591e-05
1.59528e-05
1.59529e-05
1.59102e-05
1.5825e-05
1.56976e-05
1.55287e-05
1.5319e-05
1.50696e-05
1.47816e-05
1.44564e-05
1.40956e-05
1.3701e-05
1.32747e-05
1.28187e-05
1.23354e-05
1.18272e-05
1.12964e-05
1.07454e-05
1.01764e-05
9.59158e-06
8.99307e-06
8.38321e-06
7.76439e-06
7.13911e-06
6.50987e-06
5.87911e-06
5.24891e-06
4.62083e-06
3.9956e-06
3.37283e-06
2.75082e-06
2.12626e-06
1.494e-06
8.46722e-07
1.49771e-09
5.61145e-12
5.81757e-12
1.55288e-09
8.77138e-07
1.54635e-06
2.19929e-06
2.8437e-06
3.48502e-06
4.12671e-06
4.77057e-06
5.41701e-06
6.06531e-06
6.71389e-06
7.36061e-06
8.00303e-06
8.63861e-06
9.26482e-06
9.87925e-06
1.04796e-05
1.10636e-05
1.1629e-05
1.21737e-05
1.26952e-05
1.3191e-05
1.36587e-05
1.4096e-05
1.45006e-05
1.48706e-05
1.5204e-05
1.54993e-05
1.57551e-05
1.59701e-05
1.61433e-05
1.62739e-05
1.63614e-05
1.64053e-05
1.64053e-05
1.63616e-05
1.62743e-05
1.61438e-05
1.59708e-05
1.57559e-05
1.55003e-05
1.52051e-05
1.48718e-05
1.4502e-05
1.40975e-05
1.36603e-05
1.31926e-05
1.26969e-05
1.21755e-05
1.16309e-05
1.10655e-05
1.04815e-05
9.88123e-06
9.26682e-06
8.64059e-06
8.00499e-06
7.36253e-06
6.71576e-06
6.0671e-06
5.4187e-06
4.77213e-06
4.12813e-06
3.48628e-06
2.84478e-06
2.20016e-06
1.54699e-06
8.77527e-07
1.55366e-09
5.82061e-12
5.95121e-12
1.58864e-09
8.96807e-07
1.58015e-06
2.24639e-06
2.90357e-06
3.55729e-06
4.21112e-06
4.86694e-06
5.52517e-06
6.18508e-06
6.84508e-06
7.503e-06
8.1564e-06
8.80271e-06
9.43939e-06
1.0064e-05
1.06742e-05
1.12678e-05
1.18425e-05
1.23961e-05
1.2926e-05
1.34298e-05
1.3905e-05
1.43493e-05
1.47603e-05
1.5136e-05
1.54747e-05
1.57746e-05
1.60343e-05
1.62526e-05
1.64285e-05
1.65612e-05
1.665e-05
1.66945e-05
1.66946e-05
1.66502e-05
1.65615e-05
1.6429e-05
1.62533e-05
1.60351e-05
1.57755e-05
1.54758e-05
1.51372e-05
1.47616e-05
1.43507e-05
1.39066e-05
1.34314e-05
1.29277e-05
1.23979e-05
1.18444e-05
1.12697e-05
1.06762e-05
1.0066e-05
9.44135e-06
8.80466e-06
8.15833e-06
7.5049e-06
6.84691e-06
6.18684e-06
5.52683e-06
4.86848e-06
4.21253e-06
3.55853e-06
2.90463e-06
2.24725e-06
1.58078e-06
8.97189e-07
1.5894e-09
5.95421e-12
6.03195e-12
1.61026e-09
9.08693e-07
1.60056e-06
2.27483e-06
2.93972e-06
3.60094e-06
4.26212e-06
4.92518e-06
5.59056e-06
6.25752e-06
6.92446e-06
7.58921e-06
8.24929e-06
8.90214e-06
9.54521e-06
1.01761e-05
1.07923e-05
1.13918e-05
1.19722e-05
1.25311e-05
1.30662e-05
1.35749e-05
1.40548e-05
1.45033e-05
1.49182e-05
1.52975e-05
1.56394e-05
1.59421e-05
1.62043e-05
1.64246e-05
1.66021e-05
1.6736e-05
1.68256e-05
1.68706e-05
1.68707e-05
1.68259e-05
1.67364e-05
1.66027e-05
1.64253e-05
1.62051e-05
1.5943e-05
1.56404e-05
1.52987e-05
1.49195e-05
1.45047e-05
1.40563e-05
1.35766e-05
1.30679e-05
1.25329e-05
1.1974e-05
1.13937e-05
1.07943e-05
1.0178e-05
9.54717e-06
8.90409e-06
8.25122e-06
7.59109e-06
6.92629e-06
6.25928e-06
5.59222e-06
4.92672e-06
4.26352e-06
3.60217e-06
2.94077e-06
2.27569e-06
1.60119e-06
9.09073e-07
1.61102e-09
6.03494e-12
6.07827e-12
1.62267e-09
9.15514e-07
1.61227e-06
2.29116e-06
2.96047e-06
3.626e-06
4.29143e-06
4.95867e-06
5.62818e-06
6.29923e-06
6.97019e-06
7.63889e-06
8.30286e-06
8.95952e-06
9.60632e-06
1.02408e-05
1.08606e-05
1.14635e-05
1.20472e-05
1.26093e-05
1.31475e-05
1.3659e-05
1.41416e-05
1.45926e-05
1.50098e-05
1.53912e-05
1.57349e-05
1.60393e-05
1.63029e-05
1.65245e-05
1.6703e-05
1.68376e-05
1.69277e-05
1.69729e-05
1.69729e-05
1.69279e-05
1.68379e-05
1.67035e-05
1.65251e-05
1.63037e-05
1.60403e-05
1.5736e-05
1.53924e-05
1.50111e-05
1.4594e-05
1.41431e-05
1.36607e-05
1.31492e-05
1.26111e-05
1.2049e-05
1.14654e-05
1.08625e-05
1.02427e-05
9.60828e-06
8.96148e-06
8.30479e-06
7.64079e-06
6.97202e-06
6.30098e-06
5.62984e-06
4.96021e-06
4.29283e-06
3.62724e-06
2.96153e-06
2.29201e-06
1.61291e-06
9.15895e-07
1.62343e-09
6.08127e-12
6.10357e-12
1.62945e-09
9.19242e-07
1.61868e-06
2.30009e-06
2.97183e-06
3.63973e-06
4.30748e-06
4.97703e-06
5.64882e-06
6.32212e-06
6.99532e-06
7.66622e-06
8.33235e-06
8.99112e-06
9.63999e-06
1.02765e-05
1.08983e-05
1.15031e-05
1.20886e-05
1.26526e-05
1.31924e-05
1.37056e-05
1.41896e-05
1.4642e-05
1.50605e-05
1.54431e-05
1.57879e-05
1.60932e-05
1.63576e-05
1.65798e-05
1.67589e-05
1.68939e-05
1.69843e-05
1.70296e-05
1.70297e-05
1.69845e-05
1.68943e-05
1.67594e-05
1.65805e-05
1.63584e-05
1.60942e-05
1.5789e-05
1.54443e-05
1.50619e-05
1.46434e-05
1.41911e-05
1.37072e-05
1.31941e-05
1.26543e-05
1.20905e-05
1.1505e-05
1.09002e-05
1.02784e-05
9.64196e-06
8.99308e-06
8.33429e-06
7.66812e-06
6.99716e-06
6.32389e-06
5.65049e-06
4.97858e-06
4.30889e-06
3.64097e-06
2.97289e-06
2.30094e-06
1.61931e-06
9.19624e-07
1.63021e-09
6.10658e-12
6.11676e-12
1.63299e-09
9.21188e-07
1.62202e-06
2.30475e-06
2.97776e-06
3.6469e-06
4.31589e-06
4.98665e-06
5.65965e-06
6.33414e-06
7.00851e-06
7.68058e-06
8.34786e-06
9.00776e-06
9.65773e-06
1.02953e-05
1.09181e-05
1.1524e-05
1.21105e-05
1.26754e-05
1.32161e-05
1.37302e-05
1.4215e-05
1.46682e-05
1.50874e-05
1.54706e-05
1.5816e-05
1.61218e-05
1.63866e-05
1.66092e-05
1.67886e-05
1.69238e-05
1.70143e-05
1.70597e-05
1.70598e-05
1.70145e-05
1.69242e-05
1.67891e-05
1.66099e-05
1.63874e-05
1.61228e-05
1.58171e-05
1.54718e-05
1.50887e-05
1.46696e-05
1.42166e-05
1.37318e-05
1.32179e-05
1.26772e-05
1.21124e-05
1.15259e-05
1.09201e-05
1.02973e-05
9.65971e-06
9.00973e-06
8.3498e-06
7.68249e-06
7.01036e-06
6.33591e-06
5.66132e-06
4.9882e-06
4.3173e-06
3.64815e-06
2.97883e-06
2.30561e-06
1.62266e-06
9.21572e-07
1.63375e-09
6.11978e-12
6.12334e-12
1.63475e-09
9.22159e-07
1.62369e-06
2.30708e-06
2.98073e-06
3.6505e-06
4.3201e-06
4.99147e-06
5.66508e-06
6.34018e-06
7.01515e-06
7.68781e-06
8.35567e-06
9.01615e-06
9.66669e-06
1.03048e-05
1.09282e-05
1.15345e-05
1.21216e-05
1.2687e-05
1.32282e-05
1.37427e-05
1.42279e-05
1.46815e-05
1.51011e-05
1.54846e-05
1.58303e-05
1.61363e-05
1.64014e-05
1.66242e-05
1.68036e-05
1.6939e-05
1.70296e-05
1.7075e-05
1.70751e-05
1.70298e-05
1.69394e-05
1.68042e-05
1.66248e-05
1.64022e-05
1.61373e-05
1.58313e-05
1.54858e-05
1.51024e-05
1.46829e-05
1.42295e-05
1.37443e-05
1.32299e-05
1.26888e-05
1.21235e-05
1.15365e-05
1.09301e-05
1.03068e-05
9.66867e-06
9.01812e-06
8.35762e-06
7.68972e-06
7.017e-06
6.34195e-06
5.66675e-06
4.99303e-06
4.32151e-06
3.65175e-06
2.9818e-06
2.30794e-06
1.62433e-06
9.22544e-07
1.63552e-09
6.12637e-12
6.12649e-12
1.6356e-09
9.22625e-07
1.62449e-06
2.3082e-06
2.98215e-06
3.65222e-06
4.32212e-06
4.99379e-06
5.66769e-06
6.34308e-06
7.01835e-06
7.6913e-06
8.35945e-06
9.02021e-06
9.67102e-06
1.03094e-05
1.09331e-05
1.15397e-05
1.2127e-05
1.26926e-05
1.3234e-05
1.37488e-05
1.42342e-05
1.46879e-05
1.51077e-05
1.54914e-05
1.58372e-05
1.61434e-05
1.64086e-05
1.66314e-05
1.6811e-05
1.69464e-05
1.7037e-05
1.70825e-05
1.70826e-05
1.70373e-05
1.69468e-05
1.68115e-05
1.66321e-05
1.64094e-05
1.61444e-05
1.58383e-05
1.54926e-05
1.5109e-05
1.46894e-05
1.42358e-05
1.37504e-05
1.32358e-05
1.26944e-05
1.21288e-05
1.15416e-05
1.0935e-05
1.03114e-05
9.673e-06
9.02219e-06
8.3614e-06
7.69322e-06
7.02021e-06
6.34486e-06
5.66937e-06
4.99535e-06
4.32354e-06
3.65348e-06
2.98322e-06
2.30906e-06
1.62513e-06
9.2301e-07
1.63637e-09
6.12952e-12
6.12793e-12
1.63598e-09
9.22839e-07
1.62486e-06
2.30871e-06
2.98281e-06
3.65302e-06
4.32305e-06
4.99486e-06
5.6689e-06
6.34443e-06
7.01983e-06
7.69292e-06
8.3612e-06
9.02209e-06
9.67304e-06
1.03116e-05
1.09353e-05
1.15421e-05
1.21295e-05
1.26952e-05
1.32368e-05
1.37516e-05
1.42371e-05
1.4691e-05
1.51108e-05
1.54946e-05
1.58405e-05
1.61467e-05
1.64119e-05
1.66349e-05
1.68144e-05
1.69499e-05
1.70405e-05
1.7086e-05
1.70861e-05
1.70408e-05
1.69503e-05
1.6815e-05
1.66355e-05
1.64128e-05
1.61477e-05
1.58416e-05
1.54958e-05
1.51122e-05
1.46924e-05
1.42387e-05
1.37532e-05
1.32385e-05
1.2697e-05
1.21314e-05
1.1544e-05
1.09373e-05
1.03135e-05
9.67502e-06
9.02407e-06
8.36316e-06
7.69484e-06
7.02169e-06
6.34621e-06
5.67058e-06
4.99642e-06
4.32447e-06
3.65427e-06
2.98388e-06
2.30958e-06
1.6255e-06
9.23225e-07
1.63676e-09
6.13097e-12
6.12857e-12
1.63616e-09
9.22933e-07
1.62502e-06
2.30894e-06
2.9831e-06
3.65337e-06
4.32347e-06
4.99534e-06
5.66944e-06
6.34503e-06
7.0205e-06
7.69364e-06
8.36198e-06
9.02294e-06
9.67394e-06
1.03125e-05
1.09364e-05
1.15431e-05
1.21306e-05
1.26964e-05
1.3238e-05
1.37529e-05
1.42385e-05
1.46923e-05
1.51122e-05
1.5496e-05
1.58419e-05
1.61482e-05
1.64135e-05
1.66364e-05
1.6816e-05
1.69515e-05
1.70421e-05
1.70876e-05
1.70877e-05
1.70423e-05
1.69518e-05
1.68165e-05
1.66371e-05
1.64143e-05
1.61492e-05
1.5843e-05
1.54973e-05
1.51136e-05
1.46938e-05
1.424e-05
1.37545e-05
1.32397e-05
1.26982e-05
1.21325e-05
1.15451e-05
1.09383e-05
1.03145e-05
9.67593e-06
9.02492e-06
8.36394e-06
7.69556e-06
7.02236e-06
6.34681e-06
5.67112e-06
4.9969e-06
4.32489e-06
3.65463e-06
2.98417e-06
2.3098e-06
1.62566e-06
9.2332e-07
1.63693e-09
6.13161e-12
6.12885e-12
1.63623e-09
9.22974e-07
1.62509e-06
2.30903e-06
2.98323e-06
3.65352e-06
4.32365e-06
4.99554e-06
5.66967e-06
6.34529e-06
7.02078e-06
7.69395e-06
8.36232e-06
9.0233e-06
9.67433e-06
1.03129e-05
1.09368e-05
1.15436e-05
1.21311e-05
1.26969e-05
1.32385e-05
1.37534e-05
1.4239e-05
1.46929e-05
1.51128e-05
1.54967e-05
1.58426e-05
1.61489e-05
1.64141e-05
1.66371e-05
1.68167e-05
1.69521e-05
1.70428e-05
1.70883e-05
1.70884e-05
1.7043e-05
1.69525e-05
1.68172e-05
1.66377e-05
1.64149e-05
1.61498e-05
1.58437e-05
1.54979e-05
1.51142e-05
1.46944e-05
1.42406e-05
1.37551e-05
1.32403e-05
1.26987e-05
1.2133e-05
1.15455e-05
1.09387e-05
1.03149e-05
9.67632e-06
9.02528e-06
8.36428e-06
7.69587e-06
7.02264e-06
6.34707e-06
5.67135e-06
4.99711e-06
4.32507e-06
3.65478e-06
2.9843e-06
2.3099e-06
1.62573e-06
9.2336e-07
1.637e-09
6.13188e-12
6.12896e-12
1.63626e-09
9.2299e-07
1.62512e-06
2.30907e-06
2.98328e-06
3.65358e-06
4.32372e-06
4.99563e-06
5.66977e-06
6.3454e-06
7.0209e-06
7.69408e-06
8.36246e-06
9.02345e-06
9.67449e-06
1.03131e-05
1.0937e-05
1.15438e-05
1.21313e-05
1.26971e-05
1.32388e-05
1.37537e-05
1.42393e-05
1.46932e-05
1.51131e-05
1.54969e-05
1.58428e-05
1.61491e-05
1.64144e-05
1.66374e-05
1.6817e-05
1.69524e-05
1.70431e-05
1.70886e-05
1.70887e-05
1.70433e-05
1.69528e-05
1.68175e-05
1.6638e-05
1.64152e-05
1.61501e-05
1.58439e-05
1.54982e-05
1.51144e-05
1.46946e-05
1.42408e-05
1.37553e-05
1.32405e-05
1.26989e-05
1.21332e-05
1.15457e-05
1.09389e-05
1.03151e-05
9.67648e-06
9.02544e-06
8.36442e-06
7.696e-06
7.02276e-06
6.34718e-06
5.67145e-06
4.99719e-06
4.32514e-06
3.65484e-06
2.98435e-06
2.30994e-06
1.62576e-06
9.23377e-07
1.63703e-09
6.13199e-12
6.129e-12
1.63627e-09
9.22997e-07
1.62513e-06
2.30909e-06
2.9833e-06
3.65361e-06
4.32375e-06
4.99566e-06
5.6698e-06
6.34544e-06
7.02095e-06
7.69413e-06
8.36252e-06
9.02351e-06
9.67456e-06
1.03132e-05
1.0937e-05
1.15439e-05
1.21314e-05
1.26972e-05
1.32388e-05
1.37537e-05
1.42394e-05
1.46933e-05
1.51132e-05
1.5497e-05
1.58429e-05
1.61493e-05
1.64145e-05
1.66375e-05
1.68171e-05
1.69525e-05
1.70432e-05
1.70887e-05
1.70888e-05
1.70434e-05
1.69529e-05
1.68176e-05
1.66381e-05
1.64153e-05
1.61502e-05
1.5844e-05
1.54983e-05
1.51145e-05
1.46947e-05
1.42409e-05
1.37554e-05
1.32406e-05
1.2699e-05
1.21333e-05
1.15458e-05
1.0939e-05
1.03152e-05
9.67655e-06
9.0255e-06
8.36448e-06
7.69606e-06
7.02281e-06
6.34722e-06
5.67149e-06
4.99722e-06
4.32517e-06
3.65486e-06
2.98437e-06
2.30996e-06
1.62577e-06
9.23383e-07
1.63704e-09
6.13204e-12
6.12902e-12
1.63628e-09
9.22999e-07
1.62514e-06
2.3091e-06
2.9833e-06
3.65362e-06
4.32376e-06
4.99567e-06
5.66982e-06
6.34546e-06
7.02096e-06
7.69415e-06
8.36254e-06
9.02354e-06
9.67458e-06
1.03132e-05
1.09371e-05
1.15439e-05
1.21314e-05
1.26972e-05
1.32389e-05
1.37538e-05
1.42394e-05
1.46933e-05
1.51132e-05
1.54971e-05
1.5843e-05
1.61493e-05
1.64146e-05
1.66375e-05
1.68171e-05
1.69526e-05
1.70433e-05
1.70887e-05
1.70888e-05
1.70435e-05
1.6953e-05
1.68177e-05
1.66382e-05
1.64154e-05
1.61503e-05
1.58441e-05
1.54983e-05
1.51146e-05
1.46948e-05
1.4241e-05
1.37554e-05
1.32406e-05
1.2699e-05
1.21333e-05
1.15458e-05
1.0939e-05
1.03152e-05
9.67657e-06
9.02552e-06
8.3645e-06
7.69608e-06
7.02283e-06
6.34724e-06
5.6715e-06
4.99724e-06
4.32518e-06
3.65487e-06
2.98438e-06
2.30996e-06
1.62578e-06
9.23386e-07
1.63705e-09
6.13205e-12
6.12903e-12
1.63628e-09
9.23e-07
1.62514e-06
2.3091e-06
2.98331e-06
3.65362e-06
4.32376e-06
4.99568e-06
5.66982e-06
6.34546e-06
7.02097e-06
7.69416e-06
8.36255e-06
9.02355e-06
9.67459e-06
1.03132e-05
1.09371e-05
1.15439e-05
1.21314e-05
1.26973e-05
1.32389e-05
1.37538e-05
1.42394e-05
1.46933e-05
1.51132e-05
1.54971e-05
1.5843e-05
1.61493e-05
1.64146e-05
1.66375e-05
1.68171e-05
1.69526e-05
1.70433e-05
1.70888e-05
1.70888e-05
1.70435e-05
1.6953e-05
1.68177e-05
1.66382e-05
1.64154e-05
1.61503e-05
1.58441e-05
1.54983e-05
1.51146e-05
1.46948e-05
1.4241e-05
1.37555e-05
1.32406e-05
1.26991e-05
1.21333e-05
1.15458e-05
1.0939e-05
1.03152e-05
9.67658e-06
9.02553e-06
8.36451e-06
7.69608e-06
7.02283e-06
6.34725e-06
5.67151e-06
4.99724e-06
4.32518e-06
3.65488e-06
2.98438e-06
2.30997e-06
1.62578e-06
9.23387e-07
1.63705e-09
6.13206e-12
6.12903e-12
1.63628e-09
9.23001e-07
1.62514e-06
2.3091e-06
2.98331e-06
3.65362e-06
4.32376e-06
4.99568e-06
5.66983e-06
6.34546e-06
7.02097e-06
7.69416e-06
8.36255e-06
9.02355e-06
9.6746e-06
1.03132e-05
1.09371e-05
1.15439e-05
1.21314e-05
1.26973e-05
1.32389e-05
1.37538e-05
1.42394e-05
1.46933e-05
1.51132e-05
1.54971e-05
1.5843e-05
1.61493e-05
1.64146e-05
1.66375e-05
1.68172e-05
1.69526e-05
1.70433e-05
1.70888e-05
1.70888e-05
1.70435e-05
1.6953e-05
1.68177e-05
1.66382e-05
1.64154e-05
1.61503e-05
1.58441e-05
1.54983e-05
1.51146e-05
1.46948e-05
1.4241e-05
1.37555e-05
1.32406e-05
1.26991e-05
1.21333e-05
1.15458e-05
1.09391e-05
1.03152e-05
9.67659e-06
9.02553e-06
8.36451e-06
7.69609e-06
7.02284e-06
6.34725e-06
5.67151e-06
4.99724e-06
4.32519e-06
3.65488e-06
2.98438e-06
2.30997e-06
1.62578e-06
9.23387e-07
1.63705e-09
6.13206e-12
6.12903e-12
1.63628e-09
9.23001e-07
1.62514e-06
2.3091e-06
2.98331e-06
3.65362e-06
4.32377e-06
4.99568e-06
5.66983e-06
6.34546e-06
7.02097e-06
7.69417e-06
8.36255e-06
9.02355e-06
9.6746e-06
1.03132e-05
1.09371e-05
1.15439e-05
1.21314e-05
1.26973e-05
1.32389e-05
1.37538e-05
1.42394e-05
1.46933e-05
1.51132e-05
1.54971e-05
1.5843e-05
1.61493e-05
1.64146e-05
1.66375e-05
1.68172e-05
1.69526e-05
1.70433e-05
1.70888e-05
1.70888e-05
1.70435e-05
1.6953e-05
1.68177e-05
1.66382e-05
1.64154e-05
1.61503e-05
1.58441e-05
1.54983e-05
1.51146e-05
1.46948e-05
1.4241e-05
1.37555e-05
1.32406e-05
1.26991e-05
1.21333e-05
1.15458e-05
1.09391e-05
1.03152e-05
9.67659e-06
9.02553e-06
8.36451e-06
7.69609e-06
7.02284e-06
6.34725e-06
5.67151e-06
4.99724e-06
4.32519e-06
3.65488e-06
2.98438e-06
2.30997e-06
1.62578e-06
9.23387e-07
1.63705e-09
6.13206e-12
6.12903e-12
1.63628e-09
9.23001e-07
1.62514e-06
2.3091e-06
2.98331e-06
3.65362e-06
4.32377e-06
4.99568e-06
5.66983e-06
6.34547e-06
7.02097e-06
7.69417e-06
8.36255e-06
9.02355e-06
9.6746e-06
1.03132e-05
1.09371e-05
1.15439e-05
1.21314e-05
1.26973e-05
1.32389e-05
1.37538e-05
1.42394e-05
1.46933e-05
1.51133e-05
1.54971e-05
1.5843e-05
1.61493e-05
1.64146e-05
1.66375e-05
1.68172e-05
1.69526e-05
1.70433e-05
1.70888e-05
1.70888e-05
1.70435e-05
1.6953e-05
1.68177e-05
1.66382e-05
1.64154e-05
1.61503e-05
1.58441e-05
1.54983e-05
1.51146e-05
1.46948e-05
1.4241e-05
1.37555e-05
1.32406e-05
1.26991e-05
1.21333e-05
1.15458e-05
1.09391e-05
1.03152e-05
9.67659e-06
9.02553e-06
8.36451e-06
7.69609e-06
7.02284e-06
6.34725e-06
5.67151e-06
4.99724e-06
4.32519e-06
3.65488e-06
2.98438e-06
2.30997e-06
1.62578e-06
9.23387e-07
1.63705e-09
6.13206e-12
6.12903e-12
1.63628e-09
9.23001e-07
1.62514e-06
2.3091e-06
2.98331e-06
3.65362e-06
4.32377e-06
4.99568e-06
5.66983e-06
6.34547e-06
7.02097e-06
7.69417e-06
8.36255e-06
9.02355e-06
9.6746e-06
1.03132e-05
1.09371e-05
1.15439e-05
1.21314e-05
1.26973e-05
1.32389e-05
1.37538e-05
1.42394e-05
1.46933e-05
1.51133e-05
1.54971e-05
1.5843e-05
1.61493e-05
1.64146e-05
1.66375e-05
1.68172e-05
1.69526e-05
1.70433e-05
1.70888e-05
1.70888e-05
1.70435e-05
1.6953e-05
1.68177e-05
1.66382e-05
1.64154e-05
1.61503e-05
1.58441e-05
1.54983e-05
1.51146e-05
1.46948e-05
1.4241e-05
1.37555e-05
1.32406e-05
1.26991e-05
1.21333e-05
1.15458e-05
1.09391e-05
1.03152e-05
9.67659e-06
9.02553e-06
8.36451e-06
7.69609e-06
7.02284e-06
6.34725e-06
5.67151e-06
4.99724e-06
4.32519e-06
3.65488e-06
2.98438e-06
2.30997e-06
1.62578e-06
9.23388e-07
1.63705e-09
6.13206e-12
6.12903e-12
1.63628e-09
9.23001e-07
1.62514e-06
2.3091e-06
2.98331e-06
3.65362e-06
4.32377e-06
4.99568e-06
5.66983e-06
6.34547e-06
7.02097e-06
7.69417e-06
8.36255e-06
9.02355e-06
9.6746e-06
1.03132e-05
1.09371e-05
1.15439e-05
1.21314e-05
1.26973e-05
1.32389e-05
1.37538e-05
1.42394e-05
1.46933e-05
1.51133e-05
1.54971e-05
1.5843e-05
1.61493e-05
1.64146e-05
1.66375e-05
1.68172e-05
1.69526e-05
1.70433e-05
1.70888e-05
1.70888e-05
1.70435e-05
1.6953e-05
1.68177e-05
1.66382e-05
1.64154e-05
1.61503e-05
1.58441e-05
1.54983e-05
1.51146e-05
1.46948e-05
1.4241e-05
1.37555e-05
1.32406e-05
1.26991e-05
1.21333e-05
1.15458e-05
1.09391e-05
1.03152e-05
9.67659e-06
9.02553e-06
8.36451e-06
7.69609e-06
7.02284e-06
6.34725e-06
5.67151e-06
4.99724e-06
4.32519e-06
3.65488e-06
2.98438e-06
2.30997e-06
1.62578e-06
9.23388e-07
1.63705e-09
6.13206e-12
6.12903e-12
1.63628e-09
9.23001e-07
1.62514e-06
2.3091e-06
2.98331e-06
3.65362e-06
4.32377e-06
4.99568e-06
5.66983e-06
6.34547e-06
7.02097e-06
7.69417e-06
8.36255e-06
9.02355e-06
9.6746e-06
1.03132e-05
1.09371e-05
1.15439e-05
1.21314e-05
1.26973e-05
1.32389e-05
1.37538e-05
1.42394e-05
1.46933e-05
1.51133e-05
1.54971e-05
1.5843e-05
1.61493e-05
1.64146e-05
1.66375e-05
1.68172e-05
1.69526e-05
1.70433e-05
1.70888e-05
1.70888e-05
1.70435e-05
1.6953e-05
1.68177e-05
1.66382e-05
1.64154e-05
1.61503e-05
1.58441e-05
1.54983e-05
1.51146e-05
1.46948e-05
1.4241e-05
1.37555e-05
1.32406e-05
1.26991e-05
1.21333e-05
1.15458e-05
1.09391e-05
1.03152e-05
9.67659e-06
9.02553e-06
8.36451e-06
7.69609e-06
7.02284e-06
6.34725e-06
5.67151e-06
4.99724e-06
4.32519e-06
3.65488e-06
2.98438e-06
2.30997e-06
1.62578e-06
9.23388e-07
1.63705e-09
6.13206e-12
6.12903e-12
1.63628e-09
9.23001e-07
1.62514e-06
2.3091e-06
2.98331e-06
3.65362e-06
4.32377e-06
4.99568e-06
5.66983e-06
6.34547e-06
7.02097e-06
7.69417e-06
8.36255e-06
9.02355e-06
9.6746e-06
1.03132e-05
1.09371e-05
1.15439e-05
1.21314e-05
1.26973e-05
1.32389e-05
1.37538e-05
1.42394e-05
1.46933e-05
1.51133e-05
1.54971e-05
1.5843e-05
1.61493e-05
1.64146e-05
1.66375e-05
1.68172e-05
1.69526e-05
1.70433e-05
1.70888e-05
1.70888e-05
1.70435e-05
1.6953e-05
1.68177e-05
1.66382e-05
1.64154e-05
1.61503e-05
1.58441e-05
1.54983e-05
1.51146e-05
1.46948e-05
1.4241e-05
1.37555e-05
1.32406e-05
1.26991e-05
1.21333e-05
1.15458e-05
1.09391e-05
1.03152e-05
9.67659e-06
9.02553e-06
8.36451e-06
7.69609e-06
7.02284e-06
6.34725e-06
5.67151e-06
4.99724e-06
4.32519e-06
3.65488e-06
2.98438e-06
2.30997e-06
1.62578e-06
9.23388e-07
1.63705e-09
6.13206e-12
6.12903e-12
1.63628e-09
9.23001e-07
1.62514e-06
2.3091e-06
2.98331e-06
3.65362e-06
4.32377e-06
4.99568e-06
5.66983e-06
6.34547e-06
7.02097e-06
7.69417e-06
8.36255e-06
9.02355e-06
9.6746e-06
1.03132e-05
1.09371e-05
1.15439e-05
1.21314e-05
1.26973e-05
1.32389e-05
1.37538e-05
1.42394e-05
1.46933e-05
1.51133e-05
1.54971e-05
1.5843e-05
1.61493e-05
1.64146e-05
1.66375e-05
1.68172e-05
1.69526e-05
1.70433e-05
1.70888e-05
1.70888e-05
1.70435e-05
1.6953e-05
1.68177e-05
1.66382e-05
1.64154e-05
1.61503e-05
1.58441e-05
1.54983e-05
1.51146e-05
1.46948e-05
1.4241e-05
1.37555e-05
1.32406e-05
1.26991e-05
1.21333e-05
1.15458e-05
1.09391e-05
1.03152e-05
9.67659e-06
9.02553e-06
8.36451e-06
7.69609e-06
7.02284e-06
6.34725e-06
5.67151e-06
4.99724e-06
4.32519e-06
3.65488e-06
2.98438e-06
2.30997e-06
1.62578e-06
9.23388e-07
1.63705e-09
6.13206e-12
6.12903e-12
1.63628e-09
9.23001e-07
1.62514e-06
2.3091e-06
2.98331e-06
3.65362e-06
4.32377e-06
4.99568e-06
5.66983e-06
6.34547e-06
7.02097e-06
7.69417e-06
8.36255e-06
9.02355e-06
9.6746e-06
1.03132e-05
1.09371e-05
1.15439e-05
1.21314e-05
1.26973e-05
1.32389e-05
1.37538e-05
1.42394e-05
1.46933e-05
1.51133e-05
1.54971e-05
1.5843e-05
1.61493e-05
1.64146e-05
1.66375e-05
1.68172e-05
1.69526e-05
1.70433e-05
1.70888e-05
1.70888e-05
1.70435e-05
1.6953e-05
1.68177e-05
1.66382e-05
1.64154e-05
1.61503e-05
1.58441e-05
1.54983e-05
1.51146e-05
1.46948e-05
1.4241e-05
1.37555e-05
1.32406e-05
1.26991e-05
1.21333e-05
1.15458e-05
1.09391e-05
1.03152e-05
9.67659e-06
9.02553e-06
8.36451e-06
7.69609e-06
7.02284e-06
6.34725e-06
5.67151e-06
4.99724e-06
4.32519e-06
3.65488e-06
2.98438e-06
2.30997e-06
1.62578e-06
9.23388e-07
1.63705e-09
6.13206e-12
6.12903e-12
1.63628e-09
9.23001e-07
1.62514e-06
2.3091e-06
2.98331e-06
3.65362e-06
4.32377e-06
4.99568e-06
5.66983e-06
6.34547e-06
7.02097e-06
7.69417e-06
8.36255e-06