/*--------------------------------*- C++ -*----------------------------------*\
  =========                 |
  \\      /  F ield         | OpenFOAM: The Open Source CFD Toolbox
   \\    /   O peration     | Website:  https://openfoam.org
    \\  /    A nd           | Version:  13
     \\/     M anipulation  |
\*---------------------------------------------------------------------------*/
FoamFile
{
    format      ascii;
    class       volScalarField;
    location    "330";
    object      nut;
}
// * * * * * * * * * * * * * * * * * * * * * * * * * * * * * * * * * * * * * //

dimensions      [0 2 -1 0 0 0 0];

internalField   nonuniform List<scalar> 
78750
(
3.27176e-19
1.02562e-17
2.27834e-16
4.12745e-16
6.07719e-16
8.14107e-16
1.03198e-15
1.25978e-15
1.49429e-15
1.73078e-15
1.96334e-15
2.18524e-15
2.38938e-15
2.56877e-15
2.71692e-15
2.82828e-15
2.89857e-15
2.92504e-15
2.90661e-15
2.844e-15
2.7396e-15
2.59742e-15
2.42277e-15
2.22197e-15
2.00194e-15
1.76979e-15
1.53233e-15
1.29562e-15
1.06456e-15
8.42567e-16
6.31337e-16
4.30803e-16
2.39302e-16
1.08541e-17
3.27176e-19
8.56195e-19
2.22241e-16
3.1365e-14
5.72981e-14
8.45968e-14
1.13562e-13
1.44249e-13
1.76453e-13
2.09712e-13
2.43343e-13
2.76483e-13
3.08152e-13
3.37317e-13
3.62955e-13
3.84123e-13
4.00011e-13
4.09997e-13
4.13681e-13
4.10914e-13
4.01802e-13
3.86703e-13
3.66205e-13
3.4109e-13
3.12282e-13
2.80794e-13
2.47663e-13
2.13879e-13
1.80321e-13
1.47697e-13
1.16493e-13
8.69362e-14
5.89861e-14
3.23454e-14
2.29571e-16
8.85002e-19
2.36314e-18
6.1365e-16
8.67896e-14
1.59488e-13
2.37538e-13
3.22313e-13
4.14333e-13
5.13171e-13
6.17445e-13
7.24892e-13
8.32522e-13
9.36813e-13
1.03396e-12
1.12013e-12
1.19174e-12
1.24569e-12
1.27958e-12
1.29188e-12
1.28201e-12
1.25042e-12
1.19853e-12
1.12864e-12
1.04377e-12
9.47464e-13
8.43537e-13
7.35808e-13
6.27841e-13
5.22689e-13
4.2269e-13
3.29303e-13
2.43023e-13
1.63378e-13
8.9013e-14
6.30102e-16
2.42759e-18
4.48748e-18
1.1654e-15
1.64952e-13
3.03788e-13
4.5393e-13
6.18408e-13
7.98526e-13
9.93647e-13
1.20114e-12
1.41652e-12
1.63367e-12
1.8453e-12
2.0434e-12
2.21983e-12
2.36687e-12
2.47782e-12
2.54747e-12
2.57249e-12
2.55166e-12
2.48597e-12
2.37854e-12
2.23443e-12
2.0602e-12
1.86348e-12
1.6524e-12
1.435e-12
1.21867e-12
1.00961e-12
8.12462e-13
6.29991e-13
4.62958e-13
3.10146e-13
1.6856e-13
1.192e-15
4.59159e-18
6.86272e-18
1.78226e-15
2.52312e-13
4.64966e-13
6.95415e-13
9.48487e-13
1.22632e-12
1.52801e-12
1.84954e-12
2.18395e-12
2.52173e-12
2.85143e-12
3.16045e-12
3.43593e-12
3.66569e-12
3.83907e-12
3.94782e-12
3.98663e-12
3.95359e-12
3.85031e-12
3.68179e-12
3.45607e-12
3.18359e-12
2.87646e-12
2.54749e-12
2.20935e-12
1.87358e-12
1.54987e-12
1.24536e-12
9.64271e-13
7.07676e-13
4.73567e-13
2.57174e-13
1.81805e-15
7.00279e-18
9.1783e-18
2.38359e-15
3.37455e-13
6.21955e-13
9.30422e-13
1.26938e-12
1.64172e-12
2.04628e-12
2.47768e-12
2.92656e-12
3.38012e-12
3.82298e-12
4.23817e-12
4.60834e-12
4.91705e-12
5.14997e-12
5.29594e-12
5.34781e-12
5.30303e-12
5.16377e-12
4.93683e-12
4.63306e-12
4.26657e-12
3.8537e-12
3.41173e-12
2.9577e-12
2.50715e-12
2.07305e-12
1.66501e-12
1.28865e-12
9.45356e-13
6.32404e-13
3.43344e-13
2.42691e-15
9.34784e-18
1.12384e-17
2.91862e-15
4.13204e-13
7.6158e-13
1.13934e-12
1.55448e-12
2.01058e-12
2.50619e-12
3.03473e-12
3.58472e-12
4.14048e-12
4.68312e-12
5.19185e-12
5.64539e-12
6.02358e-12
6.30884e-12
6.48749e-12
6.55079e-12
6.49561e-12
6.32463e-12
6.04621e-12
5.67367e-12
5.22435e-12
4.71827e-12
4.17664e-12
3.62034e-12
3.06842e-12
2.53678e-12
2.03716e-12
1.57645e-12
1.15633e-12
7.73444e-13
4.19876e-13
2.96768e-15
1.14304e-17
1.29384e-17
3.3602e-15
4.75729e-13
8.76811e-13
1.31172e-12
1.78967e-12
2.31478e-12
2.88538e-12
3.49388e-12
4.12706e-12
4.76688e-12
5.39157e-12
5.97718e-12
6.49922e-12
6.93447e-12
7.2627e-12
7.46816e-12
7.5408e-12
7.47701e-12
7.27993e-12
6.95917e-12
6.53009e-12
6.01266e-12
5.42993e-12
4.80635e-12
4.16594e-12
3.53062e-12
2.91872e-12
2.34373e-12
1.81357e-12
1.33018e-12
8.8968e-13
4.82953e-13
3.4133e-15
1.31462e-17
1.42454e-17
3.69982e-15
5.23825e-13
9.65447e-13
1.4443e-12
1.97055e-12
2.5487e-12
3.17693e-12
3.84687e-12
4.54398e-12
5.24836e-12
5.93607e-12
6.58071e-12
7.15533e-12
7.63438e-12
7.99558e-12
8.22159e-12
8.30136e-12
8.23094e-12
8.01378e-12
7.66047e-12
7.18794e-12
6.61818e-12
5.97657e-12
5.29004e-12
4.58502e-12
3.88566e-12
3.2121e-12
2.57922e-12
1.99572e-12
1.46373e-12
9.78967e-13
5.31403e-13
3.75551e-15
1.44634e-17
1.51829e-17
3.94355e-15
5.58351e-13
1.02907e-12
1.53947e-12
2.10038e-12
2.7166e-12
3.38619e-12
4.10023e-12
4.8432e-12
5.59391e-12
6.32681e-12
7.0138e-12
7.62615e-12
8.1366e-12
8.52142e-12
8.76215e-12
8.84701e-12
8.7718e-12
8.54021e-12
8.16352e-12
7.6598e-12
7.05249e-12
6.36863e-12
5.63692e-12
4.88556e-12
4.14025e-12
3.42247e-12
2.74808e-12
2.12632e-12
1.55947e-12
1.04298e-12
5.66135e-13
4.00073e-15
1.54068e-17
1.58111e-17
4.10696e-15
5.81509e-13
1.07175e-12
1.60331e-12
2.18746e-12
2.82922e-12
3.52655e-12
4.27016e-12
5.04389e-12
5.82566e-12
6.58889e-12
7.30427e-12
7.9419e-12
8.4734e-12
8.87405e-12
9.12464e-12
9.2129e-12
9.13447e-12
8.89317e-12
8.5008e-12
7.97614e-12
7.34363e-12
6.63143e-12
5.86943e-12
5.08698e-12
4.31086e-12
3.56344e-12
2.86121e-12
2.21381e-12
1.62361e-12
1.08585e-12
5.89398e-13
4.16492e-15
1.6038e-17
1.62052e-17
4.20952e-15
5.96048e-13
1.09855e-12
1.64339e-12
2.24214e-12
2.89993e-12
3.61467e-12
4.37685e-12
5.1699e-12
5.97118e-12
6.75343e-12
7.48664e-12
8.14014e-12
8.68486e-12
9.09544e-12
9.35221e-12
9.4426e-12
9.36212e-12
9.11472e-12
8.71249e-12
8.17468e-12
7.52634e-12
6.79634e-12
6.01531e-12
5.21335e-12
4.41789e-12
3.65187e-12
2.93217e-12
2.26869e-12
1.66384e-12
1.11274e-12
6.03983e-13
4.26781e-15
1.64334e-17
1.64369e-17
4.26989e-15
6.0461e-13
1.11433e-12
1.667e-12
2.27434e-12
2.94158e-12
3.66658e-12
4.4397e-12
5.24413e-12
6.0569e-12
6.85036e-12
7.59407e-12
8.25692e-12
8.80942e-12
9.22585e-12
9.48626e-12
9.57788e-12
9.4962e-12
9.24521e-12
8.83715e-12
8.29159e-12
7.63392e-12
6.89344e-12
6.1012e-12
5.28774e-12
4.48089e-12
3.70391e-12
2.97393e-12
2.30097e-12
1.6875e-12
1.12856e-12
6.12562e-13
4.3283e-15
1.66656e-17
1.65652e-17
4.30331e-15
6.09354e-13
1.12307e-12
1.68008e-12
2.29218e-12
2.96465e-12
3.69534e-12
4.47452e-12
5.28525e-12
6.10439e-12
6.90407e-12
7.6536e-12
8.32163e-12
8.87843e-12
9.29811e-12
9.56052e-12
9.65284e-12
9.57048e-12
9.31749e-12
8.90621e-12
8.35635e-12
7.6935e-12
6.94721e-12
6.14876e-12
5.32892e-12
4.51577e-12
3.73272e-12
2.99704e-12
2.31884e-12
1.7006e-12
1.13731e-12
6.17309e-13
4.36175e-15
1.6794e-17
1.66321e-17
4.32077e-15
6.11832e-13
1.12764e-12
1.68691e-12
2.30151e-12
2.97671e-12
3.71037e-12
4.49272e-12
5.30675e-12
6.12921e-12
6.93214e-12
7.68471e-12
8.35545e-12
8.9145e-12
9.33587e-12
9.59933e-12
9.69201e-12
9.60929e-12
9.35526e-12
8.94229e-12
8.39018e-12
7.72463e-12
6.97529e-12
6.1736e-12
5.35043e-12
4.53398e-12
3.74776e-12
3.00911e-12
2.32817e-12
1.70743e-12
1.14188e-12
6.19786e-13
4.3792e-15
1.68608e-17
1.66651e-17
4.32938e-15
6.13056e-13
1.12989e-12
1.69028e-12
2.30611e-12
2.98267e-12
3.7178e-12
4.50171e-12
5.31737e-12
6.14148e-12
6.94601e-12
7.70008e-12
8.37216e-12
8.93232e-12
9.35453e-12
9.61851e-12
9.71136e-12
9.62847e-12
9.37392e-12
8.96011e-12
8.40689e-12
7.74e-12
6.98917e-12
6.18586e-12
5.36106e-12
4.54297e-12
3.75518e-12
3.01507e-12
2.33278e-12
1.71081e-12
1.14413e-12
6.21008e-13
4.3878e-15
1.68938e-17
1.66805e-17
4.33342e-15
6.13629e-13
1.13095e-12
1.69186e-12
2.30827e-12
2.98546e-12
3.72128e-12
4.50592e-12
5.32234e-12
6.14722e-12
6.95251e-12
7.70729e-12
8.37999e-12
8.94067e-12
9.36327e-12
9.6275e-12
9.72043e-12
9.63746e-12
9.38266e-12
8.96846e-12
8.41472e-12
7.74721e-12
6.99566e-12
6.19161e-12
5.36603e-12
4.54718e-12
3.75866e-12
3.01785e-12
2.33493e-12
1.71238e-12
1.14519e-12
6.2158e-13
4.39183e-15
1.69092e-17
1.66873e-17
4.33521e-15
6.13884e-13
1.13142e-12
1.69257e-12
2.30923e-12
2.9867e-12
3.72282e-12
4.5078e-12
5.32456e-12
6.14978e-12
6.9554e-12
7.71049e-12
8.38347e-12
8.94439e-12
9.36716e-12
9.6315e-12
9.72446e-12
9.64146e-12
9.38655e-12
8.97218e-12
8.41821e-12
7.75041e-12
6.99855e-12
6.19417e-12
5.36824e-12
4.54906e-12
3.76021e-12
3.01909e-12
2.33589e-12
1.71309e-12
1.14565e-12
6.21835e-13
4.39361e-15
1.6916e-17
1.66903e-17
4.33597e-15
6.13992e-13
1.13162e-12
1.69287e-12
2.30964e-12
2.98722e-12
3.72348e-12
4.50859e-12
5.3255e-12
6.15087e-12
6.95663e-12
7.71185e-12
8.38495e-12
8.94597e-12
9.36881e-12
9.63319e-12
9.72618e-12
9.64316e-12
9.3882e-12
8.97376e-12
8.41968e-12
7.75177e-12
6.99978e-12
6.19525e-12
5.36918e-12
4.54985e-12
3.76086e-12
3.01962e-12
2.3363e-12
1.71338e-12
1.14585e-12
6.21942e-13
4.39437e-15
1.69189e-17
1.66914e-17
4.33628e-15
6.14036e-13
1.1317e-12
1.69299e-12
2.3098e-12
2.98744e-12
3.72375e-12
4.50892e-12
5.32588e-12
6.15131e-12
6.95713e-12
7.7124e-12
8.38555e-12
8.94661e-12
9.36948e-12
9.63388e-12
9.72687e-12
9.64384e-12
9.38887e-12
8.97439e-12
8.42028e-12
7.75232e-12
7.00028e-12
6.19569e-12
5.36956e-12
4.55017e-12
3.76113e-12
3.01983e-12
2.33646e-12
1.7135e-12
1.14593e-12
6.21986e-13
4.39468e-15
1.69201e-17
1.66919e-17
4.3364e-15
6.14053e-13
1.13173e-12
1.69303e-12
2.30987e-12
2.98752e-12
3.72385e-12
4.50904e-12
5.32602e-12
6.15148e-12
6.95732e-12
7.71262e-12
8.38578e-12
8.94686e-12
9.36974e-12
9.63415e-12
9.72714e-12
9.64411e-12
9.38913e-12
8.97464e-12
8.42051e-12
7.75253e-12
7.00047e-12
6.19586e-12
5.36971e-12
4.5503e-12
3.76123e-12
3.01991e-12
2.33653e-12
1.71355e-12
1.14597e-12
6.22003e-13
4.39479e-15
1.69205e-17
1.6692e-17
4.33644e-15
6.14059e-13
1.13174e-12
1.69305e-12
2.30989e-12
2.98755e-12
3.72389e-12
4.50909e-12
5.32608e-12
6.15154e-12
6.95739e-12
7.7127e-12
8.38587e-12
8.94695e-12
9.36984e-12
9.63425e-12
9.72724e-12
9.64421e-12
9.38922e-12
8.97473e-12
8.4206e-12
7.75261e-12
7.00054e-12
6.19592e-12
5.36976e-12
4.55034e-12
3.76127e-12
3.01995e-12
2.33655e-12
1.71357e-12
1.14598e-12
6.22009e-13
4.39484e-15
1.69207e-17
1.66921e-17
4.33646e-15
6.14062e-13
1.13175e-12
1.69306e-12
2.3099e-12
2.98756e-12
3.7239e-12
4.5091e-12
5.3261e-12
6.15156e-12
6.95742e-12
7.71273e-12
8.3859e-12
8.94698e-12
9.36987e-12
9.63428e-12
9.72727e-12
9.64424e-12
9.38926e-12
8.97477e-12
8.42063e-12
7.75264e-12
7.00057e-12
6.19594e-12
5.36978e-12
4.55036e-12
3.76128e-12
3.01996e-12
2.33656e-12
1.71357e-12
1.14598e-12
6.22011e-13
4.39485e-15
1.69208e-17
1.66921e-17
4.33646e-15
6.14062e-13
1.13175e-12
1.69306e-12
2.3099e-12
2.98757e-12
3.72391e-12
4.50911e-12
5.3261e-12
6.15157e-12
6.95742e-12
7.71273e-12
8.38591e-12
8.94699e-12
9.36988e-12
9.63429e-12
9.72729e-12
9.64425e-12
9.38927e-12
8.97478e-12
8.42064e-12
7.75265e-12
7.00057e-12
6.19595e-12
5.36979e-12
4.55037e-12
3.76129e-12
3.01996e-12
2.33656e-12
1.71358e-12
1.14598e-12
6.22012e-13
4.39486e-15
1.69208e-17
1.66921e-17
4.33646e-15
6.14063e-13
1.13175e-12
1.69306e-12
2.3099e-12
2.98757e-12
3.72391e-12
4.50911e-12
5.32611e-12
6.15157e-12
6.95743e-12
7.71274e-12
8.38591e-12
8.947e-12
9.36989e-12
9.6343e-12
9.72729e-12
9.64426e-12
9.38927e-12
8.97478e-12
8.42064e-12
7.75265e-12
7.00058e-12
6.19595e-12
5.36979e-12
4.55037e-12
3.76129e-12
3.01996e-12
2.33656e-12
1.71358e-12
1.14598e-12
6.22012e-13
4.39486e-15
1.69208e-17
1.66921e-17
4.33646e-15
6.14063e-13
1.13175e-12
1.69306e-12
2.3099e-12
2.98757e-12
3.72391e-12
4.50911e-12
5.32611e-12
6.15157e-12
6.95743e-12
7.71274e-12
8.38591e-12
8.947e-12
9.36989e-12
9.6343e-12
9.72729e-12
9.64426e-12
9.38928e-12
8.97478e-12
8.42065e-12
7.75266e-12
7.00058e-12
6.19595e-12
5.36979e-12
4.55037e-12
3.76129e-12
3.01996e-12
2.33656e-12
1.71358e-12
1.14598e-12
6.22012e-13
4.39486e-15
1.69208e-17
1.66921e-17
4.33646e-15
6.14063e-13
1.13175e-12
1.69306e-12
2.3099e-12
2.98757e-12
3.72391e-12
4.50911e-12
5.32611e-12
6.15157e-12
6.95743e-12
7.71274e-12
8.38591e-12
8.947e-12
9.36989e-12
9.6343e-12
9.72729e-12
9.64426e-12
9.38928e-12
8.97478e-12
8.42065e-12
7.75266e-12
7.00058e-12
6.19595e-12
5.36979e-12
4.55037e-12
3.76129e-12
3.01996e-12
2.33656e-12
1.71358e-12
1.14598e-12
6.22012e-13
4.39486e-15
1.69208e-17
1.66921e-17
4.33646e-15
6.14063e-13
1.13175e-12
1.69306e-12
2.3099e-12
2.98757e-12
3.72391e-12
4.50911e-12
5.32611e-12
6.15157e-12
6.95743e-12
7.71274e-12
8.38591e-12
8.947e-12
9.36989e-12
9.6343e-12
9.72729e-12
9.64426e-12
9.38928e-12
8.97478e-12
8.42065e-12
7.75266e-12
7.00058e-12
6.19596e-12
5.36979e-12
4.55037e-12
3.76129e-12
3.01996e-12
2.33656e-12
1.71358e-12
1.14598e-12
6.22012e-13
4.39486e-15
1.69208e-17
1.66921e-17
4.33646e-15
6.14063e-13
1.13175e-12
1.69306e-12
2.3099e-12
2.98757e-12
3.72391e-12
4.50911e-12
5.32611e-12
6.15157e-12
6.95743e-12
7.71274e-12
8.38591e-12
8.947e-12
9.36989e-12
9.6343e-12
9.72729e-12
9.64426e-12
9.38928e-12
8.97478e-12
8.42065e-12
7.75266e-12
7.00058e-12
6.19596e-12
5.36979e-12
4.55037e-12
3.76129e-12
3.01996e-12
2.33656e-12
1.71358e-12
1.14598e-12
6.22012e-13
4.39486e-15
1.69208e-17
1.66921e-17
4.33646e-15
6.14063e-13
1.13175e-12
1.69306e-12
2.3099e-12
2.98757e-12
3.72391e-12
4.50911e-12
5.32611e-12
6.15157e-12
6.95743e-12
7.71274e-12
8.38591e-12
8.947e-12
9.36989e-12
9.6343e-12
9.72729e-12
9.64426e-12
9.38928e-12
8.97478e-12
8.42065e-12
7.75266e-12
7.00058e-12
6.19596e-12
5.36979e-12
4.55037e-12
3.76129e-12
3.01996e-12
2.33656e-12
1.71358e-12
1.14598e-12
6.22012e-13
4.39486e-15
1.69208e-17
1.66921e-17
4.33646e-15
6.14063e-13
1.13175e-12
1.69306e-12
2.3099e-12
2.98757e-12
3.72391e-12
4.50911e-12
5.32611e-12
6.15157e-12
6.95743e-12
7.71274e-12
8.38591e-12
8.947e-12
9.36989e-12
9.6343e-12
9.72729e-12
9.64426e-12
9.38928e-12
8.97478e-12
8.42065e-12
7.75266e-12
7.00058e-12
6.19596e-12
5.36979e-12
4.55037e-12
3.76129e-12
3.01996e-12
2.33656e-12
1.71358e-12
1.14598e-12
6.22012e-13
4.39486e-15
1.69208e-17
1.66921e-17
4.33646e-15
6.14063e-13
1.13175e-12
1.69306e-12
2.3099e-12
2.98757e-12
3.72391e-12
4.50911e-12
5.32611e-12
6.15157e-12
6.95743e-12
7.71274e-12
8.38591e-12
8.947e-12
9.36989e-12
9.6343e-12
9.72729e-12
9.64426e-12
9.38928e-12
8.97478e-12
8.42065e-12
7.75266e-12
7.00058e-12
6.19596e-12
5.36979e-12
4.55037e-12
3.76129e-12
3.01996e-12
2.33656e-12
1.71358e-12
1.14598e-12
6.22012e-13
4.39486e-15
1.69208e-17
1.66921e-17
4.33646e-15
6.14063e-13
1.13175e-12
1.69306e-12
2.3099e-12
2.98757e-12
3.72391e-12
4.50911e-12
5.32611e-12
6.15157e-12
6.95743e-12
7.71274e-12
8.38591e-12
8.947e-12
9.36989e-12
9.6343e-12
9.72729e-12
9.64426e-12
9.38928e-12
8.97478e-12
8.42065e-12
7.75266e-12
7.00058e-12
6.19596e-12
5.36979e-12
4.55037e-12
3.76129e-12
3.01996e-12
2.33656e-12
1.71358e-12
1.14598e-12
6.22012e-13
4.39486e-15
1.69208e-17
1.66921e-17
4.33646e-15
6.14063e-13
1.13175e-12
1.69306e-12
2.3099e-12
2.98757e-12
3.72391e-12
4.50911e-12
5.32611e-12
6.15157e-12
6.95743e-12
7.71274e-12
8.38591e-12
8.947e-12
9.36989e-12
9.6343e-12
9.72729e-12
9.64426e-12
9.38928e-12
8.97478e-12
8.42065e-12
7.75266e-12
7.00058e-12
6.19596e-12
5.36979e-12
4.55037e-12
3.76129e-12
3.01996e-12
2.33656e-12
1.71358e-12
1.14598e-12
6.22012e-13
4.39486e-15
1.69208e-17
1.66921e-17
4.33646e-15
6.14063e-13
1.13175e-12
1.69306e-12
2.3099e-12
2.98757e-12
3.72391e-12
4.50911e-12
5.32611e-12
6.15157e-12
6.95743e-12
7.71274e-12
8.38591e-12
8.947e-12
9.36989e-12
9.6343e-12
9.72729e-12
9.64426e-12
9.38928e-12
8.97478e-12
8.42065e-12
7.75266e-12
7.00058e-12
6.19596e-12
5.36979e-12
4.55037e-12
3.76129e-12
3.01996e-12
2.33656e-12
1.71358e-12
1.14598e-12
6.22012e-13
4.39486e-15
1.69208e-17
1.66921e-17
4.33646e-15
6.14063e-13
1.13175e-12
1.69306e-12
2.3099e-12
2.98757e-12
3.72391e-12
4.50911e-12
5.32611e-12
6.15157e-12
6.95743e-12
7.71274e-12
8.38591e-12
8.947e-12
9.36989e-12
9.6343e-12
9.72729e-12
9.64426e-12
9.38928e-12
8.97478e-12
8.42065e-12
7.75266e-12
7.00058e-12
6.19596e-12
5.36979e-12
4.55037e-12
3.76129e-12
3.01996e-12
2.33656e-12
1.71358e-12
1.14598e-12
6.22012e-13
4.39486e-15
1.69208e-17
1.66921e-17
4.33646e-15
6.14063e-13
1.13175e-12
1.69306e-12
2.3099e-12
2.98757e-12
3.72391e-12
4.50911e-12
5.32611e-12
6.15157e-12
6.95743e-12
7.71274e-12
8.38591e-12
8.947e-12
9.36989e-12
9.6343e-12
9.72729e-12
9.64426e-12
9.38928e-12
8.97478e-12
8.42065e-12
7.75266e-12
7.00058e-12
6.19596e-12
5.36979e-12
4.55037e-12
3.76129e-12
3.01996e-12
2.33656e-12
1.71358e-12
1.14598e-12
6.22012e-13
4.39486e-15
1.69208e-17
1.66921e-17
4.33646e-15
6.14063e-13
1.13175e-12
1.69306e-12
2.3099e-12
2.98757e-12
3.72391e-12
4.50911e-12
5.32611e-12
6.15157e-12
6.95743e-12
7.71274e-12
8.38591e-12
8.947e-12
9.36989e-12
9.6343e-12
9.72729e-12
9.64426e-12
9.38928e-12
8.97478e-12
8.42065e-12
7.75266e-12
7.00058e-12
6.19596e-12
5.36979e-12
4.55037e-12
3.76129e-12
3.01996e-12
2.33656e-12
1.71358e-12
1.14598e-12
6.22012e-13
4.39486e-15
1.69208e-17
1.66921e-17
4.33646e-15
6.14063e-13
1.13175e-12
1.69306e-12
2.3099e-12
2.98757e-12
3.72391e-12
4.50911e-12
5.32611e-12
6.15157e-12
6.95743e-12
7.71274e-12
8.38591e-12
8.947e-12
9.36989e-12
9.6343e-12
9.72729e-12
9.64426e-12
9.38928e-12
8.97478e-12
8.42065e-12
7.75266e-12
7.00058e-12
6.19596e-12
5.36979e-12
4.55037e-12
3.76129e-12
3.01996e-12
2.33656e-12
1.71358e-12
1.14598e-12
6.22012e-13
4.39486e-15
1.69208e-17
1.66921e-17
4.33646e-15
6.14063e-13
1.13175e-12
1.69306e-12
2.3099e-12
2.98757e-12
3.72391e-12
4.50911e-12
5.32611e-12
6.15157e-12
6.95743e-12
7.71274e-12
8.38591e-12
8.947e-12
9.36989e-12
9.6343e-12
9.72729e-12
9.64426e-12
9.38928e-12
8.97478e-12
8.42065e-12
7.75266e-12
7.00058e-12
6.19596e-12
5.36979e-12
4.55037e-12
3.76129e-12
3.01996e-12
2.33656e-12
1.71358e-12
1.14598e-12
6.22012e-13
4.39486e-15
1.69208e-17
1.66921e-17
4.33646e-15
6.14063e-13
1.13175e-12
1.69306e-12
2.3099e-12
2.98757e-12
3.72391e-12
4.50911e-12
5.32611e-12
6.15157e-12
6.95743e-12
7.71274e-12
8.38591e-12
8.947e-12
9.36989e-12
9.6343e-12
9.72729e-12
9.64426e-12
9.38928e-12
8.97478e-12
8.42065e-12
7.75266e-12
7.00058e-12
6.19596e-12
5.36979e-12
4.55037e-12
3.76129e-12
3.01996e-12
2.33656e-12
1.71358e-12
1.14598e-12
6.22012e-13
4.39486e-15
1.69208e-17
1.66921e-17
4.33646e-15
6.14063e-13
1.13175e-12
1.69306e-12
2.3099e-12
2.98757e-12
3.72391e-12
4.50911e-12
5.32611e-12
6.15157e-12
6.95743e-12
7.71274e-12
8.38591e-12
8.947e-12
9.36989e-12
9.6343e-12
9.72729e-12
9.64426e-12
9.38928e-12
8.97478e-12
8.42065e-12
7.75266e-12
7.00058e-12
6.19596e-12
5.36979e-12
4.55037e-12
3.76129e-12
3.01996e-12
2.33656e-12
1.71358e-12
1.14598e-12
6.22012e-13
4.39486e-15
1.69208e-17
1.66921e-17
4.33646e-15
6.14063e-13
1.13175e-12
1.69306e-12
2.3099e-12
2.98757e-12
3.72391e-12
4.50911e-12
5.32611e-12
6.15157e-12
6.95743e-12
7.71274e-12
8.38591e-12
8.947e-12
9.36989e-12
9.6343e-12
9.72729e-12
9.64426e-12
9.38928e-12
8.97478e-12
8.42065e-12
7.75266e-12
7.00058e-12
6.19596e-12
5.36979e-12
4.55037e-12
3.76129e-12
3.01996e-12
2.33656e-12
1.71358e-12
1.14598e-12
6.22012e-13
4.39486e-15
1.69208e-17
1.66921e-17
4.33646e-15
6.14063e-13
1.13175e-12
1.69306e-12
2.3099e-12
2.98757e-12
3.72391e-12
4.50911e-12
5.32611e-12
6.15157e-12
6.95743e-12
7.71274e-12
8.38591e-12
8.947e-12
9.36989e-12
9.6343e-12
9.72729e-12
9.64426e-12
9.38928e-12
8.97478e-12
8.42065e-12
7.75266e-12
7.00058e-12
6.19596e-12
5.36979e-12
4.55037e-12
3.76129e-12
3.01996e-12
2.33656e-12
1.71358e-12
1.14598e-12
6.22012e-13
4.39486e-15
1.69208e-17
1.66921e-17
4.33646e-15
6.14063e-13
1.13175e-12
1.69306e-12
2.3099e-12
2.98757e-12
3.72391e-12
4.50911e-12
5.32611e-12
6.15157e-12
6.95743e-12
7.71274e-12
8.38591e-12
8.947e-12
9.36989e-12
9.6343e-12
9.72729e-12
9.64426e-12
9.38928e-12
8.97478e-12
8.42065e-12
7.75266e-12
7.00058e-12
6.19596e-12
5.36979e-12
4.55037e-12
3.76129e-12
3.01996e-12
2.33656e-12
1.71358e-12
1.14598e-12
6.22012e-13
4.39486e-15
1.69208e-17
1.66921e-17
4.33646e-15
6.14063e-13
1.13175e-12
1.69306e-12
2.3099e-12
2.98757e-12
3.72391e-12
4.50911e-12
5.32611e-12
6.15157e-12
6.95743e-12
7.71274e-12
8.38591e-12
8.947e-12
9.36989e-12
9.6343e-12
9.72729e-12
9.64426e-12
9.38928e-12
8.97478e-12
8.42065e-12
7.75266e-12
7.00058e-12
6.19596e-12
5.36979e-12
4.55037e-12
3.76129e-12
3.01996e-12
2.33656e-12
1.71358e-12
1.14598e-12
6.22012e-13
4.39486e-15
1.69208e-17
1.66921e-17
4.33646e-15
6.14063e-13
1.13175e-12
1.69306e-12
2.3099e-12
2.98757e-12
3.72391e-12
4.50911e-12
5.32611e-12
6.15157e-12
6.95743e-12
7.71274e-12
8.38591e-12
8.947e-12
9.36989e-12
9.6343e-12
9.72729e-12
9.64426e-12
9.38928e-12
8.97478e-12
8.42065e-12
7.75266e-12
7.00058e-12
6.19596e-12
5.36979e-12
4.55037e-12
3.76129e-12
3.01996e-12
2.33656e-12
1.71358e-12
1.14598e-12
6.22012e-13
4.39486e-15
1.69208e-17
1.66921e-17
4.33646e-15
6.14063e-13
1.13175e-12
1.69306e-12
2.3099e-12
2.98757e-12
3.72391e-12
4.50911e-12
5.32611e-12
6.15157e-12
6.95743e-12
7.71274e-12
8.38591e-12
8.947e-12
9.36989e-12
9.6343e-12
9.72729e-12
9.64426e-12
9.38928e-12
8.97478e-12
8.42065e-12
7.75266e-12
7.00058e-12
6.19596e-12
5.36979e-12
4.55037e-12
3.76129e-12
3.01996e-12
2.33656e-12
1.71358e-12
1.14598e-12
6.22012e-13
4.39486e-15
1.69208e-17
1.66921e-17
4.33646e-15
6.14063e-13
1.13175e-12
1.69306e-12
2.3099e-12
2.98757e-12
3.72391e-12
4.50911e-12
5.32611e-12
6.15157e-12
6.95743e-12
7.71274e-12
8.38591e-12
8.947e-12
9.36989e-12
9.6343e-12
9.72729e-12
9.64426e-12
9.38928e-12
8.97478e-12
8.42065e-12
7.75266e-12
7.00058e-12
6.19596e-12
5.36979e-12
4.55037e-12
3.76129e-12
3.01996e-12
2.33656e-12
1.71358e-12
1.14598e-12
6.22012e-13
4.39486e-15
1.69208e-17
1.66921e-17
4.33646e-15
6.14063e-13
1.13175e-12
1.69306e-12
2.3099e-12
2.98757e-12
3.72391e-12
4.50911e-12
5.32611e-12
6.15157e-12
6.95743e-12
7.71274e-12
8.38591e-12
8.947e-12
9.36989e-12
9.6343e-12
9.72729e-12
9.64426e-12
9.38928e-12
8.97478e-12
8.42065e-12
7.75266e-12
7.00058e-12
6.19596e-12
5.36979e-12
4.55037e-12
3.76129e-12
3.01996e-12
2.33656e-12
1.71358e-12
1.14598e-12
6.22012e-13
4.39486e-15
1.69208e-17
1.66921e-17
4.33646e-15
6.14063e-13
1.13175e-12
1.69306e-12
2.3099e-12
2.98757e-12
3.72391e-12
4.50911e-12
5.32611e-12
6.15157e-12
6.95743e-12
7.71274e-12
8.38591e-12
8.947e-12
9.36989e-12
9.6343e-12
9.72729e-12
9.64426e-12
9.38928e-12
8.97478e-12
8.42065e-12
7.75266e-12
7.00058e-12
6.19596e-12
5.36979e-12
4.55037e-12
3.76129e-12
3.01996e-12
2.33656e-12
1.71358e-12
1.14598e-12
6.22012e-13
4.39486e-15
1.69208e-17
1.66921e-17
4.33646e-15
6.14063e-13
1.13175e-12
1.69306e-12
2.3099e-12
2.98757e-12
3.72391e-12
4.50911e-12
5.32611e-12
6.15157e-12
6.95743e-12
7.71274e-12
8.38591e-12
8.947e-12
9.36989e-12
9.6343e-12
9.72729e-12
9.64426e-12
9.38928e-12
8.97478e-12
8.42065e-12
7.75266e-12
7.00058e-12
6.19596e-12
5.36979e-12
4.55037e-12
3.76129e-12
3.01996e-12
2.33656e-12
1.71358e-12
1.14598e-12
6.22012e-13
4.39486e-15
1.69208e-17
1.66921e-17
4.33646e-15
6.14063e-13
1.13175e-12
1.69306e-12
2.3099e-12
2.98757e-12
3.72391e-12
4.50911e-12
5.32611e-12
6.15157e-12
6.95743e-12
7.71274e-12
8.38591e-12
8.947e-12
9.36989e-12
9.6343e-12
9.72729e-12
9.64426e-12
9.38928e-12
8.97478e-12
8.42065e-12
7.75266e-12
7.00058e-12
6.19596e-12
5.36979e-12
4.55037e-12
3.76129e-12
3.01996e-12
2.33656e-12
1.71358e-12
1.14598e-12
6.22012e-13
4.39486e-15
1.69208e-17
1.66921e-17
4.33646e-15
6.14063e-13
1.13175e-12
1.69306e-12
2.3099e-12
2.98757e-12
3.72391e-12
4.50911e-12
5.32611e-12
6.15157e-12
6.95743e-12
7.71274e-12
8.38591e-12
8.947e-12
9.36989e-12
9.6343e-12
9.72729e-12
9.64426e-12
9.38928e-12
8.97478e-12
8.42065e-12
7.75266e-12
7.00058e-12
6.19596e-12
5.36979e-12
4.55037e-12
3.76129e-12
3.01996e-12
2.33656e-12
1.71358e-12
1.14598e-12
6.22012e-13
4.39486e-15
1.69208e-17
1.66921e-17
4.33646e-15
6.14063e-13
1.13175e-12
1.69306e-12
2.3099e-12
2.98757e-12
3.72391e-12
4.50911e-12
5.32611e-12
6.15157e-12
6.95743e-12
7.71274e-12
8.38591e-12
8.947e-12
9.36989e-12
9.6343e-12
9.72729e-12
9.64426e-12
9.38928e-12
8.97478e-12
8.42065e-12
7.75266e-12
7.00058e-12
6.19596e-12
5.36979e-12
4.55037e-12
3.76129e-12
3.01996e-12
2.33656e-12
1.71358e-12
1.14598e-12
6.22012e-13
4.39486e-15
1.69208e-17
1.66921e-17
4.33646e-15
6.14063e-13
1.13175e-12
1.69306e-12
2.3099e-12
2.98757e-12
3.72391e-12
4.50911e-12
5.32611e-12
6.15157e-12
6.95743e-12
7.71274e-12
8.38591e-12
8.947e-12
9.36989e-12
9.6343e-12
9.72729e-12
9.64426e-12
9.38928e-12
8.97478e-12
8.42065e-12
7.75266e-12
7.00058e-12
6.19596e-12
5.36979e-12
4.55037e-12
3.76129e-12
3.01996e-12
2.33656e-12
1.71358e-12
1.14598e-12
6.22012e-13
4.39486e-15
1.69208e-17
1.66921e-17
4.33646e-15
6.14063e-13
1.13175e-12
1.69306e-12
2.3099e-12
2.98757e-12
3.72391e-12
4.50911e-12
5.32611e-12
6.15157e-12
6.95743e-12
7.71274e-12
8.38591e-12
8.947e-12
9.36989e-12
9.6343e-12
9.72729e-12
9.64426e-12
9.38928e-12
8.97478e-12
8.42065e-12
7.75266e-12
7.00058e-12
6.19596e-12
5.36979e-12
4.55037e-12
3.76129e-12
3.01996e-12
2.33656e-12
1.71358e-12
1.14598e-12
6.22012e-13
4.39486e-15
1.69208e-17
1.66921e-17
4.33646e-15
6.14063e-13
1.13175e-12
1.69306e-12
2.3099e-12
2.98757e-12
3.72391e-12
4.50911e-12
5.32611e-12
6.15157e-12
6.95743e-12
7.71274e-12
8.38591e-12
8.947e-12
9.36989e-12
9.6343e-12
9.72729e-12
9.64426e-12
9.38928e-12
8.97478e-12
8.42065e-12
7.75266e-12
7.00058e-12
6.19596e-12
5.36979e-12
4.55037e-12
3.76129e-12
3.01996e-12
2.33656e-12
1.71358e-12
1.14598e-12
6.22012e-13
4.39486e-15
1.69208e-17
1.66921e-17
4.33646e-15
6.14063e-13
1.13175e-12
1.69306e-12
2.3099e-12
2.98757e-12
3.72391e-12
4.50911e-12
5.32611e-12
6.15157e-12
6.95743e-12
7.71274e-12
8.38591e-12
8.947e-12
9.36989e-12
9.6343e-12
9.72729e-12
9.64426e-12
9.38928e-12
8.97478e-12
8.42065e-12
7.75266e-12
7.00058e-12
6.19596e-12
5.36979e-12
4.55037e-12
3.76129e-12
3.01996e-12
2.33656e-12
1.71358e-12
1.14598e-12
6.22012e-13
4.39486e-15
1.69208e-17
1.66921e-17
4.33646e-15
6.14063e-13
1.13175e-12
1.69306e-12
2.3099e-12
2.98757e-12
3.72391e-12
4.50911e-12
5.32611e-12
6.15157e-12
6.95743e-12
7.71274e-12
8.38591e-12
8.947e-12
9.36989e-12
9.6343e-12
9.72729e-12
9.64426e-12
9.38928e-12
8.97478e-12
8.42065e-12
7.75266e-12
7.00058e-12
6.19596e-12
5.36979e-12
4.55037e-12
3.76129e-12
3.01996e-12
2.33656e-12
1.71358e-12
1.14598e-12
6.22012e-13
4.39486e-15
1.69208e-17
1.66921e-17
4.33646e-15
6.14063e-13
1.13175e-12
1.69306e-12
2.3099e-12
2.98757e-12
3.72391e-12
4.50911e-12
5.32611e-12
6.15157e-12
6.95743e-12
7.71274e-12
8.38591e-12
8.947e-12
9.36989e-12
9.6343e-12
9.72729e-12
9.64426e-12
9.38928e-12
8.97478e-12
8.42065e-12
7.75266e-12
7.00058e-12
6.19596e-12
5.36979e-12
4.55037e-12
3.76129e-12
3.01996e-12
2.33656e-12
1.71358e-12
1.14598e-12
6.22012e-13
4.39486e-15
1.69208e-17
1.66921e-17
4.33646e-15
6.14063e-13
1.13175e-12
1.69306e-12
2.3099e-12
2.98757e-12
3.72391e-12
4.50911e-12
5.32611e-12
6.15157e-12
6.95743e-12
7.71274e-12
8.38591e-12
8.947e-12
9.36989e-12
9.6343e-12
9.72729e-12
9.64426e-12
9.38928e-12
8.97478e-12
8.42065e-12
7.75266e-12
7.00058e-12
6.19596e-12
5.36979e-12
4.55037e-12
3.76129e-12
3.01996e-12
2.33656e-12
1.71358e-12
1.14598e-12
6.22012e-13
4.39486e-15
1.69208e-17
1.66921e-17
4.33646e-15
6.14063e-13
1.13175e-12
1.69306e-12
2.3099e-12
2.98757e-12
3.72391e-12
4.50911e-12
5.32611e-12
6.15157e-12
6.95743e-12
7.71274e-12
8.38591e-12
8.947e-12
9.36989e-12
9.6343e-12
9.72729e-12
9.64426e-12
9.38928e-12
8.97478e-12
8.42065e-12
7.75266e-12
7.00058e-12
6.19596e-12
5.36979e-12
4.55037e-12
3.76129e-12
3.01996e-12
2.33656e-12
1.71358e-12
1.14598e-12
6.22012e-13
4.39486e-15
1.69208e-17
1.66921e-17
4.33646e-15
6.14063e-13
1.13175e-12
1.69306e-12
2.3099e-12
2.98757e-12
3.72391e-12
4.50911e-12
5.32611e-12
6.15157e-12
6.95743e-12
7.71274e-12
8.38591e-12
8.947e-12
9.36989e-12
9.6343e-12
9.72729e-12
9.64426e-12
9.38928e-12
8.97478e-12
8.42065e-12
7.75266e-12
7.00058e-12
6.19596e-12
5.36979e-12
4.55037e-12
3.76129e-12
3.01996e-12
2.33656e-12
1.71358e-12
1.14598e-12
6.22012e-13
4.39486e-15
1.69208e-17
1.66921e-17
4.33646e-15
6.14063e-13
1.13175e-12
1.69306e-12
2.3099e-12
2.98757e-12
3.72391e-12
4.50911e-12
5.32611e-12
6.15157e-12
6.95743e-12
7.71274e-12
8.38591e-12
8.947e-12
9.36989e-12
9.6343e-12
9.72729e-12
9.64426e-12
9.38928e-12
8.97478e-12
8.42065e-12
7.75266e-12
7.00058e-12
6.19596e-12
5.36979e-12
4.55037e-12
3.76129e-12
3.01996e-12
2.33656e-12
1.71358e-12
1.14598e-12
6.22012e-13
4.39486e-15
1.69208e-17
1.66921e-17
4.33646e-15
6.14063e-13
1.13175e-12
1.69306e-12
2.3099e-12
2.98757e-12
3.72391e-12
4.50911e-12
5.32611e-12
6.15157e-12
6.95743e-12
7.71274e-12
8.38591e-12
8.947e-12
9.36989e-12
9.6343e-12
9.72729e-12
9.64426e-12
9.38928e-12
8.97478e-12
8.42065e-12
7.75266e-12
7.00058e-12
6.19596e-12
5.36979e-12
4.55037e-12
3.76129e-12
3.01996e-12
2.33656e-12
1.71358e-12
1.14598e-12
6.22012e-13
4.39486e-15
1.69208e-17
1.66921e-17
4.33646e-15
6.14063e-13
1.13175e-12
1.69306e-12
2.3099e-12
2.98757e-12
3.72391e-12
4.50911e-12
5.32611e-12
6.15157e-12
6.95743e-12
7.71274e-12
8.38591e-12
8.947e-12
9.36989e-12
9.6343e-12
9.72729e-12
9.64426e-12
9.38928e-12
8.97478e-12
8.42065e-12
7.75266e-12
7.00058e-12
6.19596e-12
5.36979e-12
4.55037e-12
3.76129e-12
3.01996e-12
2.33656e-12
1.71358e-12
1.14598e-12
6.22012e-13
4.39486e-15
1.69208e-17
1.66921e-17
4.33646e-15
6.14063e-13
1.13175e-12
1.69306e-12
2.3099e-12
2.98757e-12
3.72391e-12
4.50911e-12
5.32611e-12
6.15157e-12
6.95743e-12
7.71274e-12
8.38591e-12
8.947e-12
9.36989e-12
9.6343e-12
9.72729e-12
9.64426e-12
9.38928e-12
8.97478e-12
8.42065e-12
7.75266e-12
7.00058e-12
6.19596e-12
5.36979e-12
4.55037e-12
3.76129e-12
3.01996e-12
2.33656e-12
1.71358e-12
1.14598e-12
6.22012e-13
4.39486e-15
1.69208e-17
1.66921e-17
4.33646e-15
6.14063e-13
1.13175e-12
1.69306e-12
2.3099e-12
2.98757e-12
3.72391e-12
4.50911e-12
5.32611e-12
6.15157e-12
6.95743e-12
7.71274e-12
8.38591e-12
8.947e-12
9.36989e-12
9.6343e-12
9.72729e-12
9.64426e-12
9.38928e-12
8.97478e-12
8.42065e-12
7.75266e-12
7.00058e-12
6.19596e-12
5.36979e-12
4.55037e-12
3.76129e-12
3.01996e-12
2.33656e-12
1.71358e-12
1.14598e-12
6.22012e-13
4.39486e-15
1.69208e-17
1.66921e-17
4.33646e-15
6.14063e-13
1.13175e-12
1.69306e-12
2.3099e-12
2.98757e-12
3.72391e-12
4.50911e-12
5.32611e-12
6.15157e-12
6.95743e-12
7.71274e-12
8.38591e-12
8.947e-12
9.36989e-12
9.6343e-12
9.72729e-12
9.64426e-12
9.38928e-12
8.97478e-12
8.42065e-12
7.75266e-12
7.00058e-12
6.19596e-12
5.36979e-12
4.55037e-12
3.76129e-12
3.01996e-12
2.33656e-12
1.71358e-12
1.14598e-12
6.22012e-13
4.39486e-15
1.69208e-17
1.66921e-17
4.33646e-15
6.14063e-13
1.13175e-12
1.69306e-12
2.3099e-12
2.98757e-12
3.72391e-12
4.50911e-12
5.32611e-12
6.15157e-12
6.95743e-12
7.71274e-12
8.38591e-12
8.947e-12
9.36989e-12
9.6343e-12