/*--------------------------------*- C++ -*----------------------------------*\
  =========                 |
  \\      /  F ield         | OpenFOAM: The Open Source CFD Toolbox
   \\    /   O peration     | Website:  https://openfoam.org
    \\  /    A nd           | Version:  13
     \\/     M anipulation  |
\*---------------------------------------------------------------------------*/
FoamFile
{
    format      ascii;
    class       volScalarField;
    location    "9";
    object      nut;
}
// * * * * * * * * * * * * * * * * * * * * * * * * * * * * * * * * * * * * * //

dimensions      [0 2 -1 0 0 0 0];

internalField   nonuniform List<scalar> 
78750
(
3.1272e-13
8.0082e-11
1.80692e-09
3.27579e-09
4.82131e-09
6.45309e-09
8.16919e-09
9.95391e-09
1.17785e-08
1.36034e-08
1.53819e-08
1.70632e-08
1.85959e-08
1.99309e-08
2.10236e-08
2.18366e-08
2.23415e-08
2.25203e-08
2.23668e-08
2.18862e-08
2.10958e-08
2.00233e-08
1.87053e-08
1.71859e-08
1.55139e-08
1.37406e-08
1.19165e-08
1.00887e-08
8.29676e-09
6.56969e-09
4.92317e-09
3.35843e-09
1.86309e-09
8.32173e-11
3.26304e-13
6.86736e-12
1.78652e-09
2.50367e-07
4.53415e-07
6.6395e-07
8.83706e-07
1.11225e-06
1.34707e-06
1.58399e-06
1.81769e-06
2.04227e-06
2.25173e-06
2.44031e-06
2.60274e-06
2.73442e-06
2.83157e-06
2.89141e-06
2.9122e-06
2.89333e-06
2.83534e-06
2.73991e-06
2.6098e-06
2.44872e-06
2.26122e-06
2.05254e-06
1.82841e-06
1.59481e-06
1.35761e-06
1.12214e-06
8.92571e-07
6.71415e-07
4.59111e-07
2.53877e-07
1.81421e-09
6.97708e-12
1.94351e-11
5.06686e-09
7.02109e-07
1.26202e-06
1.84204e-06
2.44769e-06
3.07546e-06
3.71478e-06
4.35128e-06
4.96954e-06
5.55448e-06
6.09211e-06
6.57038e-06
6.97847e-06
7.30689e-06
7.54778e-06
7.6953e-06
7.74583e-06
7.6981e-06
7.55331e-06
7.31501e-06
6.98897e-06
6.583e-06
6.10651e-06
5.57028e-06
4.98627e-06
4.36844e-06
3.73178e-06
3.09167e-06
2.46243e-06
1.8546e-06
1.27171e-06
7.08139e-07
5.11526e-09
1.96255e-11
3.44037e-11
8.98725e-09
1.22661e-06
2.17479e-06
3.14006e-06
4.13179e-06
5.14304e-06
6.1569e-06
7.15274e-06
8.1105e-06
9.01174e-06
9.83891e-06
1.05744e-05
1.12013e-05
1.17048e-05
1.20733e-05
1.22983e-05
1.23747e-05
1.2301e-05
1.20787e-05
1.17128e-05
1.12117e-05
1.0587e-05
9.85332e-06
9.0276e-06
8.1274e-06
7.17022e-06
6.17442e-06
5.15998e-06
4.14743e-06
3.15362e-06
2.18542e-06
1.23338e-06
9.04338e-09
3.46243e-11
4.63664e-11
1.21331e-08
1.6367e-06
2.87136e-06
4.11133e-06
5.37012e-06
6.63977e-06
7.90096e-06
9.13126e-06
1.03091e-05
1.14144e-05
1.24263e-05
1.33234e-05
1.40857e-05
1.46963e-05
1.51421e-05
1.54138e-05
1.55058e-05
1.54162e-05
1.51469e-05
1.47033e-05
1.40948e-05
1.33345e-05
1.24391e-05
1.14285e-05
1.03241e-05
9.14687e-06
7.91671e-06
6.65512e-06
5.38441e-06
4.12383e-06
2.88126e-06
1.64309e-06
1.21876e-08
4.6581e-11
5.33714e-11
1.3983e-08
1.87403e-06
3.26859e-06
4.65893e-06
6.06158e-06
7.46864e-06
8.8602e-06
1.02133e-05
1.15059e-05
1.2717e-05
1.38239e-05
1.48035e-05
1.56346e-05
1.62994e-05
1.67844e-05
1.70797e-05
1.71796e-05
1.70819e-05
1.67887e-05
1.63058e-05
1.56428e-05
1.48136e-05
1.38355e-05
1.27297e-05
1.15196e-05
1.02275e-05
8.87461e-06
7.48272e-06
6.07472e-06
4.67046e-06
3.27776e-06
1.87998e-06
1.40347e-08
5.35753e-11
5.65918e-11
1.48371e-08
1.98287e-06
3.44951e-06
4.90705e-06
6.37355e-06
7.84128e-06
9.29018e-06
1.06971e-05
1.204e-05
1.32973e-05
1.44457e-05
1.54611e-05
1.6322e-05
1.70103e-05
1.75123e-05
1.78179e-05
1.79211e-05
1.78199e-05
1.75164e-05
1.70165e-05
1.63299e-05
1.54708e-05
1.44568e-05
1.33096e-05
1.20532e-05
1.07109e-05
9.30409e-06
7.85487e-06
6.38625e-06
4.9182e-06
3.45839e-06
1.98864e-06
1.48876e-08
5.67911e-11
5.78138e-11
1.51626e-08
2.02431e-06
3.51823e-06
5.00113e-06
6.49167e-06
7.98222e-06
9.45266e-06
1.08798e-05
1.22416e-05
1.35162e-05
1.46801e-05
1.57089e-05
1.6581e-05
1.72782e-05
1.77865e-05
1.80959e-05
1.82004e-05
1.8098e-05
1.77906e-05
1.72843e-05
1.65889e-05
1.57186e-05
1.46912e-05
1.35285e-05
1.22547e-05
1.08935e-05
9.4665e-06
7.99574e-06
6.50431e-06
5.01222e-06
3.52706e-06
2.03005e-06
1.52129e-08
5.80127e-11
5.82103e-11
1.52686e-08
2.03783e-06
3.54065e-06
5.03182e-06
6.5302e-06
8.02819e-06
9.50567e-06
1.09395e-05
1.23074e-05
1.35877e-05
1.47566e-05
1.57899e-05
1.66656e-05
1.73657e-05
1.78761e-05
1.81867e-05
1.82917e-05
1.81888e-05
1.78802e-05
1.73718e-05
1.66735e-05
1.57995e-05
1.47678e-05
1.36e-05
1.23206e-05
1.09532e-05
9.51955e-06
8.04176e-06
6.54288e-06
5.04294e-06
3.5495e-06
2.04359e-06
1.53191e-08
5.84098e-11
5.8323e-11
1.52989e-08
2.0417e-06
3.54707e-06
5.04061e-06
6.54125e-06
8.04138e-06
9.52089e-06
1.09566e-05
1.23263e-05
1.36082e-05
1.47786e-05
1.58131e-05
1.66899e-05
1.73908e-05
1.79018e-05
1.82129e-05
1.83179e-05
1.82149e-05
1.7906e-05
1.7397e-05
1.66979e-05
1.58228e-05
1.47898e-05
1.36206e-05
1.23395e-05
1.09704e-05
9.53481e-06
8.05498e-06
6.55396e-06
5.05177e-06
3.55595e-06
2.04748e-06
1.53495e-08
5.85231e-11
5.83516e-11
1.53066e-08
2.04269e-06
3.54871e-06
5.04286e-06
6.54408e-06
8.04476e-06
9.52479e-06
1.0961e-05
1.23311e-05
1.36135e-05
1.47843e-05
1.58191e-05
1.66961e-05
1.73973e-05
1.79084e-05
1.82196e-05
1.83247e-05
1.82217e-05
1.79126e-05
1.74034e-05
1.67042e-05
1.58288e-05
1.47954e-05
1.36259e-05
1.23444e-05
1.09748e-05
9.53872e-06
8.05838e-06
6.5568e-06
5.05403e-06
3.5576e-06
2.04847e-06
1.53573e-08
5.85519e-11
5.83582e-11
1.53083e-08
2.04292e-06
3.54909e-06
5.04338e-06
6.54473e-06
8.04554e-06
9.52569e-06
1.0962e-05
1.23322e-05
1.36147e-05
1.47856e-05
1.58205e-05
1.66976e-05
1.73988e-05
1.791e-05
1.82211e-05
1.83262e-05
1.82232e-05
1.79141e-05
1.74049e-05
1.67056e-05
1.58302e-05
1.47968e-05
1.36271e-05
1.23455e-05
1.09758e-05
9.53963e-06
8.05917e-06
6.55746e-06
5.05456e-06
3.55798e-06
2.0487e-06
1.53591e-08
5.85585e-11
5.83595e-11
1.53087e-08
2.04297e-06
3.54917e-06
5.04349e-06
6.54487e-06
8.04571e-06
9.52588e-06
1.09622e-05
1.23325e-05
1.36149e-05
1.47858e-05
1.58208e-05
1.66979e-05
1.73991e-05
1.79103e-05
1.82215e-05
1.83266e-05
1.82236e-05
1.79145e-05
1.74053e-05
1.67059e-05
1.58305e-05
1.4797e-05
1.36273e-05
1.23457e-05
1.0976e-05
9.53982e-06
8.05933e-06
6.5576e-06
5.05467e-06
3.55806e-06
2.04875e-06
1.53594e-08
5.85599e-11
5.83598e-11
1.53088e-08
2.04298e-06
3.54918e-06
5.04351e-06
6.5449e-06
8.04574e-06
9.52592e-06
1.09622e-05
1.23325e-05
1.3615e-05
1.47859e-05
1.58208e-05
1.6698e-05
1.73992e-05
1.79104e-05
1.82215e-05
1.83266e-05
1.82236e-05
1.79145e-05
1.74053e-05
1.6706e-05
1.58306e-05
1.47971e-05
1.36274e-05
1.23458e-05
1.0976e-05
9.53986e-06
8.05937e-06
6.55763e-06
5.05469e-06
3.55808e-06
2.04876e-06
1.53595e-08
5.85601e-11
5.83598e-11
1.53088e-08
2.04298e-06
3.54919e-06
5.04352e-06
6.5449e-06
8.04575e-06
9.52592e-06
1.09623e-05
1.23325e-05
1.3615e-05
1.47859e-05
1.58208e-05
1.6698e-05
1.73992e-05
1.79104e-05
1.82215e-05
1.83266e-05
1.82236e-05
1.79145e-05
1.74053e-05
1.6706e-05
1.58306e-05
1.47971e-05
1.36274e-05
1.23458e-05
1.0976e-05
9.53987e-06
8.05937e-06
6.55763e-06
5.05469e-06
3.55808e-06
2.04876e-06
1.53595e-08
5.85602e-11
5.83598e-11
1.53088e-08
2.04298e-06
3.54919e-06
5.04352e-06
6.5449e-06
8.04575e-06
9.52592e-06
1.09623e-05
1.23325e-05
1.3615e-05
1.47859e-05
1.58208e-05
1.6698e-05
1.73992e-05
1.79104e-05
1.82215e-05
1.83266e-05
1.82236e-05
1.79145e-05
1.74053e-05
1.6706e-05
1.58306e-05
1.47971e-05
1.36274e-05
1.23458e-05
1.0976e-05
9.53987e-06
8.05937e-06
6.55763e-06
5.05469e-06
3.55808e-06
2.04876e-06
1.53595e-08
5.85602e-11
5.83598e-11
1.53088e-08
2.04298e-06
3.54919e-06
5.04352e-06
6.5449e-06
8.04575e-06
9.52592e-06
1.09623e-05
1.23325e-05
1.3615e-05
1.47859e-05
1.58208e-05
1.6698e-05
1.73992e-05
1.79104e-05
1.82215e-05
1.83266e-05
1.82236e-05
1.79145e-05
1.74053e-05
1.6706e-05
1.58306e-05
1.47971e-05
1.36274e-05
1.23458e-05
1.0976e-05
9.53987e-06
8.05937e-06
6.55763e-06
5.05469e-06
3.55808e-06
2.04876e-06
1.53595e-08
5.85602e-11
5.83598e-11
1.53088e-08
2.04298e-06
3.54919e-06
5.04352e-06
6.5449e-06
8.04575e-06
9.52592e-06
1.09623e-05
1.23325e-05
1.3615e-05
1.47859e-05
1.58208e-05
1.6698e-05
1.73992e-05
1.79104e-05
1.82215e-05
1.83266e-05
1.82236e-05
1.79145e-05
1.74053e-05
1.6706e-05
1.58306e-05
1.47971e-05
1.36274e-05
1.23458e-05
1.0976e-05
9.53987e-06
8.05937e-06
6.55764e-06
5.05469e-06
3.55808e-06
2.04876e-06
1.53595e-08
5.85602e-11
5.83598e-11
1.53088e-08
2.04298e-06
3.54919e-06
5.04352e-06
6.5449e-06
8.04575e-06
9.52592e-06
1.09623e-05
1.23325e-05
1.3615e-05
1.47859e-05
1.58208e-05
1.6698e-05
1.73992e-05
1.79104e-05
1.82215e-05
1.83266e-05
1.82236e-05
1.79145e-05
1.74053e-05
1.6706e-05
1.58306e-05
1.47971e-05
1.36274e-05
1.23458e-05
1.0976e-05
9.53987e-06
8.05937e-06
6.55764e-06
5.05469e-06
3.55808e-06
2.04876e-06
1.53595e-08
5.85602e-11
5.83598e-11
1.53088e-08
2.04298e-06
3.54919e-06
5.04352e-06
6.5449e-06
8.04575e-06
9.52592e-06
1.09623e-05
1.23325e-05
1.3615e-05
1.47859e-05
1.58208e-05
1.6698e-05
1.73992e-05
1.79104e-05
1.82215e-05
1.83266e-05
1.82236e-05
1.79145e-05
1.74053e-05
1.6706e-05
1.58306e-05
1.47971e-05
1.36274e-05
1.23458e-05
1.0976e-05
9.53987e-06
8.05937e-06
6.55764e-06
5.05469e-06
3.55808e-06
2.04876e-06
1.53595e-08
5.85602e-11
5.83598e-11
1.53088e-08
2.04298e-06
3.54919e-06
5.04352e-06
6.5449e-06
8.04575e-06
9.52592e-06
1.09623e-05
1.23325e-05
1.3615e-05
1.47859e-05
1.58208e-05
1.6698e-05
1.73992e-05
1.79104e-05
1.82215e-05
1.83266e-05
1.82236e-05
1.79145e-05
1.74053e-05
1.6706e-05
1.58306e-05
1.47971e-05
1.36274e-05
1.23458e-05
1.0976e-05
9.53987e-06
8.05937e-06
6.55764e-06
5.05469e-06
3.55808e-06
2.04876e-06
1.53595e-08
5.85602e-11
5.83598e-11
1.53088e-08
2.04298e-06
3.54919e-06
5.04352e-06
6.5449e-06
8.04575e-06
9.52592e-06
1.09623e-05
1.23325e-05
1.3615e-05
1.47859e-05
1.58208e-05
1.6698e-05
1.73992e-05
1.79104e-05
1.82215e-05
1.83266e-05
1.82236e-05
1.79145e-05
1.74053e-05
1.6706e-05
1.58306e-05
1.47971e-05
1.36274e-05
1.23458e-05
1.0976e-05
9.53987e-06
8.05937e-06
6.55764e-06
5.05469e-06
3.55808e-06
2.04876e-06
1.53595e-08
5.85602e-11
5.83598e-11
1.53088e-08
2.04298e-06
3.54919e-06
5.04352e-06
6.5449e-06
8.04575e-06
9.52592e-06
1.09623e-05
1.23325e-05
1.3615e-05
1.47859e-05
1.58208e-05
1.6698e-05
1.73992e-05
1.79104e-05
1.82215e-05
1.83266e-05
1.82236e-05
1.79145e-05
1.74053e-05
1.6706e-05
1.58306e-05
1.47971e-05
1.36274e-05
1.23458e-05
1.0976e-05
9.53987e-06
8.05937e-06
6.55764e-06
5.05469e-06
3.55808e-06
2.04876e-06
1.53595e-08
5.85602e-11
5.83598e-11
1.53088e-08
2.04298e-06
3.54919e-06
5.04352e-06
6.5449e-06
8.04575e-06
9.52592e-06
1.09623e-05
1.23325e-05
1.3615e-05
1.47859e-05
1.58208e-05
1.6698e-05
1.73992e-05
1.79104e-05
1.82215e-05
1.83266e-05
1.82236e-05
1.79145e-05
1.74053e-05
1.6706e-05
1.58306e-05
1.47971e-05
1.36274e-05
1.23458e-05
1.0976e-05
9.53987e-06
8.05937e-06
6.55764e-06
5.05469e-06
3.55808e-06
2.04876e-06
1.53595e-08
5.85602e-11
5.83598e-11
1.53088e-08
2.04298e-06
3.54919e-06
5.04352e-06
6.5449e-06
8.04575e-06
9.52592e-06
1.09623e-05
1.23325e-05
1.3615e-05
1.47859e-05
1.58208e-05
1.6698e-05
1.73992e-05
1.79104e-05
1.82215e-05
1.83266e-05
1.82236e-05
1.79145e-05
1.74053e-05
1.6706e-05
1.58306e-05
1.47971e-05
1.36274e-05
1.23458e-05
1.0976e-05
9.53987e-06
8.05937e-06
6.55764e-06
5.05469e-06
3.55808e-06
2.04876e-06
1.53595e-08
5.85602e-11
5.83598e-11
1.53088e-08
2.04298e-06
3.54919e-06
5.04352e-06
6.5449e-06
8.04575e-06
9.52592e-06
1.09623e-05
1.23325e-05
1.3615e-05
1.47859e-05
1.58208e-05
1.6698e-05
1.73992e-05
1.79104e-05
1.82215e-05
1.83266e-05
1.82236e-05
1.79145e-05
1.74053e-05
1.6706e-05
1.58306e-05
1.47971e-05
1.36274e-05
1.23458e-05
1.0976e-05
9.53987e-06
8.05937e-06
6.55764e-06
5.05469e-06
3.55808e-06
2.04876e-06
1.53595e-08
5.85602e-11
5.83598e-11
1.53088e-08
2.04298e-06
3.54919e-06
5.04352e-06
6.5449e-06
8.04575e-06
9.52592e-06
1.09623e-05
1.23325e-05
1.3615e-05
1.47859e-05
1.58208e-05
1.6698e-05
1.73992e-05
1.79104e-05
1.82215e-05
1.83266e-05
1.82236e-05
1.79145e-05
1.74053e-05
1.6706e-05
1.58306e-05
1.47971e-05
1.36274e-05
1.23458e-05
1.0976e-05
9.53987e-06
8.05937e-06
6.55764e-06
5.05469e-06
3.55808e-06
2.04876e-06
1.53595e-08
5.85602e-11
5.83598e-11
1.53088e-08
2.04298e-06
3.54919e-06
5.04352e-06
6.5449e-06
8.04575e-06
9.52592e-06
1.09623e-05
1.23325e-05
1.3615e-05
1.47859e-05
1.58208e-05
1.6698e-05
1.73992e-05
1.79104e-05
1.82215e-05
1.83266e-05
1.82236e-05
1.79145e-05
1.74053e-05
1.6706e-05
1.58306e-05
1.47971e-05
1.36274e-05
1.23458e-05
1.0976e-05
9.53987e-06
8.05937e-06
6.55764e-06
5.05469e-06
3.55808e-06
2.04876e-06
1.53595e-08
5.85602e-11
5.83598e-11
1.53088e-08
2.04298e-06
3.54919e-06
5.04352e-06
6.5449e-06
8.04575e-06
9.52592e-06
1.09623e-05
1.23325e-05
1.3615e-05
1.47859e-05
1.58208e-05
1.6698e-05
1.73992e-05
1.79104e-05
1.82215e-05
1.83266e-05
1.82236e-05
1.79145e-05
1.74053e-05
1.6706e-05
1.58306e-05
1.47971e-05
1.36274e-05
1.23458e-05
1.0976e-05
9.53987e-06
8.05937e-06
6.55764e-06
5.05469e-06
3.55808e-06
2.04876e-06
1.53595e-08
5.85602e-11
5.83598e-11
1.53088e-08
2.04298e-06
3.54919e-06
5.04352e-06
6.5449e-06
8.04575e-06
9.52592e-06
1.09623e-05
1.23325e-05
1.3615e-05
1.47859e-05
1.58208e-05
1.6698e-05
1.73992e-05
1.79104e-05
1.82215e-05
1.83266e-05
1.82236e-05
1.79145e-05
1.74053e-05
1.6706e-05
1.58306e-05
1.47971e-05
1.36274e-05
1.23458e-05
1.0976e-05
9.53987e-06
8.05937e-06
6.55764e-06
5.05469e-06
3.55808e-06
2.04876e-06
1.53595e-08
5.85602e-11
5.83598e-11
1.53088e-08
2.04298e-06
3.54919e-06
5.04352e-06
6.5449e-06
8.04575e-06
9.52592e-06
1.09623e-05
1.23325e-05
1.3615e-05
1.47859e-05
1.58208e-05
1.6698e-05
1.73992e-05
1.79104e-05
1.82215e-05
1.83266e-05
1.82236e-05
1.79145e-05
1.74053e-05
1.6706e-05
1.58306e-05
1.47971e-05
1.36274e-05
1.23458e-05
1.0976e-05
9.53987e-06
8.05937e-06
6.55764e-06
5.05469e-06
3.55808e-06
2.04876e-06
1.53595e-08
5.85602e-11
5.83598e-11
1.53088e-08
2.04298e-06
3.54919e-06
5.04352e-06
6.5449e-06
8.04575e-06
9.52592e-06
1.09623e-05
1.23325e-05
1.3615e-05
1.47859e-05
1.58208e-05
1.6698e-05
1.73992e-05
1.79104e-05
1.82215e-05
1.83266e-05
1.82236e-05
1.79145e-05
1.74053e-05
1.6706e-05
1.58306e-05
1.47971e-05
1.36274e-05
1.23458e-05
1.0976e-05
9.53987e-06
8.05937e-06
6.55764e-06
5.05469e-06
3.55808e-06
2.04876e-06
1.53595e-08
5.85602e-11
5.83598e-11
1.53088e-08
2.04298e-06
3.54919e-06
5.04352e-06
6.5449e-06
8.04575e-06
9.52592e-06
1.09623e-05
1.23325e-05
1.3615e-05
1.47859e-05
1.58208e-05
1.6698e-05
1.73992e-05
1.79104e-05
1.82215e-05
1.83266e-05
1.82236e-05
1.79145e-05
1.74053e-05
1.6706e-05
1.58306e-05
1.47971e-05
1.36274e-05
1.23458e-05
1.0976e-05
9.53987e-06
8.05937e-06
6.55764e-06
5.05469e-06
3.55808e-06
2.04876e-06
1.53595e-08
5.85602e-11
5.83598e-11
1.53088e-08
2.04298e-06
3.54919e-06
5.04352e-06
6.5449e-06
8.04575e-06
9.52592e-06
1.09623e-05
1.23325e-05
1.3615e-05
1.47859e-05
1.58208e-05
1.6698e-05
1.73992e-05
1.79104e-05
1.82215e-05
1.83266e-05
1.82236e-05
1.79145e-05
1.74053e-05
1.6706e-05
1.58306e-05
1.47971e-05
1.36274e-05
1.23458e-05
1.0976e-05
9.53987e-06
8.05937e-06
6.55764e-06
5.05469e-06
3.55808e-06
2.04876e-06
1.53595e-08
5.85602e-11
5.83598e-11
1.53088e-08
2.04298e-06
3.54919e-06
5.04352e-06
6.5449e-06
8.04575e-06
9.52592e-06
1.09623e-05
1.23325e-05
1.3615e-05
1.47859e-05
1.58208e-05
1.6698e-05
1.73992e-05
1.79104e-05
1.82215e-05
1.83266e-05
1.82236e-05
1.79145e-05
1.74053e-05
1.6706e-05
1.58306e-05
1.47971e-05
1.36274e-05
1.23458e-05
1.0976e-05
9.53987e-06
8.05937e-06
6.55764e-06
5.05469e-06
3.55808e-06
2.04876e-06
1.53595e-08
5.85602e-11
5.83598e-11
1.53088e-08
2.04298e-06
3.54919e-06
5.04352e-06
6.5449e-06
8.04575e-06
9.52592e-06
1.09623e-05
1.23325e-05
1.3615e-05
1.47859e-05
1.58208e-05
1.6698e-05
1.73992e-05
1.79104e-05
1.82215e-05
1.83266e-05
1.82236e-05
1.79145e-05
1.74053e-05
1.6706e-05
1.58306e-05
1.47971e-05
1.36274e-05
1.23458e-05
1.0976e-05
9.53987e-06
8.05937e-06
6.55764e-06
5.05469e-06
3.55808e-06
2.04876e-06
1.53595e-08
5.85602e-11
5.83598e-11
1.53088e-08
2.04298e-06
3.54919e-06
5.04352e-06
6.5449e-06
8.04575e-06
9.52592e-06
1.09623e-05
1.23325e-05
1.3615e-05
1.47859e-05
1.58208e-05
1.6698e-05
1.73992e-05
1.79104e-05
1.82215e-05
1.83266e-05
1.82236e-05
1.79145e-05
1.74053e-05
1.6706e-05
1.58306e-05
1.47971e-05
1.36274e-05
1.23458e-05
1.0976e-05
9.53987e-06
8.05937e-06
6.55764e-06
5.05469e-06
3.55808e-06
2.04876e-06
1.53595e-08
5.85602e-11
5.83598e-11
1.53088e-08
2.04298e-06
3.54919e-06
5.04352e-06
6.5449e-06
8.04575e-06
9.52592e-06
1.09623e-05
1.23325e-05
1.3615e-05
1.47859e-05
1.58208e-05
1.6698e-05
1.73992e-05
1.79104e-05
1.82215e-05
1.83266e-05
1.82236e-05
1.79145e-05
1.74053e-05
1.6706e-05
1.58306e-05
1.47971e-05
1.36274e-05
1.23458e-05
1.0976e-05
9.53987e-06
8.05937e-06
6.55764e-06
5.05469e-06
3.55808e-06
2.04876e-06
1.53595e-08
5.85602e-11
5.83598e-11
1.53088e-08
2.04298e-06
3.54919e-06
5.04352e-06
6.5449e-06
8.04575e-06
9.52592e-06
1.09623e-05
1.23325e-05
1.3615e-05
1.47859e-05
1.58208e-05
1.6698e-05
1.73992e-05
1.79104e-05
1.82215e-05
1.83266e-05
1.82236e-05
1.79145e-05
1.74053e-05
1.6706e-05
1.58306e-05
1.47971e-05
1.36274e-05
1.23458e-05
1.0976e-05
9.53987e-06
8.05937e-06
6.55764e-06
5.05469e-06
3.55808e-06
2.04876e-06
1.53595e-08
5.85602e-11
5.83598e-11
1.53088e-08
2.04298e-06
3.54919e-06
5.04352e-06
6.5449e-06
8.04575e-06
9.52592e-06
1.09623e-05
1.23325e-05
1.3615e-05
1.47859e-05
1.58208e-05
1.6698e-05
1.73992e-05
1.79104e-05
1.82215e-05
1.83266e-05
1.82236e-05
1.79145e-05
1.74053e-05
1.6706e-05
1.58306e-05
1.47971e-05
1.36274e-05
1.23458e-05
1.0976e-05
9.53987e-06
8.05937e-06
6.55764e-06
5.05469e-06
3.55808e-06
2.04876e-06
1.53595e-08
5.85602e-11
5.83598e-11
1.53088e-08
2.04298e-06
3.54919e-06
5.04352e-06
6.5449e-06
8.04575e-06
9.52592e-06
1.09623e-05
1.23325e-05
1.3615e-05
1.47859e-05
1.58208e-05
1.6698e-05
1.73992e-05
1.79104e-05
1.82215e-05
1.83266e-05
1.82236e-05
1.79145e-05
1.74053e-05
1.6706e-05
1.58306e-05
1.47971e-05
1.36274e-05
1.23458e-05
1.0976e-05
9.53987e-06
8.05937e-06
6.55764e-06
5.05469e-06
3.55808e-06
2.04876e-06
1.53595e-08
5.85602e-11
5.83598e-11
1.53088e-08
2.04298e-06
3.54919e-06
5.04352e-06
6.5449e-06
8.04575e-06
9.52592e-06
1.09623e-05
1.23325e-05
1.3615e-05
1.47859e-05
1.58208e-05
1.6698e-05
1.73992e-05
1.79104e-05
1.82215e-05
1.83266e-05
1.82236e-05
1.79145e-05
1.74053e-05
1.6706e-05
1.58306e-05
1.47971e-05
1.36274e-05
1.23458e-05
1.0976e-05
9.53987e-06
8.05937e-06
6.55764e-06
5.05469e-06
3.55808e-06
2.04876e-06
1.53595e-08
5.85602e-11
5.83598e-11
1.53088e-08
2.04298e-06
3.54919e-06
5.04352e-06
6.5449e-06
8.04575e-06
9.52592e-06
1.09623e-05
1.23325e-05
1.3615e-05
1.47859e-05
1.58208e-05
1.6698e-05
1.73992e-05
1.79104e-05
1.82215e-05
1.83266e-05
1.82236e-05
1.79145e-05
1.74053e-05
1.6706e-05
1.58306e-05
1.47971e-05
1.36274e-05
1.23458e-05
1.0976e-05
9.53987e-06
8.05937e-06
6.55764e-06
5.05469e-06
3.55808e-06
2.04876e-06
1.53595e-08
5.85602e-11
5.83598e-11
1.53088e-08
2.04298e-06
3.54919e-06
5.04352e-06
6.5449e-06
8.04575e-06
9.52592e-06
1.09623e-05
1.23325e-05
1.3615e-05
1.47859e-05
1.58208e-05
1.6698e-05
1.73992e-05
1.79104e-05
1.82215e-05
1.83266e-05
1.82236e-05
1.79145e-05
1.74053e-05
1.6706e-05
1.58306e-05
1.47971e-05
1.36274e-05
1.23458e-05
1.0976e-05
9.53987e-06
8.05937e-06
6.55764e-06
5.05469e-06
3.55808e-06
2.04876e-06
1.53595e-08
5.85602e-11
5.83598e-11
1.53088e-08
2.04298e-06
3.54919e-06
5.04352e-06
6.5449e-06
8.04575e-06
9.52592e-06
1.09623e-05
1.23325e-05
1.3615e-05
1.47859e-05
1.58208e-05
1.6698e-05
1.73992e-05
1.79104e-05
1.82215e-05
1.83266e-05
1.82236e-05
1.79145e-05
1.74053e-05
1.6706e-05
1.58306e-05
1.47971e-05
1.36274e-05
1.23458e-05
1.0976e-05
9.53987e-06
8.05937e-06
6.55764e-06
5.05469e-06
3.55808e-06
2.04876e-06
1.53595e-08
5.85602e-11
5.83598e-11
1.53088e-08
2.04298e-06
3.54919e-06
5.04352e-06
6.5449e-06
8.04575e-06
9.52592e-06
1.09623e-05
1.23325e-05
1.3615e-05
1.47859e-05
1.58208e-05
1.6698e-05
1.73992e-05
1.79104e-05
1.82215e-05
1.83266e-05
1.82236e-05
1.79145e-05
1.74053e-05
1.6706e-05
1.58306e-05
1.47971e-05
1.36274e-05
1.23458e-05
1.0976e-05
9.53987e-06
8.05937e-06
6.55764e-06
5.05469e-06
3.55808e-06
2.04876e-06
1.53595e-08
5.85602e-11
5.83598e-11
1.53088e-08
2.04298e-06
3.54919e-06
5.04352e-06
6.5449e-06
8.04575e-06
9.52592e-06
1.09623e-05
1.23325e-05
1.3615e-05
1.47859e-05
1.58208e-05
1.6698e-05
1.73992e-05
1.79104e-05
1.82215e-05
1.83266e-05
1.82236e-05
1.79145e-05
1.74053e-05
1.6706e-05
1.58306e-05
1.47971e-05
1.36274e-05
1.23458e-05
1.0976e-05
9.53987e-06
8.05937e-06
6.55764e-06
5.05469e-06
3.55808e-06
2.04876e-06
1.53595e-08
5.85602e-11
5.83598e-11
1.53088e-08
2.04298e-06
3.54919e-06
5.04352e-06
6.5449e-06
8.04575e-06
9.52592e-06
1.09623e-05
1.23325e-05
1.3615e-05
1.47859e-05
1.58208e-05
1.6698e-05
1.73992e-05
1.79104e-05
1.82215e-05
1.83266e-05
1.82236e-05
1.79145e-05
1.74053e-05
1.6706e-05
1.58306e-05
1.47971e-05
1.36274e-05
1.23458e-05
1.0976e-05
9.53987e-06
8.05937e-06
6.55764e-06
5.05469e-06
3.55808e-06
2.04876e-06
1.53595e-08
5.85602e-11
5.83598e-11
1.53088e-08
2.04298e-06
3.54919e-06
5.04352e-06
6.5449e-06
8.04575e-06
9.52592e-06
1.09623e-05
1.23325e-05
1.3615e-05
1.47859e-05
1.58208e-05
1.6698e-05
1.73992e-05
1.79104e-05
1.82215e-05
1.83266e-05
1.82236e-05
1.79145e-05
1.74053e-05
1.6706e-05
1.58306e-05
1.47971e-05
1.36274e-05
1.23458e-05
1.0976e-05
9.53987e-06
8.05937e-06
6.55764e-06
5.05469e-06
3.55808e-06
2.04876e-06
1.53595e-08
5.85602e-11
5.83598e-11
1.53088e-08
2.04298e-06
3.54919e-06
5.04352e-06
6.5449e-06
8.04575e-06
9.52592e-06
1.09623e-05
1.23325e-05
1.3615e-05
1.47859e-05
1.58208e-05
1.6698e-05
1.73992e-05
1.79104e-05
1.82215e-05
1.83266e-05
1.82236e-05
1.79145e-05
1.74053e-05
1.6706e-05
1.58306e-05
1.47971e-05
1.36274e-05
1.23458e-05
1.0976e-05
9.53987e-06
8.05937e-06
6.55764e-06
5.05469e-06
3.55808e-06
2.04876e-06
1.53595e-08
5.85602e-11
5.83598e-11
1.53088e-08
2.04298e-06
3.54919e-06
5.04352e-06
6.5449e-06
8.04575e-06
9.52592e-06
1.09623e-05
1.23325e-05
1.3615e-05
1.47859e-05
1.58208e-05
1.6698e-05
1.73992e-05
1.79104e-05
1.82215e-05
1.83266e-05
1.82236e-05
1.79145e-05
1.74053e-05
1.6706e-05
1.58306e-05
1.47971e-05
1.36274e-05
1.23458e-05
1.0976e-05
9.53987e-06
8.05937e-06
6.55764e-06
5.05469e-06
3.55808e-06
2.04876e-06
1.53595e-08
5.85602e-11
5.83598e-11
1.53088e-08
2.04298e-06
3.54919e-06
5.04352e-06
6.5449e-06
8.04575e-06
9.52592e-06
1.09623e-05
1.23325e-05
1.3615e-05
1.47859e-05
1.58208e-05
1.6698e-05
1.73992e-05
1.79104e-05
1.82215e-05
1.83266e-05
1.82236e-05
1.79145e-05
1.74053e-05
1.6706e-05
1.58306e-05
1.47971e-05
1.36274e-05
1.23458e-05
1.0976e-05
9.53987e-06
8.05937e-06
6.55764e-06
5.05469e-06
3.55808e-06
2.04876e-06
1.53595e-08
5.85602e-11
5.83598e-11
1.53088e-08
2.04298e-06
3.54919e-06
5.04352e-06
6.5449e-06
8.04575e-06
9.52592e-06
1.09623e-05
1.23325e-05
1.3615e-05
1.47859e-05
1.58208e-05
1.6698e-05
1.73992e-05
1.79104e-05
1.82215e-05
1.83266e-05
1.82236e-05
1.79145e-05
1.74053e-05
1.6706e-05
1.58306e-05
1.47971e-05
1.36274e-05
1.23458e-05
1.0976e-05
9.53987e-06
8.05937e-06
6.55764e-06
5.05469e-06
3.55808e-06
2.04876e-06
1.53595e-08
5.85602e-11
5.83598e-11
1.53088e-08
2.04298e-06
3.54919e-06
5.04352e-06
6.5449e-06
8.04575e-06
9.52592e-06
1.09623e-05
1.23325e-05
1.3615e-05
1.47859e-05
1.58208e-05
1.6698e-05
1.73992e-05
1.79104e-05
1.82215e-05
1.83266e-05
1.82236e-05
1.79145e-05
1.74053e-05
1.6706e-05
1.58306e-05
1.47971e-05
1.36274e-05
1.23458e-05
1.0976e-05
9.53987e-06
8.05937e-06
6.55764e-06
5.05469e-06
3.55808e-06
2.04876e-06
1.53595e-08
5.85602e-11
5.83598e-11
1.53088e-08
2.04298e-06
3.54919e-06
5.04352e-06
6.5449e-06
8.04575e-06
9.52592e-06
1.09623e-05
1.23325e-05
1.3615e-05
1.47859e-05
1.58208e-05
1.6698e-05
1.73992e-05
1.79104e-05
1.82215e-05
1.83266e-05
1.82236e-05
1.79145e-05
1.74053e-05
1.6706e-05
1.58306e-05
1.47971e-05
1.36274e-05
1.23458e-05
1.0976e-05
9.53987e-06
8.05937e-06
6.55764e-06
5.05469e-06
3.55808e-06
2.04876e-06
1.53595e-08
5.85602e-11
5.83598e-11
1.53088e-08
2.04298e-06
3.54919e-06
5.04352e-06
6.5449e-06
8.04575e-06
9.52592e-06
1.09623e-05
1.23325e-05
1.3615e-05
1.47859e-05
1.58208e-05
1.6698e-05
1.73992e-05
1.79104e-05
1.82215e-05
1.83266e-05
1.82236e-05
1.79145e-05
1.74053e-05
1.6706e-05
1.58306e-05
1.47971e-05
1.36274e-05
1.23458e-05
1.0976e-05
9.53987e-06
8.05937e-06
6.55764e-06
5.05469e-06
3.55808e-06
2.04876e-06
1.53595e-08
5.85602e-11
5.83598e-11
1.53088e-08
2.04298e-06
3.54919e-06
5.04352e-06
6.5449e-06
8.04575e-06
9.52592e-06
1.09623e-05
1.23325e-05
1.3615e-05
1.47859e-05
1.58208e-05
1.6698e-05
1.73992e-05
1.79104e-05
1.82215e-05
1.83266e-05
1.82236e-05
1.79145e-05
1.74053e-05
1.6706e-05
1.58306e-05
1.47971e-05
1.36274e-05
1.23458e-05
1.0976e-05
9.53987e-06
8.05937e-06
6.55764e-06
5.05469e-06
3.55808e-06
2.04876e-06
1.53595e-08
5.85602e-11
5.83598e-11
1.53088e-08
2.04298e-06
3.54919e-06
5.04352e-06
6.5449e-06
8.04575e-06
9.52592e-06
1.09623e-05
1.23325e-05
1.3615e-05
1.47859e-05
1.58208e-05
1.6698e-05
1.73992e-05
1.79104e-05
1.82215e-05
1.83266e-05
1.82236e-05
1.79145e-05
1.74053e-05
1.6706e-05
1.58306e-05
1.47971e-05
1.36274e-05
1.23458e-05
1.0976e-05
9.53987e-06
8.05937e-06
6.55764e-06
5.05469e-06
3.55808e-06
2.04876e-06
1.53595e-08
5.85602e-11
5.83598e-11
1.53088e-08
2.04298e-06
3.54919e-06
5.04352e-06
6.5449e-06
8.04575e-06
9.52592e-06
1.09623e-05
1.23325e-05
1.3615e-05
1.47859e-05
1.58208e-05
1.6698e-05
1.73992e-05
1.79104e-05
1.82215e-05
1.83266e-05
1.82236e-05
1.79145e-05
1.74053e-05
1.6706e-05
1.58306e-05
1.47971e-05
1.36274e-05
1.23458e-05
1.0976e-05
9.53987e-06
8.05937e-06
6.55764e-06
5.05469e-06
3.55808e-06
2.04876e-06
1.53595e-08
5.85602e-11
5.83598e-11
1.53088e-08
2.04298e-06
3.54919e-06
5.04352e-06
6.5449e-06
8.04575e-06
9.52592e-06
1.09623e-05
1.23325e-05
1.3615e-05
1.47859e-05
1.58208e-05
1.6698e-05
1.73992e-05
1.79104e-05
1.82215e-05
1.83266e-05
1.82236e-05
1.79145e-05
1.74053e-05
1.6706e-05
1.58306e-05
1.47971e-05
1.36274e-05
1.23458e-05
1.0976e-05
9.53987e-06
8.05937e-06
6.55764e-06
5.05469e-06
3.55808e-06
2.04876e-06
1.53595e-08
5.85602e-11
5.83598e-11
1.53088e-08
2.04298e-06
3.54919e-06
5.04352e-06
6.5449e-06
8.04575e-06
9.52592e-06
1.09623e-05
1.23325e-05
1.3615e-05
1.47859e-05
1.58208e-05
1.6698e-05
1.73992e-05
1.79104e-05
1.82215e-05
1.83266e-05
1.82236e-05
1.79145e-05
1.74053e-05
1.6706e-05
1.58306e-05
1.47971e-05
1.36274e-05
1.23458e-05
1.0976e-05
9.53987e-06
8.05937e-06
6.55764e-06
5.05469e-06
3.55808e-06
2.04876e-06
1.53595e-08
5.85602e-11
5.83598e-11
1.53088e-08
2.04298e-06
3.54919e-06
5.04352e-06
6.5449e-06
8.04575e-06
9.52592e-06
1.09623e-05
1.23325e-05
1.3615e-05
1.47859e-05
1.58208e-05
1.6698e-05
1.73992e-05
1.79104e-05
1.82215e-05
1.83266e-05
1.82236e-05
1.79145e-05
1.74053e-05
1.6706e-05
1.58306e-05
1.47971e-05
1.36274e-05
1.23458e-05
1.0976e-05
9.53987e-06
8.05937e-06
6.55764e-06
5.05469e-06
3.55808e-06
2.04876e-06
1.53595e-08
5.85602e-11
5.83598e-11
1.53088e-08
2.04298e-06
3.54919e-06
5.04352e-06
6.5449e-06
8.04575e-06
9.52592e-06
1.09623e-05
1.23325e-05
1.3615e-05
1.47859e-05
1.58208e-05
1.6698e-05
1.73992e-05
1.79104e-05
1.82215e-05
1.83266e-05
1.82236e-05
1.79145e-05
1.74053e-05
1.6706e-05
1.58306e-05
1.47971e-05
1.36274e-05
1.23458e-05
1.0976e-05
9.53987e-06
8.05937e-06
6.55764e-06
5.05469e-06
3.55808e-06
2.04876e-06
1.53595e-08
5.85602e-11
5.83598e-11
1.53088e-08
2.04298e-06
3.54919e-06
5.04352e-06
6.5449e-06
8.04575e-06
9.52592e-06
1.09623e-05
1.23325e-05
1.3615e-05
1.47859e-05
1.58208e-05
1.6698e-05
1.73992e-05
1.79104e-05
1.82215e-05
1.83266e-05
1.82236e-05
1.79145e-05
1.74053e-05
1.6706e-05
1.58306e-05
1.47971e-05
1.36274e-05
1.23458e-05
1.0976e-05
9.53987e-06
8.05937e-06
6.55764e-06
5.05469e-06
3.55808e-06
2.04876e-06
1.53595e-08
5.85602e-11
5.83598e-11
1.53088e-08
2.04298e-06
3.54919e-06
5.04352e-06
6.5449e-06
8.04575e-06
9.52592e-06
1.09623e-05
1.23325e-05
1.3615e-05
1.47859e-05
1.58208e-05
1.6698e-05
1.73992e-05
1.79104e-05
1.82215e-05
1.83266e-05
1.82236e-05
1.79145e-05
1.74053e-05
1.6706e-05
1.58306e-05
1.47971e-05
1.36274e-05
1.23458e-05
1.0976e-05
9.53987e-06
8.05937e-06
6.55764e-06
5.05469e-06
3.55808e-06
2.04876e-06
1.53595e-08
5.85602e-11
5.83598e-11
1.53088e-08
2.04298e-06
3.54919e-06
5.04352e-06
6.5449e-06
8.04575e-06
9.52592e-06
1.09623e-05
1.23325e-05
1.3615e-05
1.47859e-05
1.58208e-05
1.6698e-05
1.73992e-05
1.79104e-05
1.82215e-05
1.83266e-05
1.82236e-05
1.79145e-05
1.74053e-05
1.6706e-05
1.58306e-05
1.47971e-05
1.36274e-05
1.23458e-05
1.0976e-05
9.53987e-06
8.05937e-06
6.55764e-06
5.05469e-06
3.55808e-06
2.04876e-06
1.53595e-08
5.85602e-11
5.83598e-11
1.53088e-08
2.04298e-06
3.54919e-06
5.04352e-06
6.5449e-06
8.04575e-06
9.52592e-06
1.09623e-05
1.23325e-05
1.3615e-05
1.47859e-05
1.58208e-05
1.6698e-05
1.73992e-05
1.79104e-05
1.82215e-05
1.83266e-05
1.82236e-05
1.79145e-05
1.74053e-05
1.6706e-05
1.58306e-05
1.47971e-05
1.36274e-05
1.23458e-05
1.0976e-05
9.53987e-06
8.05937e-06
6.55764e-06
5.05469e-06
3.55808e-06
2.04876e-06
1.53595e-08
5.85602e-11
5.83598e-11
1.53088e-08
2.04298e-06
3.54919e-06
5.04352e-06
6.5449e-06
8.04575e-06
9.52592e-06
1.09623e-05
1.23325e-05
1.3615e-05
1.47859e-05
1.58208e-05
1.6698e-05
1.73992e-05
1.79104e-05
1.82215e-05
1.83266e-05
1.82236e-05
1.79145e-05
1.74053e-05
1.6706e-05
1.58306e-05
1.47971e-05
1.36274e-05
1.23458e-05
1.0976e-05
9.53987e-06
8.05937e-06
6.55764e-06
5.05469e-06
3.55808e-06
2.04876e-06
1.53595e-08
5.85602e-11
5.83598e-11
1.53088e-08
2.04298e-06
3.54919e-06
5.04352e-06
6.5449e-06
8.04575e-06
9.52592e-06
1.09623e-05
1.23325e-05
1.3615e-05
1.47859e-05
1.58208e-05
1.6698e-05
1.73992e-05
1.79104e-05
1.82215e-05
1.83266e-05
1.82236e-05
1.79145e-05
1.74053e-05
1.6706e-05
1.58306e-05
1.47971e-05
1.36274e-05
1.23458e-05
1.0976e-05
9.53987e-06
8.05937e-06
6.55764e-06
5.05469e-06
3.55808e-06
2.04876e-06
1.53595e-08
5.85602e-11
5.83598e-11
1.53088e-08
2.04298e-06
3.54919e-06
5.04352e-06
6.5449e-06
8.04575e-06
9.52592e-06
1.09623e-05
1.23325e-05
1.3615e-05
1.47859e-05
1.58208e-05
1.6698e-05
1.73992e-05
1.79104e-05
1.82215e-05
1.83266e-05
1.82236e-05
1.79145e-05
1.74053e-05
1.6706e-05
1.58306e-05
1.47971e-05
1.36274e-05
1.23458e-05
1.0976e-05
9.53987e-06
8.05937e-06
6.55764e-06
5.05469e-06
3.55808e-06
2.04876e-06
1.53595e-08
5.85602e-11
5.83598e-11
1.53088e-08
2.04298e-06
3.54919e-06
5.04352e-06
6.5449e-06
8.04575e-06
9.52592e-06
1.09623e-05
1.23325e-05
1.3615e-05
1.47859e-05
1.58208e-05
1.6698e-05
1.73992e-05
1.79104e-05
1.82215e-05
1.83266e-05
1.82236e-05
1.79145e-05
1.74053e-05
1.6706e-05