/*--------------------------------*- C++ -*----------------------------------*\
  =========                 |
  \\      /  F ield         | OpenFOAM: The Open Source CFD Toolbox
   \\    /   O peration     | Website:  https://openfoam.org
    \\  /    A nd           | Version:  13
     \\/     M anipulation  |
\*---------------------------------------------------------------------------*/
FoamFile
{
    format      ascii;
    class       volScalarField;
    location    "1";
    object      difft;
}
// * * * * * * * * * * * * * * * * * * * * * * * * * * * * * * * * * * * * * //

dimensions      [0 2 -1 0 0 0 0];

internalField   nonuniform List<scalar> 
78750
(
7.04386e-11
1.50991e-09
8.02411e-08
5.48826e-07
1.38708e-06
2.53971e-06
3.79249e-06
4.96975e-06
5.97019e-06
6.75999e-06
7.34402e-06
7.73339e-06
7.96898e-06
8.11098e-06
8.26028e-06
8.37285e-06
8.15829e-06
7.90336e-06
7.79698e-06
7.78674e-06
7.77029e-06
7.72749e-06
7.50013e-06
7.35302e-06
7.42863e-06
7.46568e-06
7.38316e-06
7.58951e-06
7.62909e-06
7.33825e-06
7.02141e-06
6.69865e-06
6.06373e-06
4.95743e-07
3.107e-09
8.65057e-10
1.74878e-07
7.09125e-06
1.49944e-05
3.0275e-05
5.02338e-05
6.65774e-05
7.74606e-05
8.06e-05
8.30059e-05
8.48342e-05
8.6219e-05
8.72695e-05
8.80715e-05
8.87003e-05
8.91735e-05
8.95388e-05
8.9831e-05
9.00761e-05
9.02657e-05
9.04214e-05
9.052e-05
9.05697e-05
9.04981e-05
9.02551e-05
8.98424e-05
8.919e-05
8.81884e-05
8.6671e-05
8.44489e-05
8.12997e-05
7.70028e-05
1.79175e-05
1.11597e-06
5.33697e-09
3.80953e-09
9.35791e-07
6.36916e-05
6.90374e-05
7.59353e-05
8.12382e-05
8.51327e-05
8.79919e-05
9.00896e-05
9.16297e-05
9.27644e-05
9.36051e-05
9.42305e-05
9.46949e-05
9.50365e-05
9.52819e-05
9.54503e-05
9.55554e-05
9.56059e-05
9.56059e-05
9.55292e-05
9.53599e-05
9.51187e-05
9.4786e-05
9.43342e-05
9.37183e-05
9.28683e-05
9.16821e-05
9.00205e-05
8.77083e-05
8.45375e-05
7.8903e-05
1.66747e-05
1.18176e-06
5.26904e-09
4.63114e-09
1.12414e-06
6.27572e-05
7.2053e-05
7.86833e-05
8.35156e-05
8.70426e-05
8.96124e-05
9.14849e-05
9.28574e-05
9.38747e-05
9.46384e-05
9.52163e-05
9.56522e-05
9.5975e-05
9.62044e-05
9.63547e-05
9.64357e-05
9.64534e-05
9.63919e-05
9.62417e-05
9.60184e-05
9.57127e-05
9.53101e-05
9.47869e-05
9.41031e-05
9.31927e-05
9.19566e-05
9.0257e-05
8.79176e-05
8.47266e-05
6.95648e-05
1.51582e-05
1.14151e-06
4.90683e-09
4.77199e-09
1.15808e-06
5.45078e-05
7.26534e-05
7.92068e-05
8.39564e-05
8.74077e-05
8.99126e-05
9.17326e-05
9.30647e-05
9.40528e-05
9.47964e-05
9.53611e-05
9.57884e-05
9.61056e-05
9.63314e-05
9.6478e-05
9.65541e-05
9.65649e-05
9.64969e-05
9.63423e-05
9.61128e-05
9.57988e-05
9.53862e-05
9.48517e-05
9.41558e-05
9.32333e-05
9.19853e-05
9.02727e-05
8.79161e-05
8.46969e-05
6.49415e-05
1.40351e-05
1.1052e-06
4.70655e-09
4.82473e-09
1.17183e-06
4.65092e-05
7.28994e-05
7.94233e-05
8.41421e-05
8.75622e-05
9.00382e-05
9.18327e-05
9.31434e-05
9.41139e-05
9.48435e-05
9.5397e-05
9.58157e-05
9.61263e-05
9.63463e-05
9.64866e-05
9.65559e-05
9.65591e-05
9.64847e-05
9.63249e-05
9.60885e-05
9.5766e-05
9.53429e-05
9.47958e-05
9.40849e-05
9.3145e-05
9.18766e-05
9.01401e-05
8.77547e-05
8.45003e-05
6.25007e-05
1.4122e-05
1.07929e-06
4.54176e-09
4.75012e-09
1.14732e-06
4.09904e-05
7.3243e-05
7.96164e-05
8.42773e-05
8.76657e-05
9.01194e-05
9.18962e-05
9.31928e-05
9.41525e-05
9.48742e-05
9.54224e-05
9.58373e-05
9.61449e-05
9.63629e-05
9.65028e-05
9.65728e-05
9.65771e-05
9.65047e-05
9.63478e-05
9.61144e-05
9.57945e-05
9.53735e-05
9.48276e-05
9.4117e-05
9.31764e-05
9.19059e-05
9.01658e-05
8.77747e-05
8.45134e-05
6.06154e-05
1.38219e-05
1.0646e-06
4.44998e-09
4.64639e-09
1.11437e-06
3.69067e-05
7.36725e-05
7.98586e-05
8.44406e-05
8.77824e-05
9.02026e-05
9.19538e-05
9.32309e-05
9.41765e-05
9.48884e-05
9.54304e-05
9.58407e-05
9.61443e-05
9.63584e-05
9.64951e-05
9.65617e-05
9.65621e-05
9.64859e-05
9.63251e-05
9.60865e-05
9.57597e-05
9.533e-05
9.47734e-05
9.40497e-05
9.30935e-05
9.18044e-05
9.00424e-05
8.76269e-05
8.43435e-05
5.86688e-05
1.39231e-05
1.04204e-06
4.31389e-09
4.49903e-09
1.07778e-06
3.35614e-05
7.4066e-05
8.01224e-05
8.4627e-05
8.79149e-05
9.02961e-05
9.20191e-05
9.32767e-05
9.42096e-05
9.49141e-05
9.54528e-05
9.58619e-05
9.61653e-05
9.63799e-05
9.6518e-05
9.65867e-05
9.65898e-05
9.65166e-05
9.63591e-05
9.61241e-05
9.5801e-05
9.53748e-05
9.48215e-05
9.41009e-05
9.31475e-05
9.18614e-05
9.01027e-05
8.76914e-05
8.44137e-05
5.66678e-05
1.37422e-05
1.03366e-06
4.24392e-09
4.33417e-09
1.042e-06
3.07494e-05
7.45064e-05
8.04532e-05
8.48631e-05
8.8077e-05
9.04034e-05
9.20875e-05
9.33184e-05
9.42335e-05
9.49267e-05
9.54587e-05
9.58633e-05
9.61632e-05
9.63747e-05
9.65096e-05
9.6575e-05
9.65744e-05
9.64974e-05
9.63356e-05
9.60952e-05
9.57653e-05
9.53308e-05
9.47674e-05
9.40352e-05
9.30685e-05
9.17675e-05
8.99934e-05
8.75687e-05
8.42877e-05
5.43981e-05
1.35292e-05
1.01306e-06
4.17682e-09
4.22455e-09
1.01824e-06
2.87986e-05
7.48524e-05
8.07236e-05
8.50623e-05
8.8218e-05
9.05007e-05
9.21538e-05
9.33636e-05
9.42655e-05
9.49511e-05
9.54795e-05
9.58829e-05
9.61831e-05
9.63959e-05
9.65326e-05
9.66006e-05
9.66033e-05
9.65297e-05
9.63717e-05
9.61354e-05
9.581e-05
9.53799e-05
9.48211e-05
9.40934e-05
9.31309e-05
9.18333e-05
9.00606e-05
8.76318e-05
8.43282e-05
5.2116e-05
1.37014e-05
1.00157e-06
4.13264e-09
4.16575e-09
1.00621e-06
2.74599e-05
7.51758e-05
8.09775e-05
8.52526e-05
8.83532e-05
9.05924e-05
9.22129e-05
9.33997e-05
9.42857e-05
9.49609e-05
9.54828e-05
9.58819e-05
9.61792e-05
9.63901e-05
9.65267e-05
9.65996e-05
9.65982e-05
9.65125e-05
9.63477e-05
9.61051e-05
9.57725e-05
9.5334e-05
9.47654e-05
9.40265e-05
9.30517e-05
9.17408e-05
8.9954e-05
8.75107e-05
8.4192e-05
4.69497e-05
1.33243e-05
9.65381e-07
3.98299e-09
4.12062e-09
9.9678e-07
2.64292e-05
7.54338e-05
8.11897e-05
8.54153e-05
8.84724e-05
9.0677e-05
9.22719e-05
9.3441e-05
9.43154e-05
9.49834e-05
9.55007e-05
9.5899e-05
9.61977e-05
9.64096e-05
9.65458e-05
9.66138e-05
9.66164e-05
9.65425e-05
9.63838e-05
9.61462e-05
9.58182e-05
9.53842e-05
9.482e-05
9.40854e-05
9.31142e-05
9.18062e-05
9.00209e-05
8.75753e-05
8.42438e-05
4.24045e-05
1.30361e-05
9.31874e-07
3.82675e-09
4.10992e-09
9.96169e-07
2.57595e-05
7.57007e-05
8.14067e-05
8.55803e-05
8.85913e-05
9.07586e-05
9.23251e-05
9.34736e-05
9.43338e-05
9.49921e-05
9.5503e-05
9.58991e-05
9.61947e-05
9.64052e-05
9.65418e-05
9.66132e-05
9.66106e-05
9.65253e-05
9.63602e-05
9.61157e-05
9.57798e-05
9.53366e-05
9.47615e-05
9.40142e-05
9.30282e-05
9.17031e-05
8.98981e-05
8.74306e-05
8.40746e-05
3.77522e-05
1.24169e-05
8.91012e-07
3.65829e-09
4.09584e-09
9.94233e-07
2.51782e-05
7.59076e-05
8.15863e-05
8.57226e-05
8.86982e-05
9.0836e-05
9.23804e-05
9.35133e-05
9.43633e-05
9.50157e-05
9.5524e-05
9.59174e-05
9.62137e-05
9.64247e-05
9.65606e-05
9.66286e-05
9.66311e-05
9.6557e-05
9.63977e-05
9.61586e-05
9.58278e-05
9.53898e-05
9.48202e-05
9.40786e-05
9.30987e-05
9.178e-05
8.99819e-05
8.75199e-05
8.41614e-05
3.51024e-05
1.25579e-05
8.6527e-07
3.55282e-09
4.10203e-09
9.96053e-07
2.48201e-05
7.6141e-05
8.17812e-05
8.58734e-05
8.88082e-05
9.09124e-05
9.24307e-05
9.35445e-05
9.4381e-05
9.5024e-05
9.55247e-05
9.59164e-05
9.62107e-05
9.64202e-05
9.65562e-05
9.6628e-05
9.66255e-05
9.65397e-05
9.6375e-05
9.61298e-05
9.5792e-05
9.53457e-05
9.47668e-05
9.40146e-05
9.3023e-05
9.16924e-05
8.98832e-05
8.74142e-05
8.40598e-05
3.19688e-05
1.20777e-05
8.42273e-07
3.48773e-09
4.11136e-09
9.98034e-07
2.44852e-05
7.63264e-05
8.19458e-05
8.60057e-05
8.8909e-05
9.09867e-05
9.24849e-05
9.35844e-05
9.44116e-05
9.50489e-05
9.55472e-05
9.59377e-05
9.62325e-05
9.64431e-05
9.65792e-05
9.66475e-05
9.66503e-05
9.65764e-05
9.64171e-05
9.61772e-05
9.58451e-05
9.54051e-05
9.4833e-05
9.40885e-05
9.31059e-05
9.17853e-05
8.99875e-05
8.75307e-05
8.41881e-05
2.98542e-05
1.1987e-05
8.33467e-07
3.45908e-09
4.11833e-09
9.99644e-07
2.42781e-05
7.65301e-05
8.21225e-05
8.6145e-05
8.90123e-05
9.10597e-05
9.25343e-05
9.36164e-05
9.44313e-05
9.50601e-05
9.55526e-05
9.59389e-05
9.62317e-05
9.64416e-05
9.6578e-05
9.66501e-05
9.66483e-05
9.65634e-05
9.63988e-05
9.61533e-05
9.58145e-05
9.5367e-05
9.47865e-05
9.40327e-05
9.30396e-05
9.17071e-05
8.98963e-05
8.7426e-05
8.40715e-05
2.74993e-05
1.17354e-05
8.12205e-07
3.37827e-09
4.11947e-09
1.00095e-06
2.40639e-05
7.67011e-05
8.22747e-05
8.62683e-05
8.91073e-05
9.11309e-05
9.25874e-05
9.36569e-05
9.44634e-05
9.50871e-05
9.55765e-05
9.59606e-05
9.62548e-05
9.64669e-05
9.66043e-05
9.66735e-05
9.66769e-05
9.66036e-05
9.64449e-05
9.62051e-05
9.58726e-05
9.5432e-05
9.48597e-05
9.41154e-05
9.31335e-05
9.18139e-05
9.0017e-05
8.75597e-05
8.42126e-05
2.58726e-05
1.16462e-05
8.05857e-07
3.35609e-09
4.13185e-09
1.00629e-06
2.39455e-05
7.66283e-05
8.24436e-05
8.64009e-05
8.9206e-05
9.12012e-05
9.26358e-05
9.36892e-05
9.44845e-05
9.51006e-05
9.55848e-05
9.59652e-05
9.62587e-05
9.6469e-05
9.66061e-05
9.66787e-05
9.66781e-05
9.65945e-05
9.64303e-05
9.61851e-05
9.58466e-05
9.53994e-05
9.482e-05
9.40681e-05
9.30779e-05
9.17491e-05
8.99422e-05
8.74752e-05
8.14397e-05
2.40228e-05
1.1416e-05
7.90163e-07
3.3055e-09
4.14436e-09
1.00941e-06
2.3799e-05
7.50924e-05
8.25891e-05
8.65186e-05
8.92969e-05
9.12699e-05
9.26876e-05
9.37291e-05
9.45167e-05
9.51284e-05
9.56105e-05
9.5991e-05
9.62834e-05
9.64953e-05
9.6633e-05
9.67028e-05
9.67067e-05
9.66341e-05
9.64763e-05
9.62373e-05
9.59054e-05
9.5466e-05
9.48958e-05
9.41553e-05
9.31787e-05
9.18659e-05
9.00765e-05
8.76263e-05
7.73554e-05
2.28128e-05
1.13703e-05
7.89804e-07
3.31359e-09
4.16484e-09
1.01471e-06
2.37196e-05
7.38847e-05
8.27472e-05
8.66428e-05
8.93894e-05
9.13359e-05
9.27332e-05
9.37598e-05
9.4537e-05
9.51417e-05
9.56195e-05
9.5997e-05
9.6289e-05
9.64984e-05
9.66356e-05
9.67085e-05
9.6709e-05
9.66266e-05
9.64632e-05
9.62189e-05
9.58818e-05
9.54369e-05
9.48613e-05
9.41155e-05
9.31339e-05
9.18162e-05
9.00237e-05
8.75768e-05
7.18838e-05
2.13267e-05
1.11727e-05
7.79081e-07
3.28164e-09
4.17239e-09
1.01652e-06
2.35836e-05
7.24098e-05
8.28815e-05
8.67522e-05
8.94745e-05
9.14006e-05
9.27824e-05
9.37982e-05
9.45687e-05
9.51698e-05
9.56464e-05
9.60259e-05
9.63161e-05
9.65255e-05
9.66629e-05
9.67331e-05
9.67377e-05
9.6666e-05
9.65095e-05
9.62717e-05
9.59417e-05
9.55053e-05
9.49404e-05
9.4208e-05
9.32432e-05
9.19465e-05
9.01803e-05
8.77668e-05
6.81595e-05
2.04246e-05
1.11885e-05
7.81072e-07
3.29566e-09
4.18915e-09
1.02087e-06
2.35112e-05
7.12139e-05
8.30303e-05
8.68691e-05
8.95615e-05
9.14628e-05
9.28253e-05
9.38271e-05
9.45876e-05
9.51819e-05
9.56536e-05
9.60301e-05
9.63185e-05
9.6527e-05
9.6663e-05
9.67309e-05
9.67328e-05
9.66581e-05
9.64982e-05
9.62562e-05
9.59215e-05
9.54806e-05
9.49123e-05
9.4179e-05
9.32193e-05
9.19425e-05
9.02359e-05
8.79927e-05
6.42496e-05
1.99036e-05
1.34354e-05
8.64129e-07
3.53107e-09
4.19904e-09
1.02292e-06
2.33803e-05
6.97746e-05
8.31598e-05
8.69739e-05
8.96427e-05
9.15245e-05
9.28723e-05
9.38638e-05
9.46175e-05
9.52077e-05
9.56772e-05
9.60515e-05
9.63418e-05
9.6554e-05
9.66934e-05
9.67652e-05
9.67714e-05
9.67013e-05
9.65466e-05
9.63109e-05
9.59836e-05
9.55516e-05
9.49937e-05
9.42723e-05
9.33229e-05
9.20472e-05
9.03094e-05
8.79381e-05
6.08332e-05
1.85457e-05
1.1175e-05
7.90002e-07
3.3525e-09
4.22712e-09
1.02916e-06
2.33639e-05
6.86259e-05
8.32961e-05
8.70815e-05
8.97233e-05
9.15824e-05
9.29126e-05
9.3891e-05
9.46357e-05
9.52196e-05
9.5685e-05
9.60559e-05
9.6346e-05
9.65557e-05
9.66929e-05
9.67621e-05
9.67653e-05
9.66921e-05
9.65342e-05
9.62947e-05
9.59632e-05
9.55272e-05
9.49665e-05
9.42445e-05
9.33003e-05
9.20443e-05
9.03661e-05
8.81645e-05
5.73847e-05
1.81065e-05
1.33369e-05
8.65133e-07
3.55766e-09
4.23428e-09
1.03036e-06
2.32356e-05
6.72488e-05
8.34129e-05
8.71767e-05
8.97978e-05
9.16394e-05
9.29565e-05
9.39259e-05
9.46648e-05
9.52457e-05
9.571e-05
9.60818e-05
9.63713e-05
9.65838e-05
9.67241e-05
9.67971e-05
9.68046e-05
9.67362e-05
9.65837e-05
9.63508e-05
9.60274e-05
9.56014e-05
9.50532e-05
9.43469e-05
9.34222e-05
9.21895e-05
9.05383e-05
8.83665e-05
5.49534e-05
1.75403e-05
1.34938e-05
8.82858e-07
3.63294e-09
4.25712e-09
1.03529e-06
2.31911e-05
6.61771e-05
8.35471e-05
8.72814e-05
8.98752e-05
9.16945e-05
9.29943e-05
9.39514e-05
9.46818e-05
9.52573e-05
9.57191e-05
9.60882e-05
9.63768e-05
9.65861e-05
9.6724e-05
9.67944e-05
9.6799e-05
9.67276e-05
9.65719e-05
9.63353e-05
9.6008e-05
9.55785e-05
9.50276e-05
9.43198e-05
9.33949e-05
9.21634e-05
9.05156e-05
8.83518e-05
5.12088e-05
1.64894e-05
1.31733e-05
8.84347e-07
3.66102e-09
4.26351e-09
1.03541e-06
2.30625e-05
6.46359e-05
8.36734e-05
8.73781e-05
8.99485e-05
9.17497e-05
9.30365e-05
9.39847e-05
9.47101e-05
9.5283e-05
9.57448e-05
9.61158e-05
9.64033e-05
9.66137e-05
9.67541e-05
9.68279e-05
9.68368e-05
9.67701e-05
9.662e-05
9.63902e-05
9.60714e-05
9.56526e-05
9.51152e-05
9.44245e-05
9.35203e-05
9.23122e-05
9.06874e-05
8.85376e-05
4.91779e-05
1.6172e-05
1.33855e-05
8.90369e-07
3.70446e-09
4.28451e-09
1.03894e-06
2.29985e-05
6.33784e-05
8.38129e-05
8.74814e-05
9.00226e-05
9.18011e-05
9.30709e-05
9.40072e-05
9.47245e-05
9.52929e-05
9.57515e-05
9.61209e-05
9.64045e-05
9.66125e-05
9.67508e-05
9.68222e-05
9.68281e-05
9.67585e-05
9.66051e-05
9.63716e-05
9.6049e-05
9.5627e-05
9.50875e-05
9.43958e-05
9.34918e-05
9.22845e-05
9.06602e-05
8.85104e-05
4.60015e-05
1.53545e-05
1.32239e-05
8.87821e-07
3.71544e-09
4.29363e-09
1.03957e-06
2.29016e-05
6.20128e-05
8.39307e-05
8.75723e-05
9.00916e-05
9.18529e-05
9.31102e-05
9.40381e-05
9.47507e-05
9.5317e-05
9.5777e-05
9.61438e-05
9.64276e-05
9.66373e-05
9.67785e-05
9.68537e-05
9.68639e-05
9.67989e-05
9.66513e-05
9.64247e-05
9.61108e-05
9.56998e-05
9.51746e-05
9.45012e-05
9.36193e-05
9.24373e-05
9.08392e-05
8.87118e-05
4.45047e-05
1.49867e-05
1.33169e-05
9.0184e-07
3.79796e-09
4.3154e-09
1.04336e-06
2.28711e-05
6.09079e-05
8.40581e-05
8.7667e-05
9.01595e-05
9.18996e-05
9.31407e-05
9.40569e-05
9.47615e-05
9.53224e-05
9.57799e-05
9.61436e-05
9.64254e-05
9.66333e-05
9.67727e-05
9.68454e-05
9.68527e-05
9.67849e-05
9.66342e-05
9.64043e-05
9.60873e-05
9.56743e-05
9.51484e-05
9.44757e-05
9.35954e-05
9.24142e-05
9.08137e-05
8.8679e-05
4.1812e-05
1.42828e-05
1.31397e-05
9.01911e-07
3.82466e-09
4.32835e-09
1.04534e-06
2.28083e-05
5.96812e-05
8.41692e-05
8.77529e-05
9.02249e-05
9.19486e-05
9.31775e-05
9.40851e-05
9.47842e-05
9.5343e-05
9.57979e-05
9.61624e-05
9.64459e-05
9.66564e-05
9.67991e-05
9.6876e-05
9.68879e-05
9.68253e-05
9.6681e-05
9.64589e-05
9.61518e-05
9.57515e-05
9.52421e-05
9.45902e-05
9.37346e-05
9.25798e-05
9.10017e-05
8.88841e-05
4.06598e-05
1.40063e-05
1.32418e-05
9.18309e-07
3.91138e-09
4.35392e-09
1.0499e-06
2.27931e-05
5.87527e-05
8.42892e-05
8.78439e-05
9.02909e-05
9.1994e-05
9.3207e-05
9.4103e-05
9.47939e-05
9.53471e-05
9.57995e-05
9.61615e-05
9.64431e-05
9.6652e-05
9.67932e-05
9.6868e-05
9.68776e-05
9.68129e-05
9.66662e-05
9.64418e-05
9.61331e-05
9.57326e-05
9.52254e-05
9.45785e-05
9.37306e-05
9.25849e-05
9.10141e-05
8.89038e-05
3.87009e-05
1.34647e-05
1.30839e-05
9.26048e-07
3.95902e-09
4.36816e-09
1.05155e-06
2.27458e-05
5.77874e-05
8.43903e-05
8.79255e-05
9.03545e-05
9.20425e-05
9.32441e-05
9.41321e-05
9.48181e-05
9.53684e-05
9.58189e-05
9.61816e-05
9.64646e-05
9.66759e-05
9.68204e-05
9.68994e-05
9.69137e-05
9.68543e-05
9.67148e-05
9.64992e-05
9.6202e-05
9.58169e-05
9.53297e-05
9.47079e-05
9.38872e-05
9.27619e-05
9.11771e-05
8.89245e-05
3.78273e-05
1.28074e-05
1.06398e-05
8.36725e-07
3.7664e-09
4.40461e-09
1.0594e-06
2.32098e-05
5.74013e-05
8.45016e-05
8.80115e-05
9.04175e-05
9.2086e-05
9.32723e-05
9.41492e-05
9.48275e-05
9.53727e-05
9.5821e-05
9.61796e-05
9.646e-05
9.6669e-05
9.68111e-05
9.68869e-05
9.68979e-05
9.68357e-05
9.66932e-05
9.64752e-05
9.61767e-05
9.57918e-05
9.53065e-05
9.46874e-05
9.38691e-05
9.27424e-05
9.11481e-05
8.88716e-05
3.58747e-05
1.23596e-05
1.04631e-05
8.1893e-07
3.73535e-09
4.41209e-09
1.06026e-06
2.26826e-05
5.5673e-05
8.46064e-05
8.80932e-05
9.04805e-05
9.21341e-05
9.33091e-05
9.4178e-05
9.48511e-05
9.53943e-05
9.58386e-05
9.6198e-05
9.64795e-05
9.66901e-05
9.68345e-05
9.69133e-05
9.6928e-05
9.68708e-05
9.67354e-05
9.65268e-05
9.62411e-05
9.58731e-05
9.54088e-05
9.48148e-05
9.40246e-05
9.29263e-05
9.13554e-05
8.90958e-05
3.53287e-05
1.21203e-05
1.03134e-05
8.3492e-07
3.84451e-09
4.44984e-09
1.07001e-06
2.30778e-05
5.50092e-05
8.4703e-05
8.81753e-05
9.0543e-05
9.21781e-05
9.33378e-05
9.41951e-05
9.48598e-05
9.53965e-05
9.58391e-05
9.61941e-05
9.6472e-05
9.66791e-05
9.68195e-05
9.68936e-05
9.69044e-05
9.68439e-05
9.67059e-05
9.64962e-05
9.62116e-05
9.58467e-05
9.53876e-05
9.48003e-05
9.4017e-05
9.29223e-05
9.1347e-05
8.90769e-05
3.38765e-05
1.1771e-05
1.01446e-05
8.37502e-07
3.90466e-09
4.4462e-09
1.06754e-06
2.30732e-05
5.365e-05
8.47647e-05
8.82424e-05
9.06021e-05
9.22258e-05
9.33752e-05
9.42246e-05
9.4884e-05
9.54181e-05
9.58563e-05
9.62116e-05
9.649e-05
9.66981e-05
9.68405e-05
9.69184e-05
9.6933e-05
9.68773e-05
9.67471e-05
9.65478e-05
9.62768e-05
9.59298e-05
9.54939e-05
9.49359e-05
9.41878e-05
9.31318e-05
9.16012e-05
8.93662e-05
3.35429e-05
1.17285e-05
1.02876e-05
8.60553e-07
4.03402e-09
4.4659e-09
1.07178e-06
2.35138e-05
5.28023e-05
8.48866e-05
8.83355e-05
9.06703e-05
9.22733e-05
9.34062e-05
9.42431e-05
9.48928e-05
9.54181e-05
9.58542e-05
9.62058e-05
9.64801e-05
9.66839e-05
9.68216e-05
9.68937e-05
9.69032e-05
9.68446e-05
9.67126e-05
9.65132e-05
9.62453e-05
9.59049e-05
9.54786e-05
9.49325e-05
9.41969e-05
9.31502e-05
9.16314e-05
8.93967e-05
3.2158e-05
1.13587e-05
1.01144e-05
8.66947e-07
4.11018e-09
4.47339e-09
1.07134e-06
2.34126e-05
5.15663e-05
8.49494e-05
8.84079e-05
9.07346e-05
9.23253e-05
9.3447e-05
9.42751e-05
9.49188e-05
9.54406e-05
9.58737e-05
9.62241e-05
9.64982e-05
9.67026e-05
9.68421e-05
9.69171e-05
9.69303e-05
9.68775e-05
9.6755e-05
9.65685e-05
9.63179e-05
9.60012e-05
9.56058e-05
9.50983e-05
9.44088e-05
9.34152e-05
9.19442e-05
8.97437e-05
3.20508e-05
1.13776e-05
1.03148e-05
8.97217e-07
4.27501e-09
4.45752e-09
1.06301e-06
2.32789e-05
5.00957e-05
8.50346e-05
8.8488e-05
9.07992e-05
9.23729e-05
9.34799e-05
9.42964e-05
9.49313e-05
9.54463e-05
9.58741e-05
9.62206e-05
9.64912e-05
9.66927e-05
9.68293e-05
9.6901e-05
9.69113e-05
9.68569e-05
9.67342e-05
9.65486e-05
9.63011e-05
9.59908e-05
9.56054e-05
9.51111e-05
9.44364e-05
9.34616e-05
9.20108e-05
8.98196e-05
3.08902e-05
1.10722e-05
1.02403e-05
9.16295e-07
4.38431e-09
4.47704e-09
1.06582e-06
2.32502e-05
4.90985e-05
8.51258e-05
8.85698e-05
9.08681e-05
9.24286e-05
9.35242e-05
9.4332e-05
9.49605e-05
9.54704e-05
9.58931e-05
9.62381e-05
9.65097e-05
9.67124e-05
9.68507e-05
9.69257e-05
9.69409e-05
9.68927e-05
9.67789e-05
9.66062e-05
9.63752e-05
9.60862e-05
9.5728e-05
9.52678e-05
9.46345e-05
9.37143e-05
9.23159e-05
9.01634e-05
3.09588e-05
1.11691e-05
1.03855e-05
9.39025e-07
4.51543e-09
4.50862e-09
1.07234e-06
2.31678e-05
4.83012e-05
8.52256e-05
8.86585e-05
9.09385e-05
9.24809e-05
9.35612e-05
9.43571e-05
9.49767e-05
9.54797e-05
9.58963e-05
9.62387e-05
9.65048e-05
9.67033e-05
9.68376e-05
9.69087e-05
9.69204e-05
9.6871e-05
9.67579e-05
9.65872e-05
9.63612e-05
9.60816e-05
9.57371e-05
9.52945e-05
9.46814e-05
9.37852e-05
9.2407e-05
9.02655e-05
2.98877e-05
1.08934e-05
1.02127e-05
9.4591e-07
4.60376e-09
4.52445e-09
1.07461e-06
2.3489e-05
4.74158e-05
8.53301e-05
8.87503e-05
9.10137e-05
9.25406e-05
9.36084e-05
9.43951e-05
9.50087e-05
9.55081e-05
9.59248e-05
9.62621e-05
9.65266e-05
9.67251e-05
9.68611e-05
9.69357e-05
9.69531e-05
9.69104e-05
9.6807e-05
9.66505e-05
9.64437e-05
9.61901e-05
9.58803e-05
9.54825e-05
9.49241e-05
9.40859e-05
9.27676e-05
9.06741e-05
3.00524e-05
1.09865e-05
1.04197e-05
9.76883e-07
4.78804e-09
4.54354e-09
1.07667e-06
2.35008e-05
4.6477e-05
8.54412e-05
8.88448e-05
9.10874e-05
9.2595e-05
9.36469e-05
9.44213e-05
9.50254e-05
9.55178e-05
9.59285e-05
9.62614e-05
9.65228e-05
9.67186e-05
9.68526e-05
9.69256e-05
9.69413e-05
9.68983e-05
9.67963e-05
9.66422e-05
9.64401e-05
9.61944e-05
9.58964e-05
9.55123e-05
9.49754e-05
9.41675e-05
9.28735e-05
9.0797e-05
2.9097e-05
1.07559e-05
1.03962e-05
1.00273e-06
4.94245e-09
4.55443e-09
1.07761e-06
2.34959e-05
4.54078e-05
8.55431e-05
8.89347e-05
9.11613e-05
9.26539e-05
9.36938e-05
9.44593e-05
9.5057e-05
9.55447e-05
9.59526e-05
9.62835e-05
9.65441e-05
9.67401e-05
9.68756e-05
9.69532e-05
9.69732e-05
9.69365e-05
9.6846e-05
9.67057e-05
9.65222e-05
9.6301e-05
9.60347e-05
9.56915e-05
9.52119e-05
9.44637e-05
9.32263e-05
9.11876e-05
2.92302e-05
1.08372e-05
1.06449e-05
1.03151e-06
5.09545e-09
4.58047e-09
1.08226e-06
2.34904e-05
4.44648e-05
8.56647e-05
8.9033e-05
9.12361e-05
9.27084e-05
9.37324e-05
9.44858e-05
9.50745e-05
9.55554e-05
9.59574e-05
9.6284e-05
9.65416e-05
9.67351e-05
9.68689e-05
9.69444e-05
9.69634e-05
9.69277e-05
9.68392e-05
9.67031e-05
9.65274e-05
9.63188e-05
9.60709e-05
9.57515e-05
9.52979e-05
9.45791e-05
9.33737e-05
9.13566e-05
2.84415e-05
1.05337e-05
1.03701e-05
1.04721e-06
5.23707e-09
4.57967e-09
1.07906e-06
2.33822e-05
4.33776e-05
8.5767e-05
8.91218e-05
9.13086e-05
9.27662e-05
9.37784e-05
9.45233e-05
9.51059e-05
9.55826e-05
9.59824e-05
9.63078e-05
9.65654e-05
9.67601e-05
9.68967e-05
9.69782e-05
9.70049e-05
9.69775e-05
9.69009e-05
9.67807e-05
9.66251e-05
9.64421e-05
9.62269e-05
9.59548e-05
9.55615e-05
9.49032e-05
9.37511e-05
9.17805e-05
2.88814e-05
1.07958e-05
1.07714e-05
1.08126e-06
5.42156e-09
4.61057e-09
1.0854e-06
2.33028e-05
4.24736e-05
8.59213e-05
8.92305e-05
9.13856e-05
9.28203e-05
9.38158e-05
9.45485e-05
9.51224e-05
9.55927e-05
9.59869e-05
9.63083e-05
9.65625e-05
9.67547e-05
9.68892e-05
9.69687e-05
9.69926e-05
9.69649e-05
9.68906e-05
9.67739e-05
9.66253e-05
9.64542e-05
9.62562e-05
9.6007e-05
9.56482e-05
9.50286e-05
9.39187e-05
9.19849e-05
2.81713e-05
1.04464e-05
1.07167e-05
1.13711e-06
5.72828e-09
4.64884e-09
1.09366e-06
2.34115e-05
4.18829e-05
8.6033e-05
8.93213e-05
9.14576e-05
9.28768e-05
9.38607e-05
9.45852e-05
9.51534e-05
9.56196e-05
9.60113e-05
9.6332e-05
9.65865e-05
9.67801e-05
9.69177e-05
9.7002e-05
9.70329e-05
9.70147e-05
9.69531e-05
9.68524e-05
9.67241e-05
9.65782e-05
9.64209e-05
9.62291e-05
9.59283e-05
9.53754e-05
9.43329e-05
9.24307e-05
2.85348e-05
1.07229e-05
1.11598e-05
1.16436e-06
5.86091e-09
4.6395e-09
1.08709e-06
2.31838e-05
4.056e-05
8.6113e-05
8.93959e-05
9.15172e-05
9.29209e-05
9.38918e-05
9.46065e-05
9.51675e-05
9.56292e-05
9.6017e-05
9.63324e-05
9.65836e-05
9.67754e-05
9.6912e-05
9.6996e-05
9.70267e-05
9.70092e-05
9.69507e-05
9.68555e-05
9.67357e-05
9.66034e-05
9.64633e-05
9.62962e-05
9.60346e-05
9.55299e-05
9.45209e-05
9.2642e-05
2.78344e-05
1.05074e-05
1.11043e-05
1.20068e-06
6.0963e-09
4.64223e-09
1.08547e-06
2.29768e-05
3.95134e-05
8.61925e-05
8.9468e-05
9.15767e-05
9.29685e-05
9.393e-05
9.46378e-05
9.51941e-05
9.56536e-05
9.60365e-05
9.63525e-05
9.66047e-05
9.67985e-05
9.69386e-05
9.70287e-05
9.70713e-05
9.70678e-05
9.70205e-05
9.69434e-05
9.68483e-05
9.67483e-05
9.66528e-05
9.65326e-05
9.63341e-05
9.58992e-05
9.49567e-05
9.31239e-05
2.82918e-05
1.07878e-05
1.16206e-05
1.22844e-06
6.25673e-09
4.64865e-09
1.08216e-06
2.28589e-05
3.87748e-05
8.62967e-05
8.95494e-05
9.16363e-05
9.30101e-05
9.39578e-05
9.46558e-05
9.52057e-05
9.56584e-05
9.60385e-05
9.63496e-05
9.6599e-05
9.67913e-05
9.6931e-05
9.70211e-05
9.7063e-05
9.70562e-05
9.70122e-05
9.69419e-05
9.68509e-05
9.67627e-05
9.6686e-05
9.65963e-05
9.64357e-05
9.60483e-05
9.51616e-05
9.33507e-05
2.72948e-05
1.04679e-05
1.10935e-05
1.24585e-06
6.42902e-09
4.65482e-09
1.081e-06
2.27337e-05
3.79104e-05
8.63833e-05
8.9622e-05
9.16939e-05
9.30547e-05
9.39927e-05
9.46841e-05
9.523e-05
9.56812e-05
9.60562e-05
9.6365e-05
9.66135e-05
9.68061e-05
9.69471e-05
9.70401e-05
9.70883e-05
9.70941e-05
9.706e-05
9.70017e-05
9.69407e-05
9.6889e-05
9.68538e-05
9.68281e-05
9.67426e-05
9.64361e-05
9.56222e-05
9.38654e-05
2.77661e-05
1.05834e-05
1.09558e-05
1.26942e-06
6.59573e-09
4.67608e-09
1.08343e-06
2.26639e-05
3.7231e-05
8.64797e-05
8.96964e-05
9.17473e-05
9.30906e-05
9.4015e-05
9.46964e-05
9.52353e-05
9.56827e-05
9.60515e-05
9.63565e-05
9.66026e-05
9.67936e-05
9.69334e-05
9.70253e-05
9.70717e-05
9.7076e-05
9.70455e-05
9.69949e-05
9.6941e-05
9.69039e-05
9.68964e-05
9.69108e-05
9.68718e-05
9.66158e-05
9.58456e-05
9.41123e-05
2.74556e-05
1.06143e-05
1.14329e-05
1.32357e-06
6.93259e-09
4.68745e-09
1.084e-06
2.25759e-05
3.64844e-05
8.65612e-05
8.97637e-05
9.17999e-05
9.31305e-05
9.40454e-05
9.47211e-05
9.52589e-05
9.56993e-05
9.60652e-05
9.63695e-05
9.66161e-05
9.68089e-05
9.69519e-05
9.70485e-05
9.71019e-05
9.71159e-05
9.70974e-05
9.70639e-05
9.70391e-05
9.70439e-05
9.70901e-05
9.71726e-05
9.72157e-05
9.70515e-05
9.63727e-05
9.47203e-05
2.84215e-05
1.0898e-05
1.18218e-05
1.39625e-06
7.30274e-09
4.7121e-09
1.08718e-06
2.25115e-05
3.58927e-05
8.66548e-05
8.98353e-05
9.18505e-05
9.31635e-05
9.40648e-05
9.473e-05
9.526e-05
9.56947e-05
9.60561e-05
9.6357e-05
9.66012e-05
9.67923e-05
9.69341e-05
9.70301e-05
9.70836e-05
9.70991e-05
9.70853e-05
9.70596e-05
9.7049e-05
9.70751e-05
9.71498e-05
9.72709e-05
9.73601e-05
9.7245e-05
9.66088e-05
9.49738e-05
2.79328e-05
1.09455e-05
1.21872e-05
1.43936e-06
7.57986e-09
4.72152e-09
1.08607e-06
2.24054e-05
3.53172e-05
8.67214e-05
8.98959e-05
9.18996e-05
9.32011e-05
9.40928e-05
9.47506e-05
9.52756e-05
9.57068e-05
9.60663e-05
9.63662e-05
9.66099e-05
9.68008e-05
9.69423e-05
9.70385e-05
9.70937e-05
9.71145e-05
9.71147e-05
9.71112e-05
9.71322e-05
9.72044e-05
9.73429e-05
9.75398e-05
9.77136e-05
9.76826e-05
9.71341e-05
9.55845e-05
2.87745e-05
1.11965e-05
1.24843e-05
1.48114e-06
7.80055e-09
4.75925e-09
1.09332e-06
2.28984e-05
3.51311e-05
8.68097e-05
8.99634e-05
9.19468e-05
9.32311e-05
9.41093e-05
9.47569e-05
9.52741e-05
9.56996e-05
9.60549e-05
9.63516e-05
9.65929e-05
9.67816e-05
9.69218e-05
9.70183e-05
9.70735e-05
9.7095e-05
9.70995e-05
9.7106e-05
9.71423e-05
9.72375e-05
9.74074e-05
9.76468e-05
9.78708e-05
9.78913e-05
9.73852e-05
9.5852e-05
2.8352e-05
1.10059e-05
1.1956e-05
1.46991e-06
7.88221e-09
4.77808e-09
1.09459e-06
2.2379e-05
3.42021e-05
8.68741e-05
9.00234e-05
9.19955e-05
9.32681e-05
9.41365e-05
9.47764e-05
9.52885e-05
9.57104e-05
9.6064e-05
9.63602e-05
9.66019e-05
9.6792e-05
9.69356e-05
9.70369e-05
9.70998e-05
9.71329e-05
9.71544e-05
9.71855e-05
9.72569e-05
9.74011e-05
9.76376e-05
9.79598e-05
9.82819e-05
9.84092e-05
9.80073e-05
9.65515e-05
2.93893e-05
1.12937e-05
1.21806e-05
1.53786e-06
8.28293e-09
4.82394e-09
1.10382e-06
2.27602e-05
3.40747e-05
8.69682e-05
9.00941e-05
9.20443e-05
9.32986e-05
9.41529e-05
9.47823e-05
9.52861e-05
9.5702e-05
9.60512e-05
9.63439e-05
9.65826e-05
9.67703e-05
9.69138e-05
9.70147e-05
9.70784e-05
9.71144e-05
9.71409e-05
9.71822e-05
9.72689e-05
9.74354e-05
9.7706e-05
9.80729e-05
9.84434e-05
9.8618e-05
9.82519e-05
9.68051e-05
2.86383e-05
1.12606e-05
1.19745e-05
1.55656e-06
8.45705e-09
4.85385e-09
1.10836e-06
2.29077e-05
3.36827e-05
8.70414e-05
9.01591e-05
9.20961e-05
9.33377e-05
9.41815e-05
9.4803e-05
9.53013e-05
9.57135e-05
9.60608e-05
9.63528e-05
9.65918e-05
9.6781e-05
9.69277e-05
9.70333e-05
9.71049e-05
9.71528e-05
9.71967e-05
9.7264e-05
9.73883e-05
9.76065e-05
9.7951e-05
9.8407e-05
9.88834e-05
9.91725e-05
9.89122e-05
9.75292e-05
2.96252e-05
1.16457e-05
1.1869e-05
1.54498e-06
8.5085e-09
4.90088e-09
1.11707e-06
2.31177e-05
3.34145e-05
8.71285e-05
9.02285e-05
9.21457e-05
9.33697e-05
9.41994e-05
9.48104e-05
9.53003e-05
9.57062e-05
9.60486e-05
9.63365e-05
9.65719e-05
9.67596e-05
9.69048e-05
9.70103e-05
9.70837e-05
9.7136e-05
9.7187e-05
9.72671e-05
9.741e-05
9.7655e-05
9.80402e-05
9.85476e-05
9.90812e-05
9.9427e-05
9.92149e-05
9.78552e-05
2.90063e-05
1.16131e-05
1.16822e-05
1.56006e-06
8.78182e-09
4.93809e-09
1.12345e-06
2.33146e-05
3.3078e-05
8.72085e-05
9.0299e-05
9.22024e-05
9.34132e-05
9.42323e-05
9.48356e-05
9.53199e-05
9.57226e-05
9.60637e-05
9.63515e-05
9.65879e-05
9.67785e-05
9.69276e-05
9.7039e-05
9.7121e-05
9.71859e-05
9.7255e-05
9.7362e-05
9.75434e-05
9.78459e-05
9.83052e-05
9.89018e-05
9.95403e-05
9.99989e-05
9.98926e-05
9.86078e-05
2.95789e-05
1.17355e-05
1.21506e-05
1.64547e-06
9.21272e-09
4.99461e-09
1.13451e-06
2.3577e-05
3.28462e-05
8.73079e-05
9.03773e-05
9.22593e-05
9.34512e-05
9.42551e-05
9.48462e-05
9.53197e-05
9.57165e-05
9.60553e-05
9.634e-05
9.65736e-05
9.6763e-05
9.69107e-05
9.70221e-05
9.71061e-05
9.71757e-05
9.72528e-05
9.73742e-05
9.75766e-05
9.79139e-05
9.84176e-05
9.90709e-05
9.97714e-05
0.00010029
0.000100233
9.8967e-05
2.92749e-05
1.17946e-05
1.21746e-05
1.70014e-06
9.72105e-09
5.04102e-09
1.14288e-06
2.36872e-05
3.25017e-05
8.73993e-05
9.04562e-05
9.23225e-05
9.35002e-05
9.42925e-05
9.48742e-05
9.53391e-05
9.57358e-05
9.60743e-05
9.63593e-05
9.65936e-05
9.6785e-05
9.69353e-05
9.70506e-05
9.71411e-05
9.72219e-05
9.73178e-05
9.747e-05
9.77195e-05
9.81206e-05
9.8711e-05
9.9471e-05
0.000100297
0.000100951
0.000101022
9.98453e-05
3.00309e-05
1.1975e-05
1.26768e-05
1.78624e-06
1.01359e-08
5.10035e-09
1.15571e-06
2.41115e-05
3.24381e-05
8.75099e-05
9.05416e-05
9.23848e-05
9.35434e-05
9.43211e-05
9.48918e-05
9.53487e-05
9.57389e-05
9.60728e-05
9.63541e-05
9.65858e-05
9.67758e-05
9.69252e-05
9.70409e-05
9.71336e-05
9.72193e-05
9.73238e-05
9.74898e-05
9.77598e-05
9.81922e-05
9.8823e-05
9.96342e-05
0.000100516
0.000101225
0.000101349
0.000100216
2.95998e-05
1.20379e-05
1.36268e-05
1.95646e-06
1.10948e-08
5.1378e-09
1.16366e-06
2.40266e-05
3.19219e-05
8.75815e-05
9.06132e-05
9.24469e-05
9.35946e-05
9.43626e-05
9.49258e-05
9.53768e-05
9.57616e-05
9.60943e-05
9.63775e-05
9.66117e-05
9.68049e-05
9.69589e-05
9.70812e-05
9.71834e-05
9.72832e-05
9.7409e-05
9.76065e-05
9.79237e-05
9.84198e-05
9.91342e-05
0.000100047
0.000101048
0.000101888
0.000102138
0.0001011
3.02702e-05
1.21292e-05
1.41859e-05
2.04375e-06
1.16173e-08
5.13963e-09
1.16098e-06
2.39999e-05
3.12887e-05
8.77131e-05
9.0711e-05
9.25162e-05
9.3643e-05
9.43954e-05
9.4947e-05
9.53895e-05
9.57672e-05
9.60981e-05
9.63767e-05
9.66088e-05
9.68006e-05
9.69545e-05
9.7078e-05
9.71831e-05
9.72883e-05
9.74232e-05
9.76342e-05
9.79711e-05
9.84954e-05
9.9245e-05
0.0001002
0.000101241
0.00010211
0.000102376
0.000101336
3.01953e-05
1.24501e-05
1.39787e-05
2.0722e-06
1.18694e-08
5.18411e-09
1.16565e-06
2.42767e-05
3.10889e-05
8.78406e-05
9.08123e-05
9.25947e-05
9.37034e-05
9.44428e-05
9.49858e-05
9.54235e-05
9.58006e-05
9.61264e-05
9.64035e-05
9.66367e-05
9.6831e-05
9.69891e-05