/*--------------------------------*- C++ -*----------------------------------*\
  =========                 |
  \\      /  F ield         | OpenFOAM: The Open Source CFD Toolbox
   \\    /   O peration     | Website:  https://openfoam.org
    \\  /    A nd           | Version:  13
     \\/     M anipulation  |
\*---------------------------------------------------------------------------*/
FoamFile
{
    format      ascii;
    class       volScalarField;
    location    "1";
    object      k;
}
// * * * * * * * * * * * * * * * * * * * * * * * * * * * * * * * * * * * * * //

dimensions      [0 2 -2 0 0 0 0];

internalField   nonuniform List<scalar> 
78750
(
1.07212e-08
2.78522e-08
1.33003e-07
2.72877e-06
8.23063e-06
1.70104e-05
2.76594e-05
3.85535e-05
4.84506e-05
5.67475e-05
6.32513e-05
6.79506e-05
7.10401e-05
7.28613e-05
7.3935e-05
7.53004e-05
7.57929e-05
7.34466e-05
7.13354e-05
6.9848e-05
6.88916e-05
6.81925e-05
6.69979e-05
6.71864e-05
6.74176e-05
6.77178e-05
6.82677e-05
6.82975e-05
6.79672e-05
6.68582e-05
6.3494e-05
6.08327e-05
5.63761e-05
2.30212e-05
1.2907e-06
3.05907e-07
7.65699e-06
4.57806e-05
8.85648e-05
0.00012445
0.000151041
0.000174575
0.000193956
0.000209659
0.000222264
0.000232187
0.000239914
0.000245907
0.000250562
0.000254191
0.000257036
0.000259239
0.000260991
0.000262419
0.000263576
0.000264478
0.000265101
0.000265413
0.000265007
0.000263586
0.00026125
0.000257538
0.000251827
0.000243356
0.000231183
0.000214327
0.000192083
0.000154411
5.18993e-05
2.19864e-06
1.68125e-06
4.70226e-05
0.000118365
0.000155768
0.000187666
0.000213874
0.00023439
0.000250146
0.0002621
0.000271109
0.000277889
0.000282997
0.000286846
0.000289735
0.000291874
0.000293421
0.000294487
0.000295155
0.000295477
0.00029548
0.000295006
0.000293961
0.000292472
0.000290426
0.000287663
0.000283931
0.000278844
0.000271847
0.000262218
0.000249102
0.0002316
0.000208842
0.000169029
5.64265e-05
2.23868e-06
2.0114e-06
5.56836e-05
0.00013305
0.000170514
0.00020133
0.00022613
0.000245232
0.000259692
0.000270537
0.000278669
0.00028481
0.000289487
0.000293065
0.000295786
0.000297811
0.000299257
0.000300206
0.000300718
0.000300828
0.000300441
0.000299501
0.000298105
0.000296198
0.000293699
0.000290474
0.000286301
0.000280819
0.000273498
0.000263634
0.000250403
0.000232972
0.000209693
0.000167648
5.47071e-05
2.09246e-06
2.03326e-06
5.57419e-05
0.000138254
0.000174904
0.000204614
0.000228761
0.000247404
0.000261503
0.000272059
0.000279967
0.000285942
0.000290503
0.000294003
0.000296672
0.000298663
0.000300082
0.000301005
0.000301485
0.000301551
0.000301124
0.000300154
0.000298713
0.000296749
0.000294181
0.000290881
0.000286628
0.000281067
0.00027367
0.000263736
0.000250448
0.00023299
0.000209307
0.000165822
5.24983e-05
1.99838e-06
2.01381e-06
5.45785e-05
0.000140802
0.000177217
0.000206182
0.000229948
0.000248345
0.000262258
0.000272662
0.000280445
0.000286317
0.000290795
0.00029423
0.000296848
0.000298798
0.000300179
0.000301064
0.000301502
0.000301519
0.000301049
0.000300045
0.000298562
0.000296545
0.000293914
0.000290536
0.000286192
0.000280527
0.000273015
0.000262957
0.000249537
0.000231949
0.000207888
0.00016347
5.13388e-05
1.943e-06
1.95888e-06
5.28755e-05
0.000142557
0.000178907
0.000207304
0.000230765
0.00024897
0.000262745
0.000273043
0.000280744
0.000286553
0.000290986
0.000294388
0.000296984
0.00029892
0.000300294
0.000301178
0.000301619
0.000301643
0.000301186
0.0003002
0.000298735
0.000296733
0.000294112
0.000290739
0.000286394
0.00028072
0.000273191
0.000263108
0.000249654
0.00023202
0.000207694
0.000162567
5.07989e-05
1.9148e-06
1.90876e-06
5.14745e-05
0.000144427
0.000180708
0.000208576
0.000231693
0.000249648
0.000263234
0.000273385
0.000280974
0.000286702
0.000291076
0.000294439
0.000297009
0.000298922
0.000300275
0.000301139
0.000301559
0.000301557
0.000301076
0.000300066
0.000298569
0.000296526
0.000293853
0.000290416
0.000285994
0.000280232
0.000272601
0.000262403
0.000248825
0.000231062
0.000206377
0.000160517
4.98665e-05
1.85838e-06
1.85376e-06
5.01225e-05
0.000146329
0.000182572
0.000209962
0.000232717
0.000250394
0.00026377
0.000273767
0.000281248
0.000286904
0.000291237
0.000294579
0.000297144
0.000299057
0.000300415
0.000301289
0.000301722
0.000301737
0.000301274
0.000300286
0.000298811
0.000296789
0.000294136
0.000290718
0.000286312
0.000280562
0.000272943
0.000262756
0.000249188
0.000231428
0.000206477
0.000159838
4.94983e-05
1.83292e-06
1.80068e-06
4.89561e-05
0.000148476
0.000184781
0.000211679
0.000233983
0.000251292
0.000264383
0.00027417
0.000281501
0.000287055
0.000291321
0.000294622
0.000297161
0.000299053
0.000300391
0.000301246
0.000301659
0.000301652
0.000301165
0.000300152
0.000298644
0.000296582
0.000293879
0.000290402
0.000285929
0.000280105
0.000272405
0.000262136
0.000248494
0.000230679
0.000205421
0.000157965
4.84413e-05
1.79411e-06
1.71054e-06
4.58827e-05
0.000139138
0.000182909
0.000211855
0.000234572
0.000251884
0.000264862
0.000274527
0.00028176
0.000287247
0.000291472
0.000294754
0.000297286
0.000299182
0.000300529
0.000301396
0.000301827
0.000301839
0.000301374
0.000300383
0.000298901
0.000296866
0.000294189
0.000290738
0.00028629
0.000280486
0.000272798
0.000262528
0.000248856
0.000230949
0.000205171
0.000156678
4.81994e-05
1.79076e-06
1.69386e-06
4.55434e-05
0.000140471
0.000184433
0.000213129
0.00023557
0.00025262
0.000265379
0.000274871
0.000281977
0.000287374
0.000291538
0.000294781
0.00029729
0.000299168
0.000300504
0.000301369
0.000301814
0.000301802
0.000301277
0.000300248
0.000298726
0.000296646
0.00029392
0.000290412
0.0002859
0.000280028
0.000272269
0.000261926
0.000248184
0.000230206
0.000203658
0.000153141
4.67584e-05
1.72942e-06
1.6796e-06
4.52208e-05
0.000141444
0.000185656
0.00021419
0.000236421
0.000253267
0.000265852
0.000275211
0.000282221
0.000287554
0.00029168
0.000294903
0.000297404
0.000299286
0.000300628
0.000301492
0.000301923
0.000301935
0.000301468
0.000300474
0.000298983
0.000296931
0.00029423
0.000290747
0.000286258
0.000280402
0.000272652
0.000262305
0.000248534
0.000230475
0.000203084
0.000150223
4.54355e-05
1.67267e-06
1.68043e-06
4.52715e-05
0.000142637
0.000186946
0.00021529
0.000237293
0.000253919
0.000266313
0.00027552
0.000282416
0.000287668
0.000291738
0.000294927
0.000297409
0.000299273
0.000300605
0.000301471
0.000301916
0.000301898
0.000301366
0.000300333
0.000298799
0.000296699
0.000293943
0.000290397
0.000285834
0.000279895
0.000272053
0.000261604
0.000247723
0.000229551
0.000201354
0.000146112
4.34751e-05
1.59726e-06
1.67844e-06
4.52102e-05
0.000143417
0.000187941
0.000216191
0.000238037
0.000254497
0.000266745
0.000275836
0.000282648
0.000287845
0.000291882
0.000295055
0.000297525
0.000299392
0.000300727
0.000301591
0.000302023
0.000302035
0.000301566
0.000300567
0.000299065
0.000296996
0.000294271
0.000290755
0.000286223
0.000280316
0.000272502
0.000262078
0.000248204
0.000229989
0.00020119
0.000144175
4.25412e-05
1.55477e-06
1.6758e-06
4.5162e-05
0.000144397
0.000189051
0.000217171
0.00023883
0.000255097
0.000267173
0.000276126
0.000282832
0.000287951
0.000291932
0.000295062
0.000297517
0.000299373
0.000300702
0.000301566
0.00030201
0.000301993
0.000301465
0.00030043
0.000298891
0.000296778
0.000294005
0.000290435
0.000285844
0.000279875
0.000272002
0.000261529
0.000247629
0.000229438
0.00020027
0.000141745
4.1462e-05
1.52266e-06
1.67809e-06
4.51971e-05
0.000145162
0.000189963
0.000218003
0.000239524
0.000255643
0.000267588
0.000276436
0.000283065
0.000288132
0.000292081
0.000295193
0.000297637
0.000299499
0.000300839
0.000301708
0.000302143
0.000302157
0.00030169
0.00030069
0.000299184
0.000297107
0.00029437
0.000290841
0.000286295
0.000280377
0.000272561
0.000262152
0.000248321
0.000230187
0.000200651
0.000140313
4.09258e-05
1.51763e-06
1.68313e-06
4.53632e-05
0.000146095
0.000190979
0.000218908
0.000240263
0.000256209
0.000267999
0.00027672
0.000283253
0.000288249
0.000292148
0.000295223
0.000297637
0.000299489
0.000300826
0.000301697
0.000302147
0.000302136
0.000301611
0.000300576
0.000299034
0.000296916
0.000294136
0.000290561
0.000285974
0.000280032
0.000272246
0.000262013
0.000248754
0.000232266
0.000208554
0.000174352
4.65258e-05
1.64444e-06
1.6851e-06
4.54323e-05
0.000146821
0.000191823
0.000219682
0.000240914
0.000256728
0.000268399
0.000277026
0.00028349
0.000288441
0.000292311
0.00029537
0.000297777
0.000299627
0.000300976
0.000301857
0.000302302
0.000302322
0.00030186
0.000300863
0.000299357
0.000297276
0.000294537
0.000291009
0.000286477
0.000280597
0.000272879
0.00026272
0.000249536
0.000233122
0.000209311
0.000174989
4.68847e-05
1.65553e-06
1.69327e-06
4.56881e-05
0.000147694
0.000192794
0.000220558
0.000241624
0.000257273
0.000268798
0.000277306
0.000283681
0.000288566
0.000292392
0.00029542
0.000297805
0.00029964
0.000300986
0.000301866
0.000302324
0.00030232
0.000301801
0.000300768
0.000299226
0.000297107
0.000294327
0.000290756
0.000286179
0.000280254
0.000272492
0.000262295
0.00024909
0.000232534
0.000208186
0.000173094
4.62621e-05
1.63092e-06
1.69639e-06
4.57376e-05
0.000148055
0.000193544
0.000221349
0.000242268
0.000257779
0.000269189
0.000277607
0.000283917
0.00028876
0.000292561
0.000295577
0.00029796
0.000299798
0.000301147
0.000302032
0.000302481
0.000302505
0.000302048
0.000301056
0.000299553
0.000297475
0.000294741
0.000291224
0.000286712
0.000280863
0.00027319
0.000263096
0.00025001
0.000233347
0.000208453
0.000172846
4.61179e-05
1.62194e-06
1.70449e-06
4.59456e-05
0.000148643
0.000194415
0.000222206
0.00024295
0.000258298
0.000269567
0.000277873
0.000284099
0.000288882
0.000292642
0.000295632
0.000298
0.000299829
0.000301168
0.000302038
0.000302474
0.000302477
0.000301988
0.000300967
0.000299433
0.000297322
0.000294555
0.000291005
0.000286462
0.000280586
0.000272889
0.000262775
0.00024967
0.000232659
0.000206836
0.000170747
4.53499e-05
1.59561e-06
1.70608e-06
4.59632e-05
0.000148943
0.000195102
0.000222941
0.000243551
0.000258773
0.000269936
0.00027816
0.000284327
0.000289073
0.000292812
0.000295795
0.000298164
0.000299995
0.000301333
0.000302217
0.000302668
0.000302698
0.000302246
0.000301261
0.000299764
0.000297696
0.000294978
0.000291491
0.000287025
0.000281242
0.000273656
0.000263664
0.000250679
0.000233532
0.000207061
0.000170546
4.54816e-05
1.60229e-06
1.71311e-06
4.61487e-05
0.000149479
0.000195923
0.000223752
0.000244195
0.000259264
0.000270294
0.000278411
0.000284499
0.000289186
0.000292885
0.000295838
0.000298185
0.000300002
0.00030134
0.000302215
0.000302654
0.000302666
0.000302193
0.000301186
0.000299662
0.000297564
0.00029482
0.000291311
0.000286839
0.000281072
0.000273537
0.000263636
0.000250718
0.000232948
0.00020203
0.000144757
4.38289e-05
1.59593e-06
1.71527e-06
4.61747e-05
0.000149767
0.000196589
0.00022446
0.000244771
0.000259718
0.000270647
0.000278686
0.000284717
0.000289367
0.000293043
0.000295986
0.000298332
0.000300159
0.000301509
0.000302405
0.000302867
0.000302908
0.000302465
0.000301491
0.000300005
0.000297951
0.000295258
0.000291812
0.000287409
0.000281717
0.000274249
0.000264407
0.000251592
0.0002341
0.000206193
0.000168796
4.54666e-05
1.61307e-06
1.72501e-06
4.64033e-05
0.000150249
0.000197337
0.000225205
0.000245367
0.000260173
0.00027098
0.000278922
0.000284879
0.000289477
0.000293115
0.000296033
0.00029836
0.000300173
0.000301516
0.000302399
0.000302846
0.000302867
0.000302404
0.000301408
0.000299898
0.000297819
0.000295102
0.000291638
0.00028723
0.000281552
0.000274131
0.00026437
0.000251608
0.000233434
0.000200868
0.000143088
4.37317e-05
1.59493e-06
1.72859e-06
4.65075e-05
0.000150532
0.000197948
0.000225854
0.000245894
0.000260591
0.000271306
0.000279178
0.000285086
0.000289652
0.000293274
0.000296186
0.000298516
0.000300337
0.00030169
0.000302593
0.000303064
0.000303112
0.00030268
0.000301719
0.000300248
0.000298217
0.00029556
0.000292169
0.00028785
0.000282283
0.000274994
0.000265385
0.000252788
0.000234543
0.000201275
0.000142629
4.41534e-05
1.61505e-06
1.73754e-06
4.674e-05
0.00015095
0.000198665
0.000226572
0.000246467
0.000261025
0.000271622
0.000279399
0.000285237
0.000289754
0.000293344
0.000296237
0.000298556
0.000300368
0.00030171
0.000302594
0.000303048
0.000303078
0.000302625
0.000301642
0.000300147
0.000298092
0.000295413
0.000292005
0.000287678
0.000282112
0.000274832
0.000265241
0.000252671
0.000234159
0.000199921
0.000141331
4.36067e-05
1.60239e-06
1.73187e-06
4.64681e-05
0.000150876
0.00019913
0.000227175
0.000246972
0.000261427
0.000271935
0.000279644
0.000285435
0.000289924
0.000293501
0.000296391
0.000298718
0.000300541
0.000301885
0.000302783
0.000303257
0.000303314
0.000302892
0.000301943
0.000300491
0.000298486
0.00029587
0.00029254
0.00028831
0.000282858
0.000275706
0.00026624
0.000253759
0.00023509
0.000200099
0.000141141
4.38967e-05
1.624e-06
1.73753e-06
4.65748e-05
0.00015111
0.000199753
0.00022786
0.000247519
0.000261838
0.000272228
0.000279845
0.000285568
0.000290011
0.000293559
0.000296436
0.00029875
0.000300557
0.000301881
0.000302763
0.000303223
0.000303261
0.000302818
0.000301847
0.000300371
0.000298344
0.000295708
0.000292366
0.000288132
0.000282686
0.000275548
0.000266103
0.000253648
0.000234762
0.000198957
0.000140455
4.4211e-05
1.6395e-06
1.73824e-06
4.65497e-05
0.000151108
0.000200211
0.000228434
0.000247998
0.000262218
0.000272522
0.000280073
0.000285751
0.000290167
0.000293705
0.000296583
0.000298899
0.000300704
0.000302037
0.000302937
0.000303419
0.000303486
0.000303074
0.000302138
0.000300704
0.000298727
0.000296157
0.000292897
0.000288766
0.000283442
0.00027644
0.000267132
0.000254789
0.000235844
0.000199544
0.000141065
4.48431e-05
1.6608e-06
1.7444e-06
4.66721e-05
0.000151341
0.00020079
0.000229065
0.000248504
0.000262597
0.00027279
0.000280252
0.000285864
0.000290232
0.000293738
0.000296595
0.000298903
0.000300692
0.000302013
0.000302901
0.00030337
0.000303418
0.000302986
0.00030203
0.000300574
0.000298579
0.000295995
0.00029273
0.000288603
0.000283289
0.000276295
0.000266977
0.000254599
0.000235372
0.000198103
0.000139696
4.44486e-05
1.65066e-06
1.7447e-06
4.66049e-05
0.000151303
0.000201201
0.000229595
0.000248951
0.000262954
0.000273067
0.000280465
0.000286031
0.000290371
0.00029386
0.000296713
0.000299017
0.00030082
0.000302158
0.000303067
0.000303562
0.000303641
0.000303244
0.000302327
0.000300919
0.000298983
0.000296474
0.000293305
0.000289296
0.00028412
0.00027727
0.000268077
0.000255795
0.000236542
0.000198851
0.000140429
4.49936e-05
1.67788e-06
1.75091e-06
4.67098e-05
0.000151489
0.000201723
0.000230175
0.000249424
0.000263312
0.000273321
0.000280634
0.000286135
0.000290428
0.000293886
0.000296719
0.000299016
0.000300803
0.000302131
0.00030303
0.000303514
0.000303579
0.000303167
0.000302235
0.000300812
0.000298866
0.000296355
0.000293198
0.000289218
0.000284087
0.000277295
0.000268156
0.000255916
0.00023641
0.000197896
0.000139666
4.51383e-05
1.69485e-06
1.75083e-06
4.6618e-05
0.000151398
0.000202067
0.000230648
0.000249841
0.000263654
0.00027359
0.000280845
0.000286305
0.000290574
0.000294022
0.00029686
0.000299149
0.000300941
0.000302282
0.000303202
0.000303712
0.00030381
0.000303435
0.000302545
0.000301176
0.000299298
0.000296878
0.000293837
0.000290002
0.000285042
0.000278431
0.000269467
0.00025737
0.00023832
0.00020397
0.000166303
4.7095e-05
1.72139e-06
1.7644e-06
4.69585e-05
0.000151622
0.000202493
0.000231151
0.000250274
0.000263989
0.000273831
0.000281007
0.000286406
0.000290631
0.000294053
0.000296869
0.000299136
0.000300913
0.00030224
0.000303146
0.000303639
0.000303716
0.000303318
0.000302411
0.000301027
0.000299142
0.000296723
0.000293692
0.000289874
0.000284929
0.000278318
0.000269321
0.000257139
0.000237758
0.00020244
0.000164931
4.66196e-05
1.70098e-06
1.76808e-06
4.69936e-05
0.000151799
0.000203122
0.000231762
0.000250742
0.000264349
0.000274107
0.000281219
0.000286574
0.000290771
0.000294178
0.000296981
0.00029925
0.000301034
0.000302373
0.000303293
0.000303805
0.000303907
0.000303541
0.000302677
0.000301352
0.000299544
0.000297224
0.000294315
0.000290642
0.000285858
0.000279409
0.000270552
0.000258464
0.000239072
0.000203461
0.000165741
4.70779e-05
1.72747e-06
1.79375e-06
4.77115e-05
0.000152238
0.00020361
0.000232304
0.000251199
0.000264703
0.000274361
0.000281389
0.000286678
0.000290829
0.000294205
0.000296988
0.00029923
0.000300992
0.000302309
0.000303205
0.00030369
0.000303762
0.000303374
0.000302497
0.00030117
0.000299371
0.00029707
0.000294192
0.000290558
0.000285814
0.00027939
0.000270533
0.000258429
0.000238852
0.000202643
0.000164929
4.67744e-05
1.71803e-06
1.7865e-06
4.74855e-05
0.000151585
0.00020362
0.000232626
0.000251543
0.000265014
0.00027462
0.000281597
0.000286847
0.000290971
0.000294331
0.000297093
0.000299337
0.000301104
0.000302428
0.000303336
0.000303838
0.000303941
0.000303591
0.000302762
0.000301496
0.000299778
0.000297582
0.000294839
0.000291372
0.000286825
0.000280611
0.000271979
0.000260073
0.000240623
0.000204392
0.000166925
4.79385e-05
1.77695e-06
1.78781e-06
4.74999e-05
0.000151196
0.000203763
0.000233073
0.000251975
0.000265365
0.000274879
0.000281772
0.000286953
0.00029102
0.00029433
0.000297076
0.000299302
0.000301045
0.000302342
0.000303219
0.000303689
0.000303758
0.000303382
0.000302542
0.000301283
0.000299589
0.000297434
0.000294747
0.000291346
0.000286865
0.000280717
0.000272162
0.000260285
0.000240645
0.000203807
0.000166426
4.7951e-05
1.79221e-06
1.7869e-06
4.72902e-05
0.000151107
0.000204137
0.000233551
0.000252403
0.000265729
0.000275173
0.000282007
0.000287141
0.000291174
0.000294462
0.000297197
0.000299417
0.00030116
0.00030246
0.000303344
0.000303831
0.000303928
0.000303593
0.000302808
0.000301627
0.000300038
0.000298024
0.000295517
0.000292338
0.000288113
0.000282271
0.000274006
0.000262348
0.000242849
0.000206025
0.000168928
4.98315e-05
1.86856e-06
1.77677e-06
4.70287e-05
0.000150344
0.000204127
0.000233935
0.000252802
0.00026607
0.000275436
0.000282195
0.000287265
0.000291248
0.000294496
0.000297195
0.00029939
0.000301115
0.000302395
0.000303261
0.000303731
0.000303813
0.000303467
0.000302678
0.000301503
0.000299935
0.000297959
0.000295507
0.000292397
0.000288261
0.000282541
0.000274399
0.00026283
0.000243253
0.000205963
0.000169044
5.08357e-05
1.91057e-06
1.76983e-06
4.67621e-05
0.000150289
0.000204577
0.000234452
0.000253255
0.000266453
0.00027575
0.000282449
0.000287473
0.00029142
0.000294639
0.000297309
0.000299505
0.000301232
0.000302516
0.000303392
0.000303882
0.000303997
0.000303695
0.000302965
0.000301865
0.000300396
0.000298547
0.000296255
0.000293337
0.000289454
0.000284021
0.000276162
0.000264807
0.000245348
0.000208031
0.000171238
5.17595e-05
1.94585e-06
1.77858e-06
4.69269e-05
0.000150432
0.000205037
0.000235006
0.000253739
0.000266843
0.000276046
0.000282663
0.000287621
0.000291518
0.000294699
0.000297338
0.000299507
0.000301201
0.000302456
0.000303307
0.000303775
0.00030387
0.000303556
0.000302826
0.000301741
0.000300307
0.000298514
0.000296299
0.000293477
0.000289721
0.000284426
0.000276696
0.000265431
0.000245888
0.000208095
0.000171397
5.17119e-05
1.95107e-06
1.78467e-06
4.70843e-05
0.000150361
0.000205374
0.000235527
0.000254224
0.000267256
0.000276384
0.000282937
0.000287847
0.000291711
0.000294869
0.000297495
0.000299645
0.000301333
0.000302591
0.000303453
0.000303942
0.000304073
0.000303807
0.000303142
0.000302142
0.000300821
0.00029918
0.000297162
0.000294608
0.000291177
0.000286234
0.000278846
0.000267856
0.000248555
0.000210976
0.000174389
5.31327e-05
2.02469e-06
1.78976e-06
4.71797e-05
0.000150414
0.000205852
0.000236122
0.000254737
0.000267665
0.000276692
0.000283159
0.000288
0.00029181
0.000294925
0.000297512
0.000299638
0.000301303
0.000302543
0.000303393
0.000303875
0.000304
0.000303731
0.000303069
0.000302081
0.000300786
0.000299187
0.000297227
0.000294778
0.000291477
0.000286687
0.000279453
0.000268585
0.000249287
0.000211599
0.000176455
5.5187e-05
2.09374e-06
1.79831e-06
4.73907e-05
0.000150393
0.000206249
0.000236669
0.000255228
0.000268078
0.000277029
0.000283432
0.000288225
0.000292001
0.000295092
0.000297662
0.000299775
0.000301436
0.000302677
0.000303536
0.000304038
0.000304196
0.000303976
0.000303376
0.000302473
0.00030129
0.000299834
0.000298067
0.000295855
0.000292821
0.000288273
0.000281119
0.000269837
0.000248454
0.000200723
0.000135353
4.92159e-05
1.96395e-06
1.81564e-06
4.78174e-05
0.000150587
0.000206828
0.000237317
0.000255767
0.000268498
0.000277341
0.000283657
0.000288382
0.000292105
0.000295156
0.000297696
0.000299783
0.000301416
0.000302639
0.000303487
0.000303982
0.000304137
0.000303916
0.000303327
0.000302448
0.000301312
0.000299928
0.000298278
0.000296199
0.000293321
0.000288941
0.000281941
0.000270757
0.000249255
0.000200646
0.000134074
4.85557e-05
1.96441e-06
1.80649e-06
4.74964e-05
0.00015004
0.000206968
0.000237776
0.00025622
0.000268893
0.000277669
0.000283925
0.000288604
0.000292295
0.000295324
0.000297852
0.000299925
0.000301562
0.000302794
0.00030366
0.000304183
0.000304384
0.000304227
0.00030372
0.000302939
0.000301927
0.000300713
0.000299256
0.000297425
0.000294865
0.000290861
0.000284232
0.000273307
0.000251967
0.000203441
0.000136693
5.0578e-05
2.05529e-06
1.81392e-06
4.76872e-05
0.000150849
0.000208024
0.000238627
0.000256847
0.000269347
0.000277991
0.00028415
0.000288757
0.000292394
0.000295382
0.000297874
0.000299927
0.00030154
0.000302755
0.000303608
0.000304121
0.00030431
0.000304147
0.000303643
0.000302883
0.000301915
0.000300766
0.000299408
0.000297729
0.000295363
0.000291587
0.000285196
0.000274478
0.000253232
0.000204404
0.000138055
5.34531e-05
2.16699e-06
1.82922e-06
4.7952e-05
0.000150746
0.000208289
0.000239108
0.000257305
0.000269738
0.000278312
0.000284411
0.000288974
0.000292581
0.000295549
0.000298029
0.000300069
0.000301686
0.000302912
0.000303784
0.000304326
0.00030456
0.000304458
0.000304036
0.000303375
0.000302529
0.000301534
0.000300398
0.000299013
0.00029701
0.000293636
0.00028763
0.000277176
0.000256
0.000206895
0.000139911
5.42558e-05
2.19838e-06
1.81411e-06
4.74457e-05
0.000150601
0.000208778
0.000239655
0.000257751
0.000270084
0.000278568
0.000284594
0.0002891
0.000292664
0.000295599
0.000298053
0.000300073
0.000301665
0.000302878
0.000303743
0.000304284
0.000304518
0.000304423
0.000304015
0.000303382
0.000302586
0.000301672
0.000300655
0.000299423
0.000297628
0.000294495
0.00028872
0.00027844
0.000257279
0.000207783
0.000141037
5.59219e-05
2.28269e-06
1.80627e-06
4.72687e-05
0.000150165
0.000208983
0.00024007
0.000258139
0.000270415
0.000278841
0.000284818
0.000289288
0.000292828
0.00029575
0.000298203
0.000300207
0.0003018
0.000303023
0.000303908
0.000304479
0.000304757
0.000304762
0.000304493
0.000303977
0.000303318
0.000302579
0.000301776
0.00030084
0.000299421
0.000296705
0.000291324
0.00028131
0.000260264
0.000210609
0.000143371
5.77339e-05
2.34906e-06
1.81028e-06
4.74007e-05
0.000150104
0.000209323
0.000240563
0.000258564
0.000270744
0.000279079
0.000284982
0.000289396
0.000292897
0.000295794
0.000298218
0.000300189
0.000301762
0.000302975
0.000303857
0.000304429
0.000304709
0.000304713
0.000304438
0.000303934
0.000303319
0.000302661
0.000301981
0.000301236
0.000300055
0.000297603
0.000292476
0.000282636
0.000261571
0.000211359
0.000143992
5.84764e-05
2.38425e-06
1.81372e-06
4.7507e-05
0.000150109
0.000209717
0.000241037
0.000258968
0.000271071
0.000279337
0.000285187
0.000289565
0.000293046
0.000295937
0.000298331
0.000300287
0.000301855
0.00030307
0.000303961
0.00030455
0.000304861
0.000304922
0.000304739
0.000304356
0.00030389
0.000303438
0.000303041
0.000302651
0.000301909
0.000299949
0.000295289
0.000285797
0.000265002
0.000214909
0.000146759
5.93715e-05
2.43995e-06
1.81173e-06
4.72922e-05
0.000150261
0.000210218
0.000241557
0.000259383
0.000271377
0.000279547
0.000285322
0.000289646
0.000293092
0.000295949
0.000298305
0.000300235
0.000301784
0.00030299
0.000303874
0.000304459
0.000304764
0.000304818
0.000304635
0.000304277
0.000303873
0.000303524
0.00030329
0.000303128
0.000302654
0.000300982
0.000296588
0.000287246
0.000266347
0.000215653
0.000147652
6.11349e-05
2.53473e-06
1.81829e-06
4.74915e-05
0.000150668
0.000210847
0.000242083
0.000259789
0.000271689
0.000279785
0.000285505
0.000289792
0.000293217
0.000296041
0.000298388
0.000300316
0.000301871
0.000303088
0.000303991
0.000304603
0.000304947
0.000305053
0.00030497
0.000304754
0.000304511
0.000304377
0.000304463
0.000304723
0.000304751
0.000303637
0.000299799
0.000290929
0.000270543
0.000220555
0.000152519
6.56053e-05
2.71872e-06
1.83033e-06
4.7849e-05
0.000150766
0.000211292
0.000242557
0.00026017
0.000271967
0.00027997
0.000285615
0.000289843
0.000293221
0.000296021
0.000298334
0.000300237
0.000301775
0.000302982
0.000303878
0.000304486
0.000304831
0.000304947
0.000304893
0.000304735
0.000304574
0.000304551
0.000304812
0.000305299
0.000305597
0.000304768
0.000301172
0.000292414
0.000271835
0.000221047
0.000153114
6.7224e-05
2.78325e-06
1.82179e-06
4.74421e-05
0.000150257
0.000211387
0.000242856
0.000260471
0.000272228
0.00028018
0.000285779
0.000289976
0.00029334
0.000296105
0.000298401
0.000300298
0.000301835
0.000303042
0.000303939
0.000304548
0.0003049
0.000305038
0.000305033
0.000304992
0.000305052
0.000305348
0.000306003
0.000306953
0.000307778
0.000307506
0.000304439
0.000296048
0.000275655
0.000224844
0.000156057
6.87775e-05
2.85952e-06
1.82607e-06
4.7392e-05
0.000150012
0.000211442
0.000243162
0.000260775
0.000272466
0.000280341
0.000285871
0.000290011
0.000293331
0.000296061
0.000298329
0.000300205
0.000301728
0.000302924
0.000303812
0.000304417
0.000304772
0.000304924
0.000304947
0.000304956
0.000305101
0.000305531
0.000306382
0.00030759
0.000308719
0.000308767
0.000305979
0.000297743
0.000277275
0.000225889
0.000156421
6.8087e-05
2.85854e-06
1.82299e-06
4.71492e-05
0.000149867
0.000211752
0.00024355
0.000261109
0.000272735
0.000280548
0.000286026
0.000290125
0.000293416
0.000296128
0.000298386
0.000300261
0.000301788
0.000302995
0.000303902
0.000304537
0.00030494
0.000305166
0.000305298
0.000305461
0.000305825
0.000306558
0.000307806
0.000309515
0.000311244
0.000311955
0.00030981
0.000302074
0.00028205
0.000231175
0.00016112
7.11652e-05
3.00608e-06
1.84343e-06
4.77169e-05
0.000150459
0.000212301
0.000244047
0.000261499
0.000273013
0.000280726
0.000286124
0.000290161
0.000293405
0.000296079
0.000298308
0.00030016
0.000301671
0.000302864
0.000303763
0.000304397
0.000304809
0.000305055
0.000305222
0.000305442
0.000305891
0.00030676
0.000308214
0.000310189
0.000312221
0.000313235
0.000311329
0.000303674
0.000283408
0.000231729
0.000161554
7.24786e-05
3.06227e-06
1.84985e-06
4.78032e-05
0.00015039
0.000212539
0.000244406
0.000261834
0.000273292
0.000280945
0.000286289
0.000290285
0.000293497
0.000296151
0.000298369
0.000300218
0.000301733
0.000302936
0.000303853
0.000304518
0.000304979
0.000305299
0.000305576
0.000305955
0.000306628
0.000307828
0.00030972
0.000312246
0.000314935
0.00031666
0.000315414
0.000308208
0.000288185
0.000236428
0.00016443
7.23799e-05
3.06155e-06
1.86461e-06
4.81271e-05
0.000150681
0.000212972
0.000244857
0.000262205
0.000273566
0.000281127
0.000286394
0.000290328
0.000293492
0.000296108
0.000298296
0.00030012
0.000301615
0.000302803
0.000303711
0.000304377
0.00030485
0.000305198
0.000305524
0.00030598
0.000306763
0.000308137
0.000310268
0.000313098
0.000316139
0.00031823
0.000317301
0.000310271
0.000290132
0.00023764
0.000165079
7.19202e-05
3.07474e-06
1.87521e-06
4.8338e-05
0.000150774
0.000213294
0.000245268
0.00026258
0.000273877
0.000281372
0.000286584
0.000290476
0.00029361
0.000296208
0.000298389
0.000300214
0.000301717
0.00030292
0.000303854
0.000304558
0.000305085
0.000305513
0.000305954
0.000306577
0.000307604
0.000309315
0.000311894
0.000315287
0.000318994
0.000321808
0.000321565
0.000315058
0.000295339
0.00024308
0.000170131
7.54324e-05
3.24196e-06
1.89598e-06
4.88492e-05
0.00015132
0.000213881
0.000245814
0.000263018
0.000274201
0.000281594
0.00028672
0.00029054
0.00029361
0.000296168
0.000298332
0.000300143
0.000301631
0.000302822
0.000303749
0.000304454
0.000304995
0.000305451
0.000305946
0.000306653
0.000307815
0.000309731
0.000312583
0.000316317
0.00032041
0.000323618
0.000323705
0.000317365
0.000297528
0.000244714
0.000171687
7.74713e-05
3.37165e-06
1.91099e-06
4.91865e-05
0.00015167
0.000214381
0.000246327
0.000263459
0.000274559
0.000281875
0.000286937
0.000290703
0.00029372
0.000296267
0.000298435
0.000300256
0.000301755
0.000302959
0.000303904
0.000304635
0.000305216
0.000305739
0.000306343
0.000307224
0.000308673
0.000310993
0.000314384
0.000318796
0.000323695
0.000327781
0.000328703
0.000322995
0.00030364
0.000251102
0.000177551
8.23723e-05
3.56338e-06
1.93547e-06
4.97818e-05
0.00015231
0.000214967
0.000246885
0.000263922
0.000274912
0.000282129
0.000287109
0.000290809
0.000293773
0.000296272
0.000298419
0.000300221
0.000301704
0.000302896
0.000303835
0.000304569
0.000305164
0.000305715
0.00030637
0.000307333
0.000308916
0.000311424
0.000315065
0.000319788
0.000325041
0.000329497
0.000330755
0.000325291
0.000306051
0.000253627
0.00018181
8.96499e-05
3.89679e-06
1.9517e-06
5.01882e-05
0.000152317
0.000215287
0.000247308
0.00026432
0.000275259
0.000282419
0.00028735
0.000291011
0.000293946
0.000296425
0.000298564
0.00030037
0.000301865
0.000303078
0.000304048
0.000304824
0.000305479
0.00030612
0.000306908
0.000308068
0.000309934
0.000312833
0.00031699
0.000322363
0.000328389
0.000333682
0.00033578
0.000330983
0.000312128
0.000259647
0.000186742
9.25288e-05
4.04812e-06
1.94633e-06
5.00462e-05
0.000152377
0.000215915
0.00024797
0.000264852
0.000275658
0.000282706
0.00028755
0.000291144
0.000294029
0.000296471
0.000298583
0.000300364
0.000301842
0.000303045
0.000304014
0.000304797
0.00030547
0.000306143
0.000306985
0.000308231
0.00031022
0.000313287
0.00031766
0.000323288
0.000329575
0.000335097
0.000337342
0.000332561
0.000313517
0.000260875
0.000188354
9.51655e-05
4.19389e-06
1.95709e-06
5.0215e-05
0.000153062
0.000216685
0.00024867
0.000265428
0.000276115
0.000283065
0.000287836
0.00029138
0.000294233
0.000296656
0.000298752
0.000300532
0.000302016