/*--------------------------------*- C++ -*----------------------------------*\
  =========                 |
  \\      /  F ield         | OpenFOAM: The Open Source CFD Toolbox
   \\    /   O peration     | Website:  https://openfoam.org
    \\  /    A nd           | Version:  13
     \\/     M anipulation  |
\*---------------------------------------------------------------------------*/
FoamFile
{
    format      ascii;
    class       volScalarField;
    location    "1";
    object      omega;
}
// * * * * * * * * * * * * * * * * * * * * * * * * * * * * * * * * * * * * * //

dimensions      [0 0 -1 0 0 0 0];

internalField   nonuniform List<scalar> 
78750
(
678.67
75.4078
15.1502
15.1502
15.1502
15.1502
15.1502
15.1502
15.1502
15.1502
15.1502
15.1502
15.1502
15.1502
15.1502
15.1502
15.1502
15.1502
15.1502
15.1502
15.1502
15.1502
15.1502
15.1502
15.1502
15.1502
15.1502
15.1502
15.1502
15.1502
15.1502
15.1502
15.1502
75.4078
678.67
678.67
75.4078
2.66272
2.66272
2.66272
3.35033
3.58634
3.7585
3.88649
3.98234
4.05381
4.10718
4.14734
4.17787
4.2013
4.21897
4.23274
4.24391
4.25338
4.2611
4.26729
4.27148
4.27356
4.27047
4.2605
4.2439
4.21706
4.17453
4.10817
4.0081
3.86186
3.6556
3.28092
75.4078
678.67
678.67
75.4078
2.66272
3.34412
3.66043
3.89241
4.05837
4.17705
4.262
4.3231
4.36744
4.39995
4.42397
4.44173
4.45473
4.46404
4.47044
4.47446
4.47646
4.47662
4.47368
4.46695
4.4574
4.44419
4.42615
4.40136
4.36663
4.31712
4.24582
4.1434
3.99809
3.79631
3.41862
75.4078
678.67
678.67
75.4078
2.66272
3.45994
3.76257
3.97692
4.12884
4.2364
4.3128
4.36766
4.40775
4.43758
4.46003
4.47687
4.48927
4.49805
4.50379
4.50693
4.50773
4.50541
4.49952
4.49078
4.47876
4.46282
4.44198
4.41452
4.37748
4.3262
4.2538
4.15103
4.00609
3.80497
3.42246
75.4078
678.67
678.67
75.4078
2.66272
3.48511
3.78368
3.99419
4.14281
4.24767
4.32196
4.37526
4.41425
4.44336
4.46533
4.48189
4.49412
4.50277
4.5084
4.5114
4.512
4.50952
4.50358
4.49469
4.48241
4.46616
4.44497
4.41715
4.37979
4.32825
4.25571
4.15286
4.00772
3.80568
3.41779
75.4078
678.67
678.67
75.4078
2.66272
3.49591
3.79303
4.00199
4.14909
4.25261
4.32577
4.37816
4.41643
4.44497
4.46649
4.48269
4.49462
4.50301
4.50835
4.51103
4.51124
4.50841
4.5022
4.49298
4.48031
4.46357
4.4418
4.41329
4.37516
4.32278
4.24933
4.14551
3.99923
3.79472
3.40066
75.4078
678.67
678.67
75.4078
2.66272
3.50735
3.80076
4.00785
4.15361
4.25607
4.32839
4.38013
4.41794
4.44616
4.46748
4.48355
4.49538
4.50373
4.5091
4.51184
4.51213
4.50944
4.50343
4.4944
4.48192
4.46534
4.4437
4.41529
4.37723
4.32489
4.25145
4.14763
4.00133
3.79513
3.39488
75.4078
678.67
678.67
75.4078
2.66272
3.52244
3.81084
4.01504
4.15869
4.25955
4.33067
4.38154
4.41873
4.44652
4.46756
4.48342
4.49508
4.50325
4.50845
4.511
4.51108
4.50817
4.50194
4.49265
4.47982
4.46281
4.44065
4.41162
4.37284
4.31967
4.24529
4.14041
3.99296
3.78344
3.37477
75.4078
678.67
678.67
75.4078
2.66272
3.53992
3.82295
4.02353
4.1646
4.26362
4.33346
4.38348
4.42014
4.44765
4.46858
4.4844
4.49609
4.50432
4.5096
4.51227
4.51248
4.50975
4.50373
4.49464
4.48203
4.46524
4.44328
4.41445
4.37586
4.3229
4.24877
4.14422
3.99726
3.78598
3.37015
75.4078
678.67
678.67
75.4078
2.66272
3.56197
3.83829
4.03393
4.17146
4.26801
4.33617
4.38507
4.421
4.44804
4.46869
4.48432
4.49585
4.50392
4.50904
4.51153
4.51153
4.50859
4.50233
4.49296
4.48
4.46278
4.44032
4.41092
4.37168
4.318
4.24312
4.13783
3.99032
3.77632
3.35209
75.4078
678.67
678.67
75.4078
3.13113
3.57982
3.85117
4.04294
4.17763
4.27218
4.33899
4.38702
4.42243
4.44918
4.46972
4.48533
4.49689
4.50504
4.51027
4.51289
4.51306
4.5103
4.50426
4.49513
4.48241
4.46545
4.44325
4.41411
4.37512
4.32167
4.24698
4.1418
3.99405
3.77348
3.33085
75.4078
678.67
678.67
75.4078
3.14683
3.59628
3.86324
4.05149
4.18345
4.276
4.34139
4.38844
4.42319
4.44952
4.46979
4.48521
4.49662
4.50466
4.5098
4.51244
4.5124
4.50923
4.50291
4.49347
4.48039
4.46301
4.44032
4.41062
4.37103
4.31693
4.24157
4.13571
3.98728
3.75698
3.28462
75.4078
678.67
678.67
75.4078
3.15966
3.60992
3.87359
4.05902
4.18877
4.2797
4.34396
4.39027
4.42457
4.45063
4.47076
4.48617
4.49766
4.50578
4.51098
4.51359
4.51374
4.51096
4.5049
4.49571
4.48288
4.46575
4.44331
4.41387
4.37451
4.32063
4.24546
4.13976
3.99131
3.75168
3.24668
75.4078
678.67
678.67
75.4078
3.17391
3.62347
3.88389
4.06645
4.19392
4.28312
4.34613
4.39157
4.42528
4.45095
4.47082
4.48609
4.49744
4.50547
4.51064
4.51331
4.51322
4.50998
4.50362
4.4941
4.48088
4.46329
4.44033
4.41028
4.37024
4.31558
4.23952
4.13279
3.98319
3.73435
3.19779
75.4078
678.67
678.67
75.4078
3.18479
3.63476
3.8928
4.0731
4.19872
4.28653
4.34855
4.39334
4.42664
4.4521
4.47187
4.4871
4.49849
4.50658
4.51179
4.51442
4.51455
4.51176
4.50568
4.49642
4.48346
4.46615
4.44348
4.41374
4.37403
4.31974
4.2441
4.13789
3.98882
3.73425
3.1718
75.4078
678.67
678.67
75.4078
3.19778
3.64673
3.90208
4.0799
4.20347
4.28971
4.3506
4.39458
4.42733
4.4524
4.4719
4.487
4.49829
4.50629
4.51144
4.51407
4.51398
4.51079
4.50445
4.49488
4.48156
4.46384
4.44071
4.41045
4.37018
4.31528
4.23903
4.13225
3.98287
3.72313
3.13924
75.4078
678.67
678.67
75.4078
3.20794
3.65689
3.91023
4.08607
4.208
4.29298
4.35297
4.39636
4.42874
4.4536
4.473
4.48809
4.49945
4.50754
4.51276
4.51541
4.51555
4.51276
4.50668
4.49739
4.48436
4.46696
4.44419
4.41433
4.37452
4.32015
4.24454
4.13851
3.98999
3.72723
3.12541
75.4078
678.67
678.67
75.4078
3.21925
3.66754
3.91867
4.09233
4.21244
4.29602
4.35497
4.39763
4.4295
4.45402
4.47317
4.48811
4.49935
4.50736
4.51253
4.51519
4.51512
4.51196
4.50563
4.49605
4.48269
4.46491
4.44171
4.41141
4.3711
4.3162
4.24
4.1333
3.9841
3.71643
2.66272
75.4078
678.67
678.67
75.4078
3.22876
3.67679
3.92614
4.09804
4.21668
4.29914
4.3573
4.39943
4.43097
4.45531
4.47438
4.48927
4.50059
4.50872
4.51399
4.51668
4.51686
4.51411
4.50806
4.49876
4.48571
4.46829
4.44551
4.41569
4.37597
4.32176
4.24637
4.1406
3.99233
3.72276
2.66272
75.4078
678.67
678.67
75.4078
3.23997
3.68688
3.93408
4.10395
4.2209
4.30205
4.35925
4.4007
4.43178
4.4558
4.47466
4.48941
4.50064
4.50866
4.51387
4.51656
4.51653
4.5134
4.5071
4.49753
4.48418
4.46641
4.44326
4.41307
4.37294
4.31831
4.24246
4.13619
3.98744
3.71431
2.66272
75.4078
678.67
678.67
75.4078
3.24927
3.69567
3.94117
4.10937
4.22495
4.30505
4.36151
4.40247
4.43325
4.45711
4.47591
4.49066
4.50192
4.51004
4.51534
4.51806
4.51827
4.51554
4.50953
4.50026
4.48723
4.46984
4.44716
4.41752
4.3781
4.3243
4.24945
4.1443
3.99667
3.7228
2.66272
75.4078
678.67
678.67
75.4078
3.25978
3.70507
3.94858
4.11489
4.22889
4.30777
4.36334
4.40366
4.43402
4.45759
4.4762
4.49083
4.502
4.51001
4.51524
4.51795
4.51796
4.51487
4.5086
4.49906
4.48576
4.46807
4.44509
4.41518
4.3755
4.32148
4.24643
4.14117
3.99171
3.71078
2.66272
75.4078
678.67
678.67
75.4078
3.26817
3.71314
3.95514
4.11994
4.23268
4.3106
4.36549
4.40537
4.43545
4.4589
4.47749
4.49216
4.50333
4.51139
4.5167
4.51945
4.51969
4.517
4.51104
4.5018
4.48883
4.47156
4.44909
4.41982
4.38096
4.32798
4.25423
4.15057
4.00155
3.71754
2.66272
75.4078
678.67
678.67
75.4078
3.27801
3.72197
3.9621
4.12512
4.23638
4.31316
4.3672
4.40649
4.43616
4.45933
4.47772
4.49226
4.50334
4.51133
4.51656
4.5192
4.51928
4.51641
4.51023
4.50074
4.48749
4.46994
4.44724
4.41782
4.37899
4.32643
4.25405
4.15434
4.01491
3.77185
3.33619
75.4078
678.67
678.67
75.4078
3.28632
3.72979
3.96838
4.12994
4.23999
4.31586
4.36927
4.40813
4.43754
4.46056
4.47888
4.49339
4.50457
4.51272
4.51811
4.52094
4.52124
4.51863
4.51273
4.50355
4.49066
4.47355
4.45137
4.4226
4.38447
4.33252
4.26016
4.15835
4.00866
3.71688
2.66272
75.4078
678.67
678.67
75.4078
3.29547
3.7378
3.97475
4.13472
4.24344
4.31827
4.37089
4.4092
4.43823
4.46099
4.47913
4.49352
4.50463
4.51265
4.51792
4.52062
4.52075
4.51794
4.51184
4.50244
4.48931
4.47196
4.44957
4.42066
4.38256
4.331
4.25996
4.16201
4.02198
3.77161
3.33027
75.4078
678.67
678.67
75.4078
3.30282
3.74485
3.98047
4.13915
4.24679
4.32079
4.37284
4.41078
4.43959
4.46225
4.48036
4.49478
4.50593
4.51409
4.51952
4.5224
4.52275
4.5202
4.5144
4.50532
4.49258
4.47571
4.45392
4.42576
4.38861
4.33823
4.26863
4.17235
4.03318
3.7822
3.34785
75.4078
678.67
678.67
75.4078
3.3119
3.75286
3.98674
4.14379
4.2501
4.32307
4.37437
4.41177
4.44024
4.46266
4.48064
4.49495
4.50602
4.51405
4.51936
4.52212
4.52231
4.51956
4.51355
4.50424
4.49127
4.47417
4.4522
4.42393
4.38674
4.33641
4.26694
4.1709
4.02997
3.77309
3.34599
75.4078
678.67
678.67
75.4078
3.31519
3.75899
3.99261
4.14819
4.25337
4.32552
4.37625
4.41329
4.44156
4.46391
4.4819
4.49625
4.50733
4.51545
4.5209
4.52383
4.52425
4.52176
4.51604
4.50707
4.4945
4.47791
4.45658
4.42912
4.39297
4.34391
4.27589
4.18126
4.0404
3.77955
3.34418
75.4078
678.67
678.67
75.4078
3.32028
3.76596
3.99887
4.1527
4.25651
4.32763
4.37762
4.41416
4.44209
4.46424
4.48209
4.49633
4.50726
4.51526
4.52061
4.52343
4.52368
4.52099
4.51506
4.50586
4.49306
4.47626
4.45478
4.42724
4.39109
4.3421
4.27417
4.17957
4.03653
3.76794
3.33129
75.4078
678.67
678.67
75.4078
3.32316
3.77166
4.00442
4.15688
4.25962
4.32995
4.37939
4.41558
4.44332
4.46541
4.48326
4.49746
4.50843
4.51655
4.52205
4.52505
4.52554
4.52311
4.51747
4.5086
4.4962
4.47992
4.4591
4.43244
4.39739
4.34974
4.28334
4.19033
4.04812
3.77837
3.34275
75.4078
678.67
678.67
75.4078
3.32779
3.77803
4.01018
4.16104
4.26253
4.33188
4.38061
4.41631
4.44371
4.46558
4.4833
4.49736
4.50824
4.51626
4.52167
4.52455
4.52486
4.52223
4.51638
4.5073
4.49472
4.47828
4.45738
4.43073
4.39579
4.34829
4.28197
4.1888
4.04445
3.76767
3.33234
75.4078
678.67
678.67
75.4078
3.33078
3.78342
4.0154
4.16501
4.26549
4.33409
4.38228
4.41762
4.44481
4.46657
4.48423
4.49836
4.50934
4.51749
4.52305
4.52614
4.52671
4.52437
4.51884
4.51012
4.49799
4.48214
4.46202
4.43637
4.40269
4.35668
4.29195
4.20032
4.05703
3.77997
3.34678
75.4078
678.67
678.67
75.4078
3.33563
3.7896
4.02094
4.16907
4.26833
4.33599
4.38349
4.41832
4.44516
4.46669
4.48425
4.49825
4.50913
4.51719
4.52267
4.52566
4.52609
4.52359
4.51789
4.50902
4.49674
4.4808
4.46071
4.43524
4.40193
4.35645
4.29232
4.20131
4.05674
3.77347
3.34122
75.4078
678.67
678.67
75.4078
3.33836
3.79465
4.02592
4.17293
4.27126
4.3382
4.38517
4.41968
4.44634
4.46779
4.48528
4.49932
4.51028
4.51847
4.52412
4.52732
4.52801
4.52581
4.52045
4.51198
4.50022
4.48499
4.46583
4.4416
4.40983
4.36604
4.30316
4.21074
4.05519
3.7117
2.66272
75.4078
678.67
678.67
75.4078
3.3433
3.80052
4.03119
4.17684
4.27402
4.34004
4.38634
4.42036
4.44669
4.46792
4.48528
4.49916
4.51
4.51808
4.52361
4.52666
4.52714
4.5247
4.51915
4.51052
4.49867
4.4834
4.4643
4.44021
4.40862
4.36495
4.3019
4.20873
4.04984
3.69461
2.66272
75.4078
678.67
678.67
75.4078
3.34417
3.80527
4.03614
4.18065
4.27691
4.34222
4.38802
4.42171
4.44785
4.46899
4.48625
4.50017
4.51108
4.51925
4.52489
4.52808
4.52876
4.52657
4.52136
4.5132
4.50196
4.48749
4.46939
4.44655
4.41644
4.37439
4.31293
4.22123
4.0637
3.70939
2.66272
75.4078
678.67
678.67
75.4078
3.34746
3.80946
4.04102
4.18445
4.27965
4.34408
4.38919
4.42238
4.44816
4.46905
4.48619
4.49994
4.51068
4.51868
4.52411
4.52704
4.52741
4.52497
4.51963
4.51143
4.50023
4.48586
4.46794
4.44539
4.41567
4.37403
4.31279
4.22119
4.06174
3.70089
2.66272
75.4078
678.67
678.67
75.4078
3.34026
3.81081
4.04495
4.18796
4.28249
4.34628
4.3909
4.42375
4.44932
4.4701
4.48713
4.50091
4.51169
4.51974
4.52525
4.52831
4.52893
4.52685
4.52189
4.51417
4.50356
4.49
4.47315
4.45199
4.42403
4.38449
4.32582
4.23674
4.07964
3.72032
2.66272
75.4078
678.67
678.67
75.4078
3.34177
3.81617
4.05045
4.19207
4.28541
4.34825
4.39215
4.42447
4.44965
4.47011
4.487
4.5006
4.51118
4.51899
4.52421
4.52696
4.52725
4.52487
4.51978
4.51207
4.50163
4.48835
4.4719
4.45126
4.42392
4.38505
4.32715
4.23857
4.08009
3.7141
2.66272
75.4078
678.67
678.67
75.4078
3.33948
3.81797
4.0546
4.19583
4.28845
4.35062
4.39399
4.42594
4.45087
4.47119
4.48801
4.50161
4.5122
4.52001
4.52527
4.52815
4.52868
4.52664
4.52197
4.51486
4.50525
4.49307
4.47807
4.45929
4.43426
4.39812
4.34316
4.25731
4.1013
3.73717
2.66272
75.4078
678.67
678.67
75.4078
3.33291
3.82053
4.05925
4.19965
4.29131
4.35263
4.39533
4.42678
4.45134
4.47137
4.48799
4.50139
4.51177
4.51937
4.52444
4.52718
4.52756
4.52538
4.52063
4.51349
4.50397
4.49202
4.47741
4.45919
4.43489
4.39973
4.34605
4.26132
4.10494
3.73584
2.66272
75.4078
678.67
678.67
75.4078
3.33327
3.82438
4.0639
4.20359
4.29448
4.35512
4.39731
4.4284
4.45273
4.47259
4.48906
4.50241
4.51279
4.5204
4.52553
4.52841
4.52907
4.52728
4.52301
4.51646
4.50769
4.49674
4.48342
4.46681
4.44449
4.41196
4.36132
4.27967
4.12663
3.76164
2.66272
75.4078
678.67
678.67
75.4078
3.33472
3.8288
4.06896
4.20765
4.2975
4.35727
4.39878
4.42937
4.45334
4.47292
4.48914
4.50229
4.51239
4.51974
4.52465
4.52734
4.5278
4.52585
4.5215
4.51501
4.50647
4.4959
4.48312
4.46727
4.44592
4.41463
4.36532
4.28477
4.13133
3.76113
2.66272
75.4078
678.67
678.67
75.4078
3.33419
3.83295
4.07414
4.2119
4.30084
4.35987
4.40084
4.43106
4.4548
4.47425
4.49041
4.50343
4.51347
4.52082
4.52582
4.52867
4.52941
4.52786
4.52403
4.51818
4.51048
4.50105
4.48985
4.4761
4.45747
4.42934
4.38342
4.30609
4.15616
3.79083
2.66272
75.4078
678.67
678.67
75.4078
3.33481
3.83781
4.07955
4.21613
4.30396
4.36207
4.40234
4.43205
4.4554
4.47455
4.49047
4.50323
4.51305
4.52024
4.52513
4.52792
4.52861
4.52699
4.52312
4.51727
4.50971
4.5006
4.48988
4.47679
4.4591
4.43232
4.38798
4.31209
4.16232
3.79336
2.66272
75.4078
678.67
678.67
75.4078
3.33408
3.84202
4.08469
4.22032
4.30725
4.36464
4.40439
4.43374
4.45685
4.47584
4.49164
4.50433
4.5141
4.5213
4.52624
4.52916
4.53014
4.52893
4.52553
4.52034
4.51366
4.5057
4.49647
4.48522
4.47007
4.44643
4.40565
4.33311
4.1865
3.82093
3.12366
75.4078
678.67
678.67
75.4078
3.33613
3.8476
4.0903
4.2246
4.31036
4.36682
4.40588
4.43472
4.45747
4.47617
4.49173
4.50417
4.51372
4.52075
4.5256
4.52848
4.52938
4.5281
4.5247
4.51961
4.5132
4.50573
4.49726
4.48709
4.4733
4.45116
4.41196
4.34101
4.19505
3.82657
3.13196
75.4078
678.67
678.67
75.4078
3.33527
3.85192
4.09536
4.22869
4.31357
4.36933
4.40788
4.43639
4.45891
4.47747
4.49292
4.50532
4.51489
4.52199
4.52695
4.53001
4.53129
4.53059
4.52787
4.52349
4.51795
4.51164
4.50466
4.4964
4.48514
4.46656
4.43138
4.36372
4.22062
3.85497
3.15989
75.4078
678.67
678.67
75.4078
3.34216
3.86008
4.10169
4.23315
4.31668
4.37147
4.40932
4.43733
4.45949
4.47777
4.49297
4.50513
4.5145
4.52146
4.52631
4.52927
4.53043
4.52958
4.52676
4.52247
4.51721
4.51138
4.50511
4.49785
4.48809
4.47145
4.4385
4.37319
4.23178
3.86532
3.18007
75.4078
678.67
678.67
75.4078
3.3489
3.86606
4.10691
4.23724
4.31984
4.37392
4.41128
4.43897
4.46092
4.47908
4.49416
4.50628
4.51567
4.52271
4.5277
4.53088
4.53236
4.53204
4.52992
4.52638
4.52203
4.51735
4.51254
4.5075
4.50083
4.48783
4.45899
4.3976
4.25931
3.89627
3.20871
75.4078
678.67
678.67
75.4078
3.34426
3.86846
4.1112
4.2407
4.3224
4.37572
4.4125
4.43977
4.46142
4.47936
4.49422
4.50608
4.51529
4.52222
4.52715
4.53031
4.53178
4.53144
4.52932
4.52588
4.5218
4.51764
4.51356
4.50966
4.50472
4.49396
4.46731
4.40802
4.27067
3.90496
3.22325
75.4078
678.67
678.67
75.4078
3.33927
3.87147
4.11535
4.2441
4.32508
4.37784
4.41421
4.44121
4.46269
4.48052
4.49524
4.5071
4.51636
4.52338
4.52846
4.53185
4.53369
4.53408
4.53306
4.5307
4.52753
4.52437
4.52184
4.52027
4.51851
4.51156
4.48903
4.43339
4.29952
3.9381
3.25409
75.4078
678.67
678.67
75.4078
3.34185
3.87684
4.12018
4.24766
4.32757
4.3795
4.41529
4.44188
4.46308
4.48064
4.49515
4.50677
4.51588
4.52282
4.52789
4.53129
4.53315
4.5335
4.53224
4.52973
4.52684
4.52418
4.52248
4.52229
4.52235
4.51772
4.49791
4.4442
4.31123
3.94679
3.26619
75.4078
678.67
678.67
75.4078
3.34189
3.8809
4.12447
4.25105
4.33016
4.38149
4.41685
4.44317
4.46424
4.48168
4.49603
4.50757
4.51666
4.52362
4.52874
4.53222
4.53426
4.535
4.53456
4.53308
4.53111
4.52972
4.53007
4.53281
4.53657
4.53624
4.52089
4.47113
4.34192
3.98199
3.29947
75.4078
678.67
678.67
75.4078
3.34452
3.88589
4.12896
4.25432
4.33241
4.38294
4.41771
4.44362
4.46439
4.48162
4.4957
4.50704
4.51599
4.52287
4.52793
4.53138
4.53335
4.53396
4.53333
4.53185
4.53029
4.52972
4.53124
4.53565
4.54154
4.54378
4.53115
4.48372
4.35569
3.99435
3.31789
75.4078
678.67
678.67
75.4078
3.34527
3.8899
4.13303
4.2575
4.33481
4.38474
4.4191
4.44475
4.46543
4.48245
4.49645
4.50777
4.51676
4.52373
4.52894
4.53259
4.53486
4.53592
4.53597
4.53537
4.53494
4.53601
4.53992
4.54749
4.55739
4.56435
4.5568
4.51442
4.39257
4.04125
3.37048
75.4078
678.67
678.67
75.4078
3.34854
3.89489
4.13737
4.26064
4.33694
4.38608
4.41986
4.44509
4.46544
4.48219
4.49595
4.5071
4.51596
4.52283
4.52796
4.53155
4.53379
4.53487
4.53502
4.53471
4.53479
4.53669
4.5418
4.55104
4.56311
4.57261
4.56761
4.52736
4.4063
4.05201
3.38555
75.4078
678.67
678.67
75.4078
3.34813
3.89817
4.14107
4.26364
4.33925
4.38783
4.4212
4.44614
4.46628
4.4829
4.49659
4.50771
4.51658
4.52347
4.5286
4.53216
4.53438
4.53554
4.53604
4.53664
4.5384
4.54265
4.55069
4.5635
4.57977
4.59393
4.59399
4.55866
4.44081
4.09128
3.42221
75.4078
678.67
678.67
75.4078
3.35203
3.90305
4.14524
4.26665
4.34126
4.38906
4.42185
4.44637
4.46619
4.48254
4.49601
4.50696
4.51571
4.5225
4.52753
4.531
4.53321
4.53444
4.53505
4.53586
4.53809
4.54323
4.55265
4.56737
4.58605
4.60294
4.60565
4.57222
4.45443
4.09988
3.42643
75.4078
678.67
678.67
75.4078
3.35207
3.90628
4.14889
4.26964
4.34355
4.39077
4.42314
4.44736
4.46697
4.48319
4.4966
4.50756
4.51635
4.52322
4.52835
4.53203
4.53459
4.53635
4.53775
4.53968
4.54346
4.55073
4.56305
4.58158
4.60503
4.62751
4.63622
4.60835
4.49665
4.1532
3.486
75.4078
678.67
678.67
75.4078
3.35732
3.91156
4.15322
4.27272
4.34559
4.39201
4.42378
4.44756
4.46684
4.48279
4.49596
4.50674
4.51539
4.52212
4.52713
4.53077
4.53335
4.53522
4.53681
4.53903
4.54331
4.55142
4.56515
4.58567
4.61152
4.63658
4.64765
4.62118
4.50864
4.15935
3.49092
75.4078
678.67
678.67
75.4078
3.35898
3.91535
4.15712
4.27586
4.34798
4.3938
4.42512
4.4486
4.46766
4.48347
4.49658
4.50735
4.51604
4.52284
4.52798
4.53182
4.53475
4.53714
4.53953
4.5429
4.5488
4.55917
4.57608
4.60077
4.63185
4.66298
4.68036
4.65933
4.55166
4.20842
3.52869
75.4078
678.67
678.67
75.4078
3.36336
3.9202
4.16133
4.27896
4.35008
4.39509
4.42581
4.44883
4.46756
4.48309
4.49597
4.50653
4.51503
4.52165
4.52667
4.53048
4.53345
4.53598
4.53866
4.54249
4.54911
4.56054
4.57912
4.60605
4.63981
4.67392
4.69426
4.67545
4.56835
4.22168
3.54415
75.4078
678.67
678.67
75.4078
3.36589
3.92436
4.16547
4.2823
4.35264
4.39703
4.4273
4.45001
4.46854
4.48397
4.49681
4.5074
4.51597
4.52271
4.52793
4.53202
4.53537
4.53846
4.54195
4.54691
4.55517
4.56904
4.5909
4.62205
4.66102
4.70107
4.72752
4.71403
4.61199
4.2718
3.59932
75.4078
678.67
678.67
75.4078
3.37159
3.92984
4.17005
4.28566
4.35497
4.39853
4.42816
4.4504
4.46852
4.48369
4.49637
4.5068
4.5152
4.52178
4.5269
4.53095
4.53435
4.53759
4.5414
4.54689
4.55597
4.57118
4.59493
4.62856
4.67046
4.71367
4.74318
4.73188
4.6303
4.28772
3.62008
75.4078
678.67
678.67
75.4078
3.37538
3.93457
4.17456
4.28928
4.35777
4.40068
4.42985
4.45173
4.46956
4.4847
4.49738
4.50784
4.51631
4.52297
4.52821
4.53243
4.53607
4.53971
4.54421
4.5509
4.56194
4.58002
4.60772
4.64641
4.69455
4.74492
4.78186
4.7771
4.68178
4.34758
3.68198
75.4078
678.67
678.67
75.4078
3.38268
3.9407
4.1795
4.2929
4.3603
4.40239
4.43094
4.45237
4.46985
4.48473
4.49719
4.50746
4.51576
4.52229
4.52745
4.53165
4.53533
4.53911
4.54392
4.55115
4.56299
4.5823
4.6117
4.6526
4.70329
4.75638
4.79605
4.79368
4.70071
4.37164
3.73004
75.4078
678.67
678.67
75.4078
3.38361
3.94417
4.18354
4.29638
4.36312
4.40465
4.43278
4.45392
4.47119
4.4859
4.49832
4.50867
4.51708
4.52376
4.52915
4.53366
4.53776
4.54214
4.54783
4.55638
4.57017
4.59222
4.62532
4.67101
4.72762
4.78753
4.83438
4.83859
4.7528
4.43483
3.79337
75.4078
678.67
678.67
75.4078
3.3863
3.95126
4.18925
4.30037
4.36585
4.40648
4.43399
4.45467
4.47161
4.48603
4.49829
4.50843
4.51667
4.52326
4.5286
4.53311
4.53728
4.54183
4.54783
4.5569
4.57145
4.59461
4.62921
4.67674
4.73531
4.79697
4.845
4.84931
4.76187
4.43998
3.7997
75.4078
678.67
678.67
75.4078
3.39312
3.95829
4.19493
4.3047
4.36912
4.409
4.43599
4.45634
4.47309
4.48746
4.4996
4.50973
4.51804
4.52476
4.53032
4.53512
4.53972
4.54488
4.5518
4.56226
4.57885
4.60484
4.64327
4.69565
4.75991
4.82774
4.88176
4.89076
4.807
4.48779
3.83099
75.4078
678.67
678.67
75.4078
3.39969
3.96464
4.19991
4.30832
4.37166
4.41074
4.43715
4.45708
4.47349
4.48758
4.49952
4.50952
4.51769
4.52432
4.52983
4.53464
4.53929
4.54459
4.55177
4.56271
4.58015
4.60746
4.64769
4.7024
4.7695
4.84053
4.89787
4.90997
4.82969
4.50255
3.83446
75.4078
678.67
678.67
75.4078
3.40306
3.96966
4.20444
4.31194
4.37453
4.41302
4.43902
4.45867
4.4749
4.48883
4.5008
4.51085
4.5191
4.52586
4.53153
4.53656
4.54153
4.54733
4.55528
4.56754
4.587
4.61712
4.66106
4.72043
4.79301
4.87
4.9331
4.95135
4.87879
4.56583
3.91654
75.4078
678.67
678.67
75.4078
3.40726
3.97507
4.2088
4.31512
4.37678
4.4146
4.44012
4.45942
4.4754
4.48914
4.50095
4.51083
4.51897
4.52569
4.5314
4.53653
4.54171
4.54783
4.55631
4.56929
4.58974
4.62128
4.66718
4.72902
4.80443
4.88427
4.9498
4.9696
4.89713
4.58226
3.93496
75.4078
678.67
678.67
75.4078
3.41242
3.98068
4.21335
4.31863
4.37951
4.41677
4.44192
4.46099
4.47684
4.49051
4.50227
4.51221
4.52043
4.52727
4.53313
4.53849
4.544
4.55066
4.56003
4.5743
4.59672
4.63105
4.68069
4.74724
4.82821
4.91416
4.98573
5.01057
4.94182
4.62855
3.97087
75.4078
678.67
678.67
75.4078
3.41765
3.98613
4.21753
4.32164
4.38161
4.41822
4.4429
4.46165
4.47727
4.49075
4.50235
4.51211
4.52021
4.52698
4.53284
4.53824
4.54388
4.55081
4.56064
4.57568
4.59931
4.63541
4.68742
4.75703
4.84183
4.93212
5.00816
5.03718
4.97241
4.66572
4.0143
75.4078
678.67
678.67
75.4078
3.42115
3.99065
4.22135
4.32463
4.38397
4.42012
4.44451
4.46309
4.47864
4.49209
4.50364
4.51344
4.52164
4.52858
4.53467
4.5404
4.5465
4.55412
4.56497
4.58155
4.60734
4.64645
4.70255
4.77734
4.8682
4.9651
5.04786
5.08283
5.02298
4.72102
4.06913
75.4078
678.67
678.67
75.4078
3.42659
3.99585
4.22519
4.32735
4.38583
4.42137
4.44534
4.46367
4.47896
4.49216
4.50348
4.51311
4.5212
4.52808
4.53418
4.53998
4.54624
4.55416
4.56554
4.58296
4.61008
4.65111
4.7098
4.78796
4.88299
4.98465
5.07219
5.11134
5.05443
4.75301
4.09658
75.4078
678.67
678.67
75.4078
3.42754
3.99889
4.22814
4.32976
4.38776
4.42295
4.44672
4.46498
4.48016
4.49322
4.50452
4.51422
4.52243
4.52951
4.53588
4.54205
4.54886
4.55758
4.57014
4.58932
4.61891
4.66338
4.72667
4.8106
4.91224
5.02092
5.11535
5.1604
5.10827
4.8134
4.16608
75.4078
678.67
678.67
75.4078
3.43102
4.00236
4.23075
4.33153
4.38888
4.42359
4.44701
4.46501
4.47997
4.49285
4.504
4.51358
4.5217
4.52873
4.53509
4.54134
4.5483
4.55733
4.57043
4.59046
4.6215
4.66811
4.73431
4.82201
4.92838
5.04254
5.14271
5.19316
5.14676
4.86024
4.24036
75.4078
678.67
678.67
75.4078
3.4359
4.00676
4.23413
4.33403
4.39074
4.425
4.44812
4.46594
4.48081
4.49367
4.50486
4.51453
4.5228
4.53004
4.53669
4.54334
4.5509
4.56082
4.57528
4.59736
4.63131
4.68192
4.75333
4.84739
4.96092
5.08235
5.18891
5.24362
5.19801
4.90625
4.25936
75.4078
678.67
678.67
75.4078
3.43572
4.00931
4.23672
4.3359
4.39193
4.42566
4.44841
4.4659
4.48048
4.49311
4.50413
4.51365
4.52183
4.52903
4.53571
4.54247
4.55029
4.56065
4.57585
4.59911
4.63481
4.68794
4.76286
4.86144
4.98031
5.10769
5.22048
5.28087
5.24002
4.95073
4.3133
75.4078
678.67
678.67
75.4078
3.4392
4.01182
4.23937
4.33816
4.39367
4.42702
4.44952
4.46677
4.48126
4.49389
4.50495
4.51459
4.52294
4.53039
4.5374
4.54463
4.5531
4.56444
4.58111
4.60656
4.64545
4.70302
4.78376
4.88959
5.01707
5.15393
5.27625
5.34536
5.3127
5.03769
4.41182
75.4078
678.67
678.67
75.4078
3.44196
4.01419
4.24182
4.33999
4.39477
4.42755
4.44962
4.46659
4.4808
4.49321
4.5041
4.51359
4.52185
4.52926
4.53629
4.54363
4.55235
4.56415
4.58155
4.6082
4.64887
4.70887
4.79283
4.9026
5.03444
5.17581
5.30256
5.37554
5.34635
5.07637
4.46406
75.4078
678.67
678.67
75.4078
3.44356
4.01592
4.24419
4.34209
4.3964
4.42881
4.45062
4.46736
4.4815
4.4939
4.50484
4.51442
4.52283
4.53045
4.53779
4.54557
4.55493
4.56769
4.58658
4.61556
4.65963
4.72436
4.81446
4.93174
5.07225
5.22282
5.35824
5.43815
5.41306
5.14459
4.52175
75.4078
678.67
678.67
75.4078
3.44817
4.01888
4.24682
4.34399
4.39753
4.42932
4.45062
4.46709
4.481
4.49321
4.50398
4.51343
4.52177
4.52941
4.53684
4.54483
4.55459
4.56801
4.58792
4.61839
4.66448
4.73189
4.8254
4.94673
5.09157
5.24638
5.38559
5.46806
5.44332
5.16882
4.53152
75.4078
678.67
678.67
75.4078
3.45072
4.021
4.24944
4.34626
4.39929
4.43065
4.45165
4.46792
4.48174
4.49391
4.50472
4.51425
4.52274
4.53059
4.53833
4.54676
4.55717
4.57158
4.59301
4.62574
4.67517
4.74721
4.84671
4.97533
5.12856
5.29231
5.4402
5.53033
5.51308
5.25356
4.63837
75.4078
678.67
678.67
75.4078
3.45691
4.02488
4.25273
4.34865
4.40081
4.43148
4.45195
4.46781
4.48134
4.49332
4.50395
4.51334
4.52174
4.52957
4.53738
4.546
4.55679
4.57186
4.59437
4.62874
4.68045
4.75552
4.85889
4.99212
5.15032
5.31911
5.47177
5.5659
5.55068
5.29063
4.66221
75.4078
678.67
678.67
75.4078
3.46023
4.02748
4.25577
4.3513
4.40291
4.43314
4.45326
4.46886
4.48232
4.49429
4.50497
4.51446
4.52304
4.53112
4.53928
4.54839
4.55987
4.57598
4.60003
4.63661
4.69151
4.77101
4.88008
5.02026
5.18651
5.36391
5.52489
5.62612
5.61598
5.36148
4.72227
75.4078
678.67
678.67
75.4078
3.46631
4.03136
4.25904
4.35372
4.40455
4.43418
4.45385
4.46908
4.48224
4.49399
4.50451
4.51386
4.52235
4.5304
4.53858
4.54782
4.55956
4.57613
4.60093
4.63861
4.69501
4.77641
4.88785
5.03076
5.19985
5.38
5.54354
5.64669
5.63728
5.379
4.7414
75.4078
678.67
678.67
75.4078
3.46988
4.03392
4.26205
4.35641
4.40681
4.43609
4.4555
4.47054
4.48355
4.4953
4.50586
4.5153
4.52394
4.5322
4.54068
4.55031
4.56262
4.58
4.60602
4.64551
4.70451
4.7895
4.90556
5.05411
5.22978
5.41707
5.58772
5.69743
5.69253
5.44012
4.77584
75.4078
678.67
678.67
75.4078
3.47612
4.03754
4.26538
4.35904
4.40871
4.43744
4.45644
4.47115
4.48389
4.49539
4.50577
4.51508
4.52365
4.53188
4.54038
4.5501
4.56261
4.58033
4.60687
4.6471
4.70706
4.7932
4.91066
5.06078
5.23796
5.42663
5.59856
5.70927
5.70584
5.45332
4.80677
75.4078
678.67
678.67
75.4078
3.48184
4.04173
4.26965
4.36277
4.41181
4.44002
4.45862
4.47305
4.4856
4.49697
4.50734
4.51673
4.52543
4.53385
4.54263
4.55274
4.56581
4.5844
4.61223
4.65439
4.71706
4.80688
4.92908
5.08491
5.26857
5.46424
5.64341
5.76141
5.76509
5.52745
4.89471
75.4078
678.67
678.67
75.4078
3.49223
4.04885
4.27578
4.3679
4.41593
4.44319
4.46095
4.47469
4.4867
4.49768
4.50776
4.51696
4.52556
4.53394
4.5427
4.55284
4.566
4.58472
4.61276
4.6552
4.71828
4.80874
4.93184
5.08886
5.27395
5.47119
5.65198
5.77152
5.77612
5.5371
4.89346
75.4078
678.67
678.67
75.4078
3.49739
4.05295
4.28004
4.37159
4.41896
4.44573
4.46315
4.47668
4.48858
4.49951
4.50958
4.51882
4.52753
4.53608
4.54507
4.55554
4.56917
4.5886
4.61771
4.6617
4.72694
4.82013
4.94645
5.10697
5.29553
5.49578
5.67858
5.79856
5.80142
5.55478
4.89728
75.4078
678.67
678.67
75.4078
3.50616
4.05872
4.28466
4.37517
4.42165
4.44775
4.4647
4.47789
4.48953
4.50025
4.51017
4.51929
4.52795
4.53647
4.54547
4.55598
4.56972
4.58934
4.61876
4.66328
4.72939
4.82403
4.95266
5.11667
5.31009
5.51678
5.70787
5.83843
5.85534
5.64007
5.04379
75.4078
678.67
678.67
75.4078
3.51137
4.06356
4.28959
4.3795
4.42528
4.45083
4.46736
4.48025
4.49172
4.50236
4.51227
4.52146
4.53023
4.53895
4.54822
4.55911
4.57342
4.59391
4.62466
4.67114
4.74001
4.83827
4.97135
5.14041
5.33919
5.5511
5.74666
5.88033
5.89818
5.67957
5.05861
75.4078
678.67
678.67
75.4078
3.51705
4.06694
4.29214
4.38137
4.4267
4.45202
4.46842
4.48121
4.49257
4.50312
4.51295
4.52208
4.53079
4.53947
4.54869
4.55955
4.57382
4.59427
4.62498
4.67142
4.74031
4.83881
4.97255
5.14285
5.34351
5.55787
5.75628
5.89284
5.91338
5.69926
5.0999
75.4078
678.67
678.67
75.4078
3.52265
4.07103
4.29593
4.3846
4.4294
4.45438
4.47056
4.48325
4.49458
4.50516
4.51507
4.52433
4.5332
4.54205
4.55151
4.5627
4.57744
4.59859
4.63035
4.67837
4.74951
4.85107
4.98877
5.16389
5.37005
5.59031
5.7946
5.93655
5.96217
5.75594
5.17207
75.4078
678.67
678.67
75.4078
3.52623
4.07452
4.29944
4.38765
4.43187
4.45633
4.4721
4.48445
4.49552
4.50593
4.51571
4.52486
4.53367
4.54247
4.55189
4.56307
4.57784
4.59907
4.63099
4.67928
4.75091
4.85329
4.99229
5.16931
5.37805
5.60159
5.80977
5.95591
5.98824
5.80036
5.19404
75.4078
678.67
678.67
75.4078
3.53058
4.07999
4.30551
4.39354
4.43714
4.46073
4.47563
4.48727
4.4979
4.5081
4.51786
4.52707
4.53597
4.54493
4.5546
4.5661
4.58134
4.60327
4.63623
4.68605
4.75987
4.86525
5.00809
5.18973
5.40357
5.63227
5.84518
5.9952
6.03123
5.84931
5.24773
75.4078
678.67
678.67
75.4078
3.53272
4.08154
4.30649
4.39393
4.43716
4.46083
4.47595
4.48775
4.49843
4.50859
4.51827
4.52739
4.53622
4.54513
4.55475
4.56623
4.58146
4.60343
4.63648
4.68652
4.76071
4.86675
5.01069
5.19402
5.41033
5.64239
5.85958
6.01446
6.05847
5.8909
5.3179
75.4078
678.67
678.67
75.4078
3.53669
4.08625
4.31176
4.39872
4.44122
4.46414
4.47861
4.48997
4.50039
4.51041
4.52005
4.52923
4.53819
4.54729
4.55717
4.56902
4.58482
4.60764
4.64199
4.69395
4.7709
4.88068
5.02936
5.21827
5.44061
5.67858
5.9008
6.05928
6.105
5.93697
5.35675
75.4078
678.67
678.67
75.4078
3.54602
4.09034
4.31291
4.39868
4.44088
4.46384
4.47842
4.48987
4.50035
4.51043
4.52009
4.52925
4.53818
4.54723
4.55707
4.56888
4.58464
4.60741
4.64172
4.69365
4.77063
4.88057
5.02965
5.21933
5.44294
5.68281
5.90769
6.06951
6.12046
5.9608
5.40023
75.4078
678.67
678.67
75.4078
3.55066
4.0931
4.31502
4.40032
4.44218
4.46496
4.47945
4.4909
4.50144
4.51166
4.52144
4.53074
4.53981
4.54904
4.5591
4.57122
4.58743
4.61089
4.64626
4.69977
4.77904
4.89209
5.04512
5.23947
5.46814
5.71301
5.94229
6.10758
6.1609
6.00448
5.4472
75.4078
678.67
678.67
75.4078
3.54101
4.09017
4.31538
4.40182
4.44381
4.46649
4.48072
4.49182
4.50202
4.51194
4.52152
4.53069
4.5397
4.54889
4.55893
4.57105
4.58728
4.61079
4.64627
4.69999
4.77965
4.89343
5.04771
5.24398
5.47546
5.72411
5.95811
6.12893
6.18776
6.03607
5.47336
75.4078
678.67
678.67
75.4078
3.53979
4.08981
4.31667
4.40301
4.44481
4.46742
4.48167
4.49281
4.50304
4.51299
4.52266
4.53198
4.54114
4.55051
4.56079
4.57324
4.58996
4.61423
4.65087
4.70636
4.78859
4.90584
5.06448
5.26593
5.50319
5.75768
5.99683
6.17181