/*--------------------------------*- C++ -*----------------------------------*\
  =========                 |
  \\      /  F ield         | OpenFOAM: The Open Source CFD Toolbox
   \\    /   O peration     | Website:  https://openfoam.org
    \\  /    A nd           | Version:  13
     \\/     M anipulation  |
\*---------------------------------------------------------------------------*/
FoamFile
{
    format      ascii;
    class       volScalarField;
    location    "1";
    object      p_rgh;
}
// * * * * * * * * * * * * * * * * * * * * * * * * * * * * * * * * * * * * * //

dimensions      [0 2 -2 0 0 0 0];

internalField   nonuniform List<scalar> 
78750
(
0.0735451
0.0720717
0.0723161
0.0728602
0.0730725
0.073258
0.0734224
0.0735665
0.073694
0.0738055
0.0739026
0.0739879
0.0740631
0.0741296
0.0741888
0.0742415
0.0742883
0.0743294
0.0743647
0.0743944
0.074419
0.0744386
0.0744537
0.0744644
0.0744709
0.0744733
0.0744711
0.0744635
0.0744484
0.0744183
0.0743527
0.0741995
0.0738515
0.0731732
0.0720168
0.075591
0.0746027
0.074118
0.0739124
0.0738676
0.0739068
0.0739781
0.0740562
0.0741316
0.0742021
0.0742678
0.0743291
0.0743859
0.0744384
0.0744867
0.0745311
0.0745714
0.0746078
0.0746403
0.0746691
0.0746942
0.0747159
0.0747345
0.0747504
0.0747636
0.0747743
0.0747817
0.074784
0.0747738
0.0747295
0.0745898
0.0742109
0.0732904
0.0713344
0.067871
0.0782216
0.076326
0.0752778
0.0747948
0.0746227
0.0745931
0.0746177
0.0746602
0.0747076
0.0747558
0.0748035
0.0748505
0.0748965
0.0749416
0.0749858
0.0750292
0.0750717
0.0751135
0.0751543
0.0751944
0.0752336
0.0752718
0.075309
0.0753451
0.0753798
0.0754129
0.0754431
0.0754668
0.0754715
0.0754202
0.0752094
0.0745886
0.0730525
0.0697898
0.0640153
0.0802416
0.077591
0.0761066
0.0754244
0.0751706
0.075108
0.0751198
0.0751581
0.0752057
0.0752562
0.0753071
0.0753573
0.0754066
0.075455
0.0755023
0.0755485
0.0755936
0.0756376
0.0756805
0.0757223
0.0757631
0.0758029
0.0758415
0.0758789
0.0759152
0.0759501
0.075982
0.0760052
0.0760029
0.0759238
0.0756232
0.0747494
0.0725947
0.0680242
0.059939
0.082327
0.0789137
0.0769919
0.0760935
0.0757435
0.075638
0.0756274
0.0756511
0.0756867
0.0757266
0.0757685
0.0758114
0.075855
0.0758992
0.0759437
0.0759884
0.0760332
0.0760779
0.0761224
0.0761666
0.0762104
0.0762536
0.0762962
0.0763378
0.0763782
0.076417
0.0764525
0.0764771
0.076469
0.0763626
0.0759718
0.0748443
0.0720709
0.066196
0.0557949
0.0843248
0.0801513
0.0777979
0.0766935
0.0762583
0.0761208
0.0760986
0.0761172
0.0761495
0.0761864
0.076225
0.0762644
0.0763042
0.0763442
0.0763844
0.0764245
0.0764646
0.0765045
0.0765441
0.0765834
0.0766223
0.0766607
0.0766985
0.0767356
0.0767715
0.0768057
0.0768359
0.076854
0.0768329
0.076692
0.0762044
0.0748169
0.071421
0.0642332
0.0515164
0.0862739
0.0813405
0.0785559
0.0772452
0.0767234
0.0765527
0.0765174
0.0765298
0.0765579
0.0765912
0.0766262
0.076662
0.0766981
0.0767345
0.076771
0.0768076
0.076844
0.0768803
0.0769164
0.0769521
0.0769875
0.0770223
0.0770565
0.0770898
0.0771217
0.0771517
0.0771769
0.0771875
0.0771515
0.0769741
0.076387
0.074737
0.0707166
0.0622158
0.0471825
0.0882149
0.0825215
0.0793058
0.0777887
0.0771801
0.0769757
0.0769268
0.0769322
0.0769552
0.0769836
0.0770137
0.0770442
0.0770749
0.0771056
0.0771361
0.0771665
0.0771965
0.0772263
0.0772558
0.0772849
0.0773136
0.0773419
0.0773695
0.0773965
0.0774223
0.0774461
0.0774647
0.0774668
0.077416
0.0772027
0.0765172
0.0746064
0.0699628
0.0601487
0.0428059
0.0901483
0.0836949
0.0800477
0.0783234
0.0776266
0.0773871
0.0773234
0.0773207
0.0773376
0.0773604
0.0773848
0.0774097
0.0774347
0.0774596
0.0774844
0.0775091
0.0775337
0.0775582
0.0775825
0.0776067
0.0776308
0.0776546
0.077678
0.0777009
0.0777228
0.0777427
0.0777569
0.0777525
0.0776887
0.0774408
0.0766589
0.0744899
0.0692244
0.0581089
0.0384573
0.0921013
0.084887
0.0808079
0.0788758
0.0780902
0.0778155
0.0777369
0.0777259
0.0777363
0.0777528
0.0777709
0.0777891
0.0778072
0.077825
0.0778425
0.0778597
0.0778768
0.0778937
0.0779105
0.0779272
0.077944
0.0779608
0.0779775
0.0779942
0.0780105
0.0780254
0.0780345
0.0780239
0.0779483
0.0776685
0.0767932
0.0743691
0.0684843
0.0560637
0.0340893
0.0940663
0.0860911
0.0815801
0.0794399
0.0785646
0.0782538
0.0781595
0.0781395
0.0781427
0.0781525
0.0781638
0.0781752
0.0781863
0.0781971
0.0782077
0.078218
0.0782282
0.0782385
0.0782488
0.0782593
0.0782699
0.0782809
0.0782919
0.0783031
0.0783139
0.0783231
0.078326
0.0783072
0.0782163
0.0778993
0.0769231
0.0742355
0.0677239
0.0539848
0.0296944
0.0960711
0.087335
0.0823922
0.0800439
0.0790791
0.0787322
0.078622
0.0785928
0.0785886
0.0785914
0.0785956
0.0785997
0.0786032
0.0786062
0.0786088
0.0786109
0.0786129
0.0786148
0.0786167
0.0786188
0.0786211
0.0786239
0.078627
0.0786304
0.0786338
0.0786355
0.0786309
0.0786033
0.0784975
0.0781439
0.0770673
0.0741167
0.0669733
0.0519136
0.0253145
0.0981027
0.0886058
0.0832312
0.0806746
0.0796199
0.0792365
0.0791101
0.0790712
0.0790596
0.0790553
0.0790524
0.0790493
0.0790456
0.0790415
0.0790369
0.079032
0.0790271
0.0790223
0.0790178
0.0790138
0.0790103
0.0790075
0.0790053
0.0790038
0.0790025
0.0789996
0.0789901
0.0789558
0.0788365
0.0784471
0.0772695
0.0740552
0.0662848
0.0499137
0.0209982
0.100181
0.0899231
0.0841168
0.0813522
0.0802081
0.0797887
0.0796465
0.0795985
0.0795798
0.0795687
0.0795591
0.079549
0.0795382
0.0795268
0.0795148
0.0795025
0.0794901
0.0794778
0.079466
0.0794547
0.0794442
0.0794347
0.0794262
0.0794188
0.0794118
0.0794036
0.0793889
0.0793482
0.0792169
0.078794
0.0775186
0.0740465
0.065653
0.0479672
0.016744
0.102289
0.0912706
0.0850325
0.0820596
0.0808258
0.0803701
0.0802118
0.0801544
0.0801282
0.0801102
0.0800936
0.0800765
0.0800587
0.0800402
0.0800212
0.0800019
0.0799828
0.0799639
0.0799457
0.0799283
0.0799121
0.079897
0.0798834
0.0798711
0.0798594
0.0798467
0.0798275
0.0797805
0.0796364
0.0791787
0.0778042
0.0740724
0.0650544
0.0460434
0.0124905
0.104443
0.0926639
0.085994
0.0828133
0.0814903
0.0809988
0.080825
0.0807589
0.0807258
0.0807013
0.0806782
0.0806544
0.0806296
0.0806039
0.0805775
0.0805507
0.0805238
0.0804972
0.0804711
0.0804459
0.0804217
0.0803989
0.0803775
0.0803574
0.0803383
0.0803185
0.0802916
0.080235
0.080075
0.0795793
0.0781022
0.0741079
0.0644621
0.0441333
0.00826432
0.106625
0.0940851
0.0869835
0.0835947
0.0821823
0.081655
0.0814656
0.0813905
0.0813505
0.0813196
0.0812899
0.0812596
0.0812282
0.0811958
0.0811627
0.0811292
0.0810958
0.0810626
0.0810301
0.0809986
0.0809682
0.0809392
0.0809118
0.0808857
0.0808606
0.0808345
0.0808005
0.0807349
0.0805589
0.0800248
0.0784445
0.0741878
0.063915
0.0422585
0.00408006
0.108848
0.0955475
0.0880143
0.0844179
0.082917
0.0823547
0.0821506
0.0820676
0.0820215
0.081985
0.0819498
0.0819136
0.0818762
0.0818376
0.0817982
0.0817582
0.0817181
0.0816783
0.081639
0.0816007
0.0815635
0.0815278
0.0814937
0.081461
0.0814295
0.0813972
0.0813567
0.0812828
0.0810916
0.0805199
0.0788374
0.0743192
0.0634206
0.0404549
-2.56632e-05
0.111092
0.0970311
0.0890664
0.0852623
0.0836726
0.0830753
0.0828565
0.0827655
0.0827135
0.0826716
0.082631
0.0825895
0.0825466
0.0825027
0.0824579
0.0824126
0.0823674
0.0823225
0.0822784
0.0822354
0.0821939
0.082154
0.0821158
0.0820794
0.0820442
0.0820082
0.0819637
0.0818837
0.0816801
0.0810739
0.0792927
0.0745167
0.062995
0.0387136
-0.00408188
0.11337
0.0985483
0.0901522
0.086141
0.0844633
0.0838318
0.0835993
0.083501
0.0834437
0.083397
0.0833517
0.0833053
0.0832575
0.0832085
0.0831585
0.083108
0.0830575
0.0830074
0.082958
0.0829099
0.0828633
0.0828185
0.0827757
0.0827348
0.0826955
0.0826556
0.0826069
0.0825214
0.0823057
0.0816659
0.0797881
0.0747568
0.0626126
0.0370147
-0.00810051
0.11566
0.100078
0.0912505
0.087033
0.0852676
0.0846015
0.0843548
0.0842492
0.0841865
0.084135
0.084085
0.084034
0.0839816
0.0839279
0.0838735
0.0838186
0.0837638
0.0837095
0.0836563
0.0836045
0.0835544
0.0835062
0.0834603
0.0834165
0.0833745
0.0833318
0.0832799
0.0831892
0.082962
0.0822889
0.0803164
0.0750335
0.0622689
0.0353564
-0.0120723
0.117974
0.101631
0.092373
0.0879495
0.086097
0.0853969
0.0851365
0.0850241
0.0849568
0.0849012
0.084847
0.0847917
0.0847348
0.0846765
0.0846173
0.0845576
0.084498
0.0844389
0.0843808
0.0843241
0.0842692
0.0842165
0.0841662
0.0841182
0.0840722
0.0840257
0.0839697
0.0838732
0.0836332
0.0829261
0.0808597
0.075326
0.0619415
0.0337142
-0.0160281
0.120293
0.10319
0.0935003
0.0888709
0.0869312
0.086197
0.0859228
0.0858034
0.0857312
0.0856713
0.0856131
0.0855537
0.0854925
0.0854301
0.0853668
0.0853031
0.0852396
0.0851767
0.0851151
0.085055
0.0849969
0.0849411
0.0848879
0.0848371
0.0847884
0.0847393
0.08468
0.0845782
0.0843259
0.0835849
0.0814238
0.0756386
0.0616353
0.032095
-0.0199603
0.12263
0.104766
0.0946455
0.0898104
0.0877839
0.0870159
0.0867283
0.0866025
0.0865259
0.0864618
0.0863996
0.0863362
0.0862711
0.0862045
0.086137
0.086069
0.0860011
0.085934
0.085868
0.0858038
0.0857417
0.085682
0.0856252
0.085571
0.0855193
0.0854676
0.0854059
0.0853002
0.0850378
0.0842655
0.0820128
0.0759721
0.0613315
0.0304642
-0.0239055
0.124965
0.106341
0.0957891
0.0907484
0.0886348
0.0878327
0.0875314
0.0873987
0.0873173
0.0872491
0.0871827
0.0871153
0.0870463
0.0869759
0.0869046
0.0868329
0.0867614
0.0866907
0.0866213
0.0865537
0.0864884
0.0864256
0.0863657
0.0863085
0.0862534
0.0861978
0.0861313
0.0860183
0.0857411
0.0849316
0.0825816
0.0762934
0.0610487
0.0288778
-0.027805
0.127313
0.107928
0.0969451
0.0916987
0.0894984
0.0886627
0.088348
0.0882088
0.0881232
0.0880512
0.0879812
0.0879098
0.0878366
0.087762
0.0876866
0.0876108
0.0875351
0.0874603
0.0873868
0.0873153
0.0872462
0.0871798
0.0871165
0.0870562
0.0869984
0.0869407
0.0868728
0.0867571
0.0864711
0.085632
0.0831922
0.0766483
0.0607661
0.0272679
-0.0317301
0.129653
0.109508
0.098094
0.0926421
0.0903548
0.089485
0.0891565
0.0890104
0.0889199
0.0888438
0.0887697
0.0886944
0.0886173
0.0885387
0.0884593
0.0883797
0.0883005
0.0882223
0.0881456
0.0880711
0.0879992
0.0879302
0.0878645
0.0878021
0.0877422
0.0876824
0.087612
0.0874919
0.0871944
0.0863219
0.083788
0.0769919
0.0604876
0.025689
-0.0356233
0.132
0.111094
0.0992492
0.0935917
0.0912176
0.0903138
0.0899716
0.0898186
0.0897233
0.0896429
0.0895645
0.0894848
0.0894032
0.08932
0.0892358
0.0891513
0.0890671
0.0889839
0.0889024
0.0888231
0.0887465
0.0886731
0.0886032
0.0885368
0.0884733
0.0884103
0.0883367
0.0882119
0.0879032
0.0869985
0.0843737
0.077327
0.0602013
0.0240784
-0.0395345
0.134335
0.112669
0.100393
0.09453
0.092069
0.0911307
0.0907742
0.0906138
0.0905132
0.090428
0.0903449
0.0902606
0.0901743
0.0900865
0.0899976
0.0899085
0.0898198
0.0897321
0.0896462
0.0895626
0.0894819
0.0894045
0.0893306
0.0892603
0.0891928
0.0891256
0.089047
0.0889149
0.0885916
0.0876503
0.0849293
0.0776289
0.0598826
0.0224201
-0.0435039
0.136672
0.114245
0.101537
0.0954697
0.0929221
0.0919497
0.0915792
0.0914116
0.0913058
0.0912157
0.0911278
0.0910384
0.0909469
0.0908536
0.0907591
0.0906641
0.0905694
0.0904756
0.0903835
0.0902937
0.0902067
0.0901231
0.0900429
0.0899665
0.0898935
0.0898207
0.0897356
0.0895954
0.0892559
0.0882764
0.085459
0.0779032
0.0595317
0.0207659
-0.0474839
0.138993
0.115806
0.102668
0.096396
0.0937624
0.0927559
0.0923712
0.0921962
0.0920849
0.0919898
0.0918968
0.0918022
0.0917054
0.0916068
0.0915069
0.0914067
0.0913067
0.0912077
0.0911105
0.0910158
0.0909242
0.0908359
0.0907513
0.0906705
0.0905933
0.0905167
0.090428
0.0902821
0.0899306
0.0889176
0.0860065
0.0781999
0.0592106
0.0191338
-0.0514337
0.141323
0.117379
0.10381
0.0973327
0.0946126
0.0935716
0.0931724
0.0929896
0.0928723
0.0927716
0.0926728
0.0925722
0.0924691
0.0923641
0.0922578
0.0921509
0.0920442
0.0919385
0.0918348
0.0917336
0.0916356
0.0915414
0.0914512
0.0913653
0.0912837
0.0912026
0.0911088
0.0909572
0.0905936
0.0895472
0.0865451
0.0784871
0.0588745
0.017479
-0.0553934
0.143657
0.118952
0.104952
0.0982693
0.0954617
0.0943849
0.0939698
0.0937778
0.0936534
0.093546
0.0934406
0.0933332
0.0932234
0.0931115
0.0929982
0.0928845
0.0927711
0.0926587
0.0925484
0.0924408
0.0923366
0.0922361
0.0921398
0.0920478
0.09196
0.0918726
0.091772
0.0916117
0.0912325
0.090149
0.0870504
0.0787395
0.0585071
0.0157979
-0.0593803
0.146023
0.120552
0.106115
0.0992256
0.0963293
0.0952156
0.0947837
0.0945816
0.0944489
0.0943337
0.0942205
0.0941052
0.0939872
0.0938669
0.093745
0.0936226
0.0935004
0.0933793
0.0932603
0.0931441
0.0930314
0.0929227
0.0928185
0.092719
0.0926243
0.0925301
0.0924214
0.0922511
0.091856
0.0907359
0.0875429
0.0789792
0.0581265
0.0141036
-0.0633886
0.148375
0.122142
0.107277
0.10018
0.0971946
0.0960431
0.0955932
0.09538
0.0952383
0.0951146
0.0949929
0.0948692
0.0947427
0.0946139
0.0944833
0.0943523
0.0942215
0.0940919
0.0939645
0.0938399
0.0937189
0.0936018
0.0934892
0.0933811
0.0932776
0.0931741
0.0930549
0.0928716
0.0924561
0.0912938
0.0880012
0.0791941
0.057752
0.0124397
-0.0673596
0.150745
0.123754
0.108452
0.101148
0.0980718
0.0968824
0.0964148
0.0961906
0.0960397
0.0959073
0.095777
0.0956444
0.0955089
0.0953708
0.0952308
0.0950902
0.09495
0.0948109
0.0946741
0.0945404
0.0944104
0.0942848
0.0941639
0.0940481
0.0939375
0.0938274
0.0937015
0.0935101
0.0930801
0.0918825
0.0884971
0.0794384
0.0573814
0.0107722
-0.0713749
0.153084
0.125333
0.109611
0.1021
0.0989361
0.0977099
0.0972253
0.0969908
0.0968316
0.0966912
0.0965527
0.0964118
0.0962676
0.0961208
0.0959719
0.0958225
0.0956735
0.0955257
0.0953803
0.0952381
0.0950999
0.0949665
0.0948382
0.0947153
0.0945981
0.0944816
0.0943491
0.0941498
0.0937056
0.0924729
0.0889934
0.0796864
0.0570163
0.00909001
-0.0753819
0.155431
0.126922
0.110762
0.103047
0.0997986
0.0985389
0.09804
0.0977974
0.0976315
0.0974844
0.0973388
0.0971898
0.097037
0.0968811
0.0967229
0.0965639
0.0964051
0.0962472
0.0960913
0.0959389
0.0957905
0.0956473
0.0955098
0.095378
0.0952524
0.0951279
0.0949871
0.0947781
0.0943175
0.093047
0.0894721
0.0799125
0.0566262
0.00737378
-0.0794029
0.157821
0.128554
0.111953
0.104031
0.100692
0.0993933
0.0988757
0.0986216
0.0984461
0.09829
0.0981353
0.0979771
0.0978149
0.0976495
0.0974817
0.0973131
0.0971448
0.0969774
0.0968119
0.0966498
0.0964919
0.0963391
0.0961919
0.0960505
0.0959153
0.095781
0.0956296
0.0954077
0.0949272
0.0936152
0.0899402
0.0801267
0.0562226
0.00569686
-0.0833914
0.160234
0.130199
0.113172
0.105039
0.10161
0.100272
0.0997356
0.09947
0.0992851
0.0991198
0.0989559
0.0987885
0.0986167
0.0984411
0.0982628
0.0980836
0.0979047
0.0977266
0.0975504
0.0973776
0.0972092
0.097046
0.0968887
0.0967379
0.0965938
0.0964511
0.0962912
0.0960595
0.0955628
0.0942138
0.0904447
0.0803783
0.0558563
0.00398121
-0.0874171
0.162648
0.131845
0.114386
0.106048
0.10253
0.101155
0.100601
0.100325
0.100132
0.0999587
0.0997866
0.0996109
0.0994309
0.0992466
0.0990591
0.098871
0.0986833
0.0984964
0.0983114
0.0981298
0.0979527
0.0977809
0.0976151
0.0974558
0.097303
0.0971512
0.0969812
0.0967372
0.0962211
0.094831
0.0909617
0.0806414
0.0555021
0.00233626
-0.0913605
0.165097
0.133529
0.115638
0.107092
0.103485
0.102072
0.1015
0.101214
0.101012
0.10083
0.100649
0.100465
0.100276
0.100082
0.0998849
0.0996869
0.0994894
0.0992926
0.0990979
0.0989067
0.0987203
0.0985396
0.0983655
0.0981982
0.0980381
0.0978794
0.0977026
0.0974505
0.09692
0.0954946
0.0915322
0.0809585
0.0552
0.00074381
-0.0952391
0.167556
0.135231
0.116902
0.108149
0.104453
0.103002
0.102413
0.102116
0.101905
0.101715
0.101526
0.101333
0.101136
0.100935
0.100731
0.100524
0.100318
0.100114
0.099912
0.0997141
0.0995211
0.0993343
0.099154
0.0989807
0.0988149
0.0986508
0.098468
0.0982084
0.097664
0.096204
0.0921471
0.0813243
0.054955
-0.000826378
-0.0991307
0.170026
0.136946
0.118188
0.109226
0.105441
0.103952
0.103345
0.103037
0.102818
0.102619
0.102423
0.102222
0.102017
0.101807
0.101594
0.101379
0.101165
0.100952
0.100741
0.100535
0.100334
0.10014
0.0999516
0.099771
0.0995987
0.0994283
0.0992391
0.0989714
0.0984124
0.0969169
0.0927668
0.0816906
0.0547016
-0.00239089
-0.10303
0.172493
0.138649
0.119463
0.110294
0.106422
0.104897
0.104275
0.103958
0.103732
0.103527
0.103324
0.103117
0.102905
0.102689
0.10247
0.102248
0.102026
0.101807
0.10159
0.101377
0.101169
0.100967
0.100773
0.100585
0.100406
0.100228
0.100031
0.0997523
0.0991757
0.0976409
0.0933921
0.0820644
0.0544607
-0.00395399
-0.106899
0.174987
0.140382
0.120757
0.111383
0.107423
0.105863
0.105225
0.1049
0.104667
0.104456
0.104247
0.104033
0.103815
0.103592
0.103366
0.103136
0.102907
0.10268
0.102455
0.102235
0.10202
0.101812
0.10161
0.101416
0.101231
0.101047
0.100843
0.100557
0.0999653
0.0983939
0.0940501
0.0824667
0.0542399
-0.00547914
-0.110725
0.17747
0.14211
0.122052
0.11247
0.108424
0.106827
0.106174
0.105841
0.105603
0.105387
0.105173
0.104955
0.104732
0.104504
0.104273
0.104038
0.103804
0.103573
0.103344
0.103119
0.1029
0.102687
0.102482
0.102284
0.102095
0.101908
0.101699
0.101407
0.100802
0.0991965
0.094758
0.0829232
0.0540812
-0.00691519
-0.114467
0.179962
0.143841
0.123351
0.113564
0.109431
0.107799
0.107132
0.106792
0.106548
0.106328
0.106109
0.105886
0.105658
0.105426
0.105189
0.104949
0.104709
0.104472
0.104238
0.104008
0.103784
0.103566
0.103356
0.103155
0.102962
0.102771
0.10256
0.102262
0.101647
0.100009
0.0954791
0.083393
0.0539253
-0.00840712
-0.11828
0.182449
0.145567
0.124644
0.114651
0.110432
0.108766
0.108084
0.107737
0.107489
0.107265
0.107043
0.106816
0.106584
0.106348
0.106108
0.105865
0.105622
0.105381
0.105144
0.104911
0.104684
0.104463
0.10425
0.104045
0.103849
0.103654
0.103438
0.103132
0.102501
0.100825
0.096197
0.0838599
0.0537679
-0.00988408
-0.12206
0.184935
0.147293
0.125937
0.115739
0.111435
0.109734
0.109039
0.108685
0.108433
0.108205
0.107978
0.107747
0.107512
0.107271
0.107026
0.106778
0.106531
0.106286
0.106044
0.105806
0.105575
0.10535
0.105134
0.104925
0.104726
0.10453
0.10431
0.104001
0.103361
0.101654
0.0969365
0.0843461
0.0536263
-0.0113313
-0.125794
0.18741
0.149009
0.127222
0.116819
0.112428
0.110692
0.109983
0.109623
0.109366
0.109134
0.108904
0.108669
0.10843
0.108187
0.107939
0.107687
0.107437
0.107189
0.106945
0.106705
0.106471
0.106245
0.106026
0.105816
0.105615
0.105416
0.105194
0.10488
0.104228
0.102487
0.0976754
0.0848326
0.0534999
-0.0127932
-0.129545
0.189883
0.150719
0.128498
0.117889
0.113413
0.111643
0.11092
0.110553
0.110291
0.110055
0.109821
0.109583
0.10934
0.109092
0.108839
0.108584
0.108329
0.108077
0.107828
0.107584
0.107346
0.107116
0.106893
0.10668
0.106476
0.106274
0.106049
0.10573
0.105065
0.103291
0.0983864
0.0852888
0.0533287
-0.0142553
-0.133327
0.19233
0.152404
0.129749
0.118934
0.114372
0.112568
0.111832
0.111459
0.111193
0.110954
0.110716
0.110475
0.110228
0.109977
0.109721
0.109462
0.109204
0.108949
0.108697
0.10845
0.10821
0.107976
0.107751
0.107535
0.107329
0.107124
0.106895
0.106571
0.105894
0.104087
0.0990869
0.0857381
0.0531639
-0.015735
-0.13715
0.194765
0.154079
0.130991
0.119972
0.115324
0.113485
0.112734
0.112354
0.112084
0.11184
0.111598
0.111352
0.111101
0.110845
0.110584
0.110319
0.110056
0.109796
0.109539
0.109287
0.109042
0.108804
0.108575
0.108354
0.108145
0.107937
0.107705
0.107375
0.106687
0.104845
0.099753
0.0861508
0.0529677
-0.0172116
-0.140949
0.197171
0.155726
0.132206
0.120982
0.116249
0.114376
0.113612
0.113226
0.112951
0.112703
0.112457
0.112207
0.111952
0.111692
0.111426
0.111157
0.110889
0.110625
0.110364
0.110107
0.109857
0.109615
0.109381
0.109155
0.10894
0.108727
0.108487
0.108148
0.107443
0.105563
0.100372
0.0865172
0.0527381
-0.0187094
-0.144739
0.19957
0.157368
0.133416
0.121987
0.117169
0.115262
0.114483
0.11409
0.11381
0.113558
0.113307
0.113051
0.11279
0.112524
0.112253
0.111978
0.111704
0.111433
0.111166
0.110904
0.110649
0.110402
0.110164
0.109935
0.109718
0.109502
0.109261
0.10892
0.108206
0.106297
0.101018
0.0869076
0.0524859
-0.0203135
-0.148655
0.201968
0.159007
0.134623
0.122988
0.118082
0.116139
0.115345
0.114944
0.114657
0.114399
0.114142
0.113881
0.113614
0.113342
0.113064
0.112783
0.112503
0.112226
0.111953
0.111685
0.111423
0.11117
0.110925
0.11069
0.110465
0.110242
0.109992
0.109639
0.108907
0.106958
0.101578
0.0872191
0.0521855
-0.0218983
-0.152529
0.204395
0.160663
0.135836
0.123995
0.119002
0.117022
0.11621
0.115799
0.115505
0.115239
0.114975
0.114706
0.114431
0.11415
0.113864
0.113574
0.113286
0.113001
0.11272
0.112444
0.112176
0.111916
0.111665
0.111424
0.111195
0.110969
0.110714
0.110357
0.109616
0.107637
0.102168
0.0875556
0.0518966
-0.0235217
-0.156471
0.206803
0.16231
0.137055
0.125006
0.119923
0.117902
0.117071
0.116647
0.116343
0.116068
0.115795
0.115518
0.115234
0.114945
0.114651
0.114352
0.114055
0.113762
0.113473
0.113189
0.112912
0.112643
0.112384
0.112134
0.111896
0.111659
0.111393
0.111022
0.11026
0.10824
0.102671
0.0878089
0.0515426
-0.0251625
-0.160389
0.20921
0.16396
0.138265
0.126007
0.120834
0.118774
0.117924
0.117488
0.117175
0.11689
0.116608
0.11632
0.116027
0.115728
0.115423
0.115113
0.114805
0.114502
0.114201
0.113906
0.113619
0.11334
0.11307
0.112811
0.112564
0.112317
0.112041
0.111658
0.110879
0.108819
0.103155
0.0880397
0.0511648
-0.0268038
-0.164375
0.211588
0.165577
0.13947
0.127004
0.12174
0.11964
0.11877
0.118322
0.117999
0.117705
0.117413
0.117116
0.116813
0.116504
0.116189
0.115869
0.115551
0.115238
0.114928
0.114623
0.114325
0.114037
0.113757
0.113488
0.113231
0.112973
0.112683
0.112285
0.111484
0.109382
0.103616
0.0882515
0.0507766
-0.0284924
-0.168372
0.213978
0.167204
0.140651
0.127979
0.122628
0.120492
0.119606
0.119149
0.118817
0.118515
0.118215
0.117909
0.117596
0.117277
0.116952
0.116621
0.116292
0.115967
0.115646
0.11533
0.115021
0.114722
0.114433
0.114155
0.113886
0.11362
0.11333
0.112928
0.112112
0.109975
0.104116
0.0884974
0.0503979
-0.0302068
-0.172385
0.21638
0.168845
0.141858
0.128978
0.123537
0.121362
0.120457
0.119987
0.119646
0.119335
0.119025
0.11871
0.118388
0.11806
0.117725
0.117384
0.117045
0.116711
0.116381
0.116056
0.115738
0.115431
0.115133
0.114847
0.114572
0.114297
0.113985
0.11356
0.112722
0.110544
0.104582
0.0887154
0.0500116
-0.0318341
-0.176384
0.218801
0.170505
0.143083
0.129994
0.124465
0.122251
0.121326
0.120845
0.120494
0.120173
0.119854
0.119529
0.119196
0.118858
0.118511
0.118159
0.117808
0.117462
0.11712
0.116783
0.116454
0.116134
0.115824
0.115527
0.115241
0.114957
0.114648
0.114223
0.113369
0.111153
0.105097
0.0889762
0.0496643
-0.0335247
-0.180419
0.221229
0.172171
0.144316
0.131019
0.125401
0.123149
0.122206
0.121713
0.121353
0.121024
0.120696
0.120362
0.120021
0.119673
0.119317
0.118955
0.118594
0.118239
0.117887
0.117541
0.117203
0.116875
0.116558
0.116252
0.11596
0.115666
0.115334
0.114885
0.11401
0.111754
0.105596
0.089219
0.0492947
-0.0351765
-0.18434
0.223676
0.173856
0.145568
0.132064
0.126359
0.124071
0.12311
0.122605
0.122236
0.121901
0.121566
0.121225
0.120876
0.120521
0.120156
0.119785
0.119415
0.11905
0.118688
0.118331
0.117982
0.117642
0.117313
0.116998
0.116695
0.116392
0.116065
0.115616
0.114723
0.112425
0.10617
0.0895357
0.0489867
-0.0368046
-0.188285
0.22614
0.175558
0.146832
0.133121
0.127328
0.125005
0.124029
0.123515
0.123139
0.122797
0.122456
0.122109
0.121753
0.12139
0.121019
0.120641
0.120264
0.119893
0.119525
0.119163
0.118809
0.118466
0.118133
0.117811
0.117503
0.117192
0.116839
0.116365
0.115454
0.11312
0.106769
0.0898851
0.0487167
-0.0383789
-0.19215
0.228649
0.17729
0.148146
0.134225
0.12834
0.12598
0.124986
0.124462
0.124079
0.123731
0.123383
0.123029
0.122666
0.122297
0.121918
0.121533
0.121149
0.120771
0.120396
0.120028
0.119668
0.119317
0.118978
0.118654
0.118339
0.118021
0.117677
0.117208
0.116284
0.113917
0.107473
0.0903345
0.0485296
-0.0399207
-0.195953
0.231171
0.179059
0.149465
0.135338
0.129369
0.126973
0.125963
0.12543
0.12504
0.124685
0.124331
0.123972
0.123604
0.123229
0.122846
0.122455
0.122067
0.121685
0.121306
0.120934
0.120571
0.120218
0.119876
0.119548
0.119231
0.118908
0.118545
0.11806
0.117128
0.11473
0.108194
0.0907962
0.0483441
-0.0414414
-0.199791
0.233683
0.180806
0.15079
0.136453
0.130399
0.127966
0.126943
0.126403
0.126005
0.125643
0.125285
0.12492
0.124548
0.124168
0.123778
0.123381
0.122987
0.122598
0.122213
0.121836
0.121466
0.121107
0.120759
0.120428
0.120107
0.119783
0.119431
0.118948
0.117995
0.115556
0.10892
0.0912676
0.048194
-0.0429041
-0.203543
0.236198
0.182558
0.152098
0.137558
0.13142
0.128956
0.12792
0.127373
0.126971
0.126606
0.126246
0.125879
0.125504
0.125122
0.12473
0.12433
0.123934
0.123542
0.123154
0.122772
0.122398
0.122033
0.121679
0.12134
0.121013
0.120684
0.120324
0.119834
0.118866
0.116388
0.10965
0.0917511
0.0480819
-0.0442669
-0.207253
0.238739
0.184339
0.153434
0.138687
0.132462
0.129963
0.128915
0.128364
0.127958
0.127588
0.127223
0.126851
0.126472
0.126084
0.125688
0.125284
0.124883
0.124489
0.124097
0.123712
0.123337
0.122972
0.122618
0.122282
0.121955
0.121625
0.121265
0.12077
0.119792
0.117284
0.110454
0.0923027
0.0480187
-0.045655
-0.211033
0.241248
0.186088
0.154769
0.139814
0.133503
0.130969
0.129905
0.129343
0.128931
0.12856
0.128193
0.127818
0.127436
0.127047
0.126648
0.126242
0.125839
0.125442
0.125048
0.124661
0.124283
0.123915
0.123559
0.123219
0.122889
0.122555
0.122193
0.121695
0.120707
0.11817
0.111248
0.0928453
0.0479317
-0.0470588
-0.214685
0.243756
0.187838
0.156074
0.140913
0.134519
0.131953
0.130879
0.130317
0.129905
0.129531
0.129162
0.128786
0.128403
0.128012
0.127611
0.127203
0.126799
0.1264
0.126006
0.125619
0.12524
0.124872
0.124514
0.12417
0.123837
0.123503
0.123137
0.122633
0.121632
0.11905
0.112025
0.0933702
0.0478525
-0.0484036
-0.218295
0.246224
0.189542
0.157346
0.14198
0.135504
0.132909
0.131823
0.131257
0.130843
0.130469
0.1301
0.129724
0.12934
0.128949
0.128548
0.128139
0.127733
0.127333
0.126937
0.126548
0.126168
0.125797
0.125438
0.125095
0.12476
0.124422
0.124055
0.123548
0.122539
0.119935
0.112824
0.0939235
0.0477902
-0.0497881
-0.221989
0.248676
0.191233
0.158604
0.143034
0.136475
0.133849
0.132753
0.132184
0.131769
0.131393
0.131024
0.130648
0.130265
0.129874
0.129473
0.129064
0.128659
0.12826
0.127867
0.12748
0.127103
0.126736
0.126381
0.126037
0.125706
0.12537
0.124982
0.124455
0.123434
0.120793
0.113582
0.0944243
0.0476763
-0.0512117
-0.225678
0.25108
0.192876
0.159817
0.144044
0.137405
0.13475
0.133646
0.133075
0.132659
0.132284
0.131916
0.13154
0.131157
0.130766
0.130365
0.129956
0.12955
0.129151
0.128756
0.128367
0.127988
0.127617
0.127259
0.126917
0.126581
0.126241
0.125871
0.125356
0.124327
0.12166
0.11436
0.0949518
0.0475776
-0.0526355
-0.229462
0.253494
0.194524
0.161021
0.145045
0.138324
0.135638
0.134522
0.133947
0.133529
0.133153
0.132782
0.132405
0.13202
0.131628
0.131226
0.130816
0.130409
0.130009
0.129615
0.129227
0.12885
0.128483
0.128127
0.127784
0.127453
0.127116
0.126725
0.126191
0.12515
0.122447
0.115048
0.0953879
0.0474167
-0.0540747
-0.233259
0.255878
0.196148
0.162227
0.146033
0.139226
0.136506
0.135376
0.134794
0.134373
0.133993
0.133621
0.133242
0.132855
0.132461
0.132057
0.131645
0.131236
0.130834
0.130437
0.130046
0.129665
0.129292
0.128932
0.128587
0.128249
0.127905
0.127529
0.127003
0.125948
0.123211
0.115719
0.0958025
0.0471882
-0.0556365
-0.237104
0.258232
0.197747
0.163372
0.146976
0.140086
0.137335
0.136192
0.135604
0.135178
0.134795
0.134419
0.134037
0.133646
0.133249
0.132842
0.132426
0.132014
0.131609
0.131209
0.130818
0.130436
0.130065
0.129706
0.129358
0.129024
0.128682
0.128287
0.12775
0.126694
0.123935
0.11636
0.096184
0.0469222
-0.0572402
-0.24099
0.260574
0.199316
0.164502
0.147901
0.140924
0.138136
0.136978
0.136382
0.13595
0.135563
0.135182
0.134796
0.134402
0.134
0.133587
0.133167
0.13275
0.132342
0.131938
0.131542
0.131155
0.130779
0.130415
0.130063
0.129725
0.129379
0.128975
0.128421
0.127341
0.124533
0.116846
0.0964153
0.0465634
-0.0588582
-0.244949
0.262851
0.200838
0.165617
0.148814
0.14175
0.138925
0.13775
0.137144
0.136705
0.136311
0.135924
0.135532
0.135132
0.134719
0.134296
0.133875
0.133456
0.133039
0.132627
0.132221
0.131823
0.131435
0.131063
0.130712
0.13037
0.130026
0.129643
0.129102
0.128011
0.125171
0.117397
0.0967035
0.0462025
-0.0605882
-0.249034
0.26512
0.202344
0.166673
0.149662
0.142515
0.13966
0.138471
0.137858
0.137413
0.137014
0.136622
0.136223
0.135817
0.135402
0.134975
0.13454
0.134112
0.13369
0.133274
0.132866
0.132467
0.13208
0.131706
0.131346
0.131
0.130646
0.130232
0.129664
0.128557
0.125681
0.117804
0.0968533
0.0457178
-0.0623776
-0.253091
0.267391
0.203852
0.167745
0.150525
0.143293
0.140403
0.139198
0.138575
0.138123
0.137717
0.137319
0.136914
0.136501
0.136075
0.135637
0.135201
0.134768
0.134338
0.133912
0.133491
0.133078
0.132674
0.132287
0.131921
0.131563
0.131202
0.130801
0.130236
0.129107
0.126186
0.118211
0.097001
0.0452302
-0.0641674
-0.257153
0.26965
0.205349
0.168807
0.151378
0.144057
0.141131
0.139909
0.139276
0.138815
0.138401
0.137994
0.137581
0.13716
0.136725
0.136279
0.135834
0.135393
0.134955
0.134523
0.134099
0.133684
0.133281
0.132892
0.132516
0.132155
0.131784
0.13135
0.13076
0.129617
0.126663
0.118587
0.0971279
0.0447613
-0.0659313
-0.261245
0.271918
0.206854
0.169874
0.152234
0.144827
0.141867
0.140629
0.139986
0.139517
0.139095
0.138682
0.138261
0.137832
0.137389
0.136934
0.13648
0.13603
0.135581
0.135137
0.1347
0.13427
0.133849
0.133444
0.13306
0.132684
0.132305
0.131883
0.131294
0.130126
0.127124
0.118947
0.0972307
0.0442611
-0.0677546
-0.265435
0.274187
0.208361
0.170946
0.153098
0.145606
0.142608
0.141352
0.140696
0.140217
0.139785
0.139361
0.138931
0.138491
0.138038
0.137572
0.137107
0.136647
0.136189
0.135736
0.135291
0.134857
0.134434
0.134024
0.133628
0.133246
0.132854
0.132395
0.131776
0.130592
0.127557
0.11928
0.09731
0.0437264
-0.0695386
-0.269457
0.276481
0.209892
0.172041
0.153983
0.146405
0.143372
0.142099
0.141433
0.140946
0.140507
0.140076
0.139638
0.139191
0.13873
0.138255
0.137781
0.137311
0.136844
0.136381
0.135924
0.135475
0.135036
0.134612
0.134208
0.133813
0.133413
0.132968
0.132351
0.131141
0.128056
0.119673
0.0974521
0.0432559
-0.0713053
-0.273506
0.278788
0.211437
0.17315
0.154883
0.147218
0.14415
0.142859
0.142182
0.141686
0.141238
0.140799
0.140352
0.139896
0.139425
0.138941
0.138459
0.137981
0.137506
0.137037
0.136576
0.136126
0.135687
0.135261
0.134849
0.134451
0.134041