/*--------------------------------*- C++ -*----------------------------------*\
  =========                 |
  \\      /  F ield         | OpenFOAM: The Open Source CFD Toolbox
   \\    /   O peration     | Website:  https://openfoam.org
    \\  /    A nd           | Version:  13
     \\/     M anipulation  |
\*---------------------------------------------------------------------------*/
FoamFile
{
    format      ascii;
    class       volVectorField;
    location    "1";
    object      U;
}
// * * * * * * * * * * * * * * * * * * * * * * * * * * * * * * * * * * * * * //

dimensions      [0 1 -1 0 0 0 0];

internalField   nonuniform List<vector> 
78750
(
(0.0270736 0.0165776 0.0174941)
(0.0463365 0.0222516 0.0214596)
(0.0427338 0.0215234 0.0196372)
(0.0346096 0.0166781 0.0153343)
(0.0333633 0.0136812 0.0132507)
(0.0313948 0.0118233 0.0123667)
(0.0294901 0.0101629 0.0115793)
(0.0277915 0.00859867 0.0107554)
(0.0262671 0.00725457 0.0100363)
(0.0248891 0.00614944 0.00946222)
(0.0236622 0.00524771 0.00902024)
(0.0225514 0.00448556 0.00864137)
(0.0215433 0.0038192 0.0082883)
(0.020622 0.00323709 0.00796964)
(0.0197737 0.00273302 0.00769576)
(0.0189922 0.00229779 0.00746981)
(0.0182695 0.00192317 0.00729021)
(0.0175959 0.00159792 0.00714088)
(0.0169661 0.0013113 0.00700967)
(0.0163767 0.0010586 0.00688387)
(0.0158237 0.000836665 0.00676946)
(0.015301 0.000643095 0.00667776)
(0.0148073 0.000480608 0.00660241)
(0.014337 0.000346291 0.00654038)
(0.0138863 0.000245976 0.00648268)
(0.0134437 0.000163171 0.00642958)
(0.0130065 9.83967e-05 0.0063846)
(0.0125659 5.37364e-05 0.0063569)
(0.0121291 2.55821e-05 0.00633238)
(0.0116607 0.000101267 0.00636125)
(0.0111433 0.000478146 0.00645793)
(0.0103965 0.00204992 0.00662577)
(0.00923154 0.00538906 0.00689818)
(0.00796234 0.0122767 0.00735723)
(0.0031417 0.0191209 0.00477492)
(0.00171388 0.00262326 0.00695121)
(0.00275078 0.00982511 0.0101765)
(0.00217464 0.0102809 0.00785654)
(0.00270232 0.00757092 0.00500145)
(0.00333965 0.00582012 0.00357748)
(0.00377307 0.00517394 0.00294571)
(0.00412863 0.00479498 0.00262673)
(0.00441389 0.00441851 0.0024378)
(0.00462977 0.00400644 0.00231339)
(0.00478972 0.00359522 0.00222665)
(0.00490408 0.0032239 0.00216341)
(0.00498087 0.00289108 0.00211534)
(0.00502574 0.00259004 0.0020775)
(0.00504306 0.00231702 0.002047)
(0.00503717 0.00206927 0.00202277)
(0.00501225 0.00184427 0.00200396)
(0.00497197 0.00163958 0.00199005)
(0.00491929 0.00145291 0.00198135)
(0.00485621 0.00128206 0.00197869)
(0.00478437 0.00112552 0.00198305)
(0.00470506 0.000982317 0.0019953)
(0.00461919 0.000851459 0.0020158)
(0.00452783 0.000731842 0.0020445)
(0.00443174 0.000621935 0.00208006)
(0.00433167 0.00052031 0.00211851)
(0.00422751 0.000426331 0.00215408)
(0.0041172 0.000340257 0.00218078)
(0.00399638 0.000265666 0.00219433)
(0.00385421 0.000218219 0.00219551)
(0.00367301 0.000261578 0.00219693)
(0.0033965 0.000640853 0.00224767)
(0.00303595 0.00192055 0.00247542)
(0.00249692 0.0063068 0.00316962)
(0.00241069 0.0233045 0.00474894)
(0.00121349 0.0402158 0.00397719)
(0.000378735 -0.0129253 0.00244433)
(0.00140559 -0.000404517 0.00335835)
(0.00160555 0.00412692 0.00249255)
(0.00191863 0.00441514 0.00183069)
(0.00211054 0.00398316 0.00145359)
(0.00224444 0.00369241 0.00127068)
(0.00238215 0.00348465 0.00116265)
(0.00251949 0.00328796 0.00108081)
(0.0026462 0.0030821 0.00101319)
(0.00275755 0.00286831 0.000959668)
(0.00285354 0.00265232 0.000922469)
(0.00293607 0.00243993 0.000902921)
(0.00300624 0.00223535 0.0009006)
(0.00306475 0.00204096 0.000913798)
(0.00311235 0.00185741 0.000940446)
(0.00314972 0.00168424 0.000978896)
(0.00317744 0.00152057 0.00102832)
(0.00319602 0.00136552 0.00108871)
(0.00320581 0.00121844 0.00116068)
(0.00320702 0.00107883 0.00124505)
(0.00319974 0.000946233 0.00134219)
(0.00318396 0.000820067 0.00145096)
(0.00315961 0.000699633 0.00156743)
(0.00312658 0.000583905 0.00168404)
(0.00308464 0.000471599 0.00178994)
(0.00303326 0.000361526 0.0018735)
(0.00297121 0.000253821 0.00192652)
(0.00289416 0.000152187 0.00194819)
(0.00278967 7.26447e-05 0.00194781)
(0.00263426 8.16194e-05 0.00195123)
(0.00236872 0.000425571 0.00202386)
(0.00191488 0.00169729 0.00230279)
(0.00107647 0.00645313 0.00306049)
(0.00121126 0.0253687 0.00466668)
(0.00115673 0.043155 0.00379119)
(0.000369052 -0.0135545 0.00100225)
(0.000361796 -0.00333616 0.00130386)
(0.000343695 0.00151296 0.000984984)
(0.000635047 0.00234409 0.00075514)
(0.000877617 0.00226586 0.000619738)
(0.00107735 0.00212133 0.000544799)
(0.00125764 0.00200256 0.000494604)
(0.00142361 0.00188903 0.000454211)
(0.00158095 0.00177715 0.000420768)
(0.00172471 0.00166133 0.000398338)
(0.00185523 0.00153802 0.000390811)
(0.00197516 0.0014179 0.000398548)
(0.0020827 0.00130384 0.000421046)
(0.00217773 0.00119586 0.000457611)
(0.00226099 0.00109371 0.00050694)
(0.00233295 0.000996949 0.000568022)
(0.00239404 0.000904857 0.00064055)
(0.00244456 0.00081671 0.000724849)
(0.00248476 0.000731948 0.000821588)
(0.00251483 0.000650312 0.000931295)
(0.00253495 0.000571714 0.0010536)
(0.00254513 0.00049617 0.00118602)
(0.00254546 0.000423662 0.00132301)
(0.00253581 0.000353877 0.0014563)
(0.00251636 0.000287188 0.00157469)
(0.0024885 0.00022527 0.00166623)
(0.0024473 0.000157759 0.00172553)
(0.00238746 9.07864e-05 0.00175324)
(0.00229848 5.18492e-05 0.00175863)
(0.00215191 0.000101786 0.00177092)
(0.00187796 0.000488642 0.00186313)
(0.00134117 0.00190521 0.00218708)
(0.000293054 0.00735919 0.00305277)
(0.000845651 0.0277333 0.00477366)
(0.00130108 0.0446029 0.0037957)
(0.000495251 -0.015772 0.000314356)
(0.000289279 -0.00650942 0.000333955)
(0.000124443 -0.000688311 0.000215923)
(0.00045071 0.000719192 0.000158699)
(0.000695191 0.00098005 0.000117137)
(0.000872604 0.00100972 8.36799e-05)
(0.00101832 0.000997749 5.57927e-05)
(0.0011466 0.000970281 3.36774e-05)
(0.00126532 0.000932388 2.05214e-05)
(0.00137722 0.000886888 2.02388e-05)
(0.00148236 0.00083588 3.56799e-05)
(0.00158008 0.0007814 6.76064e-05)
(0.00167001 0.000725421 0.000114812)
(0.00175205 0.000669052 0.000175089)
(0.00182605 0.000612862 0.000246302)
(0.00189206 0.000557419 0.000327124)
(0.00194992 0.000502974 0.00041723)
(0.00199949 0.000449619 0.000517067)
(0.00204048 0.000396788 0.00062729)
(0.00207277 0.000344072 0.000748416)
(0.00209626 0.000291394 0.00088029)
(0.00211052 0.000239071 0.0010196)
(0.00211576 0.000187419 0.00116089)
(0.00211188 0.000136378 0.00129567)
(0.00209821 8.60502e-05 0.00141288)
(0.00207777 4.09917e-05 0.00150351)
(0.00204565 -7.20428e-06 0.00156351)
(0.00199354 -5.79449e-05 0.00159515)
(0.00190998 -8.39104e-05 0.00160573)
(0.00176338 -2.34491e-05 0.00162467)
(0.00147156 0.000367088 0.00172766)
(0.000848492 0.00185127 0.00207691)
(-0.000441498 0.00781095 0.00301306)
(0.00074802 0.029918 0.00480912)
(0.00146994 0.0448043 0.0038313)
(0.000619349 -0.01695 -0.000139791)
(0.000230746 -0.00841911 -0.000265244)
(-5.51758e-05 -0.00205423 -0.000240918)
(0.000324668 -0.000308829 -0.00019585)
(0.000580823 0.000113434 -0.000183605)
(0.00075233 0.000212733 -0.000192217)
(0.000883245 0.000240148 -0.000206377)
(0.000992966 0.000243873 -0.00021655)
(0.00109255 0.000236355 -0.000216968)
(0.00118613 0.00022199 -0.000203037)
(0.00127448 0.000203086 -0.000172159)
(0.00135735 0.000181341 -0.000124391)
(0.00143423 0.000157951 -6.19093e-05)
(0.00150473 0.000133488 1.22928e-05)
(0.00156852 0.000108162 9.55836e-05)
(0.00162548 8.2253e-05 0.000186349)
(0.00167544 5.59012e-05 0.000284075)
(0.00171833 2.90389e-05 0.000389031)
(0.00175387 1.42744e-06 0.000501698)
(0.00178184 -2.69794e-05 0.000622394)
(0.00180204 -5.60459e-05 0.000750723)
(0.00181413 -8.54797e-05 0.000883556)
(0.00181827 -0.000115336 0.00101584)
(0.00181436 -0.000145806 0.00114017)
(0.00180237 -0.00017676 0.00124713)
(0.00178189 -0.000207354 0.00132792)
(0.00175307 -0.000235163 0.00138094)
(0.00170642 -0.000262566 0.00140986)
(0.00162292 -0.000273829 0.00142172)
(0.0014739 -0.000201827 0.00144115)
(0.00116206 0.000188222 0.00154036)
(0.000450383 0.00170585 0.00188417)
(-0.000983391 0.00780236 0.00281564)
(0.000680774 0.0293689 0.00457237)
(0.00182354 0.0450046 0.00362945)
(0.000754603 -0.0179058 -0.00048769)
(0.000252992 -0.00996372 -0.000694597)
(-0.000133324 -0.00308404 -0.000544147)
(0.000319406 -0.00105425 -0.000425851)
(0.000602461 -0.00050834 -0.000380291)
(0.00077823 -0.000359636 -0.000374201)
(0.00090309 -0.0003064 -0.000381177)
(0.00100219 -0.000282909 -0.000385659)
(0.00108961 -0.000272132 -0.00037966)
(0.00117107 -0.000268278 -0.000357929)
(0.00124797 -0.000268744 -0.000317891)
(0.0013202 -0.00027205 -0.000260015)
(0.00138732 -0.000277286 -0.000187089)
(0.00144875 -0.000284115 -0.000102653)
(0.0015042 -0.000292495 -9.80193e-06)
(0.00155336 -0.000302435 8.94361e-05)
(0.00159597 -0.000313797 0.000194248)
(0.0016318 -0.000326518 0.000304883)
(0.00166063 -0.000340564 0.000421549)
(0.00168242 -0.000355944 0.000543862)
(0.00169694 -0.000372639 0.000670566)
(0.00170396 -0.000390538 0.000799515)
(0.00170344 -0.000409707 0.000926997)
(0.0016955 -0.000430178 0.00104556)
(0.00168028 -0.00045162 0.00114568)
(0.00165855 -0.000471037 0.00121953)
(0.00162855 -0.00049099 0.00126706)
(0.00158053 -0.000512569 0.00129343)
(0.00149551 -0.000516702 0.00130332)
(0.00133822 -0.000445966 0.00131998)
(0.000998449 -7.5346e-05 0.00141323)
(0.000183917 0.00143361 0.00175324)
(-0.00146427 0.00769987 0.00269523)
(0.000661984 0.0295551 0.00444126)
(0.00234385 0.0456478 0.0034794)
(0.000889945 -0.0187463 -0.000732828)
(0.000279489 -0.0113151 -0.000990467)
(-0.0002163 -0.00392617 -0.000736857)
(0.000306329 -0.00164007 -0.000563148)
(0.000619082 -0.000981025 -0.000494259)
(0.000799423 -0.000793165 -0.00047939)
(0.000918805 -0.000725214 -0.000481757)
(0.00100892 -0.000690406 -0.000482972)
(0.00108549 -0.000669391 -0.000473414)
(0.00115568 -0.00065524 -0.000447559)
(0.00122143 -0.00064508 -0.000402894)
(0.00128287 -0.000637524 -0.000340092)
(0.00133963 -0.000631819 -0.000262252)
(0.00139116 -0.000627968 -0.000173376)
(0.00143713 -0.000626111 -7.68772e-05)
(0.00147724 -0.000626319 2.5217e-05)
(0.0015112 -0.000628338 0.000131906)
(0.00153893 -0.00063188 0.000242813)
(0.00156004 -0.000636872 0.000357765)
(0.00157448 -0.000643613 0.000476579)
(0.00158192 -0.000652331 0.000598279)
(0.00158228 -0.000663012 0.000720199)
(0.0015758 -0.000675468 0.000837827)
(0.0015626 -0.000689551 0.000944222)
(0.00154295 -0.000704892 0.00103197)
(0.00151691 -0.000718806 0.00109559)
(0.00148233 -0.000734926 0.00113687)
(0.00142975 -0.000750935 0.00115966)
(0.00133894 -0.000749642 0.00116731)
(0.00116885 -0.000682266 0.001181)
(0.000795286 -0.000333888 0.00126459)
(-0.000130521 0.00114352 0.00159058)
(-0.00198831 0.00742668 0.00252146)
(0.000541711 0.0286612 0.00419657)
(0.00275817 0.0455256 0.00331452)
(0.0010337 -0.0194868 -0.000938581)
(0.000339214 -0.0125807 -0.00123482)
(-0.000261359 -0.00465678 -0.000880556)
(0.000340165 -0.00210974 -0.000658159)
(0.000688041 -0.00134807 -0.000570716)
(0.000879231 -0.00112694 -0.000549883)
(0.00100021 -0.00104942 -0.000550718)
(0.00108813 -0.00100899 -0.000551308)
(0.00116089 -0.000982931 -0.000540962)
(0.00122673 -0.000963657 -0.000513813)
(0.00128805 -0.000948056 -0.000467224)
(0.00134513 -0.000934834 -0.000401863)
(0.00139756 -0.000923648 -0.000320942)
(0.00144476 -0.000914648 -0.000228585)
(0.00148632 -0.000907969 -0.000128269)
(0.00152183 -0.000903194 -2.23744e-05)
(0.00155097 -0.000900152 8.77598e-05)
(0.00157345 -0.000898891 0.000201559)
(0.00158908 -0.000899509 0.000318723)
(0.00159768 -0.000902069 0.000438665)
(0.00159911 -0.00090661 0.000559911)
(0.00159334 -0.000913241 0.000679521)
(0.00158062 -0.000921542 0.000792669)
(0.00156117 -0.000931926 0.000893378)
(0.00153541 -0.000943936 0.00097502)
(0.00150322 -0.000955173 0.00103222)
(0.00146303 -0.000968951 0.00106794)
(0.00140457 -0.000982603 0.00108667)
(0.00130479 -0.000980325 0.00109083)
(0.00111821 -0.000918201 0.00109942)
(0.000706303 -0.000597445 0.00117401)
(-0.000343483 0.000848319 0.00149593)
(-0.00249942 0.00716868 0.00244095)
(0.000639815 0.028989 0.00411363)
(0.00319155 0.0453135 0.00327085)
(0.00117268 -0.0201691 -0.00109369)
(0.000366872 -0.0138034 -0.00141761)
(-0.000360467 -0.00532018 -0.000973153)
(0.000321162 -0.00249957 -0.000708887)
(0.000701536 -0.00164362 -0.000607676)
(0.000904231 -0.00138983 -0.000582977)
(0.00102501 -0.00130384 -0.000582832)
(0.0011097 -0.00126269 -0.000582517)
(0.00117801 -0.00123443 -0.000571603)
(0.0012386 -0.00121279 -0.000544068)
(0.00129444 -0.00119474 -0.00049737)
(0.00134595 -0.00117928 -0.000432112)
(0.0013928 -0.00116591 -0.000351228)
(0.00143444 -0.00115435 -0.000258696)
(0.0014704 -0.00114484 -0.000158214)
(0.00150028 -0.00113739 -5.24313e-05)
(0.00152382 -0.00113189 5.70874e-05)
(0.00154078 -0.00112824 0.000169506)
(0.00155098 -0.00112636 0.00028422)
(0.00155426 -0.00112635 0.00040031)
(0.00155057 -0.00112851 0.000516022)
(0.00153989 -0.00113316 0.000628259)
(0.00152254 -0.00113997 0.000732379)
(0.00149858 -0.00114908 0.000822879)
(0.00146907 -0.00115811 0.000893937)
(0.00143324 -0.0011695 0.000942498)
(0.0013884 -0.00118332 0.000971145)
(0.00132581 -0.00119345 0.00098362)
(0.00121848 -0.00119101 0.000985875)
(0.00101738 -0.00113445 0.000990779)
(0.000568476 -0.000839272 0.00105569)
(-0.000602194 0.000559259 0.00136346)
(-0.00305934 0.00694116 0.00230498)
(0.000755174 0.0288229 0.00394595)
(0.00323645 0.0443256 0.00315117)
(0.00132253 -0.0207926 -0.00123209)
(0.000414434 -0.0148362 -0.0015649)
(-0.000439139 -0.00588331 -0.00104075)
(0.000321125 -0.0028281 -0.000742019)
(0.00074119 -0.00188638 -0.000632037)
(0.000959504 -0.00160708 -0.000606114)
(0.00108701 -0.0015166 -0.00060672)
(0.0011752 -0.00147454 -0.000607385)
(0.00124536 -0.00144552 -0.000597357)
(0.00130708 -0.00142317 -0.000570784)
(0.00136369 -0.00140423 -0.000524913)
(0.00141562 -0.00138748 -0.000460094)
(0.00146262 -0.00137278 -0.000379164)
(0.00150406 -0.00136006 -0.000286016)
(0.00153945 -0.00134951 -0.000184399)
(0.00156835 -0.00134133 -7.71311e-05)
(0.00159044 -0.00133536 3.40239e-05)
(0.00160545 -0.0013313 0.000147985)
(0.0016132 -0.00132915 0.000263884)
(0.00161356 -0.00132908 0.000380524)
(0.0016065 -0.00133127 0.000495806)
(0.00159215 -0.00133587 0.000606294)
(0.0015708 -0.00134291 0.000707185)
(0.00154286 -0.00135204 0.000792897)
(0.00150865 -0.00136047 0.000857501)
(0.00146968 -0.00137217 0.000901133)
(0.00142171 -0.00138666 0.000926008)
(0.00135478 -0.00139664 0.000933806)
(0.00124242 -0.00139583 0.000932982)
(0.00102889 -0.00134794 0.000936513)
(0.000541136 -0.00108102 0.00100574)
(-0.000756149 0.000281183 0.00133007)
(-0.00341903 0.00667108 0.00230059)
(0.000876945 0.0281652 0.00388244)
(0.00375832 0.0440339 0.00317428)
(0.00146256 -0.021364 -0.00131706)
(0.000434146 -0.0157041 -0.00163918)
(-0.000553681 -0.00635538 -0.00106153)
(0.00027418 -0.00310522 -0.000742578)
(0.000727273 -0.00209469 -0.000630607)
(0.00095724 -0.00179575 -0.000605546)
(0.00108743 -0.00169995 -0.000606224)
(0.00117555 -0.0016562 -0.000607031)
(0.00124402 -0.00162638 -0.00059747)
(0.00130342 -0.00160344 -0.000571978)
(0.00135742 -0.00158393 -0.000527766)
(0.0014066 -0.00156652 -0.000464985)
(0.00145077 -0.00155136 -0.000386241)
(0.00148928 -0.00153853 -0.000295242)
(0.00152167 -0.00152819 -0.000195653)
(0.0015475 -0.00152028 -9.03604e-05)
(0.00156647 -0.00151465 1.86406e-05)
(0.00157832 -0.00151116 0.000129996)
(0.00158291 -0.00150985 0.000242537)
(0.00158019 -0.00151083 0.000354735)
(0.00157015 -0.00151429 0.000464144)
(0.00155302 -0.00152043 0.000567072)
(0.0015291 -0.00152929 0.000658696)
(0.00149925 -0.00153876 0.000733193)
(0.00146404 -0.00155121 0.000787124)
(0.00142349 -0.00156742 0.000821576)
(0.00137581 -0.00158396 0.000838116)
(0.0013087 -0.00159898 0.000840448)
(0.00119562 -0.00160543 0.000835108)
(0.000974057 -0.00157388 0.000838551)
(0.0004428 -0.00134785 0.000917213)
(-0.00101225 -2.52289e-05 0.00126448)
(-0.00406521 0.00654995 0.00227076)
(0.000761902 0.0279381 0.00377454)
(0.00424091 0.0438398 0.00313441)
(0.00160712 -0.0218774 -0.0013906)
(0.000474905 -0.0164585 -0.00169149)
(-0.000636511 -0.00676062 -0.00106899)
(0.000260874 -0.00334142 -0.000735756)
(0.000750518 -0.00227374 -0.000625701)
(0.00099599 -0.00195563 -0.000603258)
(0.00113216 -0.00185376 -0.000605115)
(0.0012249 -0.0018102 -0.00060764)
(0.00129584 -0.00178025 -0.000599759)
(0.00135725 -0.00175703 -0.000576282)
(0.00141293 -0.00173732 -0.000534357)
(0.0014636 -0.00171993 -0.000473844)
(0.00150889 -0.00170475 -0.000396964)
(0.00154815 -0.00169203 -0.000307222)
(0.0015808 -0.00168199 -0.000208235)
(0.00160632 -0.00167454 -0.000102991)
(0.00162436 -0.00166959 6.30903e-06)
(0.00163461 -0.00166696 0.000118063)
(0.00163687 -0.00166669 0.000230808)
(0.00163107 -0.00166896 0.000342694)
(0.00161724 -0.00167397 0.000450937)
(0.00159561 -0.00168192 0.000551518)
(0.00156651 -0.00169298 0.000639495)
(0.00153071 -0.00170448 0.000708782)
(0.00148925 -0.00172008 0.000757292)
(0.0014426 -0.00174077 0.000787224)
(0.00138715 -0.00176138 0.000799254)
(0.00131117 -0.00178097 0.000797729)
(0.0011888 -0.00179659 0.000789685)
(0.000947802 -0.00178516 0.0007927)
(0.000355598 -0.00160503 0.000887184)
(-0.00128142 -0.000344101 0.00127775)
(-0.00483873 0.00643906 0.00236799)
(0.000872512 0.028088 0.00388034)
(0.0046699 0.0433831 0.00321556)
(0.0017418 -0.0223165 -0.00142461)
(0.000491155 -0.0170691 -0.00168918)
(-0.000754635 -0.00709252 -0.00104322)
(0.000203691 -0.00353682 -0.000706873)
(0.000723413 -0.0024224 -0.000602461)
(0.000978726 -0.00209005 -0.000583401)
(0.00111727 -0.00198429 -0.000586069)
(0.00121029 -0.00194039 -0.000589353)
(0.00127962 -0.00191017 -0.00058249)
(0.00133903 -0.00188657 -0.000560776)
(0.00139246 -0.00186653 -0.000521413)
(0.00144067 -0.00184881 -0.000464004)
(0.00148333 -0.00183334 -0.000390417)
(0.00151979 -0.00182032 -0.000303863)
(0.00154943 -0.00181004 -0.000207843)
(0.00157174 -0.0018025 -0.000105401)
(0.00158635 -0.00179757 1.11026e-06)
(0.00159295 -0.00179502 0.000109847)
(0.00159139 -0.00179499 0.000219079)
(0.00158162 -0.00179762 0.000326636)
(0.00156369 -0.00180315 0.00042941)
(0.00153783 -0.00181178 0.000523107)
(0.00150403 -0.00182136 0.000601852)
(0.00146449 -0.00183381 0.000661556)
(0.00141947 -0.00185245 0.000701875)
(0.00136849 -0.00187312 0.000722784)
(0.00130852 -0.00189477 0.000728725)
(0.00122737 -0.00191668 0.000724629)
(0.00109848 -0.00193678 0.00071586)
(0.00084015 -0.00193853 0.000719604)
(0.000183968 -0.0017954 0.000825647)
(-0.0016562 -0.000569662 0.0012514)
(-0.00572858 0.00649848 0.00240391)
(0.000800081 0.0276638 0.00381941)
(0.00495767 0.042904 0.00319461)
(0.00188457 -0.0227178 -0.00145823)
(0.000528541 -0.0176136 -0.00168369)
(-0.00083901 -0.00737975 -0.00101642)
(0.000184632 -0.00370046 -0.000678629)
(0.000738445 -0.00254464 -0.000581258)
(0.00100736 -0.0022012 -0.000567259)
(0.00115228 -0.00209357 -0.000572258)
(0.00124955 -0.00204932 -0.000577318)
(0.00132166 -0.00201871 -0.000572401)
(0.00138339 -0.00199475 -0.000553179)
(0.00143891 -0.00197426 -0.000516728)
(0.00148903 -0.0019561 -0.000462304)
(0.00153339 -0.00194025 -0.000391373)
(0.00157128 -0.00192688 -0.000306845)
(0.00160196 -0.0019162 -0.000212123)
(0.00162488 -0.00190828 -0.000110349)
(0.00163958 -0.00190306 -4.05618e-06)
(0.00164566 -0.00190031 0.0001047)
(0.0016428 -0.00189963 0.000213825)
(0.00163123 -0.00190203 0.000321039)
(0.00161087 -0.00190729 0.000422829)
(0.00158194 -0.00191559 0.000514591)
(0.00154449 -0.00192453 0.000590088)
(0.0015015 -0.00193861 0.000646441)
(0.00145172 -0.001957 0.000682151)
(0.00139571 -0.00197562 0.000697705)
(0.00132971 -0.00199611 0.000699278)
(0.00124097 -0.00201653 0.000691391)
(0.00110327 -0.00203613 0.000679127)
(0.000825048 -0.00204488 0.000680667)
(0.000105681 -0.00192754 0.000796393)
(-0.00191237 -0.000720918 0.00125945)
(-0.00628869 0.0064775 0.00245735)
(0.000941643 0.0270046 0.00372747)
(0.00509759 0.0421206 0.0031538)
(0.00201686 -0.0230604 -0.00146035)
(0.000537728 -0.0180504 -0.00163769)
(-0.000960586 -0.00761106 -0.000965552)
(0.000120872 -0.00383342 -0.000634543)
(0.000703288 -0.00264495 -0.000546535)
(0.00098162 -0.00229445 -0.000537751)
(0.00112899 -0.0021859 -0.00054424)
(0.0012263 -0.0021409 -0.000549897)
(0.00129726 -0.0021098 -0.000546083)
(0.00135745 -0.00208563 -0.000528944)
(0.00141128 -0.00206498 -0.000495489)
(0.00145967 -0.00204672 -0.000444696)
(0.00150227 -0.00203078 -0.000377631)
(0.00153845 -0.00201739 -0.000296866)
(0.00156737 -0.0020067 -0.000205651)
(0.00158852 -0.00199905 -0.000107186)
(0.00160147 -0.00199436 -4.07522e-06)
(0.00160574 -0.00199213 0.0001014)
(0.0016012 -0.00199182 0.000206821)
(0.00158806 -0.00199473 0.000309582)
(0.00156628 -0.00200057 0.000405846)
(0.00153541 -0.00200699 0.000489898)
(0.00149831 -0.00201912 0.000557846)
(0.00145542 -0.0020369 0.000606768)
(0.00140611 -0.00205449 0.000632649)
(0.00135098 -0.00207333 0.000639573)
(0.00128545 -0.00209144 0.000632736)
(0.00119862 -0.00211052 0.000620161)
(0.00106367 -0.00213155 0.000605143)
(0.000777462 -0.00215093 0.000602654)
(7.40745e-06 -0.00206834 0.000720928)
(-0.00218894 -0.000909404 0.00120365)
(-0.0070621 0.00649517 0.00242795)
(0.00100507 0.0270672 0.00365642)
(0.00509507 0.0413303 0.00304783)
(0.00215344 -0.0233606 -0.00146727)
(0.000570646 -0.0184458 -0.00159772)
(-0.00104986 -0.00781633 -0.000920014)
(9.47902e-05 -0.00394809 -0.000595547)
(0.000710358 -0.00273103 -0.000517526)
(0.00100219 -0.00237396 -0.000514677)
(0.00115584 -0.00226429 -0.000523526)
(0.00125728 -0.00221908 -0.000530967)
(0.00133088 -0.00218709 -0.000529084)
(0.00139363 -0.00216293 -0.000514709)
(0.0014499 -0.00214233 -0.000484536)
(0.00150063 -0.00212415 -0.000437181)
(0.00154541 -0.00210835 -0.000373299)
(0.00158347 -0.00209526 -0.000295173)
(0.00161406 -0.00208519 -0.000205909)
(0.00163645 -0.00207821 -0.000108681)
(0.00165022 -0.00207415 -6.29921e-06)
(0.00165481 -0.00207255 9.87083e-05)
(0.00165017 -0.0020735 0.000203752)
(0.00163621 -0.00207725 0.000305752)
(0.00161298 -0.00208411 0.000400627)
(0.00158001 -0.0020915 0.000482242)
(0.00154065 -0.00210498 0.000546698)
(0.00149514 -0.00212457 0.000591056)
(0.0014429 -0.00214362 0.000611258)
(0.00138399 -0.00216336 0.000611567)
(0.00131548 -0.00218404 0.000599904)
(0.00122499 -0.00220646 0.000583694)
(0.00108474 -0.00223223 0.000564323)
(0.00078267 -0.0022648 0.000557072)
(-4.82192e-05 -0.00222001 0.000677181)
(-0.00241973 -0.00113095 0.00118057)
(-0.00765379 0.00633619 0.00243435)
(0.000866202 0.0264506 0.0035822)
(0.00571027 0.0413237 0.00312296)
(0.00228276 -0.0236207 -0.00144846)
(0.000574613 -0.0187653 -0.00152577)
(-0.00117609 -0.00798256 -0.000855294)
(2.4877e-05 -0.00404311 -0.000543657)
(0.000667912 -0.00280466 -0.000477153)
(0.000968491 -0.0024433 -0.000480075)
(0.00112409 -0.00233075 -0.000490084)
(0.00122519 -0.0022842 -0.000497956)
(0.00129824 -0.00225373 -0.000497753)
(0.00135933 -0.00222992 -0.000485634)
(0.00141392 -0.00220954 -0.0004586)
(0.00146291 -0.00219157 -0.000415049)
(0.0015059 -0.00217601 -0.000355245)
(0.00154203 -0.00216328 -0.000281139)
(0.00157067 -0.00215373 -0.000195642)
(0.00159096 -0.00214712 -0.000101882)
(0.00160252 -0.00214333 -2.86451e-06)
(0.0016049 -0.00214222 9.86632e-05)
(0.00159794 -0.00214388 0.000199879)
(0.00158164 -0.0021485 0.000297397)
(0.00155495 -0.0021535 0.000385989)
(0.00152118 -0.0021648 0.000461454)
(0.00148077 -0.00218265 0.000519594)
(0.00143262 -0.00220086 0.000553716)
(0.00137878 -0.0022217 0.000565169)
(0.0013193 -0.00224415 0.000558698)
(0.00125003 -0.00226703 0.000541923)
(0.00115695 -0.00229021 0.000520944)
(0.00101446 -0.00231981 0.000498013)
(0.000699165 -0.00236326 0.000485973)
(-0.00018713 -0.00235493 0.00060591)
(-0.00275605 -0.00133545 0.00112816)
(-0.00854777 0.00623408 0.00239524)
(0.000885963 0.0266875 0.00356039)
(0.00653478 0.0414419 0.00319053)
(0.0024157 -0.0238468 -0.00144087)
(0.000602315 -0.0190641 -0.00146926)
(-0.0012697 -0.00813599 -0.000801418)
(-6.05001e-06 -0.00412786 -0.0005002)
(0.000669363 -0.002868 -0.000444737)
(0.000982682 -0.00250235 -0.000453985)
(0.0011446 -0.00239072 -0.000466846)
(0.00124961 -0.00234317 -0.000476325)
(0.00132546 -0.00231236 -0.000478123)
(0.00138909 -0.00228834 -0.000468726)
(0.00144601 -0.00226777 -0.000444928)
(0.00149716 -0.00224964 -0.000404771)
(0.0015421 -0.00223397 -0.000348115)
(0.00157997 -0.00222111 -0.000276587)
(0.00160991 -0.00221133 -0.000192995)
(0.00163115 -0.00220466 -0.000100551)
(0.00164312 -0.00220097 -2.37087e-06)
(0.00164537 -0.00220005 9.85926e-05)
(0.0016377 -0.00220196 0.000199269)
(0.00162002 -0.00220691 0.00029599)
(0.00159126 -0.00221215 0.000383153)
(0.00155513 -0.00222397 0.000456397)
(0.00151177 -0.00224267 0.000511302)
(0.00146002 -0.00226163 0.00054106)
(0.0014023 -0.00228326 0.000547413)
(0.00133866 -0.00230634 0.000535608)
(0.00126404 -0.00232933 0.000513736)
(0.00116538 -0.00235373 0.000489649)
(0.00101499 -0.00238551 0.00046327)
(0.000681258 -0.00243627 0.000445826)
(-0.000268371 -0.00245681 0.000565718)
(-0.00301991 -0.0014944 0.00110583)
(-0.00925821 0.00613486 0.002398)
(0.000899825 0.0265027 0.00354206)
(0.00693963 0.0412679 0.00322826)
(0.00254093 -0.0240398 -0.00141197)
(0.000602281 -0.0193056 -0.00138641)
(-0.00140074 -0.00826661 -0.000732216)
(-8.00543e-05 -0.00420222 -0.000446299)
(0.000623033 -0.00292475 -0.000402849)
(0.000945823 -0.00256103 -0.000418965)
(0.00110978 -0.0024439 -0.000432308)
(0.00121288 -0.00239275 -0.000441352)
(0.00128912 -0.0023648 -0.000445129)
(0.00135091 -0.00234066 -0.000437907)
(0.00140606 -0.00231987 -0.000417238)
(0.00145538 -0.00230148 -0.000380886)
(0.00149843 -0.00228557 -0.000328288)
(0.00153435 -0.00227255 -0.000260731)
(0.00156225 -0.00226272 -0.000180849)
(0.00158136 -0.0022561 -9.18509e-05)
(0.0015911 -0.00225252 3.02526e-06)
(0.00159103 -0.00225178 0.000100626)
(0.00158089 -0.00225396 0.000197631)
(0.00155918 -0.0022562 0.000289391)
(0.00152956 -0.00226487 0.000371785)
(0.00149219 -0.00228037 0.000440239)
(0.00144524 -0.0022965 0.000486261)
(0.00139129 -0.00231608 0.000507606)
(0.00133167 -0.00233828 0.000505477)
(0.00126618 -0.00236172 0.000486382)
(0.00118999 -0.00238465 0.000459877)
(0.00108892 -0.00240781 0.000432988)
(0.000934033 -0.00243966 0.000403373)
(0.000585456 -0.00250135 0.000382391)
(-0.000429091 -0.00255621 0.00050421)
(-0.00340847 -0.00163367 0.00106082)
(-0.010116 0.00610741 0.00235189)
(0.000959694 0.0263995 0.00343518)
(0.0079316 0.0416364 0.0032812)
(0.00267263 -0.0242099 -0.0013995)
(0.000625551 -0.0195396 -0.0013247)
(-0.00150546 -0.00841448 -0.000679316)
(-0.000116087 -0.00427853 -0.000403908)
(0.00062286 -0.00297847 -0.000370607)
(0.000958614 -0.0026101 -0.000392641)
(0.00112848 -0.00249242 -0.000408535)
(0.00123556 -0.00244145 -0.000419323)
(0.00131491 -0.00241302 -0.000425195)
(0.00137872 -0.00238755 -0.000420414)
(0.00143611 -0.0023664 -0.000402953)
(0.0014875 -0.00234756 -0.000369956)
(0.00153243 -0.00233115 -0.000320457)
(0.00157 -0.00231765 -0.000255443)
(0.00159922 -0.00230737 -0.000177427)
(0.00161926 -0.00230031 -8.96666e-05)
(0.00162946 -0.00229633 4.4489e-06)
(0.00162934 -0.00229521 0.000101562)
(0.00161696 -0.00229372 0.000197594)
(0.00159523 -0.00229743 0.000288517)
(0.00156547 -0.00230908 0.000370954)
(0.00152497 -0.0023224 0.00043661)
(0.00147518 -0.00233826 0.000479494)
(0.00141816 -0.00235755 0.000496665)
(0.00135522 -0.00237947 0.000489632)
(0.00128614 -0.00240255 0.000465468)
(0.00120566 -0.00242504 0.000434465)
(0.00109953 -0.00244818 0.000404206)
(0.000937101 -0.00248077 0.000370719)
(0.000569544 -0.00255117 0.000345992)
(-0.000515432 -0.00263505 0.000470802)
(-0.00372702 -0.00173605 0.00104622)
(-0.0108361 0.00606605 0.00234717)
(0.000972978 0.0262981 0.00342376)
(0.00834043 0.0414603 0.00331708)
(0.00279826 -0.0243602 -0.00137016)
(0.000622746 -0.0197335 -0.00124205)
(-0.00164278 -0.00854131 -0.000613665)
(-0.000191436 -0.0043487 -0.000353181)
(0.000577756 -0.00303051 -0.000330834)
(0.000922315 -0.00265762 -0.000357832)
(0.00109454 -0.00253878 -0.000374878)
(0.00120204 -0.00248743 -0.00038626)
(0.00128035 -0.0024591 -0.000393372)
(0.00134273 -0.00243306 -0.00039063)
(0.00139862 -0.00241131 -0.00037605)
(0.00144805 -0.0023914 -0.000346433)
(0.00149137 -0.00237458 -0.000300794)
(0.00152716 -0.00236079 -0.00023957)
(0.00155453 -0.00235026 -0.000165072)
(0.00157266 -0.00234301 -8.05577e-05)
(0.00158087 -0.00233886 1.04681e-05)
(0.00157872 -0.00233761 0.000104449)
(0.00156429 -0.00233623 0.00019707)
(0.00154114 -0.00234116 0.000284312)
(0.00150919 -0.00235278 0.000361983)
(0.00146601 -0.002365 0.000421177)
(0.00141432 -0.00238101 0.000456879)
(0.00135552 -0.0024005 0.000466078)
(0.00129139 -0.0024227 0.000451342)
(0.00122104 -0.00244505 0.000420264)
(0.00113945 -0.00246663 0.000384235)
(0.00103107 -0.00249038 0.000350654)
(0.000863012 -0.00252654 0.000315533)
(0.000475816 -0.00260999 0.00029182)
(-0.000690477 -0.00273142 0.000425272)
(-0.00421084 -0.00184749 0.00101424)
(-0.0117273 0.00605078 0.00227738)
(0.000989235 0.0262297 0.00330643)
(0.00876323 0.0413124 0.00327981)
(0.0029286 -0.0244995 -0.00135849)
(0.000645065 -0.0199415 -0.00118295)
(-0.00174939 -0.00867981 -0.000564014)
(-0.000227095 -0.00442156 -0.000313631)
(0.000578336 -0.00308077 -0.000300548)
(0.000935597 -0.0027018 -0.000332925)
(0.0011142 -0.00258279 -0.000352661)
(0.00122545 -0.00253071 -0.000365536)
(0.00130616 -0.00250124 -0.000374417)
(0.00137183 -0.00247636 -0.000374798)
(0.00142994 -0.00245411 -0.000363267)
(0.00148132 -0.00243321 -0.000336589)
(0.00152636 -0.002415 -0.000293584)
(0.00156401 -0.00240089 -0.000234693)
(0.00159291 -0.00239006 -0.000161855)
(0.00161217 -0.00238253 -7.83742e-05)
(0.00162108 -0.00237812 1.20889e-05)
(0.00161907 -0.00237665 0.000105773)
(0.00160416 -0.00237493 0.000198087)
(0.00158025 -0.0023797 0.00028481)
(0.00154713 -0.00239135 0.000361487)
(0.00150218 -0.00240357 0.000418823)
(0.00144838 -0.00241967 0.000451641)
(0.0013871 -0.00243941 0.000457003)
(0.00132067 -0.00246222 0.00043805)
(0.00124738 -0.00248445 0.000402258)
(0.00116272 -0.00250389 0.000361766)
(0.0010503 -0.00252363 0.00032402)