/*--------------------------------*- C++ -*----------------------------------*\
  =========                 |
  \\      /  F ield         | OpenFOAM: The Open Source CFD Toolbox
   \\    /   O peration     | Website:  https://openfoam.org
    \\  /    A nd           | Version:  13
     \\/     M anipulation  |
\*---------------------------------------------------------------------------*/
FoamFile
{
    format      ascii;
    class       volScalarField;
    location    "87.5";
    object      nut;
}
// * * * * * * * * * * * * * * * * * * * * * * * * * * * * * * * * * * * * * //

dimensions      [0 2 -1 0 0 0 0];

internalField   nonuniform List<scalar> 
315000
(
2.05278e-14
5.37513e-12
1.22627e-10
2.20009e-10
3.18822e-10
4.19212e-10
5.21386e-10
6.25521e-10
7.31725e-10
8.40017e-10
9.5032e-10
1.06246e-09
1.17615e-09
1.29106e-09
1.40674e-09
1.52269e-09
1.63836e-09
1.75316e-09
1.86645e-09
1.97759e-09
2.08591e-09
2.19075e-09
2.29143e-09
2.38732e-09
2.47777e-09
2.56217e-09
2.63995e-09
2.71057e-09
2.77353e-09
2.82837e-09
2.87472e-09
2.91223e-09
2.94064e-09
2.95973e-09
2.96936e-09
2.96947e-09
2.96006e-09
2.94119e-09
2.913e-09
2.8757e-09
2.82955e-09
2.7749e-09
2.71213e-09
2.64169e-09
2.56407e-09
2.47981e-09
2.3895e-09
2.29373e-09
2.19314e-09
2.08839e-09
1.98014e-09
1.86905e-09
1.75579e-09
1.64101e-09
1.52534e-09
1.40937e-09
1.29366e-09
1.1787e-09
1.06493e-09
9.52699e-10
8.42289e-10
7.3387e-10
6.2752e-10
5.23217e-10
4.20849e-10
3.20228e-10
2.21132e-10
1.23375e-10
5.41553e-12
2.06991e-14
5.13854e-13
1.36817e-10
3.1124e-08
5.62172e-08
8.15273e-08
1.07154e-07
1.33177e-07
1.59654e-07
1.86617e-07
2.14072e-07
2.41998e-07
2.70346e-07
2.99046e-07
3.28003e-07
3.57106e-07
3.86226e-07
4.15224e-07
4.43949e-07
4.72246e-07
4.99953e-07
5.26909e-07
5.5295e-07
5.77919e-07
6.01656e-07
6.24013e-07
6.44844e-07
6.64014e-07
6.81396e-07
6.96875e-07
7.10346e-07
7.21718e-07
7.30916e-07
7.37874e-07
7.42548e-07
7.44903e-07
7.44924e-07
7.42612e-07
7.37981e-07
7.31063e-07
7.21907e-07
7.10573e-07
6.9714e-07
6.81697e-07
6.64349e-07
6.45211e-07
6.24408e-07
6.02077e-07
5.78363e-07
5.53415e-07
5.2739e-07
5.00447e-07
4.7275e-07
4.4446e-07
4.15738e-07
3.86739e-07
3.57614e-07
3.28503e-07
2.99533e-07
2.70817e-07
2.42449e-07
2.14499e-07
1.87015e-07
1.60019e-07
1.33504e-07
1.07437e-07
8.17604e-08
5.63918e-08
3.12297e-08
1.37324e-10
5.1583e-13
2.07158e-12
5.52381e-10
3.17396e-07
5.68418e-07
8.18047e-07
1.06769e-06
1.31843e-06
1.57099e-06
1.82576e-06
2.0828e-06
2.34188e-06
2.60248e-06
2.86387e-06
3.12511e-06
3.38516e-06
3.64284e-06
3.89697e-06
4.14631e-06
4.38964e-06
4.62573e-06
4.85342e-06
5.07155e-06
5.27906e-06
5.47488e-06
5.65806e-06
5.82766e-06
5.98284e-06
6.12282e-06
6.24691e-06
6.35446e-06
6.44496e-06
6.51793e-06
6.57302e-06
6.60994e-06
6.62851e-06
6.62864e-06
6.61032e-06
6.57366e-06
6.51882e-06
6.44609e-06
6.35584e-06
6.24851e-06
6.12465e-06
5.98488e-06
5.8299e-06
5.66048e-06
5.47748e-06
5.28181e-06
5.07445e-06
4.85643e-06
4.62884e-06
4.39283e-06
4.14957e-06
3.90026e-06
3.64615e-06
3.38845e-06
3.12836e-06
2.86705e-06
2.60557e-06
2.34485e-06
2.08561e-06
1.82838e-06
1.5734e-06
1.32058e-06
1.06955e-06
8.19565e-07
5.69546e-07
3.18073e-07
5.53647e-10
2.07645e-12
3.80061e-12
1.01358e-09
5.77499e-07
1.02578e-06
1.46635e-06
1.90265e-06
2.33724e-06
2.77179e-06
3.20723e-06
3.6438e-06
4.08112e-06
4.51831e-06
4.95411e-06
5.38698e-06
5.81521e-06
6.23701e-06
6.65058e-06
7.05411e-06
7.44584e-06
7.82406e-06
8.18715e-06
8.53358e-06
8.8619e-06
9.17074e-06
9.45878e-06
9.72479e-06
9.96764e-06
1.01863e-05
1.03798e-05
1.05472e-05
1.06879e-05
1.08013e-05
1.08868e-05
1.09441e-05
1.09728e-05
1.0973e-05
1.09445e-05
1.08875e-05
1.08023e-05
1.06892e-05
1.05488e-05
1.03816e-05
1.01884e-05
9.97e-06
9.72739e-06
9.46159e-06
9.17376e-06
8.86511e-06
8.53696e-06
8.19068e-06
7.82772e-06
7.4496e-06
7.05795e-06
6.65448e-06
6.24094e-06
5.81914e-06
5.39088e-06
4.95794e-06
4.52204e-06
4.08471e-06
3.64722e-06
3.21044e-06
2.77473e-06
2.33988e-06
1.90494e-06
1.46822e-06
1.02718e-06
5.78348e-07
1.0152e-09
3.80684e-12
5.66038e-12
1.50984e-09
8.52694e-07
1.50222e-06
2.13348e-06
2.75313e-06
3.36586e-06
3.97475e-06
4.5815e-06
5.18668e-06
5.78993e-06
6.39016e-06
6.98575e-06
7.57478e-06
8.15516e-06
8.72473e-06
9.28137e-06
9.82304e-06
1.03477e-05
1.08536e-05
1.13387e-05
1.18013e-05
1.22396e-05
1.26519e-05
1.30365e-05
1.33916e-05
1.37159e-05
1.40078e-05
1.42661e-05
1.44896e-05
1.46774e-05
1.48287e-05
1.49427e-05
1.50191e-05
1.50574e-05
1.50575e-05
1.50195e-05
1.49434e-05
1.48297e-05
1.46787e-05
1.44912e-05
1.42679e-05
1.40099e-05
1.37182e-05
1.33942e-05
1.30393e-05
1.26549e-05
1.22428e-05
1.18047e-05
1.13422e-05
1.08572e-05
1.03515e-05
9.82689e-06
9.28529e-06
8.72868e-06
8.15912e-06
7.57871e-06
6.98962e-06
6.39394e-06
5.79359e-06
5.19018e-06
4.58478e-06
3.97778e-06
3.36859e-06
2.75551e-06
2.13545e-06
1.50369e-06
8.53602e-07
1.51161e-09
5.66722e-12
7.50315e-12
2.00178e-09
1.12096e-06
1.95982e-06
2.76708e-06
3.55346e-06
4.3263e-06
5.09036e-06
5.8483e-06
6.6012e-06
7.34884e-06
8.09012e-06
8.8233e-06
9.54634e-06
1.0257e-05
1.0953e-05
1.16322e-05
1.22925e-05
1.29316e-05
1.35476e-05
1.41384e-05
1.47017e-05
1.52354e-05
1.57373e-05
1.62052e-05
1.6637e-05
1.7031e-05
1.73855e-05
1.7699e-05
1.79701e-05
1.81978e-05
1.8381e-05
1.85192e-05
1.86116e-05
1.8658e-05
1.86581e-05
1.8612e-05
1.85198e-05
1.8382e-05
1.81989e-05
1.79715e-05
1.77006e-05
1.73874e-05
1.70332e-05
1.66394e-05
1.62077e-05
1.574e-05
1.52383e-05
1.47048e-05
1.41416e-05
1.35509e-05
1.2935e-05
1.2296e-05
1.16358e-05
1.09567e-05
1.02606e-05
9.54996e-06
8.82688e-06
8.09362e-06
7.35224e-06
6.60445e-06
5.85137e-06
5.0932e-06
4.32887e-06
3.55571e-06
2.76895e-06
1.96124e-06
1.12184e-06
2.00354e-09
7.50998e-12
9.16665e-12
2.44608e-09
1.35958e-06
2.36171e-06
3.31836e-06
4.24465e-06
5.15071e-06
6.04295e-06
6.92506e-06
7.79864e-06
8.66375e-06
9.51936e-06
1.03638e-05
1.1195e-05
1.20107e-05
1.28086e-05
1.35866e-05
1.43425e-05
1.5074e-05
1.57788e-05
1.64546e-05
1.70988e-05
1.77088e-05
1.8282e-05
1.8816e-05
1.93087e-05
1.97579e-05
2.01618e-05
2.05188e-05
2.08275e-05
2.10866e-05
2.12951e-05
2.14522e-05
2.15574e-05
2.16101e-05
2.16102e-05
2.15577e-05
2.14528e-05
2.12959e-05
2.10876e-05
2.08287e-05
2.05202e-05
2.01634e-05
1.97597e-05
1.93107e-05
1.88182e-05
1.82844e-05
1.77113e-05
1.71015e-05
1.64574e-05
1.57817e-05
1.5077e-05
1.43455e-05
1.35898e-05
1.28118e-05
1.20139e-05
1.11982e-05
1.03669e-05
9.52246e-06
8.66675e-06
7.80153e-06
6.92779e-06
6.04548e-06
5.153e-06
4.24667e-06
3.32003e-06
2.36299e-06
1.36039e-06
2.44773e-09
9.17309e-12
1.05368e-11
2.81224e-09
1.55378e-06
2.68547e-06
3.75931e-06
4.79451e-06
5.80365e-06
6.79464e-06
7.77204e-06
8.73796e-06
9.69271e-06
1.06354e-05
1.15645e-05
1.24778e-05
1.33733e-05
1.42487e-05
1.51017e-05
1.59301e-05
1.67317e-05
1.75039e-05
1.8244e-05
1.89492e-05
1.96166e-05
2.02434e-05
2.08271e-05
2.13653e-05
2.18559e-05
2.22969e-05
2.26866e-05
2.30234e-05
2.33061e-05
2.35336e-05
2.3705e-05
2.38196e-05
2.38771e-05
2.38772e-05
2.38199e-05
2.37054e-05
2.35343e-05
2.3307e-05
2.30245e-05
2.26878e-05
2.22983e-05
2.18575e-05
2.13671e-05
2.0829e-05
2.02454e-05
1.96187e-05
1.89515e-05
1.82464e-05
1.75064e-05
1.67343e-05
1.59328e-05
1.51044e-05
1.42514e-05
1.33761e-05
1.24806e-05
1.15672e-05
1.06381e-05
9.69535e-06
8.7405e-06
7.77445e-06
6.79687e-06
5.80567e-06
4.79629e-06
3.7608e-06
2.68661e-06
1.5545e-06
2.81375e-09
1.05428e-11
1.15722e-11
3.08909e-09
1.69922e-06
2.92616e-06
4.08548e-06
5.19972e-06
6.28342e-06
7.34567e-06
8.39171e-06
9.42403e-06
1.04432e-05
1.14484e-05
1.24381e-05
1.34104e-05
1.43631e-05
1.5294e-05
1.62009e-05
1.70815e-05
1.79333e-05
1.87538e-05
1.95399e-05
2.02887e-05
2.0997e-05
2.16621e-05
2.22813e-05
2.28521e-05
2.33722e-05
2.38397e-05
2.42527e-05
2.46096e-05
2.49091e-05
2.51501e-05
2.53317e-05
2.54531e-05
2.5514e-05
2.55141e-05
2.54534e-05
2.53321e-05
2.51507e-05
2.49099e-05
2.46105e-05
2.42537e-05
2.38409e-05
2.33736e-05
2.28536e-05
2.2283e-05
2.16639e-05
2.0999e-05
2.02907e-05
1.95421e-05
1.8756e-05
1.79356e-05
1.70838e-05
1.62033e-05
1.52965e-05
1.43656e-05
1.34129e-05
1.24406e-05
1.14508e-05
1.04455e-05
9.42631e-06
8.39387e-06
7.34768e-06
6.28525e-06
5.20133e-06
4.08682e-06
2.92719e-06
1.69987e-06
3.09049e-09
1.15777e-11
1.22946e-11
3.28236e-09
1.80008e-06
3.09224e-06
4.30982e-06
5.4778e-06
6.6121e-06
7.72267e-06
8.81523e-06
9.89255e-06
1.09553e-05
1.20029e-05
1.30338e-05
1.4046e-05
1.50376e-05
1.60061e-05
1.69496e-05
1.78655e-05
1.87516e-05
1.96048e-05
2.04221e-05
2.12005e-05
2.19366e-05
2.26277e-05
2.32709e-05
2.38638e-05
2.4404e-05
2.48894e-05
2.53182e-05
2.56888e-05
2.59998e-05
2.625e-05
2.64385e-05
2.65645e-05
2.66277e-05
2.66278e-05
2.65648e-05
2.64388e-05
2.62505e-05
2.60005e-05
2.56897e-05
2.53192e-05
2.48906e-05
2.44053e-05
2.38652e-05
2.32725e-05
2.26294e-05
2.19384e-05
2.12024e-05
2.04242e-05
1.96069e-05
1.87537e-05
1.78678e-05
1.69518e-05
1.60085e-05
1.50399e-05
1.40484e-05
1.30361e-05
1.20052e-05
1.09575e-05
9.89469e-06
8.81726e-06
7.72456e-06
6.61382e-06
5.4793e-06
4.31108e-06
3.09321e-06
1.8007e-06
3.28369e-09
1.22998e-11
1.27627e-11
3.40771e-09
1.86522e-06
3.19917e-06
4.45399e-06
5.65628e-06
6.82291e-06
7.96434e-06
9.08662e-06
1.01927e-05
1.12834e-05
1.23581e-05
1.34153e-05
1.44532e-05
1.54697e-05
1.64625e-05
1.74294e-05
1.83682e-05
1.92761e-05
2.01505e-05
2.09879e-05
2.17853e-05
2.25393e-05
2.32471e-05
2.39059e-05
2.4513e-05
2.50661e-05
2.55631e-05
2.60021e-05
2.63815e-05
2.66999e-05
2.6956e-05
2.7149e-05
2.7278e-05
2.73427e-05
2.73428e-05
2.72782e-05
2.71493e-05
2.69566e-05
2.67006e-05
2.63824e-05
2.60031e-05
2.55642e-05
2.50673e-05
2.45144e-05
2.39074e-05
2.32488e-05
2.25411e-05
2.17871e-05
2.09899e-05
2.01525e-05
1.92783e-05
1.83703e-05
1.74316e-05
1.64647e-05
1.54719e-05
1.44555e-05
1.34176e-05
1.23603e-05
1.12856e-05
1.01948e-05
9.0886e-06
7.96618e-06
6.82458e-06
5.65775e-06
4.45522e-06
3.20011e-06
1.86582e-06
3.40901e-09
1.27679e-11
1.30461e-11
3.48364e-09
1.90459e-06
3.26369e-06
4.54091e-06
5.76384e-06
6.94992e-06
8.10994e-06
9.25016e-06
1.03736e-05
1.14812e-05
1.25723e-05
1.36455e-05
1.4699e-05
1.57306e-05
1.67381e-05
1.77194e-05
1.8672e-05
1.95934e-05
2.04806e-05
2.13303e-05
2.21393e-05
2.29043e-05
2.36223e-05
2.42905e-05
2.49063e-05
2.54674e-05
2.59715e-05
2.64168e-05
2.68016e-05
2.71245e-05
2.73842e-05
2.75799e-05
2.77108e-05
2.77764e-05
2.77764e-05
2.7711e-05
2.75803e-05
2.73848e-05
2.71251e-05
2.68024e-05
2.64178e-05
2.59726e-05
2.54686e-05
2.49077e-05
2.42921e-05
2.3624e-05
2.29061e-05
2.21412e-05
2.13323e-05
2.04826e-05
1.95955e-05
1.86742e-05
1.77216e-05
1.67404e-05
1.57329e-05
1.47013e-05
1.36478e-05
1.25745e-05
1.14834e-05
1.03757e-05
9.25215e-06
8.11179e-06
6.95159e-06
5.76531e-06
4.54214e-06
3.26464e-06
1.90519e-06
3.48495e-09
1.30513e-11
1.32072e-11
3.52682e-09
1.92696e-06
3.30032e-06
4.59023e-06
5.82488e-06
7.02203e-06
8.19265e-06
9.3431e-06
1.04765e-05
1.15937e-05
1.26942e-05
1.37766e-05
1.48391e-05
1.58794e-05
1.68954e-05
1.78849e-05
1.88456e-05
1.97747e-05
2.06694e-05
2.15262e-05
2.23419e-05
2.31133e-05
2.38372e-05
2.45109e-05
2.51318e-05
2.56974e-05
2.62056e-05
2.66546e-05
2.70425e-05
2.7368e-05
2.76299e-05
2.78272e-05
2.79591e-05
2.80252e-05
2.80253e-05
2.79593e-05
2.78276e-05
2.76304e-05
2.73687e-05
2.70434e-05
2.66556e-05
2.62068e-05
2.56987e-05
2.51332e-05
2.45125e-05
2.38389e-05
2.3115e-05
2.23438e-05
2.15282e-05
2.06714e-05
1.97769e-05
1.88478e-05
1.78872e-05
1.68977e-05
1.58817e-05
1.48414e-05
1.37789e-05
1.26965e-05
1.15959e-05
1.04786e-05
9.34511e-06
8.19452e-06
7.02372e-06
5.82637e-06
4.59148e-06
3.30127e-06
1.92757e-06
3.52815e-09
1.32124e-11
1.32935e-11
3.54997e-09
1.93894e-06
3.31994e-06
4.61667e-06
5.85762e-06
7.06071e-06
8.23705e-06
9.39303e-06
1.05318e-05
1.16543e-05
1.27599e-05
1.38473e-05
1.49146e-05
1.59597e-05
1.69803e-05
1.79744e-05
1.89394e-05
1.98728e-05
2.07716e-05
2.16323e-05
2.24517e-05
2.32266e-05
2.39538e-05
2.46305e-05
2.52542e-05
2.58223e-05
2.63328e-05
2.67838e-05
2.71735e-05
2.75004e-05
2.77635e-05
2.79616e-05
2.80941e-05
2.81606e-05
2.81606e-05
2.80944e-05
2.7962e-05
2.7764e-05
2.75011e-05
2.71743e-05
2.67848e-05
2.6334e-05
2.58236e-05
2.52556e-05
2.46321e-05
2.39555e-05
2.32284e-05
2.24537e-05
2.16343e-05
2.07737e-05
1.9875e-05
1.89417e-05
1.79767e-05
1.69827e-05
1.5962e-05
1.49169e-05
1.38496e-05
1.27622e-05
1.16565e-05
1.0534e-05
9.39507e-06
8.23895e-06
7.06244e-06
5.85913e-06
4.61794e-06
3.32091e-06
1.93956e-06
3.55131e-09
1.32988e-11
1.33372e-11
3.56171e-09
1.94502e-06
3.3299e-06
4.63009e-06
5.87424e-06
7.08037e-06
8.25963e-06
9.41845e-06
1.056e-05
1.16852e-05
1.27934e-05
1.38834e-05
1.49532e-05
1.60008e-05
1.70238e-05
1.80202e-05
1.89876e-05
1.99232e-05
2.08241e-05
2.16868e-05
2.25082e-05
2.32848e-05
2.40138e-05
2.46921e-05
2.53172e-05
2.58867e-05
2.63984e-05
2.68504e-05
2.7241e-05
2.75687e-05
2.78324e-05
2.8031e-05
2.81638e-05
2.82304e-05
2.82305e-05
2.81641e-05
2.80314e-05
2.78329e-05
2.75694e-05
2.72419e-05
2.68514e-05
2.63996e-05
2.5888e-05
2.53187e-05
2.46937e-05
2.40155e-05
2.32867e-05
2.25101e-05
2.16889e-05
2.08262e-05
1.99254e-05
1.89899e-05
1.80226e-05
1.70262e-05
1.60031e-05
1.49556e-05
1.38858e-05
1.27958e-05
1.16874e-05
1.05622e-05
9.42052e-06
8.26155e-06
7.08212e-06
5.87577e-06
4.63137e-06
3.33088e-06
1.94565e-06
3.56307e-09
1.33425e-11
1.33582e-11
3.56736e-09
1.94795e-06
3.33469e-06
4.63655e-06
5.88225e-06
7.08986e-06
8.27054e-06
9.43074e-06
1.05736e-05
1.17001e-05
1.28097e-05
1.39009e-05
1.4972e-05
1.60207e-05
1.7045e-05
1.80426e-05
1.90111e-05
1.99478e-05
2.08497e-05
2.17135e-05
2.25358e-05
2.33134e-05
2.40431e-05
2.47222e-05
2.53481e-05
2.59182e-05
2.64305e-05
2.68831e-05
2.72741e-05
2.76022e-05
2.78662e-05
2.8065e-05
2.8198e-05
2.82647e-05
2.82648e-05
2.81983e-05
2.80654e-05
2.78667e-05
2.76029e-05
2.7275e-05
2.68841e-05
2.64317e-05
2.59196e-05
2.53496e-05
2.47239e-05
2.40449e-05
2.33152e-05
2.25378e-05
2.17156e-05
2.08519e-05
1.995e-05
1.90134e-05
1.80449e-05
1.70474e-05
1.60231e-05
1.49744e-05
1.39033e-05
1.2812e-05
1.17024e-05
1.05758e-05
9.43283e-06
8.27248e-06
7.09162e-06
5.8838e-06
4.63785e-06
3.33569e-06
1.94858e-06
3.56872e-09
1.33636e-11
1.33678e-11
3.56994e-09
1.94929e-06
3.33689e-06
4.63952e-06
5.88593e-06
7.09422e-06
8.27556e-06
9.4364e-06
1.05799e-05
1.1707e-05
1.28172e-05
1.3909e-05
1.49807e-05
1.603e-05
1.70548e-05
1.80529e-05
1.90219e-05
1.99592e-05
2.08616e-05
2.17259e-05
2.25486e-05
2.33266e-05
2.40568e-05
2.47363e-05
2.53625e-05
2.5933e-05
2.64455e-05
2.68983e-05
2.72896e-05
2.76179e-05
2.7882e-05
2.80809e-05
2.8214e-05
2.82807e-05
2.82808e-05
2.82142e-05
2.80813e-05
2.78825e-05
2.76186e-05
2.72905e-05
2.68994e-05
2.64468e-05
2.59343e-05
2.5364e-05
2.47379e-05
2.40586e-05
2.33285e-05
2.25506e-05
2.1728e-05
2.08638e-05
1.99615e-05
1.90243e-05
1.80553e-05
1.70572e-05
1.60324e-05
1.49831e-05
1.39114e-05
1.28196e-05
1.17093e-05
1.05821e-05
9.4385e-06
8.27751e-06
7.09599e-06
5.88749e-06
4.64082e-06
3.33789e-06
1.94993e-06
3.57132e-09
1.33732e-11
1.3372e-11
3.57107e-09
1.94987e-06
3.33785e-06
4.64082e-06
5.88755e-06
7.09613e-06
8.27776e-06
9.43889e-06
1.05827e-05
1.17101e-05
1.28205e-05
1.39126e-05
1.49845e-05
1.60341e-05
1.70592e-05
1.80575e-05
1.90268e-05
1.99643e-05
2.08669e-05
2.17314e-05
2.25543e-05
2.33325e-05
2.40629e-05
2.47426e-05
2.53689e-05
2.59395e-05
2.64522e-05
2.69051e-05
2.72965e-05
2.76248e-05
2.7889e-05
2.8088e-05
2.82211e-05
2.82878e-05
2.82879e-05
2.82214e-05
2.80884e-05
2.78896e-05
2.76256e-05
2.72974e-05
2.69062e-05
2.64534e-05
2.59409e-05
2.53704e-05
2.47442e-05
2.40647e-05
2.33344e-05
2.25563e-05
2.17335e-05
2.08691e-05
1.99665e-05
1.90291e-05
1.80599e-05
1.70616e-05
1.60365e-05
1.49869e-05
1.3915e-05
1.28229e-05
1.17124e-05
1.05849e-05
9.44099e-06
8.27972e-06
7.09791e-06
5.8891e-06
4.64212e-06
3.33885e-06
1.95051e-06
3.57245e-09
1.33774e-11
1.33738e-11
3.57154e-09
1.95012e-06
3.33825e-06
4.64136e-06
5.88822e-06
7.09694e-06
8.27869e-06
9.43993e-06
1.05838e-05
1.17113e-05
1.28219e-05
1.39141e-05
1.49861e-05
1.60358e-05
1.7061e-05
1.80595e-05
1.90288e-05
1.99664e-05
2.08691e-05
2.17337e-05
2.25568e-05
2.33351e-05
2.40655e-05
2.47452e-05
2.53716e-05
2.59423e-05
2.64551e-05
2.6908e-05
2.72994e-05
2.76278e-05
2.7892e-05
2.8091e-05
2.82242e-05
2.82909e-05
2.8291e-05
2.82244e-05
2.80915e-05
2.78926e-05
2.76286e-05
2.73003e-05
2.69091e-05
2.64563e-05
2.59437e-05
2.53731e-05
2.47469e-05
2.40673e-05
2.33369e-05
2.25588e-05
2.17358e-05
2.08713e-05
1.99687e-05
1.90312e-05
1.80618e-05
1.70634e-05
1.60382e-05
1.49886e-05
1.39165e-05
1.28243e-05
1.17137e-05
1.05861e-05
9.44204e-06
8.28064e-06
7.09871e-06
5.88978e-06
4.64266e-06
3.33925e-06
1.95076e-06
3.57292e-09
1.33792e-11
1.33745e-11
3.57173e-09
1.95022e-06
3.33841e-06
4.64158e-06
5.88849e-06
7.09726e-06
8.27906e-06
9.44035e-06
1.05843e-05
1.17119e-05
1.28225e-05
1.39147e-05
1.49868e-05
1.60365e-05
1.70617e-05
1.80603e-05
1.90297e-05
1.99673e-05
2.08701e-05
2.17347e-05
2.25578e-05
2.33361e-05
2.40665e-05
2.47463e-05
2.53728e-05
2.59435e-05
2.64562e-05
2.69092e-05
2.73006e-05
2.7629e-05
2.78932e-05
2.80923e-05
2.82254e-05
2.82921e-05
2.82922e-05
2.82257e-05
2.80927e-05
2.78938e-05
2.76298e-05
2.73015e-05
2.69103e-05
2.64575e-05
2.59448e-05
2.53743e-05
2.4748e-05
2.40683e-05
2.3338e-05
2.25598e-05
2.17368e-05
2.08723e-05
1.99696e-05
1.9032e-05
1.80626e-05
1.70642e-05
1.60389e-05
1.49892e-05
1.39171e-05
1.28248e-05
1.17142e-05
1.05865e-05
9.44246e-06
8.28102e-06
7.09904e-06
5.89005e-06
4.64288e-06
3.33942e-06
1.95086e-06
3.57311e-09
1.33799e-11
1.33747e-11
3.5718e-09
1.95025e-06
3.33847e-06
4.64166e-06
5.8886e-06
7.09738e-06
8.2792e-06
9.44052e-06
1.05845e-05
1.17121e-05
1.28227e-05
1.3915e-05
1.4987e-05
1.60368e-05
1.7062e-05
1.80606e-05
1.903e-05
1.99676e-05
2.08704e-05
2.1735e-05
2.25581e-05
2.33365e-05
2.4067e-05
2.47467e-05
2.53732e-05
2.59439e-05
2.64567e-05
2.69097e-05
2.73011e-05
2.76295e-05
2.78937e-05
2.80928e-05
2.82259e-05
2.82926e-05
2.82927e-05
2.82261e-05
2.80932e-05
2.78943e-05
2.76303e-05
2.7302e-05
2.69107e-05
2.64579e-05
2.59453e-05
2.53747e-05
2.47484e-05
2.40687e-05
2.33384e-05
2.25602e-05
2.17372e-05
2.08726e-05
1.99699e-05
1.90323e-05
1.80629e-05
1.70645e-05
1.60392e-05
1.49895e-05
1.39174e-05
1.28251e-05
1.17144e-05
1.05867e-05
9.44262e-06
8.28116e-06
7.09916e-06
5.89016e-06
4.64297e-06
3.33948e-06
1.9509e-06
3.57318e-09
1.33802e-11
1.33748e-11
3.57183e-09
1.95027e-06
3.3385e-06
4.64169e-06
5.88864e-06
7.09743e-06
8.27926e-06
9.44058e-06
1.05846e-05
1.17121e-05
1.28228e-05
1.39151e-05
1.49871e-05
1.60369e-05
1.70621e-05
1.80607e-05
1.90301e-05
1.99677e-05
2.08705e-05
2.17352e-05
2.25583e-05
2.33366e-05
2.40671e-05
2.47469e-05
2.53734e-05
2.59441e-05
2.64569e-05
2.69098e-05
2.73013e-05
2.76297e-05
2.78939e-05
2.8093e-05
2.82261e-05
2.82928e-05
2.82929e-05
2.82263e-05
2.80934e-05
2.78945e-05
2.76304e-05
2.73022e-05
2.69109e-05
2.64581e-05
2.59454e-05
2.53749e-05
2.47486e-05
2.40689e-05
2.33385e-05
2.25603e-05
2.17373e-05
2.08727e-05
1.997e-05
1.90324e-05
1.80631e-05
1.70646e-05
1.60393e-05
1.49896e-05
1.39175e-05
1.28251e-05
1.17144e-05
1.05868e-05
9.44268e-06
8.28122e-06
7.09921e-06
5.8902e-06
4.643e-06
3.3395e-06
1.95091e-06
3.57321e-09
1.33803e-11
1.33749e-11
3.57184e-09
1.95027e-06
3.33851e-06
4.6417e-06
5.88865e-06
7.09745e-06
8.27927e-06
9.4406e-06
1.05846e-05
1.17122e-05
1.28228e-05
1.39151e-05
1.49872e-05
1.60369e-05
1.70622e-05
1.80607e-05
1.90301e-05
1.99678e-05
2.08706e-05
2.17352e-05
2.25583e-05
2.33367e-05
2.40672e-05
2.4747e-05
2.53734e-05
2.59441e-05
2.64569e-05
2.69099e-05
2.73013e-05
2.76298e-05
2.7894e-05
2.8093e-05
2.82261e-05
2.82929e-05
2.8293e-05
2.82264e-05
2.80934e-05
2.78946e-05
2.76305e-05
2.73022e-05
2.6911e-05
2.64582e-05
2.59455e-05
2.53749e-05
2.47486e-05
2.4069e-05
2.33386e-05
2.25604e-05
2.17373e-05
2.08728e-05
1.99701e-05
1.90325e-05
1.80631e-05
1.70646e-05
1.60394e-05
1.49896e-05
1.39175e-05
1.28252e-05
1.17145e-05
1.05868e-05
9.44271e-06
8.28124e-06
7.09923e-06
5.89021e-06
4.64301e-06
3.33951e-06
1.95092e-06
3.57322e-09
1.33803e-11
1.33749e-11
3.57184e-09
1.95028e-06
3.33851e-06
4.64171e-06
5.88865e-06
7.09745e-06
8.27928e-06
9.44061e-06
1.05846e-05
1.17122e-05
1.28228e-05
1.39151e-05
1.49872e-05
1.60369e-05
1.70622e-05
1.80607e-05
1.90302e-05
1.99678e-05
2.08706e-05
2.17353e-05
2.25584e-05
2.33367e-05
2.40672e-05
2.4747e-05
2.53734e-05
2.59442e-05
2.6457e-05
2.69099e-05
2.73014e-05
2.76298e-05
2.7894e-05
2.8093e-05
2.82262e-05
2.82929e-05
2.8293e-05
2.82264e-05
2.80935e-05
2.78946e-05
2.76305e-05
2.73023e-05
2.6911e-05
2.64582e-05
2.59455e-05
2.5375e-05
2.47486e-05
2.4069e-05
2.33386e-05
2.25604e-05
2.17374e-05
2.08728e-05
1.99701e-05
1.90325e-05
1.80631e-05
1.70646e-05
1.60394e-05
1.49896e-05
1.39175e-05
1.28252e-05
1.17145e-05
1.05868e-05
9.44271e-06
8.28124e-06
7.09923e-06
5.89022e-06
4.64302e-06
3.33951e-06
1.95092e-06
3.57322e-09
1.33803e-11
1.33749e-11
3.57184e-09
1.95028e-06
3.33851e-06
4.64171e-06
5.88866e-06
7.09745e-06
8.27928e-06
9.44061e-06
1.05846e-05
1.17122e-05
1.28228e-05
1.39151e-05
1.49872e-05
1.60369e-05
1.70622e-05
1.80607e-05
1.90302e-05
1.99678e-05
2.08706e-05
2.17353e-05
2.25584e-05
2.33367e-05
2.40672e-05
2.4747e-05
2.53734e-05
2.59442e-05
2.6457e-05
2.69099e-05
2.73014e-05
2.76298e-05
2.7894e-05
2.80931e-05
2.82262e-05
2.82929e-05
2.8293e-05
2.82264e-05
2.80935e-05
2.78946e-05
2.76305e-05
2.73023e-05
2.6911e-05
2.64582e-05
2.59455e-05
2.5375e-05
2.47486e-05
2.4069e-05
2.33386e-05
2.25604e-05
2.17374e-05
2.08728e-05
1.99701e-05
1.90325e-05
1.80631e-05
1.70646e-05
1.60394e-05
1.49896e-05
1.39175e-05
1.28252e-05
1.17145e-05
1.05868e-05
9.44272e-06
8.28124e-06
7.09923e-06
5.89022e-06
4.64302e-06
3.33951e-06
1.95092e-06
3.57322e-09
1.33803e-11
1.33749e-11
3.57184e-09
1.95028e-06
3.33851e-06
4.64171e-06
5.88866e-06
7.09745e-06
8.27928e-06
9.44061e-06
1.05846e-05
1.17122e-05
1.28228e-05
1.39151e-05
1.49872e-05
1.60369e-05
1.70622e-05
1.80607e-05
1.90302e-05
1.99678e-05
2.08706e-05
2.17353e-05
2.25584e-05
2.33367e-05
2.40672e-05
2.4747e-05
2.53734e-05
2.59442e-05
2.6457e-05
2.69099e-05
2.73014e-05
2.76298e-05
2.7894e-05
2.80931e-05
2.82262e-05
2.82929e-05
2.8293e-05
2.82264e-05
2.80935e-05
2.78946e-05
2.76305e-05
2.73023e-05
2.6911e-05
2.64582e-05
2.59455e-05
2.5375e-05
2.47486e-05
2.4069e-05
2.33386e-05
2.25604e-05
2.17374e-05
2.08728e-05
1.99701e-05
1.90325e-05
1.80631e-05
1.70646e-05
1.60394e-05
1.49896e-05
1.39175e-05
1.28252e-05
1.17145e-05
1.05868e-05
9.44272e-06
8.28124e-06
7.09923e-06
5.89022e-06
4.64302e-06
3.33951e-06
1.95092e-06
3.57323e-09
1.33803e-11
1.33749e-11
3.57184e-09
1.95028e-06
3.33851e-06
4.64171e-06
5.88866e-06
7.09745e-06
8.27928e-06
9.44061e-06
1.05846e-05
1.17122e-05
1.28228e-05
1.39151e-05
1.49872e-05
1.60369e-05
1.70622e-05
1.80607e-05
1.90302e-05
1.99678e-05
2.08706e-05
2.17353e-05
2.25584e-05
2.33367e-05
2.40672e-05
2.4747e-05
2.53734e-05
2.59442e-05
2.6457e-05
2.69099e-05
2.73014e-05
2.76298e-05
2.7894e-05
2.80931e-05
2.82262e-05
2.82929e-05
2.8293e-05
2.82264e-05
2.80935e-05
2.78946e-05
2.76305e-05
2.73023e-05
2.6911e-05
2.64582e-05
2.59455e-05
2.5375e-05
2.47486e-05
2.4069e-05
2.33386e-05
2.25604e-05
2.17374e-05
2.08728e-05
1.99701e-05
1.90325e-05
1.80631e-05
1.70646e-05
1.60394e-05
1.49896e-05
1.39175e-05
1.28252e-05
1.17145e-05
1.05868e-05
9.44272e-06
8.28125e-06
7.09923e-06
5.89022e-06
4.64302e-06
3.33951e-06
1.95092e-06
3.57323e-09
1.33803e-11
1.33749e-11
3.57184e-09
1.95028e-06
3.33851e-06
4.64171e-06
5.88866e-06
7.09745e-06
8.27928e-06
9.44061e-06
1.05846e-05
1.17122e-05
1.28228e-05
1.39151e-05
1.49872e-05
1.60369e-05
1.70622e-05
1.80607e-05
1.90302e-05
1.99678e-05
2.08706e-05
2.17353e-05
2.25584e-05
2.33367e-05
2.40672e-05
2.4747e-05
2.53734e-05
2.59442e-05
2.6457e-05
2.69099e-05
2.73014e-05
2.76298e-05
2.7894e-05
2.80931e-05
2.82262e-05
2.82929e-05
2.8293e-05
2.82264e-05
2.80935e-05
2.78946e-05
2.76305e-05
2.73023e-05
2.6911e-05
2.64582e-05
2.59455e-05
2.5375e-05
2.47486e-05
2.4069e-05
2.33386e-05
2.25604e-05
2.17374e-05
2.08728e-05
1.99701e-05
1.90325e-05
1.80631e-05
1.70646e-05
1.60394e-05
1.49896e-05
1.39175e-05
1.28252e-05
1.17145e-05
1.05868e-05
9.44272e-06
8.28125e-06
7.09923e-06
5.89022e-06
4.64302e-06
3.33951e-06
1.95092e-06
3.57323e-09
1.33803e-11
1.33749e-11
3.57184e-09
1.95028e-06
3.33851e-06
4.64171e-06
5.88866e-06
7.09745e-06
8.27928e-06
9.44061e-06
1.05846e-05
1.17122e-05
1.28228e-05
1.39151e-05
1.49872e-05
1.60369e-05
1.70622e-05
1.80607e-05
1.90302e-05
1.99678e-05
2.08706e-05
2.17353e-05
2.25584e-05
2.33367e-05
2.40672e-05
2.4747e-05
2.53734e-05
2.59442e-05
2.6457e-05
2.69099e-05
2.73014e-05
2.76298e-05
2.7894e-05
2.80931e-05
2.82262e-05
2.82929e-05
2.8293e-05
2.82264e-05
2.80935e-05
2.78946e-05
2.76305e-05
2.73023e-05
2.6911e-05
2.64582e-05
2.59455e-05
2.5375e-05
2.47486e-05
2.4069e-05
2.33386e-05
2.25604e-05
2.17374e-05
2.08728e-05
1.99701e-05
1.90325e-05
1.80631e-05
1.70646e-05
1.60394e-05
1.49896e-05
1.39175e-05
1.28252e-05
1.17145e-05
1.05868e-05
9.44272e-06
8.28125e-06
7.09923e-06
5.89022e-06
4.64302e-06
3.33951e-06
1.95092e-06
3.57323e-09
1.33803e-11
1.33749e-11
3.57184e-09
1.95028e-06
3.33851e-06
4.64171e-06
5.88866e-06
7.09745e-06
8.27928e-06
9.44061e-06
1.05846e-05
1.17122e-05
1.28228e-05
1.39151e-05
1.49872e-05
1.60369e-05
1.70622e-05
1.80607e-05
1.90302e-05
1.99678e-05
2.08706e-05
2.17353e-05
2.25584e-05
2.33367e-05
2.40672e-05
2.4747e-05
2.53734e-05
2.59442e-05
2.6457e-05
2.69099e-05
2.73014e-05
2.76298e-05
2.7894e-05
2.80931e-05
2.82262e-05
2.82929e-05
2.8293e-05
2.82264e-05
2.80935e-05
2.78946e-05
2.76305e-05
2.73023e-05
2.6911e-05
2.64582e-05
2.59455e-05
2.5375e-05
2.47486e-05
2.4069e-05
2.33386e-05
2.25604e-05
2.17374e-05
2.08728e-05
1.99701e-05
1.90325e-05
1.80631e-05
1.70646e-05
1.60394e-05
1.49896e-05
1.39175e-05
1.28252e-05
1.17145e-05
1.05868e-05
9.44272e-06
8.28125e-06
7.09923e-06
5.89022e-06
4.64302e-06
3.33951e-06
1.95092e-06
3.57323e-09
1.33803e-11
1.33749e-11
3.57184e-09
1.95028e-06
3.33851e-06
4.64171e-06
5.88866e-06
7.09745e-06
8.27928e-06
9.44061e-06
1.05846e-05
1.17122e-05
1.28228e-05
1.39151e-05
1.49872e-05
1.60369e-05
1.70622e-05
1.80607e-05
1.90302e-05
1.99678e-05
2.08706e-05
2.17353e-05
2.25584e-05
2.33367e-05
2.40672e-05
2.4747e-05
2.53734e-05
2.59442e-05
2.6457e-05
2.69099e-05
2.73014e-05
2.76298e-05
2.7894e-05
2.80931e-05
2.82262e-05
2.82929e-05
2.8293e-05
2.82264e-05
2.80935e-05
2.78946e-05
2.76305e-05
2.73023e-05
2.6911e-05
2.64582e-05
2.59455e-05
2.5375e-05
2.47486e-05
2.4069e-05
2.33386e-05
2.25604e-05
2.17374e-05
2.08728e-05
1.99701e-05
1.90325e-05
1.80631e-05
1.70646e-05
1.60394e-05
1.49896e-05
1.39175e-05
1.28252e-05
1.17145e-05
1.05868e-05
9.44272e-06
8.28125e-06
7.09923e-06
5.89022e-06
4.64302e-06
3.33951e-06
1.95092e-06
3.57323e-09
1.33803e-11
1.33749e-11
3.57184e-09
1.95028e-06
3.33851e-06
4.64171e-06
5.88866e-06
7.09745e-06
8.27928e-06
9.44061e-06
1.05846e-05
1.17122e-05
1.28228e-05
1.39151e-05
1.49872e-05
1.60369e-05
1.70622e-05
1.80607e-05
1.90302e-05
1.99678e-05
2.08706e-05
2.17353e-05
2.25584e-05
2.33367e-05
2.40672e-05
2.4747e-05
2.53734e-05
2.59442e-05
2.6457e-05
2.69099e-05
2.73014e-05
2.76298e-05
2.7894e-05
2.80931e-05
2.82262e-05
2.82929e-05
2.8293e-05
2.82264e-05
2.80935e-05
2.78946e-05
2.76305e-05
2.73023e-05
2.6911e-05
2.64582e-05
2.59455e-05
2.5375e-05
2.47486e-05
2.4069e-05
2.33386e-05
2.25604e-05
2.17374e-05
2.08728e-05
1.99701e-05
1.90325e-05
1.80631e-05
1.70646e-05
1.60394e-05
1.49896e-05
1.39175e-05
1.28252e-05
1.17145e-05
1.05868e-05
9.44272e-06
8.28125e-06
7.09923e-06
5.89022e-06
4.64302e-06
3.33951e-06
1.95092e-06
3.57323e-09
1.33803e-11
1.33749e-11
3.57184e-09
1.95028e-06
3.33851e-06
4.64171e-06
5.88866e-06
7.09745e-06
8.27928e-06
9.44061e-06
1.05846e-05
1.17122e-05
1.28228e-05
1.39151e-05
1.49872e-05
1.60369e-05
1.70622e-05
1.80607e-05
1.90302e-05
1.99678e-05
2.08706e-05
2.17353e-05
2.25584e-05
2.33367e-05
2.40672e-05
2.4747e-05
2.53734e-05
2.59442e-05
2.6457e-05
2.69099e-05
2.73014e-05
2.76298e-05
2.7894e-05
2.80931e-05
2.82262e-05
2.82929e-05
2.8293e-05
2.82264e-05
2.80935e-05
2.78946e-05
2.76305e-05
2.73023e-05
2.6911e-05
2.64582e-05
2.59455e-05
2.5375e-05
2.47486e-05
2.4069e-05
2.33386e-05
2.25604e-05
2.17374e-05
2.08728e-05
1.99701e-05
1.90325e-05
1.80631e-05
1.70646e-05
1.60394e-05
1.49896e-05
1.39175e-05
1.28252e-05
1.17145e-05
1.05868e-05
9.44272e-06
8.28125e-06
7.09923e-06
5.89022e-06
4.64302e-06
3.33951e-06
1.95092e-06
3.57323e-09
1.33803e-11
1.33749e-11
3.57184e-09
1.95028e-06
3.33851e-06
4.64171e-06
5.88866e-06
7.09745e-06
8.27928e-06
9.44061e-06
1.05846e-05
1.17122e-05
1.28228e-05
1.39151e-05
1.49872e-05
1.60369e-05
1.70622e-05
1.80607e-05
1.90302e-05
1.99678e-05
2.08706e-05
2.17353e-05
2.25584e-05
2.33367e-05
2.40672e-05
2.4747e-05
2.53734e-05
2.59442e-05
2.6457e-05
2.69099e-05
2.73014e-05
2.76298e-05
2.7894e-05
2.80931e-05
2.82262e-05
2.82929e-05
2.8293e-05
2.82264e-05
2.80935e-05
2.78946e-05
2.76305e-05
2.73023e-05
2.6911e-05
2.64582e-05
2.59455e-05
2.5375e-05
2.47486e-05
2.4069e-05
2.33386e-05
2.25604e-05
2.17374e-05
2.08728e-05
1.99701e-05
1.90325e-05
1.80631e-05
1.70646e-05
1.60394e-05
1.49896e-05
1.39175e-05
1.28252e-05
1.17145e-05
1.05868e-05
9.44272e-06
8.28125e-06
7.09923e-06
5.89022e-06
4.64302e-06
3.33951e-06
1.95092e-06
3.57323e-09
1.33803e-11
1.33749e-11
3.57184e-09
1.95028e-06
3.33851e-06
4.64171e-06
5.88866e-06
7.09745e-06
8.27928e-06
9.44061e-06
1.05846e-05
1.17122e-05
1.28228e-05
1.39151e-05
1.49872e-05
1.60369e-05
1.70622e-05
1.80607e-05
1.90302e-05
1.99678e-05
2.08706e-05
2.17353e-05
2.25584e-05
2.33367e-05
2.40672e-05
2.4747e-05
2.53734e-05
2.59442e-05
2.6457e-05
2.69099e-05
2.73014e-05
2.76298e-05
2.7894e-05
2.80931e-05
2.82262e-05
2.82929e-05
2.8293e-05
2.82264e-05
2.80935e-05
2.78946e-05
2.76305e-05
2.73023e-05
2.6911e-05
2.64582e-05
2.59455e-05
2.5375e-05
2.47486e-05
2.4069e-05
2.33386e-05
2.25604e-05
2.17374e-05
2.08728e-05
1.99701e-05
1.90325e-05
1.80631e-05
1.70646e-05
1.60394e-05
1.49896e-05
1.39175e-05
1.28252e-05
1.17145e-05
1.05868e-05
9.44272e-06
8.28125e-06
7.09923e-06
5.89022e-06
4.64302e-06
3.33951e-06
1.95092e-06
3.57323e-09
1.33803e-11
1.33749e-11
3.57184e-09
1.95028e-06
3.33851e-06
4.64171e-06
5.88866e-06
7.09745e-06
8.27928e-06
9.44061e-06
1.05846e-05
1.17122e-05
1.28228e-05
1.39151e-05
1.49872e-05