/*--------------------------------*- C++ -*----------------------------------*\
  =========                 |
  \\      /  F ield         | OpenFOAM: The Open Source CFD Toolbox
   \\    /   O peration     | Website:  https://openfoam.org
    \\  /    A nd           | Version:  13
     \\/     M anipulation  |
\*---------------------------------------------------------------------------*/
FoamFile
{
    format      ascii;
    class       volScalarField;
    location    "87.5";
    object      rhok;
}
// * * * * * * * * * * * * * * * * * * * * * * * * * * * * * * * * * * * * * //

dimensions      [];

internalField   nonuniform List<scalar> 
315000
(
0.444499
0.424704
0.417124
0.413269
0.412126
0.411302
0.410413
0.40952
0.40864
0.407775
0.406921
0.406077
0.405239
0.404407
0.403579
0.402755
0.401936
0.401122
0.400314
0.399511
0.398715
0.397926
0.397144
0.39637
0.395605
0.394847
0.394098
0.393359
0.392628
0.391907
0.391196
0.390494
0.389802
0.38912
0.388448
0.387786
0.387134
0.386492
0.38586
0.385238
0.384626
0.384024
0.383432
0.382849
0.382276
0.381712
0.381158
0.380612
0.380074
0.379546
0.379025
0.378512
0.378007
0.377509
0.377017
0.376533
0.376054
0.375582
0.375115
0.374653
0.374195
0.373742
0.373293
0.372847
0.372404
0.371963
0.371524
0.371088
0.370652
0.370217
0.444571
0.427627
0.414315
0.412876
0.412059
0.411218
0.410364
0.409504
0.408645
0.407788
0.406936
0.406089
0.405247
0.404411
0.403579
0.402752
0.401931
0.401116
0.400306
0.399503
0.398706
0.397917
0.397135
0.396361
0.395595
0.394837
0.394089
0.393349
0.392618
0.391897
0.391185
0.390484
0.389792
0.389109
0.388437
0.387775
0.387123
0.386482
0.38585
0.385228
0.384616
0.384015
0.383422
0.38284
0.382267
0.381703
0.381149
0.380603
0.380066
0.379538
0.379017
0.378505
0.378
0.377502
0.377011
0.376527
0.376049
0.375577
0.37511
0.374648
0.374191
0.373738
0.373289
0.372844
0.372401
0.371961
0.371523
0.371087
0.370651
0.370217
0.444487
0.423149
0.416615
0.414261
0.412652
0.411428
0.410399
0.409469
0.408588
0.407732
0.406889
0.406052
0.405218
0.404388
0.403562
0.402739
0.40192
0.401106
0.400297
0.399494
0.398698
0.397909
0.397127
0.396353
0.395587
0.39483
0.394081
0.393341
0.39261
0.391889
0.391178
0.390476
0.389784
0.389102
0.388429
0.387767
0.387116
0.386474
0.385842
0.385221
0.384609
0.384007
0.383415
0.382833
0.38226
0.381696
0.381142
0.380597
0.38006
0.379531
0.379011
0.378499
0.377994
0.377497
0.377006
0.376522
0.376045
0.375573
0.375106
0.374645
0.374188
0.373736
0.373287
0.372842
0.372399
0.37196
0.371522
0.371086
0.370651
0.370216
0.444603
0.428878
0.414024
0.412582
0.4118
0.411003
0.410194
0.409376
0.408552
0.407722
0.40689
0.406057
0.405224
0.404393
0.403564
0.402739
0.401919
0.401103
0.400294
0.39949
0.398694
0.397904
0.397122
0.396348
0.395582
0.394824
0.394075
0.393335
0.392605
0.391883
0.391172
0.39047
0.389778
0.389096
0.388424
0.387762
0.38711
0.386468
0.385836
0.385215
0.384603
0.384002
0.38341
0.382827
0.382255
0.381691
0.381137
0.380592
0.380055
0.379527
0.379007
0.378495
0.37799
0.377493
0.377003
0.376519
0.376041
0.37557
0.375103
0.374642
0.374186
0.373734
0.373285
0.37284
0.372398
0.371958
0.371521
0.371085
0.37065
0.370216
0.444581
0.428014
0.414128
0.412709
0.411929
0.411123
0.410298
0.40946
0.408615
0.407768
0.406921
0.406077
0.405235
0.404398
0.403565
0.402737
0.401915
0.401099
0.400289
0.399486
0.398689
0.397899
0.397118
0.396343
0.395577
0.39482
0.394071
0.393331
0.392601
0.391879
0.391168
0.390466
0.389774
0.389092
0.38842
0.387758
0.387106
0.386464
0.385833
0.385211
0.384599
0.383998
0.383406
0.382824
0.382251
0.381688
0.381134
0.380588
0.380052
0.379524
0.379004
0.378492
0.377987
0.37749
0.377
0.376516
0.376039
0.375567
0.375101
0.37464
0.374184
0.373732
0.373284
0.372839
0.372397
0.371958
0.37152
0.371085
0.37065
0.370216
0.44461
0.429124
0.413993
0.412534
0.411754
0.410962
0.410158
0.409344
0.408523
0.407697
0.406867
0.406037
0.405206
0.404377
0.40355
0.402727
0.401908
0.401093
0.400285
0.399482
0.398686
0.397897
0.397115
0.396341
0.395575
0.394818
0.394069
0.393329
0.392598
0.391877
0.391166
0.390464
0.389772
0.38909
0.388417
0.387755
0.387104
0.386462
0.38583
0.385209
0.384597
0.383996
0.383404
0.382822
0.382249
0.381686
0.381131
0.380586
0.38005
0.379522
0.379002
0.37849
0.377986
0.377488
0.376998
0.376515
0.376038
0.375566
0.3751
0.374639
0.374183
0.373731
0.373283
0.372838
0.372396
0.371957
0.37152
0.371084
0.37065
0.370216
0.444593
0.428486
0.414043
0.412613
0.41184
0.411045
0.410231
0.409406
0.408574
0.407737
0.406899
0.406061
0.405224
0.40439
0.40356
0.402733
0.401912
0.401096
0.400286
0.399483
0.398686
0.397897
0.397115
0.39634
0.395574
0.394817
0.394068
0.393328
0.392598
0.391876
0.391165
0.390463
0.389771
0.389088
0.388416
0.387754
0.387102
0.386461
0.385829
0.385208
0.384596
0.383994
0.383402
0.38282
0.382248
0.381684
0.38113
0.380585
0.380049
0.379521
0.379001
0.378489
0.377985
0.377488
0.376997
0.376514
0.376037
0.375565
0.375099
0.374639
0.374182
0.373731
0.373282
0.372838
0.372396
0.371957
0.37152
0.371084
0.37065
0.370216
0.444499
0.424684
0.417057
0.413192
0.412059
0.411244
0.410367
0.409485
0.408613
0.407752
0.406901
0.406057
0.405219
0.404385
0.403555
0.40273
0.40191
0.401095
0.400286
0.399483
0.398686
0.397897
0.397115
0.396341
0.395575
0.394817
0.394068
0.393328
0.392597
0.391876
0.391164
0.390462
0.38977
0.389088
0.388416
0.387754
0.387102
0.38646
0.385829
0.385207
0.384596
0.383994
0.383402
0.38282
0.382247
0.381684
0.38113
0.380585
0.380048
0.37952
0.379
0.378488
0.377984
0.377487
0.376997
0.376514
0.376036
0.375565
0.375099
0.374638
0.374182
0.37373
0.373282
0.372838
0.372396
0.371957
0.37152
0.371084
0.37065
0.370216
0.4446
0.428766
0.414043
0.412614
0.411834
0.411033
0.410217
0.409392
0.408561
0.407726
0.406891
0.406055
0.40522
0.404388
0.403559
0.402733
0.401913
0.401097
0.400287
0.399484
0.398687
0.397898
0.397115
0.396341
0.395575
0.394817
0.394068
0.393328
0.392598
0.391876
0.391165
0.390463
0.38977
0.389088
0.388416
0.387754
0.387102
0.38646
0.385829
0.385207
0.384596
0.383994
0.383402
0.38282
0.382247
0.381684
0.38113
0.380585
0.380048
0.37952
0.379
0.378488
0.377984
0.377487
0.376997
0.376514
0.376036
0.375565
0.375099
0.374638
0.374182
0.37373
0.373282
0.372838
0.372396
0.371957
0.37152
0.371084
0.37065
0.370216
0.444544
0.426609
0.414784
0.413133
0.412219
0.411305
0.410404
0.409516
0.40864
0.407775
0.406918
0.406069
0.405226
0.404389
0.403558
0.402732
0.401911
0.401095
0.400286
0.399483
0.398687
0.397897
0.397115
0.396341
0.395575
0.394818
0.394069
0.393329
0.392598
0.391877
0.391165
0.390463
0.389771
0.389089
0.388417
0.387755
0.387103
0.386461
0.385829
0.385208
0.384596
0.383994
0.383402
0.38282
0.382248
0.381684
0.38113
0.380585
0.380048
0.37952
0.379001
0.378489
0.377984
0.377487
0.376997
0.376514
0.376036
0.375565
0.375099
0.374638
0.374182
0.37373
0.373282
0.372838
0.372396
0.371957
0.37152
0.371084
0.37065
0.370216
0.444605
0.428961
0.414023
0.412583
0.411807
0.411012
0.410204
0.409384
0.408557
0.407725
0.40689
0.406055
0.405221
0.404389
0.40356
0.402735
0.401914
0.401098
0.400289
0.399485
0.398688
0.397899
0.397117
0.396342
0.395576
0.394818
0.394069
0.393329
0.392599
0.391877
0.391166
0.390464
0.389771
0.389089
0.388417
0.387755
0.387103
0.386461
0.38583
0.385208
0.384596
0.383995
0.383403
0.382821
0.382248
0.381685
0.381131
0.380585
0.380049
0.379521
0.379001
0.378489
0.377985
0.377488
0.376998
0.376514
0.376037
0.375565
0.375099
0.374639
0.374182
0.373731
0.373282
0.372838
0.372396
0.371957
0.37152
0.371084
0.37065
0.370216
0.444588
0.428294
0.414113
0.412699
0.411928
0.411131
0.410314
0.409481
0.40864
0.407793
0.406944
0.406097
0.405253
0.404412
0.403577
0.402747
0.401923
0.401105
0.400293
0.399489
0.398691
0.397901
0.397118
0.396344
0.395577
0.394819
0.39407
0.39333
0.3926
0.391878
0.391166
0.390464
0.389772
0.38909
0.388418
0.387756
0.387104
0.386462
0.38583
0.385209
0.384597
0.383995
0.383403
0.382821
0.382249
0.381685
0.381131
0.380586
0.380049
0.379521
0.379001
0.378489
0.377985
0.377488
0.376998
0.376514
0.376037
0.375566
0.3751
0.374639
0.374183
0.373731
0.373283
0.372838
0.372396
0.371957
0.37152
0.371084
0.37065
0.370216
0.444587
0.428252
0.414145
0.412738
0.411969
0.411172
0.410353
0.409518
0.408672
0.407821
0.406969
0.406118
0.40527
0.404426
0.403588
0.402756
0.40193
0.401111
0.400298
0.399493
0.398694
0.397904
0.397121
0.396346
0.395579
0.394821
0.394072
0.393331
0.3926
0.391879
0.391167
0.390465
0.389773
0.389091
0.388418
0.387756
0.387104
0.386463
0.385831
0.385209
0.384598
0.383996
0.383404
0.382822
0.382249
0.381686
0.381132
0.380586
0.38005
0.379522
0.379002
0.37849
0.377985
0.377488
0.376998
0.376515
0.376037
0.375566
0.3751
0.374639
0.374183
0.373731
0.373283
0.372838
0.372396
0.371957
0.37152
0.371084
0.37065
0.370216
0.444587
0.428254
0.414148
0.412742
0.411974
0.411177
0.410357
0.409522
0.408676
0.407824
0.406972
0.40612
0.405272
0.404428
0.40359
0.402758
0.401932
0.401112
0.400299
0.399494
0.398695
0.397904
0.397121
0.396346
0.39558
0.394821
0.394072
0.393332
0.392601
0.39188
0.391168
0.390466
0.389773
0.389091
0.388419
0.387757
0.387105
0.386463
0.385831
0.38521
0.384598
0.383996
0.383404
0.382822
0.382249
0.381686
0.381132
0.380587
0.38005
0.379522
0.379002
0.37849
0.377986
0.377489
0.376998
0.376515
0.376038
0.375566
0.3751
0.374639
0.374183
0.373731
0.373283
0.372838
0.372396
0.371957
0.37152
0.371084
0.37065
0.370216
0.444588
0.42829
0.414118
0.412705
0.411934
0.411137
0.41032
0.409488
0.408646
0.4078
0.406951
0.406104
0.405259
0.404418
0.403582
0.402752
0.401927
0.401109
0.400297
0.399492
0.398694
0.397903
0.397121
0.396346
0.395579
0.394821
0.394072
0.393332
0.392601
0.39188
0.391168
0.390466
0.389774
0.389092
0.388419
0.387757
0.387105
0.386463
0.385832
0.38521
0.384598
0.383997
0.383405
0.382823
0.38225
0.381686
0.381132
0.380587
0.38005
0.379522
0.379002
0.37849
0.377986
0.377489
0.376999
0.376515
0.376038
0.375566
0.3751
0.374639
0.374183
0.373731
0.373283
0.372838
0.372396
0.371957
0.37152
0.371084
0.37065
0.370216
0.444606
0.428966
0.414031
0.412589
0.411808
0.411011
0.410203
0.409384
0.408558
0.407728
0.406895
0.406061
0.405227
0.404395
0.403566
0.402741
0.40192
0.401104
0.400294
0.39949
0.398693
0.397903
0.39712
0.396346
0.395579
0.394822
0.394073
0.393333
0.392602
0.39188
0.391169
0.390466
0.389774
0.389092
0.38842
0.387758
0.387106
0.386464
0.385832
0.385211
0.384599
0.383997
0.383405
0.382823
0.38225
0.381687
0.381133
0.380587
0.380051
0.379523
0.379003
0.378491
0.377986
0.377489
0.376999
0.376515
0.376038
0.375566
0.3751
0.37464
0.374183
0.373731
0.373283
0.372838
0.372397
0.371957
0.37152
0.371084
0.37065
0.370216
0.444524
0.425795
0.415473
0.413313
0.412259
0.411307
0.410395
0.409505
0.408631
0.407768
0.406914
0.406068
0.405228
0.404393
0.403562
0.402737
0.401916
0.401101
0.400292
0.399488
0.398692
0.397902
0.39712
0.396346
0.39558
0.394822
0.394073
0.393333
0.392602
0.391881
0.391169
0.390467
0.389775
0.389093
0.38842
0.387758
0.387106
0.386464
0.385833
0.385211
0.384599
0.383997
0.383406
0.382823
0.38225
0.381687
0.381133
0.380588
0.380051
0.379523
0.379003
0.378491
0.377986
0.377489
0.376999
0.376515
0.376038
0.375567
0.375101
0.37464
0.374183
0.373731
0.373283
0.372838
0.372397
0.371957
0.37152
0.371084
0.37065
0.370216
0.4446
0.42877
0.414038
0.412601
0.411822
0.411022
0.410207
0.409383
0.408554
0.407722
0.406889
0.406055
0.405222
0.40439
0.403562
0.402737
0.401917
0.401102
0.400293
0.399489
0.398693
0.397903
0.397121
0.396347
0.395581
0.394823
0.394074
0.393334
0.392603
0.391882
0.39117
0.390468
0.389776
0.389093
0.388421
0.387759
0.387107
0.386465
0.385833
0.385211
0.3846
0.383998
0.383406
0.382824
0.382251
0.381687
0.381133
0.380588
0.380051
0.379523
0.379003
0.378491
0.377987
0.377489
0.376999
0.376516
0.376038
0.375567
0.375101
0.37464
0.374183
0.373731
0.373283
0.372838
0.372397
0.371957
0.37152
0.371084
0.37065
0.370216
0.4445
0.424725
0.417075
0.413195
0.412059
0.411242
0.410364
0.409481
0.408609
0.407749
0.406899
0.406057
0.405219
0.404387
0.403559
0.402735
0.401915
0.401101
0.400292
0.39949
0.398693
0.397904
0.397122
0.396348
0.395582
0.394824
0.394075
0.393335
0.392604
0.391883
0.391171
0.390469
0.389776
0.389094
0.388422
0.387759
0.387107
0.386465
0.385834
0.385212
0.3846
0.383998
0.383406
0.382824
0.382251
0.381688
0.381133
0.380588
0.380051
0.379523
0.379003
0.378491
0.377987
0.377489
0.376999
0.376516
0.376038
0.375567
0.375101
0.37464
0.374183
0.373731
0.373283
0.372838
0.372397
0.371957
0.37152
0.371084
0.37065
0.370216
0.444593
0.428469
0.414039
0.412616
0.411842
0.411046
0.410234
0.40941
0.408579
0.407744
0.406906
0.406069
0.405233
0.4044
0.40357
0.402744
0.401923
0.401107
0.400297
0.399494
0.398697
0.397907
0.397125
0.39635
0.395584
0.394826
0.394077
0.393336
0.392605
0.391884
0.391172
0.39047
0.389777
0.389095
0.388422
0.38776
0.387108
0.386466
0.385834
0.385212
0.3846
0.383999
0.383406
0.382824
0.382251
0.381688
0.381133
0.380588
0.380051
0.379523
0.379003
0.378491
0.377987
0.377489
0.376999
0.376516
0.376038
0.375567
0.375101
0.37464
0.374183
0.373731
0.373283
0.372838
0.372397
0.371957
0.37152
0.371084
0.37065
0.370216
0.444611
0.429163
0.414011
0.412551
0.411772
0.410977
0.410171
0.409355
0.408532
0.407705
0.406876
0.406045
0.405215
0.404386
0.40356
0.402737
0.401919
0.401105
0.400296
0.399493
0.398697
0.397908
0.397125
0.396351
0.395585
0.394827
0.394078
0.393337
0.392606
0.391885
0.391173
0.39047
0.389778
0.389095
0.388423
0.387761
0.387108
0.386466
0.385834
0.385212
0.384601
0.383999
0.383407
0.382824
0.382251
0.381688
0.381134
0.380588
0.380052
0.379523
0.379003
0.378491
0.377987
0.37749
0.376999
0.376516
0.376038
0.375567
0.375101
0.37464
0.374183
0.373731
0.373283
0.372838
0.372397
0.371957
0.37152
0.371084
0.37065
0.370216
0.444572
0.427669
0.414273
0.412845
0.412049
0.411222
0.410376
0.40952
0.408661
0.407803
0.406948
0.406098
0.405253
0.404413
0.403579
0.402751
0.401928
0.401111
0.400301
0.399497
0.3987
0.39791
0.397127
0.396352
0.395586
0.394828
0.394079
0.393338
0.392607
0.391885
0.391173
0.390471
0.389778
0.389096
0.388423
0.387761
0.387109
0.386467
0.385835
0.385213
0.384601
0.383999
0.383407
0.382824
0.382252
0.381688
0.381134
0.380588
0.380052
0.379523
0.379003
0.378491
0.377987
0.37749
0.376999
0.376516
0.376038
0.375567
0.375101
0.37464
0.374183
0.373731
0.373283
0.372838
0.372397
0.371957
0.37152
0.371084
0.37065
0.370216
0.444593
0.428481
0.414108
0.412695
0.411926
0.411133
0.410319
0.409491
0.408652
0.407807
0.40696
0.406114
0.40527
0.404429
0.403593
0.402763
0.401938
0.401119
0.400307
0.399502
0.398704
0.397913
0.39713
0.396355
0.395588
0.394829
0.39408
0.393339
0.392608
0.391886
0.391174
0.390471
0.389779
0.389096
0.388424
0.387761
0.387109
0.386467
0.385835
0.385213
0.384601
0.383999
0.383407
0.382824
0.382252
0.381688
0.381134
0.380588
0.380052
0.379523
0.379003
0.378491
0.377987
0.37749
0.376999
0.376516
0.376038
0.375567
0.375101
0.37464
0.374183
0.373731
0.373283
0.372838
0.372397
0.371957
0.37152
0.371084
0.37065
0.370216
0.444593
0.428496
0.414109
0.412692
0.411925
0.411135
0.410324
0.409498
0.408662
0.407818
0.406972
0.406125
0.40528
0.404438
0.403601
0.40277
0.401944
0.401124
0.400311
0.399505
0.398706
0.397915
0.397131
0.396356
0.395589
0.39483
0.39408
0.39334
0.392608
0.391886
0.391174
0.390472
0.389779
0.389096
0.388424
0.387761
0.387109
0.386467
0.385835
0.385213
0.384601
0.383999
0.383407
0.382825
0.382252
0.381688
0.381134
0.380588
0.380052
0.379523
0.379003
0.378491
0.377987
0.37749
0.376999
0.376516
0.376038
0.375567
0.375101
0.37464
0.374183
0.373731
0.373283
0.372838
0.372397
0.371957
0.37152
0.371084
0.37065
0.370216
0.444593
0.428498
0.414113
0.412697
0.41193
0.411139
0.410329
0.409503
0.408666
0.407823
0.406976
0.406129
0.405283
0.404441
0.403604
0.402772
0.401945
0.401126
0.400312
0.399506
0.398707
0.397916
0.397132
0.396356
0.395589
0.39483
0.394081
0.39334
0.392608
0.391886
0.391174
0.390472
0.389779
0.389096
0.388424
0.387761
0.387109
0.386467
0.385835
0.385213
0.384601
0.383999
0.383407
0.382825
0.382252
0.381688
0.381134
0.380588
0.380052
0.379523
0.379003
0.378491
0.377987
0.37749
0.376999
0.376516
0.376038
0.375567
0.375101
0.37464
0.374183
0.373731
0.373283
0.372838
0.372397
0.371957
0.37152
0.371084
0.37065
0.370216
0.444593
0.428498
0.414114
0.412698
0.411931
0.41114
0.41033
0.409504
0.408667
0.407824
0.406977
0.406129
0.405284
0.404442
0.403604
0.402772
0.401946
0.401126
0.400313
0.399506
0.398707
0.397916
0.397132
0.396356
0.395589
0.39483
0.394081
0.39334
0.392608
0.391887
0.391174
0.390472
0.389779
0.389096
0.388424
0.387761
0.387109
0.386467
0.385835
0.385213
0.384601
0.383999
0.383407
0.382825
0.382252
0.381688
0.381134
0.380588
0.380052
0.379523
0.379003
0.378491
0.377987
0.37749
0.376999
0.376516
0.376038
0.375567
0.375101
0.37464
0.374183
0.373731
0.373283
0.372838
0.372397
0.371957
0.37152
0.371084
0.37065
0.370216
0.444593
0.428498
0.414114
0.412698
0.411931
0.411141
0.41033
0.409504
0.408667
0.407824
0.406977
0.40613
0.405284
0.404442
0.403604
0.402772
0.401946
0.401126
0.400313
0.399506
0.398707
0.397916
0.397132
0.396356
0.395589
0.39483
0.394081
0.39334
0.392609
0.391887
0.391174
0.390472
0.389779
0.389096
0.388424
0.387761
0.387109
0.386467
0.385835
0.385213
0.384601
0.383999
0.383407
0.382825
0.382252
0.381688
0.381134
0.380588
0.380052
0.379523
0.379003
0.378491
0.377987
0.37749
0.376999
0.376516
0.376038
0.375567
0.375101
0.37464
0.374183
0.373731
0.373283
0.372838
0.372397
0.371957
0.37152
0.371084
0.37065
0.370216
0.444593
0.428498
0.414114
0.412698
0.411931
0.411141
0.41033
0.409504
0.408668
0.407824
0.406977
0.40613
0.405284
0.404442
0.403604
0.402772
0.401946
0.401126
0.400313
0.399506
0.398707
0.397916
0.397132
0.396356
0.395589
0.39483
0.394081
0.39334
0.392609
0.391887
0.391174
0.390472
0.389779
0.389096
0.388424
0.387761
0.387109
0.386467
0.385835
0.385213
0.384601
0.383999
0.383407
0.382825
0.382252
0.381688
0.381134
0.380588
0.380052
0.379523
0.379003
0.378491
0.377987
0.37749
0.376999
0.376516
0.376038
0.375567
0.375101
0.37464
0.374183
0.373731
0.373283
0.372838
0.372397
0.371957
0.37152
0.371084
0.37065
0.370216
0.444593
0.428498
0.414114
0.412698
0.411931
0.411141
0.41033
0.409504
0.408668
0.407824
0.406977
0.40613
0.405284
0.404442
0.403605
0.402772
0.401946
0.401126
0.400313
0.399506
0.398707
0.397916
0.397132
0.396356
0.395589
0.39483
0.394081
0.39334
0.392609
0.391887
0.391174
0.390472
0.389779
0.389096
0.388424
0.387761
0.387109
0.386467
0.385835
0.385213
0.384601
0.383999
0.383407
0.382825
0.382252
0.381688
0.381134
0.380588
0.380052
0.379523
0.379003
0.378491
0.377987
0.37749
0.376999
0.376516
0.376038
0.375567
0.375101
0.37464
0.374183
0.373731
0.373283
0.372838
0.372397
0.371957
0.37152
0.371084
0.37065
0.370216
0.444593
0.428498
0.414114
0.412698
0.411931
0.411141
0.41033
0.409504
0.408668
0.407824
0.406977
0.40613
0.405284
0.404442
0.403605
0.402772
0.401946
0.401126
0.400313
0.399506
0.398707
0.397916
0.397132
0.396356
0.395589
0.39483
0.394081
0.39334
0.392609
0.391887
0.391174
0.390472
0.389779
0.389096
0.388424
0.387761
0.387109
0.386467
0.385835
0.385213
0.384601
0.383999
0.383407
0.382825
0.382252
0.381688
0.381134
0.380588
0.380052
0.379523
0.379003
0.378491
0.377987
0.37749
0.376999
0.376516
0.376038
0.375567
0.375101
0.37464
0.374183
0.373731
0.373283
0.372838
0.372397
0.371957
0.37152
0.371084
0.37065
0.370216
0.444593
0.428498
0.414114
0.412698
0.411931
0.411141
0.41033
0.409504
0.408668
0.407824
0.406977
0.40613
0.405284
0.404442
0.403605
0.402772
0.401946
0.401126
0.400313
0.399506
0.398707
0.397916
0.397132
0.396356
0.395589
0.39483
0.394081
0.39334
0.392609
0.391887
0.391174
0.390472
0.389779
0.389096
0.388424
0.387761
0.387109
0.386467
0.385835
0.385213
0.384601
0.383999
0.383407
0.382825
0.382252
0.381688
0.381134
0.380588
0.380052
0.379523
0.379003
0.378491
0.377987
0.37749
0.376999
0.376516
0.376038
0.375567
0.375101
0.37464
0.374183
0.373731
0.373283
0.372838
0.372397
0.371957
0.37152
0.371084
0.37065
0.370216
0.444593
0.428498
0.414114
0.412698
0.411931
0.411141
0.41033
0.409504
0.408668
0.407824
0.406977
0.40613
0.405284
0.404442
0.403605
0.402772
0.401946
0.401126
0.400313
0.399506
0.398707
0.397916
0.397132
0.396356
0.395589
0.39483
0.394081
0.39334
0.392609
0.391887
0.391174
0.390472
0.389779
0.389096
0.388424
0.387761
0.387109
0.386467
0.385835
0.385213
0.384601
0.383999
0.383407
0.382825
0.382252
0.381688
0.381134
0.380588
0.380052
0.379523
0.379003
0.378491
0.377987
0.37749
0.376999
0.376516
0.376038
0.375567
0.375101
0.37464
0.374183
0.373731
0.373283
0.372838
0.372397
0.371957
0.37152
0.371084
0.37065
0.370216
0.444593
0.428498
0.414114
0.412698
0.411931
0.411141
0.41033
0.409504
0.408668
0.407824
0.406977
0.40613
0.405284
0.404442
0.403605
0.402772
0.401946
0.401126
0.400313
0.399506
0.398707
0.397916
0.397132
0.396356
0.395589
0.39483
0.394081
0.39334
0.392609
0.391887
0.391174
0.390472
0.389779
0.389096
0.388424
0.387761
0.387109
0.386467
0.385835
0.385213
0.384601
0.383999
0.383407
0.382825
0.382252
0.381688
0.381134
0.380588
0.380052
0.379523
0.379003
0.378491
0.377987
0.37749
0.376999
0.376516
0.376038
0.375567
0.375101
0.37464
0.374183
0.373731
0.373283
0.372838
0.372397
0.371957
0.37152
0.371084
0.37065
0.370216
0.444593
0.428498
0.414114
0.412698
0.411931
0.411141
0.41033
0.409504
0.408668
0.407824
0.406977
0.40613
0.405284
0.404442
0.403605
0.402772
0.401946
0.401126
0.400313
0.399506
0.398707
0.397916
0.397132
0.396356
0.395589
0.39483
0.394081
0.39334
0.392609
0.391887
0.391174
0.390472
0.389779
0.389096
0.388424
0.387761
0.387109
0.386467
0.385835
0.385213
0.384601
0.383999
0.383407
0.382825
0.382252
0.381688
0.381134
0.380588
0.380052
0.379523
0.379003
0.378491
0.377987
0.37749
0.376999
0.376516
0.376038
0.375567
0.375101
0.37464
0.374183
0.373731
0.373283
0.372838
0.372397
0.371957
0.37152
0.371084
0.37065
0.370216
0.444593
0.428498
0.414114
0.412698
0.411931
0.411141
0.41033
0.409504
0.408668
0.407824
0.406977
0.40613
0.405284
0.404442
0.403605
0.402772
0.401946
0.401126
0.400313
0.399506
0.398707
0.397916
0.397132
0.396356
0.395589
0.39483
0.394081
0.39334
0.392609
0.391887
0.391174
0.390472
0.389779
0.389096
0.388424
0.387761
0.387109
0.386467
0.385835
0.385213
0.384601
0.383999
0.383407
0.382825
0.382252
0.381688
0.381134
0.380588
0.380052
0.379523
0.379003
0.378491
0.377987
0.37749
0.376999
0.376516
0.376038
0.375567
0.375101
0.37464
0.374183
0.373731
0.373283
0.372838
0.372397
0.371957
0.37152
0.371084
0.37065
0.370216
0.444593
0.428498
0.414114
0.412698
0.411931
0.411141
0.41033
0.409504
0.408668
0.407824
0.406977
0.40613
0.405284
0.404442
0.403605
0.402772
0.401946
0.401126
0.400313
0.399506
0.398707
0.397916
0.397132
0.396356
0.395589
0.39483
0.394081
0.39334
0.392609
0.391887
0.391174
0.390472
0.389779
0.389096
0.388424
0.387761
0.387109
0.386467
0.385835
0.385213
0.384601
0.383999
0.383407
0.382825
0.382252
0.381688
0.381134
0.380588
0.380052
0.379523
0.379003
0.378491
0.377987
0.37749
0.376999
0.376516
0.376038
0.375567
0.375101
0.37464
0.374183
0.373731
0.373283
0.372838
0.372397
0.371957
0.37152
0.371084
0.37065
0.370216
0.444593
0.428498
0.414114
0.412698
0.411931
0.411141
0.41033
0.409504
0.408668
0.407824
0.406977
0.40613
0.405284
0.404442
0.403605
0.402772
0.401946
0.401126
0.400313
0.399506
0.398707
0.397916
0.397132
0.396356
0.395589
0.39483
0.394081
0.39334
0.392609
0.391887
0.391174
0.390472
0.389779
0.389096
0.388424
0.387761
0.387109
0.386467
0.385835
0.385213
0.384601
0.383999
0.383407
0.382825
0.382252
0.381688
0.381134
0.380588
0.380052
0.379523
0.379003
0.378491
0.377987
0.37749
0.376999
0.376516
0.376038
0.375567
0.375101
0.37464
0.374183
0.373731
0.373283
0.372838
0.372397
0.371957
0.37152
0.371084
0.37065
0.370216
0.444593
0.428498
0.414114
0.412698
0.411931
0.411141
0.41033
0.409504
0.408668
0.407824
0.406977
0.40613
0.405284
0.404442
0.403605
0.402772
0.401946
0.401126
0.400313
0.399506
0.398707
0.397916
0.397132
0.396356
0.395589
0.39483
0.394081
0.39334
0.392609
0.391887
0.391174
0.390472
0.389779
0.389096
0.388424
0.387761
0.387109
0.386467
0.385835
0.385213
0.384601
0.383999
0.383407
0.382825
0.382252
0.381688
0.381134
0.380588
0.380052
0.379523
0.379003
0.378491
0.377987
0.37749
0.376999
0.376516
0.376038
0.375567
0.375101
0.37464
0.374183
0.373731
0.373283
0.372838
0.372397
0.371957
0.37152
0.371084
0.37065
0.370216
0.444593
0.428498
0.414114
0.412698
0.411931
0.411141
0.41033
0.409504
0.408668
0.407824
0.406977
0.40613
0.405284
0.404442
0.403605
0.402772
0.401946
0.401126
0.400313
0.399506
0.398707
0.397916
0.397132
0.396356
0.395589
0.39483
0.394081
0.39334
0.392609
0.391887
0.391174
0.390472
0.389779
0.389096
0.388424
0.387761
0.387109
0.386467
0.385835
0.385213
0.384601
0.383999
0.383407
0.382825
0.382252
0.381688
0.381134
0.380588
0.380052
0.379523
0.379003
0.378491
0.377987
0.37749
0.376999
0.376516
0.376038
0.375567
0.375101
0.37464
0.374183
0.373731
0.373283
0.372838
0.372397
0.371957
0.37152
0.371084
0.37065
0.370216
0.444593
0.428498
0.414114
0.412698
0.411931
0.411141
0.41033
0.409504
0.408668
0.407824
0.406977
0.40613
0.405284
0.404442
0.403605
0.402772
0.401946
0.401126
0.400313
0.399506
0.398707
0.397916
0.397132
0.396356
0.395589
0.39483
0.394081
0.39334
0.392609
0.391887
0.391174
0.390472
0.389779
0.389096
0.388424
0.387761
0.387109
0.386467
0.385835
0.385213
0.384601
0.383999
0.383407
0.382825
0.382252
0.381688
0.381134
0.380588
0.380052
0.379523
0.379003
0.378491
0.377987
0.37749
0.376999
0.376516
0.376038
0.375567
0.375101
0.37464
0.374183
0.373731
0.373283
0.372838
0.372397
0.371957
0.37152
0.371084
0.37065
0.370216
0.444593
0.428498
0.414114
0.412698
0.411931
0.411141
0.41033
0.409504
0.408668
0.407824
0.406977
0.40613
0.405284
0.404442
0.403605
0.402772
0.401946
0.401126
0.400313
0.399506
0.398707
0.397916
0.397132
0.396356
0.395589
0.39483
0.394081
0.39334
0.392609
0.391887
0.391174
0.390472
0.389779
0.389096
0.388424
0.387761
0.387109
0.386467
0.385835
0.385213
0.384601
0.383999
0.383407
0.382825
0.382252
0.381688
0.381134
0.380588
0.380052
0.379523
0.379003
0.378491
0.377987
0.37749
0.376999
0.376516
0.376038
0.375567
0.375101
0.37464
0.374183
0.373731
0.373283
0.372838
0.372397
0.371957
0.37152
0.371084
0.37065
0.370216
0.444593
0.428498
0.414114
0.412698
0.411931
0.411141
0.41033
0.409504
0.408668
0.407824
0.406977
0.40613
0.405284
0.404442
0.403605
0.402772
0.401946
0.401126
0.400313
0.399506
0.398707
0.397916
0.397132
0.396356
0.395589
0.39483
0.394081
0.39334
0.392609
0.391887
0.391174
0.390472
0.389779
0.389096
0.388424
0.387761
0.387109
0.386467
0.385835
0.385213
0.384601
0.383999
0.383407
0.382825
0.382252
0.381688
0.381134
0.380588
0.380052
0.379523
0.379003
0.378491
0.377987
0.37749
0.376999
0.376516
0.376038
0.375567
0.375101
0.37464
0.374183
0.373731
0.373283
0.372838
0.372397
0.371957
0.37152
0.371084
0.37065
0.370216
0.444593
0.428498
0.414114
0.412698
0.411931
0.411141
0.41033
0.409504
0.408668
0.407824
0.406977
0.40613
0.405284
0.404442
0.403605
0.402772
0.401946
0.401126
0.400313
0.399506
0.398707
0.397916
0.397132
0.396356
0.395589
0.39483
0.394081
0.39334
0.392609
0.391887
0.391174
0.390472
0.389779
0.389096
0.388424
0.387761
0.387109
0.386467
0.385835
0.385213
0.384601
0.383999
0.383407
0.382825
0.382252
0.381688
0.381134
0.380588
0.380052
0.379523
0.379003
0.378491
0.377987
0.37749
0.376999
0.376516
0.376038
0.375567
0.375101
0.37464
0.374183
0.373731
0.373283
0.372838
0.372397
0.371957
0.37152
0.371084
0.37065
0.370216
0.444593
0.428498
0.414114
0.412698
0.411931
0.411141
0.41033
0.409504
0.408668
0.407824
0.406977
0.40613
0.405284
0.404442
0.403605
0.402772
0.401946
0.401126
0.400313
0.399506
0.398707
0.397916
0.397132
0.396356
0.395589
0.39483
0.394081
0.39334
0.392609
0.391887
0.391174
0.390472
0.389779
0.389096
0.388424
0.387761
0.387109
0.386467
0.385835
0.385213
0.384601
0.383999
0.383407
0.382825
0.382252
0.381688
0.381134
0.380588
0.380052
0.379523
0.379003
0.378491
0.377987
0.37749
0.376999
0.376516
0.376038
0.375567
0.375101
0.37464
0.374183
0.373731
0.373283
0.372838
0.372397
0.371957
0.37152
0.371084
0.37065
0.370216
0.444593
0.428498
0.414114
0.412698
0.411931
0.411141
0.41033
0.409504
0.408668
0.407824
0.406977
0.40613
0.405284
0.404442
0.403605
0.402772
0.401946
0.401126
0.400313
0.399506
0.398707
0.397916
0.397132
0.396356
0.395589
0.39483
0.394081
0.39334
0.392609
0.391887
0.391174
0.390472
0.389779
0.389096
0.388424
0.387761
0.387109
0.386467
0.385835
0.385213
0.384601
0.383999
0.383407
0.382825
0.382252
0.381688
0.381134
0.380588
0.380052
0.379523
0.379003
0.378491
0.377987
0.37749
0.376999
0.376516
0.376038
0.375567
0.375101
0.37464
0.374183
0.373731
0.373283
0.372838
0.372397
0.371957
0.37152
0.371084
0.37065
0.370216
0.444593
0.428498
0.414114
0.412698
0.411931
0.411141
0.41033
0.409504
0.408668
0.407824
0.406977
0.40613
0.405284
0.404442
0.403605
0.402772
0.401946
0.401126
0.400313
0.399506
0.398707
0.397916
0.397132
0.396356
0.395589
0.39483
0.394081
0.39334
0.392609
0.391887
0.391174
0.390472
0.389779
0.389096
0.388424
0.387761
0.387109
0.386467
0.385835
0.385213
0.384601
0.383999
0.383407
0.382825
0.382252
0.381688
0.381134
0.380588
0.380052
0.379523
0.379003
0.378491
0.377987
0.37749
0.376999
0.376516
0.376038
0.375567
0.375101
0.37464
0.374183
0.373731
0.373283
0.372838
0.372397
0.371957
0.37152
0.371084
0.37065
0.370216
0.444593
0.428498
0.414114
0.412698
0.411931
0.411141
0.41033
0.409504
0.408668
0.407824
0.406977
0.40613
0.405284
0.404442
0.403605
0.402772
0.401946
0.401126
0.400313
0.399506
0.398707
0.397916
0.397132
0.396356
0.395589
0.39483
0.394081
0.39334
0.392609
0.391887
0.391174
0.390472
0.389779
0.389096
0.388424
0.387761
0.387109
0.386467
0.385835
0.385213
0.384601
0.383999
0.383407
0.382825
0.382252
0.381688
0.381134
0.380588
0.380052
0.379523
0.379003
0.378491
0.377987
0.37749
0.376999
0.376516
0.376038
0.375567
0.375101
0.37464
0.374183
0.373731
0.373283
0.372838
0.372397
0.371957
0.37152
0.371084
0.37065
0.370216
0.444593
0.428498
0.414114
0.412698
0.411931
0.411141
0.41033
0.409504
0.408668
0.407824
0.406977
0.40613
0.405284
0.404442
0.403605