/*--------------------------------*- C++ -*----------------------------------*\
  =========                 |
  \\      /  F ield         | OpenFOAM: The Open Source CFD Toolbox
   \\    /   O peration     | Website:  https://openfoam.org
    \\  /    A nd           | Version:  13
     \\/     M anipulation  |
\*---------------------------------------------------------------------------*/
FoamFile
{
    format      ascii;
    class       volScalarField;
    location    "57.5";
    object      rhok;
}
// * * * * * * * * * * * * * * * * * * * * * * * * * * * * * * * * * * * * * //

dimensions      [];

internalField   nonuniform List<scalar> 
315000
(
0.444466
0.423508
0.413816
0.412472
0.411605
0.410631
0.409601
0.408545
0.407482
0.406421
0.405366
0.40432
0.403285
0.402261
0.401249
0.40025
0.399265
0.398294
0.397337
0.396396
0.39547
0.39456
0.393667
0.392791
0.391933
0.391092
0.39027
0.389465
0.38868
0.387913
0.387165
0.386436
0.385726
0.385035
0.384363
0.38371
0.383076
0.38246
0.381863
0.381283
0.380722
0.380178
0.379652
0.379142
0.378649
0.378172
0.377711
0.377265
0.376834
0.376416
0.376013
0.375623
0.375245
0.374879
0.374525
0.374182
0.373848
0.373524
0.373209
0.372903
0.372603
0.372311
0.372024
0.371743
0.371467
0.371195
0.370926
0.370659
0.370395
0.370131
0.444465
0.423498
0.413832
0.412479
0.4116
0.410623
0.409592
0.408536
0.407473
0.406412
0.405356
0.40431
0.403274
0.40225
0.401238
0.400239
0.399253
0.398281
0.397324
0.396382
0.395456
0.394545
0.393652
0.392776
0.391917
0.391076
0.390253
0.389449
0.388663
0.387896
0.387148
0.386419
0.385709
0.385018
0.384346
0.383693
0.383059
0.382444
0.381846
0.381267
0.380706
0.380163
0.379636
0.379127
0.378635
0.378158
0.377697
0.377252
0.376821
0.376404
0.376001
0.375611
0.375234
0.374869
0.374516
0.374173
0.37384
0.373517
0.373202
0.372896
0.372597
0.372305
0.37202
0.371739
0.371464
0.371192
0.370924
0.370658
0.370394
0.370131
0.444402
0.420168
0.415366
0.413489
0.412055
0.410819
0.409671
0.408565
0.40748
0.40641
0.405352
0.404304
0.403268
0.402243
0.401231
0.400232
0.399246
0.398274
0.397316
0.396374
0.395447
0.394537
0.393643
0.392767
0.391908
0.391066
0.390243
0.389439
0.388653
0.387886
0.387138
0.386409
0.385699
0.385008
0.384336
0.383683
0.383048
0.382433
0.381836
0.381257
0.380696
0.380152
0.379626
0.379117
0.378625
0.378148
0.377688
0.377242
0.376812
0.376396
0.375993
0.375604
0.375227
0.374862
0.374509
0.374166
0.373834
0.373511
0.373197
0.372891
0.372593
0.372301
0.372016
0.371736
0.371461
0.37119
0.370922
0.370657
0.370393
0.370131
0.444465
0.423495
0.413823
0.412479
0.411606
0.410627
0.409592
0.408534
0.407469
0.406406
0.40535
0.404303
0.403267
0.402242
0.401229
0.400229
0.399243
0.398271
0.397313
0.39637
0.395444
0.394533
0.393639
0.392763
0.391903
0.391062
0.390239
0.389434
0.388648
0.387881
0.387133
0.386403
0.385693
0.385002
0.38433
0.383677
0.383043
0.382427
0.38183
0.381251
0.38069
0.380146
0.37962
0.379111
0.378619
0.378143
0.377682
0.377237
0.376806
0.37639
0.375988
0.375599
0.375222
0.374857
0.374504
0.374162
0.37383
0.373507
0.373193
0.372888
0.37259
0.372299
0.372014
0.371734
0.371459
0.371188
0.370921
0.370656
0.370393
0.37013
0.444465
0.423498
0.413833
0.41248
0.411599
0.410621
0.40959
0.408534
0.40747
0.406408
0.405352
0.404305
0.403268
0.402243
0.40123
0.40023
0.399244
0.398271
0.397313
0.396371
0.395444
0.394533
0.393639
0.392762
0.391903
0.391061
0.390238
0.389433
0.388647
0.38788
0.387131
0.386402
0.385692
0.385
0.384328
0.383675
0.38304
0.382425
0.381827
0.381248
0.380687
0.380144
0.379618
0.379108
0.378616
0.37814
0.377679
0.377234
0.376803
0.376387
0.375985
0.375596
0.375219
0.374855
0.374502
0.374159
0.373827
0.373505
0.373191
0.372886
0.372588
0.372297
0.372012
0.371733
0.371458
0.371188
0.37092
0.370655
0.370392
0.37013
0.444403
0.42019
0.415395
0.413517
0.412076
0.410832
0.40968
0.408571
0.407486
0.406415
0.405356
0.404308
0.403271
0.402246
0.401233
0.400233
0.399247
0.398274
0.397316
0.396374
0.395447
0.394536
0.393642
0.392765
0.391905
0.391064
0.39024
0.389435
0.388649
0.387881
0.387133
0.386403
0.385693
0.385001
0.384329
0.383676
0.383041
0.382425
0.381827
0.381248
0.380687
0.380143
0.379617
0.379108
0.378615
0.378139
0.377678
0.377233
0.376802
0.376386
0.375984
0.375595
0.375218
0.374854
0.3745
0.374158
0.373826
0.373504
0.37319
0.372885
0.372587
0.372296
0.372012
0.371732
0.371458
0.371187
0.37092
0.370655
0.370392
0.37013
0.444431
0.422041
0.414369
0.412884
0.411865
0.410771
0.409667
0.408571
0.407488
0.406416
0.405357
0.404309
0.403273
0.402248
0.401236
0.400236
0.39925
0.398278
0.39732
0.396377
0.395451
0.39454
0.393646
0.392769
0.391909
0.391067
0.390244
0.389439
0.388652
0.387885
0.387136
0.386406
0.385695
0.385004
0.384331
0.383678
0.383043
0.382427
0.381829
0.38125
0.380688
0.380145
0.379618
0.379109
0.378616
0.378139
0.377679
0.377233
0.376803
0.376386
0.375984
0.375595
0.375218
0.374853
0.3745
0.374158
0.373826
0.373504
0.37319
0.372885
0.372587
0.372296
0.372011
0.371732
0.371457
0.371187
0.37092
0.370655
0.370392
0.37013
0.444431
0.422046
0.414362
0.412879
0.411863
0.410771
0.409667
0.408572
0.407489
0.406418
0.405359
0.404311
0.403275
0.402251
0.401239
0.400239
0.399254
0.398282
0.397324
0.396382
0.395455
0.394544
0.39365
0.392773
0.391913
0.391072
0.390248
0.389443
0.388656
0.387888
0.387139
0.38641
0.385699
0.385007
0.384334
0.383681
0.383046
0.382429
0.381831
0.381252
0.38069
0.380146
0.37962
0.37911
0.378617
0.378141
0.37768
0.377234
0.376804
0.376387
0.375985
0.375595
0.375218
0.374854
0.374501
0.374158
0.373826
0.373504
0.37319
0.372885
0.372587
0.372296
0.372011
0.371732
0.371457
0.371187
0.37092
0.370655
0.370392
0.37013
0.444431
0.422042
0.414375
0.412883
0.411858
0.410768
0.409667
0.408574
0.407491
0.406421
0.405362
0.404314
0.403278
0.402254
0.401242
0.400243
0.399257
0.398285
0.397327
0.396385
0.395458
0.394548
0.393654
0.392777
0.391917
0.391075
0.390252
0.389446
0.38866
0.387892
0.387143
0.386413
0.385702
0.38501
0.384337
0.383683
0.383048
0.382432
0.381834
0.381254
0.380693
0.380148
0.379622
0.379112
0.378619
0.378142
0.377681
0.377236
0.376805
0.376388
0.375985
0.375596
0.375219
0.374854
0.374501
0.374159
0.373827
0.373504
0.37319
0.372885
0.372587
0.372296
0.372011
0.371732
0.371458
0.371187
0.37092
0.370655
0.370392
0.37013
0.444403
0.420192
0.415401
0.413511
0.412067
0.410826
0.409678
0.408572
0.407488
0.406419
0.405361
0.404315
0.403279
0.402255
0.401243
0.400244
0.399259
0.398287
0.39733
0.396387
0.395461
0.39455
0.393656
0.392779
0.39192
0.391078
0.390255
0.389449
0.388663
0.387895
0.387146
0.386416
0.385705
0.385013
0.38434
0.383686
0.383051
0.382434
0.381836
0.381256
0.380695
0.38015
0.379624
0.379114
0.378621
0.378144
0.377683
0.377237
0.376806
0.376389
0.375986
0.375597
0.37522
0.374855
0.374502
0.374159
0.373827
0.373505
0.373191
0.372885
0.372588
0.372297
0.372012
0.371732
0.371458
0.371187
0.37092
0.370655
0.370392
0.37013
0.444402
0.420173
0.415379
0.413495
0.412053
0.410815
0.409669
0.408565
0.407483
0.406415
0.405358
0.404313
0.403278
0.402254
0.401243
0.400245
0.399259
0.398288
0.397331
0.396389
0.395462
0.394552
0.393658
0.392782
0.391922
0.391081
0.390257
0.389452
0.388665
0.387897
0.387148
0.386418
0.385707
0.385015
0.384342
0.383688
0.383053
0.382436
0.381838
0.381258
0.380696
0.380152
0.379625
0.379115
0.378622
0.378145
0.377684
0.377238
0.376807
0.37639
0.375987
0.375598
0.375221
0.374856
0.374502
0.37416
0.373828
0.373505
0.373191
0.372886
0.372588
0.372297
0.372012
0.371732
0.371458
0.371187
0.37092
0.370655
0.370392
0.37013
0.444402
0.420172
0.415377
0.413493
0.412051
0.410814
0.409668
0.408564
0.407483
0.406415
0.405359
0.404313
0.403278
0.402255
0.401244
0.400246
0.399261
0.398289
0.397332
0.39639
0.395464
0.394554
0.39366
0.392784
0.391924
0.391083
0.390259
0.389454
0.388667
0.387899
0.38715
0.38642
0.385709
0.385017
0.384344
0.38369
0.383054
0.382438
0.381839
0.381259
0.380697
0.380153
0.379626
0.379116
0.378623
0.378146
0.377685
0.377239
0.376808
0.376391
0.375988
0.375598
0.375221
0.374856
0.374503
0.37416
0.373828
0.373505
0.373192
0.372886
0.372588
0.372297
0.372012
0.371733
0.371458
0.371187
0.37092
0.370655
0.370392
0.37013
0.444402
0.420176
0.415383
0.413499
0.412057
0.410819
0.409673
0.408569
0.407487
0.406419
0.405362
0.404316
0.403281
0.402258
0.401247
0.400248
0.399263
0.398291
0.397334
0.396392
0.395466
0.394556
0.393662
0.392785
0.391926
0.391084
0.39026
0.389455
0.388668
0.3879
0.387151
0.386421
0.38571
0.385018
0.384345
0.383691
0.383055
0.382439
0.38184
0.38126
0.380698
0.380154
0.379627
0.379117
0.378624
0.378147
0.377685
0.377239
0.376808
0.376391
0.375988
0.375599
0.375222
0.374857
0.374503
0.374161
0.373828
0.373506
0.373192
0.372886
0.372588
0.372297
0.372012
0.371733
0.371458
0.371187
0.37092
0.370655
0.370392
0.37013
0.444403
0.420196
0.415405
0.413532
0.412089
0.410844
0.409691
0.408582
0.407497
0.406427
0.405369
0.404322
0.403286
0.402262
0.40125
0.400251
0.399265
0.398293
0.397336
0.396394
0.395467
0.394557
0.393663
0.392786
0.391927
0.391085
0.390261
0.389456
0.388669
0.387901
0.387152
0.386422
0.385711
0.385019
0.384346
0.383691
0.383056
0.382439
0.381841
0.381261
0.380699
0.380154
0.379627
0.379117
0.378624
0.378147
0.377686
0.37724
0.376808
0.376392
0.375989
0.375599
0.375222
0.374857
0.374503
0.374161
0.373828
0.373506
0.373192
0.372886
0.372588
0.372297
0.372012
0.371733
0.371458
0.371187
0.37092
0.370655
0.370392
0.37013
0.444431
0.422067
0.414392
0.412903
0.411884
0.410792
0.409688
0.408591
0.407506
0.406433
0.405373
0.404325
0.403288
0.402263
0.401251
0.400251
0.399266
0.398294
0.397336
0.396394
0.395467
0.394557
0.393663
0.392786
0.391927
0.391085
0.390261
0.389456
0.388669
0.387901
0.387152
0.386422
0.385711
0.385019
0.384346
0.383691
0.383056
0.382439
0.381841
0.381261
0.380699
0.380155
0.379628
0.379118
0.378624
0.378147
0.377686
0.37724
0.376809
0.376392
0.375989
0.375599
0.375222
0.374857
0.374504
0.374161
0.373829
0.373506
0.373192
0.372886
0.372588
0.372297
0.372012
0.371733
0.371458
0.371187
0.37092
0.370655
0.370392
0.37013
0.444465
0.423489
0.413815
0.412479
0.41161
0.410633
0.409601
0.408544
0.407481
0.406419
0.405365
0.404319
0.403284
0.40226
0.401249
0.40025
0.399264
0.398293
0.397335
0.396393
0.395467
0.394556
0.393663
0.392786
0.391926
0.391085
0.390261
0.389456
0.388669
0.387901
0.387152
0.386422
0.385711
0.385019
0.384346
0.383691
0.383056
0.382439
0.381841
0.381261
0.380699
0.380155
0.379628
0.379118
0.378624
0.378147
0.377686
0.37724
0.376809
0.376392
0.375989
0.375599
0.375222
0.374857
0.374504
0.374161
0.373829
0.373506
0.373192
0.372886
0.372588
0.372297
0.372012
0.371733
0.371458
0.371187
0.37092
0.370655
0.370392
0.37013
0.444465
0.423491
0.4138
0.41246
0.411594
0.410621
0.409592
0.408537
0.407475
0.406415
0.405361
0.404316
0.403281
0.402258
0.401247
0.400248
0.399263
0.398292
0.397335
0.396393
0.395466
0.394556
0.393662
0.392785
0.391926
0.391084
0.390261
0.389455
0.388669
0.387901
0.387152
0.386422
0.385711
0.385018
0.384345
0.383691
0.383056
0.382439
0.381841
0.381261
0.380699
0.380154
0.379628
0.379118
0.378624
0.378147
0.377686
0.37724
0.376809
0.376392
0.375989
0.375599
0.375222
0.374857
0.374504
0.374161
0.373829
0.373506
0.373192
0.372886
0.372588
0.372297
0.372012
0.371733
0.371458
0.371187
0.37092
0.370655
0.370392
0.37013
0.444465
0.42349
0.413798
0.412458
0.411592
0.410619
0.40959
0.408535
0.407473
0.406413
0.405359
0.404315
0.40328
0.402257
0.401246
0.400247
0.399262
0.398291
0.397334
0.396392
0.395466
0.394555
0.393662
0.392785
0.391925
0.391084
0.39026
0.389455
0.388668
0.3879
0.387151
0.386421
0.38571
0.385018
0.384345
0.383691
0.383056
0.382439
0.381841
0.381261
0.380699
0.380154
0.379627
0.379117
0.378624
0.378147
0.377686
0.37724
0.376809
0.376392
0.375989
0.375599
0.375222
0.374857
0.374504
0.374161
0.373829
0.373506
0.373192
0.372886
0.372588
0.372297
0.372012
0.371733
0.371458
0.371187
0.37092
0.370655
0.370392
0.37013
0.444465
0.423489
0.413797
0.412457
0.411591
0.410618
0.409589
0.408534
0.407473
0.406413
0.405359
0.404314
0.40328
0.402257
0.401245
0.400247
0.399262
0.39829
0.397333
0.396391
0.395465
0.394555
0.393661
0.392784
0.391925
0.391084
0.39026
0.389455
0.388668
0.3879
0.387151
0.386421
0.38571
0.385018
0.384345
0.383691
0.383056
0.382439
0.381841
0.381261
0.380699
0.380154
0.379627
0.379117
0.378624
0.378147
0.377686
0.37724
0.376809
0.376392
0.375989
0.375599
0.375222
0.374857
0.374504
0.374161
0.373829
0.373506
0.373192
0.372886
0.372588
0.372297
0.372012
0.371733
0.371458
0.371187
0.37092
0.370655
0.370392
0.37013
0.444465
0.423489
0.413797
0.412457
0.411591
0.410618
0.409588
0.408534
0.407472
0.406412
0.405359
0.404314
0.403279
0.402256
0.401245
0.400247
0.399261
0.39829
0.397333
0.396391
0.395465
0.394555
0.393661
0.392784
0.391925
0.391083
0.39026
0.389455
0.388668
0.3879
0.387151
0.386421
0.38571
0.385018
0.384345
0.383691
0.383056
0.382439
0.381841
0.381261
0.380699
0.380154
0.379627
0.379117
0.378624
0.378147
0.377686
0.37724
0.376809
0.376392
0.375989
0.375599
0.375222
0.374857
0.374504
0.374161
0.373829
0.373506
0.373192
0.372886
0.372588
0.372297
0.372012
0.371733
0.371458
0.371187
0.37092
0.370655
0.370392
0.37013
0.444465
0.423489
0.413797
0.412457
0.411591
0.410618
0.409588
0.408534
0.407472
0.406412
0.405358
0.404314
0.403279
0.402256
0.401245
0.400246
0.399261
0.39829
0.397333
0.396391
0.395465
0.394555
0.393661
0.392784
0.391925
0.391083
0.39026
0.389455
0.388668
0.3879
0.387151
0.386421
0.38571
0.385018
0.384345
0.383691
0.383056
0.382439
0.381841
0.381261
0.380699
0.380154
0.379627
0.379117
0.378624
0.378147
0.377686
0.37724
0.376809
0.376392
0.375989
0.375599
0.375222
0.374857
0.374504
0.374161
0.373829
0.373506
0.373192
0.372886
0.372588
0.372297
0.372012
0.371733
0.371458
0.371187
0.37092
0.370655
0.370392
0.37013
0.444465
0.423489
0.413797
0.412457
0.41159
0.410618
0.409588
0.408534
0.407472
0.406412
0.405358
0.404314
0.403279
0.402256
0.401245
0.400246
0.399261
0.39829
0.397333
0.396391
0.395465
0.394555
0.393661
0.392784
0.391925
0.391083
0.39026
0.389455
0.388668
0.3879
0.387151
0.386421
0.38571
0.385018
0.384345
0.383691
0.383056
0.382439
0.381841
0.381261
0.380699
0.380154
0.379627
0.379117
0.378624
0.378147
0.377686
0.37724
0.376809
0.376392
0.375989
0.375599
0.375222
0.374857
0.374504
0.374161
0.373829
0.373506
0.373192
0.372886
0.372588
0.372297
0.372012
0.371733
0.371458
0.371187
0.37092
0.370655
0.370392
0.37013
0.444465
0.423489
0.413797
0.412457
0.41159
0.410618
0.409588
0.408534
0.407472
0.406412
0.405358
0.404314
0.403279
0.402256
0.401245
0.400246
0.399261
0.39829
0.397333
0.396391
0.395465
0.394554
0.393661
0.392784
0.391925
0.391083
0.39026
0.389455
0.388668
0.3879
0.387151
0.386421
0.38571
0.385018
0.384345
0.383691
0.383056
0.382439
0.381841
0.381261
0.380699
0.380154
0.379627
0.379117
0.378624
0.378147
0.377686
0.37724
0.376809
0.376392
0.375989
0.375599
0.375222
0.374857
0.374504
0.374161
0.373829
0.373506
0.373192
0.372886
0.372588
0.372297
0.372012
0.371733
0.371458
0.371187
0.37092
0.370655
0.370392
0.37013
0.444465
0.423489
0.413797
0.412457
0.41159
0.410618
0.409588
0.408534
0.407472
0.406412
0.405358
0.404314
0.403279
0.402256
0.401245
0.400246
0.399261
0.39829
0.397333
0.396391
0.395465
0.394554
0.393661
0.392784
0.391925
0.391083
0.39026
0.389455
0.388668
0.3879
0.387151
0.386421
0.38571
0.385018
0.384345
0.383691
0.383056
0.382439
0.381841
0.381261
0.380699
0.380154
0.379627
0.379117
0.378624
0.378147
0.377686
0.37724
0.376809
0.376392
0.375989
0.375599
0.375222
0.374857
0.374504
0.374161
0.373829
0.373506
0.373192
0.372886
0.372588
0.372297
0.372012
0.371733
0.371458
0.371187
0.37092
0.370655
0.370392
0.37013
0.444465
0.423489
0.413797
0.412457
0.41159
0.410618
0.409588
0.408534
0.407472
0.406412
0.405358
0.404314
0.403279
0.402256
0.401245
0.400246
0.399261
0.39829
0.397333
0.396391
0.395465
0.394554
0.393661
0.392784
0.391925
0.391083
0.39026
0.389455
0.388668
0.3879
0.387151
0.386421
0.38571
0.385018
0.384345
0.383691
0.383056
0.382439
0.381841
0.381261
0.380699
0.380154
0.379627
0.379117
0.378624
0.378147
0.377686
0.37724
0.376809
0.376392
0.375989
0.375599
0.375222
0.374857
0.374504
0.374161
0.373829
0.373506
0.373192
0.372886
0.372588
0.372297
0.372012
0.371733
0.371458
0.371187
0.37092
0.370655
0.370392
0.37013
0.444465
0.423489
0.413797
0.412457
0.41159
0.410618
0.409588
0.408534
0.407472
0.406412
0.405358
0.404314
0.403279
0.402256
0.401245
0.400246
0.399261
0.39829
0.397333
0.396391
0.395465
0.394554
0.393661
0.392784
0.391925
0.391083
0.39026
0.389455
0.388668
0.3879
0.387151
0.386421
0.38571
0.385018
0.384345
0.383691
0.383056
0.382439
0.381841
0.381261
0.380699
0.380154
0.379627
0.379117
0.378624
0.378147
0.377686
0.37724
0.376809
0.376392
0.375989
0.375599
0.375222
0.374857
0.374504
0.374161
0.373829
0.373506
0.373192
0.372886
0.372588
0.372297
0.372012
0.371733
0.371458
0.371187
0.37092
0.370655
0.370392
0.37013
0.444465
0.423489
0.413797
0.412457
0.41159
0.410618
0.409588
0.408534
0.407472
0.406412
0.405358
0.404314
0.403279
0.402256
0.401245
0.400246
0.399261
0.39829
0.397333
0.396391
0.395465
0.394554
0.393661
0.392784
0.391925
0.391083
0.39026
0.389455
0.388668
0.3879
0.387151
0.386421
0.38571
0.385018
0.384345
0.383691
0.383056
0.382439
0.381841
0.381261
0.380699
0.380154
0.379627
0.379117
0.378624
0.378147
0.377686
0.37724
0.376809
0.376392
0.375989
0.375599
0.375222
0.374857
0.374504
0.374161
0.373829
0.373506
0.373192
0.372886
0.372588
0.372297
0.372012
0.371733
0.371458
0.371187
0.37092
0.370655
0.370392
0.37013
0.444465
0.423489
0.413797
0.412457
0.41159
0.410618
0.409588
0.408534
0.407472
0.406412
0.405358
0.404314
0.403279
0.402256
0.401245
0.400246
0.399261
0.39829
0.397333
0.396391
0.395465
0.394554
0.393661
0.392784
0.391925
0.391083
0.39026
0.389455
0.388668
0.3879
0.387151
0.386421
0.38571
0.385018
0.384345
0.383691
0.383056
0.382439
0.381841
0.381261
0.380699
0.380154
0.379627
0.379117
0.378624
0.378147
0.377686
0.37724
0.376809
0.376392
0.375989
0.375599
0.375222
0.374857
0.374504
0.374161
0.373829
0.373506
0.373192
0.372886
0.372588
0.372297
0.372012
0.371733
0.371458
0.371187
0.37092
0.370655
0.370392
0.37013
0.444465
0.423489
0.413797
0.412457
0.41159
0.410618
0.409588
0.408534
0.407472
0.406412
0.405358
0.404314
0.403279
0.402256
0.401245
0.400246
0.399261
0.39829
0.397333
0.396391
0.395465
0.394554
0.393661
0.392784
0.391925
0.391083
0.39026
0.389455
0.388668
0.3879
0.387151
0.386421
0.38571
0.385018
0.384345
0.383691
0.383056
0.382439
0.381841
0.381261
0.380699
0.380154
0.379627
0.379117
0.378624
0.378147
0.377686
0.37724
0.376809
0.376392
0.375989
0.375599
0.375222
0.374857
0.374504
0.374161
0.373829
0.373506
0.373192
0.372886
0.372588
0.372297
0.372012
0.371733
0.371458
0.371187
0.37092
0.370655
0.370392
0.37013
0.444465
0.423489
0.413797
0.412457
0.41159
0.410618
0.409588
0.408534
0.407472
0.406412
0.405358
0.404314
0.403279
0.402256
0.401245
0.400246
0.399261
0.39829
0.397333
0.396391
0.395465
0.394554
0.393661
0.392784
0.391925
0.391083
0.39026
0.389455
0.388668
0.3879
0.387151
0.386421
0.38571
0.385018
0.384345
0.383691
0.383056
0.382439
0.381841
0.381261
0.380699
0.380154
0.379627
0.379117
0.378624
0.378147
0.377686
0.37724
0.376809
0.376392
0.375989
0.375599
0.375222
0.374857
0.374504
0.374161
0.373829
0.373506
0.373192
0.372886
0.372588
0.372297
0.372012
0.371733
0.371458
0.371187
0.37092
0.370655
0.370392
0.37013
0.444465
0.423489
0.413797
0.412457
0.41159
0.410618
0.409588
0.408534
0.407472
0.406412
0.405358
0.404314
0.403279
0.402256
0.401245
0.400246
0.399261
0.39829
0.397333
0.396391
0.395465
0.394554
0.393661
0.392784
0.391925
0.391083
0.39026
0.389455
0.388668
0.3879
0.387151
0.386421
0.38571
0.385018
0.384345
0.383691
0.383056
0.382439
0.381841
0.381261
0.380699
0.380154
0.379627
0.379117
0.378624
0.378147
0.377686
0.37724
0.376809
0.376392
0.375989
0.375599
0.375222
0.374857
0.374504
0.374161
0.373829
0.373506
0.373192
0.372886
0.372588
0.372297
0.372012
0.371733
0.371458
0.371187
0.37092
0.370655
0.370392
0.37013
0.444465
0.423489
0.413797
0.412457
0.41159
0.410618
0.409588
0.408534
0.407472
0.406412
0.405358
0.404314
0.403279
0.402256
0.401245
0.400246
0.399261
0.39829
0.397333
0.396391
0.395465
0.394554
0.393661
0.392784
0.391925
0.391083
0.39026
0.389455
0.388668
0.3879
0.387151
0.386421
0.38571
0.385018
0.384345
0.383691
0.383056
0.382439
0.381841
0.381261
0.380699
0.380154
0.379627
0.379117
0.378624
0.378147
0.377686
0.37724
0.376809
0.376392
0.375989
0.375599
0.375222
0.374857
0.374504
0.374161
0.373829
0.373506
0.373192
0.372886
0.372588
0.372297
0.372012
0.371733
0.371458
0.371187
0.37092
0.370655
0.370392
0.37013
0.444465
0.423489
0.413797
0.412457
0.41159
0.410618
0.409588
0.408534
0.407472
0.406412
0.405358
0.404314
0.403279
0.402256
0.401245
0.400246
0.399261
0.39829
0.397333
0.396391
0.395465
0.394554
0.393661
0.392784
0.391925
0.391083
0.39026
0.389455
0.388668
0.3879
0.387151
0.386421
0.38571
0.385018
0.384345
0.383691
0.383056
0.382439
0.381841
0.381261
0.380699
0.380154
0.379627
0.379117
0.378624
0.378147
0.377686
0.37724
0.376809
0.376392
0.375989
0.375599
0.375222
0.374857
0.374504
0.374161
0.373829
0.373506
0.373192
0.372886
0.372588
0.372297
0.372012
0.371733
0.371458
0.371187
0.37092
0.370655
0.370392
0.37013
0.444465
0.423489
0.413797
0.412457
0.41159
0.410618
0.409588
0.408534
0.407472
0.406412
0.405358
0.404314
0.403279
0.402256
0.401245
0.400246
0.399261
0.39829
0.397333
0.396391
0.395465
0.394554
0.393661
0.392784
0.391925
0.391083
0.39026
0.389455
0.388668
0.3879
0.387151
0.386421
0.38571
0.385018
0.384345
0.383691
0.383056
0.382439
0.381841
0.381261
0.380699
0.380154
0.379627
0.379117
0.378624
0.378147
0.377686
0.37724
0.376809
0.376392
0.375989
0.375599
0.375222
0.374857
0.374504
0.374161
0.373829
0.373506
0.373192
0.372886
0.372588
0.372297
0.372012
0.371733
0.371458
0.371187
0.37092
0.370655
0.370392
0.37013
0.444465
0.423489
0.413797
0.412457
0.41159
0.410618
0.409588
0.408534
0.407472
0.406412
0.405358
0.404314
0.403279
0.402256
0.401245
0.400246
0.399261
0.39829
0.397333
0.396391
0.395465
0.394554
0.393661
0.392784
0.391925
0.391083
0.39026
0.389455
0.388668
0.3879
0.387151
0.386421
0.38571
0.385018
0.384345
0.383691
0.383056
0.382439
0.381841
0.381261
0.380699
0.380154
0.379627
0.379117
0.378624
0.378147
0.377686
0.37724
0.376809
0.376392
0.375989
0.375599
0.375222
0.374857
0.374504
0.374161
0.373829
0.373506
0.373192
0.372886
0.372588
0.372297
0.372012
0.371733
0.371458
0.371187
0.37092
0.370655
0.370392
0.37013
0.444465
0.423489
0.413797
0.412457
0.41159
0.410618
0.409588
0.408534
0.407472
0.406412
0.405358
0.404314
0.403279
0.402256
0.401245
0.400246
0.399261
0.39829
0.397333
0.396391
0.395465
0.394554
0.393661
0.392784
0.391925
0.391083
0.39026
0.389455
0.388668
0.3879
0.387151
0.386421
0.38571
0.385018
0.384345
0.383691
0.383056
0.382439
0.381841
0.381261
0.380699
0.380154
0.379627
0.379117
0.378624
0.378147
0.377686
0.37724
0.376809
0.376392
0.375989
0.375599
0.375222
0.374857
0.374504
0.374161
0.373829
0.373506
0.373192
0.372886
0.372588
0.372297
0.372012
0.371733
0.371458
0.371187
0.37092
0.370655
0.370392
0.37013
0.444465
0.423489
0.413797
0.412457
0.41159
0.410618
0.409588
0.408534
0.407472
0.406412
0.405358
0.404314
0.403279
0.402256
0.401245
0.400246
0.399261
0.39829
0.397333
0.396391
0.395465
0.394554
0.393661
0.392784
0.391925
0.391083
0.39026
0.389455
0.388668
0.3879
0.387151
0.386421
0.38571
0.385018
0.384345
0.383691
0.383056
0.382439
0.381841
0.381261
0.380699
0.380154
0.379627
0.379117
0.378624
0.378147
0.377686
0.37724
0.376809
0.376392
0.375989
0.375599
0.375222
0.374857
0.374504
0.374161
0.373829
0.373506
0.373192
0.372886
0.372588
0.372297
0.372012
0.371733
0.371458
0.371187
0.37092
0.370655
0.370392
0.37013
0.444465
0.423489
0.413797
0.412457
0.41159
0.410618
0.409588
0.408534
0.407472
0.406412
0.405358
0.404314
0.403279
0.402256
0.401245
0.400246
0.399261
0.39829
0.397333
0.396391
0.395465
0.394554
0.393661
0.392784
0.391925
0.391083
0.39026
0.389455
0.388668
0.3879
0.387151
0.386421
0.38571
0.385018
0.384345
0.383691
0.383056
0.382439
0.381841
0.381261
0.380699
0.380154
0.379627
0.379117
0.378624
0.378147
0.377686
0.37724
0.376809
0.376392
0.375989
0.375599
0.375222
0.374857
0.374504
0.374161
0.373829
0.373506
0.373192
0.372886
0.372588
0.372297
0.372012
0.371733
0.371458
0.371187
0.37092
0.370655
0.370392
0.37013
0.444465
0.423489
0.413797
0.412457
0.41159
0.410618
0.409588
0.408534
0.407472
0.406412
0.405358
0.404314
0.403279
0.402256
0.401245
0.400246
0.399261
0.39829
0.397333
0.396391
0.395465
0.394554
0.393661
0.392784
0.391925
0.391083
0.39026
0.389455
0.388668
0.3879
0.387151
0.386421
0.38571
0.385018
0.384345
0.383691
0.383056
0.382439
0.381841
0.381261
0.380699
0.380154
0.379627
0.379117
0.378624
0.378147
0.377686
0.37724
0.376809
0.376392
0.375989
0.375599
0.375222
0.374857
0.374504
0.374161
0.373829
0.373506
0.373192
0.372886
0.372588
0.372297
0.372012
0.371733
0.371458
0.371187
0.37092
0.370655
0.370392
0.37013
0.444465
0.423489
0.413797
0.412457
0.41159
0.410618
0.409588
0.408534
0.407472
0.406412
0.405358
0.404314
0.403279
0.402256
0.401245
0.400246
0.399261
0.39829
0.397333
0.396391
0.395465
0.394554
0.393661
0.392784
0.391925
0.391083
0.39026
0.389455
0.388668
0.3879
0.387151
0.386421
0.38571
0.385018
0.384345
0.383691
0.383056
0.382439
0.381841
0.381261
0.380699
0.380154
0.379627
0.379117
0.378624
0.378147
0.377686
0.37724
0.376809
0.376392
0.375989
0.375599
0.375222
0.374857
0.374504
0.374161
0.373829
0.373506
0.373192
0.372886
0.372588
0.372297
0.372012
0.371733
0.371458
0.371187
0.37092
0.370655
0.370392
0.37013
0.444465
0.423489
0.413797
0.412457
0.41159
0.410618
0.409588
0.408534
0.407472
0.406412
0.405358
0.404314
0.403279
0.402256
0.401245
0.400246
0.399261
0.39829
0.397333
0.396391
0.395465
0.394554
0.393661
0.392784
0.391925
0.391083
0.39026
0.389455
0.388668
0.3879
0.387151
0.386421
0.38571
0.385018
0.384345
0.383691
0.383056
0.382439
0.381841
0.381261
0.380699
0.380154
0.379627
0.379117
0.378624
0.378147
0.377686
0.37724
0.376809
0.376392
0.375989
0.375599
0.375222
0.374857
0.374504
0.374161
0.373829
0.373506
0.373192
0.372886
0.372588
0.372297
0.372012
0.371733
0.371458
0.371187
0.37092
0.370655
0.370392
0.37013
0.444465
0.423489
0.413797
0.412457
0.41159
0.410618
0.409588
0.408534
0.407472
0.406412
0.405358
0.404314
0.403279
0.402256
0.401245
0.400246
0.399261
0.39829
0.397333
0.396391
0.395465
0.394554
0.393661
0.392784
0.391925
0.391083
0.39026
0.389455
0.388668
0.3879
0.387151
0.386421
0.38571
0.385018
0.384345
0.383691
0.383056
0.382439
0.381841
0.381261
0.380699
0.380154
0.379627
0.379117
0.378624
0.378147
0.377686
0.37724
0.376809
0.376392
0.375989
0.375599
0.375222
0.374857
0.374504
0.374161
0.373829
0.373506
0.373192
0.372886
0.372588
0.372297
0.372012
0.371733
0.371458
0.371187
0.37092
0.370655
0.370392
0.37013
0.444465
0.423489
0.413797
0.412457
0.41159
0.410618
0.409588
0.408534
0.407472
0.406412
0.405358
0.404314
0.403279
0.402256
0.401245
0.400246
0.399261
0.39829
0.397333
0.396391
0.395465
0.394554
0.393661
0.392784
0.391925
0.391083
0.39026
0.389455
0.388668
0.3879
0.387151
0.386421
0.38571
0.385018
0.384345
0.383691
0.383056
0.382439
0.381841
0.381261
0.380699
0.380154
0.379627
0.379117
0.378624
0.378147
0.377686
0.37724
0.376809
0.376392
0.375989
0.375599
0.375222
0.374857
0.374504
0.374161
0.373829
0.373506
0.373192
0.372886
0.372588
0.372297
0.372012
0.371733
0.371458
0.371187
0.37092
0.370655
0.370392
0.37013
0.444465
0.423489
0.413797
0.412457
0.41159
0.410618
0.409588
0.408534
0.407472
0.406412
0.405358
0.404314
0.403279
0.402256
0.401245
0.400246
0.399261
0.39829
0.397333
0.396391
0.395465
0.394554
0.393661
0.392784
0.391925
0.391083
0.39026
0.389455
0.388668
0.3879
0.387151
0.386421
0.38571
0.385018
0.384345
0.383691
0.383056
0.382439
0.381841
0.381261
0.380699
0.380154
0.379627
0.379117
0.378624
0.378147
0.377686
0.37724
0.376809
0.376392
0.375989
0.375599
0.375222
0.374857
0.374504
0.374161
0.373829
0.373506
0.373192
0.372886
0.372588
0.372297
0.372012
0.371733
0.371458
0.371187
0.37092
0.370655
0.370392
0.37013
0.444465
0.423489
0.413797
0.412457
0.41159
0.410618
0.409588
0.408534
0.407472
0.406412
0.405358
0.404314
0.403279
0.402256
0.401245
0.400246
0.399261
0.39829
0.397333
0.396391
0.395465
0.394554
0.393661
0.392784
0.391925
0.391083
0.39026
0.389455
0.388668
0.3879
0.387151
0.386421
0.38571
0.385018
0.384345
0.383691
0.383056
0.382439
0.381841
0.381261
0.380699
0.380154
0.379627
0.379117
0.378624
0.378147
0.377686
0.37724
0.376809
0.376392
0.375989
0.375599
0.375222
0.374857
0.374504
0.374161
0.373829
0.373506
0.373192
0.372886
0.372588
0.372297
0.372012
0.371733
0.371458
0.371187
0.37092
0.370655
0.370392
0.37013
0.444465
0.423489
0.413797
0.412457
0.41159
0.410618
0.409588
0.408534
0.407472
0.406412
0.405358
0.404314
0.403279
0.402256
0.401245
0.400246
0.399261
0.39829
0.397333
0.396391
0.395465
0.394554
0.393661
0.392784
0.391925
0.391083
0.39026
0.389455
0.388668
0.3879
0.387151
0.386421
0.38571
0.385018
0.384345
0.383691
0.383056
0.382439
0.381841
0.381261
0.380699
0.380154
0.379627
0.379117
0.378624
0.378147
0.377686
0.37724
0.376809
0.376392
0.375989
0.375599
0.375222
0.374857
0.374504
0.374161
0.373829
0.373506
0.373192
0.372886
0.372588
0.372297
0.372012
0.371733
0.371458
0.371187
0.37092
0.370655
0.370392
0.37013
0.444465
0.423489
0.413797
0.412457
0.41159
0.410618
0.409588
0.408534
0.407472
0.406412
0.405358
0.404314
0.403279
0.402256
0.401245
0.400246
0.399261
0.39829
0.397333
0.396391
0.395465
0.394554
0.393661
0.392784
0.391925
0.391083
0.39026
0.389455
0.388668
0.3879
0.387151
0.386421
0.38571
0.385018
0.384345
0.383691
0.383056
0.382439
0.381841
0.381261
0.380699
0.380154
0.379627
0.379117
0.378624
0.378147
0.377686
0.37724
0.376809
0.376392
0.375989
0.375599
0.375222
0.374857
0.374504
0.374161
0.373829
0.373506
0.373192
0.372886
0.372588
0.372297
0.372012
0.371733
0.371458
0.371187
0.37092
0.370655
0.370392
0.37013
0.444465
0.423489
0.413797
0.412457
0.41159
0.410618
0.409588
0.408534
0.407472
0.406412
0.405358
0.404314
0.403279