/*--------------------------------*- C++ -*----------------------------------*\
  =========                 |
  \\      /  F ield         | OpenFOAM: The Open Source CFD Toolbox
   \\    /   O peration     | Website:  https://openfoam.org
    \\  /    A nd           | Version:  13
     \\/     M anipulation  |
\*---------------------------------------------------------------------------*/
FoamFile
{
    format      ascii;
    class       volScalarField;
    location    "187.5";
    object      rhok;
}
// * * * * * * * * * * * * * * * * * * * * * * * * * * * * * * * * * * * * * //

dimensions      [];

internalField   nonuniform List<scalar> 
315000
(
0.444654
0.430918
0.417674
0.413667
0.412866
0.412291
0.411648
0.410977
0.410296
0.40961
0.408923
0.408236
0.407548
0.406862
0.406176
0.405491
0.404806
0.404122
0.403439
0.402757
0.402076
0.401396
0.400718
0.40004
0.399363
0.398688
0.398014
0.397342
0.396671
0.396001
0.395333
0.394666
0.394001
0.393337
0.392675
0.392014
0.391355
0.390698
0.390042
0.389387
0.388734
0.388083
0.387433
0.386784
0.386138
0.385492
0.384848
0.384205
0.383564
0.382924
0.382285
0.381647
0.381011
0.380375
0.379741
0.379107
0.378475
0.377843
0.377213
0.376583
0.375954
0.375325
0.374697
0.37407
0.373443
0.372816
0.37219
0.371564
0.370938
0.370312
0.444653
0.430911
0.417661
0.413656
0.412857
0.412283
0.411641
0.410972
0.410291
0.409607
0.408921
0.408234
0.407548
0.406862
0.406177
0.405492
0.404807
0.404124
0.403441
0.402759
0.402078
0.401398
0.400719
0.400041
0.399364
0.398689
0.398015
0.397342
0.396671
0.396001
0.395332
0.394665
0.394
0.393336
0.392674
0.392013
0.391354
0.390696
0.39004
0.389386
0.388733
0.388081
0.387431
0.386783
0.386136
0.385491
0.384847
0.384204
0.383562
0.382922
0.382283
0.381646
0.381009
0.380374
0.37974
0.379106
0.378474
0.377843
0.377212
0.376582
0.375953
0.375325
0.374697
0.374069
0.373442
0.372816
0.37219
0.371564
0.370938
0.370312
0.444652
0.430867
0.417629
0.41365
0.412851
0.412273
0.411632
0.410965
0.410287
0.409604
0.408919
0.408233
0.407548
0.406863
0.406178
0.405493
0.404809
0.404126
0.403443
0.402761
0.40208
0.4014
0.400721
0.400042
0.399366
0.39869
0.398016
0.397343
0.396671
0.396001
0.395332
0.394665
0.394
0.393336
0.392673
0.392012
0.391353
0.390695
0.390039
0.389385
0.388732
0.38808
0.38743
0.386782
0.386135
0.385489
0.384845
0.384203
0.383561
0.382921
0.382282
0.381645
0.381008
0.380373
0.379739
0.379106
0.378473
0.377842
0.377211
0.376582
0.375952
0.375324
0.374696
0.374069
0.373442
0.372815
0.372189
0.371563
0.370938
0.370312
0.444652
0.430851
0.416489
0.414227
0.413257
0.412452
0.411716
0.411008
0.410312
0.409621
0.408932
0.408244
0.407557
0.40687
0.406184
0.405499
0.404814
0.40413
0.403446
0.402764
0.402082
0.401401
0.400722
0.400043
0.399366
0.39869
0.398016
0.397343
0.396671
0.396001
0.395332
0.394665
0.393999
0.393335
0.392672
0.392011
0.391352
0.390694
0.390038
0.389384
0.388731
0.388079
0.387429
0.386781
0.386134
0.385488
0.384844
0.384202
0.38356
0.38292
0.382281
0.381644
0.381007
0.380372
0.379738
0.379105
0.378473
0.377841
0.377211
0.376581
0.375952
0.375324
0.374696
0.374068
0.373442
0.372815
0.372189
0.371563
0.370937
0.370312
0.444652
0.430849
0.416482
0.41422
0.413253
0.412449
0.411713
0.411005
0.410309
0.409618
0.40893
0.408242
0.407555
0.406869
0.406183
0.405498
0.404813
0.404129
0.403445
0.402763
0.402081
0.4014
0.400721
0.400042
0.399365
0.398689
0.398014
0.397341
0.396669
0.395999
0.39533
0.394663
0.393998
0.393333
0.392671
0.39201
0.391351
0.390693
0.390037
0.389382
0.388729
0.388078
0.387428
0.38678
0.386133
0.385487
0.384843
0.384201
0.383559
0.382919
0.382281
0.381643
0.381007
0.380371
0.379737
0.379104
0.378472
0.377841
0.37721
0.37658
0.375951
0.375323
0.374695
0.374068
0.373441
0.372815
0.372189
0.371563
0.370937
0.370312
0.44465
0.43077
0.416427
0.414178
0.413221
0.412423
0.41169
0.410984
0.41029
0.409601
0.408915
0.408229
0.407544
0.406859
0.406174
0.405489
0.404805
0.404122
0.403439
0.402757
0.402076
0.401395
0.400716
0.400038
0.399361
0.398685
0.398011
0.397338
0.396666
0.395996
0.395328
0.394661
0.393995
0.393331
0.392669
0.392008
0.391349
0.390691
0.390035
0.389381
0.388728
0.388077
0.387427
0.386778
0.386132
0.385486
0.384842
0.3842
0.383558
0.382918
0.38228
0.381642
0.381006
0.380371
0.379737
0.379103
0.378471
0.37784
0.37721
0.37658
0.375951
0.375323
0.374695
0.374068
0.373441
0.372815
0.372189
0.371563
0.370937
0.370312
0.444653
0.430908
0.417653
0.413655
0.412854
0.412278
0.411634
0.410963
0.410282
0.409596
0.40891
0.408224
0.407537
0.406851
0.406166
0.405481
0.404796
0.404113
0.40343
0.402748
0.402067
0.401387
0.400708
0.400031
0.399354
0.398679
0.398005
0.397333
0.396661
0.395992
0.395324
0.394657
0.393992
0.393328
0.392666
0.392005
0.391346
0.390689
0.390033
0.389379
0.388726
0.388075
0.387425
0.386777
0.38613
0.385485
0.384841
0.384199
0.383557
0.382917
0.382279
0.381641
0.381005
0.38037
0.379736
0.379103
0.378471
0.37784
0.377209
0.37658
0.375951
0.375322
0.374695
0.374068
0.373441
0.372815
0.372189
0.371563
0.370937
0.370312
0.444653
0.430902
0.417644
0.413636
0.412837
0.412262
0.41162
0.41095
0.410269
0.409584
0.408897
0.408211
0.407524
0.406838
0.406153
0.405468
0.404784
0.404101
0.403419
0.402737
0.402057
0.401378
0.400699
0.400022
0.399346
0.398672
0.397999
0.397327
0.396656
0.395987
0.395319
0.394653
0.393988
0.393325
0.392663
0.392003
0.391344
0.390687
0.390031
0.389377
0.388724
0.388073
0.387424
0.386776
0.386129
0.385484
0.38484
0.384198
0.383556
0.382917
0.382278
0.381641
0.381004
0.380369
0.379735
0.379102
0.37847
0.377839
0.377209
0.376579
0.37595
0.375322
0.374695
0.374067
0.373441
0.372814
0.372189
0.371563
0.370937
0.370312
0.444653
0.430894
0.41763
0.413621
0.412822
0.412248
0.411605
0.410935
0.410255
0.40957
0.408884
0.408197
0.407511
0.406826
0.406141
0.405456
0.404773
0.40409
0.403409
0.402728
0.402048
0.401369
0.400692
0.400015
0.39934
0.398666
0.397993
0.397321
0.396651
0.395983
0.395315
0.394649
0.393985
0.393322
0.39266
0.392
0.391342
0.390685
0.390029
0.389375
0.388723
0.388072
0.387423
0.386775
0.386128
0.385483
0.384839
0.384197
0.383556
0.382916
0.382277
0.38164
0.381004
0.380369
0.379735
0.379102
0.37847
0.377839
0.377208
0.376579
0.37595
0.375322
0.374694
0.374067
0.373441
0.372814
0.372188
0.371563
0.370937
0.370312
0.444653
0.43089
0.417622
0.413612
0.412813
0.412238
0.411595
0.410925
0.410245
0.40956
0.408874
0.408188
0.407502
0.406816
0.406132
0.405448
0.404765
0.404083
0.403401
0.402721
0.402042
0.401363
0.400686
0.40001
0.399335
0.398661
0.397989
0.397318
0.396648
0.395979
0.395312
0.394647
0.393982
0.39332
0.392658
0.391998
0.39134
0.390683
0.390028
0.389374
0.388722
0.388071
0.387422
0.386774
0.386127
0.385482
0.384838
0.384196
0.383555
0.382915
0.382277
0.38164
0.381004
0.380369
0.379735
0.379102
0.37847
0.377838
0.377208
0.376579
0.37595
0.375322
0.374694
0.374067
0.37344
0.372814
0.372188
0.371563
0.370937
0.370312
0.444653
0.430887
0.417616
0.413606
0.412807
0.412232
0.411589
0.410919
0.410239
0.409554
0.408868
0.408182
0.407496
0.406811
0.406126
0.405443
0.40476
0.404078
0.403397
0.402717
0.402038
0.40136
0.400683
0.400007
0.399332
0.398659
0.397986
0.397315
0.396646
0.395977
0.39531
0.394645
0.393981
0.393318
0.392657
0.391997
0.391339
0.390682
0.390027
0.389373
0.388721
0.38807
0.387421
0.386773
0.386127
0.385482
0.384838
0.384196
0.383555
0.382915
0.382277
0.381639
0.381003
0.380368
0.379734
0.379101
0.378469
0.377838
0.377208
0.376579
0.37595
0.375322
0.374694
0.374067
0.37344
0.372814
0.372188
0.371563
0.370937
0.370312
0.444653
0.430886
0.417614
0.413603
0.412803
0.412229
0.411586
0.410916
0.410235
0.409551
0.408865
0.408179
0.407493
0.406808
0.406123
0.40544
0.404757
0.404075
0.403394
0.402714
0.402035
0.401357
0.400681
0.400005
0.39933
0.398657
0.397985
0.397314
0.396644
0.395976
0.395309
0.394644
0.39398
0.393317
0.392656
0.391997
0.391338
0.390682
0.390027
0.389373
0.388721
0.38807
0.387421
0.386773
0.386126
0.385481
0.384838
0.384195
0.383554
0.382915
0.382276
0.381639
0.381003
0.380368
0.379734
0.379101
0.378469
0.377838
0.377208
0.376578
0.37595
0.375322
0.374694
0.374067
0.37344
0.372814
0.372188
0.371563
0.370937
0.370312
0.444653
0.430886
0.417613
0.413602
0.412802
0.412227
0.411585
0.410915
0.410234
0.409549
0.408863
0.408177
0.407492
0.406807
0.406122
0.405439
0.404756
0.404074
0.403393
0.402713
0.402035
0.401357
0.40068
0.400004
0.39933
0.398656
0.397984
0.397313
0.396644
0.395976
0.395309
0.394644
0.39398
0.393317
0.392656
0.391996
0.391338
0.390681
0.390026
0.389373
0.38872
0.38807
0.38742
0.386773
0.386126
0.385481
0.384838
0.384195
0.383554
0.382915
0.382276
0.381639
0.381003
0.380368
0.379734
0.379101
0.378469
0.377838
0.377208
0.376578
0.37595
0.375321
0.374694
0.374067
0.37344
0.372814
0.372188
0.371563
0.370937
0.370312
0.444653
0.430886
0.417613
0.413602
0.412802
0.412228
0.411585
0.410915
0.410234
0.409549
0.408863
0.408177
0.407492
0.406807
0.406122
0.405439
0.404756
0.404074
0.403393
0.402713
0.402035
0.401357
0.40068
0.400004
0.39933
0.398656
0.397984
0.397313
0.396644
0.395976
0.395309
0.394644
0.39398
0.393317
0.392656
0.391996
0.391338
0.390681
0.390026
0.389373
0.38872
0.38807
0.38742
0.386773
0.386126
0.385481
0.384838
0.384195
0.383554
0.382915
0.382276
0.381639
0.381003
0.380368
0.379734
0.379101
0.378469
0.377838
0.377208
0.376578
0.37595
0.375321
0.374694
0.374067
0.37344
0.372814
0.372188
0.371563
0.370937
0.370312
0.444653
0.430886
0.417614
0.413604
0.412804
0.412229
0.411586
0.410916
0.410235
0.409551
0.408865
0.408178
0.407493
0.406808
0.406123
0.40544
0.404757
0.404075
0.403394
0.402714
0.402035
0.401357
0.40068
0.400005
0.39933
0.398657
0.397985
0.397314
0.396644
0.395976
0.395309
0.394644
0.39398
0.393317
0.392656
0.391996
0.391338
0.390682
0.390026
0.389373
0.388721
0.38807
0.38742
0.386773
0.386126
0.385481
0.384838
0.384195
0.383554
0.382915
0.382276
0.381639
0.381003
0.380368
0.379734
0.379101
0.378469
0.377838
0.377208
0.376578
0.37595
0.375322
0.374694
0.374067
0.37344
0.372814
0.372188
0.371563
0.370937
0.370312
0.444653
0.430887
0.417615
0.413605
0.412805
0.41223
0.411588
0.410918
0.410237
0.409552
0.408866
0.40818
0.407494
0.406809
0.406125
0.405441
0.404758
0.404076
0.403395
0.402715
0.402036
0.401358
0.400681
0.400005
0.399331
0.398657
0.397985
0.397314
0.396645
0.395976
0.39531
0.394644
0.39398
0.393318
0.392656
0.391997
0.391339
0.390682
0.390027
0.389373
0.388721
0.38807
0.387421
0.386773
0.386126
0.385481
0.384838
0.384196
0.383555
0.382915
0.382276
0.381639
0.381003
0.380368
0.379734
0.379101
0.378469
0.377838
0.377208
0.376578
0.37595
0.375322
0.374694
0.374067
0.37344
0.372814
0.372188
0.371563
0.370937
0.370312
0.444653
0.430887
0.417616
0.413606
0.412806
0.412231
0.411589
0.410919
0.410238
0.409553
0.408867
0.408181
0.407495
0.40681
0.406125
0.405442
0.404759
0.404077
0.403396
0.402716
0.402037
0.401359
0.400682
0.400006
0.399331
0.398658
0.397986
0.397315
0.396645
0.395977
0.39531
0.394644
0.39398
0.393318
0.392657
0.391997
0.391339
0.390682
0.390027
0.389373
0.388721
0.38807
0.387421
0.386773
0.386127
0.385482
0.384838
0.384196
0.383555
0.382915
0.382277
0.381639
0.381003
0.380368
0.379734
0.379101
0.378469
0.377838
0.377208
0.376579
0.37595
0.375322
0.374694
0.374067
0.37344
0.372814
0.372188
0.371563
0.370937
0.370312
0.444653
0.430887
0.417615
0.413605
0.412805
0.412231
0.411588
0.410918
0.410237
0.409552
0.408866
0.40818
0.407495
0.40681
0.406125
0.405441
0.404759
0.404077
0.403396
0.402716
0.402037
0.401359
0.400682
0.400006
0.399331
0.398658
0.397986
0.397315
0.396645
0.395977
0.39531
0.394645
0.393981
0.393318
0.392657
0.391997
0.391339
0.390682
0.390027
0.389373
0.388721
0.38807
0.387421
0.386773
0.386127
0.385482
0.384838
0.384196
0.383555
0.382915
0.382277
0.38164
0.381003
0.380368
0.379735
0.379102
0.37847
0.377838
0.377208
0.376579
0.37595
0.375322
0.374694
0.374067
0.37344
0.372814
0.372188
0.371563
0.370937
0.370312
0.444653
0.430887
0.417615
0.413604
0.412804
0.41223
0.411587
0.410917
0.410236
0.409552
0.408866
0.40818
0.407494
0.406809
0.406125
0.405441
0.404758
0.404077
0.403396
0.402716
0.402037
0.401359
0.400682
0.400006
0.399332
0.398658
0.397986
0.397315
0.396646
0.395977
0.39531
0.394645
0.393981
0.393318
0.392657
0.391998
0.391339
0.390683
0.390027
0.389374
0.388721
0.388071
0.387421
0.386774
0.386127
0.385482
0.384838
0.384196
0.383555
0.382915
0.382277
0.38164
0.381004
0.380369
0.379735
0.379102
0.37847
0.377839
0.377208
0.376579
0.37595
0.375322
0.374694
0.374067
0.373441
0.372814
0.372188
0.371563
0.370937
0.370312
0.444653
0.430887
0.417615
0.413605
0.412805
0.412231
0.411588
0.410918
0.410238
0.409553
0.408867
0.408181
0.407495
0.40681
0.406126
0.405442
0.40476
0.404078
0.403397
0.402717
0.402038
0.40136
0.400683
0.400007
0.399332
0.398659
0.397987
0.397316
0.396646
0.395978
0.395311
0.394646
0.393982
0.393319
0.392658
0.391998
0.39134
0.390683
0.390028
0.389374
0.388722
0.388071
0.387422
0.386774
0.386127
0.385482
0.384839
0.384196
0.383555
0.382916
0.382277
0.38164
0.381004
0.380369
0.379735
0.379102
0.37847
0.377839
0.377208
0.376579
0.37595
0.375322
0.374694
0.374067
0.373441
0.372814
0.372188
0.371563
0.370937
0.370312
0.444653
0.430889
0.417619
0.413609
0.41281
0.412235
0.411593
0.410923
0.410242
0.409557
0.408871
0.408185
0.4075
0.406814
0.40613
0.405446
0.404763
0.404081
0.4034
0.40272
0.402041
0.401363
0.400685
0.400009
0.399335
0.398661
0.397989
0.397318
0.396648
0.39598
0.395313
0.394647
0.393983
0.39332
0.392659
0.391999
0.391341
0.390684
0.390029
0.389375
0.388723
0.388072
0.387422
0.386774
0.386128
0.385483
0.384839
0.384197
0.383556
0.382916
0.382278
0.38164
0.381004
0.380369
0.379735
0.379102
0.37847
0.377839
0.377209
0.376579
0.37595
0.375322
0.374694
0.374067
0.373441
0.372814
0.372188
0.371563
0.370937
0.370312
0.444653
0.430893
0.417628
0.413619
0.41282
0.412245
0.411603
0.410933
0.410252
0.409567
0.408881
0.408195
0.407509
0.406823
0.406138
0.405454
0.404771
0.404088
0.403407
0.402726
0.402046
0.401368
0.40069
0.400014
0.399339
0.398665
0.397992
0.397321
0.396651
0.395982
0.395315
0.394649
0.393985
0.393322
0.392661
0.392001
0.391342
0.390685
0.39003
0.389376
0.388723
0.388073
0.387423
0.386775
0.386129
0.385483
0.38484
0.384197
0.383556
0.382917
0.382278
0.381641
0.381004
0.380369
0.379735
0.379102
0.37847
0.377839
0.377209
0.376579
0.37595
0.375322
0.374695
0.374067
0.373441
0.372815
0.372189
0.371563
0.370937
0.370312
0.444653
0.430902
0.417645
0.413637
0.412838
0.412263
0.411621
0.410951
0.41027
0.409585
0.408898
0.408211
0.407524
0.406838
0.406152
0.405467
0.404783
0.4041
0.403417
0.402736
0.402055
0.401376
0.400698
0.400021
0.399345
0.398671
0.397997
0.397325
0.396655
0.395986
0.395318
0.394652
0.393987
0.393324
0.392663
0.392002
0.391344
0.390687
0.390031
0.389377
0.388725
0.388074
0.387424
0.386776
0.386129
0.385484
0.38484
0.384198
0.383557
0.382917
0.382278
0.381641
0.381005
0.38037
0.379736
0.379103
0.378471
0.377839
0.377209
0.376579
0.375951
0.375322
0.374695
0.374068
0.373441
0.372815
0.372189
0.371563
0.370937
0.370312
0.444653
0.430907
0.417657
0.41365
0.41285
0.412277
0.411635
0.410966
0.410287
0.409602
0.408916
0.408229
0.407542
0.406855
0.406169
0.405483
0.404798
0.404113
0.40343
0.402747
0.402066
0.401385
0.400706
0.400028
0.399352
0.398676
0.398003
0.39733
0.396659
0.39599
0.395322
0.394655
0.39399
0.393327
0.392665
0.392004
0.391345
0.390688
0.390032
0.389378
0.388726
0.388074
0.387425
0.386777
0.38613
0.385485
0.384841
0.384198
0.383557
0.382917
0.382279
0.381641
0.381005
0.38037
0.379736
0.379103
0.378471
0.37784
0.377209
0.37658
0.375951
0.375322
0.374695
0.374068
0.373441
0.372815
0.372189
0.371563
0.370937
0.370312
0.444648
0.430679
0.417491
0.413576
0.412794
0.412228
0.411599
0.410941
0.41027
0.409593
0.408913
0.40823
0.407546
0.40686
0.406175
0.40549
0.404804
0.40412
0.403436
0.402753
0.402071
0.40139
0.40071
0.400032
0.399355
0.398679
0.398005
0.397332
0.396661
0.395991
0.395323
0.394656
0.393991
0.393328
0.392666
0.392005
0.391346
0.390689
0.390033
0.389379
0.388726
0.388075
0.387425
0.386777
0.38613
0.385485
0.384841
0.384199
0.383558
0.382918
0.382279
0.381642
0.381005
0.38037
0.379736
0.379103
0.378471
0.37784
0.377209
0.37658
0.375951
0.375323
0.374695
0.374068
0.373441
0.372815
0.372189
0.371563
0.370937
0.370312
0.444652
0.43084
0.416473
0.41421
0.41324
0.412435
0.4117
0.410993
0.410297
0.409606
0.408918
0.40823
0.407542
0.406855
0.406169
0.405483
0.404797
0.404113
0.40343
0.402747
0.402066
0.401385
0.400706
0.400028
0.399352
0.398677
0.398003
0.39733
0.396659
0.39599
0.395322
0.394655
0.39399
0.393327
0.392665
0.392005
0.391346
0.390689
0.390033
0.389379
0.388726
0.388075
0.387425
0.386777
0.38613
0.385485
0.384841
0.384199
0.383558
0.382918
0.382279
0.381642
0.381006
0.38037
0.379736
0.379103
0.378471
0.37784
0.377209
0.37658
0.375951
0.375323
0.374695
0.374068
0.373441
0.372815
0.372189
0.371563
0.370937
0.370312
0.444652
0.430835
0.416456
0.414194
0.413226
0.412421
0.411685
0.410977
0.41028
0.409589
0.408899
0.408211
0.407524
0.406838
0.406152
0.405467
0.404783
0.4041
0.403417
0.402736
0.402056
0.401376
0.400698
0.400021
0.399345
0.398671
0.397998
0.397326
0.396656
0.395987
0.395319
0.394653
0.393988
0.393325
0.392663
0.392003
0.391345
0.390688
0.390032
0.389378
0.388726
0.388075
0.387425
0.386777
0.38613
0.385485
0.384841
0.384199
0.383558
0.382918
0.382279
0.381642
0.381006
0.38037
0.379736
0.379103
0.378471
0.37784
0.37721
0.37658
0.375951
0.375323
0.374695
0.374068
0.373441
0.372815
0.372189
0.371563
0.370937
0.370312
0.444652
0.430826
0.416439
0.414176
0.413208
0.412403
0.411667
0.410959
0.410263
0.409571
0.408883
0.408195
0.407509
0.406823
0.406138
0.405454
0.404771
0.404088
0.403407
0.402726
0.402047
0.401368
0.400691
0.400015
0.39934
0.398666
0.397993
0.397322
0.396652
0.395983
0.395316
0.39465
0.393986
0.393323
0.392662
0.392002
0.391344
0.390687
0.390031
0.389377
0.388725
0.388074
0.387425
0.386777
0.38613
0.385485
0.384841
0.384199
0.383558
0.382918
0.382279
0.381642
0.381006
0.380371
0.379736
0.379103
0.378471
0.37784
0.37721
0.37658
0.375951
0.375323
0.374695
0.374068
0.373441
0.372815
0.372189
0.371563
0.370937
0.370312
0.444652
0.430821
0.41643
0.414166
0.413198
0.412393
0.411657
0.410949
0.410253
0.409561
0.408873
0.408186
0.4075
0.406814
0.40613
0.405446
0.404763
0.404081
0.4034
0.40272
0.402041
0.401363
0.400686
0.40001
0.399336
0.398662
0.39799
0.397319
0.396649
0.395981
0.395314
0.394649
0.393985
0.393322
0.392661
0.392001
0.391343
0.390686
0.390031
0.389377
0.388725
0.388074
0.387424
0.386776
0.38613
0.385485
0.384841
0.384199
0.383558
0.382918
0.382279
0.381642
0.381006
0.380371
0.379737
0.379103
0.378471
0.37784
0.37721
0.37658
0.375951
0.375323
0.374695
0.374068
0.373441
0.372815
0.372189
0.371563
0.370937
0.370312
0.444652
0.430819
0.416426
0.414161
0.413193
0.412388
0.411652
0.410944
0.410248
0.409557
0.408868
0.408181
0.407495
0.40681
0.406126
0.405442
0.40476
0.404078
0.403397
0.402717
0.402038
0.40136
0.400684
0.400008
0.399334
0.39866
0.397988
0.397317
0.396648
0.39598
0.395313
0.394648
0.393984
0.393321
0.39266
0.392
0.391342
0.390686
0.39003
0.389377
0.388724
0.388074
0.387424
0.386776
0.38613
0.385485
0.384841
0.384199
0.383558
0.382918
0.382279
0.381642
0.381006
0.380371
0.379737
0.379104
0.378471
0.37784
0.37721
0.37658
0.375951
0.375323
0.374695
0.374068
0.373441
0.372815
0.372189
0.371563
0.370937
0.370312
0.444652
0.430818
0.416424
0.414159
0.413191
0.412386
0.41165
0.410942
0.410246
0.409555
0.408866
0.408179
0.407493
0.406808
0.406124
0.405441
0.404758
0.404076
0.403396
0.402716
0.402037
0.401359
0.400683
0.400007
0.399333
0.398659
0.397987
0.397317
0.396647
0.395979
0.395313
0.394647
0.393983
0.393321
0.39266
0.392
0.391342
0.390685
0.39003
0.389377
0.388724
0.388074
0.387424
0.386776
0.38613
0.385485
0.384841
0.384199
0.383558
0.382918
0.382279
0.381642
0.381006
0.380371
0.379737
0.379104
0.378472
0.37784
0.37721
0.37658
0.375951
0.375323
0.374695
0.374068
0.373441
0.372815
0.372189
0.371563
0.370937
0.370312
0.444652
0.430818
0.416424
0.414159
0.413191
0.412386
0.411649
0.410941
0.410245
0.409554
0.408865
0.408178
0.407493
0.406808
0.406123
0.40544
0.404757
0.404076
0.403395
0.402715
0.402037
0.401359
0.400682
0.400007
0.399332
0.398659
0.397987
0.397317
0.396647
0.395979
0.395312
0.394647
0.393983
0.393321
0.39266
0.392
0.391342
0.390685
0.39003
0.389377
0.388724
0.388074
0.387424
0.386776
0.38613
0.385485
0.384841
0.384199
0.383558
0.382918
0.38228
0.381642
0.381006
0.380371
0.379737
0.379104
0.378472
0.37784
0.37721
0.37658
0.375951
0.375323
0.374695
0.374068
0.373441
0.372815
0.372189
0.371563
0.370937
0.370312
0.444652
0.430818
0.416423
0.414159
0.413191
0.412385
0.411649
0.410941
0.410245
0.409554
0.408865
0.408178
0.407492
0.406807
0.406123
0.40544
0.404757
0.404076
0.403395
0.402715
0.402036
0.401359
0.400682
0.400007
0.399332
0.398659
0.397987
0.397317
0.396647
0.395979
0.395312
0.394647
0.393983
0.393321
0.39266
0.392
0.391342
0.390686
0.39003
0.389377
0.388724
0.388074
0.387424
0.386777
0.38613
0.385485
0.384841
0.384199
0.383558
0.382918
0.38228
0.381642
0.381006
0.380371
0.379737
0.379104
0.378472
0.37784
0.37721
0.37658
0.375951
0.375323
0.374695
0.374068
0.373441
0.372815
0.372189
0.371563
0.370937
0.370312
0.444652
0.430818
0.416424
0.414159
0.413191
0.412385
0.411649
0.410941
0.410245
0.409554
0.408865
0.408178
0.407492
0.406807
0.406123
0.40544
0.404757
0.404076
0.403395
0.402715
0.402037
0.401359
0.400682
0.400007
0.399332
0.398659
0.397987
0.397317
0.396647
0.395979
0.395313
0.394647
0.393983
0.393321
0.39266
0.392
0.391342
0.390686
0.39003
0.389377
0.388725
0.388074
0.387424
0.386777
0.38613
0.385485
0.384841
0.384199
0.383558
0.382918
0.38228
0.381642
0.381006
0.380371
0.379737
0.379104
0.378472
0.37784
0.37721
0.37658
0.375951
0.375323
0.374695
0.374068
0.373441
0.372815
0.372189
0.371563
0.370937
0.370312
0.444652
0.430818
0.416424
0.414159
0.413191
0.412385
0.411649
0.410941
0.410245
0.409554
0.408865
0.408178
0.407493
0.406807
0.406123
0.40544
0.404757
0.404076
0.403395
0.402715
0.402037
0.401359
0.400682
0.400007
0.399332
0.398659
0.397987
0.397317
0.396647
0.395979
0.395313
0.394647
0.393984
0.393321
0.39266
0.392
0.391342
0.390686
0.390031
0.389377
0.388725
0.388074
0.387425
0.386777
0.38613
0.385485
0.384842
0.384199
0.383558
0.382918
0.38228
0.381642
0.381006
0.380371
0.379737
0.379104
0.378472
0.377841
0.37721
0.37658
0.375951
0.375323
0.374695
0.374068
0.373441
0.372815
0.372189
0.371563
0.370937
0.370312
0.444652
0.430818
0.416424
0.414159
0.413191
0.412386
0.411649
0.410941
0.410245
0.409554
0.408865
0.408179
0.407493
0.406808
0.406123
0.40544
0.404757
0.404076
0.403395
0.402715
0.402037
0.401359
0.400682
0.400007
0.399333
0.398659
0.397988
0.397317
0.396648
0.395979
0.395313
0.394648
0.393984
0.393321
0.39266
0.392001
0.391342
0.390686
0.390031
0.389377
0.388725
0.388074
0.387425
0.386777
0.38613
0.385485
0.384842
0.384199
0.383558
0.382918
0.38228
0.381642
0.381006
0.380371
0.379737
0.379104
0.378472
0.377841
0.37721
0.37658
0.375952
0.375323
0.374695
0.374068
0.373441
0.372815
0.372189
0.371563
0.370937
0.370312
0.444652
0.430818
0.416424
0.414159
0.413191
0.412386
0.411649
0.410941
0.410245
0.409554
0.408866
0.408179
0.407493
0.406808
0.406123
0.40544
0.404758
0.404076
0.403395
0.402716
0.402037
0.401359
0.400682
0.400007
0.399333
0.39866
0.397988
0.397317
0.396648
0.39598
0.395313
0.394648
0.393984
0.393321
0.39266
0.392001
0.391343
0.390686
0.390031
0.389377
0.388725
0.388074
0.387425
0.386777
0.38613
0.385485
0.384842
0.384199
0.383558
0.382918
0.38228
0.381643
0.381006
0.380371
0.379737
0.379104
0.378472
0.377841
0.37721
0.376581
0.375952
0.375323
0.374695
0.374068
0.373441
0.372815
0.372189
0.371563
0.370937
0.370312
0.444652
0.430818
0.416424
0.414159
0.413191
0.412386
0.411649
0.410941
0.410245
0.409554
0.408866
0.408179
0.407493
0.406808
0.406124
0.40544
0.404758
0.404076
0.403395
0.402716
0.402037
0.401359
0.400683
0.400007
0.399333
0.39866
0.397988
0.397317
0.396648
0.39598
0.395313
0.394648
0.393984
0.393321
0.39266
0.392001
0.391343
0.390686
0.390031
0.389377
0.388725
0.388074
0.387425
0.386777
0.38613
0.385485
0.384842
0.384199
0.383558
0.382918
0.38228
0.381643
0.381006
0.380371
0.379737
0.379104
0.378472
0.377841
0.37721
0.376581
0.375952
0.375323
0.374696
0.374068
0.373441
0.372815
0.372189
0.371563
0.370937
0.370312
0.444652
0.430818
0.416424
0.414159
0.413191
0.412386
0.411649
0.410941
0.410245
0.409554
0.408866
0.408179
0.407493
0.406808
0.406124
0.40544
0.404758
0.404076
0.403395
0.402716
0.402037
0.401359
0.400683
0.400007
0.399333
0.39866
0.397988
0.397317
0.396648
0.39598
0.395313
0.394648
0.393984
0.393321
0.39266
0.392001
0.391343
0.390686
0.390031
0.389377
0.388725
0.388074
0.387425
0.386777
0.38613
0.385485
0.384842
0.384199
0.383558
0.382919
0.38228
0.381643
0.381006
0.380371
0.379737
0.379104
0.378472
0.377841
0.37721
0.376581
0.375952
0.375323
0.374696
0.374068
0.373441
0.372815
0.372189
0.371563
0.370937
0.370312
0.444652
0.430818
0.416424
0.414159
0.413191
0.412386
0.411649
0.410941
0.410245
0.409554
0.408866
0.408179
0.407493
0.406808
0.406124
0.40544
0.404758
0.404076
0.403395
0.402716
0.402037
0.401359
0.400683
0.400007
0.399333
0.39866
0.397988
0.397317
0.396648
0.39598
0.395313
0.394648
0.393984
0.393321
0.39266
0.392001
0.391343
0.390686
0.390031
0.389377
0.388725
0.388074
0.387425
0.386777
0.386131
0.385485
0.384842
0.384199
0.383558
0.382919
0.38228
0.381643
0.381006
0.380371
0.379737
0.379104
0.378472
0.377841
0.37721
0.376581
0.375952
0.375323
0.374696
0.374068
0.373442
0.372815
0.372189
0.371563
0.370937
0.370312
0.444652
0.430818
0.416424
0.414159
0.413191
0.412386
0.411649
0.410941
0.410245
0.409554
0.408866
0.408179
0.407493
0.406808
0.406124
0.40544
0.404758
0.404076
0.403395
0.402716
0.402037
0.401359
0.400683
0.400007
0.399333
0.39866
0.397988
0.397317
0.396648
0.39598
0.395313
0.394648
0.393984
0.393321
0.39266
0.392001
0.391343
0.390686
0.390031
0.389377
0.388725
0.388074
0.387425
0.386777
0.386131
0.385485
0.384842
0.384199
0.383558
0.382919
0.38228
0.381643
0.381006
0.380371
0.379737
0.379104
0.378472
0.377841
0.37721
0.376581
0.375952
0.375323
0.374696
0.374068
0.373442
0.372815
0.372189
0.371563
0.370937
0.370312
0.444652
0.430818
0.416424
0.414159
0.413191
0.412386
0.411649
0.410941
0.410245
0.409554
0.408866
0.408179
0.407493
0.406808
0.406124
0.40544
0.404758
0.404076
0.403395
0.402716
0.402037
0.401359
0.400683
0.400007
0.399333
0.39866
0.397988
0.397317
0.396648
0.39598
0.395313
0.394648
0.393984
0.393321
0.39266
0.392001
0.391343
0.390686
0.390031
0.389377
0.388725
0.388074
0.387425
0.386777
0.386131
0.385485
0.384842
0.384199
0.383558
0.382919
0.38228
0.381643
0.381006
0.380371
0.379737
0.379104
0.378472
0.377841
0.37721
0.376581
0.375952
0.375323
0.374696
0.374068
0.373442
0.372815
0.372189
0.371563
0.370937
0.370312
0.444652
0.430818
0.416424
0.414159
0.413191
0.412386
0.411649
0.410941
0.410245
0.409554
0.408866
0.408179
0.407493
0.406808
0.406124
0.40544
0.404758
0.404076
0.403395
0.402716
0.402037
0.401359
0.400683
0.400007
0.399333
0.39866
0.397988
0.397317
0.396648
0.39598
0.395313
0.394648
0.393984
0.393321
0.39266
0.392001
0.391343
0.390686
0.390031
0.389377
0.388725
0.388074
0.387425
0.386777
0.386131
0.385486
0.384842
0.384199
0.383558
0.382919
0.38228
0.381643
0.381006
0.380371
0.379737
0.379104
0.378472
0.377841
0.37721
0.376581
0.375952
0.375323
0.374696
0.374068
0.373442
0.372815
0.372189
0.371563
0.370937
0.370312
0.444652
0.430818
0.416424
0.414159
0.413191
0.412386
0.411649
0.410941
0.410245
0.409554
0.408866
0.408179
0.407493
0.406808
0.406124
0.40544
0.404758
0.404076
0.403395
0.402716
0.402037
0.401359
0.400683
0.400007
0.399333
0.39866
0.397988
0.397317
0.396648
0.39598
0.395313
0.394648
0.393984
0.393321
0.39266
0.392001
0.391343
0.390686
0.390031
0.389377
0.388725
0.388074
0.387425
0.386777
0.386131
0.385486
0.384842
0.384199
0.383558
0.382919
0.38228
0.381643
0.381006
0.380371
0.379737
0.379104
0.378472
0.377841
0.37721
0.376581
0.375952
0.375323
0.374696
0.374068
0.373442
0.372815
0.372189
0.371563
0.370937
0.370312
0.444652
0.430818
0.416424
0.414159
0.413191
0.412386
0.411649
0.410941
0.410245
0.409554
0.408866
0.408179
0.407493
0.406808
0.406124
0.40544
0.404758
0.404076
0.403395
0.402716
0.402037
0.401359
0.400683
0.400007
0.399333
0.39866
0.397988
0.397317
0.396648
0.39598
0.395313
0.394648
0.393984
0.393321
0.39266
0.392001
0.391343
0.390686
0.390031
0.389377
0.388725
0.388074
0.387425
0.386777
0.386131
0.385486
0.384842
0.384199
0.383558
0.382919
0.38228
0.381643
0.381006
0.380371
0.379737
0.379104
0.378472
0.377841
0.37721
0.376581
0.375952
0.375323
0.374696
0.374068
0.373442
0.372815
0.372189
0.371563
0.370937
0.370312
0.444652
0.430818
0.416424
0.414159
0.413191
0.412386
0.411649
0.410941
0.410245
0.409554
0.408866
0.408179
0.407493
0.406808
0.406124
0.40544
0.404758
0.404076
0.403395
0.402716
0.402037
0.401359
0.400683
0.400007
0.399333
0.39866
0.397988
0.397317
0.396648
0.39598
0.395313
0.394648
0.393984
0.393321
0.39266
0.392001
0.391343
0.390686
0.390031
0.389377
0.388725
0.388074
0.387425
0.386777
0.386131
0.385486
0.384842
0.384199
0.383558
0.382919
0.38228
0.381643
0.381006
0.380371
0.379737
0.379104
0.378472
0.377841
0.37721
0.376581
0.375952
0.375323
0.374696
0.374068
0.373442
0.372815
0.372189
0.371563
0.370937
0.370312
0.444652
0.430818
0.416424
0.414159
0.413191
0.412386
0.411649
0.410941
0.410245
0.409554
0.408866
0.408179
0.407493
0.406808
0.406124
0.40544
0.404758
0.404076
0.403396
0.402716
0.402037
0.401359
0.400683
0.400007
0.399333
0.39866
0.397988
0.397317
0.396648
0.39598
0.395313
0.394648
0.393984
0.393321
0.39266
0.392001
0.391343
0.390686
0.390031
0.389377
0.388725
0.388074
0.387425
0.386777
0.386131
0.385486
0.384842
0.384199
0.383558
0.382919
0.38228
0.381643
0.381006
0.380371
0.379737
0.379104
0.378472
0.377841
0.37721
0.376581
0.375952
0.375323
0.374696
0.374068
0.373442
0.372815
0.372189
0.371563
0.370937
0.370312
0.444652
0.430818
0.416424
0.414159
0.413191
0.412386
0.411649
0.410941
0.410245
0.409554
0.408866