/*--------------------------------*- C++ -*----------------------------------*\
  =========                 |
  \\      /  F ield         | OpenFOAM: The Open Source CFD Toolbox
   \\    /   O peration     | Website:  https://openfoam.org
    \\  /    A nd           | Version:  13
     \\/     M anipulation  |
\*---------------------------------------------------------------------------*/
FoamFile
{
    format      ascii;
    class       volScalarField;
    location    "95";
    object      nut;
}
// * * * * * * * * * * * * * * * * * * * * * * * * * * * * * * * * * * * * * //

dimensions      [0 2 -1 0 0 0 0];

internalField   nonuniform List<scalar> 
315000
(
1.40028e-14
3.66677e-12
8.36593e-11
1.50122e-10
2.176e-10
2.86208e-10
3.56097e-10
4.27401e-10
5.00204e-10
5.74529e-10
6.50329e-10
7.27491e-10
8.05832e-10
8.8511e-10
9.65026e-10
1.04523e-09
1.12534e-09
1.20493e-09
1.28357e-09
1.36078e-09
1.4361e-09
1.50906e-09
1.57918e-09
1.646e-09
1.70906e-09
1.76794e-09
1.82222e-09
1.87153e-09
1.9155e-09
1.95382e-09
1.98621e-09
2.01244e-09
2.0323e-09
2.04565e-09
2.05239e-09
2.05248e-09
2.0459e-09
2.03271e-09
2.01302e-09
1.98695e-09
1.95471e-09
1.91653e-09
1.8727e-09
1.82353e-09
1.76936e-09
1.71059e-09
1.64762e-09
1.58089e-09
1.51084e-09
1.43795e-09
1.36267e-09
1.2855e-09
1.20688e-09
1.1273e-09
1.04718e-09
9.66956e-10
8.87007e-10
8.07683e-10
7.29283e-10
6.5205e-10
5.76166e-10
5.01744e-10
4.2883e-10
3.57401e-10
2.87367e-10
2.18592e-10
1.5091e-10
8.41811e-11
3.69477e-12
1.41212e-14
3.50475e-13
9.33215e-11
2.12383e-08
3.83824e-08
5.56961e-08
7.32505e-08
9.11038e-08
1.09299e-07
1.27861e-07
1.46796e-07
1.66093e-07
1.85721e-07
2.05631e-07
2.25761e-07
2.46033e-07
2.66355e-07
2.86631e-07
3.06751e-07
3.26605e-07
3.46076e-07
3.65046e-07
3.83399e-07
4.01016e-07
4.17784e-07
4.33594e-07
4.48338e-07
4.61918e-07
4.74241e-07
4.85222e-07
4.94785e-07
5.02862e-07
5.09398e-07
5.14345e-07
5.17668e-07
5.19344e-07
5.1936e-07
5.17718e-07
5.14427e-07
5.09513e-07
5.03009e-07
4.94961e-07
4.85428e-07
4.74474e-07
4.62177e-07
4.4862e-07
4.33898e-07
4.18108e-07
4.01356e-07
3.83753e-07
3.65413e-07
3.46452e-07
3.26988e-07
3.07138e-07
2.87018e-07
2.66741e-07
2.46414e-07
2.26135e-07
2.05994e-07
1.8607e-07
1.66426e-07
1.4711e-07
1.28153e-07
1.09565e-07
9.13415e-08
7.34555e-08
5.58639e-08
3.85075e-08
2.13136e-08
9.36812e-11
3.51874e-13
1.41149e-12
3.76388e-10
2.17016e-07
3.90044e-07
5.63151e-07
7.3727e-07
9.13132e-07
1.09125e-06
1.2719e-06
1.45515e-06
1.64085e-06
1.82862e-06
2.01794e-06
2.20811e-06
2.39832e-06
2.58767e-06
2.77523e-06
2.95999e-06
3.14098e-06
3.3172e-06
3.48769e-06
3.6515e-06
3.80773e-06
3.95552e-06
4.09404e-06
4.22254e-06
4.34031e-06
4.44671e-06
4.54114e-06
4.62309e-06
4.6921e-06
4.7478e-06
4.78987e-06
4.81809e-06
4.83229e-06
4.8324e-06
4.81841e-06
4.79041e-06
4.74855e-06
4.69306e-06
4.62424e-06
4.54249e-06
4.44824e-06
4.34202e-06
4.22441e-06
4.09606e-06
3.95767e-06
3.81001e-06
3.65389e-06
3.49017e-06
3.31975e-06
3.14358e-06
2.96263e-06
2.77788e-06
2.59033e-06
2.40095e-06
2.21069e-06
2.02046e-06
1.83105e-06
1.64316e-06
1.45733e-06
1.27392e-06
1.09309e-06
9.14763e-07
7.38667e-07
5.64284e-07
3.90879e-07
2.17512e-07
3.77306e-10
1.41502e-12
2.61092e-12
6.96317e-10
3.99127e-07
7.1325e-07
1.02497e-06
1.33644e-06
1.64926e-06
1.96456e-06
2.28294e-06
2.60449e-06
2.92892e-06
3.25549e-06
3.58316e-06
3.91064e-06
4.23647e-06
4.55912e-06
4.877e-06
5.18855e-06
5.49222e-06
5.7865e-06
6.06995e-06
6.34119e-06
6.59889e-06
6.84178e-06
7.06868e-06
7.27855e-06
7.47041e-06
7.64334e-06
7.79654e-06
7.92928e-06
8.0409e-06
8.13089e-06
8.19879e-06
8.24429e-06
8.26717e-06
8.2673e-06
8.24469e-06
8.19946e-06
8.13181e-06
8.04208e-06
7.9307e-06
7.7982e-06
7.64523e-06
7.47251e-06
7.28087e-06
7.07119e-06
6.84446e-06
6.60172e-06
6.34417e-06
6.07305e-06
5.78969e-06
5.49549e-06
5.19188e-06
4.88036e-06
4.56248e-06
4.23981e-06
3.91393e-06
3.58638e-06
3.2586e-06
2.93189e-06
2.6073e-06
2.28555e-06
1.96694e-06
1.65138e-06
1.33825e-06
1.02644e-06
7.14337e-07
3.99776e-07
6.97534e-10
2.6156e-12
3.92908e-12
1.04802e-09
5.96918e-07
1.06025e-06
1.51617e-06
1.9686e-06
2.42042e-06
2.87353e-06
3.32894e-06
3.78689e-06
4.24691e-06
4.70795e-06
5.16853e-06
5.62685e-06
6.08099e-06
6.52893e-06
6.96863e-06
7.39812e-06
7.8155e-06
8.21899e-06
8.60692e-06
8.97763e-06
9.32956e-06
9.66118e-06
9.97102e-06
1.02576e-05
1.05197e-05
1.0756e-05
1.09653e-05
1.11467e-05
1.12992e-05
1.14222e-05
1.1515e-05
1.15771e-05
1.16083e-05
1.16085e-05
1.15775e-05
1.15157e-05
1.14232e-05
1.13005e-05
1.11482e-05
1.09671e-05
1.0758e-05
1.05219e-05
1.02601e-05
9.97364e-06
9.66399e-06
9.33254e-06
8.98075e-06
8.61017e-06
8.22236e-06
7.81895e-06
7.40163e-06
6.97219e-06
6.53249e-06
6.08455e-06
5.63037e-06
5.17197e-06
4.71129e-06
4.25011e-06
3.78992e-06
3.33177e-06
2.87611e-06
2.42272e-06
1.97059e-06
1.51779e-06
1.06145e-06
5.97642e-07
1.0494e-09
3.93441e-12
5.2712e-12
1.40624e-09
7.95867e-07
1.40523e-06
1.99998e-06
2.58634e-06
3.16871e-06
3.74998e-06
4.33172e-06
4.91433e-06
5.49731e-06
6.07942e-06
6.65887e-06
7.2336e-06
7.80137e-06
8.35991e-06
8.90702e-06
9.44058e-06
9.95857e-06
1.0459e-05
1.09401e-05
1.13998e-05
1.18362e-05
1.22475e-05
1.26316e-05
1.2987e-05
1.33117e-05
1.36043e-05
1.38634e-05
1.40878e-05
1.42763e-05
1.44283e-05
1.45429e-05
1.46196e-05
1.46581e-05
1.46583e-05
1.462e-05
1.45435e-05
1.44292e-05
1.42775e-05
1.40892e-05
1.3865e-05
1.36062e-05
1.33138e-05
1.29893e-05
1.26341e-05
1.22501e-05
1.1839e-05
1.14027e-05
1.09432e-05
1.04622e-05
9.96187e-06
9.44396e-06
8.91044e-06
8.36335e-06
7.80481e-06
7.23701e-06
6.66221e-06
6.08266e-06
5.50044e-06
4.9173e-06
4.33449e-06
3.75253e-06
3.17099e-06
2.58831e-06
2.0016e-06
1.40644e-06
7.96602e-07
1.40766e-09
5.27672e-12
6.52288e-12
1.74044e-09
9.79306e-07
1.71995e-06
2.43773e-06
3.14143e-06
3.83714e-06
4.52881e-06
5.21858e-06
5.90713e-06
6.59402e-06
7.2779e-06
7.95689e-06
8.62875e-06
9.29115e-06
9.94172e-06
1.05782e-05
1.11983e-05
1.18e-05
1.23811e-05
1.29396e-05
1.34731e-05
1.39794e-05
1.44563e-05
1.49014e-05
1.53129e-05
1.56886e-05
1.6027e-05
1.63264e-05
1.65855e-05
1.68033e-05
1.69786e-05
1.71108e-05
1.71993e-05
1.72437e-05
1.72439e-05
1.71997e-05
1.71114e-05
1.69794e-05
1.68043e-05
1.65868e-05
1.63279e-05
1.60286e-05
1.56905e-05
1.53149e-05
1.49037e-05
1.44587e-05
1.3982e-05
1.34758e-05
1.29424e-05
1.2384e-05
1.1803e-05
1.12014e-05
1.05813e-05
9.94486e-06
9.29429e-06
8.63187e-06
7.95995e-06
7.28089e-06
6.5969e-06
5.90988e-06
5.22115e-06
4.53118e-06
3.83927e-06
3.14327e-06
2.43924e-06
1.72109e-06
9.80006e-07
1.74183e-09
6.52826e-12
7.59273e-12
2.02623e-09
1.13458e-06
1.98398e-06
2.80254e-06
3.60154e-06
4.3887e-06
5.16892e-06
5.94493e-06
6.7177e-06
7.48686e-06
8.25109e-06
9.00845e-06
9.75667e-06
1.04934e-05
1.12161e-05
1.19226e-05
1.26106e-05
1.32778e-05
1.3922e-05
1.45409e-05
1.51319e-05
1.56925e-05
1.62201e-05
1.67124e-05
1.71671e-05
1.75821e-05
1.79557e-05
1.82861e-05
1.8572e-05
1.88122e-05
1.90055e-05
1.91513e-05
1.92488e-05
1.92978e-05
1.92979e-05
1.92491e-05
1.91518e-05
1.90062e-05
1.88131e-05
1.85731e-05
1.82874e-05
1.79572e-05
1.75838e-05
1.71689e-05
1.67144e-05
1.62223e-05
1.56948e-05
1.51343e-05
1.45434e-05
1.39246e-05
1.32805e-05
1.26133e-05
1.19254e-05
1.12189e-05
1.04962e-05
9.75946e-06
9.0112e-06
8.25378e-06
7.48946e-06
6.72018e-06
5.94725e-06
5.17106e-06
4.39062e-06
3.60321e-06
2.80392e-06
1.98502e-06
1.13522e-06
2.02753e-09
7.59779e-12
8.43456e-12
2.25123e-09
1.25584e-06
2.18877e-06
3.08409e-06
3.95527e-06
4.81136e-06
5.65812e-06
6.49873e-06
7.33443e-06
8.16494e-06
8.98897e-06
9.80459e-06
1.06095e-05
1.14013e-05
1.21777e-05
1.29361e-05
1.36744e-05
1.43902e-05
1.50812e-05
1.57447e-05
1.63782e-05
1.69787e-05
1.75437e-05
1.80706e-05
1.85571e-05
1.9001e-05
1.94004e-05
1.97537e-05
2.00592e-05
2.03158e-05
2.05224e-05
2.06781e-05
2.07823e-05
2.08345e-05
2.08346e-05
2.07825e-05
2.06785e-05
2.0523e-05
2.03166e-05
2.00602e-05
1.97548e-05
1.94017e-05
1.90025e-05
1.85587e-05
1.80724e-05
1.75456e-05
1.69808e-05
1.63803e-05
1.5747e-05
1.50835e-05
1.43926e-05
1.36768e-05
1.29386e-05
1.21802e-05
1.14039e-05
1.0612e-05
9.80707e-06
8.9914e-06
8.16729e-06
7.33667e-06
6.50084e-06
5.66007e-06
4.81311e-06
3.95679e-06
3.08535e-06
2.18972e-06
1.25643e-06
2.25243e-09
8.43928e-12
9.04778e-12
2.4152e-09
1.34369e-06
2.33644e-06
3.28642e-06
4.2088e-06
5.11369e-06
6.00745e-06
6.89365e-06
7.77369e-06
8.64739e-06
9.51351e-06
1.03701e-05
1.12149e-05
1.20455e-05
1.28595e-05
1.36545e-05
1.44282e-05
1.51782e-05
1.59021e-05
1.6597e-05
1.72602e-05
1.78888e-05
1.848e-05
1.90312e-05
1.95399e-05
2.00041e-05
2.04216e-05
2.07908e-05
2.11101e-05
2.13783e-05
2.15941e-05
2.17568e-05
2.18656e-05
2.19202e-05
2.19203e-05
2.18659e-05
2.17572e-05
2.15947e-05
2.1379e-05
2.11111e-05
2.07919e-05
2.04228e-05
2.00054e-05
1.95414e-05
1.90328e-05
1.84817e-05
1.78907e-05
1.72622e-05
1.65991e-05
1.59042e-05
1.51804e-05
1.44305e-05
1.36568e-05
1.28619e-05
1.20479e-05
1.12173e-05
1.03724e-05
9.51577e-06
8.64958e-06
7.77577e-06
6.89561e-06
6.00927e-06
5.11532e-06
4.21022e-06
3.28759e-06
2.33732e-06
1.34425e-06
2.41634e-09
9.05225e-12
9.46359e-12
2.52646e-09
1.40307e-06
2.43591e-06
3.42243e-06
4.37899e-06
5.3164e-06
6.24149e-06
7.15805e-06
8.06762e-06
8.97011e-06
9.86427e-06
1.07482e-05
1.16196e-05
1.24761e-05
1.33152e-05
1.41346e-05
1.4932e-05
1.57048e-05
1.64506e-05
1.71666e-05
1.78496e-05
1.8497e-05
1.91056e-05
1.9673e-05
2.01967e-05
2.06743e-05
2.1104e-05
2.14839e-05
2.18124e-05
2.20882e-05
2.23103e-05
2.24776e-05
2.25895e-05
2.26457e-05
2.26458e-05
2.25898e-05
2.2478e-05
2.23108e-05
2.2089e-05
2.18133e-05
2.14849e-05
2.11051e-05
2.06756e-05
2.01981e-05
1.96746e-05
1.91073e-05
1.84987e-05
1.78515e-05
1.71685e-05
1.64527e-05
1.5707e-05
1.49341e-05
1.41368e-05
1.33175e-05
1.24783e-05
1.16218e-05
1.07504e-05
9.86644e-06
8.97221e-06
8.06963e-06
7.15993e-06
6.24323e-06
5.31797e-06
4.38035e-06
3.42355e-06
2.43676e-06
1.4036e-06
2.52756e-09
9.46793e-12
9.72742e-12
2.5971e-09
1.44068e-06
2.4988e-06
3.50832e-06
4.48638e-06
5.44427e-06
6.38908e-06
7.32477e-06
8.25297e-06
9.17362e-06
1.00855e-05
1.09867e-05
1.18749e-05
1.27478e-05
1.36029e-05
1.44377e-05
1.52501e-05
1.60375e-05
1.67972e-05
1.75265e-05
1.82222e-05
1.88814e-05
1.95012e-05
2.00789e-05
2.0612e-05
2.10983e-05
2.15356e-05
2.19223e-05
2.22567e-05
2.25375e-05
2.27634e-05
2.29337e-05
2.30477e-05
2.31048e-05
2.31049e-05
2.30479e-05
2.29341e-05
2.2764e-05
2.25382e-05
2.22576e-05
2.19233e-05
2.15368e-05
2.10996e-05
2.06134e-05
2.00804e-05
1.95029e-05
1.88832e-05
1.82241e-05
1.75284e-05
1.67993e-05
1.60396e-05
1.52522e-05
1.44399e-05
1.36051e-05
1.275e-05
1.18771e-05
1.09889e-05
1.00876e-05
9.17569e-06
8.25495e-06
7.32663e-06
6.39079e-06
5.44581e-06
4.48772e-06
3.50943e-06
2.49964e-06
1.4412e-06
2.59818e-09
9.73171e-12
9.88479e-12
2.63925e-09
1.4631e-06
2.53626e-06
3.55945e-06
4.55031e-06
5.52039e-06
6.47695e-06
7.42407e-06
8.36341e-06
9.29492e-06
1.02174e-05
1.1129e-05
1.20273e-05
1.291e-05
1.37747e-05
1.46189e-05
1.54403e-05
1.62364e-05
1.70046e-05
1.77419e-05
1.84453e-05
1.91117e-05
1.97382e-05
2.03222e-05
2.0861e-05
2.13525e-05
2.17945e-05
2.21853e-05
2.25233e-05
2.2807e-05
2.30354e-05
2.32074e-05
2.33226e-05
2.33803e-05
2.33804e-05
2.33228e-05
2.32078e-05
2.30359e-05
2.28077e-05
2.25241e-05
2.21863e-05
2.17957e-05
2.13538e-05
2.08624e-05
2.03237e-05
1.97399e-05
1.91135e-05
1.84472e-05
1.77439e-05
1.70067e-05
1.62385e-05
1.54425e-05
1.46211e-05
1.37769e-05
1.29122e-05
1.20295e-05
1.11311e-05
1.02195e-05
9.29699e-06
8.36538e-06
7.42593e-06
6.47867e-06
5.52193e-06
4.55164e-06
3.56056e-06
2.53709e-06
1.46362e-06
2.64034e-09
9.88909e-12
9.97339e-12
2.663e-09
1.47573e-06
2.55734e-06
3.58824e-06
4.5863e-06
5.56327e-06
6.52648e-06
7.48007e-06
8.42572e-06
9.36342e-06
1.02919e-05
1.12094e-05
1.21135e-05
1.30019e-05
1.3872e-05
1.47216e-05
1.55482e-05
1.63493e-05
1.71224e-05
1.78643e-05
1.85721e-05
1.92426e-05
1.9873e-05
2.04605e-05
2.10027e-05
2.14972e-05
2.19419e-05
2.23351e-05
2.26751e-05
2.29605e-05
2.31903e-05
2.33634e-05
2.34792e-05
2.35373e-05
2.35374e-05
2.34795e-05
2.33638e-05
2.31908e-05
2.29612e-05
2.26759e-05
2.23361e-05
2.19431e-05
2.14985e-05
2.10041e-05
2.04621e-05
1.98747e-05
1.92444e-05
1.8574e-05
1.78663e-05
1.71244e-05
1.63515e-05
1.55504e-05
1.47238e-05
1.38742e-05
1.30041e-05
1.21157e-05
1.12116e-05
1.02941e-05
9.36551e-06
8.42772e-06
7.48194e-06
6.52821e-06
5.56482e-06
4.58765e-06
3.58935e-06
2.55819e-06
1.47625e-06
2.6641e-09
9.97772e-12
1.00206e-11
2.67568e-09
1.48247e-06
2.5686e-06
3.60361e-06
4.60553e-06
5.58618e-06
6.55297e-06
7.51004e-06
8.45911e-06
9.40014e-06
1.03319e-05
1.12526e-05
1.21598e-05
1.30513e-05
1.39244e-05
1.47769e-05
1.56063e-05
1.64102e-05
1.71859e-05
1.79304e-05
1.86405e-05
1.93134e-05
1.99459e-05
2.05354e-05
2.10793e-05
2.15755e-05
2.20217e-05
2.24162e-05
2.27573e-05
2.30437e-05
2.32742e-05
2.34479e-05
2.35641e-05
2.36224e-05
2.36225e-05
2.35644e-05
2.34483e-05
2.32748e-05
2.30444e-05
2.27582e-05
2.24172e-05
2.20229e-05
2.15768e-05
2.10808e-05
2.0537e-05
1.99476e-05
1.93152e-05
1.86424e-05
1.79324e-05
1.7188e-05
1.64124e-05
1.56085e-05
1.47791e-05
1.39266e-05
1.30535e-05
1.21621e-05
1.12548e-05
1.03341e-05
9.40225e-06
8.46112e-06
7.51193e-06
6.55472e-06
5.58775e-06
4.60689e-06
3.60473e-06
2.56945e-06
1.483e-06
2.67678e-09
1.0025e-11
1.00446e-11
2.6821e-09
1.48588e-06
2.57431e-06
3.61141e-06
4.6153e-06
5.59783e-06
6.56645e-06
7.52531e-06
8.47612e-06
9.41888e-06
1.03524e-05
1.12747e-05
1.21835e-05
1.30765e-05
1.39512e-05
1.48052e-05
1.56361e-05
1.64415e-05
1.72185e-05
1.79643e-05
1.86758e-05
1.93498e-05
1.99834e-05
2.05739e-05
2.11189e-05
2.16158e-05
2.20628e-05
2.2458e-05
2.27997e-05
2.30866e-05
2.33175e-05
2.34915e-05
2.3608e-05
2.36663e-05
2.36664e-05
2.36082e-05
2.34919e-05
2.33181e-05
2.30873e-05
2.28006e-05
2.2459e-05
2.2064e-05
2.16172e-05
2.11203e-05
2.05755e-05
1.99851e-05
1.93516e-05
1.86777e-05
1.79663e-05
1.72206e-05
1.64437e-05
1.56384e-05
1.48075e-05
1.39535e-05
1.30788e-05
1.21858e-05
1.12769e-05
1.03546e-05
9.421e-06
8.47815e-06
7.52721e-06
6.56821e-06
5.59942e-06
4.61667e-06
3.61254e-06
2.57516e-06
1.48642e-06
2.68322e-09
1.0049e-11
1.00561e-11
2.68521e-09
1.48754e-06
2.57707e-06
3.61518e-06
4.62002e-06
5.60348e-06
6.57299e-06
7.53272e-06
8.48439e-06
9.42799e-06
1.03623e-05
1.12854e-05
1.21951e-05
1.30889e-05
1.39644e-05
1.48191e-05
1.56507e-05
1.64568e-05
1.72345e-05
1.7981e-05
1.86931e-05
1.93676e-05
2.00018e-05
2.05929e-05
2.11383e-05
2.16357e-05
2.20831e-05
2.24786e-05
2.28206e-05
2.31078e-05
2.33389e-05
2.3513e-05
2.36295e-05
2.3688e-05
2.3688e-05
2.36298e-05
2.35134e-05
2.33394e-05
2.31085e-05
2.28215e-05
2.24796e-05
2.20843e-05
2.1637e-05
2.11398e-05
2.05945e-05
2.00036e-05
1.93695e-05
1.8695e-05
1.7983e-05
1.72366e-05
1.6459e-05
1.5653e-05
1.48214e-05
1.39666e-05
1.30912e-05
1.21974e-05
1.12877e-05
1.03645e-05
9.43013e-06
8.48643e-06
7.53463e-06
6.57476e-06
5.60507e-06
4.6214e-06
3.61632e-06
2.57793e-06
1.48807e-06
2.68633e-09
1.00606e-11
1.00615e-11
2.68664e-09
1.4883e-06
2.57834e-06
3.61693e-06
4.62221e-06
5.60609e-06
6.57602e-06
7.53615e-06
8.48823e-06
9.43223e-06
1.03669e-05
1.12904e-05
1.22005e-05
1.30946e-05
1.39705e-05
1.48256e-05
1.56576e-05
1.6464e-05
1.7242e-05
1.79888e-05
1.87012e-05
1.9376e-05
2.00105e-05
2.06018e-05
2.11474e-05
2.1645e-05
2.20926e-05
2.24883e-05
2.28304e-05
2.31177e-05
2.33489e-05
2.35231e-05
2.36397e-05
2.36982e-05
2.36982e-05
2.364e-05
2.35236e-05
2.33495e-05
2.31184e-05
2.28313e-05
2.24893e-05
2.20938e-05
2.16464e-05
2.11489e-05
2.06034e-05
2.00122e-05
1.93779e-05
1.87031e-05
1.79908e-05
1.72442e-05
1.64662e-05
1.56598e-05
1.48278e-05
1.39728e-05
1.3097e-05
1.22028e-05
1.12927e-05
1.03691e-05
9.43437e-06
8.49028e-06
7.53808e-06
6.57779e-06
5.60769e-06
4.6236e-06
3.61807e-06
2.57921e-06
1.48884e-06
2.68776e-09
1.00659e-11
1.00638e-11
2.68727e-09
1.48863e-06
2.57891e-06
3.6177e-06
4.62318e-06
5.60725e-06
6.57736e-06
7.53768e-06
8.48994e-06
9.43411e-06
1.0369e-05
1.12927e-05
1.22029e-05
1.30972e-05
1.39732e-05
1.48285e-05
1.56606e-05
1.64672e-05
1.72454e-05
1.79923e-05
1.87048e-05
1.93798e-05
2.00144e-05
2.06058e-05
2.11515e-05
2.16492e-05
2.20969e-05
2.24927e-05
2.28349e-05
2.31222e-05
2.33534e-05
2.35277e-05
2.36443e-05
2.37028e-05
2.37028e-05
2.36445e-05
2.35281e-05
2.3354e-05
2.31229e-05
2.28358e-05
2.24937e-05
2.20981e-05
2.16506e-05
2.1153e-05
2.06074e-05
2.00161e-05
1.93817e-05
1.87067e-05
1.79943e-05
1.72475e-05
1.64694e-05
1.56629e-05
1.48308e-05
1.39755e-05
1.30995e-05
1.22052e-05
1.1295e-05
1.03712e-05
9.43626e-06
8.49199e-06
7.53961e-06
6.57914e-06
5.60885e-06
4.62457e-06
3.61884e-06
2.57977e-06
1.48918e-06
2.6884e-09
1.00682e-11
1.00648e-11
2.68754e-09
1.48878e-06
2.57915e-06
3.61803e-06
4.62359e-06
5.60774e-06
6.57794e-06
7.53833e-06
8.49067e-06
9.43492e-06
1.03699e-05
1.12936e-05
1.22039e-05
1.30983e-05
1.39744e-05
1.48297e-05
1.5662e-05
1.64686e-05
1.72469e-05
1.79938e-05
1.87064e-05
1.93814e-05
2.00161e-05
2.06075e-05
2.11533e-05
2.16511e-05
2.20988e-05
2.24945e-05
2.28368e-05
2.31241e-05
2.33554e-05
2.35297e-05
2.36463e-05
2.37047e-05
2.37048e-05
2.36465e-05
2.35301e-05
2.3356e-05
2.31249e-05
2.28377e-05
2.24956e-05
2.21e-05
2.16524e-05
2.11548e-05
2.06091e-05
2.00178e-05
1.93833e-05
1.87083e-05
1.79959e-05
1.7249e-05
1.64708e-05
1.56642e-05
1.4832e-05
1.39767e-05
1.31006e-05
1.22062e-05
1.12959e-05
1.03721e-05
9.43707e-06
8.49272e-06
7.54026e-06
6.57971e-06
5.60934e-06
4.62498e-06
3.61917e-06
2.58001e-06
1.48932e-06
2.68867e-09
1.00692e-11
1.00652e-11
2.68765e-09
1.48884e-06
2.57924e-06
3.61816e-06
4.62376e-06
5.60795e-06
6.57817e-06
7.5386e-06
8.49097e-06
9.43525e-06
1.03702e-05
1.1294e-05
1.22044e-05
1.30988e-05
1.39749e-05
1.48302e-05
1.56625e-05
1.64691e-05
1.72474e-05
1.79944e-05
1.8707e-05
1.93821e-05
2.00168e-05
2.06082e-05
2.1154e-05
2.16518e-05
2.20995e-05
2.24953e-05
2.28376e-05
2.31249e-05
2.33562e-05
2.35305e-05
2.36471e-05
2.37056e-05
2.37057e-05
2.36474e-05
2.35309e-05
2.33568e-05
2.31257e-05
2.28385e-05
2.24964e-05
2.21007e-05
2.16532e-05
2.11555e-05
2.06099e-05
2.00185e-05
1.9384e-05
1.8709e-05
1.79965e-05
1.72496e-05
1.64713e-05
1.56647e-05
1.48325e-05
1.39772e-05
1.31011e-05
1.22067e-05
1.12963e-05
1.03725e-05
9.4374e-06
8.49302e-06
7.54053e-06
6.57995e-06
5.60955e-06
4.62515e-06
3.61931e-06
2.58011e-06
1.48938e-06
2.68878e-09
1.00697e-11
1.00654e-11
2.68769e-09
1.48886e-06
2.57928e-06
3.61821e-06
4.62382e-06
5.60802e-06
6.57826e-06
7.5387e-06
8.49108e-06
9.43538e-06
1.03704e-05
1.12942e-05
1.22045e-05
1.3099e-05
1.39751e-05
1.48304e-05
1.56627e-05
1.64694e-05
1.72477e-05
1.79947e-05
1.87073e-05
1.93824e-05
2.0017e-05
2.06085e-05
2.11543e-05
2.16521e-05
2.20998e-05
2.24956e-05
2.28379e-05
2.31253e-05
2.33565e-05
2.35308e-05
2.36474e-05
2.37059e-05
2.3706e-05
2.36477e-05
2.35312e-05
2.33571e-05
2.3126e-05
2.28388e-05
2.24967e-05
2.2101e-05
2.16535e-05
2.11558e-05
2.06102e-05
2.00188e-05
1.93842e-05
1.87092e-05
1.79967e-05
1.72498e-05
1.64716e-05
1.5665e-05
1.48327e-05
1.39774e-05
1.31013e-05
1.22068e-05
1.12965e-05
1.03726e-05
9.43753e-06
8.49314e-06
7.54063e-06
6.58004e-06
5.60963e-06
4.62521e-06
3.61936e-06
2.58015e-06
1.4894e-06
2.68882e-09
1.00698e-11
1.00654e-11
2.68771e-09
1.48887e-06
2.5793e-06
3.61823e-06
4.62385e-06
5.60805e-06
6.5783e-06
7.53874e-06
8.49113e-06
9.43543e-06
1.03704e-05
1.12942e-05
1.22046e-05
1.3099e-05
1.39751e-05
1.48305e-05
1.56628e-05
1.64695e-05
1.72478e-05
1.79948e-05
1.87074e-05
1.93825e-05
2.00172e-05
2.06086e-05
2.11544e-05
2.16522e-05
2.21e-05
2.24958e-05
2.2838e-05
2.31254e-05
2.33567e-05
2.3531e-05
2.36476e-05
2.3706e-05
2.37061e-05
2.36478e-05
2.35314e-05
2.33572e-05
2.31261e-05
2.28389e-05
2.24968e-05
2.21012e-05
2.16536e-05
2.11559e-05
2.06103e-05
2.00189e-05
1.93843e-05
1.87093e-05
1.79968e-05
1.72499e-05
1.64716e-05
1.5665e-05
1.48328e-05
1.39774e-05
1.31013e-05
1.22069e-05
1.12965e-05
1.03727e-05
9.43758e-06
8.49318e-06
7.54067e-06
6.58008e-06
5.60966e-06
4.62524e-06
3.61938e-06
2.58016e-06
1.48941e-06
2.68883e-09
1.00699e-11
1.00655e-11
2.68771e-09
1.48887e-06
2.5793e-06
3.61824e-06
4.62386e-06
5.60807e-06
6.57831e-06
7.53876e-06
8.49115e-06
9.43545e-06
1.03705e-05
1.12943e-05
1.22046e-05
1.30991e-05
1.39752e-05
1.48306e-05
1.56628e-05
1.64695e-05
1.72478e-05
1.79948e-05
1.87074e-05
1.93825e-05
2.00172e-05
2.06087e-05
2.11545e-05
2.16523e-05
2.21e-05
2.24958e-05
2.28381e-05
2.31254e-05
2.33567e-05
2.3531e-05
2.36476e-05
2.37061e-05
2.37062e-05
2.36479e-05
2.35314e-05
2.33573e-05
2.31262e-05
2.2839e-05
2.24969e-05
2.21012e-05
2.16536e-05
2.1156e-05
2.06103e-05
2.00189e-05
1.93844e-05
1.87094e-05
1.79969e-05
1.72499e-05
1.64717e-05
1.56651e-05
1.48328e-05
1.39775e-05
1.31014e-05
1.22069e-05
1.12965e-05
1.03727e-05
9.4376e-06
8.4932e-06
7.54069e-06
6.58009e-06
5.60967e-06
4.62525e-06
3.61939e-06
2.58017e-06
1.48941e-06
2.68884e-09
1.00699e-11
1.00655e-11
2.68771e-09
1.48887e-06
2.5793e-06
3.61824e-06
4.62386e-06
5.60807e-06
6.57831e-06
7.53876e-06
8.49115e-06
9.43545e-06
1.03705e-05
1.12943e-05
1.22046e-05
1.30991e-05
1.39752e-05
1.48306e-05
1.56628e-05
1.64695e-05
1.72478e-05
1.79948e-05
1.87074e-05
1.93825e-05
2.00172e-05
2.06087e-05
2.11545e-05
2.16523e-05
2.21e-05
2.24958e-05
2.28381e-05
2.31255e-05
2.33567e-05
2.3531e-05
2.36476e-05
2.37061e-05
2.37062e-05
2.36479e-05
2.35314e-05
2.33573e-05
2.31262e-05
2.2839e-05
2.24969e-05
2.21012e-05
2.16536e-05
2.1156e-05
2.06103e-05
2.00189e-05
1.93844e-05
1.87094e-05
1.79969e-05
1.72499e-05
1.64717e-05
1.56651e-05
1.48328e-05
1.39775e-05
1.31014e-05
1.22069e-05
1.12966e-05
1.03727e-05
9.4376e-06
8.49321e-06
7.54069e-06
6.58009e-06
5.60967e-06
4.62525e-06
3.61939e-06
2.58017e-06
1.48941e-06
2.68884e-09
1.00699e-11
1.00655e-11
2.68771e-09
1.48887e-06
2.5793e-06
3.61824e-06
4.62386e-06
5.60807e-06
6.57832e-06
7.53877e-06
8.49115e-06
9.43545e-06
1.03705e-05
1.12943e-05
1.22046e-05
1.30991e-05
1.39752e-05
1.48306e-05
1.56628e-05
1.64695e-05
1.72478e-05
1.79948e-05
1.87074e-05
1.93825e-05
2.00172e-05
2.06087e-05
2.11545e-05
2.16523e-05
2.21e-05
2.24958e-05
2.28381e-05
2.31255e-05
2.33567e-05
2.3531e-05
2.36476e-05
2.37061e-05
2.37062e-05
2.36479e-05
2.35314e-05
2.33573e-05
2.31262e-05
2.2839e-05
2.24969e-05
2.21012e-05
2.16536e-05
2.1156e-05
2.06103e-05
2.00189e-05
1.93844e-05
1.87094e-05
1.79969e-05
1.725e-05
1.64717e-05
1.56651e-05
1.48328e-05
1.39775e-05
1.31014e-05
1.22069e-05
1.12966e-05
1.03727e-05
9.43761e-06
8.49321e-06
7.5407e-06
6.5801e-06
5.60967e-06
4.62525e-06
3.61939e-06
2.58017e-06
1.48941e-06
2.68884e-09
1.00699e-11
1.00655e-11
2.68771e-09
1.48887e-06
2.5793e-06
3.61824e-06
4.62386e-06
5.60807e-06
6.57832e-06
7.53877e-06
8.49115e-06
9.43546e-06
1.03705e-05
1.12943e-05
1.22046e-05
1.30991e-05
1.39752e-05
1.48306e-05
1.56628e-05
1.64695e-05
1.72478e-05
1.79948e-05
1.87074e-05
1.93825e-05
2.00172e-05
2.06087e-05
2.11545e-05
2.16523e-05
2.21e-05
2.24958e-05
2.28381e-05
2.31255e-05
2.33567e-05
2.3531e-05
2.36476e-05
2.37061e-05
2.37062e-05
2.36479e-05
2.35314e-05
2.33573e-05
2.31262e-05
2.2839e-05
2.24969e-05
2.21012e-05
2.16537e-05
2.1156e-05
2.06103e-05
2.00189e-05
1.93844e-05
1.87094e-05
1.79969e-05
1.725e-05
1.64717e-05
1.56651e-05
1.48328e-05
1.39775e-05
1.31014e-05
1.22069e-05
1.12966e-05
1.03727e-05
9.43761e-06
8.49321e-06
7.5407e-06
6.5801e-06
5.60967e-06
4.62525e-06
3.61939e-06
2.58017e-06
1.48941e-06
2.68884e-09
1.00699e-11
1.00655e-11
2.68771e-09
1.48887e-06
2.5793e-06
3.61824e-06
4.62386e-06
5.60807e-06
6.57832e-06
7.53877e-06
8.49115e-06
9.43546e-06
1.03705e-05
1.12943e-05
1.22046e-05
1.30991e-05
1.39752e-05
1.48306e-05
1.56628e-05
1.64695e-05
1.72478e-05
1.79948e-05
1.87074e-05
1.93825e-05
2.00172e-05
2.06087e-05
2.11545e-05
2.16523e-05
2.21e-05
2.24958e-05
2.28381e-05
2.31255e-05
2.33567e-05
2.3531e-05
2.36476e-05
2.37061e-05
2.37062e-05
2.36479e-05
2.35314e-05
2.33573e-05
2.31262e-05
2.2839e-05
2.24969e-05
2.21012e-05
2.16537e-05
2.1156e-05
2.06103e-05
2.00189e-05
1.93844e-05
1.87094e-05
1.79969e-05
1.725e-05
1.64717e-05
1.56651e-05
1.48328e-05
1.39775e-05
1.31014e-05
1.22069e-05
1.12966e-05
1.03727e-05
9.43761e-06
8.49321e-06
7.5407e-06
6.5801e-06
5.60967e-06
4.62525e-06
3.61939e-06
2.58017e-06
1.48941e-06
2.68884e-09
1.00699e-11
1.00655e-11
2.68772e-09
1.48887e-06
2.5793e-06
3.61824e-06
4.62386e-06
5.60807e-06
6.57832e-06
7.53877e-06
8.49115e-06
9.43546e-06
1.03705e-05
1.12943e-05
1.22046e-05
1.30991e-05
1.39752e-05
1.48306e-05
1.56628e-05
1.64695e-05
1.72478e-05
1.79948e-05
1.87074e-05
1.93825e-05
2.00172e-05
2.06087e-05
2.11545e-05
2.16523e-05
2.21e-05
2.24958e-05
2.28381e-05
2.31255e-05
2.33567e-05
2.3531e-05
2.36476e-05
2.37061e-05
2.37062e-05
2.36479e-05
2.35314e-05
2.33573e-05
2.31262e-05
2.2839e-05
2.24969e-05
2.21012e-05
2.16537e-05
2.1156e-05
2.06103e-05
2.00189e-05
1.93844e-05
1.87094e-05
1.79969e-05
1.725e-05
1.64717e-05
1.56651e-05
1.48328e-05
1.39775e-05
1.31014e-05
1.22069e-05
1.12966e-05
1.03727e-05
9.43761e-06
8.49321e-06
7.5407e-06
6.5801e-06
5.60967e-06
4.62525e-06
3.61939e-06
2.58017e-06
1.48941e-06
2.68884e-09
1.00699e-11
1.00655e-11
2.68772e-09
1.48887e-06
2.5793e-06
3.61824e-06
4.62386e-06
5.60807e-06
6.57832e-06
7.53877e-06
8.49115e-06
9.43546e-06
1.03705e-05
1.12943e-05
1.22046e-05
1.30991e-05
1.39752e-05
1.48306e-05
1.56628e-05
1.64695e-05
1.72478e-05
1.79948e-05
1.87074e-05
1.93825e-05
2.00172e-05
2.06087e-05
2.11545e-05
2.16523e-05
2.21e-05
2.24958e-05
2.28381e-05
2.31255e-05
2.33567e-05
2.3531e-05
2.36476e-05
2.37061e-05
2.37062e-05
2.36479e-05
2.35315e-05
2.33573e-05
2.31262e-05
2.2839e-05
2.24969e-05
2.21012e-05
2.16537e-05
2.1156e-05
2.06103e-05
2.00189e-05
1.93844e-05
1.87094e-05
1.79969e-05
1.725e-05
1.64717e-05
1.56651e-05
1.48328e-05
1.39775e-05
1.31014e-05
1.22069e-05
1.12966e-05
1.03727e-05
9.43761e-06
8.49321e-06
7.5407e-06
6.5801e-06
5.60967e-06
4.62525e-06
3.61939e-06
2.58017e-06
1.48941e-06
2.68884e-09
1.00699e-11
1.00655e-11
2.68772e-09
1.48887e-06
2.5793e-06
3.61824e-06
4.62386e-06
5.60807e-06
6.57832e-06
7.53877e-06
8.49115e-06
9.43546e-06
1.03705e-05
1.12943e-05
1.22046e-05
1.30991e-05
1.39752e-05
1.48306e-05
1.56628e-05
1.64695e-05
1.72478e-05
1.79948e-05
1.87074e-05
1.93825e-05
2.00172e-05
2.06087e-05
2.11545e-05
2.16523e-05
2.21e-05
2.24958e-05
2.28381e-05
2.31255e-05
2.33567e-05
2.3531e-05
2.36476e-05
2.37061e-05
2.37062e-05
2.36479e-05
2.35315e-05
2.33573e-05
2.31262e-05
2.2839e-05
2.24969e-05
2.21012e-05
2.16537e-05
2.1156e-05
2.06103e-05
2.00189e-05
1.93844e-05
1.87094e-05
1.79969e-05
1.725e-05
1.64717e-05
1.56651e-05
1.48328e-05
1.39775e-05
1.31014e-05
1.22069e-05
1.12966e-05
1.03727e-05
9.43761e-06
8.49321e-06
7.5407e-06
6.5801e-06
5.60967e-06
4.62525e-06
3.61939e-06
2.58017e-06
1.48941e-06
2.68884e-09
1.00699e-11
1.00655e-11
2.68772e-09
1.48887e-06
2.5793e-06
3.61824e-06
4.62386e-06
5.60807e-06
6.57832e-06
7.53877e-06
8.49115e-06
9.43546e-06
1.03705e-05
1.12943e-05
1.22046e-05
1.30991e-05
1.39752e-05
1.48306e-05
1.56628e-05
1.64695e-05
1.72478e-05
1.79948e-05
1.87074e-05
1.93825e-05
2.00172e-05
2.06087e-05
2.11545e-05
2.16523e-05
2.21e-05
2.24958e-05
2.28381e-05
2.31255e-05
2.33567e-05
2.3531e-05
2.36476e-05
2.37061e-05
2.37062e-05
2.36479e-05
2.35315e-05
2.33573e-05
2.31262e-05
2.2839e-05
2.24969e-05
2.21012e-05
2.16537e-05
2.1156e-05
2.06103e-05
2.00189e-05
1.93844e-05
1.87094e-05
1.79969e-05
1.725e-05
1.64717e-05
1.56651e-05
1.48328e-05
1.39775e-05
1.31014e-05
1.22069e-05
1.12966e-05
1.03727e-05
9.43761e-06
8.49321e-06
7.5407e-06
6.5801e-06
5.60967e-06
4.62525e-06
3.61939e-06
2.58017e-06
1.48941e-06
2.68884e-09
1.00699e-11
1.00655e-11
2.68772e-09
1.48887e-06
2.5793e-06
3.61824e-06
4.62386e-06
5.60807e-06
6.57832e-06
7.53877e-06
8.49115e-06
9.43546e-06
1.03705e-05
1.12943e-05
1.22046e-05
1.30991e-05
1.39752e-05
1.48306e-05
1.56628e-05
1.64695e-05
1.72478e-05
1.79948e-05
1.87074e-05
1.93825e-05
2.00172e-05
2.06087e-05
2.11545e-05
2.16523e-05
2.21e-05
2.24958e-05
2.28381e-05
2.31255e-05
2.33567e-05
2.3531e-05
2.36476e-05
2.37061e-05
2.37062e-05
2.36479e-05
2.35315e-05
2.33573e-05
2.31262e-05
2.2839e-05
2.24969e-05
2.21012e-05
2.16537e-05
2.1156e-05
2.06103e-05
2.00189e-05
1.93844e-05
1.87094e-05
1.79969e-05
1.725e-05
1.64717e-05
1.56651e-05
1.48328e-05
1.39775e-05
1.31014e-05
1.22069e-05
1.12966e-05
1.03727e-05
9.43761e-06
8.49321e-06
7.5407e-06
6.5801e-06
5.60967e-06
4.62525e-06
3.61939e-06
2.58017e-06
1.48941e-06
2.68884e-09
1.00699e-11
1.00655e-11
2.68772e-09
1.48887e-06
2.5793e-06
3.61824e-06
4.62386e-06
5.60807e-06
6.57832e-06
7.53877e-06
8.49115e-06
9.43546e-06
1.03705e-05
1.12943e-05
1.22046e-05
1.30991e-05
1.39752e-05
1.48306e-05
1.56628e-05
1.64695e-05
1.72478e-05
1.79948e-05
1.87074e-05
1.93825e-05
2.00172e-05
2.06087e-05
2.11545e-05
2.16523e-05
2.21e-05
2.24958e-05
2.28381e-05
2.31255e-05
2.33567e-05
2.3531e-05
2.36476e-05
2.37061e-05
2.37062e-05
2.36479e-05
2.35315e-05
2.33573e-05
2.31262e-05
2.2839e-05
2.24969e-05
2.21012e-05
2.16537e-05
2.1156e-05
2.06103e-05
2.00189e-05
1.93844e-05
1.87094e-05
1.79969e-05
1.725e-05
1.64717e-05
1.56651e-05
1.48328e-05
1.39775e-05
1.31014e-05
1.22069e-05
1.12966e-05
1.03727e-05
9.43761e-06
8.49321e-06
7.5407e-06
6.5801e-06
5.60967e-06
4.62525e-06
3.61939e-06
2.58017e-06
1.48941e-06
2.68884e-09
1.00699e-11
1.00655e-11
2.68772e-09
1.48887e-06
2.5793e-06
3.61824e-06
4.62386e-06
5.60807e-06
6.57832e-06
7.53877e-06
8.49115e-06
9.43546e-06
1.03705e-05
1.12943e-05
1.22046e-05
1.30991e-05
1.39752e-05
1.48306e-05
1.56628e-05
1.64695e-05
1.72478e-05
1.79948e-05
1.87074e-05
1.93825e-05
2.00172e-05
2.06087e-05
2.11545e-05
2.16523e-05
2.21e-05
2.24958e-05
2.28381e-05
2.31255e-05
2.33567e-05
2.3531e-05
2.36476e-05
2.37061e-05
2.37062e-05
2.36479e-05
2.35315e-05
2.33573e-05
2.31262e-05
2.2839e-05
2.24969e-05
2.21012e-05
2.16537e-05
2.1156e-05
2.06103e-05
2.00189e-05
1.93844e-05
1.87094e-05
1.79969e-05
1.725e-05
1.64717e-05
1.56651e-05
1.48328e-05
1.39775e-05
1.31014e-05
1.22069e-05
1.12966e-05
1.03727e-05
9.43761e-06
8.49321e-06
7.5407e-06
6.5801e-06
5.60967e-06
4.62525e-06
3.61939e-06
2.58017e-06
1.48941e-06
2.68884e-09
1.00699e-11
1.00655e-11
2.68772e-09
1.48887e-06
2.5793e-06
3.61824e-06
4.62386e-06
5.60807e-06
6.57832e-06
7.53877e-06
8.49115e-06
9.43546e-06
1.03705e-05
1.12943e-05
1.22046e-05
1.30991e-05
1.39752e-05
1.48306e-05
1.56628e-05
1.64695e-05