/*--------------------------------*- C++ -*----------------------------------*\
  =========                 |
  \\      /  F ield         | OpenFOAM: The Open Source CFD Toolbox
   \\    /   O peration     | Website:  https://openfoam.org
    \\  /    A nd           | Version:  13
     \\/     M anipulation  |
\*---------------------------------------------------------------------------*/
FoamFile
{
    format      ascii;
    class       volScalarField;
    location    "95";
    object      rhok;
}
// * * * * * * * * * * * * * * * * * * * * * * * * * * * * * * * * * * * * * //

dimensions      [];

internalField   nonuniform List<scalar> 
315000
(
0.444613
0.429252
0.41403
0.412565
0.411791
0.411013
0.41023
0.409444
0.408655
0.407862
0.407067
0.406271
0.405475
0.404679
0.403884
0.403092
0.402302
0.401516
0.400734
0.399957
0.399185
0.398419
0.397659
0.396906
0.396159
0.395419
0.394687
0.393962
0.393245
0.392536
0.391835
0.391142
0.390457
0.38978
0.389112
0.388452
0.387801
0.387159
0.386524
0.385899
0.385281
0.384673
0.384072
0.38348
0.382895
0.382319
0.38175
0.381189
0.380635
0.380089
0.379549
0.379017
0.37849
0.37797
0.377456
0.376948
0.376444
0.375946
0.375453
0.374964
0.374479
0.373997
0.373519
0.373044
0.372571
0.3721
0.371632
0.371164
0.370698
0.370232
0.444612
0.429224
0.414046
0.412588
0.411807
0.41102
0.41023
0.409436
0.40864
0.407844
0.407047
0.40625
0.405453
0.404658
0.403864
0.403073
0.402284
0.401499
0.400719
0.399943
0.399172
0.398407
0.397648
0.396895
0.396148
0.395409
0.394677
0.393953
0.393236
0.392526
0.391825
0.391132
0.390447
0.389771
0.389103
0.388443
0.387792
0.38715
0.386516
0.38589
0.385273
0.384664
0.384064
0.383471
0.382887
0.382311
0.381742
0.381182
0.380628
0.380082
0.379543
0.37901
0.378484
0.377964
0.377451
0.376942
0.37644
0.375942
0.375449
0.37496
0.374475
0.373994
0.373516
0.373041
0.372569
0.372099
0.37163
0.371163
0.370697
0.370232
0.444526
0.425899
0.41552
0.413347
0.412293
0.411347
0.410447
0.409576
0.408724
0.407889
0.407065
0.406252
0.405445
0.404644
0.403848
0.403055
0.402267
0.401483
0.400704
0.399929
0.399159
0.398395
0.397637
0.396885
0.396139
0.3954
0.394669
0.393944
0.393228
0.392519
0.391818
0.391125
0.39044
0.389764
0.389096
0.388436
0.387785
0.387143
0.386509
0.385883
0.385266
0.384657
0.384057
0.383465
0.382881
0.382305
0.381736
0.381176
0.380623
0.380076
0.379537
0.379005
0.378479
0.37796
0.377446
0.376938
0.376436
0.375938
0.375445
0.374957
0.374472
0.373991
0.373514
0.373039
0.372567
0.372097
0.371629
0.371163
0.370697
0.370232
0.444614
0.429289
0.414053
0.412589
0.411808
0.411019
0.410225
0.409427
0.408628
0.407828
0.407028
0.406229
0.405431
0.404635
0.403841
0.40305
0.402262
0.401479
0.400699
0.399924
0.399154
0.39839
0.397632
0.396879
0.396134
0.395395
0.394663
0.393939
0.393222
0.392513
0.391812
0.391119
0.390434
0.389758
0.38909
0.388431
0.38778
0.387137
0.386503
0.385878
0.385261
0.384652
0.384052
0.38346
0.382876
0.3823
0.381732
0.381171
0.380618
0.380072
0.379533
0.379001
0.378476
0.377956
0.377443
0.376935
0.376433
0.375935
0.375443
0.374954
0.37447
0.37399
0.373512
0.373038
0.372566
0.372096
0.371629
0.371162
0.370697
0.370232
0.444602
0.428829
0.41401
0.412575
0.411811
0.411037
0.410254
0.409463
0.408666
0.407866
0.407063
0.40626
0.405457
0.404656
0.403857
0.403062
0.402271
0.401484
0.400702
0.399926
0.399154
0.398389
0.39763
0.396877
0.396131
0.395392
0.39466
0.393935
0.393218
0.392509
0.391808
0.391115
0.39043
0.389754
0.389086
0.388427
0.387776
0.387133
0.386499
0.385874
0.385257
0.384649
0.384048
0.383456
0.382872
0.382297
0.381729
0.381168
0.380615
0.380069
0.37953
0.378998
0.378473
0.377954
0.37744
0.376933
0.376431
0.375933
0.375441
0.374953
0.374469
0.373988
0.373511
0.373037
0.372565
0.372096
0.371628
0.371162
0.370696
0.370232
0.444615
0.42933
0.414061
0.412589
0.411812
0.411029
0.41024
0.409446
0.408649
0.407848
0.407047
0.406245
0.405443
0.404644
0.403847
0.403053
0.402263
0.401477
0.400696
0.39992
0.399149
0.398384
0.397625
0.396873
0.396127
0.395388
0.394656
0.393932
0.393215
0.392506
0.391805
0.391112
0.390428
0.389751
0.389083
0.388424
0.387773
0.387131
0.386497
0.385871
0.385254
0.384646
0.384046
0.383454
0.38287
0.382294
0.381726
0.381166
0.380613
0.380067
0.379528
0.378997
0.378471
0.377952
0.377439
0.376931
0.376429
0.375932
0.37544
0.374951
0.374467
0.373987
0.37351
0.373036
0.372564
0.372095
0.371628
0.371161
0.370696
0.370232
0.444598
0.42868
0.41403
0.412604
0.411842
0.411067
0.410282
0.409487
0.408687
0.407882
0.407075
0.406267
0.405461
0.404658
0.403857
0.40306
0.402267
0.40148
0.400697
0.39992
0.399148
0.398383
0.397624
0.396871
0.396125
0.395386
0.394654
0.39393
0.393213
0.392504
0.391803
0.39111
0.390426
0.38975
0.389082
0.388422
0.387771
0.387129
0.386495
0.38587
0.385253
0.384645
0.384044
0.383453
0.382869
0.382293
0.381725
0.381165
0.380612
0.380066
0.379527
0.378995
0.37847
0.377951
0.377438
0.37693
0.376428
0.375931
0.375439
0.374951
0.374467
0.373987
0.37351
0.373036
0.372564
0.372095
0.371627
0.371161
0.370696
0.370231
0.444615
0.429332
0.41406
0.412589
0.411811
0.411028
0.41024
0.409446
0.408648
0.407848
0.407046
0.406243
0.405442
0.404642
0.403844
0.40305
0.402259
0.401473
0.400692
0.399916
0.399145
0.39838
0.397621
0.396869
0.396123
0.395384
0.394653
0.393929
0.393212
0.392503
0.391802
0.391109
0.390425
0.389749
0.389081
0.388421
0.387771
0.387128
0.386494
0.385869
0.385252
0.384644
0.384044
0.383452
0.382868
0.382292
0.381724
0.381164
0.380611
0.380065
0.379527
0.378995
0.378469
0.37795
0.377437
0.37693
0.376428
0.375931
0.375438
0.37495
0.374466
0.373986
0.373509
0.373035
0.372564
0.372095
0.371627
0.371161
0.370696
0.370231
0.444604
0.428927
0.414034
0.412595
0.41183
0.411055
0.410272
0.409481
0.408684
0.407882
0.407077
0.406271
0.405466
0.404662
0.403861
0.403064
0.402271
0.401482
0.400699
0.399921
0.399149
0.398383
0.397623
0.39687
0.396124
0.395385
0.394653
0.393929
0.393212
0.392503
0.391802
0.391109
0.390425
0.389749
0.389081
0.388421
0.38777
0.387128
0.386494
0.385869
0.385252
0.384644
0.384043
0.383452
0.382868
0.382292
0.381724
0.381164
0.380611
0.380065
0.379526
0.378995
0.378469
0.37795
0.377437
0.37693
0.376427
0.37593
0.375438
0.37495
0.374466
0.373986
0.373509
0.373035
0.372564
0.372095
0.371627
0.371161
0.370696
0.370231
0.444605
0.428953
0.414042
0.412599
0.411833
0.411057
0.410273
0.409481
0.408684
0.407882
0.407077
0.406272
0.405467
0.404663
0.403862
0.403065
0.402272
0.401483
0.4007
0.399922
0.39915
0.398384
0.397624
0.396871
0.396125
0.395386
0.394654
0.39393
0.393213
0.392504
0.391803
0.39111
0.390425
0.389749
0.389081
0.388422
0.387771
0.387128
0.386494
0.385869
0.385252
0.384644
0.384044
0.383452
0.382868
0.382292
0.381724
0.381164
0.380611
0.380065
0.379527
0.378995
0.378469
0.37795
0.377437
0.37693
0.376428
0.375931
0.375438
0.37495
0.374466
0.373986
0.373509
0.373035
0.372564
0.372095
0.371627
0.371161
0.370696
0.370231
0.444614
0.429307
0.414081
0.412607
0.411826
0.411037
0.410242
0.409443
0.408644
0.407843
0.407042
0.406241
0.405441
0.404643
0.403846
0.403053
0.402263
0.401477
0.400696
0.39992
0.399149
0.398384
0.397625
0.396872
0.396126
0.395387
0.394656
0.393931
0.393214
0.392505
0.391804
0.391111
0.390426
0.38975
0.389082
0.388422
0.387771
0.387129
0.386495
0.38587
0.385253
0.384644
0.384044
0.383452
0.382868
0.382292
0.381724
0.381164
0.380611
0.380065
0.379527
0.378995
0.37847
0.37795
0.377437
0.37693
0.376428
0.375931
0.375438
0.37495
0.374466
0.373986
0.373509
0.373035
0.372564
0.372095
0.371627
0.371161
0.370696
0.370231
0.444498
0.424655
0.417042
0.413203
0.412084
0.411284
0.410427
0.409568
0.408723
0.407891
0.407071
0.406258
0.405452
0.404649
0.403851
0.403057
0.402266
0.40148
0.400699
0.399922
0.399151
0.398386
0.397627
0.396874
0.396128
0.395389
0.394657
0.393933
0.393216
0.392506
0.391805
0.391112
0.390427
0.389751
0.389083
0.388423
0.387772
0.38713
0.386496
0.38587
0.385253
0.384645
0.384045
0.383453
0.382869
0.382293
0.381725
0.381164
0.380611
0.380066
0.379527
0.378995
0.37847
0.377951
0.377437
0.37693
0.376428
0.375931
0.375439
0.374951
0.374467
0.373986
0.373509
0.373035
0.372564
0.372095
0.371627
0.371161
0.370696
0.370231
0.444614
0.429314
0.41405
0.412578
0.411795
0.411005
0.410211
0.409415
0.408618
0.40782
0.407022
0.406224
0.405426
0.404631
0.403837
0.403046
0.402258
0.401474
0.400694
0.399919
0.399149
0.398384
0.397626
0.396873
0.396128
0.395389
0.394657
0.393933
0.393216
0.392507
0.391806
0.391113
0.390428
0.389752
0.389083
0.388424
0.387773
0.38713
0.386496
0.385871
0.385254
0.384645
0.384045
0.383453
0.382869
0.382293
0.381725
0.381165
0.380612
0.380066
0.379527
0.378995
0.37847
0.377951
0.377438
0.37693
0.376428
0.375931
0.375439
0.374951
0.374467
0.373987
0.37351
0.373036
0.372564
0.372095
0.371627
0.371161
0.370696
0.370231
0.444612
0.429227
0.414006
0.412542
0.411769
0.41099
0.410205
0.409417
0.408624
0.407829
0.407031
0.406233
0.405435
0.404638
0.403843
0.403051
0.402262
0.401477
0.400696
0.399921
0.39915
0.398385
0.397627
0.396874
0.396128
0.395389
0.394658
0.393933
0.393216
0.392507
0.391806
0.391113
0.390428
0.389752
0.389084
0.388424
0.387773
0.387131
0.386497
0.385871
0.385254
0.384646
0.384046
0.383454
0.38287
0.382294
0.381726
0.381165
0.380612
0.380066
0.379528
0.378996
0.37847
0.377951
0.377438
0.376931
0.376428
0.375931
0.375439
0.374951
0.374467
0.373987
0.37351
0.373036
0.372564
0.372095
0.371627
0.371161
0.370696
0.370232
0.444602
0.428831
0.414013
0.412577
0.411813
0.411039
0.410256
0.409465
0.408668
0.407867
0.407064
0.40626
0.405456
0.404654
0.403855
0.40306
0.402268
0.401481
0.400699
0.399922
0.399151
0.398386
0.397627
0.396874
0.396128
0.395389
0.394658
0.393933
0.393216
0.392507
0.391806
0.391113
0.390429
0.389752
0.389084
0.388425
0.387774
0.387131
0.386497
0.385872
0.385255
0.384646
0.384046
0.383454
0.38287
0.382294
0.381726
0.381166
0.380613
0.380067
0.379528
0.378996
0.378471
0.377951
0.377438
0.376931
0.376429
0.375931
0.375439
0.374951
0.374467
0.373987
0.37351
0.373036
0.372564
0.372095
0.371627
0.371161
0.370696
0.370232
0.444615
0.429335
0.414056
0.412583
0.411805
0.411022
0.410233
0.40944
0.408643
0.407844
0.407042
0.406241
0.40544
0.404641
0.403845
0.403051
0.402262
0.401476
0.400695
0.39992
0.399149
0.398384
0.397626
0.396873
0.396128
0.395389
0.394657
0.393933
0.393216
0.392507
0.391806
0.391113
0.390429
0.389752
0.389084
0.388425
0.387774
0.387131
0.386497
0.385872
0.385255
0.384646
0.384046
0.383454
0.38287
0.382294
0.381726
0.381166
0.380613
0.380067
0.379528
0.378996
0.378471
0.377952
0.377438
0.376931
0.376429
0.375932
0.375439
0.374951
0.374467
0.373987
0.37351
0.373036
0.372564
0.372095
0.371627
0.371161
0.370696
0.370232
0.444602
0.428817
0.414004
0.412569
0.411806
0.411032
0.41025
0.40946
0.408664
0.407864
0.407062
0.406259
0.405456
0.404655
0.403857
0.403062
0.402271
0.401484
0.400702
0.399925
0.399154
0.398388
0.397629
0.396876
0.39613
0.395391
0.394659
0.393934
0.393217
0.392508
0.391807
0.391114
0.390429
0.389753
0.389085
0.388425
0.387774
0.387132
0.386498
0.385872
0.385255
0.384647
0.384046
0.383454
0.382871
0.382295
0.381727
0.381166
0.380613
0.380067
0.379529
0.378997
0.378471
0.377952
0.377439
0.376931
0.376429
0.375932
0.375439
0.374951
0.374467
0.373987
0.37351
0.373036
0.372564
0.372095
0.371627
0.371161
0.370696
0.370232
0.444614
0.429294
0.414006
0.412535
0.411759
0.410977
0.410192
0.409403
0.408611
0.407817
0.407021
0.406225
0.405428
0.404633
0.40384
0.403049
0.402261
0.401477
0.400697
0.399922
0.399152
0.398387
0.397629
0.396876
0.39613
0.395391
0.39466
0.393935
0.393218
0.392509
0.391808
0.391115
0.39043
0.389753
0.389085
0.388426
0.387775
0.387132
0.386498
0.385873
0.385256
0.384647
0.384047
0.383455
0.382871
0.382295
0.381727
0.381166
0.380613
0.380068
0.379529
0.378997
0.378471
0.377952
0.377439
0.376931
0.376429
0.375932
0.375439
0.374951
0.374467
0.373987
0.37351
0.373036
0.372564
0.372095
0.371627
0.371161
0.370696
0.370232
0.444614
0.429311
0.414043
0.412565
0.411784
0.410996
0.410202
0.409406
0.40861
0.407813
0.407016
0.40622
0.405424
0.40463
0.403837
0.403047
0.40226
0.401476
0.400697
0.399922
0.399152
0.398388
0.397629
0.396877
0.396131
0.395392
0.39466
0.393936
0.393219
0.39251
0.391809
0.391116
0.390431
0.389754
0.389086
0.388426
0.387775
0.387133
0.386499
0.385873
0.385256
0.384648
0.384047
0.383455
0.382871
0.382295
0.381727
0.381167
0.380614
0.380068
0.379529
0.378997
0.378471
0.377952
0.377439
0.376931
0.376429
0.375932
0.37544
0.374952
0.374468
0.373987
0.37351
0.373036
0.372564
0.372095
0.371628
0.371161
0.370696
0.370232
0.444498
0.424659
0.417046
0.413206
0.412087
0.411287
0.410429
0.40957
0.408725
0.407893
0.407073
0.406261
0.405454
0.404653
0.403855
0.403061
0.402271
0.401485
0.400704
0.399928
0.399157
0.398392
0.397632
0.39688
0.396133
0.395394
0.394662
0.393937
0.39322
0.392511
0.39181
0.391117
0.390432
0.389755
0.389087
0.388427
0.387776
0.387133
0.386499
0.385874
0.385257
0.384648
0.384048
0.383456
0.382872
0.382296
0.381727
0.381167
0.380614
0.380068
0.379529
0.378997
0.378472
0.377952
0.377439
0.376931
0.376429
0.375932
0.37544
0.374952
0.374468
0.373987
0.37351
0.373036
0.372565
0.372095
0.371628
0.371161
0.370696
0.370232
0.444614
0.429309
0.414103
0.412636
0.411854
0.411062
0.410264
0.409463
0.408659
0.407855
0.407052
0.406249
0.405447
0.404648
0.403852
0.403059
0.402269
0.401484
0.400703
0.399927
0.399157
0.398392
0.397633
0.39688
0.396134
0.395395
0.394663
0.393938
0.393221
0.392512
0.391811
0.391117
0.390432
0.389756
0.389088
0.388428
0.387777
0.387134
0.3865
0.385874
0.385257
0.384648
0.384048
0.383456
0.382872
0.382296
0.381728
0.381167
0.380614
0.380068
0.379529
0.378997
0.378472
0.377952
0.377439
0.376932
0.376429
0.375932
0.37544
0.374952
0.374468
0.373987
0.37351
0.373036
0.372565
0.372095
0.371628
0.371161
0.370696
0.370232
0.444588
0.428302
0.414104
0.412694
0.41193
0.411147
0.410349
0.409542
0.408729
0.407913
0.407098
0.406285
0.405475
0.404669
0.403867
0.403069
0.402277
0.401489
0.400707
0.39993
0.399158
0.398393
0.397634
0.396881
0.396135
0.395396
0.394664
0.393939
0.393222
0.392513
0.391811
0.391118
0.390433
0.389757
0.389088
0.388428
0.387777
0.387135
0.3865
0.385875
0.385258
0.384649
0.384048
0.383456
0.382872
0.382296
0.381728
0.381167
0.380614
0.380068
0.379529
0.378997
0.378472
0.377953
0.377439
0.376932
0.376429
0.375932
0.37544
0.374952
0.374468
0.373987
0.37351
0.373036
0.372565
0.372095
0.371628
0.371161
0.370696
0.370232
0.444615
0.42932
0.414103
0.41263
0.411848
0.411058
0.410259
0.409457
0.408654
0.407851
0.407048
0.406245
0.405445
0.404646
0.40385
0.403057
0.402268
0.401483
0.400703
0.399927
0.399157
0.398392
0.397633
0.396881
0.396135
0.395396
0.394664
0.39394
0.393223
0.392513
0.391812
0.391119
0.390434
0.389757
0.389089
0.388429
0.387778
0.387135
0.386501
0.385875
0.385258
0.384649
0.384049
0.383457
0.382872
0.382296
0.381728
0.381168
0.380614
0.380068
0.37953
0.378998
0.378472
0.377953
0.377439
0.376932
0.37643
0.375932
0.37544
0.374952
0.374468
0.373987
0.37351
0.373036
0.372565
0.372095
0.371628
0.371161
0.370696
0.370232
0.444498
0.424655
0.417046
0.413211
0.412093
0.411293
0.410436
0.409577
0.408731
0.407899
0.407078
0.406265
0.405458
0.404656
0.403858
0.403064
0.402274
0.401488
0.400707
0.399931
0.39916
0.398395
0.397636
0.396883
0.396137
0.395398
0.394666
0.393941
0.393224
0.392515
0.391813
0.39112
0.390435
0.389758
0.38909
0.38843
0.387778
0.387136
0.386501
0.385876
0.385258
0.38465
0.384049
0.383457
0.382873
0.382297
0.381728
0.381168
0.380615
0.380069
0.37953
0.378998
0.378472
0.377953
0.377439
0.376932
0.37643
0.375932
0.37544
0.374952
0.374468
0.373987
0.37351
0.373036
0.372565
0.372095
0.371628
0.371161
0.370696
0.370232
0.444615
0.429317
0.414101
0.412634
0.411851
0.411059
0.410261
0.40946
0.408657
0.407853
0.40705
0.406248
0.405447
0.404649
0.403853
0.403061
0.402272
0.401487
0.400707
0.399931
0.399161
0.398396
0.397637
0.396885
0.396139
0.3954
0.394667
0.393943
0.393225
0.392516
0.391814
0.391121
0.390436
0.389759
0.38909
0.38843
0.387779
0.387136
0.386502
0.385876
0.385259
0.38465
0.384049
0.383457
0.382873
0.382297
0.381728
0.381168
0.380615
0.380069
0.37953
0.378998
0.378472
0.377953
0.377439
0.376932
0.37643
0.375932
0.37544
0.374952
0.374468
0.373987
0.37351
0.373036
0.372565
0.372095
0.371628
0.371161
0.370696
0.370232
0.444589
0.428331
0.414109
0.412696
0.41193
0.411146
0.410348
0.409541
0.408728
0.407914
0.4071
0.406288
0.405479
0.404674
0.403873
0.403076
0.402284
0.401497
0.400715
0.399938
0.399167
0.398401
0.397642
0.396889
0.396142
0.395402
0.39467
0.393945
0.393227
0.392517
0.391816
0.391122
0.390437
0.38976
0.389091
0.388431
0.387779
0.387136
0.386502
0.385876
0.385259
0.38465
0.384049
0.383457
0.382873
0.382297
0.381728
0.381168
0.380615
0.380069
0.37953
0.378998
0.378472
0.377953
0.377439
0.376932
0.37643
0.375932
0.37544
0.374952
0.374468
0.373987
0.37351
0.373036
0.372565
0.372095
0.371628
0.371161
0.370696
0.370232
0.444614
0.429299
0.414089
0.412603
0.411809
0.411019
0.410228
0.409435
0.408639
0.407842
0.407045
0.406247
0.40545
0.404654
0.403861
0.403069
0.402281
0.401497
0.400717
0.399941
0.39917
0.398405
0.397645
0.396892
0.396145
0.395405
0.394672
0.393947
0.393229
0.392519
0.391817
0.391123
0.390437
0.38976
0.389091
0.388431
0.38778
0.387137
0.386502
0.385876
0.385259
0.38465
0.384049
0.383457
0.382873
0.382297
0.381729
0.381168
0.380615
0.380069
0.37953
0.378998
0.378472
0.377953
0.377439
0.376932
0.37643
0.375932
0.37544
0.374952
0.374468
0.373987
0.37351
0.373036
0.372565
0.372095
0.371628
0.371161
0.370696
0.370232
0.444489
0.423242
0.41667
0.414283
0.412662
0.411442
0.41043
0.409525
0.408674
0.407852
0.407043
0.406242
0.405445
0.40465
0.403858
0.403069
0.402282
0.401498
0.400718
0.399943
0.399172
0.398407
0.397647
0.396894
0.396146
0.395406
0.394673
0.393948
0.39323
0.39252
0.391817
0.391123
0.390438
0.389761
0.389092
0.388432
0.38778
0.387137
0.386502
0.385876
0.385259
0.38465
0.38405
0.383457
0.382873
0.382297
0.381729
0.381168
0.380615
0.380069
0.37953
0.378998
0.378472
0.377953
0.377439
0.376932
0.37643
0.375932
0.37544
0.374952
0.374468
0.373987
0.37351
0.373036
0.372565
0.372095
0.371628
0.371161
0.370696
0.370232
0.444489
0.423241
0.416685
0.414308
0.412682
0.411456
0.410437
0.409528
0.408676
0.407852
0.407043
0.406242
0.405445
0.404651
0.403859
0.40307
0.402283
0.401499
0.40072
0.399944
0.399173
0.398408
0.397648
0.396894
0.396147
0.395407
0.394674
0.393948
0.39323
0.39252
0.391818
0.391124
0.390438
0.389761
0.389092
0.388432
0.38778
0.387137
0.386502
0.385876
0.385259
0.38465
0.38405
0.383457
0.382873
0.382297
0.381729
0.381168
0.380615
0.380069
0.37953
0.378998
0.378472
0.377953
0.377439
0.376932
0.37643
0.375932
0.37544
0.374952
0.374468
0.373987
0.37351
0.373036
0.372565
0.372095
0.371628
0.371161
0.370696
0.370232
0.444489
0.423241
0.416686
0.414308
0.412683
0.411456
0.410438
0.409529
0.408676
0.407852
0.407044
0.406243
0.405446
0.404652
0.40386
0.40307
0.402284
0.4015
0.40072
0.399944
0.399174
0.398408
0.397648
0.396895
0.396147
0.395407
0.394674
0.393948
0.39323
0.39252
0.391818
0.391124
0.390438
0.389761
0.389092
0.388432
0.38778
0.387137
0.386502
0.385876
0.385259
0.38465
0.38405
0.383457
0.382873
0.382297
0.381729
0.381168
0.380615
0.380069
0.37953
0.378998
0.378472
0.377953
0.377439
0.376932
0.37643
0.375932
0.37544
0.374952
0.374468
0.373987
0.37351
0.373036
0.372565
0.372095
0.371628
0.371161
0.370696
0.370232
0.444489
0.423242
0.416686
0.414308
0.412683
0.411456
0.410438
0.409529
0.408676
0.407853
0.407044
0.406243
0.405446
0.404652
0.40386
0.40307
0.402284
0.4015
0.40072
0.399945
0.399174
0.398408
0.397648
0.396895
0.396148
0.395407
0.394674
0.393948
0.39323
0.39252
0.391818
0.391124
0.390438
0.389761
0.389092
0.388432
0.38778
0.387137
0.386502
0.385876
0.385259
0.38465
0.38405
0.383457
0.382873
0.382297
0.381729
0.381168
0.380615
0.380069
0.37953
0.378998
0.378472
0.377953
0.377439
0.376932
0.37643
0.375932
0.37544
0.374952
0.374468
0.373987
0.37351
0.373036
0.372565
0.372095
0.371628
0.371161
0.370696
0.370232
0.444489
0.423242
0.416686
0.414309
0.412683
0.411456
0.410438
0.409529
0.408676
0.407853
0.407044
0.406243
0.405446
0.404652
0.40386
0.403071
0.402284
0.4015
0.40072
0.399945
0.399174
0.398408
0.397648
0.396895
0.396148
0.395407
0.394674
0.393948
0.39323
0.39252
0.391818
0.391124
0.390438
0.389761
0.389092
0.388432
0.38778
0.387137
0.386502
0.385876
0.385259
0.38465
0.38405
0.383457
0.382873
0.382297
0.381729
0.381168
0.380615
0.380069
0.37953
0.378998
0.378472
0.377953
0.377439
0.376932
0.37643
0.375932
0.37544
0.374952
0.374468
0.373987
0.37351
0.373036
0.372565
0.372095
0.371628
0.371161
0.370696
0.370232
0.444489
0.423242
0.416686
0.414309
0.412683
0.411456
0.410438
0.409529
0.408676
0.407853
0.407044
0.406243
0.405446
0.404652
0.40386
0.403071
0.402284
0.4015
0.40072
0.399945
0.399174
0.398408
0.397648
0.396895
0.396148
0.395407
0.394674
0.393948
0.39323
0.39252
0.391818
0.391124
0.390438
0.389761
0.389092
0.388432
0.38778
0.387137
0.386502
0.385876
0.385259
0.38465
0.38405
0.383457
0.382873
0.382297
0.381729
0.381168
0.380615
0.380069
0.37953
0.378998
0.378472
0.377953
0.377439
0.376932
0.37643
0.375932
0.37544
0.374952
0.374468
0.373987
0.37351
0.373036
0.372565
0.372095
0.371628
0.371161
0.370696
0.370232
0.444489
0.423242
0.416686
0.414309
0.412683
0.411456
0.410438
0.409529
0.408676
0.407853
0.407044
0.406243
0.405446
0.404652
0.40386
0.403071
0.402284
0.4015
0.40072
0.399945
0.399174
0.398408
0.397648
0.396895
0.396148
0.395407
0.394674
0.393948
0.39323
0.39252
0.391818
0.391124
0.390438
0.389761
0.389092
0.388432
0.38778
0.387137
0.386502
0.385876
0.385259
0.38465
0.38405
0.383457
0.382873
0.382297
0.381729
0.381168
0.380615
0.380069
0.37953
0.378998
0.378472
0.377953
0.377439
0.376932
0.37643
0.375932
0.37544
0.374952
0.374468
0.373987
0.37351
0.373036
0.372565
0.372095
0.371628
0.371161
0.370696
0.370232
0.444489
0.423242
0.416686
0.414309
0.412683
0.411456
0.410438
0.409529
0.408676
0.407853
0.407044
0.406243
0.405446
0.404652
0.40386
0.403071
0.402284
0.4015
0.40072
0.399945
0.399174
0.398408
0.397648
0.396895
0.396148
0.395407
0.394674
0.393948
0.39323
0.39252
0.391818
0.391124
0.390438
0.389761
0.389092
0.388432
0.38778
0.387137
0.386502
0.385876
0.385259
0.38465
0.38405
0.383457
0.382873
0.382297
0.381729
0.381168
0.380615
0.380069
0.37953
0.378998
0.378472
0.377953
0.377439
0.376932
0.37643
0.375932
0.37544
0.374952
0.374468
0.373987
0.37351
0.373036
0.372565
0.372095
0.371628
0.371161
0.370696
0.370232
0.444489
0.423242
0.416686
0.414309
0.412683
0.411456
0.410438
0.409529
0.408676
0.407853
0.407044
0.406243
0.405446
0.404652
0.40386
0.403071
0.402284
0.4015
0.40072
0.399945
0.399174
0.398408
0.397648
0.396895
0.396148
0.395407
0.394674
0.393948
0.39323
0.39252
0.391818
0.391124
0.390438
0.389761
0.389092
0.388432
0.38778
0.387137
0.386502
0.385876
0.385259
0.38465
0.38405
0.383457
0.382873
0.382297
0.381729
0.381168
0.380615
0.380069
0.37953
0.378998
0.378472
0.377953
0.377439
0.376932
0.37643
0.375932
0.37544
0.374952
0.374468
0.373987
0.37351
0.373036
0.372565
0.372095
0.371628
0.371161
0.370696
0.370232
0.444489
0.423242
0.416686
0.414309
0.412683
0.411456
0.410438
0.409529
0.408676
0.407853
0.407044
0.406243
0.405446
0.404652
0.40386
0.403071
0.402284
0.4015
0.40072
0.399945
0.399174
0.398408
0.397648
0.396895
0.396148
0.395407
0.394674
0.393948
0.39323
0.39252
0.391818
0.391124
0.390438
0.389761
0.389092
0.388432
0.38778
0.387137
0.386502
0.385876
0.385259
0.38465
0.38405
0.383457
0.382873
0.382297
0.381729
0.381168
0.380615
0.380069
0.37953
0.378998
0.378472
0.377953
0.377439
0.376932
0.37643
0.375932
0.37544
0.374952
0.374468
0.373987
0.37351
0.373036
0.372565
0.372095
0.371628
0.371161
0.370696
0.370232
0.444489
0.423242
0.416686
0.414309
0.412683
0.411456
0.410438
0.409529
0.408676
0.407853
0.407044
0.406243
0.405446
0.404652
0.40386
0.403071
0.402284
0.4015
0.40072
0.399945
0.399174
0.398408
0.397648
0.396895
0.396148
0.395407
0.394674
0.393948
0.39323
0.39252
0.391818
0.391124
0.390438
0.389761
0.389092
0.388432
0.38778
0.387137
0.386502
0.385876
0.385259
0.38465
0.38405
0.383457
0.382873
0.382297
0.381729
0.381168
0.380615
0.380069
0.37953
0.378998
0.378472
0.377953
0.377439
0.376932
0.37643
0.375932
0.37544
0.374952
0.374468
0.373987
0.37351
0.373036
0.372565
0.372095
0.371628
0.371161
0.370696
0.370232
0.444489
0.423242
0.416686
0.414309
0.412683
0.411456
0.410438
0.409529
0.408676
0.407853
0.407044
0.406243
0.405446
0.404652
0.40386
0.403071
0.402284
0.4015
0.40072
0.399945
0.399174
0.398408
0.397648
0.396895
0.396148
0.395407
0.394674
0.393948
0.39323
0.39252
0.391818
0.391124
0.390438
0.389761
0.389092
0.388432
0.38778
0.387137
0.386502
0.385876
0.385259
0.38465
0.38405
0.383457
0.382873
0.382297
0.381729
0.381168
0.380615
0.380069
0.37953
0.378998
0.378472
0.377953
0.377439
0.376932
0.37643
0.375932
0.37544
0.374952
0.374468
0.373987
0.37351
0.373036
0.372565
0.372095
0.371628
0.371161
0.370696
0.370232
0.444489
0.423242
0.416686
0.414309
0.412683
0.411456
0.410438
0.409529
0.408676
0.407853
0.407044
0.406243
0.405446
0.404652
0.40386
0.403071
0.402284
0.4015
0.40072
0.399945
0.399174
0.398408
0.397648
0.396895
0.396148
0.395407
0.394674
0.393948
0.39323
0.39252
0.391818
0.391124
0.390438
0.389761
0.389092
0.388432
0.38778
0.387137
0.386502
0.385876
0.385259
0.38465
0.38405
0.383457
0.382873
0.382297
0.381729
0.381168
0.380615
0.380069
0.37953
0.378998
0.378472
0.377953
0.377439
0.376932
0.37643
0.375932
0.37544
0.374952
0.374468
0.373987
0.37351
0.373036
0.372565
0.372095
0.371628
0.371161
0.370696
0.370232
0.444489
0.423242
0.416686
0.414309
0.412683
0.411456
0.410438
0.409529
0.408676
0.407853
0.407044
0.406243
0.405446
0.404652
0.40386
0.403071
0.402284
0.4015
0.40072
0.399945
0.399174
0.398408
0.397648
0.396895
0.396148
0.395407
0.394674
0.393948
0.39323
0.39252
0.391818
0.391124
0.390438
0.389761
0.389092
0.388432
0.38778
0.387137
0.386502
0.385876
0.385259
0.38465
0.38405
0.383457
0.382873
0.382297
0.381729
0.381168
0.380615
0.380069
0.37953
0.378998
0.378472
0.377953
0.377439
0.376932
0.37643
0.375932
0.37544
0.374952
0.374468
0.373987
0.37351
0.373036
0.372565
0.372095
0.371628
0.371161
0.370696
0.370232
0.444489
0.423242
0.416686
0.414309
0.412683
0.411456
0.410438
0.409529
0.408676
0.407853
0.407044
0.406243
0.405446
0.404652
0.40386
0.403071
0.402284
0.4015
0.40072
0.399945
0.399174
0.398408
0.397648
0.396895
0.396148
0.395407
0.394674
0.393948
0.39323
0.39252
0.391818
0.391124
0.390438
0.389761
0.389092
0.388432
0.38778
0.387137
0.386502
0.385876
0.385259
0.38465
0.38405
0.383457
0.382873
0.382297
0.381729
0.381168
0.380615
0.380069
0.37953
0.378998
0.378472
0.377953
0.377439
0.376932
0.37643
0.375932
0.37544
0.374952
0.374468
0.373987
0.37351
0.373036
0.372565
0.372095
0.371628
0.371161
0.370696
0.370232
0.444489
0.423242
0.416686
0.414309
0.412683
0.411456
0.410438
0.409529
0.408676
0.407853
0.407044
0.406243
0.405446
0.404652
0.40386
0.403071
0.402284
0.4015
0.40072
0.399945
0.399174
0.398408
0.397648
0.396895
0.396148
0.395407
0.394674
0.393948
0.39323
0.39252
0.391818
0.391124
0.390438
0.389761
0.389092
0.388432
0.38778
0.387137
0.386502
0.385876
0.385259
0.38465
0.38405
0.383457
0.382873
0.382297
0.381729
0.381168
0.380615
0.380069
0.37953
0.378998
0.378472
0.377953
0.377439
0.376932
0.37643
0.375932
0.37544
0.374952
0.374468
0.373987
0.37351
0.373036
0.372565
0.372095
0.371628
0.371161
0.370696
0.370232
0.444489
0.423242
0.416686
0.414309
0.412683
0.411456
0.410438
0.409529
0.408676
0.407853
0.407044
0.406243
0.405446
0.404652
0.40386
0.403071
0.402284
0.4015
0.40072
0.399945
0.399174
0.398408
0.397648
0.396895
0.396148
0.395407
0.394674
0.393948
0.39323
0.39252
0.391818
0.391124
0.390438
0.389761
0.389092
0.388432
0.38778
0.387137
0.386502
0.385876
0.385259
0.38465
0.38405
0.383457
0.382873
0.382297
0.381729
0.381168
0.380615
0.380069
0.37953
0.378998
0.378472
0.377953
0.377439
0.376932
0.37643
0.375932
0.37544
0.374952
0.374468
0.373987
0.37351
0.373036
0.372565
0.372095
0.371628
0.371161
0.370696
0.370232
0.444489
0.423242
0.416686
0.414309
0.412683
0.411456
0.410438
0.409529
0.408676
0.407853
0.407044
0.406243
0.405446
0.404652
0.40386
0.403071
0.402284
0.4015
0.40072
0.399945
0.399174
0.398408
0.397648
0.396895
0.396148
0.395407
0.394674
0.393948
0.39323
0.39252
0.391818
0.391124
0.390438
0.389761
0.389092
0.388432
0.38778
0.387137
0.386502
0.385876
0.385259
0.38465
0.38405
0.383457
0.382873
0.382297
0.381729
0.381168
0.380615
0.380069
0.37953
0.378998
0.378472
0.377953
0.377439
0.376932
0.37643
0.375932
0.37544
0.374952
0.374468
0.373987
0.37351
0.373036
0.372565
0.372095
0.371628
0.371161
0.370696
0.370232
0.444489
0.423242
0.416686
0.414309
0.412683
0.411456
0.410438
0.409529
0.408676
0.407853
0.407044
0.406243
0.405446
0.404652
0.40386
0.403071
0.402284
0.4015
0.40072
0.399945
0.399174
0.398408
0.397648
0.396895
0.396148
0.395407
0.394674
0.393948
0.39323
0.39252
0.391818
0.391124
0.390438
0.389761
0.389092
0.388432
0.38778
0.387137
0.386502
0.385876
0.385259
0.38465
0.38405
0.383457
0.382873
0.382297
0.381729
0.381168
0.380615
0.380069
0.37953
0.378998
0.378472
0.377953
0.377439
0.376932
0.37643
0.375932
0.37544
0.374952
0.374468
0.373987
0.37351
0.373036
0.372565
0.372095
0.371628
0.371161
0.370696
0.370232
0.444489
0.423242
0.416686
0.414309
0.412683
0.411456
0.410438
0.409529
0.408676
0.407853
0.407044
0.406243
0.405446
0.404652
0.40386
0.403071
0.402284
0.4015
0.40072
0.399945
0.399174
0.398408
0.397648
0.396895
0.396148
0.395407
0.394674
0.393948
0.39323
0.39252
0.391818
0.391124
0.390438
0.389761
0.389092
0.388432
0.38778
0.387137
0.386502
0.385876
0.385259
0.38465
0.38405
0.383457
0.382873
0.382297
0.381729
0.381168
0.380615
0.380069
0.37953
0.378998
0.378472
0.377953
0.377439
0.376932
0.37643
0.375932
0.37544
0.374952
0.374468
0.373987
0.37351
0.373036
0.372565
0.372095
0.371628
0.371161
0.370696
0.370232
0.444489
0.423242
0.416686
0.414309
0.412683
0.411456
0.410438
0.409529
0.408676
0.407853
0.407044
0.406243
0.405446
0.404652
0.40386
0.403071
0.402284
0.4015
0.40072
0.399945
0.399174