/*--------------------------------*- C++ -*----------------------------------*\
  =========                 |
  \\      /  F ield         | OpenFOAM: The Open Source CFD Toolbox
   \\    /   O peration     | Website:  https://openfoam.org
    \\  /    A nd           | Version:  13
     \\/     M anipulation  |
\*---------------------------------------------------------------------------*/
FoamFile
{
    format      ascii;
    class       volScalarField;
    location    "38";
    object      k;
}
// * * * * * * * * * * * * * * * * * * * * * * * * * * * * * * * * * * * * * //

dimensions      [0 2 -2 0 0 0 0];

internalField   nonuniform List<scalar> 
78750
(
2.22045e-16
2.22045e-16
2.22045e-16
2.22045e-16
2.59888e-16
3.35109e-16
4.19748e-16
5.10394e-16
6.04597e-16
6.99968e-16
7.93907e-16
8.83606e-16
9.66158e-16
1.03871e-15
1.09864e-15
1.14368e-15
1.17212e-15
1.18282e-15
1.17537e-15
1.15004e-15
1.10781e-15
1.0503e-15
9.79657e-16
8.98454e-16
8.09507e-16
7.15725e-16
6.19945e-16
5.24808e-16
4.32738e-16
3.46146e-16
2.68187e-16
2.22045e-16
2.22045e-16
2.22045e-16
2.22045e-16
2.22045e-16
4.61244e-16
2.23834e-15
4.07703e-15
6.01353e-15
8.06927e-15
1.02482e-14
1.25356e-14
1.48985e-14
1.72881e-14
1.96432e-14
2.1894e-14
2.39669e-14
2.57893e-14
2.72939e-14
2.84233e-14
2.91331e-14
2.9395e-14
2.91982e-14
2.85505e-14
2.74772e-14
2.60201e-14
2.42349e-14
2.21873e-14
1.99494e-14
1.75949e-14
1.51943e-14
1.28102e-14
1.04931e-14
8.2775e-15
6.17987e-15
4.19737e-15
2.30852e-15
4.76095e-16
2.22045e-16
2.22045e-16
1.24362e-15
6.16065e-15
1.13124e-14
1.68454e-14
2.28571e-14
2.93844e-14
3.63968e-14
4.37962e-14
5.14219e-14
5.90614e-14
6.64644e-14
7.33608e-14
7.94785e-14
8.45625e-14
8.83928e-14
9.07989e-14
9.16717e-14
9.0971e-14
8.87281e-14
8.50438e-14
8.00815e-14
7.40562e-14
6.72193e-14
5.98419e-14
5.21954e-14
4.45327e-14
3.70711e-14
2.99763e-14
2.33521e-14
1.72338e-14
1.15878e-14
6.31801e-15
1.27659e-15
2.22045e-16
2.22045e-16
2.34227e-15
1.1669e-14
2.14853e-14
3.21039e-14
4.37398e-14
5.64855e-14
7.02957e-14
8.49845e-14
1.00233e-13
1.1561e-13
1.30596e-13
1.44626e-13
1.57121e-13
1.67535e-13
1.75394e-13
1.80327e-13
1.82099e-13
1.80623e-13
1.7597e-13
1.68361e-13
1.58153e-13
1.45813e-13
1.31881e-13
1.16933e-13
1.01539e-13
8.62223e-14
7.1423e-14
5.74694e-14
4.45575e-14
3.27411e-14
2.19339e-14
1.19235e-14
2.39534e-15
2.22045e-16
2.22045e-16
3.56564e-15
1.78012e-14
3.28028e-14
4.9064e-14
6.69263e-14
8.6541e-14
1.07845e-13
1.30554e-13
1.54177e-13
1.78039e-13
2.01334e-13
2.23169e-13
2.42635e-13
2.58871e-13
2.71123e-13
2.78808e-13
2.81551e-13
2.79215e-13
2.71916e-13
2.60007e-13
2.44055e-13
2.24801e-13
2.03098e-13
1.79856e-13
1.55967e-13
1.32249e-13
1.09386e-13
8.78829e-14
6.80383e-14
4.99276e-14
3.34085e-14
1.81435e-14
3.63687e-15
2.22045e-16
2.22045e-16
4.75895e-15
2.37813e-14
4.38326e-14
6.55783e-14
8.94796e-14
1.15742e-13
1.44282e-13
1.74721e-13
2.06398e-13
2.38411e-13
2.6967e-13
2.98978e-13
3.25111e-13
3.46905e-13
3.63349e-13
3.73655e-13
3.77317e-13
3.74155e-13
3.64323e-13
3.483e-13
3.26854e-13
3.00982e-13
2.71837e-13
2.4064e-13
2.08595e-13
1.76799e-13
1.46169e-13
1.17383e-13
9.08378e-14
6.66308e-14
4.45689e-14
2.41962e-14
4.84521e-15
2.22045e-16
2.22045e-16
5.83095e-15
2.91514e-14
5.37334e-14
8.03948e-14
1.09702e-13
1.41909e-13
1.76912e-13
2.14248e-13
2.53106e-13
2.92375e-13
3.30722e-13
3.66675e-13
3.9873e-13
4.25461e-13
4.45624e-13
4.58252e-13
4.62727e-13
4.58827e-13
4.46742e-13
4.27063e-13
4.00733e-13
3.68976e-13
3.3321e-13
2.94935e-13
2.55627e-13
2.16632e-13
1.79077e-13
1.43789e-13
1.11256e-13
8.15969e-14
5.45727e-14
2.96233e-14
5.92907e-15
2.22045e-16
2.33401e-16
6.73573e-15
3.36764e-14
6.20736e-14
9.28727e-14
1.26729e-13
1.63933e-13
2.0437e-13
2.475e-13
2.92387e-13
3.37749e-13
3.82044e-13
4.23571e-13
4.60592e-13
4.91461e-13
5.1474e-13
5.29313e-13
5.34467e-13
5.29944e-13
5.15968e-13
4.9322e-13
4.62791e-13
4.26097e-13
3.84776e-13
3.4056e-13
2.95155e-13
2.50116e-13
2.06744e-13
1.65995e-13
1.2843e-13
9.4187e-14
6.29897e-14
3.41907e-14
6.84277e-15
2.3717e-16
2.58307e-16
7.45483e-15
3.72724e-14
6.87011e-14
1.02787e-13
1.40256e-13
1.8143e-13
2.2618e-13
2.7391e-13
3.23582e-13
3.73779e-13
4.22792e-13
4.6874e-13
5.09701e-13
5.43851e-13
5.696e-13
5.85714e-13
5.91403e-13
5.86385e-13
5.70906e-13
5.45722e-13
5.1204e-13
4.71428e-13
4.25698e-13
3.76768e-13
3.26525e-13
2.76691e-13
2.28702e-13
1.83619e-13
1.42061e-13
1.0418e-13
6.96708e-14
3.7816e-14
7.56795e-15
2.62292e-16
2.76987e-16
7.9943e-15
3.99706e-14
7.3674e-14
1.10226e-13
1.50405e-13
1.94557e-13
2.42542e-13
2.93721e-13
3.46983e-13
4.00805e-13
4.53356e-13
5.0262e-13
5.46533e-13
5.83142e-13
6.10742e-13
6.28009e-13
6.34098e-13
6.28707e-13
6.121e-13
5.85087e-13
5.48965e-13
5.05414e-13
4.56378e-13
4.03912e-13
3.50042e-13
2.96612e-13
2.45162e-13
1.9683e-13
1.52279e-13
1.11671e-13
7.46784e-14
4.05331e-14
8.11131e-15
2.81109e-16
2.90214e-16
8.37645e-15
4.18825e-14
7.71976e-14
1.15497e-13
1.57596e-13
2.03858e-13
2.54135e-13
3.07758e-13
3.63562e-13
4.19953e-13
4.75011e-13
5.26622e-13
5.72627e-13
6.10977e-13
6.39887e-13
6.57971e-13
6.64342e-13
6.58685e-13
6.41277e-13
6.12968e-13
5.75116e-13
5.29483e-13
4.78103e-13
4.23134e-13
3.66694e-13
3.10716e-13
2.56816e-13
2.06182e-13
1.59511e-13
1.16973e-13
7.82227e-14
4.2456e-14
8.49576e-15
2.94417e-16
2.99062e-16
8.6322e-15
4.31624e-14
7.95565e-14
1.19026e-13
1.62411e-13
2.10084e-13
2.61896e-13
3.17156e-13
3.74662e-13
4.32771e-13
4.89507e-13
5.4269e-13
5.90094e-13
6.29609e-13
6.59396e-13
6.78026e-13
6.84585e-13
6.78749e-13
6.60804e-13
6.31627e-13
5.92616e-13
5.45588e-13
4.9264e-13
4.35994e-13
3.77834e-13
3.20152e-13
2.64611e-13
2.12438e-13
1.64349e-13
1.20519e-13
8.05928e-14
4.37419e-14
8.75274e-15
3.03308e-16
3.04658e-16
8.79405e-15
4.39727e-14
8.10498e-14
1.2126e-13
1.65458e-13
2.14026e-13
2.66809e-13
3.23105e-13
3.81689e-13
4.40887e-13
4.98685e-13
5.52862e-13
6.01153e-13
6.41405e-13
6.71747e-13
6.90721e-13
6.97399e-13
6.9145e-13
6.73165e-13
6.43437e-13
6.03692e-13
5.55781e-13
5.01839e-13
4.44131e-13
3.84882e-13
3.26121e-13
2.69542e-13
2.16395e-13
1.67408e-13
1.22761e-13
8.20917e-14
4.4555e-14
8.91518e-15
3.08925e-16
3.0801e-16
8.89104e-15
4.44584e-14
8.19451e-14
1.22599e-13
1.67286e-13
2.16389e-13
2.69755e-13
3.26672e-13
3.85902e-13
4.45753e-13
5.04187e-13
5.58961e-13
6.07783e-13
6.48477e-13
6.79151e-13
6.98332e-13
7.05081e-13
6.99063e-13
6.80574e-13
6.50516e-13
6.1033e-13
5.61889e-13
5.07352e-13
4.49007e-13
3.89106e-13
3.29698e-13
2.72497e-13
2.18765e-13
1.69241e-13
1.24104e-13
8.29893e-14
4.50418e-14
9.01241e-15
3.12286e-16
3.09913e-16
8.94616e-15
4.47346e-14
8.24541e-14
1.23361e-13
1.68325e-13
2.17733e-13
2.7143e-13
3.287e-13
3.88298e-13
4.4852e-13
5.07316e-13
5.6243e-13
6.11553e-13
6.52499e-13
6.83362e-13
7.0266e-13
7.09449e-13
7.03392e-13
6.84786e-13
6.5454e-13
6.14104e-13
5.65362e-13
5.10486e-13
4.51779e-13
3.91506e-13
3.3173e-13
2.74175e-13
2.20112e-13
1.70282e-13
1.24867e-13
8.34992e-14
4.53184e-14
9.06761e-15
3.14192e-16
3.1094e-16
8.97593e-15
4.48838e-14
8.27291e-14
1.23772e-13
1.68886e-13
2.18459e-13
2.72336e-13
3.29796e-13
3.89592e-13
4.50015e-13
5.09007e-13
5.64304e-13
6.13591e-13
6.54672e-13
6.85637e-13
7.04999e-13
7.11809e-13
7.05731e-13
6.87062e-13
6.56715e-13
6.16143e-13
5.67238e-13
5.12178e-13
4.53276e-13
3.92802e-13
3.32828e-13
2.75082e-13
2.20839e-13
1.70844e-13
1.25279e-13
8.37745e-14
4.54677e-14
9.09738e-15
3.1522e-16
3.11468e-16
8.99123e-15
4.49605e-14
8.28706e-14
1.23984e-13
1.69175e-13
2.18833e-13
2.72801e-13
3.3036e-13
3.90258e-13
4.50784e-13
5.09877e-13
5.65268e-13
6.14639e-13
6.5579e-13
6.86808e-13
7.06202e-13
7.13023e-13
7.06934e-13
6.88233e-13
6.57833e-13
6.17192e-13
5.68202e-13
5.13049e-13
4.54046e-13
3.93469e-13
3.33392e-13
2.75548e-13
2.21213e-13
1.71133e-13
1.25491e-13
8.39159e-14
4.55443e-14
9.11267e-15
3.15747e-16
3.11727e-16
8.99873e-15
4.49981e-14
8.29399e-14
1.24088e-13
1.69316e-13
2.19016e-13
2.7303e-13
3.30637e-13
3.90585e-13
4.51161e-13
5.10304e-13
5.65741e-13
6.15153e-13
6.56339e-13
6.87382e-13
7.06792e-13
7.13619e-13
7.07524e-13
6.88807e-13
6.58381e-13
6.17706e-13
5.68675e-13
5.13475e-13
4.54423e-13
3.93795e-13
3.33668e-13
2.75776e-13
2.21396e-13
1.71275e-13
1.25594e-13
8.39852e-14
4.55819e-14
9.12016e-15
3.16005e-16
3.11847e-16
9.00224e-15
4.50157e-14
8.29724e-14
1.24136e-13
1.69383e-13
2.19102e-13
2.73137e-13
3.30766e-13
3.90738e-13
4.51338e-13
5.10504e-13
5.65963e-13
6.15394e-13
6.56596e-13
6.87651e-13
7.07068e-13
7.13898e-13
7.07801e-13
6.89076e-13
6.58638e-13
6.17947e-13
5.68897e-13
5.13675e-13
4.546e-13
3.93948e-13
3.33798e-13
2.75883e-13
2.21482e-13
1.71341e-13
1.25643e-13
8.40176e-14
4.55995e-14
9.12366e-15
3.16126e-16
3.11902e-16
9.00381e-15
4.50236e-14
8.2987e-14
1.24158e-13
1.69412e-13
2.1914e-13
2.73185e-13
3.30824e-13
3.90807e-13
4.51417e-13
5.10594e-13
5.66062e-13
6.15502e-13
6.56711e-13
6.87771e-13
7.07192e-13
7.14023e-13
7.07925e-13
6.89197e-13
6.58753e-13
6.18055e-13
5.68996e-13
5.13765e-13
4.54679e-13
3.94017e-13
3.33856e-13
2.75931e-13
2.2152e-13
1.71371e-13
1.25665e-13
8.40321e-14
4.56074e-14
9.12523e-15
3.1618e-16
3.11925e-16
9.00449e-15
4.5027e-14
8.29933e-14
1.24167e-13
1.69425e-13
2.19157e-13
2.73205e-13
3.30849e-13
3.90836e-13
4.51452e-13
5.10632e-13
5.66105e-13
6.15548e-13
6.5676e-13
6.87823e-13
7.07246e-13
7.14077e-13
7.07978e-13
6.89249e-13
6.58803e-13
6.18101e-13
5.69039e-13
5.13804e-13
4.54713e-13
3.94046e-13
3.33881e-13
2.75951e-13
2.21537e-13
1.71383e-13
1.25674e-13
8.40384e-14
4.56108e-14
9.12591e-15
3.16203e-16
3.11934e-16
9.00477e-15
4.50284e-14
8.29958e-14
1.24171e-13
1.6943e-13
2.19164e-13
2.73214e-13
3.3086e-13
3.90848e-13
4.51466e-13
5.10648e-13
5.66123e-13
6.15567e-13
6.56781e-13
6.87845e-13
7.07268e-13
7.14099e-13
7.08e-13
6.8927e-13
6.58823e-13
6.1812e-13
5.69057e-13
5.13819e-13
4.54727e-13
3.94059e-13
3.33891e-13
2.7596e-13
2.21543e-13
1.71389e-13
1.25678e-13
8.4041e-14
4.56121e-14
9.12618e-15
3.16212e-16
3.11938e-16
9.00488e-15
4.5029e-14
8.29969e-14
1.24173e-13
1.69433e-13
2.19166e-13
2.73217e-13
3.30864e-13
3.90853e-13
4.51471e-13
5.10654e-13
5.6613e-13
6.15575e-13
6.56789e-13
6.87853e-13
7.07277e-13
7.14108e-13
7.08009e-13
6.89279e-13
6.58832e-13
6.18128e-13
5.69064e-13
5.13826e-13
4.54733e-13
3.94063e-13
3.33895e-13
2.75963e-13
2.21546e-13
1.71391e-13
1.2568e-13
8.4042e-14
4.56127e-14
9.12629e-15
3.16216e-16
3.1194e-16
9.00492e-15
4.50292e-14
8.29973e-14
1.24173e-13
1.69433e-13
2.19167e-13
2.73218e-13
3.30865e-13
3.90855e-13
4.51473e-13
5.10657e-13
5.66132e-13
6.15578e-13
6.56792e-13
6.87856e-13
7.0728e-13
7.14111e-13
7.08012e-13
6.89282e-13
6.58835e-13
6.18131e-13
5.69066e-13
5.13828e-13
4.54735e-13
3.94065e-13
3.33897e-13
2.75965e-13
2.21547e-13
1.71392e-13
1.2568e-13
8.40424e-14
4.56129e-14
9.12634e-15
3.16218e-16
3.1194e-16
9.00493e-15
4.50293e-14
8.29974e-14
1.24174e-13
1.69434e-13
2.19168e-13
2.73219e-13
3.30866e-13
3.90856e-13
4.51474e-13
5.10658e-13
5.66133e-13
6.15579e-13
6.56793e-13
6.87858e-13
7.07281e-13
7.14113e-13
7.08013e-13
6.89283e-13
6.58836e-13
6.18132e-13
5.69067e-13
5.13829e-13
4.54736e-13
3.94066e-13
3.33897e-13
2.75965e-13
2.21548e-13
1.71392e-13
1.2568e-13
8.40425e-14
4.5613e-14
9.12635e-15
3.16218e-16
3.1194e-16
9.00494e-15
4.50293e-14
8.29975e-14
1.24174e-13
1.69434e-13
2.19168e-13
2.73219e-13
3.30866e-13
3.90856e-13
4.51474e-13
5.10658e-13
5.66134e-13
6.15579e-13
6.56794e-13
6.87858e-13
7.07282e-13
7.14113e-13
7.08014e-13
6.89283e-13
6.58836e-13
6.18132e-13
5.69068e-13
5.13829e-13
4.54736e-13
3.94066e-13
3.33898e-13
2.75965e-13
2.21548e-13
1.71392e-13
1.2568e-13
8.40426e-14
4.5613e-14
9.12636e-15
3.16218e-16
3.1194e-16
9.00494e-15
4.50293e-14
8.29975e-14
1.24174e-13
1.69434e-13
2.19168e-13
2.73219e-13
3.30866e-13
3.90856e-13
4.51474e-13
5.10658e-13
5.66134e-13
6.1558e-13
6.56794e-13
6.87858e-13
7.07282e-13
7.14113e-13
7.08014e-13
6.89284e-13
6.58836e-13
6.18133e-13
5.69068e-13
5.13829e-13
4.54736e-13
3.94066e-13
3.33898e-13
2.75965e-13
2.21548e-13
1.71392e-13
1.2568e-13
8.40426e-14
4.5613e-14
9.12636e-15
3.16218e-16
3.1194e-16
9.00494e-15
4.50293e-14
8.29975e-14
1.24174e-13
1.69434e-13
2.19168e-13
2.73219e-13
3.30866e-13
3.90856e-13
4.51474e-13
5.10658e-13
5.66134e-13
6.1558e-13
6.56794e-13
6.87858e-13
7.07282e-13
7.14113e-13
7.08014e-13
6.89284e-13
6.58836e-13
6.18133e-13
5.69068e-13
5.1383e-13
4.54736e-13
3.94066e-13
3.33898e-13
2.75965e-13
2.21548e-13
1.71392e-13
1.2568e-13
8.40426e-14
4.5613e-14
9.12636e-15
3.16218e-16
3.1194e-16
9.00494e-15
4.50293e-14
8.29975e-14
1.24174e-13
1.69434e-13
2.19168e-13
2.73219e-13
3.30866e-13
3.90856e-13
4.51475e-13
5.10658e-13
5.66134e-13
6.1558e-13
6.56794e-13
6.87858e-13
7.07282e-13
7.14113e-13
7.08014e-13
6.89284e-13
6.58836e-13
6.18133e-13
5.69068e-13
5.1383e-13
4.54736e-13
3.94066e-13
3.33898e-13
2.75965e-13
2.21548e-13
1.71392e-13
1.2568e-13
8.40426e-14
4.5613e-14
9.12636e-15
3.16219e-16
3.1194e-16
9.00494e-15
4.50293e-14
8.29975e-14
1.24174e-13
1.69434e-13
2.19168e-13
2.73219e-13
3.30866e-13
3.90856e-13
4.51475e-13
5.10658e-13
5.66134e-13
6.1558e-13
6.56794e-13
6.87858e-13
7.07282e-13
7.14113e-13
7.08014e-13
6.89284e-13
6.58836e-13
6.18133e-13
5.69068e-13
5.1383e-13
4.54736e-13
3.94066e-13
3.33898e-13
2.75965e-13
2.21548e-13
1.71392e-13
1.2568e-13
8.40426e-14
4.5613e-14
9.12636e-15
3.16219e-16
3.1194e-16
9.00494e-15
4.50293e-14
8.29975e-14
1.24174e-13
1.69434e-13
2.19168e-13
2.73219e-13
3.30866e-13
3.90856e-13
4.51475e-13
5.10658e-13
5.66134e-13
6.1558e-13
6.56794e-13
6.87858e-13
7.07282e-13
7.14113e-13
7.08014e-13
6.89284e-13
6.58836e-13
6.18133e-13
5.69068e-13
5.1383e-13
4.54736e-13
3.94066e-13
3.33898e-13
2.75965e-13
2.21548e-13
1.71392e-13
1.2568e-13
8.40426e-14
4.5613e-14
9.12636e-15
3.16219e-16
3.1194e-16
9.00494e-15
4.50293e-14
8.29975e-14
1.24174e-13
1.69434e-13
2.19168e-13
2.73219e-13
3.30866e-13
3.90856e-13
4.51475e-13
5.10658e-13
5.66134e-13
6.1558e-13
6.56794e-13
6.87858e-13
7.07282e-13
7.14113e-13
7.08014e-13
6.89284e-13
6.58836e-13
6.18133e-13
5.69068e-13
5.1383e-13
4.54736e-13
3.94066e-13
3.33898e-13
2.75965e-13
2.21548e-13
1.71392e-13
1.2568e-13
8.40426e-14
4.5613e-14
9.12636e-15
3.16219e-16
3.1194e-16
9.00494e-15
4.50293e-14
8.29975e-14
1.24174e-13
1.69434e-13
2.19168e-13
2.73219e-13
3.30866e-13
3.90856e-13
4.51475e-13
5.10658e-13
5.66134e-13
6.1558e-13
6.56794e-13
6.87858e-13
7.07282e-13
7.14113e-13
7.08014e-13
6.89284e-13
6.58836e-13
6.18133e-13
5.69068e-13
5.1383e-13
4.54736e-13
3.94066e-13
3.33898e-13
2.75965e-13
2.21548e-13
1.71392e-13
1.2568e-13
8.40426e-14
4.5613e-14
9.12636e-15
3.16219e-16
3.1194e-16
9.00494e-15
4.50293e-14
8.29975e-14
1.24174e-13
1.69434e-13
2.19168e-13
2.73219e-13
3.30866e-13
3.90856e-13
4.51475e-13
5.10658e-13
5.66134e-13
6.1558e-13
6.56794e-13
6.87858e-13
7.07282e-13
7.14113e-13
7.08014e-13
6.89284e-13
6.58836e-13
6.18133e-13
5.69068e-13
5.1383e-13
4.54736e-13
3.94066e-13
3.33898e-13
2.75965e-13
2.21548e-13
1.71392e-13
1.2568e-13
8.40426e-14
4.5613e-14
9.12636e-15
3.16219e-16
3.1194e-16
9.00494e-15
4.50293e-14
8.29975e-14
1.24174e-13
1.69434e-13
2.19168e-13
2.73219e-13
3.30866e-13
3.90856e-13
4.51475e-13
5.10658e-13
5.66134e-13
6.1558e-13
6.56794e-13
6.87858e-13
7.07282e-13
7.14113e-13
7.08014e-13
6.89284e-13
6.58836e-13
6.18133e-13
5.69068e-13
5.1383e-13
4.54736e-13
3.94066e-13
3.33898e-13
2.75965e-13
2.21548e-13
1.71392e-13
1.2568e-13
8.40426e-14
4.5613e-14
9.12636e-15
3.16219e-16
3.1194e-16
9.00494e-15
4.50293e-14
8.29975e-14
1.24174e-13
1.69434e-13
2.19168e-13
2.73219e-13
3.30866e-13
3.90856e-13
4.51475e-13
5.10658e-13
5.66134e-13
6.1558e-13
6.56794e-13
6.87858e-13
7.07282e-13
7.14113e-13
7.08014e-13
6.89284e-13
6.58836e-13
6.18133e-13
5.69068e-13
5.1383e-13
4.54736e-13
3.94066e-13
3.33898e-13
2.75965e-13
2.21548e-13
1.71392e-13
1.2568e-13
8.40426e-14
4.5613e-14
9.12636e-15
3.16219e-16
3.1194e-16
9.00494e-15
4.50293e-14
8.29975e-14
1.24174e-13
1.69434e-13
2.19168e-13
2.73219e-13
3.30866e-13
3.90856e-13
4.51475e-13
5.10658e-13
5.66134e-13
6.1558e-13
6.56794e-13
6.87858e-13
7.07282e-13
7.14113e-13
7.08014e-13
6.89284e-13
6.58836e-13
6.18133e-13
5.69068e-13
5.1383e-13
4.54736e-13
3.94066e-13
3.33898e-13
2.75965e-13
2.21548e-13
1.71392e-13
1.2568e-13
8.40426e-14
4.5613e-14
9.12636e-15
3.16219e-16
3.1194e-16
9.00494e-15
4.50293e-14
8.29975e-14
1.24174e-13
1.69434e-13
2.19168e-13
2.73219e-13
3.30866e-13
3.90856e-13
4.51475e-13
5.10658e-13
5.66134e-13
6.1558e-13
6.56794e-13
6.87858e-13
7.07282e-13
7.14113e-13
7.08014e-13
6.89284e-13
6.58836e-13
6.18133e-13
5.69068e-13
5.1383e-13
4.54736e-13
3.94066e-13
3.33898e-13
2.75965e-13
2.21548e-13
1.71392e-13
1.2568e-13
8.40426e-14
4.5613e-14
9.12636e-15
3.16219e-16
3.1194e-16
9.00494e-15
4.50293e-14
8.29975e-14
1.24174e-13
1.69434e-13
2.19168e-13
2.73219e-13
3.30866e-13
3.90856e-13
4.51475e-13
5.10658e-13
5.66134e-13
6.1558e-13
6.56794e-13
6.87858e-13
7.07282e-13
7.14113e-13
7.08014e-13
6.89284e-13
6.58836e-13
6.18133e-13
5.69068e-13
5.1383e-13
4.54736e-13
3.94066e-13
3.33898e-13
2.75965e-13
2.21548e-13
1.71392e-13
1.2568e-13
8.40426e-14
4.5613e-14
9.12636e-15
3.16219e-16
3.1194e-16
9.00494e-15
4.50293e-14
8.29975e-14
1.24174e-13
1.69434e-13
2.19168e-13
2.73219e-13
3.30866e-13
3.90856e-13
4.51475e-13
5.10658e-13
5.66134e-13
6.1558e-13
6.56794e-13
6.87858e-13
7.07282e-13
7.14113e-13
7.08014e-13
6.89284e-13
6.58836e-13
6.18133e-13
5.69068e-13
5.1383e-13
4.54736e-13
3.94066e-13
3.33898e-13
2.75965e-13
2.21548e-13
1.71392e-13
1.2568e-13
8.40426e-14
4.5613e-14
9.12636e-15
3.16219e-16
3.1194e-16
9.00494e-15
4.50293e-14
8.29975e-14
1.24174e-13
1.69434e-13
2.19168e-13
2.73219e-13
3.30866e-13
3.90856e-13
4.51475e-13
5.10658e-13
5.66134e-13
6.1558e-13
6.56794e-13
6.87858e-13
7.07282e-13
7.14113e-13
7.08014e-13
6.89284e-13
6.58836e-13
6.18133e-13
5.69068e-13
5.1383e-13
4.54736e-13
3.94066e-13
3.33898e-13
2.75965e-13
2.21548e-13
1.71392e-13
1.2568e-13
8.40426e-14
4.5613e-14
9.12636e-15
3.16219e-16
3.1194e-16
9.00494e-15
4.50293e-14
8.29975e-14
1.24174e-13
1.69434e-13
2.19168e-13
2.73219e-13
3.30866e-13
3.90856e-13
4.51475e-13
5.10658e-13
5.66134e-13
6.1558e-13
6.56794e-13
6.87858e-13
7.07282e-13
7.14113e-13
7.08014e-13
6.89284e-13
6.58836e-13
6.18133e-13
5.69068e-13
5.1383e-13
4.54736e-13
3.94066e-13
3.33898e-13
2.75965e-13
2.21548e-13
1.71392e-13
1.2568e-13
8.40426e-14
4.5613e-14
9.12636e-15
3.16219e-16
3.1194e-16
9.00494e-15
4.50293e-14
8.29975e-14
1.24174e-13
1.69434e-13
2.19168e-13
2.73219e-13
3.30866e-13
3.90856e-13
4.51475e-13
5.10658e-13
5.66134e-13
6.1558e-13
6.56794e-13
6.87858e-13
7.07282e-13
7.14113e-13
7.08014e-13
6.89284e-13
6.58836e-13
6.18133e-13
5.69068e-13
5.1383e-13
4.54736e-13
3.94066e-13
3.33898e-13
2.75965e-13
2.21548e-13
1.71392e-13
1.2568e-13
8.40426e-14
4.5613e-14
9.12636e-15
3.16219e-16
3.1194e-16
9.00494e-15
4.50293e-14
8.29975e-14
1.24174e-13
1.69434e-13
2.19168e-13
2.73219e-13
3.30866e-13
3.90856e-13
4.51475e-13
5.10658e-13
5.66134e-13
6.1558e-13
6.56794e-13
6.87858e-13
7.07282e-13
7.14113e-13
7.08014e-13
6.89284e-13
6.58836e-13
6.18133e-13
5.69068e-13
5.1383e-13
4.54736e-13
3.94066e-13
3.33898e-13
2.75965e-13
2.21548e-13
1.71392e-13
1.2568e-13
8.40426e-14
4.5613e-14
9.12636e-15
3.16219e-16
3.1194e-16
9.00494e-15
4.50293e-14
8.29975e-14
1.24174e-13
1.69434e-13
2.19168e-13
2.73219e-13
3.30866e-13
3.90856e-13
4.51475e-13
5.10658e-13
5.66134e-13
6.1558e-13
6.56794e-13
6.87858e-13
7.07282e-13
7.14113e-13
7.08014e-13
6.89284e-13
6.58836e-13
6.18133e-13
5.69068e-13
5.1383e-13
4.54736e-13
3.94066e-13
3.33898e-13
2.75965e-13
2.21548e-13
1.71392e-13
1.2568e-13
8.40426e-14
4.5613e-14
9.12636e-15
3.16219e-16
3.1194e-16
9.00494e-15
4.50293e-14
8.29975e-14
1.24174e-13
1.69434e-13
2.19168e-13
2.73219e-13
3.30866e-13
3.90856e-13
4.51475e-13
5.10658e-13
5.66134e-13
6.1558e-13
6.56794e-13
6.87858e-13
7.07282e-13
7.14113e-13
7.08014e-13
6.89284e-13
6.58836e-13
6.18133e-13
5.69068e-13
5.1383e-13
4.54736e-13
3.94066e-13
3.33898e-13
2.75965e-13
2.21548e-13
1.71392e-13
1.2568e-13
8.40426e-14
4.5613e-14
9.12636e-15
3.16219e-16
3.1194e-16
9.00494e-15
4.50293e-14
8.29975e-14
1.24174e-13
1.69434e-13
2.19168e-13
2.73219e-13
3.30866e-13
3.90856e-13
4.51475e-13
5.10658e-13
5.66134e-13
6.1558e-13
6.56794e-13
6.87858e-13
7.07282e-13
7.14113e-13
7.08014e-13
6.89284e-13
6.58836e-13
6.18133e-13
5.69068e-13
5.1383e-13
4.54736e-13
3.94066e-13
3.33898e-13
2.75965e-13
2.21548e-13
1.71392e-13
1.2568e-13
8.40426e-14
4.5613e-14
9.12636e-15
3.16219e-16
3.1194e-16
9.00494e-15
4.50293e-14
8.29975e-14
1.24174e-13
1.69434e-13
2.19168e-13
2.73219e-13
3.30866e-13
3.90856e-13
4.51475e-13
5.10658e-13
5.66134e-13
6.1558e-13
6.56794e-13
6.87858e-13
7.07282e-13
7.14113e-13
7.08014e-13
6.89284e-13
6.58836e-13
6.18133e-13
5.69068e-13
5.1383e-13
4.54736e-13
3.94066e-13
3.33898e-13
2.75965e-13
2.21548e-13
1.71392e-13
1.2568e-13
8.40426e-14
4.5613e-14
9.12636e-15
3.16219e-16
3.1194e-16
9.00494e-15
4.50293e-14
8.29975e-14
1.24174e-13
1.69434e-13
2.19168e-13
2.73219e-13
3.30866e-13
3.90856e-13
4.51475e-13
5.10658e-13
5.66134e-13
6.1558e-13
6.56794e-13
6.87858e-13
7.07282e-13
7.14113e-13
7.08014e-13
6.89284e-13
6.58836e-13
6.18133e-13
5.69068e-13
5.1383e-13
4.54736e-13
3.94066e-13
3.33898e-13
2.75965e-13
2.21548e-13
1.71392e-13
1.2568e-13
8.40426e-14
4.5613e-14
9.12636e-15
3.16219e-16
3.1194e-16
9.00494e-15
4.50293e-14
8.29975e-14
1.24174e-13
1.69434e-13
2.19168e-13
2.73219e-13
3.30866e-13
3.90856e-13
4.51475e-13
5.10658e-13
5.66134e-13
6.1558e-13
6.56794e-13
6.87858e-13
7.07282e-13
7.14113e-13
7.08014e-13
6.89284e-13
6.58836e-13
6.18133e-13
5.69068e-13
5.1383e-13
4.54736e-13
3.94066e-13
3.33898e-13
2.75965e-13
2.21548e-13
1.71392e-13
1.2568e-13
8.40426e-14
4.5613e-14
9.12636e-15
3.16219e-16
3.1194e-16
9.00494e-15
4.50293e-14
8.29975e-14
1.24174e-13
1.69434e-13
2.19168e-13
2.73219e-13
3.30866e-13
3.90856e-13
4.51475e-13
5.10658e-13
5.66134e-13
6.1558e-13
6.56794e-13
6.87858e-13
7.07282e-13
7.14113e-13
7.08014e-13
6.89284e-13
6.58836e-13
6.18133e-13
5.69068e-13
5.1383e-13
4.54736e-13
3.94066e-13
3.33898e-13
2.75965e-13
2.21548e-13
1.71392e-13
1.2568e-13
8.40426e-14
4.5613e-14
9.12636e-15
3.16219e-16
3.1194e-16
9.00494e-15
4.50293e-14
8.29975e-14
1.24174e-13
1.69434e-13
2.19168e-13
2.73219e-13
3.30866e-13
3.90856e-13
4.51475e-13
5.10658e-13
5.66134e-13
6.1558e-13
6.56794e-13
6.87858e-13
7.07282e-13
7.14113e-13
7.08014e-13
6.89284e-13
6.58836e-13
6.18133e-13
5.69068e-13
5.1383e-13
4.54736e-13
3.94066e-13
3.33898e-13
2.75965e-13
2.21548e-13
1.71392e-13
1.2568e-13
8.40426e-14
4.5613e-14
9.12636e-15
3.16219e-16
3.1194e-16
9.00494e-15
4.50293e-14
8.29975e-14
1.24174e-13
1.69434e-13
2.19168e-13
2.73219e-13
3.30866e-13
3.90856e-13
4.51475e-13
5.10658e-13
5.66134e-13
6.1558e-13
6.56794e-13
6.87858e-13
7.07282e-13
7.14113e-13
7.08014e-13
6.89284e-13
6.58836e-13
6.18133e-13
5.69068e-13
5.1383e-13
4.54736e-13
3.94066e-13
3.33898e-13
2.75965e-13
2.21548e-13
1.71392e-13
1.2568e-13
8.40426e-14
4.5613e-14
9.12636e-15
3.16219e-16
3.1194e-16
9.00494e-15
4.50293e-14
8.29975e-14
1.24174e-13
1.69434e-13
2.19168e-13
2.73219e-13
3.30866e-13
3.90856e-13
4.51475e-13
5.10658e-13
5.66134e-13
6.1558e-13
6.56794e-13
6.87858e-13
7.07282e-13
7.14113e-13
7.08014e-13
6.89284e-13
6.58836e-13
6.18133e-13
5.69068e-13
5.1383e-13
4.54736e-13
3.94066e-13
3.33898e-13
2.75965e-13
2.21548e-13
1.71392e-13
1.2568e-13
8.40426e-14
4.5613e-14
9.12636e-15
3.16219e-16
3.1194e-16
9.00494e-15
4.50293e-14
8.29975e-14
1.24174e-13
1.69434e-13
2.19168e-13
2.73219e-13
3.30866e-13
3.90856e-13
4.51475e-13
5.10658e-13
5.66134e-13
6.1558e-13
6.56794e-13
6.87858e-13
7.07282e-13
7.14113e-13
7.08014e-13
6.89284e-13
6.58836e-13
6.18133e-13
5.69068e-13
5.1383e-13
4.54736e-13
3.94066e-13
3.33898e-13
2.75965e-13
2.21548e-13
1.71392e-13
1.2568e-13
8.40426e-14
4.5613e-14
9.12636e-15
3.16219e-16
3.1194e-16
9.00494e-15
4.50293e-14
8.29975e-14
1.24174e-13
1.69434e-13
2.19168e-13
2.73219e-13
3.30866e-13
3.90856e-13
4.51475e-13
5.10658e-13
5.66134e-13
6.1558e-13
6.56794e-13
6.87858e-13
7.07282e-13
7.14113e-13
7.08014e-13
6.89284e-13
6.58836e-13
6.18133e-13
5.69068e-13
5.1383e-13
4.54736e-13
3.94066e-13
3.33898e-13
2.75965e-13
2.21548e-13
1.71392e-13
1.2568e-13
8.40426e-14
4.5613e-14
9.12636e-15
3.16219e-16
3.1194e-16
9.00494e-15
4.50293e-14
8.29975e-14
1.24174e-13
1.69434e-13
2.19168e-13
2.73219e-13
3.30866e-13
3.90856e-13
4.51475e-13
5.10658e-13
5.66134e-13
6.1558e-13
6.56794e-13
6.87858e-13
7.07282e-13
7.14113e-13
7.08014e-13
6.89284e-13
6.58836e-13
6.18133e-13
5.69068e-13
5.1383e-13
4.54736e-13
3.94066e-13
3.33898e-13
2.75965e-13
2.21548e-13
1.71392e-13
1.2568e-13
8.40426e-14
4.5613e-14
9.12636e-15
3.16219e-16
3.1194e-16
9.00494e-15
4.50293e-14
8.29975e-14
1.24174e-13
1.69434e-13
2.19168e-13
2.73219e-13
3.30866e-13
3.90856e-13
4.51475e-13
5.10658e-13
5.66134e-13
6.1558e-13
6.56794e-13
6.87858e-13
7.07282e-13
7.14113e-13
7.08014e-13
6.89284e-13
6.58836e-13
6.18133e-13
5.69068e-13
5.1383e-13
4.54736e-13
3.94066e-13
3.33898e-13
2.75965e-13
2.21548e-13
1.71392e-13
1.2568e-13
8.40426e-14
4.5613e-14
9.12636e-15
3.16219e-16
3.1194e-16
9.00494e-15
4.50293e-14
8.29975e-14
1.24174e-13
1.69434e-13
2.19168e-13
2.73219e-13
3.30866e-13
3.90856e-13
4.51475e-13
5.10658e-13
5.66134e-13
6.1558e-13
6.56794e-13
6.87858e-13
7.07282e-13
7.14113e-13
7.08014e-13
6.89284e-13
6.58836e-13
6.18133e-13
5.69068e-13
5.1383e-13
4.54736e-13
3.94066e-13
3.33898e-13
2.75965e-13
2.21548e-13
1.71392e-13
1.2568e-13
8.40426e-14
4.5613e-14
9.12636e-15
3.16219e-16
3.1194e-16
9.00494e-15
4.50293e-14
8.29975e-14
1.24174e-13
1.69434e-13
2.19168e-13
2.73219e-13
3.30866e-13
3.90856e-13
4.51475e-13
5.10658e-13
5.66134e-13
6.1558e-13
6.56794e-13
6.87858e-13
7.07282e-13
7.14113e-13
7.08014e-13
6.89284e-13
6.58836e-13
6.18133e-13
5.69068e-13
5.1383e-13
4.54736e-13
3.94066e-13
3.33898e-13
2.75965e-13
2.21548e-13
1.71392e-13
1.2568e-13
8.40426e-14
4.5613e-14
9.12636e-15
3.16219e-16
3.1194e-16
9.00494e-15
4.50293e-14
8.29975e-14
1.24174e-13
1.69434e-13
2.19168e-13
2.73219e-13
3.30866e-13
3.90856e-13
4.51475e-13
5.10658e-13
5.66134e-13
6.1558e-13
6.56794e-13
6.87858e-13
7.07282e-13
7.14113e-13
7.08014e-13
6.89284e-13
6.58836e-13
6.18133e-13
5.69068e-13
5.1383e-13
4.54736e-13
3.94066e-13
3.33898e-13
2.75965e-13
2.21548e-13
1.71392e-13
1.2568e-13
8.40426e-14
4.5613e-14
9.12636e-15
3.16219e-16
3.1194e-16
9.00494e-15
4.50293e-14
8.29975e-14
1.24174e-13
1.69434e-13
2.19168e-13
2.73219e-13
3.30866e-13
3.90856e-13
4.51475e-13
5.10658e-13
5.66134e-13
6.1558e-13
6.56794e-13
6.87858e-13
7.07282e-13
7.14113e-13
7.08014e-13
6.89284e-13
6.58836e-13
6.18133e-13
5.69068e-13
5.1383e-13
4.54736e-13
3.94066e-13
3.33898e-13
2.75965e-13
2.21548e-13
1.71392e-13
1.2568e-13
8.40426e-14
4.5613e-14
9.12636e-15
3.16219e-16
3.1194e-16
9.00494e-15
4.50293e-14
8.29975e-14
1.24174e-13
1.69434e-13
2.19168e-13
2.73219e-13
3.30866e-13
3.90856e-13
4.51475e-13
5.10658e-13
5.66134e-13
6.1558e-13
6.56794e-13
6.87858e-13
7.07282e-13
7.14113e-13
7.08014e-13
6.89284e-13
6.58836e-13
6.18133e-13
5.69068e-13
5.1383e-13
4.54736e-13
3.94066e-13
3.33898e-13
2.75965e-13
2.21548e-13
1.71392e-13
1.2568e-13
8.40426e-14
4.5613e-14
9.12636e-15
3.16219e-16
3.1194e-16
9.00494e-15
4.50293e-14
8.29975e-14
1.24174e-13
1.69434e-13
2.19168e-13
2.73219e-13
3.30866e-13
3.90856e-13
4.51475e-13
5.10658e-13
5.66134e-13
6.1558e-13
6.56794e-13
6.87858e-13
7.07282e-13
7.14113e-13
7.08014e-13
6.89284e-13
6.58836e-13
6.18133e-13
5.69068e-13
5.1383e-13
4.54736e-13
3.94066e-13
3.33898e-13
2.75965e-13
2.21548e-13
1.71392e-13
1.2568e-13
8.40426e-14
4.5613e-14
9.12636e-15
3.16219e-16
3.1194e-16
9.00494e-15
4.50293e-14
8.29975e-14
1.24174e-13
1.69434e-13
2.19168e-13
2.73219e-13
3.30866e-13
3.90856e-13
4.51475e-13
5.10658e-13
5.66134e-13
6.1558e-13
6.56794e-13
6.87858e-13
7.07282e-13
7.14113e-13
7.08014e-13
6.89284e-13
6.58836e-13
6.18133e-13
5.69068e-13
5.1383e-13
4.54736e-13
3.94066e-13
3.33898e-13
2.75965e-13
2.21548e-13
1.71392e-13
1.2568e-13
8.40426e-14
4.5613e-14
9.12636e-15
3.16219e-16
3.1194e-16
9.00494e-15
4.50293e-14
8.29975e-14
1.24174e-13
1.69434e-13
2.19168e-13
2.73219e-13
3.30866e-13
3.90856e-13
4.51475e-13
5.10658e-13
5.66134e-13
6.1558e-13
6.56794e-13
6.87858e-13
7.07282e-13
7.14113e-13
7.08014e-13
6.89284e-13
6.58836e-13
6.18133e-13
5.69068e-13
5.1383e-13
4.54736e-13
3.94066e-13
3.33898e-13
2.75965e-13
2.21548e-13
1.71392e-13
1.2568e-13
8.40426e-14
4.5613e-14
9.12636e-15
3.16219e-16
3.1194e-16
9.00494e-15
4.50293e-14
8.29975e-14
1.24174e-13
1.69434e-13
2.19168e-13
2.73219e-13
3.30866e-13
3.90856e-13
4.51475e-13
5.10658e-13
5.66134e-13
6.1558e-13
6.56794e-13
6.87858e-13
7.07282e-13
7.14113e-13
7.08014e-13
6.89284e-13
6.58836e-13
6.18133e-13
5.69068e-13
5.1383e-13
4.54736e-13
3.94066e-13
3.33898e-13
2.75965e-13
2.21548e-13
1.71392e-13
1.2568e-13
8.40426e-14
4.5613e-14
9.12636e-15
3.16219e-16
3.1194e-16
9.00494e-15
4.50293e-14
8.29975e-14
1.24174e-13
1.69434e-13
2.19168e-13
2.73219e-13
3.30866e-13
3.90856e-13
4.51475e-13
5.10658e-13
5.66134e-13
6.1558e-13
6.56794e-13
6.87858e-13
7.07282e-13
7.14113e-13
7.08014e-13
6.89284e-13
6.58836e-13
6.18133e-13
5.69068e-13
5.1383e-13
4.54736e-13
3.94066e-13
3.33898e-13
2.75965e-13
2.21548e-13
1.71392e-13
1.2568e-13
8.40426e-14
4.5613e-14
9.12636e-15
3.16219e-16
3.1194e-16
9.00494e-15
4.50293e-14
8.29975e-14
1.24174e-13
1.69434e-13
2.19168e-13
2.73219e-13
3.30866e-13
3.90856e-13
4.51475e-13
5.10658e-13
5.66134e-13
6.1558e-13
6.56794e-13
6.87858e-13
7.07282e-13
7.14113e-13
7.08014e-13
6.89284e-13
6.58836e-13
6.18133e-13
5.69068e-13
5.1383e-13
4.54736e-13
3.94066e-13
3.33898e-13
2.75965e-13
2.21548e-13
1.71392e-13
1.2568e-13
8.40426e-14
4.5613e-14
9.12636e-15
3.16219e-16
3.1194e-16
9.00494e-15
4.50293e-14
8.29975e-14
1.24174e-13
1.69434e-13
2.19168e-13
2.73219e-13
3.30866e-13
3.90856e-13
4.51475e-13
5.10658e-13
5.66134e-13
6.1558e-13
6.56794e-13
6.87858e-13
7.07282e-13
7.14113e-13
7.08014e-13
6.89284e-13
6.58836e-13
6.18133e-13
5.69068e-13
5.1383e-13
4.54736e-13
3.94066e-13
3.33898e-13
2.75965e-13
2.21548e-13
1.71392e-13
1.2568e-13
8.40426e-14
4.5613e-14
9.12636e-15
3.16219e-16
3.1194e-16
9.00494e-15
4.50293e-14
8.29975e-14
1.24174e-13
1.69434e-13
2.19168e-13
2.73219e-13
3.30866e-13
3.90856e-13
4.51475e-13
5.10658e-13
5.66134e-13
6.1558e-13
6.56794e-13
6.87858e-13
7.07282e-13
7.14113e-13
7.08014e-13
6.89284e-13