/*--------------------------------*- C++ -*----------------------------------*\
  =========                 |
  \\      /  F ield         | OpenFOAM: The Open Source CFD Toolbox
   \\    /   O peration     | Website:  https://openfoam.org
    \\  /    A nd           | Version:  13
     \\/     M anipulation  |
\*---------------------------------------------------------------------------*/
FoamFile
{
    format      ascii;
    class       volScalarField;
    location    "38";
    object      nut;
}
// * * * * * * * * * * * * * * * * * * * * * * * * * * * * * * * * * * * * * //

dimensions      [0 2 -1 0 0 0 0];

internalField   nonuniform List<scalar> 
78750
(
3.27176e-19
2.94458e-18
1.46562e-17
1.46562e-17
1.7154e-17
2.2119e-17
2.77057e-17
3.36888e-17
3.99068e-17
4.62018e-17
5.24023e-17
5.83229e-17
6.37718e-17
6.85607e-17
7.25161e-17
7.54895e-17
7.73663e-17
7.80728e-17
7.75808e-17
7.59088e-17
7.31215e-17
6.93254e-17
6.46628e-17
5.9303e-17
5.3432e-17
4.72419e-17
4.09198e-17
3.46402e-17
2.85631e-17
2.28476e-17
1.77018e-17
1.46562e-17
1.46562e-17
2.94458e-18
3.27176e-19
3.27176e-19
6.11666e-18
8.40623e-16
1.53115e-15
2.25841e-15
3.03046e-15
3.84877e-15
4.7078e-15
5.5952e-15
6.49265e-15
7.37713e-15
8.22242e-15
9.00092e-15
9.68531e-15
1.02504e-14
1.06745e-14
1.09411e-14
1.10395e-14
1.09656e-14
1.07223e-14
1.03192e-14
9.772e-15
9.10153e-15
8.33255e-15
7.4921e-15
6.60786e-15
5.7063e-15
4.81095e-15
3.94073e-15
3.10866e-15
2.32089e-15
1.57634e-15
8.66977e-16
6.31361e-18
3.27176e-19
3.27176e-19
1.6492e-17
2.31366e-15
4.24844e-15
6.3264e-15
8.58412e-15
1.10355e-14
1.3669e-14
1.64479e-14
1.93118e-14
2.21808e-14
2.49611e-14
2.75511e-14
2.98486e-14
3.17579e-14
3.31964e-14
3.41e-14
3.44278e-14
3.41647e-14
3.33223e-14
3.19387e-14
3.00751e-14
2.78122e-14
2.52446e-14
2.2474e-14
1.96023e-14
1.67245e-14
1.39222e-14
1.12578e-14
8.77001e-15
6.47224e-15
4.35187e-15
2.37276e-15
1.69292e-17
3.27176e-19
3.27176e-19
3.10614e-17
4.38237e-15
8.06891e-15
1.20568e-14
1.64267e-14
2.12134e-14
2.63999e-14
3.19164e-14
3.76431e-14
4.34178e-14
4.90461e-14
5.4315e-14
5.90076e-14
6.29188e-14
6.58701e-14
6.77229e-14
6.83883e-14
6.7834e-14
6.60864e-14
6.32287e-14
5.93952e-14
5.47608e-14
4.95285e-14
4.39148e-14
3.81335e-14
3.23813e-14
2.68233e-14
2.1583e-14
1.67338e-14
1.22961e-14
8.23738e-15
4.47795e-15
3.17652e-17
3.27176e-19
3.27176e-19
4.72848e-17
6.68535e-15
1.23193e-14
1.84262e-14
2.51346e-14
3.2501e-14
4.05018e-14
4.90304e-14
5.79018e-14
6.68636e-14
7.56119e-14
8.38122e-14
9.1123e-14
9.72203e-14
1.01822e-13
1.04708e-13
1.05738e-13
1.04861e-13
1.0212e-13
9.76469e-14
9.16563e-14
8.44252e-14
7.62747e-14
6.75458e-14
5.85743e-14
4.96668e-14
4.10804e-14
3.30049e-14
2.55522e-14
1.87506e-14
1.25467e-14
6.81389e-15
4.82294e-17
3.27176e-19
3.27176e-19
6.31095e-17
8.9312e-15
1.64616e-14
2.46283e-14
3.36045e-14
4.34675e-14
5.4186e-14
6.56175e-14
7.7514e-14
8.95364e-14
1.01276e-13
1.12283e-13
1.22097e-13
1.30282e-13
1.36458e-13
1.40328e-13
1.41704e-13
1.40516e-13
1.36824e-13
1.30806e-13
1.22752e-13
1.13036e-13
1.0209e-13
9.03737e-14
7.8339e-14
6.63979e-14
5.48947e-14
4.4084e-14
3.41146e-14
2.50236e-14
1.67381e-14
9.08701e-15
6.42534e-17
3.27176e-19
3.27176e-19
7.73256e-17
1.0948e-14
2.01799e-14
3.01927e-14
4.11993e-14
5.32945e-14
6.64405e-14
8.04622e-14
9.50552e-14
1.09803e-13
1.24205e-13
1.37707e-13
1.49745e-13
1.59784e-13
1.67357e-13
1.72099e-13
1.7378e-13
1.72315e-13
1.67777e-13
1.60386e-13
1.50497e-13
1.38571e-13
1.25139e-13
1.10765e-13
9.60021e-14
8.13575e-14
6.72532e-14
5.40008e-14
4.17829e-14
3.06442e-14
2.04951e-14
1.11252e-14
7.86267e-17
3.27176e-19
3.43909e-19
8.93241e-17
1.26474e-14
2.33121e-14
3.48788e-14
4.75936e-14
6.15661e-14
7.67523e-14
9.29501e-14
1.09808e-13
1.26844e-13
1.43479e-13
1.59074e-13
1.72978e-13
1.84571e-13
1.93314e-13
1.98787e-13
2.00722e-13
1.99023e-13
1.93775e-13
1.85231e-13
1.73804e-13
1.60023e-13
1.44505e-13
1.27899e-13
1.10847e-13
9.39326e-14
7.76437e-14
6.23402e-14
4.82326e-14
3.53725e-14
2.36561e-14
1.28405e-14
9.07435e-17
3.49463e-19
3.80608e-19
9.88602e-17
1.39979e-14
2.58011e-14
3.86023e-14
5.26739e-14
6.81371e-14
8.49431e-14
1.02868e-13
1.21523e-13
1.40375e-13
1.58782e-13
1.76038e-13
1.91421e-13
2.04246e-13
2.13917e-13
2.19968e-13
2.22105e-13
2.2022e-13
2.14407e-13
2.04949e-13
1.92299e-13
1.77047e-13
1.59873e-13
1.41497e-13
1.22628e-13
1.03913e-13
8.58904e-14
6.89591e-14
5.33519e-14
3.91255e-14
2.61653e-14
1.4202e-14
1.0036e-16
3.86479e-19
4.08132e-19
1.06014e-16
1.50112e-14
2.76687e-14
4.13961e-14
5.64855e-14
7.30669e-14
9.1088e-14
1.10309e-13
1.30311e-13
1.50524e-13
1.70261e-13
1.88762e-13
2.05253e-13
2.19002e-13
2.29368e-13
2.35852e-13
2.38139e-13
2.36114e-13
2.29877e-13
2.19733e-13
2.06167e-13
1.89811e-13
1.71395e-13
1.51692e-13
1.3146e-13
1.11394e-13
9.20721e-14
7.39206e-14
5.71891e-14
4.19386e-14
2.80459e-14
1.52224e-14
1.07566e-16
4.14205e-19
4.27621e-19
1.11082e-16
1.57292e-14
2.8992e-14
4.33756e-14
5.91862e-14
7.65599e-14
9.54418e-14
1.1558e-13
1.36538e-13
1.57716e-13
1.78393e-13
1.97776e-13
2.15053e-13
2.29456e-13
2.40313e-13
2.47105e-13
2.49497e-13
2.47373e-13
2.40835e-13
2.30204e-13
2.15988e-13
1.9885e-13
1.79554e-13
1.5891e-13
1.37714e-13
1.16691e-13
9.64486e-14
7.74329e-14
5.99054e-14
4.39298e-14
2.9377e-14
1.59446e-14
1.12664e-16
4.33815e-19
4.40658e-19
1.14474e-16
1.62099e-14
2.98779e-14
4.47009e-14
6.09942e-14
7.88982e-14
9.83565e-14
1.1911e-13
1.40706e-13
1.6253e-13
1.83837e-13
2.0381e-13
2.21613e-13
2.36453e-13
2.4764e-13
2.54636e-13
2.571e-13
2.54908e-13
2.48169e-13
2.37211e-13
2.2256e-13
2.04899e-13
1.85014e-13
1.6374e-13
1.41898e-13
1.20235e-13
9.93761e-14
7.97822e-14
6.17221e-14
4.52614e-14
3.02671e-14
1.64275e-14
1.16072e-16
4.46916e-19
4.48904e-19
1.1662e-16
1.65142e-14
3.04387e-14
4.55398e-14
6.21388e-14
8.03787e-14
1.00202e-13
1.21344e-13
1.43345e-13
1.65578e-13
1.87284e-13
2.07631e-13
2.25766e-13
2.40883e-13
2.52278e-13
2.59404e-13
2.61912e-13
2.59678e-13
2.52811e-13
2.41646e-13
2.2672e-13
2.08726e-13
1.88468e-13
1.66796e-13
1.44545e-13
1.22477e-13
1.01228e-13
8.12682e-14
6.28711e-14
4.61036e-14
3.083e-14
1.67329e-14
1.18226e-16
4.55192e-19
4.53843e-19
1.17906e-16
1.66966e-14
3.07749e-14
4.60428e-14
6.2825e-14
8.12662e-14
1.01308e-13
1.22683e-13
1.44928e-13
1.67405e-13
1.8935e-13
2.09921e-13
2.28256e-13
2.43539e-13
2.55059e-13
2.62263e-13
2.64797e-13
2.62537e-13
2.55593e-13
2.44305e-13
2.29213e-13
2.11021e-13
1.90539e-13
1.68627e-13
1.46131e-13
1.2382e-13
1.02338e-13
8.21584e-14
6.35594e-14
4.6608e-14
3.11671e-14
1.69157e-14
1.19516e-16
4.60143e-19
4.56648e-19
1.18637e-16
1.68003e-14
3.09661e-14
4.63288e-14
6.32152e-14
8.17709e-14
1.01937e-13
1.23445e-13
1.45827e-13
1.68444e-13
1.90526e-13
2.11224e-13
2.29672e-13
2.4505e-13
2.5664e-13
2.63888e-13
2.66438e-13
2.64163e-13
2.57175e-13
2.45816e-13
2.3063e-13
2.12325e-13
1.91716e-13
1.69668e-13
1.47032e-13
1.24583e-13
1.02968e-13
8.26642e-14
6.39504e-14
4.68946e-14
3.13586e-14
1.70196e-14
1.20248e-16
4.62952e-19
4.58161e-19
1.19032e-16
1.68563e-14
3.10694e-14
4.64833e-14
6.34261e-14
8.20436e-14
1.02277e-13
1.23857e-13
1.46314e-13
1.69006e-13
1.91161e-13
2.11928e-13
2.30437e-13
2.45866e-13
2.57495e-13
2.64766e-13
2.67324e-13
2.65041e-13
2.5803e-13
2.46633e-13
2.31396e-13
2.13029e-13
1.92351e-13
1.7023e-13
1.47519e-13
1.24995e-13
1.03308e-13
8.29373e-14
6.41615e-14
4.70493e-14
3.1462e-14
1.70756e-14
1.20642e-16
4.64467e-19
4.58939e-19
1.19235e-16
1.68852e-14
3.11225e-14
4.65628e-14
6.35345e-14
8.21839e-14
1.02452e-13
1.24069e-13
1.46564e-13
1.69294e-13
1.91487e-13
2.1229e-13
2.30831e-13
2.46286e-13
2.57934e-13
2.65218e-13
2.6778e-13
2.65493e-13
2.5847e-13
2.47053e-13
2.3179e-13
2.13391e-13
1.92678e-13
1.70519e-13
1.47769e-13
1.25207e-13
1.03483e-13
8.30776e-14
6.427e-14
4.71287e-14
3.15151e-14
1.71044e-14
1.20845e-16
4.65244e-19
4.5932e-19
1.19334e-16
1.68993e-14
3.11486e-14
4.66018e-14
6.35877e-14
8.22527e-14
1.02538e-13
1.24172e-13
1.46686e-13
1.69436e-13
1.91647e-13
2.12467e-13
2.31024e-13
2.46492e-13
2.5815e-13
2.6544e-13
2.68004e-13
2.65715e-13
2.58685e-13
2.47259e-13
2.31983e-13
2.13569e-13
1.92839e-13
1.70661e-13
1.47892e-13
1.25311e-13
1.03569e-13
8.31464e-14
6.43232e-14
4.71677e-14
3.15411e-14
1.71185e-14
1.20945e-16
4.65624e-19
4.59498e-19
1.19381e-16
1.69059e-14
3.11608e-14
4.662e-14
6.36126e-14
8.22849e-14
1.02578e-13
1.24221e-13
1.46744e-13
1.69503e-13
1.91723e-13
2.1255e-13
2.31115e-13
2.46588e-13
2.58251e-13
2.65543e-13
2.68108e-13
2.65819e-13
2.58786e-13
2.47355e-13
2.32073e-13
2.13652e-13
1.92914e-13
1.70727e-13
1.47949e-13
1.2536e-13
1.03609e-13
8.31787e-14
6.43481e-14
4.71859e-14
3.15533e-14
1.71251e-14
1.20991e-16
4.65802e-19
4.59577e-19
1.19402e-16
1.69089e-14
3.11662e-14
4.66282e-14
6.36238e-14
8.22994e-14
1.02596e-13
1.24243e-13
1.4677e-13
1.69532e-13
1.91756e-13
2.12588e-13
2.31155e-13
2.46631e-13
2.58296e-13
2.6559e-13
2.68155e-13
2.65865e-13
2.58832e-13
2.47399e-13
2.32114e-13
2.1369e-13
1.92947e-13
1.70757e-13
1.47975e-13
1.25381e-13
1.03627e-13
8.31931e-14
6.43592e-14
4.71941e-14
3.15587e-14
1.71281e-14
1.21012e-16
4.65881e-19
4.59612e-19
1.19411e-16
1.69102e-14
3.11686e-14
4.66317e-14
6.36286e-14
8.23056e-14
1.02604e-13
1.24252e-13
1.46781e-13
1.69545e-13
1.91771e-13
2.12604e-13
2.31173e-13
2.4665e-13
2.58316e-13
2.6561e-13
2.68176e-13
2.65885e-13
2.58851e-13
2.47417e-13
2.32131e-13
2.13706e-13
1.92962e-13
1.7077e-13
1.47986e-13
1.25391e-13
1.03635e-13
8.31993e-14
6.4364e-14
4.71976e-14
3.15611e-14
1.71294e-14
1.21021e-16
4.65915e-19
4.59626e-19
1.19414e-16
1.69107e-14
3.11695e-14
4.66332e-14
6.36306e-14
8.23081e-14
1.02607e-13
1.24256e-13
1.46785e-13
1.6955e-13
1.91777e-13
2.1261e-13
2.3118e-13
2.46658e-13
2.58324e-13
2.65618e-13
2.68184e-13
2.65893e-13
2.58859e-13
2.47425e-13
2.32139e-13
2.13712e-13
1.92968e-13
1.70775e-13
1.47991e-13
1.25395e-13
1.03638e-13
8.32019e-14
6.4366e-14
4.71991e-14
3.1562e-14
1.71299e-14
1.21024e-16
4.65929e-19
4.59631e-19
1.19416e-16
1.69109e-14
3.11699e-14
4.66338e-14
6.36313e-14
8.23092e-14
1.02608e-13
1.24258e-13
1.46787e-13
1.69553e-13
1.91779e-13
2.12613e-13
2.31183e-13
2.46661e-13
2.58327e-13
2.65622e-13
2.68187e-13
2.65897e-13
2.58862e-13
2.47428e-13
2.32141e-13
2.13715e-13
1.9297e-13
1.70777e-13
1.47993e-13
1.25396e-13
1.0364e-13
8.32029e-14
6.43668e-14
4.71996e-14
3.15624e-14
1.71301e-14
1.21026e-16
4.65935e-19
4.59634e-19
1.19416e-16
1.6911e-14
3.11701e-14
4.6634e-14
6.36316e-14
8.23096e-14
1.02609e-13
1.24258e-13
1.46788e-13
1.69553e-13
1.9178e-13
2.12614e-13
2.31184e-13
2.46662e-13
2.58328e-13
2.65623e-13
2.68189e-13
2.65898e-13
2.58864e-13
2.47429e-13
2.32143e-13
2.13716e-13
1.92971e-13
1.70778e-13
1.47993e-13
1.25397e-13
1.0364e-13
8.32033e-14
6.43671e-14
4.71999e-14
3.15626e-14
1.71302e-14
1.21026e-16
4.65937e-19
4.59634e-19
1.19416e-16
1.6911e-14
3.11701e-14
4.66341e-14
6.36318e-14
8.23097e-14
1.02609e-13
1.24259e-13
1.46788e-13
1.69554e-13
1.9178e-13
2.12614e-13
2.31184e-13
2.46662e-13
2.58329e-13
2.65623e-13
2.68189e-13
2.65898e-13
2.58864e-13
2.47429e-13
2.32143e-13
2.13716e-13
1.92971e-13
1.70779e-13
1.47994e-13
1.25397e-13
1.0364e-13
8.32034e-14
6.43672e-14
4.71999e-14
3.15626e-14
1.71302e-14
1.21027e-16
4.65938e-19
4.59635e-19
1.19417e-16
1.6911e-14
3.11702e-14
4.66341e-14
6.36318e-14
8.23097e-14
1.02609e-13
1.24259e-13
1.46788e-13
1.69554e-13
1.9178e-13
2.12615e-13
2.31184e-13
2.46663e-13
2.58329e-13
2.65624e-13
2.68189e-13
2.65899e-13
2.58864e-13
2.4743e-13
2.32143e-13
2.13716e-13
1.92971e-13
1.70779e-13
1.47994e-13
1.25397e-13
1.0364e-13
8.32034e-14
6.43672e-14
4.72e-14
3.15627e-14
1.71302e-14
1.21027e-16
4.65938e-19
4.59635e-19
1.19417e-16
1.6911e-14
3.11702e-14
4.66341e-14
6.36318e-14
8.23098e-14
1.02609e-13
1.24259e-13
1.46788e-13
1.69554e-13
1.9178e-13
2.12615e-13
2.31184e-13
2.46663e-13
2.58329e-13
2.65624e-13
2.68189e-13
2.65899e-13
2.58864e-13
2.4743e-13
2.32143e-13
2.13717e-13
1.92972e-13
1.70779e-13
1.47994e-13
1.25397e-13
1.0364e-13
8.32035e-14
6.43672e-14
4.72e-14
3.15627e-14
1.71302e-14
1.21027e-16
4.65938e-19
4.59635e-19
1.19417e-16
1.6911e-14
3.11702e-14
4.66341e-14
6.36318e-14
8.23098e-14
1.02609e-13
1.24259e-13
1.46788e-13
1.69554e-13
1.9178e-13
2.12615e-13
2.31184e-13
2.46663e-13
2.58329e-13
2.65624e-13
2.68189e-13
2.65899e-13
2.58864e-13
2.4743e-13
2.32143e-13
2.13717e-13
1.92972e-13
1.70779e-13
1.47994e-13
1.25397e-13
1.0364e-13
8.32035e-14
6.43672e-14
4.72e-14
3.15627e-14
1.71302e-14
1.21027e-16
4.65938e-19
4.59635e-19
1.19417e-16
1.6911e-14
3.11702e-14
4.66341e-14
6.36318e-14
8.23098e-14
1.02609e-13
1.24259e-13
1.46788e-13
1.69554e-13
1.9178e-13
2.12615e-13
2.31184e-13
2.46663e-13
2.58329e-13
2.65624e-13
2.68189e-13
2.65899e-13
2.58864e-13
2.4743e-13
2.32143e-13
2.13717e-13
1.92972e-13
1.70779e-13
1.47994e-13
1.25397e-13
1.0364e-13
8.32035e-14
6.43672e-14
4.72e-14
3.15627e-14
1.71302e-14
1.21027e-16
4.65938e-19
4.59635e-19
1.19417e-16
1.6911e-14
3.11702e-14
4.66341e-14
6.36318e-14
8.23098e-14
1.02609e-13
1.24259e-13
1.46788e-13
1.69554e-13
1.9178e-13
2.12615e-13
2.31184e-13
2.46663e-13
2.58329e-13
2.65624e-13
2.68189e-13
2.65899e-13
2.58864e-13
2.4743e-13
2.32143e-13
2.13717e-13
1.92972e-13
1.70779e-13
1.47994e-13
1.25397e-13
1.0364e-13
8.32035e-14
6.43672e-14
4.72e-14
3.15627e-14
1.71302e-14
1.21027e-16
4.65938e-19
4.59635e-19
1.19417e-16
1.6911e-14
3.11702e-14
4.66341e-14
6.36318e-14
8.23098e-14
1.02609e-13
1.24259e-13
1.46788e-13
1.69554e-13
1.9178e-13
2.12615e-13
2.31184e-13
2.46663e-13
2.58329e-13
2.65624e-13
2.68189e-13
2.65899e-13
2.58864e-13
2.4743e-13
2.32143e-13
2.13717e-13
1.92972e-13
1.70779e-13
1.47994e-13
1.25397e-13
1.0364e-13
8.32035e-14
6.43672e-14
4.72e-14
3.15627e-14
1.71302e-14
1.21027e-16
4.65938e-19
4.59635e-19
1.19417e-16
1.6911e-14
3.11702e-14
4.66341e-14
6.36318e-14
8.23098e-14
1.02609e-13
1.24259e-13
1.46788e-13
1.69554e-13
1.9178e-13
2.12615e-13
2.31184e-13
2.46663e-13
2.58329e-13
2.65624e-13
2.68189e-13
2.65899e-13
2.58864e-13
2.4743e-13
2.32143e-13
2.13717e-13
1.92972e-13
1.70779e-13
1.47994e-13
1.25397e-13
1.0364e-13
8.32035e-14
6.43672e-14
4.72e-14
3.15627e-14
1.71302e-14
1.21027e-16
4.65938e-19
4.59635e-19
1.19417e-16
1.6911e-14
3.11702e-14
4.66341e-14
6.36318e-14
8.23098e-14
1.02609e-13
1.24259e-13
1.46788e-13
1.69554e-13
1.9178e-13
2.12615e-13
2.31184e-13
2.46663e-13
2.58329e-13
2.65624e-13
2.68189e-13
2.65899e-13
2.58864e-13
2.4743e-13
2.32143e-13
2.13717e-13
1.92972e-13
1.70779e-13
1.47994e-13
1.25397e-13
1.0364e-13
8.32035e-14
6.43672e-14
4.72e-14
3.15627e-14
1.71302e-14
1.21027e-16
4.65938e-19
4.59635e-19
1.19417e-16
1.6911e-14
3.11702e-14
4.66341e-14
6.36318e-14
8.23098e-14
1.02609e-13
1.24259e-13
1.46788e-13
1.69554e-13
1.9178e-13
2.12615e-13
2.31184e-13
2.46663e-13
2.58329e-13
2.65624e-13
2.68189e-13
2.65899e-13
2.58864e-13
2.4743e-13
2.32143e-13
2.13717e-13
1.92972e-13
1.70779e-13
1.47994e-13
1.25397e-13
1.0364e-13
8.32035e-14
6.43672e-14
4.72e-14
3.15627e-14
1.71302e-14
1.21027e-16
4.65938e-19
4.59635e-19
1.19417e-16
1.6911e-14
3.11702e-14
4.66341e-14
6.36318e-14
8.23098e-14
1.02609e-13
1.24259e-13
1.46788e-13
1.69554e-13
1.9178e-13
2.12615e-13
2.31184e-13
2.46663e-13
2.58329e-13
2.65624e-13
2.68189e-13
2.65899e-13
2.58864e-13
2.4743e-13
2.32143e-13
2.13717e-13
1.92972e-13
1.70779e-13
1.47994e-13
1.25397e-13
1.0364e-13
8.32035e-14
6.43672e-14
4.72e-14
3.15627e-14
1.71302e-14
1.21027e-16
4.65938e-19
4.59635e-19
1.19417e-16
1.6911e-14
3.11702e-14
4.66341e-14
6.36318e-14
8.23098e-14
1.02609e-13
1.24259e-13
1.46788e-13
1.69554e-13
1.9178e-13
2.12615e-13
2.31184e-13
2.46663e-13
2.58329e-13
2.65624e-13
2.68189e-13
2.65899e-13
2.58864e-13
2.4743e-13
2.32143e-13
2.13717e-13
1.92972e-13
1.70779e-13
1.47994e-13
1.25397e-13
1.0364e-13
8.32035e-14
6.43672e-14
4.72e-14
3.15627e-14
1.71302e-14
1.21027e-16
4.65938e-19
4.59635e-19
1.19417e-16
1.6911e-14
3.11702e-14
4.66341e-14
6.36318e-14
8.23098e-14
1.02609e-13
1.24259e-13
1.46788e-13
1.69554e-13
1.9178e-13
2.12615e-13
2.31184e-13
2.46663e-13
2.58329e-13
2.65624e-13
2.68189e-13
2.65899e-13
2.58864e-13
2.4743e-13
2.32143e-13
2.13717e-13
1.92972e-13
1.70779e-13
1.47994e-13
1.25397e-13
1.0364e-13
8.32035e-14
6.43672e-14
4.72e-14
3.15627e-14
1.71302e-14
1.21027e-16
4.65938e-19
4.59635e-19
1.19417e-16
1.6911e-14
3.11702e-14
4.66341e-14
6.36318e-14
8.23098e-14
1.02609e-13
1.24259e-13
1.46788e-13
1.69554e-13
1.9178e-13
2.12615e-13
2.31184e-13
2.46663e-13
2.58329e-13
2.65624e-13
2.68189e-13
2.65899e-13
2.58864e-13
2.4743e-13
2.32143e-13
2.13717e-13
1.92972e-13
1.70779e-13
1.47994e-13
1.25397e-13
1.0364e-13
8.32035e-14
6.43672e-14
4.72e-14
3.15627e-14
1.71302e-14
1.21027e-16
4.65938e-19
4.59635e-19
1.19417e-16
1.6911e-14
3.11702e-14
4.66341e-14
6.36318e-14
8.23098e-14
1.02609e-13
1.24259e-13
1.46788e-13
1.69554e-13
1.9178e-13
2.12615e-13
2.31184e-13
2.46663e-13
2.58329e-13
2.65624e-13
2.68189e-13
2.65899e-13
2.58864e-13
2.4743e-13
2.32143e-13
2.13717e-13
1.92972e-13
1.70779e-13
1.47994e-13
1.25397e-13
1.0364e-13
8.32035e-14
6.43672e-14
4.72e-14
3.15627e-14
1.71302e-14
1.21027e-16
4.65938e-19
4.59635e-19
1.19417e-16
1.6911e-14
3.11702e-14
4.66341e-14
6.36318e-14
8.23098e-14
1.02609e-13
1.24259e-13
1.46788e-13
1.69554e-13
1.9178e-13
2.12615e-13
2.31184e-13
2.46663e-13
2.58329e-13
2.65624e-13
2.68189e-13
2.65899e-13
2.58864e-13
2.4743e-13
2.32143e-13
2.13717e-13
1.92972e-13
1.70779e-13
1.47994e-13
1.25397e-13
1.0364e-13
8.32035e-14
6.43672e-14
4.72e-14
3.15627e-14
1.71302e-14
1.21027e-16
4.65938e-19
4.59635e-19
1.19417e-16
1.6911e-14
3.11702e-14
4.66341e-14
6.36318e-14
8.23098e-14
1.02609e-13
1.24259e-13
1.46788e-13
1.69554e-13
1.9178e-13
2.12615e-13
2.31184e-13
2.46663e-13
2.58329e-13
2.65624e-13
2.68189e-13
2.65899e-13
2.58864e-13
2.4743e-13
2.32143e-13
2.13717e-13
1.92972e-13
1.70779e-13
1.47994e-13
1.25397e-13
1.0364e-13
8.32035e-14
6.43672e-14
4.72e-14
3.15627e-14
1.71302e-14
1.21027e-16
4.65938e-19
4.59635e-19
1.19417e-16
1.6911e-14
3.11702e-14
4.66341e-14
6.36318e-14
8.23098e-14
1.02609e-13
1.24259e-13
1.46788e-13
1.69554e-13
1.9178e-13
2.12615e-13
2.31184e-13
2.46663e-13
2.58329e-13
2.65624e-13
2.68189e-13
2.65899e-13
2.58864e-13
2.4743e-13
2.32143e-13
2.13717e-13
1.92972e-13
1.70779e-13
1.47994e-13
1.25397e-13
1.0364e-13
8.32035e-14
6.43672e-14
4.72e-14
3.15627e-14
1.71302e-14
1.21027e-16
4.65938e-19
4.59635e-19
1.19417e-16
1.6911e-14
3.11702e-14
4.66341e-14
6.36318e-14
8.23098e-14
1.02609e-13
1.24259e-13
1.46788e-13
1.69554e-13
1.9178e-13
2.12615e-13
2.31184e-13
2.46663e-13
2.58329e-13
2.65624e-13
2.68189e-13
2.65899e-13
2.58864e-13
2.4743e-13
2.32143e-13
2.13717e-13
1.92972e-13
1.70779e-13
1.47994e-13
1.25397e-13
1.0364e-13
8.32035e-14
6.43672e-14
4.72e-14
3.15627e-14
1.71302e-14
1.21027e-16
4.65938e-19
4.59635e-19
1.19417e-16
1.6911e-14
3.11702e-14
4.66341e-14
6.36318e-14
8.23098e-14
1.02609e-13
1.24259e-13
1.46788e-13
1.69554e-13
1.9178e-13
2.12615e-13
2.31184e-13
2.46663e-13
2.58329e-13
2.65624e-13
2.68189e-13
2.65899e-13
2.58864e-13
2.4743e-13
2.32143e-13
2.13717e-13
1.92972e-13
1.70779e-13
1.47994e-13
1.25397e-13
1.0364e-13
8.32035e-14
6.43672e-14
4.72e-14
3.15627e-14
1.71302e-14
1.21027e-16
4.65938e-19
4.59635e-19
1.19417e-16
1.6911e-14
3.11702e-14
4.66341e-14
6.36318e-14
8.23098e-14
1.02609e-13
1.24259e-13
1.46788e-13
1.69554e-13
1.9178e-13
2.12615e-13
2.31184e-13
2.46663e-13
2.58329e-13
2.65624e-13
2.68189e-13
2.65899e-13
2.58864e-13
2.4743e-13
2.32143e-13
2.13717e-13
1.92972e-13
1.70779e-13
1.47994e-13
1.25397e-13
1.0364e-13
8.32035e-14
6.43672e-14
4.72e-14
3.15627e-14
1.71302e-14
1.21027e-16
4.65938e-19
4.59635e-19
1.19417e-16
1.6911e-14
3.11702e-14
4.66341e-14
6.36318e-14
8.23098e-14
1.02609e-13
1.24259e-13
1.46788e-13
1.69554e-13
1.9178e-13
2.12615e-13
2.31184e-13
2.46663e-13
2.58329e-13
2.65624e-13
2.68189e-13
2.65899e-13
2.58864e-13
2.4743e-13
2.32143e-13
2.13717e-13
1.92972e-13
1.70779e-13
1.47994e-13
1.25397e-13
1.0364e-13
8.32035e-14
6.43672e-14
4.72e-14
3.15627e-14
1.71302e-14
1.21027e-16
4.65938e-19
4.59635e-19
1.19417e-16
1.6911e-14
3.11702e-14
4.66341e-14
6.36318e-14
8.23098e-14
1.02609e-13
1.24259e-13
1.46788e-13
1.69554e-13
1.9178e-13
2.12615e-13
2.31184e-13
2.46663e-13
2.58329e-13
2.65624e-13
2.68189e-13
2.65899e-13
2.58864e-13
2.4743e-13
2.32143e-13
2.13717e-13
1.92972e-13
1.70779e-13
1.47994e-13
1.25397e-13
1.0364e-13
8.32035e-14
6.43672e-14
4.72e-14
3.15627e-14
1.71302e-14
1.21027e-16
4.65938e-19
4.59635e-19
1.19417e-16
1.6911e-14
3.11702e-14
4.66341e-14
6.36318e-14
8.23098e-14
1.02609e-13
1.24259e-13
1.46788e-13
1.69554e-13
1.9178e-13
2.12615e-13
2.31184e-13
2.46663e-13
2.58329e-13
2.65624e-13
2.68189e-13
2.65899e-13
2.58864e-13
2.4743e-13
2.32143e-13
2.13717e-13
1.92972e-13
1.70779e-13
1.47994e-13
1.25397e-13
1.0364e-13
8.32035e-14
6.43672e-14
4.72e-14
3.15627e-14
1.71302e-14
1.21027e-16
4.65938e-19
4.59635e-19
1.19417e-16
1.6911e-14
3.11702e-14
4.66341e-14
6.36318e-14
8.23098e-14
1.02609e-13
1.24259e-13
1.46788e-13
1.69554e-13
1.9178e-13
2.12615e-13
2.31184e-13
2.46663e-13
2.58329e-13
2.65624e-13
2.68189e-13
2.65899e-13
2.58864e-13
2.4743e-13
2.32143e-13
2.13717e-13
1.92972e-13
1.70779e-13
1.47994e-13
1.25397e-13
1.0364e-13
8.32035e-14
6.43672e-14
4.72e-14
3.15627e-14
1.71302e-14
1.21027e-16
4.65938e-19
4.59635e-19
1.19417e-16
1.6911e-14
3.11702e-14
4.66341e-14
6.36318e-14
8.23098e-14
1.02609e-13
1.24259e-13
1.46788e-13
1.69554e-13
1.9178e-13
2.12615e-13
2.31184e-13
2.46663e-13
2.58329e-13
2.65624e-13
2.68189e-13
2.65899e-13
2.58864e-13
2.4743e-13
2.32143e-13
2.13717e-13
1.92972e-13
1.70779e-13
1.47994e-13
1.25397e-13
1.0364e-13
8.32035e-14
6.43672e-14
4.72e-14
3.15627e-14
1.71302e-14
1.21027e-16
4.65938e-19
4.59635e-19
1.19417e-16
1.6911e-14
3.11702e-14
4.66341e-14
6.36318e-14
8.23098e-14
1.02609e-13
1.24259e-13
1.46788e-13
1.69554e-13
1.9178e-13
2.12615e-13
2.31184e-13
2.46663e-13
2.58329e-13
2.65624e-13
2.68189e-13
2.65899e-13
2.58864e-13
2.4743e-13
2.32143e-13
2.13717e-13
1.92972e-13
1.70779e-13
1.47994e-13
1.25397e-13
1.0364e-13
8.32035e-14
6.43672e-14
4.72e-14
3.15627e-14
1.71302e-14
1.21027e-16
4.65938e-19
4.59635e-19
1.19417e-16
1.6911e-14
3.11702e-14
4.66341e-14
6.36318e-14
8.23098e-14
1.02609e-13
1.24259e-13
1.46788e-13
1.69554e-13
1.9178e-13
2.12615e-13
2.31184e-13
2.46663e-13
2.58329e-13
2.65624e-13
2.68189e-13
2.65899e-13
2.58864e-13
2.4743e-13
2.32143e-13
2.13717e-13
1.92972e-13
1.70779e-13
1.47994e-13
1.25397e-13
1.0364e-13
8.32035e-14
6.43672e-14
4.72e-14
3.15627e-14
1.71302e-14
1.21027e-16
4.65938e-19
4.59635e-19
1.19417e-16
1.6911e-14
3.11702e-14
4.66341e-14
6.36318e-14
8.23098e-14
1.02609e-13
1.24259e-13
1.46788e-13
1.69554e-13
1.9178e-13
2.12615e-13
2.31184e-13
2.46663e-13
2.58329e-13
2.65624e-13
2.68189e-13
2.65899e-13
2.58864e-13
2.4743e-13
2.32143e-13
2.13717e-13
1.92972e-13
1.70779e-13
1.47994e-13
1.25397e-13
1.0364e-13
8.32035e-14
6.43672e-14
4.72e-14
3.15627e-14
1.71302e-14
1.21027e-16
4.65938e-19
4.59635e-19
1.19417e-16
1.6911e-14
3.11702e-14
4.66341e-14
6.36318e-14
8.23098e-14
1.02609e-13
1.24259e-13
1.46788e-13
1.69554e-13
1.9178e-13
2.12615e-13
2.31184e-13
2.46663e-13
2.58329e-13
2.65624e-13
2.68189e-13
2.65899e-13
2.58864e-13
2.4743e-13
2.32143e-13
2.13717e-13
1.92972e-13
1.70779e-13
1.47994e-13
1.25397e-13
1.0364e-13
8.32035e-14
6.43672e-14
4.72e-14
3.15627e-14
1.71302e-14
1.21027e-16
4.65938e-19
4.59635e-19
1.19417e-16
1.6911e-14
3.11702e-14
4.66341e-14
6.36318e-14
8.23098e-14
1.02609e-13
1.24259e-13
1.46788e-13
1.69554e-13
1.9178e-13
2.12615e-13
2.31184e-13
2.46663e-13
2.58329e-13
2.65624e-13
2.68189e-13
2.65899e-13
2.58864e-13
2.4743e-13
2.32143e-13
2.13717e-13
1.92972e-13
1.70779e-13
1.47994e-13
1.25397e-13
1.0364e-13
8.32035e-14
6.43672e-14
4.72e-14
3.15627e-14
1.71302e-14
1.21027e-16
4.65938e-19
4.59635e-19
1.19417e-16
1.6911e-14
3.11702e-14
4.66341e-14
6.36318e-14
8.23098e-14
1.02609e-13
1.24259e-13
1.46788e-13
1.69554e-13
1.9178e-13
2.12615e-13
2.31184e-13
2.46663e-13
2.58329e-13
2.65624e-13
2.68189e-13
2.65899e-13
2.58864e-13
2.4743e-13
2.32143e-13
2.13717e-13
1.92972e-13
1.70779e-13
1.47994e-13
1.25397e-13
1.0364e-13
8.32035e-14
6.43672e-14
4.72e-14
3.15627e-14
1.71302e-14
1.21027e-16
4.65938e-19
4.59635e-19
1.19417e-16
1.6911e-14
3.11702e-14
4.66341e-14
6.36318e-14
8.23098e-14
1.02609e-13
1.24259e-13
1.46788e-13
1.69554e-13
1.9178e-13
2.12615e-13
2.31184e-13
2.46663e-13
2.58329e-13
2.65624e-13
2.68189e-13
2.65899e-13
2.58864e-13
2.4743e-13
2.32143e-13
2.13717e-13
1.92972e-13
1.70779e-13
1.47994e-13
1.25397e-13
1.0364e-13
8.32035e-14
6.43672e-14
4.72e-14
3.15627e-14
1.71302e-14
1.21027e-16
4.65938e-19
4.59635e-19
1.19417e-16
1.6911e-14
3.11702e-14
4.66341e-14
6.36318e-14
8.23098e-14
1.02609e-13
1.24259e-13
1.46788e-13
1.69554e-13
1.9178e-13
2.12615e-13
2.31184e-13
2.46663e-13
2.58329e-13
2.65624e-13
2.68189e-13
2.65899e-13
2.58864e-13
2.4743e-13
2.32143e-13
2.13717e-13
1.92972e-13
1.70779e-13
1.47994e-13
1.25397e-13
1.0364e-13
8.32035e-14
6.43672e-14
4.72e-14
3.15627e-14
1.71302e-14
1.21027e-16
4.65938e-19
4.59635e-19
1.19417e-16
1.6911e-14
3.11702e-14
4.66341e-14
6.36318e-14
8.23098e-14
1.02609e-13
1.24259e-13
1.46788e-13
1.69554e-13
1.9178e-13
2.12615e-13
2.31184e-13
2.46663e-13
2.58329e-13
2.65624e-13
2.68189e-13
2.65899e-13
2.58864e-13
2.4743e-13
2.32143e-13
2.13717e-13
1.92972e-13
1.70779e-13
1.47994e-13
1.25397e-13
1.0364e-13
8.32035e-14
6.43672e-14
4.72e-14
3.15627e-14
1.71302e-14
1.21027e-16
4.65938e-19
4.59635e-19
1.19417e-16
1.6911e-14
3.11702e-14
4.66341e-14
6.36318e-14
8.23098e-14
1.02609e-13
1.24259e-13
1.46788e-13
1.69554e-13
1.9178e-13
2.12615e-13
2.31184e-13
2.46663e-13
2.58329e-13
2.65624e-13
2.68189e-13
2.65899e-13
2.58864e-13
2.4743e-13
2.32143e-13
2.13717e-13
1.92972e-13
1.70779e-13
1.47994e-13
1.25397e-13
1.0364e-13
8.32035e-14
6.43672e-14
4.72e-14
3.15627e-14
1.71302e-14
1.21027e-16
4.65938e-19
4.59635e-19
1.19417e-16
1.6911e-14
3.11702e-14
4.66341e-14
6.36318e-14
8.23098e-14
1.02609e-13
1.24259e-13
1.46788e-13
1.69554e-13
1.9178e-13
2.12615e-13
2.31184e-13
2.46663e-13
2.58329e-13
2.65624e-13
2.68189e-13
2.65899e-13
2.58864e-13
2.4743e-13
2.32143e-13
2.13717e-13
1.92972e-13
1.70779e-13
1.47994e-13
1.25397e-13
1.0364e-13
8.32035e-14
6.43672e-14
4.72e-14
3.15627e-14
1.71302e-14
1.21027e-16
4.65938e-19
4.59635e-19
1.19417e-16
1.6911e-14
3.11702e-14
4.66341e-14
6.36318e-14
8.23098e-14
1.02609e-13
1.24259e-13
1.46788e-13
1.69554e-13
1.9178e-13
2.12615e-13
2.31184e-13
2.46663e-13
2.58329e-13
2.65624e-13
2.68189e-13
2.65899e-13
2.58864e-13
2.4743e-13
2.32143e-13
2.13717e-13
1.92972e-13
1.70779e-13
1.47994e-13
1.25397e-13
1.0364e-13
8.32035e-14
6.43672e-14
4.72e-14
3.15627e-14
1.71302e-14
1.21027e-16
4.65938e-19
4.59635e-19
1.19417e-16
1.6911e-14
3.11702e-14
4.66341e-14
6.36318e-14
8.23098e-14
1.02609e-13
1.24259e-13
1.46788e-13
1.69554e-13
1.9178e-13
2.12615e-13
2.31184e-13
2.46663e-13
2.58329e-13
2.65624e-13
2.68189e-13
2.65899e-13
2.58864e-13
2.4743e-13
2.32143e-13
2.13717e-13
1.92972e-13
1.70779e-13
1.47994e-13
1.25397e-13
1.0364e-13
8.32035e-14
6.43672e-14
4.72e-14
3.15627e-14
1.71302e-14
1.21027e-16
4.65938e-19
4.59635e-19
1.19417e-16
1.6911e-14
3.11702e-14
4.66341e-14
6.36318e-14
8.23098e-14
1.02609e-13
1.24259e-13
1.46788e-13
1.69554e-13
1.9178e-13
2.12615e-13
2.31184e-13
2.46663e-13
2.58329e-13
2.65624e-13
2.68189e-13
2.65899e-13
2.58864e-13
2.4743e-13
2.32143e-13
2.13717e-13
1.92972e-13
1.70779e-13
1.47994e-13
1.25397e-13
1.0364e-13
8.32035e-14
6.43672e-14
4.72e-14
3.15627e-14
1.71302e-14
1.21027e-16
4.65938e-19
4.59635e-19
1.19417e-16
1.6911e-14
3.11702e-14
4.66341e-14
6.36318e-14
8.23098e-14
1.02609e-13
1.24259e-13
1.46788e-13
1.69554e-13
1.9178e-13
2.12615e-13
2.31184e-13
2.46663e-13
2.58329e-13
2.65624e-13
2.68189e-13
2.65899e-13
2.58864e-13
2.4743e-13
2.32143e-13
2.13717e-13
1.92972e-13
1.70779e-13
1.47994e-13
1.25397e-13
1.0364e-13
8.32035e-14
6.43672e-14
4.72e-14
3.15627e-14
1.71302e-14
1.21027e-16
4.65938e-19
4.59635e-19
1.19417e-16
1.6911e-14
3.11702e-14
4.66341e-14
6.36318e-14
8.23098e-14
1.02609e-13
1.24259e-13
1.46788e-13
1.69554e-13
1.9178e-13
2.12615e-13
2.31184e-13
2.46663e-13
2.58329e-13
2.65624e-13
2.68189e-13
2.65899e-13
2.58864e-13
2.4743e-13
2.32143e-13
2.13717e-13
1.92972e-13
1.70779e-13
1.47994e-13
1.25397e-13
1.0364e-13
8.32035e-14
6.43672e-14
4.72e-14
3.15627e-14
1.71302e-14
1.21027e-16
4.65938e-19
4.59635e-19
1.19417e-16
1.6911e-14
3.11702e-14
4.66341e-14
6.36318e-14
8.23098e-14
1.02609e-13
1.24259e-13
1.46788e-13
1.69554e-13
1.9178e-13
2.12615e-13
2.31184e-13
2.46663e-13
2.58329e-13
2.65624e-13
2.68189e-13
2.65899e-13
2.58864e-13
2.4743e-13
2.32143e-13
2.13717e-13
1.92972e-13
1.70779e-13
1.47994e-13
1.25397e-13
1.0364e-13
8.32035e-14
6.43672e-14
4.72e-14
3.15627e-14
1.71302e-14
1.21027e-16
4.65938e-19
4.59635e-19
1.19417e-16
1.6911e-14
3.11702e-14
4.66341e-14
6.36318e-14
8.23098e-14
1.02609e-13
1.24259e-13
1.46788e-13
1.69554e-13
1.9178e-13
2.12615e-13
2.31184e-13
2.46663e-13
2.58329e-13
2.65624e-13
2.68189e-13
2.65899e-13
2.58864e-13
2.4743e-13
2.32143e-13
2.13717e-13
1.92972e-13
1.70779e-13
1.47994e-13
1.25397e-13
1.0364e-13
8.32035e-14
6.43672e-14
4.72e-14
3.15627e-14
1.71302e-14
1.21027e-16
4.65938e-19
4.59635e-19
1.19417e-16
1.6911e-14
3.11702e-14
4.66341e-14
6.36318e-14
8.23098e-14
1.02609e-13
1.24259e-13
1.46788e-13
1.69554e-13
1.9178e-13
2.12615e-13
2.31184e-13
2.46663e-13
2.58329e-13
2.65624e-13
2.68189e-13
2.65899e-13
2.58864e-13
2.4743e-13
2.32143e-13
2.13717e-13
1.92972e-13
1.70779e-13
1.47994e-13
1.25397e-13
1.0364e-13
8.32035e-14
6.43672e-14
4.72e-14
3.15627e-14
1.71302e-14
1.21027e-16
4.65938e-19
4.59635e-19
1.19417e-16
1.6911e-14
3.11702e-14
4.66341e-14
6.36318e-14
8.23098e-14
1.02609e-13
1.24259e-13
1.46788e-13
1.69554e-13
1.9178e-13
2.12615e-13
2.31184e-13
2.46663e-13
2.58329e-13
2.65624e-13
2.68189e-13
2.65899e-13
2.58864e-13
2.4743e-13
2.32143e-13
2.13717e-13
1.92972e-13
1.70779e-13
1.47994e-13
1.25397e-13
1.0364e-13
8.32035e-14
6.43672e-14
4.72e-14
3.15627e-14
1.71302e-14
1.21027e-16
4.65938e-19
4.59635e-19
1.19417e-16
1.6911e-14
3.11702e-14
4.66341e-14
6.36318e-14
8.23098e-14
1.02609e-13
1.24259e-13
1.46788e-13
1.69554e-13
1.9178e-13
2.12615e-13
2.31184e-13
2.46663e-13
2.58329e-13
2.65624e-13
2.68189e-13
2.65899e-13
2.58864e-13
2.4743e-13
2.32143e-13
2.13717e-13
1.92972e-13
1.70779e-13
1.47994e-13
1.25397e-13
1.0364e-13
8.32035e-14