/*--------------------------------*- C++ -*----------------------------------*\
  =========                 |
  \\      /  F ield         | OpenFOAM: The Open Source CFD Toolbox
   \\    /   O peration     | Website:  https://openfoam.org
    \\  /    A nd           | Version:  13
     \\/     M anipulation  |
\*---------------------------------------------------------------------------*/
FoamFile
{
    format      ascii;
    class       volScalarField;
    location    "112.5";
    object      rhok;
}
// * * * * * * * * * * * * * * * * * * * * * * * * * * * * * * * * * * * * * //

dimensions      [];

internalField   nonuniform List<scalar> 
315000
(
0.444616
0.429386
0.414123
0.412662
0.411896
0.411132
0.41037
0.40961
0.408852
0.408096
0.407342
0.406591
0.405842
0.405096
0.404352
0.403612
0.402874
0.40214
0.401409
0.400682
0.399958
0.399239
0.398523
0.397811
0.397104
0.396402
0.395703
0.39501
0.394322
0.393638
0.39296
0.392286
0.391618
0.390956
0.390298
0.389646
0.389
0.388359
0.387724
0.387094
0.38647
0.385851
0.385238
0.38463
0.384027
0.383429
0.382837
0.38225
0.381668
0.38109
0.380517
0.379949
0.379385
0.378825
0.378269
0.377717
0.377168
0.376623
0.376081
0.375542
0.375006
0.374472
0.373941
0.373411
0.372883
0.372357
0.371832
0.371307
0.370784
0.370261
0.444616
0.429383
0.414119
0.412657
0.411891
0.411127
0.410365
0.409605
0.408847
0.408091
0.407337
0.406585
0.405836
0.40509
0.404347
0.403606
0.402869
0.402134
0.401403
0.400676
0.399952
0.399233
0.398517
0.397805
0.397098
0.396395
0.395697
0.395004
0.394315
0.393632
0.392953
0.39228
0.391612
0.390949
0.390292
0.38964
0.388994
0.388353
0.387718
0.387088
0.386464
0.385845
0.385232
0.384624
0.384021
0.383424
0.382832
0.382245
0.381663
0.381085
0.380512
0.379944
0.37938
0.378821
0.378265
0.377713
0.377165
0.37662
0.376078
0.37554
0.375004
0.37447
0.373939
0.373409
0.372882
0.372356
0.371831
0.371307
0.370784
0.370261
0.444616
0.429381
0.414114
0.412652
0.411886
0.411122
0.41036
0.409599
0.408841
0.408085
0.407331
0.40658
0.405831
0.405084
0.404341
0.4036
0.402863
0.402128
0.401398
0.40067
0.399947
0.399227
0.398511
0.3978
0.397092
0.39639
0.395691
0.394998
0.39431
0.393626
0.392948
0.392274
0.391606
0.390944
0.390286
0.389635
0.388988
0.388348
0.387713
0.387083
0.386459
0.38584
0.385227
0.384619
0.384017
0.383419
0.382827
0.38224
0.381658
0.381081
0.380509
0.379941
0.379377
0.378817
0.378262
0.37771
0.377162
0.376617
0.376076
0.375537
0.375002
0.374468
0.373937
0.373408
0.372881
0.372355
0.37183
0.371306
0.370783
0.370261
0.444616
0.429378
0.41411
0.412648
0.411882
0.411118
0.410355
0.409595
0.408837
0.408081
0.407327
0.406575
0.405826
0.40508
0.404336
0.403596
0.402858
0.402124
0.401393
0.400665
0.399942
0.399222
0.398506
0.397795
0.397088
0.396385
0.395687
0.394993
0.394305
0.393621
0.392943
0.39227
0.391602
0.390939
0.390282
0.38963
0.388984
0.388343
0.387708
0.387079
0.386455
0.385836
0.385223
0.384615
0.384013
0.383416
0.382824
0.382237
0.381655
0.381078
0.380505
0.379937
0.379374
0.378815
0.378259
0.377708
0.37716
0.376615
0.376074
0.375536
0.375
0.374467
0.373936
0.373407
0.37288
0.372354
0.371829
0.371306
0.370783
0.37026
0.444616
0.429377
0.414107
0.412646
0.411879
0.411115
0.410353
0.409592
0.408834
0.408078
0.407324
0.406572
0.405823
0.405077
0.404333
0.403593
0.402855
0.402121
0.40139
0.400662
0.399939
0.399219
0.398503
0.397792
0.397084
0.396382
0.395683
0.39499
0.394302
0.393618
0.39294
0.392266
0.391598
0.390936
0.390279
0.389627
0.388981
0.38834
0.387705
0.387075
0.386451
0.385833
0.38522
0.384612
0.38401
0.383413
0.382821
0.382234
0.381652
0.381075
0.380503
0.379935
0.379372
0.378812
0.378257
0.377706
0.377158
0.376614
0.376072
0.375534
0.374999
0.374466
0.373935
0.373406
0.372879
0.372353
0.371829
0.371305
0.370783
0.37026
0.444616
0.429377
0.414107
0.412645
0.411879
0.411114
0.410352
0.409592
0.408833
0.408077
0.407323
0.406571
0.405822
0.405076
0.404332
0.403591
0.402854
0.402119
0.401388
0.400661
0.399937
0.399217
0.398501
0.39779
0.397082
0.39638
0.395681
0.394988
0.394299
0.393616
0.392937
0.392264
0.391596
0.390934
0.390276
0.389625
0.388978
0.388338
0.387703
0.387073
0.386449
0.385831
0.385218
0.38461
0.384008
0.383411
0.382819
0.382232
0.38165
0.381073
0.380501
0.379933
0.37937
0.378811
0.378256
0.377704
0.377157
0.376612
0.376071
0.375533
0.374998
0.374465
0.373934
0.373405
0.372878
0.372353
0.371829
0.371305
0.370783
0.37026
0.444616
0.429377
0.414107
0.412645
0.411879
0.411115
0.410352
0.409592
0.408833
0.408077
0.407323
0.406571
0.405822
0.405075
0.404332
0.403591
0.402853
0.402119
0.401388
0.40066
0.399936
0.399216
0.3985
0.397789
0.397081
0.396378
0.39568
0.394987
0.394298
0.393615
0.392936
0.392263
0.391595
0.390932
0.390275
0.389623
0.388977
0.388336
0.387701
0.387072
0.386448
0.385829
0.385216
0.384608
0.384006
0.383409
0.382817
0.382231
0.381649
0.381072
0.3805
0.379932
0.379369
0.37881
0.378255
0.377703
0.377156
0.376611
0.37607
0.375532
0.374997
0.374464
0.373933
0.373405
0.372878
0.372352
0.371828
0.371305
0.370782
0.37026
0.444616
0.429378
0.414108
0.412646
0.41188
0.411115
0.410353
0.409592
0.408834
0.408078
0.407324
0.406572
0.405823
0.405076
0.404332
0.403591
0.402853
0.402119
0.401388
0.40066
0.399936
0.399216
0.3985
0.397788
0.397081
0.396378
0.39568
0.394986
0.394298
0.393614
0.392935
0.392262
0.391594
0.390931
0.390274
0.389622
0.388976
0.388335
0.3877
0.387071
0.386447
0.385828
0.385215
0.384607
0.384005
0.383408
0.382817
0.38223
0.381648
0.381071
0.380499
0.379931
0.379368
0.378809
0.378254
0.377703
0.377155
0.376611
0.37607
0.375532
0.374996
0.374464
0.373933
0.373404
0.372878
0.372352
0.371828
0.371305
0.370782
0.37026
0.444616
0.429379
0.414109
0.412648
0.411881
0.411117
0.410355
0.409594
0.408836
0.408079
0.407325
0.406573
0.405824
0.405077
0.404333
0.403592
0.402855
0.40212
0.401389
0.400661
0.399937
0.399217
0.398501
0.397789
0.397081
0.396378
0.39568
0.394986
0.394298
0.393614
0.392935
0.392262
0.391594
0.390931
0.390274
0.389622
0.388976
0.388335
0.3877
0.38707
0.386446
0.385828
0.385215
0.384607
0.384005
0.383408
0.382816
0.382229
0.381648
0.381071
0.380499
0.379931
0.379368
0.378809
0.378253
0.377702
0.377155
0.376611
0.37607
0.375532
0.374996
0.374463
0.373933
0.373404
0.372877
0.372352
0.371828
0.371305
0.370782
0.37026
0.444616
0.42938
0.414112
0.41265
0.411884
0.41112
0.410357
0.409597
0.408838
0.408082
0.407328
0.406576
0.405826
0.40508
0.404336
0.403595
0.402857
0.402122
0.40139
0.400663
0.399938
0.399218
0.398502
0.39779
0.397082
0.396379
0.395681
0.394987
0.394298
0.393614
0.392936
0.392262
0.391594
0.390931
0.390274
0.389622
0.388976
0.388335
0.3877
0.38707
0.386446
0.385828
0.385214
0.384607
0.384005
0.383408
0.382816
0.382229
0.381647
0.381071
0.380498
0.379931
0.379367
0.378808
0.378253
0.377702
0.377155
0.37661
0.376069
0.375531
0.374996
0.374463
0.373933
0.373404
0.372877
0.372352
0.371828
0.371305
0.370782
0.37026
0.444616
0.429382
0.414115
0.412653
0.411887
0.411123
0.410361
0.4096
0.408841
0.408085
0.407331
0.406579
0.405829
0.405082
0.404338
0.403597
0.402859
0.402124
0.401393
0.400665
0.39994
0.39922
0.398504
0.397792
0.397084
0.396381
0.395682
0.394988
0.394299
0.393615
0.392937
0.392263
0.391595
0.390932
0.390274
0.389622
0.388976
0.388335
0.3877
0.38707
0.386446
0.385828
0.385215
0.384607
0.384005
0.383408
0.382816
0.382229
0.381647
0.381071
0.380498
0.379931
0.379367
0.378808
0.378253
0.377702
0.377155
0.37661
0.376069
0.375531
0.374996
0.374463
0.373933
0.373404
0.372877
0.372352
0.371828
0.371305
0.370782
0.37026
0.444616
0.429383
0.414117
0.412656
0.41189
0.411125
0.410363
0.409602
0.408844
0.408087
0.407333
0.406581
0.405831
0.405084
0.40434
0.403599
0.402861
0.402126
0.401394
0.400666
0.399942
0.399222
0.398505
0.397793
0.397085
0.396382
0.395683
0.394989
0.3943
0.393616
0.392937
0.392264
0.391595
0.390933
0.390275
0.389623
0.388977
0.388336
0.387701
0.387071
0.386447
0.385828
0.385215
0.384607
0.384005
0.383408
0.382816
0.382229
0.381648
0.381071
0.380499
0.379931
0.379368
0.378809
0.378253
0.377702
0.377155
0.37661
0.376069
0.375531
0.374996
0.374463
0.373933
0.373404
0.372877
0.372352
0.371828
0.371305
0.370782
0.37026
0.444616
0.429383
0.414118
0.412656
0.41189
0.411126
0.410363
0.409603
0.408844
0.408087
0.407333
0.406581
0.405832
0.405085
0.404341
0.403599
0.402861
0.402126
0.401395
0.400667
0.399942
0.399222
0.398506
0.397793
0.397086
0.396382
0.395684
0.39499
0.394301
0.393617
0.392938
0.392264
0.391596
0.390933
0.390275
0.389624
0.388977
0.388336
0.387701
0.387071
0.386447
0.385828
0.385215
0.384608
0.384005
0.383408
0.382816
0.38223
0.381648
0.381071
0.380499
0.379931
0.379368
0.378809
0.378254
0.377702
0.377155
0.376611
0.37607
0.375532
0.374996
0.374463
0.373933
0.373404
0.372878
0.372352
0.371828
0.371305
0.370782
0.37026
0.444616
0.429382
0.414116
0.412654
0.411888
0.411124
0.410361
0.409601
0.408842
0.408086
0.407332
0.40658
0.40583
0.405083
0.404339
0.403598
0.40286
0.402125
0.401394
0.400666
0.399942
0.399221
0.398505
0.397793
0.397085
0.396382
0.395683
0.394989
0.3943
0.393617
0.392938
0.392264
0.391596
0.390933
0.390276
0.389624
0.388977
0.388336
0.387701
0.387071
0.386447
0.385829
0.385216
0.384608
0.384006
0.383409
0.382817
0.38223
0.381648
0.381071
0.380499
0.379931
0.379368
0.378809
0.378254
0.377703
0.377155
0.376611
0.37607
0.375532
0.374996
0.374464
0.373933
0.373404
0.372878
0.372352
0.371828
0.371305
0.370782
0.37026
0.444616
0.429381
0.414113
0.412651
0.411885
0.411121
0.410358
0.409598
0.408839
0.408083
0.407329
0.406577
0.405828
0.405081
0.404337
0.403596
0.402858
0.402123
0.401392
0.400664
0.39994
0.39922
0.398504
0.397792
0.397084
0.396381
0.395682
0.394989
0.3943
0.393616
0.392937
0.392264
0.391596
0.390933
0.390275
0.389624
0.388977
0.388336
0.387701
0.387071
0.386447
0.385829
0.385216
0.384608
0.384006
0.383409
0.382817
0.38223
0.381648
0.381071
0.380499
0.379932
0.379368
0.378809
0.378254
0.377703
0.377155
0.376611
0.37607
0.375532
0.374997
0.374464
0.373933
0.373405
0.372878
0.372352
0.371828
0.371305
0.370782
0.37026
0.444616
0.429379
0.41411
0.412648
0.411882
0.411118
0.410356
0.409595
0.408837
0.40808
0.407326
0.406574
0.405825
0.405079
0.404335
0.403594
0.402856
0.402121
0.40139
0.400662
0.399938
0.399218
0.398502
0.39779
0.397083
0.39638
0.395682
0.394988
0.394299
0.393615
0.392937
0.392263
0.391595
0.390933
0.390275
0.389623
0.388977
0.388336
0.387701
0.387071
0.386447
0.385829
0.385216
0.384608
0.384006
0.383409
0.382817
0.38223
0.381649
0.381072
0.380499
0.379932
0.379368
0.378809
0.378254
0.377703
0.377155
0.376611
0.37607
0.375532
0.374997
0.374464
0.373933
0.373405
0.372878
0.372352
0.371828
0.371305
0.370782
0.37026
0.444616
0.429378
0.414109
0.412647
0.411881
0.411117
0.410354
0.409594
0.408835
0.408079
0.407325
0.406573
0.405824
0.405077
0.404334
0.403593
0.402855
0.40212
0.401389
0.400662
0.399938
0.399218
0.398502
0.39779
0.397082
0.39638
0.395681
0.394988
0.394299
0.393615
0.392937
0.392263
0.391595
0.390932
0.390275
0.389623
0.388977
0.388336
0.387701
0.387072
0.386448
0.385829
0.385216
0.384608
0.384006
0.383409
0.382817
0.382231
0.381649
0.381072
0.3805
0.379932
0.379369
0.378809
0.378254
0.377703
0.377155
0.376611
0.37607
0.375532
0.374997
0.374464
0.373933
0.373405
0.372878
0.372352
0.371828
0.371305
0.370782
0.37026
0.444616
0.429379
0.41411
0.412648
0.411882
0.411118
0.410355
0.409595
0.408836
0.40808
0.407326
0.406574
0.405825
0.405078
0.404335
0.403594
0.402856
0.402121
0.40139
0.400662
0.399939
0.399218
0.398502
0.397791
0.397083
0.39638
0.395682
0.394988
0.394299
0.393616
0.392937
0.392264
0.391596
0.390933
0.390276
0.389624
0.388978
0.388337
0.387702
0.387072
0.386448
0.385829
0.385216
0.384609
0.384006
0.383409
0.382818
0.382231
0.381649
0.381072
0.3805
0.379932
0.379369
0.37881
0.378255
0.377703
0.377156
0.376611
0.37607
0.375532
0.374997
0.374464
0.373933
0.373405
0.372878
0.372352
0.371828
0.371305
0.370782
0.37026
0.444616
0.42938
0.414113
0.412651
0.411885
0.411121
0.410358
0.409598
0.408839
0.408083
0.407329
0.406577
0.405828
0.405081
0.404337
0.403596
0.402858
0.402124
0.401392
0.400665
0.399941
0.39922
0.398504
0.397792
0.397085
0.396382
0.395683
0.39499
0.394301
0.393617
0.392938
0.392265
0.391597
0.390934
0.390277
0.389625
0.388978
0.388338
0.387702
0.387073
0.386449
0.38583
0.385217
0.384609
0.384007
0.38341
0.382818
0.382231
0.381649
0.381072
0.3805
0.379932
0.379369
0.37881
0.378255
0.377703
0.377156
0.376612
0.37607
0.375532
0.374997
0.374464
0.373933
0.373405
0.372878
0.372353
0.371828
0.371305
0.370782
0.37026
0.444616
0.429382
0.414116
0.412654
0.411888
0.411124
0.410362
0.409601
0.408843
0.408086
0.407332
0.40658
0.405831
0.405084
0.40434
0.403599
0.402861
0.402127
0.401395
0.400667
0.399943
0.399223
0.398507
0.397795
0.397087
0.396384
0.395685
0.394991
0.394303
0.393619
0.39294
0.392266
0.391598
0.390935
0.390278
0.389626
0.388979
0.388339
0.387703
0.387074
0.386449
0.385831
0.385218
0.38461
0.384007
0.38341
0.382818
0.382232
0.38165
0.381073
0.380501
0.379933
0.379369
0.37881
0.378255
0.377704
0.377156
0.376612
0.376071
0.375533
0.374997
0.374464
0.373934
0.373405
0.372878
0.372353
0.371828
0.371305
0.370782
0.37026
0.444616
0.429384
0.414119
0.412657
0.411891
0.411127
0.410364
0.409604
0.408845
0.408089
0.407335
0.406583
0.405834
0.405087
0.404343
0.403602
0.402864
0.402129
0.401397
0.400669
0.399945
0.399225
0.398508
0.397796
0.397089
0.396385
0.395687
0.394993
0.394304
0.39362
0.392941
0.392267
0.391599
0.390936
0.390279
0.389627
0.38898
0.388339
0.387704
0.387074
0.38645
0.385831
0.385218
0.38461
0.384008
0.383411
0.382819
0.382232
0.38165
0.381073
0.380501
0.379933
0.37937
0.378811
0.378255
0.377704
0.377156
0.376612
0.376071
0.375533
0.374997
0.374464
0.373934
0.373405
0.372878
0.372353
0.371828
0.371305
0.370782
0.37026
0.444616
0.429384
0.414119
0.412658
0.411892
0.411128
0.410365
0.409605
0.408846
0.40809
0.407336
0.406584
0.405835
0.405088
0.404344
0.403603
0.402865
0.40213
0.401398
0.40067
0.399946
0.399226
0.398509
0.397797
0.39709
0.396386
0.395688
0.394994
0.394305
0.393621
0.392942
0.392268
0.3916
0.390937
0.390279
0.389627
0.388981
0.38834
0.387705
0.387075
0.386451
0.385832
0.385219
0.384611
0.384008
0.383411
0.382819
0.382233
0.381651
0.381074
0.380501
0.379933
0.37937
0.378811
0.378256
0.377704
0.377156
0.376612
0.376071
0.375533
0.374997
0.374465
0.373934
0.373405
0.372878
0.372353
0.371828
0.371305
0.370783
0.37026
0.444616
0.429384
0.414119
0.412658
0.411892
0.411128
0.410365
0.409605
0.408846
0.40809
0.407336
0.406584
0.405835
0.405088
0.404344
0.403603
0.402865
0.40213
0.401399
0.400671
0.399946
0.399226
0.39851
0.397798
0.39709
0.396387
0.395688
0.394994
0.394305
0.393621
0.392942
0.392269
0.3916
0.390937
0.39028
0.389628
0.388981
0.38834
0.387705
0.387075
0.386451
0.385832
0.385219
0.384611
0.384009
0.383412
0.38282
0.382233
0.381651
0.381074
0.380502
0.379934
0.37937
0.378811
0.378256
0.377704
0.377157
0.376612
0.376071
0.375533
0.374998
0.374465
0.373934
0.373405
0.372878
0.372353
0.371829
0.371305
0.370783
0.37026
0.444616
0.429384
0.41412
0.412658
0.411892
0.411128
0.410366
0.409605
0.408847
0.408091
0.407336
0.406585
0.405835
0.405089
0.404345
0.403603
0.402865
0.402131
0.401399
0.400671
0.399947
0.399227
0.398511
0.397798
0.397091
0.396387
0.395689
0.394995
0.394306
0.393622
0.392943
0.392269
0.391601
0.390938
0.390281
0.389628
0.388982
0.388341
0.387706
0.387076
0.386452
0.385833
0.38522
0.384612
0.384009
0.383412
0.38282
0.382233
0.381651
0.381074
0.380502
0.379934
0.379371
0.378811
0.378256
0.377705
0.377157
0.376613
0.376071
0.375533
0.374998
0.374465
0.373934
0.373405
0.372878
0.372353
0.371829
0.371305
0.370783
0.37026
0.444616
0.429385
0.414121
0.41266
0.411894
0.41113
0.410367
0.409607
0.408848
0.408092
0.407338
0.406586
0.405837
0.40509
0.404346
0.403605
0.402867
0.402132
0.401401
0.400673
0.399948
0.399228
0.398512
0.3978
0.397092
0.396389
0.39569
0.394996
0.394307
0.393623
0.392944
0.39227
0.391602
0.390939
0.390281
0.389629
0.388983
0.388342
0.387706
0.387076
0.386452
0.385833
0.38522
0.384612
0.38401
0.383413
0.382821
0.382234
0.381652
0.381075
0.380502
0.379934
0.379371
0.378812
0.378256
0.377705
0.377157
0.376613
0.376072
0.375533
0.374998
0.374465
0.373934
0.373405
0.372878
0.372353
0.371829
0.371305
0.370783
0.37026
0.444616
0.429386
0.414123
0.412662
0.411896
0.411132
0.410369
0.409609
0.408851
0.408094
0.40734
0.406588
0.405839
0.405092
0.404348
0.403607
0.402869
0.402134
0.401403
0.400675
0.39995
0.39923
0.398514
0.397801
0.397094
0.39639
0.395692
0.394998
0.394308
0.393624
0.392945
0.392272
0.391603
0.39094
0.390283
0.38963
0.388984
0.388343
0.387707
0.387077
0.386453
0.385834
0.385221
0.384613
0.38401
0.383413
0.382821
0.382234
0.381652
0.381075
0.380503
0.379935
0.379371
0.378812
0.378257
0.377705
0.377157
0.376613
0.376072
0.375533
0.374998
0.374465
0.373934
0.373405
0.372878
0.372353
0.371829
0.371305
0.370783
0.37026
0.444616
0.429387
0.414125
0.412664
0.411898
0.411134
0.410371
0.409611
0.408853
0.408096
0.407342
0.40659
0.405841
0.405094
0.40435
0.403609
0.402871
0.402136
0.401405
0.400677
0.399952
0.399232
0.398516
0.397803
0.397095
0.396392
0.395693
0.394999
0.39431
0.393626
0.392947
0.392273
0.391605
0.390941
0.390284
0.389632
0.388985
0.388344
0.387708
0.387078
0.386454
0.385835
0.385222
0.384614
0.384011
0.383414
0.382822
0.382235
0.381653
0.381075
0.380503
0.379935
0.379371
0.378812
0.378257
0.377705
0.377157
0.376613
0.376072
0.375534
0.374998
0.374465
0.373934
0.373406
0.372879
0.372353
0.371829
0.371305
0.370783
0.37026
0.444616
0.429388
0.414127
0.412665
0.4119
0.411136
0.410373
0.409613
0.408855
0.408098
0.407344
0.406592
0.405843
0.405096
0.404352
0.403611
0.402873
0.402138
0.401407
0.400679
0.399954
0.399234
0.398517
0.397805
0.397097
0.396394
0.395695
0.395001
0.394312
0.393628
0.392948
0.392275
0.391606
0.390943
0.390285
0.389633
0.388986
0.388345
0.387709
0.387079
0.386455
0.385836
0.385222
0.384614
0.384012
0.383414
0.382822
0.382235
0.381653
0.381076
0.380503
0.379935
0.379372
0.378812
0.378257
0.377706
0.377158
0.376613
0.376072
0.375534
0.374998
0.374465
0.373934
0.373406
0.372879
0.372353
0.371829
0.371305
0.370783
0.37026
0.444616
0.429389
0.414128
0.412667
0.411901
0.411137
0.410375
0.409615
0.408857
0.4081
0.407346
0.406594
0.405845
0.405098
0.404354
0.403613
0.402875
0.40214
0.401409
0.400681
0.399956
0.399236
0.398519
0.397807
0.397099
0.396396
0.395697
0.395003
0.394313
0.393629
0.39295
0.392276
0.391607
0.390944
0.390286
0.389634
0.388987
0.388346
0.38771
0.38708
0.386456
0.385837
0.385223
0.384615
0.384012
0.383415
0.382823
0.382236
0.381654
0.381076
0.380504
0.379936
0.379372
0.378813
0.378257
0.377706
0.377158
0.376613
0.376072
0.375534
0.374998
0.374465
0.373935
0.373406
0.372879
0.372353
0.371829
0.371305
0.370783
0.37026
0.444616
0.42939
0.41413
0.412669
0.411903
0.411139
0.410377
0.409617
0.408859
0.408102
0.407348
0.406596
0.405847
0.4051
0.404356
0.403615
0.402877
0.402142
0.401411
0.400683
0.399958
0.399238
0.398521
0.397809
0.397101
0.396397
0.395698
0.395004
0.394315
0.393631
0.392951
0.392277
0.391609
0.390945
0.390287
0.389635
0.388988
0.388347
0.387711
0.387081
0.386456
0.385837
0.385224
0.384616
0.384013
0.383415
0.382823
0.382236
0.381654
0.381077
0.380504
0.379936
0.379372
0.378813
0.378258
0.377706
0.377158
0.376614
0.376072
0.375534
0.374998
0.374465
0.373935
0.373406
0.372879
0.372353
0.371829
0.371305
0.370783
0.37026
0.444616
0.429391
0.414132
0.412671
0.411905
0.411141
0.410379
0.409619
0.40886
0.408104
0.40735
0.406598
0.405849
0.405102
0.404358
0.403617
0.402879
0.402144
0.401412
0.400684
0.39996
0.399239
0.398523
0.39781
0.397102
0.396399
0.3957
0.395005
0.394316
0.393632
0.392952
0.392278
0.39161
0.390946
0.390288
0.389636
0.388989
0.388348
0.387712
0.387082
0.386457
0.385838
0.385224
0.384616
0.384013
0.383416
0.382824
0.382236
0.381654
0.381077
0.380504
0.379936
0.379373
0.378813
0.378258
0.377706
0.377158
0.376614
0.376072
0.375534
0.374999
0.374465
0.373935
0.373406
0.372879
0.372353
0.371829
0.371305
0.370783
0.37026
0.444616
0.429391
0.414133
0.412672
0.411907
0.411143
0.410381
0.40962
0.408862
0.408106
0.407352
0.4066
0.405851
0.405104
0.40436
0.403619
0.40288
0.402145
0.401414
0.400686
0.399961
0.399241
0.398524
0.397812
0.397103
0.3964
0.395701
0.395006
0.394317
0.393633
0.392953
0.392279
0.39161
0.390947
0.390289
0.389636
0.388989
0.388348
0.387712
0.387082
0.386457
0.385838
0.385225
0.384616
0.384014
0.383416
0.382824
0.382237
0.381654
0.381077
0.380504
0.379936
0.379373
0.378813
0.378258
0.377706
0.377158
0.376614
0.376072
0.375534
0.374999
0.374465
0.373935
0.373406
0.372879
0.372353
0.371829
0.371305
0.370783
0.37026
0.444616
0.429392
0.414134
0.412673
0.411908
0.411144
0.410382
0.409621
0.408863
0.408107
0.407353
0.406601
0.405852
0.405105
0.404361
0.403619
0.402881
0.402146
0.401415
0.400686
0.399962
0.399241
0.398525
0.397812
0.397104
0.3964
0.395701
0.395007
0.394318
0.393633
0.392954
0.39228
0.391611
0.390947
0.390289
0.389637
0.38899
0.388348
0.387713
0.387082
0.386458
0.385838
0.385225
0.384617
0.384014
0.383416
0.382824
0.382237
0.381654
0.381077
0.380504
0.379936
0.379373
0.378813
0.378258
0.377706
0.377158
0.376614
0.376072
0.375534
0.374999
0.374466
0.373935
0.373406
0.372879
0.372353
0.371829
0.371305
0.370783
0.37026
0.444616
0.429392
0.414135
0.412674
0.411908
0.411144
0.410382
0.409622
0.408864
0.408107
0.407353
0.406601
0.405852
0.405105
0.404361
0.40362
0.402882
0.402147
0.401415
0.400687
0.399962
0.399242
0.398525
0.397813
0.397105
0.396401
0.395702
0.395007
0.394318
0.393633
0.392954
0.39228
0.391611
0.390948
0.39029
0.389637
0.38899
0.388349
0.387713
0.387082
0.386458
0.385839
0.385225
0.384617
0.384014
0.383416
0.382824
0.382237
0.381655
0.381077
0.380505
0.379936
0.379373
0.378813
0.378258
0.377706
0.377158
0.376614
0.376073
0.375534
0.374999
0.374466
0.373935
0.373406
0.372879
0.372353
0.371829
0.371305
0.370783
0.37026
0.444616
0.429392
0.414135
0.412674
0.411909
0.411145
0.410382
0.409622
0.408864
0.408108
0.407353
0.406602
0.405852
0.405106
0.404361
0.40362
0.402882
0.402147
0.401415
0.400687
0.399963
0.399242
0.398525
0.397813
0.397105
0.396401
0.395702
0.395008
0.394318
0.393634
0.392954
0.39228
0.391611
0.390948
0.39029
0.389637
0.38899
0.388349
0.387713
0.387083
0.386458
0.385839
0.385225
0.384617
0.384014
0.383416
0.382824
0.382237
0.381655
0.381077
0.380505
0.379936
0.379373
0.378813
0.378258
0.377706
0.377158
0.376614
0.376073
0.375534
0.374999
0.374466
0.373935
0.373406
0.372879
0.372353
0.371829
0.371305
0.370783
0.37026
0.444616
0.429392
0.414135
0.412674
0.411909
0.411145
0.410383
0.409622
0.408864
0.408108
0.407354
0.406602
0.405852
0.405106
0.404362
0.40362
0.402882
0.402147
0.401415
0.400687
0.399963
0.399242
0.398525
0.397813
0.397105
0.396401
0.395702
0.395008
0.394318
0.393634
0.392954
0.39228
0.391611
0.390948
0.39029
0.389637
0.38899
0.388349
0.387713
0.387083
0.386458
0.385839
0.385225
0.384617
0.384014
0.383416
0.382824
0.382237
0.381655
0.381077
0.380505
0.379936
0.379373
0.378813
0.378258
0.377706
0.377158
0.376614
0.376073
0.375534
0.374999
0.374466
0.373935
0.373406
0.372879
0.372353
0.371829
0.371305
0.370783
0.37026
0.444616
0.429392
0.414135
0.412674
0.411909
0.411145
0.410383
0.409622
0.408864
0.408108
0.407354
0.406602
0.405853
0.405106
0.404362
0.40362
0.402882
0.402147
0.401415
0.400687
0.399963
0.399242
0.398526
0.397813
0.397105
0.396401
0.395702
0.395008
0.394318
0.393634
0.392954
0.39228
0.391611
0.390948
0.39029
0.389637
0.38899
0.388349
0.387713
0.387083
0.386458
0.385839
0.385225
0.384617
0.384014
0.383416
0.382824
0.382237
0.381655
0.381077
0.380505
0.379936
0.379373
0.378813
0.378258
0.377706
0.377158
0.376614
0.376073
0.375534
0.374999
0.374466
0.373935
0.373406
0.372879
0.372353
0.371829
0.371305
0.370783
0.37026
0.444616
0.429392
0.414135
0.412674
0.411909
0.411145
0.410383
0.409622
0.408864
0.408108
0.407354
0.406602
0.405853
0.405106
0.404362
0.40362
0.402882
0.402147
0.401416
0.400687
0.399963
0.399242
0.398526
0.397813
0.397105
0.396401
0.395702
0.395008
0.394318
0.393634
0.392954
0.39228
0.391611
0.390948
0.39029
0.389637
0.38899
0.388349
0.387713
0.387083
0.386458
0.385839
0.385225
0.384617
0.384014
0.383416
0.382824
0.382237
0.381655
0.381077
0.380505
0.379936
0.379373
0.378813
0.378258
0.377706
0.377158
0.376614
0.376073
0.375534
0.374999
0.374466
0.373935
0.373406
0.372879
0.372353
0.371829
0.371305
0.370783
0.37026
0.444616
0.429392
0.414135
0.412674
0.411909
0.411145
0.410383
0.409622
0.408864
0.408108
0.407354
0.406602
0.405853
0.405106
0.404362
0.40362
0.402882
0.402147
0.401416
0.400687
0.399963
0.399242
0.398526
0.397813
0.397105
0.396401
0.395702
0.395008
0.394318
0.393634
0.392954
0.39228
0.391611
0.390948
0.39029
0.389637
0.38899
0.388349
0.387713
0.387083
0.386458
0.385839
0.385225
0.384617
0.384014
0.383416
0.382824
0.382237
0.381655
0.381077
0.380505
0.379936
0.379373
0.378813
0.378258
0.377706
0.377158
0.376614
0.376073
0.375534
0.374999
0.374466
0.373935
0.373406
0.372879
0.372353
0.371829
0.371305
0.370783
0.37026
0.444616
0.429392
0.414135
0.412674
0.411909
0.411145
0.410383
0.409622
0.408864
0.408108
0.407354
0.406602
0.405853
0.405106
0.404362
0.40362
0.402882
0.402147
0.401416
0.400687
0.399963
0.399242
0.398526
0.397813
0.397105
0.396401
0.395702
0.395008
0.394318
0.393634
0.392954
0.39228
0.391611
0.390948
0.39029
0.389637
0.38899
0.388349
0.387713
0.387083
0.386458
0.385839
0.385225
0.384617
0.384014
0.383416
0.382824
0.382237
0.381655
0.381077
0.380505
0.379936
0.379373
0.378813
0.378258
0.377706
0.377158
0.376614
0.376073
0.375534
0.374999
0.374466
0.373935
0.373406
0.372879
0.372353
0.371829
0.371305
0.370783
0.37026
0.444616
0.429392
0.414135
0.412674
0.411909
0.411145
0.410383
0.409622
0.408864
0.408108
0.407354
0.406602
0.405853
0.405106
0.404362
0.40362
0.402882
0.402147
0.401416
0.400687
0.399963
0.399242
0.398526
0.397813
0.397105
0.396401
0.395702
0.395008
0.394318
0.393634
0.392954
0.39228
0.391611
0.390948
0.39029
0.389637
0.38899
0.388349
0.387713
0.387083
0.386458
0.385839
0.385225
0.384617
0.384014
0.383416
0.382824
0.382237
0.381655
0.381077
0.380505
0.379936
0.379373
0.378813
0.378258
0.377706
0.377158
0.376614
0.376073
0.375534
0.374999
0.374466
0.373935
0.373406
0.372879
0.372353
0.371829
0.371305
0.370783
0.37026
0.444616
0.429392
0.414135
0.412674
0.411909
0.411145
0.410383
0.409622
0.408864
0.408108
0.407354
0.406602
0.405853
0.405106
0.404362
0.40362
0.402882
0.402147
0.401416
0.400687
0.399963
0.399242
0.398526
0.397813
0.397105
0.396401
0.395702
0.395008
0.394318
0.393634
0.392954
0.39228
0.391611
0.390948
0.39029
0.389637
0.38899
0.388349
0.387713
0.387083
0.386458
0.385839
0.385225
0.384617
0.384014
0.383416
0.382824
0.382237
0.381655
0.381077
0.380505
0.379936
0.379373
0.378813
0.378258
0.377706
0.377158
0.376614
0.376073
0.375534
0.374999
0.374466
0.373935
0.373406
0.372879
0.372353
0.371829
0.371305
0.370783
0.37026
0.444616
0.429392
0.414135
0.412674
0.411909
0.411145
0.410383
0.409622
0.408864
0.408108
0.407354
0.406602
0.405853
0.405106
0.404362
0.40362
0.402882
0.402147
0.401416
0.400687
0.399963
0.399242
0.398526
0.397813
0.397105
0.396401
0.395702
0.395008
0.394318
0.393634
0.392954
0.39228
0.391611
0.390948
0.39029
0.389637
0.38899
0.388349
0.387713
0.387083
0.386458
0.385839
0.385225
0.384617
0.384014
0.383416
0.382824
0.382237
0.381655
0.381077
0.380505
0.379936
0.379373
0.378813
0.378258
0.377706
0.377158
0.376614
0.376073
0.375534
0.374999
0.374466
0.373935
0.373406
0.372879
0.372353
0.371829
0.371305
0.370783
0.37026
0.444616
0.429392
0.414135
0.412674
0.411909
0.411145
0.410383
0.409622
0.408864
0.408108
0.407354
0.406602
0.405853
0.405106
0.404362
0.40362
0.402882
0.402147
0.401416
0.400687
0.399963
0.399242
0.398526
0.397813
0.397105
0.396401
0.395702
0.395008
0.394318
0.393634
0.392954
0.39228
0.391611
0.390948
0.39029
0.389637
0.38899
0.388349
0.387713
0.387083
0.386458
0.385839
0.385225
0.384617
0.384014
0.383416
0.382824
0.382237
0.381655
0.381077
0.380505
0.379936
0.379373
0.378813
0.378258
0.377706
0.377158
0.376614
0.376073
0.375534
0.374999
0.374466
0.373935
0.373406
0.372879
0.372353
0.371829
0.371305
0.370783
0.37026
0.444616
0.429392
0.414135
0.412674
0.411909
0.411145
0.410383
0.409622
0.408864
0.408108
0.407354
0.406602
0.405853
0.405106
0.404362
0.40362
0.402882
0.402147
0.401416
0.400687
0.399963
0.399242
0.398526
0.397813
0.397105
0.396401
0.395702
0.395008
0.394318
0.393634
0.392954
0.39228
0.391611
0.390948
0.39029
0.389637
0.38899
0.388349
0.387713
0.387083
0.386458
0.385839
0.385225
0.384617
0.384014
0.383416
0.382824
0.382237
0.381655
0.381077
0.380505
0.379936
0.379373
0.378813
0.378258
0.377706
0.377158
0.376614
0.376073
0.375534
0.374999
0.374466
0.373935
0.373406
0.372879
0.372353
0.371829
0.371305
0.370783
0.37026
0.444616
0.429392
0.414135
0.412674
0.411909
0.411145
0.410383
0.409622
0.408864
0.408108
0.407354
0.406602
0.405853
0.405106
0.404362
0.40362
0.402882
0.402147
0.401416
0.400687
0.399963
0.399242
0.398526
0.397813
0.397105
0.396401
0.395702
0.395008
0.394318
0.393634
0.392954
0.39228
0.391611
0.390948
0.39029
0.389637
0.38899
0.388349
0.387713
0.387083
0.386458
0.385839
0.385225
0.384617
0.384014
0.383416
0.382824
0.382237
0.381655
0.381077
0.380505
0.379936
0.379373
0.378813
0.378258
0.377706
0.377158
0.376614
0.376073
0.375534
0.374999
0.374466
0.373935
0.373406
0.372879
0.372353
0.371829
0.371305
0.370783
0.37026
0.444616
0.429392
0.414135
0.412674
0.411909
0.411145
0.410383
0.409622
0.408864
0.408108
0.407354
0.406602
0.405853
0.405106
0.404362
0.40362
0.402882
0.402147
0.401416
0.400687
0.399963
0.399242
0.398526
0.397813
0.397105
0.396401
0.395702
0.395008
0.394318
0.393634
0.392954
0.39228
0.391611
0.390948
0.39029
0.389637
0.38899
0.388349
0.387713
0.387083
0.386458
0.385839
0.385225
0.384617
0.384014
0.383416
0.382824
0.382237
0.381655
0.381077
0.380505
0.379936
0.379373
0.378813
0.378258
0.377706
0.377158
0.376614
0.376073
0.375534
0.374999
0.374466
0.373935
0.373406
0.372879
0.372353
0.371829
0.371305
0.370783
0.37026
0.444616
0.429392
0.414135
0.412674
0.411909
0.411145