/*--------------------------------*- C++ -*----------------------------------*\
  =========                 |
  \\      /  F ield         | OpenFOAM: The Open Source CFD Toolbox
   \\    /   O peration     | Website:  https://openfoam.org
    \\  /    A nd           | Version:  13
     \\/     M anipulation  |
\*---------------------------------------------------------------------------*/
FoamFile
{
    format      ascii;
    class       volScalarField;
    location    "27.5";
    object      nut;
}
// * * * * * * * * * * * * * * * * * * * * * * * * * * * * * * * * * * * * * //

dimensions      [0 2 -1 0 0 0 0];

internalField   nonuniform List<scalar> 
315000
(
6.67172e-13
1.74192e-10
3.96015e-09
7.0544e-09
1.01274e-08
1.31667e-08
1.61627e-08
1.91065e-08
2.19883e-08
2.47977e-08
2.75236e-08
3.01553e-08
3.26824e-08
3.50955e-08
3.73865e-08
3.95485e-08
4.15766e-08
4.34673e-08
4.52186e-08
4.683e-08
4.83021e-08
4.96365e-08
5.08361e-08
5.19051e-08
5.2849e-08
5.36745e-08
5.43888e-08
5.50001e-08
5.5516e-08
5.59436e-08
5.62891e-08
5.65574e-08
5.67528e-08
5.68793e-08
5.6941e-08
5.69404e-08
5.68775e-08
5.67502e-08
5.65543e-08
5.62856e-08
5.59399e-08
5.55124e-08
5.49971e-08
5.4387e-08
5.36743e-08
5.2851e-08
5.19096e-08
5.08432e-08
4.96462e-08
4.83142e-08
4.68444e-08
4.52349e-08
4.34855e-08
4.15966e-08
3.95704e-08
3.74103e-08
3.51216e-08
3.27109e-08
3.01861e-08
2.75567e-08
2.48329e-08
2.20252e-08
1.91446e-08
1.62013e-08
1.32047e-08
1.01636e-08
7.08634e-09
3.9838e-09
1.75594e-10
6.73376e-13
1.66001e-11
4.40658e-09
9.67669e-07
1.68197e-06
2.35385e-06
2.98857e-06
3.58979e-06
4.15993e-06
4.7005e-06
5.21242e-06
5.69625e-06
6.15231e-06
6.58085e-06
6.98213e-06
7.35644e-06
7.70421e-06
8.02593e-06
8.32226e-06
8.59395e-06
8.84185e-06
9.06687e-06
9.26982e-06
9.45157e-06
9.61311e-06
9.7555e-06
9.87989e-06
9.98747e-06
1.00794e-05
1.0157e-05
1.02211e-05
1.02728e-05
1.03129e-05
1.0342e-05
1.03609e-05
1.03702e-05
1.03702e-05
1.03608e-05
1.03418e-05
1.03126e-05
1.02725e-05
1.02209e-05
1.01568e-05
1.00794e-05
9.9876e-06
9.88023e-06
9.75609e-06
9.61397e-06
9.45271e-06
9.27122e-06
9.06853e-06
8.84372e-06
8.59598e-06
8.32444e-06
8.02825e-06
7.70667e-06
7.35907e-06
6.98495e-06
6.58389e-06
6.15558e-06
5.69976e-06
5.21615e-06
4.70441e-06
4.16396e-06
3.59385e-06
2.99252e-06
2.3575e-06
1.68507e-06
9.69826e-07
4.41848e-09
1.66482e-11
6.60888e-11
1.75707e-08
8.06843e-06
1.24419e-05
1.61523e-05
1.94327e-05
2.23983e-05
2.51137e-05
2.76187e-05
2.9939e-05
3.20925e-05
3.40921e-05
3.59478e-05
3.76679e-05
3.92592e-05
4.07282e-05
4.20807e-05
4.33225e-05
4.44594e-05
4.54987e-05
4.64541e-05
4.73257e-05
4.81153e-05
4.88258e-05
4.94604e-05
5.00227e-05
5.05162e-05
5.09446e-05
5.13112e-05
5.16191e-05
5.18709e-05
5.20691e-05
5.22157e-05
5.23123e-05
5.23603e-05
5.23601e-05
5.23119e-05
5.2215e-05
5.20682e-05
5.18699e-05
5.16181e-05
5.13103e-05
5.0944e-05
5.05159e-05
5.00228e-05
4.94611e-05
4.88271e-05
4.81173e-05
4.73282e-05
4.64573e-05
4.55024e-05
4.44637e-05
4.33269e-05
4.20853e-05
4.0733e-05
3.92643e-05
3.76732e-05
3.59535e-05
3.40982e-05
3.2099e-05
2.99461e-05
2.76262e-05
2.51216e-05
2.24065e-05
1.9441e-05
1.61604e-05
1.24494e-05
8.07456e-06
1.75889e-08
6.61606e-11
9.44518e-11
2.51267e-08
1.08394e-05
1.62767e-05
2.08286e-05
2.48187e-05
2.84017e-05
3.16637e-05
3.46571e-05
3.74163e-05
3.99649e-05
4.23206e-05
4.44968e-05
4.65047e-05
4.83536e-05
5.00522e-05
5.16137e-05
5.30446e-05
5.43603e-05
4.71732e-05
4.7693e-05
4.81638e-05
4.85904e-05
4.89754e-05
4.93208e-05
4.96286e-05
4.99004e-05
5.0138e-05
5.03426e-05
5.05156e-05
5.06582e-05
5.07711e-05
5.08552e-05
5.09109e-05
5.09386e-05
5.09385e-05
5.09106e-05
5.08548e-05
5.07706e-05
5.06576e-05
5.05149e-05
5.03418e-05
5.01371e-05
4.98995e-05
4.96277e-05
4.93199e-05
4.89745e-05
4.85896e-05
4.81631e-05
4.76923e-05
4.71726e-05
5.43591e-05
5.30439e-05
5.16135e-05
5.00523e-05
4.8354e-05
4.65053e-05
4.44976e-05
4.23216e-05
3.99661e-05
3.74178e-05
3.46589e-05
3.16658e-05
2.84041e-05
2.48212e-05
2.08312e-05
1.62792e-05
1.08416e-05
2.51351e-08
9.44868e-11
1.10432e-10
2.93946e-08
1.23068e-05
1.82724e-05
2.32485e-05
2.76017e-05
3.1505e-05
3.5054e-05
3.83067e-05
4.13011e-05
4.40635e-05
4.6613e-05
4.89637e-05
5.11243e-05
5.30972e-05
4.6933e-05
4.77389e-05
4.84867e-05
4.91778e-05
4.98168e-05
5.0402e-05
5.09363e-05
5.14224e-05
5.18625e-05
5.22586e-05
5.26128e-05
5.29266e-05
5.32017e-05
5.34393e-05
5.36407e-05
5.3807e-05
5.39389e-05
5.40372e-05
5.41024e-05
5.41349e-05
5.41348e-05
5.41022e-05
5.40368e-05
5.39384e-05
5.38064e-05
5.364e-05
5.34385e-05
5.32008e-05
5.29256e-05
5.26117e-05
5.22575e-05
5.18613e-05
5.14212e-05
5.09351e-05
5.04008e-05
4.98156e-05
4.91766e-05
4.84858e-05
4.77383e-05
4.69324e-05
5.3096e-05
5.11235e-05
4.89631e-05
4.66126e-05
4.40631e-05
4.13008e-05
3.83066e-05
3.50541e-05
3.15053e-05
2.76022e-05
2.32491e-05
1.82731e-05
1.23076e-05
2.93989e-08
1.10452e-10
1.18401e-10
3.15284e-08
1.30201e-05
1.92361e-05
2.44158e-05
2.89457e-05
3.30073e-05
3.67006e-05
4.00865e-05
4.32048e-05
4.60832e-05
4.87414e-05
5.11927e-05
5.34423e-05
4.72125e-05
4.81395e-05
4.90022e-05
4.98022e-05
5.05422e-05
5.12247e-05
5.18525e-05
5.2428e-05
5.29534e-05
5.34309e-05
5.38622e-05
5.4249e-05
5.45928e-05
5.48949e-05
5.51566e-05
5.53789e-05
5.55628e-05
5.57089e-05
5.58179e-05
5.58904e-05
5.59265e-05
5.59264e-05
5.58902e-05
5.58177e-05
5.57086e-05
5.55623e-05
5.53784e-05
5.5156e-05
5.48942e-05
5.4592e-05
5.42482e-05
5.38613e-05
5.343e-05
5.29526e-05
5.24271e-05
5.18516e-05
5.12239e-05
5.05413e-05
4.98014e-05
4.90014e-05
4.81389e-05
4.72121e-05
5.34414e-05
5.11919e-05
4.87407e-05
4.60828e-05
4.32046e-05
4.00865e-05
3.67008e-05
3.30076e-05
2.89461e-05
2.44163e-05
1.92367e-05
1.30208e-05
3.15323e-08
1.18418e-10
1.2193e-10
3.2476e-08
1.33337e-05
1.96593e-05
2.4929e-05
2.95379e-05
3.36713e-05
3.74306e-05
4.08771e-05
4.40504e-05
4.69784e-05
4.96844e-05
5.21964e-05
5.45582e-05
4.7731e-05
4.87057e-05
4.96006e-05
5.0428e-05
5.11936e-05
5.19011e-05
5.25533e-05
5.31525e-05
5.37008e-05
5.42001e-05
5.4652e-05
5.50581e-05
5.54197e-05
5.5738e-05
5.60141e-05
5.62489e-05
5.64434e-05
5.65981e-05
5.67136e-05
5.67903e-05
5.68286e-05
5.68286e-05
5.67902e-05
5.67134e-05
5.65978e-05
5.64431e-05
5.62486e-05
5.60137e-05
5.57375e-05
5.54192e-05
5.50576e-05
5.46515e-05
5.41996e-05
5.37003e-05
5.3152e-05
5.25528e-05
5.19006e-05
5.11932e-05
5.04276e-05
4.96003e-05
4.87055e-05
4.77307e-05
5.45577e-05
5.21961e-05
4.96845e-05
4.69788e-05
4.4051e-05
4.08778e-05
3.74314e-05
3.36722e-05
2.95389e-05
2.493e-05
1.96603e-05
1.33347e-05
3.2481e-08
1.21951e-10
1.23303e-10
3.28459e-08
1.34558e-05
1.98243e-05
2.51296e-05
2.97702e-05
3.39329e-05
3.772e-05
4.11933e-05
4.43919e-05
4.73416e-05
5.006e-05
5.25593e-05
5.50085e-05
4.79922e-05
4.89553e-05
4.98551e-05
5.06926e-05
5.14699e-05
5.21893e-05
5.28532e-05
5.34638e-05
5.40231e-05
5.45329e-05
5.49947e-05
5.54101e-05
5.57803e-05
5.61064e-05
5.63894e-05
5.66303e-05
5.68299e-05
5.69887e-05
5.71073e-05
5.71862e-05
5.72255e-05
5.72255e-05
5.71861e-05
5.71072e-05
5.69886e-05
5.68297e-05
5.66301e-05
5.63892e-05
5.61061e-05
5.578e-05
5.54098e-05
5.49945e-05
5.45326e-05
5.40228e-05
5.34636e-05
5.2853e-05
5.21891e-05
5.14697e-05
5.06926e-05
4.98552e-05
4.89555e-05
4.79922e-05
5.50085e-05
5.25598e-05
5.00611e-05
4.73429e-05
4.43931e-05
4.11946e-05
3.77215e-05
3.39345e-05
2.97718e-05
2.51312e-05
1.98258e-05
1.34572e-05
3.2852e-08
1.23329e-10
1.23767e-10
3.29713e-08
1.34973e-05
1.98803e-05
2.51975e-05
2.98487e-05
3.40211e-05
3.78175e-05
4.12999e-05
4.45083e-05
4.74685e-05
5.01975e-05
5.27051e-05
4.7024e-05
4.8067e-05
4.90405e-05
4.99476e-05
5.07909e-05
5.15734e-05
5.22978e-05
5.29665e-05
5.35818e-05
5.41455e-05
5.46596e-05
5.51254e-05
5.55446e-05
5.59182e-05
5.62475e-05
5.65334e-05
5.67767e-05
5.69783e-05
5.71388e-05
5.72587e-05
5.73384e-05
5.73782e-05
5.73782e-05
5.73384e-05
5.72587e-05
5.71387e-05
5.69782e-05
5.67766e-05
5.65332e-05
5.62473e-05
5.59181e-05
5.55444e-05
5.51253e-05
5.46594e-05
5.41454e-05
5.35817e-05
5.29665e-05
5.22979e-05
5.15735e-05
5.07911e-05
4.99477e-05
4.90408e-05
4.80673e-05
4.70244e-05
5.27063e-05
5.01989e-05
4.74701e-05
4.45099e-05
4.13017e-05
3.78194e-05
3.40231e-05
2.98507e-05
2.51995e-05
1.98822e-05
1.3499e-05
3.29782e-08
1.23796e-10
1.23917e-10
3.3012e-08
1.35109e-05
1.98987e-05
2.52201e-05
2.9875e-05
3.40509e-05
3.78508e-05
4.13368e-05
4.45487e-05
4.75128e-05
5.02457e-05
5.27573e-05
4.70491e-05
4.80941e-05
4.90696e-05
4.99785e-05
5.08237e-05
5.1608e-05
5.23341e-05
5.30045e-05
5.36214e-05
5.41867e-05
5.47022e-05
5.51696e-05
5.559e-05
5.59649e-05
5.62953e-05
5.65822e-05
5.68264e-05
5.70287e-05
5.71898e-05
5.73102e-05
5.73902e-05
5.74301e-05
5.74301e-05
5.73901e-05
5.73101e-05
5.71897e-05
5.70286e-05
5.68263e-05
5.65821e-05
5.62952e-05
5.59648e-05
5.559e-05
5.51695e-05
5.47022e-05
5.41867e-05
5.36214e-05
5.30046e-05
5.23342e-05
5.16082e-05
5.08239e-05
4.99788e-05
4.907e-05
4.80945e-05
4.70496e-05
5.27587e-05
5.02473e-05
4.75146e-05
4.45507e-05
4.13388e-05
3.7853e-05
3.40532e-05
2.98772e-05
2.52222e-05
1.99007e-05
1.35126e-05
3.30192e-08
1.23947e-10
1.23961e-10
3.30241e-08
1.35149e-05
1.99042e-05
2.52268e-05
2.98829e-05
3.406e-05
3.78609e-05
4.1348e-05
4.45611e-05
4.75262e-05
5.02603e-05
5.27731e-05
4.70567e-05
4.81022e-05
4.90783e-05
4.99877e-05
5.08335e-05
5.16183e-05
5.2345e-05
5.30159e-05
5.36333e-05
5.41991e-05
5.47151e-05
5.51829e-05
5.56038e-05
5.5979e-05
5.63098e-05
5.6597e-05
5.68414e-05
5.7044e-05
5.72053e-05
5.73258e-05
5.74059e-05
5.74459e-05
5.74459e-05
5.74059e-05
5.73257e-05
5.72052e-05
5.7044e-05
5.68414e-05
5.65969e-05
5.63097e-05
5.5979e-05
5.56038e-05
5.51829e-05
5.47151e-05
5.41991e-05
5.36334e-05
5.3016e-05
5.23452e-05
5.16186e-05
5.08338e-05
4.99881e-05
4.90787e-05
4.81027e-05
4.70572e-05
5.27745e-05
5.0262e-05
4.75281e-05
4.45631e-05
4.13502e-05
3.78632e-05
3.40623e-05
2.98852e-05
2.52291e-05
1.99063e-05
1.35167e-05
3.30315e-08
1.23992e-10
1.23973e-10
3.30273e-08
1.3516e-05
1.99057e-05
2.52287e-05
2.98851e-05
3.40624e-05
3.78637e-05
4.1351e-05
4.45644e-05
4.75299e-05
5.02642e-05
5.27773e-05
4.70588e-05
4.81044e-05
4.90806e-05
4.99902e-05
5.08361e-05
5.16211e-05
5.23479e-05
5.3019e-05
5.36365e-05
5.42025e-05
5.47186e-05
5.51865e-05
5.56076e-05
5.59829e-05
5.63137e-05
5.6601e-05
5.68456e-05
5.70482e-05
5.72095e-05
5.73301e-05
5.74102e-05
5.74502e-05
5.74502e-05
5.74102e-05
5.733e-05
5.72095e-05
5.70482e-05
5.68455e-05
5.66009e-05
5.63137e-05
5.59829e-05
5.56075e-05
5.51865e-05
5.47187e-05
5.42025e-05
5.36366e-05
5.30191e-05
5.23481e-05
5.16214e-05
5.08364e-05
4.99906e-05
4.90811e-05
4.8105e-05
4.70593e-05
5.27788e-05
5.0266e-05
4.75318e-05
4.45665e-05
4.13533e-05
3.7866e-05
3.40648e-05
2.98874e-05
2.52309e-05
1.99078e-05
1.35178e-05
3.30348e-08
1.24004e-10
1.23976e-10
3.30281e-08
1.35163e-05
1.9906e-05
2.52291e-05
2.98856e-05
3.4063e-05
3.78643e-05
4.13518e-05
4.45652e-05
4.75308e-05
5.02652e-05
5.27784e-05
4.70593e-05
4.8105e-05
4.90812e-05
4.99908e-05
5.08368e-05
5.16218e-05
5.23487e-05
5.30198e-05
5.36373e-05
5.42033e-05
5.47195e-05
5.51874e-05
5.56085e-05
5.59839e-05
5.63147e-05
5.6602e-05
5.68466e-05
5.70493e-05
5.72106e-05
5.73311e-05
5.74113e-05
5.74513e-05
5.74513e-05
5.74113e-05
5.73311e-05
5.72105e-05
5.70492e-05
5.68466e-05
5.6602e-05
5.63147e-05
5.59838e-05
5.56085e-05
5.51874e-05
5.47195e-05
5.42034e-05
5.36374e-05
5.30199e-05
5.23489e-05
5.16221e-05
5.08371e-05
4.99912e-05
4.90817e-05
4.81055e-05
4.70598e-05
5.27798e-05
5.02669e-05
4.75327e-05
4.45673e-05
4.1354e-05
3.78667e-05
3.40654e-05
2.98879e-05
2.52314e-05
1.99082e-05
1.35181e-05
3.30356e-08
1.24007e-10
1.23977e-10
3.30283e-08
1.35163e-05
1.99061e-05
2.52292e-05
2.98857e-05
3.40632e-05
3.78645e-05
4.1352e-05
4.45654e-05
4.7531e-05
5.02654e-05
5.27786e-05
4.70594e-05
4.81051e-05
4.90813e-05
4.9991e-05
5.08369e-05
5.1622e-05
5.23488e-05
5.30199e-05
5.36375e-05
5.42035e-05
5.47197e-05
5.51877e-05
5.56087e-05
5.59841e-05
5.6315e-05
5.66023e-05
5.68468e-05
5.70495e-05
5.72108e-05
5.73314e-05
5.74115e-05
5.74515e-05
5.74515e-05
5.74115e-05
5.73314e-05
5.72108e-05
5.70494e-05
5.68468e-05
5.66022e-05
5.63149e-05
5.59841e-05
5.56087e-05
5.51877e-05
5.47197e-05
5.42036e-05
5.36376e-05
5.30201e-05
5.2349e-05
5.16223e-05
5.08373e-05
4.99914e-05
4.90818e-05
4.81056e-05
4.70599e-05
5.27801e-05
5.02672e-05
4.75329e-05
4.45675e-05
4.13542e-05
3.78668e-05
3.40655e-05
2.98881e-05
2.52315e-05
1.99083e-05
1.35182e-05
3.30358e-08
1.24008e-10
1.23977e-10
3.30283e-08
1.35163e-05
1.99061e-05
2.52292e-05
2.98857e-05
3.40632e-05
3.78645e-05
4.1352e-05
4.45654e-05
4.7531e-05
5.02654e-05
5.27786e-05
4.70594e-05
4.81051e-05
4.90814e-05
4.9991e-05
5.0837e-05
5.1622e-05
5.23489e-05
5.302e-05
5.36375e-05
5.42036e-05
5.47198e-05
5.51877e-05
5.56087e-05
5.59842e-05
5.6315e-05
5.66023e-05
5.68469e-05
5.70496e-05
5.72109e-05
5.73314e-05
5.74116e-05
5.74516e-05
5.74516e-05
5.74116e-05
5.73314e-05
5.72108e-05
5.70495e-05
5.68468e-05
5.66022e-05
5.6315e-05
5.59841e-05
5.56087e-05
5.51877e-05
5.47198e-05
5.42036e-05
5.36377e-05
5.30201e-05
5.23491e-05
5.16223e-05
5.08373e-05
4.99914e-05
4.90818e-05
4.81057e-05
4.706e-05
5.27801e-05
5.02672e-05
4.7533e-05
4.45675e-05
4.13542e-05
3.78669e-05
3.40656e-05
2.98881e-05
2.52315e-05
1.99083e-05
1.35182e-05
3.30358e-08
1.24008e-10
1.23977e-10
3.30283e-08
1.35163e-05
1.99061e-05
2.52292e-05
2.98857e-05
3.40632e-05
3.78645e-05
4.1352e-05
4.45654e-05
4.7531e-05
5.02655e-05
5.27786e-05
4.70594e-05
4.81051e-05
4.90814e-05
4.9991e-05
5.0837e-05
5.1622e-05
5.23489e-05
5.302e-05
5.36376e-05
5.42036e-05
5.47198e-05
5.51877e-05
5.56088e-05
5.59842e-05
5.6315e-05
5.66023e-05
5.68469e-05
5.70496e-05
5.72109e-05
5.73314e-05
5.74116e-05
5.74516e-05
5.74516e-05
5.74116e-05
5.73314e-05
5.72109e-05
5.70495e-05
5.68469e-05
5.66023e-05
5.6315e-05
5.59841e-05
5.56087e-05
5.51877e-05
5.47198e-05
5.42036e-05
5.36377e-05
5.30201e-05
5.23491e-05
5.16223e-05
5.08373e-05
4.99914e-05
4.90818e-05
4.81057e-05
4.706e-05
5.27801e-05
5.02672e-05
4.7533e-05
4.45675e-05
4.13542e-05
3.78669e-05
3.40656e-05
2.98881e-05
2.52315e-05
1.99083e-05
1.35182e-05
3.30358e-08
1.24008e-10
1.23977e-10
3.30283e-08
1.35163e-05
1.99061e-05
2.52292e-05
2.98857e-05
3.40632e-05
3.78645e-05
4.1352e-05
4.45654e-05
4.7531e-05
5.02655e-05
5.27786e-05
4.70594e-05
4.81051e-05
4.90814e-05
4.9991e-05
5.0837e-05
5.1622e-05
5.23489e-05
5.302e-05
5.36376e-05
5.42036e-05
5.47198e-05
5.51877e-05
5.56088e-05
5.59842e-05
5.6315e-05
5.66023e-05
5.68469e-05
5.70496e-05
5.72109e-05
5.73315e-05
5.74116e-05
5.74516e-05
5.74516e-05
5.74116e-05
5.73314e-05
5.72109e-05
5.70495e-05
5.68469e-05
5.66023e-05
5.6315e-05
5.59841e-05
5.56087e-05
5.51877e-05
5.47198e-05
5.42036e-05
5.36377e-05
5.30201e-05
5.23491e-05
5.16223e-05
5.08373e-05
4.99914e-05
4.90818e-05
4.81057e-05
4.706e-05
5.27801e-05
5.02672e-05
4.7533e-05
4.45675e-05
4.13542e-05
3.78669e-05
3.40656e-05
2.98881e-05
2.52315e-05
1.99083e-05
1.35182e-05
3.30358e-08
1.24008e-10
1.23977e-10
3.30283e-08
1.35163e-05
1.99061e-05
2.52292e-05
2.98857e-05
3.40632e-05
3.78645e-05
4.1352e-05
4.45654e-05
4.7531e-05
5.02655e-05
5.27786e-05
4.70594e-05
4.81051e-05
4.90814e-05
4.9991e-05
5.0837e-05
5.1622e-05
5.23489e-05
5.302e-05
5.36376e-05
5.42036e-05
5.47198e-05
5.51877e-05
5.56088e-05
5.59842e-05
5.6315e-05
5.66023e-05
5.68469e-05
5.70496e-05
5.72109e-05
5.73315e-05
5.74116e-05
5.74516e-05
5.74516e-05
5.74116e-05
5.73314e-05
5.72109e-05
5.70495e-05
5.68469e-05
5.66023e-05
5.6315e-05
5.59841e-05
5.56087e-05
5.51877e-05
5.47198e-05
5.42036e-05
5.36377e-05
5.30201e-05
5.23491e-05
5.16223e-05
5.08373e-05
4.99914e-05
4.90818e-05
4.81057e-05
4.706e-05
5.27801e-05
5.02672e-05
4.7533e-05
4.45675e-05
4.13542e-05
3.78669e-05
3.40656e-05
2.98881e-05
2.52315e-05
1.99083e-05
1.35182e-05
3.30358e-08
1.24008e-10
1.23977e-10
3.30283e-08
1.35163e-05
1.99061e-05
2.52292e-05
2.98857e-05
3.40632e-05
3.78645e-05
4.1352e-05
4.45654e-05
4.7531e-05
5.02655e-05
5.27786e-05
4.70594e-05
4.81051e-05
4.90814e-05
4.9991e-05
5.0837e-05
5.1622e-05
5.23489e-05
5.302e-05
5.36376e-05
5.42036e-05
5.47198e-05
5.51877e-05
5.56088e-05
5.59842e-05
5.6315e-05
5.66023e-05
5.68469e-05
5.70496e-05
5.72109e-05
5.73315e-05
5.74116e-05
5.74516e-05
5.74516e-05
5.74116e-05
5.73314e-05
5.72109e-05
5.70495e-05
5.68469e-05
5.66023e-05
5.6315e-05
5.59841e-05
5.56087e-05
5.51877e-05
5.47198e-05
5.42036e-05
5.36377e-05
5.30201e-05
5.23491e-05
5.16223e-05
5.08373e-05
4.99914e-05
4.90818e-05
4.81057e-05
4.706e-05
5.27801e-05
5.02672e-05
4.7533e-05
4.45675e-05
4.13542e-05
3.78669e-05
3.40656e-05
2.98881e-05
2.52315e-05
1.99083e-05
1.35182e-05
3.30358e-08
1.24008e-10
1.23977e-10
3.30283e-08
1.35163e-05
1.99061e-05
2.52292e-05
2.98857e-05
3.40632e-05
3.78645e-05
4.1352e-05
4.45654e-05
4.7531e-05
5.02655e-05
5.27786e-05
4.70594e-05
4.81051e-05
4.90814e-05
4.9991e-05
5.0837e-05
5.1622e-05
5.23489e-05
5.302e-05
5.36376e-05
5.42036e-05
5.47198e-05
5.51877e-05
5.56088e-05
5.59842e-05
5.6315e-05
5.66023e-05
5.68469e-05
5.70496e-05
5.72109e-05
5.73315e-05
5.74116e-05
5.74516e-05
5.74516e-05
5.74116e-05
5.73314e-05
5.72109e-05
5.70495e-05
5.68469e-05
5.66023e-05
5.6315e-05
5.59841e-05
5.56087e-05
5.51877e-05
5.47198e-05
5.42036e-05
5.36377e-05
5.30201e-05
5.23491e-05
5.16223e-05
5.08373e-05
4.99914e-05
4.90818e-05
4.81057e-05
4.706e-05
5.27801e-05
5.02672e-05
4.7533e-05
4.45675e-05
4.13542e-05
3.78669e-05
3.40656e-05
2.98881e-05
2.52315e-05
1.99083e-05
1.35182e-05
3.30358e-08
1.24008e-10
1.23977e-10
3.30283e-08
1.35163e-05
1.99061e-05
2.52292e-05
2.98857e-05
3.40632e-05
3.78645e-05
4.1352e-05
4.45654e-05
4.7531e-05
5.02655e-05
5.27786e-05
4.70594e-05
4.81051e-05
4.90814e-05
4.9991e-05
5.0837e-05
5.1622e-05
5.23489e-05
5.302e-05
5.36376e-05
5.42036e-05
5.47198e-05
5.51877e-05
5.56088e-05
5.59842e-05
5.6315e-05
5.66023e-05
5.68469e-05
5.70496e-05
5.72109e-05
5.73315e-05
5.74116e-05
5.74516e-05
5.74516e-05
5.74116e-05
5.73314e-05
5.72109e-05
5.70495e-05
5.68469e-05
5.66023e-05
5.6315e-05
5.59841e-05
5.56087e-05
5.51877e-05
5.47198e-05
5.42036e-05
5.36377e-05
5.30201e-05
5.23491e-05
5.16223e-05
5.08373e-05
4.99914e-05
4.90818e-05
4.81057e-05
4.706e-05
5.27801e-05
5.02672e-05
4.7533e-05
4.45675e-05
4.13542e-05
3.78669e-05
3.40656e-05
2.98881e-05
2.52315e-05
1.99083e-05
1.35182e-05
3.30358e-08
1.24008e-10
1.23977e-10
3.30283e-08
1.35163e-05
1.99061e-05
2.52292e-05
2.98857e-05
3.40632e-05
3.78645e-05
4.1352e-05
4.45654e-05
4.7531e-05
5.02655e-05
5.27786e-05
4.70594e-05
4.81051e-05
4.90814e-05
4.9991e-05
5.0837e-05
5.1622e-05
5.23489e-05
5.302e-05
5.36376e-05
5.42036e-05
5.47198e-05
5.51877e-05
5.56088e-05
5.59842e-05
5.6315e-05
5.66023e-05
5.68469e-05
5.70496e-05
5.72109e-05
5.73315e-05
5.74116e-05
5.74516e-05
5.74516e-05
5.74116e-05
5.73314e-05
5.72109e-05
5.70495e-05
5.68469e-05
5.66023e-05
5.6315e-05
5.59841e-05
5.56087e-05
5.51877e-05
5.47198e-05
5.42036e-05
5.36377e-05
5.30201e-05
5.23491e-05
5.16223e-05
5.08373e-05
4.99914e-05
4.90818e-05
4.81057e-05
4.706e-05
5.27801e-05
5.02672e-05
4.7533e-05
4.45675e-05
4.13542e-05
3.78669e-05
3.40656e-05
2.98881e-05
2.52315e-05
1.99083e-05
1.35182e-05
3.30358e-08
1.24008e-10
1.23977e-10
3.30283e-08
1.35163e-05
1.99061e-05
2.52292e-05
2.98857e-05
3.40632e-05
3.78645e-05
4.1352e-05
4.45654e-05
4.7531e-05
5.02655e-05
5.27786e-05
4.70594e-05
4.81051e-05
4.90814e-05
4.9991e-05
5.0837e-05
5.1622e-05
5.23489e-05
5.302e-05
5.36376e-05
5.42036e-05
5.47198e-05
5.51877e-05
5.56088e-05
5.59842e-05
5.6315e-05
5.66023e-05
5.68469e-05
5.70496e-05
5.72109e-05
5.73315e-05
5.74116e-05
5.74516e-05
5.74516e-05
5.74116e-05
5.73314e-05
5.72109e-05
5.70495e-05
5.68469e-05
5.66023e-05
5.6315e-05
5.59841e-05
5.56087e-05
5.51877e-05
5.47198e-05
5.42036e-05
5.36377e-05
5.30201e-05
5.23491e-05
5.16223e-05
5.08373e-05
4.99914e-05
4.90818e-05
4.81057e-05
4.706e-05
5.27801e-05
5.02672e-05
4.7533e-05
4.45675e-05
4.13542e-05
3.78669e-05
3.40656e-05
2.98881e-05
2.52315e-05
1.99083e-05
1.35182e-05
3.30358e-08
1.24008e-10
1.23977e-10
3.30283e-08
1.35163e-05
1.99061e-05
2.52292e-05
2.98857e-05
3.40632e-05
3.78645e-05
4.1352e-05
4.45654e-05
4.7531e-05
5.02655e-05
5.27786e-05
4.70594e-05
4.81051e-05
4.90814e-05
4.9991e-05
5.0837e-05
5.1622e-05
5.23489e-05
5.302e-05
5.36376e-05
5.42036e-05
5.47198e-05
5.51877e-05
5.56088e-05
5.59842e-05
5.6315e-05
5.66023e-05
5.68469e-05
5.70496e-05
5.72109e-05
5.73315e-05
5.74116e-05
5.74516e-05
5.74516e-05
5.74116e-05
5.73314e-05
5.72109e-05
5.70495e-05
5.68469e-05
5.66023e-05
5.6315e-05
5.59841e-05
5.56087e-05
5.51877e-05
5.47198e-05
5.42036e-05
5.36377e-05
5.30201e-05
5.23491e-05
5.16223e-05
5.08373e-05
4.99914e-05
4.90818e-05
4.81057e-05
4.706e-05
5.27801e-05
5.02672e-05
4.7533e-05
4.45675e-05
4.13542e-05
3.78669e-05
3.40656e-05
2.98881e-05
2.52315e-05
1.99083e-05
1.35182e-05
3.30358e-08
1.24008e-10
1.23977e-10
3.30283e-08
1.35163e-05
1.99061e-05
2.52292e-05
2.98857e-05
3.40632e-05
3.78645e-05
4.1352e-05
4.45654e-05
4.7531e-05
5.02655e-05
5.27786e-05
4.70594e-05
4.81051e-05
4.90814e-05
4.9991e-05
5.0837e-05
5.1622e-05
5.23489e-05
5.302e-05
5.36376e-05
5.42036e-05
5.47198e-05
5.51877e-05
5.56088e-05
5.59842e-05
5.6315e-05
5.66023e-05
5.68469e-05
5.70496e-05
5.72109e-05
5.73315e-05
5.74116e-05
5.74516e-05
5.74516e-05
5.74116e-05
5.73314e-05
5.72109e-05
5.70495e-05
5.68469e-05
5.66023e-05
5.6315e-05
5.59841e-05
5.56087e-05
5.51877e-05
5.47198e-05
5.42036e-05
5.36377e-05
5.30201e-05
5.23491e-05
5.16223e-05
5.08373e-05
4.99914e-05
4.90818e-05
4.81057e-05
4.706e-05
5.27801e-05
5.02672e-05
4.7533e-05
4.45675e-05
4.13542e-05
3.78669e-05
3.40656e-05
2.98881e-05
2.52315e-05
1.99083e-05
1.35182e-05
3.30358e-08
1.24008e-10
1.23977e-10
3.30283e-08
1.35163e-05
1.99061e-05
2.52292e-05
2.98857e-05
3.40632e-05
3.78645e-05
4.1352e-05
4.45654e-05
4.7531e-05
5.02655e-05
5.27786e-05
4.70594e-05
4.81051e-05
4.90814e-05
4.9991e-05
5.0837e-05
5.1622e-05
5.23489e-05
5.302e-05
5.36376e-05
5.42036e-05
5.47198e-05
5.51877e-05
5.56088e-05
5.59842e-05
5.6315e-05
5.66023e-05
5.68469e-05
5.70496e-05
5.72109e-05
5.73315e-05
5.74116e-05
5.74516e-05
5.74516e-05
5.74116e-05
5.73314e-05
5.72109e-05
5.70495e-05
5.68469e-05
5.66023e-05
5.6315e-05
5.59841e-05
5.56087e-05
5.51877e-05
5.47198e-05
5.42036e-05
5.36377e-05
5.30201e-05
5.23491e-05
5.16223e-05
5.08373e-05
4.99914e-05
4.90818e-05
4.81057e-05
4.706e-05
5.27801e-05
5.02672e-05
4.7533e-05
4.45675e-05
4.13542e-05
3.78669e-05
3.40656e-05
2.98881e-05
2.52315e-05
1.99083e-05
1.35182e-05
3.30358e-08
1.24008e-10
1.23977e-10
3.30283e-08
1.35163e-05
1.99061e-05
2.52292e-05
2.98857e-05
3.40632e-05
3.78645e-05
4.1352e-05
4.45654e-05
4.7531e-05
5.02655e-05
5.27786e-05
4.70594e-05
4.81051e-05
4.90814e-05
4.9991e-05
5.0837e-05
5.1622e-05
5.23489e-05
5.302e-05
5.36376e-05
5.42036e-05
5.47198e-05
5.51877e-05
5.56088e-05
5.59842e-05
5.6315e-05
5.66023e-05
5.68469e-05
5.70496e-05
5.72109e-05
5.73315e-05
5.74116e-05
5.74516e-05
5.74516e-05
5.74116e-05
5.73314e-05
5.72109e-05
5.70495e-05
5.68469e-05
5.66023e-05
5.6315e-05
5.59841e-05
5.56087e-05
5.51877e-05
5.47198e-05
5.42036e-05
5.36377e-05
5.30201e-05
5.23491e-05
5.16223e-05
5.08373e-05
4.99914e-05
4.90818e-05
4.81057e-05
4.706e-05
5.27801e-05
5.02672e-05
4.7533e-05
4.45675e-05
4.13542e-05
3.78669e-05
3.40656e-05
2.98881e-05
2.52315e-05
1.99083e-05
1.35182e-05
3.30358e-08
1.24008e-10
1.23977e-10
3.30283e-08
1.35163e-05
1.99061e-05
2.52292e-05
2.98857e-05
3.40632e-05
3.78645e-05
4.1352e-05
4.45654e-05
4.7531e-05
5.02655e-05
5.27786e-05
4.70594e-05
4.81051e-05
4.90814e-05
4.9991e-05
5.0837e-05
5.1622e-05
5.23489e-05
5.302e-05
5.36376e-05
5.42036e-05
5.47198e-05
5.51877e-05
5.56088e-05
5.59842e-05
5.6315e-05
5.66023e-05
5.68469e-05
5.70496e-05
5.72109e-05
5.73315e-05
5.74116e-05
5.74516e-05
5.74516e-05
5.74116e-05
5.73314e-05
5.72109e-05
5.70495e-05
5.68469e-05
5.66023e-05
5.6315e-05
5.59841e-05
5.56087e-05
5.51877e-05
5.47198e-05
5.42036e-05
5.36377e-05
5.30201e-05
5.23491e-05
5.16223e-05
5.08373e-05
4.99914e-05
4.90818e-05
4.81057e-05
4.706e-05
5.27801e-05
5.02672e-05
4.7533e-05
4.45675e-05
4.13542e-05
3.78669e-05
3.40656e-05
2.98881e-05
2.52315e-05
1.99083e-05
1.35182e-05
3.30358e-08
1.24008e-10
1.23977e-10
3.30283e-08
1.35163e-05
1.99061e-05
2.52292e-05
2.98857e-05
3.40632e-05
3.78645e-05
4.1352e-05
4.45654e-05
4.7531e-05
5.02655e-05
5.27786e-05
4.70594e-05
4.81051e-05
4.90814e-05
4.9991e-05
5.0837e-05
5.1622e-05
5.23489e-05
5.302e-05
5.36376e-05
5.42036e-05
5.47198e-05
5.51877e-05
5.56088e-05
5.59842e-05
5.6315e-05
5.66023e-05
5.68469e-05
5.70496e-05
5.72109e-05
5.73315e-05
5.74116e-05
5.74516e-05
5.74516e-05
5.74116e-05
5.73314e-05
5.72109e-05
5.70495e-05
5.68469e-05
5.66023e-05
5.6315e-05
5.59841e-05
5.56087e-05
5.51877e-05
5.47198e-05
5.42036e-05
5.36377e-05
5.30201e-05
5.23491e-05
5.16223e-05
5.08373e-05
4.99914e-05
4.90818e-05
4.81057e-05
4.706e-05
5.27801e-05
5.02672e-05
4.7533e-05
4.45675e-05
4.13542e-05
3.78669e-05
3.40656e-05
2.98881e-05
2.52315e-05
1.99083e-05
1.35182e-05
3.30358e-08
1.24008e-10
1.23977e-10
3.30283e-08
1.35163e-05
1.99061e-05
2.52292e-05
2.98857e-05
3.40632e-05
3.78645e-05
4.1352e-05
4.45654e-05
4.7531e-05
5.02655e-05
5.27786e-05
4.70594e-05
4.81051e-05
4.90814e-05
4.9991e-05
5.0837e-05
5.1622e-05
5.23489e-05
5.302e-05
5.36376e-05
5.42036e-05
5.47198e-05
5.51877e-05
5.56088e-05
5.59842e-05
5.6315e-05
5.66023e-05
5.68469e-05
5.70496e-05
5.72109e-05
5.73315e-05
5.74116e-05
5.74516e-05
5.74516e-05
5.74116e-05
5.73314e-05
5.72109e-05
5.70495e-05
5.68469e-05
5.66023e-05
5.6315e-05
5.59841e-05
5.56087e-05
5.51877e-05
5.47198e-05
5.42036e-05
5.36377e-05
5.30201e-05
5.23491e-05
5.16223e-05
5.08373e-05
4.99914e-05
4.90818e-05
4.81057e-05
4.706e-05
5.27801e-05
5.02672e-05
4.7533e-05
4.45675e-05
4.13542e-05
3.78669e-05
3.40656e-05
2.98881e-05
2.52315e-05
1.99083e-05
1.35182e-05
3.30358e-08
1.24008e-10
1.23977e-10
3.30283e-08
1.35163e-05
1.99061e-05
2.52292e-05
2.98857e-05
3.40632e-05
3.78645e-05
4.1352e-05
4.45654e-05
4.7531e-05
5.02655e-05
5.27786e-05
4.70594e-05
4.81051e-05
4.90814e-05
4.9991e-05
5.0837e-05
5.1622e-05
5.23489e-05
5.302e-05
5.36376e-05
5.42036e-05
5.47198e-05
5.51877e-05
5.56088e-05
5.59842e-05
5.6315e-05
5.66023e-05
5.68469e-05
5.70496e-05
5.72109e-05
5.73315e-05
5.74116e-05
5.74516e-05
5.74516e-05
5.74116e-05
5.73314e-05
5.72109e-05
5.70495e-05
5.68469e-05
5.66023e-05
5.6315e-05
5.59841e-05
5.56087e-05
5.51877e-05
5.47198e-05
5.42036e-05
5.36377e-05
5.30201e-05
5.23491e-05
5.16223e-05
5.08373e-05
4.99914e-05
4.90818e-05
4.81057e-05
4.706e-05
5.27801e-05
5.02672e-05
4.7533e-05
4.45675e-05
4.13542e-05
3.78669e-05
3.40656e-05
2.98881e-05
2.52315e-05
1.99083e-05
1.35182e-05
3.30358e-08
1.24008e-10
1.23977e-10
3.30283e-08
1.35163e-05
1.99061e-05
2.52292e-05
2.98857e-05
3.40632e-05
3.78645e-05
4.1352e-05
4.45654e-05
4.7531e-05
5.02655e-05
5.27786e-05
4.70594e-05
4.81051e-05
4.90814e-05
4.9991e-05
5.0837e-05
5.1622e-05
5.23489e-05
5.302e-05
5.36376e-05
5.42036e-05
5.47198e-05
5.51877e-05
5.56088e-05
5.59842e-05
5.6315e-05
5.66023e-05
5.68469e-05
5.70496e-05
5.72109e-05
5.73315e-05
5.74116e-05
5.74516e-05
5.74516e-05
5.74116e-05
5.73314e-05
5.72109e-05
5.70495e-05
5.68469e-05
5.66023e-05
5.6315e-05
5.59841e-05
5.56087e-05
5.51877e-05
5.47198e-05
5.42036e-05
5.36377e-05
5.30201e-05
5.23491e-05
5.16223e-05
5.08373e-05
4.99914e-05
4.90818e-05
4.81057e-05
4.706e-05
5.27801e-05
5.02672e-05
4.7533e-05
4.45675e-05
4.13542e-05
3.78669e-05
3.40656e-05
2.98881e-05
2.52315e-05
1.99083e-05
1.35182e-05
3.30358e-08
1.24008e-10
1.23977e-10
3.30283e-08
1.35163e-05
1.99061e-05
2.52292e-05
2.98857e-05
3.40632e-05
3.78645e-05
4.1352e-05
4.45654e-05
4.7531e-05
5.02655e-05
5.27786e-05
4.70594e-05
4.81051e-05
4.90814e-05
4.9991e-05
5.0837e-05
5.1622e-05
5.23489e-05
5.302e-05
5.36376e-05
5.42036e-05
5.47198e-05
5.51877e-05
5.56088e-05
5.59842e-05
5.6315e-05
5.66023e-05
5.68469e-05
5.70496e-05
5.72109e-05
5.73315e-05
5.74116e-05
5.74516e-05
5.74516e-05
5.74116e-05
5.73314e-05
5.72109e-05
5.70495e-05
5.68469e-05
5.66023e-05
5.6315e-05
5.59841e-05
5.56087e-05
5.51877e-05
5.47198e-05
5.42036e-05
5.36377e-05
5.30201e-05
5.23491e-05
5.16223e-05
5.08373e-05
4.99914e-05
4.90818e-05
4.81057e-05
4.706e-05
5.27801e-05
5.02672e-05
4.7533e-05
4.45675e-05
4.13542e-05
3.78669e-05
3.40656e-05
2.98881e-05
2.52315e-05
1.99083e-05
1.35182e-05
3.30358e-08
1.24008e-10
1.23977e-10
3.30283e-08
1.35163e-05
1.99061e-05
2.52292e-05
2.98857e-05
3.40632e-05
3.78645e-05
4.1352e-05
4.45654e-05
4.7531e-05
5.02655e-05
5.27786e-05
4.70594e-05
4.81051e-05
4.90814e-05
4.9991e-05
5.0837e-05
5.1622e-05
5.23489e-05
5.302e-05
5.36376e-05
5.42036e-05
5.47198e-05
5.51877e-05
5.56088e-05
5.59842e-05
5.6315e-05
5.66023e-05
5.68469e-05
5.70496e-05
5.72109e-05
5.73315e-05
5.74116e-05
5.74516e-05
5.74516e-05
5.74116e-05
5.73314e-05
5.72109e-05
5.70495e-05
5.68469e-05
5.66023e-05
5.6315e-05
5.59841e-05
5.56087e-05
5.51877e-05
5.47198e-05
5.42036e-05
5.36377e-05
5.30201e-05
5.23491e-05
5.16223e-05
5.08373e-05
4.99914e-05
4.90818e-05
4.81057e-05
4.706e-05
5.27801e-05
5.02672e-05
4.7533e-05
4.45675e-05
4.13542e-05
3.78669e-05
3.40656e-05
2.98881e-05
2.52315e-05
1.99083e-05
1.35182e-05
3.30358e-08
1.24008e-10
1.23977e-10
3.30283e-08
1.35163e-05
1.99061e-05
2.52292e-05
2.98857e-05
3.40632e-05
3.78645e-05
4.1352e-05
4.45654e-05
4.7531e-05
5.02655e-05
5.27786e-05
4.70594e-05
4.81051e-05
4.90814e-05
4.9991e-05
5.0837e-05
5.1622e-05
5.23489e-05
5.302e-05
5.36376e-05
5.42036e-05
5.47198e-05
5.51877e-05
5.56088e-05
5.59842e-05
5.6315e-05
5.66023e-05
5.68469e-05
5.70496e-05
5.72109e-05
5.73315e-05
5.74116e-05
5.74516e-05
5.74516e-05
5.74116e-05
5.73314e-05
5.72109e-05
5.70495e-05
5.68469e-05
5.66023e-05
5.6315e-05
5.59841e-05
5.56087e-05
5.51877e-05
5.47198e-05
5.42036e-05
5.36377e-05
5.30201e-05
5.23491e-05
5.16223e-05
5.08373e-05
4.99914e-05
4.90818e-05
4.81057e-05
4.706e-05
5.27801e-05
5.02672e-05
4.7533e-05
4.45675e-05
4.13542e-05
3.78669e-05
3.40656e-05
2.98881e-05
2.52315e-05
1.99083e-05
1.35182e-05
3.30358e-08
1.24008e-10
1.23977e-10
3.30283e-08
1.35163e-05
1.99061e-05
2.52292e-05
2.98857e-05
3.40632e-05
3.78645e-05
4.1352e-05
4.45654e-05
4.7531e-05
5.02655e-05
5.27786e-05
4.70594e-05
4.81051e-05
4.90814e-05
4.9991e-05
5.0837e-05
5.1622e-05
5.23489e-05
5.302e-05
5.36376e-05
5.42036e-05
5.47198e-05