/*--------------------------------*- C++ -*----------------------------------*\
  =========                 |
  \\      /  F ield         | OpenFOAM: The Open Source CFD Toolbox
   \\    /   O peration     | Website:  https://openfoam.org
    \\  /    A nd           | Version:  13
     \\/     M anipulation  |
\*---------------------------------------------------------------------------*/
FoamFile
{
    format      ascii;
    class       volScalarField;
    location    "22.5";
    object      nut;
}
// * * * * * * * * * * * * * * * * * * * * * * * * * * * * * * * * * * * * * //

dimensions      [0 2 -1 0 0 0 0];

internalField   nonuniform List<scalar> 
315000
(
1.00617e-12
2.62388e-10
5.95811e-09
1.05888e-08
1.5158e-08
1.96408e-08
2.40173e-08
2.82688e-08
3.23761e-08
3.63204e-08
4.00831e-08
4.36474e-08
4.69985e-08
5.01246e-08
5.30171e-08
5.5672e-08
5.8091e-08
6.02839e-08
6.22713e-08
6.40861e-08
6.5777e-08
6.73398e-08
6.87658e-08
7.00516e-08
7.1198e-08
7.22096e-08
7.30925e-08
7.38538e-08
7.45008e-08
7.50406e-08
7.54795e-08
7.58233e-08
7.60766e-08
7.62431e-08
7.63253e-08
7.63245e-08
7.62405e-08
7.60724e-08
7.58175e-08
7.54723e-08
7.50322e-08
7.44916e-08
7.38441e-08
7.30826e-08
7.22001e-08
7.11895e-08
7.00447e-08
6.87617e-08
6.73394e-08
6.57813e-08
6.40944e-08
6.22794e-08
6.02906e-08
5.80993e-08
5.56841e-08
5.30341e-08
5.01469e-08
4.70265e-08
4.3681e-08
4.01222e-08
3.63645e-08
3.24247e-08
2.8321e-08
2.4072e-08
1.96963e-08
1.52121e-08
1.06378e-08
5.99528e-09
2.64639e-10
1.01622e-12
2.49063e-11
6.60352e-09
1.42665e-06
2.4429e-06
3.3772e-06
4.24211e-06
5.04593e-06
5.7942e-06
6.49063e-06
7.13775e-06
7.73743e-06
8.29109e-06
8.79996e-06
9.26521e-06
9.68799e-06
1.00694e-05
1.04106e-05
1.07129e-05
1.09775e-05
1.12041e-05
1.14228e-05
1.16275e-05
1.1815e-05
1.19839e-05
1.21343e-05
1.22667e-05
1.2382e-05
1.24813e-05
1.25655e-05
1.26357e-05
1.26927e-05
1.27374e-05
1.27703e-05
1.27919e-05
1.28026e-05
1.28025e-05
1.27916e-05
1.27698e-05
1.27367e-05
1.26919e-05
1.26347e-05
1.25644e-05
1.248e-05
1.23807e-05
1.22654e-05
1.2133e-05
1.19827e-05
1.18138e-05
1.16265e-05
1.1422e-05
1.12035e-05
1.09772e-05
1.07129e-05
1.0411e-05
1.00702e-05
9.68927e-06
9.267e-06
8.80228e-06
8.29393e-06
7.74078e-06
7.14159e-06
6.49491e-06
5.79884e-06
5.0508e-06
4.24703e-06
3.38193e-06
2.44706e-06
1.42968e-06
6.62097e-09
2.49774e-11
9.71059e-11
2.57884e-08
1.10514e-05
1.65519e-05
2.11424e-05
2.51502e-05
2.87312e-05
3.19717e-05
3.49248e-05
3.76254e-05
4.00983e-05
4.23622e-05
4.44319e-05
4.63198e-05
4.80481e-05
4.96229e-05
5.10503e-05
5.23362e-05
5.34835e-05
5.45604e-05
4.71152e-05
4.75025e-05
4.78503e-05
4.81595e-05
4.84322e-05
4.86707e-05
4.88777e-05
4.90554e-05
4.92061e-05
4.93315e-05
4.94335e-05
4.95133e-05
4.95722e-05
4.96109e-05
4.96301e-05
4.96299e-05
4.96105e-05
4.95716e-05
4.95125e-05
4.94324e-05
4.93302e-05
4.92046e-05
4.90538e-05
4.88759e-05
4.86688e-05
4.84302e-05
4.81575e-05
4.78482e-05
4.75004e-05
4.71132e-05
5.45559e-05
5.34796e-05
5.23334e-05
5.10484e-05
4.9622e-05
4.80483e-05
4.63209e-05
4.4434e-05
4.23654e-05
4.01023e-05
3.76302e-05
3.49304e-05
3.19782e-05
2.87383e-05
2.51578e-05
2.11503e-05
1.65595e-05
1.1058e-05
2.5811e-08
9.71965e-11
1.31821e-10
3.5032e-08
1.41182e-05
2.06663e-05
2.60806e-05
3.07761e-05
3.49475e-05
3.87021e-05
4.21055e-05
4.52011e-05
4.80186e-05
5.05772e-05
5.28854e-05
4.69257e-05
4.78426e-05
4.868e-05
4.94426e-05
5.01354e-05
5.0764e-05
5.13351e-05
5.18474e-05
5.23057e-05
5.27143e-05
5.30771e-05
5.33976e-05
5.3679e-05
5.3924e-05
5.41354e-05
5.43153e-05
5.44657e-05
5.45884e-05
5.46848e-05
5.4756e-05
5.4803e-05
5.48263e-05
5.48262e-05
5.48027e-05
5.47555e-05
5.46841e-05
5.45875e-05
5.44646e-05
5.4314e-05
5.4134e-05
5.39225e-05
5.36773e-05
5.33959e-05
5.30753e-05
5.27124e-05
5.23037e-05
5.18454e-05
5.13332e-05
5.07623e-05
5.01337e-05
4.94411e-05
4.86787e-05
4.78415e-05
4.69247e-05
5.28839e-05
5.05765e-05
4.8018e-05
4.52007e-05
4.21055e-05
3.87025e-05
3.49483e-05
3.07772e-05
2.60819e-05
2.06679e-05
1.41198e-05
3.504e-08
1.31855e-10
1.48708e-10
3.95435e-08
1.55344e-05
2.2544e-05
2.83287e-05
3.33393e-05
3.77852e-05
4.1781e-05
4.53975e-05
4.86846e-05
5.16885e-05
5.44687e-05
4.77998e-05
4.89102e-05
4.99122e-05
5.08234e-05
5.16536e-05
5.24095e-05
5.30967e-05
5.37201e-05
5.42841e-05
5.47927e-05
5.52495e-05
5.56581e-05
5.60215e-05
5.63427e-05
5.66241e-05
5.68682e-05
5.7077e-05
5.72525e-05
5.73963e-05
5.75096e-05
5.75936e-05
5.76492e-05
5.76767e-05
5.76767e-05
5.76489e-05
5.75933e-05
5.75091e-05
5.73956e-05
5.72518e-05
5.70761e-05
5.68672e-05
5.6623e-05
5.63415e-05
5.60203e-05
5.56568e-05
5.52481e-05
5.47912e-05
5.42826e-05
5.37187e-05
5.30953e-05
5.24081e-05
5.16522e-05
5.08221e-05
4.9911e-05
4.89091e-05
4.77988e-05
5.44667e-05
5.1687e-05
4.86835e-05
4.53966e-05
4.17802e-05
3.77846e-05
3.33391e-05
2.83288e-05
2.25443e-05
1.5535e-05
3.95482e-08
1.48731e-10
1.56004e-10
4.14972e-08
1.61345e-05
2.33357e-05
2.92754e-05
3.44191e-05
3.89836e-05
4.3089e-05
4.68103e-05
5.01965e-05
5.32745e-05
4.7448e-05
4.86837e-05
4.98173e-05
5.08553e-05
5.18053e-05
5.26744e-05
5.34689e-05
5.41941e-05
5.48549e-05
5.54554e-05
5.59995e-05
5.64905e-05
5.69317e-05
5.73259e-05
5.76758e-05
5.79836e-05
5.82517e-05
5.84818e-05
5.86758e-05
5.88351e-05
5.8961e-05
5.90545e-05
5.91164e-05
5.91472e-05
5.91471e-05
5.91162e-05
5.90542e-05
5.89606e-05
5.88347e-05
5.86753e-05
5.84812e-05
5.8251e-05
5.79829e-05
5.7675e-05
5.73251e-05
5.69308e-05
5.64896e-05
5.59985e-05
5.54545e-05
5.4854e-05
5.41932e-05
5.3468e-05
5.26736e-05
5.18045e-05
5.08546e-05
4.98167e-05
4.86831e-05
4.74473e-05
5.32739e-05
5.01964e-05
4.68101e-05
4.30888e-05
3.89837e-05
3.44195e-05
2.9276e-05
2.33365e-05
1.61354e-05
4.1503e-08
1.56031e-10
1.58749e-10
4.22359e-08
1.63608e-05
2.3635e-05
2.96348e-05
3.48309e-05
3.94421e-05
4.35905e-05
4.73548e-05
5.07915e-05
5.39351e-05
4.77608e-05
4.90237e-05
5.01799e-05
5.12381e-05
5.22077e-05
5.30964e-05
5.39105e-05
5.46554e-05
5.53356e-05
5.59553e-05
5.6518e-05
5.70271e-05
5.74856e-05
5.78962e-05
5.82612e-05
5.85831e-05
5.88639e-05
5.91053e-05
5.93092e-05
5.94767e-05
5.96093e-05
5.97078e-05
5.97731e-05
5.98056e-05
5.98056e-05
5.9773e-05
5.97077e-05
5.96091e-05
5.94765e-05
5.93088e-05
5.9105e-05
5.88635e-05
5.85827e-05
5.82608e-05
5.78957e-05
5.74851e-05
5.70266e-05
5.65175e-05
5.59548e-05
5.53352e-05
5.4655e-05
5.39102e-05
5.30961e-05
5.22075e-05
5.1238e-05
5.01798e-05
4.90237e-05
4.77609e-05
5.39356e-05
5.07922e-05
4.73556e-05
4.35916e-05
3.94433e-05
3.48323e-05
2.96362e-05
2.36365e-05
1.63623e-05
4.22435e-08
1.58783e-10
1.59605e-10
4.24678e-08
1.64324e-05
2.37303e-05
2.97504e-05
3.49653e-05
3.95948e-05
4.37615e-05
4.75445e-05
5.10011e-05
5.41657e-05
4.78713e-05
4.91434e-05
5.03081e-05
5.13747e-05
5.23525e-05
5.32494e-05
5.40717e-05
5.48247e-05
5.5513e-05
5.61406e-05
5.67111e-05
5.72278e-05
5.76934e-05
5.81108e-05
5.84822e-05
5.88099e-05
5.9096e-05
5.93421e-05
5.955e-05
5.9721e-05
5.98563e-05
5.9957e-05
6.00236e-05
6.00568e-05
6.00568e-05
6.00236e-05
5.99568e-05
5.98562e-05
5.97208e-05
5.95498e-05
5.93419e-05
5.90957e-05
5.88097e-05
5.84819e-05
5.81105e-05
5.76932e-05
5.72275e-05
5.67109e-05
5.61405e-05
5.55129e-05
5.48246e-05
5.40717e-05
5.32495e-05
5.23527e-05
5.13749e-05
5.03084e-05
4.91436e-05
4.78717e-05
5.41669e-05
5.10025e-05
4.75461e-05
4.37634e-05
3.95969e-05
3.49675e-05
2.97526e-05
2.37324e-05
1.64344e-05
4.24769e-08
1.59645e-10
1.59867e-10
4.25385e-08
1.6454e-05
2.37587e-05
2.97837e-05
3.50017e-05
3.96311e-05
4.37931e-05
4.75665e-05
5.10176e-05
5.42197e-05
4.78958e-05
4.91849e-05
5.03524e-05
5.142e-05
5.23994e-05
5.32985e-05
5.41233e-05
5.4879e-05
5.557e-05
5.62004e-05
5.67736e-05
5.72928e-05
5.7761e-05
5.81807e-05
5.85543e-05
5.8884e-05
5.91719e-05
5.94197e-05
5.96289e-05
5.98011e-05
5.99374e-05
6.00388e-05
6.01059e-05
6.01393e-05
6.01393e-05
6.01059e-05
6.00387e-05
5.99373e-05
5.9801e-05
5.96288e-05
5.94195e-05
5.91717e-05
5.88839e-05
5.85541e-05
5.81805e-05
5.77608e-05
5.72927e-05
5.67735e-05
5.62004e-05
5.55701e-05
5.48791e-05
5.41235e-05
5.32988e-05
5.23998e-05
5.14204e-05
5.03529e-05
4.91853e-05
4.78964e-05
5.42213e-05
5.10193e-05
4.75684e-05
4.37954e-05
3.96336e-05
3.50042e-05
2.97862e-05
2.3761e-05
1.64562e-05
4.25485e-08
1.59909e-10
1.5994e-10
4.25583e-08
1.64602e-05
2.37668e-05
2.97936e-05
3.50131e-05
3.96439e-05
4.38071e-05
4.75815e-05
5.10341e-05
5.42385e-05
4.79053e-05
4.91954e-05
5.03637e-05
5.14321e-05
5.24123e-05
5.33121e-05
5.41378e-05
5.48943e-05
5.55862e-05
5.62173e-05
5.67914e-05
5.73114e-05
5.77803e-05
5.82006e-05
5.85749e-05
5.89053e-05
5.91937e-05
5.94419e-05
5.96516e-05
5.98242e-05
5.99607e-05
6.00623e-05
6.01296e-05
6.01631e-05
6.01631e-05
6.01295e-05
6.00622e-05
5.99606e-05
5.9824e-05
5.96515e-05
5.94418e-05
5.91935e-05
5.89051e-05
5.85748e-05
5.82005e-05
5.77802e-05
5.73113e-05
5.67913e-05
5.62174e-05
5.55863e-05
5.48945e-05
5.4138e-05
5.33125e-05
5.24127e-05
5.14326e-05
5.03643e-05
4.9196e-05
4.79059e-05
5.42403e-05
5.10361e-05
4.75837e-05
4.38095e-05
3.96465e-05
3.50157e-05
2.97962e-05
2.37693e-05
1.64624e-05
4.25685e-08
1.59983e-10
1.59958e-10
4.25631e-08
1.64617e-05
2.37689e-05
2.97961e-05
3.5016e-05
3.96472e-05
4.38107e-05
4.75855e-05
5.10385e-05
5.42434e-05
4.79076e-05
4.91979e-05
5.03665e-05
5.14351e-05
5.24155e-05
5.33156e-05
5.41414e-05
5.48982e-05
5.55902e-05
5.62216e-05
5.67959e-05
5.73161e-05
5.77852e-05
5.82057e-05
5.85802e-05
5.89107e-05
5.91992e-05
5.94476e-05
5.96574e-05
5.983e-05
5.99667e-05
6.00683e-05
6.01356e-05
6.01691e-05
6.01691e-05
6.01356e-05
6.00682e-05
5.99666e-05
5.98299e-05
5.96573e-05
5.94475e-05
5.91991e-05
5.89106e-05
5.85801e-05
5.82056e-05
5.77851e-05
5.7316e-05
5.67959e-05
5.62217e-05
5.55904e-05
5.48983e-05
5.41417e-05
5.33159e-05
5.24159e-05
5.14356e-05
5.03671e-05
4.91986e-05
4.79083e-05
5.42452e-05
5.10406e-05
4.75878e-05
4.38132e-05
3.96498e-05
3.50186e-05
2.97987e-05
2.37714e-05
1.6464e-05
4.25735e-08
1.60001e-10
1.59961e-10
4.25642e-08
1.6462e-05
2.37693e-05
2.97966e-05
3.50166e-05
3.96479e-05
4.38115e-05
4.75864e-05
5.10395e-05
5.42444e-05
4.79082e-05
4.91985e-05
5.03671e-05
5.14357e-05
5.24162e-05
5.33163e-05
5.41422e-05
5.4899e-05
5.55912e-05
5.62226e-05
5.67969e-05
5.73171e-05
5.77863e-05
5.82069e-05
5.85814e-05
5.89119e-05
5.92005e-05
5.94489e-05
5.96587e-05
5.98314e-05
5.9968e-05
6.00697e-05
6.0137e-05
6.01705e-05
6.01705e-05
6.0137e-05
6.00696e-05
5.9968e-05
5.98313e-05
5.96586e-05
5.94488e-05
5.92004e-05
5.89118e-05
5.85813e-05
5.82068e-05
5.77862e-05
5.73171e-05
5.67969e-05
5.62227e-05
5.55913e-05
5.48992e-05
5.41425e-05
5.33167e-05
5.24166e-05
5.14363e-05
5.03677e-05
4.91992e-05
4.79088e-05
5.42463e-05
5.10416e-05
4.75887e-05
4.3814e-05
3.96505e-05
3.50193e-05
2.97993e-05
2.37718e-05
1.64643e-05
4.25745e-08
1.60005e-10
1.59962e-10
4.25644e-08
1.64621e-05
2.37694e-05
2.97968e-05
3.50167e-05
3.9648e-05
4.38117e-05
4.75865e-05
5.10397e-05
5.42447e-05
4.79083e-05
4.91986e-05
5.03672e-05
5.14359e-05
5.24163e-05
5.33165e-05
5.41424e-05
5.48992e-05
5.55914e-05
5.62228e-05
5.67971e-05
5.73174e-05
5.77865e-05
5.82071e-05
5.85816e-05
5.89122e-05
5.92008e-05
5.94492e-05
5.9659e-05
5.98317e-05
5.99683e-05
6.007e-05
6.01373e-05
6.01708e-05
6.01708e-05
6.01373e-05
6.00699e-05
5.99683e-05
5.98316e-05
5.96589e-05
5.94491e-05
5.92007e-05
5.89121e-05
5.85815e-05
5.8207e-05
5.77864e-05
5.73173e-05
5.67971e-05
5.62229e-05
5.55915e-05
5.48994e-05
5.41427e-05
5.33168e-05
5.24168e-05
5.14364e-05
5.03678e-05
4.91993e-05
4.79089e-05
5.42465e-05
5.10418e-05
4.75889e-05
4.38142e-05
3.96507e-05
3.50194e-05
2.97994e-05
2.37719e-05
1.64644e-05
4.25748e-08
1.60006e-10
1.59962e-10
4.25644e-08
1.64621e-05
2.37694e-05
2.97968e-05
3.50168e-05
3.96481e-05
4.38117e-05
4.75866e-05
5.10397e-05
5.42447e-05
4.79083e-05
4.91986e-05
5.03673e-05
5.14359e-05
5.24164e-05
5.33165e-05
5.41424e-05
5.48992e-05
5.55914e-05
5.62229e-05
5.67971e-05
5.73174e-05
5.77866e-05
5.82072e-05
5.85817e-05
5.89122e-05
5.92008e-05
5.94492e-05
5.96591e-05
5.98317e-05
5.99684e-05
6.007e-05
6.01374e-05
6.01709e-05
6.01709e-05
6.01373e-05
6.007e-05
5.99683e-05
5.98316e-05
5.9659e-05
5.94491e-05
5.92007e-05
5.89121e-05
5.85816e-05
5.82071e-05
5.77865e-05
5.73174e-05
5.67971e-05
5.62229e-05
5.55915e-05
5.48994e-05
5.41427e-05
5.33169e-05
5.24168e-05
5.14364e-05
5.03679e-05
4.91993e-05
4.7909e-05
5.42465e-05
5.10418e-05
4.75889e-05
4.38142e-05
3.96507e-05
3.50194e-05
2.97994e-05
2.37719e-05
1.64644e-05
4.25748e-08
1.60006e-10
1.59962e-10
4.25644e-08
1.64621e-05
2.37694e-05
2.97968e-05
3.50168e-05
3.96481e-05
4.38117e-05
4.75866e-05
5.10397e-05
5.42447e-05
4.79083e-05
4.91987e-05
5.03673e-05
5.14359e-05
5.24164e-05
5.33165e-05
5.41424e-05
5.48992e-05
5.55914e-05
5.62229e-05
5.67971e-05
5.73174e-05
5.77866e-05
5.82072e-05
5.85817e-05
5.89123e-05
5.92008e-05
5.94493e-05
5.96591e-05
5.98317e-05
5.99684e-05
6.007e-05
6.01374e-05
6.01709e-05
6.01709e-05
6.01373e-05
6.007e-05
5.99683e-05
5.98316e-05
5.9659e-05
5.94491e-05
5.92007e-05
5.89121e-05
5.85816e-05
5.82071e-05
5.77865e-05
5.73174e-05
5.67972e-05
5.62229e-05
5.55915e-05
5.48994e-05
5.41427e-05
5.33169e-05
5.24168e-05
5.14364e-05
5.03679e-05
4.91993e-05
4.7909e-05
5.42465e-05
5.10418e-05
4.75889e-05
4.38142e-05
3.96507e-05
3.50194e-05
2.97994e-05
2.37719e-05
1.64644e-05
4.25748e-08
1.60006e-10
1.59962e-10
4.25644e-08
1.64621e-05
2.37694e-05
2.97968e-05
3.50168e-05
3.96481e-05
4.38117e-05
4.75866e-05
5.10397e-05
5.42447e-05
4.79083e-05
4.91987e-05
5.03673e-05
5.14359e-05
5.24164e-05
5.33165e-05
5.41424e-05
5.48992e-05
5.55914e-05
5.62229e-05
5.67971e-05
5.73174e-05
5.77866e-05
5.82072e-05
5.85817e-05
5.89123e-05
5.92008e-05
5.94493e-05
5.96591e-05
5.98317e-05
5.99684e-05
6.007e-05
6.01374e-05
6.01709e-05
6.01709e-05
6.01373e-05
6.007e-05
5.99683e-05
5.98316e-05
5.9659e-05
5.94491e-05
5.92007e-05
5.89121e-05
5.85816e-05
5.82071e-05
5.77865e-05
5.73174e-05
5.67972e-05
5.62229e-05
5.55915e-05
5.48994e-05
5.41427e-05
5.33169e-05
5.24168e-05
5.14364e-05
5.03679e-05
4.91993e-05
4.7909e-05
5.42465e-05
5.10418e-05
4.75889e-05
4.38142e-05
3.96507e-05
3.50194e-05
2.97994e-05
2.37719e-05
1.64644e-05
4.25748e-08
1.60006e-10
1.59962e-10
4.25644e-08
1.64621e-05
2.37694e-05
2.97968e-05
3.50168e-05
3.96481e-05
4.38117e-05
4.75866e-05
5.10397e-05
5.42447e-05
4.79083e-05
4.91987e-05
5.03673e-05
5.14359e-05
5.24164e-05
5.33165e-05
5.41424e-05
5.48992e-05
5.55914e-05
5.62229e-05
5.67971e-05
5.73174e-05
5.77866e-05
5.82072e-05
5.85817e-05
5.89123e-05
5.92008e-05
5.94493e-05
5.96591e-05
5.98317e-05
5.99684e-05
6.007e-05
6.01374e-05
6.01709e-05
6.01709e-05
6.01373e-05
6.007e-05
5.99683e-05
5.98316e-05
5.9659e-05
5.94491e-05
5.92007e-05
5.89121e-05
5.85816e-05
5.82071e-05
5.77865e-05
5.73174e-05
5.67972e-05
5.62229e-05
5.55915e-05
5.48994e-05
5.41427e-05
5.33169e-05
5.24168e-05
5.14364e-05
5.03679e-05
4.91993e-05
4.7909e-05
5.42465e-05
5.10418e-05
4.75889e-05
4.38142e-05
3.96507e-05
3.50194e-05
2.97994e-05
2.37719e-05
1.64644e-05
4.25748e-08
1.60006e-10
1.59962e-10
4.25644e-08
1.64621e-05
2.37694e-05
2.97968e-05
3.50168e-05
3.96481e-05
4.38117e-05
4.75866e-05
5.10397e-05
5.42447e-05
4.79083e-05
4.91987e-05
5.03673e-05
5.14359e-05
5.24164e-05
5.33165e-05
5.41424e-05
5.48992e-05
5.55914e-05
5.62229e-05
5.67971e-05
5.73174e-05
5.77866e-05
5.82072e-05
5.85817e-05
5.89123e-05
5.92008e-05
5.94493e-05
5.96591e-05
5.98317e-05
5.99684e-05
6.007e-05
6.01374e-05
6.01709e-05
6.01709e-05
6.01373e-05
6.007e-05
5.99683e-05
5.98316e-05
5.9659e-05
5.94491e-05
5.92007e-05
5.89121e-05
5.85816e-05
5.82071e-05
5.77865e-05
5.73174e-05
5.67972e-05
5.62229e-05
5.55915e-05
5.48994e-05
5.41427e-05
5.33169e-05
5.24168e-05
5.14364e-05
5.03679e-05
4.91993e-05
4.7909e-05
5.42465e-05
5.10418e-05
4.75889e-05
4.38142e-05
3.96507e-05
3.50194e-05
2.97994e-05
2.37719e-05
1.64644e-05
4.25748e-08
1.60006e-10
1.59962e-10
4.25644e-08
1.64621e-05
2.37694e-05
2.97968e-05
3.50168e-05
3.96481e-05
4.38117e-05
4.75866e-05
5.10397e-05
5.42447e-05
4.79083e-05
4.91987e-05
5.03673e-05
5.14359e-05
5.24164e-05
5.33165e-05
5.41424e-05
5.48992e-05
5.55914e-05
5.62229e-05
5.67971e-05
5.73174e-05
5.77866e-05
5.82072e-05
5.85817e-05
5.89123e-05
5.92008e-05
5.94493e-05
5.96591e-05
5.98317e-05
5.99684e-05
6.007e-05
6.01374e-05
6.01709e-05
6.01709e-05
6.01373e-05
6.007e-05
5.99683e-05
5.98316e-05
5.9659e-05
5.94491e-05
5.92007e-05
5.89121e-05
5.85816e-05
5.82071e-05
5.77865e-05
5.73174e-05
5.67972e-05
5.62229e-05
5.55915e-05
5.48994e-05
5.41427e-05
5.33169e-05
5.24168e-05
5.14364e-05
5.03679e-05
4.91993e-05
4.7909e-05
5.42465e-05
5.10418e-05
4.75889e-05
4.38142e-05
3.96507e-05
3.50194e-05
2.97994e-05
2.37719e-05
1.64644e-05
4.25748e-08
1.60006e-10
1.59962e-10
4.25644e-08
1.64621e-05
2.37694e-05
2.97968e-05
3.50168e-05
3.96481e-05
4.38117e-05
4.75866e-05
5.10397e-05
5.42447e-05
4.79083e-05
4.91987e-05
5.03673e-05
5.14359e-05
5.24164e-05
5.33165e-05
5.41424e-05
5.48992e-05
5.55914e-05
5.62229e-05
5.67971e-05
5.73174e-05
5.77866e-05
5.82072e-05
5.85817e-05
5.89123e-05
5.92008e-05
5.94493e-05
5.96591e-05
5.98317e-05
5.99684e-05
6.007e-05
6.01374e-05
6.01709e-05
6.01709e-05
6.01373e-05
6.007e-05
5.99683e-05
5.98316e-05
5.9659e-05
5.94491e-05
5.92007e-05
5.89121e-05
5.85816e-05
5.82071e-05
5.77865e-05
5.73174e-05
5.67972e-05
5.62229e-05
5.55915e-05
5.48994e-05
5.41427e-05
5.33169e-05
5.24168e-05
5.14364e-05
5.03679e-05
4.91993e-05
4.7909e-05
5.42465e-05
5.10418e-05
4.75889e-05
4.38142e-05
3.96507e-05
3.50194e-05
2.97994e-05
2.37719e-05
1.64644e-05
4.25748e-08
1.60006e-10
1.59962e-10
4.25644e-08
1.64621e-05
2.37694e-05
2.97968e-05
3.50168e-05
3.96481e-05
4.38117e-05
4.75866e-05
5.10397e-05
5.42447e-05
4.79083e-05
4.91987e-05
5.03673e-05
5.14359e-05
5.24164e-05
5.33165e-05
5.41424e-05
5.48992e-05
5.55914e-05
5.62229e-05
5.67971e-05
5.73174e-05
5.77866e-05
5.82072e-05
5.85817e-05
5.89123e-05
5.92008e-05
5.94493e-05
5.96591e-05
5.98317e-05
5.99684e-05
6.007e-05
6.01374e-05
6.01709e-05
6.01709e-05
6.01373e-05
6.007e-05
5.99683e-05
5.98316e-05
5.9659e-05
5.94491e-05
5.92007e-05
5.89121e-05
5.85816e-05
5.82071e-05
5.77865e-05
5.73174e-05
5.67972e-05
5.62229e-05
5.55915e-05
5.48994e-05
5.41427e-05
5.33169e-05
5.24168e-05
5.14364e-05
5.03679e-05
4.91993e-05
4.7909e-05
5.42465e-05
5.10418e-05
4.75889e-05
4.38142e-05
3.96507e-05
3.50194e-05
2.97994e-05
2.37719e-05
1.64644e-05
4.25748e-08
1.60006e-10
1.59962e-10
4.25644e-08
1.64621e-05
2.37694e-05
2.97968e-05
3.50168e-05
3.96481e-05
4.38117e-05
4.75866e-05
5.10397e-05
5.42447e-05
4.79083e-05
4.91987e-05
5.03673e-05
5.14359e-05
5.24164e-05
5.33165e-05
5.41424e-05
5.48992e-05
5.55914e-05
5.62229e-05
5.67971e-05
5.73174e-05
5.77866e-05
5.82072e-05
5.85817e-05
5.89123e-05
5.92008e-05
5.94493e-05
5.96591e-05
5.98317e-05
5.99684e-05
6.007e-05
6.01374e-05
6.01709e-05
6.01709e-05
6.01373e-05
6.007e-05
5.99683e-05
5.98316e-05
5.9659e-05
5.94491e-05
5.92007e-05
5.89121e-05
5.85816e-05
5.82071e-05
5.77865e-05
5.73174e-05
5.67972e-05
5.62229e-05
5.55915e-05
5.48994e-05
5.41427e-05
5.33169e-05
5.24168e-05
5.14364e-05
5.03679e-05
4.91993e-05
4.7909e-05
5.42465e-05
5.10418e-05
4.75889e-05
4.38142e-05
3.96507e-05
3.50194e-05
2.97994e-05
2.37719e-05
1.64644e-05
4.25748e-08
1.60006e-10
1.59962e-10
4.25644e-08
1.64621e-05
2.37694e-05
2.97968e-05
3.50168e-05
3.96481e-05
4.38117e-05
4.75866e-05
5.10397e-05
5.42447e-05
4.79083e-05
4.91987e-05
5.03673e-05
5.14359e-05
5.24164e-05
5.33165e-05
5.41424e-05
5.48992e-05
5.55914e-05
5.62229e-05
5.67971e-05
5.73174e-05
5.77866e-05
5.82072e-05
5.85817e-05
5.89123e-05
5.92008e-05
5.94493e-05
5.96591e-05
5.98317e-05
5.99684e-05
6.007e-05
6.01374e-05
6.01709e-05
6.01709e-05
6.01373e-05
6.007e-05
5.99683e-05
5.98316e-05
5.9659e-05
5.94491e-05
5.92007e-05
5.89121e-05
5.85816e-05
5.82071e-05
5.77865e-05
5.73174e-05
5.67972e-05
5.62229e-05
5.55915e-05
5.48994e-05
5.41427e-05
5.33169e-05
5.24168e-05
5.14364e-05
5.03679e-05
4.91993e-05
4.7909e-05
5.42465e-05
5.10418e-05
4.75889e-05
4.38142e-05
3.96507e-05
3.50194e-05
2.97994e-05
2.37719e-05
1.64644e-05
4.25748e-08
1.60006e-10
1.59962e-10
4.25644e-08
1.64621e-05
2.37694e-05
2.97968e-05
3.50168e-05
3.96481e-05
4.38117e-05
4.75866e-05
5.10397e-05
5.42447e-05
4.79083e-05
4.91987e-05
5.03673e-05
5.14359e-05
5.24164e-05
5.33165e-05
5.41424e-05
5.48992e-05
5.55914e-05
5.62229e-05
5.67971e-05
5.73174e-05
5.77866e-05
5.82072e-05
5.85817e-05
5.89123e-05
5.92008e-05
5.94493e-05
5.96591e-05
5.98317e-05
5.99684e-05
6.007e-05
6.01374e-05
6.01709e-05
6.01709e-05
6.01373e-05
6.007e-05
5.99683e-05
5.98316e-05
5.9659e-05
5.94491e-05
5.92007e-05
5.89121e-05
5.85816e-05
5.82071e-05
5.77865e-05
5.73174e-05
5.67972e-05
5.62229e-05
5.55915e-05
5.48994e-05
5.41427e-05
5.33169e-05
5.24168e-05
5.14364e-05
5.03679e-05
4.91993e-05
4.7909e-05
5.42465e-05
5.10418e-05
4.75889e-05
4.38142e-05
3.96507e-05
3.50194e-05
2.97994e-05
2.37719e-05
1.64644e-05
4.25748e-08
1.60006e-10
1.59962e-10
4.25644e-08
1.64621e-05
2.37694e-05
2.97968e-05
3.50168e-05
3.96481e-05
4.38117e-05
4.75866e-05
5.10397e-05
5.42447e-05
4.79083e-05
4.91987e-05
5.03673e-05
5.14359e-05
5.24164e-05
5.33165e-05
5.41424e-05
5.48992e-05
5.55914e-05
5.62229e-05
5.67971e-05
5.73174e-05
5.77866e-05
5.82072e-05
5.85817e-05
5.89123e-05
5.92008e-05
5.94493e-05
5.96591e-05
5.98317e-05
5.99684e-05
6.007e-05
6.01374e-05
6.01709e-05
6.01709e-05
6.01373e-05
6.007e-05
5.99683e-05
5.98316e-05
5.9659e-05
5.94491e-05
5.92007e-05
5.89121e-05
5.85816e-05
5.82071e-05
5.77865e-05
5.73174e-05
5.67972e-05
5.62229e-05
5.55915e-05
5.48994e-05
5.41427e-05
5.33169e-05
5.24168e-05
5.14364e-05
5.03679e-05
4.91993e-05
4.7909e-05
5.42465e-05
5.10418e-05
4.75889e-05
4.38142e-05
3.96507e-05
3.50194e-05
2.97994e-05
2.37719e-05
1.64644e-05
4.25748e-08
1.60006e-10
1.59962e-10
4.25644e-08
1.64621e-05
2.37694e-05
2.97968e-05
3.50168e-05
3.96481e-05
4.38117e-05
4.75866e-05
5.10397e-05
5.42447e-05
4.79083e-05
4.91987e-05
5.03673e-05
5.14359e-05
5.24164e-05
5.33165e-05
5.41424e-05
5.48992e-05
5.55914e-05
5.62229e-05
5.67971e-05
5.73174e-05
5.77866e-05
5.82072e-05
5.85817e-05
5.89123e-05
5.92008e-05
5.94493e-05
5.96591e-05
5.98317e-05
5.99684e-05
6.007e-05
6.01374e-05
6.01709e-05
6.01709e-05
6.01373e-05
6.007e-05
5.99683e-05
5.98316e-05
5.9659e-05
5.94491e-05
5.92007e-05
5.89121e-05
5.85816e-05
5.82071e-05
5.77865e-05
5.73174e-05
5.67972e-05
5.62229e-05
5.55915e-05
5.48994e-05
5.41427e-05
5.33169e-05
5.24168e-05
5.14364e-05
5.03679e-05
4.91993e-05
4.7909e-05
5.42465e-05
5.10418e-05
4.75889e-05
4.38142e-05
3.96507e-05
3.50194e-05
2.97994e-05
2.37719e-05
1.64644e-05
4.25748e-08
1.60006e-10
1.59962e-10
4.25644e-08
1.64621e-05
2.37694e-05
2.97968e-05
3.50168e-05
3.96481e-05
4.38117e-05
4.75866e-05
5.10397e-05
5.42447e-05
4.79083e-05
4.91987e-05
5.03673e-05
5.14359e-05
5.24164e-05
5.33165e-05
5.41424e-05
5.48992e-05
5.55914e-05
5.62229e-05
5.67971e-05
5.73174e-05
5.77866e-05
5.82072e-05
5.85817e-05
5.89123e-05
5.92008e-05
5.94493e-05
5.96591e-05
5.98317e-05
5.99684e-05
6.007e-05
6.01374e-05
6.01709e-05
6.01709e-05
6.01373e-05
6.007e-05
5.99683e-05
5.98316e-05
5.9659e-05
5.94491e-05
5.92007e-05
5.89121e-05
5.85816e-05
5.82071e-05
5.77865e-05
5.73174e-05
5.67972e-05
5.62229e-05
5.55915e-05
5.48994e-05
5.41427e-05
5.33169e-05
5.24168e-05
5.14364e-05
5.03679e-05
4.91993e-05
4.7909e-05
5.42465e-05
5.10418e-05
4.75889e-05
4.38142e-05
3.96507e-05
3.50194e-05
2.97994e-05
2.37719e-05
1.64644e-05
4.25748e-08
1.60006e-10
1.59962e-10
4.25644e-08
1.64621e-05
2.37694e-05
2.97968e-05
3.50168e-05
3.96481e-05
4.38117e-05
4.75866e-05
5.10397e-05
5.42447e-05
4.79083e-05
4.91987e-05
5.03673e-05
5.14359e-05
5.24164e-05
5.33165e-05
5.41424e-05
5.48992e-05
5.55914e-05
5.62229e-05
5.67971e-05
5.73174e-05
5.77866e-05
5.82072e-05
5.85817e-05
5.89123e-05
5.92008e-05
5.94493e-05
5.96591e-05
5.98317e-05
5.99684e-05
6.007e-05
6.01374e-05
6.01709e-05
6.01709e-05
6.01373e-05
6.007e-05
5.99683e-05
5.98316e-05
5.9659e-05
5.94491e-05
5.92007e-05
5.89121e-05
5.85816e-05
5.82071e-05
5.77865e-05
5.73174e-05
5.67972e-05
5.62229e-05
5.55915e-05
5.48994e-05
5.41427e-05
5.33169e-05
5.24168e-05
5.14364e-05
5.03679e-05
4.91993e-05
4.7909e-05
5.42465e-05
5.10418e-05
4.75889e-05
4.38142e-05
3.96507e-05
3.50194e-05
2.97994e-05
2.37719e-05
1.64644e-05
4.25748e-08
1.60006e-10
1.59962e-10
4.25644e-08
1.64621e-05
2.37694e-05
2.97968e-05
3.50168e-05
3.96481e-05
4.38117e-05
4.75866e-05
5.10397e-05
5.42447e-05
4.79083e-05
4.91987e-05
5.03673e-05
5.14359e-05
5.24164e-05
5.33165e-05
5.41424e-05
5.48992e-05
5.55914e-05
5.62229e-05
5.67971e-05
5.73174e-05
5.77866e-05
5.82072e-05
5.85817e-05
5.89123e-05
5.92008e-05
5.94493e-05
5.96591e-05
5.98317e-05
5.99684e-05
6.007e-05
6.01374e-05
6.01709e-05
6.01709e-05
6.01373e-05
6.007e-05
5.99683e-05
5.98316e-05
5.9659e-05
5.94491e-05
5.92007e-05
5.89121e-05
5.85816e-05
5.82071e-05
5.77865e-05
5.73174e-05
5.67972e-05
5.62229e-05
5.55915e-05
5.48994e-05
5.41427e-05
5.33169e-05
5.24168e-05
5.14364e-05
5.03679e-05
4.91993e-05
4.7909e-05
5.42465e-05
5.10418e-05
4.75889e-05
4.38142e-05
3.96507e-05
3.50194e-05
2.97994e-05
2.37719e-05
1.64644e-05
4.25748e-08
1.60006e-10
1.59962e-10
4.25644e-08
1.64621e-05
2.37694e-05
2.97968e-05
3.50168e-05
3.96481e-05
4.38117e-05
4.75866e-05
5.10397e-05
5.42447e-05
4.79083e-05
4.91987e-05
5.03673e-05
5.14359e-05
5.24164e-05
5.33165e-05
5.41424e-05
5.48992e-05
5.55914e-05
5.62229e-05
5.67971e-05
5.73174e-05
5.77866e-05
5.82072e-05
5.85817e-05
5.89123e-05
5.92008e-05
5.94493e-05
5.96591e-05
5.98317e-05
5.99684e-05
6.007e-05
6.01374e-05
6.01709e-05
6.01709e-05
6.01373e-05
6.007e-05
5.99683e-05
5.98316e-05
5.9659e-05
5.94491e-05
5.92007e-05
5.89121e-05
5.85816e-05
5.82071e-05
5.77865e-05
5.73174e-05
5.67972e-05
5.62229e-05
5.55915e-05
5.48994e-05
5.41427e-05
5.33169e-05
5.24168e-05
5.14364e-05
5.03679e-05
4.91993e-05
4.7909e-05
5.42465e-05
5.10418e-05
4.75889e-05
4.38142e-05
3.96507e-05
3.50194e-05
2.97994e-05
2.37719e-05
1.64644e-05
4.25748e-08
1.60006e-10
1.59962e-10
4.25644e-08
1.64621e-05
2.37694e-05
2.97968e-05
3.50168e-05
3.96481e-05
4.38117e-05
4.75866e-05
5.10397e-05
5.42447e-05
4.79083e-05
4.91987e-05
5.03673e-05
5.14359e-05
5.24164e-05
5.33165e-05
5.41424e-05
5.48992e-05
5.55914e-05
5.62229e-05
5.67971e-05
5.73174e-05
5.77866e-05
5.82072e-05
5.85817e-05
5.89123e-05
5.92008e-05
5.94493e-05
5.96591e-05
5.98317e-05
5.99684e-05
6.007e-05
6.01374e-05
6.01709e-05
6.01709e-05
6.01373e-05
6.007e-05
5.99683e-05
5.98316e-05
5.9659e-05
5.94491e-05
5.92007e-05
5.89121e-05
5.85816e-05
5.82071e-05
5.77865e-05
5.73174e-05
5.67972e-05
5.62229e-05
5.55915e-05
5.48994e-05
5.41427e-05
5.33169e-05
5.24168e-05
5.14364e-05
5.03679e-05
4.91993e-05
4.7909e-05
5.42465e-05
5.10418e-05
4.75889e-05
4.38142e-05
3.96507e-05
3.50194e-05
2.97994e-05
2.37719e-05
1.64644e-05
4.25748e-08
1.60006e-10
1.59962e-10
4.25644e-08
1.64621e-05
2.37694e-05
2.97968e-05
3.50168e-05
3.96481e-05
4.38117e-05
4.75866e-05
5.10397e-05
5.42447e-05
4.79083e-05
4.91987e-05
5.03673e-05
5.14359e-05
5.24164e-05
5.33165e-05
5.41424e-05
5.48992e-05
5.55914e-05
5.62229e-05
5.67971e-05
5.73174e-05
5.77866e-05
5.82072e-05
5.85817e-05
5.89123e-05
5.92008e-05
5.94493e-05
5.96591e-05
5.98317e-05
5.99684e-05
6.007e-05
6.01374e-05
6.01709e-05
6.01709e-05
6.01373e-05
6.007e-05
5.99683e-05
5.98316e-05
5.9659e-05
5.94491e-05
5.92007e-05
5.89121e-05
5.85816e-05
5.82071e-05
5.77865e-05
5.73174e-05
5.67972e-05
5.62229e-05
5.55915e-05
5.48994e-05
5.41427e-05
5.33169e-05
5.24168e-05
5.14364e-05
5.03679e-05
4.91993e-05
4.7909e-05
5.42465e-05
5.10418e-05
4.75889e-05
4.38142e-05
3.96507e-05
3.50194e-05
2.97994e-05
2.37719e-05
1.64644e-05
4.25748e-08
1.60006e-10
1.59962e-10
4.25644e-08
1.64621e-05
2.37694e-05
2.97968e-05
3.50168e-05
3.96481e-05
4.38117e-05
4.75866e-05
5.10397e-05
5.42447e-05
4.79083e-05
4.91987e-05
5.03673e-05
5.14359e-05
5.24164e-05
5.33165e-05
5.41424e-05
5.48992e-05
5.55914e-05
5.62229e-05
5.67971e-05
5.73174e-05
5.77866e-05
5.82072e-05
5.85817e-05
5.89123e-05
5.92008e-05
5.94493e-05
5.96591e-05
5.98317e-05
5.99684e-05
6.007e-05
6.01374e-05
6.01709e-05
6.01709e-05
6.01373e-05
6.007e-05
5.99683e-05
5.98316e-05
5.9659e-05
5.94491e-05
5.92007e-05
5.89121e-05
5.85816e-05
5.82071e-05
5.77865e-05
5.73174e-05
5.67972e-05
5.62229e-05
5.55915e-05
5.48994e-05
5.41427e-05
5.33169e-05
5.24168e-05
5.14364e-05
5.03679e-05
4.91993e-05
4.7909e-05
5.42465e-05
5.10418e-05
4.75889e-05
4.38142e-05
3.96507e-05
3.50194e-05
2.97994e-05
2.37719e-05
1.64644e-05
4.25748e-08
1.60006e-10
1.59962e-10
4.25644e-08
1.64621e-05
2.37694e-05
2.97968e-05
3.50168e-05
3.96481e-05
4.38117e-05
4.75866e-05
5.10397e-05
5.42447e-05
4.79083e-05
4.91987e-05
5.03673e-05
5.14359e-05
5.24164e-05
5.33165e-05
5.41424e-05
5.48992e-05
5.55914e-05
5.62229e-05
5.67971e-05
5.73174e-05
5.77866e-05
5.82072e-05
5.85817e-05
5.89123e-05
5.92008e-05
5.94493e-05
5.96591e-05
5.98317e-05
5.99684e-05
6.007e-05
6.01374e-05
6.01709e-05
6.01709e-05
6.01373e-05
6.007e-05
5.99683e-05
5.98316e-05
5.9659e-05
5.94491e-05
5.92007e-05
5.89121e-05
5.85816e-05
5.82071e-05
5.77865e-05
5.73174e-05
5.67972e-05
5.62229e-05
5.55915e-05
5.48994e-05
5.41427e-05
5.33169e-05
5.24168e-05
5.14364e-05
5.03679e-05
4.91993e-05
4.7909e-05
5.42465e-05
5.10418e-05
4.75889e-05
4.38142e-05
3.96507e-05
3.50194e-05
2.97994e-05
2.37719e-05
1.64644e-05
4.25748e-08
1.60006e-10
1.59962e-10
4.25644e-08
1.64621e-05
2.37694e-05
2.97968e-05
3.50168e-05
3.96481e-05
4.38117e-05
4.75866e-05
5.10397e-05
5.42447e-05
4.79083e-05
4.91987e-05
5.03673e-05
5.14359e-05
5.24164e-05
5.33165e-05
5.41424e-05
5.48992e-05
5.55914e-05
5.62229e-05
5.67971e-05
5.73174e-05
5.77866e-05
5.82072e-05
5.85817e-05
5.89123e-05
5.92008e-05
5.94493e-05
5.96591e-05
5.98317e-05
5.99684e-05
6.007e-05
6.01374e-05
6.01709e-05
6.01709e-05
6.01373e-05
6.007e-05
5.99683e-05
5.98316e-05
5.9659e-05
5.94491e-05
5.92007e-05
5.89121e-05
5.85816e-05
5.82071e-05
5.77865e-05
5.73174e-05
5.67972e-05
5.62229e-05
5.55915e-05
5.48994e-05
5.41427e-05
5.33169e-05
5.24168e-05
5.14364e-05
5.03679e-05
4.91993e-05
4.7909e-05
5.42465e-05
5.10418e-05
4.75889e-05
4.38142e-05
3.96507e-05
3.50194e-05
2.97994e-05
2.37719e-05
1.64644e-05
4.25748e-08
1.60006e-10
1.59962e-10
4.25644e-08
1.64621e-05
2.37694e-05
2.97968e-05
3.50168e-05
3.96481e-05
4.38117e-05
4.75866e-05
5.10397e-05
5.42447e-05
4.79083e-05
4.91987e-05