/*--------------------------------*- C++ -*----------------------------------*\
  =========                 |
  \\      /  F ield         | OpenFOAM: The Open Source CFD Toolbox
   \\    /   O peration     | Website:  https://openfoam.org
    \\  /    A nd           | Version:  13
     \\/     M anipulation  |
\*---------------------------------------------------------------------------*/
FoamFile
{
    format      ascii;
    class       volScalarField;
    location    "165";
    object      rhok;
}
// * * * * * * * * * * * * * * * * * * * * * * * * * * * * * * * * * * * * * //

dimensions      [];

internalField   nonuniform List<scalar> 
315000
(
0.444631
0.429978
0.415301
0.413897
0.413161
0.412428
0.411697
0.410968
0.410241
0.409516
0.408794
0.408075
0.407357
0.406643
0.40593
0.40522
0.404513
0.403808
0.403106
0.402406
0.401709
0.401015
0.400323
0.399634
0.398947
0.398264
0.397582
0.396904
0.396228
0.395554
0.394883
0.394215
0.393549
0.392886
0.392225
0.391567
0.390912
0.390258
0.389607
0.388959
0.388313
0.387669
0.387027
0.386387
0.38575
0.385115
0.384481
0.38385
0.38322
0.382593
0.381967
0.381342
0.38072
0.380099
0.379479
0.378861
0.378244
0.377628
0.377014
0.3764
0.375787
0.375176
0.374565
0.373955
0.373345
0.372736
0.372127
0.371519
0.370911
0.370303
0.444631
0.429977
0.415299
0.413894
0.413159
0.412425
0.411694
0.410965
0.410238
0.409514
0.408792
0.408072
0.407355
0.40664
0.405927
0.405218
0.40451
0.403805
0.403103
0.402404
0.401707
0.401012
0.40032
0.399631
0.398945
0.398261
0.397579
0.396901
0.396225
0.395551
0.39488
0.394212
0.393546
0.392883
0.392223
0.391565
0.390909
0.390256
0.389605
0.388956
0.38831
0.387666
0.387025
0.386385
0.385748
0.385112
0.384479
0.383848
0.383218
0.382591
0.381965
0.381341
0.380718
0.380097
0.379478
0.378859
0.378243
0.377627
0.377012
0.376399
0.375787
0.375175
0.374564
0.373954
0.373345
0.372736
0.372127
0.371519
0.370911
0.370303
0.444631
0.429976
0.415297
0.413892
0.413157
0.412423
0.411692
0.410963
0.410236
0.409511
0.408789
0.40807
0.407352
0.406637
0.405925
0.405215
0.404508
0.403803
0.403101
0.402401
0.401704
0.40101
0.400318
0.399629
0.398942
0.398258
0.397577
0.396898
0.396222
0.395549
0.394878
0.39421
0.393544
0.392881
0.39222
0.391562
0.390907
0.390253
0.389603
0.388954
0.388308
0.387664
0.387023
0.386383
0.385746
0.385111
0.384477
0.383846
0.383217
0.382589
0.381963
0.381339
0.380717
0.380096
0.379476
0.378858
0.378241
0.377626
0.377011
0.376398
0.375786
0.375174
0.374564
0.373953
0.373344
0.372735
0.372127
0.371519
0.370911
0.370303
0.444631
0.429975
0.415295
0.41389
0.413155
0.412421
0.41169
0.410961
0.410234
0.409509
0.408787
0.408067
0.40735
0.406635
0.405923
0.405213
0.404505
0.403801
0.403098
0.402399
0.401702
0.401007
0.400315
0.399626
0.39894
0.398256
0.397575
0.396896
0.39622
0.395547
0.394876
0.394208
0.393542
0.392879
0.392218
0.39156
0.390905
0.390251
0.389601
0.388952
0.388306
0.387662
0.387021
0.386381
0.385744
0.385109
0.384476
0.383845
0.383215
0.382588
0.381962
0.381338
0.380715
0.380095
0.379475
0.378857
0.37824
0.377625
0.377011
0.376397
0.375785
0.375174
0.374563
0.373953
0.373344
0.372735
0.372126
0.371518
0.370911
0.370303
0.444631
0.429974
0.415294
0.413889
0.413153
0.41242
0.411688
0.410959
0.410232
0.409508
0.408785
0.408066
0.407348
0.406633
0.405921
0.405211
0.404504
0.403799
0.403097
0.402397
0.4017
0.401005
0.400314
0.399624
0.398938
0.398254
0.397573
0.396894
0.396218
0.395545
0.394874
0.394206
0.39354
0.392877
0.392216
0.391558
0.390903
0.39025
0.389599
0.388951
0.388304
0.387661
0.387019
0.38638
0.385743
0.385107
0.384474
0.383843
0.383214
0.382586
0.381961
0.381337
0.380714
0.380094
0.379474
0.378856
0.37824
0.377624
0.37701
0.376397
0.375784
0.375173
0.374562
0.373953
0.373343
0.372735
0.372126
0.371518
0.370911
0.370303
0.444631
0.429973
0.415293
0.413888
0.413152
0.412418
0.411687
0.410958
0.410231
0.409506
0.408784
0.408064
0.407347
0.406632
0.405919
0.405209
0.404502
0.403797
0.403095
0.402395
0.401698
0.401004
0.400312
0.399623
0.398936
0.398252
0.397571
0.396892
0.396216
0.395543
0.394872
0.394204
0.393538
0.392875
0.392215
0.391557
0.390901
0.390248
0.389597
0.388949
0.388303
0.387659
0.387018
0.386379
0.385741
0.385106
0.384473
0.383842
0.383213
0.382585
0.38196
0.381336
0.380713
0.380093
0.379473
0.378855
0.378239
0.377623
0.377009
0.376396
0.375784
0.375173
0.374562
0.373952
0.373343
0.372734
0.372126
0.371518
0.37091
0.370303
0.444631
0.429973
0.415292
0.413887
0.413151
0.412417
0.411686
0.410956
0.41023
0.409505
0.408783
0.408063
0.407346
0.406631
0.405918
0.405208
0.404501
0.403796
0.403094
0.402394
0.401697
0.401002
0.400311
0.399621
0.398935
0.398251
0.39757
0.396891
0.396215
0.395542
0.394871
0.394203
0.393537
0.392874
0.392214
0.391556
0.3909
0.390247
0.389596
0.388948
0.388302
0.387658
0.387017
0.386378
0.38574
0.385105
0.384472
0.383841
0.383212
0.382585
0.381959
0.381335
0.380713
0.380092
0.379473
0.378855
0.378238
0.377623
0.377009
0.376396
0.375783
0.375172
0.374562
0.373952
0.373343
0.372734
0.372126
0.371518
0.37091
0.370303
0.444631
0.429972
0.415291
0.413886
0.41315
0.412416
0.411685
0.410956
0.410229
0.409504
0.408782
0.408062
0.407345
0.40663
0.405917
0.405207
0.4045
0.403795
0.403093
0.402393
0.401696
0.401001
0.40031
0.39962
0.398934
0.39825
0.397569
0.39689
0.396214
0.395541
0.39487
0.394202
0.393536
0.392873
0.392213
0.391555
0.390899
0.390246
0.389595
0.388947
0.388301
0.387657
0.387016
0.386377
0.38574
0.385105
0.384471
0.38384
0.383211
0.382584
0.381958
0.381334
0.380712
0.380091
0.379472
0.378854
0.378238
0.377622
0.377008
0.376395
0.375783
0.375172
0.374561
0.373952
0.373343
0.372734
0.372126
0.371518
0.37091
0.370303
0.444631
0.429972
0.41529
0.413885
0.413149
0.412416
0.411684
0.410955
0.410228
0.409503
0.408781
0.408061
0.407344
0.406629
0.405916
0.405206
0.404499
0.403794
0.403092
0.402392
0.401695
0.401001
0.400309
0.39962
0.398933
0.398249
0.397568
0.396889
0.396213
0.39554
0.394869
0.394201
0.393536
0.392872
0.392212
0.391554
0.390898
0.390245
0.389595
0.388946
0.3883
0.387657
0.387015
0.386376
0.385739
0.385104
0.384471
0.38384
0.383211
0.382583
0.381958
0.381334
0.380712
0.380091
0.379472
0.378854
0.378237
0.377622
0.377008
0.376395
0.375783
0.375172
0.374561
0.373952
0.373342
0.372734
0.372126
0.371518
0.37091
0.370303
0.444631
0.429972
0.41529
0.413885
0.413149
0.412415
0.411684
0.410954
0.410228
0.409503
0.408781
0.408061
0.407343
0.406628
0.405916
0.405206
0.404499
0.403794
0.403091
0.402392
0.401695
0.401
0.400308
0.399619
0.398933
0.398249
0.397567
0.396889
0.396213
0.395539
0.394869
0.394201
0.393535
0.392872
0.392211
0.391554
0.390898
0.390245
0.389594
0.388946
0.3883
0.387656
0.387015
0.386376
0.385739
0.385104
0.384471
0.383839
0.38321
0.382583
0.381957
0.381334
0.380711
0.380091
0.379472
0.378854
0.378237
0.377622
0.377008
0.376395
0.375783
0.375171
0.374561
0.373951
0.373342
0.372734
0.372126
0.371518
0.37091
0.370303
0.444631
0.429972
0.41529
0.413884
0.413149
0.412415
0.411683
0.410954
0.410227
0.409503
0.40878
0.408061
0.407343
0.406628
0.405916
0.405206
0.404498
0.403793
0.403091
0.402391
0.401694
0.401
0.400308
0.399619
0.398932
0.398248
0.397567
0.396889
0.396213
0.395539
0.394868
0.3942
0.393535
0.392872
0.392211
0.391553
0.390898
0.390245
0.389594
0.388946
0.3883
0.387656
0.387015
0.386375
0.385738
0.385103
0.38447
0.383839
0.38321
0.382583
0.381957
0.381333
0.380711
0.380091
0.379471
0.378854
0.378237
0.377622
0.377008
0.376395
0.375783
0.375171
0.374561
0.373951
0.373342
0.372734
0.372126
0.371518
0.37091
0.370303
0.444631
0.429972
0.41529
0.413884
0.413149
0.412415
0.411683
0.410954
0.410227
0.409503
0.40878
0.40806
0.407343
0.406628
0.405915
0.405206
0.404498
0.403793
0.403091
0.402391
0.401694
0.401
0.400308
0.399619
0.398932
0.398248
0.397567
0.396888
0.396212
0.395539
0.394868
0.3942
0.393535
0.392872
0.392211
0.391553
0.390898
0.390244
0.389594
0.388946
0.3883
0.387656
0.387014
0.386375
0.385738
0.385103
0.38447
0.383839
0.38321
0.382583
0.381957
0.381333
0.380711
0.38009
0.379471
0.378853
0.378237
0.377622
0.377008
0.376395
0.375783
0.375171
0.374561
0.373951
0.373342
0.372734
0.372126
0.371518
0.37091
0.370303
0.444631
0.429972
0.41529
0.413884
0.413149
0.412415
0.411683
0.410954
0.410227
0.409503
0.40878
0.40806
0.407343
0.406628
0.405915
0.405206
0.404498
0.403793
0.403091
0.402391
0.401694
0.401
0.400308
0.399619
0.398932
0.398248
0.397567
0.396888
0.396212
0.395539
0.394868
0.3942
0.393535
0.392871
0.392211
0.391553
0.390898
0.390244
0.389594
0.388946
0.3883
0.387656
0.387014
0.386375
0.385738
0.385103
0.38447
0.383839
0.38321
0.382583
0.381957
0.381333
0.380711
0.38009
0.379471
0.378853
0.378237
0.377622
0.377008
0.376395
0.375782
0.375171
0.374561
0.373951
0.373342
0.372734
0.372126
0.371518
0.37091
0.370303
0.444631
0.429972
0.41529
0.413884
0.413149
0.412415
0.411683
0.410954
0.410227
0.409503
0.40878
0.40806
0.407343
0.406628
0.405916
0.405206
0.404498
0.403793
0.403091
0.402391
0.401694
0.401
0.400308
0.399619
0.398932
0.398248
0.397567
0.396888
0.396212
0.395539
0.394868
0.3942
0.393535
0.392872
0.392211
0.391553
0.390898
0.390245
0.389594
0.388946
0.3883
0.387656
0.387015
0.386375
0.385738
0.385103
0.38447
0.383839
0.38321
0.382583
0.381957
0.381333
0.380711
0.38009
0.379471
0.378853
0.378237
0.377622
0.377008
0.376395
0.375783
0.375171
0.374561
0.373951
0.373342
0.372734
0.372126
0.371518
0.37091
0.370303
0.444631
0.429972
0.41529
0.413885
0.413149
0.412415
0.411684
0.410954
0.410227
0.409503
0.408781
0.408061
0.407343
0.406628
0.405916
0.405206
0.404498
0.403794
0.403091
0.402392
0.401694
0.401
0.400308
0.399619
0.398932
0.398248
0.397567
0.396889
0.396213
0.395539
0.394869
0.3942
0.393535
0.392872
0.392211
0.391553
0.390898
0.390245
0.389594
0.388946
0.3883
0.387656
0.387015
0.386375
0.385738
0.385103
0.38447
0.383839
0.38321
0.382583
0.381957
0.381333
0.380711
0.380091
0.379471
0.378854
0.378237
0.377622
0.377008
0.376395
0.375783
0.375171
0.374561
0.373951
0.373342
0.372734
0.372126
0.371518
0.37091
0.370303
0.444631
0.429972
0.41529
0.413885
0.413149
0.412415
0.411684
0.410955
0.410228
0.409503
0.408781
0.408061
0.407344
0.406629
0.405916
0.405206
0.404499
0.403794
0.403091
0.402392
0.401695
0.401
0.400308
0.399619
0.398933
0.398249
0.397568
0.396889
0.396213
0.39554
0.394869
0.394201
0.393535
0.392872
0.392212
0.391554
0.390898
0.390245
0.389594
0.388946
0.3883
0.387656
0.387015
0.386376
0.385739
0.385103
0.38447
0.383839
0.38321
0.382583
0.381957
0.381334
0.380711
0.380091
0.379471
0.378854
0.378237
0.377622
0.377008
0.376395
0.375783
0.375171
0.374561
0.373951
0.373342
0.372734
0.372126
0.371518
0.37091
0.370303
0.444631
0.429972
0.41529
0.413885
0.413149
0.412416
0.411684
0.410955
0.410228
0.409503
0.408781
0.408061
0.407344
0.406629
0.405916
0.405206
0.404499
0.403794
0.403092
0.402392
0.401695
0.401001
0.400309
0.39962
0.398933
0.398249
0.397568
0.396889
0.396213
0.39554
0.394869
0.394201
0.393535
0.392872
0.392212
0.391554
0.390898
0.390245
0.389595
0.388946
0.3883
0.387657
0.387015
0.386376
0.385739
0.385104
0.384471
0.38384
0.38321
0.382583
0.381958
0.381334
0.380712
0.380091
0.379472
0.378854
0.378237
0.377622
0.377008
0.376395
0.375783
0.375172
0.374561
0.373951
0.373342
0.372734
0.372126
0.371518
0.37091
0.370303
0.444631
0.429972
0.415291
0.413886
0.41315
0.412416
0.411685
0.410955
0.410228
0.409504
0.408782
0.408062
0.407344
0.406629
0.405917
0.405207
0.404499
0.403795
0.403092
0.402393
0.401696
0.401001
0.400309
0.39962
0.398933
0.39825
0.397568
0.39689
0.396214
0.39554
0.39487
0.394201
0.393536
0.392873
0.392212
0.391554
0.390899
0.390246
0.389595
0.388947
0.388301
0.387657
0.387015
0.386376
0.385739
0.385104
0.384471
0.38384
0.383211
0.382583
0.381958
0.381334
0.380712
0.380091
0.379472
0.378854
0.378237
0.377622
0.377008
0.376395
0.375783
0.375172
0.374561
0.373952
0.373342
0.372734
0.372126
0.371518
0.37091
0.370303
0.444631
0.429973
0.415291
0.413886
0.41315
0.412416
0.411685
0.410956
0.410229
0.409504
0.408782
0.408062
0.407345
0.40663
0.405917
0.405207
0.4045
0.403795
0.403093
0.402393
0.401696
0.401002
0.40031
0.399621
0.398934
0.39825
0.397569
0.39689
0.396214
0.395541
0.39487
0.394202
0.393536
0.392873
0.392213
0.391555
0.390899
0.390246
0.389595
0.388947
0.388301
0.387657
0.387016
0.386377
0.385739
0.385104
0.384471
0.38384
0.383211
0.382584
0.381958
0.381334
0.380712
0.380091
0.379472
0.378854
0.378238
0.377622
0.377008
0.376395
0.375783
0.375172
0.374561
0.373952
0.373342
0.372734
0.372126
0.371518
0.37091
0.370303
0.444631
0.429973
0.415291
0.413886
0.413151
0.412417
0.411686
0.410956
0.410229
0.409505
0.408783
0.408063
0.407345
0.40663
0.405918
0.405208
0.4045
0.403796
0.403093
0.402394
0.401697
0.401002
0.40031
0.399621
0.398934
0.398251
0.397569
0.396891
0.396215
0.395541
0.39487
0.394202
0.393537
0.392874
0.392213
0.391555
0.3909
0.390246
0.389596
0.388947
0.388301
0.387658
0.387016
0.386377
0.38574
0.385105
0.384472
0.383841
0.383211
0.382584
0.381958
0.381335
0.380712
0.380092
0.379472
0.378854
0.378238
0.377623
0.377008
0.376395
0.375783
0.375172
0.374561
0.373952
0.373343
0.372734
0.372126
0.371518
0.37091
0.370303
0.444631
0.429973
0.415292
0.413887
0.413151
0.412417
0.411686
0.410957
0.41023
0.409505
0.408783
0.408063
0.407346
0.406631
0.405918
0.405208
0.404501
0.403796
0.403094
0.402394
0.401697
0.401003
0.400311
0.399622
0.398935
0.398251
0.39757
0.396891
0.396215
0.395542
0.394871
0.394203
0.393537
0.392874
0.392214
0.391556
0.3909
0.390247
0.389596
0.388948
0.388302
0.387658
0.387017
0.386377
0.38574
0.385105
0.384472
0.383841
0.383212
0.382584
0.381959
0.381335
0.380713
0.380092
0.379473
0.378855
0.378238
0.377623
0.377009
0.376395
0.375783
0.375172
0.374562
0.373952
0.373343
0.372734
0.372126
0.371518
0.37091
0.370303
0.444631
0.429973
0.415292
0.413887
0.413152
0.412418
0.411687
0.410957
0.41023
0.409506
0.408784
0.408064
0.407346
0.406631
0.405919
0.405209
0.404502
0.403797
0.403095
0.402395
0.401698
0.401003
0.400311
0.399622
0.398936
0.398252
0.39757
0.396892
0.396216
0.395542
0.394872
0.394203
0.393538
0.392875
0.392214
0.391556
0.390901
0.390247
0.389597
0.388948
0.388302
0.387659
0.387017
0.386378
0.385741
0.385106
0.384472
0.383841
0.383212
0.382585
0.381959
0.381335
0.380713
0.380092
0.379473
0.378855
0.378238
0.377623
0.377009
0.376396
0.375783
0.375172
0.374562
0.373952
0.373343
0.372734
0.372126
0.371518
0.37091
0.370303
0.444631
0.429974
0.415293
0.413888
0.413152
0.412419
0.411687
0.410958
0.410231
0.409506
0.408784
0.408064
0.407347
0.406632
0.40592
0.40521
0.404502
0.403797
0.403095
0.402395
0.401698
0.401004
0.400312
0.399623
0.398936
0.398252
0.397571
0.396892
0.396216
0.395543
0.394872
0.394204
0.393538
0.392875
0.392215
0.391557
0.390901
0.390248
0.389597
0.388949
0.388303
0.387659
0.387018
0.386378
0.385741
0.385106
0.384473
0.383842
0.383212
0.382585
0.381959
0.381335
0.380713
0.380092
0.379473
0.378855
0.378239
0.377623
0.377009
0.376396
0.375784
0.375172
0.374562
0.373952
0.373343
0.372734
0.372126
0.371518
0.37091
0.370303
0.444631
0.429974
0.415293
0.413888
0.413153
0.412419
0.411688
0.410959
0.410232
0.409507
0.408785
0.408065
0.407348
0.406633
0.40592
0.40521
0.404503
0.403798
0.403096
0.402396
0.401699
0.401004
0.400313
0.399623
0.398937
0.398253
0.397572
0.396893
0.396217
0.395544
0.394873
0.394205
0.393539
0.392876
0.392215
0.391557
0.390902
0.390248
0.389598
0.388949
0.388303
0.38766
0.387018
0.386379
0.385741
0.385106
0.384473
0.383842
0.383213
0.382585
0.38196
0.381336
0.380713
0.380093
0.379473
0.378855
0.378239
0.377623
0.377009
0.376396
0.375784
0.375173
0.374562
0.373952
0.373343
0.372734
0.372126
0.371518
0.37091
0.370303
0.444631
0.429974
0.415294
0.413889
0.413153
0.41242
0.411688
0.410959
0.410232
0.409508
0.408785
0.408066
0.407348
0.406633
0.405921
0.405211
0.404503
0.403799
0.403096
0.402397
0.4017
0.401005
0.400313
0.399624
0.398937
0.398254
0.397572
0.396894
0.396218
0.395544
0.394873
0.394205
0.393539
0.392876
0.392216
0.391558
0.390902
0.390249
0.389598
0.38895
0.388304
0.38766
0.387018
0.386379
0.385742
0.385107
0.384474
0.383842
0.383213
0.382586
0.38196
0.381336
0.380714
0.380093
0.379474
0.378856
0.378239
0.377624
0.377009
0.376396
0.375784
0.375173
0.374562
0.373952
0.373343
0.372734
0.372126
0.371518
0.37091
0.370303
0.444631
0.429974
0.415294
0.413889
0.413154
0.41242
0.411689
0.41096
0.410233
0.409508
0.408786
0.408066
0.407349
0.406634
0.405921
0.405211
0.404504
0.403799
0.403097
0.402397
0.4017
0.401006
0.400314
0.399625
0.398938
0.398254
0.397573
0.396894
0.396218
0.395545
0.394874
0.394206
0.39354
0.392877
0.392216
0.391558
0.390903
0.390249
0.389599
0.38895
0.388304
0.38766
0.387019
0.38638
0.385742
0.385107
0.384474
0.383843
0.383214
0.382586
0.38196
0.381336
0.380714
0.380093
0.379474
0.378856
0.378239
0.377624
0.37701
0.376396
0.375784
0.375173
0.374562
0.373952
0.373343
0.372734
0.372126
0.371518
0.37091
0.370303
0.444631
0.429974
0.415295
0.41389
0.413154
0.412421
0.411689
0.41096
0.410233
0.409509
0.408786
0.408067
0.407349
0.406634
0.405922
0.405212
0.404505
0.4038
0.403097
0.402398
0.401701
0.401006
0.400314
0.399625
0.398939
0.398255
0.397573
0.396895
0.396219
0.395545
0.394874
0.394206
0.39354
0.392877
0.392217
0.391559
0.390903
0.39025
0.389599
0.388951
0.388305
0.387661
0.387019
0.38638
0.385743
0.385107
0.384474
0.383843
0.383214
0.382586
0.381961
0.381337
0.380714
0.380093
0.379474
0.378856
0.378239
0.377624
0.37701
0.376397
0.375784
0.375173
0.374562
0.373953
0.373343
0.372735
0.372126
0.371518
0.37091
0.370303
0.444631
0.429975
0.415295
0.41389
0.413155
0.412421
0.41169
0.410961
0.410234
0.409509
0.408787
0.408067
0.40735
0.406635
0.405922
0.405212
0.404505
0.4038
0.403098
0.402398
0.401701
0.401007
0.400315
0.399626
0.398939
0.398255
0.397574
0.396895
0.396219
0.395546
0.394875
0.394207
0.393541
0.392878
0.392217
0.391559
0.390903
0.39025
0.3896
0.388951
0.388305
0.387661
0.38702
0.38638
0.385743
0.385108
0.384475
0.383843
0.383214
0.382587
0.381961
0.381337
0.380715
0.380094
0.379474
0.378856
0.37824
0.377624
0.37701
0.376397
0.375784
0.375173
0.374562
0.373953
0.373343
0.372735
0.372126
0.371518
0.370911
0.370303
0.444631
0.429975
0.415296
0.413891
0.413155
0.412421
0.41169
0.410961
0.410234
0.40951
0.408787
0.408068
0.40735
0.406635
0.405923
0.405213
0.404505
0.403801
0.403098
0.402399
0.401702
0.401007
0.400315
0.399626
0.398939
0.398256
0.397574
0.396896
0.396219
0.395546
0.394875
0.394207
0.393541
0.392878
0.392218
0.391559
0.390904
0.390251
0.3896
0.388951
0.388305
0.387662
0.38702
0.386381
0.385743
0.385108
0.384475
0.383844
0.383214
0.382587
0.381961
0.381337
0.380715
0.380094
0.379475
0.378857
0.37824
0.377624
0.37701
0.376397
0.375785
0.375173
0.374563
0.373953
0.373343
0.372735
0.372126
0.371518
0.370911
0.370303
0.444631
0.429975
0.415296
0.413891
0.413155
0.412422
0.41169
0.410961
0.410234
0.40951
0.408788
0.408068
0.407351
0.406636
0.405923
0.405213
0.404506
0.403801
0.403099
0.402399
0.401702
0.401008
0.400316
0.399626
0.39894
0.398256
0.397575
0.396896
0.39622
0.395546
0.394876
0.394207
0.393542
0.392879
0.392218
0.39156
0.390904
0.390251
0.3896
0.388952
0.388306
0.387662
0.38702
0.386381
0.385744
0.385108
0.384475
0.383844
0.383215
0.382587
0.381961
0.381337
0.380715
0.380094
0.379475
0.378857
0.37824
0.377625
0.37701
0.376397
0.375785
0.375173
0.374563
0.373953
0.373343
0.372735
0.372126
0.371518
0.370911
0.370303
0.444631
0.429975
0.415296
0.413891
0.413156
0.412422
0.411691
0.410962
0.410235
0.40951
0.408788
0.408068
0.407351
0.406636
0.405924
0.405214
0.404506
0.403801
0.403099
0.402399
0.401702
0.401008
0.400316
0.399627
0.39894
0.398256
0.397575
0.396896
0.39622
0.395547
0.394876
0.394208
0.393542
0.392879
0.392218
0.39156
0.390904
0.390251
0.3896
0.388952
0.388306
0.387662
0.387021
0.386381
0.385744
0.385109
0.384475
0.383844
0.383215
0.382587
0.381962
0.381338
0.380715
0.380094
0.379475
0.378857
0.37824
0.377625
0.37701
0.376397
0.375785
0.375173
0.374563
0.373953
0.373344
0.372735
0.372126
0.371518
0.370911
0.370303
0.444631
0.429975
0.415296
0.413892
0.413156
0.412422
0.411691
0.410962
0.410235
0.409511
0.408788
0.408069
0.407351
0.406636
0.405924
0.405214
0.404507
0.403802
0.403099
0.4024
0.401703
0.401008
0.400316
0.399627
0.39894
0.398257
0.397575
0.396897
0.39622
0.395547
0.394876
0.394208
0.393542
0.392879
0.392218
0.39156
0.390905
0.390252
0.389601
0.388952
0.388306
0.387662
0.387021
0.386381
0.385744
0.385109
0.384476
0.383844
0.383215
0.382588
0.381962
0.381338
0.380715
0.380094
0.379475
0.378857
0.37824
0.377625
0.37701
0.376397
0.375785
0.375173
0.374563
0.373953
0.373344
0.372735
0.372126
0.371518
0.370911
0.370303
0.444631
0.429975
0.415297
0.413892
0.413156
0.412423
0.411691
0.410962
0.410235
0.409511
0.408789
0.408069
0.407351
0.406637
0.405924
0.405214
0.404507
0.403802
0.4031
0.4024
0.401703
0.401008
0.400317
0.399627
0.398941
0.398257
0.397575
0.396897
0.396221
0.395547
0.394876
0.394208
0.393542
0.392879
0.392219
0.391561
0.390905
0.390252
0.389601
0.388952
0.388306
0.387663
0.387021
0.386381
0.385744
0.385109
0.384476
0.383845
0.383215
0.382588
0.381962
0.381338
0.380715
0.380095
0.379475
0.378857
0.37824
0.377625
0.377011
0.376397
0.375785
0.375173
0.374563
0.373953
0.373344
0.372735
0.372126
0.371518
0.370911
0.370303
0.444631
0.429976
0.415297
0.413892
0.413156
0.412423
0.411691
0.410962
0.410235
0.409511
0.408789
0.408069
0.407352
0.406637
0.405924
0.405214
0.404507
0.403802
0.4031
0.4024
0.401703
0.401009
0.400317
0.399628
0.398941
0.398257
0.397576
0.396897
0.396221
0.395547
0.394877
0.394208
0.393543
0.39288
0.392219
0.391561
0.390905
0.390252
0.389601
0.388953
0.388307
0.387663
0.387021
0.386382
0.385744
0.385109
0.384476
0.383845
0.383215
0.382588
0.381962
0.381338
0.380716
0.380095
0.379475
0.378857
0.37824
0.377625
0.377011
0.376397
0.375785
0.375174
0.374563
0.373953
0.373344
0.372735
0.372126
0.371518
0.370911
0.370303
0.444631
0.429976
0.415297
0.413892
0.413156
0.412423
0.411692
0.410962
0.410236
0.409511
0.408789
0.408069
0.407352
0.406637
0.405924
0.405215
0.404507
0.403802
0.4031
0.4024
0.401703
0.401009
0.400317
0.399628
0.398941
0.398257
0.397576
0.396897
0.396221
0.395548
0.394877
0.394209
0.393543
0.39288
0.392219
0.391561
0.390905
0.390252
0.389601
0.388953
0.388307
0.387663
0.387021
0.386382
0.385744
0.385109
0.384476
0.383845
0.383215
0.382588
0.381962
0.381338
0.380716
0.380095
0.379475
0.378857
0.378241
0.377625
0.377011
0.376397
0.375785
0.375174
0.374563
0.373953
0.373344
0.372735
0.372126
0.371518
0.370911
0.370303
0.444631
0.429976
0.415297
0.413892
0.413157
0.412423
0.411692
0.410963
0.410236
0.409511
0.408789
0.408069
0.407352
0.406637
0.405925
0.405215
0.404507
0.403802
0.4031
0.4024
0.401703
0.401009
0.400317
0.399628
0.398941
0.398257
0.397576
0.396897
0.396221
0.395548
0.394877
0.394209
0.393543
0.39288
0.392219
0.391561
0.390905
0.390252
0.389601
0.388953
0.388307
0.387663
0.387021
0.386382
0.385745
0.385109
0.384476
0.383845
0.383215
0.382588
0.381962
0.381338
0.380716
0.380095
0.379475
0.378857
0.378241
0.377625
0.377011
0.376397
0.375785
0.375174
0.374563
0.373953
0.373344
0.372735
0.372126
0.371518
0.370911
0.370303
0.444631
0.429976
0.415297
0.413892
0.413157
0.412423
0.411692
0.410963
0.410236
0.409511
0.408789
0.408069
0.407352
0.406637
0.405925
0.405215
0.404507
0.403803
0.4031
0.402401
0.401703
0.401009
0.400317
0.399628
0.398941
0.398257
0.397576
0.396897
0.396221
0.395548
0.394877
0.394209
0.393543
0.39288
0.392219
0.391561
0.390905
0.390252
0.389601
0.388953
0.388307
0.387663
0.387021
0.386382
0.385745
0.385109
0.384476
0.383845
0.383216
0.382588
0.381962
0.381338
0.380716
0.380095
0.379475
0.378857
0.378241
0.377625
0.377011
0.376397
0.375785
0.375174
0.374563
0.373953
0.373344
0.372735
0.372127
0.371518
0.370911
0.370303
0.444631
0.429976
0.415297
0.413892
0.413157
0.412423
0.411692
0.410963
0.410236
0.409511
0.408789
0.408069
0.407352
0.406637
0.405925
0.405215
0.404507
0.403803
0.4031
0.402401
0.401704
0.401009
0.400317
0.399628
0.398941
0.398257
0.397576
0.396897
0.396221
0.395548
0.394877
0.394209
0.393543
0.39288
0.392219
0.391561
0.390906
0.390252
0.389602
0.388953
0.388307
0.387663
0.387021
0.386382
0.385745
0.385109
0.384476
0.383845
0.383216
0.382588
0.381962
0.381338
0.380716
0.380095
0.379475
0.378857
0.378241
0.377625
0.377011
0.376397
0.375785
0.375174
0.374563
0.373953
0.373344
0.372735
0.372127
0.371518
0.370911
0.370303
0.444631
0.429976
0.415297
0.413892
0.413157
0.412423
0.411692
0.410963
0.410236
0.409511
0.408789
0.40807
0.407352
0.406637
0.405925
0.405215
0.404508
0.403803
0.4031
0.402401
0.401704
0.401009
0.400317
0.399628
0.398941
0.398258
0.397576
0.396898
0.396221
0.395548
0.394877
0.394209
0.393543
0.39288
0.392219
0.391561
0.390906
0.390252
0.389602
0.388953
0.388307
0.387663
0.387021
0.386382
0.385745
0.385109
0.384476
0.383845
0.383216
0.382588
0.381962
0.381338
0.380716
0.380095
0.379475
0.378857
0.378241
0.377625
0.377011
0.376397
0.375785
0.375174
0.374563
0.373953
0.373344
0.372735
0.372127
0.371518
0.370911
0.370303
0.444631
0.429976
0.415297
0.413892
0.413157
0.412423
0.411692
0.410963
0.410236
0.409511
0.408789
0.40807
0.407352
0.406637
0.405925
0.405215
0.404508
0.403803
0.4031
0.402401
0.401704
0.401009
0.400317
0.399628
0.398942
0.398258
0.397576
0.396898
0.396221
0.395548
0.394877
0.394209
0.393543
0.39288
0.392219
0.391561
0.390906
0.390252
0.389602
0.388953
0.388307
0.387663
0.387022
0.386382
0.385745
0.38511
0.384476
0.383845
0.383216
0.382588
0.381962
0.381338
0.380716
0.380095
0.379475
0.378857
0.378241
0.377625
0.377011
0.376397
0.375785
0.375174
0.374563
0.373953
0.373344
0.372735
0.372127
0.371518
0.370911
0.370303
0.444631
0.429976
0.415297
0.413893
0.413157
0.412423
0.411692
0.410963
0.410236
0.409512
0.408789
0.40807
0.407352
0.406637
0.405925
0.405215
0.404508
0.403803
0.4031
0.402401
0.401704
0.401009
0.400317
0.399628
0.398942
0.398258
0.397576
0.396898
0.396222
0.395548
0.394877
0.394209
0.393543
0.39288
0.392219
0.391561
0.390906
0.390252
0.389602
0.388953
0.388307
0.387663
0.387022
0.386382
0.385745
0.38511
0.384476
0.383845
0.383216
0.382588
0.381962
0.381338
0.380716
0.380095
0.379475
0.378857
0.378241
0.377625
0.377011
0.376397
0.375785
0.375174
0.374563
0.373953
0.373344
0.372735
0.372127
0.371518
0.370911
0.370303
0.444631
0.429976
0.415297
0.413893
0.413157
0.412423
0.411692
0.410963
0.410236
0.409512
0.408789
0.40807
0.407352
0.406637
0.405925
0.405215
0.404508
0.403803
0.403101
0.402401
0.401704
0.401009
0.400317
0.399628
0.398942
0.398258
0.397576
0.396898
0.396222
0.395548
0.394877
0.394209
0.393543
0.39288
0.392219
0.391561
0.390906
0.390252
0.389602
0.388953
0.388307
0.387663
0.387022
0.386382
0.385745
0.38511
0.384476
0.383845
0.383216
0.382588
0.381962
0.381338
0.380716
0.380095
0.379475
0.378857
0.378241
0.377625
0.377011
0.376397
0.375785
0.375174
0.374563
0.373953
0.373344
0.372735
0.372127
0.371518
0.370911
0.370303
0.444631
0.429976
0.415297
0.413893
0.413157
0.412423
0.411692
0.410963
0.410236
0.409512
0.408789
0.40807
0.407352
0.406637
0.405925
0.405215
0.404508
0.403803
0.403101
0.402401
0.401704
0.401009
0.400317
0.399628
0.398942
0.398258
0.397576
0.396898
0.396222
0.395548
0.394877
0.394209
0.393543
0.39288
0.392219
0.391561
0.390906
0.390252
0.389602
0.388953
0.388307
0.387663
0.387022
0.386382
0.385745
0.38511
0.384476
0.383845
0.383216
0.382588
0.381962
0.381338
0.380716
0.380095
0.379475
0.378857
0.378241
0.377625
0.377011
0.376398
0.375785
0.375174
0.374563
0.373953
0.373344
0.372735
0.372127
0.371518
0.370911
0.370303
0.444631
0.429976
0.415297
0.413893
0.413157
0.412423
0.411692
0.410963
0.410236
0.409512
0.408789
0.40807
0.407352
0.406637
0.405925
0.405215
0.404508
0.403803
0.403101
0.402401
0.401704
0.401009
0.400317
0.399628
0.398942
0.398258
0.397576
0.396898
0.396222
0.395548
0.394877
0.394209
0.393543
0.39288
0.392219
0.391561
0.390906
0.390252
0.389602
0.388953
0.388307
0.387663
0.387022
0.386382
0.385745
0.38511
0.384476
0.383845
0.383216
0.382588
0.381962
0.381338
0.380716
0.380095
0.379475
0.378857
0.378241
0.377625
0.377011
0.376398
0.375785
0.375174
0.374563
0.373953
0.373344
0.372735
0.372127
0.371518
0.370911
0.370303
0.444631
0.429976
0.415297
0.413893
0.413157
0.412423
0.411692
0.410963
0.410236
0.409512
0.408789
0.40807
0.407352
0.406637
0.405925
0.405215
0.404508
0.403803
0.403101
0.402401
0.401704
0.401009
0.400317
0.399628
0.398942
0.398258
0.397576
0.396898
0.396222
0.395548
0.394877
0.394209
0.393543
0.39288
0.392219
0.391561
0.390906
0.390252
0.389602
0.388953
0.388307
0.387663
0.387022
0.386382
0.385745
0.38511
0.384476
0.383845
0.383216
0.382588
0.381962
0.381338
0.380716
0.380095
0.379475
0.378857
0.378241
0.377625
0.377011
0.376398
0.375785
0.375174
0.374563
0.373953
0.373344
0.372735
0.372127
0.371518
0.370911
0.370303
0.444631
0.429976
0.415297
0.413893
0.413157
0.412423
0.411692
0.410963
0.410236
0.409512
0.408789
0.40807
0.407352
0.406637
0.405925
0.405215
0.404508
0.403803
0.403101
0.402401
0.401704
0.401009
0.400317
0.399628
0.398942
0.398258
0.397576
0.396898
0.396222
0.395548
0.394877
0.394209
0.393543
0.39288
0.39222
0.391561
0.390906
0.390252
0.389602
0.388953
0.388307
0.387663
0.387022
0.386382
0.385745
0.38511
0.384476
0.383845
0.383216
0.382588
0.381962
0.381338
0.380716
0.380095
0.379475
0.378857
0.378241
0.377625
0.377011
0.376398
0.375785
0.375174
0.374563
0.373953
0.373344
0.372735
0.372127
0.371518
0.370911
0.370303
0.444631
0.429976
0.415297
0.413893
0.413157
0.412423
0.411692
0.410963
0.410236
0.409512
0.408789
0.40807
0.407352
0.406637
0.405925
0.405215
0.404508
0.403803
0.403101
0.402401
0.401704
0.401009
0.400317
0.399628
0.398942
0.398258
0.397576
0.396898
0.396222
0.395548
0.394877
0.394209
0.393543
0.39288
0.39222
0.391561
0.390906
0.390252
0.389602
0.388953
0.388307
0.387663
0.387022
0.386382
0.385745
0.38511
0.384476
0.383845
0.383216
0.382588
0.381962
0.381338
0.380716
0.380095
0.379475
0.378857
0.378241
0.377625
0.377011
0.376398
0.375785
0.375174
0.374563
0.373953
0.373344
0.372735
0.372127
0.371518
0.370911
0.370303
0.444631
0.429976
0.415297
0.413893
0.413157
0.412423