/*--------------------------------*- C++ -*----------------------------------*\
  =========                 |
  \\      /  F ield         | OpenFOAM: The Open Source CFD Toolbox
   \\    /   O peration     | Website:  https://openfoam.org
    \\  /    A nd           | Version:  13
     \\/     M anipulation  |
\*---------------------------------------------------------------------------*/
FoamFile
{
    format      ascii;
    class       volScalarField;
    location    "35";
    object      rhok;
}
// * * * * * * * * * * * * * * * * * * * * * * * * * * * * * * * * * * * * * //

dimensions      [];

internalField   nonuniform List<scalar> 
315000
(
0.444278
0.41557
0.412839
0.41142
0.410019
0.408635
0.40727
0.405924
0.404598
0.403292
0.402009
0.400747
0.399509
0.398295
0.397105
0.39594
0.394802
0.39369
0.392605
0.391548
0.390519
0.389519
0.388548
0.387606
0.386694
0.385811
0.384959
0.384137
0.383345
0.382583
0.381851
0.381148
0.380475
0.37983
0.379215
0.378627
0.378068
0.377535
0.377029
0.376548
0.376093
0.375662
0.375254
0.37487
0.374507
0.374166
0.373844
0.373542
0.373259
0.372993
0.372744
0.372511
0.372293
0.372089
0.371898
0.371719
0.371552
0.371395
0.371248
0.371111
0.370981
0.370858
0.370742
0.370632
0.370526
0.370425
0.370327
0.370232
0.370138
0.370046
0.444278
0.415569
0.412837
0.411419
0.410017
0.408633
0.407267
0.40592
0.404594
0.403287
0.402003
0.40074
0.399501
0.398286
0.397095
0.395929
0.394789
0.393676
0.39259
0.391532
0.390502
0.3895
0.388528
0.387586
0.386673
0.38579
0.384937
0.384114
0.383322
0.382559
0.381827
0.381124
0.38045
0.379806
0.379191
0.378603
0.378044
0.377512
0.377006
0.376526
0.376071
0.375641
0.375234
0.37485
0.374488
0.374147
0.373827
0.373526
0.373243
0.372978
0.37273
0.372498
0.37228
0.372077
0.371887
0.371709
0.371542
0.371386
0.37124
0.371103
0.370974
0.370852
0.370737
0.370627
0.370522
0.370422
0.370325
0.37023
0.370137
0.370046
0.444278
0.415588
0.412858
0.411439
0.410038
0.408654
0.407288
0.40594
0.404613
0.403306
0.402021
0.400757
0.399516
0.3983
0.397107
0.39594
0.394798
0.393683
0.392595
0.391535
0.390504
0.389501
0.388527
0.387583
0.386668
0.385784
0.38493
0.384106
0.383312
0.382548
0.381815
0.381111
0.380437
0.379793
0.379177
0.378589
0.378029
0.377497
0.376991
0.376511
0.376056
0.375626
0.37522
0.374836
0.374474
0.374134
0.373814
0.373513
0.373231
0.372967
0.372719
0.372487
0.372271
0.372068
0.371878
0.371701
0.371535
0.37138
0.371234
0.371098
0.370969
0.370848
0.370733
0.370624
0.37052
0.37042
0.370323
0.370229
0.370136
0.370045
0.444279
0.415623
0.412896
0.411478
0.410077
0.408694
0.407328
0.40598
0.404652
0.403345
0.402058
0.400793
0.399551
0.398332
0.397138
0.395969
0.394825
0.393708
0.392618
0.391556
0.390521
0.389516
0.38854
0.387594
0.386677
0.385791
0.384935
0.384109
0.383314
0.382548
0.381814
0.381109
0.380434
0.379788
0.379171
0.378583
0.378022
0.377489
0.376983
0.376503
0.376048
0.375617
0.375211
0.374827
0.374466
0.374126
0.373806
0.373505
0.373223
0.372959
0.372712
0.37248
0.372264
0.372062
0.371872
0.371695
0.37153
0.371375
0.37123
0.371094
0.370966
0.370845
0.37073
0.370621
0.370518
0.370418
0.370321
0.370228
0.370136
0.370045
0.44428
0.415667
0.412943
0.411527
0.410127
0.408744
0.407378
0.406031
0.404702
0.403394
0.402106
0.40084
0.399596
0.398376
0.397179
0.396008
0.394862
0.393742
0.39265
0.391585
0.390549
0.389541
0.388562
0.387613
0.386694
0.385806
0.384948
0.38412
0.383322
0.382556
0.381819
0.381113
0.380436
0.379789
0.379171
0.378582
0.378021
0.377487
0.37698
0.376499
0.376044
0.375613
0.375206
0.374822
0.374461
0.37412
0.373801
0.3735
0.373218
0.372954
0.372707
0.372476
0.37226
0.372057
0.371868
0.371692
0.371527
0.371372
0.371227
0.371091
0.370963
0.370842
0.370728
0.37062
0.370516
0.370417
0.370321
0.370227
0.370135
0.370045
0.444281
0.415709
0.412988
0.411573
0.410174
0.408792
0.407426
0.406079
0.40475
0.403441
0.402153
0.400885
0.39964
0.398418
0.39722
0.396047
0.394899
0.393777
0.392682
0.391615
0.390576
0.389566
0.388586
0.387635
0.386714
0.385823
0.384963
0.384133
0.383334
0.382565
0.381827
0.38112
0.380442
0.379793
0.379174
0.378584
0.378022
0.377487
0.37698
0.376498
0.376043
0.375611
0.375204
0.37482
0.374458
0.374118
0.373798
0.373497
0.373216
0.372952
0.372704
0.372473
0.372257
0.372055
0.371866
0.371689
0.371524
0.37137
0.371225
0.371089
0.370961
0.370841
0.370727
0.370619
0.370515
0.370416
0.37032
0.370227
0.370135
0.370045
0.444282
0.415742
0.413023
0.411609
0.410211
0.408829
0.407464
0.406116
0.404788
0.403478
0.402189
0.400921
0.399675
0.398452
0.397252
0.396077
0.394928
0.393805
0.392708
0.39164
0.390599
0.389587
0.388605
0.387652
0.38673
0.385837
0.384975
0.384144
0.383344
0.382574
0.381835
0.381126
0.380447
0.379798
0.379178
0.378587
0.378024
0.377489
0.376981
0.376499
0.376042
0.375611
0.375203
0.374819
0.374457
0.374116
0.373796
0.373496
0.373214
0.37295
0.372703
0.372472
0.372255
0.372053
0.371864
0.371688
0.371523
0.371369
0.371224
0.371088
0.370961
0.37084
0.370726
0.370618
0.370515
0.370415
0.37032
0.370226
0.370135
0.370045
0.444282
0.415763
0.413045
0.411633
0.410235
0.408853
0.407489
0.406141
0.404812
0.403503
0.402213
0.400945
0.399698
0.398474
0.397274
0.396098
0.394948
0.393824
0.392726
0.391656
0.390615
0.389602
0.388618
0.387664
0.386741
0.385847
0.384984
0.384152
0.383351
0.38258
0.38184
0.38113
0.380451
0.379801
0.379181
0.378589
0.378026
0.37749
0.376981
0.376499
0.376043
0.375611
0.375203
0.374819
0.374457
0.374116
0.373796
0.373495
0.373213
0.372949
0.372702
0.372471
0.372254
0.372052
0.371864
0.371687
0.371522
0.371368
0.371223
0.371088
0.37096
0.37084
0.370726
0.370618
0.370514
0.370415
0.370319
0.370226
0.370135
0.370045
0.444283
0.415775
0.413058
0.411646
0.410249
0.408868
0.407503
0.406156
0.404827
0.403517
0.402228
0.400959
0.399712
0.398487
0.397287
0.396111
0.39496
0.393835
0.392737
0.391666
0.390624
0.38961
0.388626
0.387672
0.386747
0.385853
0.38499
0.384157
0.383355
0.382584
0.381844
0.381133
0.380453
0.379803
0.379182
0.37859
0.378027
0.377491
0.376982
0.3765
0.376043
0.375611
0.375203
0.374819
0.374456
0.374115
0.373795
0.373495
0.373213
0.372949
0.372701
0.37247
0.372254
0.372052
0.371863
0.371687
0.371522
0.371367
0.371223
0.371087
0.37096
0.370839
0.370725
0.370617
0.370514
0.370415
0.370319
0.370226
0.370135
0.370045
0.444283
0.415781
0.413065
0.411653
0.410256
0.408875
0.407511
0.406164
0.404835
0.403525
0.402235
0.400966
0.399719
0.398495
0.397294
0.396117
0.394966
0.393841
0.392742
0.391672
0.390629
0.389615
0.38863
0.387676
0.386751
0.385857
0.384993
0.38416
0.383358
0.382586
0.381845
0.381135
0.380455
0.379804
0.379183
0.378591
0.378027
0.377491
0.376982
0.3765
0.376043
0.375611
0.375203
0.374819
0.374456
0.374115
0.373795
0.373494
0.373212
0.372948
0.372701
0.37247
0.372254
0.372052
0.371863
0.371686
0.371522
0.371367
0.371223
0.371087
0.370959
0.370839
0.370725
0.370617
0.370514
0.370415
0.370319
0.370226
0.370135
0.370045
0.444283
0.415784
0.413069
0.411657
0.41026
0.408879
0.407515
0.406167
0.404839
0.403529
0.402239
0.40097
0.399723
0.398498
0.397297
0.39612
0.394969
0.393844
0.392745
0.391674
0.390631
0.389617
0.388633
0.387678
0.386753
0.385858
0.384994
0.384161
0.383359
0.382587
0.381846
0.381136
0.380455
0.379805
0.379184
0.378591
0.378028
0.377492
0.376983
0.3765
0.376043
0.375611
0.375203
0.374818
0.374456
0.374115
0.373795
0.373494
0.373212
0.372948
0.372701
0.37247
0.372254
0.372052
0.371863
0.371686
0.371521
0.371367
0.371222
0.371087
0.370959
0.370839
0.370725
0.370617
0.370514
0.370415
0.370319
0.370226
0.370135
0.370045
0.444283
0.415785
0.41307
0.411658
0.410262
0.408881
0.407516
0.406169
0.40484
0.40353
0.402241
0.400972
0.399724
0.3985
0.397299
0.396122
0.394971
0.393845
0.392747
0.391675
0.390633
0.389618
0.388634
0.387679
0.386754
0.385859
0.384995
0.384162
0.383359
0.382588
0.381847
0.381136
0.380456
0.379805
0.379184
0.378592
0.378028
0.377492
0.376983
0.3765
0.376043
0.375611
0.375203
0.374818
0.374456
0.374115
0.373795
0.373494
0.373212
0.372948
0.372701
0.37247
0.372253
0.372051
0.371863
0.371686
0.371521
0.371367
0.371222
0.371087
0.370959
0.370839
0.370725
0.370617
0.370514
0.370415
0.370319
0.370226
0.370135
0.370045
0.444283
0.415786
0.413071
0.411659
0.410262
0.408881
0.407517
0.40617
0.404841
0.403531
0.402241
0.400972
0.399725
0.3985
0.397299
0.396123
0.394971
0.393846
0.392747
0.391676
0.390633
0.389619
0.388634
0.387679
0.386754
0.385859
0.384995
0.384162
0.38336
0.382588
0.381847
0.381136
0.380456
0.379805
0.379184
0.378592
0.378028
0.377492
0.376983
0.3765
0.376043
0.375611
0.375203
0.374818
0.374456
0.374115
0.373795
0.373494
0.373212
0.372948
0.372701
0.37247
0.372253
0.372051
0.371863
0.371686
0.371521
0.371367
0.371222
0.371087
0.370959
0.370839
0.370725
0.370617
0.370514
0.370415
0.370319
0.370226
0.370135
0.370045
0.444283
0.415786
0.413071
0.411659
0.410263
0.408882
0.407517
0.40617
0.404841
0.403531
0.402242
0.400973
0.399725
0.398501
0.3973
0.396123
0.394971
0.393846
0.392747
0.391676
0.390633
0.389619
0.388634
0.387679
0.386754
0.385859
0.384995
0.384162
0.38336
0.382588
0.381847
0.381136
0.380456
0.379805
0.379184
0.378592
0.378028
0.377492
0.376983
0.3765
0.376043
0.375611
0.375203
0.374818
0.374456
0.374115
0.373795
0.373494
0.373212
0.372948
0.372701
0.37247
0.372253
0.372051
0.371863
0.371686
0.371521
0.371367
0.371222
0.371087
0.370959
0.370839
0.370725
0.370617
0.370514
0.370415
0.370319
0.370226
0.370135
0.370045
0.444283
0.415786
0.413071
0.411659
0.410263
0.408882
0.407517
0.40617
0.404841
0.403532
0.402242
0.400973
0.399725
0.398501
0.3973
0.396123
0.394971
0.393846
0.392747
0.391676
0.390633
0.389619
0.388634
0.387679
0.386754
0.385859
0.384995
0.384162
0.38336
0.382588
0.381847
0.381136
0.380456
0.379805
0.379184
0.378592
0.378028
0.377492
0.376983
0.3765
0.376043
0.375611
0.375203
0.374818
0.374456
0.374115
0.373795
0.373494
0.373212
0.372948
0.372701
0.37247
0.372253
0.372051
0.371863
0.371686
0.371521
0.371367
0.371222
0.371087
0.370959
0.370839
0.370725
0.370617
0.370514
0.370415
0.370319
0.370226
0.370135
0.370045
0.444283
0.415786
0.413071
0.411659
0.410263
0.408882
0.407517
0.40617
0.404841
0.403532
0.402242
0.400973
0.399725
0.398501
0.3973
0.396123
0.394971
0.393846
0.392747
0.391676
0.390633
0.389619
0.388634
0.387679
0.386754
0.385859
0.384995
0.384162
0.38336
0.382588
0.381847
0.381136
0.380456
0.379805
0.379184
0.378592
0.378028
0.377492
0.376983
0.3765
0.376043
0.375611
0.375203
0.374818
0.374456
0.374115
0.373795
0.373494
0.373212
0.372948
0.372701
0.37247
0.372253
0.372051
0.371863
0.371686
0.371521
0.371367
0.371222
0.371087
0.370959
0.370839
0.370725
0.370617
0.370514
0.370415
0.370319
0.370226
0.370135
0.370045
0.444283
0.415786
0.413071
0.411659
0.410263
0.408882
0.407517
0.40617
0.404841
0.403532
0.402242
0.400973
0.399725
0.398501
0.3973
0.396123
0.394971
0.393846
0.392747
0.391676
0.390633
0.389619
0.388634
0.387679
0.386754
0.385859
0.384995
0.384162
0.38336
0.382588
0.381847
0.381136
0.380456
0.379805
0.379184
0.378592
0.378028
0.377492
0.376983
0.3765
0.376043
0.375611
0.375203
0.374818
0.374456
0.374115
0.373795
0.373494
0.373212
0.372948
0.372701
0.37247
0.372253
0.372051
0.371863
0.371686
0.371521
0.371367
0.371222
0.371087
0.370959
0.370839
0.370725
0.370617
0.370514
0.370415
0.370319
0.370226
0.370135
0.370045
0.444283
0.415786
0.413071
0.411659
0.410263
0.408882
0.407517
0.40617
0.404841
0.403532
0.402242
0.400973
0.399725
0.398501
0.3973
0.396123
0.394971
0.393846
0.392747
0.391676
0.390633
0.389619
0.388634
0.387679
0.386754
0.385859
0.384995
0.384162
0.38336
0.382588
0.381847
0.381136
0.380456
0.379805
0.379184
0.378592
0.378028
0.377492
0.376983
0.3765
0.376043
0.375611
0.375203
0.374818
0.374456
0.374115
0.373795
0.373494
0.373212
0.372948
0.372701
0.37247
0.372253
0.372051
0.371863
0.371686
0.371521
0.371367
0.371222
0.371087
0.370959
0.370839
0.370725
0.370617
0.370514
0.370415
0.370319
0.370226
0.370135
0.370045
0.444283
0.415786
0.413071
0.411659
0.410263
0.408882
0.407517
0.40617
0.404841
0.403532
0.402242
0.400973
0.399725
0.398501
0.3973
0.396123
0.394971
0.393846
0.392747
0.391676
0.390633
0.389619
0.388634
0.387679
0.386754
0.385859
0.384995
0.384162
0.38336
0.382588
0.381847
0.381136
0.380456
0.379805
0.379184
0.378592
0.378028
0.377492
0.376983
0.3765
0.376043
0.375611
0.375203
0.374818
0.374456
0.374115
0.373795
0.373494
0.373212
0.372948
0.372701
0.37247
0.372253
0.372051
0.371863
0.371686
0.371521
0.371367
0.371222
0.371087
0.370959
0.370839
0.370725
0.370617
0.370514
0.370415
0.370319
0.370226
0.370135
0.370045
0.444283
0.415786
0.413071
0.411659
0.410263
0.408882
0.407517
0.40617
0.404841
0.403532
0.402242
0.400973
0.399725
0.398501
0.3973
0.396123
0.394971
0.393846
0.392747
0.391676
0.390633
0.389619
0.388634
0.387679
0.386754
0.385859
0.384995
0.384162
0.38336
0.382588
0.381847
0.381136
0.380456
0.379805
0.379184
0.378592
0.378028
0.377492
0.376983
0.3765
0.376043
0.375611
0.375203
0.374818
0.374456
0.374115
0.373795
0.373494
0.373212
0.372948
0.372701
0.37247
0.372253
0.372051
0.371863
0.371686
0.371521
0.371367
0.371222
0.371087
0.370959
0.370839
0.370725
0.370617
0.370514
0.370415
0.370319
0.370226
0.370135
0.370045
0.444283
0.415786
0.413071
0.411659
0.410263
0.408882
0.407517
0.40617
0.404841
0.403532
0.402242
0.400973
0.399725
0.398501
0.3973
0.396123
0.394971
0.393846
0.392747
0.391676
0.390633
0.389619
0.388634
0.387679
0.386754
0.385859
0.384995
0.384162
0.38336
0.382588
0.381847
0.381136
0.380456
0.379805
0.379184
0.378592
0.378028
0.377492
0.376983
0.3765
0.376043
0.375611
0.375203
0.374818
0.374456
0.374115
0.373795
0.373494
0.373212
0.372948
0.372701
0.37247
0.372253
0.372051
0.371863
0.371686
0.371521
0.371367
0.371222
0.371087
0.370959
0.370839
0.370725
0.370617
0.370514
0.370415
0.370319
0.370226
0.370135
0.370045
0.444283
0.415786
0.413071
0.411659
0.410263
0.408882
0.407517
0.40617
0.404841
0.403532
0.402242
0.400973
0.399725
0.398501
0.3973
0.396123
0.394971
0.393846
0.392747
0.391676
0.390633
0.389619
0.388634
0.387679
0.386754
0.385859
0.384995
0.384162
0.38336
0.382588
0.381847
0.381136
0.380456
0.379805
0.379184
0.378592
0.378028
0.377492
0.376983
0.3765
0.376043
0.375611
0.375203
0.374818
0.374456
0.374115
0.373795
0.373494
0.373212
0.372948
0.372701
0.37247
0.372253
0.372051
0.371863
0.371686
0.371521
0.371367
0.371222
0.371087
0.370959
0.370839
0.370725
0.370617
0.370514
0.370415
0.370319
0.370226
0.370135
0.370045
0.444283
0.415786
0.413071
0.411659
0.410263
0.408882
0.407517
0.40617
0.404841
0.403532
0.402242
0.400973
0.399725
0.398501
0.3973
0.396123
0.394971
0.393846
0.392747
0.391676
0.390633
0.389619
0.388634
0.387679
0.386754
0.385859
0.384995
0.384162
0.38336
0.382588
0.381847
0.381136
0.380456
0.379805
0.379184
0.378592
0.378028
0.377492
0.376983
0.3765
0.376043
0.375611
0.375203
0.374818
0.374456
0.374115
0.373795
0.373494
0.373212
0.372948
0.372701
0.37247
0.372253
0.372051
0.371863
0.371686
0.371521
0.371367
0.371222
0.371087
0.370959
0.370839
0.370725
0.370617
0.370514
0.370415
0.370319
0.370226
0.370135
0.370045
0.444283
0.415786
0.413071
0.411659
0.410263
0.408882
0.407517
0.40617
0.404841
0.403532
0.402242
0.400973
0.399725
0.398501
0.3973
0.396123
0.394971
0.393846
0.392747
0.391676
0.390633
0.389619
0.388634
0.387679
0.386754
0.385859
0.384995
0.384162
0.38336
0.382588
0.381847
0.381136
0.380456
0.379805
0.379184
0.378592
0.378028
0.377492
0.376983
0.3765
0.376043
0.375611
0.375203
0.374818
0.374456
0.374115
0.373795
0.373494
0.373212
0.372948
0.372701
0.37247
0.372253
0.372051
0.371863
0.371686
0.371521
0.371367
0.371222
0.371087
0.370959
0.370839
0.370725
0.370617
0.370514
0.370415
0.370319
0.370226
0.370135
0.370045
0.444283
0.415786
0.413071
0.411659
0.410263
0.408882
0.407517
0.40617
0.404841
0.403532
0.402242
0.400973
0.399725
0.398501
0.3973
0.396123
0.394971
0.393846
0.392747
0.391676
0.390633
0.389619
0.388634
0.387679
0.386754
0.385859
0.384995
0.384162
0.38336
0.382588
0.381847
0.381136
0.380456
0.379805
0.379184
0.378592
0.378028
0.377492
0.376983
0.3765
0.376043
0.375611
0.375203
0.374818
0.374456
0.374115
0.373795
0.373494
0.373212
0.372948
0.372701
0.37247
0.372253
0.372051
0.371863
0.371686
0.371521
0.371367
0.371222
0.371087
0.370959
0.370839
0.370725
0.370617
0.370514
0.370415
0.370319
0.370226
0.370135
0.370045
0.444283
0.415786
0.413071
0.411659
0.410263
0.408882
0.407517
0.40617
0.404841
0.403532
0.402242
0.400973
0.399725
0.398501
0.3973
0.396123
0.394971
0.393846
0.392747
0.391676
0.390633
0.389619
0.388634
0.387679
0.386754
0.385859
0.384995
0.384162
0.38336
0.382588
0.381847
0.381136
0.380456
0.379805
0.379184
0.378592
0.378028
0.377492
0.376983
0.3765
0.376043
0.375611
0.375203
0.374818
0.374456
0.374115
0.373795
0.373494
0.373212
0.372948
0.372701
0.37247
0.372253
0.372051
0.371863
0.371686
0.371521
0.371367
0.371222
0.371087
0.370959
0.370839
0.370725
0.370617
0.370514
0.370415
0.370319
0.370226
0.370135
0.370045
0.444283
0.415786
0.413071
0.411659
0.410263
0.408882
0.407517
0.40617
0.404841
0.403532
0.402242
0.400973
0.399725
0.398501
0.3973
0.396123
0.394971
0.393846
0.392747
0.391676
0.390633
0.389619
0.388634
0.387679
0.386754
0.385859
0.384995
0.384162
0.38336
0.382588
0.381847
0.381136
0.380456
0.379805
0.379184
0.378592
0.378028
0.377492
0.376983
0.3765
0.376043
0.375611
0.375203
0.374818
0.374456
0.374115
0.373795
0.373494
0.373212
0.372948
0.372701
0.37247
0.372253
0.372051
0.371863
0.371686
0.371521
0.371367
0.371222
0.371087
0.370959
0.370839
0.370725
0.370617
0.370514
0.370415
0.370319
0.370226
0.370135
0.370045
0.444283
0.415786
0.413071
0.411659
0.410263
0.408882
0.407517
0.40617
0.404841
0.403532
0.402242
0.400973
0.399725
0.398501
0.3973
0.396123
0.394971
0.393846
0.392747
0.391676
0.390633
0.389619
0.388634
0.387679
0.386754
0.385859
0.384995
0.384162
0.38336
0.382588
0.381847
0.381136
0.380456
0.379805
0.379184
0.378592
0.378028
0.377492
0.376983
0.3765
0.376043
0.375611
0.375203
0.374818
0.374456
0.374115
0.373795
0.373494
0.373212
0.372948
0.372701
0.37247
0.372253
0.372051
0.371863
0.371686
0.371521
0.371367
0.371222
0.371087
0.370959
0.370839
0.370725
0.370617
0.370514
0.370415
0.370319
0.370226
0.370135
0.370045
0.444283
0.415786
0.413071
0.411659
0.410263
0.408882
0.407517
0.40617
0.404841
0.403532
0.402242
0.400973
0.399725
0.398501
0.3973
0.396123
0.394971
0.393846
0.392747
0.391676
0.390633
0.389619
0.388634
0.387679
0.386754
0.385859
0.384995
0.384162
0.38336
0.382588
0.381847
0.381136
0.380456
0.379805
0.379184
0.378592
0.378028
0.377492
0.376983
0.3765
0.376043
0.375611
0.375203
0.374818
0.374456
0.374115
0.373795
0.373494
0.373212
0.372948
0.372701
0.37247
0.372253
0.372051
0.371863
0.371686
0.371521
0.371367
0.371222
0.371087
0.370959
0.370839
0.370725
0.370617
0.370514
0.370415
0.370319
0.370226
0.370135
0.370045
0.444283
0.415786
0.413071
0.411659
0.410263
0.408882
0.407517
0.40617
0.404841
0.403532
0.402242
0.400973
0.399725
0.398501
0.3973
0.396123
0.394971
0.393846
0.392747
0.391676
0.390633
0.389619
0.388634
0.387679
0.386754
0.385859
0.384995
0.384162
0.38336
0.382588
0.381847
0.381136
0.380456
0.379805
0.379184
0.378592
0.378028
0.377492
0.376983
0.3765
0.376043
0.375611
0.375203
0.374818
0.374456
0.374115
0.373795
0.373494
0.373212
0.372948
0.372701
0.37247
0.372253
0.372051
0.371863
0.371686
0.371521
0.371367
0.371222
0.371087
0.370959
0.370839
0.370725
0.370617
0.370514
0.370415
0.370319
0.370226
0.370135
0.370045
0.444283
0.415786
0.413071
0.411659
0.410263
0.408882
0.407517
0.40617
0.404841
0.403532
0.402242
0.400973
0.399725
0.398501
0.3973
0.396123
0.394971
0.393846
0.392747
0.391676
0.390633
0.389619
0.388634
0.387679
0.386754
0.385859
0.384995
0.384162
0.38336
0.382588
0.381847
0.381136
0.380456
0.379805
0.379184
0.378592
0.378028
0.377492
0.376983
0.3765
0.376043
0.375611
0.375203
0.374818
0.374456
0.374115
0.373795
0.373494
0.373212
0.372948
0.372701
0.37247
0.372253
0.372051
0.371863
0.371686
0.371521
0.371367
0.371222
0.371087
0.370959
0.370839
0.370725
0.370617
0.370514
0.370415
0.370319
0.370226
0.370135
0.370045
0.444283
0.415786
0.413071
0.411659
0.410263
0.408882
0.407517
0.40617
0.404841
0.403532
0.402242
0.400973
0.399725
0.398501
0.3973
0.396123
0.394971
0.393846
0.392747
0.391676
0.390633
0.389619
0.388634
0.387679
0.386754
0.385859
0.384995
0.384162
0.38336
0.382588
0.381847
0.381136
0.380456
0.379805
0.379184
0.378592
0.378028
0.377492
0.376983
0.3765
0.376043
0.375611
0.375203
0.374818
0.374456
0.374115
0.373795
0.373494
0.373212
0.372948
0.372701
0.37247
0.372253
0.372051
0.371863
0.371686
0.371521
0.371367
0.371222
0.371087
0.370959
0.370839
0.370725
0.370617
0.370514
0.370415
0.370319
0.370226
0.370135
0.370045
0.444283
0.415786
0.413071
0.411659
0.410263
0.408882
0.407517
0.40617
0.404841
0.403532
0.402242
0.400973
0.399725
0.398501
0.3973
0.396123
0.394971
0.393846
0.392747
0.391676
0.390633
0.389619
0.388634
0.387679
0.386754
0.385859
0.384995
0.384162
0.38336
0.382588
0.381847
0.381136
0.380456
0.379805
0.379184
0.378592
0.378028
0.377492
0.376983
0.3765
0.376043
0.375611
0.375203
0.374818
0.374456
0.374115
0.373795
0.373494
0.373212
0.372948
0.372701
0.37247
0.372253
0.372051
0.371863
0.371686
0.371521
0.371367
0.371222
0.371087
0.370959
0.370839
0.370725
0.370617
0.370514
0.370415
0.370319
0.370226
0.370135
0.370045
0.444283
0.415786
0.413071
0.411659
0.410263
0.408882
0.407517
0.40617
0.404841
0.403532
0.402242
0.400973
0.399725
0.398501
0.3973
0.396123
0.394971
0.393846
0.392747
0.391676
0.390633
0.389619
0.388634
0.387679
0.386754
0.385859
0.384995
0.384162
0.38336
0.382588
0.381847
0.381136
0.380456
0.379805
0.379184
0.378592
0.378028
0.377492
0.376983
0.3765
0.376043
0.375611
0.375203
0.374818
0.374456
0.374115
0.373795
0.373494
0.373212
0.372948
0.372701
0.37247
0.372253
0.372051
0.371863
0.371686
0.371521
0.371367
0.371222
0.371087
0.370959
0.370839
0.370725
0.370617
0.370514
0.370415
0.370319
0.370226
0.370135
0.370045
0.444283
0.415786
0.413071
0.411659
0.410263
0.408882
0.407517
0.40617
0.404841
0.403532
0.402242
0.400973
0.399725
0.398501
0.3973
0.396123
0.394971
0.393846
0.392747
0.391676
0.390633
0.389619
0.388634
0.387679
0.386754
0.385859
0.384995
0.384162
0.38336
0.382588
0.381847
0.381136
0.380456
0.379805
0.379184
0.378592
0.378028
0.377492
0.376983
0.3765
0.376043
0.375611
0.375203
0.374818
0.374456
0.374115
0.373795
0.373494
0.373212
0.372948
0.372701
0.37247
0.372253
0.372051
0.371863
0.371686
0.371521
0.371367
0.371222
0.371087
0.370959
0.370839
0.370725
0.370617
0.370514
0.370415
0.370319
0.370226
0.370135
0.370045
0.444283
0.415786
0.413071
0.411659
0.410263
0.408882
0.407517
0.40617
0.404841
0.403532
0.402242
0.400973
0.399725
0.398501
0.3973
0.396123
0.394971
0.393846
0.392747
0.391676
0.390633
0.389619
0.388634
0.387679
0.386754
0.385859
0.384995
0.384162
0.38336
0.382588
0.381847
0.381136
0.380456
0.379805
0.379184
0.378592
0.378028
0.377492
0.376983
0.3765
0.376043
0.375611
0.375203
0.374818
0.374456
0.374115
0.373795
0.373494
0.373212
0.372948
0.372701
0.37247
0.372253
0.372051
0.371863
0.371686
0.371521
0.371367
0.371222
0.371087
0.370959
0.370839
0.370725
0.370617
0.370514
0.370415
0.370319
0.370226
0.370135
0.370045
0.444283
0.415786
0.413071
0.411659
0.410263
0.408882
0.407517
0.40617
0.404841
0.403532
0.402242
0.400973
0.399725
0.398501
0.3973
0.396123
0.394971
0.393846
0.392747
0.391676
0.390633
0.389619
0.388634
0.387679
0.386754
0.385859
0.384995
0.384162
0.38336
0.382588
0.381847
0.381136
0.380456
0.379805
0.379184
0.378592
0.378028
0.377492
0.376983
0.3765
0.376043
0.375611
0.375203
0.374818
0.374456
0.374115
0.373795
0.373494
0.373212
0.372948
0.372701
0.37247
0.372253
0.372051
0.371863
0.371686
0.371521
0.371367
0.371222
0.371087
0.370959
0.370839
0.370725
0.370617
0.370514
0.370415
0.370319
0.370226
0.370135
0.370045
0.444283
0.415786
0.413071
0.411659
0.410263
0.408882
0.407517
0.40617
0.404841
0.403532
0.402242
0.400973
0.399725
0.398501
0.3973
0.396123
0.394971
0.393846
0.392747
0.391676
0.390633
0.389619
0.388634
0.387679
0.386754
0.385859
0.384995
0.384162
0.38336
0.382588
0.381847
0.381136
0.380456
0.379805
0.379184
0.378592
0.378028
0.377492
0.376983
0.3765
0.376043
0.375611
0.375203
0.374818
0.374456
0.374115
0.373795
0.373494
0.373212
0.372948
0.372701
0.37247
0.372253
0.372051
0.371863
0.371686
0.371521
0.371367
0.371222
0.371087
0.370959
0.370839
0.370725
0.370617
0.370514
0.370415
0.370319
0.370226
0.370135
0.370045
0.444283
0.415786
0.413071
0.411659
0.410263
0.408882
0.407517
0.40617
0.404841
0.403532
0.402242
0.400973
0.399725
0.398501
0.3973
0.396123
0.394971
0.393846
0.392747
0.391676
0.390633
0.389619
0.388634
0.387679
0.386754
0.385859
0.384995
0.384162
0.38336
0.382588
0.381847
0.381136
0.380456
0.379805
0.379184
0.378592
0.378028
0.377492
0.376983
0.3765
0.376043
0.375611
0.375203
0.374818
0.374456
0.374115
0.373795
0.373494
0.373212
0.372948
0.372701
0.37247
0.372253
0.372051
0.371863
0.371686
0.371521
0.371367
0.371222
0.371087
0.370959
0.370839
0.370725
0.370617
0.370514
0.370415
0.370319
0.370226
0.370135
0.370045
0.444283
0.415786
0.413071
0.411659
0.410263
0.408882
0.407517
0.40617
0.404841
0.403532
0.402242
0.400973
0.399725
0.398501
0.3973
0.396123
0.394971
0.393846
0.392747
0.391676
0.390633
0.389619
0.388634
0.387679
0.386754
0.385859
0.384995
0.384162
0.38336
0.382588
0.381847
0.381136
0.380456
0.379805
0.379184
0.378592
0.378028
0.377492
0.376983
0.3765
0.376043
0.375611
0.375203
0.374818
0.374456
0.374115
0.373795
0.373494
0.373212
0.372948
0.372701
0.37247
0.372253
0.372051
0.371863
0.371686
0.371521
0.371367
0.371222
0.371087
0.370959
0.370839
0.370725
0.370617
0.370514
0.370415
0.370319
0.370226
0.370135
0.370045
0.444283
0.415786
0.413071
0.411659
0.410263
0.408882
0.407517
0.40617
0.404841
0.403532
0.402242
0.400973
0.399725
0.398501
0.3973
0.396123
0.394971
0.393846
0.392747
0.391676
0.390633
0.389619
0.388634
0.387679
0.386754
0.385859
0.384995
0.384162
0.38336
0.382588
0.381847
0.381136
0.380456
0.379805
0.379184
0.378592
0.378028
0.377492
0.376983
0.3765
0.376043
0.375611
0.375203
0.374818
0.374456
0.374115
0.373795
0.373494
0.373212
0.372948
0.372701
0.37247
0.372253
0.372051
0.371863
0.371686
0.371521
0.371367
0.371222
0.371087
0.370959
0.370839
0.370725
0.370617
0.370514
0.370415
0.370319
0.370226
0.370135
0.370045
0.444283
0.415786
0.413071
0.411659
0.410263
0.408882
0.407517
0.40617
0.404841
0.403532
0.402242
0.400973
0.399725
0.398501
0.3973
0.396123
0.394971
0.393846
0.392747
0.391676
0.390633
0.389619
0.388634
0.387679
0.386754
0.385859
0.384995
0.384162
0.38336
0.382588
0.381847
0.381136
0.380456
0.379805
0.379184
0.378592
0.378028
0.377492
0.376983
0.3765
0.376043
0.375611
0.375203
0.374818
0.374456
0.374115
0.373795
0.373494
0.373212
0.372948
0.372701
0.37247
0.372253
0.372051
0.371863
0.371686
0.371521
0.371367
0.371222
0.371087
0.370959
0.370839
0.370725
0.370617
0.370514
0.370415
0.370319
0.370226
0.370135
0.370045
0.444283
0.415786
0.413071
0.411659
0.410263
0.408882
0.407517
0.40617
0.404841
0.403532
0.402242
0.400973
0.399725
0.398501
0.3973
0.396123
0.394971
0.393846
0.392747
0.391676
0.390633
0.389619
0.388634
0.387679
0.386754
0.385859
0.384995
0.384162
0.38336
0.382588
0.381847
0.381136
0.380456
0.379805
0.379184
0.378592
0.378028
0.377492
0.376983
0.3765
0.376043
0.375611
0.375203
0.374818
0.374456
0.374115
0.373795
0.373494
0.373212
0.372948
0.372701
0.37247
0.372253
0.372051
0.371863
0.371686
0.371521
0.371367
0.371222
0.371087
0.370959
0.370839
0.370725
0.370617
0.370514
0.370415
0.370319
0.370226
0.370135
0.370045
0.444283
0.415786
0.413071
0.411659
0.410263
0.408882
0.407517
0.40617
0.404841
0.403532
0.402242
0.400973
0.399725
0.398501
0.3973
0.396123
0.394971
0.393846
0.392747
0.391676
0.390633
0.389619
0.388634
0.387679
0.386754
0.385859
0.384995
0.384162
0.38336
0.382588
0.381847
0.381136
0.380456
0.379805
0.379184
0.378592
0.378028
0.377492
0.376983
0.3765
0.376043
0.375611
0.375203
0.374818
0.374456
0.374115
0.373795
0.373494
0.373212
0.372948
0.372701
0.37247
0.372253
0.372051
0.371863
0.371686
0.371521
0.371367
0.371222
0.371087
0.370959
0.370839
0.370725
0.370617
0.370514
0.370415
0.370319
0.370226
0.370135
0.370045
0.444283
0.415786
0.413071
0.411659
0.410263
0.408882
0.407517
0.40617
0.404841
0.403532
0.402242
0.400973
0.399725
0.398501
0.3973
0.396123
0.394971
0.393846
0.392747
0.391676
0.390633
0.389619
0.388634
0.387679
0.386754
0.385859
0.384995
0.384162
0.38336
0.382588
0.381847
0.381136
0.380456
0.379805
0.379184
0.378592
0.378028
0.377492
0.376983
0.3765
0.376043
0.375611
0.375203
0.374818
0.374456
0.374115
0.373795
0.373494
0.373212
0.372948
0.372701
0.37247
0.372253
0.372051
0.371863
0.371686
0.371521
0.371367
0.371222
0.371087
0.370959
0.370839
0.370725
0.370617
0.370514
0.370415
0.370319
0.370226
0.370135
0.370045
0.444283
0.415786
0.413071
0.411659
0.410263
0.408882
0.407517
0.40617
0.404841
0.403532
0.402242
0.400973
0.399725
0.398501
0.3973
0.396123
0.394971
0.393846
0.392747
0.391676
0.390633
0.389619
0.388634
0.387679
0.386754
0.385859
0.384995
0.384162
0.38336
0.382588
0.381847
0.381136
0.380456
0.379805
0.379184
0.378592
0.378028
0.377492
0.376983
0.3765
0.376043
0.375611
0.375203
0.374818
0.374456
0.374115
0.373795
0.373494
0.373212
0.372948
0.372701
0.37247
0.372253
0.372051
0.371863
0.371686
0.371521
0.371367
0.371222
0.371087
0.370959
0.370839
0.370725
0.370617
0.370514
0.370415
0.370319
0.370226
0.370135
0.370045
0.444283
0.415786
0.413071
0.411659
0.410263
0.408882
0.407517
0.40617
0.404841
0.403532
0.402242
0.400973
0.399725
0.398501
0.3973
0.396123
0.394971
0.393846
0.392747
0.391676
0.390633
0.389619
0.388634
0.387679
0.386754
0.385859
0.384995
0.384162
0.38336
0.382588
0.381847
0.381136
0.380456
0.379805
0.379184
0.378592
0.378028
0.377492
0.376983
0.3765
0.376043
0.375611
0.375203
0.374818
0.374456
0.374115
0.373795
0.373494
0.373212
0.372948
0.372701
0.37247
0.372253
0.372051
0.371863
0.371686
0.371521
0.371367
0.371222
0.371087
0.370959
0.370839
0.370725
0.370617
0.370514
0.370415
0.370319
0.370226
0.370135
0.370045
0.444283
0.415786
0.413071
0.411659
0.410263
0.408882
0.407517