/*--------------------------------*- C++ -*----------------------------------*\
  =========                 |
  \\      /  F ield         | OpenFOAM: The Open Source CFD Toolbox
   \\    /   O peration     | Website:  https://openfoam.org
    \\  /    A nd           | Version:  13
     \\/     M anipulation  |
\*---------------------------------------------------------------------------*/
FoamFile
{
    format      ascii;
    class       volScalarField;
    location    "142.5";
    object      rhok;
}
// * * * * * * * * * * * * * * * * * * * * * * * * * * * * * * * * * * * * * //

dimensions      [];

internalField   nonuniform List<scalar> 
315000
(
0.444625
0.429724
0.414801
0.413374
0.412626
0.411881
0.411139
0.4104
0.409663
0.408929
0.408197
0.407468
0.406743
0.40602
0.4053
0.404583
0.403869
0.403158
0.402451
0.401746
0.401045
0.400347
0.399652
0.39896
0.398272
0.397587
0.396905
0.396227
0.395552
0.39488
0.394211
0.393546
0.392885
0.392226
0.391571
0.39092
0.390271
0.389626
0.388984
0.388345
0.387709
0.387076
0.386447
0.38582
0.385196
0.384575
0.383957
0.383342
0.382729
0.382119
0.381511
0.380906
0.380303
0.379702
0.379103
0.378506
0.377911
0.377318
0.376726
0.376136
0.375547
0.37496
0.374373
0.373788
0.373204
0.37262
0.372037
0.371454
0.370872
0.37029
0.444625
0.429722
0.414798
0.413371
0.412623
0.411878
0.411136
0.410397
0.40966
0.408925
0.408194
0.407465
0.406739
0.406016
0.405296
0.40458
0.403866
0.403155
0.402447
0.401743
0.401041
0.400343
0.399648
0.398956
0.398268
0.397583
0.396901
0.396223
0.395548
0.394876
0.394208
0.393543
0.392881
0.392223
0.391568
0.390916
0.390267
0.389622
0.38898
0.388341
0.387706
0.387073
0.386443
0.385817
0.385193
0.384572
0.383954
0.383339
0.382726
0.382116
0.381509
0.380903
0.3803
0.379699
0.379101
0.378504
0.377909
0.377316
0.376724
0.376134
0.375546
0.374959
0.374372
0.373787
0.373203
0.372619
0.372037
0.371454
0.370872
0.37029
0.444624
0.429721
0.414796
0.413368
0.412621
0.411876
0.411134
0.410394
0.409657
0.408922
0.408191
0.407462
0.406736
0.406013
0.405293
0.404576
0.403862
0.403152
0.402444
0.401739
0.401038
0.40034
0.399645
0.398953
0.398265
0.39758
0.396898
0.39622
0.395545
0.394873
0.394204
0.393539
0.392878
0.392219
0.391564
0.390913
0.390264
0.389619
0.388977
0.388338
0.387703
0.38707
0.386441
0.385814
0.385191
0.38457
0.383952
0.383337
0.382724
0.382114
0.381506
0.380901
0.380298
0.379698
0.379099
0.378502
0.377908
0.377314
0.376723
0.376133
0.375545
0.374958
0.374371
0.373786
0.373202
0.372619
0.372036
0.371454
0.370872
0.37029
0.444624
0.42972
0.414794
0.413366
0.412618
0.411874
0.411131
0.410391
0.409654
0.40892
0.408188
0.40746
0.406734
0.406011
0.405291
0.404574
0.40386
0.403149
0.402441
0.401737
0.401035
0.400337
0.399642
0.39895
0.398262
0.397577
0.396895
0.396217
0.395542
0.39487
0.394202
0.393537
0.392875
0.392217
0.391562
0.39091
0.390262
0.389616
0.388975
0.388336
0.3877
0.387068
0.386438
0.385812
0.385188
0.384567
0.38395
0.383334
0.382722
0.382112
0.381504
0.380899
0.380297
0.379696
0.379097
0.378501
0.377906
0.377313
0.376722
0.376132
0.375544
0.374957
0.374371
0.373786
0.373202
0.372618
0.372036
0.371453
0.370872
0.37029
0.444624
0.429719
0.414792
0.413364
0.412617
0.411872
0.411129
0.410389
0.409652
0.408918
0.408186
0.407457
0.406732
0.406009
0.405288
0.404571
0.403857
0.403147
0.402439
0.401734
0.401033
0.400335
0.39964
0.398948
0.39826
0.397574
0.396893
0.396214
0.395539
0.394868
0.394199
0.393534
0.392873
0.392214
0.391559
0.390908
0.390259
0.389614
0.388972
0.388334
0.387698
0.387066
0.386436
0.38581
0.385186
0.384566
0.383948
0.383333
0.38272
0.38211
0.381503
0.380898
0.380295
0.379695
0.379096
0.3785
0.377905
0.377312
0.376721
0.376131
0.375543
0.374956
0.37437
0.373785
0.373201
0.372618
0.372035
0.371453
0.370871
0.37029
0.444624
0.429718
0.414791
0.413363
0.412615
0.41187
0.411128
0.410388
0.409651
0.408916
0.408185
0.407456
0.40673
0.406007
0.405287
0.40457
0.403856
0.403145
0.402437
0.401732
0.401031
0.400333
0.399638
0.398946
0.398258
0.397573
0.396891
0.396212
0.395537
0.394866
0.394197
0.393532
0.392871
0.392213
0.391558
0.390906
0.390258
0.389612
0.388971
0.388332
0.387696
0.387064
0.386435
0.385808
0.385185
0.384564
0.383946
0.383331
0.382719
0.382109
0.381502
0.380897
0.380294
0.379693
0.379095
0.378499
0.377904
0.377311
0.37672
0.37613
0.375542
0.374955
0.374369
0.373785
0.373201
0.372618
0.372035
0.371453
0.370871
0.37029
0.444624
0.429718
0.41479
0.413361
0.412614
0.411869
0.411126
0.410387
0.409649
0.408915
0.408183
0.407454
0.406728
0.406005
0.405285
0.404568
0.403854
0.403143
0.402436
0.401731
0.401029
0.400331
0.399636
0.398945
0.398256
0.397571
0.396889
0.396211
0.395536
0.394864
0.394196
0.393531
0.392869
0.392211
0.391556
0.390905
0.390256
0.389611
0.388969
0.388331
0.387695
0.387063
0.386433
0.385807
0.385183
0.384563
0.383945
0.38333
0.382718
0.382108
0.381501
0.380896
0.380293
0.379693
0.379094
0.378498
0.377903
0.377311
0.376719
0.37613
0.375542
0.374955
0.374369
0.373784
0.3732
0.372617
0.372035
0.371453
0.370871
0.37029
0.444624
0.429718
0.414789
0.413361
0.412613
0.411868
0.411126
0.410386
0.409649
0.408914
0.408182
0.407454
0.406728
0.406005
0.405284
0.404567
0.403853
0.403142
0.402435
0.40173
0.401028
0.40033
0.399635
0.398944
0.398255
0.39757
0.396888
0.39621
0.395535
0.394863
0.394195
0.39353
0.392868
0.39221
0.391555
0.390904
0.390255
0.38961
0.388968
0.38833
0.387694
0.387062
0.386432
0.385806
0.385183
0.384562
0.383944
0.383329
0.382717
0.382107
0.3815
0.380895
0.380292
0.379692
0.379094
0.378497
0.377903
0.37731
0.376719
0.376129
0.375541
0.374954
0.374369
0.373784
0.3732
0.372617
0.372035
0.371453
0.370871
0.37029
0.444624
0.429717
0.414788
0.41336
0.412613
0.411868
0.411125
0.410385
0.409648
0.408914
0.408182
0.407453
0.406727
0.406004
0.405284
0.404567
0.403853
0.403142
0.402434
0.401729
0.401028
0.40033
0.399635
0.398943
0.398255
0.397569
0.396888
0.396209
0.395534
0.394863
0.394194
0.393529
0.392868
0.392209
0.391555
0.390903
0.390255
0.389609
0.388968
0.388329
0.387693
0.387061
0.386432
0.385805
0.385182
0.384561
0.383944
0.383329
0.382716
0.382107
0.381499
0.380894
0.380292
0.379691
0.379093
0.378497
0.377902
0.37731
0.376719
0.376129
0.375541
0.374954
0.374369
0.373784
0.3732
0.372617
0.372035
0.371453
0.370871
0.37029
0.444624
0.429717
0.414788
0.41336
0.412613
0.411867
0.411125
0.410385
0.409648
0.408913
0.408182
0.407453
0.406727
0.406004
0.405284
0.404567
0.403853
0.403142
0.402434
0.401729
0.401028
0.400329
0.399634
0.398943
0.398254
0.397569
0.396887
0.396209
0.395534
0.394862
0.394194
0.393529
0.392867
0.392209
0.391554
0.390903
0.390254
0.389609
0.388967
0.388329
0.387693
0.387061
0.386431
0.385805
0.385182
0.384561
0.383943
0.383328
0.382716
0.382106
0.381499
0.380894
0.380292
0.379691
0.379093
0.378497
0.377902
0.37731
0.376719
0.376129
0.375541
0.374954
0.374368
0.373784
0.3732
0.372617
0.372035
0.371453
0.370871
0.37029
0.444624
0.429717
0.414788
0.41336
0.412613
0.411867
0.411125
0.410385
0.409648
0.408913
0.408182
0.407453
0.406727
0.406004
0.405284
0.404567
0.403852
0.403142
0.402434
0.401729
0.401028
0.400329
0.399634
0.398943
0.398254
0.397569
0.396887
0.396209
0.395534
0.394862
0.394194
0.393529
0.392867
0.392209
0.391554
0.390902
0.390254
0.389609
0.388967
0.388328
0.387693
0.387061
0.386431
0.385805
0.385182
0.384561
0.383943
0.383328
0.382716
0.382106
0.381499
0.380894
0.380291
0.379691
0.379093
0.378497
0.377902
0.377309
0.376718
0.376129
0.375541
0.374954
0.374368
0.373784
0.3732
0.372617
0.372035
0.371453
0.370871
0.37029
0.444624
0.429717
0.414788
0.41336
0.412613
0.411868
0.411125
0.410385
0.409648
0.408913
0.408182
0.407453
0.406727
0.406004
0.405284
0.404567
0.403853
0.403142
0.402434
0.401729
0.401028
0.400329
0.399634
0.398943
0.398254
0.397569
0.396887
0.396209
0.395534
0.394862
0.394194
0.393529
0.392867
0.392209
0.391554
0.390902
0.390254
0.389609
0.388967
0.388328
0.387693
0.387061
0.386431
0.385805
0.385181
0.384561
0.383943
0.383328
0.382716
0.382106
0.381499
0.380894
0.380291
0.379691
0.379093
0.378496
0.377902
0.377309
0.376718
0.376129
0.375541
0.374954
0.374368
0.373784
0.3732
0.372617
0.372035
0.371453
0.370871
0.37029
0.444624
0.429717
0.414788
0.41336
0.412613
0.411868
0.411125
0.410385
0.409648
0.408914
0.408182
0.407453
0.406727
0.406004
0.405284
0.404567
0.403853
0.403142
0.402434
0.401729
0.401028
0.400329
0.399634
0.398943
0.398254
0.397569
0.396887
0.396209
0.395534
0.394862
0.394194
0.393529
0.392867
0.392209
0.391554
0.390902
0.390254
0.389609
0.388967
0.388329
0.387693
0.387061
0.386431
0.385805
0.385182
0.384561
0.383943
0.383328
0.382716
0.382106
0.381499
0.380894
0.380291
0.379691
0.379093
0.378496
0.377902
0.377309
0.376718
0.376129
0.375541
0.374954
0.374368
0.373784
0.3732
0.372617
0.372035
0.371453
0.370871
0.37029
0.444624
0.429717
0.414789
0.413361
0.412613
0.411868
0.411125
0.410385
0.409648
0.408914
0.408182
0.407453
0.406727
0.406004
0.405284
0.404567
0.403853
0.403142
0.402434
0.401729
0.401028
0.40033
0.399635
0.398943
0.398254
0.397569
0.396888
0.396209
0.395534
0.394862
0.394194
0.393529
0.392867
0.392209
0.391554
0.390903
0.390254
0.389609
0.388967
0.388329
0.387693
0.387061
0.386431
0.385805
0.385182
0.384561
0.383943
0.383328
0.382716
0.382106
0.381499
0.380894
0.380292
0.379691
0.379093
0.378497
0.377902
0.377309
0.376718
0.376129
0.375541
0.374954
0.374368
0.373784
0.3732
0.372617
0.372035
0.371453
0.370871
0.37029
0.444624
0.429718
0.414789
0.413361
0.412613
0.411868
0.411126
0.410386
0.409649
0.408914
0.408182
0.407453
0.406727
0.406004
0.405284
0.404567
0.403853
0.403142
0.402434
0.40173
0.401028
0.40033
0.399635
0.398943
0.398255
0.39757
0.396888
0.396209
0.395534
0.394863
0.394194
0.393529
0.392868
0.392209
0.391554
0.390903
0.390254
0.389609
0.388968
0.388329
0.387693
0.387061
0.386432
0.385805
0.385182
0.384561
0.383944
0.383329
0.382716
0.382106
0.381499
0.380894
0.380292
0.379691
0.379093
0.378497
0.377902
0.37731
0.376719
0.376129
0.375541
0.374954
0.374368
0.373784
0.3732
0.372617
0.372035
0.371453
0.370871
0.37029
0.444624
0.429718
0.414789
0.413361
0.412613
0.411868
0.411126
0.410386
0.409649
0.408914
0.408183
0.407454
0.406728
0.406005
0.405285
0.404567
0.403853
0.403142
0.402435
0.40173
0.401028
0.40033
0.399635
0.398943
0.398255
0.39757
0.396888
0.39621
0.395535
0.394863
0.394195
0.39353
0.392868
0.39221
0.391555
0.390903
0.390255
0.38961
0.388968
0.388329
0.387694
0.387061
0.386432
0.385805
0.385182
0.384562
0.383944
0.383329
0.382716
0.382107
0.381499
0.380894
0.380292
0.379691
0.379093
0.378497
0.377902
0.37731
0.376719
0.376129
0.375541
0.374954
0.374369
0.373784
0.3732
0.372617
0.372035
0.371453
0.370871
0.37029
0.444624
0.429718
0.414789
0.413361
0.412614
0.411869
0.411126
0.410386
0.409649
0.408915
0.408183
0.407454
0.406728
0.406005
0.405285
0.404568
0.403854
0.403143
0.402435
0.40173
0.401029
0.400331
0.399636
0.398944
0.398255
0.39757
0.396889
0.39621
0.395535
0.394863
0.394195
0.39353
0.392868
0.39221
0.391555
0.390903
0.390255
0.38961
0.388968
0.388329
0.387694
0.387062
0.386432
0.385806
0.385182
0.384562
0.383944
0.383329
0.382717
0.382107
0.3815
0.380895
0.380292
0.379692
0.379093
0.378497
0.377903
0.37731
0.376719
0.376129
0.375541
0.374954
0.374369
0.373784
0.3732
0.372617
0.372035
0.371453
0.370871
0.37029
0.444624
0.429718
0.41479
0.413362
0.412614
0.411869
0.411127
0.410387
0.40965
0.408915
0.408183
0.407455
0.406729
0.406006
0.405285
0.404568
0.403854
0.403143
0.402436
0.401731
0.401029
0.400331
0.399636
0.398944
0.398256
0.397571
0.396889
0.396211
0.395536
0.394864
0.394195
0.39353
0.392869
0.392211
0.391556
0.390904
0.390256
0.38961
0.388969
0.38833
0.387694
0.387062
0.386433
0.385806
0.385183
0.384562
0.383944
0.383329
0.382717
0.382107
0.3815
0.380895
0.380292
0.379692
0.379094
0.378497
0.377903
0.37731
0.376719
0.376129
0.375541
0.374954
0.374369
0.373784
0.3732
0.372617
0.372035
0.371453
0.370871
0.37029
0.444624
0.429718
0.41479
0.413362
0.412615
0.41187
0.411127
0.410387
0.40965
0.408916
0.408184
0.407455
0.406729
0.406006
0.405286
0.404569
0.403855
0.403144
0.402436
0.401731
0.40103
0.400332
0.399637
0.398945
0.398257
0.397571
0.39689
0.396211
0.395536
0.394864
0.394196
0.393531
0.392869
0.392211
0.391556
0.390904
0.390256
0.389611
0.388969
0.38833
0.387695
0.387062
0.386433
0.385807
0.385183
0.384563
0.383945
0.38333
0.382717
0.382107
0.3815
0.380895
0.380293
0.379692
0.379094
0.378497
0.377903
0.37731
0.376719
0.37613
0.375541
0.374955
0.374369
0.373784
0.3732
0.372617
0.372035
0.371453
0.370871
0.37029
0.444624
0.429719
0.414791
0.413363
0.412615
0.41187
0.411128
0.410388
0.409651
0.408916
0.408185
0.407456
0.40673
0.406007
0.405287
0.40457
0.403856
0.403145
0.402437
0.401732
0.401031
0.400332
0.399637
0.398946
0.398257
0.397572
0.39689
0.396212
0.395537
0.394865
0.394197
0.393532
0.39287
0.392212
0.391557
0.390905
0.390257
0.389611
0.38897
0.388331
0.387695
0.387063
0.386433
0.385807
0.385184
0.384563
0.383945
0.38333
0.382718
0.382108
0.381501
0.380896
0.380293
0.379692
0.379094
0.378498
0.377903
0.37731
0.376719
0.37613
0.375542
0.374955
0.374369
0.373784
0.3732
0.372617
0.372035
0.371453
0.370871
0.37029
0.444624
0.429719
0.414792
0.413364
0.412616
0.411871
0.411129
0.410389
0.409652
0.408917
0.408186
0.407457
0.406731
0.406008
0.405288
0.404571
0.403856
0.403146
0.402438
0.401733
0.401032
0.400333
0.399638
0.398946
0.398258
0.397573
0.396891
0.396213
0.395538
0.394866
0.394197
0.393532
0.392871
0.392212
0.391557
0.390906
0.390257
0.389612
0.38897
0.388331
0.387696
0.387063
0.386434
0.385808
0.385184
0.384563
0.383946
0.383331
0.382718
0.382108
0.381501
0.380896
0.380293
0.379693
0.379094
0.378498
0.377903
0.377311
0.37672
0.37613
0.375542
0.374955
0.374369
0.373784
0.373201
0.372617
0.372035
0.371453
0.370871
0.37029
0.444624
0.429719
0.414792
0.413364
0.412617
0.411872
0.411129
0.41039
0.409653
0.408918
0.408186
0.407458
0.406732
0.406009
0.405288
0.404571
0.403857
0.403146
0.402439
0.401734
0.401032
0.400334
0.399639
0.398947
0.398259
0.397574
0.396892
0.396213
0.395538
0.394867
0.394198
0.393533
0.392871
0.392213
0.391558
0.390906
0.390258
0.389613
0.388971
0.388332
0.387696
0.387064
0.386435
0.385808
0.385185
0.384564
0.383946
0.383331
0.382719
0.382109
0.381501
0.380896
0.380294
0.379693
0.379095
0.378498
0.377904
0.377311
0.37672
0.37613
0.375542
0.374955
0.374369
0.373785
0.373201
0.372618
0.372035
0.371453
0.370871
0.37029
0.444624
0.42972
0.414793
0.413365
0.412618
0.411873
0.41113
0.41039
0.409653
0.408919
0.408187
0.407458
0.406732
0.406009
0.405289
0.404572
0.403858
0.403147
0.402439
0.401735
0.401033
0.400335
0.39964
0.398948
0.39826
0.397575
0.396893
0.396214
0.395539
0.394867
0.394199
0.393534
0.392872
0.392214
0.391559
0.390907
0.390259
0.389613
0.388971
0.388333
0.387697
0.387065
0.386435
0.385809
0.385185
0.384564
0.383947
0.383331
0.382719
0.382109
0.381502
0.380897
0.380294
0.379693
0.379095
0.378499
0.377904
0.377311
0.37672
0.37613
0.375542
0.374955
0.374369
0.373785
0.373201
0.372618
0.372035
0.371453
0.370871
0.37029
0.444624
0.42972
0.414794
0.413366
0.412618
0.411873
0.411131
0.410391
0.409654
0.40892
0.408188
0.407459
0.406733
0.40601
0.40529
0.404573
0.403859
0.403148
0.40244
0.401736
0.401034
0.400336
0.399641
0.398949
0.398261
0.397575
0.396894
0.396215
0.39554
0.394868
0.3942
0.393535
0.392873
0.392215
0.391559
0.390908
0.390259
0.389614
0.388972
0.388333
0.387698
0.387065
0.386436
0.385809
0.385186
0.384565
0.383947
0.383332
0.382719
0.38211
0.381502
0.380897
0.380294
0.379694
0.379095
0.378499
0.377904
0.377311
0.37672
0.376131
0.375542
0.374955
0.37437
0.373785
0.373201
0.372618
0.372035
0.371453
0.370871
0.37029
0.444624
0.42972
0.414795
0.413367
0.412619
0.411874
0.411132
0.410392
0.409655
0.408921
0.408189
0.40746
0.406734
0.406011
0.405291
0.404574
0.40386
0.403149
0.402441
0.401736
0.401035
0.400337
0.399642
0.39895
0.398261
0.397576
0.396894
0.396216
0.395541
0.394869
0.3942
0.393535
0.392874
0.392215
0.39156
0.390908
0.39026
0.389615
0.388973
0.388334
0.387698
0.387066
0.386436
0.38581
0.385186
0.384565
0.383948
0.383332
0.38272
0.38211
0.381503
0.380897
0.380295
0.379694
0.379096
0.378499
0.377905
0.377312
0.376721
0.376131
0.375543
0.374956
0.37437
0.373785
0.373201
0.372618
0.372035
0.371453
0.370871
0.37029
0.444624
0.429721
0.414795
0.413367
0.41262
0.411875
0.411133
0.410393
0.409656
0.408921
0.40819
0.407461
0.406735
0.406012
0.405292
0.404575
0.403861
0.40315
0.402442
0.401737
0.401036
0.400337
0.399642
0.398951
0.398262
0.397577
0.396895
0.396217
0.395541
0.39487
0.394201
0.393536
0.392874
0.392216
0.391561
0.390909
0.390261
0.389615
0.388973
0.388335
0.387699
0.387066
0.386437
0.38581
0.385187
0.384566
0.383948
0.383333
0.38272
0.38211
0.381503
0.380898
0.380295
0.379694
0.379096
0.378499
0.377905
0.377312
0.376721
0.376131
0.375543
0.374956
0.37437
0.373785
0.373201
0.372618
0.372035
0.371453
0.370871
0.37029
0.444625
0.429721
0.414796
0.413368
0.412621
0.411876
0.411133
0.410394
0.409656
0.408922
0.40819
0.407462
0.406736
0.406013
0.405293
0.404576
0.403862
0.403151
0.402443
0.401738
0.401037
0.400338
0.399643
0.398951
0.398263
0.397578
0.396896
0.396217
0.395542
0.39487
0.394202
0.393537
0.392875
0.392217
0.391562
0.39091
0.390261
0.389616
0.388974
0.388335
0.387699
0.387067
0.386437
0.385811
0.385187
0.384566
0.383949
0.383333
0.382721
0.382111
0.381503
0.380898
0.380295
0.379695
0.379096
0.3785
0.377905
0.377312
0.376721
0.376131
0.375543
0.374956
0.37437
0.373785
0.373201
0.372618
0.372035
0.371453
0.370871
0.37029
0.444625
0.429721
0.414796
0.413369
0.412621
0.411876
0.411134
0.410394
0.409657
0.408923
0.408191
0.407462
0.406736
0.406013
0.405293
0.404576
0.403862
0.403151
0.402443
0.401739
0.401037
0.400339
0.399644
0.398952
0.398264
0.397578
0.396897
0.396218
0.395543
0.394871
0.394203
0.393537
0.392876
0.392217
0.391562
0.39091
0.390262
0.389617
0.388975
0.388336
0.3877
0.387067
0.386438
0.385811
0.385188
0.384567
0.383949
0.383334
0.382721
0.382111
0.381504
0.380899
0.380296
0.379695
0.379097
0.3785
0.377905
0.377312
0.376721
0.376131
0.375543
0.374956
0.37437
0.373785
0.373201
0.372618
0.372035
0.371453
0.370872
0.37029
0.444625
0.429722
0.414797
0.413369
0.412622
0.411877
0.411135
0.410395
0.409658
0.408923
0.408192
0.407463
0.406737
0.406014
0.405294
0.404577
0.403863
0.403152
0.402444
0.401739
0.401038
0.40034
0.399645
0.398953
0.398264
0.397579
0.396897
0.396219
0.395543
0.394872
0.394203
0.393538
0.392876
0.392218
0.391563
0.390911
0.390262
0.389617
0.388975
0.388336
0.3877
0.387068
0.386438
0.385812
0.385188
0.384567
0.383949
0.383334
0.382722
0.382112
0.381504
0.380899
0.380296
0.379695
0.379097
0.3785
0.377906
0.377313
0.376721
0.376132
0.375543
0.374956
0.37437
0.373785
0.373201
0.372618
0.372036
0.371453
0.370872
0.37029
0.444625
0.429722
0.414798
0.41337
0.412622
0.411878
0.411135
0.410396
0.409658
0.408924
0.408192
0.407464
0.406738
0.406015
0.405295
0.404578
0.403864
0.403153
0.402445
0.40174
0.401039
0.40034
0.399645
0.398953
0.398265
0.39758
0.396898
0.396219
0.395544
0.394872
0.394204
0.393539
0.392877
0.392218
0.391563
0.390911
0.390263
0.389618
0.388976
0.388337
0.387701
0.387068
0.386439
0.385812
0.385188
0.384568
0.38395
0.383334
0.382722
0.382112
0.381504
0.380899
0.380296
0.379696
0.379097
0.378501
0.377906
0.377313
0.376722
0.376132
0.375543
0.374956
0.37437
0.373786
0.373201
0.372618
0.372036
0.371453
0.370872
0.37029
0.444625
0.429722
0.414798
0.41337
0.412623
0.411878
0.411136
0.410396
0.409659
0.408925
0.408193
0.407464
0.406738
0.406015
0.405295
0.404578
0.403864
0.403153
0.402445
0.401741
0.401039
0.400341
0.399646
0.398954
0.398265
0.39758
0.396898
0.39622
0.395545
0.394873
0.394204
0.393539
0.392877
0.392219
0.391564
0.390912
0.390263
0.389618
0.388976
0.388337
0.387701
0.387069
0.386439
0.385812
0.385189
0.384568
0.38395
0.383335
0.382722
0.382112
0.381505
0.380899
0.380297
0.379696
0.379097
0.378501
0.377906
0.377313
0.376722
0.376132
0.375544
0.374956
0.374371
0.373786
0.373202
0.372618
0.372036
0.371453
0.370872
0.37029
0.444625
0.429722
0.414798
0.413371
0.412623
0.411878
0.411136
0.410396
0.409659
0.408925
0.408193
0.407465
0.406739
0.406016
0.405296
0.404579
0.403865
0.403154
0.402446
0.401741
0.40104
0.400341
0.399646
0.398954
0.398266
0.397581
0.396899
0.39622
0.395545
0.394873
0.394205
0.393539
0.392878
0.392219
0.391564
0.390912
0.390264
0.389618
0.388976
0.388337
0.387702
0.387069
0.386439
0.385813
0.385189
0.384568
0.38395
0.383335
0.382722
0.382112
0.381505
0.3809
0.380297
0.379696
0.379097
0.378501
0.377906
0.377313
0.376722
0.376132
0.375544
0.374957
0.374371
0.373786
0.373202
0.372618
0.372036
0.371453
0.370872
0.37029
0.444625
0.429723
0.414799
0.413371
0.412624
0.411879
0.411137
0.410397
0.40966
0.408925
0.408194
0.407465
0.406739
0.406016
0.405296
0.404579
0.403865
0.403154
0.402446
0.401741
0.40104
0.400342
0.399647
0.398955
0.398266
0.397581
0.396899
0.396221
0.395545
0.394874
0.394205
0.39354
0.392878
0.39222
0.391564
0.390913
0.390264
0.389619
0.388977
0.388338
0.387702
0.387069
0.38644
0.385813
0.385189
0.384569
0.383951
0.383335
0.382723
0.382113
0.381505
0.3809
0.380297
0.379696
0.379098
0.378501
0.377906
0.377313
0.376722
0.376132
0.375544
0.374957
0.374371
0.373786
0.373202
0.372618
0.372036
0.371453
0.370872
0.37029
0.444625
0.429723
0.414799
0.413371
0.412624
0.411879
0.411137
0.410397
0.40966
0.408926
0.408194
0.407465
0.406739
0.406016
0.405296
0.404579
0.403865
0.403154
0.402447
0.401742
0.40104
0.400342
0.399647
0.398955
0.398267
0.397581
0.396899
0.396221
0.395546
0.394874
0.394205
0.39354
0.392878
0.39222
0.391565
0.390913
0.390264
0.389619
0.388977
0.388338
0.387702
0.387069
0.38644
0.385813
0.38519
0.384569
0.383951
0.383335
0.382723
0.382113
0.381505
0.3809
0.380297
0.379696
0.379098
0.378501
0.377906
0.377313
0.376722
0.376132
0.375544
0.374957
0.374371
0.373786
0.373202
0.372618
0.372036
0.371453
0.370872
0.37029
0.444625
0.429723
0.414799
0.413372
0.412624
0.411879
0.411137
0.410397
0.40966
0.408926
0.408194
0.407466
0.40674
0.406017
0.405297
0.40458
0.403866
0.403155
0.402447
0.401742
0.401041
0.400342
0.399647
0.398955
0.398267
0.397582
0.3969
0.396221
0.395546
0.394874
0.394205
0.39354
0.392879
0.39222
0.391565
0.390913
0.390264
0.389619
0.388977
0.388338
0.387702
0.38707
0.38644
0.385813
0.38519
0.384569
0.383951
0.383336
0.382723
0.382113
0.381505
0.3809
0.380297
0.379696
0.379098
0.378501
0.377906
0.377313
0.376722
0.376132
0.375544
0.374957
0.374371
0.373786
0.373202
0.372618
0.372036
0.371454
0.370872
0.37029
0.444625
0.429723
0.414799
0.413372
0.412624
0.41188
0.411137
0.410398
0.40966
0.408926
0.408195
0.407466
0.40674
0.406017
0.405297
0.40458
0.403866
0.403155
0.402447
0.401742
0.401041
0.400342
0.399647
0.398955
0.398267
0.397582
0.3969
0.396221
0.395546
0.394874
0.394206
0.39354
0.392879
0.39222
0.391565
0.390913
0.390265
0.389619
0.388977
0.388338
0.387702
0.38707
0.38644
0.385813
0.38519
0.384569
0.383951
0.383336
0.382723
0.382113
0.381505
0.3809
0.380297
0.379697
0.379098
0.378501
0.377907
0.377314
0.376722
0.376132
0.375544
0.374957
0.374371
0.373786
0.373202
0.372618
0.372036
0.371454
0.370872
0.37029
0.444625
0.429723
0.4148
0.413372
0.412625
0.41188
0.411137
0.410398
0.409661
0.408926
0.408195
0.407466
0.40674
0.406017
0.405297
0.40458
0.403866
0.403155
0.402447
0.401742
0.401041
0.400343
0.399647
0.398956
0.398267
0.397582
0.3969
0.396221
0.395546
0.394874
0.394206
0.393541
0.392879
0.39222
0.391565
0.390913
0.390265
0.389619
0.388977
0.388338
0.387703
0.38707
0.38644
0.385814
0.38519
0.384569
0.383951
0.383336
0.382723
0.382113
0.381505
0.3809
0.380297
0.379697
0.379098
0.378501
0.377907
0.377314
0.376722
0.376132
0.375544
0.374957
0.374371
0.373786
0.373202
0.372618
0.372036
0.371454
0.370872
0.37029
0.444625
0.429723
0.4148
0.413372
0.412625
0.41188
0.411137
0.410398
0.409661
0.408926
0.408195
0.407466
0.40674
0.406017
0.405297
0.40458
0.403866
0.403155
0.402447
0.401742
0.401041
0.400343
0.399648
0.398956
0.398267
0.397582
0.3969
0.396221
0.395546
0.394874
0.394206
0.393541
0.392879
0.39222
0.391565
0.390913
0.390265
0.389619
0.388977
0.388338
0.387703
0.38707
0.38644
0.385814
0.38519
0.384569
0.383951
0.383336
0.382723
0.382113
0.381505
0.3809
0.380297
0.379697
0.379098
0.378501
0.377907
0.377314
0.376722
0.376132
0.375544
0.374957
0.374371
0.373786
0.373202
0.372618
0.372036
0.371454
0.370872
0.37029
0.444625
0.429723
0.4148
0.413372
0.412625
0.41188
0.411137
0.410398
0.409661
0.408926
0.408195
0.407466
0.40674
0.406017
0.405297
0.40458
0.403866
0.403155
0.402447
0.401742
0.401041
0.400343
0.399648
0.398956
0.398267
0.397582
0.3969
0.396222
0.395546
0.394874
0.394206
0.393541
0.392879
0.39222
0.391565
0.390913
0.390265
0.389619
0.388977
0.388338
0.387703
0.38707
0.38644
0.385814
0.38519
0.384569
0.383951
0.383336
0.382723
0.382113
0.381505
0.3809
0.380297
0.379697
0.379098
0.378501
0.377907
0.377314
0.376722
0.376132
0.375544
0.374957
0.374371
0.373786
0.373202
0.372618
0.372036
0.371454
0.370872
0.37029
0.444625
0.429723
0.4148
0.413372
0.412625
0.41188
0.411138
0.410398
0.409661
0.408926
0.408195
0.407466
0.40674
0.406017
0.405297
0.40458
0.403866
0.403155
0.402447
0.401743
0.401041
0.400343
0.399648
0.398956
0.398267
0.397582
0.3969
0.396222
0.395546
0.394874
0.394206
0.393541
0.392879
0.39222
0.391565
0.390913
0.390265
0.389619
0.388977
0.388338
0.387703
0.38707
0.38644
0.385814
0.38519
0.384569
0.383951
0.383336
0.382723
0.382113
0.381505
0.3809
0.380297
0.379697
0.379098
0.378501
0.377907
0.377314
0.376722
0.376132
0.375544
0.374957
0.374371
0.373786
0.373202
0.372618
0.372036
0.371454
0.370872
0.37029
0.444625
0.429723
0.4148
0.413372
0.412625
0.41188
0.411138
0.410398
0.409661
0.408926
0.408195
0.407466
0.40674
0.406017
0.405297
0.40458
0.403866
0.403155
0.402447
0.401743
0.401041
0.400343
0.399648
0.398956
0.398267
0.397582
0.3969
0.396222
0.395546
0.394874
0.394206
0.393541
0.392879
0.39222
0.391565
0.390913
0.390265
0.389619
0.388977
0.388338
0.387703
0.38707
0.38644
0.385814
0.38519
0.384569
0.383951
0.383336
0.382723
0.382113
0.381505
0.3809
0.380297
0.379697
0.379098
0.378501
0.377907
0.377314
0.376722
0.376132
0.375544
0.374957
0.374371
0.373786
0.373202
0.372618
0.372036
0.371454
0.370872
0.37029
0.444625
0.429723
0.4148
0.413372
0.412625
0.41188
0.411138
0.410398
0.409661
0.408926
0.408195
0.407466
0.40674
0.406017
0.405297
0.40458
0.403866
0.403155
0.402447
0.401743
0.401041
0.400343
0.399648
0.398956
0.398267
0.397582
0.3969
0.396222
0.395546
0.394874
0.394206
0.393541
0.392879
0.39222
0.391565
0.390913
0.390265
0.389619
0.388977
0.388338
0.387703
0.38707
0.38644
0.385814
0.38519
0.384569
0.383951
0.383336
0.382723
0.382113
0.381505
0.3809
0.380297
0.379697
0.379098
0.378501
0.377907
0.377314
0.376722
0.376132
0.375544
0.374957
0.374371
0.373786
0.373202
0.372618
0.372036
0.371454
0.370872
0.37029
0.444625
0.429723
0.4148
0.413372
0.412625
0.41188
0.411138
0.410398
0.409661
0.408926
0.408195
0.407466
0.40674
0.406017
0.405297
0.40458
0.403866
0.403155
0.402447
0.401743
0.401041
0.400343
0.399648
0.398956
0.398267
0.397582
0.3969
0.396222
0.395546
0.394874
0.394206
0.393541
0.392879
0.39222
0.391565
0.390913
0.390265
0.389619
0.388977
0.388338
0.387703
0.38707
0.38644
0.385814
0.38519
0.384569
0.383951
0.383336
0.382723
0.382113
0.381505
0.3809
0.380297
0.379697
0.379098
0.378501
0.377907
0.377314
0.376722
0.376132
0.375544
0.374957
0.374371
0.373786
0.373202
0.372618
0.372036
0.371454
0.370872
0.37029
0.444625
0.429723
0.4148
0.413372
0.412625
0.41188
0.411138
0.410398
0.409661
0.408926
0.408195
0.407466
0.40674
0.406017
0.405297
0.40458
0.403866
0.403155
0.402447
0.401743
0.401041
0.400343
0.399648
0.398956
0.398267
0.397582
0.3969
0.396222
0.395546
0.394874
0.394206
0.393541
0.392879
0.39222
0.391565
0.390913
0.390265
0.389619
0.388977
0.388338
0.387703
0.38707
0.38644
0.385814
0.38519
0.384569
0.383951
0.383336
0.382723
0.382113
0.381505
0.3809
0.380297
0.379697
0.379098
0.378501
0.377907
0.377314
0.376722
0.376132
0.375544
0.374957
0.374371
0.373786
0.373202
0.372618
0.372036
0.371454
0.370872
0.37029
0.444625
0.429723
0.4148
0.413372
0.412625
0.41188
0.411138
0.410398
0.409661
0.408926
0.408195
0.407466
0.40674
0.406017
0.405297
0.40458
0.403866
0.403155
0.402447
0.401743
0.401041
0.400343
0.399648
0.398956
0.398267
0.397582
0.3969
0.396222
0.395546
0.394874
0.394206
0.393541
0.392879
0.39222
0.391565
0.390913
0.390265
0.389619
0.388977
0.388338
0.387703
0.38707
0.38644
0.385814
0.38519
0.384569
0.383951
0.383336
0.382723
0.382113
0.381505
0.3809
0.380297
0.379697
0.379098
0.378501
0.377907
0.377314
0.376722
0.376132
0.375544
0.374957
0.374371
0.373786
0.373202
0.372618
0.372036
0.371454
0.370872
0.37029
0.444625
0.429723
0.4148
0.413372
0.412625
0.41188
0.411138
0.410398
0.409661
0.408927
0.408195
0.407466
0.40674
0.406017
0.405297
0.40458
0.403866
0.403155
0.402447
0.401743
0.401041
0.400343
0.399648
0.398956
0.398267
0.397582
0.3969
0.396222
0.395546
0.394874
0.394206
0.393541
0.392879
0.39222
0.391565
0.390913
0.390265
0.389619
0.388977
0.388338
0.387703
0.38707
0.38644
0.385814
0.38519
0.384569
0.383951
0.383336
0.382723
0.382113
0.381505
0.3809
0.380297
0.379697
0.379098
0.378501
0.377907
0.377314
0.376722
0.376132
0.375544
0.374957
0.374371
0.373786
0.373202
0.372618
0.372036
0.371454
0.370872
0.37029
0.444625
0.429723
0.4148
0.413372
0.412625
0.41188
0.411138
0.410398
0.409661
0.408927
0.408195
0.407466
0.40674
0.406017
0.405297
0.40458
0.403866
0.403155
0.402447
0.401743
0.401041
0.400343
0.399648
0.398956
0.398267
0.397582
0.3969
0.396222
0.395546
0.394874
0.394206
0.393541
0.392879
0.39222
0.391565
0.390913
0.390265
0.389619
0.388977
0.388338
0.387703
0.38707
0.38644
0.385814
0.38519
0.384569
0.383951
0.383336
0.382723
0.382113
0.381505
0.3809
0.380297
0.379697
0.379098
0.378501
0.377907
0.377314
0.376722
0.376132
0.375544
0.374957
0.374371
0.373786
0.373202
0.372618
0.372036
0.371454
0.370872
0.37029
0.444625
0.429723
0.4148
0.413372
0.412625
0.41188
0.411138
0.410398
0.409661
0.408927
0.408195
0.407466
0.40674
0.406017
0.405297
0.40458
0.403866
0.403155
0.402447
0.401743