/*--------------------------------*- C++ -*----------------------------------*\
  =========                 |
  \\      /  F ield         | OpenFOAM: The Open Source CFD Toolbox
   \\    /   O peration     | Website:  https://openfoam.org
    \\  /    A nd           | Version:  13
     \\/     M anipulation  |
\*---------------------------------------------------------------------------*/
FoamFile
{
    format      ascii;
    class       volScalarField;
    location    "28";
    object      nut;
}
// * * * * * * * * * * * * * * * * * * * * * * * * * * * * * * * * * * * * * //

dimensions      [0 2 -1 0 0 0 0];

internalField   nonuniform List<scalar> 
78750
(
1.4635e-18
3.74102e-16
8.43115e-15
1.5293e-14
2.25252e-14
3.01806e-14
3.82632e-14
4.67159e-14
5.54191e-14
6.41976e-14
7.28315e-14
8.10709e-14
8.86521e-14
9.53145e-14
1.00817e-13
1.04954e-13
1.07565e-13
1.08547e-13
1.07862e-13
1.05536e-13
1.01658e-13
9.63759e-14
8.98887e-14
8.24311e-14
7.42607e-14
6.56415e-14
5.68267e-14
4.80416e-14
3.94682e-14
3.1233e-14
2.33983e-14
1.59603e-14
8.85482e-15
3.96231e-16
1.55698e-18
3.17532e-17
8.24469e-15
1.16378e-12
2.12619e-12
3.13947e-12
4.21484e-12
5.35444e-12
6.55064e-12
7.78633e-12
9.03604e-12
1.02677e-11
1.14449e-11
1.25292e-11
1.34824e-11
1.42695e-11
1.48603e-11
1.52316e-11
1.53686e-11
1.52656e-11
1.49267e-11
1.43653e-11
1.3603e-11
1.26692e-11
1.15982e-11
1.04277e-11
9.19635e-12
7.94092e-12
6.69415e-12
5.48235e-12
4.32356e-12
3.22623e-12
2.18879e-12
1.20014e-12
8.5165e-15
3.2821e-17
8.82344e-17
2.29161e-14
3.24144e-12
5.95684e-12
8.8724e-12
1.20395e-11
1.54777e-11
1.91709e-11
2.30677e-11
2.70835e-11
3.11063e-11
3.50047e-11
3.86362e-11
4.18577e-11
4.4535e-11
4.6552e-11
4.78192e-11
4.82789e-11
4.791e-11
4.6729e-11
4.4789e-11
4.2176e-11
3.90032e-11
3.54032e-11
3.15184e-11
2.74918e-11
2.34566e-11
1.9527e-11
1.57903e-11
1.2301e-11
9.07762e-12
6.10243e-12
3.32466e-12
2.35319e-14
9.06467e-17
1.68984e-16
4.38888e-14
6.2124e-12
1.14415e-11
1.70966e-11
2.3292e-11
3.00768e-11
3.74272e-11
4.52442e-11
5.33583e-11
6.15399e-11
6.95138e-11
7.69783e-11
8.36263e-11
8.91673e-11
9.33486e-11
9.59736e-11
9.69166e-11
9.61317e-11
9.36563e-11
8.96084e-11
8.41779e-11
7.76127e-11
7.02005e-11
6.22474e-11
5.40566e-11
4.59061e-11
3.80302e-11
3.06033e-11
2.37296e-11
1.74377e-11
1.16818e-11
6.3488e-12
4.48945e-14
1.7292e-16
2.60387e-16
6.76243e-14
9.57364e-12
1.76427e-11
2.63875e-11
3.59912e-11
4.65349e-11
5.79848e-11
7.01885e-11
8.28816e-11
9.57031e-11
1.08219e-10
1.1995e-10
1.30409e-10
1.39131e-10
1.45715e-10
1.49844e-10
1.51317e-10
1.50063e-10
1.46142e-10
1.39744e-10
1.31175e-10
1.2083e-10
1.09171e-10
9.66832e-11
8.38477e-11
7.11031e-11
5.88164e-11
4.72593e-11
3.65917e-11
2.6854e-11
1.79701e-11
9.75869e-12
6.89865e-14
2.65718e-16
3.49707e-16
9.08171e-14
1.28573e-11
2.36975e-11
3.54517e-11
4.83688e-11
6.25595e-11
7.79791e-11
9.44229e-11
1.11534e-10
1.28826e-10
1.4571e-10
1.61541e-10
1.75655e-10
1.87428e-10
1.9631e-10
2.01876e-10
2.03854e-10
2.02146e-10
1.96835e-10
1.88181e-10
1.76597e-10
1.62623e-10
1.4688e-10
1.3003e-10
1.12721e-10
9.55453e-11
7.89987e-11
6.34464e-11
4.91026e-11
3.60205e-11
2.40955e-11
1.30816e-11
9.24671e-14
3.56164e-16
4.28076e-16
1.1117e-13
1.57389e-11
2.90093e-11
4.34005e-11
5.9218e-11
7.65979e-11
9.54858e-11
1.15631e-10
1.36595e-10
1.57782e-10
1.7847e-10
1.97867e-10
2.15161e-10
2.29583e-10
2.40461e-10
2.47273e-10
2.49687e-10
2.47581e-10
2.4106e-10
2.30441e-10
2.16234e-10
1.991e-10
1.79803e-10
1.59153e-10
1.37946e-10
1.16908e-10
9.66454e-11
7.76057e-11
6.00506e-11
4.40446e-11
2.9459e-11
1.59917e-11
1.13029e-13
4.3535e-16
4.90674e-16
1.27433e-13
1.80419e-11
3.32541e-11
4.97516e-11
6.78849e-11
8.78102e-11
1.09465e-10
1.32561e-10
1.56598e-10
1.80889e-10
2.04608e-10
2.26846e-10
2.46671e-10
2.63201e-10
2.75667e-10
2.8347e-10
2.86228e-10
2.83803e-10
2.76316e-10
2.6413e-10
2.47832e-10
2.2818e-10
2.06051e-10
1.82373e-10
1.5806e-10
1.33943e-10
1.10719e-10
8.88987e-11
6.87832e-11
5.04454e-11
3.37375e-11
1.83131e-11
1.29426e-13
4.98477e-16
5.36432e-16
1.39327e-13
1.97268e-11
3.63598e-11
5.43981e-11
7.42252e-11
9.60122e-11
1.19691e-10
1.44945e-10
1.71228e-10
1.97788e-10
2.23723e-10
2.48036e-10
2.69711e-10
2.87782e-10
3.01407e-10
3.09932e-10
3.1294e-10
3.10281e-10
3.02085e-10
2.88753e-10
2.70926e-10
2.49432e-10
2.25232e-10
1.99341e-10
1.72756e-10
1.4639e-10
1.21e-10
9.71487e-11
7.51622e-11
5.51208e-11
3.68626e-11
2.00085e-11
1.41397e-13
5.44534e-16
5.67153e-16
1.47318e-13
2.08593e-11
3.84473e-11
5.75213e-11
7.8487e-11
1.01525e-10
1.26564e-10
1.53269e-10
1.81062e-10
2.09147e-10
2.36571e-10
2.6228e-10
2.85197e-10
3.04302e-10
3.18706e-10
3.27716e-10
3.30891e-10
3.28073e-10
3.194e-10
3.05297e-10
2.8644e-10
2.63708e-10
2.38115e-10
2.10736e-10
1.82626e-10
1.54747e-10
1.27903e-10
1.02687e-10
7.94441e-11
5.82588e-11
3.89598e-11
2.11462e-11
1.49426e-13
5.754e-16
5.86169e-16
1.52269e-13
2.15614e-11
3.97413e-11
5.94574e-11
8.11291e-11
1.04943e-10
1.30825e-10
1.5843e-10
1.87159e-10
2.1619e-10
2.44537e-10
2.7111e-10
2.94798e-10
3.14545e-10
3.29431e-10
3.38741e-10
3.42018e-10
3.39101e-10
3.30132e-10
3.1555e-10
2.96055e-10
2.72554e-10
2.46098e-10
2.17796e-10
1.88739e-10
1.59923e-10
1.32178e-10
1.06116e-10
8.2095e-11
6.02013e-11
4.02579e-11
2.18502e-11
1.54391e-13
5.94475e-16
5.97069e-16
1.5511e-13
2.19643e-11
4.04842e-11
6.05689e-11
8.2646e-11
1.06906e-10
1.33272e-10
1.61394e-10
1.9066e-10
2.20235e-10
2.49112e-10
2.76182e-10
3.00312e-10
3.20427e-10
3.35589e-10
3.45071e-10
3.48408e-10
3.45433e-10
3.36294e-10
3.21436e-10
3.01573e-10
2.77632e-10
2.50679e-10
2.21847e-10
1.92247e-10
1.62893e-10
1.3463e-10
1.08083e-10
8.36151e-11
6.1315e-11
4.1002e-11
2.22537e-11
1.57235e-13
6.05391e-16
6.02879e-16
1.56625e-13
2.21795e-11
4.08809e-11
6.11625e-11
8.3456e-11
1.07954e-10
1.34579e-10
1.62977e-10
1.9253e-10
2.22395e-10
2.51555e-10
2.78891e-10
3.03257e-10
3.23568e-10
3.38879e-10
3.48453e-10
3.5182e-10
3.48815e-10
3.39584e-10
3.24579e-10
3.0452e-10
2.80342e-10
2.53124e-10
2.24009e-10
1.94119e-10
1.64477e-10
1.35938e-10
1.09132e-10
8.44259e-11
6.1909e-11
4.13989e-11
2.24689e-11
1.58751e-13
6.11201e-16
6.05772e-16
1.5738e-13
2.22868e-11
4.10788e-11
6.14586e-11
8.38601e-11
1.08477e-10
1.35231e-10
1.63766e-10
1.93463e-10
2.23473e-10
2.52774e-10
2.80242e-10
3.04727e-10
3.25136e-10
3.4052e-10
3.5014e-10
3.53523e-10
3.50502e-10
3.41226e-10
3.26147e-10
3.0599e-10
2.81694e-10
2.54344e-10
2.25087e-10
1.95052e-10
1.65267e-10
1.36591e-10
1.09655e-10
8.483e-11
6.2205e-11
4.15966e-11
2.25761e-11
1.59505e-13
6.14091e-16
6.07123e-16
1.57734e-13
2.2337e-11
4.11714e-11
6.15972e-11
8.40492e-11
1.08721e-10
1.35536e-10
1.64136e-10
1.939e-10
2.23977e-10
2.53345e-10
2.80875e-10
3.05415e-10
3.2587e-10
3.41289e-10
3.5093e-10
3.5432e-10
3.51292e-10
3.41994e-10
3.26881e-10
3.06678e-10
2.82327e-10
2.54915e-10
2.25592e-10
1.95489e-10
1.65637e-10
1.36896e-10
1.099e-10
8.50189e-11
6.23434e-11
4.1689e-11
2.26262e-11
1.59858e-13
6.15438e-16
6.07717e-16
1.57889e-13
2.23592e-11
4.12121e-11
6.16582e-11
8.41325e-11
1.08829e-10
1.3567e-10
1.64299e-10
1.94092e-10
2.242e-10
2.53597e-10
2.81154e-10
3.05718e-10
3.26194e-10
3.41627e-10
3.51278e-10
3.54672e-10
3.5164e-10
3.42333e-10
3.27204e-10
3.06981e-10
2.82606e-10
2.55166e-10
2.25814e-10
1.95681e-10
1.65799e-10
1.3703e-10
1.10007e-10
8.5102e-11
6.24043e-11
4.17296e-11
2.26482e-11
1.60012e-13
6.1603e-16
6.07963e-16
1.57954e-13
2.23683e-11
4.12291e-11
6.16836e-11
8.41672e-11
1.08874e-10
1.35726e-10
1.64367e-10
1.94172e-10
2.24292e-10
2.53701e-10
2.8127e-10
3.05844e-10
3.26328e-10
3.41768e-10
3.51423e-10
3.54818e-10
3.51785e-10
3.42474e-10
3.27339e-10
3.07107e-10
2.82722e-10
2.55271e-10
2.25906e-10
1.95761e-10
1.65867e-10
1.37086e-10
1.10052e-10
8.51366e-11
6.24296e-11
4.17466e-11
2.26574e-11
1.60077e-13
6.16276e-16
6.08061e-16
1.57979e-13
2.2372e-11
4.12358e-11
6.16936e-11
8.41809e-11
1.08892e-10
1.35748e-10
1.64393e-10
1.94204e-10
2.24329e-10
2.53743e-10
2.81316e-10
3.05894e-10
3.26381e-10
3.41824e-10
3.5148e-10
3.54875e-10
3.51842e-10
3.42529e-10
3.27392e-10
3.07157e-10
2.82768e-10
2.55312e-10
2.25943e-10
1.95793e-10
1.65894e-10
1.37108e-10
1.1007e-10
8.51502e-11
6.24395e-11
4.17532e-11
2.2661e-11
1.60102e-13
6.16372e-16
6.08097e-16
1.57989e-13
2.23733e-11
4.12383e-11
6.16973e-11
8.4186e-11
1.08898e-10
1.35757e-10
1.64403e-10
1.94216e-10
2.24342e-10
2.53758e-10
2.81333e-10
3.05912e-10
3.26401e-10
3.41845e-10
3.51501e-10
3.54897e-10
3.51864e-10
3.4255e-10
3.27412e-10
3.07176e-10
2.82785e-10
2.55327e-10
2.25956e-10
1.95804e-10
1.65904e-10
1.37116e-10
1.10076e-10
8.51553e-11
6.24433e-11
4.17557e-11
2.26623e-11
1.60112e-13
6.16408e-16
6.0811e-16
1.57992e-13
2.23738e-11
4.12392e-11
6.16987e-11
8.41878e-11
1.08901e-10
1.3576e-10
1.64407e-10
1.9422e-10
2.24347e-10
2.53764e-10
2.81339e-10
3.05919e-10
3.26408e-10
3.41852e-10
3.51509e-10
3.54905e-10
3.51871e-10
3.42557e-10
3.27419e-10
3.07182e-10
2.82791e-10
2.55333e-10
2.25961e-10
1.95809e-10
1.65907e-10
1.37119e-10
1.10079e-10
8.51572e-11
6.24446e-11
4.17566e-11
2.26628e-11
1.60115e-13
6.16421e-16
6.08114e-16
1.57993e-13
2.2374e-11
4.12395e-11
6.16991e-11
8.41884e-11
1.08902e-10
1.35761e-10
1.64408e-10
1.94221e-10
2.24349e-10
2.53766e-10
2.81341e-10
3.05921e-10
3.26411e-10
3.41855e-10
3.51512e-10
3.54907e-10
3.51874e-10
3.4256e-10
3.27421e-10
3.07185e-10
2.82793e-10
2.55335e-10
2.25963e-10
1.9581e-10
1.65908e-10
1.3712e-10
1.10079e-10
8.51578e-11
6.24451e-11
4.17569e-11
2.2663e-11
1.60116e-13
6.16425e-16
6.08116e-16
1.57994e-13
2.2374e-11
4.12396e-11
6.16993e-11
8.41886e-11
1.08902e-10
1.35761e-10
1.64409e-10
1.94222e-10
2.2435e-10
2.53766e-10
2.81342e-10
3.05922e-10
3.26412e-10
3.41856e-10
3.51512e-10
3.54908e-10
3.51875e-10
3.42561e-10
3.27422e-10
3.07185e-10
2.82794e-10
2.55335e-10
2.25963e-10
1.9581e-10
1.65909e-10
1.3712e-10
1.1008e-10
8.5158e-11
6.24452e-11
4.1757e-11
2.2663e-11
1.60116e-13
6.16427e-16
6.08116e-16
1.57994e-13
2.23741e-11
4.12396e-11
6.16993e-11
8.41887e-11
1.08902e-10
1.35761e-10
1.64409e-10
1.94222e-10
2.2435e-10
2.53766e-10
2.81342e-10
3.05922e-10
3.26412e-10
3.41856e-10
3.51513e-10
3.54909e-10
3.51875e-10
3.42561e-10
3.27422e-10
3.07185e-10
2.82794e-10
2.55336e-10
2.25964e-10
1.95811e-10
1.65909e-10
1.3712e-10
1.1008e-10
8.5158e-11
6.24452e-11
4.1757e-11
2.26631e-11
1.60117e-13
6.16427e-16
6.08116e-16
1.57994e-13
2.23741e-11
4.12396e-11
6.16993e-11
8.41887e-11
1.08902e-10
1.35761e-10
1.64409e-10
1.94222e-10
2.2435e-10
2.53766e-10
2.81342e-10
3.05922e-10
3.26412e-10
3.41856e-10
3.51513e-10
3.54909e-10
3.51875e-10
3.42561e-10
3.27422e-10
3.07186e-10
2.82794e-10
2.55336e-10
2.25964e-10
1.95811e-10
1.65909e-10
1.3712e-10
1.1008e-10
8.51581e-11
6.24453e-11
4.1757e-11
2.26631e-11
1.60117e-13
6.16427e-16
6.08116e-16
1.57994e-13
2.23741e-11
4.12396e-11
6.16993e-11
8.41887e-11
1.08902e-10
1.35761e-10
1.64409e-10
1.94222e-10
2.2435e-10
2.53766e-10
2.81342e-10
3.05922e-10
3.26412e-10
3.41856e-10
3.51513e-10
3.54909e-10
3.51875e-10
3.42561e-10
3.27422e-10
3.07186e-10
2.82794e-10
2.55336e-10
2.25964e-10
1.95811e-10
1.65909e-10
1.3712e-10
1.1008e-10
8.51581e-11
6.24453e-11
4.1757e-11
2.26631e-11
1.60117e-13
6.16427e-16
6.08116e-16
1.57994e-13
2.23741e-11
4.12396e-11
6.16993e-11
8.41887e-11
1.08902e-10
1.35761e-10
1.64409e-10
1.94222e-10
2.2435e-10
2.53766e-10
2.81342e-10
3.05922e-10
3.26412e-10
3.41856e-10
3.51513e-10
3.54909e-10
3.51875e-10
3.42561e-10
3.27422e-10
3.07186e-10
2.82794e-10
2.55336e-10
2.25964e-10
1.95811e-10
1.65909e-10
1.3712e-10
1.1008e-10
8.51581e-11
6.24453e-11
4.1757e-11
2.26631e-11
1.60117e-13
6.16427e-16
6.08116e-16
1.57994e-13
2.23741e-11
4.12396e-11
6.16993e-11
8.41887e-11
1.08902e-10
1.35761e-10
1.64409e-10
1.94222e-10
2.2435e-10
2.53766e-10
2.81342e-10
3.05922e-10
3.26412e-10
3.41856e-10
3.51513e-10
3.54909e-10
3.51875e-10
3.42561e-10
3.27422e-10
3.07186e-10
2.82794e-10
2.55336e-10
2.25964e-10
1.95811e-10
1.65909e-10
1.3712e-10
1.1008e-10
8.51581e-11
6.24453e-11
4.1757e-11
2.26631e-11
1.60117e-13
6.16427e-16
6.08116e-16
1.57994e-13
2.23741e-11
4.12396e-11
6.16993e-11
8.41887e-11
1.08902e-10
1.35761e-10
1.64409e-10
1.94222e-10
2.2435e-10
2.53766e-10
2.81342e-10
3.05922e-10
3.26412e-10
3.41856e-10
3.51513e-10
3.54909e-10
3.51875e-10
3.42561e-10
3.27422e-10
3.07186e-10
2.82794e-10
2.55336e-10
2.25964e-10
1.95811e-10
1.65909e-10
1.3712e-10
1.1008e-10
8.51581e-11
6.24453e-11
4.1757e-11
2.26631e-11
1.60117e-13
6.16427e-16
6.08116e-16
1.57994e-13
2.23741e-11
4.12396e-11
6.16993e-11
8.41887e-11
1.08902e-10
1.35761e-10
1.64409e-10
1.94222e-10
2.2435e-10
2.53766e-10
2.81342e-10
3.05922e-10
3.26412e-10
3.41856e-10
3.51513e-10
3.54909e-10
3.51875e-10
3.42561e-10
3.27422e-10
3.07186e-10
2.82794e-10
2.55336e-10
2.25964e-10
1.95811e-10
1.65909e-10
1.3712e-10
1.1008e-10
8.51581e-11
6.24453e-11
4.1757e-11
2.26631e-11
1.60117e-13
6.16427e-16
6.08116e-16
1.57994e-13
2.23741e-11
4.12396e-11
6.16993e-11
8.41887e-11
1.08902e-10
1.35761e-10
1.64409e-10
1.94222e-10
2.2435e-10
2.53766e-10
2.81342e-10
3.05922e-10
3.26412e-10
3.41856e-10
3.51513e-10
3.54909e-10
3.51875e-10
3.42561e-10
3.27422e-10
3.07186e-10
2.82794e-10
2.55336e-10
2.25964e-10
1.95811e-10
1.65909e-10
1.3712e-10
1.1008e-10
8.51581e-11
6.24453e-11
4.1757e-11
2.26631e-11
1.60117e-13
6.16427e-16
6.08116e-16
1.57994e-13
2.23741e-11
4.12396e-11
6.16993e-11
8.41887e-11
1.08902e-10
1.35761e-10
1.64409e-10
1.94222e-10
2.2435e-10
2.53766e-10
2.81342e-10
3.05922e-10
3.26412e-10
3.41856e-10
3.51513e-10
3.54909e-10
3.51875e-10
3.42561e-10
3.27422e-10
3.07186e-10
2.82794e-10
2.55336e-10
2.25964e-10
1.95811e-10
1.65909e-10
1.3712e-10
1.1008e-10
8.51581e-11
6.24453e-11
4.1757e-11
2.26631e-11
1.60117e-13
6.16427e-16
6.08116e-16
1.57994e-13
2.23741e-11
4.12396e-11
6.16993e-11
8.41887e-11
1.08902e-10
1.35761e-10
1.64409e-10
1.94222e-10
2.2435e-10
2.53766e-10
2.81342e-10
3.05922e-10
3.26412e-10
3.41856e-10
3.51513e-10
3.54909e-10
3.51875e-10
3.42561e-10
3.27422e-10
3.07186e-10
2.82794e-10
2.55336e-10
2.25964e-10
1.95811e-10
1.65909e-10
1.3712e-10
1.1008e-10
8.51581e-11
6.24453e-11
4.1757e-11
2.26631e-11
1.60117e-13
6.16427e-16
6.08116e-16
1.57994e-13
2.23741e-11
4.12396e-11
6.16993e-11
8.41887e-11
1.08902e-10
1.35761e-10
1.64409e-10
1.94222e-10
2.2435e-10
2.53766e-10
2.81342e-10
3.05922e-10
3.26412e-10
3.41856e-10
3.51513e-10
3.54909e-10
3.51875e-10
3.42561e-10
3.27422e-10
3.07186e-10
2.82794e-10
2.55336e-10
2.25964e-10
1.95811e-10
1.65909e-10
1.3712e-10
1.1008e-10
8.51581e-11
6.24453e-11
4.1757e-11
2.26631e-11
1.60117e-13
6.16427e-16
6.08116e-16
1.57994e-13
2.23741e-11
4.12396e-11
6.16993e-11
8.41887e-11
1.08902e-10
1.35761e-10
1.64409e-10
1.94222e-10
2.2435e-10
2.53766e-10
2.81342e-10
3.05922e-10
3.26412e-10
3.41856e-10
3.51513e-10
3.54909e-10
3.51875e-10
3.42561e-10
3.27422e-10
3.07186e-10
2.82794e-10
2.55336e-10
2.25964e-10
1.95811e-10
1.65909e-10
1.3712e-10
1.1008e-10
8.51581e-11
6.24453e-11
4.1757e-11
2.26631e-11
1.60117e-13
6.16427e-16
6.08116e-16
1.57994e-13
2.23741e-11
4.12396e-11
6.16993e-11
8.41887e-11
1.08902e-10
1.35761e-10
1.64409e-10
1.94222e-10
2.2435e-10
2.53766e-10
2.81342e-10
3.05922e-10
3.26412e-10
3.41856e-10
3.51513e-10
3.54909e-10
3.51875e-10
3.42561e-10
3.27422e-10
3.07186e-10
2.82794e-10
2.55336e-10
2.25964e-10
1.95811e-10
1.65909e-10
1.3712e-10
1.1008e-10
8.51581e-11
6.24453e-11
4.1757e-11
2.26631e-11
1.60117e-13
6.16427e-16
6.08116e-16
1.57994e-13
2.23741e-11
4.12396e-11
6.16993e-11
8.41887e-11
1.08902e-10
1.35761e-10
1.64409e-10
1.94222e-10
2.2435e-10
2.53766e-10
2.81342e-10
3.05922e-10
3.26412e-10
3.41856e-10
3.51513e-10
3.54909e-10
3.51875e-10
3.42561e-10
3.27422e-10
3.07186e-10
2.82794e-10
2.55336e-10
2.25964e-10
1.95811e-10
1.65909e-10
1.3712e-10
1.1008e-10
8.51581e-11
6.24453e-11
4.1757e-11
2.26631e-11
1.60117e-13
6.16427e-16
6.08116e-16
1.57994e-13
2.23741e-11
4.12396e-11
6.16993e-11
8.41887e-11
1.08902e-10
1.35761e-10
1.64409e-10
1.94222e-10
2.2435e-10
2.53766e-10
2.81342e-10
3.05922e-10
3.26412e-10
3.41856e-10
3.51513e-10
3.54909e-10
3.51875e-10
3.42561e-10
3.27422e-10
3.07186e-10
2.82794e-10
2.55336e-10
2.25964e-10
1.95811e-10
1.65909e-10
1.3712e-10
1.1008e-10
8.51581e-11
6.24453e-11
4.1757e-11
2.26631e-11
1.60117e-13
6.16427e-16
6.08116e-16
1.57994e-13
2.23741e-11
4.12396e-11
6.16993e-11
8.41887e-11
1.08902e-10
1.35761e-10
1.64409e-10
1.94222e-10
2.2435e-10
2.53766e-10
2.81342e-10
3.05922e-10
3.26412e-10
3.41856e-10
3.51513e-10
3.54909e-10
3.51875e-10
3.42561e-10
3.27422e-10
3.07186e-10
2.82794e-10
2.55336e-10
2.25964e-10
1.95811e-10
1.65909e-10
1.3712e-10
1.1008e-10
8.51581e-11
6.24453e-11
4.1757e-11
2.26631e-11
1.60117e-13
6.16427e-16
6.08116e-16
1.57994e-13
2.23741e-11
4.12396e-11
6.16993e-11
8.41887e-11
1.08902e-10
1.35761e-10
1.64409e-10
1.94222e-10
2.2435e-10
2.53766e-10
2.81342e-10
3.05922e-10
3.26412e-10
3.41856e-10
3.51513e-10
3.54909e-10
3.51875e-10
3.42561e-10
3.27422e-10
3.07186e-10
2.82794e-10
2.55336e-10
2.25964e-10
1.95811e-10
1.65909e-10
1.3712e-10
1.1008e-10
8.51581e-11
6.24453e-11
4.1757e-11
2.26631e-11
1.60117e-13
6.16427e-16
6.08116e-16
1.57994e-13
2.23741e-11
4.12396e-11
6.16993e-11
8.41887e-11
1.08902e-10
1.35761e-10
1.64409e-10
1.94222e-10
2.2435e-10
2.53766e-10
2.81342e-10
3.05922e-10
3.26412e-10
3.41856e-10
3.51513e-10
3.54909e-10
3.51875e-10
3.42561e-10
3.27422e-10
3.07186e-10
2.82794e-10
2.55336e-10
2.25964e-10
1.95811e-10
1.65909e-10
1.3712e-10
1.1008e-10
8.51581e-11
6.24453e-11
4.1757e-11
2.26631e-11
1.60117e-13
6.16427e-16
6.08116e-16
1.57994e-13
2.23741e-11
4.12396e-11
6.16993e-11
8.41887e-11
1.08902e-10
1.35761e-10
1.64409e-10
1.94222e-10
2.2435e-10
2.53766e-10
2.81342e-10
3.05922e-10
3.26412e-10
3.41856e-10
3.51513e-10
3.54909e-10
3.51875e-10
3.42561e-10
3.27422e-10
3.07186e-10
2.82794e-10
2.55336e-10
2.25964e-10
1.95811e-10
1.65909e-10
1.3712e-10
1.1008e-10
8.51581e-11
6.24453e-11
4.1757e-11
2.26631e-11
1.60117e-13
6.16427e-16
6.08116e-16
1.57994e-13
2.23741e-11
4.12396e-11
6.16993e-11
8.41887e-11
1.08902e-10
1.35761e-10
1.64409e-10
1.94222e-10
2.2435e-10
2.53766e-10
2.81342e-10
3.05922e-10
3.26412e-10
3.41856e-10
3.51513e-10
3.54909e-10
3.51875e-10
3.42561e-10
3.27422e-10
3.07186e-10
2.82794e-10
2.55336e-10
2.25964e-10
1.95811e-10
1.65909e-10
1.3712e-10
1.1008e-10
8.51581e-11
6.24453e-11
4.1757e-11
2.26631e-11
1.60117e-13
6.16427e-16
6.08116e-16
1.57994e-13
2.23741e-11
4.12396e-11
6.16993e-11
8.41887e-11
1.08902e-10
1.35761e-10
1.64409e-10
1.94222e-10
2.2435e-10
2.53766e-10
2.81342e-10
3.05922e-10
3.26412e-10
3.41856e-10
3.51513e-10
3.54909e-10
3.51875e-10
3.42561e-10
3.27422e-10
3.07186e-10
2.82794e-10
2.55336e-10
2.25964e-10
1.95811e-10
1.65909e-10
1.3712e-10
1.1008e-10
8.51581e-11
6.24453e-11
4.1757e-11
2.26631e-11
1.60117e-13
6.16427e-16
6.08116e-16
1.57994e-13
2.23741e-11
4.12396e-11
6.16993e-11
8.41887e-11
1.08902e-10
1.35761e-10
1.64409e-10
1.94222e-10
2.2435e-10
2.53766e-10
2.81342e-10
3.05922e-10
3.26412e-10
3.41856e-10
3.51513e-10
3.54909e-10
3.51875e-10
3.42561e-10
3.27422e-10
3.07186e-10
2.82794e-10
2.55336e-10
2.25964e-10
1.95811e-10
1.65909e-10
1.3712e-10
1.1008e-10
8.51581e-11
6.24453e-11
4.1757e-11
2.26631e-11
1.60117e-13
6.16427e-16
6.08116e-16
1.57994e-13
2.23741e-11
4.12396e-11
6.16993e-11
8.41887e-11
1.08902e-10
1.35761e-10
1.64409e-10
1.94222e-10
2.2435e-10
2.53766e-10
2.81342e-10
3.05922e-10
3.26412e-10
3.41856e-10
3.51513e-10
3.54909e-10
3.51875e-10
3.42561e-10
3.27422e-10
3.07186e-10
2.82794e-10
2.55336e-10
2.25964e-10
1.95811e-10
1.65909e-10
1.3712e-10
1.1008e-10
8.51581e-11
6.24453e-11
4.1757e-11
2.26631e-11
1.60117e-13
6.16427e-16
6.08116e-16
1.57994e-13
2.23741e-11
4.12396e-11
6.16993e-11
8.41887e-11
1.08902e-10
1.35761e-10
1.64409e-10
1.94222e-10
2.2435e-10
2.53766e-10
2.81342e-10
3.05922e-10
3.26412e-10
3.41856e-10
3.51513e-10
3.54909e-10
3.51875e-10
3.42561e-10
3.27422e-10
3.07186e-10
2.82794e-10
2.55336e-10
2.25964e-10
1.95811e-10
1.65909e-10
1.3712e-10
1.1008e-10
8.51581e-11
6.24453e-11
4.1757e-11
2.26631e-11
1.60117e-13
6.16427e-16
6.08116e-16
1.57994e-13
2.23741e-11
4.12396e-11
6.16993e-11
8.41887e-11
1.08902e-10
1.35761e-10
1.64409e-10
1.94222e-10
2.2435e-10
2.53766e-10
2.81342e-10
3.05922e-10
3.26412e-10
3.41856e-10
3.51513e-10
3.54909e-10
3.51875e-10
3.42561e-10
3.27422e-10
3.07186e-10
2.82794e-10
2.55336e-10
2.25964e-10
1.95811e-10
1.65909e-10
1.3712e-10
1.1008e-10
8.51581e-11
6.24453e-11
4.1757e-11
2.26631e-11
1.60117e-13
6.16427e-16
6.08116e-16
1.57994e-13
2.23741e-11
4.12396e-11
6.16993e-11
8.41887e-11
1.08902e-10
1.35761e-10
1.64409e-10
1.94222e-10
2.2435e-10
2.53766e-10
2.81342e-10
3.05922e-10
3.26412e-10
3.41856e-10
3.51513e-10
3.54909e-10
3.51875e-10
3.42561e-10
3.27422e-10
3.07186e-10
2.82794e-10
2.55336e-10
2.25964e-10
1.95811e-10
1.65909e-10
1.3712e-10
1.1008e-10
8.51581e-11
6.24453e-11
4.1757e-11
2.26631e-11
1.60117e-13
6.16427e-16
6.08116e-16
1.57994e-13
2.23741e-11
4.12396e-11
6.16993e-11
8.41887e-11
1.08902e-10
1.35761e-10
1.64409e-10
1.94222e-10
2.2435e-10
2.53766e-10
2.81342e-10
3.05922e-10
3.26412e-10
3.41856e-10
3.51513e-10
3.54909e-10
3.51875e-10
3.42561e-10
3.27422e-10
3.07186e-10
2.82794e-10
2.55336e-10
2.25964e-10
1.95811e-10
1.65909e-10
1.3712e-10
1.1008e-10
8.51581e-11
6.24453e-11
4.1757e-11
2.26631e-11
1.60117e-13
6.16427e-16
6.08116e-16
1.57994e-13
2.23741e-11
4.12396e-11
6.16993e-11
8.41887e-11
1.08902e-10
1.35761e-10
1.64409e-10
1.94222e-10
2.2435e-10
2.53766e-10
2.81342e-10
3.05922e-10
3.26412e-10
3.41856e-10
3.51513e-10
3.54909e-10
3.51875e-10
3.42561e-10
3.27422e-10
3.07186e-10
2.82794e-10
2.55336e-10
2.25964e-10
1.95811e-10
1.65909e-10
1.3712e-10
1.1008e-10
8.51581e-11
6.24453e-11
4.1757e-11
2.26631e-11
1.60117e-13
6.16427e-16
6.08116e-16
1.57994e-13
2.23741e-11
4.12396e-11
6.16993e-11
8.41887e-11
1.08902e-10
1.35761e-10
1.64409e-10
1.94222e-10
2.2435e-10
2.53766e-10
2.81342e-10
3.05922e-10
3.26412e-10
3.41856e-10
3.51513e-10
3.54909e-10
3.51875e-10
3.42561e-10
3.27422e-10
3.07186e-10
2.82794e-10
2.55336e-10
2.25964e-10
1.95811e-10
1.65909e-10
1.3712e-10
1.1008e-10
8.51581e-11
6.24453e-11
4.1757e-11
2.26631e-11
1.60117e-13
6.16427e-16
6.08116e-16
1.57994e-13
2.23741e-11
4.12396e-11
6.16993e-11
8.41887e-11
1.08902e-10
1.35761e-10
1.64409e-10
1.94222e-10
2.2435e-10
2.53766e-10
2.81342e-10
3.05922e-10
3.26412e-10
3.41856e-10
3.51513e-10
3.54909e-10
3.51875e-10
3.42561e-10
3.27422e-10
3.07186e-10
2.82794e-10
2.55336e-10
2.25964e-10
1.95811e-10
1.65909e-10
1.3712e-10
1.1008e-10
8.51581e-11
6.24453e-11
4.1757e-11
2.26631e-11
1.60117e-13
6.16427e-16
6.08116e-16
1.57994e-13
2.23741e-11
4.12396e-11
6.16993e-11
8.41887e-11
1.08902e-10
1.35761e-10
1.64409e-10
1.94222e-10
2.2435e-10
2.53766e-10
2.81342e-10
3.05922e-10
3.26412e-10
3.41856e-10
3.51513e-10
3.54909e-10
3.51875e-10
3.42561e-10
3.27422e-10
3.07186e-10
2.82794e-10
2.55336e-10
2.25964e-10
1.95811e-10
1.65909e-10
1.3712e-10
1.1008e-10
8.51581e-11
6.24453e-11
4.1757e-11
2.26631e-11
1.60117e-13
6.16427e-16
6.08116e-16
1.57994e-13
2.23741e-11
4.12396e-11
6.16993e-11
8.41887e-11
1.08902e-10
1.35761e-10
1.64409e-10
1.94222e-10
2.2435e-10
2.53766e-10
2.81342e-10
3.05922e-10
3.26412e-10
3.41856e-10
3.51513e-10
3.54909e-10
3.51875e-10
3.42561e-10
3.27422e-10
3.07186e-10
2.82794e-10
2.55336e-10
2.25964e-10
1.95811e-10
1.65909e-10
1.3712e-10
1.1008e-10
8.51581e-11
6.24453e-11
4.1757e-11
2.26631e-11
1.60117e-13
6.16427e-16
6.08116e-16
1.57994e-13
2.23741e-11
4.12396e-11
6.16993e-11
8.41887e-11
1.08902e-10
1.35761e-10
1.64409e-10
1.94222e-10
2.2435e-10
2.53766e-10
2.81342e-10
3.05922e-10
3.26412e-10
3.41856e-10
3.51513e-10
3.54909e-10
3.51875e-10
3.42561e-10
3.27422e-10
3.07186e-10
2.82794e-10
2.55336e-10
2.25964e-10
1.95811e-10
1.65909e-10
1.3712e-10
1.1008e-10
8.51581e-11
6.24453e-11
4.1757e-11
2.26631e-11
1.60117e-13
6.16427e-16
6.08116e-16
1.57994e-13
2.23741e-11
4.12396e-11
6.16993e-11
8.41887e-11
1.08902e-10
1.35761e-10
1.64409e-10
1.94222e-10
2.2435e-10
2.53766e-10
2.81342e-10
3.05922e-10
3.26412e-10
3.41856e-10
3.51513e-10
3.54909e-10
3.51875e-10
3.42561e-10
3.27422e-10
3.07186e-10
2.82794e-10
2.55336e-10
2.25964e-10
1.95811e-10
1.65909e-10
1.3712e-10
1.1008e-10
8.51581e-11
6.24453e-11
4.1757e-11
2.26631e-11
1.60117e-13
6.16427e-16
6.08116e-16
1.57994e-13
2.23741e-11
4.12396e-11
6.16993e-11
8.41887e-11
1.08902e-10
1.35761e-10
1.64409e-10
1.94222e-10
2.2435e-10
2.53766e-10
2.81342e-10
3.05922e-10
3.26412e-10
3.41856e-10
3.51513e-10
3.54909e-10
3.51875e-10
3.42561e-10
3.27422e-10
3.07186e-10
2.82794e-10
2.55336e-10
2.25964e-10
1.95811e-10
1.65909e-10
1.3712e-10
1.1008e-10
8.51581e-11
6.24453e-11
4.1757e-11
2.26631e-11
1.60117e-13
6.16427e-16
6.08116e-16
1.57994e-13
2.23741e-11
4.12396e-11
6.16993e-11
8.41887e-11
1.08902e-10
1.35761e-10
1.64409e-10
1.94222e-10
2.2435e-10
2.53766e-10
2.81342e-10
3.05922e-10
3.26412e-10
3.41856e-10
3.51513e-10
3.54909e-10
3.51875e-10
3.42561e-10
3.27422e-10
3.07186e-10
2.82794e-10
2.55336e-10
2.25964e-10
1.95811e-10
1.65909e-10
1.3712e-10
1.1008e-10
8.51581e-11
6.24453e-11
4.1757e-11
2.26631e-11
1.60117e-13
6.16427e-16
6.08116e-16
1.57994e-13
2.23741e-11
4.12396e-11
6.16993e-11
8.41887e-11
1.08902e-10
1.35761e-10
1.64409e-10
1.94222e-10
2.2435e-10
2.53766e-10
2.81342e-10
3.05922e-10
3.26412e-10
3.41856e-10
3.51513e-10
3.54909e-10
3.51875e-10
3.42561e-10
3.27422e-10
3.07186e-10
2.82794e-10
2.55336e-10
2.25964e-10
1.95811e-10
1.65909e-10
1.3712e-10
1.1008e-10
8.51581e-11
6.24453e-11
4.1757e-11
2.26631e-11
1.60117e-13
6.16427e-16
6.08116e-16
1.57994e-13
2.23741e-11
4.12396e-11
6.16993e-11
8.41887e-11
1.08902e-10
1.35761e-10
1.64409e-10
1.94222e-10
2.2435e-10
2.53766e-10
2.81342e-10
3.05922e-10
3.26412e-10
3.41856e-10
3.51513e-10
3.54909e-10
3.51875e-10
3.42561e-10
3.27422e-10
3.07186e-10
2.82794e-10
2.55336e-10
2.25964e-10
1.95811e-10
1.65909e-10
1.3712e-10
1.1008e-10
8.51581e-11
6.24453e-11
4.1757e-11
2.26631e-11
1.60117e-13
6.16427e-16
6.08116e-16
1.57994e-13
2.23741e-11
4.12396e-11
6.16993e-11
8.41887e-11
1.08902e-10
1.35761e-10
1.64409e-10
1.94222e-10
2.2435e-10
2.53766e-10
2.81342e-10
3.05922e-10
3.26412e-10
3.41856e-10
3.51513e-10
3.54909e-10
3.51875e-10
3.42561e-10
3.27422e-10
3.07186e-10
2.82794e-10
2.55336e-10
2.25964e-10
1.95811e-10
1.65909e-10
1.3712e-10
1.1008e-10
8.51581e-11
6.24453e-11
4.1757e-11
2.26631e-11
1.60117e-13
6.16427e-16
6.08116e-16
1.57994e-13
2.23741e-11
4.12396e-11
6.16993e-11
8.41887e-11
1.08902e-10
1.35761e-10
1.64409e-10
1.94222e-10
2.2435e-10
2.53766e-10
2.81342e-10
3.05922e-10
3.26412e-10
3.41856e-10
3.51513e-10
3.54909e-10
3.51875e-10
3.42561e-10
3.27422e-10
3.07186e-10
2.82794e-10
2.55336e-10
2.25964e-10
1.95811e-10
1.65909e-10
1.3712e-10
1.1008e-10
8.51581e-11
6.24453e-11
4.1757e-11
2.26631e-11
1.60117e-13
6.16427e-16
6.08116e-16
1.57994e-13
2.23741e-11
4.12396e-11
6.16993e-11
8.41887e-11
1.08902e-10
1.35761e-10
1.64409e-10
1.94222e-10
2.2435e-10
2.53766e-10
2.81342e-10
3.05922e-10
3.26412e-10
3.41856e-10
3.51513e-10
3.54909e-10
3.51875e-10
3.42561e-10
3.27422e-10
3.07186e-10
2.82794e-10
2.55336e-10
2.25964e-10
1.95811e-10
1.65909e-10
1.3712e-10
1.1008e-10
8.51581e-11
6.24453e-11
4.1757e-11
2.26631e-11
1.60117e-13
6.16427e-16
6.08116e-16
1.57994e-13
2.23741e-11
4.12396e-11
6.16993e-11
8.41887e-11
1.08902e-10
1.35761e-10
1.64409e-10
1.94222e-10
2.2435e-10
2.53766e-10
2.81342e-10
3.05922e-10
3.26412e-10
3.41856e-10
3.51513e-10
3.54909e-10
3.51875e-10
3.42561e-10
3.27422e-10
3.07186e-10
2.82794e-10
2.55336e-10
2.25964e-10
1.95811e-10
1.65909e-10
1.3712e-10
1.1008e-10
8.51581e-11
6.24453e-11
4.1757e-11
2.26631e-11
1.60117e-13
6.16427e-16
6.08116e-16
1.57994e-13
2.23741e-11
4.12396e-11
6.16993e-11
8.41887e-11
1.08902e-10
1.35761e-10
1.64409e-10
1.94222e-10
2.2435e-10
2.53766e-10
2.81342e-10
3.05922e-10
3.26412e-10
3.41856e-10
3.51513e-10
3.54909e-10
3.51875e-10
3.42561e-10
3.27422e-10
3.07186e-10
2.82794e-10
2.55336e-10
2.25964e-10
1.95811e-10
1.65909e-10
1.3712e-10
1.1008e-10
8.51581e-11
6.24453e-11
4.1757e-11
2.26631e-11
1.60117e-13
6.16427e-16
6.08116e-16
1.57994e-13
2.23741e-11
4.12396e-11
6.16993e-11
8.41887e-11
1.08902e-10
1.35761e-10
1.64409e-10
1.94222e-10
2.2435e-10
2.53766e-10
2.81342e-10
3.05922e-10
3.26412e-10
3.41856e-10
3.51513e-10
3.54909e-10
3.51875e-10
3.42561e-10
3.27422e-10
3.07186e-10
2.82794e-10
2.55336e-10
2.25964e-10
1.95811e-10
1.65909e-10
1.3712e-10
1.1008e-10
8.51581e-11
6.24453e-11
4.1757e-11
2.26631e-11
1.60117e-13
6.16427e-16
6.08116e-16
1.57994e-13
2.23741e-11
4.12396e-11
6.16993e-11
8.41887e-11
1.08902e-10
1.35761e-10
1.64409e-10
1.94222e-10
2.2435e-10
2.53766e-10
2.81342e-10
3.05922e-10
3.26412e-10
3.41856e-10
3.51513e-10
3.54909e-10
3.51875e-10
3.42561e-10
3.27422e-10
3.07186e-10
2.82794e-10
2.55336e-10
2.25964e-10
1.95811e-10
1.65909e-10
1.3712e-10
1.1008e-10
8.51581e-11
6.24453e-11
4.1757e-11
2.26631e-11
1.60117e-13
6.16427e-16
6.08116e-16
1.57994e-13
2.23741e-11
4.12396e-11
6.16993e-11
8.41887e-11
1.08902e-10
1.35761e-10
1.64409e-10
1.94222e-10
2.2435e-10
2.53766e-10
2.81342e-10
3.05922e-10
3.26412e-10
3.41856e-10
3.51513e-10
3.54909e-10
3.51875e-10
3.42561e-10
3.27422e-10
3.07186e-10
2.82794e-10
2.55336e-10
2.25964e-10
1.95811e-10
1.65909e-10
1.3712e-10
1.1008e-10
8.51581e-11
6.24453e-11
4.1757e-11
2.26631e-11
1.60117e-13
6.16427e-16
6.08116e-16
1.57994e-13
2.23741e-11
4.12396e-11
6.16993e-11
8.41887e-11
1.08902e-10
1.35761e-10
1.64409e-10
1.94222e-10
2.2435e-10
2.53766e-10
2.81342e-10
3.05922e-10
3.26412e-10
3.41856e-10
3.51513e-10
3.54909e-10
3.51875e-10
3.42561e-10
3.27422e-10
3.07186e-10
2.82794e-10
2.55336e-10
2.25964e-10
1.95811e-10
1.65909e-10
1.3712e-10
1.1008e-10
8.51581e-11
6.24453e-11
4.1757e-11
2.26631e-11
1.60117e-13
6.16427e-16
6.08116e-16
1.57994e-13
2.23741e-11
4.12396e-11
6.16993e-11
8.41887e-11
1.08902e-10
1.35761e-10
1.64409e-10
1.94222e-10
2.2435e-10
2.53766e-10
2.81342e-10
3.05922e-10
3.26412e-10
3.41856e-10
3.51513e-10
3.54909e-10
3.51875e-10
3.42561e-10
3.27422e-10
3.07186e-10
2.82794e-10
2.55336e-10
2.25964e-10
1.95811e-10
1.65909e-10
1.3712e-10
1.1008e-10
8.51581e-11
6.24453e-11
4.1757e-11
2.26631e-11
1.60117e-13
6.16427e-16
6.08116e-16
1.57994e-13
2.23741e-11
4.12396e-11
6.16993e-11
8.41887e-11
1.08902e-10
1.35761e-10
1.64409e-10
1.94222e-10
2.2435e-10
2.53766e-10
2.81342e-10
3.05922e-10
3.26412e-10
3.41856e-10
3.51513e-10
3.54909e-10
3.51875e-10