/*--------------------------------*- C++ -*----------------------------------*\
  =========                 |
  \\      /  F ield         | OpenFOAM: The Open Source CFD Toolbox
   \\    /   O peration     | Website:  https://openfoam.org
    \\  /    A nd           | Version:  13
     \\/     M anipulation  |
\*---------------------------------------------------------------------------*/
FoamFile
{
    format      ascii;
    class       volScalarField;
    location    "77.5";
    object      rhok;
}
// * * * * * * * * * * * * * * * * * * * * * * * * * * * * * * * * * * * * * //

dimensions      [];

internalField   nonuniform List<scalar> 
315000
(
0.444536
0.426292
0.414678
0.413059
0.412144
0.411214
0.410284
0.409357
0.408436
0.407522
0.406614
0.405713
0.404819
0.403931
0.40305
0.402176
0.401309
0.400449
0.399598
0.398754
0.39792
0.397095
0.39628
0.395474
0.394679
0.393895
0.393123
0.392361
0.391611
0.390873
0.390147
0.389434
0.388732
0.388043
0.387367
0.386703
0.386052
0.385413
0.384787
0.384173
0.383572
0.382982
0.382405
0.381839
0.381286
0.380743
0.380212
0.379691
0.379181
0.378681
0.378191
0.377711
0.37724
0.376777
0.376323
0.375877
0.375438
0.375007
0.374581
0.374162
0.373749
0.37334
0.372936
0.372536
0.37214
0.371747
0.371356
0.370967
0.370579
0.370193
0.444575
0.427784
0.41404
0.41264
0.411852
0.41102
0.410158
0.409278
0.408386
0.40749
0.406594
0.405699
0.404808
0.403921
0.403041
0.402167
0.401299
0.40044
0.399588
0.398744
0.39791
0.397084
0.396269
0.395463
0.394668
0.393884
0.393111
0.392349
0.391599
0.390861
0.390135
0.389421
0.38872
0.388031
0.387354
0.386691
0.386039
0.385401
0.384775
0.384161
0.38356
0.382971
0.382393
0.381828
0.381275
0.380732
0.380201
0.379681
0.379171
0.378672
0.378182
0.377702
0.377232
0.37677
0.376316
0.37587
0.375432
0.375
0.374576
0.374157
0.373744
0.373336
0.372933
0.372533
0.372137
0.371745
0.371354
0.370966
0.370579
0.370192
0.444552
0.426917
0.414319
0.412858
0.412015
0.411133
0.410232
0.409323
0.408412
0.407503
0.406598
0.405699
0.404805
0.403917
0.403035
0.402161
0.401293
0.400433
0.399581
0.398737
0.397902
0.397076
0.396261
0.395455
0.39466
0.393875
0.393102
0.39234
0.39159
0.390852
0.390126
0.389412
0.388711
0.388022
0.387345
0.386682
0.38603
0.385392
0.384766
0.384152
0.383551
0.382962
0.382385
0.38182
0.381266
0.380724
0.380194
0.379674
0.379164
0.378665
0.378176
0.377696
0.377225
0.376764
0.37631
0.375865
0.375427
0.374996
0.374571
0.374153
0.37374
0.373333
0.37293
0.372531
0.372135
0.371743
0.371353
0.370965
0.370578
0.370192
0.444514
0.42543
0.415324
0.413212
0.412164
0.411201
0.410263
0.409335
0.408415
0.407502
0.406596
0.405695
0.404801
0.403914
0.403032
0.402157
0.401289
0.400429
0.399576
0.398732
0.397897
0.397071
0.396255
0.395449
0.394654
0.39387
0.393096
0.392334
0.391584
0.390846
0.39012
0.389406
0.388704
0.388015
0.387339
0.386675
0.386024
0.385386
0.38476
0.384146
0.383545
0.382956
0.382379
0.381814
0.381261
0.380719
0.380188
0.379668
0.379159
0.37866
0.378171
0.377691
0.377221
0.376759
0.376306
0.375861
0.375423
0.374993
0.374568
0.37415
0.373738
0.373331
0.372928
0.372529
0.372134
0.371742
0.371352
0.370964
0.370578
0.370192
0.444582
0.428055
0.413973
0.412569
0.411786
0.410964
0.410113
0.409243
0.408361
0.407472
0.406579
0.405688
0.404798
0.403912
0.403031
0.402156
0.401288
0.400428
0.399575
0.39873
0.397895
0.397069
0.396253
0.395447
0.394651
0.393866
0.393093
0.392331
0.391581
0.390842
0.390116
0.389402
0.388701
0.388012
0.387335
0.386671
0.38602
0.385382
0.384756
0.384142
0.383541
0.382952
0.382375
0.38181
0.381257
0.380715
0.380184
0.379665
0.379156
0.378657
0.378168
0.377688
0.377218
0.376757
0.376304
0.375859
0.375421
0.37499
0.374566
0.374148
0.373736
0.373329
0.372926
0.372528
0.372133
0.371741
0.371351
0.370964
0.370577
0.370192
0.444553
0.426918
0.414315
0.412852
0.41201
0.411128
0.410228
0.409319
0.408409
0.4075
0.406596
0.405696
0.404802
0.403913
0.403031
0.402156
0.401288
0.400427
0.399574
0.39873
0.397894
0.397068
0.396252
0.395446
0.39465
0.393865
0.393092
0.39233
0.391579
0.390841
0.390114
0.3894
0.388699
0.38801
0.387333
0.386669
0.386018
0.38538
0.384754
0.38414
0.383539
0.38295
0.382373
0.381808
0.381255
0.380713
0.380183
0.379663
0.379154
0.378655
0.378166
0.377687
0.377216
0.376755
0.376302
0.375857
0.37542
0.374989
0.374565
0.374147
0.373735
0.373328
0.372926
0.372527
0.372132
0.37174
0.371351
0.370963
0.370577
0.370192
0.444514
0.425439
0.415364
0.413253
0.4122
0.411228
0.410282
0.409348
0.408423
0.407506
0.406598
0.405696
0.404802
0.403913
0.403032
0.402156
0.401288
0.400428
0.399575
0.398731
0.397895
0.397069
0.396253
0.395446
0.39465
0.393866
0.393092
0.39233
0.391579
0.390841
0.390114
0.3894
0.388698
0.388009
0.387333
0.386669
0.386018
0.385379
0.384753
0.384139
0.383538
0.382949
0.382372
0.381807
0.381254
0.380712
0.380182
0.379662
0.379153
0.378654
0.378165
0.377686
0.377216
0.376754
0.376301
0.375856
0.375419
0.374988
0.374565
0.374147
0.373735
0.373328
0.372925
0.372527
0.372132
0.37174
0.371351
0.370963
0.370577
0.370192
0.444533
0.426168
0.414646
0.413054
0.412141
0.411211
0.410281
0.409353
0.408431
0.407516
0.406607
0.405704
0.404808
0.403919
0.403036
0.40216
0.401292
0.40043
0.399577
0.398733
0.397897
0.397071
0.396254
0.395448
0.394652
0.393867
0.393093
0.392331
0.39158
0.390841
0.390115
0.389401
0.388699
0.38801
0.387333
0.386669
0.386018
0.385379
0.384753
0.38414
0.383538
0.382949
0.382372
0.381807
0.381254
0.380712
0.380182
0.379662
0.379153
0.378654
0.378165
0.377686
0.377216
0.376754
0.376301
0.375856
0.375419
0.374988
0.374565
0.374147
0.373735
0.373328
0.372925
0.372527
0.372132
0.37174
0.371351
0.370963
0.370577
0.370192
0.444515
0.425441
0.415355
0.413242
0.412192
0.411223
0.41028
0.409349
0.408425
0.40751
0.406602
0.405701
0.404806
0.403918
0.403036
0.40216
0.401292
0.400431
0.399578
0.398734
0.397898
0.397072
0.396255
0.395449
0.394653
0.393868
0.393094
0.392332
0.391581
0.390842
0.390116
0.389402
0.3887
0.388011
0.387334
0.38667
0.386019
0.38538
0.384754
0.38414
0.383539
0.38295
0.382373
0.381808
0.381255
0.380713
0.380182
0.379662
0.379153
0.378654
0.378165
0.377686
0.377216
0.376754
0.376302
0.375856
0.375419
0.374989
0.374565
0.374147
0.373735
0.373328
0.372925
0.372527
0.372132
0.37174
0.371351
0.370963
0.370577
0.370192
0.444575
0.427782
0.414048
0.412648
0.411856
0.411021
0.410157
0.409276
0.408384
0.407488
0.406591
0.405696
0.404804
0.403917
0.403036
0.402161
0.401293
0.400432
0.399579
0.398735
0.397899
0.397073
0.396256
0.39545
0.394654
0.393869
0.393095
0.392333
0.391582
0.390843
0.390117
0.389402
0.388701
0.388011
0.387335
0.386671
0.386019
0.385381
0.384755
0.384141
0.38354
0.382951
0.382374
0.381809
0.381255
0.380713
0.380183
0.379663
0.379154
0.378655
0.378166
0.377687
0.377216
0.376755
0.376302
0.375857
0.375419
0.374989
0.374565
0.374147
0.373735
0.373328
0.372925
0.372527
0.372132
0.37174
0.371351
0.370963
0.370577
0.370192
0.444536
0.426279
0.414672
0.413038
0.412111
0.411181
0.410255
0.409334
0.408418
0.407507
0.406601
0.405701
0.404807
0.403919
0.403037
0.402162
0.401293
0.400432
0.399579
0.398735
0.397899
0.397073
0.396257
0.39545
0.394654
0.393869
0.393096
0.392333
0.391583
0.390844
0.390117
0.389403
0.388701
0.388012
0.387336
0.386672
0.38602
0.385382
0.384755
0.384142
0.383541
0.382951
0.382375
0.381809
0.381256
0.380714
0.380183
0.379664
0.379154
0.378656
0.378167
0.377687
0.377217
0.376755
0.376302
0.375857
0.37542
0.374989
0.374565
0.374148
0.373735
0.373328
0.372926
0.372527
0.372132
0.37174
0.371351
0.370963
0.370577
0.370192
0.444471
0.422608
0.416418
0.414167
0.412598
0.41137
0.410313
0.409339
0.408406
0.407493
0.40659
0.405693
0.404802
0.403916
0.403036
0.402161
0.401293
0.400433
0.39958
0.398735
0.3979
0.397073
0.396257
0.395451
0.394655
0.39387
0.393096
0.392334
0.391583
0.390845
0.390118
0.389404
0.388702
0.388013
0.387336
0.386672
0.386021
0.385382
0.384756
0.384143
0.383541
0.382952
0.382375
0.38181
0.381257
0.380715
0.380184
0.379664
0.379155
0.378656
0.378167
0.377688
0.377217
0.376756
0.376303
0.375858
0.37542
0.37499
0.374566
0.374148
0.373736
0.373328
0.372926
0.372527
0.372132
0.371741
0.371351
0.370963
0.370577
0.370192
0.444553
0.426914
0.414334
0.412873
0.412028
0.411142
0.410237
0.409326
0.408414
0.407505
0.4066
0.4057
0.404806
0.403918
0.403036
0.402161
0.401293
0.400432
0.399579
0.398735
0.3979
0.397074
0.396257
0.395451
0.394655
0.39387
0.393097
0.392334
0.391584
0.390845
0.390119
0.389405
0.388703
0.388014
0.387337
0.386673
0.386022
0.385383
0.384757
0.384143
0.383542
0.382953
0.382376
0.381811
0.381257
0.380716
0.380185
0.379665
0.379156
0.378657
0.378168
0.377688
0.377218
0.376756
0.376303
0.375858
0.375421
0.37499
0.374566
0.374148
0.373736
0.373329
0.372926
0.372528
0.372133
0.371741
0.371351
0.370964
0.370577
0.370192
0.444553
0.426917
0.414344
0.412866
0.412013
0.41113
0.410229
0.409322
0.408413
0.407505
0.406601
0.405702
0.404807
0.403919
0.403037
0.402162
0.401294
0.400433
0.39958
0.398736
0.3979
0.397074
0.396258
0.395452
0.394656
0.393871
0.393097
0.392335
0.391584
0.390846
0.390119
0.389405
0.388704
0.388014
0.387338
0.386674
0.386022
0.385384
0.384758
0.384144
0.383543
0.382954
0.382377
0.381811
0.381258
0.380716
0.380185
0.379665
0.379156
0.378657
0.378168
0.377689
0.377218
0.376757
0.376304
0.375858
0.375421
0.37499
0.374566
0.374148
0.373736
0.373329
0.372926
0.372528
0.372133
0.371741
0.371351
0.370964
0.370577
0.370192
0.444471
0.42261
0.41642
0.414171
0.4126
0.411372
0.410314
0.40934
0.408407
0.407493
0.406591
0.405694
0.404803
0.403917
0.403037
0.402162
0.401294
0.400434
0.399581
0.398737
0.397901
0.397075
0.396259
0.395452
0.394656
0.393872
0.393098
0.392336
0.391585
0.390846
0.39012
0.389406
0.388704
0.388015
0.387338
0.386674
0.386023
0.385384
0.384758
0.384144
0.383543
0.382954
0.382377
0.381812
0.381258
0.380716
0.380186
0.379666
0.379156
0.378657
0.378168
0.377689
0.377218
0.376757
0.376304
0.375859
0.375421
0.37499
0.374566
0.374148
0.373736
0.373329
0.372926
0.372528
0.372133
0.371741
0.371351
0.370964
0.370577
0.370192
0.444536
0.426279
0.414688
0.413071
0.41215
0.411214
0.410279
0.40935
0.408428
0.407514
0.406606
0.405704
0.404809
0.403921
0.403038
0.402163
0.401295
0.400434
0.399581
0.398737
0.397901
0.397075
0.396259
0.395452
0.394657
0.393872
0.393098
0.392336
0.391585
0.390847
0.39012
0.389406
0.388704
0.388015
0.387338
0.386674
0.386023
0.385384
0.384758
0.384145
0.383543
0.382954
0.382377
0.381812
0.381259
0.380717
0.380186
0.379666
0.379157
0.378658
0.378168
0.377689
0.377219
0.376757
0.376304
0.375859
0.375421
0.374991
0.374567
0.374149
0.373736
0.373329
0.372926
0.372528
0.372133
0.371741
0.371351
0.370964
0.370577
0.370192
0.44455
0.426839
0.414321
0.412877
0.412041
0.41116
0.410256
0.409345
0.408431
0.407519
0.406612
0.40571
0.404814
0.403925
0.403042
0.402166
0.401297
0.400436
0.399583
0.398738
0.397902
0.397076
0.396259
0.395453
0.394657
0.393872
0.393098
0.392336
0.391586
0.390847
0.39012
0.389406
0.388705
0.388015
0.387339
0.386675
0.386023
0.385385
0.384758
0.384145
0.383543
0.382954
0.382377
0.381812
0.381259
0.380717
0.380186
0.379666
0.379157
0.378658
0.378169
0.377689
0.377219
0.376757
0.376304
0.375859
0.375421
0.374991
0.374567
0.374149
0.373736
0.373329
0.372926
0.372528
0.372133
0.371741
0.371351
0.370964
0.370577
0.370192
0.444536
0.426302
0.414687
0.413065
0.412151
0.411221
0.410291
0.409364
0.408442
0.407526
0.406617
0.405714
0.404817
0.403927
0.403044
0.402168
0.401299
0.400438
0.399585
0.39874
0.397904
0.397078
0.396261
0.395454
0.394658
0.393873
0.393099
0.392337
0.391586
0.390847
0.390121
0.389407
0.388705
0.388016
0.387339
0.386675
0.386023
0.385385
0.384758
0.384145
0.383543
0.382954
0.382377
0.381812
0.381259
0.380717
0.380186
0.379666
0.379157
0.378658
0.378169
0.377689
0.377219
0.376757
0.376304
0.375859
0.375421
0.374991
0.374567
0.374149
0.373736
0.373329
0.372926
0.372528
0.372133
0.371741
0.371351
0.370964
0.370577
0.370192
0.444574
0.427761
0.414041
0.412641
0.411856
0.411029
0.410172
0.409294
0.408405
0.407509
0.406611
0.405715
0.404822
0.403933
0.40305
0.402174
0.401304
0.400442
0.399589
0.398743
0.397907
0.39708
0.396263
0.395456
0.39466
0.393875
0.393101
0.392338
0.391587
0.390848
0.390121
0.389407
0.388705
0.388016
0.387339
0.386675
0.386024
0.385385
0.384758
0.384145
0.383543
0.382954
0.382377
0.381812
0.381259
0.380717
0.380186
0.379666
0.379157
0.378658
0.378169
0.377689
0.377219
0.376757
0.376304
0.375859
0.375421
0.374991
0.374567
0.374149
0.373736
0.373329
0.372926
0.372528
0.372133
0.371741
0.371351
0.370964
0.370577
0.370192
0.444575
0.427772
0.41403
0.412626
0.411843
0.411021
0.410168
0.409294
0.408407
0.407513
0.406617
0.40572
0.404827
0.403938
0.403055
0.402178
0.401308
0.400446
0.399592
0.398746
0.39791
0.397082
0.396265
0.395458
0.394661
0.393876
0.393102
0.392339
0.391588
0.390849
0.390122
0.389408
0.388706
0.388016
0.387339
0.386675
0.386024
0.385385
0.384759
0.384145
0.383543
0.382954
0.382377
0.381812
0.381259
0.380717
0.380186
0.379666
0.379157
0.378658
0.378169
0.377689
0.377219
0.376757
0.376304
0.375859
0.375421
0.374991
0.374567
0.374149
0.373736
0.373329
0.372926
0.372528
0.372133
0.371741
0.371351
0.370964
0.370577
0.370192
0.444575
0.427774
0.414033
0.412629
0.411846
0.411024
0.410171
0.409298
0.408411
0.407517
0.40662
0.405724
0.40483
0.403941
0.403058
0.402181
0.40131
0.400448
0.399594
0.398748
0.397911
0.397084
0.396266
0.395459
0.394662
0.393877
0.393102
0.392339
0.391588
0.390849
0.390122
0.389408
0.388706
0.388016
0.387339
0.386675
0.386024
0.385385
0.384759
0.384145
0.383543
0.382954
0.382377
0.381812
0.381259
0.380717
0.380186
0.379666
0.379157
0.378658
0.378169
0.377689
0.377219
0.376757
0.376304
0.375859
0.375421
0.374991
0.374567
0.374149
0.373736
0.373329
0.372926
0.372528
0.372133
0.371741
0.371351
0.370964
0.370577
0.370192
0.444575
0.427775
0.414035
0.41263
0.411847
0.411025
0.410173
0.409299
0.408412
0.407518
0.406621
0.405725
0.404831
0.403942
0.403059
0.402182
0.401311
0.400449
0.399594
0.398748
0.397912
0.397084
0.396267
0.395459
0.394663
0.393877
0.393103
0.39234
0.391588
0.390849
0.390122
0.389408
0.388706
0.388016
0.387339
0.386675
0.386024
0.385385
0.384759
0.384145
0.383543
0.382954
0.382377
0.381812
0.381259
0.380717
0.380186
0.379666
0.379157
0.378658
0.378168
0.377689
0.377219
0.376757
0.376304
0.375859
0.375421
0.374991
0.374567
0.374149
0.373736
0.373329
0.372926
0.372528
0.372133
0.371741
0.371351
0.370964
0.370577
0.370192
0.444575
0.427775
0.414035
0.41263
0.411848
0.411026
0.410173
0.4093
0.408413
0.407519
0.406622
0.405725
0.404832
0.403943
0.403059
0.402182
0.401312
0.400449
0.399595
0.398749
0.397912
0.397084
0.396267
0.39546
0.394663
0.393877
0.393103
0.39234
0.391588
0.390849
0.390122
0.389408
0.388706
0.388016
0.387339
0.386675
0.386024
0.385385
0.384759
0.384145
0.383543
0.382954
0.382377
0.381812
0.381259
0.380717
0.380186
0.379666
0.379157
0.378658
0.378168
0.377689
0.377219
0.376757
0.376304
0.375859
0.375421
0.374991
0.374567
0.374149
0.373736
0.373329
0.372926
0.372528
0.372133
0.371741
0.371351
0.370964
0.370577
0.370192
0.444575
0.427775
0.414035
0.412631
0.411848
0.411026
0.410173
0.4093
0.408413
0.407519
0.406622
0.405725
0.404832
0.403943
0.403059
0.402182
0.401312
0.400449
0.399595
0.398749
0.397912
0.397084
0.396267
0.39546
0.394663
0.393877
0.393103
0.39234
0.391588
0.390849
0.390122
0.389408
0.388706
0.388016
0.387339
0.386675
0.386024
0.385385
0.384758
0.384145
0.383543
0.382954
0.382377
0.381812
0.381259
0.380717
0.380186
0.379666
0.379157
0.378658
0.378168
0.377689
0.377219
0.376757
0.376304
0.375859
0.375421
0.374991
0.374567
0.374149
0.373736
0.373329
0.372926
0.372528
0.372133
0.371741
0.371351
0.370964
0.370577
0.370192
0.444575
0.427775
0.414035
0.412631
0.411848
0.411026
0.410173
0.4093
0.408413
0.407519
0.406622
0.405725
0.404832
0.403943
0.403059
0.402182
0.401312
0.400449
0.399595
0.398749
0.397912
0.397084
0.396267
0.39546
0.394663
0.393877
0.393103
0.39234
0.391588
0.390849
0.390122
0.389408
0.388706
0.388016
0.387339
0.386675
0.386024
0.385385
0.384758
0.384145
0.383543
0.382954
0.382377
0.381812
0.381259
0.380717
0.380186
0.379666
0.379157
0.378658
0.378168
0.377689
0.377219
0.376757
0.376304
0.375859
0.375421
0.374991
0.374567
0.374149
0.373736
0.373329
0.372926
0.372528
0.372133
0.371741
0.371351
0.370964
0.370577
0.370192
0.444575
0.427775
0.414035
0.412631
0.411848
0.411026
0.410173
0.4093
0.408413
0.407519
0.406622
0.405725
0.404832
0.403943
0.403059
0.402182
0.401312
0.400449
0.399595
0.398749
0.397912
0.397084
0.396267
0.39546
0.394663
0.393877
0.393103
0.39234
0.391588
0.390849
0.390122
0.389408
0.388706
0.388016
0.387339
0.386675
0.386024
0.385385
0.384758
0.384145
0.383543
0.382954
0.382377
0.381812
0.381259
0.380717
0.380186
0.379666
0.379157
0.378658
0.378168
0.377689
0.377219
0.376757
0.376304
0.375859
0.375421
0.374991
0.374567
0.374149
0.373736
0.373329
0.372926
0.372528
0.372133
0.371741
0.371351
0.370964
0.370577
0.370192
0.444575
0.427775
0.414035
0.412631
0.411848
0.411026
0.410173
0.4093
0.408413
0.407519
0.406622
0.405725
0.404832
0.403943
0.403059
0.402182
0.401312
0.400449
0.399595
0.398749
0.397912
0.397084
0.396267
0.39546
0.394663
0.393877
0.393103
0.39234
0.391588
0.390849
0.390122
0.389408
0.388706
0.388016
0.387339
0.386675
0.386024
0.385385
0.384758
0.384145
0.383543
0.382954
0.382377
0.381812
0.381259
0.380717
0.380186
0.379666
0.379157
0.378658
0.378168
0.377689
0.377219
0.376757
0.376304
0.375859
0.375421
0.374991
0.374567
0.374149
0.373736
0.373329
0.372926
0.372528
0.372133
0.371741
0.371351
0.370964
0.370577
0.370192
0.444575
0.427775
0.414035
0.412631
0.411848
0.411026
0.410173
0.4093
0.408413
0.407519
0.406622
0.405725
0.404832
0.403943
0.403059
0.402182
0.401312
0.400449
0.399595
0.398749
0.397912
0.397084
0.396267
0.39546
0.394663
0.393877
0.393103
0.39234
0.391588
0.390849
0.390122
0.389408
0.388706
0.388016
0.387339
0.386675
0.386024
0.385385
0.384758
0.384145
0.383543
0.382954
0.382377
0.381812
0.381259
0.380717
0.380186
0.379666
0.379157
0.378658
0.378168
0.377689
0.377219
0.376757
0.376304
0.375859
0.375421
0.374991
0.374567
0.374149
0.373736
0.373329
0.372926
0.372528
0.372133
0.371741
0.371351
0.370964
0.370577
0.370192
0.444575
0.427775
0.414035
0.412631
0.411848
0.411026
0.410173
0.4093
0.408413
0.407519
0.406622
0.405725
0.404832
0.403943
0.403059
0.402182
0.401312
0.400449
0.399595
0.398749
0.397912
0.397084
0.396267
0.39546
0.394663
0.393877
0.393103
0.39234
0.391588
0.390849
0.390122
0.389408
0.388706
0.388016
0.387339
0.386675
0.386024
0.385385
0.384758
0.384145
0.383543
0.382954
0.382377
0.381812
0.381259
0.380717
0.380186
0.379666
0.379157
0.378658
0.378168
0.377689
0.377219
0.376757
0.376304
0.375859
0.375421
0.374991
0.374567
0.374149
0.373736
0.373329
0.372926
0.372528
0.372133
0.371741
0.371351
0.370964
0.370577
0.370192
0.444575
0.427775
0.414035
0.412631
0.411848
0.411026
0.410173
0.4093
0.408413
0.407519
0.406622
0.405725
0.404832
0.403943
0.403059
0.402182
0.401312
0.400449
0.399595
0.398749
0.397912
0.397084
0.396267
0.39546
0.394663
0.393877
0.393103
0.39234
0.391588
0.390849
0.390122
0.389408
0.388706
0.388016
0.387339
0.386675
0.386024
0.385385
0.384758
0.384145
0.383543
0.382954
0.382377
0.381812
0.381259
0.380717
0.380186
0.379666
0.379157
0.378658
0.378168
0.377689
0.377219
0.376757
0.376304
0.375859
0.375421
0.374991
0.374567
0.374149
0.373736
0.373329
0.372926
0.372528
0.372133
0.371741
0.371351
0.370964
0.370577
0.370192
0.444575
0.427775
0.414035
0.412631
0.411848
0.411026
0.410173
0.4093
0.408413
0.407519
0.406622
0.405725
0.404832
0.403943
0.403059
0.402182
0.401312
0.400449
0.399595
0.398749
0.397912
0.397084
0.396267
0.39546
0.394663
0.393877
0.393103
0.39234
0.391588
0.390849
0.390122
0.389408
0.388706
0.388016
0.387339
0.386675
0.386024
0.385385
0.384758
0.384145
0.383543
0.382954
0.382377
0.381812
0.381259
0.380717
0.380186
0.379666
0.379157
0.378658
0.378168
0.377689
0.377219
0.376757
0.376304
0.375859
0.375421
0.374991
0.374567
0.374149
0.373736
0.373329
0.372926
0.372528
0.372133
0.371741
0.371351
0.370964
0.370577
0.370192
0.444575
0.427775
0.414035
0.412631
0.411848
0.411026
0.410173
0.4093
0.408413
0.407519
0.406622
0.405725
0.404832
0.403943
0.403059
0.402182
0.401312
0.400449
0.399595
0.398749
0.397912
0.397084
0.396267
0.39546
0.394663
0.393877
0.393103
0.39234
0.391588
0.390849
0.390122
0.389408
0.388706
0.388016
0.387339
0.386675
0.386024
0.385385
0.384758
0.384145
0.383543
0.382954
0.382377
0.381812
0.381259
0.380717
0.380186
0.379666
0.379157
0.378658
0.378168
0.377689
0.377219
0.376757
0.376304
0.375859
0.375421
0.374991
0.374567
0.374149
0.373736
0.373329
0.372926
0.372528
0.372133
0.371741
0.371351
0.370964
0.370577
0.370192
0.444575
0.427775
0.414035
0.412631
0.411848
0.411026
0.410173
0.4093
0.408413
0.407519
0.406622
0.405725
0.404832
0.403943
0.403059
0.402182
0.401312
0.400449
0.399595
0.398749
0.397912
0.397084
0.396267
0.39546
0.394663
0.393877
0.393103
0.39234
0.391588
0.390849
0.390122
0.389408
0.388706
0.388016
0.387339
0.386675
0.386024
0.385385
0.384758
0.384145
0.383543
0.382954
0.382377
0.381812
0.381259
0.380717
0.380186
0.379666
0.379157
0.378658
0.378168
0.377689
0.377219
0.376757
0.376304
0.375859
0.375421
0.374991
0.374567
0.374149
0.373736
0.373329
0.372926
0.372528
0.372133
0.371741
0.371351
0.370964
0.370577
0.370192
0.444575
0.427775
0.414035
0.412631
0.411848
0.411026
0.410173
0.4093
0.408413
0.407519
0.406622
0.405725
0.404832
0.403943
0.403059
0.402182
0.401312
0.400449
0.399595
0.398749
0.397912
0.397084
0.396267
0.39546
0.394663
0.393877
0.393103
0.39234
0.391588
0.390849
0.390122
0.389408
0.388706
0.388016
0.387339
0.386675
0.386024
0.385385
0.384758
0.384145
0.383543
0.382954
0.382377
0.381812
0.381259
0.380717
0.380186
0.379666
0.379157
0.378658
0.378168
0.377689
0.377219
0.376757
0.376304
0.375859
0.375421
0.374991
0.374567
0.374149
0.373736
0.373329
0.372926
0.372528
0.372133
0.371741
0.371351
0.370964
0.370577
0.370192
0.444575
0.427775
0.414035
0.412631
0.411848
0.411026
0.410173
0.4093
0.408413
0.407519
0.406622
0.405725
0.404832
0.403943
0.403059
0.402182
0.401312
0.400449
0.399595
0.398749
0.397912
0.397084
0.396267
0.39546
0.394663
0.393877
0.393103
0.39234
0.391588
0.390849
0.390122
0.389408
0.388706
0.388016
0.387339
0.386675
0.386024
0.385385
0.384758
0.384145
0.383543
0.382954
0.382377
0.381812
0.381259
0.380717
0.380186
0.379666
0.379157
0.378658
0.378168
0.377689
0.377219
0.376757
0.376304
0.375859
0.375421
0.374991
0.374567
0.374149
0.373736
0.373329
0.372926
0.372528
0.372133
0.371741
0.371351
0.370964
0.370577
0.370192
0.444575
0.427775
0.414035
0.412631
0.411848
0.411026
0.410173
0.4093
0.408413
0.407519
0.406622
0.405725
0.404832
0.403943
0.403059
0.402182
0.401312
0.400449
0.399595
0.398749
0.397912
0.397084
0.396267
0.39546
0.394663
0.393877
0.393103
0.39234
0.391588
0.390849
0.390122
0.389408
0.388706
0.388016
0.387339
0.386675
0.386024
0.385385
0.384758
0.384145
0.383543
0.382954
0.382377
0.381812
0.381259
0.380717
0.380186
0.379666
0.379157
0.378658
0.378168
0.377689
0.377219
0.376757
0.376304
0.375859
0.375421
0.374991
0.374567
0.374149
0.373736
0.373329
0.372926
0.372528
0.372133
0.371741
0.371351
0.370964
0.370577
0.370192
0.444575
0.427775
0.414035
0.412631
0.411848
0.411026
0.410173
0.4093
0.408413
0.407519
0.406622
0.405725
0.404832
0.403943
0.403059
0.402182
0.401312
0.400449
0.399595
0.398749
0.397912
0.397084
0.396267
0.39546
0.394663
0.393877
0.393103
0.39234
0.391588
0.390849
0.390122
0.389408
0.388706
0.388016
0.387339
0.386675
0.386024
0.385385
0.384758
0.384145
0.383543
0.382954
0.382377
0.381812
0.381259
0.380717
0.380186
0.379666
0.379157
0.378658
0.378168
0.377689
0.377219
0.376757
0.376304
0.375859
0.375421
0.374991
0.374567
0.374149
0.373736
0.373329
0.372926
0.372528
0.372133
0.371741
0.371351
0.370964
0.370577
0.370192
0.444575
0.427775
0.414035
0.412631
0.411848
0.411026
0.410173
0.4093
0.408413
0.407519
0.406622
0.405725
0.404832
0.403943
0.403059
0.402182
0.401312
0.400449
0.399595
0.398749
0.397912
0.397084
0.396267
0.39546
0.394663
0.393877
0.393103
0.39234
0.391588
0.390849
0.390122
0.389408
0.388706
0.388016
0.387339
0.386675
0.386024
0.385385
0.384758
0.384145
0.383543
0.382954
0.382377
0.381812
0.381259
0.380717
0.380186
0.379666
0.379157
0.378658
0.378168
0.377689
0.377219
0.376757
0.376304
0.375859
0.375421
0.374991
0.374567
0.374149
0.373736
0.373329
0.372926
0.372528
0.372133
0.371741
0.371351
0.370964
0.370577
0.370192
0.444575
0.427775
0.414035
0.412631
0.411848
0.411026
0.410173
0.4093
0.408413
0.407519
0.406622
0.405725
0.404832
0.403943
0.403059
0.402182
0.401312
0.400449
0.399595
0.398749
0.397912
0.397084
0.396267
0.39546
0.394663
0.393877
0.393103
0.39234
0.391588
0.390849
0.390122
0.389408
0.388706
0.388016
0.387339
0.386675
0.386024
0.385385
0.384758
0.384145
0.383543
0.382954
0.382377
0.381812
0.381259
0.380717
0.380186
0.379666
0.379157
0.378658
0.378168
0.377689
0.377219
0.376757
0.376304
0.375859
0.375421
0.374991
0.374567
0.374149
0.373736
0.373329
0.372926
0.372528
0.372133
0.371741
0.371351
0.370964
0.370577
0.370192
0.444575
0.427775
0.414035
0.412631
0.411848
0.411026
0.410173
0.4093
0.408413
0.407519
0.406622
0.405725
0.404832
0.403943
0.403059
0.402182
0.401312
0.400449
0.399595
0.398749
0.397912
0.397084
0.396267
0.39546
0.394663
0.393877
0.393103
0.39234
0.391588
0.390849
0.390122
0.389408
0.388706
0.388016
0.387339
0.386675
0.386024
0.385385
0.384758
0.384145
0.383543
0.382954
0.382377
0.381812
0.381259
0.380717
0.380186
0.379666
0.379157
0.378658
0.378168
0.377689
0.377219
0.376757
0.376304
0.375859
0.375421
0.374991
0.374567
0.374149
0.373736
0.373329
0.372926
0.372528
0.372133
0.371741
0.371351
0.370964
0.370577
0.370192
0.444575
0.427775
0.414035
0.412631
0.411848
0.411026
0.410173
0.4093
0.408413
0.407519
0.406622
0.405725
0.404832
0.403943
0.403059
0.402182
0.401312
0.400449
0.399595
0.398749
0.397912
0.397084
0.396267
0.39546
0.394663
0.393877
0.393103
0.39234
0.391588
0.390849
0.390122
0.389408
0.388706
0.388016
0.387339
0.386675
0.386024
0.385385
0.384758
0.384145
0.383543
0.382954
0.382377
0.381812
0.381259
0.380717
0.380186
0.379666
0.379157
0.378658
0.378168
0.377689
0.377219
0.376757
0.376304
0.375859
0.375421
0.374991
0.374567
0.374149
0.373736
0.373329
0.372926
0.372528
0.372133
0.371741
0.371351
0.370964
0.370577
0.370192
0.444575
0.427775
0.414035
0.412631
0.411848
0.411026
0.410173
0.4093
0.408413
0.407519
0.406622
0.405725
0.404832
0.403943
0.403059
0.402182
0.401312
0.400449
0.399595
0.398749
0.397912
0.397084
0.396267
0.39546
0.394663
0.393877
0.393103
0.39234
0.391588
0.390849
0.390122
0.389408
0.388706
0.388016
0.387339
0.386675
0.386024
0.385385
0.384758
0.384145
0.383543
0.382954
0.382377
0.381812
0.381259
0.380717
0.380186
0.379666
0.379157
0.378658
0.378168
0.377689
0.377219
0.376757
0.376304
0.375859
0.375421
0.374991
0.374567
0.374149
0.373736
0.373329
0.372926
0.372528
0.372133
0.371741
0.371351
0.370964
0.370577
0.370192
0.444575
0.427775
0.414035
0.412631
0.411848
0.411026
0.410173
0.4093
0.408413
0.407519
0.406622
0.405725
0.404832
0.403943
0.403059
0.402182
0.401312
0.400449
0.399595
0.398749
0.397912
0.397084
0.396267
0.39546
0.394663
0.393877
0.393103
0.39234
0.391588
0.390849
0.390122
0.389408
0.388706
0.388016
0.387339
0.386675
0.386024
0.385385
0.384758
0.384145
0.383543
0.382954
0.382377
0.381812
0.381259
0.380717
0.380186
0.379666
0.379157
0.378658
0.378168
0.377689
0.377219
0.376757
0.376304
0.375859
0.375421
0.374991
0.374567
0.374149
0.373736
0.373329
0.372926
0.372528
0.372133
0.371741
0.371351
0.370964
0.370577
0.370192
0.444575
0.427775
0.414035
0.412631
0.411848
0.411026
0.410173
0.4093
0.408413
0.407519
0.406622
0.405725
0.404832
0.403943
0.403059
0.402182
0.401312
0.400449
0.399595
0.398749
0.397912
0.397084
0.396267
0.39546
0.394663
0.393877
0.393103
0.39234
0.391588
0.390849
0.390122
0.389408
0.388706
0.388016
0.387339
0.386675
0.386024
0.385385
0.384758
0.384145
0.383543
0.382954
0.382377
0.381812
0.381259
0.380717
0.380186
0.379666
0.379157
0.378658
0.378168
0.377689
0.377219
0.376757
0.376304
0.375859
0.375421
0.374991
0.374567
0.374149
0.373736
0.373329
0.372926
0.372528
0.372133
0.371741
0.371351
0.370964
0.370577
0.370192
0.444575
0.427775
0.414035
0.412631
0.411848
0.411026
0.410173
0.4093
0.408413
0.407519
0.406622
0.405725
0.404832
0.403943
0.403059
0.402182
0.401312
0.400449
0.399595
0.398749
0.397912
0.397084
0.396267
0.39546
0.394663
0.393877
0.393103
0.39234
0.391588
0.390849
0.390122
0.389408
0.388706
0.388016
0.387339
0.386675
0.386024
0.385385
0.384758
0.384145
0.383543
0.382954
0.382377
0.381812
0.381259
0.380717
0.380186
0.379666
0.379157
0.378658
0.378168
0.377689
0.377219
0.376757
0.376304
0.375859
0.375421
0.374991
0.374567
0.374149
0.373736
0.373329
0.372926
0.372528
0.372133
0.371741
0.371351
0.370964
0.370577
0.370192
0.444575
0.427775
0.414035
0.412631
0.411848
0.411026
0.410173
0.4093
0.408413
0.407519
0.406622
0.405725
0.404832
0.403943
0.403059
0.402182
0.401312
0.400449
0.399595
0.398749
0.397912
0.397084
0.396267
0.39546
0.394663
0.393877
0.393103
0.39234
0.391588
0.390849
0.390122
0.389408
0.388706
0.388016
0.387339
0.386675
0.386024
0.385385
0.384758
0.384145
0.383543
0.382954
0.382377
0.381812
0.381259
0.380717
0.380186
0.379666
0.379157
0.378658
0.378168
0.377689
0.377219
0.376757
0.376304
0.375859
0.375421
0.374991
0.374567
0.374149
0.373736
0.373329
0.372926
0.372528
0.372133
0.371741
0.371351
0.370964
0.370577
0.370192
0.444575
0.427775
0.414035
0.412631
0.411848
0.411026
0.410173
0.4093
0.408413
0.407519
0.406622
0.405725
0.404832
0.403943
0.403059
0.402182
0.401312
0.400449
0.399595
0.398749
0.397912
0.397084
0.396267
0.39546
0.394663
0.393877
0.393103
0.39234
0.391588
0.390849
0.390122
0.389408
0.388706
0.388016
0.387339
0.386675
0.386024
0.385385
0.384758
0.384145
0.383543
0.382954
0.382377
0.381812
0.381259
0.380717
0.380186
0.379666
0.379157
0.378658
0.378168
0.377689
0.377219
0.376757
0.376304
0.375859
0.375421
0.374991
0.374567
0.374149
0.373736
0.373329
0.372926
0.372528
0.372133