/*--------------------------------*- C++ -*----------------------------------*\
  =========                 |
  \\      /  F ield         | OpenFOAM: The Open Source CFD Toolbox
   \\    /   O peration     | Website:  https://openfoam.org
    \\  /    A nd           | Version:  13
     \\/     M anipulation  |
\*---------------------------------------------------------------------------*/
FoamFile
{
    format      ascii;
    class       volScalarField;
    location    "8";
    object      difft;
}
// * * * * * * * * * * * * * * * * * * * * * * * * * * * * * * * * * * * * * //

dimensions      [0 2 -1 0 0 0 0];

internalField   nonuniform List<scalar> 
78750
(
7.29179e-10
1.59018e-07
2.48511e-06
4.16028e-06
5.39849e-06
6.64858e-06
7.70121e-06
8.90278e-06
9.26504e-06
9.86183e-06
1.24424e-05
1.42851e-05
1.50211e-05
1.46875e-05
1.41114e-05
1.25201e-05
1.16575e-05
1.18956e-05
1.2278e-05
1.15915e-05
1.08248e-05
1.0039e-05
9.27996e-06
8.56018e-06
7.90811e-06
7.32589e-06
6.83678e-06
6.4237e-06
6.08775e-06
5.50452e-06
5.04999e-06
4.08729e-06
3.49169e-06
8.15124e-07
5.82022e-09
1.00633e-09
2.57586e-07
4.43985e-06
1.18606e-05
1.47123e-05
1.18152e-05
1.22547e-05
1.42827e-05
1.52051e-05
1.61514e-05
1.63273e-05
2.32947e-05
6.7288e-05
6.73188e-05
5.14389e-05
4.02952e-05
3.59834e-05
3.33528e-05
3.12481e-05
3.08053e-05
3.10377e-05
3.20429e-05
3.3594e-05
3.71757e-05
4.84115e-05
6.99671e-05
5.61829e-05
3.24371e-05
1.97295e-05
1.31965e-05
9.56609e-06
7.50687e-06
6.52947e-06
1.04083e-06
6.04881e-09
2.27357e-09
5.78684e-07
1.15264e-05
1.6034e-05
1.35607e-05
1.22844e-05
1.14514e-05
1.11097e-05
1.10782e-05
1.24797e-05
1.91185e-05
4.29628e-05
6.68734e-05
6.97312e-05
6.11256e-05
5.74231e-05
5.49764e-05
5.28394e-05
5.26521e-05
5.34171e-05
5.55247e-05
5.9926e-05
6.81194e-05
7.72754e-05
7.02023e-05
4.62675e-05
2.83473e-05
1.82933e-05
1.37824e-05
9.75034e-06
8.01375e-06
6.64364e-06
5.60504e-06
1.08425e-06
5.45072e-09
2.53482e-09
6.48835e-07
1.1772e-05
1.59866e-05
1.21348e-05
1.0488e-05
1.00894e-05
1.01295e-05
1.05295e-05
1.15849e-05
1.49775e-05
2.52898e-05
5.37253e-05
7.83095e-05
7.70591e-05
7.58787e-05
7.482e-05
7.38882e-05
7.30552e-05
7.22884e-05
7.16042e-05
7.111e-05
7.10484e-05
7.15535e-05
6.23929e-05
3.46995e-05
2.05439e-05
1.43987e-05
1.0041e-05
7.16726e-06
5.51788e-06
4.84313e-06
5.4871e-06
9.58232e-07
4.46985e-09
2.77125e-09
7.05345e-07
1.41315e-05
1.44374e-05
1.15587e-05
1.0349e-05
9.99875e-06
1.01853e-05
1.10239e-05
1.31382e-05
1.8223e-05
2.92507e-05
5.1882e-05
7.76654e-05
7.66045e-05
7.49904e-05
7.34913e-05
7.2165e-05
7.10319e-05
7.0164e-05
6.96796e-05
6.97463e-05
7.06603e-05
5.92471e-05
3.70959e-05
2.85664e-05
1.83181e-05
1.20938e-05
9.40321e-06
6.88952e-06
5.37177e-06
4.88362e-06
5.96755e-06
9.39004e-07
4.45448e-09
2.88547e-09
7.33963e-07
1.38916e-05
1.47755e-05
1.1818e-05
1.06454e-05
1.0376e-05
1.05327e-05
1.11328e-05
1.279e-05
1.77523e-05
2.66428e-05
4.7866e-05
7.70063e-05
7.49241e-05
7.28018e-05
7.08867e-05
6.92924e-05
6.80758e-05
6.73578e-05
6.72969e-05
6.79877e-05
6.98269e-05
5.45766e-05
3.2909e-05
2.60993e-05
1.83578e-05
1.13484e-05
8.59157e-06
6.64499e-06
5.19506e-06
4.39992e-06
4.81461e-06
8.93103e-07
4.20556e-09
2.92057e-09
7.40802e-07
1.3977e-05
1.40172e-05
1.13781e-05
1.04841e-05
1.04134e-05
1.07968e-05
1.16775e-05
1.34992e-05
1.76827e-05
2.88555e-05
5.08065e-05
7.70304e-05
7.4444e-05
7.20726e-05
7.00521e-05
6.84634e-05
6.73814e-05
6.68664e-05
6.7048e-05
6.81739e-05
7.03322e-05
6.01825e-05
3.38152e-05
2.065e-05
1.58004e-05
1.04069e-05
7.13935e-06
5.52366e-06
4.46172e-06
4.12657e-06
5.10084e-06
8.67584e-07
3.85313e-09
3.00492e-09
7.63314e-07
1.40894e-05
1.42411e-05
1.16561e-05
1.07507e-05
1.06627e-05
1.10327e-05
1.18701e-05
1.35725e-05
1.74556e-05
2.68217e-05
4.72022e-05
7.6795e-05
7.42707e-05
7.19052e-05
6.98902e-05
6.83439e-05
6.73704e-05
6.70983e-05
6.7599e-05
6.91249e-05
7.16295e-05
5.67608e-05
3.24695e-05
1.93732e-05
1.45687e-05
9.72084e-06
6.3338e-06
5.11108e-06
4.51952e-06
4.4542e-06
5.6201e-06
8.78009e-07
3.95658e-09
3.03565e-09
7.70181e-07
1.39985e-05
1.40121e-05
1.15083e-05
1.07253e-05
1.07432e-05
1.12031e-05
1.21795e-05
1.40788e-05
1.81647e-05
2.8136e-05
4.73251e-05
7.55643e-05
7.45656e-05
7.21826e-05
7.02073e-05
6.87671e-05
6.79751e-05
6.79499e-05
6.87278e-05
7.05655e-05
7.33107e-05
4.94833e-05
2.79116e-05
1.84361e-05
1.36235e-05
9.10564e-06
6.42655e-06
5.34651e-06
4.61924e-06
4.35936e-06
5.38961e-06
9.07519e-07
4.21712e-09
3.09669e-09
7.84924e-07
1.41469e-05
1.39639e-05
1.15554e-05
1.08517e-05
1.0935e-05
1.14071e-05
1.23895e-05
1.42814e-05
1.81506e-05
2.64337e-05
4.42415e-05
7.17189e-05
7.46216e-05
7.23998e-05
7.05176e-05
6.91833e-05
6.85554e-05
6.87364e-05
6.98672e-05
7.1962e-05
7.04582e-05
4.66913e-05
2.6922e-05
1.54406e-05
1.27198e-05
9.09312e-06
6.20431e-06
5.06514e-06
4.41443e-06
4.33333e-06
5.86843e-06
9.86033e-07
4.57519e-09
3.11979e-09
7.9004e-07
1.41451e-05
1.38183e-05
1.15035e-05
1.0884e-05
1.10528e-05
1.16061e-05
1.26018e-05
1.44489e-05
1.8243e-05
2.64225e-05
4.41114e-05
7.06227e-05
7.48009e-05
7.24624e-05
7.06008e-05
6.93621e-05
6.88706e-05
6.91832e-05
7.0451e-05
7.26579e-05
7.09201e-05
4.77413e-05
2.65403e-05
1.4948e-05
1.23546e-05
9.08022e-06
6.30278e-06
5.04836e-06
4.31239e-06
4.36472e-06
5.86504e-06
1.04329e-06
4.7058e-09
3.15321e-09
7.97851e-07
1.40638e-05
1.39353e-05
1.1634e-05
1.10033e-05
1.11015e-05
1.15501e-05
1.24763e-05
1.42416e-05
1.79237e-05
2.61745e-05
4.3445e-05
7.11286e-05
7.46001e-05
7.23618e-05
7.05895e-05
6.94493e-05
6.90633e-05
6.94568e-05
7.07646e-05
7.29311e-05
7.57627e-05
5.42617e-05
2.75262e-05
1.4815e-05
1.19546e-05
8.90135e-06
6.3246e-06
5.0519e-06
4.30689e-06
4.55386e-06
6.96744e-06
1.09074e-06
4.86206e-09
3.18144e-09
8.04373e-07
1.40491e-05
1.38985e-05
1.15829e-05
1.08911e-05
1.08761e-05
1.14337e-05
1.25636e-05
1.45971e-05
1.85079e-05
2.67624e-05
4.3725e-05
7.10144e-05
7.45765e-05
7.23659e-05
7.06611e-05
6.96493e-05
6.94213e-05
6.99844e-05
7.14371e-05
7.36582e-05
7.63962e-05
5.55203e-05
2.68598e-05
1.37229e-05
1.03865e-05
7.66e-06
5.81051e-06
5.12372e-06
4.80026e-06
4.96149e-06
7.60397e-06
1.23374e-06
5.51237e-09
3.22762e-09
8.15834e-07
1.41332e-05
1.36565e-05
1.1465e-05
1.09746e-05
1.09593e-05
1.15211e-05
1.26747e-05
1.46915e-05
1.84288e-05
2.59027e-05
4.17536e-05
6.76628e-05
7.44684e-05
7.24071e-05
7.08114e-05
6.99083e-05
6.97999e-05
7.04853e-05
7.20263e-05
7.42155e-05
7.59258e-05
4.91063e-05
2.39391e-05
1.27698e-05
9.73913e-06
7.50356e-06
5.8874e-06
5.23345e-06
4.89762e-06
5.17463e-06
8.27282e-06
1.3323e-06
5.96196e-09
3.26069e-09
8.23972e-07
1.42423e-05
1.39375e-05
1.1484e-05
1.05957e-05
1.06739e-05
1.13974e-05
1.27893e-05
1.48005e-05
1.84392e-05
2.62323e-05
4.26933e-05
6.78765e-05
7.45847e-05
7.2437e-05
7.08614e-05
7.00171e-05
6.99721e-05
7.07118e-05
7.22752e-05
7.44544e-05
7.60871e-05
4.81224e-05
2.29612e-05
1.23188e-05
9.43962e-06
7.26195e-06
5.66668e-06
5.01258e-06
4.81159e-06
5.91703e-06
1.06433e-05
1.40134e-06
6.25576e-09
3.31257e-09
8.37127e-07
1.43962e-05
1.38311e-05
1.15224e-05
1.07987e-05
1.07982e-05
1.13261e-05
1.23749e-05
1.45632e-05
1.90513e-05
2.7719e-05
4.28525e-05
6.71001e-05
7.4554e-05
7.24371e-05
7.09144e-05
7.01379e-05
7.01714e-05
7.10018e-05
7.26096e-05
7.47797e-05
7.63347e-05
4.72356e-05
2.14379e-05
1.1263e-05
8.36093e-06
6.8225e-06
5.81265e-06
5.34259e-06
5.38121e-06
6.39928e-06
1.04349e-05
1.47307e-06
6.59621e-09
3.32149e-09
8.39809e-07
1.43608e-05
1.43624e-05
1.15133e-05
1.05098e-05
1.05656e-05
1.12428e-05
1.25389e-05
1.46819e-05
1.87442e-05
2.73824e-05
4.29393e-05
6.67397e-05
7.46077e-05
7.24907e-05
7.10087e-05
7.02809e-05
7.03591e-05
7.12396e-05
7.28562e-05
7.49873e-05
7.35246e-05
4.4272e-05
1.9914e-05
1.09595e-05
8.19517e-06
6.69364e-06
5.79255e-06
5.31307e-06
5.42181e-06
6.62678e-06
1.12618e-05
1.52684e-06
6.83895e-09
3.32564e-09
8.39756e-07
1.43217e-05
1.38407e-05
1.16194e-05
1.07194e-05
1.06143e-05
1.12041e-05
1.23042e-05
1.44186e-05
1.86642e-05
2.67084e-05
4.25703e-05
6.60001e-05
7.45351e-05
7.25302e-05
7.11066e-05
7.04276e-05
7.05488e-05
7.1473e-05
7.31157e-05
7.52541e-05
7.34329e-05
4.31061e-05
1.90035e-05
1.01823e-05
7.32313e-06
6.10432e-06
5.6684e-06
5.72686e-06
5.90647e-06
7.03673e-06
1.12285e-05
1.57864e-06
7.07042e-09
3.34491e-09
8.43802e-07
1.43223e-05
1.41305e-05
1.14663e-05
1.05136e-05
1.05888e-05
1.12108e-05
1.24485e-05
1.47362e-05
1.82135e-05
2.55131e-05
4.11317e-05
6.59694e-05
7.45434e-05
7.26394e-05
7.12546e-05
7.05966e-05
7.07293e-05
7.1649e-05
7.32654e-05
7.53887e-05
7.16242e-05
4.1839e-05
1.82864e-05
9.96459e-06
7.41199e-06
6.27151e-06
5.70881e-06
5.74115e-06
5.94252e-06
6.85439e-06
1.12634e-05
1.60335e-06
7.18858e-09
3.35675e-09
8.46872e-07
1.42842e-05
1.37449e-05
1.14226e-05
1.08353e-05
1.08683e-05
1.10276e-05
1.19581e-05
1.40799e-05
1.84037e-05
2.69028e-05
4.23845e-05
6.61878e-05
7.44753e-05
7.26188e-05
7.12896e-05
7.06979e-05
7.09018e-05
7.18862e-05
7.35454e-05
7.56739e-05
7.09326e-05
4.1321e-05
1.8017e-05
9.94557e-06
7.31343e-06
6.26956e-06
5.73485e-06
5.4862e-06
5.88119e-06
7.09462e-06
1.19643e-05
1.68237e-06
7.51488e-09
3.36564e-09
8.49482e-07
1.43199e-05
1.39867e-05
1.16286e-05
1.04746e-05
1.03186e-05
1.11873e-05
1.23694e-05
1.43245e-05
1.84879e-05
2.75113e-05
4.32241e-05
6.62404e-05
7.47325e-05
7.27663e-05
7.14071e-05
7.08079e-05
7.10205e-05
7.2013e-05
7.3642e-05
7.56665e-05
6.83246e-05
3.77797e-05
1.68194e-05
9.32277e-06
7.02722e-06
6.18335e-06
5.98502e-06
5.80769e-06
5.95981e-06
7.0795e-06
1.16764e-05
1.71511e-06
7.74865e-09
3.38931e-09
8.5648e-07
1.447e-05
1.37085e-05
1.12325e-05
1.05339e-05
1.06131e-05
1.10977e-05
1.23004e-05
1.46159e-05
1.85981e-05
2.62812e-05
4.20604e-05
6.47062e-05
7.47374e-05
7.28377e-05
7.1492e-05
7.08825e-05
7.10695e-05
7.20568e-05
7.37091e-05
7.58183e-05
6.78031e-05
3.91705e-05
1.72344e-05
9.69334e-06
7.28412e-06
6.21811e-06
5.70129e-06
5.63402e-06
5.9339e-06
7.23772e-06
1.2304e-05
1.74021e-06
7.8549e-09
3.37879e-09
8.54569e-07
1.43892e-05
1.36045e-05
1.14075e-05
1.08207e-05
1.07494e-05
1.10292e-05
1.2165e-05
1.4213e-05
1.84014e-05
2.66868e-05
4.27791e-05
6.58678e-05
7.47635e-05
7.28304e-05
7.14941e-05
7.0901e-05
7.10991e-05
7.2098e-05
7.37918e-05
7.59793e-05
6.86366e-05
3.90265e-05
1.73657e-05
9.83665e-06
7.23945e-06
6.13932e-06
5.67122e-06
5.67929e-06
6.05437e-06
7.18501e-06
1.23354e-05
1.76248e-06
7.91991e-09
3.37849e-09
8.52666e-07
1.43033e-05
1.42955e-05
1.15519e-05
1.02214e-05
1.02627e-05
1.10823e-05
1.22621e-05
1.45793e-05
1.88043e-05
2.68788e-05
4.2571e-05
6.51058e-05
7.48239e-05
7.28909e-05
7.15683e-05
7.1016e-05
7.12773e-05
7.23307e-05
7.40583e-05
7.6212e-05
6.69971e-05
3.64888e-05
1.65367e-05
9.4128e-06
7.17425e-06
6.42096e-06
5.95076e-06
5.80856e-06
6.16879e-06
7.31282e-06
1.22651e-05
1.80799e-06
8.14013e-09
3.38621e-09
8.54916e-07
1.43692e-05
1.35296e-05
1.12255e-05
1.0529e-05
1.04619e-05
1.10482e-05
1.2324e-05
1.46078e-05
1.8878e-05
2.69345e-05
4.19514e-05
6.50087e-05
7.48359e-05
7.29261e-05
7.15807e-05
7.1004e-05
7.12232e-05
7.2242e-05
7.39536e-05
7.61686e-05
6.51249e-05
3.6612e-05
1.65769e-05
9.6694e-06
7.39782e-06
6.34927e-06
5.96757e-06
5.9386e-06
6.07342e-06
7.27364e-06
1.24914e-05
1.8166e-06
8.25385e-09
3.38408e-09
8.53765e-07
1.43607e-05
1.38532e-05
1.1222e-05
1.06281e-05
1.06707e-05
1.10837e-05
1.22185e-05
1.43099e-05
1.88029e-05
2.6929e-05
4.27171e-05
6.54511e-05
7.48745e-05
7.29416e-05
7.16017e-05
7.10142e-05
7.12377e-05
7.22529e-05
7.39552e-05
7.61478e-05
6.58009e-05
3.70128e-05
1.65722e-05
9.72586e-06
7.36802e-06
6.37441e-06
5.76561e-06
5.73867e-06
6.56223e-06
8.02948e-06
1.24078e-05
1.8666e-06
8.37838e-09
3.39325e-09
8.56401e-07
1.43895e-05
1.36672e-05
1.12574e-05
1.03026e-05
1.03126e-05
1.10033e-05
1.22907e-05
1.46607e-05
1.87742e-05
2.6805e-05
4.27624e-05
6.55847e-05
7.47988e-05
7.28999e-05
7.15758e-05
7.09987e-05
7.12175e-05
7.22283e-05
7.39271e-05
7.61334e-05
6.82431e-05
3.81092e-05
1.65243e-05
9.35988e-06
7.11379e-06
6.28367e-06
6.09812e-06
6.09076e-06
6.37455e-06
7.58492e-06
1.26605e-05
1.88316e-06
8.41226e-09
3.37782e-09
8.5214e-07
1.41676e-05
1.35325e-05
1.09425e-05
1.03798e-05
1.04366e-05
1.09836e-05
1.23219e-05
1.47002e-05
1.86554e-05
2.64015e-05
4.16539e-05
6.4179e-05
7.47692e-05
7.2905e-05
7.15952e-05
7.10227e-05
7.12473e-05
7.22649e-05
7.39687e-05
7.61684e-05
6.78823e-05
3.77241e-05
1.66155e-05
9.48764e-06
7.23071e-06
6.36949e-06
5.98538e-06
6.07371e-06
6.26783e-06
7.59166e-06
1.33592e-05
1.9299e-06
8.73521e-09
3.36158e-09
8.49052e-07
1.43392e-05
1.40694e-05
1.14373e-05
1.02077e-05
1.01857e-05
1.08602e-05
1.21641e-05
1.44311e-05
1.86486e-05
2.71329e-05
4.33124e-05
6.5768e-05
7.46404e-05
7.28054e-05
7.1547e-05
7.10256e-05
7.12868e-05
7.23339e-05
7.40544e-05
7.62158e-05
6.55819e-05
3.47992e-05
1.59326e-05
9.47642e-06
7.30936e-06
6.46322e-06
6.16212e-06
5.93964e-06
6.47046e-06
8.03962e-06
1.31585e-05
1.96731e-06
8.93026e-09
3.36455e-09
8.49084e-07
1.43661e-05
1.36764e-05
1.1346e-05
1.04736e-05
1.03412e-05
1.08723e-05
1.20053e-05
1.4508e-05
1.9271e-05
2.83671e-05
4.3743e-05
6.6247e-05
7.48432e-05
7.28887e-05
7.15941e-05
7.10975e-05
7.1398e-05
7.24626e-05
7.41915e-05
7.6355e-05
6.42706e-05
3.50679e-05
1.60114e-05
9.38617e-06
7.44753e-06
6.63459e-06
5.95803e-06
6.18084e-06
6.71547e-06
7.95401e-06
1.35985e-05
1.95824e-06
8.93149e-09
3.37182e-09
8.5146e-07
1.43675e-05
1.34636e-05
1.11291e-05
1.04103e-05
1.04639e-05
1.09469e-05
1.21843e-05
1.47971e-05
1.95506e-05
2.76343e-05
4.26435e-05
6.53574e-05
7.48568e-05
7.29232e-05
7.16014e-05
7.10458e-05
7.13198e-05
7.23768e-05
7.40835e-05
7.61999e-05
6.65365e-05
3.58035e-05
1.60012e-05
9.53486e-06
7.3906e-06
6.50317e-06
6.1697e-06
6.21542e-06
6.60918e-06
7.94349e-06
1.40123e-05
2.07678e-06
9.28969e-09
3.36088e-09
8.49986e-07
1.4203e-05
1.38849e-05
1.14487e-05
1.0296e-05
1.00787e-05
1.08065e-05
1.22902e-05
1.47677e-05
2.00868e-05
2.84965e-05
4.42395e-05
6.72286e-05
7.48479e-05
7.2852e-05
7.15531e-05
7.10437e-05
7.13348e-05
7.23807e-05
7.40643e-05
7.61173e-05
6.7153e-05
3.53528e-05
1.57907e-05
9.1873e-06
7.12591e-06
6.58942e-06
6.54121e-06
6.48834e-06
6.9509e-06
8.54776e-06
1.39207e-05
2.04943e-06
9.30491e-09
3.35767e-09
8.4749e-07
1.40823e-05
1.34801e-05
1.0755e-05
1.04215e-05
1.05692e-05
1.09475e-05
1.21461e-05
1.44104e-05
1.84117e-05
2.67935e-05
4.25493e-05
6.59408e-05
7.46911e-05
7.28608e-05
7.16235e-05
7.11479e-05
7.14797e-05
7.25814e-05
7.43145e-05
7.64002e-05
6.29876e-05
3.27468e-05
1.52403e-05
9.1593e-06
7.3722e-06
6.79958e-06
6.57848e-06
6.50828e-06
6.91528e-06
8.19525e-06
1.40636e-05
2.09199e-06
9.33911e-09
3.36923e-09
8.51289e-07
1.4432e-05
1.32476e-05
1.11277e-05
1.03747e-05
1.03262e-05
1.10311e-05
1.22121e-05
1.4503e-05
1.92194e-05
2.77224e-05
4.26418e-05
6.49183e-05
7.45566e-05
7.27312e-05
7.14995e-05
7.10361e-05
7.13607e-05
7.24414e-05
7.41454e-05
7.61928e-05
6.45167e-05
3.44002e-05
1.5601e-05
9.33577e-06
7.36181e-06
6.66721e-06
6.52377e-06
6.55906e-06
6.70693e-06
8.39971e-06
1.45929e-05
2.1489e-06
9.6268e-09
3.37288e-09
8.52387e-07
1.45713e-05
1.35496e-05
1.14973e-05
1.05761e-05
1.01951e-05
1.06451e-05
1.22665e-05
1.47643e-05
1.92908e-05
2.85628e-05
4.43107e-05
6.70352e-05
7.46612e-05
7.27539e-05
7.15121e-05
7.10388e-05
7.13571e-05
7.24319e-05
7.41326e-05
7.61864e-05
6.57533e-05
3.44624e-05
1.56367e-05
9.33968e-06
7.29721e-06
6.4772e-06
6.25508e-06
6.51495e-06
7.4437e-06
9.0182e-06
1.46921e-05
2.13919e-06
9.68348e-09
3.3711e-09
8.50157e-07
1.44872e-05
1.35855e-05
1.11664e-05
1.02761e-05
1.02999e-05
1.10642e-05
1.24273e-05
1.48085e-05
1.89413e-05
2.71341e-05
4.33608e-05
6.66763e-05
7.46989e-05
7.27966e-05
7.15283e-05
7.10516e-05
7.13748e-05
7.24583e-05
7.41664e-05
7.62493e-05
6.42458e-05
3.33672e-05
1.51326e-05
8.93366e-06
7.21967e-06
6.86104e-06
6.65196e-06
6.67342e-06
7.11581e-06
8.76164e-06
1.51441e-05
2.15284e-06
9.60399e-09
3.39455e-09
8.54418e-07
1.44853e-05
1.3474e-05
1.09711e-05
1.02867e-05
1.04977e-05
1.10165e-05
1.2152e-05
1.4557e-05
1.92779e-05
2.80242e-05
4.34559e-05
6.64488e-05
7.46637e-05
7.28327e-05
7.1597e-05
7.11261e-05
7.14565e-05
7.25519e-05
7.42981e-05
7.64639e-05
6.42927e-05
3.36987e-05
1.54706e-05
9.27781e-06
7.32244e-06
6.74498e-06
6.60818e-06
6.65329e-06
7.10827e-06
8.74868e-06
1.48786e-05
2.18888e-06
9.74113e-09
3.38082e-09
8.51706e-07
1.43719e-05
1.3536e-05
1.13042e-05
1.05026e-05
1.03086e-05
1.08486e-05
1.20754e-05
1.46438e-05
2.00021e-05
2.84966e-05
4.39226e-05
6.68094e-05
7.46566e-05
7.27687e-05
7.15219e-05
7.10552e-05
7.13884e-05
7.24833e-05
7.42022e-05
7.62717e-05
6.45244e-05
3.32891e-05
1.51942e-05
9.19356e-06
7.26718e-06
6.55337e-06
6.40829e-06
6.85607e-06
7.564e-06
9.09716e-06
1.51111e-05
2.16468e-06
9.67779e-09
3.36038e-09
8.47444e-07
1.41871e-05
1.34382e-05
1.08717e-05
1.00921e-05
1.04443e-05
1.1019e-05
1.23756e-05
1.50486e-05
1.96116e-05
2.80098e-05
4.31255e-05
6.52748e-05
7.46436e-05
7.2766e-05
7.15115e-05
7.10541e-05
7.13951e-05
7.24879e-05
7.4216e-05
7.63085e-05
6.34549e-05
3.26752e-05
1.50546e-05
9.09382e-06
7.41903e-06
6.88378e-06
6.64195e-06
6.7795e-06
7.3352e-06
8.83475e-06
1.43132e-05
2.13485e-06
9.65178e-09
3.36581e-09
8.46779e-07
1.44262e-05
1.3531e-05
1.1154e-05
1.02364e-05
1.01792e-05
1.09751e-05
1.22917e-05
1.4572e-05
1.904e-05
2.80545e-05
4.41678e-05
6.77695e-05
7.44881e-05
7.27082e-05
7.15339e-05
7.11218e-05
7.1498e-05
7.26219e-05
7.43586e-05
7.64394e-05
6.42064e-05
3.30375e-05
1.51829e-05
9.17215e-06
7.35894e-06
6.72382e-06
6.58976e-06
6.91636e-06
7.10433e-06
8.45033e-06
1.53093e-05
2.20822e-06
9.79204e-09
3.36e-09
8.45769e-07
1.4134e-05
1.35376e-05
1.08714e-05
1.01679e-05
1.0513e-05
1.10049e-05
1.19206e-05
1.44376e-05
1.95733e-05
2.91129e-05
4.51774e-05
6.76367e-05
7.47173e-05
7.27783e-05
7.15014e-05
7.10292e-05
7.13875e-05
7.25381e-05
7.43435e-05
7.65245e-05
6.28976e-05
3.22236e-05
1.50887e-05
9.19452e-06
7.44497e-06
6.89641e-06
6.63012e-06
6.7105e-06
7.44593e-06
9.1759e-06
1.47041e-05
2.17724e-06
9.73097e-09
3.33068e-09
8.41044e-07
1.41259e-05
1.35732e-05
1.11244e-05
1.00933e-05
9.95817e-06
1.07931e-05
1.23717e-05
1.52611e-05
1.99669e-05
2.77672e-05
4.32137e-05
6.53353e-05
7.45225e-05
7.26298e-05
7.13791e-05
7.09207e-05
7.12974e-05
7.24516e-05
7.42628e-05
7.6455e-05
6.33782e-05
3.28873e-05
1.52036e-05
9.29332e-06
7.40489e-06
6.85387e-06
6.72121e-06
6.80728e-06
7.21232e-06
8.77583e-06
1.50183e-05
2.17535e-06
9.67325e-09
3.35129e-09
8.456e-07
1.4439e-05
1.33335e-05
1.10033e-05
1.02251e-05
1.03405e-05
1.08795e-05
1.23662e-05
1.51729e-05
1.9689e-05
2.76819e-05
4.31871e-05
6.68747e-05
7.44765e-05
7.25962e-05
7.13656e-05
7.09217e-05
7.13014e-05
7.24535e-05
7.42489e-05
7.64308e-05
6.49244e-05
3.2823e-05
1.50191e-05
9.15778e-06
7.35314e-06
6.81982e-06
6.84075e-06
6.85946e-06
7.23911e-06
8.80233e-06
1.40562e-05
2.16728e-06
9.67271e-09
3.35678e-09
8.47409e-07
1.42033e-05
1.35478e-05
1.0775e-05
1.01134e-05
1.03519e-05
1.08627e-05
1.22173e-05
1.47924e-05
2.0557e-05
2.88888e-05
4.4101e-05
6.62346e-05
7.44108e-05
7.25704e-05
7.13681e-05
7.0937e-05
7.13128e-05
7.24973e-05
7.43255e-05
7.65189e-05
6.25758e-05
3.23179e-05
1.52746e-05
9.39199e-06
7.59145e-06
7.0132e-06
6.58627e-06
6.6995e-06
7.37971e-06
8.92064e-06
1.47118e-05
2.14659e-06
9.75994e-09
3.33653e-09
8.41958e-07
1.41443e-05
1.32987e-05
1.0938e-05
1.03793e-05
1.02672e-05
1.07108e-05
1.21222e-05
1.46308e-05
1.94042e-05
2.83862e-05
4.56802e-05
6.77083e-05
7.45114e-05
7.26058e-05
7.13638e-05
7.09296e-05
7.13042e-05
7.24345e-05
7.41981e-05
7.63213e-05
6.30499e-05
3.25398e-05
1.52088e-05
9.43746e-06
7.58035e-06
6.91649e-06
6.73771e-06
6.84024e-06
7.30127e-06
9.01301e-06
1.5487e-05
2.16227e-06
9.82223e-09
3.33589e-09
8.42413e-07
1.43947e-05
1.31938e-05
1.10693e-05
1.02262e-05
1.03828e-05
1.11518e-05
1.20604e-05
1.45453e-05
1.97048e-05
2.84181e-05
4.43726e-05
6.73605e-05
7.44429e-05
7.25921e-05
7.13714e-05
7.09356e-05
7.13118e-05
7.24521e-05
7.42166e-05
7.63429e-05
6.43942e-05
3.23834e-05
1.48834e-05
9.20943e-06
7.48898e-06
6.96741e-06
6.88668e-06
7.10956e-06
7.5222e-06
8.91347e-06
1.49919e-05
2.21807e-06
9.87534e-09
3.33721e-09
8.42005e-07
1.4188e-05
1.3743e-05
1.08131e-05
1.00675e-05
1.01147e-05
1.08247e-05
1.23659e-05
1.48504e-05
1.93736e-05
2.84126e-05
4.50109e-05
6.72852e-05
7.44998e-05
7.25952e-05
7.13637e-05
7.0941e-05
7.13233e-05
7.24826e-05
7.42817e-05
7.64543e-05
6.30275e-05
3.22837e-05
1.51417e-05
9.43545e-06
7.66309e-06
7.05583e-06
6.9124e-06
7.03002e-06
7.47972e-06
8.97295e-06
1.44681e-05
2.18431e-06
9.85065e-09
3.3294e-09
8.40369e-07
1.42416e-05
1.31022e-05
1.09721e-05
1.01426e-05
1.02983e-05
1.095e-05
1.25195e-05
1.51475e-05
1.94398e-05
2.76923e-05
4.35268e-05
6.60177e-05
7.43842e-05
7.25503e-05
7.13652e-05
7.09392e-05
7.13354e-05
7.25226e-05
7.43787e-05
7.66535e-05
6.36832e-05
3.24356e-05
1.53116e-05
9.47168e-06
7.7209e-06
7.1505e-06
6.83061e-06
6.76206e-06
7.43798e-06
9.47041e-06
1.61829e-05
2.16609e-06
9.81482e-09
3.33319e-09
8.39816e-07
1.44597e-05
1.33195e-05
1.11166e-05
1.0433e-05
1.02509e-05
1.08434e-05
1.20368e-05
1.46838e-05
1.95625e-05
2.82459e-05
4.43317e-05
6.75111e-05
7.42883e-05
7.24965e-05
7.13455e-05
7.09848e-05
7.14148e-05
7.2597e-05
7.4398e-05
7.65598e-05
6.41153e-05
3.18581e-05
1.4768e-05
9.27162e-06
7.55744e-06
7.06892e-06
7.24814e-06
7.39467e-06
7.67259e-06
9.27413e-06
1.50958e-05
2.1993e-06
9.81392e-09
3.3355e-09
8.4143e-07
1.43668e-05
1.35668e-05
1.0989e-05
1.01584e-05
1.03293e-05
1.07915e-05
1.21852e-05
1.49208e-05
1.95912e-05
2.80997e-05
4.43045e-05
6.7217e-05
7.43114e-05
7.2483e-05
7.12884e-05
7.08977e-05
7.13366e-05
7.25458e-05
7.43851e-05
7.65884e-05
6.24211e-05
3.17426e-05
1.50739e-05
9.49658e-06
7.77628e-06
7.25341e-06
7.00784e-06
7.20408e-06
7.79702e-06
9.10675e-06
1.517e-05
2.18813e-06
9.82501e-09
3.33335e-09
8.38286e-07
1.40536e-05
1.3153e-05
1.08237e-05
1.0131e-05
1.02161e-05
1.10179e-05
1.25211e-05
1.47561e-05
1.90719e-05
2.82213e-05
4.54012e-05
6.79941e-05
7.4371e-05
7.24673e-05
7.12639e-05
7.08736e-05
7.12932e-05
7.24762e-05
7.42974e-05
7.6493e-05
6.33523e-05
3.20978e-05
1.52258e-05
9.53627e-06
7.7941e-06
7.10771e-06
6.90112e-06
7.0941e-06
7.58205e-06
9.50621e-06
1.57383e-05
2.1816e-06
9.90969e-09
3.3156e-09
8.36826e-07
1.4261e-05
1.34984e-05
1.11895e-05
1.03841e-05
1.0214e-05
1.06182e-05
1.2036e-05
1.46505e-05
1.95251e-05
2.87303e-05
4.56204e-05
6.8056e-05
7.43743e-05
7.24672e-05
7.12503e-05
7.08543e-05
7.12865e-05
7.24757e-05
7.42851e-05
7.64609e-05
6.3175e-05
3.1381e-05
1.46992e-05
9.32008e-06
7.65136e-06
7.24578e-06
7.25405e-06
7.41053e-06
7.87964e-06
9.1942e-06
1.51138e-05
2.25558e-06
1.01415e-08
3.31398e-09
8.36807e-07
1.43207e-05
1.35235e-05
1.1094e-05
1.01494e-05
1.0167e-05
1.10349e-05
1.21967e-05
1.46303e-05
1.97439e-05
2.8881e-05
4.42053e-05
6.68287e-05
7.4297e-05
7.2492e-05
7.1303e-05
7.09006e-05
7.13152e-05
7.25081e-05
7.43424e-05
7.65543e-05
6.11817e-05
3.07005e-05
1.48214e-05
9.53223e-06
7.92755e-06
7.31184e-06
7.06121e-06
7.29967e-06
7.76582e-06
9.06847e-06
1.51113e-05
2.2562e-06
1.01102e-08
3.33032e-09
8.38938e-07
1.42396e-05
1.35707e-05
1.0812e-05
1.01705e-05
1.02847e-05
1.09825e-05
1.26972e-05
1.52828e-05
1.92706e-05
2.7763e-05
4.53318e-05
6.78832e-05
7.43578e-05
7.24431e-05
7.12202e-05
7.08218e-05
7.12578e-05
7.24792e-05
7.43423e-05
7.65886e-05
6.26335e-05
3.13528e-05
1.49804e-05
9.64221e-06
7.95405e-06
7.50228e-06
7.23893e-06
7.01581e-06
7.61486e-06
9.59327e-06
1.5647e-05
2.22934e-06
1.0117e-08
3.33445e-09
8.40518e-07
1.43164e-05
1.32354e-05
1.11112e-05
1.04268e-05
1.03272e-05
1.06167e-05
1.20937e-05
1.52871e-05
2.01195e-05
2.86963e-05
4.55748e-05
6.78243e-05
7.43763e-05
7.24427e-05
7.12031e-05
7.07971e-05
7.12365e-05
7.24749e-05
7.43792e-05
7.66948e-05
6.15138e-05
3.045e-05
1.46367e-05
9.40205e-06
7.84053e-06
7.40926e-06
7.47846e-06
7.47851e-06
7.74141e-06
9.17723e-06
1.5914e-05
2.30224e-06
1.05047e-08
3.33162e-09
8.39813e-07
1.43583e-05
1.37734e-05
1.1064e-05
9.95266e-06
1.00034e-05
1.09402e-05
1.2429e-05
1.51327e-05
2.04968e-05
2.95635e-05
4.4323e-05
6.60573e-05
7.42979e-05
7.24502e-05
7.12464e-05
7.08418e-05
7.12798e-05
7.25221e-05
7.44371e-05
7.67603e-05
6.20636e-05
3.10231e-05
1.47356e-05
9.5944e-06
7.99221e-06
7.47997e-06
7.32689e-06
7.41711e-06
7.93227e-06
9.53369e-06
1.56369e-05
2.37108e-06
1.06309e-08
3.35943e-09
8.45656e-07
1.45021e-05
1.37327e-05
1.08815e-05
9.98384e-06
1.02887e-05
1.10788e-05
1.24957e-05
1.48495e-05
1.94962e-05
2.81748e-05
4.50531e-05
6.85637e-05
7.4086e-05
7.22255e-05
7.10655e-05
7.07366e-05
7.12274e-05
7.24973e-05
7.4419e-05
7.6751e-05
6.29547e-05
3.09853e-05
1.48122e-05
9.59118e-06
8.07225e-06
7.48112e-06
7.20108e-06
7.4063e-06
8.07807e-06
1.00296e-05
1.64062e-05
2.33227e-06
1.05637e-08
3.36217e-09
8.46708e-07
1.4378e-05
1.33279e-05
1.10854e-05
1.04589e-05
1.02458e-05
1.043e-05
1.19273e-05
1.49158e-05
2.01558e-05
3.0173e-05
4.62682e-05
6.91086e-05
7.41424e-05
7.22327e-05
7.10727e-05
7.07551e-05
7.12687e-05
7.25552e-05
7.44861e-05
7.68175e-05
6.25799e-05
3.05234e-05
1.46275e-05
9.50247e-06
7.89909e-06
7.37779e-06
7.36723e-06
7.69416e-06
8.1782e-06
9.81172e-06
1.60635e-05
2.36272e-06
1.05653e-08
3.35547e-09
8.4459e-07
1.42843e-05
1.38726e-05
1.0743e-05
9.78937e-06
1.00089e-05
1.0866e-05
1.23324e-05
1.49644e-05
1.99262e-05
2.95558e-05
4.69291e-05
6.81263e-05
7.41563e-05
7.22713e-05
7.10852e-05
7.07065e-05
7.11699e-05
7.24122e-05
7.42879e-05
7.65477e-05
6.22889e-05
3.01859e-05
1.44853e-05
9.2828e-06
7.75676e-06
7.56326e-06
7.61948e-06
7.6516e-06
7.97176e-06
9.42364e-06
1.59842e-05
2.35369e-06
1.06242e-08
3.34684e-09
8.41834e-07
1.44449e-05
1.31263e-05
1.09438e-05
1.01127e-05
1.00586e-05
1.07785e-05
1.24734e-05
1.53434e-05
1.98854e-05
2.94471e-05
4.52639e-05
6.72583e-05
7.40511e-05
7.215e-05
7.09979e-05
7.06898e-05
7.11939e-05
7.24568e-05
7.43361e-05
7.65925e-05
6.19929e-05
2.99809e-05
1.44785e-05
9.45161e-06
7.88827e-06
7.42974e-06
7.11878e-06
7.28197e-06
8.15419e-06
1.01101e-05
1.674e-05
2.38563e-06
1.07105e-08
3.3619e-09
8.45189e-07
1.4531e-05
1.31824e-05
1.08351e-05
1.0324e-05
1.03491e-05
1.06366e-05
1.20107e-05
1.49243e-05
2.04252e-05
3.02113e-05
4.63181e-05
6.89882e-05
7.4058e-05
7.21701e-05
7.10195e-05
7.06873e-05
7.11891e-05
7.24609e-05
7.43597e-05
7.66419e-05
6.05546e-05
2.94111e-05
1.44479e-05
9.473e-06
7.97243e-06
7.48262e-06
7.41628e-06
7.66314e-06
8.14104e-06
9.67655e-06
1.63072e-05
2.39403e-06
1.07064e-08
3.34673e-09
8.44709e-07
1.40686e-05
1.32542e-05
1.04931e-05
9.66965e-06
1.01066e-05
1.10095e-05
1.24287e-05
1.51347e-05
2.04341e-05
2.95911e-05
4.56118e-05
6.85045e-05
7.39074e-05
7.21043e-05
7.09929e-05
7.06922e-05
7.1211e-05
7.25013e-05
7.4425e-05
7.67419e-05
6.14919e-05
2.93455e-05
1.42622e-05
9.32922e-06
7.82623e-06
7.53276e-06
7.57957e-06
7.60896e-06
8.31169e-06
9.7939e-06
1.5939e-05
2.40654e-06
1.07876e-08
3.28963e-09
8.25486e-07
1.42724e-05
1.31733e-05
1.06792e-05
1.00321e-05
1.0203e-05
1.11367e-05
1.2537e-05
1.4782e-05
1.97334e-05
2.95372e-05
4.56846e-05
6.82906e-05
7.41798e-05
7.22789e-05
7.11465e-05
7.08637e-05
7.14246e-05
7.27742e-05
7.47702e-05
7.7165e-05
6.07878e-05
2.91719e-05
1.45017e-05
9.59455e-06
8.06806e-06
7.69731e-06
7.68984e-06
7.70233e-06
8.14014e-06
1.00353e-05
1.69265e-05
2.40527e-06
1.08113e-08
3.3071e-09
8.28575e-07
1.42793e-05
1.30708e-05
1.08902e-05
1.01196e-05
9.98872e-06
1.0544e-05
1.21055e-05
1.50864e-05
2.02011e-05
3.00086e-05
4.69904e-05
6.75449e-05
7.40197e-05
7.21645e-05
7.10168e-05
7.07015e-05
7.12336e-05
7.25637e-05
7.4554e-05
7.6957e-05
6.04053e-05
2.92542e-05
1.44482e-05
9.60244e-06
8.12672e-06
7.73238e-06
7.66754e-06
7.88717e-06
8.36173e-06
9.98959e-06
1.6306e-05
2.41203e-06
1.08867e-08
3.2829e-09
8.24923e-07
1.42997e-05
1.30618e-05
1.06104e-05
9.86866e-06
1.00571e-05
1.08229e-05
1.22724e-05
1.49933e-05
1.99954e-05
2.94771e-05
4.65362e-05
6.89112e-05
7.39882e-05
7.21309e-05
7.10062e-05
7.07075e-05
7.12378e-05
7.25514e-05
7.45138e-05
7.68858e-05
6.01419e-05
2.89515e-05
1.44163e-05
9.70401e-06
8.26753e-06
7.87147e-06
7.70671e-06
7.86224e-06
8.36372e-06
9.61991e-06
1.54868e-05
2.41927e-06
1.08467e-08
3.2699e-09
8.24489e-07
1.42772e-05
1.31315e-05
1.09142e-05
9.97477e-06
9.90586e-06
1.08167e-05
1.23449e-05
1.49365e-05
1.98142e-05
2.98362e-05
4.64859e-05
6.92368e-05
7.40596e-05
7.21401e-05
7.09987e-05
7.07088e-05
7.12664e-05
7.26041e-05
7.45907e-05
7.70134e-05
5.96737e-05
2.8718e-05
1.43765e-05
9.78498e-06
8.34195e-06
7.81836e-06
7.66247e-06
7.76455e-06
8.40085e-06
1.02921e-05
1.68985e-05
2.42099e-06
1.08639e-08
3.27139e-09
8.2426e-07
1.42642e-05
1.34871e-05
1.05535e-05
9.72399e-06
1.01523e-05
1.06886e-05
1.22367e-05
1.5166e-05
2.00065e-05
2.93527e-05
4.69682e-05
6.86521e-05
7.39566e-05
7.21164e-05
7.09937e-05
7.07019e-05
7.12552e-05
7.25868e-05
7.46e-05
7.70642e-05
5.98895e-05
2.87757e-05
1.43297e-05
9.73372e-06
8.35225e-06
7.80573e-06
7.75046e-06
8.09571e-06
8.58861e-06
9.86471e-06
1.59976e-05
2.43021e-06
1.09344e-08
3.30571e-09
8.30109e-07
1.43774e-05
1.27477e-05
1.06817e-05
1.00405e-05
9.9366e-06
1.08691e-05
1.24154e-05
1.51956e-05
2.05486e-05
2.99667e-05
4.69075e-05
6.88448e-05
7.4113e-05
7.22522e-05
7.11176e-05
7.08107e-05
7.13411e-05
7.26408e-05
7.45307e-05
7.66671e-05
5.81181e-05
2.80418e-05
1.4058e-05
9.56303e-06
8.38887e-06
8.10757e-06
7.96971e-06
7.95087e-06
8.22566e-06
9.83753e-06
1.61684e-05
2.38599e-06
1.09001e-08
3.29486e-09
8.30804e-07
1.4133e-05
1.2838e-05
1.04087e-05
1.01099e-05
1.00921e-05
1.06495e-05
1.26337e-05
1.56449e-05
2.05073e-05
2.90889e-05
4.58463e-05
6.9737e-05
7.39184e-05
7.20488e-05
7.0955e-05
7.07135e-05
7.12932e-05
7.26318e-05
7.45554e-05
7.67536e-05
5.85555e-05
2.82832e-05
1.43601e-05
9.80489e-06
8.35728e-06
8.06857e-06
7.9341e-06
7.92356e-06
8.68141e-06
1.03098e-05
1.61683e-05
2.4111e-06
1.08656e-08
3.27313e-09
8.25751e-07
1.42573e-05
1.30276e-05
1.06636e-05
9.79374e-06
1.00735e-05
1.09369e-05
1.21279e-05
1.5023e-05
2.17508e-05
3.18286e-05
4.86403e-05
6.94756e-05
7.37972e-05
7.19868e-05
7.09243e-05
7.06915e-05
7.12864e-05
7.26475e-05
7.46117e-05
7.68545e-05
5.99424e-05
2.82299e-05
1.40969e-05
9.61385e-06
8.2775e-06
8.07675e-06
8.39039e-06
8.56163e-06
8.53079e-06
1.00423e-05
1.62469e-05
2.38906e-06
1.09489e-08
3.30991e-09
8.31323e-07
1.45425e-05
1.3184e-05
1.0645e-05
9.86058e-06
1.00437e-05
1.07353e-05
1.21964e-05
1.50366e-05
2.0279e-05
3.10865e-05
4.86259e-05
7.04115e-05
7.37205e-05
7.19326e-05
7.09045e-05
7.07196e-05