/*--------------------------------*- C++ -*----------------------------------*\
  =========                 |
  \\      /  F ield         | OpenFOAM: The Open Source CFD Toolbox
   \\    /   O peration     | Website:  https://openfoam.org
    \\  /    A nd           | Version:  13
     \\/     M anipulation  |
\*---------------------------------------------------------------------------*/
FoamFile
{
    format      ascii;
    class       volScalarField;
    location    "8";
    object      nut;
}
// * * * * * * * * * * * * * * * * * * * * * * * * * * * * * * * * * * * * * //

dimensions      [0 2 -1 0 0 0 0];

internalField   nonuniform List<scalar> 
78750
(
3.64636e-10
8.13057e-08
1.54858e-06
2.76368e-06
3.6785e-06
4.55511e-06
5.26249e-06
6.15359e-06
6.4315e-06
6.79676e-06
8.61762e-06
9.90268e-06
1.03966e-05
1.04787e-05
1.02165e-05
9.16363e-06
8.3976e-06
8.40296e-06
8.83872e-06
8.5151e-06
7.979e-06
7.41421e-06
6.85945e-06
6.32776e-06
5.83985e-06
5.40125e-06
5.02655e-06
4.71418e-06
4.44811e-06
4.02546e-06
3.60389e-06
3.00193e-06
2.50227e-06
5.91431e-07
4.2119e-09
6.86489e-10
1.75008e-07
2.93033e-06
8.14176e-06
1.01332e-05
8.37859e-06
8.72798e-06
1.00867e-05
1.07076e-05
1.15244e-05
1.1474e-05
1.50974e-05
3.94152e-05
5.17567e-05
3.73848e-05
2.87469e-05
2.59079e-05
2.43454e-05
2.29442e-05
2.21606e-05
2.14107e-05
2.15874e-05
2.24607e-05
2.51777e-05
3.28927e-05
4.81552e-05
3.92987e-05
2.26917e-05
1.37345e-05
9.17855e-06
6.71285e-06
5.25682e-06
4.44777e-06
7.82639e-07
4.43938e-09
1.5964e-09
4.06499e-07
7.75075e-06
1.11644e-05
9.4953e-06
8.71145e-06
8.12298e-06
7.88887e-06
7.8379e-06
8.468e-06
1.24517e-05
2.84181e-05
5.47375e-05
4.98603e-05
4.21861e-05
3.90041e-05
3.72951e-05
3.66227e-05
3.63314e-05
3.61259e-05
3.71709e-05
3.99631e-05
4.54821e-05
5.23027e-05
4.73953e-05
3.16436e-05
2.00731e-05
1.34217e-05
1.03782e-05
7.71644e-06
5.52395e-06
4.4824e-06
4.31476e-06
7.32944e-07
3.82788e-09
1.79896e-09
4.60302e-07
8.07357e-06
1.17134e-05
8.65297e-06
7.43065e-06
7.1127e-06
7.12162e-06
7.35652e-06
7.9963e-06
1.0109e-05
1.74153e-05
3.56253e-05
5.48869e-05
5.40546e-05
5.32648e-05
5.25503e-05
5.19235e-05
5.13552e-05
5.08203e-05
5.03363e-05
4.99807e-05
4.99254e-05
5.02828e-05
4.14986e-05
2.37461e-05
1.49066e-05
1.00134e-05
7.86779e-06
6.08643e-06
4.23272e-06
3.48866e-06
3.77315e-06
6.73548e-07
3.15383e-09
1.96704e-09
5.00488e-07
9.80961e-06
1.04354e-05
8.18902e-06
7.31947e-06
7.05338e-06
7.14588e-06
7.66361e-06
8.98261e-06
1.20859e-05
1.92706e-05
3.48922e-05
5.30596e-05
5.3749e-05
5.26471e-05
5.16086e-05
5.06789e-05
4.98773e-05
4.92619e-05
4.89178e-05
4.89676e-05
4.963e-05
4.03021e-05
2.53854e-05
2.02969e-05
1.24399e-05
7.91731e-06
6.10615e-06
4.69996e-06
3.77517e-06
3.42062e-06
3.87329e-06
6.7813e-07
3.18328e-09
2.04658e-09
5.20295e-07
9.5643e-06
1.03974e-05
8.32508e-06
7.49951e-06
7.29976e-06
7.39737e-06
7.77147e-06
8.80499e-06
1.15237e-05
1.75842e-05
3.21723e-05
5.31651e-05
5.26773e-05
5.11559e-05
4.97916e-05
4.8658e-05
4.77977e-05
4.72927e-05
4.72686e-05
4.77865e-05
4.91293e-05
3.61432e-05
2.20835e-05
1.71986e-05
1.16212e-05
7.51607e-06
5.86833e-06
4.67405e-06
3.69516e-06
3.14278e-06
3.36487e-06
6.36057e-07
3.01096e-09
2.07371e-09
5.2628e-07
9.69447e-06
9.95459e-06
8.04334e-06
7.39016e-06
7.3224e-06
7.57115e-06
8.1673e-06
9.51096e-06
1.30802e-05
1.9201e-05
3.33702e-05
5.38085e-05
5.22143e-05
5.06071e-05
4.91975e-05
4.80775e-05
4.73134e-05
4.69608e-05
4.71079e-05
4.79394e-05
4.95227e-05
3.97657e-05
2.24515e-05
1.5735e-05
1.10032e-05
7.14982e-06
5.09783e-06
3.94608e-06
3.16317e-06
2.90196e-06
3.59132e-06
6.16417e-07
2.73955e-09
2.14731e-09
5.45569e-07
9.80373e-06
1.01271e-05
8.25923e-06
7.59383e-06
7.51044e-06
7.74361e-06
8.28207e-06
9.3619e-06
1.17499e-05
1.76488e-05
3.08101e-05
5.18483e-05
5.20044e-05
5.04394e-05
4.90528e-05
4.79744e-05
4.72948e-05
4.71099e-05
4.74729e-05
4.85547e-05
5.02666e-05
3.79378e-05
2.0284e-05
1.29555e-05
9.78464e-06
6.60577e-06
4.44847e-06
3.54691e-06
3.15581e-06
3.12371e-06
3.98099e-06
6.19955e-07
2.78204e-09
2.16688e-09
5.49651e-07
9.74236e-06
9.96884e-06
8.15554e-06
7.5713e-06
7.55993e-06
7.8644e-06
8.50148e-06
9.72871e-06
1.23444e-05
1.83399e-05
3.10563e-05
5.09655e-05
5.22686e-05
5.06834e-05
4.93221e-05
4.83212e-05
4.77773e-05
4.77819e-05
4.83634e-05
4.96998e-05
5.12179e-05
3.30025e-05
1.77809e-05
1.21382e-05
9.23299e-06
6.21538e-06
4.48734e-06
3.73824e-06
3.25513e-06
3.09165e-06
3.83107e-06
6.39423e-07
2.96715e-09
2.21303e-09
5.60901e-07
9.86074e-06
9.94036e-06
8.20462e-06
7.67006e-06
7.68804e-06
8.01016e-06
8.64596e-06
9.85306e-06
1.23151e-05
1.77702e-05
2.9998e-05
4.8618e-05
5.24306e-05
5.08806e-05
4.95776e-05
4.86646e-05
4.82509e-05
4.84098e-05
4.9255e-05
5.07775e-05
4.79037e-05
3.1061e-05
1.68733e-05
1.09634e-05
8.63322e-06
6.14242e-06
4.38225e-06
3.57151e-06
3.13466e-06
3.07324e-06
4.15e-06
6.94583e-07
3.24e-09
2.22829e-09
5.64285e-07
9.84771e-06
9.85129e-06
8.18812e-06
7.70991e-06
7.76779e-06
8.13792e-06
8.78271e-06
9.9621e-06
1.23595e-05
1.76039e-05
2.89776e-05
4.73704e-05
5.2448e-05
5.09342e-05
4.96695e-05
4.88255e-05
4.85046e-05
4.87554e-05
4.96955e-05
5.12893e-05
4.74947e-05
3.11648e-05
1.72586e-05
1.00997e-05
8.53848e-06
6.3612e-06
4.43042e-06
3.561e-06
3.05516e-06
3.07655e-06
4.14046e-06
7.42546e-07
3.38143e-09
2.25346e-09
5.70137e-07
9.78994e-06
9.94066e-06
8.24282e-06
7.75331e-06
7.8044e-06
8.08509e-06
8.70376e-06
9.86681e-06
1.22653e-05
1.76247e-05
2.95598e-05
4.81527e-05
5.24575e-05
5.09151e-05
4.96858e-05
4.88974e-05
4.86366e-05
4.89319e-05
4.98847e-05
5.14444e-05
5.24454e-05
3.52825e-05
1.79609e-05
1.00535e-05
8.43726e-06
6.36726e-06
4.51625e-06
3.59396e-06
3.03841e-06
3.19974e-06
4.8626e-06
7.71413e-07
3.44486e-09
2.27609e-09
5.75388e-07
9.79313e-06
9.8998e-06
8.20107e-06
7.6802e-06
7.67567e-06
8.01232e-06
8.76752e-06
1.01242e-05
1.27138e-05
1.81707e-05
2.98022e-05
4.81255e-05
5.23609e-05
5.08628e-05
4.97043e-05
4.90147e-05
4.88632e-05
4.92631e-05
5.02776e-05
5.17861e-05
5.3516e-05
3.61279e-05
1.76987e-05
9.38078e-06
7.35794e-06
5.48018e-06
4.14616e-06
3.64799e-06
3.38825e-06
3.50435e-06
5.38781e-06
8.76582e-07
3.92856e-09
2.3134e-09
5.84641e-07
9.8748e-06
9.72399e-06
8.12786e-06
7.74288e-06
7.69691e-06
8.05255e-06
8.80151e-06
1.02003e-05
1.29034e-05
1.86261e-05
2.90693e-05
4.6205e-05
5.24656e-05
5.0949e-05
4.98284e-05
4.92087e-05
4.91442e-05
4.96407e-05
5.07477e-05
5.23347e-05
5.21613e-05
3.30083e-05
1.59897e-05
8.79322e-06
6.85664e-06
5.33729e-06
4.20919e-06
3.75002e-06
3.50376e-06
3.65547e-06
5.86405e-06
9.55961e-07
4.29057e-09
2.33894e-09
5.90792e-07
9.95724e-06
9.99348e-06
8.14602e-06
7.48066e-06
7.49998e-06
7.97778e-06
8.90563e-06
1.025e-05
1.28078e-05
1.84364e-05
2.86041e-05
4.59232e-05
5.24227e-05
5.09586e-05
4.98689e-05
4.92883e-05
4.92672e-05
4.98043e-05
5.09373e-05
5.25409e-05
5.1979e-05
3.22084e-05
1.52777e-05
8.47707e-06
6.68582e-06
5.19217e-06
4.05197e-06
3.58605e-06
3.41793e-06
4.1704e-06
7.37878e-06
1.01403e-06
4.54612e-09
2.37471e-09
5.9938e-07
1.01088e-05
9.83248e-06
8.22387e-06
7.66386e-06
7.62054e-06
7.9233e-06
8.62644e-06
1.00439e-05
1.2856e-05
1.8382e-05
2.849e-05
4.53574e-05
5.23775e-05
5.09388e-05
4.9894e-05
4.93645e-05
4.94003e-05
5.00056e-05
5.11689e-05
5.27683e-05
5.23023e-05
3.14442e-05
1.40116e-05
7.8579e-06
5.93693e-06
4.8438e-06
4.16425e-06
3.82398e-06
3.82211e-06
4.55504e-06
7.61797e-06
1.06723e-06
4.79504e-09
2.38111e-09
6.01154e-07
1.00444e-05
1.02383e-05
8.21508e-06
7.43736e-06
7.45854e-06
7.8915e-06
8.72166e-06
1.01949e-05
1.27805e-05
1.81115e-05
2.83244e-05
4.50543e-05
5.23744e-05
5.09708e-05
4.99608e-05
4.94658e-05
4.95328e-05
5.01719e-05
5.13393e-05
5.29121e-05
5.04633e-05
2.95609e-05
1.31654e-05
7.63675e-06
5.80287e-06
4.75991e-06
4.16095e-06
3.79328e-06
3.90042e-06
4.7257e-06
7.92636e-06
1.10907e-06
4.98539e-09
2.38916e-09
6.03469e-07
1.01236e-05
9.93865e-06
8.14214e-06
7.53141e-06
7.53772e-06
7.84792e-06
8.5404e-06
1.00143e-05
1.29286e-05
1.90052e-05
2.93848e-05
4.49583e-05
5.2466e-05
5.10286e-05
5.0032e-05
4.95658e-05
4.96611e-05
5.03231e-05
5.14933e-05
5.30384e-05
5.03496e-05
2.88044e-05
1.25547e-05
7.05113e-06
5.15435e-06
4.34785e-06
4.08226e-06
4.07498e-06
4.18675e-06
5.09991e-06
8.38212e-06
1.15028e-06
5.17016e-09
2.40462e-09
6.07542e-07
1.0056e-05
1.00387e-05
8.15177e-06
7.4796e-06
7.41552e-06
7.82269e-06
8.6965e-06
1.01399e-05
1.2712e-05
1.83714e-05
2.85594e-05
4.49874e-05
5.24247e-05
5.10708e-05
5.01153e-05
4.96736e-05
4.97821e-05
5.04405e-05
5.15786e-05
5.30339e-05
4.81382e-05
2.65287e-05
1.18548e-05
6.82544e-06
5.17957e-06
4.41849e-06
4.08088e-06
4.08819e-06
4.25173e-06
5.0063e-06
8.16746e-06
1.16577e-06
5.26329e-09
2.41137e-09
6.08934e-07
1.00103e-05
9.80574e-06
8.03922e-06
7.68443e-06
7.56483e-06
7.71902e-06
8.44505e-06
9.74778e-06
1.26172e-05
1.87685e-05
2.94318e-05
4.52888e-05
5.24116e-05
5.10815e-05
5.01556e-05
4.97532e-05
4.99076e-05
5.06096e-05
5.17801e-05
5.32521e-05
4.74337e-05
2.61889e-05
1.16961e-05
6.77372e-06
5.16439e-06
4.44985e-06
4.07143e-06
4.02433e-06
4.23897e-06
4.99546e-06
8.6826e-06
1.23134e-06
5.52169e-09
2.4159e-09
6.09824e-07
1.00332e-05
1.01131e-05
8.2134e-06
7.28408e-06
7.38498e-06
7.83046e-06
8.49132e-06
9.98322e-06
1.27448e-05
1.83328e-05
2.86294e-05
4.47788e-05
5.24312e-05
5.11455e-05
5.02305e-05
4.98332e-05
4.99984e-05
5.07114e-05
5.18965e-05
5.34218e-05
4.64108e-05
2.50862e-05
1.11022e-05
6.38895e-06
4.89156e-06
4.38595e-06
4.25928e-06
4.14688e-06
4.27538e-06
5.143e-06
8.35367e-06
1.25367e-06
5.68705e-09
2.4333e-09
6.15211e-07
1.0119e-05
9.58935e-06
8.06577e-06
7.50857e-06
7.35718e-06
7.78513e-06
8.62883e-06
1.01307e-05
1.29226e-05
1.87347e-05
2.90481e-05
4.42522e-05
5.26474e-05
5.12664e-05
5.03216e-05
4.98991e-05
5.00445e-05
5.07467e-05
5.1917e-05
5.33793e-05
4.53614e-05
2.47823e-05
1.12307e-05
6.6285e-06
5.08867e-06
4.41299e-06
4.16292e-06
4.07445e-06
4.25662e-06
5.05272e-06
8.70292e-06
1.28085e-06
5.8043e-09
2.41644e-09
6.09502e-07
1.00556e-05
9.80975e-06
8.0547e-06
7.5683e-06
7.60637e-06
7.79893e-06
8.43457e-06
9.79053e-06
1.26305e-05
1.88164e-05
2.87504e-05
4.45738e-05
5.24891e-05
5.12042e-05
5.02941e-05
4.99e-05
5.00627e-05
5.0782e-05
5.19779e-05
5.34778e-05
4.58477e-05
2.46104e-05
1.13119e-05
6.69318e-06
5.08834e-06
4.37044e-06
3.97036e-06
3.97321e-06
4.31551e-06
5.28969e-06
9.20884e-06
1.29283e-06
5.83423e-09
2.41812e-09
6.10309e-07
9.97905e-06
1.00536e-05
8.13889e-06
7.27295e-06
7.18655e-06
7.70335e-06
8.56776e-06
1.01155e-05
1.30565e-05
1.91306e-05
2.93094e-05
4.43734e-05
5.2664e-05
5.12941e-05
5.0371e-05
4.99933e-05
5.01837e-05
5.09257e-05
5.21251e-05
5.35831e-05
4.49014e-05
2.34583e-05
1.07336e-05
6.39484e-06
4.97711e-06
4.45014e-06
4.27423e-06
4.21758e-06
4.3695e-06
5.2003e-06
8.91891e-06
1.32337e-06
5.98281e-09
2.42524e-09
6.1238e-07
1.00567e-05
9.7142e-06
8.02609e-06
7.42984e-06
7.30417e-06
7.72168e-06
8.56019e-06
1.00428e-05
1.28308e-05
1.81166e-05
2.86575e-05
4.42984e-05
5.25559e-05
5.12626e-05
5.03584e-05
4.99831e-05
5.01673e-05
5.09099e-05
5.2135e-05
5.36735e-05
4.33494e-05
2.30465e-05
1.08276e-05
6.63359e-06
5.15153e-06
4.47324e-06
4.15592e-06
4.11191e-06
4.40399e-06
5.33303e-06
9.01739e-06
1.33498e-06
6.07508e-09
2.42444e-09
6.12249e-07
9.98729e-06
9.86721e-06
7.87501e-06
7.36269e-06
7.49768e-06
7.75419e-06
8.50096e-06
9.90482e-06
1.27513e-05
1.81033e-05
2.83653e-05
4.4193e-05
5.24846e-05
5.12523e-05
5.03655e-05
4.99854e-05
5.01659e-05
5.09023e-05
5.2119e-05
5.36477e-05
4.3694e-05
2.33226e-05
1.08111e-05
6.6127e-06
5.20471e-06
4.5421e-06
4.11472e-06
4.15705e-06
4.62046e-06
5.64093e-06
9.06015e-06
1.35512e-06
6.16393e-09
2.42805e-09
6.12587e-07
1.00889e-05
9.66944e-06
7.96741e-06
7.40631e-06
7.31362e-06
7.64032e-06
8.47755e-06
1.01167e-05
1.3186e-05
1.91166e-05
2.94367e-05
4.47944e-05
5.26601e-05
5.12984e-05
5.03736e-05
4.99866e-05
5.0165e-05
5.08974e-05
5.21111e-05
5.36456e-05
4.5465e-05
2.39224e-05
1.07511e-05
6.42473e-06
4.95754e-06
4.43302e-06
4.36357e-06
4.39283e-06
4.64348e-06
5.54502e-06
8.9537e-06
1.36351e-06
6.18011e-09
2.42011e-09
6.10508e-07
9.90064e-06
9.58601e-06
7.76804e-06
7.2656e-06
7.30021e-06
7.72411e-06
8.68677e-06
1.05797e-05
1.40842e-05
1.93443e-05
2.90855e-05
4.38173e-05
5.26398e-05
5.12872e-05
5.03714e-05
4.99827e-05
5.01637e-05
5.08982e-05
5.211e-05
5.36363e-05
4.51811e-05
2.37766e-05
1.08278e-05
6.48034e-06
5.06215e-06
4.50145e-06
4.28749e-06
4.36974e-06
4.44225e-06
5.33241e-06
9.82172e-06
1.40872e-06
6.41117e-09
2.40657e-09
6.07299e-07
1.00389e-05
9.99687e-06
8.25416e-06
7.33884e-06
7.08518e-06
7.55084e-06
8.49749e-06
1.00581e-05
1.38709e-05
1.94878e-05
2.97737e-05
4.53073e-05
5.26038e-05
5.12591e-05
5.03635e-05
4.99945e-05
5.01932e-05
5.09411e-05
5.21465e-05
5.36181e-05
4.36708e-05
2.21818e-05
1.04333e-05
6.47823e-06
5.10791e-06
4.5616e-06
4.34954e-06
4.22757e-06
4.60159e-06
5.8035e-06
9.58683e-06
1.45381e-06
6.56625e-09
2.41524e-09
6.09854e-07
9.97608e-06
9.87275e-06
7.895e-06
7.26176e-06
7.39588e-06
7.68708e-06
8.30376e-06
9.98712e-06
1.30051e-05
1.8687e-05
2.91105e-05
4.47108e-05
5.25385e-05
5.12516e-05
5.03772e-05
5.00461e-05
5.02721e-05
5.10383e-05
5.22625e-05
5.37463e-05
4.26718e-05
2.24333e-05
1.0443e-05
6.40921e-06
5.19747e-06
4.65042e-06
4.28018e-06
4.37423e-06
4.78821e-06
5.63565e-06
9.61333e-06
1.46218e-06
6.5816e-09
2.42246e-09
6.12381e-07
1.0035e-05
9.47529e-06
7.90188e-06
7.38812e-06
7.27855e-06
7.6123e-06
8.56425e-06
1.02727e-05
1.32666e-05
1.87232e-05
2.93135e-05
4.45895e-05
5.26517e-05
5.13073e-05
5.03934e-05
5.00222e-05
5.02243e-05
5.09708e-05
5.21594e-05
5.36316e-05
4.43437e-05
2.2709e-05
1.04763e-05
6.5215e-06
5.20854e-06
4.62228e-06
4.31382e-06
4.41453e-06
4.64773e-06
5.6604e-06
1.04205e-05
1.50842e-06
6.79847e-09
2.4102e-09
6.08449e-07
1.00548e-05
1.00758e-05
8.06277e-06
7.26904e-06
7.15599e-06
7.48813e-06
8.54368e-06
1.02488e-05
1.34346e-05
1.89066e-05
2.9309e-05
4.5367e-05
5.25135e-05
5.1224e-05
5.03477e-05
5.00054e-05
5.02195e-05
5.09812e-05
5.22166e-05
5.37807e-05
4.53475e-05
2.3565e-05
1.04808e-05
6.34124e-06
4.99456e-06
4.62343e-06
4.6672e-06
4.57782e-06
4.95561e-06
6.15058e-06
1.00101e-05
1.51335e-06
6.83552e-09
2.40972e-09
6.08817e-07
9.81842e-06
9.49135e-06
7.70784e-06
7.36163e-06
7.29376e-06
7.81094e-06
8.54678e-06
1.02494e-05
1.40515e-05
1.94603e-05
2.97938e-05
4.51105e-05
5.25502e-05
5.12453e-05
5.03877e-05
5.00701e-05
5.03171e-05
5.10976e-05
5.23041e-05
5.37318e-05
4.18412e-05
2.09557e-05
9.99011e-06
6.26986e-06
5.22035e-06
4.8286e-06
4.66602e-06
4.63098e-06
4.82536e-06
5.95304e-06
1.01527e-05
1.50653e-06
6.86797e-09
2.41982e-09
6.10991e-07
1.01888e-05
9.37321e-06
7.92718e-06
7.31707e-06
7.30851e-06
7.62603e-06
8.56703e-06
1.02572e-05
1.39712e-05
1.982e-05
2.9553e-05
4.4376e-05
5.25045e-05
5.12002e-05
5.03406e-05
5.0019e-05
5.02505e-05
5.10032e-05
5.21885e-05
5.36101e-05
4.29552e-05
2.20494e-05
1.02214e-05
6.39685e-06
5.12453e-06
4.79239e-06
4.62929e-06
4.59605e-06
4.87642e-06
5.88293e-06
1.04235e-05
1.58822e-06
7.14361e-09
2.41483e-09
6.0953e-07
1.00905e-05
9.6975e-06
8.09157e-06
7.42907e-06
7.10885e-06
7.49528e-06
8.48218e-06
1.0158e-05
1.31312e-05
1.87247e-05
2.91544e-05
4.52251e-05
5.23781e-05
5.11388e-05
5.03034e-05
4.99925e-05
5.02391e-05
5.10021e-05
5.21876e-05
5.36038e-05
4.37186e-05
2.2054e-05
1.02668e-05
6.40455e-06
5.18338e-06
4.57276e-06
4.48182e-06
4.77784e-06
5.19662e-06
6.41569e-06
1.07249e-05
1.58658e-06
7.14927e-09
2.41512e-09
6.0883e-07
1.01695e-05
9.78457e-06
7.89636e-06
7.184e-06
7.33729e-06
7.76013e-06
8.67174e-06
1.01689e-05
1.27933e-05
1.84262e-05
2.95067e-05
4.52506e-05
5.24595e-05
5.11819e-05
5.0322e-05
5.00011e-05
5.02409e-05
5.10115e-05
5.22136e-05
5.36558e-05
4.27636e-05
2.1359e-05
9.91183e-06
6.14351e-06
5.05001e-06
4.88147e-06
4.78245e-06
4.77087e-06
5.11312e-06
6.1835e-06
1.0374e-05
1.57171e-06
7.13779e-09
2.43095e-09
6.11734e-07
1.01656e-05
9.62757e-06
7.80212e-06
7.25933e-06
7.32764e-06
7.68005e-06
8.42972e-06
1.0119e-05
1.33787e-05
1.96102e-05
3.02765e-05
4.5348e-05
5.24999e-05
5.12245e-05
5.03787e-05
5.00634e-05
5.03078e-05
5.10892e-05
5.23137e-05
5.3794e-05
4.26884e-05
2.14982e-05
1.01523e-05
6.36051e-06
5.16038e-06
4.74378e-06
4.60375e-06
4.79863e-06
5.05684e-06
6.30086e-06
1.12587e-05
1.63077e-06
7.2875e-09
2.41189e-09
6.07558e-07
9.96136e-06
9.56392e-06
7.96305e-06
7.41593e-06
7.34397e-06
7.63437e-06
8.34343e-06
1.00437e-05
1.3342e-05
1.91767e-05
2.99774e-05
4.53884e-05
5.24697e-05
5.11867e-05
5.03212e-05
5.00095e-05
5.02587e-05
5.10361e-05
5.22364e-05
5.36651e-05
4.30007e-05
2.13794e-05
9.99241e-06
6.31134e-06
5.0975e-06
4.6674e-06
4.67432e-06
4.85705e-06
5.4381e-06
6.65848e-06
1.07148e-05
1.59175e-06
7.23342e-09
2.3999e-09
6.05104e-07
9.91252e-06
9.53929e-06
7.70063e-06
7.18458e-06
7.21785e-06
7.59163e-06
8.7041e-06
1.04019e-05
1.33497e-05
1.89695e-05
2.95313e-05
4.4278e-05
5.24265e-05
5.11604e-05
5.03195e-05
5.0012e-05
5.02565e-05
5.10345e-05
5.22448e-05
5.36917e-05
4.21658e-05
2.09335e-05
9.88746e-06
6.23257e-06
5.21885e-06
4.87784e-06
4.70273e-06
4.88238e-06
5.25362e-06
6.33507e-06
1.10648e-05
1.61008e-06
7.20434e-09
2.40598e-09
6.05387e-07
1.00174e-05
9.59882e-06
7.83986e-06
7.15952e-06
7.18279e-06
7.73754e-06
8.57165e-06
1.03055e-05
1.42201e-05
2.01084e-05
3.06579e-05
4.63843e-05
5.24582e-05
5.11732e-05
5.03493e-05
5.00673e-05
5.03408e-05
5.11363e-05
5.23508e-05
5.37882e-05
4.27539e-05
2.12294e-05
1.00053e-05
6.31087e-06
5.19155e-06
4.8279e-06
4.82294e-06
4.89462e-06
5.16167e-06
6.27769e-06
1.07832e-05
1.63283e-06
7.30526e-09
2.40293e-09
6.04159e-07
9.84754e-06
9.7404e-06
7.63806e-06
7.11293e-06
7.30615e-06
7.68233e-06
8.33025e-06
9.99949e-06
1.33084e-05
1.92126e-05
2.97968e-05
4.56346e-05
5.24226e-05
5.11657e-05
5.03045e-05
4.99859e-05
5.02483e-05
5.10644e-05
5.23297e-05
5.38353e-05
4.18214e-05
2.07639e-05
9.93404e-06
6.31376e-06
5.22408e-06
4.91783e-06
4.68112e-06
4.84565e-06
5.40682e-06
6.54686e-06
1.10327e-05
1.60784e-06
7.28554e-09
2.38863e-09
6.03545e-07
9.96254e-06
9.48822e-06
7.99204e-06
7.26426e-06
6.98419e-06
7.52919e-06
8.60962e-06
1.04463e-05
1.37364e-05
1.96681e-05
2.97141e-05
4.45449e-05
5.24682e-05
5.11125e-05
5.02364e-05
4.99405e-05
5.02199e-05
5.10374e-05
5.22878e-05
5.37927e-05
4.2174e-05
2.09781e-05
1.00003e-05
6.37492e-06
5.26102e-06
4.82106e-06
4.78097e-06
4.95389e-06
5.16136e-06
6.43058e-06
1.06955e-05
1.59911e-06
7.25892e-09
2.39958e-09
6.04863e-07
1.00258e-05
9.4958e-06
7.69158e-06
7.22595e-06
7.38771e-06
7.59262e-06
8.55141e-06
1.04376e-05
1.3251e-05
1.88092e-05
2.94698e-05
4.53993e-05
5.22991e-05
5.10336e-05
5.02044e-05
4.99069e-05
5.01849e-05
5.10054e-05
5.22722e-05
5.37801e-05
4.31106e-05
2.11018e-05
9.90066e-06
6.28292e-06
5.12508e-06
4.87046e-06
4.87747e-06
4.95055e-06
5.41993e-06
6.34079e-06
1.04352e-05
1.60274e-06
7.27015e-09
2.40478e-09
6.05675e-07
9.92204e-06
9.83948e-06
7.61198e-06
7.03041e-06
7.22151e-06
7.66957e-06
8.51594e-06
1.02627e-05
1.37066e-05
1.93292e-05
3.03132e-05
4.50405e-05
5.23218e-05
5.10539e-05
5.02237e-05
4.99383e-05
5.02238e-05
5.1056e-05
5.23285e-05
5.38424e-05
4.15955e-05
2.08375e-05
1.00555e-05
6.45357e-06
5.30499e-06
4.90764e-06
4.7307e-06
4.91466e-06
5.27337e-06
6.38156e-06
1.084e-05
1.60871e-06
7.25606e-09
2.38911e-09
6.03358e-07
9.97151e-06
9.26321e-06
7.84357e-06
7.34649e-06
7.23219e-06
7.54248e-06
8.46048e-06
1.02525e-05
1.42767e-05
2.03959e-05
3.1278e-05
4.6195e-05
5.24618e-05
5.11114e-05
5.02455e-05
4.99488e-05
5.02244e-05
5.10326e-05
5.22765e-05
5.37677e-05
4.21188e-05
2.09395e-05
1.00458e-05
6.4562e-06
5.3567e-06
4.94229e-06
4.74359e-06
4.83613e-06
5.27716e-06
6.3637e-06
1.11425e-05
1.59054e-06
7.25321e-09
2.39094e-09
6.03313e-07
1.00622e-05
9.57005e-06
7.81637e-06
7.20964e-06
7.28425e-06
7.7608e-06
8.45809e-06
1.00759e-05
1.3353e-05
1.905e-05
3.01279e-05
4.56267e-05
5.23087e-05
5.10484e-05
5.02144e-05
4.99177e-05
5.01961e-05
5.10108e-05
5.22583e-05
5.37575e-05
4.29002e-05
2.0919e-05
9.85719e-06
6.34746e-06
5.23939e-06
4.90227e-06
4.92849e-06
5.08201e-06
5.36843e-06
6.41604e-06
1.0763e-05
1.64093e-06
7.36023e-09
2.38817e-09
6.0317e-07
9.91155e-06
9.84584e-06
7.71199e-06
7.02067e-06
7.16843e-06
7.62074e-06
8.52203e-06
1.03233e-05
1.41071e-05
1.93637e-05
2.97594e-05
4.52962e-05
5.2266e-05
5.10429e-05
5.02224e-05
4.99401e-05
5.02243e-05
5.10569e-05
5.23327e-05
5.38641e-05
4.19106e-05
2.07965e-05
1.00009e-05
6.48163e-06
5.41834e-06
5.00935e-06
4.87873e-06
4.95203e-06
5.35219e-06
6.53451e-06
1.10582e-05
1.60811e-06
7.32722e-09
2.38241e-09
6.00631e-07
1.00392e-05
9.29812e-06
7.75395e-06
7.25801e-06
7.17666e-06
7.6298e-06
8.7641e-06
1.05302e-05
1.33725e-05
1.95627e-05
2.98455e-05
4.48429e-05
5.23305e-05
5.10434e-05
5.02272e-05
4.99483e-05
5.0236e-05
5.10822e-05
5.23906e-05
5.39783e-05
4.22489e-05
2.08913e-05
1.0103e-05
6.55133e-06
5.36106e-06
5.03789e-06
4.87024e-06
4.83795e-06
5.33181e-06
6.7059e-06
1.13978e-05
1.6287e-06
7.3126e-09
2.38434e-09
6.01043e-07
1.00951e-05
9.41326e-06
7.95803e-06
7.3975e-06
7.22199e-06
7.50117e-06
8.28057e-06
1.01572e-05
1.35898e-05
1.99539e-05
3.05502e-05
4.59726e-05
5.22529e-05
5.09962e-05
5.02029e-05
4.9967e-05
5.02868e-05
5.11331e-05
5.24108e-05
5.39414e-05
4.27687e-05
2.06022e-05
9.81003e-06
6.35992e-06
5.35621e-06
5.04935e-06
5.09065e-06
5.23981e-06
5.47317e-06
6.58585e-06
1.10604e-05
1.63493e-06
7.32783e-09
2.38491e-09
6.01732e-07
1.00341e-05
9.71499e-06
7.7257e-06
7.13258e-06
7.2267e-06
7.61577e-06
8.55682e-06
1.02881e-05
1.35125e-05
1.98882e-05
3.04151e-05
4.56293e-05
5.22611e-05
5.09859e-05
5.01676e-05
4.99115e-05
5.02325e-05
5.10932e-05
5.24013e-05
5.39691e-05
4.16596e-05
2.05794e-05
1.00087e-05
6.5625e-06
5.49905e-06
5.10066e-06
5.06189e-06
5.07873e-06
5.48646e-06
6.76891e-06
1.14364e-05
1.61472e-06
7.32936e-09
2.38887e-09
6.00354e-07
9.87013e-06
9.29336e-06
7.72957e-06
7.19559e-06
7.2043e-06
7.68882e-06
8.68689e-06
1.02603e-05
1.33716e-05
1.99471e-05
3.1037e-05
4.63111e-05
5.23769e-05
5.10162e-05
5.0154e-05
4.98778e-05
5.0186e-05
5.10413e-05
5.23256e-05
5.38799e-05
4.23135e-05
2.0839e-05
1.0117e-05
6.55795e-06
5.42974e-06
5.15406e-06
4.93984e-06
5.03859e-06
5.60964e-06
6.82901e-06
1.14699e-05
1.64292e-06
7.37846e-09
2.36911e-09
5.97218e-07
9.85995e-06
9.62987e-06
7.92278e-06
7.28072e-06
7.1626e-06
7.48875e-06
8.39337e-06
1.04824e-05
1.45477e-05
2.05824e-05
3.13226e-05
4.63739e-05
5.23719e-05
5.10184e-05
5.01666e-05
4.98931e-05
5.02021e-05
5.10513e-05
5.23422e-05
5.3903e-05
4.22515e-05
2.03812e-05
9.79745e-06
6.4427e-06
5.43909e-06
5.11247e-06
5.22824e-06
5.40847e-06
5.60616e-06
6.63748e-06
1.12161e-05
1.64384e-06
7.50084e-09
2.36809e-09
5.97276e-07
1.00182e-05
9.81317e-06
7.79819e-06
7.13293e-06
7.18723e-06
7.65059e-06
8.58235e-06
1.02001e-05
1.45286e-05
2.05897e-05
3.05027e-05
4.55973e-05
5.23165e-05
5.10243e-05
5.02e-05
4.99357e-05
5.0246e-05
5.11018e-05
5.24059e-05
5.39878e-05
4.08067e-05
1.99402e-05
9.87012e-06
6.60635e-06
5.57495e-06
5.24346e-06
5.11234e-06
5.17552e-06
5.59121e-06
6.7667e-06
1.10222e-05
1.68106e-06
7.5442e-09
2.38642e-09
6.00669e-07
1.00066e-05
9.64088e-06
7.7438e-06
7.13525e-06
7.21093e-06
7.66312e-06
8.72294e-06
1.06184e-05
1.32984e-05
1.96078e-05
3.10166e-05
4.59647e-05
5.23544e-05
5.09965e-05
5.01272e-05
4.98497e-05
5.01688e-05
5.10479e-05
5.23929e-05
5.40067e-05
4.18278e-05
2.03932e-05
9.99747e-06
6.61073e-06
5.62727e-06
5.21044e-06
5.08445e-06
5.12572e-06
5.49582e-06
6.92897e-06
1.19044e-05
1.67095e-06
7.51156e-09
2.3829e-09
6.01096e-07
9.9767e-06
9.53501e-06
7.85352e-06
7.30355e-06
7.13016e-06
7.52296e-06
8.45454e-06
1.0258e-05
1.36507e-05
2.02751e-05
3.10133e-05
4.62027e-05
5.23636e-05
5.10022e-05
5.01393e-05
4.98631e-05
5.01827e-05
5.10611e-05
5.23958e-05
5.402e-05
4.09536e-05
1.98557e-05
9.76249e-06
6.51686e-06
5.49133e-06
5.29878e-06
5.23343e-06
5.26199e-06
5.66029e-06
6.69885e-06
1.11896e-05
1.66808e-06
7.67908e-09
2.38118e-09
6.00584e-07
1.00435e-05
9.54487e-06
7.80325e-06
7.18374e-06
7.19178e-06
7.51795e-06
8.46803e-06
1.03999e-05
1.38451e-05
1.97056e-05
3.0045e-05
4.47202e-05
5.21847e-05
5.09445e-05
5.01328e-05
4.98724e-05
5.01918e-05
5.10526e-05
5.23274e-05
5.37476e-05
4.06401e-05
1.99041e-05
9.81616e-06
6.63613e-06
5.64923e-06
5.31445e-06
5.23535e-06
5.30993e-06
5.6119e-06
6.60973e-06
1.12223e-05
1.7534e-06
7.91608e-09
2.39782e-09
6.0332e-07
1.01318e-05
9.77275e-06
7.74202e-06
7.0453e-06
7.15911e-06
7.7939e-06
8.67033e-06
1.00951e-05
1.31295e-05
1.88968e-05
3.04344e-05
4.64263e-05
5.21048e-05
5.08406e-05
5.0044e-05
4.98125e-05
5.01581e-05
5.10378e-05
5.23252e-05
5.37657e-05
4.11925e-05
2.00743e-05
9.8647e-06
6.66374e-06
5.7106e-06
5.35208e-06
5.0923e-06
5.15798e-06
5.72346e-06
7.20349e-06
1.20819e-05
1.74492e-06
7.86507e-09
2.40476e-09
6.04698e-07
1.01235e-05
9.57516e-06
7.92657e-06
7.29644e-06
7.08636e-06
7.36281e-06
8.34944e-06
1.02565e-05
1.34803e-05
1.96852e-05
3.06643e-05
4.63786e-05
5.20386e-05
5.07978e-05
5.00165e-05
4.98132e-05
5.01772e-05
5.10682e-05
5.23679e-05
5.38223e-05
4.10153e-05
1.97476e-05
9.75995e-06
6.57333e-06
5.59713e-06
5.23277e-06
5.35666e-06
5.6327e-06
5.88387e-06
7.11905e-06
1.18222e-05
1.7553e-06
7.89441e-09
2.38834e-09
6.01031e-07
9.96255e-06
9.90087e-06
7.64493e-06
6.91998e-06
7.10774e-06
7.44322e-06
8.43168e-06
1.03696e-05
1.37563e-05
2.07178e-05
3.18383e-05
4.62639e-05
5.22031e-05
5.08717e-05
5.00408e-05
4.97894e-05
5.01391e-05
5.10351e-05
5.23841e-05
5.40181e-05
4.15671e-05
1.96814e-05
9.69219e-06
6.44011e-06
5.50164e-06
5.45355e-06
5.40257e-06
5.36555e-06
5.91336e-06
6.95443e-06
1.15349e-05
1.76327e-06
7.93989e-09
2.38997e-09
6.01216e-07
1.01887e-05
9.3034e-06
7.75653e-06
7.1541e-06
7.04335e-06
7.59834e-06
8.69187e-06
1.04976e-05
1.3554e-05
1.92502e-05
2.95437e-05
4.51921e-05
5.19993e-05
5.07625e-05
4.998e-05
4.97628e-05
5.01366e-05
5.10436e-05
5.23958e-05
5.40245e-05
4.14087e-05
1.95092e-05
9.70541e-06
6.54758e-06
5.58523e-06
5.26943e-06
5.22505e-06
5.43432e-06
5.89256e-06
7.31816e-06
1.21266e-05
1.75282e-06
7.98488e-09
2.39849e-09
6.03105e-07
1.0024e-05
9.36492e-06
7.63013e-06
7.20655e-06
7.2434e-06
7.50362e-06
8.37598e-06
1.02341e-05
1.36877e-05
1.98385e-05
3.07672e-05
4.64965e-05
5.1989e-05
5.07593e-05
4.99859e-05
4.97791e-05
5.01516e-05
5.10585e-05
5.24169e-05
5.40567e-05
4.04192e-05
1.91577e-05
9.65668e-06
6.57871e-06
5.63511e-06
5.33188e-06
5.31672e-06
5.41086e-06
5.91602e-06
7.16672e-06
1.16389e-05
1.74439e-06
7.98101e-09
2.37522e-09
5.97344e-07
9.78358e-06
9.41481e-06
7.35088e-06
6.95995e-06
7.19552e-06
7.59626e-06
8.53665e-06
1.03507e-05
1.36591e-05
1.9753e-05
3.08662e-05
4.6154e-05
5.19826e-05
5.07455e-05
4.99791e-05
4.97706e-05
5.01418e-05
5.10417e-05
5.23398e-05
5.37837e-05
4.03082e-05
1.90516e-05
9.54719e-06
6.43163e-06
5.48967e-06
5.32004e-06
5.39566e-06
5.60518e-06
5.87991e-06
6.87151e-06
1.20685e-05
1.79494e-06
8.07051e-09
2.34025e-09
5.89195e-07
1.00002e-05
9.31482e-06
7.60421e-06
6.91383e-06
7.08792e-06
7.76932e-06
8.7297e-06
1.02659e-05
1.35938e-05
1.947e-05
2.98667e-05
4.59557e-05
5.20716e-05
5.0848e-05
5.00848e-05
4.98915e-05
5.02857e-05
5.1223e-05
5.25631e-05
5.4041e-05
3.98254e-05
1.89169e-05
9.69869e-06
6.62403e-06
5.69401e-06
5.42833e-06
5.43388e-06
5.39011e-06
5.8812e-06
7.49481e-06
1.23834e-05
1.78861e-06
8.08409e-09
2.34935e-09
5.90089e-07
1.00126e-05
9.28577e-06
7.66379e-06
7.14243e-06
7.01562e-06
7.45559e-06
8.49093e-06
1.04862e-05
1.46962e-05
2.12089e-05
3.23433e-05
4.60083e-05
5.21699e-05
5.08234e-05
5.00158e-05
4.98093e-05
5.01883e-05
5.11021e-05
5.24269e-05
5.39219e-05
3.9539e-05
1.89365e-05
9.66867e-06
6.6497e-06
5.69588e-06
5.48045e-06
5.40858e-06
5.69545e-06
6.13095e-06
7.0041e-06
1.15213e-05
1.77149e-06
8.08868e-09
2.3499e-09
5.90416e-07
9.96316e-06
9.33245e-06
7.58122e-06
6.97137e-06
7.03416e-06
7.51655e-06
8.51667e-06
1.05523e-05
1.46899e-05
2.08191e-05
3.1566e-05
4.67901e-05
5.2127e-05
5.07972e-05
4.99909e-05
4.97798e-05
5.0159e-05
5.10858e-05
5.24148e-05
5.38948e-05
3.93071e-05
1.88124e-05
9.67307e-06
6.72121e-06
5.78978e-06
5.54113e-06
5.47961e-06
5.59297e-06
5.94559e-06
7.14719e-06
1.18e-05
1.78113e-06
8.11637e-09
2.34169e-09
5.9028e-07
1.0037e-05
9.24788e-06
7.66521e-06
7.10238e-06
7.06053e-06
7.45583e-06
8.53072e-06
1.04247e-05
1.35063e-05
1.94947e-05
3.05593e-05
4.64755e-05
5.19828e-05
5.0743e-05
4.99696e-05
4.97886e-05
5.01917e-05
5.11319e-05
5.24847e-05
5.40198e-05
3.90901e-05
1.86933e-05
9.67637e-06
6.81427e-06
5.91378e-06
5.58545e-06
5.47809e-06
5.53526e-06
6.04412e-06
7.27548e-06
1.21385e-05
1.7744e-06
8.11945e-09
2.33741e-09
5.88969e-07
9.90715e-06
9.44048e-06
7.51767e-06
6.85732e-06
7.03588e-06
7.57099e-06
8.59718e-06
1.0643e-05
1.49502e-05
2.12747e-05
3.20487e-05
4.65563e-05
5.21283e-05
5.08026e-05
5.00053e-05
4.98034e-05
5.01977e-05
5.11384e-05
5.25103e-05
5.40727e-05
3.93564e-05
1.87465e-05
9.62853e-06
6.75029e-06
5.87871e-06
5.50804e-06
5.61955e-06
5.7918e-06
6.07013e-06
7.31449e-06
1.20081e-05
1.81287e-06
8.1882e-09
2.36593e-09
5.93746e-07
1.00856e-05
9.32363e-06
7.5491e-06
6.99598e-06
7.10158e-06
7.57419e-06
8.52575e-06
1.04807e-05
1.39367e-05
2.07451e-05
3.18434e-05
4.69186e-05
5.22029e-05
5.08825e-05
5.00812e-05
4.98724e-05
5.02557e-05
5.1181e-05
5.25464e-05
5.41826e-05
3.92099e-05
1.84498e-05
9.4812e-06
6.63537e-06
5.90619e-06
5.72312e-06
5.56771e-06
5.74206e-06
6.11756e-06
7.06282e-06
1.15105e-05
1.79682e-06
8.1323e-09
2.3598e-09
5.94288e-07
9.91254e-06
8.98575e-06
7.37481e-06
7.22232e-06
7.06598e-06
7.4105e-06
8.82461e-06
1.07221e-05
1.37806e-05
1.94333e-05
3.07429e-05
4.70571e-05
5.2022e-05
5.07174e-05
4.99479e-05
4.97734e-05
5.01908e-05
5.11589e-05
5.25518e-05
5.42252e-05
3.93167e-05
1.85635e-05
9.68e-06
6.79155e-06
5.89669e-06
5.73537e-06
5.59589e-06
5.53245e-06
6.15384e-06
7.51667e-06
1.20172e-05
1.79367e-06
8.10352e-09
2.33969e-09
5.90092e-07
1.00401e-05
9.41126e-06
7.62503e-06
6.86497e-06
7.1477e-06
7.73252e-06
8.32984e-06
1.01792e-05
1.42407e-05
2.11224e-05
3.28188e-05
4.70391e-05
5.19658e-05
5.06885e-05
4.99383e-05
4.97837e-05
5.02116e-05
5.11792e-05
5.25974e-05
5.43104e-05
4.02067e-05
1.8478e-05
9.51045e-06
6.69987e-06
5.82912e-06
5.71956e-06
6.00446e-06
6.0961e-06
6.09243e-06
7.23966e-06
1.17859e-05
1.7834e-06
8.08507e-09
2.37021e-09
5.95368e-07
1.0082e-05
9.34678e-06
7.54541e-06
6.96581e-06
6.98177e-06
7.41858e-06
8.52542e-06
1.06425e-05
1.47743e-05
2.06099e-05
3.26369e-05
4.7756e-05
5.18919e-05
5.06451e-05
4.99281e-05