/*--------------------------------*- C++ -*----------------------------------*\
  =========                 |
  \\      /  F ield         | OpenFOAM: The Open Source CFD Toolbox
   \\    /   O peration     | Website:  https://openfoam.org
    \\  /    A nd           | Version:  13
     \\/     M anipulation  |
\*---------------------------------------------------------------------------*/
FoamFile
{
    format      ascii;
    class       volScalarField;
    location    "8";
    object      omega;
}
// * * * * * * * * * * * * * * * * * * * * * * * * * * * * * * * * * * * * * //

dimensions      [0 0 -1 0 0 0 0];

internalField   nonuniform List<scalar> 
78750
(
678.67
75.4078
15.1502
15.1502
15.1502
15.1502
15.1502
15.1502
15.1502
15.1502
15.1502
15.1502
15.1502
15.1502
15.1502
15.1502
15.1502
15.1502
15.1502
15.1502
15.1502
15.1502
15.1502
15.1502
15.1502
15.1502
15.1502
15.1502
15.1502
15.1502
15.1502
15.1502
15.1502
75.4078
678.67
678.67
75.4078
2.66272
2.66272
3.18228
3.21876
3.21564
3.20084
3.17267
3.15265
3.13512
3.1371
3.13155
2.66272
3.12465
2.66272
2.66272
2.66272
2.66272
2.66272
3.13586
3.13938
3.12874
2.66272
2.66272
2.66272
2.66272
2.66272
2.66272
2.66272
2.66272
2.66272
2.66272
75.4078
678.67
678.67
75.4078
2.66272
2.66272
3.20948
3.27139
3.27324
3.23825
3.18444
3.16247
3.14254
2.66272
2.66272
2.66272
3.12071
3.12199
3.12407
2.66272
2.66272
3.12714
3.12963
3.1279
3.12352
2.66272
2.66272
2.66272
2.66272
2.66272
2.66272
2.66272
3.27873
3.29683
2.66272
75.4078
678.67
678.67
75.4078
2.66272
2.66272
3.26488
3.31999
3.30334
3.24477
3.18225
3.13772
3.12787
2.66272
3.12654
2.66272
2.66272
2.66272
2.66272
2.66272
2.66272
2.66272
2.66272
2.66272
2.66272
2.66272
2.66272
2.66272
2.66272
3.12629
2.66272
2.66272
3.12641
3.16433
3.12563
75.4078
678.67
678.67
75.4078
2.66272
2.66272
3.29559
3.34844
3.32504
3.2614
3.19518
3.16042
3.17042
3.13953
2.66272
2.66272
2.66272
2.66272
2.66272
2.66272
2.66272
2.66272
2.66272
2.66272
2.66272
2.66272
2.66272
2.66272
3.12463
3.21224
3.31024
3.27784
3.22724
3.2234
3.24544
75.4078
678.67
678.67
75.4078
2.66272
3.13914
3.32827
3.38869
3.36748
3.30001
3.2235
3.18159
3.25606
3.15665
2.66272
2.66272
2.66272
2.66272
2.66272
2.66272
2.66272
2.66272
2.66272
2.66272
2.66272
2.66272
2.66272
3.19312
3.31151
3.24678
3.26265
3.27873
3.27885
3.27505
3.177
75.4078
678.67
678.67
75.4078
2.66272
3.13645
3.33956
3.40536
3.38207
3.31072
3.22746
3.15723
2.66272
3.16769
3.13122
2.66272
2.66272
2.66272
2.66272
2.66272
2.66272
2.66272
2.66272
2.66272
2.66272
2.66272
2.66272
2.66272
3.12207
3.16203
3.21967
3.27764
3.3332
3.34742
3.17598
75.4078
678.67
678.67
75.4078
2.66272
3.15768
3.35933
3.42624
3.40484
3.33457
3.25097
3.1784
3.13628
3.13024
3.12108
2.66272
2.66272
2.66272
2.66272
2.66272
2.66272
2.66272
2.66272
2.66272
2.66272
2.66272
3.14512
3.25953
3.19528
3.19601
3.24372
3.32497
3.41011
3.42868
3.21085
75.4078
678.67
678.67
75.4078
2.66272
3.16843
3.37535
3.4437
3.42084
3.3479
3.26592
3.19632
3.1577
3.18443
3.13484
2.66272
2.66272
2.66272
2.66272
2.66272
2.66272
2.66272
2.66272
2.66272
2.66272
2.66272
3.18628
3.30128
3.22784
3.22864
3.28802
3.38584
3.4786
3.49086
3.26445
75.4078
678.67
678.67
75.4078
2.66272
3.18073
3.3863
3.45434
3.43212
3.35601
3.27438
3.20729
3.16041
3.12011
2.66272
2.66272
2.66272
2.66272
2.66272
2.66272
2.66272
2.66272
2.66272
2.66272
2.66272
2.66272
3.19798
3.18558
3.2133
3.25899
3.31149
3.40074
3.52433
3.56124
3.33896
75.4078
678.67
678.67
75.4078
2.66272
3.18295
3.38609
3.45318
3.43378
3.36295
3.28023
3.2088
3.1636
3.13739
3.12942
2.66272
2.66272
2.66272
2.66272
2.66272
2.66272
2.66272
2.66272
2.66272
2.66272
2.66272
3.1585
3.21051
3.29102
3.37912
3.45255
3.50427
3.56232
3.60958
3.40043
75.4078
678.67
678.67
75.4078
2.66272
3.19351
3.39412
3.45875
3.4349
3.35621
3.26909
3.19472
3.1481
3.13166
2.66272
2.66272
2.66272
2.66272
2.66272
2.66272
2.66272
2.66272
2.66272
2.66272
2.66272
2.66272
3.15006
3.22599
3.34786
3.48537
3.61151
3.68986
3.72007
3.70293
3.43134
75.4078
678.67
678.67
75.4078
2.66272
3.19847
3.39777
3.46003
3.42717
3.35536
3.26811
3.19344
3.14685
3.12722
2.66272
2.66272
2.66272
2.66272
2.66272
2.66272
2.66272
2.66272
2.66272
2.66272
2.66272
3.12373
3.15635
3.23819
3.37386
3.52938
3.68141
3.79501
3.8466
3.8034
3.48444
75.4078
678.67
678.67
75.4078
2.66272
3.207
3.40323
3.4664
3.43328
3.3541
3.26559
3.18891
3.13569
2.66272
2.66272
2.66272
2.66272
2.66272
2.66272
2.66272
2.66272
2.66272
2.66272
2.66272
2.66272
2.66272
3.15351
3.24983
3.39396
3.54871
3.6939
3.81153
3.87636
3.84983
3.52482
75.4078
678.67
678.67
75.4078
2.66272
3.21225
3.40475
3.4545
3.41239
3.3284
3.24457
3.17844
3.13739
2.66272
3.12383
2.66272
2.66272
2.66272
2.66272
2.66272
2.66272
2.66272
2.66272
2.66272
2.66272
2.66272
3.16425
3.26965
3.42628
3.5903
3.73741
3.86188
3.94091
3.90762
3.54814
75.4078
678.67
678.67
75.4078
2.66272
3.22217
3.40847
3.45743
3.41137
3.3257
3.23971
3.17593
3.14829
3.18116
3.13274
2.66272
2.66272
2.66272
2.66272
2.66272
2.66272
2.66272
2.66272
2.66272
2.66272
2.66272
3.16448
3.27196
3.43965
3.63118
3.81023
3.92344
3.99964
3.95387
3.58323
75.4078
678.67
678.67
75.4078
2.66272
3.23295
3.41653
3.45752
3.4037
3.31803
3.23455
3.1728
3.147
3.18122
3.13648
2.66272
2.66272
2.66272
2.66272
2.66272
2.66272
2.66272
2.66272
2.66272
2.66272
2.66272
3.15673
3.25775
3.41767
3.60304
3.79895
3.92924
4.03258
3.99202
3.61775
75.4078
678.67
678.67
75.4078
2.66272
3.22941
3.413
3.45506
3.40623
3.31636
3.22975
3.16661
3.12974
2.66272
2.66272
2.66272
2.66272
2.66272
2.66272
2.66272
2.66272
2.66272
2.66272
2.66272
2.66272
2.66272
3.15227
3.24269
3.39557
3.58536
3.80157
3.9822
4.063
4.02279
3.6416
75.4078
678.67
678.67
75.4078
2.66272
3.23209
3.4088
3.44654
3.40354
3.31319
3.22453
3.16061
3.12339
2.66272
2.66272
2.66272
2.66272
2.66272
2.66272
2.66272
2.66272
2.66272
2.66272
2.66272
2.66272
3.13979
3.15263
3.23355
3.38347
3.57746
3.78737
3.97566
4.07761
4.04939
3.67432
75.4078
678.67
678.67
75.4078
2.66272
3.23137
3.41379
3.45015
3.39633
3.30961
3.21949
3.15406
3.12327
2.66272
2.66272
2.66272
2.66272
2.66272
2.66272
2.66272
2.66272
2.66272
2.66272
2.66272
2.66272
3.14291
3.15721
3.23863
3.38492
3.57413
3.78229
3.9582
4.09881
4.07211
3.69722
75.4078
678.67
678.67
75.4078
2.66272
3.22666
3.41207
3.44775
3.39249
3.30887
3.22258
3.15857
3.13491
3.16866
3.12838
2.66272
2.66272
2.66272
2.66272
2.66272
2.66272
2.66272
2.66272
2.66272
2.66272
2.66272
3.14118
3.2254
3.37384
3.56608
3.77819
3.96561
4.11446
4.09093
3.71737
75.4078
678.67
678.67
75.4078
2.66272
3.23531
3.41192
3.44857
3.39614
3.30651
3.2207
3.15893
3.12281
2.66272
2.66272
2.66272
2.66272
2.66272
2.66272
2.66272
2.66272
2.66272
2.66272
2.66272
2.66272
3.14868
3.15512
3.2293
3.36684
3.54754
3.76094
3.97942
4.12599
4.10888
3.74122
75.4078
678.67
678.67
75.4078
2.66272
3.2305
3.40374
3.4393
3.39516
3.31099
3.22554
3.16342
3.13131
2.66272
3.12019
2.66272
2.66272
2.66272
2.66272
2.66272
2.66272
2.66272
2.66272
2.66272
2.66272
3.15626
3.17155
3.25025
3.38276
3.56071
3.77057
3.98458
4.14294
4.12383
3.7506
75.4078
678.67
678.67
75.4078
2.66272
3.2298
3.40715
3.44216
3.39167
3.30095
3.21996
3.16221
3.13215
2.66272
2.66272
2.66272
2.66272
2.66272
2.66272
2.66272
2.66272
2.66272
2.66272
2.66272
2.66272
3.12952
3.17802
3.26916
3.41298
3.59
3.78875
4.00391
4.16988
4.14977
3.77555
75.4078
678.67
678.67
75.4078
2.66272
3.2264
3.39937
3.43684
3.3853
3.3034
3.21917
3.16104
3.13146
3.12133
2.66272
2.66272
2.66272
2.66272
2.66272
2.66272
2.66272
2.66272
2.66272
2.66272
2.66272
3.16511
3.17374
3.25949
3.41063
3.60136
3.83181
4.03052
4.17964
4.16483
3.79257
75.4078
678.67
678.67
75.4078
2.66272
3.22691
3.40427
3.43961
3.39068
3.30713
3.22612
3.16999
3.14261
3.12465
3.12173
2.66272
2.66272
2.66272
2.66272
2.66272
2.66272
2.66272
2.66272
2.66272
2.66272
3.166
3.17791
3.26853
3.41972
3.61434
3.85047
4.07876
4.21307
4.18667
3.81209
75.4078
678.67
678.67
75.4078
2.66272
3.22401
3.39158
3.42314
3.374
3.28951
3.21065
3.15692
3.13105
2.66272
2.66272
2.66272
2.66272
2.66272
2.66272
2.66272
2.66272
2.66272
2.66272
2.66272
2.66272
3.16502
3.17952
3.27428
3.43418
3.63272
3.8516
4.0693
4.22468
4.19945
3.82523
75.4078
678.67
678.67
75.4078
2.66272
3.22301
3.3858
3.4236
3.37357
3.28642
3.20398
3.1444
2.66272
2.66272
2.66272
2.66272
2.66272
2.66272
2.66272
2.66272
2.66272
2.66272
2.66272
2.66272
2.66272
3.16288
3.18245
3.28026
3.44237
3.6428
3.86581
4.08713
4.24606
4.23494
3.86043
75.4078
678.67
678.67
75.4078
2.66272
3.22057
3.39211
3.41988
3.36832
3.28722
3.20445
3.14708
2.66272
2.66272
2.66272
2.66272
2.66272
2.66272
2.66272
2.66272
2.66272
2.66272
2.66272
2.66272
2.66272
3.13235
3.17875
3.28711
3.45533
3.66185
3.8879
4.10923
4.27245
4.24297
3.8686
75.4078
678.67
678.67
75.4078
2.66272
3.21842
3.38469
3.42635
3.37485
3.28942
3.20903
3.1602
3.15085
3.17955
3.13594
2.66272
2.66272
2.66272
2.66272
2.66272
2.66272
2.66272
2.66272
2.66272
2.66272
3.13417
3.1823
3.2952
3.47032
3.68582
3.92085
4.14926
4.30552
4.28054
3.89555
75.4078
678.67
678.67
75.4078
2.66272
3.22201
3.39011
3.42629
3.37374
3.28854
3.21137
3.17114
3.17359
3.14239
2.66272
2.66272
2.66272
2.66272
2.66272
2.66272
2.66272
2.66272
2.66272
2.66272
2.66272
3.13272
3.18268
3.29968
3.47747
3.69484
3.93137
4.16917
4.33561
4.29842
3.91196
75.4078
678.67
678.67
75.4078
2.66272
3.22141
3.3907
3.42777
3.37389
3.28748
3.20787
3.17486
3.23127
3.19428
3.14083
2.66272
2.66272
2.66272
2.66272
2.66272
2.66272
2.66272
2.66272
2.66272
2.66272
2.66272
3.17905
3.31014
3.51077
3.75301
4.00804
4.22935
4.38246
4.32911
3.93161
75.4078
678.67
678.67
75.4078
2.66272
3.22412
3.3939
3.41835
3.36839
3.28062
3.19995
3.14249
2.66272
2.66272
2.66272
2.66272
2.66272
2.66272
2.66272
2.66272
2.66272
2.66272
2.66272
2.66272
2.66272
3.12373
3.1809
3.30668
3.4971
3.73476
4.0058
4.24009
4.39983
4.33904
3.95918
75.4078
678.67
678.67
75.4078
2.66272
3.22322
3.39368
3.42307
3.3664
3.28305
3.20107
3.1441
2.66272
2.66272
2.66272
2.66272
2.66272
2.66272
2.66272
2.66272
2.66272
2.66272
2.66272
2.66272
2.66272
3.12095
3.17917
3.30639
3.50051
3.74004
3.99282
4.24292
4.40878
4.41159
3.99185
75.4078
678.67
678.67
75.4078
2.66272
3.22316
3.39491
3.426
3.3725
3.28502
3.20279
3.15411
3.14217
3.1719
3.13075
2.66272
2.66272
2.66272
2.66272
2.66272
2.66272
2.66272
2.66272
2.66272
2.66272
3.12098
3.1801
3.30898
3.50053
3.73818
4.00801
4.26703
4.46045
4.41499
4.03981
75.4078
678.67
678.67
75.4078
2.66272
3.22131
3.38497
3.41419
3.36119
3.27826
3.20394
3.16026
3.15445
3.13304
2.66272
2.66272
2.66272
2.66272
2.66272
2.66272
2.66272
2.66272
2.66272
2.66272
2.66272
3.12465
3.18396
3.31563
3.51738
3.76213
4.01421
4.26452
4.46264
4.43963
4.04387
75.4078
678.67
678.67
75.4078
2.66272
3.21685
3.38975
3.41937
3.36624
3.28194
3.20228
3.14875
3.12472
2.66272
2.66272
2.66272
2.66272
2.66272
2.66272
2.66272
2.66272
2.66272
2.66272
2.66272
2.66272
3.13819
3.19148
3.31589
3.50885
3.74729
4.02253
4.30596
4.48254
4.45483
4.05806
75.4078
678.67
678.67
75.4078
2.66272
3.22133
3.39122
3.42086
3.36741
3.28369
3.20673
3.17317
3.18036
3.14755
2.66272
2.66272
2.66272
2.66272
2.66272
2.66272
2.66272
2.66272
2.66272
2.66272
2.66272
3.12299
3.18386
3.31629
3.51434
3.76765
4.03284
4.31002
4.48959
4.45256
4.05389
75.4078
678.67
678.67
75.4078
2.66272
3.21897
3.38878
3.41421
3.36286
3.27632
3.2045
3.16328
3.15894
3.13439
2.66272
2.66272
2.66272
2.66272
2.66272
2.66272
2.66272
2.66272
2.66272
2.66272
2.66272
3.12506
3.18615
3.3203
3.52267
3.76877
4.03224
4.30568
4.4892
4.43891
4.03744
75.4078
678.67
678.67
75.4078
2.66272
3.21852
3.38613
3.41085
3.361
3.27444
3.19509
3.14206
2.66272
2.66272
2.66272
2.66272
2.66272
2.66272
2.66272
2.66272
2.66272
2.66272
2.66272
2.66272
2.66272
3.12812
3.18941
3.32153
3.51817
3.75692
4.02714
4.30134
4.46387
4.4418
4.07807
75.4078
678.67
678.67
75.4078
2.66272
3.21479
3.38177
3.40629
3.35846
3.27667
3.20064
3.15475
3.14415
3.17717
3.13516
2.66272
2.66272
2.66272
2.66272
2.66272
2.66272
2.66272
2.66272
2.66272
2.66272
3.13152
3.19366
3.32641
3.52461
3.78004
4.0574
4.31679
4.49753
4.4705
4.04564
75.4078
678.67
678.67
75.4078
2.66272
3.20555
3.38063
3.41012
3.3541
3.27134
3.19905
3.16094
3.14675
2.66272
2.66272
2.66272
2.66272
2.66272
2.66272
2.66272
2.66272
2.66272
2.66272
2.66272
2.66272
3.13308
3.19753
3.33165
3.52753
3.77184
4.04884
4.29112
4.4631
4.46845
4.07568
75.4078
678.67
678.67
75.4078
2.66272
3.21185
3.37999
3.4045
3.35894
3.27723
3.20494
3.17101
3.17435
3.13284
2.66272
2.66272
2.66272
2.66272
2.66272
2.66272
2.66272
2.66272
2.66272
2.66272
2.66272
3.13342
3.20138
3.34262
3.5469
3.78367
4.0451
4.31676
4.45913
4.4339
4.03856
75.4078
678.67
678.67
75.4078
2.66272
3.21449
3.37702
3.40728
3.35874
3.2714
3.20106
3.17222
3.22606
3.13493
2.66272
2.66272
2.66272
2.66272
2.66272
2.66272
2.66272
2.66272
2.66272
2.66272
2.66272
3.13407
3.20226
3.34402
3.55074
3.80031
4.05501
4.29546
4.45919
4.46871
4.07021
75.4078
678.67
678.67
75.4078
2.66272
3.21154
3.38062
3.41418
3.36153
3.27446
3.19473
3.14621
2.66272
2.66272
2.66272
2.66272
2.66272
2.66272
2.66272
2.66272
2.66272
2.66272
2.66272
2.66272
2.66272
3.12938
3.20235
3.34954
3.55748
3.80653
4.06418
4.31116
4.52487
4.49062
4.0861
75.4078
678.67
678.67
75.4078
2.66272
3.20794
3.37944
3.41267
3.35517
3.27493
3.19993
3.15958
3.15561
3.13068
2.66272
2.66272
2.66272
2.66272
2.66272
2.66272
2.66272
2.66272
2.66272
2.66272
2.66272
3.13194
3.20966
3.36589
3.5834
3.8355
4.09405
4.34183
4.51903
4.49918
4.07739
75.4078
678.67
678.67
75.4078
2.66272
3.2145
3.38389
3.41292
3.35586
3.27309
3.19417
3.14123
2.66272
3.12057
3.12051
2.66272
2.66272
2.66272
2.66272
2.66272
2.66272
2.66272
2.66272
2.66272
2.66272
3.13554
3.21191
3.36486
3.58159
3.83293
4.11778
4.34735
4.51229
4.50283
4.05493
75.4078
678.67
678.67
75.4078
2.66272
3.20969
3.38029
3.40525
3.35742
3.27154
3.19631
3.14591
3.12183
2.66272
2.66272
2.66272
2.66272
2.66272
2.66272
2.66272
2.66272
2.66272
2.66272
2.66272
2.66272
3.14532
3.22356
3.37806
3.59403
3.85599
4.12393
4.35573
4.5596
4.50896
4.08839
75.4078
678.67
678.67
75.4078
2.66272
3.21012
3.37597
3.41005
3.35928
3.27564
3.19682
3.14427
3.12064
2.66272
2.66272
2.66272
2.66272
2.66272
2.66272
2.66272
2.66272
2.66272
2.66272
2.66272
2.66272
3.13993
3.22441
3.39279
3.62215
3.88483
4.16318
4.42364
4.57893
4.52493
4.10322
75.4078
678.67
678.67
75.4078
2.66272
3.20028
3.37883
3.4101
3.35779
3.27373
3.19505
3.14511
3.12018
2.66272
2.66272
2.66272
2.66272
2.66272
2.66272
2.66272
2.66272
2.66272
2.66272
2.66272
2.66272
3.13992
3.2224
3.38522
3.61307
3.88131
4.16738
4.43001
4.59204
4.52848
4.08382
75.4078
678.67
678.67
75.4078
2.66272
3.20118
3.37597
3.40218
3.35152
3.26924
3.19335
3.14333
3.12489
2.66272
2.66272
2.66272
2.66272
2.66272
2.66272
2.66272
2.66272
2.66272
2.66272
2.66272
2.66272
3.14058
3.22584
3.39156
3.6161
3.87887
4.15952
4.43994
4.57783
4.50756
4.11006
75.4078
678.67
678.67
75.4078
2.66272
3.20808
3.37822
3.40851
3.35861
3.27291
3.1939
3.1374
2.66272
2.66272
2.66272
2.66272
2.66272
2.66272
2.66272
2.66272
2.66272
2.66272
2.66272
2.66272
2.66272
3.14037
3.23036
3.40493
3.638
3.90358
4.18191
4.44877
4.61212
4.50727
4.09177
75.4078
678.67
678.67
75.4078
2.66272
3.20878
3.37732
3.40915
3.35416
3.27491
3.20135
3.14798
2.66272
2.66272
2.66272
2.66272
2.66272
2.66272
2.66272
2.66272
2.66272
2.66272
2.66272
2.66272
2.66272
3.14337
3.23405
3.40672
3.63627
3.89876
4.17726
4.43555
4.60897
4.51957
4.0984
75.4078
678.67
678.67
75.4078
2.66272
3.20963
3.37173
3.40967
3.36055
3.28361
3.22151
3.17755
3.13842
2.66272
2.66272
2.66272
2.66272
2.66272
2.66272
2.66272
2.66272
2.66272
2.66272
2.66272
2.66272
3.14784
3.24301
3.42439
3.66713
3.93872
4.20145
4.45028
4.60195
4.51787
4.08785
75.4078
678.67
678.67
75.4078
2.66272
3.20738
3.37572
3.41026
3.36263
3.28646
3.2219
3.18215
3.1489
2.66272
2.66272
2.66272
2.66272
2.66272
2.66272
2.66272
2.66272
2.66272
2.66272
2.66272
2.66272
3.15076
3.24368
3.42246
3.66606
3.94707
4.23628
4.45783
4.60301
4.55754
4.16535
75.4078
678.67
678.67
75.4078
2.66272
3.21487
3.37918
3.40136
3.34824
3.2673
3.20742
3.17534
3.15488
3.12317
2.66272
2.66272
2.66272
2.66272
2.66272
2.66272
2.66272
2.66272
2.66272
2.66272
3.12082
3.15274
3.24607
3.42375
3.66081
3.9369
4.24224
4.51956
4.68605
4.6249
4.17556
75.4078
678.67
678.67
75.4078
2.66272
3.21771
3.38471
3.40445
3.35251
3.26761
3.19456
3.15817
3.15806
3.1352
2.66272
2.66272
2.66272
2.66272
2.66272
2.66272
2.66272
2.66272
2.66272
2.66272
3.12113
3.15457
3.25165
3.4361
3.68248
3.97362
4.26493
4.53228
4.6905
4.62906
4.18769
75.4078
678.67
678.67
75.4078
2.66272
3.21363
3.38384
3.40863
3.35332
3.26537
3.18909
3.14023
3.12658
3.16018
3.12322
2.66272
2.66272
2.66272
2.66272
2.66272
2.66272
2.66272
2.66272
2.66272
3.12244
3.15609
3.2546
3.44077
3.68793
3.97357
4.25412
4.53868
4.69988
4.63727
4.20349
75.4078
678.67
678.67
75.4078
2.66272
3.21882
3.38448
3.40403
3.34211
3.26138
3.187
3.14002
3.12023
2.66272
2.66272
2.66272
2.66272
2.66272
2.66272
2.66272
2.66272
2.66272
2.66272
2.66272
2.66272
3.14986
3.25193
3.44104
3.68941
3.97428
4.26958
4.52922
4.663
4.62107
4.17165
75.4078
678.67
678.67
75.4078
2.66272
3.2026
3.37285
3.40354
3.34688
3.26008
3.18676
3.14161
3.13225
3.16997
3.1241
2.66272
2.66272
2.66272
2.66272
2.66272
2.66272
2.66272
2.66272
2.66272
2.66272
3.15026
3.25161
3.43957
3.68263
3.95242
4.23734
4.50447
4.68935
4.59298
4.20031
75.4078
678.67
678.67
75.4078
2.66272
3.21239
3.3776
3.39809
3.34833
3.26515
3.19066
3.15292
3.14738
3.16318
3.12095
2.66272
2.66272
2.66272
2.66272
2.66272
2.66272
2.66272
2.66272
2.66272
2.66272
3.15288
3.25766
3.4498
3.69821
3.97748
4.26396
4.51934
4.67667
4.62892
4.20406
75.4078
678.67
678.67
75.4078
2.66272
3.21489
3.37992
3.39849
3.34579
3.26032
3.19201
3.15527
3.15224
3.12979
2.66272
2.66272
2.66272
2.66272
2.66272
2.66272
2.66272
2.66272
2.66272
2.66272
3.1213
3.15648
3.26152
3.45366
3.70277
3.98008
4.26089
4.5206
4.7174
4.62672
4.20727
75.4078
678.67
678.67
75.4078
2.66272
3.19654
3.36329
3.3935
3.34511
3.26426
3.19013
3.14195
3.12958
3.16885
3.12709
2.66272
2.66272
2.66272
2.66272
2.66272
2.66272
2.66272
2.66272
2.66272
3.13139
3.16827
3.27676
3.47232
3.72438
4.01103
4.3226
4.58273
4.72417
4.62493
4.2001
75.4078
678.67
678.67
75.4078
2.66272
3.19036
3.35864
3.38679
3.33547
3.25885
3.18855
3.13973
2.66272
2.66272
2.66272
2.66272
2.66272
2.66272
2.66272
2.66272
2.66272
2.66272
2.66272
2.66272
3.12763
3.16528
3.27605
3.47687
3.73357
4.02081
4.32367
4.58514
4.719
4.67049
4.20302
75.4078
678.67
678.67
75.4078
2.66272
3.1873
3.35696
3.38483
3.33308
3.25667
3.18527
3.13622
2.66272
2.66272
2.66272
2.66272
2.66272
2.66272
2.66272
2.66272
2.66272
2.66272
2.66272
2.66272
3.12612
3.16415
3.27622
3.47819
3.73995
4.03977
4.33286
4.5766
4.72033
4.67081
4.24821
75.4078
678.67
678.67
75.4078
2.66272
3.19213
3.35747
3.38356
3.33123
3.25203
3.18282
3.13856
3.12803
3.16411
3.12391
2.66272
2.66272
2.66272
2.66272
2.66272
2.66272
2.66272
2.66272
2.66272
3.13029
3.17097
3.28771
3.49201
3.74974
4.04581
4.34593
4.59619
4.76965
4.68317
4.23182
75.4078
678.67
678.67
75.4078
2.66272
3.19444
3.3617
3.38523
3.33027
3.25376
3.18188
3.13471
2.66272
2.66272
2.66272
2.66272
2.66272
2.66272
2.66272
2.66272
2.66272
2.66272
2.66272
2.66272
3.13266
3.17721
3.30064
3.51374
3.77521
4.05606
4.34428
4.60197
4.76743
4.68588
4.24676
75.4078
678.67
678.67
75.4078
2.66272
3.19564
3.3578
3.38568
3.32791
3.25166
3.18758
3.15325
3.14064
2.66272
2.66272
2.66272
2.66272
2.66272
2.66272
2.66272
2.66272
2.66272
2.66272
2.66272
2.66272
3.16673
3.29734
3.51582
3.78555
4.07578
4.36368
4.61301
4.74104
4.65039
4.21208
75.4078
678.67
678.67
75.4078
2.66272
3.20256
3.3662
3.38343
3.32868
3.25656
3.19286
3.1636
3.16825
3.13622
2.66272
2.66272
2.66272
2.66272
2.66272
2.66272
2.66272
2.66272
2.66272
2.66272
2.66272
3.1732
3.30681
3.52742
3.80046
4.10304
4.42031
4.63677
4.76018
4.67382
4.20965
75.4078
678.67
678.67
75.4078
2.66272
3.19055
3.35772
3.38648
3.32664
3.24938
3.18746
3.16232
3.21744
3.17666
2.66272
2.66272
2.66272
2.66272
2.66272
2.66272
2.66272
2.66272
2.66272
2.66272
2.66272
3.17957
3.32097
3.55557
3.8434
4.14972
4.443
4.69458
4.77934
4.67957
4.2169
75.4078
678.67
678.67
75.4078
2.66272
3.1974
3.36273
3.38699
3.33071
3.24673
3.17608
3.13347
2.66272
3.14673
2.66272
2.66272
2.66272
2.66272
2.66272
2.66272
2.66272
2.66272
2.66272
2.66272
2.66272
3.17712
3.31561
3.54432
3.8291
4.13933
4.44483
4.67623
4.79352
4.72851
4.29557
75.4078
678.67
678.67
75.4078
2.66272
3.20039
3.35927
3.38702
3.32622
3.24181
3.1682
3.12031
2.66272
2.66272
2.66272
2.66272
2.66272
2.66272
2.66272
2.66272
2.66272
2.66272
2.66272
2.66272
2.66272
3.17731
3.31591
3.54209
3.82089
4.12783
4.44975
4.71583
4.81753
4.74366
4.29309
75.4078
678.67
678.67
75.4078
2.66272
3.19569
3.35927
3.38206
3.32717
3.24688
3.17481
3.13507
3.12108
2.66272
2.66272
2.66272
2.66272
2.66272
2.66272
2.66272
2.66272
2.66272
2.66272
2.66272
2.66272
3.18581
3.33455
3.57598
3.8695
4.18092
4.47403
4.70762
4.83438
4.7473
4.27585
75.4078
678.67
678.67
75.4078
2.66272
3.19501
3.36123
3.38543
3.33306
3.24836
3.18161
3.15227
3.15171
2.66272
2.66272
2.66272
2.66272
2.66272
2.66272
2.66272
2.66272
2.66272
2.66272
2.66272
2.66272
3.18667
3.33254
3.56808
3.85853
4.17305
4.47623
4.71299
4.84689
4.7575
4.31751
75.4078
678.67
678.67
75.4078
2.66272
3.20443
3.36866
3.39022
3.32958
3.25076
3.18648
3.16562
3.22345
3.17459
2.66272
2.66272
2.66272
2.66272
2.66272
2.66272
2.66272
2.66272
2.66272
2.66272
3.12015
3.18717
3.33397
3.56926
3.85601
4.16905
4.47805
4.73054
4.85472
4.7554
4.31222
75.4078
678.67
678.67
75.4078
2.66272
3.19296
3.36443
3.38877
3.33479
3.25715
3.1922
3.14685
2.66272
2.66272
2.66272
2.66272
2.66272
2.66272
2.66272
2.66272
2.66272
2.66272
2.66272
2.66272
3.14072
3.20068
3.35726
3.6105
3.91366
4.23369
4.53433
4.75131
4.89565
4.82265
4.33366
75.4078
678.67
678.67
75.4078
2.66272
3.2004
3.36259
3.38949
3.33613
3.2577
3.19076
3.1494
3.1305
3.12132
2.66272
2.66272
2.66272
2.66272
2.66272
2.66272
2.66272
2.66272
2.66272
2.66272
3.14121
3.20035
3.3527
3.59915
3.90008
4.22362
4.53655
4.78758
4.94473
4.81302
4.34724
75.4078
678.67
678.67
75.4078
2.66272
3.20592
3.36963
3.39063
3.33332
3.25248
3.18642
3.16588
3.22117
3.16931
2.66272
2.66272
2.66272
2.66272
2.66272
2.66272
2.66272
2.66272
2.66272
2.66272
3.14146
3.20052
3.35258
3.59731
3.89344
4.21515
4.53245
4.80754
4.92181
4.85123
4.35837
75.4078
678.67
678.67
75.4078
2.66272
3.20378
3.36859
3.38952
3.32844
3.24719
3.18533
3.16594
3.22838
3.17538
2.66272
2.66272
2.66272
2.66272
2.66272
2.66272
2.66272
2.66272
2.66272
2.66272
3.14797
3.21182
3.37463
3.6335
3.94335
4.27116
4.58186
4.81231
4.95622
4.83313
4.36272
75.4078
678.67
678.67
75.4078
2.66272
3.19557
3.36707
3.38987
3.33383
3.25268
3.18873
3.15942
3.20358
3.16006
2.66272
2.66272
2.66272
2.66272
2.66272
2.66272
2.66272
2.66272
2.66272
2.66272
3.15223
3.21553
3.37658
3.63151
3.93651
4.26139
4.5744
4.81002
4.96989
4.82407
4.36755
75.4078
678.67
678.67
75.4078
2.66272
3.20037
3.35967
3.38524
3.33199
3.25436
3.18931
3.14255
2.66272
2.66272
2.66272
2.66272
2.66272
2.66272
2.66272
2.66272
2.66272
2.66272
2.66272
2.66272
3.1509
3.21455
3.37479
3.63035
3.94041
4.27335
4.59913
4.87178
4.98855
4.882
4.37572
75.4078
678.67
678.67
75.4078
2.66272
3.19013
3.3612
3.38231
3.33061
3.25904
3.19899
3.15981
3.13928
3.15983
2.66272
2.66272
2.66272
2.66272
2.66272
2.66272
2.66272
2.66272
2.66272
2.66272
3.12429
3.20817
3.37937
3.63926
3.94972
4.28295
4.60673
4.86689
4.98732
4.85718
4.41328
75.4078
678.67
678.67
75.4078
2.66272
3.19453
3.36191
3.38698
3.33454
3.26018
3.2011
3.16892
3.14641
3.15951
2.66272
2.66272
2.66272
2.66272
2.66272
2.66272
2.66272
2.66272
2.66272
2.66272
3.13693
3.22058
3.39565
3.66238
3.97345
4.30254
4.619
4.87747
5.00271
4.89153
4.40903
75.4078
678.67
678.67
75.4078
2.66272
3.1932
3.34797
3.36807
3.31448
3.2425
3.18707
3.15189
3.13403
3.15055
2.66272
2.66272
2.66272
2.66272
2.66272
2.66272
2.66272
2.66272
2.66272
2.66272
3.13615
3.21795
3.38761
3.64627
3.95291
4.27948
4.59763
4.87618
5.00519
4.89684
4.41477
75.4078
678.67
678.67
75.4078
2.66272
3.18454
3.34653
3.36774
3.31287
3.23496
3.16684
3.12337
2.66272
2.66272
2.66272
2.66272
2.66272
2.66272
2.66272
2.66272
2.66272
2.66272
2.66272
2.66272
3.13965
3.22512
3.40051
3.6636
3.97828
4.31116
4.6276
4.86319
4.98684
4.88624
4.36993
75.4078
678.67
678.67
75.4078
2.66272
3.18768
3.34304
3.36484
3.30885
3.23022
3.16697
3.12519
2.66272
2.66272
2.66272
2.66272
2.66272
2.66272
2.66272
2.66272
2.66272
2.66272
2.66272
2.66272
3.13585
3.2303
3.41932
3.69516
4.00905
4.33605
4.63987
4.88533
4.99389
4.86775
4.4004
75.4078
678.67
678.67
75.4078
2.66272
3.18734
3.34395
3.36396
3.30483
3.22951
3.16593
3.1263
2.66272
2.66272
2.66272
2.66272
2.66272
2.66272
2.66272
2.66272
2.66272
2.66272
2.66272
2.66272
3.13553
3.22819
3.41398
3.68844
4.01086
4.34673
4.65794
4.88512
5.0011
4.88756
4.37624
75.4078
678.67
678.67
75.4078
2.66272
3.18534
3.34742
3.36608
3.30926
3.23195
3.18381
3.16737
3.14109
3.14863
2.66272
2.66272
2.66272
2.66272
2.66272
2.66272
2.66272
2.66272
2.66272
2.66272
3.14444
3.24041
3.43124
3.70681
4.02228
4.36255
4.70397
4.96756
5.07257
4.89972
4.38005
75.4078
678.67
678.67
75.4078
2.66272
3.18004
3.34173
3.36094
3.30994
3.23934
3.21587
3.31027
3.25613
3.175
2.66272
2.66272
2.66272
2.66272
2.66272
2.66272
2.66272
2.66272
2.66272
2.66272
3.14636
3.24623
3.4442
3.72811
4.05591
4.39385
4.70098
4.94782
5.06089
4.94106
4.39508
75.4078
678.67
678.67
75.4078
2.66272
3.18397
3.34828
3.36627
3.30606
3.22481
3.15462
2.66272
2.66272
2.66272
2.66272
2.66272
2.66272
2.66272
2.66272
2.66272
2.66272
2.66272
2.66272
2.66272
3.14592
3.24609
3.44146
3.72083
4.04465
4.38587
4.71511
4.98223
5.09207
4.94068
4.40144
75.4078
678.67
678.67
75.4078
2.66272
3.18029
3.34023
3.36381
3.30371
3.226
3.16102
3.12438
2.66272
2.66272
2.66272
2.66272
2.66272
2.66272
2.66272
2.66272
2.66272
2.66272
2.66272
2.66272
3.15317
3.2579
3.46092
3.74336
4.06031
4.39163
4.70557
4.95244
5.05265
4.9139
4.40561
75.4078
678.67
678.67
75.4078
2.66272
3.17461
3.34251
3.36077
3.31154
3.23437
3.16987
3.13158
3.12487
3.14956
2.66272
2.66272
2.66272
2.66272
2.66272
2.66272
2.66272
2.66272
2.66272
2.66272
3.15626
3.26388
3.47199
3.75997
4.07872
4.40497
4.71515
4.96377
5.06991
4.92431
4.41749
75.4078
678.67
678.67
75.4078
2.66272
3.18251
3.34492
3.36394
3.3062
3.23586
3.18257
3.15902
3.14982
3.12677
2.66272
2.66272
2.66272
2.66272
2.66272
2.66272
2.66272
2.66272
2.66272
2.66272
3.15682
3.26881
3.48448
3.78507
4.12298
4.46224
4.76101
4.98927
5.07671
4.9288
4.42631
75.4078
678.67
678.67
75.4078
2.66272
3.18014
3.34269
3.36252
3.30901
3.23889
3.18475
3.15517
3.13479
3.15104
2.66272
2.66272
2.66272
2.66272
2.66272
2.66272
2.66272
2.66272
2.66272
2.66272
3.15629
3.2676
3.48249
3.78412
4.1262
4.47336
4.78362
5.03046
5.12269
4.96731
4.45494
75.4078
678.67
678.67
75.4078
2.66272
3.17893
3.34186
3.36294
3.30767
3.23007
3.17541
3.14276
2.66272
2.66272
2.66272
2.66272
2.66272
2.66272
2.66272
2.66272
2.66272
2.66272
2.66272
2.66272
3.15581
3.26649
3.48184
3.78215
4.12127
4.46779
4.79477
5.04599
5.13201
4.9776
4.4778
75.4078
678.67
678.67
75.4078
2.66272
3.17575
3.33806
3.35447
3.30414
3.22767
3.16092
3.12313
2.66272
2.66272
2.66272
2.66272
2.66272
2.66272
2.66272
2.66272
2.66272
2.66272
2.66272
2.66272
3.16025
3.27382
3.49508
3.80376
4.15264
4.51281
4.84609
5.09837
5.18281
5.02855
4.50039
75.4078
678.67
678.67
75.4078
2.66272
3.16775
3.33236
3.35806
3.30515
3.22943
3.16437
3.13073
3.12534
3.14439
2.66272
2.66272
2.66272
2.66272
2.66272
2.66272
2.66272
2.66272
2.66272
2.66272
3.16153
3.27706
3.49782
3.80099
4.14235
4.49644
4.83042
5.09283
5.18823
5.04038
4.53102
75.4078
678.67
678.67
75.4078
2.66272
3.17412
3.33762
3.35746
3.29964
3.22466
3.16568
3.14036
3.13807
2.66272
2.66272
2.66272
2.66272
2.66272
2.66272
2.66272
2.66272
2.66272
2.66272
2.66272
3.16504
3.28087
3.50099
3.79854
4.12745
4.46973
4.80015
5.06804
5.2321
5.09158
4.56596
75.4078
678.67
678.67
75.4078
2.66272
3.17378
3.33673
3.35604
3.30052
3.22754
3.16756
3.14036
3.13631
2.66272
2.66272
2.66272
2.66272
2.66272
2.66272
2.66272
2.66272
2.66272
2.66272
2.66272
3.17134
3.29062
3.51818
3.83008
4.17714
4.52112
4.82077
5.10314
5.20068
5.06517
4.57469
75.4078
678.67
678.67
75.4078
2.66272
3.17611
3.33798
3.35136
3.30161
3.22768
3.1731
3.14634
3.14451
3.12011
2.66272
2.66272
2.66272
2.66272
2.66272
2.66272
2.66272
2.66272
2.66272
3.12286
3.17396
3.29261
3.51807
3.82579
4.17148
4.52193
4.83976
5.10606
5.22997
5.0914
4.58287
75.4078
678.67
678.67
75.4078
2.66272
3.17528
3.33768
3.35308
3.30158
3.23606
3.19012
3.16183
3.14389
3.15454
2.66272
2.66272
2.66272
2.66272
2.66272
2.66272
2.66272
2.66272
2.66272
3.12308
3.17485
3.29378
3.5204
3.83016
4.17735
4.52625
4.83381
5.08386
5.18851
5.04928
4.55933
75.4078
678.67
678.67
75.4078
2.66272
3.17162
3.33904
3.35754
3.30605
3.24143
3.20118
3.18883
3.15434
3.1225
2.66272
2.66272
2.66272
2.66272
2.66272
2.66272
2.66272
2.66272
2.66272
3.12345
3.17571
3.29577
3.52362
3.83308
4.17944
4.53009
4.84057
5.08704
5.1861
5.03959
4.53708
75.4078
678.67
678.67
75.4078
2.66272
3.17253
3.33215
3.35376
3.3006
3.2325
3.20084
3.21213
3.16867
3.12416
2.66272
2.66272
2.66272
2.66272
2.66272
2.66272
2.66272
2.66272
2.66272
3.128
3.18251
3.30714
3.53903
3.84605
4.18124
4.52302
4.8378
5.0861
5.19183
5.04228
4.56895
75.4078
678.67
678.67
75.4078
2.66272
3.17094
3.33079
3.35189
3.29624
3.23618
3.21399
3.29989
3.24675
3.17556
2.66272
2.66272
2.66272
2.66272
2.66272
2.66272
2.66272
2.66272
2.66272
3.1308
3.18627
3.31334
3.55036
3.86566
4.20877
4.55687
4.88429
5.12295
5.20501
5.04886
4.55874
75.4078
678.67
678.67
75.4078
2.66272
3.1684
3.32755
3.3503
3.29741
3.22246
3.16118
2.66272
2.66272
3.13783
2.66272
2.66272
2.66272
2.66272
2.66272
2.66272
2.66272
2.66272
2.66272
3.13271
3.18783
3.31727
3.55841
3.88273
4.24246
4.60381
4.92817
5.14925
5.22735
5.0671
4.59784
75.4078
678.67
678.67
75.4078
2.66272
3.16402
3.32691
3.34678
3.29676
3.22751
3.17616
3.15435
3.14475
3.12161
2.66272
2.66272
2.66272
2.66272
2.66272
2.66272
2.66272
2.66272
2.66272
3.13277
3.18791
3.31621
3.55486
3.87715
4.23747
4.60192
4.93019
5.15202
5.24365
5.08522
4.5996
75.4078
678.67
678.67
75.4078
2.66272
3.15903
3.32031
3.34654
3.29769
3.23254
3.18371