/*--------------------------------*- C++ -*----------------------------------*\
  =========                 |
  \\      /  F ield         | OpenFOAM: The Open Source CFD Toolbox
   \\    /   O peration     | Website:  https://openfoam.org
    \\  /    A nd           | Version:  13
     \\/     M anipulation  |
\*---------------------------------------------------------------------------*/
FoamFile
{
    format      ascii;
    class       volScalarField;
    location    "8";
    object      p;
}
// * * * * * * * * * * * * * * * * * * * * * * * * * * * * * * * * * * * * * //

dimensions      [0 2 -2 0 0 0 0];

internalField   nonuniform List<scalar> 
78750
(
0
-1.9962e-05
-6.49644e-05
-0.000208457
-0.000523613
-0.000964913
-0.00154047
-0.00214598
-0.00271579
-0.0032097
-0.00360633
-0.00411804
-0.00462863
-0.00495774
-0.00520451
-0.00546789
-0.00568148
-0.00587611
-0.00604997
-0.00620305
-0.00633732
-0.00645517
-0.00655646
-0.00664336
-0.00671349
-0.00676962
-0.0068018
-0.00680648
-0.00677752
-0.00671422
-0.00660189
-0.00642614
-0.00624182
-0.00609028
-0.00594919
-0.149577
-0.149578
-0.149654
-0.149803
-0.150076
-0.150425
-0.150699
-0.151006
-0.151374
-0.151653
-0.151856
-0.151988
-0.152132
-0.152306
-0.152412
-0.152465
-0.152494
-0.152507
-0.152511
-0.152513
-0.152518
-0.152529
-0.152546
-0.152568
-0.152596
-0.152631
-0.152658
-0.152649
-0.1526
-0.152523
-0.152432
-0.152315
-0.152166
-0.152034
-0.15195
-0.296822
-0.296838
-0.296908
-0.297045
-0.29722
-0.297403
-0.29757
-0.297663
-0.297712
-0.297753
-0.297789
-0.297817
-0.297842
-0.297886
-0.29793
-0.297968
-0.298006
-0.298047
-0.298089
-0.298135
-0.298185
-0.298239
-0.298301
-0.298373
-0.298449
-0.298514
-0.298555
-0.298569
-0.298566
-0.298529
-0.29846
-0.298388
-0.298293
-0.298203
-0.298151
-0.44373
-0.443747
-0.44378
-0.443833
-0.443899
-0.443957
-0.444
-0.444036
-0.444068
-0.444093
-0.444107
-0.444118
-0.444127
-0.444138
-0.44416
-0.444187
-0.444212
-0.444241
-0.444271
-0.444305
-0.444342
-0.444382
-0.444424
-0.444469
-0.444514
-0.444551
-0.444568
-0.444578
-0.444576
-0.444562
-0.444529
-0.444485
-0.444432
-0.444381
-0.444353
-0.589719
-0.589723
-0.589736
-0.589759
-0.589787
-0.589813
-0.589837
-0.589856
-0.589871
-0.589881
-0.589888
-0.58989
-0.589889
-0.589891
-0.589902
-0.589915
-0.589931
-0.589949
-0.589967
-0.589985
-0.590004
-0.590022
-0.590042
-0.590063
-0.590082
-0.590096
-0.590097
-0.590095
-0.590084
-0.590062
-0.590034
-0.590003
-0.589971
-0.589942
-0.589925
-0.735672
-0.735674
-0.735675
-0.735682
-0.735692
-0.735701
-0.735709
-0.735716
-0.735721
-0.735726
-0.73573
-0.735733
-0.735734
-0.735737
-0.735746
-0.73576
-0.735772
-0.735787
-0.735802
-0.735817
-0.735832
-0.735849
-0.735866
-0.735882
-0.735896
-0.735906
-0.735912
-0.735908
-0.735906
-0.735896
-0.735874
-0.735849
-0.735819
-0.735791
-0.735772
-0.88142
-0.881421
-0.881421
-0.881427
-0.881434
-0.881442
-0.881448
-0.881455
-0.88146
-0.881464
-0.881468
-0.881469
-0.88147
-0.881473
-0.881482
-0.881495
-0.88151
-0.881525
-0.881543
-0.881565
-0.881588
-0.881611
-0.881637
-0.881666
-0.881695
-0.881719
-0.881742
-0.881753
-0.881764
-0.881769
-0.88176
-0.881744
-0.88172
-0.881697
-0.881686
-1.02708
-1.02708
-1.02707
-1.02708
-1.02708
-1.02708
-1.02709
-1.02709
-1.02709
-1.02709
-1.0271
-1.0271
-1.0271
-1.0271
-1.02711
-1.02711
-1.02712
-1.02713
-1.02715
-1.02716
-1.02717
-1.02719
-1.0272
-1.02722
-1.02724
-1.02725
-1.02726
-1.02727
-1.02726
-1.02726
-1.02724
-1.02723
-1.02721
-1.0272
-1.02719
-1.17272
-1.17272
-1.17271
-1.17271
-1.17272
-1.17272
-1.17272
-1.17272
-1.17272
-1.17272
-1.17272
-1.17272
-1.17272
-1.17271
-1.17271
-1.17271
-1.17271
-1.17272
-1.17272
-1.17272
-1.17272
-1.17271
-1.17271
-1.17271
-1.17271
-1.17271
-1.17271
-1.1727
-1.17269
-1.17268
-1.17266
-1.17265
-1.17264
-1.17263
-1.17263
-1.31829
-1.31829
-1.31829
-1.31829
-1.31829
-1.31829
-1.31829
-1.31829
-1.31829
-1.31829
-1.3183
-1.31829
-1.31829
-1.31829
-1.31829
-1.3183
-1.3183
-1.3183
-1.3183
-1.3183
-1.3183
-1.3183
-1.3183
-1.3183
-1.3183
-1.3183
-1.3183
-1.31829
-1.31828
-1.31828
-1.31827
-1.31827
-1.31826
-1.31825
-1.31824
-1.46385
-1.46386
-1.46385
-1.46385
-1.46385
-1.46386
-1.46386
-1.46386
-1.46386
-1.46387
-1.46387
-1.46387
-1.46387
-1.46388
-1.46389
-1.46389
-1.4639
-1.46391
-1.46392
-1.46393
-1.46394
-1.46395
-1.46396
-1.46397
-1.46398
-1.46399
-1.464
-1.464
-1.464
-1.46399
-1.46399
-1.46398
-1.46397
-1.46396
-1.46395
-1.60941
-1.60941
-1.60941
-1.60942
-1.60942
-1.60943
-1.60943
-1.60944
-1.60944
-1.60945
-1.60946
-1.60946
-1.60947
-1.60949
-1.6095
-1.60953
-1.60955
-1.60958
-1.60961
-1.60964
-1.60967
-1.60971
-1.60975
-1.60979
-1.60983
-1.60986
-1.60989
-1.60991
-1.60993
-1.60994
-1.60994
-1.60994
-1.60993
-1.60992
-1.60992
-1.75492
-1.75492
-1.75492
-1.75493
-1.75493
-1.75494
-1.75495
-1.75495
-1.75496
-1.75496
-1.75497
-1.75498
-1.75499
-1.755
-1.75502
-1.75504
-1.75507
-1.75509
-1.75512
-1.75516
-1.75519
-1.75523
-1.75528
-1.75532
-1.75536
-1.75539
-1.75542
-1.75544
-1.75545
-1.75546
-1.75546
-1.75545
-1.75545
-1.75544
-1.75544
-1.90037
-1.90037
-1.90037
-1.90038
-1.90038
-1.90039
-1.90039
-1.9004
-1.9004
-1.90041
-1.90042
-1.90042
-1.90043
-1.90044
-1.90046
-1.90047
-1.90049
-1.90051
-1.90053
-1.90056
-1.90058
-1.9006
-1.90063
-1.90066
-1.90068
-1.90069
-1.90069
-1.9007
-1.9007
-1.9007
-1.9007
-1.90071
-1.90068
-1.90067
-1.90068
-2.04581
-2.04581
-2.04581
-2.04581
-2.04582
-2.04582
-2.04583
-2.04583
-2.04584
-2.04585
-2.04585
-2.04586
-2.04587
-2.04588
-2.0459
-2.04592
-2.04594
-2.04597
-2.04599
-2.04602
-2.04605
-2.04608
-2.04611
-2.04614
-2.04617
-2.04619
-2.0462
-2.04621
-2.04621
-2.04622
-2.04621
-2.0462
-2.04619
-2.04619
-2.0462
-2.1912
-2.1912
-2.1912
-2.19121
-2.19121
-2.19121
-2.19122
-2.19122
-2.19122
-2.19123
-2.19123
-2.19124
-2.19124
-2.19125
-2.19127
-2.19128
-2.1913
-2.19132
-2.19134
-2.19136
-2.19139
-2.19141
-2.19144
-2.19146
-2.19148
-2.1915
-2.1915
-2.19151
-2.19152
-2.19151
-2.19151
-2.19149
-2.19148
-2.19147
-2.19148
-2.33655
-2.33656
-2.33655
-2.33656
-2.33656
-2.33657
-2.33658
-2.33658
-2.33659
-2.33659
-2.3366
-2.3366
-2.33661
-2.33662
-2.33663
-2.33664
-2.33665
-2.33667
-2.33669
-2.33671
-2.33673
-2.33675
-2.33677
-2.33679
-2.33681
-2.33682
-2.33683
-2.33684
-2.33685
-2.33685
-2.33686
-2.33685
-2.33684
-2.33683
-2.33683
-2.4819
-2.4819
-2.4819
-2.4819
-2.48191
-2.48191
-2.48191
-2.48192
-2.48192
-2.48193
-2.48193
-2.48193
-2.48194
-2.48195
-2.48196
-2.48197
-2.48198
-2.48199
-2.482
-2.48201
-2.48202
-2.48204
-2.48205
-2.48207
-2.48208
-2.48208
-2.48209
-2.48209
-2.48209
-2.48209
-2.48208
-2.48208
-2.48208
-2.48208
-2.48208
-2.62723
-2.62724
-2.62724
-2.62724
-2.62724
-2.62724
-2.62724
-2.62724
-2.62725
-2.62725
-2.62725
-2.62726
-2.62726
-2.62727
-2.62727
-2.62728
-2.62728
-2.62729
-2.62729
-2.6273
-2.6273
-2.6273
-2.6273
-2.62731
-2.6273
-2.6273
-2.6273
-2.62729
-2.62727
-2.62726
-2.62726
-2.62726
-2.62728
-2.62727
-2.62728
-2.77258
-2.77258
-2.77258
-2.77258
-2.77258
-2.77259
-2.77259
-2.77259
-2.7726
-2.7726
-2.7726
-2.7726
-2.77261
-2.77261
-2.77262
-2.77263
-2.77263
-2.77264
-2.77265
-2.77266
-2.77267
-2.77268
-2.77269
-2.7727
-2.7727
-2.77271
-2.77271
-2.77271
-2.77271
-2.7727
-2.7727
-2.77269
-2.77269
-2.77269
-2.77269
-2.91793
-2.91793
-2.91792
-2.91793
-2.91793
-2.91793
-2.91794
-2.91794
-2.91794
-2.91794
-2.91794
-2.91794
-2.91794
-2.91794
-2.91794
-2.91794
-2.91795
-2.91795
-2.91795
-2.91795
-2.91796
-2.91796
-2.91797
-2.91797
-2.91797
-2.91797
-2.91797
-2.91797
-2.91797
-2.91797
-2.91798
-2.91798
-2.91798
-2.91798
-2.91799
-3.06327
-3.06327
-3.06327
-3.06327
-3.06327
-3.06327
-3.06327
-3.06327
-3.06327
-3.06327
-3.06327
-3.06327
-3.06327
-3.06327
-3.06327
-3.06327
-3.06328
-3.06328
-3.06328
-3.06328
-3.06328
-3.06328
-3.06328
-3.06328
-3.06328
-3.06328
-3.06328
-3.06328
-3.06329
-3.06331
-3.06332
-3.06333
-3.06333
-3.06332
-3.06333
-3.20861
-3.20862
-3.20862
-3.20862
-3.20861
-3.20861
-3.20861
-3.20862
-3.20862
-3.20862
-3.20862
-3.20862
-3.20862
-3.20862
-3.20862
-3.20862
-3.20863
-3.20863
-3.20863
-3.20864
-3.20864
-3.20865
-3.20865
-3.20866
-3.20866
-3.20866
-3.20866
-3.20867
-3.20867
-3.20866
-3.20865
-3.20865
-3.20864
-3.20863
-3.20863
-3.35395
-3.35395
-3.35395
-3.35394
-3.35395
-3.35395
-3.35395
-3.35395
-3.35396
-3.35396
-3.35395
-3.35395
-3.35395
-3.35395
-3.35395
-3.35395
-3.35395
-3.35395
-3.35394
-3.35394
-3.35394
-3.35394
-3.35394
-3.35393
-3.35393
-3.35393
-3.35393
-3.35392
-3.35392
-3.35391
-3.3539
-3.35389
-3.35389
-3.35388
-3.35389
-3.49928
-3.49928
-3.49928
-3.49928
-3.49928
-3.49928
-3.49928
-3.49928
-3.49928
-3.49928
-3.49928
-3.49928
-3.49928
-3.49928
-3.49928
-3.49928
-3.49928
-3.49928
-3.49927
-3.49927
-3.49927
-3.49926
-3.49926
-3.49925
-3.49925
-3.49924
-3.49924
-3.49924
-3.49924
-3.49925
-3.49926
-3.49926
-3.49926
-3.49926
-3.49927
-3.64464
-3.64464
-3.64464
-3.64464
-3.64464
-3.64464
-3.64464
-3.64463
-3.64464
-3.64464
-3.64464
-3.64464
-3.64464
-3.64464
-3.64464
-3.64464
-3.64464
-3.64464
-3.64464
-3.64465
-3.64465
-3.64465
-3.64465
-3.64465
-3.64465
-3.64464
-3.64464
-3.64464
-3.64464
-3.64463
-3.64462
-3.64461
-3.64462
-3.64462
-3.64463
-3.78999
-3.78999
-3.78999
-3.78999
-3.79
-3.79
-3.79
-3.79
-3.79
-3.79
-3.79
-3.79
-3.79
-3.79
-3.79
-3.79001
-3.79001
-3.79001
-3.79001
-3.79002
-3.79002
-3.79002
-3.79003
-3.79003
-3.79004
-3.79004
-3.79004
-3.79004
-3.79004
-3.79005
-3.79005
-3.79007
-3.79007
-3.79005
-3.79004
-3.93534
-3.93534
-3.93534
-3.93535
-3.93534
-3.93534
-3.93535
-3.93535
-3.93535
-3.93535
-3.93535
-3.93535
-3.93535
-3.93535
-3.93536
-3.93536
-3.93536
-3.93536
-3.93537
-3.93537
-3.93538
-3.93538
-3.93539
-3.93539
-3.93539
-3.93539
-3.93539
-3.93539
-3.9354
-3.9354
-3.93541
-3.93541
-3.93541
-3.9354
-3.9354
-4.08071
-4.08072
-4.08072
-4.08071
-4.0807
-4.0807
-4.0807
-4.0807
-4.08071
-4.08071
-4.08071
-4.08071
-4.08071
-4.08071
-4.08071
-4.08071
-4.08071
-4.08071
-4.08071
-4.08072
-4.08072
-4.08072
-4.08072
-4.08072
-4.08072
-4.08072
-4.08072
-4.08072
-4.08071
-4.08071
-4.08071
-4.0807
-4.0807
-4.08069
-4.0807
-4.22604
-4.22604
-4.22604
-4.22604
-4.22605
-4.22605
-4.22605
-4.22605
-4.22605
-4.22605
-4.22605
-4.22605
-4.22605
-4.22605
-4.22605
-4.22605
-4.22605
-4.22605
-4.22605
-4.22605
-4.22606
-4.22606
-4.22606
-4.22606
-4.22606
-4.22605
-4.22605
-4.22605
-4.22606
-4.22606
-4.22606
-4.22608
-4.22608
-4.22607
-4.22607
-4.37138
-4.37138
-4.37138
-4.37139
-4.37138
-4.37138
-4.37139
-4.37139
-4.37139
-4.3714
-4.3714
-4.3714
-4.3714
-4.3714
-4.37141
-4.37141
-4.37141
-4.37142
-4.37142
-4.37143
-4.37143
-4.37144
-4.37144
-4.37145
-4.37145
-4.37145
-4.37146
-4.37146
-4.37147
-4.37146
-4.37146
-4.37145
-4.37144
-4.37142
-4.37142
-4.51673
-4.51673
-4.51673
-4.51673
-4.51673
-4.51673
-4.51673
-4.51673
-4.51673
-4.51673
-4.51673
-4.51673
-4.51674
-4.51674
-4.51674
-4.51674
-4.51675
-4.51675
-4.51675
-4.51676
-4.51676
-4.51677
-4.51677
-4.51678
-4.51678
-4.51678
-4.51678
-4.51678
-4.51678
-4.51677
-4.51677
-4.51677
-4.51678
-4.51678
-4.51678
-4.66207
-4.66208
-4.66207
-4.66208
-4.66208
-4.66208
-4.66208
-4.66208
-4.66207
-4.66207
-4.66207
-4.66207
-4.66207
-4.66207
-4.66206
-4.66206
-4.66206
-4.66206
-4.66206
-4.66206
-4.66206
-4.66206
-4.66206
-4.66206
-4.66205
-4.66205
-4.66204
-4.66204
-4.66205
-4.66205
-4.66206
-4.66208
-4.66209
-4.66209
-4.66211
-4.8074
-4.8074
-4.8074
-4.80741
-4.8074
-4.8074
-4.80741
-4.80741
-4.80741
-4.80741
-4.80741
-4.80741
-4.80741
-4.80741
-4.80741
-4.80741
-4.80741
-4.80741
-4.80741
-4.80741
-4.80741
-4.80742
-4.80742
-4.80742
-4.80742
-4.80741
-4.80741
-4.80742
-4.80742
-4.80742
-4.80742
-4.8074
-4.80739
-4.80738
-4.80739
-4.95272
-4.95272
-4.95272
-4.95272
-4.95271
-4.95271
-4.95272
-4.95272
-4.95272
-4.95272
-4.95272
-4.95272
-4.95272
-4.95273
-4.95273
-4.95273
-4.95273
-4.95274
-4.95274
-4.95274
-4.95275
-4.95275
-4.95275
-4.95276
-4.95276
-4.95276
-4.95276
-4.95276
-4.95276
-4.95275
-4.95275
-4.95274
-4.95274
-4.95272
-4.95273
-5.09803
-5.09803
-5.09803
-5.09803
-5.09803
-5.09804
-5.09804
-5.09803
-5.09803
-5.09803
-5.09803
-5.09803
-5.09803
-5.09803
-5.09804
-5.09804
-5.09804
-5.09804
-5.09804
-5.09805
-5.09805
-5.09805
-5.09805
-5.09806
-5.09806
-5.09805
-5.09805
-5.09805
-5.09806
-5.09807
-5.09808
-5.09809
-5.09809
-5.09809
-5.09811
-5.24334
-5.24334
-5.24334
-5.24334
-5.24335
-5.24334
-5.24334
-5.24334
-5.24335
-5.24335
-5.24335
-5.24335
-5.24335
-5.24335
-5.24336
-5.24336
-5.24336
-5.24336
-5.24337
-5.24337
-5.24337
-5.24338
-5.24338
-5.24338
-5.24338
-5.24338
-5.24338
-5.24338
-5.24339
-5.24339
-5.24339
-5.24338
-5.24337
-5.24335
-5.24336
-5.38866
-5.38866
-5.38866
-5.38866
-5.38865
-5.38865
-5.38865
-5.38865
-5.38865
-5.38865
-5.38865
-5.38865
-5.38865
-5.38866
-5.38866
-5.38866
-5.38866
-5.38866
-5.38866
-5.38866
-5.38866
-5.38867
-5.38867
-5.38867
-5.38867
-5.38867
-5.38866
-5.38866
-5.38866
-5.38865
-5.38865
-5.38865
-5.38865
-5.38864
-5.38866
-5.53396
-5.53397
-5.53397
-5.53397
-5.53397
-5.53397
-5.53397
-5.53397
-5.53397
-5.53397
-5.53397
-5.53397
-5.53397
-5.53397
-5.53397
-5.53397
-5.53397
-5.53397
-5.53397
-5.53397
-5.53397
-5.53397
-5.53397
-5.53397
-5.53397
-5.53396
-5.53396
-5.53396
-5.53396
-5.53397
-5.53398
-5.53399
-5.53401
-5.534
-5.534
-5.67924
-5.67924
-5.67924
-5.67924
-5.67924
-5.67925
-5.67925
-5.67925
-5.67926
-5.67926
-5.67926
-5.67926
-5.67926
-5.67927
-5.67927
-5.67927
-5.67927
-5.67928
-5.67928
-5.67928
-5.67928
-5.67929
-5.67929
-5.67929
-5.67929
-5.67929
-5.67929
-5.67929
-5.6793
-5.6793
-5.6793
-5.67929
-5.67927
-5.67927
-5.67928
-5.82454
-5.82455
-5.82455
-5.82455
-5.82455
-5.82454
-5.82454
-5.82455
-5.82455
-5.82455
-5.82455
-5.82455
-5.82455
-5.82455
-5.82455
-5.82455
-5.82455
-5.82455
-5.82455
-5.82454
-5.82454
-5.82454
-5.82454
-5.82454
-5.82453
-5.82453
-5.82453
-5.82453
-5.82453
-5.82452
-5.82452
-5.82451
-5.8245
-5.82449
-5.8245
-5.96988
-5.96989
-5.96989
-5.96989
-5.96989
-5.96988
-5.96988
-5.96988
-5.96988
-5.96988
-5.96987
-5.96987
-5.96987
-5.96987
-5.96987
-5.96987
-5.96987
-5.96987
-5.96987
-5.96987
-5.96987
-5.96986
-5.96986
-5.96986
-5.96986
-5.96985
-5.96985
-5.96985
-5.96985
-5.96985
-5.96985
-5.96986
-5.96987
-5.96987
-5.96989
-6.11517
-6.11517
-6.11517
-6.11517
-6.11517
-6.11518
-6.11518
-6.11518
-6.11518
-6.11518
-6.11518
-6.11518
-6.11518
-6.11518
-6.11518
-6.11517
-6.11517
-6.11517
-6.11517
-6.11517
-6.11517
-6.11517
-6.11517
-6.11517
-6.11517
-6.11517
-6.11517
-6.11517
-6.11517
-6.11518
-6.11518
-6.11518
-6.11518
-6.11517
-6.11518
-6.26045
-6.26046
-6.26045
-6.26045
-6.26045
-6.26045
-6.26046
-6.26046
-6.26046
-6.26046
-6.26046
-6.26045
-6.26045
-6.26045
-6.26045
-6.26044
-6.26044
-6.26044
-6.26043
-6.26043
-6.26043
-6.26043
-6.26042
-6.26042
-6.26042
-6.26041
-6.26041
-6.26041
-6.26041
-6.26042
-6.26042
-6.26042
-6.26042
-6.2604
-6.26042
-6.40574
-6.40575
-6.40575
-6.40575
-6.40574
-6.40574
-6.40574
-6.40574
-6.40574
-6.40574
-6.40574
-6.40574
-6.40574
-6.40574
-6.40574
-6.40574
-6.40574
-6.40574
-6.40574
-6.40574
-6.40574
-6.40574
-6.40575
-6.40575
-6.40575
-6.40574
-6.40574
-6.40574
-6.40575
-6.40574
-6.40574
-6.40572
-6.40573
-6.40572
-6.40573
-6.55101
-6.55102
-6.55102
-6.55101
-6.55101
-6.55101
-6.55101
-6.55101
-6.55101
-6.55101
-6.55101
-6.55101
-6.55102
-6.55102
-6.55102
-6.55102
-6.55102
-6.55102
-6.55102
-6.55102
-6.55102
-6.55102
-6.55102
-6.55102
-6.55102
-6.55101
-6.55101
-6.55101
-6.55101
-6.55101
-6.55101
-6.551
-6.55099
-6.55098
-6.55098
-6.6963
-6.6963
-6.69629
-6.69629
-6.69629
-6.69629
-6.6963
-6.6963
-6.6963
-6.69629
-6.69629
-6.69629
-6.69629
-6.69629
-6.69629
-6.69629
-6.69629
-6.69629
-6.69629
-6.69629
-6.69629
-6.69628
-6.69628
-6.69628
-6.69628
-6.69627
-6.69626
-6.69626
-6.69626
-6.69627
-6.69628
-6.69629
-6.69629
-6.69628
-6.69628
-6.84157
-6.84157
-6.84156
-6.84157
-6.84157
-6.84157
-6.84157
-6.84157
-6.84158
-6.84158
-6.84158
-6.84158
-6.84158
-6.84158
-6.84159
-6.84159
-6.84159
-6.8416
-6.8416
-6.84161
-6.84161
-6.84162
-6.84162
-6.84163
-6.84163
-6.84163
-6.84163
-6.84163
-6.84163
-6.84162
-6.84161
-6.84161
-6.84161
-6.8416
-6.84161
-6.98685
-6.98685
-6.98686
-6.98686
-6.98685
-6.98686
-6.98685
-6.98685
-6.98685
-6.98686
-6.98686
-6.98686
-6.98686
-6.98686
-6.98686
-6.98686
-6.98686
-6.98686
-6.98686
-6.98686
-6.98686
-6.98687
-6.98687
-6.98687
-6.98687
-6.98687
-6.98687
-6.98687
-6.98688
-6.98688
-6.98689
-6.98689
-6.98689
-6.98688
-6.98689
-7.13213
-7.13213
-7.13213
-7.13213
-7.13213
-7.13213
-7.13213
-7.13213
-7.13213
-7.13212
-7.13212
-7.13212
-7.13212
-7.13212
-7.13212
-7.13212
-7.13212
-7.13212
-7.13212
-7.13212
-7.13212
-7.13212
-7.13212
-7.13213
-7.13212
-7.13212
-7.13212
-7.13212
-7.13213
-7.13214
-7.13215
-7.13216
-7.13216
-7.13214
-7.13215
-7.27734
-7.27734
-7.27734
-7.27734
-7.27734
-7.27734
-7.27734
-7.27734
-7.27735
-7.27735
-7.27735
-7.27736
-7.27736
-7.27736
-7.27737
-7.27737
-7.27737
-7.27738
-7.27738
-7.27738
-7.27739
-7.27739
-7.2774
-7.2774
-7.2774
-7.2774
-7.2774
-7.2774
-7.2774
-7.2774
-7.27739
-7.27739
-7.27738
-7.27736
-7.27738
-7.4226
-7.4226
-7.4226
-7.4226
-7.4226
-7.4226
-7.4226
-7.4226
-7.4226
-7.4226
-7.4226
-7.4226
-7.4226
-7.4226
-7.4226
-7.4226
-7.4226
-7.4226
-7.4226
-7.4226
-7.4226
-7.4226
-7.4226
-7.4226
-7.4226
-7.42259
-7.42259
-7.42258
-7.42258
-7.42258
-7.42258
-7.42257
-7.42258
-7.42258
-7.4226
-7.56787
-7.56788
-7.56787
-7.56787
-7.56787
-7.56788
-7.56788
-7.56788
-7.56788
-7.56787
-7.56787
-7.56787
-7.56787
-7.56787
-7.56787
-7.56787
-7.56786
-7.56786
-7.56786
-7.56786
-7.56786
-7.56786
-7.56786
-7.56786
-7.56785
-7.56785
-7.56784
-7.56784
-7.56785
-7.56786
-7.56786
-7.56786
-7.56784
-7.56782
-7.56783
-7.71309
-7.71311
-7.7131
-7.7131
-7.7131
-7.71311
-7.71311
-7.71311
-7.71311
-7.71312
-7.71312
-7.71312
-7.71312
-7.71312
-7.71312
-7.71312
-7.71312
-7.71312
-7.71312
-7.71312
-7.71312
-7.71312
-7.71313
-7.71313
-7.71313
-7.71313
-7.71312
-7.71313
-7.71313
-7.71313
-7.71312
-7.71312
-7.71314
-7.71312
-7.71312
-7.85836
-7.85837
-7.85836
-7.85837
-7.85836
-7.85836
-7.85836
-7.85836
-7.85836
-7.85836
-7.85836
-7.85836
-7.85836
-7.85836
-7.85836
-7.85836
-7.85836
-7.85836
-7.85835
-7.85835
-7.85835
-7.85835
-7.85835
-7.85835
-7.85834
-7.85834
-7.85834
-7.85833
-7.85833
-7.85833
-7.85834
-7.85835
-7.85836
-7.85836
-7.85839
-8.00362
-8.00363
-8.00363
-8.00363
-8.00362
-8.00362
-8.00362
-8.00362
-8.00362
-8.00362
-8.00361
-8.00361
-8.00361
-8.00361
-8.00361
-8.00361
-8.00361
-8.00361
-8.00361
-8.00361
-8.00361
-8.00361
-8.00361
-8.00362
-8.00361
-8.00361
-8.0036
-8.00361
-8.00362
-8.00363
-8.00364
-8.00363
-8.00362
-8.0036
-8.00362
-8.14883
-8.14884
-8.14883
-8.14883
-8.14883
-8.14883
-8.14883
-8.14884
-8.14884
-8.14884
-8.14884
-8.14885
-8.14885
-8.14885
-8.14885
-8.14885
-8.14886
-8.14886
-8.14886
-8.14887
-8.14887
-8.14888
-8.14888
-8.14889
-8.14889
-8.14889
-8.14889
-8.14889
-8.1489
-8.14889
-8.14888
-8.14888
-8.14888
-8.14885
-8.14884
-8.29405
-8.29406
-8.29406
-8.29406
-8.29406
-8.29406
-8.29406
-8.29407
-8.29407
-8.29407
-8.29407
-8.29407
-8.29407
-8.29407
-8.29408
-8.29408
-8.29408
-8.29408
-8.29409
-8.29409
-8.29409
-8.2941
-8.2941
-8.29411
-8.29411
-8.29411
-8.29411
-8.29411
-8.2941
-8.2941
-8.2941
-8.2941
-8.29411
-8.2941
-8.29411
-8.43929
-8.43929
-8.43929
-8.43929
-8.4393
-8.4393
-8.4393
-8.4393
-8.4393
-8.4393
-8.4393
-8.4393
-8.4393
-8.4393
-8.4393
-8.4393
-8.43931
-8.43931
-8.43931
-8.43932
-8.43932
-8.43933
-8.43933
-8.43934
-8.43934
-8.43934
-8.43934
-8.43934
-8.43934
-8.43935
-8.43936
-8.43937
-8.43936
-8.43936
-8.43939
-8.58449
-8.5845
-8.5845
-8.5845
-8.5845
-8.5845
-8.5845
-8.5845
-8.5845
-8.5845
-8.5845
-8.5845
-8.5845
-8.5845
-8.5845
-8.58451
-8.58451
-8.58451
-8.58451
-8.58451
-8.58452
-8.58452
-8.58452
-8.58453
-8.58452
-8.58452
-8.58452
-8.58452
-8.58452
-8.58451
-8.58451
-8.58451
-8.58451
-8.58449
-8.58453
-8.72969
-8.7297
-8.72969
-8.72968
-8.72968
-8.72969
-8.72969
-8.72969
-8.7297
-8.7297
-8.72971
-8.72971
-8.72971
-8.72971
-8.72971
-8.72971
-8.72971
-8.72971
-8.72971
-8.72971
-8.72972
-8.72972
-8.72972
-8.72972
-8.72972
-8.72972
-8.72972
-8.72973
-8.72974
-8.72974
-8.72974
-8.72974
-8.72973
-8.72969
-8.72972
-8.87489
-8.87491
-8.8749
-8.8749
-8.8749
-8.8749
-8.8749
-8.8749
-8.8749
-8.8749
-8.8749
-8.8749
-8.8749
-8.8749
-8.87491
-8.87491
-8.87491
-8.87491
-8.87492
-8.87492
-8.87492
-8.87493
-8.87493
-8.87493
-8.87493
-8.87493
-8.87493
-8.87493
-8.87493
-8.87493
-8.87493
-8.87493
-8.87493
-8.87492
-8.87495
-9.0201
-9.02011
-9.02011
-9.02011
-9.02011
-9.0201
-9.0201
-9.0201
-9.0201
-9.0201
-9.0201
-9.02009
-9.02009
-9.02009
-9.02009
-9.02009
-9.02009
-9.02009
-9.02009
-9.02009
-9.02008
-9.02008
-9.02008
-9.02008
-9.02007
-9.02007
-9.02006
-9.02006
-9.02006
-9.02006
-9.02006
-9.02006
-9.02006
-9.02002
-9.02004
-9.16528
-9.16529
-9.16529
-9.16529
-9.16529
-9.16529
-9.16529
-9.16529
-9.1653
-9.16529
-9.16529
-9.16529
-9.16529
-9.16529
-9.16529
-9.16529
-9.16529
-9.16529
-9.16528
-9.16528
-9.16528
-9.16528
-9.16528
-9.16527
-9.16527
-9.16526
-9.16526
-9.16526
-9.16526
-9.16526
-9.16527
-9.16527
-9.16528
-9.16529
-9.16531
-9.31046
-9.31047
-9.31046
-9.31046
-9.31046
-9.31046
-9.31046
-9.31046
-9.31047
-9.31047
-9.31047
-9.31047
-9.31047
-9.31048
-9.31048
-9.31048
-9.31048
-9.31048
-9.31048
-9.31048
-9.31048
-9.31048
-9.31048
-9.31048
-9.31048
-9.31047
-9.31047
-9.31047
-9.31047
-9.31048
-9.31049
-9.3105
-9.3105
-9.31046
-9.31048
-9.45566
-9.45567
-9.45567
-9.45568
-9.45567
-9.45567
-9.45567
-9.45567
-9.45567
-9.45567
-9.45567
-9.45567
-9.45567
-9.45567
-9.45567
-9.45567
-9.45567
-9.45567
-9.45567
-9.45567
-9.45567
-9.45567
-9.45568
-9.45567
-9.45567
-9.45567
-9.45567
-9.45567
-9.45568
-9.45567
-9.45566
-9.45564
-9.45563
-9.4556
-9.45561
-9.60088
-9.60089
-9.60088
-9.60088
-9.60088
-9.60088
-9.60088
-9.60088
-9.60088
-9.60088
-9.60088
-9.60088
-9.60088
-9.60088
-9.60088
-9.60088
-9.60088
-9.60088
-9.60088
-9.60088
-9.60088
-9.60088
-9.60088
-9.60089
-9.60089
-9.60088
-9.60088
-9.60089
-9.60089
-9.6009
-9.6009
-9.60091
-9.60092
-9.60087
-9.60088
-9.74604
-9.74605
-9.74604
-9.74603
-9.74604
-9.74604
-9.74604
-9.74604
-9.74604
-9.74604
-9.74604
-9.74604
-9.74605
-9.74605
-9.74605
-9.74605
-9.74605
-9.74605
-9.74605
-9.74605
-9.74605
-9.74605
-9.74606
-9.74606
-9.74605
-9.74605
-9.74605
-9.74605
-9.74605
-9.74606
-9.74607
-9.74605
-9.74606
-9.74606
-9.7461
-9.89124
-9.89126
-9.89126
-9.89126
-9.89126
-9.89126
-9.89126
-9.89125
-9.89125
-9.89125
-9.89125
-9.89125
-9.89125
-9.89125
-9.89125
-9.89126
-9.89126
-9.89126
-9.89126
-9.89126
-9.89126
-9.89126
-9.89126
-9.89126
-9.89126
-9.89125
-9.89125
-9.89125
-9.89125
-9.89124
-9.89123
-9.89122
-9.89121
-9.89119
-9.8912
-10.0365
-10.0365
-10.0365
-10.0365
-10.0364
-10.0364
-10.0365
-10.0365
-10.0364
-10.0364
-10.0365
-10.0365
-10.0365
-10.0364
-10.0364
-10.0364
-10.0364
-10.0365
-10.0365
-10.0365
-10.0365
-10.0365
-10.0365
-10.0365
-10.0365
-10.0365
-10.0365
-10.0365
-10.0365
-10.0365
-10.0364
-10.0364
-10.0364
-10.0364
-10.0364
-10.1816
-10.1816
-10.1816
-10.1816
-10.1816
-10.1816
-10.1816
-10.1816
-10.1816
-10.1816
-10.1816
-10.1816
-10.1816
-10.1816
-10.1816
-10.1816
-10.1816
-10.1816
-10.1816
-10.1816
-10.1816
-10.1816
-10.1816
-10.1816
-10.1816
-10.1816
-10.1816
-10.1816
-10.1816
-10.1816
-10.1816
-10.1816
-10.1816
-10.1816
-10.1816
-10.3268
-10.3268
-10.3267
-10.3268
-10.3268
-10.3268
-10.3268
-10.3268
-10.3268
-10.3268
-10.3268
-10.3268
-10.3268
-10.3268
-10.3268
-10.3268
-10.3268
-10.3268
-10.3268
-10.3268
-10.3268
-10.3268
-10.3268
-10.3268
-10.3268
-10.3268
-10.3268
-10.3268
-10.3268
-10.3268
-10.3268
-10.3268
-10.3268
-10.3268
-10.3269
-10.4719
-10.4719
-10.4719
-10.472
-10.472
-10.472
-10.472
-10.472
-10.472
-10.4719
-10.4719
-10.4719
-10.4719
-10.472
-10.472
-10.472
-10.472
-10.472
-10.472
-10.472
-10.472
-10.472
-10.472
-10.472
-10.472
-10.472
-10.472
-10.472
-10.472
-10.472
-10.472
-10.472
-10.472
-10.472
-10.472
-10.6171
-10.6171
-10.6171
-10.6171
-10.6171
-10.6171
-10.6171
-10.6171
-10.6171
-10.6171
-10.6171
-10.6171
-10.6171
-10.6171
-10.6171
-10.6171
-10.6171
-10.6171
-10.6171
-10.6171
-10.6171
-10.6171
-10.6171
-10.6171
-10.6171
-10.6171
-10.6171
-10.6171
-10.6171
-10.6171
-10.6171
-10.6171
-10.6171
-10.6171
-10.6171
-10.7623
-10.7623
-10.7622
-10.7622
-10.7622
-10.7622
-10.7622
-10.7622
-10.7622
-10.7623
-10.7623
-10.7623
-10.7623
-10.7623
-10.7623
-10.7623
-10.7623
-10.7623
-10.7623
-10.7623
-10.7623
-10.7623
-10.7623
-10.7623
-10.7623
-10.7623
-10.7623
-10.7623
-10.7623
-10.7623
-10.7623
-10.7623
-10.7623
-10.7622
-10.7623
-10.9075
-10.9075
-10.9075
-10.9075
-10.9075
-10.9075
-10.9075
-10.9075
-10.9074
-10.9074
-10.9074
-10.9074
-10.9074
-10.9074
-10.9074
-10.9074
-10.9074
-10.9074
-10.9074
-10.9074
-10.9074
-10.9074
-10.9074
-10.9074
-10.9074
-10.9074
-10.9074
-10.9074
-10.9074
-10.9074
-10.9074
-10.9074
-10.9074
-10.9074
-10.9074
-11.0526
-11.0526
-11.0526
-11.0526
-11.0526
-11.0526
-11.0526
-11.0526
-11.0526
-11.0526
-11.0526
-11.0526
-11.0526
-11.0526
-11.0526
-11.0526
-11.0526
-11.0526
-11.0526
-11.0526
-11.0526
-11.0526
-11.0526
-11.0526
-11.0526
-11.0526
-11.0526
-11.0526
-11.0526
-11.0526
-11.0526
-11.0526
-11.0526
-11.0525
-11.0526
-11.1977
-11.1977
-11.1977
-11.1977
-11.1977
-11.1977
-11.1977
-11.1977
-11.1977
-11.1977
-11.1977
-11.1977
-11.1977
-11.1977
-11.1977
-11.1977
-11.1977
-11.1977
-11.1977
-11.1978
-11.1978
-11.1978
-11.1978
-11.1978
-11.1978
-11.1978
-11.1978
-11.1978
-11.1978
-11.1978
-11.1978
-11.1978
-11.1978
-11.1978
-11.1978
-11.3428
-11.3428
-11.3429
-11.3429
-11.3428
-11.3428
-11.3428
-11.3428
-11.3428
-11.3428
-11.3428
-11.3429
-11.3429
-11.3429
-11.3429
-11.3429
-11.3429
-11.3429
-11.3429
-11.3429
-11.3429
-11.3429
-11.3429
-11.3429
-11.3429
-11.3429
-11.3429
-11.3429
-11.3429
-11.3429
-11.3429
-11.3429
-11.3429
-11.3429
-11.3429
-11.488
-11.488
-11.488
-11.488
-11.488
-11.488
-11.488
-11.488
-11.488
-11.488
-11.488
-11.488
-11.488
-11.488
-11.488
-11.488
-11.488
-11.488
-11.488
-11.488
-11.488
-11.488
-11.488
-11.488
-11.488
-11.488
-11.488
-11.488
-11.488
-11.488
-11.488
-11.488
-11.4881
-11.488
-11.488
-11.6331
-11.6331
-11.6331
-11.6331
-11.6331
-11.6331
-11.6331
-11.6331
-11.6331
-11.6331
-11.6331
-11.6331
-11.6331
-11.6331
-11.6331
-11.6331
-11.6331
-11.6331
-11.6331
-11.6331
-11.6331
-11.6331
-11.6331
-11.6331
-11.6331
-11.6331
-11.6331
-11.6331
-11.6331
-11.6331
-11.6331
-11.6331
-11.6331
-11.6331
-11.6332
-11.7783
-11.7783
-11.7783
-11.7783
-11.7783
-11.7783
-11.7783
-11.7783
-11.7783
-11.7783
-11.7783
-11.7783
-11.7783
-11.7783
-11.7783
-11.7783
-11.7783
-11.7783
-11.7783
-11.7783
-11.7783
-11.7783
-11.7783
-11.7783
-11.7783
-11.7783
-11.7783
-11.7783
-11.7783
-11.7783
-11.7783
-11.7783
-11.7783
-11.7783
-11.7783
-11.9234
-11.9234
-11.9234
-11.9234
-11.9234
-11.9234
-11.9234
-11.9234
-11.9234
-11.9234
-11.9234
-11.9234
-11.9234
-11.9234
-11.9234
-11.9234
-11.9234
-11.9234
-11.9234
-11.9234
-11.9234
-11.9234
-11.9234
-11.9234
-11.9234
-11.9234
-11.9234
-11.9234
-11.9234
-11.9234
-11.9234
-11.9234
-11.9234
-11.9234
-11.9234
-12.0685
-12.0685
-12.0685
-12.0685
-12.0685
-12.0685
-12.0685
-12.0685
-12.0685
-12.0685
-12.0685
-12.0685
-12.0685
-12.0685
-12.0685
-12.0685
-12.0685
-12.0685
-12.0685
-12.0685
-12.0685
-12.0685
-12.0685
-12.0685
-12.0685
-12.0685
-12.0685
-12.0685
-12.0685
-12.0685
-12.0685
-12.0685
-12.0685
-12.0685
-12.0685
-12.2137
-12.2137
-12.2137
-12.2137
-12.2137
-12.2137
-12.2137
-12.2137
-12.2137
-12.2137
-12.2137
-12.2137
-12.2137
-12.2137
-12.2137
-12.2137
-12.2137
-12.2137
-12.2137
-12.2137
-12.2137
-12.2137
-12.2137
-12.2137
-12.2137
-12.2137
-12.2137
-12.2137
-12.2137
-12.2137
-12.2137
-12.2137
-12.2137
-12.2137
-12.2137
-12.3588
-12.3588
-12.3588
-12.3588
-12.3588
-12.3588
-12.3588
-12.3588
-12.3588
-12.3588
-12.3588
-12.3588
-12.3588
-12.3588
-12.3588
-12.3588
-12.3588
-12.3588
-12.3588
-12.3588
-12.3588
-12.3588
-12.3588
-12.3588
-12.3588
-12.3588
-12.3588
-12.3588
-12.3588
-12.3588
-12.3588
-12.3588
-12.3588
-12.3588
-12.3588
-12.5039
-12.5039
-12.5039
-12.5039
-12.5039
-12.5039
-12.5039
-12.5039
-12.5039
-12.5039
-12.5039
-12.5039
-12.5039
-12.5039
-12.5039
-12.5039
-12.5039
-12.5039
-12.5039
-12.5039
-12.5039
-12.5039
-12.5039
-12.5039
-12.5039
-12.5039
-12.5039
-12.5039
-12.5039
-12.5039
-12.5039
-12.5039
-12.504
-12.5039
-12.5039
-12.649
-12.649
-12.649
-12.649
-12.649
-12.649
-12.649
-12.649
-12.649
-12.649
-12.649
-12.649
-12.649
-12.649
-12.649
-12.649
-12.649
-12.649
-12.649
-12.649
-12.649
-12.6491
-12.6491
-12.6491
-12.6491
-12.6491
-12.6491
-12.6491
-12.6491
-12.649
-12.649
-12.649
-12.649
-12.649
-12.6491
-12.7941
-12.7941
-12.7941
-12.7941
-12.7941
-12.7941
-12.7941
-12.7941
-12.7941
-12.7941
-12.7941
-12.7941
-12.7941
-12.7941
-12.7941
-12.7941
-12.7941
-12.7941
-12.7941
-12.7941
-12.7941
-12.7941
-12.7941
-12.7941
-12.7941
-12.7941
-12.7941
-12.7941
-12.7941
-12.7942
-12.7942
-12.7942
-12.7942
-12.7941
-12.7942
-12.9392
-12.9393
-12.9393
-12.9393
-12.9393
-12.9393
-12.9393
-12.9393
-12.9393
-12.9393
-12.9393
-12.9393
-12.9393
-12.9393
-12.9393
-12.9393
-12.9393
-12.9393
-12.9393
-12.9393
-12.9393
-12.9393
-12.9393
-12.9393
-12.9393
-12.9393
-12.9393
-12.9393
-12.9393
-12.9393
-12.9393
-12.9393
-12.9393
-12.9393
-12.9393
-13.0844
-13.0844
-13.0844
-13.0844
-13.0844
-13.0844
-13.0844
-13.0844
-13.0844
-13.0844
-13.0844
-13.0844
-13.0844
-13.0844
-13.0844
-13.0844
-13.0844
-13.0844
-13.0844
-13.0844
-13.0844
-13.0844
-13.0844
-13.0844
-13.0844
-13.0844
-13.0844
-13.0844
-13.0844
-13.0844
-13.0843
-13.0843
-13.0843
-13.0843
-13.0844
-13.2294
-13.2295
-13.2295
-13.2295
-13.2295
-13.2295
-13.2295
-13.2295
-13.2295
-13.2295
-13.2295
-13.2295
-13.2295
-13.2295
-13.2295
-13.2295
-13.2295
-13.2295
-13.2295
-13.2295
-13.2295
-13.2295
-13.2295
-13.2295
-13.2295
-13.2295
-13.2295
-13.2294
-13.2295
-13.2295
-13.2295
-13.2294
-13.2295
-13.2294
-13.2295
-13.3746
-13.3746
-13.3746
-13.3746
-13.3746
-13.3746
-13.3746
-13.3746
-13.3746
-13.3746
-13.3746
-13.3746
-13.3746
-13.3746
-13.3746
-13.3746
-13.3746
-13.3746
-13.3746
-13.3746
-13.3746
-13.3746
-13.3746
-13.3746
-13.3746
-13.3746
-13.3746
-13.3746
-13.3746
-13.3746
-13.3746
-13.3746
-13.3746
-13.3746
-13.3746
-13.5197
-13.5197
-13.5197
-13.5197
-13.5197
-13.5197
-13.5197
-13.5197
-13.5197
-13.5197