/*--------------------------------*- C++ -*----------------------------------*\
  =========                 |
  \\      /  F ield         | OpenFOAM: The Open Source CFD Toolbox
   \\    /   O peration     | Website:  https://openfoam.org
    \\  /    A nd           | Version:  13
     \\/     M anipulation  |
\*---------------------------------------------------------------------------*/
FoamFile
{
    format      ascii;
    class       volVectorField;
    location    "8";
    object      U;
}
// * * * * * * * * * * * * * * * * * * * * * * * * * * * * * * * * * * * * * //

dimensions      [0 1 -1 0 0 0 0];

internalField   nonuniform List<vector> 
78750
(
(-0.000791953 -0.00569039 0.00801442)
(0.00352479 -0.025073 0.0130007)
(0.0101237 -0.0392473 0.0129289)
(0.0188905 -0.0462569 0.0114341)
(0.028159 -0.0476985 0.00978949)
(0.0382236 -0.0452522 0.00836635)
(0.0451554 -0.042449 0.00737895)
(0.0533214 -0.0361291 0.00704353)
(0.057421 -0.0332183 0.00754924)
(0.063051 -0.024166 0.00807068)
(0.0645362 -0.0186136 0.00755895)
(0.0662256 -0.0140475 0.00664138)
(0.0660038 -0.0112316 0.00561723)
(0.0668365 -0.00764976 0.00491143)
(0.0654192 -0.00569122 0.00406654)
(0.064899 -0.00282438 0.00366981)
(0.0637074 0.00112475 0.00353743)
(0.0622899 0.00519201 0.00346214)
(0.0606612 0.00837148 0.0033155)
(0.0588951 0.0103337 0.00309883)
(0.0571139 0.0111878 0.00286097)
(0.0553644 0.0112596 0.0026755)
(0.0537323 0.0108977 0.00259069)
(0.0521417 0.0103762 0.00259013)
(0.0507087 0.00984729 0.00262986)
(0.0491518 0.00958893 0.00271624)
(0.0476088 0.00959754 0.00282887)
(0.0455996 0.010483 0.00297302)
(0.0432644 0.011633 0.00312474)
(0.0400643 0.0147574 0.00333598)
(0.0359742 0.0178765 0.00336137)
(0.0307457 0.0211928 0.00344472)
(0.0235116 0.0274595 0.00358361)
(0.0139316 0.0332696 0.00336706)
(0.00489263 0.0309477 0.00226535)
(0.000760454 -0.0156253 0.00404771)
(0.00608722 -0.0610645 0.00410399)
(0.0116488 -0.084804 0.00334257)
(0.0173918 -0.0900401 0.00357535)
(0.0204255 -0.0885241 0.00387237)
(0.0242384 -0.079266 0.00455952)
(0.0275027 -0.0651025 0.00518136)
(0.0278124 -0.0525585 0.0052625)
(0.0292354 -0.0396555 0.00552407)
(0.0292938 -0.0274244 0.00603129)
(0.0292032 -0.015119 0.00690954)
(0.0287327 -0.00267176 0.00722705)
(0.0273657 0.00579143 0.00585106)
(0.0267502 0.0091071 0.00501468)
(0.026325 0.0117791 0.00462979)
(0.0258558 0.0131741 0.00462913)
(0.0256769 0.0137835 0.00481835)
(0.0257972 0.0139432 0.00505646)
(0.0261634 0.0137298 0.005299)
(0.0266882 0.0131555 0.00551769)
(0.0272826 0.0123081 0.00570101)
(0.0278761 0.0113437 0.00586521)
(0.0284151 0.0104146 0.00604335)
(0.0288568 0.009604 0.00626919)
(0.0291174 0.00928836 0.00642007)
(0.0291441 0.0102771 0.00620355)
(0.0289534 0.0127282 0.00578962)
(0.0284183 0.0168202 0.00547412)
(0.0273916 0.0226557 0.00527348)
(0.025545 0.0312828 0.00519327)
(0.0231698 0.042869 0.00507325)
(0.0194168 0.0580517 0.00488536)
(0.0148071 0.0763544 0.00463921)
(0.00805582 0.0921993 0.0039572)
(0.00180643 0.0786218 0.00243965)
(0.000663335 -0.0416031 0.00271047)
(0.00341275 -0.09788 0.00246138)
(0.00588885 -0.108373 0.00170327)
(0.00737624 -0.10532 0.00138856)
(0.00906518 -0.0961259 0.00134389)
(0.00935656 -0.0840553 0.00144453)
(0.00989999 -0.0700053 0.00215452)
(0.0107065 -0.0550752 0.0031399)
(0.0105615 -0.0402126 0.00392497)
(0.0103812 -0.0255626 0.00436618)
(0.0100571 -0.0132725 0.0042017)
(0.0100176 -0.00650009 0.00365851)
(0.0104607 -0.00346372 0.00315477)
(0.0111268 -0.00218018 0.00293947)
(0.0120098 -0.00126594 0.00293439)
(0.01291 -0.00071038 0.00303255)
(0.0138473 -0.000381302 0.00317732)
(0.0148079 -0.000205052 0.0033563)
(0.01577 -0.00014184 0.00355971)
(0.016707 -0.000148654 0.00377907)
(0.0175939 -0.000162901 0.00401104)
(0.018409 -7.28738e-05 0.00424274)
(0.0191183 0.000307352 0.00443902)
(0.0196775 0.00123864 0.00455942)
(0.0200825 0.00298386 0.00462058)
(0.0203384 0.00591428 0.00471854)
(0.0203559 0.0105587 0.00495255)
(0.0201345 0.0175635 0.0053237)
(0.0191613 0.0274413 0.00574072)
(0.0182157 0.0389836 0.00602315)
(0.0159816 0.0562942 0.00632205)
(0.0130901 0.077635 0.00626213)
(0.00935322 0.102243 0.005917)
(0.00454025 0.122987 0.00504026)
(0.000605187 0.0988623 0.00292789)
(0.000545457 -0.0484711 0.00115062)
(0.00161235 -0.103756 0.000968901)
(0.00256314 -0.116959 0.000870246)
(0.00343713 -0.11471 0.000843561)
(0.00419337 -0.105327 0.000871912)
(0.00493228 -0.0911607 0.00103513)
(0.00536453 -0.0753645 0.00126718)
(0.00567633 -0.0595197 0.00151879)
(0.00595622 -0.0445154 0.00178688)
(0.00642506 -0.030723 0.00222471)
(0.00704549 -0.0188739 0.00257412)
(0.00774224 -0.0106543 0.0025768)
(0.00837814 -0.00677189 0.00234214)
(0.00895467 -0.00512985 0.00212117)
(0.00949291 -0.0043313 0.00205966)
(0.0101079 -0.00376532 0.00213491)
(0.010684 -0.00349354 0.00226964)
(0.0112625 -0.00340839 0.00243989)
(0.0118298 -0.00341863 0.0026334)
(0.0123782 -0.00343734 0.00284244)
(0.0128889 -0.00339332 0.00305469)
(0.0133553 -0.00315882 0.0032622)
(0.0137727 -0.00257455 0.00344862)
(0.014122 -0.00144673 0.00358787)
(0.0143699 0.00043802 0.00368376)
(0.0144923 0.00367359 0.00385307)
(0.0145069 0.00950875 0.00423351)
(0.0143431 0.0183053 0.00475631)
(0.0138192 0.0307506 0.00527691)
(0.0128748 0.0471615 0.00604683)
(0.0111614 0.0695275 0.00679511)
(0.00865832 0.0983116 0.00706951)
(0.00563273 0.128452 0.00665851)
(0.00234133 0.146911 0.00547175)
(7.1205e-05 0.107998 0.0028964)
(0.000137524 -0.0551712 0.000524912)
(0.000819171 -0.111308 -5.70605e-05)
(0.0013888 -0.121052 -0.000354164)
(0.00181078 -0.116967 -0.000429248)
(0.00219076 -0.106312 -0.000451778)
(0.00249279 -0.0918157 -0.000425552)
(0.00279545 -0.0758825 -0.000333468)
(0.0031249 -0.0601095 -0.000145569)
(0.00348476 -0.0455304 0.000137501)
(0.0038791 -0.0329004 0.000445969)
(0.00437044 -0.0229353 0.000717651)
(0.00497957 -0.0163004 0.000869899)
(0.00562675 -0.0127979 0.000899486)
(0.00623504 -0.0111116 0.000887961)
(0.00683127 -0.0101856 0.000914953)
(0.00745031 -0.00965167 0.00100275)
(0.00800693 -0.00937106 0.00112608)
(0.00859122 -0.00917995 0.00129486)
(0.00912862 -0.0090574 0.0014708)
(0.00963825 -0.00890511 0.00165094)
(0.0101143 -0.00861179 0.00183205)
(0.0105658 -0.0080905 0.0019942)
(0.0109195 -0.00724582 0.00209448)
(0.0112484 -0.00551549 0.00216822)
(0.0114578 -0.00261256 0.00224432)
(0.0114858 0.00242078 0.00238236)
(0.0113826 0.00765283 0.00252688)
(0.0110718 0.0186771 0.00290753)
(0.0106161 0.0332226 0.00352702)
(0.00962698 0.0532182 0.00429037)
(0.00842463 0.0789482 0.00537382)
(0.00679844 0.109424 0.00632861)
(0.00489523 0.139432 0.00650865)
(0.00244516 0.156539 0.00550595)
(0.00027878 0.112229 0.00265136)
(0.000138987 -0.0566936 0.00032902)
(0.000496405 -0.114015 7.57173e-05)
(0.000909879 -0.124816 -0.000110737)
(0.0013453 -0.121059 -0.000217952)
(0.0017895 -0.11065 -0.000281571)
(0.00217397 -0.0963182 -0.000296282)
(0.00254595 -0.0806555 -0.000248055)
(0.00292641 -0.0652864 -0.000142657)
(0.00335436 -0.0509623 5.56736e-06)
(0.00383435 -0.0381848 0.000178103)
(0.00434156 -0.0277444 0.000327987)
(0.0048688 -0.0204954 0.000406124)
(0.00538541 -0.0165661 0.000407777)
(0.00585203 -0.0146965 0.000383438)
(0.00631559 -0.0136549 0.000392856)
(0.00678651 -0.0130113 0.000455608)
(0.00725158 -0.0126473 0.000548501)
(0.00767564 -0.0124344 0.000652548)
(0.00812614 -0.0122194 0.000784768)
(0.00854918 -0.0119887 0.000918518)
(0.00894579 -0.0116416 0.00103607)
(0.00932751 -0.0109916 0.00112887)
(0.00967826 -0.00982253 0.00117293)
(0.00998403 -0.00795821 0.00115805)
(0.0102926 -0.00467233 0.00113428)
(0.0105764 0.00112277 0.00110737)
(0.01064 0.00718787 0.00111128)
(0.0105892 0.0192552 0.00122448)
(0.0103757 0.0353488 0.00142313)
(0.00997046 0.0556622 0.00198006)
(0.00908068 0.0818285 0.002889)
(0.00747971 0.114561 0.00419476)
(0.00516135 0.150357 0.00513202)
(0.00224719 0.171647 0.00471972)
(0.000157552 0.12026 0.00221765)
(0.000123427 -0.0587706 -0.000147583)
(0.000480284 -0.116688 -0.000641092)
(0.00079896 -0.127169 -0.000774121)
(0.0011177 -0.122947 -0.000833243)
(0.00141794 -0.111799 -0.000906293)
(0.00167522 -0.0968931 -0.000965315)
(0.00192461 -0.0809859 -0.000984376)
(0.00218362 -0.0656869 -0.000941519)
(0.00247472 -0.0518104 -0.000826419)
(0.00281769 -0.0398162 -0.000651377)
(0.00321909 -0.030166 -0.00045226)
(0.00367346 -0.0235081 -0.000288133)
(0.0041278 -0.0198362 -0.000199655)
(0.00454564 -0.0180113 -0.000165136)
(0.00496122 -0.0169941 -0.000128966)
(0.00538657 -0.0163836 -6.39982e-05)
(0.00579924 -0.0160359 1.89972e-05)
(0.0062068 -0.0158385 0.000112419)
(0.00659574 -0.015685 0.000209404)
(0.00697643 -0.0154617 0.000302575)
(0.00735789 -0.0150476 0.000386924)
(0.00770848 -0.0143468 0.000447092)
(0.00804403 -0.0132257 0.000456338)
(0.00836353 -0.0114764 0.000386934)
(0.0086992 -0.00841973 0.000255347)
(0.00904902 -0.00226966 0.000108723)
(0.00918063 0.00546108 1.07416e-05)
(0.00919594 0.0169518 -5.49351e-05)
(0.00917103 0.0348812 9.85045e-05)
(0.00872181 0.0590414 0.000365232)
(0.00750025 0.0910282 0.00115201)
(0.00546086 0.130593 0.00228871)
(0.00311074 0.16875 0.00314113)
(0.00097711 0.185234 0.00287899)
(-7.67362e-05 0.122757 0.000962623)
(9.275e-05 -0.0598894 -0.000147965)
(0.000336142 -0.118563 -0.000547574)
(0.000588182 -0.129124 -0.000698092)
(0.000872215 -0.124915 -0.000777426)
(0.00115927 -0.113982 -0.00084941)
(0.00143083 -0.0993783 -0.000908029)
(0.00170847 -0.0837384 -0.000937535)
(0.00200176 -0.0686447 -0.000923734)
(0.00231586 -0.0549021 -0.000857387)
(0.00265264 -0.0429385 -0.000739481)
(0.00301191 -0.0332275 -0.000592059)
(0.00338487 -0.0263699 -0.000459525)
(0.00374998 -0.022442 -0.000382343)
(0.00407535 -0.0204993 -0.000356465)
(0.00439399 -0.0194291 -0.000331641)
(0.00471971 -0.0187739 -0.000281741)
(0.00502935 -0.0183759 -0.000215978)
(0.00532854 -0.0181136 -0.000141056)
(0.00561459 -0.0178835 -6.23702e-05)
(0.00588519 -0.0175834 1.48738e-05)
(0.00613829 -0.0171027 8.32681e-05)
(0.00637469 -0.0163236 0.000128851)
(0.0065909 -0.015135 0.000125205)
(0.00677569 -0.0132962 6.64805e-05)
(0.00693126 -0.0100272 -2.55496e-05)
(0.00701146 -0.00341208 -0.000100943)
(0.00693673 0.00600955 -0.000105309)
(0.0067677 0.0179695 -3.68577e-05)
(0.00648245 0.0379072 0.000303915)
(0.0057296 0.0664043 0.000976852)
(0.00481047 0.101343 0.00195874)
(0.0035951 0.141024 0.00291762)
(0.00232539 0.176607 0.00328304)
(0.00102756 0.189885 0.0025886)
(0.000106225 0.122858 0.000711813)
(0.000124541 -0.0607171 -0.000396631)
(0.000394111 -0.120151 -0.000819116)
(0.000623288 -0.130891 -0.000904725)
(0.000883239 -0.126552 -0.000959922)
(0.00112103 -0.115266 -0.00105166)
(0.00132236 -0.100357 -0.00115186)
(0.00152069 -0.0846032 -0.00122696)
(0.00173856 -0.0695638 -0.001251)
(0.00198599 -0.0559978 -0.00120833)
(0.00226734 -0.0443138 -0.00109587)
(0.00258271 -0.0349046 -0.00093219)
(0.00291916 -0.0282486 -0.000766617)
(0.00325592 -0.0243695 -0.000655906)
(0.00355613 -0.0224161 -0.000610804)
(0.00384667 -0.0213341 -0.000586869)
(0.00414158 -0.0206643 -0.000552554)
(0.00442422 -0.0202443 -0.000510219)
(0.00469837 -0.0199493 -0.000463265)
(0.00496217 -0.0196724 -0.000415283)
(0.0052135 -0.0193102 -0.000370785)
(0.00545087 -0.0187524 -0.000336936)
(0.00567859 -0.0178843 -0.00032751)
(0.00588367 -0.0166021 -0.000367364)
(0.00605408 -0.0145739 -0.000453723)
(0.00618416 -0.0107804 -0.000567483)
(0.00623813 -0.0032762 -0.000683029)
(0.00618585 0.00644209 -0.000745552)
(0.0060336 0.0195536 -0.000646903)
(0.0057343 0.040817 -0.000185484)
(0.0053645 0.0686511 0.000759709)
(0.00486151 0.103054 0.0021664)
(0.00406433 0.143711 0.00363547)
(0.002768 0.181864 0.00434951)
(0.00140089 0.196473 0.00367287)
(0.000342106 0.126243 0.00153547)
(0.00012192 -0.0616353 -0.000440444)
(0.000341698 -0.12154 -0.000840746)
(0.000504297 -0.132154 -0.000937587)
(0.000703503 -0.127654 -0.00099573)
(0.000886212 -0.116285 -0.00107628)
(0.00106318 -0.101439 -0.00116771)
(0.00126021 -0.0858769 -0.0012495)
(0.00149318 -0.0710857 -0.0012978)
(0.00176424 -0.057749 -0.00129084)
(0.00206776 -0.0462375 -0.00121553)
(0.00239345 -0.0369327 -0.00107924)
(0.00272511 -0.0302404 -0.000922159)
(0.00304879 -0.0262396 -0.000806455)
(0.00333471 -0.0242044 -0.000758637)
(0.00361041 -0.0230856 -0.000742783)
(0.00389084 -0.0223923 -0.000727131)
(0.00416457 -0.021946 -0.000708624)
(0.00443498 -0.0216185 -0.000688707)
(0.00470151 -0.0213022 -0.00067001)
(0.00496309 -0.0208945 -0.000656582)
(0.00521982 -0.0202865 -0.000655564)
(0.00547561 -0.0193652 -0.000682769)
(0.00571563 -0.0180078 -0.00076465)
(0.00593944 -0.0158285 -0.0009126)
(0.00614811 -0.0117904 -0.00112996)
(0.00636693 -0.00387771 -0.00142951)
(0.0064864 0.00695128 -0.00170435)
(0.00649121 0.020418 -0.00181627)
(0.00644012 0.0420645 -0.00156876)
(0.00618171 0.0710746 -0.000792146)
(0.00558756 0.107763 0.000703677)
(0.00444441 0.151421 0.0026809)
(0.00300814 0.190685 0.00412086)
(0.00146317 0.202173 0.00403794)
(0.000244177 0.129743 0.00177591)
(0.000133332 -0.0621406 -0.000514805)
(0.000331357 -0.122518 -0.000807828)
(0.000480567 -0.133143 -0.000850608)
(0.000692786 -0.12855 -0.000899491)
(0.000902274 -0.117105 -0.000986413)
(0.00111647 -0.102307 -0.00108922)
(0.00135167 -0.0869013 -0.00118559)
(0.00160635 -0.0723229 -0.001255)
(0.00187768 -0.0591958 -0.0012776)
(0.00216281 -0.0478477 -0.00123769)
(0.00245439 -0.0386305 -0.00113373)
(0.0027458 -0.0319278 -0.000995434)
(0.00302691 -0.0278587 -0.000882864)
(0.00328055 -0.0257704 -0.000836315)
(0.0035296 -0.0246344 -0.000829453)
(0.00378786 -0.0239463 -0.000833339)
(0.00404642 -0.0235123 -0.000838983)
(0.00430911 -0.0231956 -0.000844989)
(0.00457578 -0.0228829 -0.000852641)
(0.00484523 -0.0224708 -0.000865167)
(0.00511735 -0.0218522 -0.000889277)
(0.00539408 -0.0209177 -0.000941968)
(0.0056631 -0.0195461 -0.00105844)
(0.0059324 -0.0173656 -0.00127036)
(0.00621608 -0.0133441 -0.00161234)
(0.00651882 -0.0056794 -0.00211852)
(0.00678546 0.00743266 -0.00270611)
(0.00689074 0.0201989 -0.0030881)
(0.00688712 0.044081 -0.00323704)
(0.00653494 0.0749223 -0.00277694)
(0.00573952 0.11393 -0.00141239)
(0.00414218 0.159017 0.000655433)
(0.00249143 0.199095 0.00230513)
(0.00101381 0.212434 0.00241685)
(6.4883e-05 0.132952 0.000513895)
(0.000170357 -0.0627949 -0.000626072)
(0.000402385 -0.123628 -0.000901239)
(0.000560009 -0.134458 -0.000916183)
(0.000792557 -0.129951 -0.000950713)
(0.00102176 -0.118605 -0.00103455)
(0.00124929 -0.103959 -0.00114358)
(0.00147714 -0.0886341 -0.00125057)
(0.00168806 -0.0740306 -0.00133233)
(0.00188885 -0.0608328 -0.00136486)
(0.00209981 -0.0494119 -0.00132798)
(0.00233338 -0.0401008 -0.00121627)
(0.00258608 -0.0333237 -0.00105902)
(0.00283801 -0.0292052 -0.000923681)
(0.00306672 -0.0271075 -0.000863497)
(0.00329575 -0.025996 -0.000855008)
(0.00353775 -0.0253625 -0.000866638)
(0.00378276 -0.0249975 -0.000883965)
(0.00403595 -0.0247493 -0.000902656)
(0.00429717 -0.0244979 -0.000922812)
(0.00456541 -0.0241376 -0.000947024)
(0.00484031 -0.0235652 -0.000981589)
(0.00512201 -0.0226799 -0.00104264)
(0.00540196 -0.021392 -0.00117247)
(0.00570949 -0.0194209 -0.00142507)
(0.00600573 -0.0157897 -0.00186198)
(0.00645023 -0.00793911 -0.00259532)
(0.00679779 0.00576536 -0.00343104)
(0.00685788 0.0197783 -0.00397093)
(0.00677185 0.0454391 -0.00464287)
(0.00599694 0.0795478 -0.0046122)
(0.00468373 0.123256 -0.00362208)
(0.00307006 0.172373 -0.00186613)
(0.00138281 0.209473 -0.00030306)
(9.89282e-05 0.217139 8.88725e-05)
(-7.5541e-05 0.131978 -0.000511654)
(0.000186189 -0.0636281 -0.000622373)
(0.000414126 -0.124741 -0.000842541)
(0.000546028 -0.135553 -0.00085835)
(0.000742875 -0.131006 -0.000892338)
(0.000898692 -0.119516 -0.000968319)
(0.0010278 -0.104739 -0.00107694)
(0.00115264 -0.0891437 -0.00118282)
(0.00126773 -0.0742837 -0.00126298)
(0.00139142 -0.0610593 -0.00129708)
(0.00154255 -0.0498523 -0.00126598)
(0.00173436 -0.0408634 -0.00116332)
(0.00195683 -0.034317 -0.00101233)
(0.00217824 -0.0302725 -0.00087652)
(0.00237108 -0.0281827 -0.000808772)
(0.00255794 -0.0270871 -0.000792324)
(0.00274858 -0.0264847 -0.000795187)
(0.00293497 -0.0261523 -0.000803182)
(0.00312054 -0.0259312 -0.000811545)
(0.00330489 -0.0256977 -0.000819974)
(0.00348697 -0.0253453 -0.000830689)
(0.0036663 -0.0247736 -0.000849533)
(0.00384072 -0.0238943 -0.000891306)
(0.0040054 -0.0226436 -0.00099289)
(0.00416398 -0.0207553 -0.00120354)
(0.0043411 -0.0171095 -0.00159253)
(0.00446402 -0.00895962 -0.00220043)
(0.00453036 0.00633254 -0.00288059)
(0.00441852 0.0235698 -0.00330251)
(0.00391841 0.0540198 -0.00363151)
(0.00309425 0.0919325 -0.00354084)
(0.00204119 0.136054 -0.00293273)
(0.0012961 0.18173 -0.00190688)
(0.000570763 0.219628 -0.00111692)
(0.000130506 0.22246 -0.000946602)
(0.000106189 0.130944 -0.00114801)
(0.00017935 -0.0642944 -0.000583807)
(0.000372096 -0.125719 -0.000750035)
(0.000460108 -0.13648 -0.000749368)
(0.000602268 -0.131793 -0.000773623)
(0.000727851 -0.119802 -0.000815712)
(0.000879432 -0.105143 -0.000930439)
(0.000960732 -0.0896125 -0.00103543)
(0.00103929 -0.0748712 -0.00111389)
(0.00115442 -0.0618465 -0.00115614)
(0.001299 -0.0507126 -0.00112792)
(0.00149043 -0.0419221 -0.00106367)
(0.00167804 -0.0353577 -0.000936358)
(0.00186268 -0.0312032 -0.000812664)
(0.0020212 -0.0290149 -0.000745954)
(0.00217158 -0.0278672 -0.00072805)
(0.00232159 -0.0272325 -0.000730829)
(0.00246659 -0.026868 -0.000739666)
(0.00260773 -0.0266089 -0.00074905)
(0.00274509 -0.0263277 -0.000758225)
(0.00287777 -0.0259167 -0.000768949)
(0.00300548 -0.0252775 -0.000786576)
(0.0031267 -0.0243294 -0.000825303)
(0.00323432 -0.0230215 -0.000919103)
(0.00332225 -0.0210187 -0.00111011)
(0.0033824 -0.016992 -0.00146668)
(0.00334767 -0.00801873 -0.00201847)
(0.00322364 0.00809155 -0.00257386)
(0.00301805 0.0271026 -0.00284808)
(0.00268447 0.0574135 -0.00284138)
(0.00221356 0.0947588 -0.00243877)
(0.0016121 0.137819 -0.00175899)
(0.00050523 0.182916 -0.00102935)
(1.74915e-05 0.219699 -0.000818582)
(0.000203769 0.220501 -0.000800652)
(0.000301406 0.130828 -0.000920836)
(0.000189942 -0.0648531 -0.000533016)
(0.00034853 -0.126456 -0.000670264)
(0.000389011 -0.137078 -0.000664149)
(0.000485568 -0.132305 -0.000682565)
(0.000592571 -0.121114 -0.000756633)
(0.000692337 -0.105743 -0.000806417)
(0.000801768 -0.089867 -0.000869361)
(0.000902875 -0.0749379 -0.00091362)
(0.00103126 -0.0622215 -0.000980637)
(0.00114865 -0.0513835 -0.000999824)
(0.00127314 -0.0425736 -0.000946919)
(0.00142208 -0.0360338 -0.000837714)
(0.00157383 -0.0318969 -0.000726118)
(0.0017102 -0.0297058 -0.00066324)
(0.00184268 -0.0285625 -0.000644802)
(0.001978 -0.0279439 -0.000647465)
(0.00211213 -0.0275984 -0.000656712)
(0.00224647 -0.0273554 -0.000667133)
(0.00238147 -0.0270864 -0.000678272)
(0.00251675 -0.0266841 -0.000692023)
(0.00265293 -0.0260519 -0.000713371)
(0.00278883 -0.0251094 -0.000755788)
(0.00291942 -0.0238027 -0.000854118)
(0.00304734 -0.0217737 -0.0010561)
(0.00315164 -0.0175676 -0.00144058)
(0.0032598 -0.00805127 -0.00207458)
(0.00328315 0.00882105 -0.00270318)
(0.00313678 0.0286776 -0.00305713)
(0.00270057 0.0606556 -0.00313891)
(0.00202704 0.100522 -0.00267682)
(0.00121166 0.146984 -0.00184762)
(0.000185111 0.194062 -0.00112722)
(-8.78149e-05 0.220439 -0.000691484)
(0.000160414 0.221163 -0.000848221)
(0.000192079 0.130594 -0.0010354)
(0.000190294 -0.0652434 -0.000423857)
(0.000284953 -0.126879 -0.000521515)
(0.000264026 -0.137471 -0.0005209)
(0.000346192 -0.132424 -0.000523686)
(0.000443805 -0.120897 -0.000569427)
(0.000538394 -0.106087 -0.000630321)
(0.00062094 -0.0905432 -0.00069816)
(0.000708839 -0.0759412 -0.000773015)
(0.000792774 -0.0627649 -0.000792826)
(0.000885061 -0.0516487 -0.000783423)
(0.000962094 -0.0427645 -0.00072076)
(0.00106862 -0.036468 -0.000657492)
(0.00116645 -0.0323783 -0.000576771)
(0.00125768 -0.0301713 -0.00052751)
(0.00134401 -0.0290185 -0.000511473)
(0.00142921 -0.0283967 -0.000511492)
(0.00151046 -0.0280461 -0.000516411)
(0.00158794 -0.0277921 -0.000521894)
(0.00166186 -0.0275052 -0.000527581)
(0.00173212 -0.0270802 -0.000534905)
(0.00179928 -0.0264261 -0.000547496)
(0.00186098 -0.0254727 -0.000575216)
(0.00191019 -0.024176 -0.000644254)
(0.00195042 -0.0221471 -0.000795719)
(0.00197187 -0.0177437 -0.0010925)
(0.00187629 -0.00714095 -0.00155069)
(0.00177714 0.0108501 -0.00200393)
(0.00153374 0.0347531 -0.00226799)
(0.00109914 0.0680536 -0.00231936)
(0.00064082 0.107792 -0.00202724)
(0.000110787 0.151862 -0.00143577)
(-1.11882e-05 0.193889 -0.000813639)
(-1.17447e-05 0.220447 -0.000495598)
(0.000214441 0.220414 -0.00065321)
(0.000284206 0.130161 -0.000849909)
(0.000182839 -0.0653758 -0.000381449)
(0.00027064 -0.126974 -0.000463456)
(0.000245022 -0.13755 -0.000459705)
(0.000342402 -0.133256 -0.000487966)
(0.000416499 -0.122003 -0.000531957)
(0.000488092 -0.106737 -0.000565649)
(0.000544945 -0.0905563 -0.000592201)
(0.0006024 -0.0758477 -0.000640127)
(0.000644809 -0.0627692 -0.00066156)
(0.000719041 -0.0519439 -0.000670153)
(0.000795727 -0.0431522 -0.000628089)
(0.000881462 -0.0367037 -0.000557464)
(0.000965289 -0.0326059 -0.000485951)
(0.00104335 -0.0304121 -0.000444588)
(0.00111447 -0.0292566 -0.000429648)
(0.0011846 -0.0286295 -0.000429027)
(0.00125087 -0.0282681 -0.000431894)
(0.00131149 -0.0279991 -0.000433642)
(0.0013721 -0.027699 -0.000437943)
(0.00142951 -0.027261 -0.000446117)
(0.00148472 -0.0265915 -0.00046049)
(0.00153632 -0.0256228 -0.000488977)
(0.00157973 -0.0243067 -0.000552789)
(0.00160418 -0.0222106 -0.00068529)
(0.00160953 -0.0175253 -0.000958136)
(0.00154768 -0.0064028 -0.00137109)
(0.00149009 0.0115456 -0.00174269)
(0.00132648 0.035802 -0.00193581)
(0.000986103 0.0687824 -0.00190293)
(0.000506639 0.10849 -0.00160381)
(0.0001433 0.153171 -0.00110024)
(-3.77141e-06 0.194045 -0.0005606)
(-5.17507e-05 0.220382 -0.000304302)
(0.000191986 0.219647 -0.000451012)
(0.000235094 0.129786 -0.00067885)
(0.000182409 -0.0656545 -0.000305017)
(0.000283951 -0.127646 -0.000409554)
(0.000235784 -0.13812 -0.000398905)
(0.000279577 -0.133324 -0.000404648)
(0.000289701 -0.12176 -0.000433313)
(0.000288309 -0.106729 -0.000466485)
(0.000322392 -0.0910213 -0.000496274)
(0.000361676 -0.0762818 -0.000522584)
(0.0004082 -0.063141 -0.000530703)
(0.000461611 -0.0519457 -0.000508031)
(0.000546475 -0.0432324 -0.000476893)
(0.000611718 -0.0368675 -0.000419503)
(0.000683677 -0.0328925 -0.000370135)
(0.000734607 -0.0306848 -0.000331517)
(0.000786518 -0.0295246 -0.000315973)
(0.000834275 -0.0288927 -0.000311718)
(0.000878292 -0.0285278 -0.000311724)
(0.000916249 -0.0282479 -0.000311704)
(0.00095191 -0.0279385 -0.000312012)
(0.000984234 -0.0274904 -0.000312457)
(0.00101476 -0.0268144 -0.000316188)
(0.00104275 -0.0258482 -0.000331039)
(0.00106316 -0.0245433 -0.000374498)
(0.0010627 -0.022432 -0.000473722)
(0.00102165 -0.0175808 -0.000670202)
(0.000925842 -0.00590598 -0.000956326)
(0.000839562 0.0135938 -0.00122922)
(0.000676048 0.0410181 -0.00137264)
(0.000447215 0.0757784 -0.00134207)
(0.000167788 0.115389 -0.00110494)
(4.02499e-05 0.15696 -0.000710639)
(0.000149825 0.196273 -0.000308068)
(0.000126303 0.219896 -9.0362e-05)
(0.000325148 0.219986 -0.000258624)
(0.000305496 0.129524 -0.00046281)
(0.000148169 -0.0657039 -0.000234571)
(0.000189904 -0.127426 -0.000296901)
(0.000171201 -0.138084 -0.000309288)
(0.000227311 -0.133565 -0.00032689)
(0.000239579 -0.121997 -0.000343716)
(0.000236172 -0.106911 -0.000362364)
(0.000257802 -0.0910081 -0.000374528)
(0.000316617 -0.0761504 -0.000386784)
(0.000370285 -0.063172 -0.000399636)
(0.000413126 -0.0524013 -0.000408607)
(0.000447506 -0.043624 -0.000385653)
(0.000492803 -0.0370815 -0.000339765)
(0.000524636 -0.0328883 -0.000286146)
(0.000562474 -0.0307255 -0.000261724)
(0.000593079 -0.0295744 -0.000251167)
(0.000621868 -0.0289248 -0.000247516)
(0.000644004 -0.0285315 -0.000245674)
(0.000665214 -0.0282402 -0.000246658)
(0.000679335 -0.027918 -0.000248116)
(0.000688766 -0.0274632 -0.000251601)
(0.000693268 -0.026786 -0.000258669)
(0.000692316 -0.0258222 -0.000273537)
(0.000677394 -0.0245016 -0.000305922)
(0.000632127 -0.0222999 -0.00037231)
(0.000511522 -0.0171703 -0.000491109)
(0.000315916 -0.00509049 -0.000653078)
(0.000166665 0.0146313 -0.000783376)
(0.000186832 0.0410178 -0.000850538)
(0.000308282 0.0749352 -0.000812532)
(0.000464251 0.114065 -0.000637813)
(0.00050323 0.154683 -0.000332107)
(0.000503659 0.194213 -2.79847e-05)
(0.000361325 0.219928 0.000101181)
(0.000354642 0.219914 -6.68471e-05)
(0.000354068 0.129574 -0.000269723)
(0.000154139 -0.0657108 -0.000195439)
(0.000220064 -0.127818 -0.000269956)
(0.000182725 -0.138565 -0.000273481)
(0.000212823 -0.133955 -0.000282125)
(0.000217034 -0.121979 -0.000287613)
(0.000249224 -0.106872 -0.000303333)
(0.000271186 -0.0919291 -0.00033995)
(0.000245761 -0.0768424 -0.000344949)
(0.000273533 -0.0637326 -0.000348032)
(0.000281664 -0.0523182 -0.000325203)
(0.000288577 -0.0433472 -0.000294126)
(0.000300964 -0.036914 -0.000252761)
(0.000340058 -0.0329607 -0.000219047)
(0.000374558 -0.0308368 -0.000197701)
(0.00040607 -0.0297011 -0.000189925)
(0.000431737 -0.0290567 -0.000188322)
(0.000463824 -0.0286854 -0.000192255)
(0.000487513 -0.0283915 -0.000195598)
(0.000509414 -0.0280577 -0.000200236)
(0.000527778 -0.0275817 -0.000206953)
(0.000543066 -0.0268776 -0.000217006)
(0.000553974 -0.0258882 -0.000233671)
(0.000553962 -0.024538 -0.000264783)
(0.000538825 -0.0222756 -0.000326171)
(0.000462359 -0.0170683 -0.000430508)
(0.000354167 -0.00478754 -0.000593634)
(0.000290401 0.0150132 -0.000718586)
(0.000222409 0.041402 -0.000716536)
(0.000144032 0.0747738 -0.000608358)
(0.000250353 0.114573 -0.000404464)
(0.000341854 0.156985 -0.000144066)
(0.000330122 0.195917 0.000106685)
(0.000278058 0.223287 0.000175602)
(0.000348528 0.21941 4.86402e-05)
(0.000297865 0.129537 -0.000182209)
(0.000152624 -0.0657048 -0.000155511)
(0.000222456 -0.127713 -0.000219508)
(0.000178285 -0.138524 -0.000228852)
(0.000214178 -0.133585 -0.000230858)
(0.000212701 -0.122718 -0.00025963)
(0.00019686 -0.107333 -0.00027175)
(0.000145131 -0.0908238 -0.000276189)
(8.86613e-05 -0.0764075 -0.000299758)
(2.21946e-05 -0.0630698 -0.000292072)
(1.5178e-05 -0.0520585 -0.000276995)
(4.94415e-05 -0.0432488 -0.000247216)
(0.000103731 -0.0369311 -0.000213294)
(0.000148617 -0.0329628 -0.000182771)
(0.00017851 -0.0308293 -0.00016435)
(0.000200072 -0.0297067 -0.000158058)
(0.000217358 -0.0290682 -0.000156106)
(0.000222671 -0.0286687 -0.000154952)
(0.000224411 -0.0283579 -0.000155682)
(0.000219811 -0.0280091 -0.000157984)
(0.000210344 -0.0275231 -0.000162529)
(0.000196856 -0.0268156 -0.000169996)
(0.000178909 -0.025831 -0.000181773)
(0.000148578 -0.0244781 -0.000200827)
(8.41741e-05 -0.0221363 -0.000235088)
(-4.40652e-05 -0.016503 -0.000289995)
(-0.000216503 -0.00363976 -0.000337317)
(-0.000290709 0.0173903 -0.000350222)
(-0.000237196 0.0447724 -0.000327199)
(-0.000138861 0.0775978 -0.000244757)
(-8.87031e-06 0.114089 -9.21182e-05)
(0.000167355 0.156161 0.000111499)
(0.000256591 0.195186 0.000301576)
(0.000286066 0.220977 0.000360347)
(0.000538772 0.221029 0.000213512)
(0.000393306 0.129313 -2.00332e-05)
(0.000171663 -0.0657674 -0.00014844)
(0.000245083 -0.12815 -0.00020352)
(0.000164958 -0.139228 -0.000210068)
(0.000146717 -0.133946 -0.00020065)
(9.25047e-05 -0.121811 -0.000203731)
(1.05407e-05 -0.107083 -0.000228429)
(2.21952e-06 -0.091052 -0.000233355)
(4.92221e-05 -0.076065 -0.000235605)
(9.10365e-05 -0.063095 -0.000239025)
(0.000125252 -0.0521476 -0.000230186)
(0.000160003 -0.0435671 -0.000213508)
(0.000199381 -0.0371251 -0.000184207)
(0.000243007 -0.0331008 -0.000161671)
(0.000275141 -0.0309375 -0.000151555)
(0.000297765 -0.0297462 -0.000149853)
(0.000314603 -0.0290622 -0.000153676)
(0.000330423 -0.0286391 -0.000160665)
(0.000344351 -0.0283069 -0.000169838)
(0.000355574 -0.0279389 -0.000181396)
(0.000364826 -0.027437 -0.000196615)
(0.000371846 -0.0267149 -0.000216469)
(0.000375183 -0.025717 -0.00024241)
(0.000365006 -0.0243447 -0.000276576)
(0.000323745 -0.0219954 -0.000323557)
(0.000236673 -0.0165495 -0.000387934)
(0.00013074 -0.00391284 -0.000436904)
(0.000192232 0.0159604 -0.000411491)
(0.000469127 0.042421 -0.000317374)
(0.00073919 0.0756271 -0.000189379)
(0.000820499 0.11351 -9.90778e-06)
(0.000666121 0.155737 0.000186098)
(0.00058395 0.195406 0.000350961)
(0.000358019 0.222468 0.000385096)
(0.000518729 0.219952 0.000281435)
(0.000416114 0.129999 1.64027e-05)
(0.00018405 -0.0656454 -0.000128112)
(0.00022603 -0.127926 -0.000164003)
(5.34596e-05 -0.138493 -0.000147477)
(3.40027e-05 -0.133633 -0.000147683)
(5.02029e-05 -0.121983 -0.000156041)
(0.000106717 -0.106767 -0.000171819)
(9.98063e-05 -0.0916147 -0.000207538)
(6.78142e-05 -0.0770245 -0.000234825)
(5.11403e-05 -0.0637372 -0.000242669)
(5.34682e-05 -0.0524786 -0.00023325)
(6.54381e-05 -0.0434201 -0.000207079)
(9.16207e-05 -0.03707 -0.000178736)
(0.000128853 -0.0331012 -0.000153685)
(0.00015718 -0.0309373 -0.000140026)
(0.000178882 -0.029794 -0.000138327)
(0.000200471 -0.0291641 -0.000144223)
(0.000221518 -0.0287732 -0.000153179)
(0.000243146 -0.0284683 -0.000164598)
(0.000265914 -0.0281242 -0.000178731)
(0.000288689 -0.0276403 -0.000196305)
(0.000309275 -0.0269297 -0.000218002)
(0.000331784 -0.0259406 -0.000246225)
(0.000339221 -0.0245642 -0.000283431)
(0.000317965 -0.0221776 -0.000338988)
(0.000242128 -0.016583 -0.00042722)
(0.000132694 -0.00397736 -0.000532636)
(9.18173e-05 0.0160351 -0.000580335)
(6.31507e-05 0.0426802 -0.000512304)
(0.000102019 0.0762543 -0.000327632)
(0.000105161 0.117009 -0.000119792)
(0.000194919 0.158875 0.000111085)
(0.000304585 0.198412 0.000288453)
(0.000277633 0.222856 0.00035986)
(0.000473854 0.220569 0.000277621)
(0.000417976 0.130215 3.07159e-05)
(0.000175578 -0.0656527 -0.000108241)
(0.000225375 -0.127785 -0.00012686)
(0.000139361 -0.138536 -0.000111104)
(0.00015484 -0.133999 -0.000110369)
(0.000136328 -0.122736 -0.000126943)
(0.000105623 -0.107514 -0.000149492)
(6.33723e-05 -0.0909864 -0.000171136)
(-2.72556e-05 -0.0759167 -0.000202734)
(-9.8466e-05 -0.0628343 -0.000222718)
(-0.000139321 -0.0519099 -0.000226655)
(-0.000134219 -0.0433022 -0.000211971)
(-9.81394e-05 -0.0370991 -0.000189789)
(-6.74531e-05 -0.0331532 -0.000169409)