/*--------------------------------*- C++ -*----------------------------------*\
  =========                 |
  \\      /  F ield         | OpenFOAM: The Open Source CFD Toolbox
   \\    /   O peration     | Website:  https://openfoam.org
    \\  /    A nd           | Version:  13
     \\/     M anipulation  |
\*---------------------------------------------------------------------------*/
FoamFile
{
    format      ascii;
    class       volScalarField;
    location    "43";
    object      k;
}
// * * * * * * * * * * * * * * * * * * * * * * * * * * * * * * * * * * * * * //

dimensions      [0 2 -2 0 0 0 0];

internalField   nonuniform List<scalar> 
78750
(
2.22045e-16
2.22045e-16
2.22045e-16
2.22045e-16
2.22045e-16
2.22045e-16
2.22045e-16
2.22045e-16
2.22045e-16
2.22045e-16
2.22045e-16
2.22045e-16
2.22045e-16
2.22045e-16
2.22045e-16
2.22045e-16
2.22045e-16
2.22045e-16
2.22045e-16
2.22045e-16
2.22045e-16
2.22045e-16
2.22045e-16
2.22045e-16
2.22045e-16
2.22045e-16
2.22045e-16
2.22045e-16
2.22045e-16
2.22045e-16
2.22045e-16
2.22045e-16
2.22045e-16
2.22045e-16
2.22045e-16
2.22045e-16
2.22045e-16
2.22045e-16
2.22045e-16
2.24739e-16
2.64695e-16
3.13566e-16
3.68844e-16
4.28312e-16
4.89825e-16
5.51223e-16
6.10319e-16
6.6496e-16
7.13098e-16
7.52886e-16
7.82766e-16
8.01551e-16
8.08485e-16
8.03285e-16
7.86152e-16
7.57766e-16
7.19248e-16
6.72099e-16
6.18129e-16
5.59364e-16
4.97952e-16
4.36086e-16
3.75942e-16
3.19681e-16
2.69529e-16
2.27989e-16
2.22045e-16
2.22045e-16
2.22045e-16
2.22045e-16
2.22045e-16
2.22045e-16
2.22045e-16
3.40955e-16
4.78949e-16
6.32945e-16
8.03081e-16
9.87882e-16
1.18421e-15
1.38738e-15
1.59139e-15
1.78934e-15
1.97384e-15
2.13753e-15
2.27355e-15
2.37601e-15
2.44035e-15
2.46368e-15
2.44493e-15
2.38493e-15
2.28636e-15
2.15359e-15
1.99236e-15
1.80946e-15
1.6122e-15
1.40802e-15
1.20389e-15
1.00593e-15
8.18983e-16
6.46358e-16
4.89694e-16
3.48837e-16
2.22045e-16
2.22045e-16
2.22045e-16
2.22045e-16
2.22045e-16
3.54417e-16
6.03782e-16
8.78923e-16
1.18429e-15
1.52143e-15
1.88847e-15
2.27995e-15
2.687e-15
3.0978e-15
3.49833e-15
3.87331e-15
4.20727e-15
4.4856e-15
4.69561e-15
4.82745e-15
4.87479e-15
4.83534e-15
4.71098e-15
4.50762e-15
4.2348e-15
3.90496e-15
3.53257e-15
3.13308e-15
2.72181e-15
2.31295e-15
1.91853e-15
1.54768e-15
1.20613e-15
8.9598e-16
6.15853e-16
3.61373e-16
2.22045e-16
2.22045e-16
2.22045e-16
2.22045e-16
5.0875e-16
8.98624e-16
1.32604e-15
1.79886e-15
2.32027e-15
2.88796e-15
3.49396e-15
4.1248e-15
4.76234e-15
5.38483e-15
5.96841e-15
6.48874e-15
6.92272e-15
7.25026e-15
7.45569e-15
7.52901e-15
7.46657e-15
7.27144e-15
6.95307e-15
6.52666e-15
6.01199e-15
5.43195e-15
4.81082e-15
4.17257e-15
3.53916e-15
2.92904e-15
2.35603e-15
1.82849e-15
1.34903e-15
9.14737e-16
5.17842e-16
2.22045e-16
2.22045e-16
2.22045e-16
2.22045e-16
6.60083e-16
1.18746e-15
1.76347e-15
2.39926e-15
3.09955e-15
3.86161e-15
4.67499e-15
5.52183e-15
6.37788e-15
7.21396e-15
7.99795e-15
8.69706e-15
9.28017e-15
9.72016e-15
9.9959e-15
1.00939e-14
1.00093e-14
9.74621e-15
9.31751e-15
8.74372e-15
8.05157e-15
7.27192e-15
6.43751e-15
5.58057e-15
4.73053e-15
3.91203e-15
3.14338e-15
2.43549e-15
1.79149e-15
1.20698e-15
6.70951e-16
2.22045e-16
2.22045e-16
2.22045e-16
2.22045e-16
7.97676e-16
1.44973e-15
2.16009e-15
2.9429e-15
3.80431e-15
4.74129e-15
5.74117e-15
6.78212e-15
7.83436e-15
8.86205e-15
9.82571e-15
1.0685e-14
1.14016e-14
1.19422e-14
1.22808e-14
1.24008e-14
1.22962e-14
1.19722e-14
1.14446e-14
1.07388e-14
9.88751e-15
8.92885e-15
7.90308e-15
6.84979e-15
5.80514e-15
4.79933e-15
3.85473e-15
2.98452e-15
2.19223e-15
1.47206e-15
8.10012e-16
2.22045e-16
2.22045e-16
2.22045e-16
2.22045e-16
9.1651e-16
1.67537e-15
2.50034e-15
3.40842e-15
4.40717e-15
5.49326e-15
6.65215e-15
7.85858e-15
9.07804e-15
1.0269e-14
1.13857e-14
1.23814e-14
1.32116e-14
1.38378e-14
1.42298e-14
1.43684e-14
1.42468e-14
1.38709e-14
1.32591e-14
1.24407e-14
1.14539e-14
1.03427e-14
9.15387e-15
7.93324e-15
6.72271e-15
5.55727e-15
4.46274e-15
3.45428e-15
2.53574e-15
1.69998e-15
9.30139e-16
2.22045e-16
2.22045e-16
2.22045e-16
2.22045e-16
1.01558e-15
1.86041e-15
2.77793e-15
3.7875e-15
4.89769e-15
6.10489e-15
7.39296e-15
8.73381e-15
1.00891e-14
1.14127e-14
1.26537e-14
1.376e-14
1.46825e-14
1.53782e-14
1.58135e-14
1.59672e-14
1.58317e-14
1.54136e-14
1.47333e-14
1.38235e-14
1.27266e-14
1.14916e-14
1.01702e-14
8.81368e-15
7.46842e-15
6.17332e-15
4.95707e-15
3.83647e-15
2.81572e-15
1.88673e-15
1.03038e-15
2.22045e-16
2.22045e-16
2.22045e-16
2.31048e-16
1.09358e-15
2.00424e-15
2.99316e-15
4.08122e-15
5.27768e-15
6.57866e-15
7.96674e-15
9.41167e-15
1.08721e-14
1.22984e-14
1.36355e-14
1.48276e-14
1.58214e-14
1.65708e-14
1.70396e-14
1.7205e-14
1.70587e-14
1.66079e-14
1.58746e-14
1.4894e-14
1.37118e-14
1.23808e-14
1.0957e-14
9.49519e-15
8.04564e-15
6.65018e-15
5.33972e-15
4.13235e-15
3.03259e-15
2.03167e-15
1.10897e-15
2.34314e-16
2.22045e-16
2.22045e-16
2.42527e-16
1.15113e-15
2.11034e-15
3.15192e-15
4.29786e-15
5.55794e-15
6.92806e-15
8.3899e-15
9.91158e-15
1.14496e-14
1.29515e-14
1.43595e-14
1.56147e-14
1.66612e-14
1.74502e-14
1.79437e-14
1.81176e-14
1.79633e-14
1.74883e-14
1.67159e-14
1.56831e-14
1.4438e-14
1.30363e-14
1.15369e-14
9.99751e-15
8.47107e-15
7.00163e-15
5.62173e-15
4.35041e-15
3.19241e-15
2.13849e-15
1.16691e-15
2.45872e-16
2.22045e-16
2.22045e-16
2.50584e-16
1.19154e-15
2.18484e-15
3.26338e-15
4.44997e-15
5.75471e-15
7.17339e-15
8.68699e-15
1.02625e-14
1.1855e-14
1.341e-14
1.48678e-14
1.61674e-14
1.72507e-14
1.80674e-14
1.85783e-14
1.87582e-14
1.85982e-14
1.81063e-14
1.73064e-14
1.62369e-14
1.49477e-14
1.34964e-14
1.19438e-14
1.035e-14
8.76957e-15
7.24821e-15
5.81958e-15
4.50338e-15
3.30452e-15
2.21342e-15
1.20755e-15
2.53977e-16
2.22045e-16
2.22045e-16
2.55969e-16
1.21855e-15
2.23464e-15
3.3379e-15
4.55166e-15
5.88626e-15
7.33739e-15
8.88561e-15
1.04972e-14
1.2126e-14
1.37165e-14
1.52076e-14
1.65368e-14
1.76448e-14
1.84801e-14
1.90025e-14
1.91863e-14
1.90226e-14
1.85193e-14
1.7701e-14
1.6607e-14
1.52883e-14
1.38037e-14
1.22157e-14
1.05855e-14
8.96901e-15
7.41295e-15
5.95175e-15
4.60557e-15
3.37941e-15
2.26346e-15
1.23469e-15
2.59389e-16
2.22045e-16
2.22045e-16
2.59398e-16
1.23575e-15
2.26636e-15
3.38536e-15
4.61643e-15
5.97005e-15
7.44185e-15
9.01212e-15
1.06466e-14
1.22986e-14
1.39117e-14
1.5424e-14
1.6772e-14
1.78958e-14
1.87429e-14
1.92726e-14
1.9459e-14
1.92929e-14
1.87823e-14
1.79523e-14
1.68427e-14
1.55052e-14
1.39994e-14
1.23888e-14
1.07354e-14
9.09596e-15
7.5178e-15
6.03587e-15
4.6706e-15
3.42706e-15
2.29531e-15
1.25196e-15
2.62831e-16
2.22045e-16
2.22045e-16
2.6148e-16
1.2462e-15
2.28562e-15
3.41418e-15
4.65576e-15
6.02094e-15
7.50529e-15
9.08895e-15
1.07374e-14
1.24034e-14
1.40303e-14
1.55554e-14
1.69149e-14
1.80482e-14
1.89025e-14
1.94367e-14
1.96246e-14
1.9457e-14
1.8942e-14
1.81049e-14
1.69858e-14
1.56368e-14
1.41183e-14
1.24939e-14
1.08264e-14
9.17302e-15
7.58144e-15
6.08692e-15
4.71007e-15
3.45598e-15
2.31463e-15
1.26243e-15
2.64918e-16
2.22045e-16
2.22045e-16
2.62686e-16
1.25226e-15
2.29679e-15
3.4309e-15
4.67857e-15
6.05044e-15
7.54208e-15
9.1335e-15
1.079e-14
1.24642e-14
1.40991e-14
1.56317e-14
1.69978e-14
1.81366e-14
1.8995e-14
1.95318e-14
1.97206e-14
1.95521e-14
1.90346e-14
1.81933e-14
1.70687e-14
1.57131e-14
1.41871e-14
1.25548e-14
1.08792e-14
9.21767e-15
7.61832e-15
6.1165e-15
4.73293e-15
3.47273e-15
2.32582e-15
1.2685e-15
2.66127e-16
2.22045e-16
2.22045e-16
2.63355e-16
1.25562e-15
2.30298e-15
3.44016e-15
4.69121e-15
6.06679e-15
7.56246e-15
9.15819e-15
1.08192e-14
1.24979e-14
1.41372e-14
1.56739e-14
1.70437e-14
1.81856e-14
1.90463e-14
1.95845e-14
1.97738e-14
1.96048e-14
1.90859e-14
1.82423e-14
1.71147e-14
1.57554e-14
1.42253e-14
1.25885e-14
1.09084e-14
9.2424e-15
7.63874e-15
6.13288e-15
4.74559e-15
3.48201e-15
2.33202e-15
1.27186e-15
2.66796e-16
2.22045e-16
2.22045e-16
2.63709e-16
1.2574e-15
2.30626e-15
3.44507e-15
4.69791e-15
6.07546e-15
7.57327e-15
9.17128e-15
1.08347e-14
1.25158e-14
1.41574e-14
1.56963e-14
1.70681e-14
1.82116e-14
1.90735e-14
1.96125e-14
1.9802e-14
1.96328e-14
1.91131e-14
1.82683e-14
1.7139e-14
1.57778e-14
1.42455e-14
1.26064e-14
1.09239e-14
9.25551e-15
7.64957e-15
6.14157e-15
4.7523e-15
3.48692e-15
2.3353e-15
1.27364e-15
2.6715e-16
2.22045e-16
2.22045e-16
2.63889e-16
1.2583e-15
2.30793e-15
3.44756e-15
4.70132e-15
6.07987e-15
7.57877e-15
9.17794e-15
1.08425e-14
1.25249e-14
1.41676e-14
1.57077e-14
1.70804e-14
1.82248e-14
1.90873e-14
1.96267e-14
1.98164e-14
1.9647e-14
1.91269e-14
1.82815e-14
1.71514e-14
1.57892e-14
1.42558e-14
1.26155e-14
1.09317e-14
9.26217e-15
7.65507e-15
6.14598e-15
4.75571e-15
3.48942e-15
2.33697e-15
1.27455e-15
2.6733e-16
2.22045e-16
2.22045e-16
2.63976e-16
1.25874e-15
2.30874e-15
3.44878e-15
4.70298e-15
6.08202e-15
7.58145e-15
9.18118e-15
1.08464e-14
1.25293e-14
1.41727e-14
1.57132e-14
1.70865e-14
1.82312e-14
1.90941e-14
1.96336e-14
1.98234e-14
1.9654e-14
1.91337e-14
1.8288e-14
1.71575e-14
1.57948e-14
1.42608e-14
1.26199e-14
1.09356e-14
9.26542e-15
7.65775e-15
6.14813e-15
4.75737e-15
3.49064e-15
2.33778e-15
1.27499e-15
2.67418e-16
2.22045e-16
2.22045e-16
2.64018e-16
1.25895e-15
2.30912e-15
3.44935e-15
4.70375e-15
6.08303e-15
7.5827e-15
9.18271e-15
1.08481e-14
1.25314e-14
1.4175e-14
1.57158e-14
1.70893e-14
1.82342e-14
1.90972e-14
1.96368e-14
1.98266e-14
1.96572e-14
1.91368e-14
1.8291e-14
1.71603e-14
1.57974e-14
1.42631e-14
1.2622e-14
1.09374e-14
9.26694e-15
7.659e-15
6.14913e-15
4.75815e-15
3.49121e-15
2.33816e-15
1.27519e-15
2.67459e-16
2.22045e-16
2.22045e-16
2.64036e-16
1.25904e-15
2.3093e-15
3.44961e-15
4.70411e-15
6.08348e-15
7.58327e-15
9.18339e-15
1.0849e-14
1.25323e-14
1.41761e-14
1.5717e-14
1.70906e-14
1.82356e-14
1.90986e-14
1.96383e-14
1.98281e-14
1.96587e-14
1.91383e-14
1.82924e-14
1.71616e-14
1.57986e-14
1.42642e-14
1.26229e-14
1.09382e-14
9.26762e-15
7.65957e-15
6.14959e-15
4.7585e-15
3.49146e-15
2.33833e-15
1.27529e-15
2.67477e-16
2.22045e-16
2.22045e-16
2.64044e-16
1.25908e-15
2.30937e-15
3.44972e-15
4.70426e-15
6.08368e-15
7.58352e-15
9.18369e-15
1.08493e-14
1.25327e-14
1.41765e-14
1.57175e-14
1.70911e-14
1.82362e-14
1.90993e-14
1.96389e-14
1.98288e-14
1.96593e-14
1.91389e-14
1.8293e-14
1.71621e-14
1.57991e-14
1.42647e-14
1.26234e-14
1.09385e-14
9.26792e-15
7.65981e-15
6.14978e-15
4.75865e-15
3.49157e-15
2.33841e-15
1.27533e-15
2.67485e-16
2.22045e-16
2.22045e-16
2.64047e-16
1.2591e-15
2.3094e-15
3.44977e-15
4.70432e-15
6.08376e-15
7.58362e-15
9.18381e-15
1.08495e-14
1.25329e-14
1.41767e-14
1.57177e-14
1.70914e-14
1.82364e-14
1.90995e-14
1.96392e-14
1.9829e-14
1.96596e-14
1.91391e-14
1.82932e-14
1.71623e-14
1.57993e-14
1.42649e-14
1.26235e-14
1.09387e-14
9.26804e-15
7.65992e-15
6.14986e-15
4.75871e-15
3.49162e-15
2.33844e-15
1.27534e-15
2.67489e-16
2.22045e-16
2.22045e-16
2.64049e-16
1.25911e-15
2.30941e-15
3.44979e-15
4.70435e-15
6.08379e-15
7.58366e-15
9.18386e-15
1.08495e-14
1.2533e-14
1.41768e-14
1.57178e-14
1.70915e-14
1.82365e-14
1.90996e-14
1.96393e-14
1.98291e-14
1.96597e-14
1.91393e-14
1.82933e-14
1.71624e-14
1.57994e-14
1.42649e-14
1.26236e-14
1.09387e-14
9.26809e-15
7.65996e-15
6.1499e-15
4.75874e-15
3.49164e-15
2.33845e-15
1.27535e-15
2.6749e-16
2.22045e-16
2.22045e-16
2.64049e-16
1.25911e-15
2.30942e-15
3.44979e-15
4.70436e-15
6.08381e-15
7.58368e-15
9.18388e-15
1.08495e-14
1.2533e-14
1.41768e-14
1.57179e-14
1.70915e-14
1.82366e-14
1.90997e-14
1.96394e-14
1.98292e-14
1.96597e-14
1.91393e-14
1.82933e-14
1.71625e-14
1.57994e-14
1.4265e-14
1.26236e-14
1.09387e-14
9.26811e-15
7.65997e-15
6.14991e-15
4.75875e-15
3.49165e-15
2.33846e-15
1.27535e-15
2.6749e-16
2.22045e-16
2.22045e-16
2.64049e-16
1.25911e-15
2.30942e-15
3.4498e-15
4.70436e-15
6.08381e-15
7.58368e-15
9.18389e-15
1.08495e-14
1.2533e-14
1.41768e-14
1.57179e-14
1.70915e-14
1.82366e-14
1.90997e-14
1.96394e-14
1.98292e-14
1.96597e-14
1.91393e-14
1.82934e-14
1.71625e-14
1.57994e-14
1.4265e-14
1.26236e-14
1.09388e-14
9.26812e-15
7.65998e-15
6.14992e-15
4.75875e-15
3.49165e-15
2.33846e-15
1.27535e-15
2.67491e-16
2.22045e-16
2.22045e-16
2.6405e-16
1.25911e-15
2.30942e-15
3.4498e-15
4.70436e-15
6.08381e-15
7.58369e-15
9.18389e-15
1.08496e-14
1.2533e-14
1.41768e-14
1.57179e-14
1.70915e-14
1.82366e-14
1.90997e-14
1.96394e-14
1.98292e-14
1.96597e-14
1.91393e-14
1.82934e-14
1.71625e-14
1.57994e-14
1.4265e-14
1.26236e-14
1.09388e-14
9.26812e-15
7.65998e-15
6.14992e-15
4.75875e-15
3.49165e-15
2.33846e-15
1.27535e-15
2.67491e-16
2.22045e-16
2.22045e-16
2.6405e-16
1.25911e-15
2.30942e-15
3.4498e-15
4.70436e-15
6.08381e-15
7.58369e-15
9.1839e-15
1.08496e-14
1.2533e-14
1.41768e-14
1.57179e-14
1.70915e-14
1.82366e-14
1.90997e-14
1.96394e-14
1.98292e-14
1.96597e-14
1.91393e-14
1.82934e-14
1.71625e-14
1.57994e-14
1.4265e-14
1.26236e-14
1.09388e-14
9.26813e-15
7.65998e-15
6.14992e-15
4.75876e-15
3.49165e-15
2.33846e-15
1.27535e-15
2.67491e-16
2.22045e-16
2.22045e-16
2.6405e-16
1.25911e-15
2.30942e-15
3.4498e-15
4.70436e-15
6.08381e-15
7.58369e-15
9.1839e-15
1.08496e-14
1.2533e-14
1.41768e-14
1.57179e-14
1.70915e-14
1.82366e-14
1.90997e-14
1.96394e-14
1.98292e-14
1.96597e-14
1.91393e-14
1.82934e-14
1.71625e-14
1.57994e-14
1.4265e-14
1.26236e-14
1.09388e-14
9.26813e-15
7.65998e-15
6.14992e-15
4.75876e-15
3.49165e-15
2.33846e-15
1.27535e-15
2.67491e-16
2.22045e-16
2.22045e-16
2.6405e-16
1.25911e-15
2.30942e-15
3.4498e-15
4.70436e-15
6.08381e-15
7.58369e-15
9.1839e-15
1.08496e-14
1.2533e-14
1.41768e-14
1.57179e-14
1.70915e-14
1.82366e-14
1.90997e-14
1.96394e-14
1.98292e-14
1.96597e-14
1.91393e-14
1.82934e-14
1.71625e-14
1.57994e-14
1.4265e-14
1.26236e-14
1.09388e-14
9.26813e-15
7.65998e-15
6.14992e-15
4.75876e-15
3.49165e-15
2.33846e-15
1.27535e-15
2.67491e-16
2.22045e-16
2.22045e-16
2.6405e-16
1.25911e-15
2.30942e-15
3.4498e-15
4.70436e-15
6.08381e-15
7.58369e-15
9.1839e-15
1.08496e-14
1.2533e-14
1.41768e-14
1.57179e-14
1.70915e-14
1.82366e-14
1.90997e-14
1.96394e-14
1.98292e-14
1.96597e-14
1.91393e-14
1.82934e-14
1.71625e-14
1.57994e-14
1.4265e-14
1.26236e-14
1.09388e-14
9.26813e-15
7.65998e-15
6.14992e-15
4.75876e-15
3.49165e-15
2.33846e-15
1.27535e-15
2.67491e-16
2.22045e-16
2.22045e-16
2.6405e-16
1.25911e-15
2.30942e-15
3.4498e-15
4.70436e-15
6.08381e-15
7.58369e-15
9.1839e-15
1.08496e-14
1.2533e-14
1.41768e-14
1.57179e-14
1.70915e-14
1.82366e-14
1.90997e-14
1.96394e-14
1.98292e-14
1.96597e-14
1.91393e-14
1.82934e-14
1.71625e-14
1.57994e-14
1.4265e-14
1.26236e-14
1.09388e-14
9.26813e-15
7.65998e-15
6.14992e-15
4.75876e-15
3.49165e-15
2.33846e-15
1.27535e-15
2.67491e-16
2.22045e-16
2.22045e-16
2.6405e-16
1.25911e-15
2.30942e-15
3.4498e-15
4.70436e-15
6.08381e-15
7.58369e-15
9.1839e-15
1.08496e-14
1.2533e-14
1.41768e-14
1.57179e-14
1.70915e-14
1.82366e-14
1.90997e-14
1.96394e-14
1.98292e-14
1.96597e-14
1.91393e-14
1.82934e-14
1.71625e-14
1.57994e-14
1.4265e-14
1.26236e-14
1.09388e-14
9.26813e-15
7.65998e-15
6.14992e-15
4.75876e-15
3.49165e-15
2.33846e-15
1.27535e-15
2.67491e-16
2.22045e-16
2.22045e-16
2.6405e-16
1.25911e-15
2.30942e-15
3.4498e-15
4.70436e-15
6.08381e-15
7.58369e-15
9.1839e-15
1.08496e-14
1.2533e-14
1.41768e-14
1.57179e-14
1.70915e-14
1.82366e-14
1.90997e-14
1.96394e-14
1.98292e-14
1.96597e-14
1.91393e-14
1.82934e-14
1.71625e-14
1.57994e-14
1.4265e-14
1.26236e-14
1.09388e-14
9.26813e-15
7.65998e-15
6.14992e-15
4.75876e-15
3.49165e-15
2.33846e-15
1.27535e-15
2.67491e-16
2.22045e-16
2.22045e-16
2.6405e-16
1.25911e-15
2.30942e-15
3.4498e-15
4.70436e-15
6.08381e-15
7.58369e-15
9.1839e-15
1.08496e-14
1.2533e-14
1.41768e-14
1.57179e-14
1.70915e-14
1.82366e-14
1.90997e-14
1.96394e-14
1.98292e-14
1.96597e-14
1.91393e-14
1.82934e-14
1.71625e-14
1.57994e-14
1.4265e-14
1.26236e-14
1.09388e-14
9.26813e-15
7.65998e-15
6.14992e-15
4.75876e-15
3.49165e-15
2.33846e-15
1.27535e-15
2.67491e-16
2.22045e-16
2.22045e-16
2.6405e-16
1.25911e-15
2.30942e-15
3.4498e-15
4.70436e-15
6.08381e-15
7.58369e-15
9.1839e-15
1.08496e-14
1.2533e-14
1.41768e-14
1.57179e-14
1.70915e-14
1.82366e-14
1.90997e-14
1.96394e-14
1.98292e-14
1.96597e-14
1.91393e-14
1.82934e-14
1.71625e-14
1.57994e-14
1.4265e-14
1.26236e-14
1.09388e-14
9.26813e-15
7.65998e-15
6.14992e-15
4.75876e-15
3.49165e-15
2.33846e-15
1.27535e-15
2.67491e-16
2.22045e-16
2.22045e-16
2.6405e-16
1.25911e-15
2.30942e-15
3.4498e-15
4.70436e-15
6.08381e-15
7.58369e-15
9.1839e-15
1.08496e-14
1.2533e-14
1.41768e-14
1.57179e-14
1.70915e-14
1.82366e-14
1.90997e-14
1.96394e-14
1.98292e-14
1.96597e-14
1.91393e-14
1.82934e-14
1.71625e-14
1.57994e-14
1.4265e-14
1.26236e-14
1.09388e-14
9.26813e-15
7.65998e-15
6.14992e-15
4.75876e-15
3.49165e-15
2.33846e-15
1.27535e-15
2.67491e-16
2.22045e-16
2.22045e-16
2.6405e-16
1.25911e-15
2.30942e-15
3.4498e-15
4.70436e-15
6.08381e-15
7.58369e-15
9.1839e-15
1.08496e-14
1.2533e-14
1.41768e-14
1.57179e-14
1.70915e-14
1.82366e-14
1.90997e-14
1.96394e-14
1.98292e-14
1.96597e-14
1.91393e-14
1.82934e-14
1.71625e-14
1.57994e-14
1.4265e-14
1.26236e-14
1.09388e-14
9.26813e-15
7.65998e-15
6.14992e-15
4.75876e-15
3.49165e-15
2.33846e-15
1.27535e-15
2.67491e-16
2.22045e-16
2.22045e-16
2.6405e-16
1.25911e-15
2.30942e-15
3.4498e-15
4.70436e-15
6.08381e-15
7.58369e-15
9.1839e-15
1.08496e-14
1.2533e-14
1.41768e-14
1.57179e-14
1.70915e-14
1.82366e-14
1.90997e-14
1.96394e-14
1.98292e-14
1.96597e-14
1.91393e-14
1.82934e-14
1.71625e-14
1.57994e-14
1.4265e-14
1.26236e-14
1.09388e-14
9.26813e-15
7.65998e-15
6.14992e-15
4.75876e-15
3.49165e-15
2.33846e-15
1.27535e-15
2.67491e-16
2.22045e-16
2.22045e-16
2.6405e-16
1.25911e-15
2.30942e-15
3.4498e-15
4.70436e-15
6.08381e-15
7.58369e-15
9.1839e-15
1.08496e-14
1.2533e-14
1.41768e-14
1.57179e-14
1.70915e-14
1.82366e-14
1.90997e-14
1.96394e-14
1.98292e-14
1.96597e-14
1.91393e-14
1.82934e-14
1.71625e-14
1.57994e-14
1.4265e-14
1.26236e-14
1.09388e-14
9.26813e-15
7.65998e-15
6.14992e-15
4.75876e-15
3.49165e-15
2.33846e-15
1.27535e-15
2.67491e-16
2.22045e-16
2.22045e-16
2.6405e-16
1.25911e-15
2.30942e-15
3.4498e-15
4.70436e-15
6.08381e-15
7.58369e-15
9.1839e-15
1.08496e-14
1.2533e-14
1.41768e-14
1.57179e-14
1.70915e-14
1.82366e-14
1.90997e-14
1.96394e-14
1.98292e-14
1.96597e-14
1.91393e-14
1.82934e-14
1.71625e-14
1.57994e-14
1.4265e-14
1.26236e-14
1.09388e-14
9.26813e-15
7.65998e-15
6.14992e-15
4.75876e-15
3.49165e-15
2.33846e-15
1.27535e-15
2.67491e-16
2.22045e-16
2.22045e-16
2.6405e-16
1.25911e-15
2.30942e-15
3.4498e-15
4.70436e-15
6.08381e-15
7.58369e-15
9.1839e-15
1.08496e-14
1.2533e-14
1.41768e-14
1.57179e-14
1.70915e-14
1.82366e-14
1.90997e-14
1.96394e-14
1.98292e-14
1.96597e-14
1.91393e-14
1.82934e-14
1.71625e-14
1.57994e-14
1.4265e-14
1.26236e-14
1.09388e-14
9.26813e-15
7.65998e-15
6.14992e-15
4.75876e-15
3.49165e-15
2.33846e-15
1.27535e-15
2.67491e-16
2.22045e-16
2.22045e-16
2.6405e-16
1.25911e-15
2.30942e-15
3.4498e-15
4.70436e-15
6.08381e-15
7.58369e-15
9.1839e-15
1.08496e-14
1.2533e-14
1.41768e-14
1.57179e-14
1.70915e-14
1.82366e-14
1.90997e-14
1.96394e-14
1.98292e-14
1.96597e-14
1.91393e-14
1.82934e-14
1.71625e-14
1.57994e-14
1.4265e-14
1.26236e-14
1.09388e-14
9.26813e-15
7.65998e-15
6.14992e-15
4.75876e-15
3.49165e-15
2.33846e-15
1.27535e-15
2.67491e-16
2.22045e-16
2.22045e-16
2.6405e-16
1.25911e-15
2.30942e-15
3.4498e-15
4.70436e-15
6.08381e-15
7.58369e-15
9.1839e-15
1.08496e-14
1.2533e-14
1.41768e-14
1.57179e-14
1.70915e-14
1.82366e-14
1.90997e-14
1.96394e-14
1.98292e-14
1.96597e-14
1.91393e-14
1.82934e-14
1.71625e-14
1.57994e-14
1.4265e-14
1.26236e-14
1.09388e-14
9.26813e-15
7.65998e-15
6.14992e-15
4.75876e-15
3.49165e-15
2.33846e-15
1.27535e-15
2.67491e-16
2.22045e-16
2.22045e-16
2.6405e-16
1.25911e-15
2.30942e-15
3.4498e-15
4.70436e-15
6.08381e-15
7.58369e-15
9.1839e-15
1.08496e-14
1.2533e-14
1.41768e-14
1.57179e-14
1.70915e-14
1.82366e-14
1.90997e-14
1.96394e-14
1.98292e-14
1.96597e-14
1.91393e-14
1.82934e-14
1.71625e-14
1.57994e-14
1.4265e-14
1.26236e-14
1.09388e-14
9.26813e-15
7.65998e-15
6.14992e-15
4.75876e-15
3.49165e-15
2.33846e-15
1.27535e-15
2.67491e-16
2.22045e-16
2.22045e-16
2.6405e-16
1.25911e-15
2.30942e-15
3.4498e-15
4.70436e-15
6.08381e-15
7.58369e-15
9.1839e-15
1.08496e-14
1.2533e-14
1.41768e-14
1.57179e-14
1.70915e-14
1.82366e-14
1.90997e-14
1.96394e-14
1.98292e-14
1.96597e-14
1.91393e-14
1.82934e-14
1.71625e-14
1.57994e-14
1.4265e-14
1.26236e-14
1.09388e-14
9.26813e-15
7.65998e-15
6.14992e-15
4.75876e-15
3.49165e-15
2.33846e-15
1.27535e-15
2.67491e-16
2.22045e-16
2.22045e-16
2.6405e-16
1.25911e-15
2.30942e-15
3.4498e-15
4.70436e-15
6.08381e-15
7.58369e-15
9.1839e-15
1.08496e-14
1.2533e-14
1.41768e-14
1.57179e-14
1.70915e-14
1.82366e-14
1.90997e-14
1.96394e-14
1.98292e-14
1.96597e-14
1.91393e-14
1.82934e-14
1.71625e-14
1.57994e-14
1.4265e-14
1.26236e-14
1.09388e-14
9.26813e-15
7.65998e-15
6.14992e-15
4.75876e-15
3.49165e-15
2.33846e-15
1.27535e-15
2.67491e-16
2.22045e-16
2.22045e-16
2.6405e-16
1.25911e-15
2.30942e-15
3.4498e-15
4.70436e-15
6.08381e-15
7.58369e-15
9.1839e-15
1.08496e-14
1.2533e-14
1.41768e-14
1.57179e-14
1.70915e-14
1.82366e-14
1.90997e-14
1.96394e-14
1.98292e-14
1.96597e-14
1.91393e-14
1.82934e-14
1.71625e-14
1.57994e-14
1.4265e-14
1.26236e-14
1.09388e-14
9.26813e-15
7.65998e-15
6.14992e-15
4.75876e-15
3.49165e-15
2.33846e-15
1.27535e-15
2.67491e-16
2.22045e-16
2.22045e-16
2.6405e-16
1.25911e-15
2.30942e-15
3.4498e-15
4.70436e-15
6.08381e-15
7.58369e-15
9.1839e-15
1.08496e-14
1.2533e-14
1.41768e-14
1.57179e-14
1.70915e-14
1.82366e-14
1.90997e-14
1.96394e-14
1.98292e-14
1.96597e-14
1.91393e-14
1.82934e-14
1.71625e-14
1.57994e-14
1.4265e-14
1.26236e-14
1.09388e-14
9.26813e-15
7.65998e-15
6.14992e-15
4.75876e-15
3.49165e-15
2.33846e-15
1.27535e-15
2.67491e-16
2.22045e-16
2.22045e-16
2.6405e-16
1.25911e-15
2.30942e-15
3.4498e-15
4.70436e-15
6.08381e-15
7.58369e-15
9.1839e-15
1.08496e-14
1.2533e-14
1.41768e-14
1.57179e-14
1.70915e-14
1.82366e-14
1.90997e-14
1.96394e-14
1.98292e-14
1.96597e-14
1.91393e-14
1.82934e-14
1.71625e-14
1.57994e-14
1.4265e-14
1.26236e-14
1.09388e-14
9.26813e-15
7.65998e-15
6.14992e-15
4.75876e-15
3.49165e-15
2.33846e-15
1.27535e-15
2.67491e-16
2.22045e-16
2.22045e-16
2.6405e-16
1.25911e-15
2.30942e-15
3.4498e-15
4.70436e-15
6.08381e-15
7.58369e-15
9.1839e-15
1.08496e-14
1.2533e-14
1.41768e-14
1.57179e-14
1.70915e-14
1.82366e-14
1.90997e-14
1.96394e-14
1.98292e-14
1.96597e-14
1.91393e-14
1.82934e-14
1.71625e-14
1.57994e-14
1.4265e-14
1.26236e-14
1.09388e-14
9.26813e-15
7.65998e-15
6.14992e-15
4.75876e-15
3.49165e-15
2.33846e-15
1.27535e-15
2.67491e-16
2.22045e-16
2.22045e-16
2.6405e-16
1.25911e-15
2.30942e-15
3.4498e-15
4.70436e-15
6.08381e-15
7.58369e-15
9.1839e-15
1.08496e-14
1.2533e-14
1.41768e-14
1.57179e-14
1.70915e-14
1.82366e-14
1.90997e-14
1.96394e-14
1.98292e-14
1.96597e-14
1.91393e-14
1.82934e-14
1.71625e-14
1.57994e-14
1.4265e-14
1.26236e-14
1.09388e-14
9.26813e-15
7.65998e-15
6.14992e-15
4.75876e-15
3.49165e-15
2.33846e-15
1.27535e-15
2.67491e-16
2.22045e-16
2.22045e-16
2.6405e-16
1.25911e-15
2.30942e-15
3.4498e-15
4.70436e-15
6.08381e-15
7.58369e-15
9.1839e-15
1.08496e-14
1.2533e-14
1.41768e-14
1.57179e-14
1.70915e-14
1.82366e-14
1.90997e-14
1.96394e-14
1.98292e-14
1.96597e-14
1.91393e-14
1.82934e-14
1.71625e-14
1.57994e-14
1.4265e-14
1.26236e-14
1.09388e-14
9.26813e-15
7.65998e-15
6.14992e-15
4.75876e-15
3.49165e-15
2.33846e-15
1.27535e-15
2.67491e-16
2.22045e-16
2.22045e-16
2.6405e-16
1.25911e-15
2.30942e-15
3.4498e-15
4.70436e-15
6.08381e-15
7.58369e-15
9.1839e-15
1.08496e-14
1.2533e-14
1.41768e-14
1.57179e-14
1.70915e-14
1.82366e-14
1.90997e-14
1.96394e-14
1.98292e-14
1.96597e-14
1.91393e-14
1.82934e-14
1.71625e-14
1.57994e-14
1.4265e-14
1.26236e-14
1.09388e-14
9.26813e-15
7.65998e-15
6.14992e-15
4.75876e-15
3.49165e-15
2.33846e-15
1.27535e-15
2.67491e-16
2.22045e-16
2.22045e-16
2.6405e-16
1.25911e-15
2.30942e-15
3.4498e-15
4.70436e-15
6.08381e-15
7.58369e-15
9.1839e-15
1.08496e-14
1.2533e-14
1.41768e-14
1.57179e-14
1.70915e-14
1.82366e-14
1.90997e-14
1.96394e-14
1.98292e-14
1.96597e-14
1.91393e-14
1.82934e-14
1.71625e-14
1.57994e-14
1.4265e-14
1.26236e-14
1.09388e-14
9.26813e-15
7.65998e-15
6.14992e-15
4.75876e-15
3.49165e-15
2.33846e-15
1.27535e-15
2.67491e-16
2.22045e-16
2.22045e-16
2.6405e-16
1.25911e-15
2.30942e-15
3.4498e-15
4.70436e-15
6.08381e-15
7.58369e-15
9.1839e-15
1.08496e-14
1.2533e-14
1.41768e-14
1.57179e-14
1.70915e-14
1.82366e-14
1.90997e-14
1.96394e-14
1.98292e-14
1.96597e-14
1.91393e-14
1.82934e-14
1.71625e-14
1.57994e-14
1.4265e-14
1.26236e-14
1.09388e-14
9.26813e-15
7.65998e-15
6.14992e-15
4.75876e-15
3.49165e-15
2.33846e-15
1.27535e-15
2.67491e-16
2.22045e-16
2.22045e-16
2.6405e-16
1.25911e-15
2.30942e-15
3.4498e-15
4.70436e-15
6.08381e-15
7.58369e-15
9.1839e-15
1.08496e-14
1.2533e-14
1.41768e-14
1.57179e-14
1.70915e-14
1.82366e-14
1.90997e-14
1.96394e-14
1.98292e-14
1.96597e-14
1.91393e-14
1.82934e-14
1.71625e-14
1.57994e-14
1.4265e-14
1.26236e-14
1.09388e-14
9.26813e-15
7.65998e-15
6.14992e-15
4.75876e-15
3.49165e-15
2.33846e-15
1.27535e-15
2.67491e-16
2.22045e-16
2.22045e-16
2.6405e-16
1.25911e-15
2.30942e-15
3.4498e-15
4.70436e-15
6.08381e-15
7.58369e-15
9.1839e-15
1.08496e-14
1.2533e-14
1.41768e-14
1.57179e-14
1.70915e-14
1.82366e-14
1.90997e-14
1.96394e-14
1.98292e-14
1.96597e-14
1.91393e-14
1.82934e-14
1.71625e-14
1.57994e-14
1.4265e-14
1.26236e-14
1.09388e-14
9.26813e-15
7.65998e-15
6.14992e-15
4.75876e-15
3.49165e-15
2.33846e-15
1.27535e-15
2.67491e-16
2.22045e-16
2.22045e-16
2.6405e-16
1.25911e-15
2.30942e-15
3.4498e-15
4.70436e-15
6.08381e-15
7.58369e-15
9.1839e-15
1.08496e-14
1.2533e-14
1.41768e-14
1.57179e-14
1.70915e-14
1.82366e-14
1.90997e-14
1.96394e-14
1.98292e-14
1.96597e-14
1.91393e-14
1.82934e-14
1.71625e-14
1.57994e-14
1.4265e-14
1.26236e-14
1.09388e-14
9.26813e-15
7.65998e-15
6.14992e-15
4.75876e-15
3.49165e-15
2.33846e-15
1.27535e-15
2.67491e-16
2.22045e-16
2.22045e-16
2.6405e-16
1.25911e-15
2.30942e-15
3.4498e-15
4.70436e-15
6.08381e-15
7.58369e-15
9.1839e-15
1.08496e-14
1.2533e-14
1.41768e-14
1.57179e-14
1.70915e-14
1.82366e-14
1.90997e-14
1.96394e-14
1.98292e-14
1.96597e-14
1.91393e-14
1.82934e-14
1.71625e-14
1.57994e-14
1.4265e-14
1.26236e-14
1.09388e-14
9.26813e-15
7.65998e-15
6.14992e-15
4.75876e-15
3.49165e-15
2.33846e-15
1.27535e-15
2.67491e-16
2.22045e-16
2.22045e-16
2.6405e-16
1.25911e-15
2.30942e-15
3.4498e-15
4.70436e-15
6.08381e-15
7.58369e-15
9.1839e-15
1.08496e-14
1.2533e-14
1.41768e-14
1.57179e-14
1.70915e-14
1.82366e-14
1.90997e-14
1.96394e-14
1.98292e-14
1.96597e-14
1.91393e-14
1.82934e-14
1.71625e-14
1.57994e-14
1.4265e-14
1.26236e-14
1.09388e-14
9.26813e-15
7.65998e-15
6.14992e-15
4.75876e-15
3.49165e-15
2.33846e-15
1.27535e-15
2.67491e-16
2.22045e-16
2.22045e-16
2.6405e-16
1.25911e-15
2.30942e-15
3.4498e-15
4.70436e-15
6.08381e-15
7.58369e-15
9.1839e-15
1.08496e-14
1.2533e-14
1.41768e-14
1.57179e-14
1.70915e-14
1.82366e-14
1.90997e-14
1.96394e-14
1.98292e-14
1.96597e-14
1.91393e-14
1.82934e-14
1.71625e-14
1.57994e-14
1.4265e-14
1.26236e-14
1.09388e-14
9.26813e-15
7.65998e-15
6.14992e-15
4.75876e-15
3.49165e-15
2.33846e-15
1.27535e-15
2.67491e-16
2.22045e-16
2.22045e-16
2.6405e-16
1.25911e-15
2.30942e-15
3.4498e-15
4.70436e-15
6.08381e-15
7.58369e-15
9.1839e-15
1.08496e-14
1.2533e-14
1.41768e-14
1.57179e-14
1.70915e-14
1.82366e-14
1.90997e-14
1.96394e-14
1.98292e-14
1.96597e-14
1.91393e-14
1.82934e-14
1.71625e-14
1.57994e-14
1.4265e-14
1.26236e-14
1.09388e-14
9.26813e-15
7.65998e-15
6.14992e-15
4.75876e-15
3.49165e-15
2.33846e-15
1.27535e-15
2.67491e-16
2.22045e-16
2.22045e-16
2.6405e-16
1.25911e-15
2.30942e-15
3.4498e-15
4.70436e-15
6.08381e-15
7.58369e-15
9.1839e-15
1.08496e-14
1.2533e-14
1.41768e-14
1.57179e-14
1.70915e-14
1.82366e-14
1.90997e-14
1.96394e-14
1.98292e-14
1.96597e-14
1.91393e-14
1.82934e-14
1.71625e-14
1.57994e-14
1.4265e-14
1.26236e-14
1.09388e-14
9.26813e-15
7.65998e-15
6.14992e-15
4.75876e-15
3.49165e-15
2.33846e-15
1.27535e-15
2.67491e-16
2.22045e-16
2.22045e-16
2.6405e-16
1.25911e-15
2.30942e-15
3.4498e-15
4.70436e-15
6.08381e-15
7.58369e-15
9.1839e-15
1.08496e-14
1.2533e-14
1.41768e-14
1.57179e-14
1.70915e-14
1.82366e-14
1.90997e-14
1.96394e-14
1.98292e-14
1.96597e-14
1.91393e-14
1.82934e-14
1.71625e-14
1.57994e-14
1.4265e-14
1.26236e-14
1.09388e-14
9.26813e-15
7.65998e-15
6.14992e-15
4.75876e-15
3.49165e-15
2.33846e-15
1.27535e-15
2.67491e-16
2.22045e-16
2.22045e-16
2.6405e-16
1.25911e-15
2.30942e-15
3.4498e-15
4.70436e-15
6.08381e-15
7.58369e-15
9.1839e-15
1.08496e-14
1.2533e-14
1.41768e-14
1.57179e-14
1.70915e-14
1.82366e-14
1.90997e-14
1.96394e-14
1.98292e-14
1.96597e-14
1.91393e-14
1.82934e-14
1.71625e-14
1.57994e-14
1.4265e-14
1.26236e-14
1.09388e-14
9.26813e-15
7.65998e-15
6.14992e-15
4.75876e-15
3.49165e-15
2.33846e-15
1.27535e-15
2.67491e-16
2.22045e-16
2.22045e-16
2.6405e-16
1.25911e-15
2.30942e-15
3.4498e-15
4.70436e-15
6.08381e-15
7.58369e-15
9.1839e-15
1.08496e-14
1.2533e-14
1.41768e-14
1.57179e-14
1.70915e-14
1.82366e-14
1.90997e-14
1.96394e-14
1.98292e-14
1.96597e-14
1.91393e-14
1.82934e-14
1.71625e-14
1.57994e-14
1.4265e-14
1.26236e-14
1.09388e-14
9.26813e-15
7.65998e-15
6.14992e-15
4.75876e-15
3.49165e-15
2.33846e-15
1.27535e-15
2.67491e-16
2.22045e-16
2.22045e-16
2.6405e-16
1.25911e-15
2.30942e-15
3.4498e-15
4.70436e-15
6.08381e-15
7.58369e-15
9.1839e-15
1.08496e-14
1.2533e-14
1.41768e-14
1.57179e-14
1.70915e-14
1.82366e-14
1.90997e-14
1.96394e-14
1.98292e-14
1.96597e-14
1.91393e-14
1.82934e-14
1.71625e-14
1.57994e-14
1.4265e-14
1.26236e-14
1.09388e-14
9.26813e-15
7.65998e-15
6.14992e-15
4.75876e-15
3.49165e-15
2.33846e-15
1.27535e-15
2.67491e-16
2.22045e-16
2.22045e-16
2.6405e-16
1.25911e-15
2.30942e-15
3.4498e-15
4.70436e-15
6.08381e-15
7.58369e-15
9.1839e-15
1.08496e-14
1.2533e-14
1.41768e-14
1.57179e-14
1.70915e-14
1.82366e-14
1.90997e-14
1.96394e-14
1.98292e-14
1.96597e-14
1.91393e-14
1.82934e-14
1.71625e-14
1.57994e-14
1.4265e-14
1.26236e-14
1.09388e-14
9.26813e-15
7.65998e-15
6.14992e-15
4.75876e-15
3.49165e-15
2.33846e-15
1.27535e-15
2.67491e-16
2.22045e-16
2.22045e-16
2.6405e-16
1.25911e-15
2.30942e-15
3.4498e-15
4.70436e-15
6.08381e-15
7.58369e-15
9.1839e-15
1.08496e-14
1.2533e-14
1.41768e-14
1.57179e-14
1.70915e-14
1.82366e-14
1.90997e-14
1.96394e-14
1.98292e-14
1.96597e-14