/*--------------------------------*- C++ -*----------------------------------*\
  =========                 |
  \\      /  F ield         | OpenFOAM: The Open Source CFD Toolbox
   \\    /   O peration     | Website:  https://openfoam.org
    \\  /    A nd           | Version:  13
     \\/     M anipulation  |
\*---------------------------------------------------------------------------*/
FoamFile
{
    format      ascii;
    class       volScalarField;
    location    "390";
    object      nut;
}
// * * * * * * * * * * * * * * * * * * * * * * * * * * * * * * * * * * * * * //

dimensions      [0 2 -1 0 0 0 0];

internalField   nonuniform List<scalar> 
78750
(
3.27176e-19
2.94458e-18
1.46562e-17
1.46562e-17
1.46562e-17
1.46562e-17
1.46562e-17
1.66623e-17
1.94738e-17
2.24427e-17
2.5414e-17
2.82691e-17
3.09035e-17
3.32213e-17
3.51367e-17
3.65769e-17
3.74861e-17
3.78283e-17
3.759e-17
3.67801e-17
3.543e-17
3.35916e-17
3.13347e-17
2.87429e-17
2.59104e-17
2.29407e-17
1.99503e-17
1.7089e-17
1.46562e-17
1.46562e-17
1.46562e-17
1.46562e-17
1.46562e-17
2.94458e-18
3.27176e-19
3.27176e-19
3.07564e-18
4.10408e-16
7.44743e-16
1.09671e-15
1.4703e-15
1.86633e-15
2.28217e-15
2.71183e-15
3.14644e-15
3.57481e-15
3.98424e-15
4.36134e-15
4.69288e-15
4.96663e-15
5.17211e-15
5.30126e-15
5.34891e-15
5.31311e-15
5.19524e-15
4.99996e-15
4.73487e-15
4.41008e-15
4.03758e-15
3.63049e-15
3.20224e-15
2.76565e-15
2.33215e-15
1.91094e-15
1.50829e-15
1.12711e-15
7.66749e-16
4.23254e-16
3.17169e-18
3.27176e-19
3.27176e-19
8.09122e-18
1.12285e-15
2.05952e-15
3.06574e-15
4.15921e-15
5.3466e-15
6.62237e-15
7.96861e-15
9.35608e-15
1.07461e-14
1.20931e-14
1.3348e-14
1.44612e-14
1.53863e-14
1.60833e-14
1.65211e-14
1.66799e-14
1.65524e-14
1.61443e-14
1.54738e-14
1.45709e-14
1.34745e-14
1.22304e-14
1.08881e-14
9.49674e-15
8.10255e-15
6.74498e-15
5.45425e-15
4.24923e-15
3.13637e-15
2.10962e-15
1.15148e-15
8.30357e-18
3.27176e-19
3.27176e-19
1.51447e-17
2.12439e-15
3.90919e-15
5.84019e-15
7.95645e-15
1.02748e-14
1.27869e-14
1.5459e-14
1.8233e-14
2.10304e-14
2.3757e-14
2.63094e-14
2.85827e-14
3.04775e-14
3.19073e-14
3.28049e-14
3.31273e-14
3.28587e-14
3.2012e-14
3.06276e-14
2.87705e-14
2.65253e-14
2.39906e-14
2.12711e-14
1.84705e-14
1.56841e-14
1.29919e-14
1.04537e-14
8.10515e-15
5.95606e-15
3.99077e-15
2.17067e-15
1.5486e-17
3.27176e-19
3.27176e-19
2.29974e-17
3.23913e-15
5.96659e-15
8.92343e-15
1.21717e-14
1.5739e-14
1.96138e-14
2.37443e-14
2.80411e-14
3.23818e-14
3.66191e-14
4.05911e-14
4.41323e-14
4.70858e-14
4.93147e-14
5.07127e-14
5.12117e-14
5.07868e-14
4.94589e-14
4.72924e-14
4.43906e-14
4.0888e-14
3.69401e-14
3.27121e-14
2.83667e-14
2.40525e-14
1.98939e-14
1.5983e-14
1.23739e-14
9.08045e-15
6.07672e-15
3.30137e-15
2.34552e-17
3.27176e-19
3.27176e-19
3.06598e-17
4.32663e-15
7.97247e-15
1.19268e-14
1.62736e-14
2.105e-14
2.62412e-14
3.17779e-14
3.75401e-14
4.33634e-14
4.90499e-14
5.43815e-14
5.91355e-14
6.31005e-14
6.60921e-14
6.79669e-14
6.86332e-14
6.80579e-14
6.62692e-14
6.33543e-14
5.94527e-14
5.47461e-14
4.9444e-14
4.37689e-14
3.79396e-14
3.21559e-14
2.65845e-14
2.13486e-14
1.65206e-14
1.21183e-14
8.10638e-15
4.40209e-15
3.12142e-17
3.27176e-19
3.27176e-19
3.75519e-17
5.30472e-15
9.77593e-15
1.46259e-14
1.99576e-14
2.58171e-14
3.2186e-14
3.89795e-14
4.60501e-14
5.3196e-14
6.01741e-14
6.67167e-14
7.25501e-14
7.74147e-14
8.10841e-14
8.33822e-14
8.41966e-14
8.34868e-14
8.12876e-14
7.77063e-14
7.29146e-14
6.71356e-14
6.0627e-14
5.36619e-14
4.6509e-14
3.94135e-14
3.25799e-14
2.61595e-14
2.02404e-14
1.48447e-14
9.92867e-15
5.3906e-15
3.81824e-17
3.27176e-19
3.27176e-19
4.33774e-17
6.13148e-15
1.13001e-14
1.69065e-14
2.30698e-14
2.98431e-14
3.72052e-14
4.50581e-14
5.32312e-14
6.1491e-14
6.95567e-14
7.71185e-14
8.38601e-14
8.94813e-14
9.37206e-14
9.63744e-14
9.73129e-14
9.64894e-14
9.39443e-14
8.98018e-14
8.42607e-14
7.75789e-14
7.00544e-14
6.20031e-14
5.37354e-14
4.55348e-14
3.76377e-14
3.02187e-14
2.33797e-14
1.71459e-14
1.1467e-14
6.22515e-15
4.40648e-17
3.27176e-19
3.27176e-19
4.80308e-17
6.79196e-15
1.25177e-14
1.87281e-14
2.55553e-14
3.30582e-14
4.1213e-14
4.99113e-14
5.89639e-14
6.81124e-14
7.70454e-14
8.542e-14
9.28857e-14
9.911e-14
1.03803e-13
1.06741e-13
1.07778e-13
1.06863e-13
1.04042e-13
9.94514e-14
9.33123e-14
8.59103e-14
7.75755e-14
6.86577e-14
5.95008e-14
5.04187e-14
4.16732e-14
3.34575e-14
2.58847e-14
1.89823e-14
1.26946e-14
6.8911e-15
4.8758e-17
3.27176e-19
3.27176e-19
5.15469e-17
7.29111e-15
1.34379e-14
2.01048e-14
2.74336e-14
3.54876e-14
4.42413e-14
5.35782e-14
6.32952e-14
7.31148e-14
8.27029e-14
9.16912e-14
9.97036e-14
1.06383e-13
1.11419e-13
1.1457e-13
1.15681e-13
1.14698e-13
1.11667e-13
1.06739e-13
1.00148e-13
9.22017e-14
8.32548e-14
7.36825e-14
6.3854e-14
5.41062e-14
4.472e-14
3.59028e-14
2.77758e-14
2.03686e-14
1.36213e-14
7.39381e-15
5.23001e-17
3.27176e-19
3.27176e-19
5.40603e-17
7.64799e-15
1.40958e-14
2.1089e-14
2.87765e-14
3.72245e-14
4.64064e-14
5.61997e-14
6.63916e-14
7.6691e-14
8.67473e-14
9.61743e-14
1.04577e-13
1.11582e-13
1.16863e-13
1.20167e-13
1.2133e-13
1.20297e-13
1.17117e-13
1.11947e-13
1.05033e-13
9.66974e-14
8.73128e-14
7.72727e-14
6.69642e-14
5.67406e-14
4.68966e-14
3.76496e-14
2.91267e-14
2.13588e-14
1.42832e-14
7.75283e-15
5.48291e-17
3.27176e-19
3.27176e-19
5.57604e-17
7.88945e-15
1.45409e-14
2.1755e-14
2.96851e-14
3.83997e-14
4.78712e-14
5.79734e-14
6.84867e-14
7.91107e-14
8.94837e-14
9.92074e-14
1.07875e-13
1.151e-13
1.20546e-13
1.23953e-13
1.25152e-13
1.24085e-13
1.20804e-13
1.15469e-13
1.08336e-13
9.97379e-14
9.00572e-14
7.97005e-14
6.90673e-14
5.85218e-14
4.83681e-14
3.88305e-14
3.00398e-14
2.20281e-14
1.47306e-14
7.99548e-15
5.65377e-17
3.27176e-19
3.27176e-19
5.68494e-17
8.04418e-15
1.48261e-14
2.21817e-14
3.02673e-14
3.91528e-14
4.88099e-14
5.91101e-14
6.98292e-14
8.06612e-14
9.12372e-14
1.01151e-13
1.09988e-13
1.17354e-13
1.22906e-13
1.26378e-13
1.276e-13
1.26512e-13
1.23166e-13
1.17726e-13
1.10453e-13
1.01686e-13
9.1815e-14
8.12554e-14
7.04141e-14
5.96625e-14
4.93104e-14
3.95866e-14
3.06244e-14
2.24566e-14
1.50169e-14
8.15079e-15
5.76309e-17
3.27176e-19
3.27176e-19
5.75108e-17
8.13818e-15
1.49994e-14
2.2441e-14
3.06211e-14
3.96103e-14
4.93803e-14
5.98007e-14
7.0645e-14
8.16033e-14
9.23027e-14
1.02332e-13
1.11272e-13
1.18723e-13
1.2434e-13
1.27852e-13
1.29088e-13
1.27986e-13
1.24601e-13
1.19097e-13
1.11738e-13
1.02868e-13
9.28826e-14
8.21997e-14
7.1232e-14
6.03551e-14
4.98825e-14
4.00456e-14
3.09793e-14
2.27167e-14
1.51907e-14
8.24504e-15
5.82942e-17
3.27176e-19
3.27176e-19
5.78922e-17
8.19241e-15
1.50994e-14
2.25905e-14
3.08252e-14
3.98743e-14
4.97093e-14
6.01992e-14
7.11157e-14
8.21469e-14
9.29174e-14
1.03013e-13
1.12012e-13
1.19513e-13
1.25167e-13
1.28703e-13
1.29946e-13
1.28837e-13
1.25428e-13
1.19887e-13
1.1248e-13
1.03551e-13
9.34983e-14
8.27443e-14
7.17036e-14
6.07544e-14
5.02124e-14
4.03102e-14
3.11839e-14
2.28666e-14
1.52909e-14
8.29936e-15
5.86762e-17
3.27176e-19
3.27176e-19
5.81013e-17
8.22216e-15
1.51543e-14
2.26726e-14
3.09372e-14
4.00192e-14
4.98899e-14
6.04178e-14
7.1374e-14
8.24452e-14
9.32548e-14
1.03387e-13
1.12419e-13
1.19947e-13
1.25621e-13
1.29169e-13
1.30417e-13
1.29303e-13
1.25882e-13
1.20321e-13
1.12887e-13
1.03925e-13
9.3836e-14
8.3043e-14
7.19623e-14
6.09734e-14
5.03932e-14
4.04553e-14
3.12961e-14
2.29488e-14
1.53458e-14
8.32914e-15
5.88855e-17
3.27176e-19
3.27176e-19
5.82106e-17
8.23771e-15
1.5183e-14
2.27155e-14
3.09957e-14
4.00949e-14
4.99843e-14
6.05322e-14
7.1509e-14
8.26012e-14
9.34312e-14
1.03583e-13
1.12631e-13
1.20174e-13
1.25859e-13
1.29413e-13
1.30663e-13
1.29547e-13
1.2612e-13
1.20548e-13
1.13099e-13
1.04121e-13
9.40125e-14
8.31991e-14
7.20975e-14
6.10878e-14
5.04877e-14
4.05311e-14
3.13546e-14
2.29917e-14
1.53745e-14
8.34469e-15
5.89948e-17
3.27176e-19
3.27176e-19
5.82651e-17
8.24547e-15
1.51973e-14
2.27369e-14
3.10249e-14
4.01327e-14
5.00314e-14
6.05892e-14
7.15764e-14
8.2679e-14
9.35192e-14
1.0368e-13
1.12737e-13
1.20287e-13
1.25977e-13
1.29535e-13
1.30786e-13
1.29669e-13
1.26238e-13
1.20661e-13
1.13205e-13
1.04218e-13
9.41006e-14
8.32769e-14
7.21649e-14
6.11449e-14
5.05348e-14
4.05689e-14
3.13839e-14
2.30131e-14
1.53888e-14
8.35243e-15
5.90492e-17
3.27176e-19
3.27176e-19
5.82911e-17
8.24917e-15
1.52041e-14
2.27471e-14
3.10388e-14
4.01507e-14
5.00539e-14
6.06164e-14
7.16085e-14
8.27161e-14
9.35611e-14
1.03727e-13
1.12788e-13
1.20341e-13
1.26033e-13
1.29593e-13
1.30845e-13
1.29727e-13
1.26295e-13
1.20715e-13
1.13256e-13
1.04265e-13
9.41425e-14
8.33141e-14
7.2197e-14
6.11721e-14
5.05573e-14
4.05869e-14
3.13978e-14
2.30233e-14
1.53956e-14
8.35612e-15
5.90751e-17
3.27176e-19
3.27176e-19
5.83029e-17
8.25086e-15
1.52072e-14
2.27518e-14
3.10452e-14
4.01589e-14
5.00641e-14
6.06288e-14
7.16232e-14
8.27331e-14
9.35803e-14
1.03748e-13
1.12811e-13
1.20365e-13
1.26059e-13
1.29619e-13
1.30872e-13
1.29754e-13
1.26321e-13
1.2074e-13
1.13279e-13
1.04286e-13
9.41617e-14
8.3331e-14
7.22116e-14
6.11845e-14
5.05675e-14
4.05951e-14
3.14041e-14
2.3028e-14
1.53987e-14
8.35781e-15
5.90869e-17
3.27176e-19
3.27176e-19
5.83081e-17
8.2516e-15
1.52086e-14
2.27538e-14
3.1048e-14
4.01625e-14
5.00686e-14
6.06342e-14
7.16296e-14
8.27405e-14
9.35887e-14
1.03757e-13
1.12821e-13
1.20376e-13
1.2607e-13
1.29631e-13
1.30883e-13
1.29765e-13
1.26332e-13
1.20751e-13
1.13289e-13
1.04295e-13
9.41701e-14
8.33384e-14
7.22181e-14
6.11899e-14
5.0572e-14
4.05987e-14
3.14069e-14
2.303e-14
1.54001e-14
8.35855e-15
5.90921e-17
3.27176e-19
3.27176e-19
5.83103e-17
8.25191e-15
1.52091e-14
2.27547e-14
3.10491e-14
4.0164e-14
5.00705e-14
6.06365e-14
7.16323e-14
8.27436e-14
9.35922e-14
1.03761e-13
1.12825e-13
1.20381e-13
1.26075e-13
1.29636e-13
1.30888e-13
1.2977e-13
1.26337e-13
1.20755e-13
1.13293e-13
1.04299e-13
9.41736e-14
8.33415e-14
7.22208e-14
6.11922e-14
5.05739e-14
4.06002e-14
3.14081e-14
2.30308e-14
1.54007e-14
8.35886e-15
5.90943e-17
3.27176e-19
3.27176e-19
5.83112e-17
8.25203e-15
1.52094e-14
2.2755e-14
3.10496e-14
4.01646e-14
5.00713e-14
6.06375e-14
7.16334e-14
8.27449e-14
9.35937e-14
1.03763e-13
1.12827e-13
1.20382e-13
1.26077e-13
1.29638e-13
1.3089e-13
1.29772e-13
1.26338e-13
1.20757e-13
1.13295e-13
1.04301e-13
9.41751e-14
8.33428e-14
7.22219e-14
6.11932e-14
5.05747e-14
4.06008e-14
3.14085e-14
2.30312e-14
1.54009e-14
8.35898e-15
5.90951e-17
3.27176e-19
3.27176e-19
5.83115e-17
8.25208e-15
1.52094e-14
2.27552e-14
3.10498e-14
4.01649e-14
5.00716e-14
6.06378e-14
7.16338e-14
8.27454e-14
9.35942e-14
1.03764e-13
1.12828e-13
1.20383e-13
1.26078e-13
1.29639e-13
1.30891e-13
1.29773e-13
1.26339e-13
1.20758e-13
1.13296e-13
1.04301e-13
9.41756e-14
8.33433e-14
7.22223e-14
6.11935e-14
5.0575e-14
4.06011e-14
3.14087e-14
2.30313e-14
1.5401e-14
8.35903e-15
5.90955e-17
3.27176e-19
3.27176e-19
5.83116e-17
8.2521e-15
1.52095e-14
2.27552e-14
3.10499e-14
4.0165e-14
5.00717e-14
6.0638e-14
7.1634e-14
8.27456e-14
9.35944e-14
1.03764e-13
1.12828e-13
1.20383e-13
1.26078e-13
1.29639e-13
1.30891e-13
1.29773e-13
1.2634e-13
1.20758e-13
1.13296e-13
1.04302e-13
9.41758e-14
8.33435e-14
7.22224e-14
6.11936e-14
5.05751e-14
4.06011e-14
3.14088e-14
2.30314e-14
1.5401e-14
8.35905e-15
5.90956e-17
3.27176e-19
3.27176e-19
5.83117e-17
8.25211e-15
1.52095e-14
2.27552e-14
3.10499e-14
4.0165e-14
5.00717e-14
6.0638e-14
7.1634e-14
8.27456e-14
9.35945e-14
1.03764e-13
1.12828e-13
1.20384e-13
1.26078e-13
1.29639e-13
1.30891e-13
1.29773e-13
1.2634e-13
1.20758e-13
1.13296e-13
1.04302e-13
9.41759e-14
8.33435e-14
7.22225e-14
6.11937e-14
5.05751e-14
4.06012e-14
3.14088e-14
2.30314e-14
1.5401e-14
8.35905e-15
5.90957e-17
3.27176e-19
3.27176e-19
5.83117e-17
8.25211e-15
1.52095e-14
2.27552e-14
3.10499e-14
4.0165e-14
5.00717e-14
6.0638e-14
7.16341e-14
8.27457e-14
9.35945e-14
1.03764e-13
1.12828e-13
1.20384e-13
1.26078e-13
1.29639e-13
1.30891e-13
1.29773e-13
1.2634e-13
1.20758e-13
1.13296e-13
1.04302e-13
9.41759e-14
8.33436e-14
7.22225e-14
6.11937e-14
5.05751e-14
4.06012e-14
3.14088e-14
2.30314e-14
1.5401e-14
8.35906e-15
5.90957e-17
3.27176e-19
3.27176e-19
5.83117e-17
8.25211e-15
1.52095e-14
2.27552e-14
3.10499e-14
4.0165e-14
5.00717e-14
6.0638e-14
7.16341e-14
8.27457e-14
9.35946e-14
1.03764e-13
1.12828e-13
1.20384e-13
1.26078e-13
1.29639e-13
1.30892e-13
1.29773e-13
1.2634e-13
1.20758e-13
1.13296e-13
1.04302e-13
9.41759e-14
8.33436e-14
7.22225e-14
6.11937e-14
5.05751e-14
4.06012e-14
3.14088e-14
2.30314e-14
1.5401e-14
8.35906e-15
5.90957e-17
3.27176e-19
3.27176e-19
5.83117e-17
8.25211e-15
1.52095e-14
2.27552e-14
3.10499e-14
4.0165e-14
5.00717e-14
6.0638e-14
7.16341e-14
8.27457e-14
9.35946e-14
1.03764e-13
1.12828e-13
1.20384e-13
1.26078e-13
1.29639e-13
1.30892e-13
1.29773e-13
1.2634e-13
1.20758e-13
1.13296e-13
1.04302e-13
9.41759e-14
8.33436e-14
7.22225e-14
6.11937e-14
5.05751e-14
4.06012e-14
3.14088e-14
2.30314e-14
1.5401e-14
8.35906e-15
5.90957e-17
3.27176e-19
3.27176e-19
5.83117e-17
8.25211e-15
1.52095e-14
2.27552e-14
3.10499e-14
4.0165e-14
5.00717e-14
6.0638e-14
7.16341e-14
8.27457e-14
9.35946e-14
1.03764e-13
1.12828e-13
1.20384e-13
1.26078e-13
1.29639e-13
1.30892e-13
1.29773e-13
1.2634e-13
1.20758e-13
1.13296e-13
1.04302e-13
9.41759e-14
8.33436e-14
7.22225e-14
6.11937e-14
5.05751e-14
4.06012e-14
3.14088e-14
2.30314e-14
1.5401e-14
8.35906e-15
5.90957e-17
3.27176e-19
3.27176e-19
5.83117e-17
8.25211e-15
1.52095e-14
2.27552e-14
3.10499e-14
4.0165e-14
5.00717e-14
6.0638e-14
7.16341e-14
8.27457e-14
9.35946e-14
1.03764e-13
1.12828e-13
1.20384e-13
1.26078e-13
1.29639e-13
1.30892e-13
1.29773e-13
1.2634e-13
1.20758e-13
1.13296e-13
1.04302e-13
9.41759e-14
8.33436e-14
7.22225e-14
6.11937e-14
5.05751e-14
4.06012e-14
3.14088e-14
2.30314e-14
1.5401e-14
8.35906e-15
5.90957e-17
3.27176e-19
3.27176e-19
5.83117e-17
8.25211e-15
1.52095e-14
2.27552e-14
3.10499e-14
4.0165e-14
5.00717e-14
6.0638e-14
7.16341e-14
8.27457e-14
9.35946e-14
1.03764e-13
1.12828e-13
1.20384e-13
1.26078e-13
1.29639e-13
1.30892e-13
1.29773e-13
1.2634e-13
1.20758e-13
1.13296e-13
1.04302e-13
9.41759e-14
8.33436e-14
7.22225e-14
6.11937e-14
5.05751e-14
4.06012e-14
3.14088e-14
2.30314e-14
1.5401e-14
8.35906e-15
5.90957e-17
3.27176e-19
3.27176e-19
5.83117e-17
8.25211e-15
1.52095e-14
2.27552e-14
3.10499e-14
4.0165e-14
5.00717e-14
6.0638e-14
7.16341e-14
8.27457e-14
9.35946e-14
1.03764e-13
1.12828e-13
1.20384e-13
1.26078e-13
1.29639e-13
1.30892e-13
1.29773e-13
1.2634e-13
1.20758e-13
1.13296e-13
1.04302e-13
9.41759e-14
8.33436e-14
7.22225e-14
6.11937e-14
5.05751e-14
4.06012e-14
3.14088e-14
2.30314e-14
1.5401e-14
8.35906e-15
5.90957e-17
3.27176e-19
3.27176e-19
5.83117e-17
8.25211e-15
1.52095e-14
2.27552e-14
3.10499e-14
4.0165e-14
5.00717e-14
6.0638e-14
7.16341e-14
8.27457e-14
9.35946e-14
1.03764e-13
1.12828e-13
1.20384e-13
1.26078e-13
1.29639e-13
1.30892e-13
1.29773e-13
1.2634e-13
1.20758e-13
1.13296e-13
1.04302e-13
9.41759e-14
8.33436e-14
7.22225e-14
6.11937e-14
5.05751e-14
4.06012e-14
3.14088e-14
2.30314e-14
1.5401e-14
8.35906e-15
5.90957e-17
3.27176e-19
3.27176e-19
5.83117e-17
8.25211e-15
1.52095e-14
2.27552e-14
3.10499e-14
4.0165e-14
5.00717e-14
6.0638e-14
7.16341e-14
8.27457e-14
9.35946e-14
1.03764e-13
1.12828e-13
1.20384e-13
1.26078e-13
1.29639e-13
1.30892e-13
1.29773e-13
1.2634e-13
1.20758e-13
1.13296e-13
1.04302e-13
9.41759e-14
8.33436e-14
7.22225e-14
6.11937e-14
5.05751e-14
4.06012e-14
3.14088e-14
2.30314e-14
1.5401e-14
8.35906e-15
5.90957e-17
3.27176e-19
3.27176e-19
5.83117e-17
8.25211e-15
1.52095e-14
2.27552e-14
3.10499e-14
4.0165e-14
5.00717e-14
6.0638e-14
7.16341e-14
8.27457e-14
9.35946e-14
1.03764e-13
1.12828e-13
1.20384e-13
1.26078e-13
1.29639e-13
1.30892e-13
1.29773e-13
1.2634e-13
1.20758e-13
1.13296e-13
1.04302e-13
9.41759e-14
8.33436e-14
7.22225e-14
6.11937e-14
5.05751e-14
4.06012e-14
3.14088e-14
2.30314e-14
1.5401e-14
8.35906e-15
5.90957e-17
3.27176e-19
3.27176e-19
5.83117e-17
8.25211e-15
1.52095e-14
2.27552e-14
3.10499e-14
4.0165e-14
5.00717e-14
6.0638e-14
7.16341e-14
8.27457e-14
9.35946e-14
1.03764e-13
1.12828e-13
1.20384e-13
1.26078e-13
1.29639e-13
1.30892e-13
1.29773e-13
1.2634e-13
1.20758e-13
1.13296e-13
1.04302e-13
9.41759e-14
8.33436e-14
7.22225e-14
6.11937e-14
5.05751e-14
4.06012e-14
3.14088e-14
2.30314e-14
1.5401e-14
8.35906e-15
5.90957e-17
3.27176e-19
3.27176e-19
5.83117e-17
8.25211e-15
1.52095e-14
2.27552e-14
3.10499e-14
4.0165e-14
5.00717e-14
6.0638e-14
7.16341e-14
8.27457e-14
9.35946e-14
1.03764e-13
1.12828e-13
1.20384e-13
1.26078e-13
1.29639e-13
1.30892e-13
1.29773e-13
1.2634e-13
1.20758e-13
1.13296e-13
1.04302e-13
9.41759e-14
8.33436e-14
7.22225e-14
6.11937e-14
5.05751e-14
4.06012e-14
3.14088e-14
2.30314e-14
1.5401e-14
8.35906e-15
5.90957e-17
3.27176e-19
3.27176e-19
5.83117e-17
8.25211e-15
1.52095e-14
2.27552e-14
3.10499e-14
4.0165e-14
5.00717e-14
6.0638e-14
7.16341e-14
8.27457e-14
9.35946e-14
1.03764e-13
1.12828e-13
1.20384e-13
1.26078e-13
1.29639e-13
1.30892e-13
1.29773e-13
1.2634e-13
1.20758e-13
1.13296e-13
1.04302e-13
9.41759e-14
8.33436e-14
7.22225e-14
6.11937e-14
5.05751e-14
4.06012e-14
3.14088e-14
2.30314e-14
1.5401e-14
8.35906e-15
5.90957e-17
3.27176e-19
3.27176e-19
5.83117e-17
8.25211e-15
1.52095e-14
2.27552e-14
3.10499e-14
4.0165e-14
5.00717e-14
6.0638e-14
7.16341e-14
8.27457e-14
9.35946e-14
1.03764e-13
1.12828e-13
1.20384e-13
1.26078e-13
1.29639e-13
1.30892e-13
1.29773e-13
1.2634e-13
1.20758e-13
1.13296e-13
1.04302e-13
9.41759e-14
8.33436e-14
7.22225e-14
6.11937e-14
5.05751e-14
4.06012e-14
3.14088e-14
2.30314e-14
1.5401e-14
8.35906e-15
5.90957e-17
3.27176e-19
3.27176e-19
5.83117e-17
8.25211e-15
1.52095e-14
2.27552e-14
3.10499e-14
4.0165e-14
5.00717e-14
6.0638e-14
7.16341e-14
8.27457e-14
9.35946e-14
1.03764e-13
1.12828e-13
1.20384e-13
1.26078e-13
1.29639e-13
1.30892e-13
1.29773e-13
1.2634e-13
1.20758e-13
1.13296e-13
1.04302e-13
9.41759e-14
8.33436e-14
7.22225e-14
6.11937e-14
5.05751e-14
4.06012e-14
3.14088e-14
2.30314e-14
1.5401e-14
8.35906e-15
5.90957e-17
3.27176e-19
3.27176e-19
5.83117e-17
8.25211e-15
1.52095e-14
2.27552e-14
3.10499e-14
4.0165e-14
5.00717e-14
6.0638e-14
7.16341e-14
8.27457e-14
9.35946e-14
1.03764e-13
1.12828e-13
1.20384e-13
1.26078e-13
1.29639e-13
1.30892e-13
1.29773e-13
1.2634e-13
1.20758e-13
1.13296e-13
1.04302e-13
9.41759e-14
8.33436e-14
7.22225e-14
6.11937e-14
5.05751e-14
4.06012e-14
3.14088e-14
2.30314e-14
1.5401e-14
8.35906e-15
5.90957e-17
3.27176e-19
3.27176e-19
5.83117e-17
8.25211e-15
1.52095e-14
2.27552e-14
3.10499e-14
4.0165e-14
5.00717e-14
6.0638e-14
7.16341e-14
8.27457e-14
9.35946e-14
1.03764e-13
1.12828e-13
1.20384e-13
1.26078e-13
1.29639e-13
1.30892e-13
1.29773e-13
1.2634e-13
1.20758e-13
1.13296e-13
1.04302e-13
9.41759e-14
8.33436e-14
7.22225e-14
6.11937e-14
5.05751e-14
4.06012e-14
3.14088e-14
2.30314e-14
1.5401e-14
8.35906e-15
5.90957e-17
3.27176e-19
3.27176e-19
5.83117e-17
8.25211e-15
1.52095e-14
2.27552e-14
3.10499e-14
4.0165e-14
5.00717e-14
6.0638e-14
7.16341e-14
8.27457e-14
9.35946e-14
1.03764e-13
1.12828e-13
1.20384e-13
1.26078e-13
1.29639e-13
1.30892e-13
1.29773e-13
1.2634e-13
1.20758e-13
1.13296e-13
1.04302e-13
9.41759e-14
8.33436e-14
7.22225e-14
6.11937e-14
5.05751e-14
4.06012e-14
3.14088e-14
2.30314e-14
1.5401e-14
8.35906e-15
5.90957e-17
3.27176e-19
3.27176e-19
5.83117e-17
8.25211e-15
1.52095e-14
2.27552e-14
3.10499e-14
4.0165e-14
5.00717e-14
6.0638e-14
7.16341e-14
8.27457e-14
9.35946e-14
1.03764e-13
1.12828e-13
1.20384e-13
1.26078e-13
1.29639e-13
1.30892e-13
1.29773e-13
1.2634e-13
1.20758e-13
1.13296e-13
1.04302e-13
9.41759e-14
8.33436e-14
7.22225e-14
6.11937e-14
5.05751e-14
4.06012e-14
3.14088e-14
2.30314e-14
1.5401e-14
8.35906e-15
5.90957e-17
3.27176e-19
3.27176e-19
5.83117e-17
8.25211e-15
1.52095e-14
2.27552e-14
3.10499e-14
4.0165e-14
5.00717e-14
6.0638e-14
7.16341e-14
8.27457e-14
9.35946e-14
1.03764e-13
1.12828e-13
1.20384e-13
1.26078e-13
1.29639e-13
1.30892e-13
1.29773e-13
1.2634e-13
1.20758e-13
1.13296e-13
1.04302e-13
9.41759e-14
8.33436e-14
7.22225e-14
6.11937e-14
5.05751e-14
4.06012e-14
3.14088e-14
2.30314e-14
1.5401e-14
8.35906e-15
5.90957e-17
3.27176e-19
3.27176e-19
5.83117e-17
8.25211e-15
1.52095e-14
2.27552e-14
3.10499e-14
4.0165e-14
5.00717e-14
6.0638e-14
7.16341e-14
8.27457e-14
9.35946e-14
1.03764e-13
1.12828e-13
1.20384e-13
1.26078e-13
1.29639e-13
1.30892e-13
1.29773e-13
1.2634e-13
1.20758e-13
1.13296e-13
1.04302e-13
9.41759e-14
8.33436e-14
7.22225e-14
6.11937e-14
5.05751e-14
4.06012e-14
3.14088e-14
2.30314e-14
1.5401e-14
8.35906e-15
5.90957e-17
3.27176e-19
3.27176e-19
5.83117e-17
8.25211e-15
1.52095e-14
2.27552e-14
3.10499e-14
4.0165e-14
5.00717e-14
6.0638e-14
7.16341e-14
8.27457e-14
9.35946e-14
1.03764e-13
1.12828e-13
1.20384e-13
1.26078e-13
1.29639e-13
1.30892e-13
1.29773e-13
1.2634e-13
1.20758e-13
1.13296e-13
1.04302e-13
9.41759e-14
8.33436e-14
7.22225e-14
6.11937e-14
5.05751e-14
4.06012e-14
3.14088e-14
2.30314e-14
1.5401e-14
8.35906e-15
5.90957e-17
3.27176e-19
3.27176e-19
5.83117e-17
8.25211e-15
1.52095e-14
2.27552e-14
3.10499e-14
4.0165e-14
5.00717e-14
6.0638e-14
7.16341e-14
8.27457e-14
9.35946e-14
1.03764e-13
1.12828e-13
1.20384e-13
1.26078e-13
1.29639e-13
1.30892e-13
1.29773e-13
1.2634e-13
1.20758e-13
1.13296e-13
1.04302e-13
9.41759e-14
8.33436e-14
7.22225e-14
6.11937e-14
5.05751e-14
4.06012e-14
3.14088e-14
2.30314e-14
1.5401e-14
8.35906e-15
5.90957e-17
3.27176e-19
3.27176e-19
5.83117e-17
8.25211e-15
1.52095e-14
2.27552e-14
3.10499e-14
4.0165e-14
5.00717e-14
6.0638e-14
7.16341e-14
8.27457e-14
9.35946e-14
1.03764e-13
1.12828e-13
1.20384e-13
1.26078e-13
1.29639e-13
1.30892e-13
1.29773e-13
1.2634e-13
1.20758e-13
1.13296e-13
1.04302e-13
9.41759e-14
8.33436e-14
7.22225e-14
6.11937e-14
5.05751e-14
4.06012e-14
3.14088e-14
2.30314e-14
1.5401e-14
8.35906e-15
5.90957e-17
3.27176e-19
3.27176e-19
5.83117e-17
8.25211e-15
1.52095e-14
2.27552e-14
3.10499e-14
4.0165e-14
5.00717e-14
6.0638e-14
7.16341e-14
8.27457e-14
9.35946e-14
1.03764e-13
1.12828e-13
1.20384e-13
1.26078e-13
1.29639e-13
1.30892e-13
1.29773e-13
1.2634e-13
1.20758e-13
1.13296e-13
1.04302e-13
9.41759e-14
8.33436e-14
7.22225e-14
6.11937e-14
5.05751e-14
4.06012e-14
3.14088e-14
2.30314e-14
1.5401e-14
8.35906e-15
5.90957e-17
3.27176e-19
3.27176e-19
5.83117e-17
8.25211e-15
1.52095e-14
2.27552e-14
3.10499e-14
4.0165e-14
5.00717e-14
6.0638e-14
7.16341e-14
8.27457e-14
9.35946e-14
1.03764e-13
1.12828e-13
1.20384e-13
1.26078e-13
1.29639e-13
1.30892e-13
1.29773e-13
1.2634e-13
1.20758e-13
1.13296e-13
1.04302e-13
9.41759e-14
8.33436e-14
7.22225e-14
6.11937e-14
5.05751e-14
4.06012e-14
3.14088e-14
2.30314e-14
1.5401e-14
8.35906e-15
5.90957e-17
3.27176e-19
3.27176e-19
5.83117e-17
8.25211e-15
1.52095e-14
2.27552e-14
3.10499e-14
4.0165e-14
5.00717e-14
6.0638e-14
7.16341e-14
8.27457e-14
9.35946e-14
1.03764e-13
1.12828e-13
1.20384e-13
1.26078e-13
1.29639e-13
1.30892e-13
1.29773e-13
1.2634e-13
1.20758e-13
1.13296e-13
1.04302e-13
9.41759e-14
8.33436e-14
7.22225e-14
6.11937e-14
5.05751e-14
4.06012e-14
3.14088e-14
2.30314e-14
1.5401e-14
8.35906e-15
5.90957e-17
3.27176e-19
3.27176e-19
5.83117e-17
8.25211e-15
1.52095e-14
2.27552e-14
3.10499e-14
4.0165e-14
5.00717e-14
6.0638e-14
7.16341e-14
8.27457e-14
9.35946e-14
1.03764e-13
1.12828e-13
1.20384e-13
1.26078e-13
1.29639e-13
1.30892e-13
1.29773e-13
1.2634e-13
1.20758e-13
1.13296e-13
1.04302e-13
9.41759e-14
8.33436e-14
7.22225e-14
6.11937e-14
5.05751e-14
4.06012e-14
3.14088e-14
2.30314e-14
1.5401e-14
8.35906e-15
5.90957e-17
3.27176e-19
3.27176e-19
5.83117e-17
8.25211e-15
1.52095e-14
2.27552e-14
3.10499e-14
4.0165e-14
5.00717e-14
6.0638e-14
7.16341e-14
8.27457e-14
9.35946e-14
1.03764e-13
1.12828e-13
1.20384e-13
1.26078e-13
1.29639e-13
1.30892e-13
1.29773e-13
1.2634e-13
1.20758e-13
1.13296e-13
1.04302e-13
9.41759e-14
8.33436e-14
7.22225e-14
6.11937e-14
5.05751e-14
4.06012e-14
3.14088e-14
2.30314e-14
1.5401e-14
8.35906e-15
5.90957e-17
3.27176e-19
3.27176e-19
5.83117e-17
8.25211e-15
1.52095e-14
2.27552e-14
3.10499e-14
4.0165e-14
5.00717e-14
6.0638e-14
7.16341e-14
8.27457e-14
9.35946e-14
1.03764e-13
1.12828e-13
1.20384e-13
1.26078e-13
1.29639e-13
1.30892e-13
1.29773e-13
1.2634e-13
1.20758e-13
1.13296e-13
1.04302e-13
9.41759e-14
8.33436e-14
7.22225e-14
6.11937e-14
5.05751e-14
4.06012e-14
3.14088e-14
2.30314e-14
1.5401e-14
8.35906e-15
5.90957e-17
3.27176e-19
3.27176e-19
5.83117e-17
8.25211e-15
1.52095e-14
2.27552e-14
3.10499e-14
4.0165e-14
5.00717e-14
6.0638e-14
7.16341e-14
8.27457e-14
9.35946e-14
1.03764e-13
1.12828e-13
1.20384e-13
1.26078e-13
1.29639e-13
1.30892e-13
1.29773e-13
1.2634e-13
1.20758e-13
1.13296e-13
1.04302e-13
9.41759e-14
8.33436e-14
7.22225e-14
6.11937e-14
5.05751e-14
4.06012e-14
3.14088e-14
2.30314e-14
1.5401e-14
8.35906e-15
5.90957e-17
3.27176e-19
3.27176e-19
5.83117e-17
8.25211e-15
1.52095e-14
2.27552e-14
3.10499e-14
4.0165e-14
5.00717e-14
6.0638e-14
7.16341e-14
8.27457e-14
9.35946e-14
1.03764e-13
1.12828e-13
1.20384e-13
1.26078e-13
1.29639e-13
1.30892e-13
1.29773e-13
1.2634e-13
1.20758e-13
1.13296e-13
1.04302e-13
9.41759e-14
8.33436e-14
7.22225e-14
6.11937e-14
5.05751e-14
4.06012e-14
3.14088e-14
2.30314e-14
1.5401e-14
8.35906e-15
5.90957e-17
3.27176e-19
3.27176e-19
5.83117e-17
8.25211e-15
1.52095e-14
2.27552e-14
3.10499e-14
4.0165e-14
5.00717e-14
6.0638e-14
7.16341e-14
8.27457e-14
9.35946e-14
1.03764e-13
1.12828e-13
1.20384e-13
1.26078e-13
1.29639e-13
1.30892e-13
1.29773e-13
1.2634e-13
1.20758e-13
1.13296e-13
1.04302e-13
9.41759e-14
8.33436e-14
7.22225e-14
6.11937e-14
5.05751e-14
4.06012e-14
3.14088e-14
2.30314e-14
1.5401e-14
8.35906e-15
5.90957e-17
3.27176e-19
3.27176e-19
5.83117e-17
8.25211e-15
1.52095e-14
2.27552e-14
3.10499e-14
4.0165e-14
5.00717e-14
6.0638e-14
7.16341e-14
8.27457e-14
9.35946e-14
1.03764e-13
1.12828e-13
1.20384e-13
1.26078e-13
1.29639e-13
1.30892e-13
1.29773e-13
1.2634e-13
1.20758e-13
1.13296e-13
1.04302e-13
9.41759e-14
8.33436e-14
7.22225e-14
6.11937e-14
5.05751e-14
4.06012e-14
3.14088e-14
2.30314e-14
1.5401e-14
8.35906e-15
5.90957e-17
3.27176e-19
3.27176e-19
5.83117e-17
8.25211e-15
1.52095e-14
2.27552e-14
3.10499e-14
4.0165e-14
5.00717e-14
6.0638e-14
7.16341e-14
8.27457e-14
9.35946e-14
1.03764e-13
1.12828e-13
1.20384e-13
1.26078e-13
1.29639e-13
1.30892e-13
1.29773e-13
1.2634e-13
1.20758e-13
1.13296e-13
1.04302e-13
9.41759e-14
8.33436e-14
7.22225e-14
6.11937e-14
5.05751e-14
4.06012e-14
3.14088e-14
2.30314e-14
1.5401e-14
8.35906e-15
5.90957e-17
3.27176e-19
3.27176e-19
5.83117e-17
8.25211e-15
1.52095e-14
2.27552e-14
3.10499e-14
4.0165e-14
5.00717e-14
6.0638e-14
7.16341e-14
8.27457e-14
9.35946e-14
1.03764e-13
1.12828e-13
1.20384e-13
1.26078e-13
1.29639e-13
1.30892e-13
1.29773e-13
1.2634e-13
1.20758e-13
1.13296e-13
1.04302e-13
9.41759e-14
8.33436e-14
7.22225e-14
6.11937e-14
5.05751e-14
4.06012e-14
3.14088e-14
2.30314e-14
1.5401e-14
8.35906e-15
5.90957e-17
3.27176e-19
3.27176e-19
5.83117e-17
8.25211e-15
1.52095e-14
2.27552e-14
3.10499e-14
4.0165e-14
5.00717e-14
6.0638e-14
7.16341e-14
8.27457e-14
9.35946e-14
1.03764e-13
1.12828e-13
1.20384e-13
1.26078e-13
1.29639e-13
1.30892e-13
1.29773e-13
1.2634e-13
1.20758e-13
1.13296e-13
1.04302e-13
9.41759e-14
8.33436e-14
7.22225e-14
6.11937e-14
5.05751e-14
4.06012e-14
3.14088e-14
2.30314e-14
1.5401e-14
8.35906e-15
5.90957e-17
3.27176e-19
3.27176e-19
5.83117e-17
8.25211e-15
1.52095e-14
2.27552e-14
3.10499e-14
4.0165e-14
5.00717e-14
6.0638e-14
7.16341e-14
8.27457e-14
9.35946e-14
1.03764e-13
1.12828e-13
1.20384e-13
1.26078e-13
1.29639e-13
1.30892e-13
1.29773e-13
1.2634e-13
1.20758e-13
1.13296e-13
1.04302e-13
9.41759e-14
8.33436e-14
7.22225e-14
6.11937e-14
5.05751e-14
4.06012e-14
3.14088e-14
2.30314e-14
1.5401e-14
8.35906e-15
5.90957e-17
3.27176e-19
3.27176e-19
5.83117e-17
8.25211e-15
1.52095e-14
2.27552e-14
3.10499e-14
4.0165e-14
5.00717e-14
6.0638e-14
7.16341e-14
8.27457e-14
9.35946e-14
1.03764e-13
1.12828e-13
1.20384e-13
1.26078e-13
1.29639e-13
1.30892e-13
1.29773e-13
1.2634e-13
1.20758e-13
1.13296e-13
1.04302e-13
9.41759e-14
8.33436e-14
7.22225e-14
6.11937e-14
5.05751e-14
4.06012e-14
3.14088e-14
2.30314e-14
1.5401e-14
8.35906e-15
5.90957e-17
3.27176e-19
3.27176e-19
5.83117e-17
8.25211e-15
1.52095e-14
2.27552e-14
3.10499e-14
4.0165e-14
5.00717e-14
6.0638e-14
7.16341e-14
8.27457e-14
9.35946e-14
1.03764e-13
1.12828e-13
1.20384e-13
1.26078e-13
1.29639e-13
1.30892e-13
1.29773e-13
1.2634e-13
1.20758e-13
1.13296e-13
1.04302e-13
9.41759e-14
8.33436e-14
7.22225e-14
6.11937e-14
5.05751e-14
4.06012e-14
3.14088e-14
2.30314e-14
1.5401e-14
8.35906e-15
5.90957e-17
3.27176e-19
3.27176e-19
5.83117e-17
8.25211e-15
1.52095e-14
2.27552e-14
3.10499e-14
4.0165e-14
5.00717e-14
6.0638e-14
7.16341e-14
8.27457e-14
9.35946e-14
1.03764e-13
1.12828e-13
1.20384e-13
1.26078e-13
1.29639e-13
1.30892e-13
1.29773e-13
1.2634e-13
1.20758e-13
1.13296e-13
1.04302e-13
9.41759e-14
8.33436e-14
7.22225e-14
6.11937e-14
5.05751e-14
4.06012e-14
3.14088e-14
2.30314e-14
1.5401e-14
8.35906e-15
5.90957e-17
3.27176e-19
3.27176e-19
5.83117e-17
8.25211e-15
1.52095e-14
2.27552e-14
3.10499e-14
4.0165e-14
5.00717e-14
6.0638e-14
7.16341e-14
8.27457e-14
9.35946e-14
1.03764e-13
1.12828e-13
1.20384e-13
1.26078e-13
1.29639e-13
1.30892e-13
1.29773e-13
1.2634e-13
1.20758e-13
1.13296e-13
1.04302e-13
9.41759e-14
8.33436e-14
7.22225e-14
6.11937e-14
5.05751e-14
4.06012e-14
3.14088e-14
2.30314e-14
1.5401e-14
8.35906e-15
5.90957e-17
3.27176e-19
3.27176e-19
5.83117e-17
8.25211e-15
1.52095e-14
2.27552e-14
3.10499e-14
4.0165e-14
5.00717e-14
6.0638e-14
7.16341e-14
8.27457e-14
9.35946e-14
1.03764e-13
1.12828e-13
1.20384e-13
1.26078e-13
1.29639e-13
1.30892e-13
1.29773e-13
1.2634e-13
1.20758e-13
1.13296e-13
1.04302e-13
9.41759e-14
8.33436e-14
7.22225e-14
6.11937e-14
5.05751e-14
4.06012e-14
3.14088e-14
2.30314e-14
1.5401e-14
8.35906e-15
5.90957e-17
3.27176e-19
3.27176e-19
5.83117e-17
8.25211e-15
1.52095e-14
2.27552e-14
3.10499e-14
4.0165e-14
5.00717e-14
6.0638e-14
7.16341e-14
8.27457e-14
9.35946e-14
1.03764e-13
1.12828e-13
1.20384e-13
1.26078e-13
1.29639e-13
1.30892e-13
1.29773e-13
1.2634e-13
1.20758e-13
1.13296e-13
1.04302e-13
9.41759e-14
8.33436e-14
7.22225e-14
6.11937e-14
5.05751e-14
4.06012e-14
3.14088e-14
2.30314e-14
1.5401e-14
8.35906e-15
5.90957e-17
3.27176e-19
3.27176e-19
5.83117e-17
8.25211e-15
1.52095e-14
2.27552e-14
3.10499e-14
4.0165e-14
5.00717e-14
6.0638e-14
7.16341e-14
8.27457e-14
9.35946e-14
1.03764e-13
1.12828e-13
1.20384e-13
1.26078e-13