/*--------------------------------*- C++ -*----------------------------------*\
  =========                 |
  \\      /  F ield         | OpenFOAM: The Open Source CFD Toolbox
   \\    /   O peration     | Website:  https://openfoam.org
    \\  /    A nd           | Version:  13
     \\/     M anipulation  |
\*---------------------------------------------------------------------------*/
FoamFile
{
    format      ascii;
    class       volScalarField;
    location    "11";
    object      k;
}
// * * * * * * * * * * * * * * * * * * * * * * * * * * * * * * * * * * * * * //

dimensions      [0 2 -2 0 0 0 0];

internalField   nonuniform List<scalar> 
78750
(
5.76214e-11
1.64338e-09
7.46484e-09
1.35626e-08
2.00207e-08
2.68922e-08
3.41767e-08
4.18101e-08
4.96668e-08
5.75699e-08
6.5307e-08
7.2646e-08
7.93524e-08
8.52026e-08
8.99962e-08
9.35663e-08
9.57872e-08
9.65799e-08
9.59162e-08
9.38199e-08
9.03654e-08
8.56743e-08
7.99101e-08
7.32702e-08
6.59761e-08
5.82612e-08
5.0357e-08
4.24768e-08
3.4799e-08
2.74512e-08
2.04989e-08
1.3941e-08
7.71476e-09
1.71087e-09
6.02206e-11
1.26875e-09
3.67593e-08
1.8344e-07
3.35143e-07
4.95269e-07
6.65637e-07
8.4632e-07
1.03558e-06
1.23007e-06
1.42516e-06
1.61547e-06
1.79526e-06
1.95888e-06
2.10103e-06
2.21706e-06
2.30314e-06
2.35641e-06
2.37509e-06
2.35856e-06
2.30736e-06
2.22321e-06
2.10889e-06
1.96817e-06
1.80566e-06
1.62662e-06
1.43666e-06
1.24149e-06
1.04652e-06
8.5637e-07
6.74437e-07
5.02497e-07
3.40511e-07
1.86653e-07
3.74573e-08
1.2935e-09
3.75511e-09
1.08906e-07
5.42812e-07
9.9514e-07
1.48109e-06
2.00838e-06
2.57701e-06
3.17916e-06
3.80055e-06
4.4233e-06
5.02845e-06
5.59741e-06
6.11267e-06
6.55834e-06
6.92065e-06
7.18841e-06
7.35333e-06
7.41033e-06
7.35764e-06
7.19688e-06
6.93301e-06
6.57416e-06
6.13143e-06
5.61848e-06
5.05113e-06
4.44682e-06
3.82408e-06
3.20182e-06
2.59793e-06
2.02673e-06
1.49613e-06
1.00624e-06
5.49396e-07
1.10333e-07
3.80542e-09
7.02443e-09
2.03899e-07
1.01162e-06
1.84767e-06
2.74262e-06
3.7093e-06
4.7444e-06
5.82967e-06
6.93718e-06
8.03544e-06
9.09309e-06
1.00804e-05
1.09698e-05
1.17358e-05
1.2357e-05
1.28154e-05
1.30972e-05
1.31939e-05
1.31025e-05
1.28257e-05
1.23721e-05
1.17552e-05
1.09928e-05
1.01064e-05
9.12118e-06
8.06475e-06
6.96674e-06
5.85841e-06
4.77121e-06
3.73307e-06
2.76229e-06
1.86229e-06
1.02036e-06
2.05809e-07
7.09172e-09
1.00254e-08
2.91257e-07
1.43843e-06
2.61469e-06
3.86457e-06
5.20377e-06
6.62449e-06
8.09937e-06
9.59042e-06
1.1057e-05
1.24596e-05
1.37629e-05
1.49352e-05
1.59452e-05
1.67641e-05
1.73677e-05
1.77382e-05
1.78646e-05
1.77434e-05
1.73779e-05
1.67791e-05
1.59645e-05
1.49582e-05
1.3789e-05
1.24879e-05
1.10866e-05
9.62052e-06
8.12886e-06
6.65222e-06
5.22854e-06
3.88522e-06
2.63015e-06
1.44771e-06
2.93313e-07
1.00978e-08
1.21006e-08
3.51818e-07
1.73215e-06
3.1378e-06
4.62312e-06
6.20535e-06
7.87348e-06
9.59457e-06
1.1325e-05
1.30191e-05
1.46347e-05
1.61344e-05
1.74819e-05
1.86414e-05
1.958e-05
2.02707e-05
2.06941e-05
2.08382e-05
2.0699e-05
2.02804e-05
1.9594e-05
1.86595e-05
1.75036e-05
1.61589e-05
1.46614e-05
1.30472e-05
1.13536e-05
9.62276e-06
7.90011e-06
6.22924e-06
4.64311e-06
3.1528e-06
1.74119e-06
3.53838e-07
1.21718e-08
1.32407e-08
3.85192e-07
1.89344e-06
3.42352e-06
5.03538e-06
6.74703e-06
8.54575e-06
1.03959e-05
1.22511e-05
1.40633e-05
1.57897e-05
1.73912e-05
1.88292e-05
2.00652e-05
2.10649e-05
2.18001e-05
2.22503e-05
2.24033e-05
2.2255e-05
2.18092e-05
2.10783e-05
2.00825e-05
1.88498e-05
1.74146e-05
1.58152e-05
1.40902e-05
1.22785e-05
1.04229e-05
8.57131e-06
6.76999e-06
5.05462e-06
3.43796e-06
1.90215e-06
3.87148e-07
1.33098e-08
1.37594e-08
4.00423e-07
1.96701e-06
3.55353e-06
5.22255e-06
6.99239e-06
8.84962e-06
1.07574e-05
1.26682e-05
1.45331e-05
1.63089e-05
1.79556e-05
1.94336e-05
2.07036e-05
2.17303e-05
2.24851e-05
2.29472e-05
2.31041e-05
2.29517e-05
2.2494e-05
2.17434e-05
2.07205e-05
1.94538e-05
1.79785e-05
1.63338e-05
1.45593e-05
1.2695e-05
1.07838e-05
8.87464e-06
7.01489e-06
5.24139e-06
3.56768e-06
1.97554e-06
4.02344e-07
1.38273e-08
1.39612e-08
4.06368e-07
1.99576e-06
3.60429e-06
5.29557e-06
7.08806e-06
8.96802e-06
1.08981e-05
1.28305e-05
1.47159e-05
1.65109e-05
1.81751e-05
1.96687e-05
2.09518e-05
2.1989e-05
2.27513e-05
2.3218e-05
2.33765e-05
2.32225e-05
2.27602e-05
2.2002e-05
2.09686e-05
1.96887e-05
1.81978e-05
1.65356e-05
1.4742e-05
1.28571e-05
1.09244e-05
8.99288e-06
7.1104e-06
5.31428e-06
3.61834e-06
2.00422e-06
4.08277e-07
1.40287e-08
1.403e-08
4.08401e-07
2.0056e-06
3.62168e-06
5.32059e-06
7.12085e-06
9.00859e-06
1.09464e-05
1.28861e-05
1.47786e-05
1.65801e-05
1.82504e-05
1.97493e-05
2.10369e-05
2.20777e-05
2.28426e-05
2.33109e-05
2.34699e-05
2.33154e-05
2.28515e-05
2.20907e-05
2.10537e-05
1.97693e-05
1.82731e-05
1.66048e-05
1.48046e-05
1.29127e-05
1.09726e-05
9.03342e-06
7.14316e-06
5.33928e-06
3.63571e-06
2.01406e-06
4.10307e-07
1.40974e-08
1.40509e-08
4.0902e-07
2.00861e-06
3.627e-06
5.32824e-06
7.13088e-06
9.02101e-06
1.09611e-05
1.29031e-05
1.47978e-05
1.66013e-05
1.82735e-05
1.9774e-05
2.10631e-05
2.21049e-05
2.28707e-05
2.33394e-05
2.34986e-05
2.33439e-05
2.28795e-05
2.21179e-05
2.10798e-05
1.9794e-05
1.82962e-05
1.6626e-05
1.48238e-05
1.29297e-05
1.09874e-05
9.04584e-06
7.15319e-06
5.34693e-06
3.64103e-06
2.01707e-06
4.10927e-07
1.41183e-08
1.40566e-08
4.09191e-07
2.00944e-06
3.62847e-06
5.33036e-06
7.13365e-06
9.02445e-06
1.09652e-05
1.29079e-05
1.48031e-05
1.66072e-05
1.82799e-05
1.97809e-05
2.10703e-05
2.21125e-05
2.28785e-05
2.33474e-05
2.35066e-05
2.33518e-05
2.28873e-05
2.21254e-05
2.1087e-05
1.98009e-05
1.83026e-05
1.66319e-05
1.48291e-05
1.29345e-05
1.09915e-05
9.04929e-06
7.15597e-06
5.34905e-06
3.6425e-06
2.0179e-06
4.11098e-07
1.4124e-08
1.40581e-08
4.09234e-07
2.00965e-06
3.62884e-06
5.33089e-06
7.13435e-06
9.02532e-06
1.09663e-05
1.29091e-05
1.48044e-05
1.66087e-05
1.82815e-05
1.97826e-05
2.10721e-05
2.21144e-05
2.28804e-05
2.33494e-05
2.35086e-05
2.33539e-05
2.28893e-05
2.21274e-05
2.10889e-05
1.98026e-05
1.83042e-05
1.66334e-05
1.48305e-05
1.29357e-05
1.09925e-05
9.05016e-06
7.15667e-06
5.34959e-06
3.64287e-06
2.01811e-06
4.11141e-07
1.41255e-08
1.40584e-08
4.09244e-07
2.0097e-06
3.62892e-06
5.33102e-06
7.13451e-06
9.02552e-06
1.09665e-05
1.29093e-05
1.48047e-05
1.6609e-05
1.82819e-05
1.9783e-05
2.10726e-05
2.21148e-05
2.28809e-05
2.33498e-05
2.35091e-05
2.33543e-05
2.28897e-05
2.21278e-05
2.10893e-05
1.9803e-05
1.83046e-05
1.66338e-05
1.48308e-05
1.29359e-05
1.09927e-05
9.05036e-06
7.15684e-06
5.34971e-06
3.64296e-06
2.01816e-06
4.11151e-07
1.41258e-08
1.40585e-08
4.09246e-07
2.00971e-06
3.62894e-06
5.33105e-06
7.13455e-06
9.02557e-06
1.09665e-05
1.29094e-05
1.48048e-05
1.66091e-05
1.8282e-05
1.97831e-05
2.10727e-05
2.21149e-05
2.2881e-05
2.33499e-05
2.35092e-05
2.33544e-05
2.28898e-05
2.21279e-05
2.10894e-05
1.98031e-05
1.83047e-05
1.66338e-05
1.48309e-05
1.2936e-05
1.09928e-05
9.05041e-06
7.15687e-06
5.34974e-06
3.64298e-06
2.01817e-06
4.11153e-07
1.41259e-08
1.40585e-08
4.09246e-07
2.00971e-06
3.62895e-06
5.33105e-06
7.13456e-06
9.02557e-06
1.09666e-05
1.29094e-05
1.48048e-05
1.66091e-05
1.8282e-05
1.97831e-05
2.10727e-05
2.21149e-05
2.2881e-05
2.335e-05
2.35092e-05
2.33544e-05
2.28899e-05
2.21279e-05
2.10894e-05
1.98031e-05
1.83047e-05
1.66339e-05
1.48309e-05
1.2936e-05
1.09928e-05
9.05042e-06
7.15688e-06
5.34975e-06
3.64298e-06
2.01817e-06
4.11154e-07
1.41259e-08
1.40585e-08
4.09246e-07
2.00971e-06
3.62895e-06
5.33105e-06
7.13456e-06
9.02558e-06
1.09666e-05
1.29094e-05
1.48048e-05
1.66091e-05
1.8282e-05
1.97831e-05
2.10727e-05
2.21149e-05
2.2881e-05
2.335e-05
2.35092e-05
2.33544e-05
2.28899e-05
2.21279e-05
2.10894e-05
1.98031e-05
1.83047e-05
1.66339e-05
1.48309e-05
1.2936e-05
1.09928e-05
9.05042e-06
7.15688e-06
5.34975e-06
3.64298e-06
2.01817e-06
4.11154e-07
1.41259e-08
1.40585e-08
4.09246e-07
2.00971e-06
3.62895e-06
5.33105e-06
7.13456e-06
9.02558e-06
1.09666e-05
1.29094e-05
1.48048e-05
1.66091e-05
1.8282e-05
1.97831e-05
2.10727e-05
2.21149e-05
2.2881e-05
2.335e-05
2.35092e-05
2.33544e-05
2.28899e-05
2.21279e-05
2.10894e-05
1.98031e-05
1.83047e-05
1.66339e-05
1.48309e-05
1.2936e-05
1.09928e-05
9.05042e-06
7.15688e-06
5.34975e-06
3.64298e-06
2.01817e-06
4.11154e-07
1.41259e-08
1.40585e-08
4.09246e-07
2.00971e-06
3.62895e-06
5.33105e-06
7.13456e-06
9.02558e-06
1.09666e-05
1.29094e-05
1.48048e-05
1.66091e-05
1.8282e-05
1.97831e-05
2.10727e-05
2.21149e-05
2.2881e-05
2.335e-05
2.35092e-05
2.33544e-05
2.28899e-05
2.21279e-05
2.10894e-05
1.98031e-05
1.83047e-05
1.66339e-05
1.48309e-05
1.2936e-05
1.09928e-05
9.05042e-06
7.15688e-06
5.34975e-06
3.64298e-06
2.01817e-06
4.11154e-07
1.41259e-08
1.40585e-08
4.09246e-07
2.00971e-06
3.62895e-06
5.33105e-06
7.13456e-06
9.02558e-06
1.09666e-05
1.29094e-05
1.48048e-05
1.66091e-05
1.8282e-05
1.97831e-05
2.10727e-05
2.21149e-05
2.2881e-05
2.335e-05
2.35092e-05
2.33544e-05
2.28899e-05
2.21279e-05
2.10894e-05
1.98031e-05
1.83047e-05
1.66339e-05
1.48309e-05
1.2936e-05
1.09928e-05
9.05042e-06
7.15688e-06
5.34975e-06
3.64298e-06
2.01817e-06
4.11154e-07
1.41259e-08
1.40585e-08
4.09246e-07
2.00971e-06
3.62895e-06
5.33105e-06
7.13456e-06
9.02558e-06
1.09666e-05
1.29094e-05
1.48048e-05
1.66091e-05
1.8282e-05
1.97831e-05
2.10727e-05
2.21149e-05
2.2881e-05
2.335e-05
2.35092e-05
2.33544e-05
2.28899e-05
2.21279e-05
2.10894e-05
1.98031e-05
1.83047e-05
1.66339e-05
1.48309e-05
1.2936e-05
1.09928e-05
9.05042e-06
7.15688e-06
5.34975e-06
3.64298e-06
2.01817e-06
4.11154e-07
1.41259e-08
1.40585e-08
4.09246e-07
2.00971e-06
3.62895e-06
5.33105e-06
7.13456e-06
9.02558e-06
1.09666e-05
1.29094e-05
1.48048e-05
1.66091e-05
1.8282e-05
1.97831e-05
2.10727e-05
2.21149e-05
2.2881e-05
2.335e-05
2.35092e-05
2.33544e-05
2.28899e-05
2.21279e-05
2.10894e-05
1.98031e-05
1.83047e-05
1.66339e-05
1.48309e-05
1.2936e-05
1.09928e-05
9.05042e-06
7.15688e-06
5.34975e-06
3.64298e-06
2.01817e-06
4.11154e-07
1.41259e-08
1.40585e-08
4.09246e-07
2.00971e-06
3.62895e-06
5.33105e-06
7.13456e-06
9.02558e-06
1.09666e-05
1.29094e-05
1.48048e-05
1.66091e-05
1.8282e-05
1.97831e-05
2.10727e-05
2.21149e-05
2.2881e-05
2.335e-05
2.35092e-05
2.33544e-05
2.28899e-05
2.21279e-05
2.10894e-05
1.98031e-05
1.83047e-05
1.66339e-05
1.48309e-05
1.2936e-05
1.09928e-05
9.05042e-06
7.15688e-06
5.34975e-06
3.64298e-06
2.01817e-06
4.11154e-07
1.41259e-08
1.40585e-08
4.09246e-07
2.00971e-06
3.62895e-06
5.33105e-06
7.13456e-06
9.02558e-06
1.09666e-05
1.29094e-05
1.48048e-05
1.66091e-05
1.8282e-05
1.97831e-05
2.10727e-05
2.21149e-05
2.2881e-05
2.335e-05
2.35092e-05
2.33544e-05
2.28899e-05
2.21279e-05
2.10894e-05
1.98031e-05
1.83047e-05
1.66339e-05
1.48309e-05
1.2936e-05
1.09928e-05
9.05042e-06
7.15688e-06
5.34975e-06
3.64298e-06
2.01817e-06
4.11154e-07
1.41259e-08
1.40585e-08
4.09246e-07
2.00971e-06
3.62895e-06
5.33105e-06
7.13456e-06
9.02558e-06
1.09666e-05
1.29094e-05
1.48048e-05
1.66091e-05
1.8282e-05
1.97831e-05
2.10727e-05
2.21149e-05
2.2881e-05
2.335e-05
2.35092e-05
2.33544e-05
2.28899e-05
2.21279e-05
2.10894e-05
1.98031e-05
1.83047e-05
1.66339e-05
1.48309e-05
1.2936e-05
1.09928e-05
9.05042e-06
7.15688e-06
5.34975e-06
3.64298e-06
2.01817e-06
4.11154e-07
1.41259e-08
1.40585e-08
4.09246e-07
2.00971e-06
3.62895e-06
5.33105e-06
7.13456e-06
9.02558e-06
1.09666e-05
1.29094e-05
1.48048e-05
1.66091e-05
1.8282e-05
1.97831e-05
2.10727e-05
2.21149e-05
2.2881e-05
2.335e-05
2.35092e-05
2.33544e-05
2.28899e-05
2.21279e-05
2.10894e-05
1.98031e-05
1.83047e-05
1.66339e-05
1.48309e-05
1.2936e-05
1.09928e-05
9.05042e-06
7.15688e-06
5.34975e-06
3.64298e-06
2.01817e-06
4.11154e-07
1.41259e-08
1.40585e-08
4.09246e-07
2.00971e-06
3.62895e-06
5.33105e-06
7.13456e-06
9.02558e-06
1.09666e-05
1.29094e-05
1.48048e-05
1.66091e-05
1.8282e-05
1.97831e-05
2.10727e-05
2.21149e-05
2.2881e-05
2.335e-05
2.35092e-05
2.33544e-05
2.28899e-05
2.21279e-05
2.10894e-05
1.98031e-05
1.83047e-05
1.66339e-05
1.48309e-05
1.2936e-05
1.09928e-05
9.05042e-06
7.15688e-06
5.34975e-06
3.64298e-06
2.01817e-06
4.11154e-07
1.41259e-08
1.40585e-08
4.09246e-07
2.00971e-06
3.62895e-06
5.33105e-06
7.13456e-06
9.02558e-06
1.09666e-05
1.29094e-05
1.48048e-05
1.66091e-05
1.8282e-05
1.97831e-05
2.10727e-05
2.21149e-05
2.2881e-05
2.335e-05
2.35092e-05
2.33544e-05
2.28899e-05
2.21279e-05
2.10894e-05
1.98031e-05
1.83047e-05
1.66339e-05
1.48309e-05
1.2936e-05
1.09928e-05
9.05042e-06
7.15688e-06
5.34975e-06
3.64298e-06
2.01817e-06
4.11154e-07
1.41259e-08
1.40585e-08
4.09246e-07
2.00971e-06
3.62895e-06
5.33105e-06
7.13456e-06
9.02558e-06
1.09666e-05
1.29094e-05
1.48048e-05
1.66091e-05
1.8282e-05
1.97831e-05
2.10727e-05
2.21149e-05
2.2881e-05
2.335e-05
2.35092e-05
2.33544e-05
2.28899e-05
2.21279e-05
2.10894e-05
1.98031e-05
1.83047e-05
1.66339e-05
1.48309e-05
1.2936e-05
1.09928e-05
9.05042e-06
7.15688e-06
5.34975e-06
3.64298e-06
2.01817e-06
4.11154e-07
1.41259e-08
1.40585e-08
4.09246e-07
2.00971e-06
3.62895e-06
5.33105e-06
7.13456e-06
9.02558e-06
1.09666e-05
1.29094e-05
1.48048e-05
1.66091e-05
1.8282e-05
1.97831e-05
2.10727e-05
2.21149e-05
2.2881e-05
2.335e-05
2.35092e-05
2.33544e-05
2.28899e-05
2.21279e-05
2.10894e-05
1.98031e-05
1.83047e-05
1.66339e-05
1.48309e-05
1.2936e-05
1.09928e-05
9.05042e-06
7.15688e-06
5.34975e-06
3.64298e-06
2.01817e-06
4.11154e-07
1.41259e-08
1.40585e-08
4.09246e-07
2.00971e-06
3.62895e-06
5.33105e-06
7.13456e-06
9.02558e-06
1.09666e-05
1.29094e-05
1.48048e-05
1.66091e-05
1.8282e-05
1.97831e-05
2.10727e-05
2.21149e-05
2.2881e-05
2.335e-05
2.35092e-05
2.33544e-05
2.28899e-05
2.21279e-05
2.10894e-05
1.98031e-05
1.83047e-05
1.66339e-05
1.48309e-05
1.2936e-05
1.09928e-05
9.05042e-06
7.15688e-06
5.34975e-06
3.64298e-06
2.01817e-06
4.11154e-07
1.41259e-08
1.40585e-08
4.09246e-07
2.00971e-06
3.62895e-06
5.33105e-06
7.13456e-06
9.02558e-06
1.09666e-05
1.29094e-05
1.48048e-05
1.66091e-05
1.8282e-05
1.97831e-05
2.10727e-05
2.21149e-05
2.2881e-05
2.335e-05
2.35092e-05
2.33544e-05
2.28899e-05
2.21279e-05
2.10894e-05
1.98031e-05
1.83047e-05
1.66339e-05
1.48309e-05
1.2936e-05
1.09928e-05
9.05042e-06
7.15688e-06
5.34975e-06
3.64298e-06
2.01817e-06
4.11154e-07
1.41259e-08
1.40585e-08
4.09246e-07
2.00971e-06
3.62895e-06
5.33105e-06
7.13456e-06
9.02558e-06
1.09666e-05
1.29094e-05
1.48048e-05
1.66091e-05
1.8282e-05
1.97831e-05
2.10727e-05
2.21149e-05
2.2881e-05
2.335e-05
2.35092e-05
2.33544e-05
2.28899e-05
2.21279e-05
2.10894e-05
1.98031e-05
1.83047e-05
1.66339e-05
1.48309e-05
1.2936e-05
1.09928e-05
9.05042e-06
7.15688e-06
5.34975e-06
3.64298e-06
2.01817e-06
4.11154e-07
1.41259e-08
1.40585e-08
4.09246e-07
2.00971e-06
3.62895e-06
5.33105e-06
7.13456e-06
9.02558e-06
1.09666e-05
1.29094e-05
1.48048e-05
1.66091e-05
1.8282e-05
1.97831e-05
2.10727e-05
2.21149e-05
2.2881e-05
2.335e-05
2.35092e-05
2.33544e-05
2.28899e-05
2.21279e-05
2.10894e-05
1.98031e-05
1.83047e-05
1.66339e-05
1.48309e-05
1.2936e-05
1.09928e-05
9.05042e-06
7.15688e-06
5.34975e-06
3.64298e-06
2.01817e-06
4.11154e-07
1.41259e-08
1.40585e-08
4.09246e-07
2.00971e-06
3.62895e-06
5.33105e-06
7.13456e-06
9.02558e-06
1.09666e-05
1.29094e-05
1.48048e-05
1.66091e-05
1.8282e-05
1.97831e-05
2.10727e-05
2.21149e-05
2.2881e-05
2.335e-05
2.35092e-05
2.33544e-05
2.28899e-05
2.21279e-05
2.10894e-05
1.98031e-05
1.83047e-05
1.66339e-05
1.48309e-05
1.2936e-05
1.09928e-05
9.05042e-06
7.15688e-06
5.34975e-06
3.64298e-06
2.01817e-06
4.11154e-07
1.41259e-08
1.40585e-08
4.09246e-07
2.00971e-06
3.62895e-06
5.33105e-06
7.13456e-06
9.02558e-06
1.09666e-05
1.29094e-05
1.48048e-05
1.66091e-05
1.8282e-05
1.97831e-05
2.10727e-05
2.21149e-05
2.2881e-05
2.335e-05
2.35092e-05
2.33544e-05
2.28899e-05
2.21279e-05
2.10894e-05
1.98031e-05
1.83047e-05
1.66339e-05
1.48309e-05
1.2936e-05
1.09928e-05
9.05042e-06
7.15688e-06
5.34975e-06
3.64298e-06
2.01817e-06
4.11154e-07
1.41259e-08
1.40585e-08
4.09246e-07
2.00971e-06
3.62895e-06
5.33105e-06
7.13456e-06
9.02558e-06
1.09666e-05
1.29094e-05
1.48048e-05
1.66091e-05
1.8282e-05
1.97831e-05
2.10727e-05
2.21149e-05
2.2881e-05
2.335e-05
2.35092e-05
2.33544e-05
2.28899e-05
2.21279e-05
2.10894e-05
1.98031e-05
1.83047e-05
1.66339e-05
1.48309e-05
1.2936e-05
1.09928e-05
9.05042e-06
7.15688e-06
5.34975e-06
3.64298e-06
2.01817e-06
4.11154e-07
1.41259e-08
1.40585e-08
4.09246e-07
2.00971e-06
3.62895e-06
5.33105e-06
7.13456e-06
9.02558e-06
1.09666e-05
1.29094e-05
1.48048e-05
1.66091e-05
1.8282e-05
1.97831e-05
2.10727e-05
2.21149e-05
2.2881e-05
2.335e-05
2.35092e-05
2.33544e-05
2.28899e-05
2.21279e-05
2.10894e-05
1.98031e-05
1.83047e-05
1.66339e-05
1.48309e-05
1.2936e-05
1.09928e-05
9.05042e-06
7.15688e-06
5.34975e-06
3.64298e-06
2.01817e-06
4.11154e-07
1.41259e-08
1.40585e-08
4.09246e-07
2.00971e-06
3.62895e-06
5.33105e-06
7.13456e-06
9.02558e-06
1.09666e-05
1.29094e-05
1.48048e-05
1.66091e-05
1.8282e-05
1.97831e-05
2.10727e-05
2.21149e-05
2.2881e-05
2.335e-05
2.35092e-05
2.33544e-05
2.28899e-05
2.21279e-05
2.10894e-05
1.98031e-05
1.83047e-05
1.66339e-05
1.48309e-05
1.2936e-05
1.09928e-05
9.05042e-06
7.15688e-06
5.34975e-06
3.64298e-06
2.01817e-06
4.11154e-07
1.41259e-08
1.40585e-08
4.09246e-07
2.00971e-06
3.62895e-06
5.33105e-06
7.13456e-06
9.02558e-06
1.09666e-05
1.29094e-05
1.48048e-05
1.66091e-05
1.8282e-05
1.97831e-05
2.10727e-05
2.21149e-05
2.2881e-05
2.335e-05
2.35092e-05
2.33544e-05
2.28899e-05
2.21279e-05
2.10894e-05
1.98031e-05
1.83047e-05
1.66339e-05
1.48309e-05
1.2936e-05
1.09928e-05
9.05042e-06
7.15688e-06
5.34975e-06
3.64298e-06
2.01817e-06
4.11154e-07
1.41259e-08
1.40585e-08
4.09246e-07
2.00971e-06
3.62895e-06
5.33105e-06
7.13456e-06
9.02558e-06
1.09666e-05
1.29094e-05
1.48048e-05
1.66091e-05
1.8282e-05
1.97831e-05
2.10727e-05
2.21149e-05
2.2881e-05
2.335e-05
2.35092e-05
2.33544e-05
2.28899e-05
2.21279e-05
2.10894e-05
1.98031e-05
1.83047e-05
1.66339e-05
1.48309e-05
1.2936e-05
1.09928e-05
9.05042e-06
7.15688e-06
5.34975e-06
3.64298e-06
2.01817e-06
4.11154e-07
1.41259e-08
1.40585e-08
4.09246e-07
2.00971e-06
3.62895e-06
5.33105e-06
7.13456e-06
9.02558e-06
1.09666e-05
1.29094e-05
1.48048e-05
1.66091e-05
1.8282e-05
1.97831e-05
2.10727e-05
2.21149e-05
2.2881e-05
2.335e-05
2.35092e-05
2.33544e-05
2.28899e-05
2.21279e-05
2.10894e-05
1.98031e-05
1.83047e-05
1.66339e-05
1.48309e-05
1.2936e-05
1.09928e-05
9.05042e-06
7.15688e-06
5.34975e-06
3.64298e-06
2.01817e-06
4.11154e-07
1.41259e-08
1.40585e-08
4.09246e-07
2.00971e-06
3.62895e-06
5.33105e-06
7.13456e-06
9.02558e-06
1.09666e-05
1.29094e-05
1.48048e-05
1.66091e-05
1.8282e-05
1.97831e-05
2.10727e-05
2.21149e-05
2.2881e-05
2.335e-05
2.35092e-05
2.33544e-05
2.28899e-05
2.21279e-05
2.10894e-05
1.98031e-05
1.83047e-05
1.66339e-05
1.48309e-05
1.2936e-05
1.09928e-05
9.05042e-06
7.15688e-06
5.34975e-06
3.64298e-06
2.01817e-06
4.11154e-07
1.41259e-08
1.40585e-08
4.09246e-07
2.00971e-06
3.62895e-06
5.33105e-06
7.13456e-06
9.02558e-06
1.09666e-05
1.29094e-05
1.48048e-05
1.66091e-05
1.8282e-05
1.97831e-05
2.10727e-05
2.21149e-05
2.2881e-05
2.335e-05
2.35092e-05
2.33544e-05
2.28899e-05
2.21279e-05
2.10894e-05
1.98031e-05
1.83047e-05
1.66339e-05
1.48309e-05
1.2936e-05
1.09928e-05
9.05042e-06
7.15688e-06
5.34975e-06
3.64298e-06
2.01817e-06
4.11154e-07
1.41259e-08
1.40585e-08
4.09246e-07
2.00971e-06
3.62895e-06
5.33105e-06
7.13456e-06
9.02558e-06
1.09666e-05
1.29094e-05
1.48048e-05
1.66091e-05
1.8282e-05
1.97831e-05
2.10727e-05
2.21149e-05
2.2881e-05
2.335e-05
2.35092e-05
2.33544e-05
2.28899e-05
2.21279e-05
2.10894e-05
1.98031e-05
1.83047e-05
1.66339e-05
1.48309e-05
1.2936e-05
1.09928e-05
9.05042e-06
7.15688e-06
5.34975e-06
3.64298e-06
2.01817e-06
4.11154e-07
1.41259e-08
1.40585e-08
4.09246e-07
2.00971e-06
3.62895e-06
5.33105e-06
7.13456e-06
9.02558e-06
1.09666e-05
1.29094e-05
1.48048e-05
1.66091e-05
1.8282e-05
1.97831e-05
2.10727e-05
2.21149e-05
2.2881e-05
2.335e-05
2.35092e-05
2.33544e-05
2.28899e-05
2.21279e-05
2.10894e-05
1.98031e-05
1.83047e-05
1.66339e-05
1.48309e-05
1.2936e-05
1.09928e-05
9.05042e-06
7.15688e-06
5.34975e-06
3.64298e-06
2.01817e-06
4.11154e-07
1.41259e-08
1.40585e-08
4.09246e-07
2.00971e-06
3.62895e-06
5.33105e-06
7.13456e-06
9.02558e-06
1.09666e-05
1.29094e-05
1.48048e-05
1.66091e-05
1.8282e-05
1.97831e-05
2.10727e-05
2.21149e-05
2.2881e-05
2.335e-05
2.35092e-05
2.33544e-05
2.28899e-05
2.21279e-05
2.10894e-05
1.98031e-05
1.83047e-05
1.66339e-05
1.48309e-05
1.2936e-05
1.09928e-05
9.05042e-06
7.15688e-06
5.34975e-06
3.64298e-06
2.01817e-06
4.11154e-07
1.41259e-08
1.40585e-08
4.09246e-07
2.00971e-06
3.62895e-06
5.33105e-06
7.13456e-06
9.02558e-06
1.09666e-05
1.29094e-05
1.48048e-05
1.66091e-05
1.8282e-05
1.97831e-05
2.10727e-05
2.21149e-05
2.2881e-05
2.335e-05
2.35092e-05
2.33544e-05
2.28899e-05
2.21279e-05
2.10894e-05
1.98031e-05
1.83047e-05
1.66339e-05
1.48309e-05
1.2936e-05
1.09928e-05
9.05042e-06
7.15688e-06
5.34975e-06
3.64298e-06
2.01817e-06
4.11154e-07
1.41259e-08
1.40585e-08
4.09246e-07
2.00971e-06
3.62895e-06
5.33105e-06
7.13456e-06
9.02558e-06
1.09666e-05
1.29094e-05
1.48048e-05
1.66091e-05
1.8282e-05
1.97831e-05
2.10727e-05
2.21149e-05
2.2881e-05
2.335e-05
2.35092e-05
2.33544e-05
2.28899e-05
2.21279e-05
2.10894e-05
1.98031e-05
1.83047e-05
1.66339e-05
1.48309e-05
1.2936e-05
1.09928e-05
9.05042e-06
7.15688e-06
5.34975e-06
3.64298e-06
2.01817e-06
4.11154e-07
1.41259e-08
1.40585e-08
4.09246e-07
2.00971e-06
3.62895e-06
5.33105e-06
7.13456e-06
9.02558e-06
1.09666e-05
1.29094e-05
1.48048e-05
1.66091e-05
1.8282e-05
1.97831e-05
2.10727e-05
2.21149e-05
2.2881e-05
2.335e-05
2.35092e-05
2.33544e-05
2.28899e-05
2.21279e-05
2.10894e-05
1.98031e-05
1.83047e-05
1.66339e-05
1.48309e-05
1.2936e-05
1.09928e-05
9.05042e-06
7.15688e-06
5.34975e-06
3.64298e-06
2.01817e-06
4.11154e-07
1.41259e-08
1.40585e-08
4.09246e-07
2.00971e-06
3.62895e-06
5.33105e-06
7.13456e-06
9.02558e-06
1.09666e-05
1.29094e-05
1.48048e-05
1.66091e-05
1.8282e-05
1.97831e-05
2.10727e-05
2.21149e-05
2.2881e-05
2.335e-05
2.35092e-05
2.33544e-05
2.28899e-05
2.21279e-05
2.10894e-05
1.98031e-05
1.83047e-05
1.66339e-05
1.48309e-05
1.2936e-05
1.09928e-05
9.05042e-06
7.15688e-06
5.34975e-06
3.64298e-06
2.01817e-06
4.11154e-07
1.41259e-08
1.40585e-08
4.09246e-07
2.00971e-06
3.62895e-06
5.33105e-06
7.13456e-06
9.02558e-06
1.09666e-05
1.29094e-05
1.48048e-05
1.66091e-05
1.8282e-05
1.97831e-05
2.10727e-05
2.21149e-05
2.2881e-05
2.335e-05
2.35092e-05
2.33544e-05
2.28899e-05
2.21279e-05
2.10894e-05
1.98031e-05
1.83047e-05
1.66339e-05
1.48309e-05
1.2936e-05
1.09928e-05
9.05042e-06
7.15688e-06
5.34975e-06
3.64298e-06
2.01817e-06
4.11154e-07
1.41259e-08
1.40585e-08
4.09246e-07
2.00971e-06
3.62895e-06
5.33105e-06
7.13456e-06
9.02558e-06
1.09666e-05
1.29094e-05
1.48048e-05
1.66091e-05
1.8282e-05
1.97831e-05
2.10727e-05
2.21149e-05
2.2881e-05
2.335e-05
2.35092e-05
2.33544e-05
2.28899e-05
2.21279e-05
2.10894e-05
1.98031e-05
1.83047e-05
1.66339e-05
1.48309e-05
1.2936e-05
1.09928e-05
9.05042e-06
7.15688e-06
5.34975e-06
3.64298e-06
2.01817e-06
4.11154e-07
1.41259e-08
1.40585e-08
4.09246e-07
2.00971e-06
3.62895e-06
5.33105e-06
7.13456e-06
9.02558e-06
1.09666e-05
1.29094e-05
1.48048e-05
1.66091e-05
1.8282e-05
1.97831e-05
2.10727e-05
2.21149e-05
2.2881e-05
2.335e-05
2.35092e-05
2.33544e-05
2.28899e-05
2.21279e-05
2.10894e-05
1.98031e-05
1.83047e-05
1.66339e-05
1.48309e-05
1.2936e-05
1.09928e-05
9.05042e-06
7.15688e-06
5.34975e-06
3.64298e-06
2.01817e-06
4.11154e-07
1.41259e-08
1.40585e-08
4.09246e-07
2.00971e-06
3.62895e-06
5.33105e-06
7.13456e-06
9.02558e-06
1.09666e-05
1.29094e-05
1.48048e-05
1.66091e-05
1.8282e-05
1.97831e-05
2.10727e-05
2.21149e-05
2.2881e-05
2.335e-05
2.35092e-05
2.33544e-05
2.28899e-05
2.21279e-05
2.10894e-05
1.98031e-05
1.83047e-05
1.66339e-05
1.48309e-05
1.2936e-05
1.09928e-05
9.05042e-06
7.15688e-06
5.34975e-06
3.64298e-06
2.01817e-06
4.11154e-07
1.41259e-08
1.40585e-08
4.09246e-07
2.00971e-06
3.62895e-06
5.33105e-06
7.13456e-06
9.02558e-06
1.09666e-05
1.29094e-05
1.48048e-05
1.66091e-05
1.8282e-05
1.97831e-05
2.10727e-05
2.21149e-05
2.2881e-05
2.335e-05
2.35092e-05
2.33544e-05
2.28899e-05
2.21279e-05
2.10894e-05
1.98031e-05
1.83047e-05
1.66339e-05
1.48309e-05
1.2936e-05
1.09928e-05
9.05042e-06
7.15688e-06
5.34975e-06
3.64298e-06
2.01817e-06
4.11154e-07
1.41259e-08
1.40585e-08
4.09246e-07
2.00971e-06
3.62895e-06
5.33105e-06
7.13456e-06
9.02558e-06
1.09666e-05
1.29094e-05
1.48048e-05
1.66091e-05
1.8282e-05
1.97831e-05
2.10727e-05
2.21149e-05
2.2881e-05
2.335e-05
2.35092e-05
2.33544e-05
2.28899e-05
2.21279e-05
2.10894e-05
1.98031e-05
1.83047e-05
1.66339e-05
1.48309e-05
1.2936e-05
1.09928e-05
9.05042e-06
7.15688e-06
5.34975e-06
3.64298e-06
2.01817e-06
4.11154e-07
1.41259e-08
1.40585e-08
4.09246e-07
2.00971e-06
3.62895e-06
5.33105e-06
7.13456e-06
9.02558e-06
1.09666e-05
1.29094e-05
1.48048e-05
1.66091e-05
1.8282e-05
1.97831e-05
2.10727e-05
2.21149e-05
2.2881e-05
2.335e-05
2.35092e-05
2.33544e-05
2.28899e-05
2.21279e-05
2.10894e-05
1.98031e-05
1.83047e-05
1.66339e-05
1.48309e-05
1.2936e-05
1.09928e-05
9.05042e-06
7.15688e-06
5.34975e-06
3.64298e-06
2.01817e-06
4.11154e-07
1.41259e-08
1.40585e-08
4.09246e-07
2.00971e-06
3.62895e-06
5.33105e-06
7.13456e-06
9.02558e-06
1.09666e-05
1.29094e-05
1.48048e-05
1.66091e-05
1.8282e-05
1.97831e-05
2.10727e-05
2.21149e-05
2.2881e-05
2.335e-05
2.35092e-05
2.33544e-05
2.28899e-05
2.21279e-05
2.10894e-05
1.98031e-05
1.83047e-05
1.66339e-05
1.48309e-05
1.2936e-05
1.09928e-05
9.05042e-06
7.15688e-06
5.34975e-06
3.64298e-06
2.01817e-06
4.11154e-07
1.41259e-08
1.40585e-08
4.09246e-07
2.00971e-06
3.62895e-06
5.33105e-06
7.13456e-06
9.02558e-06
1.09666e-05
1.29094e-05
1.48048e-05
1.66091e-05
1.8282e-05
1.97831e-05
2.10727e-05
2.21149e-05
2.2881e-05
2.335e-05
2.35092e-05
2.33544e-05
2.28899e-05
2.21279e-05
2.10894e-05
1.98031e-05
1.83047e-05
1.66339e-05
1.48309e-05
1.2936e-05
1.09928e-05
9.05042e-06
7.15688e-06
5.34975e-06
3.64298e-06
2.01817e-06
4.11154e-07
1.41259e-08
1.40585e-08
4.09246e-07
2.00971e-06
3.62895e-06
5.33105e-06
7.13456e-06
9.02558e-06
1.09666e-05
1.29094e-05
1.48048e-05
1.66091e-05
1.8282e-05
1.97831e-05
2.10727e-05
2.21149e-05
2.2881e-05
2.335e-05
2.35092e-05
2.33544e-05
2.28899e-05
2.21279e-05
2.10894e-05
1.98031e-05
1.83047e-05
1.66339e-05
1.48309e-05
1.2936e-05
1.09928e-05
9.05042e-06
7.15688e-06
5.34975e-06
3.64298e-06
2.01817e-06
4.11154e-07
1.41259e-08
1.40585e-08
4.09246e-07
2.00971e-06
3.62895e-06
5.33105e-06
7.13456e-06
9.02558e-06
1.09666e-05
1.29094e-05
1.48048e-05
1.66091e-05
1.8282e-05
1.97831e-05
2.10727e-05
2.21149e-05
2.2881e-05
2.335e-05
2.35092e-05
2.33544e-05
2.28899e-05
2.21279e-05
2.10894e-05
1.98031e-05
1.83047e-05
1.66339e-05
1.48309e-05
1.2936e-05
1.09928e-05
9.05042e-06
7.15688e-06
5.34975e-06
3.64298e-06
2.01817e-06
4.11154e-07
1.41259e-08
1.40585e-08
4.09246e-07
2.00971e-06
3.62895e-06
5.33105e-06
7.13456e-06
9.02558e-06
1.09666e-05
1.29094e-05
1.48048e-05
1.66091e-05
1.8282e-05
1.97831e-05
2.10727e-05
2.21149e-05
2.2881e-05
2.335e-05
2.35092e-05
2.33544e-05
2.28899e-05
2.21279e-05
2.10894e-05
1.98031e-05
1.83047e-05
1.66339e-05
1.48309e-05
1.2936e-05
1.09928e-05
9.05042e-06
7.15688e-06
5.34975e-06
3.64298e-06
2.01817e-06
4.11154e-07
1.41259e-08
1.40585e-08
4.09246e-07
2.00971e-06
3.62895e-06
5.33105e-06
7.13456e-06
9.02558e-06
1.09666e-05
1.29094e-05
1.48048e-05
1.66091e-05
1.8282e-05
1.97831e-05
2.10727e-05
2.21149e-05
2.2881e-05
2.335e-05
2.35092e-05
2.33544e-05
2.28899e-05
2.21279e-05
2.10894e-05
1.98031e-05
1.83047e-05
1.66339e-05
1.48309e-05
1.2936e-05
1.09928e-05
9.05042e-06
7.15688e-06
5.34975e-06
3.64298e-06
2.01817e-06
4.11154e-07
1.41259e-08
1.40585e-08
4.09246e-07
2.00971e-06
3.62895e-06
5.33105e-06
7.13456e-06
9.02558e-06
1.09666e-05
1.29094e-05
1.48048e-05
1.66091e-05
1.8282e-05
1.97831e-05
2.10727e-05
2.21149e-05
2.2881e-05
2.335e-05
2.35092e-05
2.33544e-05
2.28899e-05
2.21279e-05
2.10894e-05
1.98031e-05
1.83047e-05
1.66339e-05
1.48309e-05
1.2936e-05
1.09928e-05
9.05042e-06
7.15688e-06
5.34975e-06
3.64298e-06
2.01817e-06
4.11154e-07
1.41259e-08
1.40585e-08
4.09246e-07
2.00971e-06
3.62895e-06
5.33105e-06
7.13456e-06
9.02558e-06
1.09666e-05
1.29094e-05
1.48048e-05
1.66091e-05
1.8282e-05
1.97831e-05
2.10727e-05
2.21149e-05
2.2881e-05
2.335e-05
2.35092e-05
2.33544e-05
2.28899e-05
2.21279e-05
2.10894e-05
1.98031e-05
1.83047e-05
1.66339e-05
1.48309e-05
1.2936e-05
1.09928e-05
9.05042e-06
7.15688e-06
5.34975e-06
3.64298e-06
2.01817e-06
4.11154e-07
1.41259e-08
1.40585e-08
4.09246e-07
2.00971e-06
3.62895e-06
5.33105e-06
7.13456e-06
9.02558e-06
1.09666e-05
1.29094e-05
1.48048e-05
1.66091e-05
1.8282e-05
1.97831e-05
2.10727e-05
2.21149e-05
2.2881e-05
2.335e-05
2.35092e-05
2.33544e-05
2.28899e-05
2.21279e-05
2.10894e-05
1.98031e-05
1.83047e-05
1.66339e-05
1.48309e-05
1.2936e-05
1.09928e-05
9.05042e-06
7.15688e-06
5.34975e-06
3.64298e-06
2.01817e-06
4.11154e-07
1.41259e-08
1.40585e-08
4.09246e-07
2.00971e-06
3.62895e-06
5.33105e-06
7.13456e-06
9.02558e-06
1.09666e-05
1.29094e-05
1.48048e-05
1.66091e-05
1.8282e-05
1.97831e-05
2.10727e-05
2.21149e-05
2.2881e-05
2.335e-05
2.35092e-05
2.33544e-05
2.28899e-05
2.21279e-05
2.10894e-05
1.98031e-05
1.83047e-05
1.66339e-05
1.48309e-05
1.2936e-05
1.09928e-05
9.05042e-06
7.15688e-06
5.34975e-06
3.64298e-06
2.01817e-06
4.11154e-07
1.41259e-08
1.40585e-08
4.09246e-07
2.00971e-06
3.62895e-06
5.33105e-06
7.13456e-06
9.02558e-06
1.09666e-05
1.29094e-05
1.48048e-05
1.66091e-05
1.8282e-05
1.97831e-05
2.10727e-05
2.21149e-05
2.2881e-05
2.335e-05
2.35092e-05
2.33544e-05
2.28899e-05
2.21279e-05
2.10894e-05
1.98031e-05
1.83047e-05
1.66339e-05
1.48309e-05
1.2936e-05
1.09928e-05
9.05042e-06
7.15688e-06
5.34975e-06
3.64298e-06
2.01817e-06
4.11154e-07
1.41259e-08
1.40585e-08
4.09246e-07
2.00971e-06
3.62895e-06
5.33105e-06
7.13456e-06
9.02558e-06
1.09666e-05
1.29094e-05
1.48048e-05
1.66091e-05
1.8282e-05
1.97831e-05
2.10727e-05
2.21149e-05
2.2881e-05
2.335e-05
2.35092e-05
2.33544e-05
2.28899e-05
2.21279e-05
2.10894e-05
1.98031e-05
1.83047e-05
1.66339e-05
1.48309e-05
1.2936e-05
1.09928e-05
9.05042e-06
7.15688e-06
5.34975e-06
3.64298e-06
2.01817e-06
4.11154e-07
1.41259e-08
1.40585e-08
4.09246e-07
2.00971e-06
3.62895e-06
5.33105e-06
7.13456e-06
9.02558e-06
1.09666e-05
1.29094e-05
1.48048e-05
1.66091e-05
1.8282e-05
1.97831e-05
2.10727e-05
2.21149e-05
2.2881e-05
2.335e-05
2.35092e-05
2.33544e-05
2.28899e-05
2.21279e-05
2.10894e-05