/*--------------------------------*- C++ -*----------------------------------*\
  =========                 |
  \\      /  F ield         | OpenFOAM: The Open Source CFD Toolbox
   \\    /   O peration     | Website:  https://openfoam.org
    \\  /    A nd           | Version:  13
     \\/     M anipulation  |
\*---------------------------------------------------------------------------*/
FoamFile
{
    format      ascii;
    class       volScalarField;
    location    "42";
    object      k;
}
// * * * * * * * * * * * * * * * * * * * * * * * * * * * * * * * * * * * * * //

dimensions      [0 2 -2 0 0 0 0];

internalField   nonuniform List<scalar> 
78750
(
2.22045e-16
2.22045e-16
2.22045e-16
2.22045e-16
2.22045e-16
2.22045e-16
2.22045e-16
2.22045e-16
2.22045e-16
2.22045e-16
2.22045e-16
2.22045e-16
2.22045e-16
2.22045e-16
2.22045e-16
2.22045e-16
2.22045e-16
2.22045e-16
2.22045e-16
2.22045e-16
2.22045e-16
2.22045e-16
2.22045e-16
2.22045e-16
2.22045e-16
2.22045e-16
2.22045e-16
2.22045e-16
2.22045e-16
2.22045e-16
2.22045e-16
2.22045e-16
2.22045e-16
2.22045e-16
2.22045e-16
2.22045e-16
2.22045e-16
2.22045e-16
2.7708e-16
3.7257e-16
4.78784e-16
5.94306e-16
7.1731e-16
8.45362e-16
9.75398e-16
1.10382e-15
1.22668e-15
1.33989e-15
1.43943e-15
1.52163e-15
1.58334e-15
1.62214e-15
1.63647e-15
1.62574e-15
1.59038e-15
1.53176e-15
1.45219e-15
1.35469e-15
1.24289e-15
1.12074e-15
9.92352e-16
8.61704e-16
7.32452e-16
6.07728e-16
4.90028e-16
3.81212e-16
2.82683e-16
2.22045e-16
2.22045e-16
2.22045e-16
2.22045e-16
2.22045e-16
3.80846e-16
6.52716e-16
9.4977e-16
1.27611e-15
1.63284e-15
2.01762e-15
2.42457e-15
2.84448e-15
3.26538e-15
3.67334e-15
4.05337e-15
4.39045e-15
4.67054e-15
4.88153e-15
5.01406e-15
5.06213e-15
5.02353e-15
4.89998e-15
4.69702e-15
4.42363e-15
4.09163e-15
3.71487e-15
3.30832e-15
2.88703e-15
2.4651e-15
2.05473e-15
1.66542e-15
1.30337e-15
9.71202e-16
6.68012e-16
3.89651e-16
2.22045e-16
2.22045e-16
2.22045e-16
2.22045e-16
6.67157e-16
1.20002e-15
1.78028e-15
2.41864e-15
3.11945e-15
3.87975e-15
4.68899e-15
5.5294e-15
6.37705e-15
7.20333e-15
7.9769e-15
8.6659e-15
9.24018e-15
9.67354e-15
9.94559e-15
1.00433e-14
9.96187e-15
9.70524e-15
9.28562e-15
8.72272e-15
8.04225e-15
7.27404e-15
6.44989e-15
5.60127e-15
4.7571e-15
3.94177e-15
3.17356e-15
2.46357e-15
1.81524e-15
1.22456e-15
6.80977e-16
2.22045e-16
2.22045e-16
2.22045e-16
2.22045e-16
9.91116e-16
1.81477e-15
2.70871e-15
3.69159e-15
4.77159e-15
5.94515e-15
7.19652e-15
8.4985e-15
9.81397e-15
1.10983e-14
1.23022e-14
1.33757e-14
1.4271e-14
1.49467e-14
1.53705e-14
1.55218e-14
1.5393e-14
1.49904e-14
1.43336e-14
1.34539e-14
1.23922e-14
1.11955e-14
9.91404e-15
8.59712e-15
7.28985e-15
6.02998e-15
4.84548e-15
3.75282e-15
2.7563e-15
1.84823e-15
1.01021e-15
2.22045e-16
2.22045e-16
2.22045e-16
2.76335e-16
1.32043e-15
2.4225e-15
3.61898e-15
4.93509e-15
6.38202e-15
7.95511e-15
9.63334e-15
1.13802e-14
1.31459e-14
1.48702e-14
1.64871e-14
1.79288e-14
1.91313e-14
2.00387e-14
2.06073e-14
2.08094e-14
2.06349e-14
2.00924e-14
1.92083e-14
1.8025e-14
1.65976e-14
1.49897e-14
1.32689e-14
1.15014e-14
9.74795e-15
8.0592e-15
6.47256e-15
5.00999e-15
3.67702e-15
2.46312e-15
1.34335e-15
2.81169e-16
2.22045e-16
2.22045e-16
3.358e-16
1.61844e-15
2.97204e-15
4.44149e-15
6.0579e-15
7.83509e-15
9.76738e-15
1.1829e-14
1.3975e-14
1.61441e-14
1.82625e-14
2.02489e-14
2.202e-14
2.34971e-14
2.46112e-14
2.53091e-14
2.55564e-14
2.53409e-14
2.46731e-14
2.35857e-14
2.21308e-14
2.03762e-14
1.84002e-14
1.62857e-14
1.41145e-14
1.19608e-14
9.88708e-15
7.93911e-15
6.14384e-15
4.50798e-15
3.01847e-15
1.64458e-15
3.41301e-16
2.22045e-16
2.22045e-16
3.86535e-16
1.8727e-15
3.44081e-15
5.14296e-15
7.01521e-15
9.07362e-15
1.13116e-14
1.36993e-14
1.61847e-14
1.86968e-14
2.11501e-14
2.34502e-14
2.5501e-14
2.72111e-14
2.85008e-14
2.93082e-14
2.95937e-14
2.93432e-14
2.8569e-14
2.73088e-14
2.56232e-14
2.35906e-14
2.13018e-14
1.88529e-14
1.63384e-14
1.38446e-14
1.14434e-14
9.18807e-15
7.10968e-15
5.21595e-15
3.49171e-15
1.9013e-15
3.92544e-16
2.22045e-16
2.22045e-16
4.27634e-16
2.07868e-15
3.82057e-15
5.71116e-15
7.79057e-15
1.00766e-14
1.2562e-14
1.52136e-14
1.79736e-14
2.07631e-14
2.34872e-14
2.60412e-14
2.83181e-14
3.02165e-14
3.16481e-14
3.2544e-14
3.28603e-14
3.25814e-14
3.1721e-14
3.0321e-14
2.84486e-14
2.61912e-14
2.36493e-14
2.09299e-14
1.81378e-14
1.53687e-14
1.27027e-14
1.01987e-14
7.89129e-15
5.7889e-15
3.8747e-15
2.10906e-15
4.34009e-16
2.22045e-16
2.22045e-16
4.59286e-16
2.23735e-15
4.11307e-15
6.1488e-15
8.38774e-15
1.08491e-14
1.3525e-14
1.63797e-14
1.93511e-14
2.23542e-14
2.52868e-14
2.80361e-14
3.0487e-14
3.25304e-14
3.40711e-14
3.5035e-14
3.5375e-14
3.50741e-14
3.41472e-14
3.26395e-14
3.06234e-14
2.81928e-14
2.54562e-14
2.25285e-14
1.95226e-14
1.65418e-14
1.36719e-14
1.09765e-14
8.49277e-15
6.2298e-15
4.16941e-15
2.26892e-15
4.65909e-16
2.22045e-16
2.22045e-16
4.8246e-16
2.35353e-15
4.32727e-15
6.46927e-15
8.82503e-15
1.14147e-14
1.42301e-14
1.72336e-14
2.03598e-14
2.35192e-14
2.66044e-14
2.94967e-14
3.2075e-14
3.42244e-14
3.58449e-14
3.68586e-14
3.72158e-14
3.68988e-14
3.59232e-14
3.43366e-14
3.22152e-14
2.96578e-14
2.67785e-14
2.36983e-14
2.05361e-14
1.74001e-14
1.43811e-14
1.15456e-14
8.93284e-15
6.55236e-15
4.38501e-15
2.38587e-15
4.89239e-16
2.22045e-16
2.22045e-16
4.98588e-16
2.43442e-15
4.47638e-15
6.69237e-15
9.12944e-15
1.18085e-14
1.4721e-14
1.7828e-14
2.10619e-14
2.43302e-14
2.75216e-14
3.05134e-14
3.31804e-14
3.54036e-14
3.70796e-14
3.81279e-14
3.8497e-14
3.81688e-14
3.71592e-14
3.55176e-14
3.33229e-14
3.06772e-14
2.76986e-14
2.45123e-14
2.12411e-14
1.79973e-14
1.48744e-14
1.19415e-14
9.23894e-15
6.77671e-15
4.53496e-15
2.4672e-15
5.05459e-16
2.22045e-16
2.22045e-16
5.09262e-16
2.48796e-15
4.57509e-15
6.84006e-15
9.33096e-15
1.20692e-14
1.50459e-14
1.82215e-14
2.15267e-14
2.48671e-14
2.81288e-14
3.11865e-14
3.39121e-14
3.61842e-14
3.78969e-14
3.89681e-14
3.93451e-14
3.90093e-14
3.79773e-14
3.62993e-14
3.4056e-14
3.13518e-14
2.83075e-14
2.50509e-14
2.17076e-14
1.83924e-14
1.52007e-14
1.22033e-14
9.44141e-15
6.9251e-15
4.63413e-15
2.52098e-15
5.16183e-16
2.22045e-16
2.22045e-16
5.15984e-16
2.52169e-15
4.63728e-15
6.9331e-15
9.45792e-15
1.22334e-14
1.52507e-14
1.84694e-14
2.18196e-14
2.52053e-14
2.85113e-14
3.16105e-14
3.43731e-14
3.66759e-14
3.84118e-14
3.94973e-14
3.98793e-14
3.95388e-14
3.84925e-14
3.67916e-14
3.45177e-14
3.17767e-14
2.86909e-14
2.539e-14
2.20014e-14
1.86411e-14
1.54062e-14
1.23682e-14
9.56886e-15
7.0185e-15
4.69655e-15
2.55483e-15
5.22929e-16
2.22045e-16
2.22045e-16
5.20016e-16
2.54193e-15
4.6746e-15
6.98894e-15
9.53411e-15
1.2332e-14
1.53735e-14
1.86182e-14
2.19953e-14
2.54083e-14
2.87409e-14
3.1865e-14
3.46498e-14
3.69711e-14
3.87208e-14
3.9815e-14
4.01999e-14
3.98566e-14
3.88018e-14
3.7087e-14
3.47947e-14
3.20316e-14
2.8921e-14
2.55935e-14
2.21776e-14
1.87903e-14
1.55294e-14
1.2467e-14
9.64528e-15
7.0745e-15
4.73397e-15
2.57512e-15
5.26972e-16
2.22045e-16
2.22045e-16
5.22324e-16
2.55352e-15
4.69596e-15
7.0209e-15
9.57772e-15
1.23884e-14
1.54439e-14
1.87034e-14
2.2096e-14
2.55245e-14
2.88723e-14
3.20107e-14
3.48081e-14
3.714e-14
3.88977e-14
3.99968e-14
4.03834e-14
4.00384e-14
3.89787e-14
3.72561e-14
3.49532e-14
3.21774e-14
2.90526e-14
2.57099e-14
2.22784e-14
1.88756e-14
1.55999e-14
1.25236e-14
9.68899e-15
7.10653e-15
4.75537e-15
2.58673e-15
5.29283e-16
2.22045e-16
2.22045e-16
5.23584e-16
2.55985e-15
4.70763e-15
7.03837e-15
9.60156e-15
1.24192e-14
1.54823e-14
1.87499e-14
2.2151e-14
2.55881e-14
2.89442e-14
3.20903e-14
3.48947e-14
3.72324e-14
3.89944e-14
4.00962e-14
4.04837e-14
4.01378e-14
3.90755e-14
3.73485e-14
3.50399e-14
3.22572e-14
2.91245e-14
2.57735e-14
2.23335e-14
1.89223e-14
1.56384e-14
1.25545e-14
9.71287e-15
7.12402e-15
4.76706e-15
2.59306e-15
5.30544e-16
2.22045e-16
2.22045e-16
5.24243e-16
2.56316e-15
4.71374e-15
7.0475e-15
9.61402e-15
1.24353e-14
1.55024e-14
1.87743e-14
2.21797e-14
2.56213e-14
2.89818e-14
3.2132e-14
3.494e-14
3.72806e-14
3.90449e-14
4.01481e-14
4.05362e-14
4.01898e-14
3.9126e-14
3.73968e-14
3.50852e-14
3.22988e-14
2.91621e-14
2.58068e-14
2.23622e-14
1.89466e-14
1.56585e-14
1.25706e-14
9.72534e-15
7.13316e-15
4.77316e-15
2.59637e-15
5.31203e-16
2.22045e-16
2.22045e-16
5.24572e-16
2.56482e-15
4.71679e-15
7.05208e-15
9.62026e-15
1.24434e-14
1.55125e-14
1.87865e-14
2.21941e-14
2.56379e-14
2.90006e-14
3.21528e-14
3.49626e-14
3.73048e-14
3.90703e-14
4.01742e-14
4.05624e-14
4.02158e-14
3.91513e-14
3.7421e-14
3.51079e-14
3.23197e-14
2.91809e-14
2.58234e-14
2.23766e-14
1.89588e-14
1.56686e-14
1.25787e-14
9.73158e-15
7.13773e-15
4.77622e-15
2.59803e-15
5.31532e-16
2.22045e-16
2.22045e-16
5.24731e-16
2.56561e-15
4.71826e-15
7.05427e-15
9.62326e-15
1.24473e-14
1.55173e-14
1.87923e-14
2.2201e-14
2.56459e-14
2.90096e-14
3.21628e-14
3.49735e-14
3.73164e-14
3.90824e-14
4.01867e-14
4.05751e-14
4.02283e-14
3.91635e-14
3.74326e-14
3.51187e-14
3.23297e-14
2.919e-14
2.58314e-14
2.23836e-14
1.89647e-14
1.56734e-14
1.25826e-14
9.73458e-15
7.13993e-15
4.77768e-15
2.59882e-15
5.3169e-16
2.22045e-16
2.22045e-16
5.24803e-16
2.56598e-15
4.71894e-15
7.05528e-15
9.62464e-15
1.24491e-14
1.55195e-14
1.8795e-14
2.22042e-14
2.56496e-14
2.90138e-14
3.21675e-14
3.49785e-14
3.73218e-14
3.9088e-14
4.01924e-14
4.05809e-14
4.02341e-14
3.91691e-14
3.7438e-14
3.51238e-14
3.23343e-14
2.91941e-14
2.58351e-14
2.23868e-14
1.89674e-14
1.56757e-14
1.25843e-14
9.73596e-15
7.14094e-15
4.77836e-15
2.59919e-15
5.31763e-16
2.22045e-16
2.22045e-16
5.24836e-16
2.56614e-15
4.71924e-15
7.05573e-15
9.62525e-15
1.24499e-14
1.55205e-14
1.87962e-14
2.22056e-14
2.56512e-14
2.90156e-14
3.21695e-14
3.49808e-14
3.73242e-14
3.90905e-14
4.0195e-14
4.05834e-14
4.02366e-14
3.91716e-14
3.74403e-14
3.5126e-14
3.23364e-14
2.9196e-14
2.58367e-14
2.23882e-14
1.89686e-14
1.56767e-14
1.25851e-14
9.73657e-15
7.14138e-15
4.77865e-15
2.59935e-15
5.31795e-16
2.22045e-16
2.22045e-16
5.2485e-16
2.56621e-15
4.71936e-15
7.05592e-15
9.62552e-15
1.24502e-14
1.55209e-14
1.87967e-14
2.22062e-14
2.56519e-14
2.90164e-14
3.21704e-14
3.49817e-14
3.73252e-14
3.90916e-14
4.01961e-14
4.05846e-14
4.02377e-14
3.91727e-14
3.74414e-14
3.51269e-14
3.23372e-14
2.91968e-14
2.58374e-14
2.23888e-14
1.89691e-14
1.56771e-14
1.25855e-14
9.73683e-15
7.14158e-15
4.77878e-15
2.59942e-15
5.31809e-16
2.22045e-16
2.22045e-16
5.24855e-16
2.56624e-15
4.71942e-15
7.056e-15
9.62562e-15
1.24503e-14
1.55211e-14
1.8797e-14
2.22065e-14
2.56522e-14
2.90167e-14
3.21707e-14
3.49821e-14
3.73256e-14
3.9092e-14
4.01965e-14
4.0585e-14
4.02382e-14
3.91731e-14
3.74418e-14
3.51273e-14
3.23376e-14
2.91971e-14
2.58377e-14
2.2389e-14
1.89693e-14
1.56773e-14
1.25856e-14
9.73694e-15
7.14165e-15
4.77883e-15
2.59945e-15
5.31814e-16
2.22045e-16
2.22045e-16
5.24857e-16
2.56625e-15
4.71944e-15
7.05603e-15
9.62567e-15
1.24504e-14
1.55212e-14
1.8797e-14
2.22066e-14
2.56523e-14
2.90169e-14
3.21709e-14
3.49823e-14
3.73258e-14
3.90922e-14
4.01967e-14
4.05852e-14
4.02384e-14
3.91733e-14
3.74419e-14
3.51275e-14
3.23377e-14
2.91972e-14
2.58378e-14
2.23891e-14
1.89694e-14
1.56773e-14
1.25857e-14
9.73698e-15
7.14169e-15
4.77886e-15
2.59946e-15
5.31816e-16
2.22045e-16
2.22045e-16
5.24858e-16
2.56625e-15
4.71945e-15
7.05605e-15
9.62568e-15
1.24504e-14
1.55212e-14
1.87971e-14
2.22066e-14
2.56524e-14
2.90169e-14
3.21709e-14
3.49823e-14
3.73258e-14
3.90923e-14
4.01968e-14
4.05853e-14
4.02384e-14
3.91733e-14
3.7442e-14
3.51275e-14
3.23378e-14
2.91973e-14
2.58378e-14
2.23892e-14
1.89694e-14
1.56773e-14
1.25857e-14
9.73699e-15
7.1417e-15
4.77886e-15
2.59946e-15
5.31817e-16
2.22045e-16
2.22045e-16
5.24859e-16
2.56626e-15
4.71945e-15
7.05605e-15
9.62569e-15
1.24504e-14
1.55212e-14
1.87971e-14
2.22066e-14
2.56524e-14
2.90169e-14
3.2171e-14
3.49824e-14
3.73259e-14
3.90923e-14
4.01968e-14
4.05853e-14
4.02385e-14
3.91734e-14
3.7442e-14
3.51276e-14
3.23378e-14
2.91973e-14
2.58379e-14
2.23892e-14
1.89694e-14
1.56774e-14
1.25857e-14
9.737e-15
7.1417e-15
4.77887e-15
2.59946e-15
5.31818e-16
2.22045e-16
2.22045e-16
5.24859e-16
2.56626e-15
4.71945e-15
7.05605e-15
9.62569e-15
1.24504e-14
1.55212e-14
1.87971e-14
2.22066e-14
2.56524e-14
2.90169e-14
3.2171e-14
3.49824e-14
3.73259e-14
3.90923e-14
4.01968e-14
4.05853e-14
4.02385e-14
3.91734e-14
3.7442e-14
3.51276e-14
3.23378e-14
2.91973e-14
2.58379e-14
2.23892e-14
1.89694e-14
1.56774e-14
1.25857e-14
9.737e-15
7.1417e-15
4.77887e-15
2.59946e-15
5.31818e-16
2.22045e-16
2.22045e-16
5.24859e-16
2.56626e-15
4.71945e-15
7.05605e-15
9.62569e-15
1.24504e-14
1.55212e-14
1.87971e-14
2.22066e-14
2.56524e-14
2.90169e-14
3.2171e-14
3.49824e-14
3.73259e-14
3.90923e-14
4.01968e-14
4.05853e-14
4.02385e-14
3.91734e-14
3.7442e-14
3.51276e-14
3.23378e-14
2.91973e-14
2.58379e-14
2.23892e-14
1.89694e-14
1.56774e-14
1.25857e-14
9.737e-15
7.1417e-15
4.77887e-15
2.59947e-15
5.31818e-16
2.22045e-16
2.22045e-16
5.24859e-16
2.56626e-15
4.71945e-15
7.05605e-15
9.62569e-15
1.24504e-14
1.55212e-14
1.87971e-14
2.22066e-14
2.56524e-14
2.90169e-14
3.2171e-14
3.49824e-14
3.73259e-14
3.90923e-14
4.01968e-14
4.05853e-14
4.02385e-14
3.91734e-14
3.7442e-14
3.51276e-14
3.23378e-14
2.91973e-14
2.58379e-14
2.23892e-14
1.89694e-14
1.56774e-14
1.25857e-14
9.737e-15
7.1417e-15
4.77887e-15
2.59947e-15
5.31818e-16
2.22045e-16
2.22045e-16
5.24859e-16
2.56626e-15
4.71945e-15
7.05605e-15
9.62569e-15
1.24504e-14
1.55212e-14
1.87971e-14
2.22066e-14
2.56524e-14
2.90169e-14
3.2171e-14
3.49824e-14
3.73259e-14
3.90923e-14
4.01968e-14
4.05853e-14
4.02385e-14
3.91734e-14
3.7442e-14
3.51276e-14
3.23378e-14
2.91973e-14
2.58379e-14
2.23892e-14
1.89694e-14
1.56774e-14
1.25857e-14
9.737e-15
7.1417e-15
4.77887e-15
2.59947e-15
5.31818e-16
2.22045e-16
2.22045e-16
5.24859e-16
2.56626e-15
4.71945e-15
7.05605e-15
9.62569e-15
1.24504e-14
1.55212e-14
1.87971e-14
2.22066e-14
2.56524e-14
2.90169e-14
3.2171e-14
3.49824e-14
3.73259e-14
3.90923e-14
4.01968e-14
4.05853e-14
4.02385e-14
3.91734e-14
3.7442e-14
3.51276e-14
3.23378e-14
2.91973e-14
2.58379e-14
2.23892e-14
1.89694e-14
1.56774e-14
1.25857e-14
9.737e-15
7.1417e-15
4.77887e-15
2.59947e-15
5.31818e-16
2.22045e-16
2.22045e-16
5.24859e-16
2.56626e-15
4.71945e-15
7.05605e-15
9.62569e-15
1.24504e-14
1.55212e-14
1.87971e-14
2.22066e-14
2.56524e-14
2.90169e-14
3.2171e-14
3.49824e-14
3.73259e-14
3.90923e-14
4.01968e-14
4.05853e-14
4.02385e-14
3.91734e-14
3.7442e-14
3.51276e-14
3.23378e-14
2.91973e-14
2.58379e-14
2.23892e-14
1.89694e-14
1.56774e-14
1.25857e-14
9.737e-15
7.1417e-15
4.77887e-15
2.59947e-15
5.31818e-16
2.22045e-16
2.22045e-16
5.24859e-16
2.56626e-15
4.71945e-15
7.05605e-15
9.62569e-15
1.24504e-14
1.55212e-14
1.87971e-14
2.22066e-14
2.56524e-14
2.90169e-14
3.2171e-14
3.49824e-14
3.73259e-14
3.90923e-14
4.01968e-14
4.05853e-14
4.02385e-14
3.91734e-14
3.7442e-14
3.51276e-14
3.23378e-14
2.91973e-14
2.58379e-14
2.23892e-14
1.89694e-14
1.56774e-14
1.25857e-14
9.737e-15
7.1417e-15
4.77887e-15
2.59947e-15
5.31818e-16
2.22045e-16
2.22045e-16
5.24859e-16
2.56626e-15
4.71945e-15
7.05605e-15
9.62569e-15
1.24504e-14
1.55212e-14
1.87971e-14
2.22066e-14
2.56524e-14
2.90169e-14
3.2171e-14
3.49824e-14
3.73259e-14
3.90923e-14
4.01968e-14
4.05853e-14
4.02385e-14
3.91734e-14
3.7442e-14
3.51276e-14
3.23378e-14
2.91973e-14
2.58379e-14
2.23892e-14
1.89694e-14
1.56774e-14
1.25857e-14
9.737e-15
7.1417e-15
4.77887e-15
2.59947e-15
5.31818e-16
2.22045e-16
2.22045e-16
5.24859e-16
2.56626e-15
4.71945e-15
7.05605e-15
9.62569e-15
1.24504e-14
1.55212e-14
1.87971e-14
2.22066e-14
2.56524e-14
2.90169e-14
3.2171e-14
3.49824e-14
3.73259e-14
3.90923e-14
4.01968e-14
4.05853e-14
4.02385e-14
3.91734e-14
3.7442e-14
3.51276e-14
3.23378e-14
2.91973e-14
2.58379e-14
2.23892e-14
1.89694e-14
1.56774e-14
1.25857e-14
9.737e-15
7.1417e-15
4.77887e-15
2.59947e-15
5.31818e-16
2.22045e-16
2.22045e-16
5.24859e-16
2.56626e-15
4.71945e-15
7.05605e-15
9.62569e-15
1.24504e-14
1.55212e-14
1.87971e-14
2.22066e-14
2.56524e-14
2.90169e-14
3.2171e-14
3.49824e-14
3.73259e-14
3.90923e-14
4.01968e-14
4.05853e-14
4.02385e-14
3.91734e-14
3.7442e-14
3.51276e-14
3.23378e-14
2.91973e-14
2.58379e-14
2.23892e-14
1.89694e-14
1.56774e-14
1.25857e-14
9.737e-15
7.1417e-15
4.77887e-15
2.59947e-15
5.31818e-16
2.22045e-16
2.22045e-16
5.24859e-16
2.56626e-15
4.71945e-15
7.05605e-15
9.62569e-15
1.24504e-14
1.55212e-14
1.87971e-14
2.22066e-14
2.56524e-14
2.90169e-14
3.2171e-14
3.49824e-14
3.73259e-14
3.90923e-14
4.01968e-14
4.05853e-14
4.02385e-14
3.91734e-14
3.7442e-14
3.51276e-14
3.23378e-14
2.91973e-14
2.58379e-14
2.23892e-14
1.89694e-14
1.56774e-14
1.25857e-14
9.737e-15
7.1417e-15
4.77887e-15
2.59947e-15
5.31818e-16
2.22045e-16
2.22045e-16
5.24859e-16
2.56626e-15
4.71945e-15
7.05605e-15
9.62569e-15
1.24504e-14
1.55212e-14
1.87971e-14
2.22066e-14
2.56524e-14
2.90169e-14
3.2171e-14
3.49824e-14
3.73259e-14
3.90923e-14
4.01968e-14
4.05853e-14
4.02385e-14
3.91734e-14
3.7442e-14
3.51276e-14
3.23378e-14
2.91973e-14
2.58379e-14
2.23892e-14
1.89694e-14
1.56774e-14
1.25857e-14
9.737e-15
7.1417e-15
4.77887e-15
2.59947e-15
5.31818e-16
2.22045e-16
2.22045e-16
5.24859e-16
2.56626e-15
4.71945e-15
7.05605e-15
9.62569e-15
1.24504e-14
1.55212e-14
1.87971e-14
2.22066e-14
2.56524e-14
2.90169e-14
3.2171e-14
3.49824e-14
3.73259e-14
3.90923e-14
4.01968e-14
4.05853e-14
4.02385e-14
3.91734e-14
3.7442e-14
3.51276e-14
3.23378e-14
2.91973e-14
2.58379e-14
2.23892e-14
1.89694e-14
1.56774e-14
1.25857e-14
9.737e-15
7.1417e-15
4.77887e-15
2.59947e-15
5.31818e-16
2.22045e-16
2.22045e-16
5.24859e-16
2.56626e-15
4.71945e-15
7.05605e-15
9.62569e-15
1.24504e-14
1.55212e-14
1.87971e-14
2.22066e-14
2.56524e-14
2.90169e-14
3.2171e-14
3.49824e-14
3.73259e-14
3.90923e-14
4.01968e-14
4.05853e-14
4.02385e-14
3.91734e-14
3.7442e-14
3.51276e-14
3.23378e-14
2.91973e-14
2.58379e-14
2.23892e-14
1.89694e-14
1.56774e-14
1.25857e-14
9.737e-15
7.1417e-15
4.77887e-15
2.59947e-15
5.31818e-16
2.22045e-16
2.22045e-16
5.24859e-16
2.56626e-15
4.71945e-15
7.05605e-15
9.62569e-15
1.24504e-14
1.55212e-14
1.87971e-14
2.22066e-14
2.56524e-14
2.90169e-14
3.2171e-14
3.49824e-14
3.73259e-14
3.90923e-14
4.01968e-14
4.05853e-14
4.02385e-14
3.91734e-14
3.7442e-14
3.51276e-14
3.23378e-14
2.91973e-14
2.58379e-14
2.23892e-14
1.89694e-14
1.56774e-14
1.25857e-14
9.737e-15
7.1417e-15
4.77887e-15
2.59947e-15
5.31818e-16
2.22045e-16
2.22045e-16
5.24859e-16
2.56626e-15
4.71945e-15
7.05605e-15
9.62569e-15
1.24504e-14
1.55212e-14
1.87971e-14
2.22066e-14
2.56524e-14
2.90169e-14
3.2171e-14
3.49824e-14
3.73259e-14
3.90923e-14
4.01968e-14
4.05853e-14
4.02385e-14
3.91734e-14
3.7442e-14
3.51276e-14
3.23378e-14
2.91973e-14
2.58379e-14
2.23892e-14
1.89694e-14
1.56774e-14
1.25857e-14
9.737e-15
7.1417e-15
4.77887e-15
2.59947e-15
5.31818e-16
2.22045e-16
2.22045e-16
5.24859e-16
2.56626e-15
4.71945e-15
7.05605e-15
9.62569e-15
1.24504e-14
1.55212e-14
1.87971e-14
2.22066e-14
2.56524e-14
2.90169e-14
3.2171e-14
3.49824e-14
3.73259e-14
3.90923e-14
4.01968e-14
4.05853e-14
4.02385e-14
3.91734e-14
3.7442e-14
3.51276e-14
3.23378e-14
2.91973e-14
2.58379e-14
2.23892e-14
1.89694e-14
1.56774e-14
1.25857e-14
9.737e-15
7.1417e-15
4.77887e-15
2.59947e-15
5.31818e-16
2.22045e-16
2.22045e-16
5.24859e-16
2.56626e-15
4.71945e-15
7.05605e-15
9.62569e-15
1.24504e-14
1.55212e-14
1.87971e-14
2.22066e-14
2.56524e-14
2.90169e-14
3.2171e-14
3.49824e-14
3.73259e-14
3.90923e-14
4.01968e-14
4.05853e-14
4.02385e-14
3.91734e-14
3.7442e-14
3.51276e-14
3.23378e-14
2.91973e-14
2.58379e-14
2.23892e-14
1.89694e-14
1.56774e-14
1.25857e-14
9.737e-15
7.1417e-15
4.77887e-15
2.59947e-15
5.31818e-16
2.22045e-16
2.22045e-16
5.24859e-16
2.56626e-15
4.71945e-15
7.05605e-15
9.62569e-15
1.24504e-14
1.55212e-14
1.87971e-14
2.22066e-14
2.56524e-14
2.90169e-14
3.2171e-14
3.49824e-14
3.73259e-14
3.90923e-14
4.01968e-14
4.05853e-14
4.02385e-14
3.91734e-14
3.7442e-14
3.51276e-14
3.23378e-14
2.91973e-14
2.58379e-14
2.23892e-14
1.89694e-14
1.56774e-14
1.25857e-14
9.737e-15
7.1417e-15
4.77887e-15
2.59947e-15
5.31818e-16
2.22045e-16
2.22045e-16
5.24859e-16
2.56626e-15
4.71945e-15
7.05605e-15
9.62569e-15
1.24504e-14
1.55212e-14
1.87971e-14
2.22066e-14
2.56524e-14
2.90169e-14
3.2171e-14
3.49824e-14
3.73259e-14
3.90923e-14
4.01968e-14
4.05853e-14
4.02385e-14
3.91734e-14
3.7442e-14
3.51276e-14
3.23378e-14
2.91973e-14
2.58379e-14
2.23892e-14
1.89694e-14
1.56774e-14
1.25857e-14
9.737e-15
7.1417e-15
4.77887e-15
2.59947e-15
5.31818e-16
2.22045e-16
2.22045e-16
5.24859e-16
2.56626e-15
4.71945e-15
7.05605e-15
9.62569e-15
1.24504e-14
1.55212e-14
1.87971e-14
2.22066e-14
2.56524e-14
2.90169e-14
3.2171e-14
3.49824e-14
3.73259e-14
3.90923e-14
4.01968e-14
4.05853e-14
4.02385e-14
3.91734e-14
3.7442e-14
3.51276e-14
3.23378e-14
2.91973e-14
2.58379e-14
2.23892e-14
1.89694e-14
1.56774e-14
1.25857e-14
9.737e-15
7.1417e-15
4.77887e-15
2.59947e-15
5.31818e-16
2.22045e-16
2.22045e-16
5.24859e-16
2.56626e-15
4.71945e-15
7.05605e-15
9.62569e-15
1.24504e-14
1.55212e-14
1.87971e-14
2.22066e-14
2.56524e-14
2.90169e-14
3.2171e-14
3.49824e-14
3.73259e-14
3.90923e-14
4.01968e-14
4.05853e-14
4.02385e-14
3.91734e-14
3.7442e-14
3.51276e-14
3.23378e-14
2.91973e-14
2.58379e-14
2.23892e-14
1.89694e-14
1.56774e-14
1.25857e-14
9.737e-15
7.1417e-15
4.77887e-15
2.59947e-15
5.31818e-16
2.22045e-16
2.22045e-16
5.24859e-16
2.56626e-15
4.71945e-15
7.05605e-15
9.62569e-15
1.24504e-14
1.55212e-14
1.87971e-14
2.22066e-14
2.56524e-14
2.90169e-14
3.2171e-14
3.49824e-14
3.73259e-14
3.90923e-14
4.01968e-14
4.05853e-14
4.02385e-14
3.91734e-14
3.7442e-14
3.51276e-14
3.23378e-14
2.91973e-14
2.58379e-14
2.23892e-14
1.89694e-14
1.56774e-14
1.25857e-14
9.737e-15
7.1417e-15
4.77887e-15
2.59947e-15
5.31818e-16
2.22045e-16
2.22045e-16
5.24859e-16
2.56626e-15
4.71945e-15
7.05605e-15
9.62569e-15
1.24504e-14
1.55212e-14
1.87971e-14
2.22066e-14
2.56524e-14
2.90169e-14
3.2171e-14
3.49824e-14
3.73259e-14
3.90923e-14
4.01968e-14
4.05853e-14
4.02385e-14
3.91734e-14
3.7442e-14
3.51276e-14
3.23378e-14
2.91973e-14
2.58379e-14
2.23892e-14
1.89694e-14
1.56774e-14
1.25857e-14
9.737e-15
7.1417e-15
4.77887e-15
2.59947e-15
5.31818e-16
2.22045e-16
2.22045e-16
5.24859e-16
2.56626e-15
4.71945e-15
7.05605e-15
9.62569e-15
1.24504e-14
1.55212e-14
1.87971e-14
2.22066e-14
2.56524e-14
2.90169e-14
3.2171e-14
3.49824e-14
3.73259e-14
3.90923e-14
4.01968e-14
4.05853e-14
4.02385e-14
3.91734e-14
3.7442e-14
3.51276e-14
3.23378e-14
2.91973e-14
2.58379e-14
2.23892e-14
1.89694e-14
1.56774e-14
1.25857e-14
9.737e-15
7.1417e-15
4.77887e-15
2.59947e-15
5.31818e-16
2.22045e-16
2.22045e-16
5.24859e-16
2.56626e-15
4.71945e-15
7.05605e-15
9.62569e-15
1.24504e-14
1.55212e-14
1.87971e-14
2.22066e-14
2.56524e-14
2.90169e-14
3.2171e-14
3.49824e-14
3.73259e-14
3.90923e-14
4.01968e-14
4.05853e-14
4.02385e-14
3.91734e-14
3.7442e-14
3.51276e-14
3.23378e-14
2.91973e-14
2.58379e-14
2.23892e-14
1.89694e-14
1.56774e-14
1.25857e-14
9.737e-15
7.1417e-15
4.77887e-15
2.59947e-15
5.31818e-16
2.22045e-16
2.22045e-16
5.24859e-16
2.56626e-15
4.71945e-15
7.05605e-15
9.62569e-15
1.24504e-14
1.55212e-14
1.87971e-14
2.22066e-14
2.56524e-14
2.90169e-14
3.2171e-14
3.49824e-14
3.73259e-14
3.90923e-14
4.01968e-14
4.05853e-14
4.02385e-14
3.91734e-14
3.7442e-14
3.51276e-14
3.23378e-14
2.91973e-14
2.58379e-14
2.23892e-14
1.89694e-14
1.56774e-14
1.25857e-14
9.737e-15
7.1417e-15
4.77887e-15
2.59947e-15
5.31818e-16
2.22045e-16
2.22045e-16
5.24859e-16
2.56626e-15
4.71945e-15
7.05605e-15
9.62569e-15
1.24504e-14
1.55212e-14
1.87971e-14
2.22066e-14
2.56524e-14
2.90169e-14
3.2171e-14
3.49824e-14
3.73259e-14
3.90923e-14
4.01968e-14
4.05853e-14
4.02385e-14
3.91734e-14
3.7442e-14
3.51276e-14
3.23378e-14
2.91973e-14
2.58379e-14
2.23892e-14
1.89694e-14
1.56774e-14
1.25857e-14
9.737e-15
7.1417e-15
4.77887e-15
2.59947e-15
5.31818e-16
2.22045e-16
2.22045e-16
5.24859e-16
2.56626e-15
4.71945e-15
7.05605e-15
9.62569e-15
1.24504e-14
1.55212e-14
1.87971e-14
2.22066e-14
2.56524e-14
2.90169e-14
3.2171e-14
3.49824e-14
3.73259e-14
3.90923e-14
4.01968e-14
4.05853e-14
4.02385e-14
3.91734e-14
3.7442e-14
3.51276e-14
3.23378e-14
2.91973e-14
2.58379e-14
2.23892e-14
1.89694e-14
1.56774e-14
1.25857e-14
9.737e-15
7.1417e-15
4.77887e-15
2.59947e-15
5.31818e-16
2.22045e-16
2.22045e-16
5.24859e-16
2.56626e-15
4.71945e-15
7.05605e-15
9.62569e-15
1.24504e-14
1.55212e-14
1.87971e-14
2.22066e-14
2.56524e-14
2.90169e-14
3.2171e-14
3.49824e-14
3.73259e-14
3.90923e-14
4.01968e-14
4.05853e-14
4.02385e-14
3.91734e-14
3.7442e-14
3.51276e-14
3.23378e-14
2.91973e-14
2.58379e-14
2.23892e-14
1.89694e-14
1.56774e-14
1.25857e-14
9.737e-15
7.1417e-15
4.77887e-15
2.59947e-15
5.31818e-16
2.22045e-16
2.22045e-16
5.24859e-16
2.56626e-15
4.71945e-15
7.05605e-15
9.62569e-15
1.24504e-14
1.55212e-14
1.87971e-14
2.22066e-14
2.56524e-14
2.90169e-14
3.2171e-14
3.49824e-14
3.73259e-14
3.90923e-14
4.01968e-14
4.05853e-14
4.02385e-14
3.91734e-14
3.7442e-14
3.51276e-14
3.23378e-14
2.91973e-14
2.58379e-14
2.23892e-14
1.89694e-14
1.56774e-14
1.25857e-14
9.737e-15
7.1417e-15
4.77887e-15
2.59947e-15
5.31818e-16
2.22045e-16
2.22045e-16
5.24859e-16
2.56626e-15
4.71945e-15
7.05605e-15
9.62569e-15
1.24504e-14
1.55212e-14
1.87971e-14
2.22066e-14
2.56524e-14
2.90169e-14
3.2171e-14
3.49824e-14
3.73259e-14
3.90923e-14
4.01968e-14
4.05853e-14
4.02385e-14
3.91734e-14
3.7442e-14
3.51276e-14
3.23378e-14
2.91973e-14
2.58379e-14
2.23892e-14
1.89694e-14
1.56774e-14
1.25857e-14
9.737e-15
7.1417e-15
4.77887e-15
2.59947e-15
5.31818e-16
2.22045e-16
2.22045e-16
5.24859e-16
2.56626e-15
4.71945e-15
7.05605e-15
9.62569e-15
1.24504e-14
1.55212e-14
1.87971e-14
2.22066e-14
2.56524e-14
2.90169e-14
3.2171e-14
3.49824e-14
3.73259e-14
3.90923e-14
4.01968e-14
4.05853e-14
4.02385e-14
3.91734e-14
3.7442e-14
3.51276e-14
3.23378e-14
2.91973e-14
2.58379e-14
2.23892e-14
1.89694e-14
1.56774e-14
1.25857e-14
9.737e-15
7.1417e-15
4.77887e-15
2.59947e-15
5.31818e-16
2.22045e-16
2.22045e-16
5.24859e-16
2.56626e-15
4.71945e-15
7.05605e-15
9.62569e-15
1.24504e-14
1.55212e-14
1.87971e-14
2.22066e-14
2.56524e-14
2.90169e-14
3.2171e-14
3.49824e-14
3.73259e-14
3.90923e-14
4.01968e-14
4.05853e-14
4.02385e-14
3.91734e-14
3.7442e-14
3.51276e-14
3.23378e-14
2.91973e-14
2.58379e-14
2.23892e-14
1.89694e-14
1.56774e-14
1.25857e-14
9.737e-15
7.1417e-15
4.77887e-15
2.59947e-15
5.31818e-16
2.22045e-16
2.22045e-16
5.24859e-16
2.56626e-15
4.71945e-15
7.05605e-15
9.62569e-15
1.24504e-14
1.55212e-14
1.87971e-14
2.22066e-14
2.56524e-14
2.90169e-14
3.2171e-14
3.49824e-14
3.73259e-14
3.90923e-14
4.01968e-14
4.05853e-14
4.02385e-14
3.91734e-14
3.7442e-14
3.51276e-14
3.23378e-14
2.91973e-14
2.58379e-14
2.23892e-14
1.89694e-14
1.56774e-14
1.25857e-14
9.737e-15
7.1417e-15
4.77887e-15
2.59947e-15
5.31818e-16
2.22045e-16
2.22045e-16
5.24859e-16
2.56626e-15
4.71945e-15
7.05605e-15
9.62569e-15
1.24504e-14
1.55212e-14
1.87971e-14
2.22066e-14
2.56524e-14
2.90169e-14
3.2171e-14
3.49824e-14
3.73259e-14
3.90923e-14
4.01968e-14
4.05853e-14
4.02385e-14
3.91734e-14
3.7442e-14
3.51276e-14
3.23378e-14
2.91973e-14
2.58379e-14
2.23892e-14
1.89694e-14
1.56774e-14
1.25857e-14
9.737e-15
7.1417e-15
4.77887e-15
2.59947e-15
5.31818e-16
2.22045e-16
2.22045e-16
5.24859e-16
2.56626e-15
4.71945e-15
7.05605e-15
9.62569e-15
1.24504e-14
1.55212e-14
1.87971e-14
2.22066e-14
2.56524e-14
2.90169e-14
3.2171e-14
3.49824e-14
3.73259e-14
3.90923e-14
4.01968e-14
4.05853e-14
4.02385e-14
3.91734e-14
3.7442e-14
3.51276e-14
3.23378e-14
2.91973e-14
2.58379e-14
2.23892e-14
1.89694e-14
1.56774e-14
1.25857e-14
9.737e-15
7.1417e-15
4.77887e-15
2.59947e-15
5.31818e-16
2.22045e-16
2.22045e-16
5.24859e-16
2.56626e-15
4.71945e-15
7.05605e-15
9.62569e-15
1.24504e-14
1.55212e-14
1.87971e-14
2.22066e-14
2.56524e-14
2.90169e-14
3.2171e-14
3.49824e-14
3.73259e-14
3.90923e-14
4.01968e-14
4.05853e-14
4.02385e-14
3.91734e-14
3.7442e-14
3.51276e-14
3.23378e-14
2.91973e-14
2.58379e-14
2.23892e-14
1.89694e-14
1.56774e-14
1.25857e-14
9.737e-15
7.1417e-15
4.77887e-15
2.59947e-15
5.31818e-16
2.22045e-16
2.22045e-16
5.24859e-16
2.56626e-15
4.71945e-15
7.05605e-15
9.62569e-15
1.24504e-14
1.55212e-14
1.87971e-14
2.22066e-14
2.56524e-14
2.90169e-14
3.2171e-14
3.49824e-14
3.73259e-14
3.90923e-14
4.01968e-14
4.05853e-14
4.02385e-14
3.91734e-14
3.7442e-14
3.51276e-14
3.23378e-14
2.91973e-14
2.58379e-14
2.23892e-14
1.89694e-14
1.56774e-14
1.25857e-14
9.737e-15
7.1417e-15
4.77887e-15
2.59947e-15
5.31818e-16
2.22045e-16
2.22045e-16
5.24859e-16
2.56626e-15
4.71945e-15
7.05605e-15
9.62569e-15
1.24504e-14
1.55212e-14
1.87971e-14
2.22066e-14
2.56524e-14
2.90169e-14
3.2171e-14
3.49824e-14
3.73259e-14
3.90923e-14
4.01968e-14
4.05853e-14
4.02385e-14
3.91734e-14
3.7442e-14
3.51276e-14
3.23378e-14
2.91973e-14
2.58379e-14
2.23892e-14
1.89694e-14
1.56774e-14
1.25857e-14
9.737e-15
7.1417e-15
4.77887e-15
2.59947e-15
5.31818e-16
2.22045e-16
2.22045e-16
5.24859e-16
2.56626e-15
4.71945e-15
7.05605e-15
9.62569e-15
1.24504e-14
1.55212e-14
1.87971e-14
2.22066e-14
2.56524e-14
2.90169e-14
3.2171e-14
3.49824e-14
3.73259e-14
3.90923e-14
4.01968e-14
4.05853e-14
4.02385e-14
3.91734e-14
3.7442e-14
3.51276e-14
3.23378e-14
2.91973e-14
2.58379e-14
2.23892e-14
1.89694e-14
1.56774e-14
1.25857e-14
9.737e-15
7.1417e-15
4.77887e-15
2.59947e-15
5.31818e-16
2.22045e-16
2.22045e-16
5.24859e-16
2.56626e-15
4.71945e-15
7.05605e-15
9.62569e-15
1.24504e-14
1.55212e-14
1.87971e-14
2.22066e-14
2.56524e-14
2.90169e-14
3.2171e-14
3.49824e-14
3.73259e-14
3.90923e-14
4.01968e-14
4.05853e-14
4.02385e-14
3.91734e-14
3.7442e-14
3.51276e-14
3.23378e-14
2.91973e-14
2.58379e-14
2.23892e-14
1.89694e-14
1.56774e-14
1.25857e-14
9.737e-15
7.1417e-15
4.77887e-15
2.59947e-15
5.31818e-16
2.22045e-16
2.22045e-16
5.24859e-16
2.56626e-15
4.71945e-15
7.05605e-15
9.62569e-15
1.24504e-14
1.55212e-14
1.87971e-14
2.22066e-14
2.56524e-14
2.90169e-14
3.2171e-14
3.49824e-14
3.73259e-14
3.90923e-14
4.01968e-14
4.05853e-14
4.02385e-14
3.91734e-14
3.7442e-14
3.51276e-14
3.23378e-14
2.91973e-14
2.58379e-14
2.23892e-14
1.89694e-14
1.56774e-14
1.25857e-14
9.737e-15
7.1417e-15
4.77887e-15
2.59947e-15
5.31818e-16
2.22045e-16
2.22045e-16
5.24859e-16
2.56626e-15
4.71945e-15
7.05605e-15
9.62569e-15
1.24504e-14
1.55212e-14
1.87971e-14
2.22066e-14
2.56524e-14
2.90169e-14
3.2171e-14
3.49824e-14
3.73259e-14
3.90923e-14
4.01968e-14
4.05853e-14
4.02385e-14
3.91734e-14