/*--------------------------------*- C++ -*----------------------------------*\
  =========                 |
  \\      /  F ield         | OpenFOAM: The Open Source CFD Toolbox
   \\    /   O peration     | Website:  https://openfoam.org
    \\  /    A nd           | Version:  13
     \\/     M anipulation  |
\*---------------------------------------------------------------------------*/
FoamFile
{
    format      ascii;
    class       volScalarField;
    location    "160";
    object      nut;
}
// * * * * * * * * * * * * * * * * * * * * * * * * * * * * * * * * * * * * * //

dimensions      [0 2 -1 0 0 0 0];

internalField   nonuniform List<scalar> 
315000
(
5.80452e-16
1.52055e-13
3.47082e-12
6.23284e-12
9.04439e-12
1.19131e-11
1.48481e-11
1.78574e-11
2.09468e-11
2.41195e-11
2.73753e-11
3.07113e-11
3.41209e-11
3.7595e-11
4.11212e-11
4.46846e-11
4.82679e-11
5.18517e-11
5.5415e-11
5.89354e-11
6.23893e-11
6.57529e-11
6.90018e-11
7.2112e-11
7.50597e-11
7.78221e-11
8.03773e-11
8.2705e-11
8.47862e-11
8.6604e-11
8.81434e-11
8.93917e-11
9.03385e-11
9.09759e-11
9.12986e-11
9.13038e-11
9.09916e-11
9.03646e-11
8.94279e-11
8.81894e-11
8.66594e-11
8.48505e-11
8.27776e-11
8.04577e-11
7.79095e-11
7.51534e-11
7.22112e-11
6.91056e-11
6.58604e-11
6.24997e-11
5.90477e-11
5.55283e-11
5.19651e-11
4.83805e-11
4.47956e-11
4.12298e-11
3.77004e-11
3.42223e-11
3.0808e-11
2.74668e-11
2.42051e-11
2.1026e-11
1.79296e-11
1.49127e-11
1.19694e-11
9.09141e-12
6.26927e-12
3.49432e-12
1.53283e-13
5.85585e-16
1.45352e-14
3.87182e-12
8.82191e-10
1.59677e-09
2.3213e-09
3.05949e-09
3.8145e-09
4.58879e-09
5.3841e-09
6.20133e-09
7.04055e-09
7.90097e-09
8.78096e-09
9.67811e-09
1.05892e-08
1.15104e-08
1.24371e-08
1.33644e-08
1.42866e-08
1.5198e-08
1.60924e-08
1.69636e-08
1.78052e-08
1.8611e-08
1.93748e-08
2.00906e-08
2.07528e-08
2.1356e-08
2.18954e-08
2.23665e-08
2.27654e-08
2.30888e-08
2.33341e-08
2.34992e-08
2.35826e-08
2.35838e-08
2.35026e-08
2.33398e-08
2.30968e-08
2.27755e-08
2.23786e-08
2.19095e-08
2.13719e-08
2.07704e-08
2.01097e-08
1.93952e-08
1.86326e-08
1.78278e-08
1.6987e-08
1.61164e-08
1.52224e-08
1.43112e-08
1.33889e-08
1.24614e-08
1.15343e-08
1.06125e-08
9.70062e-09
8.80252e-09
7.92142e-09
7.05974e-09
6.21913e-09
5.40036e-09
4.60338e-09
3.82728e-09
3.07032e-09
2.32999e-09
1.60312e-09
8.85939e-10
3.88939e-12
1.4603e-14
5.86277e-14
1.56398e-11
9.08516e-09
1.64612e-08
2.39509e-08
3.15999e-08
3.94478e-08
4.75264e-08
5.58588e-08
6.44588e-08
7.33297e-08
8.24648e-08
9.18472e-08
1.0145e-07
1.11237e-07
1.21164e-07
1.31179e-07
1.41224e-07
1.51236e-07
1.61147e-07
1.70888e-07
1.80387e-07
1.89573e-07
1.98375e-07
2.06723e-07
2.14551e-07
2.21795e-07
2.28395e-07
2.34298e-07
2.39455e-07
2.43821e-07
2.47361e-07
2.50046e-07
2.51851e-07
2.52763e-07
2.52773e-07
2.51881e-07
2.50096e-07
2.47431e-07
2.43909e-07
2.3956e-07
2.34421e-07
2.28534e-07
2.21948e-07
2.14717e-07
2.06901e-07
1.98563e-07
1.89769e-07
1.8059e-07
1.71095e-07
1.61357e-07
1.51447e-07
1.41435e-07
1.31387e-07
1.21367e-07
1.11434e-07
1.0164e-07
9.20278e-08
8.2635e-08
7.34882e-08
6.46045e-08
5.59907e-08
4.76433e-08
3.9549e-08
3.16844e-08
2.40176e-08
1.65091e-08
9.11273e-09
1.56894e-11
5.88172e-14
1.11495e-13
2.97453e-11
1.72796e-08
3.1325e-08
4.56235e-08
6.02808e-08
7.53895e-08
9.1026e-08
1.07248e-07
1.24092e-07
1.41572e-07
1.59681e-07
1.78386e-07
1.97634e-07
2.17349e-07
2.37435e-07
2.5778e-07
2.78256e-07
2.98726e-07
3.19042e-07
3.39052e-07
3.58602e-07
3.77537e-07
3.95703e-07
4.12953e-07
4.29141e-07
4.44133e-07
4.57802e-07
4.70032e-07
4.80719e-07
4.89771e-07
4.9711e-07
5.02675e-07
5.06417e-07
5.08304e-07
5.08321e-07
5.06466e-07
5.02757e-07
4.97224e-07
4.89915e-07
4.80892e-07
4.70233e-07
4.58029e-07
4.44384e-07
4.29413e-07
4.13243e-07
3.9601e-07
3.77856e-07
3.58932e-07
3.39389e-07
3.19383e-07
2.99068e-07
2.78597e-07
2.58116e-07
2.37763e-07
2.17666e-07
1.97938e-07
1.78675e-07
1.59952e-07
1.41823e-07
1.24321e-07
1.07454e-07
9.12082e-08
7.55461e-08
6.04106e-08
4.57253e-08
3.13975e-08
1.73211e-08
2.98198e-11
1.1178e-13
1.73562e-13
4.63067e-11
2.68978e-08
4.87741e-08
7.10819e-08
9.40066e-08
1.17711e-07
1.42331e-07
1.67971e-07
1.94697e-07
2.2254e-07
2.51492e-07
2.81503e-07
3.12484e-07
3.4431e-07
3.76821e-07
4.09827e-07
4.43113e-07
4.76451e-07
5.09595e-07
5.42298e-07
5.74304e-07
6.05355e-07
6.35195e-07
6.63572e-07
6.9024e-07
7.14967e-07
7.37533e-07
7.57739e-07
7.75406e-07
7.90378e-07
8.02521e-07
8.11729e-07
8.17921e-07
8.21041e-07
8.21063e-07
8.17987e-07
8.11838e-07
8.02672e-07
7.9057e-07
7.75637e-07
7.58007e-07
7.37834e-07
7.15299e-07
6.90601e-07
6.63958e-07
6.35602e-07
6.05779e-07
5.74741e-07
5.42744e-07
5.10047e-07
4.76903e-07
4.43564e-07
4.1027e-07
3.77254e-07
3.44729e-07
3.12885e-07
2.81883e-07
2.51848e-07
2.2287e-07
1.94998e-07
1.68241e-07
1.42569e-07
1.17915e-07
9.41747e-08
7.12133e-08
4.88674e-08
2.69511e-08
4.64026e-11
1.73928e-13
2.41926e-13
6.455e-11
3.74869e-08
6.79752e-08
9.90881e-08
1.31101e-07
1.64256e-07
1.98754e-07
2.34747e-07
2.72338e-07
3.11569e-07
3.52429e-07
3.94843e-07
4.38681e-07
4.83758e-07
5.29837e-07
5.76641e-07
6.23864e-07
6.71175e-07
7.18234e-07
7.64689e-07
8.1018e-07
8.5434e-07
8.96802e-07
9.37199e-07
9.75178e-07
1.0104e-06
1.04255e-06
1.07134e-06
1.09652e-06
1.11785e-06
1.13515e-06
1.14827e-06
1.15709e-06
1.16153e-06
1.16156e-06
1.15717e-06
1.1484e-06
1.13533e-06
1.11808e-06
1.09679e-06
1.07166e-06
1.04291e-06
1.01079e-06
9.75605e-07
9.37656e-07
8.97283e-07
8.54842e-07
8.10697e-07
7.65217e-07
7.18769e-07
6.71712e-07
6.24397e-07
5.77167e-07
5.3035e-07
4.84254e-07
4.39157e-07
3.95294e-07
3.52851e-07
3.1196e-07
2.72694e-07
2.35067e-07
1.99035e-07
1.64496e-07
1.31299e-07
9.92427e-08
6.80848e-08
3.75495e-08
6.46628e-11
2.42357e-13
3.12357e-13
8.33458e-11
4.83892e-08
8.77297e-08
1.27882e-07
1.69214e-07
2.12046e-07
2.56644e-07
3.03209e-07
3.51869e-07
4.0268e-07
4.55617e-07
5.10576e-07
5.67376e-07
6.25763e-07
6.85419e-07
7.45975e-07
8.07028e-07
8.68151e-07
9.28905e-07
9.8884e-07
1.0475e-06
1.10441e-06
1.1591e-06
1.21111e-06
1.25998e-06
1.30529e-06
1.34663e-06
1.38363e-06
1.41598e-06
1.44338e-06
1.46559e-06
1.48243e-06
1.49375e-06
1.49945e-06
1.49948e-06
1.49383e-06
1.48257e-06
1.46579e-06
1.44362e-06
1.41628e-06
1.38398e-06
1.34702e-06
1.30572e-06
1.26045e-06
1.21161e-06
1.15963e-06
1.10496e-06
1.04807e-06
9.89422e-07
9.29494e-07
8.68742e-07
8.07616e-07
7.46556e-07
6.85986e-07
6.26313e-07
5.67903e-07
5.11076e-07
4.56085e-07
4.03114e-07
3.52265e-07
3.03563e-07
2.56955e-07
2.12312e-07
1.69433e-07
1.28053e-07
8.78505e-08
4.84582e-08
8.34705e-11
3.12835e-13
3.80628e-13
1.01567e-10
5.89508e-08
1.06852e-07
1.55733e-07
2.0605e-07
2.58199e-07
3.12505e-07
3.69209e-07
4.28466e-07
4.90332e-07
5.54768e-07
6.21635e-07
6.90696e-07
7.61625e-07
8.34023e-07
9.07431e-07
9.81354e-07
1.05527e-06
1.12866e-06
1.20098e-06
1.27168e-06
1.34021e-06
1.406e-06
1.46852e-06
1.52722e-06
1.58159e-06
1.63117e-06
1.67553e-06
1.71429e-06
1.7471e-06
1.7737e-06
1.79386e-06
1.8074e-06
1.81422e-06
1.81425e-06
1.80749e-06
1.79401e-06
1.77391e-06
1.74736e-06
1.7146e-06
1.6759e-06
1.63158e-06
1.58204e-06
1.52771e-06
1.46904e-06
1.40656e-06
1.34078e-06
1.27228e-06
1.20159e-06
1.12928e-06
1.05589e-06
9.81972e-07
9.08042e-07
8.34621e-07
7.62205e-07
6.91252e-07
6.22163e-07
5.55263e-07
4.9079e-07
4.28884e-07
3.69584e-07
3.12833e-07
2.5848e-07
2.06281e-07
1.55913e-07
1.06979e-07
5.90234e-08
1.01698e-10
3.81134e-13
4.43237e-13
1.18278e-10
6.86313e-08
1.24365e-07
1.81224e-07
2.39742e-07
3.00383e-07
3.63522e-07
4.29439e-07
4.98303e-07
5.70173e-07
6.4499e-07
7.22576e-07
8.02641e-07
8.84792e-07
9.6855e-07
1.05338e-06
1.13869e-06
1.2239e-06
1.30839e-06
1.39156e-06
1.47277e-06
1.5514e-06
1.62683e-06
1.69842e-06
1.7656e-06
1.82778e-06
1.88445e-06
1.93512e-06
1.97937e-06
2.01682e-06
2.04717e-06
2.07016e-06
2.0856e-06
2.09337e-06
2.0934e-06
2.08569e-06
2.0703e-06
2.04737e-06
2.01708e-06
1.97968e-06
1.93549e-06
1.88486e-06
1.82824e-06
1.7661e-06
1.69896e-06
1.62739e-06
1.55199e-06
1.47337e-06
1.39218e-06
1.30902e-06
1.22453e-06
1.13932e-06
1.054e-06
9.69159e-07
8.85382e-07
8.03208e-07
7.23114e-07
6.45495e-07
5.70641e-07
4.9873e-07
4.29821e-07
3.63858e-07
3.00669e-07
2.39978e-07
1.81407e-07
1.24494e-07
6.87049e-08
1.18412e-10
4.43753e-13
4.97763e-13
1.32833e-10
7.70586e-08
1.39602e-07
2.03389e-07
2.69022e-07
3.37022e-07
4.07808e-07
4.81689e-07
5.58848e-07
6.3934e-07
7.23086e-07
8.09876e-07
8.99367e-07
9.91105e-07
1.08455e-06
1.17908e-06
1.27405e-06
1.3688e-06
1.46266e-06
1.55494e-06
1.64497e-06
1.73206e-06
1.81552e-06
1.89469e-06
1.96891e-06
2.03758e-06
2.10012e-06
2.15601e-06
2.2048e-06
2.24609e-06
2.27953e-06
2.30485e-06
2.32186e-06
2.33042e-06
2.33045e-06
2.32195e-06
2.305e-06
2.27973e-06
2.24634e-06
2.20511e-06
2.15637e-06
2.10052e-06
2.03803e-06
1.9694e-06
1.89521e-06
1.81607e-06
1.73264e-06
1.64557e-06
1.55556e-06
1.46328e-06
1.36943e-06
1.27468e-06
1.1797e-06
1.08515e-06
9.91694e-07
8.99932e-07
8.10413e-07
7.23591e-07
6.39807e-07
5.59274e-07
4.8207e-07
4.08143e-07
3.37307e-07
2.69256e-07
2.03571e-07
1.39731e-07
7.71316e-08
1.32966e-10
4.98277e-13
5.42983e-13
1.44906e-10
8.40458e-08
1.5223e-07
2.2175e-07
2.93267e-07
3.67349e-07
4.4445e-07
5.24902e-07
6.08899e-07
6.96491e-07
7.87583e-07
8.8193e-07
9.7915e-07
1.07874e-06
1.18009e-06
1.28253e-06
1.38537e-06
1.48787e-06
1.58932e-06
1.68898e-06
1.78613e-06
1.88004e-06
1.96998e-06
2.05523e-06
2.13511e-06
2.20898e-06
2.27623e-06
2.33631e-06
2.38873e-06
2.43308e-06
2.46899e-06
2.49619e-06
2.51445e-06
2.52363e-06
2.52366e-06
2.51454e-06
2.49633e-06
2.46919e-06
2.43333e-06
2.38904e-06
2.33666e-06
2.27663e-06
2.20942e-06
2.13559e-06
2.05574e-06
1.97052e-06
1.88061e-06
1.78672e-06
1.68959e-06
1.58993e-06
1.48849e-06
1.38598e-06
1.28314e-06
1.18068e-06
1.07931e-06
9.79705e-07
8.82458e-07
7.88079e-07
6.96951e-07
6.09318e-07
5.25277e-07
4.44778e-07
3.67628e-07
2.93496e-07
2.21927e-07
1.52355e-07
8.41171e-08
1.45037e-10
5.43487e-13
5.78773e-13
1.54463e-10
8.95757e-08
1.6222e-07
2.36272e-07
3.12438e-07
3.91324e-07
4.73412e-07
5.59051e-07
6.48442e-07
7.41632e-07
8.3851e-07
9.38807e-07
1.0421e-06
1.14785e-06
1.25541e-06
1.36406e-06
1.47304e-06
1.58161e-06
1.68899e-06
1.79441e-06
1.8971e-06
1.99632e-06
2.09128e-06
2.18126e-06
2.26554e-06
2.34344e-06
2.41433e-06
2.47765e-06
2.53289e-06
2.57961e-06
2.61744e-06
2.64608e-06
2.66531e-06
2.67497e-06
2.675e-06
2.66539e-06
2.64622e-06
2.61763e-06
2.57986e-06
2.53319e-06
2.478e-06
2.41472e-06
2.34387e-06
2.26601e-06
2.18176e-06
2.09181e-06
1.99687e-06
1.89768e-06
1.79499e-06
1.68958e-06
1.58221e-06
1.47364e-06
1.36465e-06
1.25599e-06
1.14842e-06
1.04265e-06
9.39323e-07
8.38995e-07
7.42081e-07
6.48851e-07
5.59416e-07
4.73732e-07
3.91596e-07
3.12661e-07
2.36444e-07
1.62341e-07
8.96447e-08
1.5459e-10
5.79264e-13
6.05862e-13
1.61699e-10
9.37613e-08
1.6978e-07
2.47259e-07
3.26942e-07
4.09461e-07
4.95321e-07
5.84883e-07
6.78354e-07
7.75777e-07
8.7703e-07
9.81822e-07
1.08971e-06
1.20011e-06
1.31235e-06
1.42567e-06
1.53929e-06
1.65242e-06
1.76426e-06
1.874e-06
1.98087e-06
2.08406e-06
2.18281e-06
2.27633e-06
2.3639e-06
2.44482e-06
2.51844e-06
2.58419e-06
2.64154e-06
2.69003e-06
2.72929e-06
2.75901e-06
2.77897e-06
2.78899e-06
2.78902e-06
2.77905e-06
2.75915e-06
2.72948e-06
2.69027e-06
2.64182e-06
2.58452e-06
2.51882e-06
2.44524e-06
2.36435e-06
2.27682e-06
2.18332e-06
2.0846e-06
1.98143e-06
1.87457e-06
1.76483e-06
1.653e-06
1.53988e-06
1.42625e-06
1.31291e-06
1.20066e-06
1.09024e-06
9.82325e-07
8.77503e-07
7.76215e-07
6.78753e-07
5.85239e-07
4.95632e-07
4.09726e-07
3.27159e-07
2.47427e-07
1.69897e-07
9.38283e-08
1.61822e-10
6.0634e-13
6.25505e-13
1.66946e-10
9.67971e-08
1.75262e-07
2.55227e-07
3.3746e-07
4.22615e-07
5.11212e-07
6.03622e-07
7.00055e-07
8.00553e-07
9.04983e-07
1.01304e-06
1.12426e-06
1.23804e-06
1.35368e-06
1.47039e-06
1.58738e-06
1.70381e-06
1.81888e-06
1.93177e-06
2.04166e-06
2.14774e-06
2.24921e-06
2.3453e-06
2.43526e-06
2.51836e-06
2.59397e-06
2.66147e-06
2.72034e-06
2.77012e-06
2.81041e-06
2.84092e-06
2.86139e-06
2.87169e-06
2.87171e-06
2.86147e-06
2.84105e-06
2.8106e-06
2.77035e-06
2.72062e-06
2.66179e-06
2.59433e-06
2.51877e-06
2.4357e-06
2.34578e-06
2.24972e-06
2.14826e-06
2.0422e-06
1.93233e-06
1.81945e-06
1.70439e-06
1.58795e-06
1.47096e-06
1.35423e-06
1.23858e-06
1.12478e-06
1.01353e-06
9.05446e-07
8.00982e-07
7.00446e-07
6.03971e-07
5.11516e-07
4.22874e-07
3.37672e-07
2.55391e-07
1.75377e-07
9.68623e-08
1.67067e-10
6.25971e-13
6.39175e-13
1.706e-10
9.89105e-08
1.79079e-07
2.60775e-07
3.44784e-07
4.31776e-07
5.22281e-07
6.16679e-07
7.15181e-07
8.17826e-07
9.24477e-07
1.03482e-06
1.14837e-06
1.26451e-06
1.38252e-06
1.50161e-06
1.62095e-06
1.7397e-06
1.85703e-06
1.97211e-06
2.08411e-06
2.19221e-06
2.2956e-06
2.39349e-06
2.48511e-06
2.56974e-06
2.64673e-06
2.71546e-06
2.7754e-06
2.82607e-06
2.8671e-06
2.89815e-06
2.91899e-06
2.92947e-06
2.92949e-06
2.91907e-06
2.89828e-06
2.86728e-06
2.8263e-06
2.77567e-06
2.71578e-06
2.64709e-06
2.57014e-06
2.48554e-06
2.39395e-06
2.2961e-06
2.19273e-06
2.08465e-06
1.97266e-06
1.85759e-06
1.74026e-06
1.62151e-06
1.50217e-06
1.38307e-06
1.26504e-06
1.14888e-06
1.0353e-06
9.24932e-07
8.18248e-07
7.15565e-07
6.17022e-07
5.22581e-07
4.3203e-07
3.44992e-07
2.60935e-07
1.79191e-07
9.89743e-08
1.70718e-10
6.39634e-13
6.48322e-13
1.73045e-10
1.00325e-07
1.81633e-07
2.64489e-07
3.49689e-07
4.37912e-07
5.29699e-07
6.25431e-07
7.25324e-07
8.29414e-07
9.37559e-07
1.04944e-06
1.16456e-06
1.2823e-06
1.40191e-06
1.5226e-06
1.64353e-06
1.76384e-06
1.8827e-06
1.99926e-06
2.11269e-06
2.22215e-06
2.32683e-06
2.42593e-06
2.51868e-06
2.60435e-06
2.68227e-06
2.75183e-06
2.81249e-06
2.86377e-06
2.90529e-06
2.93671e-06
2.9578e-06
2.9684e-06
2.96842e-06
2.95787e-06
2.93683e-06
2.90546e-06
2.864e-06
2.81276e-06
2.75215e-06
2.68263e-06
2.60474e-06
2.51911e-06
2.42639e-06
2.32732e-06
2.22266e-06
2.11322e-06
1.9998e-06
1.88325e-06
1.7644e-06
1.64408e-06
1.52315e-06
1.40245e-06
1.28282e-06
1.16506e-06
1.04992e-06
9.38009e-07
8.2983e-07
7.25703e-07
6.2577e-07
5.29995e-07
4.38163e-07
3.49893e-07
2.64647e-07
1.81744e-07
1.00388e-07
1.73161e-10
6.48774e-13
6.54215e-13
1.7462e-10
1.01237e-07
1.8328e-07
2.66883e-07
3.52852e-07
4.41872e-07
5.34487e-07
6.31083e-07
7.31877e-07
8.36904e-07
9.4602e-07
1.0589e-06
1.17504e-06
1.29381e-06
1.41447e-06
1.5362e-06
1.65817e-06
1.7795e-06
1.89935e-06
2.01688e-06
2.13124e-06
2.24159e-06
2.34712e-06
2.44701e-06
2.54049e-06
2.62684e-06
2.70537e-06
2.77548e-06
2.8366e-06
2.88829e-06
2.93012e-06
2.96178e-06
2.98303e-06
2.99371e-06
2.99374e-06
2.98311e-06
2.96191e-06
2.93029e-06
2.88851e-06
2.83687e-06
2.77579e-06
2.70573e-06
2.62723e-06
2.54092e-06
2.44747e-06
2.3476e-06
2.2421e-06
2.13176e-06
2.01742e-06
1.8999e-06
1.78005e-06
1.65872e-06
1.53675e-06
1.41501e-06
1.29433e-06
1.17554e-06
1.05937e-06
9.46467e-07
8.37318e-07
7.32253e-07
6.31419e-07
5.3478e-07
4.4212e-07
3.53055e-07
2.6704e-07
1.8339e-07
1.01299e-07
1.74736e-10
6.54663e-13
6.57876e-13
1.756e-10
1.01804e-07
1.84304e-07
2.68373e-07
3.5482e-07
4.44336e-07
5.37468e-07
6.34605e-07
7.35962e-07
8.41576e-07
9.51301e-07
1.0648e-06
1.18159e-06
1.30102e-06
1.42233e-06
1.54472e-06
1.66733e-06
1.78931e-06
1.90979e-06
2.02793e-06
2.14287e-06
2.25379e-06
2.35985e-06
2.46024e-06
2.55418e-06
2.64096e-06
2.71988e-06
2.79032e-06
2.85175e-06
2.90368e-06
2.94572e-06
2.97753e-06
2.99889e-06
3.00962e-06
3.00965e-06
2.99897e-06
2.97766e-06
2.94589e-06
2.90391e-06
2.85202e-06
2.79064e-06
2.72023e-06
2.64135e-06
2.55461e-06
2.46069e-06
2.36033e-06
2.25429e-06
2.14339e-06
2.02846e-06
1.91033e-06
1.78985e-06
1.66788e-06
1.54526e-06
1.42286e-06
1.30153e-06
1.18209e-06
1.06528e-06
9.51745e-07
8.41988e-07
7.36337e-07
6.34939e-07
5.3776e-07
4.44583e-07
3.55022e-07
2.68528e-07
1.84413e-07
1.01866e-07
1.75714e-10
6.58322e-13
6.60073e-13
1.76187e-10
1.02144e-07
1.84919e-07
2.69267e-07
3.56002e-07
4.45817e-07
5.39261e-07
6.36724e-07
7.38422e-07
8.44392e-07
9.54485e-07
1.06837e-06
1.18554e-06
1.30536e-06
1.42708e-06
1.54987e-06
1.67287e-06
1.79524e-06
1.91611e-06
2.03462e-06
2.14992e-06
2.26118e-06
2.36756e-06
2.46826e-06
2.56249e-06
2.64953e-06
2.72868e-06
2.79934e-06
2.86095e-06
2.91304e-06
2.95519e-06
2.98711e-06
3.00852e-06
3.01929e-06
3.01931e-06
3.0086e-06
2.98723e-06
2.95537e-06
2.91326e-06
2.86122e-06
2.79965e-06
2.72903e-06
2.64992e-06
2.56292e-06
2.46871e-06
2.36804e-06
2.26168e-06
2.15044e-06
2.03515e-06
1.91665e-06
1.79579e-06
1.67342e-06
1.55041e-06
1.42761e-06
1.30588e-06
1.18604e-06
1.06884e-06
9.54928e-07
8.44802e-07
7.38796e-07
6.37057e-07
5.39552e-07
4.46064e-07
3.56203e-07
2.69422e-07
1.85028e-07
1.02206e-07
1.76302e-10
6.60518e-13
6.61347e-13
1.76528e-10
1.02341e-07
1.85276e-07
2.69787e-07
3.56689e-07
4.46678e-07
5.40304e-07
6.37957e-07
7.39855e-07
8.46033e-07
9.56342e-07
1.07045e-06
1.18785e-06
1.30791e-06
1.42986e-06
1.55288e-06
1.67612e-06
1.79872e-06
1.91981e-06
2.03854e-06
2.15406e-06
2.26552e-06
2.3721e-06
2.47297e-06
2.56737e-06
2.65456e-06
2.73386e-06
2.80464e-06
2.86636e-06
2.91853e-06
2.96077e-06
2.99273e-06
3.01419e-06
3.02497e-06
3.02499e-06
3.01426e-06
2.99286e-06
2.96094e-06
2.91876e-06
2.86662e-06
2.80495e-06
2.73421e-06
2.65495e-06
2.5678e-06
2.47343e-06
2.37257e-06
2.26602e-06
2.15458e-06
2.03907e-06
1.92035e-06
1.79927e-06
1.67667e-06
1.55342e-06
1.43039e-06
1.30842e-06
1.18835e-06
1.07092e-06
9.56785e-07
8.46443e-07
7.40228e-07
6.3829e-07
5.40595e-07
4.46925e-07
3.5689e-07
2.69941e-07
1.85385e-07
1.02403e-07
1.76642e-10
6.61791e-13
6.62063e-13
1.7672e-10
1.02452e-07
1.85477e-07
2.70079e-07
3.57076e-07
4.47163e-07
5.40891e-07
6.38652e-07
7.40663e-07
8.46959e-07
9.5739e-07
1.07163e-06
1.18916e-06
1.30935e-06
1.43143e-06
1.55459e-06
1.67796e-06
1.80069e-06
1.92191e-06
2.04077e-06
2.15641e-06
2.26798e-06
2.37467e-06
2.47565e-06
2.57015e-06
2.65743e-06
2.7368e-06
2.80766e-06
2.86944e-06
2.92167e-06
2.96394e-06
2.99594e-06
3.01742e-06
3.02821e-06
3.02823e-06
3.01749e-06
2.99606e-06
2.96412e-06
2.92189e-06
2.8697e-06
2.80797e-06
2.73715e-06
2.65782e-06
2.57057e-06
2.47611e-06
2.37515e-06
2.26849e-06
2.15693e-06
2.0413e-06
1.92245e-06
1.80124e-06
1.67851e-06
1.55513e-06
1.43196e-06
1.30986e-06
1.18966e-06
1.0721e-06
9.57833e-07
8.47368e-07
7.41036e-07
6.38985e-07
5.41182e-07
4.47409e-07
3.57276e-07
2.70233e-07
1.85585e-07
1.02514e-07
1.76834e-10
6.62506e-13
6.62452e-13
1.76824e-10
1.02513e-07
1.85586e-07
2.70238e-07
3.57286e-07
4.47427e-07
5.41212e-07
6.39032e-07
7.41104e-07
8.47465e-07
9.57965e-07
1.07227e-06
1.18988e-06
1.31014e-06
1.43229e-06
1.55552e-06
1.67897e-06
1.80178e-06
1.92307e-06
2.04199e-06
2.1577e-06
2.26934e-06
2.37609e-06
2.47713e-06
2.57168e-06
2.65901e-06
2.73843e-06
2.80932e-06
2.87114e-06
2.9234e-06
2.96569e-06
2.99771e-06
3.0192e-06
3.03e-06
3.03002e-06
3.01927e-06
2.99784e-06
2.96587e-06
2.92362e-06
2.8714e-06
2.80963e-06
2.73878e-06
2.6594e-06
2.5721e-06
2.47758e-06
2.37657e-06
2.26984e-06
2.15822e-06
2.04253e-06
1.92361e-06
1.80232e-06
1.67952e-06
1.55606e-06
1.43282e-06
1.31065e-06
1.19037e-06
1.07274e-06
9.58407e-07
8.47875e-07
7.41477e-07
6.39365e-07
5.41503e-07
4.47673e-07
3.57487e-07
2.70392e-07
1.85694e-07
1.02574e-07
1.76938e-10
6.62896e-13
6.62657e-13
1.76879e-10
1.02545e-07
1.85644e-07
2.70322e-07
3.57398e-07
4.47567e-07
5.41382e-07
6.39233e-07
7.41338e-07
8.47734e-07
9.58269e-07
1.07261e-06
1.19026e-06
1.31056e-06
1.43275e-06
1.55602e-06
1.67951e-06
1.80236e-06
1.92369e-06
2.04265e-06
2.15839e-06
2.27007e-06
2.37685e-06
2.47792e-06
2.5725e-06
2.65986e-06
2.7393e-06
2.81021e-06
2.87205e-06
2.92432e-06
2.96663e-06
2.99866e-06
3.02015e-06
3.03096e-06
3.03098e-06
3.02023e-06
2.99879e-06
2.96681e-06
2.92454e-06
2.87232e-06
2.81052e-06
2.73965e-06
2.66024e-06
2.57292e-06
2.47837e-06
2.37733e-06
2.27057e-06
2.15891e-06
2.04318e-06
1.92423e-06
1.8029e-06
1.68006e-06
1.55656e-06
1.43328e-06
1.31107e-06
1.19075e-06
1.07308e-06
9.58712e-07
8.48144e-07
7.41711e-07
6.39566e-07
5.41672e-07
4.47813e-07
3.57598e-07
2.70477e-07
1.85752e-07
1.02606e-07
1.76993e-10
6.63101e-13
6.62763e-13
1.76907e-10
1.02561e-07
1.85673e-07
2.70365e-07
3.57455e-07
4.47639e-07
5.41469e-07
6.39336e-07
7.41459e-07
8.47872e-07
9.58427e-07
1.07279e-06
1.19045e-06
1.31077e-06
1.43299e-06
1.55628e-06
1.67979e-06
1.80266e-06
1.92401e-06
2.04299e-06
2.15875e-06
2.27045e-06
2.37725e-06
2.47833e-06
2.57293e-06
2.6603e-06
2.73975e-06
2.81068e-06
2.87252e-06
2.9248e-06
2.96712e-06
2.99915e-06
3.02065e-06
3.03146e-06
3.03148e-06
3.02073e-06
2.99928e-06
2.9673e-06
2.92503e-06
2.87279e-06
2.81099e-06
2.7401e-06
2.66068e-06
2.57335e-06
2.47879e-06
2.37772e-06
2.27095e-06
2.15927e-06
2.04352e-06
1.92455e-06
1.8032e-06
1.68034e-06
1.55682e-06
1.43352e-06
1.31129e-06
1.19095e-06
1.07326e-06
9.5887e-07
8.48282e-07
7.41832e-07
6.3967e-07
5.4176e-07
4.47885e-07
3.57656e-07
2.7052e-07
1.85782e-07
1.02623e-07
1.77021e-10
6.63206e-13
6.62815e-13
1.76921e-10
1.02569e-07
1.85688e-07
2.70386e-07
3.57483e-07
4.47675e-07
5.41513e-07
6.39388e-07
7.41519e-07
8.47942e-07
9.58506e-07
1.07288e-06
1.19055e-06
1.31088e-06
1.43311e-06
1.55641e-06
1.67993e-06
1.80281e-06
1.92417e-06
2.04316e-06
2.15893e-06
2.27064e-06
2.37744e-06
2.47854e-06
2.57314e-06
2.66052e-06
2.73998e-06
2.81091e-06
2.87276e-06
2.92505e-06
2.96737e-06
2.9994e-06
3.0209e-06
3.03171e-06
3.03173e-06
3.02098e-06
2.99953e-06
2.96755e-06
2.92527e-06
2.87303e-06
2.81122e-06
2.74033e-06
2.66091e-06
2.57357e-06
2.47899e-06
2.37792e-06
2.27114e-06
2.15945e-06
2.04369e-06
1.92471e-06
1.80335e-06
1.68048e-06
1.55695e-06
1.43364e-06
1.3114e-06
1.19105e-06
1.07335e-06
9.58948e-07
8.48352e-07
7.41892e-07
6.39721e-07
5.41803e-07
4.47921e-07
3.57684e-07
2.70541e-07
1.85796e-07
1.02631e-07
1.77036e-10
6.63259e-13
6.6284e-13
1.76928e-10
1.02573e-07
1.85695e-07
2.70397e-07
3.57497e-07
4.47692e-07
5.41534e-07
6.39413e-07
7.41549e-07
8.47975e-07
9.58544e-07
1.07292e-06
1.1906e-06
1.31093e-06
1.43317e-06
1.55648e-06
1.68e-06
1.80288e-06
1.92425e-06
2.04324e-06
2.15902e-06
2.27073e-06
2.37754e-06
2.47864e-06
2.57325e-06
2.66063e-06
2.74009e-06
2.81103e-06
2.87288e-06
2.92517e-06
2.96749e-06
2.99953e-06
3.02103e-06
3.03183e-06
3.03186e-06
3.0211e-06
2.99965e-06
2.96767e-06
2.92539e-06
2.87315e-06
2.81134e-06
2.74045e-06
2.66102e-06
2.57367e-06
2.47909e-06
2.37802e-06
2.27123e-06
2.15954e-06
2.04378e-06
1.92479e-06
1.80343e-06
1.68055e-06
1.55702e-06
1.4337e-06
1.31145e-06
1.1911e-06
1.07339e-06
9.58987e-07
8.48385e-07
7.41922e-07
6.39746e-07
5.41824e-07
4.47938e-07
3.57698e-07
2.70552e-07
1.85804e-07
1.02635e-07
1.77042e-10
6.63284e-13
6.62852e-13
1.76931e-10
1.02575e-07
1.85699e-07
2.70402e-07
3.57504e-07
4.477e-07
5.41544e-07
6.39425e-07
7.41563e-07
8.47991e-07
9.58562e-07
1.07294e-06
1.19062e-06
1.31096e-06
1.4332e-06
1.55651e-06
1.68004e-06
1.80292e-06
1.92429e-06
2.04329e-06
2.15906e-06
2.27078e-06
2.37759e-06
2.47869e-06
2.5733e-06
2.66068e-06
2.74015e-06
2.81108e-06
2.87294e-06
2.92523e-06
2.96755e-06
2.99959e-06
3.02109e-06
3.03189e-06
3.03192e-06
3.02116e-06
2.99971e-06
2.96773e-06
2.92545e-06
2.8732e-06
2.81139e-06
2.7405e-06
2.66107e-06
2.57372e-06
2.47914e-06
2.37807e-06
2.27128e-06
2.15958e-06
2.04382e-06
1.92483e-06
1.80346e-06
1.68058e-06
1.55705e-06
1.43373e-06
1.31148e-06
1.19112e-06
1.07341e-06
9.59005e-07
8.48401e-07
7.41936e-07
6.39758e-07
5.41834e-07
4.47947e-07
3.57705e-07
2.70557e-07
1.85807e-07
1.02637e-07
1.77046e-10
6.63296e-13
6.62858e-13
1.76933e-10
1.02576e-07
1.857e-07
2.70404e-07
3.57507e-07
4.47704e-07
5.41548e-07
6.39431e-07
7.41569e-07
8.47999e-07
9.58571e-07
1.07295e-06
1.19063e-06
1.31097e-06
1.43321e-06
1.55652e-06
1.68005e-06
1.80293e-06
1.9243e-06
2.0433e-06
2.15908e-06
2.2708e-06
2.37761e-06
2.47871e-06
2.57332e-06
2.6607e-06
2.74017e-06
2.81111e-06
2.87296e-06
2.92525e-06
2.96758e-06
2.99961e-06
3.02112e-06
3.03192e-06
3.03195e-06
3.02119e-06
2.99974e-06
2.96775e-06
2.92548e-06
2.87323e-06
2.81142e-06
2.74052e-06
2.66109e-06
2.57375e-06
2.47917e-06
2.37809e-06
2.2713e-06
2.1596e-06
2.04384e-06
1.92484e-06
1.80348e-06
1.6806e-06
1.55706e-06
1.43374e-06
1.31149e-06
1.19113e-06
1.07342e-06
9.59013e-07
8.48409e-07
7.41942e-07
6.39764e-07
5.41839e-07
4.4795e-07
3.57708e-07
2.70559e-07
1.85808e-07
1.02638e-07
1.77047e-10
6.63302e-13
6.6286e-13
1.76934e-10
1.02576e-07
1.85701e-07
2.70405e-07
3.57508e-07
4.47706e-07
5.4155e-07
6.39433e-07
7.41572e-07
8.48002e-07
9.58574e-07
1.07295e-06
1.19064e-06
1.31098e-06
1.43321e-06
1.55653e-06
1.68006e-06
1.80294e-06
1.92431e-06
2.04331e-06
2.15909e-06
2.27081e-06
2.37762e-06
2.47872e-06
2.57333e-06
2.66072e-06
2.74018e-06
2.81112e-06
2.87298e-06
2.92527e-06
2.96759e-06
2.99963e-06
3.02113e-06
3.03193e-06
3.03196e-06
3.0212e-06
2.99975e-06
2.96777e-06
2.92549e-06
2.87324e-06
2.81143e-06
2.74054e-06
2.6611e-06
2.57376e-06
2.47918e-06
2.3781e-06
2.27131e-06
2.15961e-06
2.04384e-06
1.92485e-06
1.80349e-06
1.6806e-06
1.55707e-06
1.43375e-06
1.31149e-06
1.19113e-06
1.07343e-06
9.59017e-07
8.48412e-07
7.41945e-07
6.39766e-07
5.41841e-07
4.47952e-07
3.57709e-07
2.7056e-07
1.85809e-07
1.02638e-07
1.77048e-10
6.63304e-13
6.62861e-13
1.76934e-10
1.02576e-07
1.85701e-07
2.70405e-07
3.57509e-07
4.47706e-07
5.41551e-07
6.39434e-07
7.41573e-07
8.48004e-07
9.58576e-07
1.07296e-06
1.19064e-06
1.31098e-06
1.43322e-06
1.55653e-06
1.68006e-06
1.80294e-06
1.92431e-06
2.04332e-06
2.1591e-06
2.27081e-06
2.37763e-06
2.47873e-06
2.57334e-06
2.66072e-06
2.74019e-06
2.81113e-06
2.87298e-06
2.92527e-06
2.9676e-06
2.99963e-06
3.02113e-06
3.03194e-06
3.03196e-06
3.02121e-06
2.99976e-06
2.96777e-06
2.92549e-06
2.87325e-06
2.81144e-06
2.74054e-06
2.66111e-06
2.57376e-06
2.47918e-06
2.3781e-06
2.27131e-06
2.15962e-06
2.04385e-06
1.92486e-06
1.80349e-06
1.68061e-06
1.55707e-06
1.43375e-06
1.3115e-06
1.19114e-06
1.07343e-06
9.59019e-07
8.48413e-07
7.41946e-07
6.39767e-07
5.41842e-07
4.47953e-07
3.57709e-07
2.7056e-07
1.85809e-07
1.02638e-07
1.77048e-10
6.63305e-13
6.62862e-13
1.76934e-10
1.02577e-07
1.85701e-07
2.70406e-07
3.57509e-07
4.47707e-07
5.41552e-07
6.39435e-07
7.41574e-07
8.48004e-07
9.58577e-07
1.07296e-06
1.19064e-06
1.31098e-06
1.43322e-06
1.55653e-06
1.68006e-06
1.80295e-06
1.92432e-06
2.04332e-06
2.1591e-06
2.27081e-06
2.37763e-06
2.47873e-06
2.57334e-06
2.66072e-06
2.74019e-06
2.81113e-06
2.87298e-06
2.92527e-06
2.9676e-06
2.99963e-06
3.02114e-06
3.03194e-06
3.03197e-06
3.02121e-06
2.99976e-06
2.96777e-06
2.9255e-06
2.87325e-06
2.81144e-06
2.74054e-06
2.66111e-06
2.57376e-06
2.47918e-06
2.37811e-06
2.27131e-06
2.15962e-06
2.04385e-06
1.92486e-06
1.80349e-06
1.68061e-06
1.55707e-06
1.43375e-06
1.3115e-06
1.19114e-06
1.07343e-06
9.5902e-07
8.48414e-07
7.41947e-07
6.39768e-07
5.41842e-07
4.47953e-07
3.5771e-07
2.7056e-07
1.8581e-07
1.02638e-07
1.77048e-10
6.63306e-13
6.62862e-13
1.76934e-10
1.02577e-07
1.85701e-07
2.70406e-07
3.57509e-07
4.47707e-07
5.41552e-07
6.39435e-07
7.41574e-07
8.48005e-07
9.58577e-07
1.07296e-06
1.19064e-06
1.31098e-06
1.43322e-06
1.55653e-06
1.68006e-06
1.80295e-06
1.92432e-06
2.04332e-06
2.1591e-06
2.27081e-06
2.37763e-06
2.47873e-06
2.57334e-06
2.66072e-06
2.74019e-06
2.81113e-06
2.87298e-06
2.92527e-06
2.9676e-06
2.99964e-06
3.02114e-06
3.03194e-06
3.03197e-06
3.02121e-06
2.99976e-06
2.96777e-06
2.9255e-06
2.87325e-06
2.81144e-06
2.74054e-06
2.66111e-06
2.57376e-06
2.47918e-06
2.37811e-06
2.27131e-06
2.15962e-06
2.04385e-06
1.92486e-06
1.80349e-06
1.68061e-06
1.55707e-06
1.43375e-06
1.3115e-06
1.19114e-06
1.07343e-06
9.5902e-07
8.48414e-07
7.41947e-07
6.39768e-07
5.41842e-07
4.47953e-07
3.5771e-07
2.70561e-07
1.8581e-07
1.02638e-07
1.77048e-10
6.63306e-13
6.62862e-13
1.76934e-10
1.02577e-07
1.85701e-07
2.70406e-07
3.57509e-07
4.47707e-07
5.41552e-07
6.39435e-07
7.41574e-07
8.48005e-07
9.58577e-07
1.07296e-06
1.19064e-06
1.31098e-06
1.43322e-06
1.55653e-06
1.68006e-06
1.80295e-06
1.92432e-06
2.04332e-06
2.1591e-06
2.27081e-06
2.37763e-06
2.47873e-06
2.57334e-06
2.66072e-06
2.74019e-06
2.81113e-06
2.87298e-06
2.92527e-06
2.9676e-06
2.99964e-06
3.02114e-06
3.03194e-06
3.03197e-06
3.02121e-06
2.99976e-06
2.96777e-06
2.9255e-06
2.87325e-06
2.81144e-06
2.74054e-06
2.66111e-06
2.57376e-06
2.47918e-06
2.37811e-06
2.27131e-06
2.15962e-06
2.04385e-06
1.92486e-06
1.80349e-06
1.68061e-06
1.55707e-06
1.43375e-06
1.3115e-06
1.19114e-06
1.07343e-06
9.5902e-07
8.48414e-07
7.41947e-07
6.39768e-07
5.41843e-07
4.47953e-07
3.5771e-07
2.70561e-07
1.8581e-07
1.02638e-07
1.77048e-10
6.63306e-13
6.62862e-13
1.76934e-10
1.02577e-07
1.85701e-07
2.70406e-07
3.57509e-07
4.47707e-07
5.41552e-07
6.39435e-07
7.41574e-07
8.48005e-07
9.58577e-07
1.07296e-06
1.19064e-06
1.31098e-06
1.43322e-06
1.55653e-06
1.68006e-06
1.80295e-06
1.92432e-06
2.04332e-06
2.1591e-06
2.27081e-06
2.37763e-06
2.47873e-06
2.57334e-06
2.66072e-06
2.74019e-06
2.81113e-06
2.87298e-06
2.92527e-06
2.9676e-06
2.99964e-06
3.02114e-06
3.03194e-06
3.03197e-06
3.02121e-06
2.99976e-06
2.96777e-06
2.9255e-06
2.87325e-06
2.81144e-06
2.74054e-06
2.66111e-06
2.57376e-06
2.47918e-06
2.37811e-06
2.27131e-06
2.15962e-06
2.04385e-06
1.92486e-06
1.80349e-06
1.68061e-06
1.55707e-06
1.43375e-06
1.3115e-06
1.19114e-06
1.07343e-06
9.5902e-07
8.48415e-07
7.41947e-07
6.39768e-07
5.41843e-07
4.47953e-07
3.5771e-07
2.70561e-07
1.8581e-07
1.02638e-07
1.77048e-10
6.63306e-13
6.62862e-13
1.76934e-10
1.02577e-07
1.85701e-07
2.70406e-07
3.57509e-07
4.47707e-07
5.41552e-07
6.39435e-07
7.41574e-07
8.48005e-07
9.58577e-07
1.07296e-06
1.19064e-06
1.31098e-06
1.43322e-06
1.55653e-06
1.68006e-06
1.80295e-06
1.92432e-06
2.04332e-06
2.1591e-06
2.27081e-06
2.37763e-06
2.47873e-06
2.57334e-06
2.66072e-06
2.74019e-06
2.81113e-06
2.87298e-06
2.92527e-06
2.9676e-06
2.99964e-06
3.02114e-06
3.03194e-06
3.03197e-06
3.02121e-06
2.99976e-06
2.96777e-06
2.9255e-06
2.87325e-06
2.81144e-06
2.74054e-06
2.66111e-06
2.57376e-06
2.47918e-06
2.37811e-06
2.27131e-06
2.15962e-06
2.04385e-06
1.92486e-06
1.80349e-06
1.68061e-06
1.55707e-06
1.43375e-06
1.3115e-06
1.19114e-06
1.07343e-06
9.5902e-07
8.48415e-07
7.41947e-07
6.39768e-07
5.41843e-07
4.47953e-07
3.5771e-07
2.70561e-07
1.8581e-07
1.02638e-07
1.77048e-10
6.63306e-13
6.62862e-13
1.76934e-10
1.02577e-07
1.85701e-07
2.70406e-07
3.57509e-07
4.47707e-07
5.41552e-07
6.39435e-07
7.41574e-07
8.48005e-07
9.58577e-07
1.07296e-06
1.19064e-06
1.31098e-06