/*--------------------------------*- C++ -*----------------------------------*\
  =========                 |
  \\      /  F ield         | OpenFOAM: The Open Source CFD Toolbox
   \\    /   O peration     | Website:  https://openfoam.org
    \\  /    A nd           | Version:  13
     \\/     M anipulation  |
\*---------------------------------------------------------------------------*/
FoamFile
{
    format      ascii;
    class       volScalarField;
    location    "195";
    object      nut;
}
// * * * * * * * * * * * * * * * * * * * * * * * * * * * * * * * * * * * * * //

dimensions      [0 2 -1 0 0 0 0];

internalField   nonuniform List<scalar> 
315000
(
1.13957e-16
2.9856e-14
6.81579e-13
1.2241e-12
1.77658e-12
2.34063e-12
2.91814e-12
3.51081e-12
4.11992e-12
4.74621e-12
5.38979e-12
6.0502e-12
6.72632e-12
7.41641e-12
8.11818e-12
8.82876e-12
9.54479e-12
1.02625e-11
1.09776e-11
1.16857e-11
1.2382e-11
1.30616e-11
1.37195e-11
1.43507e-11
1.495e-11
1.55128e-11
1.60343e-11
1.65102e-11
1.69363e-11
1.7309e-11
1.7625e-11
1.78814e-11
1.80761e-11
1.82073e-11
1.82738e-11
1.8275e-11
1.82108e-11
1.8082e-11
1.78895e-11
1.76352e-11
1.73213e-11
1.69506e-11
1.65263e-11
1.60521e-11
1.5532e-11
1.49706e-11
1.43723e-11
1.37421e-11
1.3085e-11
1.24059e-11
1.17099e-11
1.10019e-11
1.02867e-11
9.56877e-12
8.85229e-12
8.1411e-12
7.43856e-12
6.74754e-12
6.07037e-12
5.40878e-12
4.7639e-12
4.13621e-12
3.5256e-12
2.9313e-12
2.35204e-12
1.78607e-12
1.23141e-12
6.86264e-13
3.00993e-14
1.1497e-16
2.85548e-15
7.6073e-13
1.73356e-10
3.13821e-10
4.56307e-10
6.01572e-10
7.50265e-10
9.02905e-10
1.05986e-09
1.22135e-09
1.38743e-09
1.55796e-09
1.73267e-09
1.91111e-09
2.09268e-09
2.27664e-09
2.46211e-09
2.6481e-09
2.83352e-09
3.01718e-09
3.19784e-09
3.37423e-09
3.54502e-09
3.7089e-09
3.86457e-09
4.01076e-09
4.14626e-09
4.2699e-09
4.38063e-09
4.47747e-09
4.55958e-09
4.62623e-09
4.67681e-09
4.71088e-09
4.72812e-09
4.72839e-09
4.71167e-09
4.67811e-09
4.62803e-09
4.56187e-09
4.48021e-09
4.3838e-09
4.27348e-09
4.1502e-09
4.01504e-09
3.86914e-09
3.71372e-09
3.55003e-09
3.3794e-09
3.20312e-09
3.02252e-09
2.83888e-09
2.65344e-09
2.46738e-09
2.28179e-09
2.09768e-09
1.91592e-09
1.73726e-09
1.56229e-09
1.39147e-09
1.22509e-09
1.06327e-09
9.05946e-10
7.52919e-10
6.0381e-10
4.58097e-10
3.15124e-10
1.74122e-10
7.64303e-13
2.86925e-15
1.15571e-14
3.08343e-12
1.79182e-09
3.24781e-09
4.72752e-09
6.24029e-09
7.79429e-09
9.39623e-09
1.10511e-08
1.27621e-08
1.45304e-08
1.63552e-08
1.82337e-08
2.0161e-08
2.21305e-08
2.41338e-08
2.61608e-08
2.82001e-08
3.02391e-08
3.2264e-08
3.42607e-08
3.6214e-08
3.81089e-08
3.99301e-08
4.16625e-08
4.32913e-08
4.48025e-08
4.61827e-08
4.74197e-08
4.85023e-08
4.94205e-08
5.0166e-08
5.07319e-08
5.1113e-08
5.13056e-08
5.1308e-08
5.11201e-08
5.07438e-08
5.01824e-08
4.94413e-08
4.85272e-08
4.74486e-08
4.62152e-08
4.48383e-08
4.333e-08
4.17037e-08
3.99735e-08
3.81541e-08
3.62605e-08
3.4308e-08
3.23118e-08
3.02868e-08
2.82474e-08
2.62073e-08
2.4179e-08
2.21742e-08
2.02028e-08
1.82733e-08
1.63923e-08
1.45648e-08
1.27936e-08
1.10795e-08
9.4213e-09
7.8159e-09
6.25825e-09
4.74165e-09
3.2579e-09
1.79762e-09
3.09381e-12
1.15967e-14
2.21592e-14
5.91248e-12
3.43671e-09
6.23432e-09
9.08643e-09
1.2015e-08
1.50395e-08
1.81764e-08
2.14386e-08
2.48347e-08
2.83695e-08
3.20428e-08
3.58502e-08
3.97824e-08
4.38259e-08
4.7963e-08
5.21722e-08
5.64285e-08
6.07039e-08
6.49681e-08
6.9189e-08
7.3333e-08
7.73657e-08
8.12525e-08
8.49592e-08
8.84522e-08
9.16993e-08
9.46701e-08
9.73364e-08
9.96725e-08
1.01656e-07
1.03268e-07
1.04491e-07
1.05315e-07
1.05732e-07
1.05736e-07
1.05328e-07
1.04512e-07
1.03296e-07
1.01692e-07
9.97161e-08
9.73867e-08
9.47266e-08
9.17615e-08
8.85194e-08
8.50307e-08
8.13276e-08
7.74435e-08
7.34129e-08
6.92702e-08
6.50498e-08
6.07853e-08
5.65088e-08
5.22509e-08
4.80393e-08
4.38992e-08
3.98522e-08
3.59159e-08
3.21041e-08
2.8426e-08
2.48861e-08
2.14845e-08
1.82168e-08
1.5074e-08
1.20435e-08
9.10866e-09
6.25008e-09
3.4457e-09
5.92854e-12
2.22205e-14
3.48448e-14
9.29781e-12
5.40543e-09
9.81147e-09
1.43139e-08
1.89522e-08
2.37615e-08
2.8772e-08
3.40077e-08
3.94861e-08
4.52171e-08
5.1203e-08
5.74381e-08
6.39087e-08
7.05933e-08
7.7463e-08
8.44817e-08
9.16074e-08
9.87924e-08
1.05985e-07
1.13129e-07
1.20167e-07
1.27039e-07
1.33682e-07
1.40035e-07
1.46038e-07
1.51632e-07
1.5676e-07
1.6137e-07
1.65416e-07
1.68855e-07
1.71651e-07
1.73776e-07
1.75207e-07
1.7593e-07
1.75936e-07
1.75225e-07
1.73805e-07
1.71692e-07
1.68906e-07
1.65477e-07
1.61441e-07
1.56839e-07
1.51719e-07
1.46133e-07
1.40136e-07
1.33787e-07
1.27148e-07
1.20279e-07
1.13242e-07
1.06098e-07
9.89053e-08
9.17186e-08
8.45904e-08
7.75681e-08
7.06942e-08
6.40045e-08
5.75281e-08
5.12866e-08
4.52939e-08
3.95557e-08
3.40698e-08
2.88262e-08
2.38077e-08
1.89902e-08
1.43435e-08
9.83233e-09
5.4173e-09
9.31901e-12
3.49257e-14
4.9057e-14
1.30908e-11
7.61118e-09
1.38199e-08
2.01735e-08
2.67318e-08
3.35483e-08
4.06693e-08
4.8132e-08
5.59638e-08
6.41813e-08
7.27896e-08
8.1782e-08
9.11399e-08
1.00833e-07
1.1082e-07
1.21048e-07
1.31457e-07
1.41977e-07
1.52533e-07
1.63041e-07
1.73417e-07
1.8357e-07
1.93407e-07
2.02833e-07
2.11753e-07
2.20078e-07
2.2772e-07
2.34599e-07
2.4064e-07
2.4578e-07
2.49962e-07
2.53141e-07
2.55283e-07
2.56363e-07
2.5637e-07
2.55305e-07
2.53178e-07
2.50012e-07
2.45844e-07
2.40717e-07
2.34687e-07
2.27819e-07
2.20186e-07
2.1187e-07
2.02957e-07
1.93537e-07
1.83705e-07
1.73555e-07
1.63181e-07
1.52673e-07
1.42117e-07
1.31594e-07
1.21182e-07
1.10949e-07
1.00957e-07
9.12574e-08
8.18923e-08
7.2892e-08
6.42753e-08
5.60488e-08
4.82076e-08
4.07352e-08
3.36044e-08
2.67777e-08
2.02092e-08
1.3845e-08
7.62544e-09
1.31163e-11
4.91544e-14
6.39269e-14
1.70594e-11
9.91884e-09
1.80129e-08
2.63024e-08
3.48681e-08
4.37829e-08
5.31096e-08
6.28991e-08
7.3189e-08
8.40024e-08
9.53469e-08
1.07214e-07
1.19581e-07
1.32406e-07
1.45635e-07
1.59199e-07
1.73016e-07
1.86995e-07
2.01034e-07
2.15025e-07
2.28853e-07
2.42397e-07
2.5553e-07
2.68124e-07
2.80051e-07
2.91188e-07
3.01417e-07
3.10627e-07
3.1872e-07
3.25606e-07
3.3121e-07
3.3547e-07
3.3834e-07
3.39787e-07
3.39795e-07
3.38365e-07
3.35512e-07
3.31267e-07
3.25678e-07
3.18807e-07
3.10728e-07
3.01529e-07
2.91312e-07
2.80185e-07
2.68266e-07
2.55678e-07
2.42551e-07
2.2901e-07
2.15184e-07
2.01194e-07
1.87154e-07
1.73173e-07
1.59352e-07
1.45783e-07
1.32547e-07
1.19715e-07
1.0734e-07
9.54637e-08
8.41094e-08
7.32857e-08
6.29851e-08
5.31845e-08
4.38464e-08
3.49201e-08
2.63427e-08
1.80413e-08
9.93492e-09
1.70882e-11
6.40371e-14
7.85959e-14
2.09746e-11
1.21951e-08
2.2148e-08
3.2345e-08
4.28878e-08
5.38679e-08
6.5364e-08
7.744e-08
9.0143e-08
1.03502e-07
1.17527e-07
1.32207e-07
1.47512e-07
1.63392e-07
1.79779e-07
1.96584e-07
2.13708e-07
2.31035e-07
2.48441e-07
2.6579e-07
2.82942e-07
2.99743e-07
3.16036e-07
3.31662e-07
3.46462e-07
3.60281e-07
3.72972e-07
3.844e-07
3.94439e-07
4.02982e-07
4.09933e-07
4.15217e-07
4.18776e-07
4.2057e-07
4.20579e-07
4.18803e-07
4.15262e-07
4.09995e-07
4.0306e-07
3.94533e-07
3.84508e-07
3.73094e-07
3.60415e-07
3.46606e-07
3.31816e-07
3.16197e-07
2.99909e-07
2.83112e-07
2.65963e-07
2.48614e-07
2.31208e-07
2.13878e-07
1.9675e-07
1.79939e-07
1.63546e-07
1.47658e-07
1.32344e-07
1.17654e-07
1.03618e-07
9.02481e-08
7.75332e-08
6.54451e-08
5.39367e-08
4.29441e-08
3.23885e-08
2.21786e-08
1.22124e-08
2.10057e-11
7.87149e-14
9.23642e-14
2.46496e-11
1.43314e-08
2.6028e-08
3.80137e-08
5.04094e-08
6.33236e-08
7.68499e-08
9.1064e-08
1.06022e-07
1.21757e-07
1.3828e-07
1.55579e-07
1.73616e-07
1.92333e-07
2.11645e-07
2.31451e-07
2.51628e-07
2.72041e-07
2.92544e-07
3.12977e-07
3.33172e-07
3.52951e-07
3.72129e-07
3.90518e-07
4.07929e-07
4.24182e-07
4.39106e-07
4.5254e-07
4.6434e-07
4.74378e-07
4.82545e-07
4.88752e-07
4.92931e-07
4.95037e-07
4.95046e-07
4.92959e-07
4.88799e-07
4.8261e-07
4.7446e-07
4.64438e-07
4.52653e-07
4.39233e-07
4.24322e-07
4.0808e-07
3.90678e-07
3.72298e-07
3.53125e-07
3.3335e-07
3.13157e-07
2.92725e-07
2.72222e-07
2.51806e-07
2.31624e-07
2.11814e-07
1.92494e-07
1.7377e-07
1.55722e-07
1.38413e-07
1.21879e-07
1.06132e-07
9.11619e-08
7.69349e-08
6.33955e-08
5.04681e-08
3.80591e-08
2.60599e-08
1.43494e-08
2.4682e-11
9.24885e-14
1.04735e-13
2.79516e-11
1.62507e-08
2.95134e-08
4.3105e-08
5.71634e-08
7.18127e-08
8.71594e-08
1.03289e-07
1.20266e-07
1.38127e-07
1.56884e-07
1.76522e-07
1.96997e-07
2.18241e-07
2.40157e-07
2.62628e-07
2.85514e-07
3.08662e-07
3.31902e-07
3.55057e-07
3.77936e-07
4.00336e-07
4.22048e-07
4.42858e-07
4.62557e-07
4.8094e-07
4.97813e-07
5.12999e-07
5.26333e-07
5.37673e-07
5.46898e-07
5.53907e-07
5.58626e-07
5.61003e-07
5.61013e-07
5.58655e-07
5.53955e-07
5.46964e-07
5.37757e-07
5.26433e-07
5.13114e-07
4.97943e-07
4.81083e-07
4.62711e-07
4.43022e-07
4.22219e-07
4.00513e-07
3.78118e-07
3.55242e-07
3.32088e-07
3.08846e-07
2.85697e-07
2.62806e-07
2.4033e-07
2.18406e-07
1.97154e-07
1.76669e-07
1.57021e-07
1.38252e-07
1.20379e-07
1.0339e-07
8.72463e-08
7.18862e-08
5.72233e-08
4.31511e-08
2.95458e-08
1.6269e-08
2.79846e-11
1.04861e-13
1.15412e-13
3.08021e-11
1.79074e-08
3.25216e-08
4.74987e-08
6.29915e-08
7.91372e-08
9.60533e-08
1.13835e-07
1.32551e-07
1.52242e-07
1.72922e-07
1.94572e-07
2.17142e-07
2.40556e-07
2.64706e-07
2.89461e-07
3.14666e-07
3.4015e-07
3.65729e-07
3.91205e-07
4.16368e-07
4.40996e-07
4.64861e-07
4.87727e-07
5.09364e-07
5.2955e-07
5.48073e-07
5.64738e-07
5.79368e-07
5.91808e-07
6.01924e-07
6.0961e-07
6.14784e-07
6.17389e-07
6.17399e-07
6.14813e-07
6.09658e-07
6.01991e-07
5.91891e-07
5.79468e-07
5.64854e-07
5.48204e-07
5.29694e-07
5.09519e-07
4.87892e-07
4.65033e-07
4.41175e-07
4.16551e-07
3.9139e-07
3.65916e-07
3.40336e-07
3.1485e-07
2.8964e-07
2.6488e-07
2.40723e-07
2.17301e-07
1.9472e-07
1.7306e-07
1.52369e-07
1.32664e-07
1.13936e-07
9.61407e-08
7.9211e-08
6.30515e-08
4.75449e-08
3.2554e-08
1.79257e-08
3.08351e-11
1.15539e-13
1.24286e-13
3.31712e-11
1.92844e-08
3.50216e-08
5.11499e-08
6.78345e-08
8.52235e-08
1.03444e-07
1.22597e-07
1.42758e-07
1.6397e-07
1.86246e-07
2.09565e-07
2.33874e-07
2.59087e-07
2.85088e-07
3.11733e-07
3.38856e-07
3.66272e-07
3.93781e-07
4.21171e-07
4.48217e-07
4.74681e-07
5.00316e-07
5.24872e-07
5.48102e-07
5.69767e-07
5.89643e-07
6.07521e-07
6.23212e-07
6.36552e-07
6.474e-07
6.55639e-07
6.61184e-07
6.63977e-07
6.63986e-07
6.61213e-07
6.55687e-07
6.47465e-07
6.36636e-07
6.23313e-07
6.07636e-07
5.89773e-07
5.6991e-07
5.48256e-07
5.25036e-07
5.00488e-07
4.74859e-07
4.484e-07
4.21356e-07
3.93967e-07
3.66457e-07
3.39039e-07
3.11912e-07
2.85261e-07
2.59253e-07
2.34032e-07
2.09713e-07
1.86383e-07
1.64096e-07
1.42871e-07
1.22697e-07
1.03531e-07
8.52968e-08
6.78941e-08
5.11957e-08
3.50536e-08
1.93024e-08
3.32039e-11
1.24412e-13
1.31395e-13
3.50696e-11
2.03878e-08
3.70249e-08
5.40757e-08
7.17155e-08
9.0101e-08
1.09366e-07
1.2962e-07
1.50939e-07
1.7337e-07
1.96926e-07
2.21584e-07
2.47286e-07
2.7394e-07
3.01424e-07
3.29583e-07
3.58241e-07
3.87201e-07
4.16253e-07
4.45172e-07
4.73721e-07
5.01649e-07
5.28696e-07
5.54598e-07
5.79096e-07
6.0194e-07
6.22892e-07
6.41735e-07
6.5827e-07
6.72326e-07
6.83753e-07
6.92433e-07
6.98274e-07
7.01214e-07
7.01224e-07
6.98302e-07
6.9248e-07
6.83818e-07
6.72408e-07
6.58369e-07
6.41849e-07
6.23021e-07
6.02081e-07
5.79249e-07
5.5476e-07
5.28866e-07
5.01826e-07
4.73902e-07
4.45356e-07
4.16437e-07
3.87385e-07
3.58422e-07
3.29761e-07
3.01596e-07
2.74105e-07
2.47442e-07
2.21731e-07
1.97062e-07
1.73495e-07
1.51051e-07
1.29719e-07
1.09452e-07
9.01733e-08
7.17742e-08
5.41208e-08
3.70563e-08
2.04055e-08
3.51018e-11
1.3152e-13
1.36894e-13
3.65379e-11
2.12412e-08
3.85744e-08
5.6339e-08
7.47179e-08
9.38747e-08
1.1395e-07
1.35055e-07
1.57271e-07
1.80648e-07
2.05195e-07
2.3089e-07
2.57672e-07
2.85444e-07
3.14076e-07
3.43408e-07
3.73255e-07
4.03411e-07
4.33657e-07
4.63759e-07
4.93471e-07
5.22531e-07
5.50668e-07
5.77611e-07
6.03089e-07
6.26842e-07
6.48625e-07
6.68212e-07
6.85399e-07
7.00007e-07
7.11882e-07
7.20901e-07
7.26969e-07
7.30024e-07
7.30034e-07
7.26997e-07
7.20947e-07
7.11946e-07
7.00088e-07
6.85497e-07
6.68325e-07
6.48752e-07
6.26981e-07
6.03239e-07
5.77771e-07
5.50837e-07
5.22705e-07
4.9365e-07
4.63941e-07
4.33839e-07
4.03592e-07
3.73434e-07
3.43584e-07
3.14246e-07
2.85607e-07
2.57827e-07
2.31035e-07
2.0533e-07
1.80771e-07
1.57382e-07
1.35153e-07
1.14034e-07
9.39459e-08
7.47756e-08
5.63833e-08
3.86053e-08
2.12586e-08
3.65696e-11
1.37016e-13
1.41002e-13
3.76352e-11
2.18791e-08
3.97325e-08
5.80307e-08
7.69623e-08
9.66962e-08
1.17377e-07
1.3912e-07
1.62009e-07
1.86093e-07
2.11384e-07
2.37857e-07
2.65449e-07
2.94059e-07
3.23553e-07
3.53765e-07
3.84503e-07
4.15556e-07
4.46698e-07
4.77687e-07
5.0827e-07
5.38178e-07
5.67134e-07
5.94856e-07
6.21067e-07
6.45502e-07
6.67907e-07
6.88052e-07
7.05727e-07
7.20748e-07
7.32958e-07
7.42231e-07
7.4847e-07
7.51611e-07
7.5162e-07
7.48498e-07
7.42277e-07
7.33022e-07
7.20829e-07
7.05824e-07
6.88164e-07
6.68033e-07
6.4564e-07
6.21216e-07
5.95014e-07
5.673e-07
5.38351e-07
5.08447e-07
4.77866e-07
4.46878e-07
4.15735e-07
3.8468e-07
3.53938e-07
3.23721e-07
2.9422e-07
2.65602e-07
2.38001e-07
2.11517e-07
1.86215e-07
1.62118e-07
1.39216e-07
1.1746e-07
9.67664e-08
7.70191e-08
5.80742e-08
3.97628e-08
2.18962e-08
3.76663e-11
1.41122e-13
1.4397e-13
3.84282e-11
2.23401e-08
4.05696e-08
5.92536e-08
7.85851e-08
9.87367e-08
1.19856e-07
1.42061e-07
1.65438e-07
1.90035e-07
2.15866e-07
2.42904e-07
2.71084e-07
3.00303e-07
3.30423e-07
3.61274e-07
3.92661e-07
4.24366e-07
4.56158e-07
4.87793e-07
5.19009e-07
5.49534e-07
5.79084e-07
6.07373e-07
6.34118e-07
6.59048e-07
6.81906e-07
7.02456e-07
7.20485e-07
7.35807e-07
7.48261e-07
7.57718e-07
7.64081e-07
7.67284e-07
7.67293e-07
7.64109e-07
7.57764e-07
7.48324e-07
7.35886e-07
7.20581e-07
7.02567e-07
6.8203e-07
6.59184e-07
6.34265e-07
6.0753e-07
5.79249e-07
5.49705e-07
5.19184e-07
4.8797e-07
4.56336e-07
4.24543e-07
3.92836e-07
3.61446e-07
3.30589e-07
3.00463e-07
2.71235e-07
2.43046e-07
2.15998e-07
1.90156e-07
1.65546e-07
1.42157e-07
1.19938e-07
9.8806e-08
7.86411e-08
5.92965e-08
4.05995e-08
2.23569e-08
3.84588e-11
1.44088e-13
1.46046e-13
3.89829e-11
2.26626e-08
4.11554e-08
6.01095e-08
7.9721e-08
1.00165e-07
1.21592e-07
1.44122e-07
1.67841e-07
1.92799e-07
2.1901e-07
2.46445e-07
2.75039e-07
3.04686e-07
3.35248e-07
3.66549e-07
3.98392e-07
4.30557e-07
4.62809e-07
4.94898e-07
5.26561e-07
5.57521e-07
5.87491e-07
6.16179e-07
6.433e-07
6.6858e-07
6.91757e-07
7.12593e-07
7.30873e-07
7.46406e-07
7.59032e-07
7.6862e-07
7.75071e-07
7.78317e-07
7.78326e-07
7.75098e-07
7.68665e-07
7.59095e-07
7.46485e-07
7.30968e-07
7.12703e-07
6.9188e-07
6.68715e-07
6.43447e-07
6.16335e-07
5.87654e-07
5.5769e-07
5.26735e-07
4.95074e-07
4.62985e-07
4.30733e-07
3.98566e-07
3.66719e-07
3.35412e-07
3.04845e-07
2.75189e-07
2.46585e-07
2.1914e-07
1.92918e-07
1.67948e-07
1.44217e-07
1.21674e-07
1.00234e-07
7.97765e-08
6.01519e-08
4.11849e-08
2.26793e-08
3.90132e-11
1.46163e-13
1.47453e-13
3.9359e-11
2.28813e-08
4.15526e-08
6.06899e-08
8.04915e-08
1.01135e-07
1.22771e-07
1.45521e-07
1.69473e-07
1.94677e-07
2.21146e-07
2.48852e-07
2.77729e-07
3.0767e-07
3.38532e-07
3.70142e-07
4.02297e-07
4.34776e-07
4.67342e-07
4.99742e-07
5.31712e-07
5.62969e-07
5.93226e-07
6.22188e-07
6.49568e-07
6.75086e-07
6.98482e-07
7.19515e-07
7.37966e-07
7.53645e-07
7.66388e-07
7.76065e-07
7.82576e-07
7.85853e-07
7.85862e-07
7.82603e-07
7.7611e-07
7.6645e-07
7.53723e-07
7.3806e-07
7.19624e-07
6.98605e-07
6.75221e-07
6.49713e-07
6.22343e-07
5.93388e-07
5.63137e-07
5.31884e-07
4.99917e-07
4.67517e-07
4.34951e-07
4.0247e-07
3.70311e-07
3.38696e-07
3.07827e-07
2.77878e-07
2.48992e-07
2.21276e-07
1.94796e-07
1.6958e-07
1.45615e-07
1.22852e-07
1.01203e-07
8.05465e-08
6.07319e-08
4.15818e-08
2.28978e-08
3.9389e-11
1.47569e-13
1.48378e-13
3.96061e-11
2.30251e-08
4.18137e-08
6.10716e-08
8.09984e-08
1.01773e-07
1.23547e-07
1.46443e-07
1.70548e-07
1.95915e-07
2.22555e-07
2.50441e-07
2.79504e-07
3.09639e-07
3.40702e-07
3.72515e-07
4.04878e-07
4.37566e-07
4.7034e-07
5.02948e-07
5.3512e-07
5.66576e-07
5.97024e-07
6.26168e-07
6.53719e-07
6.79398e-07
7.0294e-07
7.24103e-07
7.42668e-07
7.58443e-07
7.71266e-07
7.81002e-07
7.87553e-07
7.90849e-07
7.90858e-07
7.8758e-07
7.81047e-07
7.71327e-07
7.58521e-07
7.42762e-07
7.24211e-07
7.03061e-07
6.79532e-07
6.53864e-07
6.26322e-07
5.97185e-07
5.66744e-07
5.35292e-07
5.03122e-07
4.70515e-07
4.3774e-07
4.0505e-07
3.72684e-07
3.40865e-07
3.09796e-07
2.79653e-07
2.5058e-07
2.22684e-07
1.96033e-07
1.70654e-07
1.46536e-07
1.23627e-07
1.0184e-07
8.10531e-08
6.11134e-08
4.18428e-08
2.30414e-08
3.9636e-11
1.48493e-13
1.48967e-13
3.97638e-11
2.31168e-08
4.19804e-08
6.13153e-08
8.13221e-08
1.0218e-07
1.24042e-07
1.47032e-07
1.71236e-07
1.96707e-07
2.23457e-07
2.51458e-07
2.80642e-07
3.10902e-07
3.42093e-07
3.74039e-07
4.06535e-07
4.39358e-07
4.72267e-07
5.05008e-07
5.37312e-07
5.68896e-07
5.99467e-07
6.28729e-07
6.56391e-07
6.82173e-07
7.05809e-07
7.27056e-07
7.45696e-07
7.61534e-07
7.74407e-07
7.84182e-07
7.90758e-07
7.94068e-07
7.94077e-07
7.90785e-07
7.84226e-07
7.74468e-07
7.61612e-07
7.45789e-07
7.27165e-07
7.0593e-07
6.82306e-07
6.56536e-07
6.28883e-07
5.99628e-07
5.69063e-07
5.37483e-07
5.05181e-07
4.72441e-07
4.39531e-07
4.06707e-07
3.74207e-07
3.42256e-07
3.11058e-07
2.8079e-07
2.51597e-07
2.23586e-07
1.96825e-07
1.71342e-07
1.47125e-07
1.24123e-07
1.02248e-07
8.13766e-08
6.13569e-08
4.20093e-08
2.31331e-08
3.97936e-11
1.49083e-13
1.49333e-13
3.98616e-11
2.31737e-08
4.20837e-08
6.14664e-08
8.15229e-08
1.02433e-07
1.2435e-07
1.47398e-07
1.71664e-07
1.972e-07
2.24018e-07
2.52091e-07
2.81351e-07
3.11689e-07
3.4296e-07
3.74989e-07
4.07569e-07
4.40476e-07
4.73469e-07
5.06294e-07
5.38681e-07
5.70346e-07
6.00994e-07
6.30331e-07
6.58063e-07
6.83909e-07
7.07604e-07
7.28905e-07
7.47591e-07
7.63469e-07
7.76374e-07
7.86173e-07
7.92766e-07
7.96084e-07
7.96093e-07
7.92793e-07
7.86218e-07
7.76435e-07
7.63546e-07
7.47684e-07
7.29013e-07
7.07726e-07
6.84042e-07
6.58207e-07
6.30484e-07
6.01155e-07
5.70512e-07
5.38852e-07
5.06468e-07
4.73643e-07
4.40649e-07
4.0774e-07
3.75156e-07
3.43123e-07
3.11844e-07
2.81498e-07
2.5223e-07
2.24147e-07
1.97317e-07
1.71769e-07
1.47491e-07
1.2443e-07
1.025e-07
8.15773e-08
6.1508e-08
4.21126e-08
2.319e-08
3.98913e-11
1.49448e-13
1.49553e-13
3.99205e-11
2.3208e-08
4.2146e-08
6.15575e-08
8.1644e-08
1.02586e-07
1.24536e-07
1.47619e-07
1.71922e-07
1.97497e-07
2.24358e-07
2.52474e-07
2.8178e-07
3.12165e-07
3.43486e-07
3.75565e-07
4.08196e-07
4.41155e-07
4.742e-07
5.07076e-07
5.39513e-07
5.71227e-07
6.01923e-07
6.31305e-07
6.5908e-07
6.84966e-07
7.08698e-07
7.30031e-07
7.48745e-07
7.64647e-07
7.77572e-07
7.87386e-07
7.93989e-07
7.97312e-07
7.97321e-07
7.94016e-07
7.8743e-07
7.77633e-07
7.64725e-07
7.48839e-07
7.30139e-07
7.08819e-07
6.85099e-07
6.59224e-07
6.31458e-07
6.02084e-07
5.71393e-07
5.39684e-07
5.07249e-07
4.74374e-07
4.41328e-07
4.08367e-07
3.75732e-07
3.43648e-07
3.12321e-07
2.81927e-07
2.52613e-07
2.24486e-07
1.97615e-07
1.72027e-07
1.47711e-07
1.24616e-07
1.02653e-07
8.16983e-08
6.15991e-08
4.21749e-08
2.32242e-08
3.99501e-11
1.49668e-13
1.49682e-13
3.9955e-11
2.32281e-08
4.21826e-08
6.1611e-08
8.17151e-08
1.02675e-07
1.24645e-07
1.47748e-07
1.72074e-07
1.97673e-07
2.24557e-07
2.527e-07
2.82032e-07
3.12446e-07
3.43796e-07
3.75905e-07
4.08566e-07
4.41556e-07
4.74631e-07
5.07538e-07
5.40005e-07
5.71748e-07
6.02473e-07
6.31882e-07
6.59682e-07
6.85592e-07
7.09345e-07
7.30698e-07
7.49429e-07
7.65346e-07
7.78282e-07
7.88105e-07
7.94714e-07
7.9804e-07
7.98049e-07
7.94741e-07
7.8815e-07
7.78343e-07
7.65423e-07
7.49523e-07
7.30806e-07
7.09466e-07
6.85725e-07
6.59826e-07
6.32035e-07
6.02633e-07
5.71915e-07
5.40176e-07
5.07711e-07
4.74805e-07
4.41729e-07
4.08737e-07
3.76072e-07
3.43958e-07
3.12602e-07
2.8218e-07
2.52839e-07
2.24686e-07
1.9779e-07
1.72179e-07
1.47841e-07
1.24725e-07
1.02742e-07
8.17694e-08
6.16525e-08
4.22114e-08
2.32443e-08
3.99847e-11
1.49797e-13
1.49756e-13
3.99748e-11
2.32396e-08
4.22035e-08
6.16415e-08
8.17557e-08
1.02726e-07
1.24708e-07
1.47823e-07
1.72161e-07
1.97773e-07
2.24672e-07
2.5283e-07
2.82177e-07
3.12607e-07
3.43974e-07
3.761e-07
4.08779e-07
4.41786e-07
4.7488e-07
5.07804e-07
5.40289e-07
5.72049e-07
6.0279e-07
6.32214e-07
6.60029e-07
6.85953e-07
7.09719e-07
7.31083e-07
7.49824e-07
7.65749e-07
7.78692e-07
7.88521e-07
7.95133e-07
7.9846e-07
7.98469e-07
7.95159e-07
7.88565e-07
7.78754e-07
7.65827e-07
7.49918e-07
7.31191e-07
7.0984e-07
6.86086e-07
6.60173e-07
6.32367e-07
6.0295e-07
5.72215e-07
5.40459e-07
5.07977e-07
4.75054e-07
4.41959e-07
4.0895e-07
3.76267e-07
3.44136e-07
3.12763e-07
2.82325e-07
2.52968e-07
2.248e-07
1.9789e-07
1.72266e-07
1.47916e-07
1.24788e-07
1.02794e-07
8.181e-08
6.1683e-08
4.22323e-08
2.32558e-08
4.00044e-11
1.4987e-13
1.49797e-13
3.99857e-11
2.3246e-08
4.22151e-08
6.16585e-08
8.17783e-08
1.02755e-07
1.24742e-07
1.47864e-07
1.72209e-07
1.97829e-07
2.24736e-07
2.52902e-07
2.82259e-07
3.12698e-07
3.44074e-07
3.76209e-07
4.08898e-07
4.41915e-07
4.75019e-07
5.07953e-07
5.40448e-07
5.72217e-07
6.02968e-07
6.32401e-07
6.60224e-07
6.86156e-07
7.09929e-07
7.313e-07
7.50046e-07
7.65976e-07
7.78923e-07
7.88754e-07
7.95368e-07
7.98697e-07
7.98706e-07
7.95395e-07
7.88799e-07
7.78984e-07
7.66054e-07
7.5014e-07
7.31407e-07
7.1005e-07
6.86289e-07
6.60368e-07
6.32554e-07
6.03128e-07
5.72384e-07
5.40618e-07
5.08126e-07
4.75193e-07
4.42089e-07
4.09069e-07
3.76377e-07
3.44236e-07
3.12853e-07
2.82406e-07
2.5304e-07
2.24864e-07
1.97946e-07
1.72314e-07
1.47957e-07
1.24822e-07
1.02822e-07
8.18326e-08
6.17e-08
4.22439e-08
2.32622e-08
4.00153e-11
1.49911e-13
1.49819e-13
3.99917e-11
2.32494e-08
4.22214e-08
6.16678e-08
8.17906e-08
1.0277e-07
1.24761e-07
1.47887e-07
1.72235e-07
1.97859e-07
2.24771e-07
2.52941e-07
2.82303e-07
3.12747e-07
3.44128e-07
3.76269e-07
4.08964e-07
4.41986e-07
4.75095e-07
5.08035e-07
5.40535e-07
5.7231e-07
6.03065e-07
6.32504e-07
6.60331e-07
6.86267e-07
7.10044e-07
7.31418e-07
7.50168e-07
7.661e-07
7.7905e-07
7.88883e-07
7.95498e-07
7.98827e-07
7.98836e-07
7.95524e-07
7.88927e-07
7.79111e-07
7.66178e-07
7.50262e-07
7.31526e-07
7.10165e-07
6.864e-07
6.60475e-07
6.32656e-07
6.03226e-07
5.72476e-07
5.40705e-07
5.08208e-07
4.75269e-07
4.42159e-07
4.09134e-07
3.76436e-07
3.4429e-07
3.12902e-07
2.8245e-07
2.5308e-07
2.24899e-07
1.97976e-07
1.72341e-07
1.47979e-07
1.24841e-07
1.02838e-07
8.18448e-08
6.17092e-08
4.22502e-08
2.32656e-08
4.00213e-11
1.49934e-13
1.49831e-13
3.99948e-11
2.32513e-08
4.22247e-08
6.16726e-08
8.17971e-08
1.02779e-07
1.24771e-07
1.47899e-07
1.72249e-07
1.97876e-07
2.24789e-07
2.52962e-07
2.82326e-07
3.12773e-07
3.44157e-07
3.76301e-07
4.08998e-07
4.42024e-07
4.75136e-07
5.08079e-07
5.40581e-07
5.72359e-07
6.03117e-07
6.32558e-07
6.60389e-07
6.86327e-07
7.10106e-07
7.31482e-07
7.50234e-07
7.66167e-07
7.79117e-07
7.88951e-07
7.95567e-07
7.98896e-07
7.98905e-07
7.95594e-07
7.88996e-07
7.79179e-07
7.66245e-07
7.50327e-07
7.3159e-07
7.10227e-07
6.8646e-07
6.60533e-07
6.32711e-07
6.03278e-07
5.72525e-07
5.40752e-07
5.08252e-07
4.7531e-07
4.42197e-07
4.09169e-07
3.76468e-07
3.44319e-07
3.12929e-07
2.82474e-07
2.53101e-07
2.24917e-07
1.97993e-07
1.72355e-07
1.47991e-07
1.24851e-07
1.02846e-07
8.18513e-08
6.17141e-08
4.22535e-08
2.32675e-08
4.00244e-11
1.49945e-13
1.49837e-13
3.99964e-11
2.32522e-08
4.22264e-08
6.16752e-08
8.18004e-08
1.02783e-07
1.24776e-07
1.47905e-07
1.72257e-07
1.97884e-07
2.24799e-07
2.52973e-07
2.82338e-07
3.12787e-07
3.44172e-07
3.76317e-07
4.09016e-07
4.42043e-07
4.75157e-07
5.08101e-07
5.40606e-07
5.72385e-07
6.03145e-07
6.32587e-07
6.60419e-07
6.86358e-07
7.10138e-07
7.31515e-07
7.50268e-07
7.66202e-07
7.79153e-07
7.88987e-07
7.95603e-07
7.98933e-07
7.98942e-07
7.9563e-07
7.89031e-07
7.79214e-07
7.6628e-07
7.50361e-07
7.31623e-07
7.10259e-07
6.86491e-07
6.60562e-07
6.3274e-07
6.03305e-07
5.72551e-07
5.40776e-07
5.08274e-07
4.75331e-07
4.42217e-07
4.09187e-07
3.76485e-07
3.44334e-07
3.12942e-07
2.82486e-07
2.53111e-07
2.24927e-07
1.98001e-07
1.72362e-07
1.47998e-07
1.24856e-07
1.0285e-07
8.18547e-08
6.17166e-08
4.22552e-08
2.32684e-08
4.0026e-11
1.49951e-13
1.4984e-13
3.99972e-11
2.32527e-08
4.22273e-08
6.16764e-08
8.18021e-08
1.02785e-07
1.24779e-07
1.47908e-07
1.7226e-07
1.97888e-07
2.24803e-07
2.52979e-07
2.82345e-07
3.12794e-07
3.4418e-07
3.76326e-07
4.09025e-07
4.42053e-07
4.75168e-07
5.08113e-07
5.40618e-07
5.72398e-07
6.03158e-07
6.32601e-07
6.60434e-07
6.86373e-07
7.10155e-07
7.31532e-07
7.50285e-07
7.6622e-07
7.79171e-07
7.89005e-07
7.95622e-07
7.98951e-07
7.9896e-07
7.95648e-07
7.8905e-07
7.79232e-07
7.66297e-07
7.50378e-07
7.3164e-07
7.10276e-07
6.86507e-07
6.60578e-07
6.32754e-07
6.03319e-07
5.72564e-07
5.40788e-07
5.08286e-07
4.75342e-07
4.42227e-07
4.09196e-07
3.76493e-07
3.44342e-07
3.12949e-07
2.82492e-07
2.53117e-07
2.24932e-07
1.98005e-07
1.72366e-07
1.48001e-07
1.24859e-07
1.02852e-07
8.18564e-08
6.17179e-08
4.22561e-08
2.32689e-08
4.00268e-11
1.49954e-13
1.49841e-13
3.99976e-11
2.32529e-08
4.22277e-08
6.1677e-08
8.1803e-08
1.02786e-07
1.2478e-07
1.47909e-07
1.72262e-07
1.9789e-07
2.24806e-07
2.52981e-07
2.82348e-07
3.12797e-07
3.44184e-07
3.7633e-07
4.0903e-07
4.42058e-07
4.75173e-07
5.08119e-07
5.40624e-07
5.72404e-07
6.03165e-07
6.32609e-07
6.60441e-07
6.86381e-07
7.10163e-07
7.31541e-07
7.50294e-07
7.66228e-07
7.7918e-07
7.89015e-07
7.95631e-07
7.98961e-07
7.9897e-07
7.95658e-07
7.89059e-07
7.79241e-07
7.66306e-07
7.50387e-07
7.31648e-07
7.10284e-07
6.86515e-07
6.60585e-07
6.32762e-07
6.03326e-07
5.72571e-07
5.40794e-07
5.08292e-07
4.75347e-07
4.42231e-07
4.09201e-07
3.76497e-07
3.44346e-07
3.12952e-07
2.82495e-07
2.5312e-07
2.24934e-07
1.98007e-07
1.72367e-07
1.48002e-07
1.2486e-07
1.02853e-07
8.18572e-08
6.17185e-08
4.22565e-08
2.32691e-08
4.00272e-11
1.49956e-13
1.49842e-13
3.99978e-11
2.3253e-08
4.22279e-08
6.16773e-08
8.18034e-08
1.02787e-07
1.24781e-07
1.4791e-07
1.72263e-07
1.97891e-07
2.24807e-07
2.52983e-07
2.82349e-07
3.12799e-07
3.44186e-07
3.76332e-07
4.09032e-07
4.42061e-07
4.75176e-07
5.08121e-07
5.40627e-07
5.72408e-07
6.03169e-07
6.32612e-07
6.60445e-07
6.86385e-07
7.10167e-07
7.31545e-07
7.50298e-07
7.66233e-07
7.79184e-07
7.89019e-07
7.95635e-07
7.98965e-07
7.98974e-07
7.95662e-07
7.89063e-07
7.79246e-07
7.6631e-07
7.50391e-07
7.31652e-07
7.10288e-07
6.86518e-07
6.60589e-07
6.32765e-07
6.03329e-07
5.72574e-07
5.40797e-07
5.08294e-07
4.7535e-07
4.42234e-07
4.09203e-07
3.76499e-07
3.44348e-07
3.12954e-07
2.82497e-07
2.53121e-07
2.24935e-07
1.98008e-07
1.72368e-07
1.48003e-07
1.24861e-07
1.02854e-07
8.18576e-08
6.17188e-08
4.22567e-08
2.32692e-08
4.00274e-11
1.49957e-13
1.49842e-13
3.99979e-11
2.32531e-08
4.2228e-08
6.16775e-08
8.18035e-08
1.02787e-07
1.24781e-07
1.47911e-07
1.72263e-07
1.97892e-07
2.24808e-07
2.52983e-07
2.8235e-07
3.12799e-07
3.44187e-07
3.76333e-07
4.09033e-07
4.42062e-07
4.75177e-07
5.08123e-07
5.40628e-07
5.72409e-07
6.0317e-07
6.32614e-07
6.60447e-07
6.86387e-07
7.10169e-07
7.31547e-07
7.503e-07
7.66235e-07
7.79186e-07
7.89021e-07
7.95637e-07
7.98967e-07
7.98976e-07
7.95664e-07
7.89065e-07
7.79248e-07
7.66313e-07
7.50393e-07
7.31654e-07
7.1029e-07
6.8652e-07
6.60591e-07
6.32767e-07
6.03331e-07
5.72575e-07
5.40799e-07
5.08296e-07
4.75351e-07
4.42235e-07
4.09204e-07
3.765e-07
3.44349e-07
3.12955e-07
2.82497e-07
2.53122e-07
2.24936e-07
1.98009e-07
1.72369e-07
1.48003e-07
1.24861e-07
1.02854e-07
8.18578e-08
6.1719e-08
4.22568e-08
2.32693e-08
4.00275e-11
1.49957e-13
1.49843e-13
3.9998e-11
2.32531e-08
4.2228e-08
6.16776e-08
8.18036e-08
1.02787e-07
1.24781e-07
1.47911e-07
1.72264e-07
1.97892e-07
2.24808e-07
2.52983e-07
2.8235e-07
3.128e-07
3.44187e-07
3.76333e-07
4.09034e-07
4.42062e-07
4.75178e-07
5.08123e-07
5.40629e-07
5.7241e-07
6.03171e-07
6.32615e-07
6.60448e-07
6.86388e-07
7.10169e-07
7.31547e-07
7.50301e-07
7.66236e-07
7.79187e-07
7.89022e-07
7.95638e-07
7.98968e-07
7.98977e-07
7.95665e-07
7.89066e-07
7.79249e-07
7.66313e-07
7.50394e-07
7.31655e-07
7.10291e-07
6.86521e-07
6.60591e-07
6.32768e-07
6.03331e-07
5.72576e-07
5.408e-07
5.08296e-07
4.75351e-07
4.42236e-07
4.09205e-07
3.76501e-07
3.44349e-07
3.12955e-07
2.82498e-07
2.53122e-07
2.24936e-07
1.98009e-07
1.72369e-07
1.48003e-07
1.24861e-07
1.02854e-07
8.18579e-08
6.1719e-08
4.22569e-08
2.32693e-08
4.00276e-11
1.49957e-13
1.49843e-13
3.9998e-11
2.32531e-08
4.22281e-08
6.16776e-08
8.18037e-08
1.02787e-07
1.24781e-07
1.47911e-07
1.72264e-07
1.97892e-07
2.24808e-07
2.52984e-07
2.8235e-07
3.128e-07
3.44187e-07
3.76334e-07
4.09034e-07
4.42063e-07
4.75178e-07
5.08124e-07
5.40629e-07
5.7241e-07
6.03171e-07
6.32615e-07
6.60448e-07
6.86388e-07
7.1017e-07
7.31548e-07
7.50301e-07
7.66236e-07
7.79188e-07
7.89023e-07
7.95639e-07
7.98969e-07
7.98978e-07
7.95666e-07
7.89067e-07
7.79249e-07
7.66314e-07
7.50395e-07
7.31656e-07
7.10291e-07
6.86521e-07
6.60592e-07
6.32768e-07
6.03332e-07
5.72576e-07
5.408e-07
5.08297e-07
4.75352e-07
4.42236e-07
4.09205e-07
3.76501e-07
3.44349e-07
3.12955e-07
2.82498e-07
2.53122e-07
2.24936e-07
1.98009e-07
1.72369e-07
1.48003e-07
1.24861e-07
1.02854e-07
8.18579e-08
6.1719e-08
4.22569e-08
2.32693e-08
4.00276e-11
1.49957e-13
1.49843e-13
3.9998e-11
2.32531e-08
4.22281e-08
6.16776e-08
8.18037e-08
1.02787e-07
1.24781e-07
1.47911e-07
1.72264e-07
1.97892e-07
2.24808e-07
2.52984e-07
2.8235e-07
3.128e-07
3.44187e-07
3.76334e-07
4.09034e-07
4.42063e-07
4.75178e-07
5.08124e-07
5.4063e-07
5.7241e-07
6.03171e-07
6.32615e-07
6.60448e-07
6.86388e-07
7.1017e-07
7.31548e-07
7.50301e-07
7.66236e-07
7.79188e-07
7.89023e-07
7.95639e-07
7.98969e-07
7.98978e-07
7.95666e-07
7.89067e-07
7.79249e-07
7.66314e-07
7.50395e-07
7.31656e-07
7.10291e-07
6.86522e-07
6.60592e-07
6.32768e-07
6.03332e-07
5.72577e-07
5.408e-07
5.08297e-07
4.75352e-07
4.42236e-07
4.09205e-07
3.76501e-07
3.44349e-07
3.12955e-07
2.82498e-07
2.53122e-07
2.24936e-07
1.98009e-07
1.72369e-07
1.48004e-07
1.24862e-07
1.02854e-07
8.18579e-08
6.17191e-08
4.22569e-08
2.32693e-08
4.00276e-11
1.49957e-13
1.49843e-13
3.9998e-11
2.32531e-08
4.22281e-08
6.16776e-08
8.18037e-08
1.02787e-07
1.24781e-07
1.47911e-07
1.72264e-07
1.97892e-07
2.24808e-07
2.52984e-07
2.8235e-07
3.128e-07
3.44187e-07
3.76334e-07
4.09034e-07
4.42063e-07