/*--------------------------------*- C++ -*----------------------------------*\
  =========                 |
  \\      /  F ield         | OpenFOAM: The Open Source CFD Toolbox
   \\    /   O peration     | Website:  https://openfoam.org
    \\  /    A nd           | Version:  13
     \\/     M anipulation  |
\*---------------------------------------------------------------------------*/
FoamFile
{
    format      ascii;
    class       volScalarField;
    location    "5";
    object      nut;
}
// * * * * * * * * * * * * * * * * * * * * * * * * * * * * * * * * * * * * * //

dimensions      [0 2 -1 0 0 0 0];

internalField   nonuniform List<scalar> 
315000
(
1.42689e-11
3.60588e-09
7.97177e-08
1.3646e-07
1.87254e-07
2.31623e-07
2.69435e-07
3.00857e-07
3.26323e-07
3.46468e-07
3.62036e-07
3.73802e-07
3.82509e-07
3.88825e-07
3.93323e-07
3.9647e-07
3.98637e-07
4.00108e-07
4.01093e-07
4.01744e-07
4.0217e-07
4.02446e-07
4.02623e-07
4.02736e-07
4.02807e-07
4.02852e-07
4.02879e-07
4.02897e-07
4.02907e-07
4.02914e-07
4.02918e-07
4.0292e-07
4.02921e-07
4.02922e-07
4.02922e-07
4.02922e-07
4.02922e-07
4.02921e-07
4.02919e-07
4.02917e-07
4.02912e-07
4.02905e-07
4.02894e-07
4.02875e-07
4.02845e-07
4.02797e-07
4.02721e-07
4.02601e-07
4.02414e-07
4.02125e-07
4.01682e-07
4.01008e-07
3.99995e-07
3.98489e-07
3.96281e-07
3.9309e-07
3.8855e-07
3.82196e-07
3.73467e-07
3.61702e-07
3.4617e-07
3.26105e-07
3.00765e-07
2.69515e-07
2.31905e-07
1.8774e-07
1.37105e-07
8.03796e-08
3.65571e-09
1.45171e-11
2.90308e-10
7.52508e-08
1.2027e-05
1.74977e-05
2.17671e-05
2.52061e-05
2.79999e-05
3.02567e-05
3.20599e-05
3.34808e-05
3.45831e-05
3.54244e-05
3.60556e-05
3.65213e-05
3.68591e-05
3.71004e-05
3.727e-05
3.73876e-05
3.74679e-05
3.75222e-05
3.75585e-05
3.75824e-05
3.7598e-05
3.76082e-05
3.76147e-05
3.76189e-05
3.76215e-05
3.76232e-05
3.76243e-05
3.76249e-05
3.76253e-05
3.76255e-05
3.76257e-05
3.76258e-05
3.76258e-05
3.76258e-05
3.76258e-05
3.76257e-05
3.76255e-05
3.76252e-05
3.76248e-05
3.76241e-05
3.7623e-05
3.76213e-05
3.76185e-05
3.76142e-05
3.76074e-05
3.75969e-05
3.75808e-05
3.75562e-05
3.75192e-05
3.74639e-05
3.73823e-05
3.72633e-05
3.70919e-05
3.68488e-05
3.65089e-05
3.60414e-05
3.54086e-05
3.45663e-05
3.34637e-05
3.20434e-05
3.0242e-05
2.79882e-05
2.51983e-05
2.17642e-05
1.75006e-05
1.20353e-05
7.53638e-08
2.90816e-10
6.60767e-10
1.72518e-07
4.56223e-05
4.81844e-05
5.26386e-05
5.63096e-05
5.9293e-05
6.16329e-05
6.34634e-05
6.48867e-05
6.59837e-05
6.68205e-05
6.74518e-05
6.79223e-05
6.82691e-05
6.85217e-05
6.87037e-05
6.88337e-05
6.89256e-05
6.899e-05
6.90349e-05
6.90659e-05
6.90872e-05
6.91018e-05
6.91116e-05
6.91183e-05
6.91227e-05
6.91256e-05
6.91276e-05
6.91289e-05
6.91297e-05
6.91302e-05
6.91305e-05
6.91307e-05
6.91308e-05
6.91308e-05
6.91307e-05
6.91305e-05
6.91302e-05
6.91296e-05
6.91288e-05
6.91275e-05
6.91255e-05
6.91225e-05
6.9118e-05
6.91113e-05
6.91013e-05
6.90866e-05
6.90651e-05
6.90339e-05
6.89887e-05
6.89239e-05
6.88315e-05
6.87011e-05
6.85184e-05
6.82652e-05
6.79178e-05
6.74466e-05
6.68148e-05
6.59775e-05
6.48802e-05
6.34568e-05
6.16264e-05
5.9287e-05
5.63043e-05
5.26343e-05
4.8182e-05
4.56255e-05
1.72588e-07
6.61094e-10
6.93594e-10
1.81669e-07
4.74466e-05
4.91186e-05
5.35963e-05
5.72804e-05
6.03017e-05
6.26745e-05
6.45333e-05
6.59824e-05
6.7104e-05
6.79648e-05
6.86198e-05
6.91141e-05
6.94844e-05
6.97602e-05
6.99647e-05
7.01159e-05
7.02272e-05
7.0309e-05
7.0369e-05
7.04127e-05
7.04443e-05
7.04672e-05
7.04835e-05
7.0495e-05
7.05031e-05
7.05088e-05
7.05126e-05
7.05152e-05
7.0517e-05
7.05181e-05
7.05188e-05
7.05192e-05
7.05194e-05
7.05194e-05
7.05192e-05
7.05188e-05
7.05181e-05
7.05169e-05
7.05152e-05
7.05125e-05
7.05087e-05
7.0503e-05
7.04949e-05
7.04833e-05
7.04669e-05
7.0444e-05
7.04123e-05
7.03685e-05
7.03085e-05
7.02266e-05
7.01151e-05
6.99639e-05
6.97594e-05
6.94835e-05
6.91133e-05
6.86191e-05
6.79643e-05
6.71037e-05
6.59824e-05
6.45337e-05
6.26752e-05
6.03028e-05
5.72816e-05
5.35979e-05
4.91209e-05
4.74565e-05
1.81769e-07
6.94024e-10
6.97634e-10
1.82784e-07
4.76741e-05
4.92417e-05
5.37272e-05
5.74171e-05
6.04443e-05
6.28225e-05
6.46867e-05
6.61415e-05
6.72694e-05
6.81372e-05
6.87999e-05
6.93028e-05
6.96824e-05
6.9968e-05
7.01825e-05
7.03435e-05
7.04642e-05
7.05545e-05
7.0622e-05
7.06722e-05
7.07093e-05
7.07364e-05
7.07561e-05
7.07703e-05
7.07803e-05
7.07873e-05
7.07922e-05
7.07955e-05
7.07978e-05
7.07992e-05
7.08002e-05
7.08007e-05
7.0801e-05
7.0801e-05
7.08007e-05
7.08002e-05
7.07992e-05
7.07977e-05
7.07955e-05
7.07922e-05
7.07873e-05
7.07802e-05
7.07702e-05
7.0756e-05
7.07362e-05
7.0709e-05
7.06719e-05
7.06217e-05
7.05542e-05
7.04639e-05
7.03432e-05
7.01823e-05
6.99679e-05
6.96824e-05
6.9303e-05
6.88004e-05
6.8138e-05
6.72707e-05
6.61433e-05
6.46891e-05
6.28255e-05
6.04478e-05
5.74208e-05
5.37311e-05
4.92462e-05
4.76879e-05
1.82904e-07
6.98145e-10
6.98027e-10
1.82895e-07
4.76974e-05
4.9255e-05
5.37415e-05
5.74321e-05
6.04602e-05
6.28393e-05
6.47044e-05
6.61601e-05
6.72891e-05
6.81582e-05
6.88224e-05
6.93269e-05
6.97084e-05
6.9996e-05
7.02126e-05
7.03756e-05
7.04982e-05
7.05903e-05
7.06593e-05
7.07108e-05
7.0749e-05
7.0777e-05
7.07974e-05
7.08121e-05
7.08225e-05
7.08298e-05
7.08349e-05
7.08384e-05
7.08407e-05
7.08422e-05
7.08432e-05
7.08438e-05
7.0844e-05
7.0844e-05
7.08438e-05
7.08432e-05
7.08422e-05
7.08407e-05
7.08384e-05
7.08349e-05
7.08298e-05
7.08225e-05
7.0812e-05
7.07973e-05
7.07769e-05
7.07488e-05
7.07106e-05
7.06591e-05
7.05901e-05
7.0498e-05
7.03754e-05
7.02125e-05
6.99961e-05
6.97086e-05
6.93274e-05
6.88232e-05
6.81593e-05
6.72907e-05
6.61623e-05
6.47072e-05
6.28427e-05
6.04642e-05
5.74364e-05
5.37459e-05
4.92599e-05
4.77121e-05
1.8302e-07
6.98558e-10
6.9806e-10
1.82904e-07
4.76994e-05
4.92562e-05
5.37428e-05
5.74335e-05
6.04617e-05
6.28409e-05
6.4706e-05
6.61619e-05
6.7291e-05
6.81603e-05
6.88247e-05
6.93295e-05
6.97112e-05
6.99991e-05
7.02159e-05
7.03792e-05
7.0502e-05
7.05944e-05
7.06636e-05
7.07153e-05
7.07536e-05
7.07817e-05
7.08022e-05
7.0817e-05
7.08275e-05
7.08348e-05
7.08399e-05
7.08434e-05
7.08458e-05
7.08473e-05
7.08483e-05
7.08489e-05
7.08491e-05
7.08491e-05
7.08489e-05
7.08483e-05
7.08473e-05
7.08458e-05
7.08434e-05
7.08399e-05
7.08348e-05
7.08274e-05
7.08169e-05
7.08021e-05
7.07816e-05
7.07535e-05
7.07151e-05
7.06634e-05
7.05942e-05
7.05018e-05
7.0379e-05
7.02159e-05
6.99992e-05
6.97115e-05
6.933e-05
6.88255e-05
6.81615e-05
6.72927e-05
6.61642e-05
6.47089e-05
6.28444e-05
6.04657e-05
5.74378e-05
5.37473e-05
4.92612e-05
4.77143e-05
1.8303e-07
6.98593e-10
6.98062e-10
1.82904e-07
4.76995e-05
4.92563e-05
5.37429e-05
5.74336e-05
6.04618e-05
6.2841e-05
6.47062e-05
6.6162e-05
6.72912e-05
6.81605e-05
6.88249e-05
6.93297e-05
6.97115e-05
6.99994e-05
7.02162e-05
7.03795e-05
7.05024e-05
7.05948e-05
7.0664e-05
7.07157e-05
7.0754e-05
7.07822e-05
7.08027e-05
7.08175e-05
7.0828e-05
7.08353e-05
7.08404e-05
7.08439e-05
7.08463e-05
7.08478e-05
7.08488e-05
7.08493e-05
7.08496e-05
7.08496e-05
7.08493e-05
7.08488e-05
7.08478e-05
7.08462e-05
7.08439e-05
7.08404e-05
7.08353e-05
7.08279e-05
7.08174e-05
7.08026e-05
7.07821e-05
7.07539e-05
7.07156e-05
7.06638e-05
7.05946e-05
7.05022e-05
7.03794e-05
7.02162e-05
6.99994e-05
6.97117e-05
6.93302e-05
6.88257e-05
6.81617e-05
6.72929e-05
6.61643e-05
6.47091e-05
6.28445e-05
6.04659e-05
5.74379e-05
5.37474e-05
4.92613e-05
4.77145e-05
1.8303e-07
6.98595e-10
6.98062e-10
1.82905e-07
4.76995e-05
4.92563e-05
5.37429e-05
5.74336e-05
6.04618e-05
6.2841e-05
6.47062e-05
6.61621e-05
6.72912e-05
6.81605e-05
6.88249e-05
6.93297e-05
6.97115e-05
6.99994e-05
7.02163e-05
7.03795e-05
7.05024e-05
7.05948e-05
7.06641e-05
7.07157e-05
7.07541e-05
7.07822e-05
7.08027e-05
7.08175e-05
7.0828e-05
7.08354e-05
7.08405e-05
7.0844e-05
7.08463e-05
7.08478e-05
7.08488e-05
7.08494e-05
7.08496e-05
7.08496e-05
7.08494e-05
7.08488e-05
7.08478e-05
7.08463e-05
7.08439e-05
7.08404e-05
7.08353e-05
7.08279e-05
7.08174e-05
7.08027e-05
7.07821e-05
7.07539e-05
7.07156e-05
7.06639e-05
7.05946e-05
7.05022e-05
7.03794e-05
7.02162e-05
6.99995e-05
6.97117e-05
6.93302e-05
6.88258e-05
6.81617e-05
6.72929e-05
6.61643e-05
6.47091e-05
6.28445e-05
6.04659e-05
5.7438e-05
5.37474e-05
4.92613e-05
4.77145e-05
1.8303e-07
6.98596e-10
6.98062e-10
1.82905e-07
4.76995e-05
4.92563e-05
5.37429e-05
5.74336e-05
6.04618e-05
6.2841e-05
6.47062e-05
6.61621e-05
6.72912e-05
6.81605e-05
6.88249e-05
6.93297e-05
6.97115e-05
6.99994e-05
7.02163e-05
7.03795e-05
7.05024e-05
7.05948e-05
7.06641e-05
7.07157e-05
7.07541e-05
7.07822e-05
7.08027e-05
7.08175e-05
7.0828e-05
7.08354e-05
7.08405e-05
7.0844e-05
7.08463e-05
7.08478e-05
7.08488e-05
7.08494e-05
7.08497e-05
7.08497e-05
7.08494e-05
7.08488e-05
7.08478e-05
7.08463e-05
7.08439e-05
7.08404e-05
7.08353e-05
7.08279e-05
7.08174e-05
7.08027e-05
7.07821e-05
7.07539e-05
7.07156e-05
7.06639e-05
7.05946e-05
7.05022e-05
7.03794e-05
7.02162e-05
6.99995e-05
6.97117e-05
6.93302e-05
6.88258e-05
6.81617e-05
6.72929e-05
6.61643e-05
6.47091e-05
6.28445e-05
6.04659e-05
5.7438e-05
5.37474e-05
4.92613e-05
4.77145e-05
1.8303e-07
6.98596e-10
6.98062e-10
1.82905e-07
4.76995e-05
4.92563e-05
5.37429e-05
5.74336e-05
6.04618e-05
6.2841e-05
6.47062e-05
6.61621e-05
6.72912e-05
6.81605e-05
6.88249e-05
6.93297e-05
6.97115e-05
6.99994e-05
7.02163e-05
7.03795e-05
7.05024e-05
7.05948e-05
7.06641e-05
7.07157e-05
7.07541e-05
7.07822e-05
7.08027e-05
7.08175e-05
7.0828e-05
7.08354e-05
7.08405e-05
7.0844e-05
7.08463e-05
7.08478e-05
7.08488e-05
7.08494e-05
7.08497e-05
7.08497e-05
7.08494e-05
7.08488e-05
7.08478e-05
7.08463e-05
7.08439e-05
7.08404e-05
7.08353e-05
7.08279e-05
7.08174e-05
7.08027e-05
7.07821e-05
7.07539e-05
7.07156e-05
7.06639e-05
7.05946e-05
7.05022e-05
7.03794e-05
7.02162e-05
6.99995e-05
6.97117e-05
6.93302e-05
6.88258e-05
6.81617e-05
6.72929e-05
6.61643e-05
6.47091e-05
6.28445e-05
6.04659e-05
5.7438e-05
5.37474e-05
4.92613e-05
4.77145e-05
1.8303e-07
6.98596e-10
6.98062e-10
1.82905e-07
4.76995e-05
4.92563e-05
5.37429e-05
5.74336e-05
6.04618e-05
6.2841e-05
6.47062e-05
6.61621e-05
6.72912e-05
6.81605e-05
6.88249e-05
6.93297e-05
6.97115e-05
6.99994e-05
7.02163e-05
7.03795e-05
7.05024e-05
7.05948e-05
7.06641e-05
7.07157e-05
7.07541e-05
7.07822e-05
7.08027e-05
7.08175e-05
7.0828e-05
7.08354e-05
7.08405e-05
7.0844e-05
7.08463e-05
7.08478e-05
7.08488e-05
7.08494e-05
7.08497e-05
7.08497e-05
7.08494e-05
7.08488e-05
7.08478e-05
7.08463e-05
7.08439e-05
7.08404e-05
7.08353e-05
7.08279e-05
7.08174e-05
7.08027e-05
7.07821e-05
7.07539e-05
7.07156e-05
7.06639e-05
7.05946e-05
7.05022e-05
7.03794e-05
7.02162e-05
6.99995e-05
6.97117e-05
6.93302e-05
6.88258e-05
6.81617e-05
6.72929e-05
6.61643e-05
6.47091e-05
6.28445e-05
6.04659e-05
5.7438e-05
5.37474e-05
4.92613e-05
4.77145e-05
1.8303e-07
6.98596e-10
6.98062e-10
1.82905e-07
4.76995e-05
4.92563e-05
5.37429e-05
5.74336e-05
6.04618e-05
6.2841e-05
6.47062e-05
6.61621e-05
6.72912e-05
6.81605e-05
6.88249e-05
6.93297e-05
6.97115e-05
6.99994e-05
7.02163e-05
7.03795e-05
7.05024e-05
7.05948e-05
7.06641e-05
7.07157e-05
7.07541e-05
7.07822e-05
7.08027e-05
7.08175e-05
7.0828e-05
7.08354e-05
7.08405e-05
7.0844e-05
7.08463e-05
7.08478e-05
7.08488e-05
7.08494e-05
7.08497e-05
7.08497e-05
7.08494e-05
7.08488e-05
7.08478e-05
7.08463e-05
7.08439e-05
7.08404e-05
7.08353e-05
7.08279e-05
7.08174e-05
7.08027e-05
7.07821e-05
7.07539e-05
7.07156e-05
7.06639e-05
7.05946e-05
7.05022e-05
7.03794e-05
7.02162e-05
6.99995e-05
6.97117e-05
6.93302e-05
6.88258e-05
6.81617e-05
6.72929e-05
6.61643e-05
6.47091e-05
6.28445e-05
6.04659e-05
5.7438e-05
5.37474e-05
4.92613e-05
4.77145e-05
1.8303e-07
6.98596e-10
6.98062e-10
1.82905e-07
4.76995e-05
4.92563e-05
5.37429e-05
5.74336e-05
6.04618e-05
6.2841e-05
6.47062e-05
6.61621e-05
6.72912e-05
6.81605e-05
6.88249e-05
6.93297e-05
6.97115e-05
6.99994e-05
7.02163e-05
7.03795e-05
7.05024e-05
7.05948e-05
7.06641e-05
7.07157e-05
7.07541e-05
7.07822e-05
7.08027e-05
7.08175e-05
7.0828e-05
7.08354e-05
7.08405e-05
7.0844e-05
7.08463e-05
7.08478e-05
7.08488e-05
7.08494e-05
7.08497e-05
7.08497e-05
7.08494e-05
7.08488e-05
7.08478e-05
7.08463e-05
7.08439e-05
7.08404e-05
7.08353e-05
7.08279e-05
7.08174e-05
7.08027e-05
7.07821e-05
7.07539e-05
7.07156e-05
7.06639e-05
7.05946e-05
7.05022e-05
7.03794e-05
7.02162e-05
6.99995e-05
6.97117e-05
6.93302e-05
6.88258e-05
6.81617e-05
6.72929e-05
6.61643e-05
6.47091e-05
6.28445e-05
6.04659e-05
5.7438e-05
5.37474e-05
4.92613e-05
4.77145e-05
1.8303e-07
6.98596e-10
6.98062e-10
1.82905e-07
4.76995e-05
4.92563e-05
5.37429e-05
5.74336e-05
6.04618e-05
6.2841e-05
6.47062e-05
6.61621e-05
6.72912e-05
6.81605e-05
6.88249e-05
6.93297e-05
6.97115e-05
6.99994e-05
7.02163e-05
7.03795e-05
7.05024e-05
7.05948e-05
7.06641e-05
7.07157e-05
7.07541e-05
7.07822e-05
7.08027e-05
7.08175e-05
7.0828e-05
7.08354e-05
7.08405e-05
7.0844e-05
7.08463e-05
7.08478e-05
7.08488e-05
7.08494e-05
7.08497e-05
7.08497e-05
7.08494e-05
7.08488e-05
7.08478e-05
7.08463e-05
7.08439e-05
7.08404e-05
7.08353e-05
7.08279e-05
7.08174e-05
7.08027e-05
7.07821e-05
7.07539e-05
7.07156e-05
7.06639e-05
7.05946e-05
7.05022e-05
7.03794e-05
7.02162e-05
6.99995e-05
6.97117e-05
6.93302e-05
6.88258e-05
6.81617e-05
6.72929e-05
6.61643e-05
6.47091e-05
6.28445e-05
6.04659e-05
5.7438e-05
5.37474e-05
4.92613e-05
4.77145e-05
1.8303e-07
6.98596e-10
6.98062e-10
1.82905e-07
4.76995e-05
4.92563e-05
5.37429e-05
5.74336e-05
6.04618e-05
6.2841e-05
6.47062e-05
6.61621e-05
6.72912e-05
6.81605e-05
6.88249e-05
6.93297e-05
6.97115e-05
6.99994e-05
7.02163e-05
7.03795e-05
7.05024e-05
7.05948e-05
7.06641e-05
7.07157e-05
7.07541e-05
7.07822e-05
7.08027e-05
7.08175e-05
7.0828e-05
7.08354e-05
7.08405e-05
7.0844e-05
7.08463e-05
7.08478e-05
7.08488e-05
7.08494e-05
7.08497e-05
7.08497e-05
7.08494e-05
7.08488e-05
7.08478e-05
7.08463e-05
7.08439e-05
7.08404e-05
7.08353e-05
7.08279e-05
7.08174e-05
7.08027e-05
7.07821e-05
7.07539e-05
7.07156e-05
7.06639e-05
7.05946e-05
7.05022e-05
7.03794e-05
7.02162e-05
6.99995e-05
6.97117e-05
6.93302e-05
6.88258e-05
6.81617e-05
6.72929e-05
6.61643e-05
6.47091e-05
6.28445e-05
6.04659e-05
5.7438e-05
5.37474e-05
4.92613e-05
4.77145e-05
1.8303e-07
6.98596e-10
6.98062e-10
1.82905e-07
4.76995e-05
4.92563e-05
5.37429e-05
5.74336e-05
6.04618e-05
6.2841e-05
6.47062e-05
6.61621e-05
6.72912e-05
6.81605e-05
6.88249e-05
6.93297e-05
6.97115e-05
6.99994e-05
7.02163e-05
7.03795e-05
7.05024e-05
7.05948e-05
7.06641e-05
7.07157e-05
7.07541e-05
7.07822e-05
7.08027e-05
7.08175e-05
7.0828e-05
7.08354e-05
7.08405e-05
7.0844e-05
7.08463e-05
7.08478e-05
7.08488e-05
7.08494e-05
7.08497e-05
7.08497e-05
7.08494e-05
7.08488e-05
7.08478e-05
7.08463e-05
7.08439e-05
7.08404e-05
7.08353e-05
7.08279e-05
7.08174e-05
7.08027e-05
7.07821e-05
7.07539e-05
7.07156e-05
7.06639e-05
7.05946e-05
7.05022e-05
7.03794e-05
7.02162e-05
6.99995e-05
6.97117e-05
6.93302e-05
6.88258e-05
6.81617e-05
6.72929e-05
6.61643e-05
6.47091e-05
6.28445e-05
6.04659e-05
5.7438e-05
5.37474e-05
4.92613e-05
4.77145e-05
1.8303e-07
6.98596e-10
6.98062e-10
1.82905e-07
4.76995e-05
4.92563e-05
5.37429e-05
5.74336e-05
6.04618e-05
6.2841e-05
6.47062e-05
6.61621e-05
6.72912e-05
6.81605e-05
6.88249e-05
6.93297e-05
6.97115e-05
6.99994e-05
7.02163e-05
7.03795e-05
7.05024e-05
7.05948e-05
7.06641e-05
7.07157e-05
7.07541e-05
7.07822e-05
7.08027e-05
7.08175e-05
7.0828e-05
7.08354e-05
7.08405e-05
7.0844e-05
7.08463e-05
7.08478e-05
7.08488e-05
7.08494e-05
7.08497e-05
7.08497e-05
7.08494e-05
7.08488e-05
7.08478e-05
7.08463e-05
7.08439e-05
7.08404e-05
7.08353e-05
7.08279e-05
7.08174e-05
7.08027e-05
7.07821e-05
7.07539e-05
7.07156e-05
7.06639e-05
7.05946e-05
7.05022e-05
7.03794e-05
7.02162e-05
6.99995e-05
6.97117e-05
6.93302e-05
6.88258e-05
6.81617e-05
6.72929e-05
6.61643e-05
6.47091e-05
6.28445e-05
6.04659e-05
5.7438e-05
5.37474e-05
4.92613e-05
4.77145e-05
1.8303e-07
6.98596e-10
6.98062e-10
1.82905e-07
4.76995e-05
4.92563e-05
5.37429e-05
5.74336e-05
6.04618e-05
6.2841e-05
6.47062e-05
6.61621e-05
6.72912e-05
6.81605e-05
6.88249e-05
6.93297e-05
6.97115e-05
6.99994e-05
7.02163e-05
7.03795e-05
7.05024e-05
7.05948e-05
7.06641e-05
7.07157e-05
7.07541e-05
7.07822e-05
7.08027e-05
7.08175e-05
7.0828e-05
7.08354e-05
7.08405e-05
7.0844e-05
7.08463e-05
7.08478e-05
7.08488e-05
7.08494e-05
7.08497e-05
7.08497e-05
7.08494e-05
7.08488e-05
7.08478e-05
7.08463e-05
7.08439e-05
7.08404e-05
7.08353e-05
7.08279e-05
7.08174e-05
7.08027e-05
7.07821e-05
7.07539e-05
7.07156e-05
7.06639e-05
7.05946e-05
7.05022e-05
7.03794e-05
7.02162e-05
6.99995e-05
6.97117e-05
6.93302e-05
6.88258e-05
6.81617e-05
6.72929e-05
6.61643e-05
6.47091e-05
6.28445e-05
6.04659e-05
5.7438e-05
5.37474e-05
4.92613e-05
4.77145e-05
1.8303e-07
6.98596e-10
6.98062e-10
1.82905e-07
4.76995e-05
4.92563e-05
5.37429e-05
5.74336e-05
6.04618e-05
6.2841e-05
6.47062e-05
6.61621e-05
6.72912e-05
6.81605e-05
6.88249e-05
6.93297e-05
6.97115e-05
6.99994e-05
7.02163e-05
7.03795e-05
7.05024e-05
7.05948e-05
7.06641e-05
7.07157e-05
7.07541e-05
7.07822e-05
7.08027e-05
7.08175e-05
7.0828e-05
7.08354e-05
7.08405e-05
7.0844e-05
7.08463e-05
7.08478e-05
7.08488e-05
7.08494e-05
7.08497e-05
7.08497e-05
7.08494e-05
7.08488e-05
7.08478e-05
7.08463e-05
7.08439e-05
7.08404e-05
7.08353e-05
7.08279e-05
7.08174e-05
7.08027e-05
7.07821e-05
7.07539e-05
7.07156e-05
7.06639e-05
7.05946e-05
7.05022e-05
7.03794e-05
7.02162e-05
6.99995e-05
6.97117e-05
6.93302e-05
6.88258e-05
6.81617e-05
6.72929e-05
6.61643e-05
6.47091e-05
6.28445e-05
6.04659e-05
5.7438e-05
5.37474e-05
4.92613e-05
4.77145e-05
1.8303e-07
6.98596e-10
6.98062e-10
1.82905e-07
4.76995e-05
4.92563e-05
5.37429e-05
5.74336e-05
6.04618e-05
6.2841e-05
6.47062e-05
6.61621e-05
6.72912e-05
6.81605e-05
6.88249e-05
6.93297e-05
6.97115e-05
6.99994e-05
7.02163e-05
7.03795e-05
7.05024e-05
7.05948e-05
7.06641e-05
7.07157e-05
7.07541e-05
7.07822e-05
7.08027e-05
7.08175e-05
7.0828e-05
7.08354e-05
7.08405e-05
7.0844e-05
7.08463e-05
7.08478e-05
7.08488e-05
7.08494e-05
7.08497e-05
7.08497e-05
7.08494e-05
7.08488e-05
7.08478e-05
7.08463e-05
7.08439e-05
7.08404e-05
7.08353e-05
7.08279e-05
7.08174e-05
7.08027e-05
7.07821e-05
7.07539e-05
7.07156e-05
7.06639e-05
7.05946e-05
7.05022e-05
7.03794e-05
7.02162e-05
6.99995e-05
6.97117e-05
6.93302e-05
6.88258e-05
6.81617e-05
6.72929e-05
6.61643e-05
6.47091e-05
6.28445e-05
6.04659e-05
5.7438e-05
5.37474e-05
4.92613e-05
4.77145e-05
1.8303e-07
6.98596e-10
6.98062e-10
1.82905e-07
4.76995e-05
4.92563e-05
5.37429e-05
5.74336e-05
6.04618e-05
6.2841e-05
6.47062e-05
6.61621e-05
6.72912e-05
6.81605e-05
6.88249e-05
6.93297e-05
6.97115e-05
6.99994e-05
7.02163e-05
7.03795e-05
7.05024e-05
7.05948e-05
7.06641e-05
7.07157e-05
7.07541e-05
7.07822e-05
7.08027e-05
7.08175e-05
7.0828e-05
7.08354e-05
7.08405e-05
7.0844e-05
7.08463e-05
7.08478e-05
7.08488e-05
7.08494e-05
7.08497e-05
7.08497e-05
7.08494e-05
7.08488e-05
7.08478e-05
7.08463e-05
7.08439e-05
7.08404e-05
7.08353e-05
7.08279e-05
7.08174e-05
7.08027e-05
7.07821e-05
7.07539e-05
7.07156e-05
7.06639e-05
7.05946e-05
7.05022e-05
7.03794e-05
7.02162e-05
6.99995e-05
6.97117e-05
6.93302e-05
6.88258e-05
6.81617e-05
6.72929e-05
6.61643e-05
6.47091e-05
6.28445e-05
6.04659e-05
5.7438e-05
5.37474e-05
4.92613e-05
4.77145e-05
1.8303e-07
6.98596e-10
6.98062e-10
1.82905e-07
4.76995e-05
4.92563e-05
5.37429e-05
5.74336e-05
6.04618e-05
6.2841e-05
6.47062e-05
6.61621e-05
6.72912e-05
6.81605e-05
6.88249e-05
6.93297e-05
6.97115e-05
6.99994e-05
7.02163e-05
7.03795e-05
7.05024e-05
7.05948e-05
7.06641e-05
7.07157e-05
7.07541e-05
7.07822e-05
7.08027e-05
7.08175e-05
7.0828e-05
7.08354e-05
7.08405e-05
7.0844e-05
7.08463e-05
7.08478e-05
7.08488e-05
7.08494e-05
7.08497e-05
7.08497e-05
7.08494e-05
7.08488e-05
7.08478e-05
7.08463e-05
7.08439e-05
7.08404e-05
7.08353e-05
7.08279e-05
7.08174e-05
7.08027e-05
7.07821e-05
7.07539e-05
7.07156e-05
7.06639e-05
7.05946e-05
7.05022e-05
7.03794e-05
7.02162e-05
6.99995e-05
6.97117e-05
6.93302e-05
6.88258e-05
6.81617e-05
6.72929e-05
6.61643e-05
6.47091e-05
6.28445e-05
6.04659e-05
5.7438e-05
5.37474e-05
4.92613e-05
4.77145e-05
1.8303e-07
6.98596e-10
6.98062e-10
1.82905e-07
4.76995e-05
4.92563e-05
5.37429e-05
5.74336e-05
6.04618e-05
6.2841e-05
6.47062e-05
6.61621e-05
6.72912e-05
6.81605e-05
6.88249e-05
6.93297e-05
6.97115e-05
6.99994e-05
7.02163e-05
7.03795e-05
7.05024e-05
7.05948e-05
7.06641e-05
7.07157e-05
7.07541e-05
7.07822e-05
7.08027e-05
7.08175e-05
7.0828e-05
7.08354e-05
7.08405e-05
7.0844e-05
7.08463e-05
7.08478e-05
7.08488e-05
7.08494e-05
7.08497e-05
7.08497e-05
7.08494e-05
7.08488e-05
7.08478e-05
7.08463e-05
7.08439e-05
7.08404e-05
7.08353e-05
7.08279e-05
7.08174e-05
7.08027e-05
7.07821e-05
7.07539e-05
7.07156e-05
7.06639e-05
7.05946e-05
7.05022e-05
7.03794e-05
7.02162e-05
6.99995e-05
6.97117e-05
6.93302e-05
6.88258e-05
6.81617e-05
6.72929e-05
6.61643e-05
6.47091e-05
6.28445e-05
6.04659e-05
5.7438e-05
5.37474e-05
4.92613e-05
4.77145e-05
1.8303e-07
6.98596e-10
6.98062e-10
1.82905e-07
4.76995e-05
4.92563e-05
5.37429e-05
5.74336e-05
6.04618e-05
6.2841e-05
6.47062e-05
6.61621e-05
6.72912e-05
6.81605e-05
6.88249e-05
6.93297e-05
6.97115e-05
6.99994e-05
7.02163e-05
7.03795e-05
7.05024e-05
7.05948e-05
7.06641e-05
7.07157e-05
7.07541e-05
7.07822e-05
7.08027e-05
7.08175e-05
7.0828e-05
7.08354e-05
7.08405e-05
7.0844e-05
7.08463e-05
7.08478e-05
7.08488e-05
7.08494e-05
7.08497e-05
7.08497e-05
7.08494e-05
7.08488e-05
7.08478e-05
7.08463e-05
7.08439e-05
7.08404e-05
7.08353e-05
7.08279e-05
7.08174e-05
7.08027e-05
7.07821e-05
7.07539e-05
7.07156e-05
7.06639e-05
7.05946e-05
7.05022e-05
7.03794e-05
7.02162e-05
6.99995e-05
6.97117e-05
6.93302e-05
6.88258e-05
6.81617e-05
6.72929e-05
6.61643e-05
6.47091e-05
6.28445e-05
6.04659e-05
5.7438e-05
5.37474e-05
4.92613e-05
4.77145e-05
1.8303e-07
6.98596e-10
6.98062e-10
1.82905e-07
4.76995e-05
4.92563e-05
5.37429e-05
5.74336e-05
6.04618e-05
6.2841e-05
6.47062e-05
6.61621e-05
6.72912e-05
6.81605e-05
6.88249e-05
6.93297e-05
6.97115e-05
6.99994e-05
7.02163e-05
7.03795e-05
7.05024e-05
7.05948e-05
7.06641e-05
7.07157e-05
7.07541e-05
7.07822e-05
7.08027e-05
7.08175e-05
7.0828e-05
7.08354e-05
7.08405e-05
7.0844e-05
7.08463e-05
7.08478e-05
7.08488e-05
7.08494e-05
7.08497e-05
7.08497e-05
7.08494e-05
7.08488e-05
7.08478e-05
7.08463e-05
7.08439e-05
7.08404e-05
7.08353e-05
7.08279e-05
7.08174e-05
7.08027e-05
7.07821e-05
7.07539e-05
7.07156e-05
7.06639e-05
7.05946e-05
7.05022e-05
7.03794e-05
7.02162e-05
6.99995e-05
6.97117e-05
6.93302e-05
6.88258e-05
6.81617e-05
6.72929e-05
6.61643e-05
6.47091e-05
6.28445e-05
6.04659e-05
5.7438e-05
5.37474e-05
4.92613e-05
4.77145e-05
1.8303e-07
6.98596e-10
6.98062e-10
1.82905e-07
4.76995e-05
4.92563e-05
5.37429e-05
5.74336e-05
6.04618e-05
6.2841e-05
6.47062e-05
6.61621e-05
6.72912e-05
6.81605e-05
6.88249e-05
6.93297e-05
6.97115e-05
6.99994e-05
7.02163e-05
7.03795e-05
7.05024e-05
7.05948e-05
7.06641e-05
7.07157e-05
7.07541e-05
7.07822e-05
7.08027e-05
7.08175e-05
7.0828e-05
7.08354e-05
7.08405e-05
7.0844e-05
7.08463e-05
7.08478e-05
7.08488e-05
7.08494e-05
7.08497e-05
7.08497e-05
7.08494e-05
7.08488e-05
7.08478e-05
7.08463e-05
7.08439e-05
7.08404e-05
7.08353e-05
7.08279e-05
7.08174e-05
7.08027e-05
7.07821e-05
7.07539e-05
7.07156e-05
7.06639e-05
7.05946e-05
7.05022e-05
7.03794e-05
7.02162e-05
6.99995e-05
6.97117e-05
6.93302e-05
6.88258e-05
6.81617e-05
6.72929e-05
6.61643e-05
6.47091e-05
6.28445e-05
6.04659e-05
5.7438e-05
5.37474e-05
4.92613e-05
4.77145e-05
1.8303e-07
6.98596e-10
6.98062e-10
1.82905e-07
4.76995e-05
4.92563e-05
5.37429e-05
5.74336e-05
6.04618e-05
6.2841e-05
6.47062e-05
6.61621e-05
6.72912e-05
6.81605e-05
6.88249e-05
6.93297e-05
6.97115e-05
6.99994e-05
7.02163e-05
7.03795e-05
7.05024e-05
7.05948e-05
7.06641e-05
7.07157e-05
7.07541e-05
7.07822e-05
7.08027e-05
7.08175e-05
7.0828e-05
7.08354e-05
7.08405e-05
7.0844e-05
7.08463e-05
7.08478e-05
7.08488e-05
7.08494e-05
7.08497e-05
7.08497e-05
7.08494e-05
7.08488e-05
7.08478e-05
7.08463e-05
7.08439e-05
7.08404e-05
7.08353e-05
7.08279e-05
7.08174e-05
7.08027e-05
7.07821e-05
7.07539e-05
7.07156e-05
7.06639e-05
7.05946e-05
7.05022e-05
7.03794e-05
7.02162e-05
6.99995e-05
6.97117e-05
6.93302e-05
6.88258e-05
6.81617e-05
6.72929e-05
6.61643e-05
6.47091e-05
6.28445e-05
6.04659e-05
5.7438e-05
5.37474e-05
4.92613e-05
4.77145e-05
1.8303e-07
6.98596e-10
6.98062e-10
1.82905e-07
4.76995e-05
4.92563e-05
5.37429e-05
5.74336e-05
6.04618e-05
6.2841e-05
6.47062e-05
6.61621e-05
6.72912e-05
6.81605e-05
6.88249e-05
6.93297e-05
6.97115e-05
6.99994e-05
7.02163e-05
7.03795e-05
7.05024e-05
7.05948e-05
7.06641e-05
7.07157e-05
7.07541e-05
7.07822e-05
7.08027e-05
7.08175e-05
7.0828e-05
7.08354e-05
7.08405e-05
7.0844e-05
7.08463e-05
7.08478e-05
7.08488e-05
7.08494e-05
7.08497e-05
7.08497e-05
7.08494e-05
7.08488e-05
7.08478e-05
7.08463e-05
7.08439e-05
7.08404e-05
7.08353e-05
7.08279e-05
7.08174e-05
7.08027e-05
7.07821e-05
7.07539e-05
7.07156e-05
7.06639e-05
7.05946e-05
7.05022e-05
7.03794e-05
7.02162e-05
6.99995e-05
6.97117e-05
6.93302e-05
6.88258e-05
6.81617e-05
6.72929e-05
6.61643e-05
6.47091e-05
6.28445e-05
6.04659e-05
5.7438e-05
5.37474e-05
4.92613e-05
4.77145e-05
1.8303e-07
6.98596e-10
6.98062e-10
1.82905e-07
4.76995e-05
4.92563e-05
5.37429e-05
5.74336e-05
6.04618e-05
6.2841e-05
6.47062e-05
6.61621e-05
6.72912e-05
6.81605e-05
6.88249e-05
6.93297e-05
6.97115e-05
6.99994e-05
7.02163e-05
7.03795e-05
7.05024e-05
7.05948e-05
7.06641e-05
7.07157e-05
7.07541e-05
7.07822e-05
7.08027e-05
7.08175e-05
7.0828e-05
7.08354e-05
7.08405e-05
7.0844e-05
7.08463e-05
7.08478e-05
7.08488e-05
7.08494e-05
7.08497e-05
7.08497e-05
7.08494e-05
7.08488e-05
7.08478e-05
7.08463e-05
7.08439e-05
7.08404e-05
7.08353e-05
7.08279e-05
7.08174e-05
7.08027e-05
7.07821e-05
7.07539e-05
7.07156e-05
7.06639e-05
7.05946e-05
7.05022e-05
7.03794e-05
7.02162e-05
6.99995e-05
6.97117e-05
6.93302e-05
6.88258e-05
6.81617e-05
6.72929e-05
6.61643e-05
6.47091e-05
6.28445e-05
6.04659e-05
5.7438e-05
5.37474e-05
4.92613e-05
4.77145e-05
1.8303e-07
6.98596e-10
6.98062e-10
1.82905e-07
4.76995e-05
4.92563e-05
5.37429e-05
5.74336e-05
6.04618e-05
6.2841e-05
6.47062e-05
6.61621e-05
6.72912e-05
6.81605e-05
6.88249e-05
6.93297e-05
6.97115e-05
6.99994e-05
7.02163e-05
7.03795e-05
7.05024e-05
7.05948e-05
7.06641e-05
7.07157e-05
7.07541e-05
7.07822e-05
7.08027e-05
7.08175e-05
7.0828e-05
7.08354e-05
7.08405e-05
7.0844e-05
7.08463e-05
7.08478e-05
7.08488e-05
7.08494e-05
7.08497e-05
7.08497e-05
7.08494e-05
7.08488e-05
7.08478e-05
7.08463e-05
7.08439e-05
7.08404e-05
7.08353e-05
7.08279e-05
7.08174e-05
7.08027e-05
7.07821e-05
7.07539e-05
7.07156e-05
7.06639e-05
7.05946e-05
7.05022e-05
7.03794e-05
7.02162e-05
6.99995e-05
6.97117e-05
6.93302e-05
6.88258e-05
6.81617e-05
6.72929e-05
6.61643e-05
6.47091e-05
6.28445e-05
6.04659e-05
5.7438e-05
5.37474e-05
4.92613e-05
4.77145e-05
1.8303e-07
6.98596e-10
6.98062e-10
1.82905e-07
4.76995e-05
4.92563e-05
5.37429e-05
5.74336e-05
6.04618e-05
6.2841e-05
6.47062e-05
6.61621e-05
6.72912e-05
6.81605e-05
6.88249e-05
6.93297e-05
6.97115e-05
6.99994e-05
7.02163e-05
7.03795e-05
7.05024e-05
7.05948e-05
7.06641e-05
7.07157e-05
7.07541e-05
7.07822e-05
7.08027e-05
7.08175e-05
7.0828e-05
7.08354e-05
7.08405e-05
7.0844e-05
7.08463e-05
7.08478e-05
7.08488e-05
7.08494e-05
7.08497e-05
7.08497e-05
7.08494e-05
7.08488e-05
7.08478e-05
7.08463e-05
7.08439e-05
7.08404e-05
7.08353e-05
7.08279e-05
7.08174e-05
7.08027e-05
7.07821e-05
7.07539e-05
7.07156e-05
7.06639e-05
7.05946e-05
7.05022e-05
7.03794e-05
7.02162e-05
6.99995e-05
6.97117e-05
6.93302e-05
6.88258e-05
6.81617e-05
6.72929e-05
6.61643e-05
6.47091e-05
6.28445e-05
6.04659e-05
5.7438e-05
5.37474e-05
4.92613e-05
4.77145e-05
1.8303e-07
6.98596e-10
6.98062e-10
1.82905e-07
4.76995e-05
4.92563e-05
5.37429e-05
5.74336e-05
6.04618e-05
6.2841e-05
6.47062e-05
6.61621e-05
6.72912e-05
6.81605e-05
6.88249e-05
6.93297e-05
6.97115e-05
6.99994e-05
7.02163e-05
7.03795e-05
7.05024e-05
7.05948e-05
7.06641e-05
7.07157e-05
7.07541e-05
7.07822e-05
7.08027e-05
7.08175e-05
7.0828e-05
7.08354e-05
7.08405e-05
7.0844e-05
7.08463e-05
7.08478e-05
7.08488e-05
7.08494e-05
7.08497e-05
7.08497e-05
7.08494e-05
7.08488e-05
7.08478e-05
7.08463e-05
7.08439e-05
7.08404e-05
7.08353e-05
7.08279e-05
7.08174e-05
7.08027e-05
7.07821e-05
7.07539e-05
7.07156e-05
7.06639e-05
7.05946e-05
7.05022e-05
7.03794e-05
7.02162e-05
6.99995e-05
6.97117e-05
6.93302e-05
6.88258e-05
6.81617e-05
6.72929e-05
6.61643e-05
6.47091e-05
6.28445e-05
6.04659e-05
5.7438e-05
5.37474e-05
4.92613e-05
4.77145e-05
1.8303e-07
6.98596e-10
6.98062e-10
1.82905e-07
4.76995e-05
4.92563e-05
5.37429e-05
5.74336e-05
6.04618e-05
6.2841e-05
6.47062e-05
6.61621e-05
6.72912e-05
6.81605e-05
6.88249e-05
6.93297e-05
6.97115e-05
6.99994e-05
7.02163e-05
7.03795e-05
7.05024e-05
7.05948e-05
7.06641e-05
7.07157e-05
7.07541e-05
7.07822e-05
7.08027e-05
7.08175e-05
7.0828e-05
7.08354e-05
7.08405e-05
7.0844e-05
7.08463e-05
7.08478e-05
7.08488e-05
7.08494e-05
7.08497e-05
7.08497e-05
7.08494e-05
7.08488e-05
7.08478e-05
7.08463e-05
7.08439e-05
7.08404e-05
7.08353e-05
7.08279e-05
7.08174e-05
7.08027e-05
7.07821e-05
7.07539e-05
7.07156e-05
7.06639e-05
7.05946e-05
7.05022e-05
7.03794e-05
7.02162e-05
6.99995e-05
6.97117e-05
6.93302e-05
6.88258e-05
6.81617e-05
6.72929e-05
6.61643e-05
6.47091e-05
6.28445e-05
6.04659e-05
5.7438e-05
5.37474e-05
4.92613e-05
4.77145e-05
1.8303e-07
6.98596e-10
6.98062e-10
1.82905e-07
4.76995e-05
4.92563e-05
5.37429e-05
5.74336e-05
6.04618e-05
6.2841e-05
6.47062e-05
6.61621e-05
6.72912e-05
6.81605e-05
6.88249e-05
6.93297e-05
6.97115e-05
6.99994e-05
7.02163e-05
7.03795e-05
7.05024e-05
7.05948e-05
7.06641e-05
7.07157e-05
7.07541e-05
7.07822e-05
7.08027e-05
7.08175e-05
7.0828e-05
7.08354e-05
7.08405e-05
7.0844e-05
7.08463e-05
7.08478e-05
7.08488e-05
7.08494e-05
7.08497e-05
7.08497e-05
7.08494e-05
7.08488e-05
7.08478e-05
7.08463e-05
7.08439e-05
7.08404e-05
7.08353e-05
7.08279e-05
7.08174e-05
7.08027e-05
7.07821e-05
7.07539e-05
7.07156e-05
7.06639e-05
7.05946e-05
7.05022e-05
7.03794e-05
7.02162e-05
6.99995e-05
6.97117e-05
6.93302e-05
6.88258e-05
6.81617e-05
6.72929e-05
6.61643e-05
6.47091e-05
6.28445e-05
6.04659e-05
5.7438e-05
5.37474e-05
4.92613e-05
4.77145e-05
1.8303e-07
6.98596e-10
6.98062e-10
1.82905e-07
4.76995e-05
4.92563e-05
5.37429e-05
5.74336e-05
6.04618e-05
6.2841e-05
6.47062e-05
6.61621e-05