/*--------------------------------*- C++ -*----------------------------------*\
  =========                 |
  \\      /  F ield         | OpenFOAM: The Open Source CFD Toolbox
   \\    /   O peration     | Website:  https://openfoam.org
    \\  /    A nd           | Version:  13
     \\/     M anipulation  |
\*---------------------------------------------------------------------------*/
FoamFile
{
    format      ascii;
    class       volScalarField;
    location    "44";
    object      nut;
}
// * * * * * * * * * * * * * * * * * * * * * * * * * * * * * * * * * * * * * //

dimensions      [0 2 -1 0 0 0 0];

internalField   nonuniform List<scalar> 
78750
(
3.27176e-19
2.94458e-18
1.46562e-17
1.46562e-17
1.46562e-17
1.46562e-17
1.46562e-17
1.46562e-17
1.46562e-17
1.46562e-17
1.46562e-17
1.46562e-17
1.46562e-17
1.46562e-17
1.46562e-17
1.46562e-17
1.46562e-17
1.46562e-17
1.46562e-17
1.46562e-17
1.46562e-17
1.46562e-17
1.46562e-17
1.46562e-17
1.46562e-17
1.46562e-17
1.46562e-17
1.46562e-17
1.46562e-17
1.46562e-17
1.46562e-17
1.46562e-17
1.46562e-17
2.94458e-18
3.27176e-19
3.27176e-19
2.94458e-18
8.33901e-17
8.33901e-17
8.33901e-17
8.33901e-17
8.33901e-17
8.33901e-17
8.86173e-17
9.77087e-17
1.0769e-16
1.17785e-16
1.27378e-16
1.35966e-16
1.43132e-16
1.48543e-16
1.51957e-16
1.53219e-16
1.52272e-16
1.49159e-16
1.44017e-16
1.37076e-16
1.28657e-16
1.19165e-16
1.09093e-16
9.90441e-17
8.9777e-17
8.33901e-17
8.33901e-17
8.33901e-17
8.33901e-17
8.33901e-17
8.33901e-17
2.94458e-18
3.27176e-19
3.27176e-19
2.94458e-18
8.33901e-17
8.33901e-17
9.95746e-17
1.24211e-16
1.52909e-16
1.85079e-16
2.19928e-16
2.56428e-16
2.9336e-16
3.29367e-16
3.63032e-16
3.92959e-16
4.17861e-16
4.36633e-16
4.48427e-16
4.52703e-16
4.49263e-16
4.38261e-16
4.20198e-16
3.95889e-16
3.66409e-16
3.33032e-16
2.97148e-16
2.6018e-16
2.23501e-16
1.88362e-16
1.55795e-16
1.26584e-16
1.01303e-16
8.33901e-17
8.33901e-17
2.94458e-18
3.27176e-19
3.27176e-19
2.94458e-18
8.33901e-17
1.19293e-16
1.66905e-16
2.20871e-16
2.81214e-16
3.47427e-16
4.18399e-16
4.92422e-16
5.67271e-16
6.40334e-16
7.08781e-16
7.69757e-16
8.20579e-16
8.58925e-16
8.82992e-16
8.91632e-16
8.84426e-16
8.61715e-16
8.2458e-16
7.74762e-16
7.14538e-16
6.46567e-16
5.73696e-16
4.98767e-16
4.24419e-16
3.52919e-16
2.86022e-16
2.24883e-16
1.70039e-16
1.2146e-16
8.33901e-17
2.94458e-18
3.27176e-19
3.27176e-19
2.94458e-18
1.04452e-16
1.72183e-16
2.47756e-16
3.32341e-16
4.2632e-16
5.29126e-16
6.39184e-16
7.53952e-16
8.70043e-16
9.83437e-16
1.08975e-15
1.18452e-15
1.26355e-15
1.32318e-15
1.36058e-15
1.37392e-15
1.36256e-15
1.32703e-15
1.26907e-15
1.19141e-15
1.09767e-15
9.92006e-16
8.78863e-16
7.62647e-16
6.47417e-16
5.36615e-16
4.32851e-16
3.37767e-16
2.5199e-16
1.75188e-16
1.06207e-16
2.94458e-18
3.27176e-19
3.27176e-19
2.94458e-18
1.31913e-16
2.2463e-16
3.2724e-16
4.41502e-16
5.68068e-16
7.06284e-16
8.54116e-16
1.00821e-15
1.16406e-15
1.3163e-15
1.45906e-15
1.58635e-15
1.6925e-15
1.7726e-15
1.82279e-15
1.84063e-15
1.82523e-15
1.77734e-15
1.6993e-15
1.59484e-15
1.46882e-15
1.32685e-15
1.17491e-15
1.0189e-15
8.64227e-16
7.15469e-16
5.7606e-16
4.4812e-16
3.32379e-16
2.28245e-16
1.33988e-16
2.94458e-18
3.27176e-19
3.27176e-19
2.94458e-18
1.56843e-16
2.72215e-16
3.99307e-16
5.4041e-16
6.96414e-16
8.66583e-16
1.04847e-15
1.23799e-15
1.42964e-15
1.61685e-15
1.79239e-15
1.94891e-15
2.07945e-15
2.17792e-15
2.23959e-15
2.26145e-15
2.2424e-15
2.18339e-15
2.08729e-15
1.95871e-15
1.80365e-15
1.62901e-15
1.44216e-15
1.25031e-15
1.06012e-15
8.77154e-16
7.05599e-16
5.47999e-16
4.05181e-16
2.76323e-16
1.59171e-16
2.94458e-18
3.27176e-19
3.27176e-19
2.94458e-18
1.78243e-16
3.13051e-16
4.61137e-16
6.25241e-16
8.06458e-16
1.00398e-15
1.21501e-15
1.43484e-15
1.65711e-15
1.8742e-15
2.07777e-15
2.25928e-15
2.41063e-15
2.52479e-15
2.59626e-15
2.62153e-15
2.59936e-15
2.53084e-15
2.4193e-15
2.27011e-15
2.09021e-15
1.88765e-15
1.67093e-15
1.44845e-15
1.22787e-15
1.01564e-15
8.16579e-16
6.3359e-16
4.67583e-16
3.1754e-16
1.80762e-16
2.94458e-18
3.27176e-19
3.27176e-19
2.94458e-18
1.95734e-16
3.46425e-16
5.1166e-16
6.94544e-16
8.96344e-16
1.11619e-15
1.351e-15
1.59556e-15
1.84281e-15
2.08429e-15
2.31071e-15
2.51259e-15
2.68091e-15
2.80784e-15
2.88728e-15
2.91534e-15
2.89061e-15
2.81432e-15
2.69019e-15
2.52418e-15
2.32404e-15
2.09869e-15
1.85761e-15
1.61013e-15
1.36477e-15
1.12867e-15
9.07164e-16
7.03459e-16
5.18529e-16
3.51193e-16
1.98392e-16
2.94458e-18
3.27176e-19
3.27176e-19
2.94458e-18
2.09366e-16
3.72431e-16
5.51023e-16
7.48534e-16
9.66359e-16
1.20359e-15
1.45691e-15
1.72072e-15
1.98741e-15
2.24787e-15
2.49208e-15
2.7098e-15
2.89133e-15
3.0282e-15
3.11383e-15
3.14404e-15
3.11732e-15
3.03498e-15
2.90104e-15
2.72195e-15
2.50604e-15
2.26295e-15
2.00292e-15
1.73598e-15
1.47132e-15
1.21664e-15
9.77674e-16
7.57848e-16
5.58189e-16
3.77394e-16
2.12119e-16
2.94458e-18
3.27176e-19
3.27176e-19
2.94458e-18
2.19493e-16
3.9175e-16
5.80262e-16
7.88632e-16
1.01835e-15
1.26849e-15
1.53555e-15
1.81365e-15
2.09478e-15
2.36933e-15
2.62674e-15
2.85622e-15
3.04753e-15
3.19177e-15
3.28201e-15
3.31381e-15
3.2856e-15
3.19876e-15
3.05754e-15
2.86873e-15
2.64111e-15
2.38486e-15
2.11075e-15
1.82937e-15
1.55039e-15
1.28193e-15
1.03e-15
7.98212e-16
5.87625e-16
3.9684e-16
2.22306e-16
2.94458e-18
3.27176e-19
3.27176e-19
2.94458e-18
2.26665e-16
4.05428e-16
6.00962e-16
8.17018e-16
1.05516e-15
1.31443e-15
1.59122e-15
1.87943e-15
2.17077e-15
2.45529e-15
2.72204e-15
2.95984e-15
3.15808e-15
3.30753e-15
3.40101e-15
3.43394e-15
3.40467e-15
3.31465e-15
3.16828e-15
2.97258e-15
2.73668e-15
2.47111e-15
2.18704e-15
1.89544e-15
1.60633e-15
1.32811e-15
1.06701e-15
8.26762e-16
6.08445e-16
4.10595e-16
2.29512e-16
2.94458e-18
3.27176e-19
3.27176e-19
2.94458e-18
2.31505e-16
4.14661e-16
6.14932e-16
8.36174e-16
1.08e-15
1.34542e-15
1.62878e-15
1.92381e-15
2.22205e-15
2.51329e-15
2.78634e-15
3.02975e-15
3.23267e-15
3.38564e-15
3.4813e-15
3.51498e-15
3.485e-15
3.39283e-15
3.24297e-15
3.04263e-15
2.80114e-15
2.52928e-15
2.23849e-15
1.93999e-15
1.64405e-15
1.35925e-15
1.09197e-15
8.46016e-16
6.22487e-16
4.19873e-16
2.34373e-16
2.94458e-18
3.27176e-19
3.27176e-19
2.94458e-18
2.34622e-16
4.20605e-16
6.23925e-16
8.48505e-16
1.09598e-15
1.36537e-15
1.65295e-15
1.95238e-15
2.25504e-15
2.55062e-15
2.82772e-15
3.07474e-15
3.28067e-15
3.4359e-15
3.53297e-15
3.56714e-15
3.53669e-15
3.44313e-15
3.29103e-15
3.0877e-15
2.84261e-15
2.5667e-15
2.27158e-15
1.96865e-15
1.66831e-15
1.37928e-15
1.10802e-15
8.58399e-16
6.31518e-16
4.25839e-16
2.37499e-16
2.94458e-18
3.27176e-19
3.27176e-19
2.94458e-18
2.36537e-16
4.24257e-16
6.2945e-16
8.5608e-16
1.1058e-15
1.37763e-15
1.6678e-15
1.96993e-15
2.27532e-15
2.57355e-15
2.85314e-15
3.10238e-15
3.31015e-15
3.46677e-15
3.56471e-15
3.59917e-15
3.56844e-15
3.47403e-15
3.32055e-15
3.11538e-15
2.86808e-15
2.58969e-15
2.29191e-15
1.98625e-15
1.68321e-15
1.39158e-15
1.11788e-15
8.65999e-16
6.3706e-16
4.29501e-16
2.39417e-16
2.94458e-18
3.27176e-19
3.27176e-19
2.94458e-18
2.37661e-16
4.264e-16
6.32693e-16
8.60526e-16
1.11157e-15
1.38482e-15
1.67652e-15
1.98023e-15
2.28722e-15
2.58701e-15
2.86807e-15
3.11861e-15
3.32746e-15
3.48489e-15
3.58334e-15
3.61797e-15
3.58707e-15
3.49216e-15
3.33787e-15
3.13162e-15
2.88302e-15
2.60317e-15
2.30383e-15
1.99657e-15
1.69195e-15
1.39879e-15
1.12366e-15
8.70457e-16
6.40311e-16
4.31649e-16
2.40542e-16
2.94458e-18
3.27176e-19
3.27176e-19
2.94458e-18
2.38292e-16
4.27603e-16
6.34514e-16
8.63022e-16
1.1148e-15
1.38886e-15
1.68141e-15
1.98601e-15
2.2939e-15
2.59457e-15
2.87645e-15
3.12772e-15
3.33718e-15
3.49507e-15
3.5938e-15
3.62853e-15
3.59754e-15
3.50234e-15
3.3476e-15
3.14074e-15
2.89141e-15
2.61074e-15
2.31052e-15
2.00237e-15
1.69685e-15
1.40284e-15
1.1269e-15
8.72958e-16
6.42135e-16
4.32853e-16
2.41172e-16
2.94458e-18
3.27176e-19
3.27176e-19
2.94458e-18
2.38632e-16
4.2825e-16
6.35493e-16
8.64365e-16
1.11654e-15
1.39104e-15
1.68405e-15
1.98912e-15
2.29749e-15
2.59863e-15
2.88095e-15
3.13262e-15
3.3424e-15
3.50054e-15
3.59942e-15
3.6342e-15
3.60316e-15
3.50781e-15
3.35283e-15
3.14564e-15
2.89592e-15
2.61481e-15
2.31412e-15
2.00548e-15
1.69949e-15
1.40501e-15
1.12864e-15
8.74302e-16
6.43114e-16
4.335e-16
2.41511e-16
2.94458e-18
3.27176e-19
3.27176e-19
2.94458e-18
2.38807e-16
4.28584e-16
6.35998e-16
8.65057e-16
1.11744e-15
1.39216e-15
1.6854e-15
1.99072e-15
2.29934e-15
2.60073e-15
2.88327e-15
3.13514e-15
3.3451e-15
3.50336e-15
3.60232e-15
3.63713e-15
3.60606e-15
3.51064e-15
3.35552e-15
3.14817e-15
2.89824e-15
2.6169e-15
2.31598e-15
2.00709e-15
1.70084e-15
1.40613e-15
1.12954e-15
8.74995e-16
6.43619e-16
4.33834e-16
2.41686e-16
2.94458e-18
3.27176e-19
3.27176e-19
2.94458e-18
2.38893e-16
4.28749e-16
6.36248e-16
8.65399e-16
1.11789e-15
1.39271e-15
1.68607e-15
1.99152e-15
2.30026e-15
2.60177e-15
2.88442e-15
3.13639e-15
3.34643e-15
3.50476e-15
3.60376e-15
3.63858e-15
3.6075e-15
3.51203e-15
3.35686e-15
3.14942e-15
2.89939e-15
2.61794e-15
2.31689e-15
2.00788e-15
1.70152e-15
1.40669e-15
1.12999e-15
8.75337e-16
6.43869e-16
4.33999e-16
2.41772e-16
2.94458e-18
3.27176e-19
3.27176e-19
2.94458e-18
2.38934e-16
4.28828e-16
6.36366e-16
8.65562e-16
1.1181e-15
1.39297e-15
1.68639e-15
1.9919e-15
2.3007e-15
2.60226e-15
2.88497e-15
3.13699e-15
3.34707e-15
3.50542e-15
3.60444e-15
3.63927e-15
3.60818e-15
3.5127e-15
3.35749e-15
3.15001e-15
2.89994e-15
2.61844e-15
2.31733e-15
2.00826e-15
1.70184e-15
1.40695e-15
1.1302e-15
8.755e-16
6.43988e-16
4.34077e-16
2.41813e-16
2.94458e-18
3.27176e-19
3.27176e-19
2.94458e-18
2.38953e-16
4.28864e-16
6.36421e-16
8.65637e-16
1.11819e-15
1.39309e-15
1.68654e-15
1.99207e-15
2.3009e-15
2.60249e-15
2.88522e-15
3.13726e-15
3.34736e-15
3.50573e-15
3.60475e-15
3.63959e-15
3.60849e-15
3.513e-15
3.35778e-15
3.15029e-15
2.90019e-15
2.61866e-15
2.31753e-15
2.00843e-15
1.70198e-15
1.40707e-15
1.13029e-15
8.75575e-16
6.44042e-16
4.34113e-16
2.41832e-16
2.94458e-18
3.27176e-19
3.27176e-19
2.94458e-18
2.38962e-16
4.28879e-16
6.36445e-16
8.6567e-16
1.11824e-15
1.39315e-15
1.68661e-15
1.99214e-15
2.30099e-15
2.60259e-15
2.88533e-15
3.13738e-15
3.34749e-15
3.50586e-15
3.60489e-15
3.63973e-15
3.60863e-15
3.51314e-15
3.35791e-15
3.15041e-15
2.9003e-15
2.61876e-15
2.31762e-15
2.00851e-15
1.70205e-15
1.40713e-15
1.13034e-15
8.75608e-16
6.44066e-16
4.34129e-16
2.4184e-16
2.94458e-18
3.27176e-19
3.27176e-19
2.94458e-18
2.38965e-16
4.28886e-16
6.36455e-16
8.65684e-16
1.11826e-15
1.39317e-15
1.68663e-15
1.99218e-15
2.30102e-15
2.60263e-15
2.88538e-15
3.13743e-15
3.34754e-15
3.50592e-15
3.60495e-15
3.63978e-15
3.60869e-15
3.51319e-15
3.35796e-15
3.15046e-15
2.90035e-15
2.6188e-15
2.31766e-15
2.00854e-15
1.70208e-15
1.40715e-15
1.13035e-15
8.75622e-16
6.44076e-16
4.34135e-16
2.41844e-16
2.94458e-18
3.27176e-19
3.27176e-19
2.94458e-18
2.38967e-16
4.28889e-16
6.36459e-16
8.6569e-16
1.11826e-15
1.39318e-15
1.68664e-15
1.99219e-15
2.30104e-15
2.60265e-15
2.8854e-15
3.13745e-15
3.34756e-15
3.50594e-15
3.60498e-15
3.63981e-15
3.60871e-15
3.51322e-15
3.35799e-15
3.15048e-15
2.90037e-15
2.61882e-15
2.31767e-15
2.00855e-15
1.70209e-15
1.40716e-15
1.13036e-15
8.75627e-16
6.4408e-16
4.34138e-16
2.41845e-16
2.94458e-18
3.27176e-19
3.27176e-19
2.94458e-18
2.38967e-16
4.2889e-16
6.36461e-16
8.65692e-16
1.11827e-15
1.39318e-15
1.68665e-15
1.9922e-15
2.30105e-15
2.60265e-15
2.88541e-15
3.13746e-15
3.34757e-15
3.50595e-15
3.60499e-15
3.63982e-15
3.60872e-15
3.51323e-15
3.358e-15
3.15049e-15
2.90038e-15
2.61883e-15
2.31768e-15
2.00856e-15
1.70209e-15
1.40716e-15
1.13036e-15
8.7563e-16
6.44082e-16
4.34139e-16
2.41846e-16
2.94458e-18
3.27176e-19
3.27176e-19
2.94458e-18
2.38967e-16
4.2889e-16
6.36462e-16
8.65693e-16
1.11827e-15
1.39318e-15
1.68665e-15
1.9922e-15
2.30105e-15
2.60265e-15
2.88541e-15
3.13746e-15
3.34758e-15
3.50595e-15
3.60499e-15
3.63982e-15
3.60873e-15
3.51323e-15
3.358e-15
3.15049e-15
2.90038e-15
2.61883e-15
2.31768e-15
2.00856e-15
1.70209e-15
1.40716e-15
1.13037e-15
8.7563e-16
6.44083e-16
4.3414e-16
2.41846e-16
2.94458e-18
3.27176e-19
3.27176e-19
2.94458e-18
2.38967e-16
4.28891e-16
6.36462e-16
8.65693e-16
1.11827e-15
1.39319e-15
1.68665e-15
1.9922e-15
2.30105e-15
2.60266e-15
2.88541e-15
3.13747e-15
3.34758e-15
3.50596e-15
3.60499e-15
3.63982e-15
3.60873e-15
3.51323e-15
3.358e-15
3.15049e-15
2.90038e-15
2.61883e-15
2.31768e-15
2.00856e-15
1.70209e-15
1.40716e-15
1.13037e-15
8.75631e-16
6.44083e-16
4.3414e-16
2.41846e-16
2.94458e-18
3.27176e-19
3.27176e-19
2.94458e-18
2.38967e-16
4.28891e-16
6.36462e-16
8.65693e-16
1.11827e-15
1.39319e-15
1.68665e-15
1.9922e-15
2.30105e-15
2.60266e-15
2.88541e-15
3.13747e-15
3.34758e-15
3.50596e-15
3.60499e-15
3.63982e-15
3.60873e-15
3.51323e-15
3.358e-15
3.15049e-15
2.90038e-15
2.61883e-15
2.31768e-15
2.00856e-15
1.70209e-15
1.40716e-15
1.13037e-15
8.75631e-16
6.44083e-16
4.3414e-16
2.41846e-16
2.94458e-18
3.27176e-19
3.27176e-19
2.94458e-18
2.38967e-16
4.28891e-16
6.36462e-16
8.65693e-16
1.11827e-15
1.39319e-15
1.68665e-15
1.9922e-15
2.30105e-15
2.60266e-15
2.88541e-15
3.13747e-15
3.34758e-15
3.50596e-15
3.60499e-15
3.63982e-15
3.60873e-15
3.51323e-15
3.358e-15
3.15049e-15
2.90038e-15
2.61883e-15
2.31768e-15
2.00856e-15
1.70209e-15
1.40716e-15
1.13037e-15
8.75631e-16
6.44083e-16
4.3414e-16
2.41846e-16
2.94458e-18
3.27176e-19
3.27176e-19
2.94458e-18
2.38967e-16
4.28891e-16
6.36462e-16
8.65693e-16
1.11827e-15
1.39319e-15
1.68665e-15
1.9922e-15
2.30105e-15
2.60266e-15
2.88541e-15
3.13747e-15
3.34758e-15
3.50596e-15
3.60499e-15
3.63982e-15
3.60873e-15
3.51323e-15
3.358e-15
3.15049e-15
2.90038e-15
2.61883e-15
2.31768e-15
2.00856e-15
1.70209e-15
1.40716e-15
1.13037e-15
8.75631e-16
6.44083e-16
4.3414e-16
2.41846e-16
2.94458e-18
3.27176e-19
3.27176e-19
2.94458e-18
2.38967e-16
4.28891e-16
6.36462e-16
8.65693e-16
1.11827e-15
1.39319e-15
1.68665e-15
1.9922e-15
2.30105e-15
2.60266e-15
2.88541e-15
3.13747e-15
3.34758e-15
3.50596e-15
3.60499e-15
3.63982e-15
3.60873e-15
3.51323e-15
3.358e-15
3.15049e-15
2.90038e-15
2.61883e-15
2.31768e-15
2.00856e-15
1.70209e-15
1.40716e-15
1.13037e-15
8.75631e-16
6.44083e-16
4.3414e-16
2.41846e-16
2.94458e-18
3.27176e-19
3.27176e-19
2.94458e-18
2.38967e-16
4.28891e-16
6.36462e-16
8.65693e-16
1.11827e-15
1.39319e-15
1.68665e-15
1.9922e-15
2.30105e-15
2.60266e-15
2.88541e-15
3.13747e-15
3.34758e-15
3.50596e-15
3.60499e-15
3.63982e-15
3.60873e-15
3.51323e-15
3.358e-15
3.15049e-15
2.90038e-15
2.61883e-15
2.31768e-15
2.00856e-15
1.70209e-15
1.40716e-15
1.13037e-15
8.75631e-16
6.44083e-16
4.3414e-16
2.41846e-16
2.94458e-18
3.27176e-19
3.27176e-19
2.94458e-18
2.38967e-16
4.28891e-16
6.36462e-16
8.65693e-16
1.11827e-15
1.39319e-15
1.68665e-15
1.9922e-15
2.30105e-15
2.60266e-15
2.88541e-15
3.13747e-15
3.34758e-15
3.50596e-15
3.60499e-15
3.63982e-15
3.60873e-15
3.51323e-15
3.358e-15
3.15049e-15
2.90038e-15
2.61883e-15
2.31768e-15
2.00856e-15
1.70209e-15
1.40716e-15
1.13037e-15
8.75631e-16
6.44083e-16
4.3414e-16
2.41846e-16
2.94458e-18
3.27176e-19
3.27176e-19
2.94458e-18
2.38967e-16
4.28891e-16
6.36462e-16
8.65693e-16
1.11827e-15
1.39319e-15
1.68665e-15
1.9922e-15
2.30105e-15
2.60266e-15
2.88541e-15
3.13747e-15
3.34758e-15
3.50596e-15
3.60499e-15
3.63982e-15
3.60873e-15
3.51323e-15
3.358e-15
3.15049e-15
2.90038e-15
2.61883e-15
2.31768e-15
2.00856e-15
1.70209e-15
1.40716e-15
1.13037e-15
8.75631e-16
6.44083e-16
4.3414e-16
2.41846e-16
2.94458e-18
3.27176e-19
3.27176e-19
2.94458e-18
2.38967e-16
4.28891e-16
6.36462e-16
8.65693e-16
1.11827e-15
1.39319e-15
1.68665e-15
1.9922e-15
2.30105e-15
2.60266e-15
2.88541e-15
3.13747e-15
3.34758e-15
3.50596e-15
3.60499e-15
3.63982e-15
3.60873e-15
3.51323e-15
3.358e-15
3.15049e-15
2.90038e-15
2.61883e-15
2.31768e-15
2.00856e-15
1.70209e-15
1.40716e-15
1.13037e-15
8.75631e-16
6.44083e-16
4.3414e-16
2.41846e-16
2.94458e-18
3.27176e-19
3.27176e-19
2.94458e-18
2.38967e-16
4.28891e-16
6.36462e-16
8.65693e-16
1.11827e-15
1.39319e-15
1.68665e-15
1.9922e-15
2.30105e-15
2.60266e-15
2.88541e-15
3.13747e-15
3.34758e-15
3.50596e-15
3.60499e-15
3.63982e-15
3.60873e-15
3.51323e-15
3.358e-15
3.15049e-15
2.90038e-15
2.61883e-15
2.31768e-15
2.00856e-15
1.70209e-15
1.40716e-15
1.13037e-15
8.75631e-16
6.44083e-16
4.3414e-16
2.41846e-16
2.94458e-18
3.27176e-19
3.27176e-19
2.94458e-18
2.38967e-16
4.28891e-16
6.36462e-16
8.65693e-16
1.11827e-15
1.39319e-15
1.68665e-15
1.9922e-15
2.30105e-15
2.60266e-15
2.88541e-15
3.13747e-15
3.34758e-15
3.50596e-15
3.60499e-15
3.63982e-15
3.60873e-15
3.51323e-15
3.358e-15
3.15049e-15
2.90038e-15
2.61883e-15
2.31768e-15
2.00856e-15
1.70209e-15
1.40716e-15
1.13037e-15
8.75631e-16
6.44083e-16
4.3414e-16
2.41846e-16
2.94458e-18
3.27176e-19
3.27176e-19
2.94458e-18
2.38967e-16
4.28891e-16
6.36462e-16
8.65693e-16
1.11827e-15
1.39319e-15
1.68665e-15
1.9922e-15
2.30105e-15
2.60266e-15
2.88541e-15
3.13747e-15
3.34758e-15
3.50596e-15
3.60499e-15
3.63982e-15
3.60873e-15
3.51323e-15
3.358e-15
3.15049e-15
2.90038e-15
2.61883e-15
2.31768e-15
2.00856e-15
1.70209e-15
1.40716e-15
1.13037e-15
8.75631e-16
6.44083e-16
4.3414e-16
2.41846e-16
2.94458e-18
3.27176e-19
3.27176e-19
2.94458e-18
2.38967e-16
4.28891e-16
6.36462e-16
8.65693e-16
1.11827e-15
1.39319e-15
1.68665e-15
1.9922e-15
2.30105e-15
2.60266e-15
2.88541e-15
3.13747e-15
3.34758e-15
3.50596e-15
3.60499e-15
3.63982e-15
3.60873e-15
3.51323e-15
3.358e-15
3.15049e-15
2.90038e-15
2.61883e-15
2.31768e-15
2.00856e-15
1.70209e-15
1.40716e-15
1.13037e-15
8.75631e-16
6.44083e-16
4.3414e-16
2.41846e-16
2.94458e-18
3.27176e-19
3.27176e-19
2.94458e-18
2.38967e-16
4.28891e-16
6.36462e-16
8.65693e-16
1.11827e-15
1.39319e-15
1.68665e-15
1.9922e-15
2.30105e-15
2.60266e-15
2.88541e-15
3.13747e-15
3.34758e-15
3.50596e-15
3.60499e-15
3.63982e-15
3.60873e-15
3.51323e-15
3.358e-15
3.15049e-15
2.90038e-15
2.61883e-15
2.31768e-15
2.00856e-15
1.70209e-15
1.40716e-15
1.13037e-15
8.75631e-16
6.44083e-16
4.3414e-16
2.41846e-16
2.94458e-18
3.27176e-19
3.27176e-19
2.94458e-18
2.38967e-16
4.28891e-16
6.36462e-16
8.65693e-16
1.11827e-15
1.39319e-15
1.68665e-15
1.9922e-15
2.30105e-15
2.60266e-15
2.88541e-15
3.13747e-15
3.34758e-15
3.50596e-15
3.60499e-15
3.63982e-15
3.60873e-15
3.51323e-15
3.358e-15
3.15049e-15
2.90038e-15
2.61883e-15
2.31768e-15
2.00856e-15
1.70209e-15
1.40716e-15
1.13037e-15
8.75631e-16
6.44083e-16
4.3414e-16
2.41846e-16
2.94458e-18
3.27176e-19
3.27176e-19
2.94458e-18
2.38967e-16
4.28891e-16
6.36462e-16
8.65693e-16
1.11827e-15
1.39319e-15
1.68665e-15
1.9922e-15
2.30105e-15
2.60266e-15
2.88541e-15
3.13747e-15
3.34758e-15
3.50596e-15
3.60499e-15
3.63982e-15
3.60873e-15
3.51323e-15
3.358e-15
3.15049e-15
2.90038e-15
2.61883e-15
2.31768e-15
2.00856e-15
1.70209e-15
1.40716e-15
1.13037e-15
8.75631e-16
6.44083e-16
4.3414e-16
2.41846e-16
2.94458e-18
3.27176e-19
3.27176e-19
2.94458e-18
2.38967e-16
4.28891e-16
6.36462e-16
8.65693e-16
1.11827e-15
1.39319e-15
1.68665e-15
1.9922e-15
2.30105e-15
2.60266e-15
2.88541e-15
3.13747e-15
3.34758e-15
3.50596e-15
3.60499e-15
3.63982e-15
3.60873e-15
3.51323e-15
3.358e-15
3.15049e-15
2.90038e-15
2.61883e-15
2.31768e-15
2.00856e-15
1.70209e-15
1.40716e-15
1.13037e-15
8.75631e-16
6.44083e-16
4.3414e-16
2.41846e-16
2.94458e-18
3.27176e-19
3.27176e-19
2.94458e-18
2.38967e-16
4.28891e-16
6.36462e-16
8.65693e-16
1.11827e-15
1.39319e-15
1.68665e-15
1.9922e-15
2.30105e-15
2.60266e-15
2.88541e-15
3.13747e-15
3.34758e-15
3.50596e-15
3.60499e-15
3.63982e-15
3.60873e-15
3.51323e-15
3.358e-15
3.15049e-15
2.90038e-15
2.61883e-15
2.31768e-15
2.00856e-15
1.70209e-15
1.40716e-15
1.13037e-15
8.75631e-16
6.44083e-16
4.3414e-16
2.41846e-16
2.94458e-18
3.27176e-19
3.27176e-19
2.94458e-18
2.38967e-16
4.28891e-16
6.36462e-16
8.65693e-16
1.11827e-15
1.39319e-15
1.68665e-15
1.9922e-15
2.30105e-15
2.60266e-15
2.88541e-15
3.13747e-15
3.34758e-15
3.50596e-15
3.60499e-15
3.63982e-15
3.60873e-15
3.51323e-15
3.358e-15
3.15049e-15
2.90038e-15
2.61883e-15
2.31768e-15
2.00856e-15
1.70209e-15
1.40716e-15
1.13037e-15
8.75631e-16
6.44083e-16
4.3414e-16
2.41846e-16
2.94458e-18
3.27176e-19
3.27176e-19
2.94458e-18
2.38967e-16
4.28891e-16
6.36462e-16
8.65693e-16
1.11827e-15
1.39319e-15
1.68665e-15
1.9922e-15
2.30105e-15
2.60266e-15
2.88541e-15
3.13747e-15
3.34758e-15
3.50596e-15
3.60499e-15
3.63982e-15
3.60873e-15
3.51323e-15
3.358e-15
3.15049e-15
2.90038e-15
2.61883e-15
2.31768e-15
2.00856e-15
1.70209e-15
1.40716e-15
1.13037e-15
8.75631e-16
6.44083e-16
4.3414e-16
2.41846e-16
2.94458e-18
3.27176e-19
3.27176e-19
2.94458e-18
2.38967e-16
4.28891e-16
6.36462e-16
8.65693e-16
1.11827e-15
1.39319e-15
1.68665e-15
1.9922e-15
2.30105e-15
2.60266e-15
2.88541e-15
3.13747e-15
3.34758e-15
3.50596e-15
3.60499e-15
3.63982e-15
3.60873e-15
3.51323e-15
3.358e-15
3.15049e-15
2.90038e-15
2.61883e-15
2.31768e-15
2.00856e-15
1.70209e-15
1.40716e-15
1.13037e-15
8.75631e-16
6.44083e-16
4.3414e-16
2.41846e-16
2.94458e-18
3.27176e-19
3.27176e-19
2.94458e-18
2.38967e-16
4.28891e-16
6.36462e-16
8.65693e-16
1.11827e-15
1.39319e-15
1.68665e-15
1.9922e-15
2.30105e-15
2.60266e-15
2.88541e-15
3.13747e-15
3.34758e-15
3.50596e-15
3.60499e-15
3.63982e-15
3.60873e-15
3.51323e-15
3.358e-15
3.15049e-15
2.90038e-15
2.61883e-15
2.31768e-15
2.00856e-15
1.70209e-15
1.40716e-15
1.13037e-15
8.75631e-16
6.44083e-16
4.3414e-16
2.41846e-16
2.94458e-18
3.27176e-19
3.27176e-19
2.94458e-18
2.38967e-16
4.28891e-16
6.36462e-16
8.65693e-16
1.11827e-15
1.39319e-15
1.68665e-15
1.9922e-15
2.30105e-15
2.60266e-15
2.88541e-15
3.13747e-15
3.34758e-15
3.50596e-15
3.60499e-15
3.63982e-15
3.60873e-15
3.51323e-15
3.358e-15
3.15049e-15
2.90038e-15
2.61883e-15
2.31768e-15
2.00856e-15
1.70209e-15
1.40716e-15
1.13037e-15
8.75631e-16
6.44083e-16
4.3414e-16
2.41846e-16
2.94458e-18
3.27176e-19
3.27176e-19
2.94458e-18
2.38967e-16
4.28891e-16
6.36462e-16
8.65693e-16
1.11827e-15
1.39319e-15
1.68665e-15
1.9922e-15
2.30105e-15
2.60266e-15
2.88541e-15
3.13747e-15
3.34758e-15
3.50596e-15
3.60499e-15
3.63982e-15
3.60873e-15
3.51323e-15
3.358e-15
3.15049e-15
2.90038e-15
2.61883e-15
2.31768e-15
2.00856e-15
1.70209e-15
1.40716e-15
1.13037e-15
8.75631e-16
6.44083e-16
4.3414e-16
2.41846e-16
2.94458e-18
3.27176e-19
3.27176e-19
2.94458e-18
2.38967e-16
4.28891e-16
6.36462e-16
8.65693e-16
1.11827e-15
1.39319e-15
1.68665e-15
1.9922e-15
2.30105e-15
2.60266e-15
2.88541e-15
3.13747e-15
3.34758e-15
3.50596e-15
3.60499e-15
3.63982e-15
3.60873e-15
3.51323e-15
3.358e-15
3.15049e-15
2.90038e-15
2.61883e-15
2.31768e-15
2.00856e-15
1.70209e-15
1.40716e-15
1.13037e-15
8.75631e-16
6.44083e-16
4.3414e-16
2.41846e-16
2.94458e-18
3.27176e-19
3.27176e-19
2.94458e-18
2.38967e-16
4.28891e-16
6.36462e-16
8.65693e-16
1.11827e-15
1.39319e-15
1.68665e-15
1.9922e-15
2.30105e-15
2.60266e-15
2.88541e-15
3.13747e-15
3.34758e-15
3.50596e-15
3.60499e-15
3.63982e-15
3.60873e-15
3.51323e-15
3.358e-15
3.15049e-15
2.90038e-15
2.61883e-15
2.31768e-15
2.00856e-15
1.70209e-15
1.40716e-15
1.13037e-15
8.75631e-16
6.44083e-16
4.3414e-16
2.41846e-16
2.94458e-18
3.27176e-19
3.27176e-19
2.94458e-18
2.38967e-16
4.28891e-16
6.36462e-16
8.65693e-16
1.11827e-15
1.39319e-15
1.68665e-15
1.9922e-15
2.30105e-15
2.60266e-15
2.88541e-15
3.13747e-15
3.34758e-15
3.50596e-15
3.60499e-15
3.63982e-15
3.60873e-15
3.51323e-15
3.358e-15
3.15049e-15
2.90038e-15
2.61883e-15
2.31768e-15
2.00856e-15
1.70209e-15
1.40716e-15
1.13037e-15
8.75631e-16
6.44083e-16
4.3414e-16
2.41846e-16
2.94458e-18
3.27176e-19
3.27176e-19
2.94458e-18
2.38967e-16
4.28891e-16
6.36462e-16
8.65693e-16
1.11827e-15
1.39319e-15
1.68665e-15
1.9922e-15
2.30105e-15
2.60266e-15
2.88541e-15
3.13747e-15
3.34758e-15
3.50596e-15
3.60499e-15
3.63982e-15
3.60873e-15
3.51323e-15
3.358e-15
3.15049e-15
2.90038e-15
2.61883e-15
2.31768e-15
2.00856e-15
1.70209e-15
1.40716e-15
1.13037e-15
8.75631e-16
6.44083e-16
4.3414e-16
2.41846e-16
2.94458e-18
3.27176e-19
3.27176e-19
2.94458e-18
2.38967e-16
4.28891e-16
6.36462e-16
8.65693e-16
1.11827e-15
1.39319e-15
1.68665e-15
1.9922e-15
2.30105e-15
2.60266e-15
2.88541e-15
3.13747e-15
3.34758e-15
3.50596e-15
3.60499e-15
3.63982e-15
3.60873e-15
3.51323e-15
3.358e-15
3.15049e-15
2.90038e-15
2.61883e-15
2.31768e-15
2.00856e-15
1.70209e-15
1.40716e-15
1.13037e-15
8.75631e-16
6.44083e-16
4.3414e-16
2.41846e-16
2.94458e-18
3.27176e-19
3.27176e-19
2.94458e-18
2.38967e-16
4.28891e-16
6.36462e-16
8.65693e-16
1.11827e-15
1.39319e-15
1.68665e-15
1.9922e-15
2.30105e-15
2.60266e-15
2.88541e-15
3.13747e-15
3.34758e-15
3.50596e-15
3.60499e-15
3.63982e-15
3.60873e-15
3.51323e-15
3.358e-15
3.15049e-15
2.90038e-15
2.61883e-15
2.31768e-15
2.00856e-15
1.70209e-15
1.40716e-15
1.13037e-15
8.75631e-16
6.44083e-16
4.3414e-16
2.41846e-16
2.94458e-18
3.27176e-19
3.27176e-19
2.94458e-18
2.38967e-16
4.28891e-16
6.36462e-16
8.65693e-16
1.11827e-15
1.39319e-15
1.68665e-15
1.9922e-15
2.30105e-15
2.60266e-15
2.88541e-15
3.13747e-15
3.34758e-15
3.50596e-15
3.60499e-15
3.63982e-15
3.60873e-15
3.51323e-15
3.358e-15
3.15049e-15
2.90038e-15
2.61883e-15
2.31768e-15
2.00856e-15
1.70209e-15
1.40716e-15
1.13037e-15
8.75631e-16
6.44083e-16
4.3414e-16
2.41846e-16
2.94458e-18
3.27176e-19
3.27176e-19
2.94458e-18
2.38967e-16
4.28891e-16
6.36462e-16
8.65693e-16
1.11827e-15
1.39319e-15
1.68665e-15
1.9922e-15
2.30105e-15
2.60266e-15
2.88541e-15
3.13747e-15
3.34758e-15
3.50596e-15
3.60499e-15
3.63982e-15
3.60873e-15
3.51323e-15
3.358e-15
3.15049e-15
2.90038e-15
2.61883e-15
2.31768e-15
2.00856e-15
1.70209e-15
1.40716e-15
1.13037e-15
8.75631e-16
6.44083e-16
4.3414e-16
2.41846e-16
2.94458e-18
3.27176e-19
3.27176e-19
2.94458e-18
2.38967e-16
4.28891e-16
6.36462e-16
8.65693e-16
1.11827e-15
1.39319e-15
1.68665e-15
1.9922e-15
2.30105e-15
2.60266e-15
2.88541e-15
3.13747e-15
3.34758e-15
3.50596e-15
3.60499e-15
3.63982e-15
3.60873e-15
3.51323e-15
3.358e-15
3.15049e-15
2.90038e-15
2.61883e-15
2.31768e-15
2.00856e-15
1.70209e-15
1.40716e-15
1.13037e-15
8.75631e-16
6.44083e-16
4.3414e-16
2.41846e-16
2.94458e-18
3.27176e-19
3.27176e-19
2.94458e-18
2.38967e-16
4.28891e-16
6.36462e-16
8.65693e-16
1.11827e-15
1.39319e-15
1.68665e-15
1.9922e-15
2.30105e-15
2.60266e-15
2.88541e-15
3.13747e-15
3.34758e-15
3.50596e-15
3.60499e-15
3.63982e-15
3.60873e-15
3.51323e-15
3.358e-15
3.15049e-15
2.90038e-15
2.61883e-15
2.31768e-15
2.00856e-15
1.70209e-15
1.40716e-15
1.13037e-15
8.75631e-16
6.44083e-16
4.3414e-16
2.41846e-16
2.94458e-18
3.27176e-19
3.27176e-19
2.94458e-18
2.38967e-16
4.28891e-16
6.36462e-16
8.65693e-16
1.11827e-15
1.39319e-15
1.68665e-15
1.9922e-15
2.30105e-15
2.60266e-15
2.88541e-15
3.13747e-15
3.34758e-15
3.50596e-15
3.60499e-15
3.63982e-15
3.60873e-15
3.51323e-15
3.358e-15
3.15049e-15
2.90038e-15
2.61883e-15
2.31768e-15
2.00856e-15
1.70209e-15
1.40716e-15
1.13037e-15
8.75631e-16
6.44083e-16
4.3414e-16
2.41846e-16
2.94458e-18
3.27176e-19
3.27176e-19
2.94458e-18
2.38967e-16
4.28891e-16
6.36462e-16
8.65693e-16
1.11827e-15
1.39319e-15
1.68665e-15
1.9922e-15
2.30105e-15
2.60266e-15
2.88541e-15
3.13747e-15
3.34758e-15
3.50596e-15
3.60499e-15
3.63982e-15
3.60873e-15
3.51323e-15
3.358e-15
3.15049e-15
2.90038e-15
2.61883e-15
2.31768e-15
2.00856e-15
1.70209e-15
1.40716e-15
1.13037e-15
8.75631e-16
6.44083e-16
4.3414e-16
2.41846e-16
2.94458e-18
3.27176e-19
3.27176e-19
2.94458e-18
2.38967e-16
4.28891e-16
6.36462e-16
8.65693e-16
1.11827e-15
1.39319e-15
1.68665e-15
1.9922e-15
2.30105e-15
2.60266e-15
2.88541e-15
3.13747e-15
3.34758e-15
3.50596e-15
3.60499e-15
3.63982e-15
3.60873e-15
3.51323e-15
3.358e-15
3.15049e-15
2.90038e-15
2.61883e-15
2.31768e-15
2.00856e-15
1.70209e-15
1.40716e-15
1.13037e-15
8.75631e-16
6.44083e-16
4.3414e-16
2.41846e-16
2.94458e-18
3.27176e-19
3.27176e-19
2.94458e-18
2.38967e-16
4.28891e-16
6.36462e-16
8.65693e-16
1.11827e-15
1.39319e-15
1.68665e-15
1.9922e-15
2.30105e-15
2.60266e-15
2.88541e-15
3.13747e-15
3.34758e-15
3.50596e-15
3.60499e-15
3.63982e-15
3.60873e-15
3.51323e-15
3.358e-15
3.15049e-15
2.90038e-15
2.61883e-15
2.31768e-15
2.00856e-15
1.70209e-15
1.40716e-15
1.13037e-15
8.75631e-16
6.44083e-16
4.3414e-16
2.41846e-16
2.94458e-18
3.27176e-19
3.27176e-19
2.94458e-18
2.38967e-16
4.28891e-16
6.36462e-16
8.65693e-16
1.11827e-15
1.39319e-15
1.68665e-15
1.9922e-15
2.30105e-15
2.60266e-15
2.88541e-15
3.13747e-15
3.34758e-15
3.50596e-15
3.60499e-15
3.63982e-15
3.60873e-15
3.51323e-15
3.358e-15
3.15049e-15
2.90038e-15
2.61883e-15
2.31768e-15
2.00856e-15
1.70209e-15
1.40716e-15
1.13037e-15
8.75631e-16
6.44083e-16
4.3414e-16
2.41846e-16
2.94458e-18
3.27176e-19
3.27176e-19
2.94458e-18
2.38967e-16
4.28891e-16
6.36462e-16
8.65693e-16
1.11827e-15
1.39319e-15
1.68665e-15
1.9922e-15
2.30105e-15
2.60266e-15
2.88541e-15
3.13747e-15
3.34758e-15
3.50596e-15
3.60499e-15
3.63982e-15
3.60873e-15
3.51323e-15
3.358e-15
3.15049e-15
2.90038e-15
2.61883e-15
2.31768e-15
2.00856e-15
1.70209e-15
1.40716e-15
1.13037e-15
8.75631e-16
6.44083e-16
4.3414e-16
2.41846e-16
2.94458e-18
3.27176e-19
3.27176e-19
2.94458e-18
2.38967e-16
4.28891e-16
6.36462e-16
8.65693e-16
1.11827e-15
1.39319e-15
1.68665e-15
1.9922e-15
2.30105e-15
2.60266e-15
2.88541e-15
3.13747e-15
3.34758e-15
3.50596e-15
3.60499e-15
3.63982e-15
3.60873e-15
3.51323e-15
3.358e-15
3.15049e-15
2.90038e-15
2.61883e-15
2.31768e-15
2.00856e-15
1.70209e-15
1.40716e-15
1.13037e-15
8.75631e-16
6.44083e-16
4.3414e-16
2.41846e-16
2.94458e-18
3.27176e-19
3.27176e-19
2.94458e-18
2.38967e-16
4.28891e-16
6.36462e-16
8.65693e-16
1.11827e-15
1.39319e-15
1.68665e-15
1.9922e-15
2.30105e-15
2.60266e-15
2.88541e-15
3.13747e-15
3.34758e-15
3.50596e-15
3.60499e-15
3.63982e-15
3.60873e-15
3.51323e-15
3.358e-15
3.15049e-15
2.90038e-15
2.61883e-15
2.31768e-15
2.00856e-15
1.70209e-15
1.40716e-15
1.13037e-15
8.75631e-16
6.44083e-16
4.3414e-16
2.41846e-16
2.94458e-18
3.27176e-19
3.27176e-19
2.94458e-18
2.38967e-16
4.28891e-16
6.36462e-16
8.65693e-16
1.11827e-15
1.39319e-15
1.68665e-15
1.9922e-15
2.30105e-15
2.60266e-15
2.88541e-15
3.13747e-15
3.34758e-15
3.50596e-15
3.60499e-15
3.63982e-15
3.60873e-15
3.51323e-15
3.358e-15
3.15049e-15
2.90038e-15
2.61883e-15
2.31768e-15
2.00856e-15
1.70209e-15
1.40716e-15
1.13037e-15
8.75631e-16
6.44083e-16
4.3414e-16
2.41846e-16
2.94458e-18
3.27176e-19
3.27176e-19
2.94458e-18
2.38967e-16
4.28891e-16
6.36462e-16
8.65693e-16
1.11827e-15
1.39319e-15
1.68665e-15
1.9922e-15
2.30105e-15
2.60266e-15
2.88541e-15
3.13747e-15
3.34758e-15
3.50596e-15