/*--------------------------------*- C++ -*----------------------------------*\
  =========                 |
  \\      /  F ield         | OpenFOAM: The Open Source CFD Toolbox
   \\    /   O peration     | Website:  https://openfoam.org
    \\  /    A nd           | Version:  13
     \\/     M anipulation  |
\*---------------------------------------------------------------------------*/
FoamFile
{
    format      ascii;
    class       volScalarField;
    location    "19";
    object      nut;
}
// * * * * * * * * * * * * * * * * * * * * * * * * * * * * * * * * * * * * * //

dimensions      [0 2 -1 0 0 0 0];

internalField   nonuniform List<scalar> 
78750
(
7.14953e-16
1.83476e-13
4.14846e-12
7.5442e-12
1.11527e-11
1.50106e-11
1.91262e-11
2.34731e-11
2.79898e-11
3.25824e-11
3.71312e-11
4.1498e-11
4.55358e-11
4.90978e-11
5.20473e-11
5.42668e-11
5.56649e-11
5.61833e-11
5.57997e-11
5.45299e-11
5.24267e-11
4.95759e-11
4.60914e-11
4.21073e-11
3.7769e-11
3.32241e-11
2.86124e-11
2.40564e-11
1.96534e-11
1.54685e-11
1.15306e-11
7.83183e-12
4.3306e-12
1.92961e-13
7.54831e-16
1.56672e-14
4.0839e-12
5.78425e-10
1.05991e-09
1.5714e-09
2.11999e-09
2.70765e-09
3.33085e-09
3.98065e-09
4.64328e-09
5.30107e-09
5.93363e-09
6.51923e-09
7.03616e-09
7.46419e-09
7.78591e-09
7.98783e-09
8.06134e-09
8.00324e-09
7.81596e-09
7.50744e-09
7.09054e-09
6.58221e-09
6.00238e-09
5.37262e-09
4.71471e-09
4.04926e-09
3.39426e-09
2.76391e-09
2.16759e-09
1.60924e-09
1.08712e-09
5.94205e-10
4.20162e-12
1.61276e-14
4.57031e-14
1.19149e-11
1.69126e-09
3.11944e-09
4.6697e-09
6.37482e-09
8.24904e-09
1.02858e-08
1.24574e-08
1.47162e-08
1.69977e-08
1.92248e-08
2.13126e-08
2.31745e-08
2.4728e-08
2.5901e-08
2.66375e-08
2.69015e-08
2.668e-08
2.59837e-08
2.48465e-08
2.33229e-08
2.14834e-08
1.94098e-08
1.71886e-08
1.49048e-08
1.26364e-08
1.0449e-08
8.39166e-09
6.49353e-09
4.76242e-09
3.18497e-09
1.72863e-09
1.21907e-11
4.67782e-14
9.07576e-14
2.3665e-11
3.36253e-09
6.21997e-09
9.35097e-09
1.28326e-08
1.67025e-08
2.09538e-08
2.55329e-08
3.03417e-08
3.52428e-08
4.0068e-08
4.4627e-08
4.872e-08
5.2153e-08
5.47542e-08
5.63882e-08
5.69679e-08
5.6462e-08
5.48978e-08
5.23588e-08
4.89772e-08
4.49226e-08
4.03875e-08
3.55715e-08
3.06656e-08
2.58392e-08
2.1232e-08
1.69444e-08
1.30327e-08
9.50617e-09
6.32879e-09
3.42411e-09
2.41175e-11
9.25184e-14
1.41154e-13
3.68183e-11
5.2344e-09
9.69422e-09
1.46001e-08
2.00797e-08
2.61978e-08
3.29473e-08
4.02459e-08
4.79383e-08
5.58053e-08
6.35765e-08
7.09415e-08
7.75703e-08
8.31406e-08
8.73652e-08
9.00175e-08
9.09517e-08
9.01158e-08
8.75565e-08
8.34148e-08
7.79133e-08
7.13359e-08
6.40033e-08
5.62449e-08
4.83718e-08
4.06562e-08
3.33201e-08
2.65217e-08
2.03471e-08
1.48068e-08
9.83855e-09
5.31567e-09
3.74142e-11
1.43471e-13
1.86815e-13
4.87488e-11
6.9334e-09
1.28483e-08
1.9367e-08
2.66633e-08
3.48265e-08
4.3849e-08
5.36213e-08
6.39355e-08
7.44976e-08
8.49438e-08
9.48546e-08
1.03781e-07
1.11286e-07
1.16977e-07
1.20546e-07
1.21798e-07
1.2066e-07
1.17198e-07
1.11603e-07
1.04179e-07
9.53122e-08
8.54396e-08
7.5009e-08
6.44408e-08
5.41004e-08
4.42847e-08
3.52052e-08
2.69758e-08
1.9608e-08
1.30161e-08
7.02751e-09
4.94382e-11
1.89495e-13
2.21886e-13
5.79239e-11
8.24109e-09
1.52766e-08
2.3038e-08
3.17352e-08
4.1476e-08
5.2252e-08
6.39324e-08
7.62681e-08
8.89066e-08
1.01412e-07
1.13281e-07
1.23974e-07
1.32962e-07
1.39776e-07
1.44047e-07
1.45539e-07
1.44169e-07
1.40013e-07
1.33302e-07
1.244e-07
1.13773e-07
1.01945e-07
8.94571e-08
7.68127e-08
6.44495e-08
5.27226e-08
4.18852e-08
3.20726e-08
2.3298e-08
1.54571e-08
8.34208e-09
5.86632e-11
2.24758e-13
2.45284e-13
6.40543e-11
9.11564e-09
1.6901e-08
2.54945e-08
3.513e-08
4.59281e-08
5.78796e-08
7.08391e-08
8.45293e-08
9.85586e-08
1.12443e-07
1.25622e-07
1.37495e-07
1.47473e-07
1.55036e-07
1.59775e-07
1.61427e-07
1.599e-07
1.5528e-07
1.47823e-07
1.37934e-07
1.26128e-07
1.12993e-07
9.91266e-08
8.50917e-08
7.13735e-08
5.83664e-08
4.63515e-08
3.5479e-08
2.5763e-08
1.70871e-08
9.21959e-09
6.48149e-11
2.48239e-13
2.5907e-13
6.76719e-11
9.63226e-09
1.78608e-08
2.69463e-08
3.71369e-08
4.85607e-08
6.1208e-08
7.49247e-08
8.94168e-08
1.04269e-07
1.18969e-07
1.32923e-07
1.45493e-07
1.56057e-07
1.64063e-07
1.69077e-07
1.70823e-07
1.69203e-07
1.64309e-07
1.56411e-07
1.45937e-07
1.33435e-07
1.19525e-07
1.04844e-07
8.99857e-08
7.54656e-08
6.17009e-08
4.89894e-08
3.74902e-08
2.72179e-08
1.80488e-08
9.73714e-09
6.84393e-11
2.62052e-13
2.66339e-13
6.95824e-11
9.90537e-09
1.83683e-08
2.77141e-08
3.81987e-08
4.99538e-08
6.29697e-08
7.70875e-08
9.20045e-08
1.07293e-07
1.22425e-07
1.36789e-07
1.49729e-07
1.60602e-07
1.68842e-07
1.74002e-07
1.75798e-07
1.74129e-07
1.69089e-07
1.60957e-07
1.50173e-07
1.37302e-07
1.22982e-07
1.07869e-07
9.25751e-08
7.76302e-08
6.34643e-08
5.0384e-08
3.85531e-08
2.79865e-08
1.85568e-08
1.00104e-08
7.03507e-11
2.69324e-13
2.69807e-13
7.04953e-11
1.0036e-08
1.86111e-08
2.80816e-08
3.87069e-08
5.06208e-08
6.38134e-08
7.81236e-08
9.32442e-08
1.08742e-07
1.24081e-07
1.38642e-07
1.51759e-07
1.62781e-07
1.71133e-07
1.76363e-07
1.78182e-07
1.76489e-07
1.71379e-07
1.63135e-07
1.52203e-07
1.39155e-07
1.24638e-07
1.09318e-07
9.38149e-08
7.86664e-08
6.43082e-08
5.10512e-08
3.90614e-08
2.8354e-08
1.87996e-08
1.0141e-08
7.12632e-11
2.7279e-13
2.71318e-13
7.08938e-11
1.00931e-08
1.87173e-08
2.82422e-08
3.89291e-08
5.09125e-08
6.41824e-08
7.85769e-08
9.37867e-08
1.09376e-07
1.24806e-07
1.39454e-07
1.52648e-07
1.63735e-07
1.72136e-07
1.77396e-07
1.79226e-07
1.77523e-07
1.72383e-07
1.64089e-07
1.53092e-07
1.39966e-07
1.25363e-07
1.09952e-07
9.43573e-08
7.91196e-08
6.46771e-08
5.13428e-08
3.92836e-08
2.85146e-08
1.89056e-08
1.0198e-08
7.16611e-11
2.74299e-13
2.71924e-13
7.10539e-11
1.01161e-08
1.876e-08
2.83069e-08
3.90186e-08
5.103e-08
6.43311e-08
7.87595e-08
9.40053e-08
1.09632e-07
1.25099e-07
1.39781e-07
1.53006e-07
1.64119e-07
1.7254e-07
1.77813e-07
1.79647e-07
1.7794e-07
1.72787e-07
1.64474e-07
1.5345e-07
1.40293e-07
1.25655e-07
1.10207e-07
9.45758e-08
7.93021e-08
6.48257e-08
5.14602e-08
3.9373e-08
2.85792e-08
1.89483e-08
1.02209e-08
7.18209e-11
2.74904e-13
2.72149e-13
7.11135e-11
1.01247e-08
1.87759e-08
2.8331e-08
3.9052e-08
5.10738e-08
6.43866e-08
7.88276e-08
9.4087e-08
1.09727e-07
1.25208e-07
1.39903e-07
1.5314e-07
1.64263e-07
1.72692e-07
1.77969e-07
1.79804e-07
1.78095e-07
1.72938e-07
1.64617e-07
1.53584e-07
1.40415e-07
1.25764e-07
1.10303e-07
9.46574e-08
7.93702e-08
6.48811e-08
5.1504e-08
3.94063e-08
2.86032e-08
1.89642e-08
1.02295e-08
7.18804e-11
2.75129e-13
2.72227e-13
7.11342e-11
1.01276e-08
1.87814e-08
2.83394e-08
3.90636e-08
5.10891e-08
6.44059e-08
7.88514e-08
9.41154e-08
1.0976e-07
1.25246e-07
1.39945e-07
1.53186e-07
1.64313e-07
1.72744e-07
1.78023e-07
1.79859e-07
1.7815e-07
1.72991e-07
1.64667e-07
1.5363e-07
1.40458e-07
1.25802e-07
1.10336e-07
9.46857e-08
7.93939e-08
6.49004e-08
5.15192e-08
3.94179e-08
2.86116e-08
1.89697e-08
1.02325e-08
7.19011e-11
2.75207e-13
2.72253e-13
7.11409e-11
1.01286e-08
1.87832e-08
2.83421e-08
3.90674e-08
5.1094e-08
6.44122e-08
7.88591e-08
9.41246e-08
1.09771e-07
1.25258e-07
1.39959e-07
1.53202e-07
1.6433e-07
1.72761e-07
1.78041e-07
1.79877e-07
1.78167e-07
1.73008e-07
1.64684e-07
1.53646e-07
1.40471e-07
1.25815e-07
1.10347e-07
9.4695e-08
7.94016e-08
6.49067e-08
5.15242e-08
3.94216e-08
2.86143e-08
1.89715e-08
1.02334e-08
7.19078e-11
2.75232e-13
2.7226e-13
7.1143e-11
1.01289e-08
1.87838e-08
2.8343e-08
3.90685e-08
5.10956e-08
6.44141e-08
7.88614e-08
9.41274e-08
1.09774e-07
1.25262e-07
1.39963e-07
1.53206e-07
1.64335e-07
1.72767e-07
1.78046e-07
1.79883e-07
1.78173e-07
1.73013e-07
1.64689e-07
1.5365e-07
1.40476e-07
1.25818e-07
1.1035e-07
9.46978e-08
7.9404e-08
6.49086e-08
5.15257e-08
3.94228e-08
2.86152e-08
1.8972e-08
1.02337e-08
7.19098e-11
2.7524e-13
2.72262e-13
7.11436e-11
1.0129e-08
1.8784e-08
2.83432e-08
3.90689e-08
5.1096e-08
6.44146e-08
7.88621e-08
9.41283e-08
1.09775e-07
1.25263e-07
1.39965e-07
1.53208e-07
1.64336e-07
1.72768e-07
1.78048e-07
1.79884e-07
1.78174e-07
1.73015e-07
1.6469e-07
1.53652e-07
1.40477e-07
1.25819e-07
1.10351e-07
9.46986e-08
7.94047e-08
6.49091e-08
5.15261e-08
3.94231e-08
2.86154e-08
1.89722e-08
1.02338e-08
7.19104e-11
2.75242e-13
2.72263e-13
7.11438e-11
1.0129e-08
1.8784e-08
2.83433e-08
3.90689e-08
5.10961e-08
6.44148e-08
7.88623e-08
9.41285e-08
1.09776e-07
1.25263e-07
1.39965e-07
1.53208e-07
1.64336e-07
1.72769e-07
1.78048e-07
1.79885e-07
1.78175e-07
1.73015e-07
1.6469e-07
1.53652e-07
1.40477e-07
1.2582e-07
1.10351e-07
9.46989e-08
7.94048e-08
6.49093e-08
5.15262e-08
3.94232e-08
2.86155e-08
1.89722e-08
1.02338e-08
7.19106e-11
2.75243e-13
2.72263e-13
7.11438e-11
1.0129e-08
1.8784e-08
2.83433e-08
3.9069e-08
5.10962e-08
6.44148e-08
7.88624e-08
9.41285e-08
1.09776e-07
1.25263e-07
1.39965e-07
1.53208e-07
1.64337e-07
1.72769e-07
1.78049e-07
1.79885e-07
1.78175e-07
1.73015e-07
1.64691e-07
1.53652e-07
1.40477e-07
1.2582e-07
1.10351e-07
9.46989e-08
7.94049e-08
6.49093e-08
5.15263e-08
3.94232e-08
2.86155e-08
1.89722e-08
1.02338e-08
7.19106e-11
2.75243e-13
2.72263e-13
7.11438e-11
1.0129e-08
1.8784e-08
2.83433e-08
3.9069e-08
5.10962e-08
6.44148e-08
7.88624e-08
9.41286e-08
1.09776e-07
1.25263e-07
1.39965e-07
1.53208e-07
1.64337e-07
1.72769e-07
1.78049e-07
1.79885e-07
1.78175e-07
1.73015e-07
1.64691e-07
1.53652e-07
1.40477e-07
1.2582e-07
1.10351e-07
9.46989e-08
7.94049e-08
6.49093e-08
5.15263e-08
3.94233e-08
2.86155e-08
1.89722e-08
1.02338e-08
7.19106e-11
2.75243e-13
2.72263e-13
7.11438e-11
1.0129e-08
1.8784e-08
2.83433e-08
3.9069e-08
5.10962e-08
6.44148e-08
7.88624e-08
9.41286e-08
1.09776e-07
1.25263e-07
1.39965e-07
1.53208e-07
1.64337e-07
1.72769e-07
1.78049e-07
1.79885e-07
1.78175e-07
1.73015e-07
1.64691e-07
1.53652e-07
1.40477e-07
1.2582e-07
1.10351e-07
9.46989e-08
7.94049e-08
6.49093e-08
5.15263e-08
3.94233e-08
2.86155e-08
1.89722e-08
1.02338e-08
7.19106e-11
2.75243e-13
2.72263e-13
7.11438e-11
1.0129e-08
1.8784e-08
2.83433e-08
3.9069e-08
5.10962e-08
6.44148e-08
7.88624e-08
9.41286e-08
1.09776e-07
1.25263e-07
1.39965e-07
1.53208e-07
1.64337e-07
1.72769e-07
1.78049e-07
1.79885e-07
1.78175e-07
1.73015e-07
1.64691e-07
1.53652e-07
1.40477e-07
1.2582e-07
1.10351e-07
9.46989e-08
7.94049e-08
6.49093e-08
5.15263e-08
3.94233e-08
2.86155e-08
1.89722e-08
1.02338e-08
7.19106e-11
2.75243e-13
2.72263e-13
7.11438e-11
1.0129e-08
1.8784e-08
2.83433e-08
3.9069e-08
5.10962e-08
6.44148e-08
7.88624e-08
9.41286e-08
1.09776e-07
1.25263e-07
1.39965e-07
1.53208e-07
1.64337e-07
1.72769e-07
1.78049e-07
1.79885e-07
1.78175e-07
1.73015e-07
1.64691e-07
1.53652e-07
1.40477e-07
1.2582e-07
1.10351e-07
9.46989e-08
7.94049e-08
6.49093e-08
5.15263e-08
3.94233e-08
2.86155e-08
1.89722e-08
1.02338e-08
7.19106e-11
2.75243e-13
2.72263e-13
7.11438e-11
1.0129e-08
1.8784e-08
2.83433e-08
3.9069e-08
5.10962e-08
6.44148e-08
7.88624e-08
9.41286e-08
1.09776e-07
1.25263e-07
1.39965e-07
1.53208e-07
1.64337e-07
1.72769e-07
1.78049e-07
1.79885e-07
1.78175e-07
1.73015e-07
1.64691e-07
1.53652e-07
1.40477e-07
1.2582e-07
1.10351e-07
9.46989e-08
7.94049e-08
6.49093e-08
5.15263e-08
3.94233e-08
2.86155e-08
1.89722e-08
1.02338e-08
7.19106e-11
2.75243e-13
2.72263e-13
7.11438e-11
1.0129e-08
1.8784e-08
2.83433e-08
3.9069e-08
5.10962e-08
6.44148e-08
7.88624e-08
9.41286e-08
1.09776e-07
1.25263e-07
1.39965e-07
1.53208e-07
1.64337e-07
1.72769e-07
1.78049e-07
1.79885e-07
1.78175e-07
1.73015e-07
1.64691e-07
1.53652e-07
1.40477e-07
1.2582e-07
1.10351e-07
9.46989e-08
7.94049e-08
6.49093e-08
5.15263e-08
3.94233e-08
2.86155e-08
1.89722e-08
1.02338e-08
7.19106e-11
2.75243e-13
2.72263e-13
7.11438e-11
1.0129e-08
1.8784e-08
2.83433e-08
3.9069e-08
5.10962e-08
6.44148e-08
7.88624e-08
9.41286e-08
1.09776e-07
1.25263e-07
1.39965e-07
1.53208e-07
1.64337e-07
1.72769e-07
1.78049e-07
1.79885e-07
1.78175e-07
1.73015e-07
1.64691e-07
1.53652e-07
1.40477e-07
1.2582e-07
1.10351e-07
9.46989e-08
7.94049e-08
6.49093e-08
5.15263e-08
3.94233e-08
2.86155e-08
1.89722e-08
1.02338e-08
7.19106e-11
2.75243e-13
2.72263e-13
7.11438e-11
1.0129e-08
1.8784e-08
2.83433e-08
3.9069e-08
5.10962e-08
6.44148e-08
7.88624e-08
9.41286e-08
1.09776e-07
1.25263e-07
1.39965e-07
1.53208e-07
1.64337e-07
1.72769e-07
1.78049e-07
1.79885e-07
1.78175e-07
1.73015e-07
1.64691e-07
1.53652e-07
1.40477e-07
1.2582e-07
1.10351e-07
9.46989e-08
7.94049e-08
6.49093e-08
5.15263e-08
3.94233e-08
2.86155e-08
1.89722e-08
1.02338e-08
7.19106e-11
2.75243e-13
2.72263e-13
7.11438e-11
1.0129e-08
1.8784e-08
2.83433e-08
3.9069e-08
5.10962e-08
6.44148e-08
7.88624e-08
9.41286e-08
1.09776e-07
1.25263e-07
1.39965e-07
1.53208e-07
1.64337e-07
1.72769e-07
1.78049e-07
1.79885e-07
1.78175e-07
1.73015e-07
1.64691e-07
1.53652e-07
1.40477e-07
1.2582e-07
1.10351e-07
9.46989e-08
7.94049e-08
6.49093e-08
5.15263e-08
3.94233e-08
2.86155e-08
1.89722e-08
1.02338e-08
7.19106e-11
2.75243e-13
2.72263e-13
7.11438e-11
1.0129e-08
1.8784e-08
2.83433e-08
3.9069e-08
5.10962e-08
6.44148e-08
7.88624e-08
9.41286e-08
1.09776e-07
1.25263e-07
1.39965e-07
1.53208e-07
1.64337e-07
1.72769e-07
1.78049e-07
1.79885e-07
1.78175e-07
1.73015e-07
1.64691e-07
1.53652e-07
1.40477e-07
1.2582e-07
1.10351e-07
9.46989e-08
7.94049e-08
6.49093e-08
5.15263e-08
3.94233e-08
2.86155e-08
1.89722e-08
1.02338e-08
7.19106e-11
2.75243e-13
2.72263e-13
7.11438e-11
1.0129e-08
1.8784e-08
2.83433e-08
3.9069e-08
5.10962e-08
6.44148e-08
7.88624e-08
9.41286e-08
1.09776e-07
1.25263e-07
1.39965e-07
1.53208e-07
1.64337e-07
1.72769e-07
1.78049e-07
1.79885e-07
1.78175e-07
1.73015e-07
1.64691e-07
1.53652e-07
1.40477e-07
1.2582e-07
1.10351e-07
9.46989e-08
7.94049e-08
6.49093e-08
5.15263e-08
3.94233e-08
2.86155e-08
1.89722e-08
1.02338e-08
7.19106e-11
2.75243e-13
2.72263e-13
7.11438e-11
1.0129e-08
1.8784e-08
2.83433e-08
3.9069e-08
5.10962e-08
6.44148e-08
7.88624e-08
9.41286e-08
1.09776e-07
1.25263e-07
1.39965e-07
1.53208e-07
1.64337e-07
1.72769e-07
1.78049e-07
1.79885e-07
1.78175e-07
1.73015e-07
1.64691e-07
1.53652e-07
1.40477e-07
1.2582e-07
1.10351e-07
9.46989e-08
7.94049e-08
6.49093e-08
5.15263e-08
3.94233e-08
2.86155e-08
1.89722e-08
1.02338e-08
7.19106e-11
2.75243e-13
2.72263e-13
7.11438e-11
1.0129e-08
1.8784e-08
2.83433e-08
3.9069e-08
5.10962e-08
6.44148e-08
7.88624e-08
9.41286e-08
1.09776e-07
1.25263e-07
1.39965e-07
1.53208e-07
1.64337e-07
1.72769e-07
1.78049e-07
1.79885e-07
1.78175e-07
1.73015e-07
1.64691e-07
1.53652e-07
1.40477e-07
1.2582e-07
1.10351e-07
9.46989e-08
7.94049e-08
6.49093e-08
5.15263e-08
3.94233e-08
2.86155e-08
1.89722e-08
1.02338e-08
7.19106e-11
2.75243e-13
2.72263e-13
7.11438e-11
1.0129e-08
1.8784e-08
2.83433e-08
3.9069e-08
5.10962e-08
6.44148e-08
7.88624e-08
9.41286e-08
1.09776e-07
1.25263e-07
1.39965e-07
1.53208e-07
1.64337e-07
1.72769e-07
1.78049e-07
1.79885e-07
1.78175e-07
1.73015e-07
1.64691e-07
1.53652e-07
1.40477e-07
1.2582e-07
1.10351e-07
9.46989e-08
7.94049e-08
6.49093e-08
5.15263e-08
3.94233e-08
2.86155e-08
1.89722e-08
1.02338e-08
7.19106e-11
2.75243e-13
2.72263e-13
7.11438e-11
1.0129e-08
1.8784e-08
2.83433e-08
3.9069e-08
5.10962e-08
6.44148e-08
7.88624e-08
9.41286e-08
1.09776e-07
1.25263e-07
1.39965e-07
1.53208e-07
1.64337e-07
1.72769e-07
1.78049e-07
1.79885e-07
1.78175e-07
1.73015e-07
1.64691e-07
1.53652e-07
1.40477e-07
1.2582e-07
1.10351e-07
9.46989e-08
7.94049e-08
6.49093e-08
5.15263e-08
3.94233e-08
2.86155e-08
1.89722e-08
1.02338e-08
7.19106e-11
2.75243e-13
2.72263e-13
7.11438e-11
1.0129e-08
1.8784e-08
2.83433e-08
3.9069e-08
5.10962e-08
6.44148e-08
7.88624e-08
9.41286e-08
1.09776e-07
1.25263e-07
1.39965e-07
1.53208e-07
1.64337e-07
1.72769e-07
1.78049e-07
1.79885e-07
1.78175e-07
1.73015e-07
1.64691e-07
1.53652e-07
1.40477e-07
1.2582e-07
1.10351e-07
9.46989e-08
7.94049e-08
6.49093e-08
5.15263e-08
3.94233e-08
2.86155e-08
1.89722e-08
1.02338e-08
7.19106e-11
2.75243e-13
2.72263e-13
7.11438e-11
1.0129e-08
1.8784e-08
2.83433e-08
3.9069e-08
5.10962e-08
6.44148e-08
7.88624e-08
9.41286e-08
1.09776e-07
1.25263e-07
1.39965e-07
1.53208e-07
1.64337e-07
1.72769e-07
1.78049e-07
1.79885e-07
1.78175e-07
1.73015e-07
1.64691e-07
1.53652e-07
1.40477e-07
1.2582e-07
1.10351e-07
9.46989e-08
7.94049e-08
6.49093e-08
5.15263e-08
3.94233e-08
2.86155e-08
1.89722e-08
1.02338e-08
7.19106e-11
2.75243e-13
2.72263e-13
7.11438e-11
1.0129e-08
1.8784e-08
2.83433e-08
3.9069e-08
5.10962e-08
6.44148e-08
7.88624e-08
9.41286e-08
1.09776e-07
1.25263e-07
1.39965e-07
1.53208e-07
1.64337e-07
1.72769e-07
1.78049e-07
1.79885e-07
1.78175e-07
1.73015e-07
1.64691e-07
1.53652e-07
1.40477e-07
1.2582e-07
1.10351e-07
9.46989e-08
7.94049e-08
6.49093e-08
5.15263e-08
3.94233e-08
2.86155e-08
1.89722e-08
1.02338e-08
7.19106e-11
2.75243e-13
2.72263e-13
7.11438e-11
1.0129e-08
1.8784e-08
2.83433e-08
3.9069e-08
5.10962e-08
6.44148e-08
7.88624e-08
9.41286e-08
1.09776e-07
1.25263e-07
1.39965e-07
1.53208e-07
1.64337e-07
1.72769e-07
1.78049e-07
1.79885e-07
1.78175e-07
1.73015e-07
1.64691e-07
1.53652e-07
1.40477e-07
1.2582e-07
1.10351e-07
9.46989e-08
7.94049e-08
6.49093e-08
5.15263e-08
3.94233e-08
2.86155e-08
1.89722e-08
1.02338e-08
7.19106e-11
2.75243e-13
2.72263e-13
7.11438e-11
1.0129e-08
1.8784e-08
2.83433e-08
3.9069e-08
5.10962e-08
6.44148e-08
7.88624e-08
9.41286e-08
1.09776e-07
1.25263e-07
1.39965e-07
1.53208e-07
1.64337e-07
1.72769e-07
1.78049e-07
1.79885e-07
1.78175e-07
1.73015e-07
1.64691e-07
1.53652e-07
1.40477e-07
1.2582e-07
1.10351e-07
9.46989e-08
7.94049e-08
6.49093e-08
5.15263e-08
3.94233e-08
2.86155e-08
1.89722e-08
1.02338e-08
7.19106e-11
2.75243e-13
2.72263e-13
7.11438e-11
1.0129e-08
1.8784e-08
2.83433e-08
3.9069e-08
5.10962e-08
6.44148e-08
7.88624e-08
9.41286e-08
1.09776e-07
1.25263e-07
1.39965e-07
1.53208e-07
1.64337e-07
1.72769e-07
1.78049e-07
1.79885e-07
1.78175e-07
1.73015e-07
1.64691e-07
1.53652e-07
1.40477e-07
1.2582e-07
1.10351e-07
9.46989e-08
7.94049e-08
6.49093e-08
5.15263e-08
3.94233e-08
2.86155e-08
1.89722e-08
1.02338e-08
7.19106e-11
2.75243e-13
2.72263e-13
7.11438e-11
1.0129e-08
1.8784e-08
2.83433e-08
3.9069e-08
5.10962e-08
6.44148e-08
7.88624e-08
9.41286e-08
1.09776e-07
1.25263e-07
1.39965e-07
1.53208e-07
1.64337e-07
1.72769e-07
1.78049e-07
1.79885e-07
1.78175e-07
1.73015e-07
1.64691e-07
1.53652e-07
1.40477e-07
1.2582e-07
1.10351e-07
9.46989e-08
7.94049e-08
6.49093e-08
5.15263e-08
3.94233e-08
2.86155e-08
1.89722e-08
1.02338e-08
7.19106e-11
2.75243e-13
2.72263e-13
7.11438e-11
1.0129e-08
1.8784e-08
2.83433e-08
3.9069e-08
5.10962e-08
6.44148e-08
7.88624e-08
9.41286e-08
1.09776e-07
1.25263e-07
1.39965e-07
1.53208e-07
1.64337e-07
1.72769e-07
1.78049e-07
1.79885e-07
1.78175e-07
1.73015e-07
1.64691e-07
1.53652e-07
1.40477e-07
1.2582e-07
1.10351e-07
9.46989e-08
7.94049e-08
6.49093e-08
5.15263e-08
3.94233e-08
2.86155e-08
1.89722e-08
1.02338e-08
7.19106e-11
2.75243e-13
2.72263e-13
7.11438e-11
1.0129e-08
1.8784e-08
2.83433e-08
3.9069e-08
5.10962e-08
6.44148e-08
7.88624e-08
9.41286e-08
1.09776e-07
1.25263e-07
1.39965e-07
1.53208e-07
1.64337e-07
1.72769e-07
1.78049e-07
1.79885e-07
1.78175e-07
1.73015e-07
1.64691e-07
1.53652e-07
1.40477e-07
1.2582e-07
1.10351e-07
9.46989e-08
7.94049e-08
6.49093e-08
5.15263e-08
3.94233e-08
2.86155e-08
1.89722e-08
1.02338e-08
7.19106e-11
2.75243e-13
2.72263e-13
7.11438e-11
1.0129e-08
1.8784e-08
2.83433e-08
3.9069e-08
5.10962e-08
6.44148e-08
7.88624e-08
9.41286e-08
1.09776e-07
1.25263e-07
1.39965e-07
1.53208e-07
1.64337e-07
1.72769e-07
1.78049e-07
1.79885e-07
1.78175e-07
1.73015e-07
1.64691e-07
1.53652e-07
1.40477e-07
1.2582e-07
1.10351e-07
9.46989e-08
7.94049e-08
6.49093e-08
5.15263e-08
3.94233e-08
2.86155e-08
1.89722e-08
1.02338e-08
7.19106e-11
2.75243e-13
2.72263e-13
7.11438e-11
1.0129e-08
1.8784e-08
2.83433e-08
3.9069e-08
5.10962e-08
6.44148e-08
7.88624e-08
9.41286e-08
1.09776e-07
1.25263e-07
1.39965e-07
1.53208e-07
1.64337e-07
1.72769e-07
1.78049e-07
1.79885e-07
1.78175e-07
1.73015e-07
1.64691e-07
1.53652e-07
1.40477e-07
1.2582e-07
1.10351e-07
9.46989e-08
7.94049e-08
6.49093e-08
5.15263e-08
3.94233e-08
2.86155e-08
1.89722e-08
1.02338e-08
7.19106e-11
2.75243e-13
2.72263e-13
7.11438e-11
1.0129e-08
1.8784e-08
2.83433e-08
3.9069e-08
5.10962e-08
6.44148e-08
7.88624e-08
9.41286e-08
1.09776e-07
1.25263e-07
1.39965e-07
1.53208e-07
1.64337e-07
1.72769e-07
1.78049e-07
1.79885e-07
1.78175e-07
1.73015e-07
1.64691e-07
1.53652e-07
1.40477e-07
1.2582e-07
1.10351e-07
9.46989e-08
7.94049e-08
6.49093e-08
5.15263e-08
3.94233e-08
2.86155e-08
1.89722e-08
1.02338e-08
7.19106e-11
2.75243e-13
2.72263e-13
7.11438e-11
1.0129e-08
1.8784e-08
2.83433e-08
3.9069e-08
5.10962e-08
6.44148e-08
7.88624e-08
9.41286e-08
1.09776e-07
1.25263e-07
1.39965e-07
1.53208e-07
1.64337e-07
1.72769e-07
1.78049e-07
1.79885e-07
1.78175e-07
1.73015e-07
1.64691e-07
1.53652e-07
1.40477e-07
1.2582e-07
1.10351e-07
9.46989e-08
7.94049e-08
6.49093e-08
5.15263e-08
3.94233e-08
2.86155e-08
1.89722e-08
1.02338e-08
7.19106e-11
2.75243e-13
2.72263e-13
7.11438e-11
1.0129e-08
1.8784e-08
2.83433e-08
3.9069e-08
5.10962e-08
6.44148e-08
7.88624e-08
9.41286e-08
1.09776e-07
1.25263e-07
1.39965e-07
1.53208e-07
1.64337e-07
1.72769e-07
1.78049e-07
1.79885e-07
1.78175e-07
1.73015e-07
1.64691e-07
1.53652e-07
1.40477e-07
1.2582e-07
1.10351e-07
9.46989e-08
7.94049e-08
6.49093e-08
5.15263e-08
3.94233e-08
2.86155e-08
1.89722e-08
1.02338e-08
7.19106e-11
2.75243e-13
2.72263e-13
7.11438e-11
1.0129e-08
1.8784e-08
2.83433e-08
3.9069e-08
5.10962e-08
6.44148e-08
7.88624e-08
9.41286e-08
1.09776e-07
1.25263e-07
1.39965e-07
1.53208e-07
1.64337e-07
1.72769e-07
1.78049e-07
1.79885e-07
1.78175e-07
1.73015e-07
1.64691e-07
1.53652e-07
1.40477e-07
1.2582e-07
1.10351e-07
9.46989e-08
7.94049e-08
6.49093e-08
5.15263e-08
3.94233e-08
2.86155e-08
1.89722e-08
1.02338e-08
7.19106e-11
2.75243e-13
2.72263e-13
7.11438e-11
1.0129e-08
1.8784e-08
2.83433e-08
3.9069e-08
5.10962e-08
6.44148e-08
7.88624e-08
9.41286e-08
1.09776e-07
1.25263e-07
1.39965e-07
1.53208e-07
1.64337e-07
1.72769e-07
1.78049e-07
1.79885e-07
1.78175e-07
1.73015e-07
1.64691e-07
1.53652e-07
1.40477e-07
1.2582e-07
1.10351e-07
9.46989e-08
7.94049e-08
6.49093e-08
5.15263e-08
3.94233e-08
2.86155e-08
1.89722e-08
1.02338e-08
7.19106e-11
2.75243e-13
2.72263e-13
7.11438e-11
1.0129e-08
1.8784e-08
2.83433e-08
3.9069e-08
5.10962e-08
6.44148e-08
7.88624e-08
9.41286e-08
1.09776e-07
1.25263e-07
1.39965e-07
1.53208e-07
1.64337e-07
1.72769e-07
1.78049e-07
1.79885e-07
1.78175e-07
1.73015e-07
1.64691e-07
1.53652e-07
1.40477e-07
1.2582e-07
1.10351e-07
9.46989e-08
7.94049e-08
6.49093e-08
5.15263e-08
3.94233e-08
2.86155e-08
1.89722e-08
1.02338e-08
7.19106e-11
2.75243e-13
2.72263e-13
7.11438e-11
1.0129e-08
1.8784e-08
2.83433e-08
3.9069e-08
5.10962e-08
6.44148e-08
7.88624e-08
9.41286e-08
1.09776e-07
1.25263e-07
1.39965e-07
1.53208e-07
1.64337e-07
1.72769e-07
1.78049e-07
1.79885e-07
1.78175e-07
1.73015e-07
1.64691e-07
1.53652e-07
1.40477e-07
1.2582e-07
1.10351e-07
9.46989e-08
7.94049e-08
6.49093e-08
5.15263e-08
3.94233e-08
2.86155e-08
1.89722e-08
1.02338e-08
7.19106e-11
2.75243e-13
2.72263e-13
7.11438e-11
1.0129e-08
1.8784e-08
2.83433e-08
3.9069e-08
5.10962e-08
6.44148e-08
7.88624e-08
9.41286e-08
1.09776e-07
1.25263e-07
1.39965e-07
1.53208e-07
1.64337e-07
1.72769e-07
1.78049e-07
1.79885e-07
1.78175e-07
1.73015e-07
1.64691e-07
1.53652e-07
1.40477e-07
1.2582e-07
1.10351e-07
9.46989e-08
7.94049e-08
6.49093e-08
5.15263e-08
3.94233e-08
2.86155e-08
1.89722e-08
1.02338e-08
7.19106e-11
2.75243e-13
2.72263e-13
7.11438e-11
1.0129e-08
1.8784e-08
2.83433e-08
3.9069e-08
5.10962e-08
6.44148e-08
7.88624e-08
9.41286e-08
1.09776e-07
1.25263e-07
1.39965e-07
1.53208e-07
1.64337e-07
1.72769e-07
1.78049e-07
1.79885e-07
1.78175e-07
1.73015e-07
1.64691e-07
1.53652e-07
1.40477e-07
1.2582e-07
1.10351e-07
9.46989e-08
7.94049e-08
6.49093e-08
5.15263e-08
3.94233e-08
2.86155e-08
1.89722e-08
1.02338e-08
7.19106e-11
2.75243e-13
2.72263e-13
7.11438e-11
1.0129e-08
1.8784e-08
2.83433e-08
3.9069e-08
5.10962e-08
6.44148e-08
7.88624e-08
9.41286e-08
1.09776e-07
1.25263e-07
1.39965e-07
1.53208e-07
1.64337e-07
1.72769e-07
1.78049e-07
1.79885e-07
1.78175e-07
1.73015e-07
1.64691e-07
1.53652e-07
1.40477e-07
1.2582e-07
1.10351e-07
9.46989e-08
7.94049e-08
6.49093e-08
5.15263e-08
3.94233e-08
2.86155e-08
1.89722e-08
1.02338e-08
7.19106e-11
2.75243e-13
2.72263e-13
7.11438e-11
1.0129e-08
1.8784e-08
2.83433e-08
3.9069e-08
5.10962e-08
6.44148e-08
7.88624e-08
9.41286e-08
1.09776e-07
1.25263e-07
1.39965e-07
1.53208e-07
1.64337e-07
1.72769e-07
1.78049e-07
1.79885e-07
1.78175e-07
1.73015e-07
1.64691e-07
1.53652e-07
1.40477e-07
1.2582e-07
1.10351e-07
9.46989e-08
7.94049e-08
6.49093e-08
5.15263e-08
3.94233e-08
2.86155e-08
1.89722e-08
1.02338e-08
7.19106e-11
2.75243e-13
2.72263e-13
7.11438e-11
1.0129e-08
1.8784e-08
2.83433e-08
3.9069e-08
5.10962e-08
6.44148e-08
7.88624e-08
9.41286e-08
1.09776e-07
1.25263e-07
1.39965e-07
1.53208e-07
1.64337e-07
1.72769e-07
1.78049e-07
1.79885e-07
1.78175e-07
1.73015e-07
1.64691e-07
1.53652e-07
1.40477e-07
1.2582e-07
1.10351e-07
9.46989e-08
7.94049e-08
6.49093e-08
5.15263e-08
3.94233e-08
2.86155e-08
1.89722e-08
1.02338e-08
7.19106e-11
2.75243e-13
2.72263e-13
7.11438e-11
1.0129e-08
1.8784e-08
2.83433e-08
3.9069e-08
5.10962e-08
6.44148e-08
7.88624e-08
9.41286e-08
1.09776e-07
1.25263e-07
1.39965e-07
1.53208e-07
1.64337e-07
1.72769e-07
1.78049e-07
1.79885e-07
1.78175e-07
1.73015e-07
1.64691e-07
1.53652e-07
1.40477e-07
1.2582e-07
1.10351e-07
9.46989e-08
7.94049e-08
6.49093e-08
5.15263e-08
3.94233e-08
2.86155e-08
1.89722e-08
1.02338e-08
7.19106e-11
2.75243e-13
2.72263e-13
7.11438e-11
1.0129e-08
1.8784e-08
2.83433e-08
3.9069e-08
5.10962e-08
6.44148e-08
7.88624e-08
9.41286e-08
1.09776e-07
1.25263e-07
1.39965e-07
1.53208e-07
1.64337e-07
1.72769e-07
1.78049e-07
1.79885e-07
1.78175e-07
1.73015e-07
1.64691e-07
1.53652e-07
1.40477e-07
1.2582e-07
1.10351e-07
9.46989e-08
7.94049e-08
6.49093e-08
5.15263e-08
3.94233e-08
2.86155e-08
1.89722e-08
1.02338e-08
7.19106e-11
2.75243e-13
2.72263e-13
7.11438e-11
1.0129e-08
1.8784e-08
2.83433e-08
3.9069e-08
5.10962e-08
6.44148e-08
7.88624e-08
9.41286e-08
1.09776e-07
1.25263e-07
1.39965e-07
1.53208e-07
1.64337e-07
1.72769e-07
1.78049e-07
1.79885e-07
1.78175e-07
1.73015e-07
1.64691e-07
1.53652e-07
1.40477e-07
1.2582e-07
1.10351e-07
9.46989e-08
7.94049e-08
6.49093e-08
5.15263e-08
3.94233e-08
2.86155e-08
1.89722e-08
1.02338e-08
7.19106e-11
2.75243e-13
2.72263e-13
7.11438e-11
1.0129e-08
1.8784e-08
2.83433e-08
3.9069e-08
5.10962e-08
6.44148e-08
7.88624e-08
9.41286e-08
1.09776e-07
1.25263e-07
1.39965e-07
1.53208e-07
1.64337e-07
1.72769e-07
1.78049e-07
1.79885e-07
1.78175e-07
1.73015e-07
1.64691e-07
1.53652e-07
1.40477e-07
1.2582e-07
1.10351e-07
9.46989e-08
7.94049e-08
6.49093e-08
5.15263e-08
3.94233e-08
2.86155e-08
1.89722e-08
1.02338e-08
7.19106e-11
2.75243e-13
2.72263e-13
7.11438e-11
1.0129e-08
1.8784e-08
2.83433e-08
3.9069e-08
5.10962e-08
6.44148e-08
7.88624e-08
9.41286e-08
1.09776e-07
1.25263e-07
1.39965e-07
1.53208e-07
1.64337e-07
1.72769e-07
1.78049e-07
1.79885e-07
1.78175e-07
1.73015e-07
1.64691e-07
1.53652e-07
1.40477e-07
1.2582e-07
1.10351e-07
9.46989e-08
7.94049e-08
6.49093e-08
5.15263e-08
3.94233e-08
2.86155e-08
1.89722e-08
1.02338e-08
7.19106e-11
2.75243e-13
2.72263e-13
7.11438e-11
1.0129e-08
1.8784e-08
2.83433e-08
3.9069e-08
5.10962e-08
6.44148e-08
7.88624e-08
9.41286e-08
1.09776e-07
1.25263e-07
1.39965e-07
1.53208e-07
1.64337e-07
1.72769e-07
1.78049e-07
1.79885e-07
1.78175e-07
1.73015e-07
1.64691e-07
1.53652e-07
1.40477e-07
1.2582e-07
1.10351e-07
9.46989e-08
7.94049e-08
6.49093e-08
5.15263e-08
3.94233e-08
2.86155e-08
1.89722e-08
1.02338e-08
7.19106e-11
2.75243e-13
2.72263e-13
7.11438e-11
1.0129e-08
1.8784e-08
2.83433e-08
3.9069e-08
5.10962e-08
6.44148e-08
7.88624e-08
9.41286e-08
1.09776e-07
1.25263e-07
1.39965e-07
1.53208e-07
1.64337e-07
1.72769e-07
1.78049e-07
1.79885e-07
1.78175e-07
1.73015e-07
1.64691e-07
1.53652e-07
1.40477e-07
1.2582e-07
1.10351e-07
9.46989e-08
7.94049e-08
6.49093e-08
5.15263e-08
3.94233e-08
2.86155e-08
1.89722e-08
1.02338e-08
7.19106e-11
2.75243e-13
2.72263e-13
7.11438e-11
1.0129e-08
1.8784e-08
2.83433e-08
3.9069e-08
5.10962e-08
6.44148e-08
7.88624e-08
9.41286e-08
1.09776e-07
1.25263e-07
1.39965e-07
1.53208e-07
1.64337e-07
1.72769e-07
1.78049e-07
1.79885e-07
1.78175e-07
1.73015e-07
1.64691e-07
1.53652e-07
1.40477e-07
1.2582e-07
1.10351e-07
9.46989e-08
7.94049e-08
6.49093e-08
5.15263e-08
3.94233e-08
2.86155e-08
1.89722e-08
1.02338e-08
7.19106e-11
2.75243e-13
2.72263e-13
7.11438e-11
1.0129e-08
1.8784e-08
2.83433e-08
3.9069e-08
5.10962e-08
6.44148e-08
7.88624e-08
9.41286e-08
1.09776e-07
1.25263e-07
1.39965e-07
1.53208e-07
1.64337e-07
1.72769e-07
1.78049e-07
1.79885e-07
1.78175e-07
1.73015e-07
1.64691e-07
1.53652e-07
1.40477e-07
1.2582e-07
1.10351e-07
9.46989e-08
7.94049e-08
6.49093e-08
5.15263e-08
3.94233e-08
2.86155e-08
1.89722e-08
1.02338e-08
7.19106e-11
2.75243e-13
2.72263e-13
7.11438e-11
1.0129e-08
1.8784e-08
2.83433e-08
3.9069e-08
5.10962e-08
6.44148e-08
7.88624e-08
9.41286e-08
1.09776e-07
1.25263e-07
1.39965e-07
1.53208e-07
1.64337e-07
1.72769e-07
1.78049e-07
1.79885e-07
1.78175e-07
1.73015e-07
1.64691e-07
1.53652e-07
1.40477e-07
1.2582e-07
1.10351e-07
9.46989e-08
7.94049e-08
6.49093e-08
5.15263e-08
3.94233e-08
2.86155e-08
1.89722e-08
1.02338e-08
7.19106e-11
2.75243e-13
2.72263e-13
7.11438e-11
1.0129e-08
1.8784e-08
2.83433e-08
3.9069e-08
5.10962e-08
6.44148e-08
7.88624e-08
9.41286e-08
1.09776e-07
1.25263e-07
1.39965e-07
1.53208e-07
1.64337e-07
1.72769e-07
1.78049e-07
1.79885e-07
1.78175e-07
1.73015e-07
1.64691e-07
1.53652e-07
1.40477e-07
1.2582e-07
1.10351e-07
9.46989e-08
7.94049e-08
6.49093e-08
5.15263e-08
3.94233e-08
2.86155e-08
1.89722e-08
1.02338e-08
7.19106e-11
2.75243e-13
2.72263e-13
7.11438e-11
1.0129e-08
1.8784e-08
2.83433e-08
3.9069e-08
5.10962e-08
6.44148e-08
7.88624e-08
9.41286e-08
1.09776e-07
1.25263e-07
1.39965e-07
1.53208e-07
1.64337e-07
1.72769e-07
1.78049e-07
1.79885e-07
1.78175e-07
1.73015e-07
1.64691e-07
1.53652e-07
1.40477e-07
1.2582e-07
1.10351e-07
9.46989e-08
7.94049e-08
6.49093e-08
5.15263e-08
3.94233e-08
2.86155e-08
1.89722e-08
1.02338e-08
7.19106e-11
2.75243e-13
2.72263e-13
7.11438e-11
1.0129e-08
1.8784e-08
2.83433e-08
3.9069e-08
5.10962e-08
6.44148e-08
7.88624e-08
9.41286e-08
1.09776e-07
1.25263e-07
1.39965e-07
1.53208e-07
1.64337e-07
1.72769e-07
1.78049e-07
1.79885e-07