/*--------------------------------*- C++ -*----------------------------------*\
  =========                 |
  \\      /  F ield         | OpenFOAM: The Open Source CFD Toolbox
   \\    /   O peration     | Website:  https://openfoam.org
    \\  /    A nd           | Version:  13
     \\/     M anipulation  |
\*---------------------------------------------------------------------------*/
FoamFile
{
    format      ascii;
    class       volScalarField;
    location    "47";
    object      nut;
}
// * * * * * * * * * * * * * * * * * * * * * * * * * * * * * * * * * * * * * //

dimensions      [0 2 -1 0 0 0 0];

internalField   nonuniform List<scalar> 
78750
(
3.27176e-19
2.94458e-18
1.46562e-17
1.46562e-17
1.46562e-17
1.46562e-17
1.46562e-17
1.46562e-17
1.46562e-17
1.46562e-17
1.46562e-17
1.46562e-17
1.46562e-17
1.46562e-17
1.46562e-17
1.46562e-17
1.46562e-17
1.46562e-17
1.46562e-17
1.46562e-17
1.46562e-17
1.46562e-17
1.46562e-17
1.46562e-17
1.46562e-17
1.46562e-17
1.46562e-17
1.46562e-17
1.46562e-17
1.46562e-17
1.46562e-17
1.46562e-17
1.46562e-17
2.94458e-18
3.27176e-19
3.27176e-19
2.94458e-18
8.33901e-17
8.33901e-17
8.33901e-17
8.33901e-17
8.33901e-17
8.33901e-17
8.33901e-17
8.33901e-17
8.33901e-17
8.33901e-17
8.33901e-17
8.33901e-17
8.33901e-17
8.33901e-17
8.33901e-17
8.33901e-17
8.33901e-17
8.33901e-17
8.33901e-17
8.33901e-17
8.33901e-17
8.33901e-17
8.33901e-17
8.33901e-17
8.33901e-17
8.33901e-17
8.33901e-17
8.33901e-17
8.33901e-17
8.33901e-17
8.33901e-17
2.94458e-18
3.27176e-19
3.27176e-19
2.94458e-18
8.33901e-17
8.33901e-17
8.33901e-17
8.33901e-17
8.33901e-17
8.33901e-17
8.33901e-17
8.33901e-17
8.33901e-17
8.33901e-17
8.33901e-17
8.33901e-17
8.33901e-17
8.33901e-17
8.33901e-17
8.33901e-17
8.33901e-17
8.33901e-17
8.33901e-17
8.33901e-17
8.33901e-17
8.33901e-17
8.33901e-17
8.33901e-17
8.33901e-17
8.33901e-17
8.33901e-17
8.33901e-17
8.33901e-17
8.33901e-17
8.33901e-17
2.94458e-18
3.27176e-19
3.27176e-19
2.94458e-18
8.33901e-17
8.33901e-17
8.33901e-17
8.33901e-17
8.33901e-17
8.33901e-17
8.33901e-17
8.33901e-17
8.33901e-17
8.48462e-17
9.05194e-17
9.62451e-17
1.01338e-16
1.0532e-16
1.07869e-16
1.08796e-16
1.08033e-16
1.05636e-16
1.01782e-16
9.67811e-17
9.10921e-17
8.53742e-17
8.33901e-17
8.33901e-17
8.33901e-17
8.33901e-17
8.33901e-17
8.33901e-17
8.33901e-17
8.33901e-17
8.33901e-17
2.94458e-18
3.27176e-19
3.27176e-19
2.94458e-18
8.33901e-17
8.33901e-17
8.33901e-17
8.33901e-17
8.33901e-17
8.33901e-17
8.68455e-17
9.65176e-17
1.07781e-16
1.19646e-16
1.3126e-16
1.41882e-16
1.50879e-16
1.57731e-16
1.6205e-16
1.63594e-16
1.62276e-16
1.5817e-16
1.51506e-16
1.42662e-16
1.32147e-16
1.20591e-16
1.08735e-16
9.74018e-17
8.75365e-17
8.33901e-17
8.33901e-17
8.33901e-17
8.33901e-17
8.33901e-17
8.33901e-17
2.94458e-18
3.27176e-19
3.27176e-19
2.94458e-18
8.33901e-17
8.33901e-17
8.33901e-17
8.33901e-17
8.33901e-17
9.3851e-17
1.07578e-16
1.23397e-16
1.40294e-16
1.57323e-16
1.73591e-16
1.88261e-16
2.0058e-16
2.09913e-16
2.15775e-16
2.17859e-16
2.16056e-16
2.10459e-16
2.01361e-16
1.89235e-16
1.74706e-16
1.58519e-16
1.41508e-16
1.24568e-16
1.08642e-16
9.47504e-17
8.40126e-17
8.33901e-17
8.33901e-17
8.33901e-17
8.33901e-17
2.94458e-18
3.27176e-19
3.27176e-19
2.94458e-18
8.33901e-17
8.33901e-17
8.33901e-17
8.33901e-17
9.41996e-17
1.0996e-16
1.28624e-16
1.4918e-16
1.70632e-16
1.91979e-16
2.1222e-16
2.3039e-16
2.45605e-16
2.5711e-16
2.64325e-16
2.66882e-16
2.6465e-16
2.57742e-16
2.4651e-16
2.31519e-16
2.13515e-16
1.93374e-16
1.72058e-16
1.50567e-16
1.29908e-16
1.11081e-16
9.51082e-17
8.33901e-17
8.33901e-17
8.33901e-17
8.33901e-17
2.94458e-18
3.27176e-19
3.27176e-19
2.94458e-18
8.33901e-17
8.33901e-17
8.33901e-17
8.92737e-17
1.05102e-16
1.24802e-16
1.4735e-16
1.71755e-16
1.96983e-16
2.21949e-16
2.45544e-16
2.66682e-16
2.84358e-16
2.97711e-16
3.06077e-16
3.09036e-16
3.06436e-16
2.9841e-16
2.85359e-16
2.67933e-16
2.4698e-16
2.23498e-16
1.9857e-16
1.73306e-16
1.48793e-16
1.26071e-16
1.06134e-16
9.00012e-17
8.33901e-17
8.33901e-17
8.33901e-17
2.94458e-18
3.27176e-19
3.27176e-19
2.94458e-18
8.33901e-17
8.33901e-17
8.33901e-17
9.55858e-17
1.14598e-16
1.37372e-16
1.62999e-16
1.90495e-16
2.18781e-16
2.46694e-16
2.73029e-16
2.96595e-16
3.16287e-16
3.31155e-16
3.40465e-16
3.43752e-16
3.4085e-16
3.31905e-16
3.17362e-16
2.97938e-16
2.74571e-16
2.48359e-16
2.20489e-16
1.92168e-16
1.64565e-16
1.38767e-16
1.15769e-16
9.64948e-17
8.33901e-17
8.33901e-17
8.33901e-17
2.94458e-18
3.27176e-19
3.27176e-19
2.94458e-18
8.33901e-17
8.33901e-17
8.45992e-17
1.01116e-16
1.22361e-16
1.4744e-16
1.75436e-16
2.05339e-16
2.36019e-16
2.66246e-16
2.94734e-16
3.2021e-16
3.41488e-16
3.57548e-16
3.676e-16
3.71145e-16
3.68004e-16
3.58334e-16
3.42616e-16
3.21619e-16
2.96353e-16
2.67995e-16
2.37814e-16
2.07098e-16
1.77085e-16
1.4891e-16
1.23597e-16
1.0207e-16
8.52362e-17
8.33901e-17
8.33901e-17
2.94458e-18
3.27176e-19
3.27176e-19
2.94458e-18
8.33901e-17
8.33901e-17
8.7191e-17
1.05355e-16
1.28282e-16
1.55091e-16
1.84867e-16
2.16578e-16
2.4906e-16
2.81029e-16
3.1114e-16
3.38057e-16
3.60531e-16
3.77489e-16
3.88101e-16
3.9184e-16
3.88519e-16
3.78301e-16
3.61695e-16
3.39512e-16
3.12813e-16
2.82836e-16
2.50915e-16
2.18398e-16
1.86574e-16
1.56616e-16
1.29566e-16
1.06348e-16
8.78521e-17
8.33901e-17
8.33901e-17
2.94458e-18
3.27176e-19
3.27176e-19
2.94458e-18
8.33901e-17
8.33901e-17
8.90845e-17
1.08443e-16
1.32584e-16
1.6064e-16
1.91698e-16
2.24713e-16
2.58494e-16
2.91721e-16
3.23005e-16
3.50961e-16
3.743e-16
3.91907e-16
4.02923e-16
4.06802e-16
4.03349e-16
3.92736e-16
3.75488e-16
3.52447e-16
3.24712e-16
2.93567e-16
2.6039e-16
2.26574e-16
1.93445e-16
1.62205e-16
1.33906e-16
1.09469e-16
8.97682e-17
8.33901e-17
8.33901e-17
2.94458e-18
3.27176e-19
3.27176e-19
2.94458e-18
8.33901e-17
8.33901e-17
9.04172e-17
1.10605e-16
1.35582e-16
1.64495e-16
1.96433e-16
2.30347e-16
2.65025e-16
2.9912e-16
3.31213e-16
3.59889e-16
3.83824e-16
4.0188e-16
4.13175e-16
4.1715e-16
4.13606e-16
4.02719e-16
3.85027e-16
3.61392e-16
3.32942e-16
3.00989e-16
2.66945e-16
2.32232e-16
1.98203e-16
1.66079e-16
1.36919e-16
1.11642e-16
9.11062e-17
8.33901e-17
8.33901e-17
2.94458e-18
3.27176e-19
3.27176e-19
2.94458e-18
8.33901e-17
8.33901e-17
9.13015e-17
1.12039e-16
1.37569e-16
1.67048e-16
1.9957e-16
2.34078e-16
2.69349e-16
3.04018e-16
3.36647e-16
3.65798e-16
3.90128e-16
4.0848e-16
4.1996e-16
4.23998e-16
4.20394e-16
4.09325e-16
3.91339e-16
3.67312e-16
3.38388e-16
3.059e-16
2.71282e-16
2.35976e-16
2.01352e-16
1.68643e-16
1.38915e-16
1.13082e-16
9.19924e-17
8.33901e-17
8.33901e-17
2.94458e-18
3.27176e-19
3.27176e-19
2.94458e-18
8.33901e-17
8.33901e-17
9.18621e-17
1.12948e-16
1.38828e-16
1.68666e-16
2.01557e-16
2.36442e-16
2.72088e-16
3.07122e-16
3.4009e-16
3.69542e-16
3.94122e-16
4.12662e-16
4.24259e-16
4.28337e-16
4.24694e-16
4.13511e-16
3.95338e-16
3.71062e-16
3.41837e-16
3.09011e-16
2.74029e-16
2.38347e-16
2.03346e-16
1.70268e-16
1.4018e-16
1.13995e-16
9.25558e-17
8.33901e-17
8.33901e-17
2.94458e-18
3.27176e-19
3.27176e-19
2.94458e-18
8.33901e-17
8.33901e-17
9.22025e-17
1.13499e-16
1.39592e-16
1.69649e-16
2.02764e-16
2.37877e-16
2.73751e-16
3.09006e-16
3.4218e-16
3.71815e-16
3.96547e-16
4.15201e-16
4.26868e-16
4.30971e-16
4.27305e-16
4.16051e-16
3.97765e-16
3.73338e-16
3.43931e-16
3.10899e-16
2.75696e-16
2.39787e-16
2.04559e-16
1.71257e-16
1.40953e-16
1.14558e-16
9.29065e-17
8.33901e-17
8.33901e-17
2.94458e-18
3.27176e-19
3.27176e-19
2.94458e-18
8.33901e-17
8.33901e-17
9.24007e-17
1.13821e-16
1.40037e-16
1.7022e-16
2.03466e-16
2.38712e-16
2.7472e-16
3.10103e-16
3.43397e-16
3.73138e-16
3.97958e-16
4.16679e-16
4.28387e-16
4.32504e-16
4.28824e-16
4.17529e-16
3.99178e-16
3.74662e-16
3.45149e-16
3.11997e-16
2.76666e-16
2.40625e-16
2.05264e-16
1.71833e-16
1.41403e-16
1.14886e-16
9.31111e-17
8.33901e-17
8.33901e-17
2.94458e-18
3.27176e-19
3.27176e-19
2.94458e-18
8.33901e-17
8.33901e-17
9.25114e-17
1.14e-16
1.40286e-16
1.7054e-16
2.03858e-16
2.39179e-16
2.7526e-16
3.10716e-16
3.44076e-16
3.73877e-16
3.98747e-16
4.17504e-16
4.29235e-16
4.3336e-16
4.29673e-16
4.18355e-16
3.99967e-16
3.75402e-16
3.4583e-16
3.12611e-16
2.77208e-16
2.41093e-16
2.05658e-16
1.72154e-16
1.41655e-16
1.15069e-16
9.32252e-17
8.33901e-17
8.33901e-17
2.94458e-18
3.27176e-19
3.27176e-19
2.94458e-18
8.33901e-17
8.33901e-17
9.25709e-17
1.14096e-16
1.40419e-16
1.70711e-16
2.04069e-16
2.39429e-16
2.7555e-16
3.11044e-16
3.44441e-16
3.74273e-16
3.9917e-16
4.17947e-16
4.29691e-16
4.3382e-16
4.30128e-16
4.18798e-16
4.0039e-16
3.75799e-16
3.46195e-16
3.1294e-16
2.77499e-16
2.41343e-16
2.05869e-16
1.72326e-16
1.41789e-16
1.15167e-16
9.32864e-17
8.33901e-17
8.33901e-17
2.94458e-18
3.27176e-19
3.27176e-19
2.94458e-18
8.33901e-17
8.33901e-17
9.26021e-17
1.14147e-16
1.40488e-16
1.708e-16
2.04178e-16
2.39559e-16
2.757e-16
3.11214e-16
3.44629e-16
3.74478e-16
3.99388e-16
4.18176e-16
4.29925e-16
4.34057e-16
4.30363e-16
4.19027e-16
4.00608e-16
3.76004e-16
3.46383e-16
3.1311e-16
2.77649e-16
2.41473e-16
2.05978e-16
1.72415e-16
1.41859e-16
1.15217e-16
9.3318e-17
8.33901e-17
8.33901e-17
2.94458e-18
3.27176e-19
3.27176e-19
2.94458e-18
8.33901e-17
8.33901e-17
9.26178e-17
1.14172e-16
1.40523e-16
1.70844e-16
2.04232e-16
2.39623e-16
2.75775e-16
3.11298e-16
3.44723e-16
3.74579e-16
3.99496e-16
4.18289e-16
4.30042e-16
4.34174e-16
4.30479e-16
4.1914e-16
4.00717e-16
3.76105e-16
3.46477e-16
3.13194e-16
2.77723e-16
2.41537e-16
2.06032e-16
1.72459e-16
1.41893e-16
1.15243e-16
9.33337e-17
8.33901e-17
8.33901e-17
2.94458e-18
3.27176e-19
3.27176e-19
2.94458e-18
8.33901e-17
8.33901e-17
9.26253e-17
1.14184e-16
1.40539e-16
1.70865e-16
2.04258e-16
2.39654e-16
2.7581e-16
3.11339e-16
3.44767e-16
3.74628e-16
3.99548e-16
4.18343e-16
4.30098e-16
4.34231e-16
4.30535e-16
4.19195e-16
4.00769e-16
3.76154e-16
3.46521e-16
3.13234e-16
2.77759e-16
2.41568e-16
2.06058e-16
1.72481e-16
1.4191e-16
1.15255e-16
9.33412e-17
8.33901e-17
8.33901e-17
2.94458e-18
3.27176e-19
3.27176e-19
2.94458e-18
8.33901e-17
8.33901e-17
9.26288e-17
1.14189e-16
1.40547e-16
1.70875e-16
2.0427e-16
2.39668e-16
2.75827e-16
3.11357e-16
3.44788e-16
3.74651e-16
3.99572e-16
4.18369e-16
4.30124e-16
4.34257e-16
4.30561e-16
4.1922e-16
4.00793e-16
3.76176e-16
3.46542e-16
3.13253e-16
2.77775e-16
2.41582e-16
2.0607e-16
1.7249e-16
1.41918e-16
1.1526e-16
9.33447e-17
8.33901e-17
8.33901e-17
2.94458e-18
3.27176e-19
3.27176e-19
2.94458e-18
8.33901e-17
8.33901e-17
9.26304e-17
1.14192e-16
1.40551e-16
1.70879e-16
2.04275e-16
2.39674e-16
2.75834e-16
3.11366e-16
3.44797e-16
3.74661e-16
3.99583e-16
4.1838e-16
4.30135e-16
4.34268e-16
4.30573e-16
4.19231e-16
4.00803e-16
3.76186e-16
3.46551e-16
3.13261e-16
2.77783e-16
2.41589e-16
2.06075e-16
1.72495e-16
1.41921e-16
1.15263e-16
9.33462e-17
8.33901e-17
8.33901e-17
2.94458e-18
3.27176e-19
3.27176e-19
2.94458e-18
8.33901e-17
8.33901e-17
9.2631e-17
1.14193e-16
1.40552e-16
1.70881e-16
2.04277e-16
2.39677e-16
2.75837e-16
3.11369e-16
3.44801e-16
3.74665e-16
3.99588e-16
4.18385e-16
4.3014e-16
4.34273e-16
4.30578e-16
4.19236e-16
4.00808e-16
3.76191e-16
3.46555e-16
3.13265e-16
2.77786e-16
2.41591e-16
2.06077e-16
1.72497e-16
1.41922e-16
1.15264e-16
9.33469e-17
8.33901e-17
8.33901e-17
2.94458e-18
3.27176e-19
3.27176e-19
2.94458e-18
8.33901e-17
8.33901e-17
9.26313e-17
1.14193e-16
1.40553e-16
1.70882e-16
2.04278e-16
2.39678e-16
2.75839e-16
3.11371e-16
3.44803e-16
3.74667e-16
3.9959e-16
4.18387e-16
4.30142e-16
4.34276e-16
4.3058e-16
4.19238e-16
4.0081e-16
3.76193e-16
3.46557e-16
3.13267e-16
2.77787e-16
2.41592e-16
2.06078e-16
1.72497e-16
1.41923e-16
1.15264e-16
9.33472e-17
8.33901e-17
8.33901e-17
2.94458e-18
3.27176e-19
3.27176e-19
2.94458e-18
8.33901e-17
8.33901e-17
9.26314e-17
1.14193e-16
1.40553e-16
1.70882e-16
2.04279e-16
2.39678e-16
2.75839e-16
3.11371e-16
3.44804e-16
3.74668e-16
3.9959e-16
4.18387e-16
4.30143e-16
4.34276e-16
4.3058e-16
4.19239e-16
4.00811e-16
3.76193e-16
3.46558e-16
3.13267e-16
2.77788e-16
2.41593e-16
2.06079e-16
1.72498e-16
1.41923e-16
1.15264e-16
9.33473e-17
8.33901e-17
8.33901e-17
2.94458e-18
3.27176e-19
3.27176e-19
2.94458e-18
8.33901e-17
8.33901e-17
9.26315e-17
1.14193e-16
1.40553e-16
1.70882e-16
2.04279e-16
2.39679e-16
2.75839e-16
3.11371e-16
3.44804e-16
3.74668e-16
3.99591e-16
4.18388e-16
4.30144e-16
4.34277e-16
4.30581e-16
4.19239e-16
4.00811e-16
3.76194e-16
3.46558e-16
3.13267e-16
2.77788e-16
2.41593e-16
2.06079e-16
1.72498e-16
1.41923e-16
1.15264e-16
9.33473e-17
8.33901e-17
8.33901e-17
2.94458e-18
3.27176e-19
3.27176e-19
2.94458e-18
8.33901e-17
8.33901e-17
9.26315e-17
1.14194e-16
1.40553e-16
1.70882e-16
2.04279e-16
2.39679e-16
2.75839e-16
3.11372e-16
3.44804e-16
3.74668e-16
3.99591e-16
4.18388e-16
4.30144e-16
4.34277e-16
4.30581e-16
4.19239e-16
4.00811e-16
3.76194e-16
3.46558e-16
3.13267e-16
2.77788e-16
2.41593e-16
2.06079e-16
1.72498e-16
1.41923e-16
1.15264e-16
9.33473e-17
8.33901e-17
8.33901e-17
2.94458e-18
3.27176e-19
3.27176e-19
2.94458e-18
8.33901e-17
8.33901e-17
9.26315e-17
1.14194e-16
1.40553e-16
1.70882e-16
2.04279e-16
2.39679e-16
2.75839e-16
3.11372e-16
3.44804e-16
3.74668e-16
3.99591e-16
4.18388e-16
4.30144e-16
4.34277e-16
4.30581e-16
4.19239e-16
4.00811e-16
3.76194e-16
3.46558e-16
3.13267e-16
2.77788e-16
2.41593e-16
2.06079e-16
1.72498e-16
1.41923e-16
1.15264e-16
9.33473e-17
8.33901e-17
8.33901e-17
2.94458e-18
3.27176e-19
3.27176e-19
2.94458e-18
8.33901e-17
8.33901e-17
9.26315e-17
1.14194e-16
1.40553e-16
1.70882e-16
2.04279e-16
2.39679e-16
2.75839e-16
3.11372e-16
3.44804e-16
3.74668e-16
3.99591e-16
4.18388e-16
4.30144e-16
4.34277e-16
4.30581e-16
4.19239e-16
4.00811e-16
3.76194e-16
3.46558e-16
3.13267e-16
2.77788e-16
2.41593e-16
2.06079e-16
1.72498e-16
1.41923e-16
1.15264e-16
9.33473e-17
8.33901e-17
8.33901e-17
2.94458e-18
3.27176e-19
3.27176e-19
2.94458e-18
8.33901e-17
8.33901e-17
9.26315e-17
1.14194e-16
1.40553e-16
1.70882e-16
2.04279e-16
2.39679e-16
2.75839e-16
3.11372e-16
3.44804e-16
3.74668e-16
3.99591e-16
4.18388e-16
4.30144e-16
4.34277e-16
4.30581e-16
4.19239e-16
4.00811e-16
3.76194e-16
3.46558e-16
3.13267e-16
2.77788e-16
2.41593e-16
2.06079e-16
1.72498e-16
1.41923e-16
1.15264e-16
9.33473e-17
8.33901e-17
8.33901e-17
2.94458e-18
3.27176e-19
3.27176e-19
2.94458e-18
8.33901e-17
8.33901e-17
9.26315e-17
1.14194e-16
1.40553e-16
1.70882e-16
2.04279e-16
2.39679e-16
2.75839e-16
3.11372e-16
3.44804e-16
3.74668e-16
3.99591e-16
4.18388e-16
4.30144e-16
4.34277e-16
4.30581e-16
4.19239e-16
4.00811e-16
3.76194e-16
3.46558e-16
3.13267e-16
2.77788e-16
2.41593e-16
2.06079e-16
1.72498e-16
1.41923e-16
1.15264e-16
9.33473e-17
8.33901e-17
8.33901e-17
2.94458e-18
3.27176e-19
3.27176e-19
2.94458e-18
8.33901e-17
8.33901e-17
9.26315e-17
1.14194e-16
1.40553e-16
1.70882e-16
2.04279e-16
2.39679e-16
2.75839e-16
3.11372e-16
3.44804e-16
3.74668e-16
3.99591e-16
4.18388e-16
4.30144e-16
4.34277e-16
4.30581e-16
4.19239e-16
4.00811e-16
3.76194e-16
3.46558e-16
3.13267e-16
2.77788e-16
2.41593e-16
2.06079e-16
1.72498e-16
1.41923e-16
1.15264e-16
9.33473e-17
8.33901e-17
8.33901e-17
2.94458e-18
3.27176e-19
3.27176e-19
2.94458e-18
8.33901e-17
8.33901e-17
9.26315e-17
1.14194e-16
1.40553e-16
1.70882e-16
2.04279e-16
2.39679e-16
2.75839e-16
3.11372e-16
3.44804e-16
3.74668e-16
3.99591e-16
4.18388e-16
4.30144e-16
4.34277e-16
4.30581e-16
4.19239e-16
4.00811e-16
3.76194e-16
3.46558e-16
3.13267e-16
2.77788e-16
2.41593e-16
2.06079e-16
1.72498e-16
1.41923e-16
1.15264e-16
9.33473e-17
8.33901e-17
8.33901e-17
2.94458e-18
3.27176e-19
3.27176e-19
2.94458e-18
8.33901e-17
8.33901e-17
9.26315e-17
1.14194e-16
1.40553e-16
1.70882e-16
2.04279e-16
2.39679e-16
2.75839e-16
3.11372e-16
3.44804e-16
3.74668e-16
3.99591e-16
4.18388e-16
4.30144e-16
4.34277e-16
4.30581e-16
4.19239e-16
4.00811e-16
3.76194e-16
3.46558e-16
3.13267e-16
2.77788e-16
2.41593e-16
2.06079e-16
1.72498e-16
1.41923e-16
1.15264e-16
9.33473e-17
8.33901e-17
8.33901e-17
2.94458e-18
3.27176e-19
3.27176e-19
2.94458e-18
8.33901e-17
8.33901e-17
9.26315e-17
1.14194e-16
1.40553e-16
1.70882e-16
2.04279e-16
2.39679e-16
2.75839e-16
3.11372e-16
3.44804e-16
3.74668e-16
3.99591e-16
4.18388e-16
4.30144e-16
4.34277e-16
4.30581e-16
4.19239e-16
4.00811e-16
3.76194e-16
3.46558e-16
3.13267e-16
2.77788e-16
2.41593e-16
2.06079e-16
1.72498e-16
1.41923e-16
1.15264e-16
9.33473e-17
8.33901e-17
8.33901e-17
2.94458e-18
3.27176e-19
3.27176e-19
2.94458e-18
8.33901e-17
8.33901e-17
9.26315e-17
1.14194e-16
1.40553e-16
1.70882e-16
2.04279e-16
2.39679e-16
2.75839e-16
3.11372e-16
3.44804e-16
3.74668e-16
3.99591e-16
4.18388e-16
4.30144e-16
4.34277e-16
4.30581e-16
4.19239e-16
4.00811e-16
3.76194e-16
3.46558e-16
3.13267e-16
2.77788e-16
2.41593e-16
2.06079e-16
1.72498e-16
1.41923e-16
1.15264e-16
9.33473e-17
8.33901e-17
8.33901e-17
2.94458e-18
3.27176e-19
3.27176e-19
2.94458e-18
8.33901e-17
8.33901e-17
9.26315e-17
1.14194e-16
1.40553e-16
1.70882e-16
2.04279e-16
2.39679e-16
2.75839e-16
3.11372e-16
3.44804e-16
3.74668e-16
3.99591e-16
4.18388e-16
4.30144e-16
4.34277e-16
4.30581e-16
4.19239e-16
4.00811e-16
3.76194e-16
3.46558e-16
3.13267e-16
2.77788e-16
2.41593e-16
2.06079e-16
1.72498e-16
1.41923e-16
1.15264e-16
9.33473e-17
8.33901e-17
8.33901e-17
2.94458e-18
3.27176e-19
3.27176e-19
2.94458e-18
8.33901e-17
8.33901e-17
9.26315e-17
1.14194e-16
1.40553e-16
1.70882e-16
2.04279e-16
2.39679e-16
2.75839e-16
3.11372e-16
3.44804e-16
3.74668e-16
3.99591e-16
4.18388e-16
4.30144e-16
4.34277e-16
4.30581e-16
4.19239e-16
4.00811e-16
3.76194e-16
3.46558e-16
3.13267e-16
2.77788e-16
2.41593e-16
2.06079e-16
1.72498e-16
1.41923e-16
1.15264e-16
9.33473e-17
8.33901e-17
8.33901e-17
2.94458e-18
3.27176e-19
3.27176e-19
2.94458e-18
8.33901e-17
8.33901e-17
9.26315e-17
1.14194e-16
1.40553e-16
1.70882e-16
2.04279e-16
2.39679e-16
2.75839e-16
3.11372e-16
3.44804e-16
3.74668e-16
3.99591e-16
4.18388e-16
4.30144e-16
4.34277e-16
4.30581e-16
4.19239e-16
4.00811e-16
3.76194e-16
3.46558e-16
3.13267e-16
2.77788e-16
2.41593e-16
2.06079e-16
1.72498e-16
1.41923e-16
1.15264e-16
9.33473e-17
8.33901e-17
8.33901e-17
2.94458e-18
3.27176e-19
3.27176e-19
2.94458e-18
8.33901e-17
8.33901e-17
9.26315e-17
1.14194e-16
1.40553e-16
1.70882e-16
2.04279e-16
2.39679e-16
2.75839e-16
3.11372e-16
3.44804e-16
3.74668e-16
3.99591e-16
4.18388e-16
4.30144e-16
4.34277e-16
4.30581e-16
4.19239e-16
4.00811e-16
3.76194e-16
3.46558e-16
3.13267e-16
2.77788e-16
2.41593e-16
2.06079e-16
1.72498e-16
1.41923e-16
1.15264e-16
9.33473e-17
8.33901e-17
8.33901e-17
2.94458e-18
3.27176e-19
3.27176e-19
2.94458e-18
8.33901e-17
8.33901e-17
9.26315e-17
1.14194e-16
1.40553e-16
1.70882e-16
2.04279e-16
2.39679e-16
2.75839e-16
3.11372e-16
3.44804e-16
3.74668e-16
3.99591e-16
4.18388e-16
4.30144e-16
4.34277e-16
4.30581e-16
4.19239e-16
4.00811e-16
3.76194e-16
3.46558e-16
3.13267e-16
2.77788e-16
2.41593e-16
2.06079e-16
1.72498e-16
1.41923e-16
1.15264e-16
9.33473e-17
8.33901e-17
8.33901e-17
2.94458e-18
3.27176e-19
3.27176e-19
2.94458e-18
8.33901e-17
8.33901e-17
9.26315e-17
1.14194e-16
1.40553e-16
1.70882e-16
2.04279e-16
2.39679e-16
2.75839e-16
3.11372e-16
3.44804e-16
3.74668e-16
3.99591e-16
4.18388e-16
4.30144e-16
4.34277e-16
4.30581e-16
4.19239e-16
4.00811e-16
3.76194e-16
3.46558e-16
3.13267e-16
2.77788e-16
2.41593e-16
2.06079e-16
1.72498e-16
1.41923e-16
1.15264e-16
9.33473e-17
8.33901e-17
8.33901e-17
2.94458e-18
3.27176e-19
3.27176e-19
2.94458e-18
8.33901e-17
8.33901e-17
9.26315e-17
1.14194e-16
1.40553e-16
1.70882e-16
2.04279e-16
2.39679e-16
2.75839e-16
3.11372e-16
3.44804e-16
3.74668e-16
3.99591e-16
4.18388e-16
4.30144e-16
4.34277e-16
4.30581e-16
4.19239e-16
4.00811e-16
3.76194e-16
3.46558e-16
3.13267e-16
2.77788e-16
2.41593e-16
2.06079e-16
1.72498e-16
1.41923e-16
1.15264e-16
9.33473e-17
8.33901e-17
8.33901e-17
2.94458e-18
3.27176e-19
3.27176e-19
2.94458e-18
8.33901e-17
8.33901e-17
9.26315e-17
1.14194e-16
1.40553e-16
1.70882e-16
2.04279e-16
2.39679e-16
2.75839e-16
3.11372e-16
3.44804e-16
3.74668e-16
3.99591e-16
4.18388e-16
4.30144e-16
4.34277e-16
4.30581e-16
4.19239e-16
4.00811e-16
3.76194e-16
3.46558e-16
3.13267e-16
2.77788e-16
2.41593e-16
2.06079e-16
1.72498e-16
1.41923e-16
1.15264e-16
9.33473e-17
8.33901e-17
8.33901e-17
2.94458e-18
3.27176e-19
3.27176e-19
2.94458e-18
8.33901e-17
8.33901e-17
9.26315e-17
1.14194e-16
1.40553e-16
1.70882e-16
2.04279e-16
2.39679e-16
2.75839e-16
3.11372e-16
3.44804e-16
3.74668e-16
3.99591e-16
4.18388e-16
4.30144e-16
4.34277e-16
4.30581e-16
4.19239e-16
4.00811e-16
3.76194e-16
3.46558e-16
3.13267e-16
2.77788e-16
2.41593e-16
2.06079e-16
1.72498e-16
1.41923e-16
1.15264e-16
9.33473e-17
8.33901e-17
8.33901e-17
2.94458e-18
3.27176e-19
3.27176e-19
2.94458e-18
8.33901e-17
8.33901e-17
9.26315e-17
1.14194e-16
1.40553e-16
1.70882e-16
2.04279e-16
2.39679e-16
2.75839e-16
3.11372e-16
3.44804e-16
3.74668e-16
3.99591e-16
4.18388e-16
4.30144e-16
4.34277e-16
4.30581e-16
4.19239e-16
4.00811e-16
3.76194e-16
3.46558e-16
3.13267e-16
2.77788e-16
2.41593e-16
2.06079e-16
1.72498e-16
1.41923e-16
1.15264e-16
9.33473e-17
8.33901e-17
8.33901e-17
2.94458e-18
3.27176e-19
3.27176e-19
2.94458e-18
8.33901e-17
8.33901e-17
9.26315e-17
1.14194e-16
1.40553e-16
1.70882e-16
2.04279e-16
2.39679e-16
2.75839e-16
3.11372e-16
3.44804e-16
3.74668e-16
3.99591e-16
4.18388e-16
4.30144e-16
4.34277e-16
4.30581e-16
4.19239e-16
4.00811e-16
3.76194e-16
3.46558e-16
3.13267e-16
2.77788e-16
2.41593e-16
2.06079e-16
1.72498e-16
1.41923e-16
1.15264e-16
9.33473e-17
8.33901e-17
8.33901e-17
2.94458e-18
3.27176e-19
3.27176e-19
2.94458e-18
8.33901e-17
8.33901e-17
9.26315e-17
1.14194e-16
1.40553e-16
1.70882e-16
2.04279e-16
2.39679e-16
2.75839e-16
3.11372e-16
3.44804e-16
3.74668e-16
3.99591e-16
4.18388e-16
4.30144e-16
4.34277e-16
4.30581e-16
4.19239e-16
4.00811e-16
3.76194e-16
3.46558e-16
3.13267e-16
2.77788e-16
2.41593e-16
2.06079e-16
1.72498e-16
1.41923e-16
1.15264e-16
9.33473e-17
8.33901e-17
8.33901e-17
2.94458e-18
3.27176e-19
3.27176e-19
2.94458e-18
8.33901e-17
8.33901e-17
9.26315e-17
1.14194e-16
1.40553e-16
1.70882e-16
2.04279e-16
2.39679e-16
2.75839e-16
3.11372e-16
3.44804e-16
3.74668e-16
3.99591e-16
4.18388e-16
4.30144e-16
4.34277e-16
4.30581e-16
4.19239e-16
4.00811e-16
3.76194e-16
3.46558e-16
3.13267e-16
2.77788e-16
2.41593e-16
2.06079e-16
1.72498e-16
1.41923e-16
1.15264e-16
9.33473e-17
8.33901e-17
8.33901e-17
2.94458e-18
3.27176e-19
3.27176e-19
2.94458e-18
8.33901e-17
8.33901e-17
9.26315e-17
1.14194e-16
1.40553e-16
1.70882e-16
2.04279e-16
2.39679e-16
2.75839e-16
3.11372e-16
3.44804e-16
3.74668e-16
3.99591e-16
4.18388e-16
4.30144e-16
4.34277e-16
4.30581e-16
4.19239e-16
4.00811e-16
3.76194e-16
3.46558e-16
3.13267e-16
2.77788e-16
2.41593e-16
2.06079e-16
1.72498e-16
1.41923e-16
1.15264e-16
9.33473e-17
8.33901e-17
8.33901e-17
2.94458e-18
3.27176e-19
3.27176e-19
2.94458e-18
8.33901e-17
8.33901e-17
9.26315e-17
1.14194e-16
1.40553e-16
1.70882e-16
2.04279e-16
2.39679e-16
2.75839e-16
3.11372e-16
3.44804e-16
3.74668e-16
3.99591e-16
4.18388e-16
4.30144e-16
4.34277e-16
4.30581e-16
4.19239e-16
4.00811e-16
3.76194e-16
3.46558e-16
3.13267e-16
2.77788e-16
2.41593e-16
2.06079e-16
1.72498e-16
1.41923e-16
1.15264e-16
9.33473e-17
8.33901e-17
8.33901e-17
2.94458e-18
3.27176e-19
3.27176e-19
2.94458e-18
8.33901e-17
8.33901e-17
9.26315e-17
1.14194e-16
1.40553e-16
1.70882e-16
2.04279e-16
2.39679e-16
2.75839e-16
3.11372e-16
3.44804e-16
3.74668e-16
3.99591e-16
4.18388e-16
4.30144e-16
4.34277e-16
4.30581e-16
4.19239e-16
4.00811e-16
3.76194e-16
3.46558e-16
3.13267e-16
2.77788e-16
2.41593e-16
2.06079e-16
1.72498e-16
1.41923e-16
1.15264e-16
9.33473e-17
8.33901e-17
8.33901e-17
2.94458e-18
3.27176e-19
3.27176e-19
2.94458e-18
8.33901e-17
8.33901e-17
9.26315e-17
1.14194e-16
1.40553e-16
1.70882e-16
2.04279e-16
2.39679e-16
2.75839e-16
3.11372e-16
3.44804e-16
3.74668e-16
3.99591e-16
4.18388e-16
4.30144e-16
4.34277e-16
4.30581e-16
4.19239e-16
4.00811e-16
3.76194e-16
3.46558e-16
3.13267e-16
2.77788e-16
2.41593e-16
2.06079e-16
1.72498e-16
1.41923e-16
1.15264e-16
9.33473e-17
8.33901e-17
8.33901e-17
2.94458e-18
3.27176e-19
3.27176e-19
2.94458e-18
8.33901e-17
8.33901e-17
9.26315e-17
1.14194e-16
1.40553e-16
1.70882e-16
2.04279e-16
2.39679e-16
2.75839e-16
3.11372e-16
3.44804e-16
3.74668e-16
3.99591e-16
4.18388e-16
4.30144e-16
4.34277e-16
4.30581e-16
4.19239e-16
4.00811e-16
3.76194e-16
3.46558e-16
3.13267e-16
2.77788e-16
2.41593e-16
2.06079e-16
1.72498e-16
1.41923e-16
1.15264e-16
9.33473e-17
8.33901e-17
8.33901e-17
2.94458e-18
3.27176e-19
3.27176e-19
2.94458e-18
8.33901e-17
8.33901e-17
9.26315e-17
1.14194e-16
1.40553e-16
1.70882e-16
2.04279e-16
2.39679e-16
2.75839e-16
3.11372e-16
3.44804e-16
3.74668e-16
3.99591e-16
4.18388e-16
4.30144e-16
4.34277e-16
4.30581e-16
4.19239e-16
4.00811e-16
3.76194e-16
3.46558e-16
3.13267e-16
2.77788e-16
2.41593e-16
2.06079e-16
1.72498e-16
1.41923e-16
1.15264e-16
9.33473e-17
8.33901e-17
8.33901e-17
2.94458e-18
3.27176e-19
3.27176e-19
2.94458e-18
8.33901e-17
8.33901e-17
9.26315e-17
1.14194e-16
1.40553e-16
1.70882e-16
2.04279e-16
2.39679e-16
2.75839e-16
3.11372e-16
3.44804e-16
3.74668e-16
3.99591e-16
4.18388e-16
4.30144e-16
4.34277e-16
4.30581e-16
4.19239e-16
4.00811e-16
3.76194e-16
3.46558e-16
3.13267e-16
2.77788e-16
2.41593e-16
2.06079e-16
1.72498e-16
1.41923e-16
1.15264e-16
9.33473e-17
8.33901e-17
8.33901e-17
2.94458e-18
3.27176e-19
3.27176e-19
2.94458e-18
8.33901e-17
8.33901e-17
9.26315e-17
1.14194e-16
1.40553e-16
1.70882e-16
2.04279e-16
2.39679e-16
2.75839e-16
3.11372e-16
3.44804e-16
3.74668e-16
3.99591e-16
4.18388e-16
4.30144e-16
4.34277e-16
4.30581e-16
4.19239e-16
4.00811e-16
3.76194e-16
3.46558e-16
3.13267e-16
2.77788e-16
2.41593e-16
2.06079e-16
1.72498e-16
1.41923e-16
1.15264e-16
9.33473e-17
8.33901e-17
8.33901e-17
2.94458e-18
3.27176e-19
3.27176e-19
2.94458e-18
8.33901e-17
8.33901e-17
9.26315e-17
1.14194e-16
1.40553e-16
1.70882e-16
2.04279e-16
2.39679e-16
2.75839e-16
3.11372e-16
3.44804e-16
3.74668e-16
3.99591e-16
4.18388e-16
4.30144e-16
4.34277e-16
4.30581e-16
4.19239e-16
4.00811e-16
3.76194e-16
3.46558e-16
3.13267e-16
2.77788e-16
2.41593e-16
2.06079e-16
1.72498e-16
1.41923e-16
1.15264e-16
9.33473e-17
8.33901e-17
8.33901e-17
2.94458e-18
3.27176e-19
3.27176e-19
2.94458e-18
8.33901e-17
8.33901e-17
9.26315e-17
1.14194e-16
1.40553e-16
1.70882e-16
2.04279e-16
2.39679e-16
2.75839e-16
3.11372e-16
3.44804e-16
3.74668e-16
3.99591e-16
4.18388e-16
4.30144e-16
4.34277e-16
4.30581e-16
4.19239e-16
4.00811e-16
3.76194e-16
3.46558e-16
3.13267e-16
2.77788e-16
2.41593e-16
2.06079e-16
1.72498e-16
1.41923e-16
1.15264e-16
9.33473e-17
8.33901e-17
8.33901e-17
2.94458e-18
3.27176e-19
3.27176e-19
2.94458e-18
8.33901e-17
8.33901e-17
9.26315e-17
1.14194e-16
1.40553e-16
1.70882e-16
2.04279e-16
2.39679e-16
2.75839e-16
3.11372e-16
3.44804e-16
3.74668e-16
3.99591e-16
4.18388e-16
4.30144e-16
4.34277e-16
4.30581e-16
4.19239e-16
4.00811e-16
3.76194e-16
3.46558e-16
3.13267e-16
2.77788e-16
2.41593e-16
2.06079e-16
1.72498e-16
1.41923e-16
1.15264e-16
9.33473e-17
8.33901e-17
8.33901e-17
2.94458e-18
3.27176e-19
3.27176e-19
2.94458e-18
8.33901e-17
8.33901e-17
9.26315e-17
1.14194e-16
1.40553e-16
1.70882e-16
2.04279e-16
2.39679e-16
2.75839e-16
3.11372e-16
3.44804e-16
3.74668e-16
3.99591e-16
4.18388e-16
4.30144e-16
4.34277e-16
4.30581e-16
4.19239e-16
4.00811e-16
3.76194e-16
3.46558e-16
3.13267e-16
2.77788e-16
2.41593e-16
2.06079e-16
1.72498e-16
1.41923e-16
1.15264e-16
9.33473e-17
8.33901e-17
8.33901e-17
2.94458e-18
3.27176e-19
3.27176e-19
2.94458e-18
8.33901e-17
8.33901e-17
9.26315e-17
1.14194e-16
1.40553e-16
1.70882e-16
2.04279e-16
2.39679e-16
2.75839e-16
3.11372e-16
3.44804e-16
3.74668e-16
3.99591e-16
4.18388e-16
4.30144e-16
4.34277e-16
4.30581e-16
4.19239e-16
4.00811e-16
3.76194e-16
3.46558e-16
3.13267e-16
2.77788e-16
2.41593e-16
2.06079e-16
1.72498e-16
1.41923e-16
1.15264e-16
9.33473e-17
8.33901e-17
8.33901e-17
2.94458e-18
3.27176e-19
3.27176e-19
2.94458e-18
8.33901e-17
8.33901e-17
9.26315e-17
1.14194e-16
1.40553e-16
1.70882e-16
2.04279e-16
2.39679e-16
2.75839e-16
3.11372e-16
3.44804e-16
3.74668e-16
3.99591e-16
4.18388e-16
4.30144e-16
4.34277e-16
4.30581e-16
4.19239e-16
4.00811e-16
3.76194e-16
3.46558e-16
3.13267e-16
2.77788e-16
2.41593e-16
2.06079e-16
1.72498e-16
1.41923e-16
1.15264e-16
9.33473e-17
8.33901e-17
8.33901e-17
2.94458e-18
3.27176e-19
3.27176e-19
2.94458e-18
8.33901e-17
8.33901e-17
9.26315e-17
1.14194e-16
1.40553e-16
1.70882e-16
2.04279e-16
2.39679e-16
2.75839e-16
3.11372e-16
3.44804e-16
3.74668e-16
3.99591e-16
4.18388e-16
4.30144e-16
4.34277e-16
4.30581e-16
4.19239e-16
4.00811e-16
3.76194e-16
3.46558e-16
3.13267e-16
2.77788e-16
2.41593e-16
2.06079e-16
1.72498e-16
1.41923e-16
1.15264e-16
9.33473e-17
8.33901e-17
8.33901e-17
2.94458e-18
3.27176e-19
3.27176e-19
2.94458e-18
8.33901e-17
8.33901e-17
9.26315e-17
1.14194e-16
1.40553e-16
1.70882e-16
2.04279e-16
2.39679e-16
2.75839e-16
3.11372e-16
3.44804e-16
3.74668e-16
3.99591e-16
4.18388e-16
4.30144e-16
4.34277e-16
4.30581e-16
4.19239e-16
4.00811e-16
3.76194e-16
3.46558e-16
3.13267e-16
2.77788e-16
2.41593e-16
2.06079e-16
1.72498e-16
1.41923e-16
1.15264e-16
9.33473e-17
8.33901e-17
8.33901e-17
2.94458e-18
3.27176e-19
3.27176e-19
2.94458e-18
8.33901e-17
8.33901e-17
9.26315e-17
1.14194e-16
1.40553e-16
1.70882e-16
2.04279e-16
2.39679e-16
2.75839e-16
3.11372e-16
3.44804e-16
3.74668e-16
3.99591e-16
4.18388e-16
4.30144e-16
4.34277e-16
4.30581e-16
4.19239e-16
4.00811e-16
3.76194e-16
3.46558e-16
3.13267e-16
2.77788e-16
2.41593e-16
2.06079e-16
1.72498e-16
1.41923e-16
1.15264e-16
9.33473e-17
8.33901e-17
8.33901e-17
2.94458e-18
3.27176e-19
3.27176e-19
2.94458e-18
8.33901e-17
8.33901e-17
9.26315e-17
1.14194e-16
1.40553e-16
1.70882e-16
2.04279e-16
2.39679e-16
2.75839e-16
3.11372e-16
3.44804e-16
3.74668e-16
3.99591e-16
4.18388e-16
4.30144e-16
4.34277e-16
4.30581e-16
4.19239e-16
4.00811e-16
3.76194e-16
3.46558e-16
3.13267e-16
2.77788e-16
2.41593e-16
2.06079e-16
1.72498e-16
1.41923e-16
1.15264e-16
9.33473e-17
8.33901e-17
8.33901e-17
2.94458e-18
3.27176e-19
3.27176e-19
2.94458e-18
8.33901e-17
8.33901e-17
9.26315e-17
1.14194e-16
1.40553e-16
1.70882e-16
2.04279e-16
2.39679e-16
2.75839e-16
3.11372e-16
3.44804e-16
3.74668e-16
3.99591e-16
4.18388e-16
4.30144e-16
4.34277e-16
4.30581e-16
4.19239e-16
4.00811e-16
3.76194e-16
3.46558e-16
3.13267e-16
2.77788e-16
2.41593e-16
2.06079e-16
1.72498e-16
1.41923e-16
1.15264e-16
9.33473e-17
8.33901e-17
8.33901e-17
2.94458e-18
3.27176e-19