/*--------------------------------*- C++ -*----------------------------------*\
  =========                 |
  \\      /  F ield         | OpenFOAM: The Open Source CFD Toolbox
   \\    /   O peration     | Website:  https://openfoam.org
    \\  /    A nd           | Version:  13
     \\/     M anipulation  |
\*---------------------------------------------------------------------------*/
FoamFile
{
    format      ascii;
    class       volScalarField;
    location    "102.5";
    object      rhok;
}
// * * * * * * * * * * * * * * * * * * * * * * * * * * * * * * * * * * * * * //

dimensions      [];

internalField   nonuniform List<scalar> 
315000
(
0.444615
0.429322
0.414051
0.412585
0.411815
0.411043
0.410271
0.409499
0.408726
0.407953
0.40718
0.406407
0.405636
0.404866
0.404098
0.403332
0.402569
0.401809
0.401052
0.4003
0.399552
0.398808
0.398069
0.397336
0.396608
0.395886
0.395169
0.394459
0.393755
0.393057
0.392366
0.391682
0.391005
0.390334
0.38967
0.389014
0.388365
0.387722
0.387087
0.386459
0.385838
0.385224
0.384617
0.384017
0.383424
0.382837
0.382257
0.381683
0.381116
0.380555
0.38
0.37945
0.378906
0.378367
0.377834
0.377305
0.37678
0.37626
0.375744
0.375232
0.374723
0.374217
0.373714
0.373214
0.372716
0.372219
0.371724
0.371231
0.370738
0.370245
0.444615
0.42935
0.414037
0.412567
0.411794
0.411021
0.410248
0.409475
0.408702
0.407929
0.407157
0.406385
0.405614
0.404846
0.404079
0.403314
0.402552
0.401793
0.401038
0.400287
0.399539
0.398797
0.398059
0.397326
0.396598
0.395876
0.39516
0.39445
0.393746
0.393049
0.392358
0.391674
0.390996
0.390326
0.389663
0.389006
0.388357
0.387714
0.387079
0.386451
0.38583
0.385217
0.38461
0.38401
0.383417
0.38283
0.38225
0.381677
0.38111
0.380549
0.379994
0.379445
0.378901
0.378362
0.377829
0.3773
0.376776
0.376257
0.375741
0.375229
0.37472
0.374215
0.373712
0.373212
0.372714
0.372218
0.371723
0.37123
0.370737
0.370245
0.444615
0.429333
0.414011
0.412542
0.411769
0.410997
0.410225
0.409452
0.40868
0.407908
0.407136
0.406366
0.405597
0.404829
0.404063
0.4033
0.402539
0.401781
0.401027
0.400276
0.39953
0.398788
0.39805
0.397318
0.396591
0.395869
0.395153
0.394443
0.393739
0.393042
0.392351
0.391667
0.39099
0.390319
0.389656
0.389
0.38835
0.387708
0.387073
0.386445
0.385824
0.385211
0.384604
0.384004
0.383411
0.382825
0.382245
0.381672
0.381105
0.380544
0.379989
0.37944
0.378897
0.378358
0.377825
0.377297
0.376773
0.376253
0.375738
0.375226
0.374718
0.374212
0.37371
0.37321
0.372713
0.372217
0.371722
0.371229
0.370737
0.370245
0.444615
0.429338
0.41401
0.412539
0.411767
0.410994
0.410221
0.409448
0.408676
0.407904
0.407133
0.406362
0.405593
0.404825
0.40406
0.403296
0.402536
0.401778
0.401023
0.400273
0.399526
0.398784
0.398046
0.397314
0.396586
0.395865
0.395149
0.394439
0.393735
0.393037
0.392347
0.391662
0.390985
0.390315
0.389651
0.388995
0.388345
0.387703
0.387068
0.38644
0.38582
0.385206
0.384599
0.383999
0.383407
0.38282
0.382241
0.381668
0.381101
0.38054
0.379986
0.379437
0.378893
0.378355
0.377822
0.377294
0.37677
0.376251
0.375735
0.375224
0.374716
0.374211
0.373709
0.373209
0.372711
0.372216
0.371722
0.371229
0.370737
0.370245
0.444615
0.429328
0.414011
0.412541
0.411769
0.410997
0.410224
0.409452
0.408679
0.407907
0.407136
0.406365
0.405596
0.404828
0.404062
0.403298
0.402537
0.401779
0.401024
0.400273
0.399526
0.398783
0.398045
0.397312
0.396585
0.395863
0.395146
0.394436
0.393732
0.393034
0.392343
0.391659
0.390982
0.390311
0.389648
0.388991
0.388342
0.3877
0.387065
0.386437
0.385816
0.385202
0.384596
0.383996
0.383403
0.382817
0.382238
0.381665
0.381098
0.380537
0.379983
0.379434
0.378891
0.378353
0.37782
0.377292
0.376768
0.376249
0.375734
0.375222
0.374714
0.374209
0.373707
0.373208
0.37271
0.372215
0.371721
0.371228
0.370736
0.370245
0.444615
0.429346
0.414023
0.412552
0.411779
0.411006
0.410233
0.409459
0.408686
0.407914
0.407142
0.40637
0.4056
0.404832
0.404065
0.403301
0.402539
0.40178
0.401025
0.400273
0.399526
0.398783
0.398045
0.397311
0.396583
0.395861
0.395145
0.394434
0.39373
0.393032
0.392341
0.391657
0.390979
0.390309
0.389645
0.388988
0.388339
0.387697
0.387062
0.386434
0.385813
0.3852
0.384593
0.383994
0.383401
0.382815
0.382235
0.381662
0.381096
0.380535
0.379981
0.379432
0.378889
0.378351
0.377818
0.37729
0.376767
0.376248
0.375732
0.375221
0.374713
0.374208
0.373707
0.373207
0.37271
0.372214
0.371721
0.371228
0.370736
0.370245
0.444615
0.42933
0.414019
0.41255
0.411779
0.411006
0.410234
0.409461
0.408688
0.407916
0.407144
0.406372
0.405602
0.404833
0.404067
0.403302
0.40254
0.401781
0.401025
0.400273
0.399526
0.398782
0.398044
0.39731
0.396582
0.39586
0.395143
0.394433
0.393728
0.393031
0.392339
0.391655
0.390977
0.390307
0.389643
0.388987
0.388337
0.387695
0.38706
0.386432
0.385812
0.385198
0.384592
0.383992
0.383399
0.382813
0.382234
0.381661
0.381094
0.380534
0.379979
0.379431
0.378888
0.37835
0.377817
0.377289
0.376766
0.376247
0.375732
0.37522
0.374713
0.374208
0.373706
0.373207
0.372709
0.372214
0.37172
0.371228
0.370736
0.370245
0.444615
0.429349
0.414028
0.412557
0.411784
0.411011
0.410238
0.409464
0.408691
0.407918
0.407145
0.406374
0.405603
0.404834
0.404067
0.403302
0.40254
0.40178
0.401025
0.400273
0.399525
0.398781
0.398043
0.397309
0.396581
0.395859
0.395142
0.394431
0.393727
0.393029
0.392338
0.391654
0.390976
0.390306
0.389642
0.388986
0.388336
0.387694
0.387059
0.386431
0.385811
0.385197
0.384591
0.383991
0.383398
0.382812
0.382233
0.38166
0.381094
0.380533
0.379979
0.37943
0.378887
0.378349
0.377816
0.377288
0.376765
0.376246
0.375731
0.37522
0.374712
0.374207
0.373706
0.373206
0.372709
0.372214
0.37172
0.371228
0.370736
0.370245
0.444615
0.429316
0.414015
0.412547
0.411775
0.411004
0.410231
0.409459
0.408686
0.407914
0.407142
0.40637
0.4056
0.404831
0.404064
0.403299
0.402537
0.401778
0.401022
0.400271
0.399523
0.39878
0.398041
0.397308
0.39658
0.395857
0.395141
0.394431
0.393726
0.393029
0.392338
0.391653
0.390976
0.390305
0.389642
0.388985
0.388336
0.387694
0.387059
0.386431
0.38581
0.385197
0.38459
0.383991
0.383398
0.382812
0.382233
0.38166
0.381093
0.380533
0.379978
0.37943
0.378887
0.378349
0.377816
0.377288
0.376765
0.376246
0.375731
0.37522
0.374712
0.374207
0.373705
0.373206
0.372709
0.372214
0.37172
0.371228
0.370736
0.370245
0.444615
0.429342
0.414024
0.412554
0.411782
0.411009
0.410235
0.409461
0.408688
0.407914
0.407141
0.406368
0.405597
0.404828
0.404061
0.403296
0.402533
0.401774
0.401019
0.400267
0.39952
0.398777
0.398039
0.397306
0.396578
0.395856
0.39514
0.39443
0.393726
0.393028
0.392337
0.391653
0.390975
0.390305
0.389642
0.388985
0.388336
0.387694
0.387059
0.386431
0.38581
0.385197
0.38459
0.383991
0.383398
0.382812
0.382233
0.38166
0.381093
0.380533
0.379978
0.37943
0.378886
0.378349
0.377816
0.377288
0.376765
0.376246
0.375731
0.37522
0.374712
0.374207
0.373705
0.373206
0.372709
0.372214
0.37172
0.371228
0.370736
0.370245
0.444615
0.42935
0.414058
0.412589
0.411817
0.411044
0.410269
0.409493
0.408716
0.407939
0.407162
0.406387
0.405612
0.40484
0.40407
0.403303
0.402539
0.401778
0.401021
0.400269
0.399521
0.398778
0.398039
0.397306
0.396578
0.395856
0.39514
0.39443
0.393726
0.393028
0.392337
0.391653
0.390976
0.390305
0.389642
0.388985
0.388336
0.387694
0.387059
0.386431
0.385811
0.385197
0.384591
0.383991
0.383398
0.382812
0.382233
0.38166
0.381093
0.380533
0.379978
0.37943
0.378887
0.378349
0.377816
0.377288
0.376765
0.376246
0.375731
0.37522
0.374712
0.374207
0.373705
0.373206
0.372709
0.372214
0.37172
0.371228
0.370736
0.370245
0.444606
0.428979
0.414052
0.412614
0.411853
0.411087
0.410316
0.40954
0.408762
0.407982
0.407202
0.406421
0.405642
0.404865
0.404091
0.40332
0.402553
0.40179
0.401031
0.400276
0.399527
0.398782
0.398043
0.397309
0.396581
0.395858
0.395141
0.394431
0.393727
0.393029
0.392338
0.391654
0.390976
0.390306
0.389642
0.388986
0.388337
0.387695
0.38706
0.386432
0.385811
0.385197
0.384591
0.383991
0.383399
0.382813
0.382233
0.38166
0.381094
0.380533
0.379979
0.37943
0.378887
0.378349
0.377816
0.377288
0.376765
0.376246
0.375731
0.37522
0.374712
0.374207
0.373706
0.373206
0.372709
0.372214
0.37172
0.371228
0.370736
0.370245
0.444616
0.429359
0.414074
0.412605
0.411833
0.411059
0.410283
0.409507
0.40873
0.407953
0.407176
0.4064
0.405625
0.404852
0.404081
0.403313
0.402548
0.401787
0.40103
0.400276
0.399528
0.398784
0.398044
0.397311
0.396582
0.39586
0.395143
0.394432
0.393728
0.39303
0.392339
0.391655
0.390977
0.390307
0.389643
0.388987
0.388337
0.387695
0.38706
0.386432
0.385812
0.385198
0.384591
0.383992
0.383399
0.382813
0.382233
0.381661
0.381094
0.380533
0.379979
0.37943
0.378887
0.378349
0.377816
0.377289
0.376765
0.376246
0.375731
0.37522
0.374712
0.374208
0.373706
0.373206
0.372709
0.372214
0.37172
0.371228
0.370736
0.370245
0.444615
0.429341
0.414038
0.41257
0.411798
0.411026
0.410252
0.409479
0.408705
0.407931
0.407158
0.406385
0.405614
0.404844
0.404075
0.40331
0.402547
0.401787
0.40103
0.400278
0.39953
0.398786
0.398047
0.397313
0.396584
0.395862
0.395145
0.394434
0.39373
0.393032
0.39234
0.391656
0.390978
0.390307
0.389644
0.388987
0.388338
0.387696
0.387061
0.386433
0.385812
0.385198
0.384592
0.383992
0.383399
0.382813
0.382234
0.381661
0.381094
0.380534
0.379979
0.379431
0.378887
0.378349
0.377817
0.377289
0.376765
0.376246
0.375731
0.37522
0.374712
0.374208
0.373706
0.373206
0.372709
0.372214
0.37172
0.371228
0.370736
0.370245
0.444615
0.429338
0.414029
0.41256
0.411788
0.411016
0.410243
0.40947
0.408697
0.407924
0.407152
0.40638
0.405609
0.40484
0.404073
0.403308
0.402546
0.401786
0.40103
0.400278
0.39953
0.398786
0.398047
0.397314
0.396585
0.395862
0.395146
0.394435
0.39373
0.393032
0.392341
0.391656
0.390979
0.390308
0.389644
0.388988
0.388338
0.387696
0.387061
0.386433
0.385812
0.385199
0.384592
0.383992
0.3834
0.382814
0.382234
0.381661
0.381095
0.380534
0.37998
0.379431
0.378888
0.37835
0.377817
0.377289
0.376766
0.376247
0.375732
0.37522
0.374712
0.374208
0.373706
0.373207
0.372709
0.372214
0.37172
0.371228
0.370736
0.370245
0.444615
0.429347
0.414024
0.412553
0.411781
0.411008
0.410234
0.409461
0.408688
0.407915
0.407143
0.406372
0.405602
0.404833
0.404066
0.403302
0.40254
0.401781
0.401026
0.400274
0.399526
0.398783
0.398045
0.397312
0.396583
0.395861
0.395144
0.394434
0.39373
0.393032
0.392341
0.391656
0.390979
0.390308
0.389644
0.388988
0.388339
0.387696
0.387061
0.386433
0.385813
0.385199
0.384592
0.383993
0.3834
0.382814
0.382234
0.381661
0.381095
0.380534
0.37998
0.379431
0.378888
0.37835
0.377817
0.377289
0.376766
0.376247
0.375732
0.37522
0.374713
0.374208
0.373706
0.373207
0.372709
0.372214
0.37172
0.371228
0.370736
0.370245
0.444615
0.429326
0.414006
0.412537
0.411765
0.410992
0.41022
0.409447
0.408675
0.407903
0.407131
0.406361
0.405591
0.404824
0.404058
0.403294
0.402533
0.401775
0.40102
0.400269
0.399522
0.398779
0.398041
0.397309
0.396581
0.395859
0.395143
0.394433
0.393729
0.393031
0.39234
0.391656
0.390978
0.390308
0.389644
0.388988
0.388339
0.387696
0.387061
0.386434
0.385813
0.385199
0.384593
0.383993
0.3834
0.382814
0.382235
0.381662
0.381095
0.380535
0.37998
0.379431
0.378888
0.37835
0.377817
0.377289
0.376766
0.376247
0.375732
0.375221
0.374713
0.374208
0.373706
0.373207
0.37271
0.372214
0.37172
0.371228
0.370736
0.370245
0.444615
0.429336
0.41401
0.41254
0.411767
0.410995
0.410222
0.409449
0.408676
0.407903
0.407131
0.40636
0.40559
0.404822
0.404056
0.403292
0.40253
0.401772
0.401018
0.400267
0.39952
0.398777
0.39804
0.397307
0.39658
0.395858
0.395142
0.394432
0.393728
0.393031
0.39234
0.391656
0.390978
0.390308
0.389645
0.388988
0.388339
0.387697
0.387062
0.386434
0.385813
0.3852
0.384593
0.383993
0.383401
0.382814
0.382235
0.381662
0.381095
0.380535
0.37998
0.379432
0.378888
0.37835
0.377818
0.37729
0.376766
0.376247
0.375732
0.375221
0.374713
0.374208
0.373706
0.373207
0.37271
0.372214
0.37172
0.371228
0.370736
0.370245
0.444615
0.429347
0.414034
0.412564
0.411791
0.411018
0.410245
0.409471
0.408697
0.407923
0.40715
0.406377
0.405606
0.404836
0.404068
0.403302
0.402539
0.40178
0.401024
0.400272
0.399524
0.398781
0.398043
0.397309
0.396582
0.39586
0.395143
0.394433
0.393729
0.393032
0.392341
0.391657
0.390979
0.390309
0.389645
0.388989
0.388339
0.387697
0.387062
0.386435
0.385814
0.3852
0.384593
0.383994
0.383401
0.382815
0.382235
0.381662
0.381096
0.380535
0.379981
0.379432
0.378889
0.378351
0.377818
0.37729
0.376766
0.376247
0.375732
0.375221
0.374713
0.374208
0.373706
0.373207
0.37271
0.372214
0.371721
0.371228
0.370736
0.370245
0.444613
0.429255
0.414036
0.412576
0.411808
0.411038
0.410267
0.409495
0.408721
0.407948
0.407174
0.4064
0.405627
0.404855
0.404085
0.403318
0.402553
0.401792
0.401034
0.400281
0.399532
0.398787
0.398048
0.397314
0.396586
0.395863
0.395146
0.394436
0.393731
0.393034
0.392342
0.391658
0.39098
0.39031
0.389646
0.38899
0.38834
0.387698
0.387063
0.386435
0.385814
0.385201
0.384594
0.383994
0.383401
0.382815
0.382236
0.381663
0.381096
0.380535
0.379981
0.379432
0.378889
0.378351
0.377818
0.37729
0.376766
0.376247
0.375732
0.375221
0.374713
0.374208
0.373706
0.373207
0.37271
0.372214
0.371721
0.371228
0.370736
0.370245
0.444616
0.429368
0.414072
0.412602
0.411829
0.411056
0.410282
0.409507
0.408732
0.407956
0.407181
0.406406
0.405632
0.40486
0.40409
0.403322
0.402557
0.401795
0.401037
0.400284
0.399534
0.39879
0.39805
0.397316
0.396588
0.395865
0.395148
0.394437
0.393733
0.393035
0.392344
0.391659
0.390981
0.390311
0.389647
0.388991
0.388341
0.387699
0.387064
0.386436
0.385815
0.385201
0.384595
0.383995
0.383402
0.382816
0.382236
0.381663
0.381096
0.380536
0.379981
0.379432
0.378889
0.378351
0.377818
0.37729
0.376767
0.376248
0.375732
0.375221
0.374713
0.374208
0.373706
0.373207
0.37271
0.372214
0.371721
0.371228
0.370736
0.370245
0.444614
0.429278
0.41404
0.412578
0.411809
0.411039
0.410267
0.409495
0.408721
0.407948
0.407174
0.4064
0.405628
0.404856
0.404087
0.40332
0.402555
0.401794
0.401037
0.400283
0.399534
0.39879
0.398051
0.397317
0.396588
0.395865
0.395149
0.394438
0.393734
0.393036
0.392344
0.39166
0.390982
0.390312
0.389648
0.388991
0.388342
0.3877
0.387064
0.386436
0.385816
0.385202
0.384595
0.383995
0.383402
0.382816
0.382237
0.381663
0.381097
0.380536
0.379981
0.379433
0.378889
0.378351
0.377818
0.37729
0.376767
0.376248
0.375733
0.375221
0.374713
0.374208
0.373707
0.373207
0.37271
0.372214
0.371721
0.371228
0.370736
0.370245
0.444615
0.429351
0.414039
0.412569
0.411796
0.411023
0.41025
0.409476
0.408702
0.407928
0.407155
0.406382
0.405611
0.404841
0.404073
0.403308
0.402545
0.401786
0.40103
0.400278
0.39953
0.398787
0.398048
0.397315
0.396587
0.395865
0.395148
0.394438
0.393734
0.393036
0.392345
0.39166
0.390983
0.390312
0.389649
0.388992
0.388342
0.3877
0.387065
0.386437
0.385816
0.385202
0.384595
0.383996
0.383403
0.382816
0.382237
0.381664
0.381097
0.380536
0.379982
0.379433
0.378889
0.378351
0.377818
0.37729
0.376767
0.376248
0.375733
0.375221
0.374713
0.374209
0.373707
0.373207
0.37271
0.372214
0.371721
0.371228
0.370736
0.370245
0.444615
0.429336
0.414022
0.412553
0.411781
0.411009
0.410236
0.409463
0.408689
0.407916
0.407144
0.406372
0.405601
0.404832
0.404065
0.403301
0.402539
0.401781
0.401025
0.400274
0.399527
0.398784
0.398047
0.397314
0.396586
0.395864
0.395148
0.394438
0.393734
0.393036
0.392345
0.391661
0.390983
0.390313
0.389649
0.388993
0.388343
0.387701
0.387065
0.386437
0.385817
0.385203
0.384596
0.383996
0.383403
0.382817
0.382237
0.381664
0.381097
0.380537
0.379982
0.379433
0.37889
0.378352
0.377819
0.377291
0.376767
0.376248
0.375733
0.375221
0.374713
0.374209
0.373707
0.373207
0.37271
0.372215
0.371721
0.371228
0.370736
0.370245
0.444615
0.429351
0.414051
0.412581
0.411809
0.411036
0.410262
0.409487
0.408712
0.407937
0.407162
0.406388
0.405615
0.404844
0.404075
0.403309
0.402546
0.401786
0.40103
0.400278
0.39953
0.398787
0.398048
0.397315
0.396588
0.395865
0.395149
0.394439
0.393735
0.393037
0.392346
0.391662
0.390984
0.390314
0.38965
0.388993
0.388344
0.387701
0.387066
0.386438
0.385817
0.385203
0.384596
0.383996
0.383403
0.382817
0.382237
0.381664
0.381097
0.380537
0.379982
0.379433
0.37889
0.378352
0.377819
0.377291
0.376767
0.376248
0.375733
0.375221
0.374713
0.374209
0.373707
0.373207
0.37271
0.372215
0.371721
0.371228
0.370736
0.370245
0.444609
0.429118
0.414041
0.412592
0.411828
0.411061
0.410291
0.409518
0.408743
0.407967
0.407191
0.406414
0.405639
0.404865
0.404093
0.403324
0.402559
0.401797
0.401039
0.400285
0.399536
0.398792
0.398053
0.397319
0.396591
0.395868
0.395152
0.394441
0.393737
0.393039
0.392348
0.391663
0.390985
0.390315
0.389651
0.388994
0.388344
0.387702
0.387067
0.386439
0.385818
0.385204
0.384597
0.383997
0.383404
0.382817
0.382238
0.381665
0.381098
0.380537
0.379982
0.379433
0.37889
0.378352
0.377819
0.377291
0.376767
0.376248
0.375733
0.375221
0.374713
0.374209
0.373707
0.373207
0.37271
0.372215
0.371721
0.371228
0.370736
0.370245
0.444616
0.429358
0.414065
0.412596
0.411823
0.41105
0.410276
0.409501
0.408726
0.407951
0.407176
0.406401
0.405628
0.404856
0.404087
0.40332
0.402556
0.401796
0.401039
0.400286
0.399538
0.398794
0.398055
0.397322
0.396593
0.395871
0.395154
0.394443
0.393739
0.393041
0.392349
0.391665
0.390987
0.390316
0.389652
0.388995
0.388345
0.387703
0.387067
0.386439
0.385818
0.385204
0.384597
0.383997
0.383404
0.382818
0.382238
0.381665
0.381098
0.380537
0.379982
0.379433
0.37889
0.378352
0.377819
0.377291
0.376767
0.376248
0.375733
0.375221
0.374714
0.374209
0.373707
0.373207
0.37271
0.372215
0.371721
0.371228
0.370736
0.370245
0.444615
0.429349
0.414044
0.412575
0.411804
0.411031
0.410258
0.409485
0.408712
0.407939
0.407166
0.406394
0.405623
0.404854
0.404086
0.403321
0.402559
0.401799
0.401043
0.400291
0.399543
0.398799
0.39806
0.397326
0.396598
0.395875
0.395158
0.394447
0.393742
0.393044
0.392352
0.391667
0.390989
0.390317
0.389653
0.388996
0.388346
0.387704
0.387068
0.38644
0.385819
0.385205
0.384598
0.383998
0.383404
0.382818
0.382238
0.381665
0.381098
0.380537
0.379982
0.379433
0.37889
0.378352
0.377819
0.377291
0.376767
0.376248
0.375733
0.375222
0.374714
0.374209
0.373707
0.373207
0.37271
0.372215
0.371721
0.371228
0.370736
0.370245
0.444616
0.429354
0.41405
0.412581
0.411809
0.411036
0.410264
0.409491
0.408718
0.407945
0.407173
0.406401
0.405631
0.404862
0.404094
0.403329
0.402567
0.401807
0.401051
0.400298
0.399549
0.398805
0.398066
0.397331
0.396602
0.395879
0.395161
0.39445
0.393745
0.393046
0.392354
0.391669
0.39099
0.390319
0.389655
0.388997
0.388347
0.387704
0.387069
0.38644
0.385819
0.385205
0.384598
0.383998
0.383405
0.382818
0.382238
0.381665
0.381098
0.380537
0.379983
0.379434
0.37889
0.378352
0.377819
0.377291
0.376767
0.376248
0.375733
0.375222
0.374714
0.374209
0.373707
0.373207
0.37271
0.372215
0.371721
0.371228
0.370736
0.370245
0.444616
0.42936
0.414059
0.41259
0.411818
0.411045
0.410273
0.4095
0.408727
0.407954
0.407181
0.40641
0.405639
0.40487
0.404102
0.403336
0.402573
0.401813
0.401056
0.400303
0.399554
0.39881
0.39807
0.397335
0.396606
0.395882
0.395164
0.394452
0.393747
0.393048
0.392355
0.39167
0.390991
0.39032
0.389655
0.388998
0.388348
0.387705
0.387069
0.386441
0.385819
0.385205
0.384598
0.383998
0.383405
0.382818
0.382238
0.381665
0.381098
0.380537
0.379983
0.379434
0.37889
0.378352
0.377819
0.377291
0.376767
0.376248
0.375733
0.375222
0.374714
0.374209
0.373707
0.373207
0.37271
0.372215
0.371721
0.371228
0.370736
0.370245
0.444616
0.429362
0.414064
0.412595
0.411823
0.411051
0.410278
0.409505
0.408732
0.407959
0.407186
0.406414
0.405643
0.404874
0.404106
0.40334
0.402577
0.401816
0.401059
0.400306
0.399557
0.398812
0.398072
0.397337
0.396607
0.395883
0.395165
0.394453
0.393748
0.393049
0.392356
0.391671
0.390992
0.39032
0.389656
0.388998
0.388348
0.387705
0.387069
0.386441
0.38582
0.385205
0.384598
0.383998
0.383405
0.382818
0.382239
0.381665
0.381098
0.380537
0.379983
0.379434
0.37889
0.378352
0.377819
0.377291
0.376767
0.376248
0.375733
0.375222
0.374714
0.374209
0.373707
0.373207
0.37271
0.372215
0.371721
0.371228
0.370736
0.370245
0.444616
0.429363
0.414065
0.412597
0.411825
0.411053
0.41028
0.409507
0.408734
0.407961
0.407188
0.406416
0.405645
0.404875
0.404107
0.403342
0.402578
0.401818
0.401061
0.400307
0.399558
0.398813
0.398073
0.397338
0.396608
0.395884
0.395166
0.394454
0.393748
0.393049
0.392356
0.391671
0.390992
0.39032
0.389656
0.388998
0.388348
0.387705
0.387069
0.386441
0.38582
0.385205
0.384598
0.383998
0.383405
0.382818
0.382239
0.381665
0.381098
0.380537
0.379983
0.379434
0.37889
0.378352
0.377819
0.377291
0.376767
0.376248
0.375733
0.375222
0.374714
0.374209
0.373707
0.373207
0.37271
0.372215
0.371721
0.371228
0.370736
0.370245
0.444616
0.429363
0.414066
0.412597
0.411825
0.411053
0.41028
0.409507
0.408734
0.407961
0.407189
0.406417
0.405646
0.404876
0.404108
0.403342
0.402579
0.401818
0.401061
0.400308
0.399558
0.398813
0.398073
0.397338
0.396608
0.395884
0.395166
0.394454
0.393748
0.393049
0.392357
0.391671
0.390992
0.39032
0.389656
0.388998
0.388348
0.387705
0.38707
0.386441
0.38582
0.385205
0.384598
0.383998
0.383405
0.382818
0.382239
0.381665
0.381098
0.380537
0.379983
0.379434
0.37889
0.378352
0.377819
0.377291
0.376767
0.376248
0.375733
0.375222
0.374714
0.374209
0.373707
0.373207
0.37271
0.372215
0.371721
0.371228
0.370736
0.370245
0.444616
0.429363
0.414066
0.412597
0.411826
0.411053
0.410281
0.409508
0.408734
0.407961
0.407189
0.406417
0.405646
0.404876
0.404108
0.403342
0.402579
0.401818
0.401061
0.400308
0.399558
0.398813
0.398073
0.397338
0.396608
0.395884
0.395166
0.394454
0.393748
0.393049
0.392357
0.391671
0.390992
0.39032
0.389656
0.388998
0.388348
0.387705
0.38707
0.386441
0.38582
0.385205
0.384598
0.383998
0.383405
0.382818
0.382239
0.381665
0.381098
0.380537
0.379983
0.379434
0.37889
0.378352
0.377819
0.377291
0.376767
0.376248
0.375733
0.375222
0.374714
0.374209
0.373707
0.373207
0.37271
0.372215
0.371721
0.371228
0.370736
0.370245
0.444616
0.429363
0.414066
0.412597
0.411826
0.411053
0.410281
0.409508
0.408734
0.407961
0.407189
0.406417
0.405646
0.404876
0.404108
0.403342
0.402579
0.401818
0.401061
0.400308
0.399558
0.398813
0.398073
0.397338
0.396608
0.395884
0.395166
0.394454
0.393748
0.393049
0.392357
0.391671
0.390992
0.39032
0.389656
0.388998
0.388348
0.387705
0.38707
0.386441
0.38582
0.385205
0.384598
0.383998
0.383405
0.382818
0.382239
0.381665
0.381098
0.380537
0.379983
0.379434
0.37889
0.378352
0.377819
0.377291
0.376767
0.376248
0.375733
0.375222
0.374714
0.374209
0.373707
0.373207
0.37271
0.372215
0.371721
0.371228
0.370736
0.370245
0.444616
0.429363
0.414066
0.412597
0.411826
0.411053
0.410281
0.409508
0.408734
0.407961
0.407189
0.406417
0.405646
0.404876
0.404108
0.403342
0.402579
0.401818
0.401061
0.400308
0.399558
0.398813
0.398073
0.397338
0.396608
0.395884
0.395166
0.394454
0.393748
0.393049
0.392357
0.391671
0.390992
0.39032
0.389656
0.388998
0.388348
0.387705
0.38707
0.386441
0.38582
0.385205
0.384598
0.383998
0.383405
0.382818
0.382239
0.381665
0.381098
0.380537
0.379983
0.379434
0.37889
0.378352
0.377819
0.377291
0.376767
0.376248
0.375733
0.375222
0.374714
0.374209
0.373707
0.373207
0.37271
0.372215
0.371721
0.371228
0.370736
0.370245
0.444616
0.429363
0.414066
0.412597
0.411826
0.411053
0.410281
0.409508
0.408734
0.407961
0.407189
0.406417
0.405646
0.404876
0.404108
0.403342
0.402579
0.401818
0.401061
0.400308
0.399558
0.398813
0.398073
0.397338
0.396608
0.395884
0.395166
0.394454
0.393748
0.393049
0.392357
0.391671
0.390992
0.39032
0.389656
0.388998
0.388348
0.387705
0.38707
0.386441
0.38582
0.385205
0.384598
0.383998
0.383405
0.382818
0.382239
0.381665
0.381098
0.380537
0.379983
0.379434
0.37889
0.378352
0.377819
0.377291
0.376767
0.376248
0.375733
0.375222
0.374714
0.374209
0.373707
0.373207
0.37271
0.372215
0.371721
0.371228
0.370736
0.370245
0.444616
0.429363
0.414066
0.412597
0.411826
0.411053
0.410281
0.409508
0.408734
0.407961
0.407189
0.406417
0.405646
0.404876
0.404108
0.403342
0.402579
0.401818
0.401061
0.400308
0.399558
0.398813
0.398073
0.397338
0.396608
0.395884
0.395166
0.394454
0.393748
0.393049
0.392357
0.391671
0.390992
0.39032
0.389656
0.388998
0.388348
0.387705
0.38707
0.386441
0.38582
0.385205
0.384598
0.383998
0.383405
0.382818
0.382239
0.381665
0.381098
0.380537
0.379983
0.379434
0.37889
0.378352
0.377819
0.377291
0.376767
0.376248
0.375733
0.375222
0.374714
0.374209
0.373707
0.373207
0.37271
0.372215
0.371721
0.371228
0.370736
0.370245
0.444616
0.429363
0.414066
0.412597
0.411826
0.411053
0.410281
0.409508
0.408734
0.407961
0.407189
0.406417
0.405646
0.404876
0.404108
0.403342
0.402579
0.401818
0.401061
0.400308
0.399558
0.398813
0.398073
0.397338
0.396608
0.395884
0.395166
0.394454
0.393748
0.393049
0.392357
0.391671
0.390992
0.39032
0.389656
0.388998
0.388348
0.387705
0.38707
0.386441
0.38582
0.385205
0.384598
0.383998
0.383405
0.382818
0.382239
0.381665
0.381098
0.380537
0.379983
0.379434
0.37889
0.378352
0.377819
0.377291
0.376767
0.376248
0.375733
0.375222
0.374714
0.374209
0.373707
0.373207
0.37271
0.372215
0.371721
0.371228
0.370736
0.370245
0.444616
0.429363
0.414066
0.412597
0.411826
0.411053
0.410281
0.409508
0.408734
0.407961
0.407189
0.406417
0.405646
0.404876
0.404108
0.403342
0.402579
0.401818
0.401061
0.400308
0.399558
0.398813
0.398073
0.397338
0.396608
0.395884
0.395166
0.394454
0.393748
0.393049
0.392357
0.391671
0.390992
0.39032
0.389656
0.388998
0.388348
0.387705
0.38707
0.386441
0.38582
0.385205
0.384598
0.383998
0.383405
0.382818
0.382239
0.381665
0.381098
0.380537
0.379983
0.379434
0.37889
0.378352
0.377819
0.377291
0.376767
0.376248
0.375733
0.375222
0.374714
0.374209
0.373707
0.373207
0.37271
0.372215
0.371721
0.371228
0.370736
0.370245
0.444616
0.429363
0.414066
0.412597
0.411826
0.411053
0.410281
0.409508
0.408734
0.407961
0.407189
0.406417
0.405646
0.404876
0.404108
0.403342
0.402579
0.401818
0.401061
0.400308
0.399558
0.398813
0.398073
0.397338
0.396608
0.395884
0.395166
0.394454
0.393748
0.393049
0.392357
0.391671
0.390992
0.39032
0.389656
0.388998
0.388348
0.387705
0.38707
0.386441
0.38582
0.385205
0.384598
0.383998
0.383405
0.382818
0.382239
0.381665
0.381098
0.380537
0.379983
0.379434
0.37889
0.378352
0.377819
0.377291
0.376767
0.376248
0.375733
0.375222
0.374714
0.374209
0.373707
0.373207
0.37271
0.372215
0.371721
0.371228
0.370736
0.370245
0.444616
0.429363
0.414066
0.412597
0.411826
0.411053
0.410281
0.409508
0.408734
0.407961
0.407189
0.406417
0.405646
0.404876
0.404108
0.403342
0.402579
0.401818
0.401061
0.400308
0.399558
0.398813
0.398073
0.397338
0.396608
0.395884
0.395166
0.394454
0.393748
0.393049
0.392357
0.391671
0.390992
0.39032
0.389656
0.388998
0.388348
0.387705
0.38707
0.386441
0.38582
0.385205
0.384598
0.383998
0.383405
0.382818
0.382239
0.381665
0.381098
0.380537
0.379983
0.379434
0.37889
0.378352
0.377819
0.377291
0.376767
0.376248
0.375733
0.375222
0.374714
0.374209
0.373707
0.373207
0.37271
0.372215
0.371721
0.371228
0.370736
0.370245
0.444616
0.429363
0.414066
0.412597
0.411826
0.411053
0.410281
0.409508
0.408734
0.407961
0.407189
0.406417
0.405646
0.404876
0.404108
0.403342
0.402579
0.401818
0.401061
0.400308
0.399558
0.398813
0.398073
0.397338
0.396608
0.395884
0.395166
0.394454
0.393748
0.393049
0.392357
0.391671
0.390992
0.39032
0.389656
0.388998
0.388348
0.387705
0.38707
0.386441
0.38582
0.385205
0.384598
0.383998
0.383405
0.382818
0.382239
0.381665
0.381098
0.380537
0.379983
0.379434
0.37889
0.378352
0.377819
0.377291
0.376767
0.376248
0.375733
0.375222
0.374714
0.374209
0.373707
0.373207
0.37271
0.372215
0.371721
0.371228
0.370736
0.370245
0.444616
0.429363
0.414066
0.412597
0.411826
0.411053
0.410281
0.409508
0.408734
0.407961
0.407189
0.406417
0.405646
0.404876
0.404108
0.403342
0.402579
0.401818
0.401061
0.400308
0.399558
0.398813
0.398073
0.397338
0.396608
0.395884
0.395166
0.394454
0.393748
0.393049
0.392357
0.391671
0.390992
0.39032
0.389656
0.388998
0.388348
0.387705
0.38707
0.386441
0.38582
0.385205
0.384598
0.383998
0.383405
0.382818
0.382239
0.381665
0.381098
0.380537
0.379983
0.379434
0.37889
0.378352
0.377819
0.377291
0.376767
0.376248
0.375733
0.375222
0.374714
0.374209
0.373707
0.373207
0.37271
0.372215
0.371721
0.371228
0.370736
0.370245
0.444616
0.429363
0.414066
0.412597
0.411826
0.411053
0.410281
0.409508
0.408734
0.407961
0.407189
0.406417
0.405646
0.404876
0.404108
0.403342
0.402579
0.401818
0.401061
0.400308
0.399558
0.398813
0.398073
0.397338
0.396608
0.395884
0.395166
0.394454
0.393748
0.393049
0.392357
0.391671
0.390992
0.39032
0.389656
0.388998
0.388348
0.387705
0.38707
0.386441
0.38582
0.385205
0.384598
0.383998
0.383405
0.382818
0.382239
0.381665
0.381098
0.380537
0.379983
0.379434
0.37889
0.378352
0.377819
0.377291
0.376767
0.376248
0.375733
0.375222
0.374714
0.374209
0.373707
0.373207
0.37271
0.372215
0.371721
0.371228
0.370736
0.370245
0.444616
0.429363
0.414066
0.412597
0.411826
0.411053
0.410281
0.409508
0.408734
0.407961
0.407189
0.406417
0.405646
0.404876
0.404108
0.403342
0.402579
0.401818
0.401061
0.400308
0.399558
0.398813
0.398073
0.397338
0.396608
0.395884
0.395166
0.394454
0.393748
0.393049
0.392357
0.391671
0.390992
0.39032
0.389656
0.388998
0.388348
0.387705
0.38707
0.386441
0.38582
0.385205
0.384598
0.383998
0.383405
0.382818
0.382239
0.381665
0.381098
0.380537
0.379983
0.379434
0.37889
0.378352
0.377819
0.377291
0.376767
0.376248
0.375733
0.375222
0.374714
0.374209
0.373707
0.373207
0.37271
0.372215
0.371721
0.371228
0.370736
0.370245
0.444616
0.429363
0.414066
0.412597
0.411826
0.411053
0.410281
0.409508
0.408734
0.407961
0.407189
0.406417
0.405646
0.404876
0.404108
0.403342
0.402579
0.401818
0.401061
0.400308
0.399558
0.398813
0.398073
0.397338
0.396608
0.395884
0.395166
0.394454
0.393748
0.393049
0.392357
0.391671
0.390992
0.39032
0.389656
0.388998
0.388348
0.387705
0.38707
0.386441
0.38582
0.385205
0.384598
0.383998
0.383405
0.382818
0.382239
0.381665
0.381098
0.380537
0.379983
0.379434
0.37889
0.378352
0.377819
0.377291
0.376767
0.376248
0.375733
0.375222
0.374714
0.374209
0.373707
0.373207
0.37271
0.372215
0.371721
0.371228
0.370736
0.370245
0.444616
0.429363
0.414066
0.412597
0.411826
0.411053
0.410281