/*--------------------------------*- C++ -*----------------------------------*\
  =========                 |
  \\      /  F ield         | OpenFOAM: The Open Source CFD Toolbox
   \\    /   O peration     | Website:  https://openfoam.org
    \\  /    A nd           | Version:  13
     \\/     M anipulation  |
\*---------------------------------------------------------------------------*/
FoamFile
{
    format      ascii;
    class       volScalarField;
    location    "67.5";
    object      nut;
}
// * * * * * * * * * * * * * * * * * * * * * * * * * * * * * * * * * * * * * //

dimensions      [0 2 -1 0 0 0 0];

internalField   nonuniform List<scalar> 
315000
(
5.81646e-14
1.52266e-11
3.47251e-10
6.22529e-10
9.01137e-10
1.18327e-09
1.46929e-09
1.75952e-09
2.05407e-09
2.35285e-09
2.65551e-09
2.96146e-09
3.26989e-09
3.57978e-09
3.88999e-09
4.1992e-09
4.506e-09
4.80891e-09
5.10638e-09
5.39684e-09
5.67871e-09
5.9504e-09
6.21035e-09
6.45703e-09
6.68898e-09
6.90479e-09
7.10312e-09
7.28276e-09
7.44256e-09
7.58152e-09
7.69875e-09
7.79351e-09
7.86516e-09
7.91327e-09
7.9375e-09
7.9377e-09
7.91388e-09
7.86619e-09
7.79494e-09
7.70059e-09
7.58375e-09
7.44517e-09
7.28573e-09
7.10645e-09
6.90845e-09
6.69297e-09
6.46132e-09
6.21492e-09
5.95522e-09
5.68376e-09
5.40209e-09
5.1118e-09
4.81446e-09
4.51166e-09
4.20493e-09
3.89576e-09
3.58555e-09
3.27561e-09
2.9671e-09
2.66103e-09
2.3582e-09
2.0592e-09
1.76438e-09
1.47382e-09
1.18738e-09
9.0474e-10
6.25462e-10
3.49248e-10
1.53365e-11
5.86342e-14
1.45654e-12
3.87719e-10
8.7996e-08
1.58475e-07
2.29119e-07
3.00156e-07
3.71759e-07
4.44039e-07
5.17037e-07
5.90725e-07
6.65008e-07
7.39731e-07
8.14688e-07
8.89629e-07
9.64269e-07
1.0383e-06
1.11139e-06
1.1832e-06
1.25338e-06
1.3216e-06
1.38749e-06
1.45073e-06
1.51099e-06
1.56795e-06
1.62131e-06
1.67078e-06
1.71611e-06
1.75704e-06
1.79337e-06
1.82488e-06
1.85141e-06
1.87282e-06
1.88899e-06
1.89983e-06
1.90528e-06
1.90532e-06
1.89994e-06
1.88916e-06
1.87307e-06
1.85172e-06
1.82526e-06
1.79381e-06
1.75755e-06
1.71668e-06
1.67141e-06
1.62199e-06
1.56869e-06
1.51178e-06
1.45157e-06
1.38837e-06
1.32251e-06
1.25433e-06
1.18417e-06
1.11238e-06
1.0393e-06
9.65279e-07
8.90638e-07
8.15689e-07
7.40715e-07
6.65966e-07
5.91647e-07
5.17913e-07
4.44856e-07
3.72504e-07
3.00813e-07
2.29669e-07
1.58895e-07
8.82557e-08
3.88991e-10
1.46153e-12
5.896e-12
1.5718e-09
8.86015e-07
1.55724e-06
2.20553e-06
2.83707e-06
3.45623e-06
4.06589e-06
4.66776e-06
5.26259e-06
5.85036e-06
6.43047e-06
7.00189e-06
7.5633e-06
8.11322e-06
8.65004e-06
9.17212e-06
9.67778e-06
1.01654e-05
1.06334e-05
1.10802e-05
1.15044e-05
1.19046e-05
1.22793e-05
1.26275e-05
1.29478e-05
1.32393e-05
1.3501e-05
1.37319e-05
1.39313e-05
1.40985e-05
1.4233e-05
1.43343e-05
1.44021e-05
1.44362e-05
1.44363e-05
1.44026e-05
1.43351e-05
1.42341e-05
1.40999e-05
1.3933e-05
1.37339e-05
1.35032e-05
1.32419e-05
1.29507e-05
1.26306e-05
1.22827e-05
1.19082e-05
1.15083e-05
1.10844e-05
1.06377e-05
1.01699e-05
9.68248e-06
9.17696e-06
8.65501e-06
8.11828e-06
7.56842e-06
7.00701e-06
6.43556e-06
5.85538e-06
5.26748e-06
4.67245e-06
4.07031e-06
3.4603e-06
2.8407e-06
2.2086e-06
1.55962e-06
8.87509e-07
1.57473e-09
5.90734e-12
1.04144e-11
2.77709e-09
1.53342e-06
2.6468e-06
3.69729e-06
4.70241e-06
5.67377e-06
6.61891e-06
7.54246e-06
8.44693e-06
9.3333e-06
1.02015e-05
1.10507e-05
1.18796e-05
1.26866e-05
1.34702e-05
1.42286e-05
1.49599e-05
1.56624e-05
1.63344e-05
1.69742e-05
1.758e-05
1.81503e-05
1.86835e-05
1.9178e-05
1.96324e-05
2.00453e-05
2.04156e-05
2.07421e-05
2.10238e-05
2.12599e-05
2.14497e-05
2.15926e-05
2.16881e-05
2.1736e-05
2.17361e-05
2.16885e-05
2.15933e-05
2.14507e-05
2.12612e-05
2.10254e-05
2.07439e-05
2.04177e-05
2.00477e-05
1.9635e-05
1.91809e-05
1.86866e-05
1.81537e-05
1.75836e-05
1.6978e-05
1.63385e-05
1.56666e-05
1.49643e-05
1.42331e-05
1.34749e-05
1.26914e-05
1.18844e-05
1.10556e-05
1.02064e-05
9.33814e-06
8.45166e-06
7.54703e-06
6.62325e-06
5.67779e-06
4.70601e-06
3.70037e-06
2.64922e-06
1.53499e-06
2.78031e-09
1.04269e-11
1.4822e-11
3.95363e-09
2.14259e-06
3.64383e-06
5.03697e-06
6.35466e-06
7.61731e-06
8.83775e-06
1.00238e-05
1.118e-05
1.23084e-05
1.34097e-05
1.44835e-05
1.55289e-05
1.65446e-05
1.7529e-05
1.84806e-05
1.93976e-05
2.02784e-05
2.1121e-05
2.19233e-05
2.26834e-05
2.33989e-05
2.40679e-05
2.46882e-05
2.52581e-05
2.57758e-05
2.62398e-05
2.66488e-05
2.70015e-05
2.72971e-05
2.75345e-05
2.77132e-05
2.78326e-05
2.78925e-05
2.78926e-05
2.78329e-05
2.77137e-05
2.75353e-05
2.7298e-05
2.70028e-05
2.66502e-05
2.62415e-05
2.57777e-05
2.52602e-05
2.46905e-05
2.40704e-05
2.34017e-05
2.26863e-05
2.19264e-05
2.11243e-05
2.02818e-05
1.94012e-05
1.84843e-05
1.75329e-05
1.65485e-05
1.55329e-05
1.44876e-05
1.34137e-05
1.23124e-05
1.11839e-05
1.00277e-05
8.8414e-06
7.62072e-06
6.35774e-06
5.03963e-06
3.64594e-06
2.14399e-06
3.95664e-09
1.48337e-11
1.87117e-11
4.99272e-09
2.66399e-06
4.47904e-06
6.1441e-06
7.70713e-06
9.19693e-06
1.06311e-05
1.20205e-05
1.33713e-05
1.46866e-05
1.5968e-05
1.72155e-05
1.84287e-05
1.96064e-05
2.07474e-05
2.18503e-05
2.29135e-05
2.39349e-05
2.49122e-05
2.58429e-05
2.67242e-05
2.75537e-05
2.83289e-05
2.90476e-05
2.97076e-05
3.0307e-05
3.08441e-05
3.13175e-05
3.17257e-05
3.20676e-05
3.23423e-05
3.2549e-05
3.26872e-05
3.27564e-05
3.27565e-05
3.26874e-05
3.25494e-05
3.23429e-05
3.20683e-05
3.17265e-05
3.13185e-05
3.08453e-05
3.03083e-05
2.97091e-05
2.90493e-05
2.83308e-05
2.75558e-05
2.67264e-05
2.58452e-05
2.49147e-05
2.39375e-05
2.29162e-05
2.18532e-05
2.07504e-05
1.96094e-05
1.84318e-05
1.72187e-05
1.59712e-05
1.46898e-05
1.33744e-05
1.20235e-05
1.0634e-05
9.19962e-06
7.70958e-06
6.14622e-06
4.48074e-06
2.66514e-06
4.99532e-09
1.87219e-11
2.17965e-11
5.81746e-09
3.06788e-06
5.11613e-06
6.98086e-06
8.72299e-06
1.0378e-05
1.19675e-05
1.35043e-05
1.49962e-05
1.64471e-05
1.78591e-05
1.92328e-05
2.05679e-05
2.18636e-05
2.3119e-05
2.43327e-05
2.55029e-05
2.66272e-05
2.77029e-05
2.87271e-05
2.96968e-05
3.06093e-05
3.14619e-05
3.22522e-05
3.29779e-05
3.36371e-05
3.42277e-05
3.47482e-05
3.5197e-05
3.55729e-05
3.5875e-05
3.61023e-05
3.62541e-05
3.63302e-05
3.63303e-05
3.62543e-05
3.61025e-05
3.58754e-05
3.55735e-05
3.51976e-05
3.47489e-05
3.42286e-05
3.36381e-05
3.29791e-05
3.22535e-05
3.14633e-05
3.06108e-05
2.96984e-05
2.87288e-05
2.77048e-05
2.66292e-05
2.5505e-05
2.43349e-05
2.31213e-05
2.1866e-05
2.05703e-05
1.92352e-05
1.78616e-05
1.64496e-05
1.49986e-05
1.35067e-05
1.19698e-05
1.03802e-05
8.72493e-06
6.98256e-06
5.1175e-06
3.06882e-06
5.81967e-09
2.18052e-11
2.40073e-11
6.40904e-09
3.35264e-06
5.56071e-06
7.56139e-06
9.4251e-06
1.11922e-05
1.28869e-05
1.45237e-05
1.61111e-05
1.7654e-05
1.91547e-05
2.06141e-05
2.20321e-05
2.34084e-05
2.47419e-05
2.60312e-05
2.72745e-05
2.84691e-05
2.96119e-05
3.06998e-05
3.17297e-05
3.26989e-05
3.36044e-05
3.44437e-05
3.52145e-05
3.59145e-05
3.65417e-05
3.70945e-05
3.75712e-05
3.79705e-05
3.82913e-05
3.85327e-05
3.8694e-05
3.87748e-05
3.87749e-05
3.86942e-05
3.85329e-05
3.82916e-05
3.79709e-05
3.75717e-05
3.70951e-05
3.65425e-05
3.59153e-05
3.52154e-05
3.44448e-05
3.36055e-05
3.27001e-05
3.17311e-05
3.07013e-05
2.96135e-05
2.84708e-05
2.72763e-05
2.60331e-05
2.47438e-05
2.34104e-05
2.20342e-05
2.06162e-05
1.91568e-05
1.76561e-05
1.61132e-05
1.45257e-05
1.28889e-05
1.1194e-05
9.42676e-06
7.56284e-06
5.56188e-06
3.35345e-06
6.411e-09
2.40152e-11
2.54512e-11
6.79576e-09
3.53673e-06
5.84632e-06
7.93307e-06
9.87368e-06
1.17117e-05
1.3473e-05
1.51731e-05
1.68212e-05
1.84224e-05
1.99794e-05
2.14933e-05
2.29642e-05
2.43918e-05
2.57751e-05
2.71128e-05
2.84028e-05
2.96422e-05
3.08279e-05
3.19565e-05
3.3025e-05
3.40304e-05
3.49698e-05
3.58405e-05
3.66401e-05
3.73664e-05
3.80171e-05
3.85906e-05
3.90852e-05
3.94995e-05
3.98324e-05
4.00829e-05
4.02503e-05
4.03341e-05
4.03341e-05
4.02504e-05
4.00831e-05
3.98327e-05
3.95e-05
3.90858e-05
3.85912e-05
3.80179e-05
3.73672e-05
3.6641e-05
3.58415e-05
3.49709e-05
3.40316e-05
3.30264e-05
3.1958e-05
3.08294e-05
2.96439e-05
2.84045e-05
2.71146e-05
2.5777e-05
2.43937e-05
2.29662e-05
2.14953e-05
1.99814e-05
1.84244e-05
1.68232e-05
1.5175e-05
1.34748e-05
1.17134e-05
9.87526e-06
7.93444e-06
5.84742e-06
3.53749e-06
6.79764e-09
2.54588e-11
2.63178e-11
7.02804e-09
3.64659e-06
6.01616e-06
8.15372e-06
1.01397e-05
1.20197e-05
1.38204e-05
1.5558e-05
1.72421e-05
1.88779e-05
2.04684e-05
2.20148e-05
2.35173e-05
2.49755e-05
2.63886e-05
2.77553e-05
2.90732e-05
3.03395e-05
3.15508e-05
3.27039e-05
3.37955e-05
3.48226e-05
3.57823e-05
3.66719e-05
3.74889e-05
3.82308e-05
3.88958e-05
3.94817e-05
3.99871e-05
4.04104e-05
4.07505e-05
4.10065e-05
4.11775e-05
4.12632e-05
4.12632e-05
4.11777e-05
4.10067e-05
4.07509e-05
4.04109e-05
3.99876e-05
3.94824e-05
3.88965e-05
3.82317e-05
3.74898e-05
3.6673e-05
3.57835e-05
3.48239e-05
3.37969e-05
3.27054e-05
3.15524e-05
3.03412e-05
2.9075e-05
2.77571e-05
2.63905e-05
2.49774e-05
2.35193e-05
2.20169e-05
2.04705e-05
1.888e-05
1.72441e-05
1.556e-05
1.38223e-05
1.20214e-05
1.01413e-05
8.1551e-06
6.01728e-06
3.64736e-06
7.02995e-09
2.63254e-11
2.67988e-11
7.15711e-09
3.70744e-06
6.11008e-06
8.27565e-06
1.02868e-05
1.21899e-05
1.40124e-05
1.57709e-05
1.74749e-05
1.91301e-05
2.07393e-05
2.23038e-05
2.38239e-05
2.52992e-05
2.67291e-05
2.8112e-05
2.94457e-05
3.0727e-05
3.19527e-05
3.31195e-05
3.42242e-05
3.52635e-05
3.62347e-05
3.71349e-05
3.79616e-05
3.87125e-05
3.93854e-05
3.99784e-05
4.04898e-05
4.09182e-05
4.12625e-05
4.15215e-05
4.16946e-05
4.17813e-05
4.17813e-05
4.16948e-05
4.15218e-05
4.12628e-05
4.09188e-05
4.04904e-05
3.99791e-05
3.93862e-05
3.87135e-05
3.79627e-05
3.71361e-05
3.6236e-05
3.52649e-05
3.42257e-05
3.31212e-05
3.19545e-05
3.07288e-05
2.94476e-05
2.8114e-05
2.67311e-05
2.53013e-05
2.3826e-05
2.23059e-05
2.07415e-05
1.91322e-05
1.7477e-05
1.57729e-05
1.40144e-05
1.21917e-05
1.02884e-05
8.27709e-06
6.11124e-06
3.70824e-06
7.15909e-09
2.68068e-11
2.70474e-11
7.22386e-09
3.73886e-06
6.15855e-06
8.33859e-06
1.03627e-05
1.22778e-05
1.41117e-05
1.5881e-05
1.75954e-05
1.92607e-05
2.08797e-05
2.24537e-05
2.3983e-05
2.54674e-05
2.69061e-05
2.82975e-05
2.96395e-05
3.09288e-05
3.21621e-05
3.33362e-05
3.44477e-05
3.54935e-05
3.64707e-05
3.73766e-05
3.82085e-05
3.8964e-05
3.96412e-05
4.02379e-05
4.07526e-05
4.11837e-05
4.15301e-05
4.17907e-05
4.19649e-05
4.20522e-05
4.20523e-05
4.19651e-05
4.1791e-05
4.15305e-05
4.11842e-05
4.07532e-05
4.02387e-05
3.96421e-05
3.89651e-05
3.82097e-05
3.73779e-05
3.64722e-05
3.54951e-05
3.44493e-05
3.3338e-05
3.2164e-05
3.09307e-05
2.96415e-05
2.82997e-05
2.69082e-05
2.54696e-05
2.39853e-05
2.2456e-05
2.0882e-05
1.9263e-05
1.75977e-05
1.58831e-05
1.41137e-05
1.22797e-05
1.03644e-05
8.34009e-06
6.15977e-06
3.7397e-06
7.22591e-09
2.70556e-11
2.71674e-11
7.25612e-09
3.75406e-06
6.18199e-06
8.36903e-06
1.03994e-05
1.23204e-05
1.41598e-05
1.59344e-05
1.7654e-05
1.93242e-05
2.0948e-05
2.25266e-05
2.40605e-05
2.55494e-05
2.69924e-05
2.83881e-05
2.97342e-05
3.10274e-05
3.22646e-05
3.34422e-05
3.45571e-05
3.56062e-05
3.65864e-05
3.74951e-05
3.83295e-05
3.90875e-05
3.97667e-05
4.03653e-05
4.08815e-05
4.1314e-05
4.16615e-05
4.1923e-05
4.20977e-05
4.21852e-05
4.21853e-05
4.20979e-05
4.19233e-05
4.16619e-05
4.13146e-05
4.08823e-05
4.03661e-05
3.97677e-05
3.90886e-05
3.83308e-05
3.74964e-05
3.65879e-05
3.56078e-05
3.45589e-05
3.34441e-05
3.22665e-05
3.10295e-05
2.97363e-05
2.83903e-05
2.69947e-05
2.55517e-05
2.40629e-05
2.2529e-05
2.09503e-05
1.93265e-05
1.76563e-05
1.59366e-05
1.41619e-05
1.23223e-05
1.04012e-05
8.37058e-06
6.18324e-06
3.75492e-06
7.25823e-09
2.71758e-11
2.72218e-11
7.27076e-09
3.76095e-06
6.19264e-06
8.38287e-06
1.04161e-05
1.23398e-05
1.41817e-05
1.59588e-05
1.76807e-05
1.93532e-05
2.09792e-05
2.256e-05
2.40961e-05
2.5587e-05
2.7032e-05
2.84297e-05
2.97777e-05
3.10728e-05
3.23117e-05
3.3491e-05
3.46075e-05
3.56581e-05
3.66397e-05
3.75497e-05
3.83854e-05
3.91444e-05
3.98246e-05
4.0424e-05
4.09411e-05
4.13742e-05
4.17222e-05
4.1984e-05
4.2159e-05
4.22467e-05
4.22468e-05
4.21592e-05
4.19844e-05
4.17226e-05
4.13748e-05
4.09418e-05
4.04249e-05
3.98256e-05
3.91455e-05
3.83867e-05
3.75511e-05
3.66413e-05
3.56598e-05
3.46093e-05
3.34929e-05
3.23137e-05
3.10749e-05
2.97799e-05
2.8432e-05
2.70344e-05
2.55894e-05
2.40985e-05
2.25625e-05
2.09816e-05
1.93556e-05
1.76831e-05
1.5961e-05
1.41839e-05
1.23418e-05
1.0418e-05
8.38446e-06
6.19392e-06
3.76184e-06
7.27291e-09
2.72304e-11
2.72451e-11
7.27703e-09
3.76391e-06
6.1972e-06
8.3888e-06
1.04233e-05
1.23481e-05
1.41912e-05
1.59692e-05
1.76922e-05
1.93657e-05
2.09927e-05
2.25745e-05
2.41114e-05
2.56032e-05
2.70492e-05
2.84477e-05
2.97965e-05
3.10924e-05
3.23321e-05
3.35121e-05
3.46294e-05
3.56806e-05
3.66628e-05
3.75734e-05
3.84095e-05
3.9169e-05
3.98497e-05
4.04495e-05
4.09669e-05
4.14002e-05
4.17484e-05
4.20105e-05
4.21856e-05
4.22733e-05
4.22734e-05
4.21858e-05
4.20108e-05
4.17489e-05
4.14009e-05
4.09676e-05
4.04504e-05
3.98507e-05
3.91702e-05
3.84109e-05
3.75748e-05
3.66644e-05
3.56823e-05
3.46312e-05
3.35141e-05
3.23341e-05
3.10945e-05
2.97987e-05
2.845e-05
2.70515e-05
2.56056e-05
2.41139e-05
2.25769e-05
2.09951e-05
1.93681e-05
1.76946e-05
1.59715e-05
1.41934e-05
1.23501e-05
1.04251e-05
8.39041e-06
6.1985e-06
3.7648e-06
7.2792e-09
2.72537e-11
2.72545e-11
7.27956e-09
3.76511e-06
6.19905e-06
8.39121e-06
1.04262e-05
1.23515e-05
1.4195e-05
1.59735e-05
1.76969e-05
1.93708e-05
2.09982e-05
2.25803e-05
2.41177e-05
2.56099e-05
2.70562e-05
2.84551e-05
2.98042e-05
3.11004e-05
3.23404e-05
3.35208e-05
3.46383e-05
3.56898e-05
3.66723e-05
3.7583e-05
3.84194e-05
3.91791e-05
3.98599e-05
4.04599e-05
4.09774e-05
4.14109e-05
4.17592e-05
4.20213e-05
4.21964e-05
4.22842e-05
4.22842e-05
4.21966e-05
4.20216e-05
4.17597e-05
4.14115e-05
4.09782e-05
4.04608e-05
3.9861e-05
3.91803e-05
3.84208e-05
3.75845e-05
3.66739e-05
3.56915e-05
3.46401e-05
3.35227e-05
3.23425e-05
3.11026e-05
2.98064e-05
2.84574e-05
2.70585e-05
2.56123e-05
2.41201e-05
2.25828e-05
2.10006e-05
1.93732e-05
1.76993e-05
1.59758e-05
1.41972e-05
1.23535e-05
1.04281e-05
8.39283e-06
6.20035e-06
3.766e-06
7.28175e-09
2.72632e-11
2.72581e-11
7.28054e-09
3.76557e-06
6.19976e-06
8.39214e-06
1.04273e-05
1.23528e-05
1.41965e-05
1.59752e-05
1.76987e-05
1.93728e-05
2.10003e-05
2.25826e-05
2.41201e-05
2.56124e-05
2.70589e-05
2.84579e-05
2.98072e-05
3.11035e-05
3.23436e-05
3.35241e-05
3.46417e-05
3.56933e-05
3.66759e-05
3.75868e-05
3.84233e-05
3.9183e-05
3.98639e-05
4.0464e-05
4.09815e-05
4.1415e-05
4.17633e-05
4.20255e-05
4.22006e-05
4.22884e-05
4.22885e-05
4.22009e-05
4.20258e-05
4.17638e-05
4.14157e-05
4.09823e-05
4.04649e-05
3.9865e-05
3.91842e-05
3.84246e-05
3.75883e-05
3.66775e-05
3.56951e-05
3.46436e-05
3.35261e-05
3.23457e-05
3.11057e-05
2.98094e-05
2.84602e-05
2.70613e-05
2.56149e-05
2.41226e-05
2.25851e-05
2.10028e-05
1.93752e-05
1.77011e-05
1.59775e-05
1.41987e-05
1.23548e-05
1.04292e-05
8.39376e-06
6.20107e-06
3.76647e-06
7.28273e-09
2.72668e-11
2.72594e-11
7.2809e-09
3.76574e-06
6.20002e-06
8.39248e-06
1.04277e-05
1.23533e-05
1.4197e-05
1.59758e-05
1.76994e-05
1.93735e-05
2.10011e-05
2.25835e-05
2.4121e-05
2.56134e-05
2.70599e-05
2.8459e-05
2.98083e-05
3.11047e-05
3.23449e-05
3.35254e-05
3.4643e-05
3.56947e-05
3.66773e-05
3.75882e-05
3.84247e-05
3.91845e-05
3.98654e-05
4.04655e-05
4.0983e-05
4.14166e-05
4.17649e-05
4.2027e-05
4.22022e-05
4.229e-05
4.229e-05
4.22024e-05
4.20274e-05
4.17654e-05
4.14172e-05
4.09838e-05
4.04664e-05
3.98665e-05
3.91857e-05
3.8426e-05
3.75897e-05
3.66789e-05
3.56964e-05
3.46449e-05
3.35274e-05
3.23469e-05
3.11069e-05
2.98105e-05
2.84613e-05
2.70623e-05
2.56158e-05
2.41235e-05
2.2586e-05
2.10036e-05
1.9376e-05
1.77018e-05
1.59781e-05
1.41992e-05
1.23553e-05
1.04296e-05
8.39411e-06
6.20134e-06
3.76664e-06
7.28309e-09
2.72681e-11
2.72599e-11
7.28103e-09
3.7658e-06
6.20011e-06
8.3926e-06
1.04279e-05
1.23534e-05
1.41972e-05
1.5976e-05
1.76996e-05
1.93738e-05
2.10014e-05
2.25838e-05
2.41213e-05
2.56137e-05
2.70602e-05
2.84594e-05
2.98087e-05
3.11051e-05
3.23453e-05
3.35258e-05
3.46435e-05
3.56951e-05
3.66778e-05
3.75887e-05
3.84252e-05
3.9185e-05
3.98659e-05
4.0466e-05
4.09836e-05
4.14171e-05
4.17655e-05
4.20276e-05
4.22028e-05
4.22905e-05
4.22906e-05
4.2203e-05
4.2028e-05
4.1766e-05
4.14178e-05
4.09843e-05
4.04669e-05
3.9867e-05
3.91862e-05
3.84266e-05
3.75902e-05
3.66794e-05
3.56969e-05
3.46454e-05
3.35278e-05
3.23474e-05
3.11073e-05
2.98109e-05
2.84617e-05
2.70626e-05
2.56162e-05
2.41238e-05
2.25863e-05
2.10039e-05
1.93762e-05
1.7702e-05
1.59783e-05
1.41994e-05
1.23555e-05
1.04298e-05
8.39423e-06
6.20143e-06
3.7667e-06
7.28322e-09
2.72686e-11
2.726e-11
7.28107e-09
3.76582e-06
6.20015e-06
8.39264e-06
1.04279e-05
1.23535e-05
1.41973e-05
1.59761e-05
1.76997e-05
1.93738e-05
2.10015e-05
2.25839e-05
2.41214e-05
2.56138e-05
2.70604e-05
2.84595e-05
2.98088e-05
3.11053e-05
3.23454e-05
3.3526e-05
3.46437e-05
3.56953e-05
3.6678e-05
3.75889e-05
3.84254e-05
3.91852e-05
3.98661e-05
4.04662e-05
4.09838e-05
4.14173e-05
4.17657e-05
4.20278e-05
4.2203e-05
4.22907e-05
4.22908e-05
4.22032e-05
4.20281e-05
4.17662e-05
4.1418e-05
4.09845e-05
4.04671e-05
3.98672e-05
3.91864e-05
3.84267e-05
3.75903e-05
3.66796e-05
3.5697e-05
3.46455e-05
3.3528e-05
3.23475e-05
3.11074e-05
2.98111e-05
2.84618e-05
2.70628e-05
2.56163e-05
2.41239e-05
2.25864e-05
2.10039e-05
1.93763e-05
1.77021e-05
1.59784e-05
1.41995e-05
1.23556e-05
1.04298e-05
8.39427e-06
6.20146e-06
3.76672e-06
7.28326e-09
2.72688e-11
2.72601e-11
7.28108e-09
3.76582e-06
6.20016e-06
8.39266e-06
1.0428e-05
1.23535e-05
1.41973e-05
1.59761e-05
1.76997e-05
1.93739e-05
2.10015e-05
2.25839e-05
2.41215e-05
2.56139e-05
2.70604e-05
2.84595e-05
2.98089e-05
3.11053e-05
3.23455e-05
3.3526e-05
3.46437e-05
3.56954e-05
3.6678e-05
3.75889e-05
3.84255e-05
3.91853e-05
3.98662e-05
4.04663e-05
4.09838e-05
4.14174e-05
4.17657e-05
4.20279e-05
4.22031e-05
4.22908e-05
4.22909e-05
4.22033e-05
4.20282e-05
4.17662e-05
4.1418e-05
4.09846e-05
4.04672e-05
3.98672e-05
3.91865e-05
3.84268e-05
3.75904e-05
3.66796e-05
3.56971e-05
3.46456e-05
3.3528e-05
3.23476e-05
3.11075e-05
2.98111e-05
2.84619e-05
2.70628e-05
2.56163e-05
2.41239e-05
2.25864e-05
2.1004e-05
1.93763e-05
1.77021e-05
1.59784e-05
1.41995e-05
1.23556e-05
1.04298e-05
8.39428e-06
6.20147e-06
3.76673e-06
7.28328e-09
2.72688e-11
2.72601e-11
7.28108e-09
3.76582e-06
6.20016e-06
8.39266e-06
1.0428e-05
1.23535e-05
1.41973e-05
1.59761e-05
1.76997e-05
1.93739e-05
2.10015e-05
2.25839e-05
2.41215e-05
2.56139e-05
2.70604e-05
2.84595e-05
2.98089e-05
3.11053e-05
3.23455e-05
3.35261e-05
3.46437e-05
3.56954e-05
3.6678e-05
3.75889e-05
3.84255e-05
3.91853e-05
3.98662e-05
4.04663e-05
4.09838e-05
4.14174e-05
4.17657e-05
4.20279e-05
4.22031e-05
4.22908e-05
4.22909e-05
4.22033e-05
4.20282e-05
4.17662e-05
4.1418e-05
4.09846e-05
4.04672e-05
3.98673e-05
3.91865e-05
3.84268e-05
3.75904e-05
3.66797e-05
3.56971e-05
3.46456e-05
3.3528e-05
3.23476e-05
3.11075e-05
2.98111e-05
2.84619e-05
2.70628e-05
2.56163e-05
2.4124e-05
2.25864e-05
2.1004e-05
1.93763e-05
1.77022e-05
1.59784e-05
1.41995e-05
1.23556e-05
1.04298e-05
8.39429e-06
6.20147e-06
3.76673e-06
7.28328e-09
2.72688e-11
2.72601e-11
7.28109e-09
3.76582e-06
6.20016e-06
8.39266e-06
1.0428e-05
1.23535e-05
1.41973e-05
1.59761e-05
1.76997e-05
1.93739e-05
2.10015e-05
2.25839e-05
2.41215e-05
2.56139e-05
2.70604e-05
2.84595e-05
2.98089e-05
3.11053e-05
3.23455e-05
3.35261e-05
3.46437e-05
3.56954e-05
3.6678e-05
3.75889e-05
3.84255e-05
3.91853e-05
3.98662e-05
4.04663e-05
4.09838e-05
4.14174e-05
4.17657e-05
4.20279e-05
4.22031e-05
4.22908e-05
4.22909e-05
4.22033e-05
4.20282e-05
4.17662e-05
4.1418e-05
4.09846e-05
4.04672e-05
3.98673e-05
3.91865e-05
3.84268e-05
3.75904e-05
3.66797e-05
3.56971e-05
3.46456e-05
3.3528e-05
3.23476e-05
3.11075e-05
2.98111e-05
2.84619e-05
2.70628e-05
2.56164e-05
2.4124e-05
2.25864e-05
2.1004e-05
1.93764e-05
1.77022e-05
1.59784e-05
1.41995e-05
1.23556e-05
1.04298e-05
8.39429e-06
6.20147e-06
3.76673e-06
7.28328e-09
2.72688e-11
2.72601e-11
7.28109e-09
3.76582e-06
6.20016e-06
8.39266e-06
1.0428e-05
1.23535e-05
1.41973e-05
1.59761e-05
1.76997e-05
1.93739e-05
2.10015e-05
2.25839e-05
2.41215e-05
2.56139e-05
2.70604e-05
2.84595e-05
2.98089e-05
3.11053e-05
3.23455e-05
3.35261e-05
3.46437e-05
3.56954e-05
3.6678e-05
3.75889e-05
3.84255e-05
3.91853e-05
3.98662e-05
4.04663e-05
4.09838e-05
4.14174e-05
4.17657e-05
4.20279e-05
4.22031e-05
4.22908e-05
4.22909e-05
4.22033e-05
4.20282e-05
4.17663e-05
4.14181e-05
4.09846e-05
4.04672e-05
3.98673e-05
3.91865e-05
3.84268e-05
3.75904e-05
3.66797e-05
3.56971e-05
3.46456e-05
3.3528e-05
3.23476e-05
3.11075e-05
2.98111e-05
2.84619e-05
2.70628e-05
2.56164e-05
2.4124e-05
2.25864e-05
2.1004e-05
1.93764e-05
1.77022e-05
1.59784e-05
1.41995e-05
1.23556e-05
1.04298e-05
8.39429e-06
6.20147e-06
3.76673e-06
7.28328e-09
2.72688e-11
2.72601e-11
7.28109e-09
3.76582e-06
6.20016e-06
8.39266e-06
1.0428e-05
1.23535e-05
1.41973e-05
1.59761e-05
1.76997e-05
1.93739e-05
2.10015e-05
2.25839e-05
2.41215e-05
2.56139e-05
2.70604e-05
2.84595e-05
2.98089e-05
3.11053e-05
3.23455e-05
3.35261e-05
3.46437e-05
3.56954e-05
3.6678e-05
3.75889e-05
3.84255e-05
3.91853e-05
3.98662e-05
4.04663e-05
4.09838e-05
4.14174e-05
4.17657e-05
4.20279e-05
4.22031e-05
4.22908e-05
4.22909e-05
4.22033e-05
4.20282e-05
4.17663e-05
4.14181e-05
4.09846e-05
4.04672e-05
3.98673e-05
3.91865e-05
3.84268e-05
3.75904e-05
3.66797e-05
3.56971e-05
3.46456e-05
3.3528e-05
3.23476e-05
3.11075e-05
2.98111e-05
2.84619e-05
2.70628e-05
2.56164e-05
2.4124e-05
2.25864e-05
2.1004e-05
1.93764e-05
1.77022e-05
1.59784e-05
1.41995e-05
1.23556e-05
1.04298e-05
8.39429e-06
6.20147e-06
3.76673e-06
7.28328e-09
2.72688e-11
2.72601e-11
7.28109e-09
3.76582e-06
6.20016e-06
8.39266e-06
1.0428e-05
1.23535e-05
1.41973e-05
1.59761e-05
1.76997e-05
1.93739e-05
2.10015e-05
2.25839e-05
2.41215e-05
2.56139e-05
2.70604e-05
2.84595e-05
2.98089e-05
3.11053e-05
3.23455e-05
3.35261e-05
3.46437e-05
3.56954e-05
3.6678e-05
3.75889e-05
3.84255e-05
3.91853e-05
3.98662e-05
4.04663e-05
4.09838e-05
4.14174e-05
4.17657e-05
4.20279e-05
4.22031e-05
4.22908e-05
4.22909e-05
4.22033e-05
4.20282e-05
4.17663e-05
4.14181e-05
4.09846e-05
4.04672e-05
3.98673e-05
3.91865e-05
3.84268e-05
3.75904e-05
3.66797e-05
3.56971e-05
3.46456e-05
3.3528e-05
3.23476e-05
3.11075e-05
2.98111e-05
2.84619e-05
2.70628e-05
2.56164e-05
2.4124e-05
2.25864e-05
2.1004e-05
1.93764e-05
1.77022e-05
1.59784e-05
1.41995e-05
1.23556e-05
1.04298e-05
8.39429e-06
6.20147e-06
3.76673e-06
7.28328e-09
2.72688e-11
2.72601e-11
7.28109e-09
3.76582e-06
6.20016e-06
8.39266e-06
1.0428e-05
1.23535e-05
1.41973e-05
1.59761e-05
1.76997e-05
1.93739e-05
2.10015e-05
2.25839e-05
2.41215e-05
2.56139e-05
2.70604e-05
2.84595e-05
2.98089e-05
3.11053e-05
3.23455e-05
3.35261e-05
3.46437e-05
3.56954e-05
3.6678e-05
3.75889e-05
3.84255e-05
3.91853e-05
3.98662e-05
4.04663e-05
4.09838e-05
4.14174e-05
4.17657e-05
4.20279e-05
4.22031e-05
4.22908e-05
4.22909e-05
4.22033e-05
4.20282e-05
4.17663e-05
4.14181e-05
4.09846e-05
4.04672e-05
3.98673e-05
3.91865e-05
3.84268e-05
3.75904e-05
3.66797e-05
3.56971e-05
3.46456e-05
3.3528e-05
3.23476e-05
3.11075e-05
2.98111e-05
2.84619e-05
2.70628e-05
2.56164e-05
2.4124e-05
2.25864e-05
2.1004e-05
1.93764e-05
1.77022e-05
1.59784e-05
1.41995e-05
1.23556e-05
1.04298e-05
8.39429e-06
6.20147e-06
3.76673e-06
7.28328e-09
2.72688e-11
2.72601e-11
7.28109e-09
3.76582e-06
6.20016e-06
8.39266e-06
1.0428e-05
1.23535e-05
1.41973e-05
1.59761e-05
1.76997e-05
1.93739e-05
2.10015e-05
2.25839e-05
2.41215e-05
2.56139e-05
2.70604e-05
2.84595e-05
2.98089e-05
3.11053e-05
3.23455e-05
3.35261e-05
3.46437e-05
3.56954e-05
3.6678e-05
3.75889e-05
3.84255e-05
3.91853e-05
3.98662e-05
4.04663e-05
4.09838e-05
4.14174e-05
4.17657e-05
4.20279e-05
4.22031e-05
4.22908e-05
4.22909e-05
4.22033e-05
4.20282e-05
4.17663e-05
4.14181e-05
4.09846e-05
4.04672e-05
3.98673e-05
3.91865e-05
3.84268e-05
3.75904e-05
3.66797e-05
3.56971e-05
3.46456e-05
3.3528e-05
3.23476e-05
3.11075e-05
2.98111e-05
2.84619e-05
2.70628e-05
2.56164e-05
2.4124e-05
2.25864e-05
2.1004e-05
1.93764e-05
1.77022e-05
1.59784e-05
1.41995e-05
1.23556e-05
1.04298e-05
8.39429e-06
6.20147e-06
3.76673e-06
7.28328e-09
2.72688e-11
2.72601e-11
7.28109e-09
3.76582e-06
6.20016e-06
8.39266e-06
1.0428e-05
1.23535e-05
1.41973e-05
1.59761e-05
1.76997e-05
1.93739e-05
2.10015e-05
2.25839e-05
2.41215e-05
2.56139e-05
2.70604e-05
2.84595e-05
2.98089e-05
3.11053e-05
3.23455e-05
3.35261e-05
3.46437e-05
3.56954e-05
3.6678e-05
3.75889e-05
3.84255e-05
3.91853e-05
3.98662e-05
4.04663e-05
4.09838e-05
4.14174e-05
4.17657e-05
4.20279e-05
4.22031e-05
4.22908e-05
4.22909e-05
4.22033e-05
4.20282e-05
4.17663e-05
4.14181e-05
4.09846e-05
4.04672e-05
3.98673e-05
3.91865e-05
3.84268e-05
3.75904e-05
3.66797e-05
3.56971e-05
3.46456e-05
3.3528e-05
3.23476e-05
3.11075e-05
2.98111e-05
2.84619e-05
2.70628e-05
2.56164e-05
2.4124e-05
2.25864e-05
2.1004e-05
1.93764e-05
1.77022e-05
1.59784e-05
1.41995e-05
1.23556e-05
1.04298e-05
8.39429e-06
6.20147e-06
3.76673e-06
7.28328e-09
2.72688e-11
2.72601e-11
7.28109e-09
3.76582e-06
6.20016e-06
8.39266e-06
1.0428e-05
1.23535e-05
1.41973e-05
1.59761e-05
1.76997e-05
1.93739e-05
2.10015e-05
2.25839e-05
2.41215e-05
2.56139e-05
2.70604e-05
2.84595e-05
2.98089e-05
3.11053e-05
3.23455e-05
3.35261e-05
3.46437e-05
3.56954e-05
3.6678e-05
3.75889e-05
3.84255e-05
3.91853e-05
3.98662e-05
4.04663e-05
4.09838e-05
4.14174e-05
4.17657e-05
4.20279e-05
4.22031e-05
4.22908e-05
4.22909e-05
4.22033e-05
4.20282e-05
4.17663e-05
4.14181e-05
4.09846e-05
4.04672e-05
3.98673e-05
3.91865e-05
3.84268e-05
3.75904e-05
3.66797e-05
3.56971e-05
3.46456e-05
3.3528e-05
3.23476e-05
3.11075e-05
2.98111e-05
2.84619e-05
2.70628e-05
2.56164e-05
2.4124e-05
2.25864e-05
2.1004e-05
1.93764e-05
1.77022e-05
1.59784e-05
1.41995e-05
1.23556e-05
1.04298e-05
8.39429e-06
6.20147e-06
3.76673e-06
7.28328e-09
2.72688e-11
2.72601e-11
7.28109e-09
3.76582e-06
6.20016e-06
8.39266e-06
1.0428e-05
1.23535e-05
1.41973e-05
1.59761e-05
1.76997e-05
1.93739e-05
2.10015e-05
2.25839e-05
2.41215e-05
2.56139e-05
2.70604e-05
2.84595e-05
2.98089e-05
3.11053e-05
3.23455e-05
3.35261e-05
3.46437e-05
3.56954e-05
3.6678e-05
3.75889e-05
3.84255e-05
3.91853e-05
3.98662e-05
4.04663e-05
4.09838e-05
4.14174e-05
4.17657e-05
4.20279e-05
4.22031e-05
4.22908e-05
4.22909e-05
4.22033e-05
4.20282e-05
4.17663e-05
4.14181e-05
4.09846e-05
4.04672e-05
3.98673e-05
3.91865e-05
3.84268e-05
3.75904e-05
3.66797e-05
3.56971e-05
3.46456e-05
3.3528e-05
3.23476e-05
3.11075e-05
2.98111e-05
2.84619e-05
2.70628e-05
2.56164e-05
2.4124e-05
2.25864e-05
2.1004e-05
1.93764e-05
1.77022e-05
1.59784e-05
1.41995e-05
1.23556e-05
1.04298e-05
8.39429e-06
6.20147e-06
3.76673e-06
7.28328e-09
2.72688e-11
2.72601e-11
7.28109e-09
3.76582e-06
6.20016e-06
8.39266e-06
1.0428e-05
1.23535e-05
1.41973e-05
1.59761e-05
1.76997e-05
1.93739e-05
2.10015e-05
2.25839e-05
2.41215e-05
2.56139e-05
2.70604e-05
2.84595e-05
2.98089e-05
3.11053e-05
3.23455e-05
3.35261e-05
3.46437e-05
3.56954e-05
3.6678e-05
3.75889e-05
3.84255e-05
3.91853e-05
3.98662e-05
4.04663e-05
4.09838e-05
4.14174e-05
4.17657e-05
4.20279e-05
4.22031e-05
4.22908e-05
4.22909e-05
4.22033e-05
4.20282e-05
4.17663e-05
4.14181e-05
4.09846e-05
4.04672e-05
3.98673e-05
3.91865e-05
3.84268e-05
3.75904e-05
3.66797e-05
3.56971e-05
3.46456e-05
3.3528e-05
3.23476e-05
3.11075e-05
2.98111e-05
2.84619e-05
2.70628e-05
2.56164e-05
2.4124e-05
2.25864e-05
2.1004e-05
1.93764e-05
1.77022e-05
1.59784e-05
1.41995e-05
1.23556e-05
1.04298e-05
8.39429e-06
6.20147e-06
3.76673e-06
7.28328e-09
2.72688e-11
2.72601e-11
7.28109e-09
3.76582e-06
6.20016e-06
8.39266e-06
1.0428e-05
1.23535e-05
1.41973e-05
1.59761e-05
1.76997e-05
1.93739e-05
2.10015e-05
2.25839e-05
2.41215e-05
2.56139e-05
2.70604e-05
2.84595e-05
2.98089e-05
3.11053e-05
3.23455e-05
3.35261e-05
3.46437e-05
3.56954e-05
3.6678e-05
3.75889e-05
3.84255e-05
3.91853e-05
3.98662e-05
4.04663e-05
4.09838e-05
4.14174e-05
4.17657e-05
4.20279e-05
4.22031e-05
4.22908e-05
4.22909e-05
4.22033e-05
4.20282e-05
4.17663e-05
4.14181e-05
4.09846e-05
4.04672e-05
3.98673e-05
3.91865e-05
3.84268e-05
3.75904e-05
3.66797e-05
3.56971e-05
3.46456e-05
3.3528e-05
3.23476e-05
3.11075e-05
2.98111e-05
2.84619e-05
2.70628e-05
2.56164e-05
2.4124e-05
2.25864e-05
2.1004e-05
1.93764e-05
1.77022e-05
1.59784e-05
1.41995e-05
1.23556e-05
1.04298e-05
8.39429e-06
6.20147e-06
3.76673e-06
7.28328e-09
2.72688e-11
2.72601e-11
7.28109e-09
3.76582e-06
6.20016e-06
8.39266e-06
1.0428e-05
1.23535e-05
1.41973e-05
1.59761e-05
1.76997e-05
1.93739e-05
2.10015e-05
2.25839e-05
2.41215e-05
2.56139e-05
2.70604e-05
2.84595e-05
2.98089e-05
3.11053e-05
3.23455e-05
3.35261e-05
3.46437e-05
3.56954e-05
3.6678e-05
3.75889e-05
3.84255e-05
3.91853e-05
3.98662e-05
4.04663e-05
4.09838e-05
4.14174e-05
4.17657e-05
4.20279e-05
4.22031e-05
4.22908e-05
4.22909e-05
4.22033e-05
4.20282e-05
4.17663e-05
4.14181e-05
4.09846e-05
4.04672e-05
3.98673e-05
3.91865e-05
3.84268e-05
3.75904e-05
3.66797e-05
3.56971e-05
3.46456e-05
3.3528e-05
3.23476e-05
3.11075e-05
2.98111e-05
2.84619e-05
2.70628e-05
2.56164e-05
2.4124e-05
2.25864e-05
2.1004e-05
1.93764e-05
1.77022e-05
1.59784e-05
1.41995e-05
1.23556e-05
1.04298e-05
8.39429e-06
6.20147e-06
3.76673e-06
7.28328e-09
2.72688e-11
2.72601e-11
7.28109e-09
3.76582e-06
6.20016e-06
8.39266e-06
1.0428e-05
1.23535e-05
1.41973e-05
1.59761e-05
1.76997e-05
1.93739e-05
2.10015e-05
2.25839e-05
2.41215e-05
2.56139e-05
2.70604e-05
2.84595e-05
2.98089e-05
3.11053e-05
3.23455e-05
3.35261e-05
3.46437e-05
3.56954e-05
3.6678e-05
3.75889e-05
3.84255e-05
3.91853e-05
3.98662e-05
4.04663e-05
4.09838e-05
4.14174e-05
4.17657e-05
4.20279e-05
4.22031e-05
4.22908e-05
4.22909e-05
4.22033e-05
4.20282e-05
4.17663e-05
4.14181e-05
4.09846e-05
4.04672e-05
3.98673e-05
3.91865e-05
3.84268e-05
3.75904e-05
3.66797e-05
3.56971e-05
3.46456e-05
3.3528e-05
3.23476e-05
3.11075e-05
2.98111e-05
2.84619e-05
2.70628e-05
2.56164e-05
2.4124e-05
2.25864e-05
2.1004e-05
1.93764e-05
1.77022e-05
1.59784e-05
1.41995e-05
1.23556e-05
1.04298e-05
8.39429e-06
6.20147e-06
3.76673e-06
7.28328e-09
2.72688e-11
2.72601e-11
7.28109e-09
3.76582e-06
6.20016e-06
8.39266e-06
1.0428e-05
1.23535e-05
1.41973e-05
1.59761e-05
1.76997e-05
1.93739e-05
2.10015e-05
2.25839e-05