/*--------------------------------*- C++ -*----------------------------------*\
  =========                 |
  \\      /  F ield         | OpenFOAM: The Open Source CFD Toolbox
   \\    /   O peration     | Website:  https://openfoam.org
    \\  /    A nd           | Version:  13
     \\/     M anipulation  |
\*---------------------------------------------------------------------------*/
FoamFile
{
    format      ascii;
    class       volScalarField;
    location    "67.5";
    object      rhok;
}
// * * * * * * * * * * * * * * * * * * * * * * * * * * * * * * * * * * * * * //

dimensions      [];

internalField   nonuniform List<scalar> 
315000
(
0.444462
0.423246
0.414951
0.41337
0.412334
0.411263
0.410208
0.409178
0.408169
0.407174
0.40619
0.405216
0.40425
0.403292
0.402343
0.401404
0.400475
0.399557
0.39865
0.397755
0.396873
0.396004
0.395148
0.394305
0.393477
0.392663
0.391864
0.391079
0.39031
0.389556
0.388817
0.388093
0.387385
0.386693
0.386016
0.385355
0.384709
0.384078
0.383463
0.382863
0.382278
0.381707
0.381151
0.38061
0.380082
0.379568
0.379068
0.37858
0.378105
0.377642
0.377191
0.376751
0.376322
0.375903
0.375494
0.375095
0.374704
0.374322
0.373947
0.37358
0.373219
0.372864
0.372514
0.372169
0.371828
0.371491
0.371156
0.370824
0.370494
0.370164
0.444535
0.426224
0.413897
0.412577
0.41179
0.410928
0.410015
0.40907
0.408108
0.407139
0.406168
0.405199
0.404235
0.403279
0.40233
0.401391
0.400462
0.399544
0.398637
0.397742
0.39686
0.39599
0.395134
0.394292
0.393463
0.392649
0.39185
0.391065
0.390295
0.389541
0.388802
0.388079
0.387371
0.386678
0.386001
0.38534
0.384694
0.384064
0.383449
0.382849
0.382264
0.381694
0.381138
0.380597
0.38007
0.379556
0.379056
0.378568
0.378094
0.377631
0.37718
0.376741
0.376312
0.375894
0.375486
0.375087
0.374697
0.374315
0.373941
0.373574
0.373213
0.372859
0.37251
0.372165
0.371825
0.371488
0.371155
0.370823
0.370493
0.370164
0.444491
0.424493
0.414367
0.412957
0.412072
0.411118
0.410132
0.409136
0.408141
0.407152
0.40617
0.405195
0.404229
0.403271
0.402322
0.401383
0.400454
0.399535
0.398628
0.397733
0.396851
0.395981
0.395125
0.394282
0.393454
0.39264
0.39184
0.391055
0.390286
0.389531
0.388792
0.388068
0.38736
0.386668
0.385991
0.38533
0.384684
0.384054
0.383439
0.382839
0.382254
0.381684
0.381129
0.380588
0.38006
0.379547
0.379047
0.37856
0.378085
0.377623
0.377173
0.376734
0.376305
0.375888
0.37548
0.375081
0.374691
0.37431
0.373936
0.373569
0.373209
0.372855
0.372507
0.372163
0.371823
0.371486
0.371153
0.370822
0.370492
0.370164
0.444443
0.42162
0.415998
0.413915
0.412421
0.41121
0.410129
0.409108
0.408112
0.407128
0.406152
0.405183
0.404219
0.403263
0.402315
0.401377
0.400448
0.39953
0.398623
0.397728
0.396846
0.395976
0.39512
0.394277
0.393448
0.392634
0.391834
0.391049
0.39028
0.389525
0.388786
0.388062
0.387354
0.386662
0.385985
0.385323
0.384678
0.384047
0.383432
0.382833
0.382248
0.381678
0.381123
0.380582
0.380055
0.379541
0.379041
0.378554
0.37808
0.377618
0.377168
0.376729
0.376301
0.375883
0.375475
0.375077
0.374687
0.374306
0.373933
0.373566
0.373207
0.372853
0.372504
0.372161
0.371821
0.371485
0.371152
0.370821
0.370492
0.370164
0.444535
0.426222
0.41389
0.41256
0.41177
0.410908
0.409996
0.409053
0.408093
0.407124
0.406153
0.405185
0.404221
0.403264
0.402316
0.401377
0.400447
0.399529
0.398622
0.397727
0.396844
0.395974
0.395117
0.394275
0.393446
0.392631
0.391832
0.391047
0.390277
0.389522
0.388783
0.388059
0.387351
0.386658
0.385981
0.38532
0.384674
0.384044
0.383429
0.382829
0.382244
0.381674
0.381119
0.380578
0.380051
0.379538
0.379038
0.378551
0.378077
0.377615
0.377165
0.376726
0.376298
0.37588
0.375473
0.375075
0.374685
0.374304
0.373931
0.373564
0.373205
0.372851
0.372503
0.372159
0.37182
0.371484
0.371151
0.370821
0.370492
0.370163
0.444491
0.4245
0.414377
0.412966
0.41208
0.411126
0.410139
0.409143
0.408147
0.407157
0.406173
0.405197
0.404229
0.40327
0.40232
0.40138
0.400449
0.39953
0.398623
0.397727
0.396844
0.395974
0.395118
0.394275
0.393446
0.392631
0.391831
0.391046
0.390276
0.389521
0.388782
0.388058
0.38735
0.386657
0.38598
0.385319
0.384673
0.384043
0.383428
0.382828
0.382243
0.381673
0.381118
0.380577
0.38005
0.379536
0.379036
0.37855
0.378075
0.377613
0.377163
0.376724
0.376297
0.375879
0.375471
0.375073
0.374684
0.374303
0.37393
0.373563
0.373204
0.37285
0.372502
0.372159
0.37182
0.371484
0.371151
0.37082
0.370491
0.370163
0.444441
0.421564
0.415999
0.413919
0.412427
0.411221
0.410144
0.409125
0.408131
0.407147
0.40617
0.405197
0.404232
0.403273
0.402323
0.401382
0.400452
0.399532
0.398625
0.397729
0.396846
0.395975
0.395119
0.394276
0.393447
0.392632
0.391832
0.391047
0.390277
0.389522
0.388783
0.388059
0.387351
0.386658
0.385981
0.385319
0.384673
0.384043
0.383428
0.382828
0.382243
0.381673
0.381118
0.380577
0.380049
0.379536
0.379036
0.378549
0.378075
0.377613
0.377163
0.376724
0.376296
0.375879
0.375471
0.375073
0.374684
0.374303
0.373929
0.373563
0.373204
0.37285
0.372502
0.372159
0.371819
0.371484
0.371151
0.37082
0.370491
0.370163
0.444441
0.421554
0.415987
0.413911
0.412419
0.411212
0.410138
0.409121
0.408129
0.407146
0.40617
0.405198
0.404233
0.403274
0.402324
0.401384
0.400453
0.399534
0.398626
0.39773
0.396847
0.395977
0.39512
0.394277
0.393448
0.392634
0.391834
0.391049
0.390278
0.389524
0.388784
0.38806
0.387352
0.386659
0.385982
0.385321
0.384675
0.384044
0.383429
0.382829
0.382244
0.381674
0.381118
0.380577
0.38005
0.379537
0.379037
0.37855
0.378076
0.377614
0.377163
0.376724
0.376296
0.375879
0.375471
0.375073
0.374684
0.374303
0.373929
0.373563
0.373204
0.37285
0.372502
0.372159
0.371819
0.371484
0.371151
0.37082
0.370491
0.370163
0.444441
0.421559
0.415991
0.413931
0.412444
0.411232
0.410151
0.409128
0.408132
0.407147
0.406169
0.405198
0.404232
0.403274
0.402324
0.401384
0.400454
0.399535
0.398627
0.397731
0.396848
0.395978
0.395122
0.394279
0.39345
0.392635
0.391835
0.39105
0.39028
0.389525
0.388786
0.388062
0.387354
0.386661
0.385984
0.385322
0.384676
0.384046
0.38343
0.38283
0.382245
0.381675
0.38112
0.380578
0.380051
0.379538
0.379038
0.378551
0.378076
0.377614
0.377164
0.376725
0.376297
0.375879
0.375472
0.375074
0.374684
0.374303
0.37393
0.373564
0.373204
0.37285
0.372502
0.372159
0.37182
0.371484
0.371151
0.37082
0.370491
0.370163
0.444491
0.424483
0.414376
0.412987
0.412108
0.411147
0.410152
0.409149
0.40815
0.407157
0.406173
0.405197
0.40423
0.403271
0.402322
0.401382
0.400452
0.399534
0.398627
0.397731
0.396849
0.395979
0.395122
0.39428
0.393451
0.392636
0.391837
0.391052
0.390282
0.389527
0.388788
0.388064
0.387355
0.386662
0.385985
0.385324
0.384678
0.384047
0.383432
0.382832
0.382247
0.381677
0.381121
0.38058
0.380053
0.379539
0.379039
0.378552
0.378077
0.377615
0.377165
0.376726
0.376298
0.37588
0.375472
0.375074
0.374685
0.374304
0.37393
0.373564
0.373204
0.372851
0.372502
0.372159
0.37182
0.371484
0.371151
0.37082
0.370491
0.370163
0.444491
0.424491
0.414374
0.412985
0.412111
0.411154
0.41016
0.409156
0.408155
0.407161
0.406175
0.405198
0.40423
0.403271
0.402321
0.401381
0.400452
0.399534
0.398627
0.397732
0.396849
0.39598
0.395123
0.394281
0.393452
0.392638
0.391838
0.391053
0.390283
0.389528
0.388789
0.388065
0.387357
0.386664
0.385987
0.385325
0.384679
0.384049
0.383433
0.382833
0.382248
0.381678
0.381122
0.380581
0.380054
0.37954
0.37904
0.378553
0.378078
0.377616
0.377166
0.376727
0.376299
0.375881
0.375473
0.375075
0.374685
0.374304
0.373931
0.373564
0.373205
0.372851
0.372503
0.372159
0.37182
0.371484
0.371151
0.370821
0.370491
0.370163
0.44451
0.425275
0.414047
0.412739
0.411938
0.411048
0.410106
0.409134
0.408151
0.407165
0.406182
0.405206
0.404237
0.403276
0.402325
0.401385
0.400454
0.399536
0.398628
0.397733
0.39685
0.395981
0.395124
0.394282
0.393453
0.392639
0.391839
0.391054
0.390284
0.38953
0.38879
0.388066
0.387358
0.386665
0.385988
0.385326
0.38468
0.38405
0.383434
0.382834
0.382249
0.381679
0.381123
0.380582
0.380055
0.379541
0.379041
0.378554
0.378079
0.377617
0.377166
0.376727
0.376299
0.375881
0.375474
0.375075
0.374686
0.374304
0.373931
0.373565
0.373205
0.372851
0.372503
0.372159
0.37182
0.371484
0.371151
0.370821
0.370492
0.370163
0.444491
0.424496
0.414376
0.412987
0.412113
0.411155
0.410161
0.409157
0.408156
0.407162
0.406177
0.4052
0.404232
0.403273
0.402324
0.401384
0.400455
0.399536
0.398629
0.397734
0.396852
0.395982
0.395126
0.394283
0.393455
0.39264
0.39184
0.391055
0.390286
0.389531
0.388791
0.388068
0.387359
0.386666
0.385989
0.385327
0.384681
0.384051
0.383435
0.382835
0.38225
0.38168
0.381124
0.380583
0.380055
0.379542
0.379041
0.378554
0.37808
0.377617
0.377167
0.376728
0.3763
0.375882
0.375474
0.375076
0.374686
0.374305
0.373931
0.373565
0.373205
0.372852
0.372503
0.37216
0.37182
0.371484
0.371151
0.370821
0.370492
0.370163
0.444491
0.424501
0.414377
0.412987
0.412113
0.411155
0.410161
0.409157
0.408156
0.407163
0.406178
0.405201
0.404234
0.403275
0.402326
0.401386
0.400457
0.399538
0.398631
0.397736
0.396854
0.395984
0.395127
0.394285
0.393456
0.392641
0.391842
0.391057
0.390287
0.389532
0.388792
0.388068
0.38736
0.386667
0.38599
0.385328
0.384682
0.384051
0.383436
0.382836
0.382251
0.38168
0.381125
0.380583
0.380056
0.379542
0.379042
0.378555
0.37808
0.377618
0.377167
0.376728
0.3763
0.375882
0.375474
0.375076
0.374686
0.374305
0.373932
0.373565
0.373205
0.372852
0.372503
0.37216
0.37182
0.371484
0.371151
0.370821
0.370492
0.370163
0.444515
0.425454
0.414067
0.41274
0.411928
0.41103
0.410084
0.409113
0.408133
0.407152
0.406173
0.4052
0.404234
0.403276
0.402326
0.401387
0.400457
0.399539
0.398632
0.397737
0.396854
0.395985
0.395128
0.394285
0.393457
0.392642
0.391842
0.391057
0.390287
0.389532
0.388793
0.388069
0.38736
0.386668
0.38599
0.385329
0.384683
0.384052
0.383436
0.382836
0.382251
0.381681
0.381125
0.380584
0.380056
0.379543
0.379042
0.378555
0.37808
0.377618
0.377168
0.376728
0.3763
0.375882
0.375475
0.375076
0.374686
0.374305
0.373932
0.373565
0.373206
0.372852
0.372503
0.37216
0.37182
0.371485
0.371152
0.370821
0.370492
0.370163
0.444461
0.423228
0.414933
0.413353
0.412318
0.411245
0.410189
0.40916
0.408151
0.407157
0.406174
0.4052
0.404234
0.403276
0.402327
0.401387
0.400458
0.399539
0.398632
0.397737
0.396854
0.395985
0.395128
0.394285
0.393457
0.392642
0.391842
0.391057
0.390287
0.389532
0.388793
0.388069
0.387361
0.386668
0.38599
0.385329
0.384683
0.384052
0.383437
0.382836
0.382251
0.381681
0.381125
0.380584
0.380056
0.379543
0.379042
0.378555
0.378081
0.377618
0.377168
0.376729
0.3763
0.375883
0.375475
0.375076
0.374687
0.374305
0.373932
0.373565
0.373206
0.372852
0.372503
0.37216
0.37182
0.371485
0.371152
0.370821
0.370492
0.370163
0.444461
0.423214
0.41493
0.413358
0.412321
0.411245
0.410187
0.409157
0.408148
0.407155
0.406172
0.405198
0.404232
0.403275
0.402326
0.401386
0.400457
0.399538
0.398631
0.397736
0.396854
0.395984
0.395128
0.394285
0.393456
0.392642
0.391842
0.391057
0.390287
0.389532
0.388793
0.388069
0.38736
0.386668
0.38599
0.385329
0.384683
0.384052
0.383437
0.382836
0.382251
0.381681
0.381125
0.380584
0.380056
0.379543
0.379042
0.378555
0.378081
0.377618
0.377168
0.376729
0.3763
0.375883
0.375475
0.375076
0.374687
0.374305
0.373932
0.373565
0.373206
0.372852
0.372504
0.37216
0.37182
0.371485
0.371152
0.370821
0.370492
0.370163
0.444461
0.423212
0.414928
0.413356
0.412319
0.411242
0.410185
0.409155
0.408146
0.407153
0.40617
0.405197
0.404231
0.403273
0.402324
0.401385
0.400456
0.399537
0.39863
0.397735
0.396853
0.395983
0.395127
0.394284
0.393456
0.392641
0.391841
0.391057
0.390287
0.389532
0.388792
0.388069
0.38736
0.386667
0.38599
0.385329
0.384682
0.384052
0.383436
0.382836
0.382251
0.381681
0.381125
0.380584
0.380056
0.379543
0.379042
0.378555
0.378081
0.377618
0.377168
0.376729
0.3763
0.375883
0.375475
0.375076
0.374687
0.374305
0.373932
0.373565
0.373206
0.372852
0.372504
0.37216
0.37182
0.371485
0.371152
0.370821
0.370492
0.370163
0.444461
0.423211
0.414926
0.413354
0.412317
0.411241
0.410184
0.409153
0.408145
0.407151
0.406169
0.405195
0.40423
0.403272
0.402324
0.401384
0.400455
0.399537
0.39863
0.397735
0.396852
0.395983
0.395126
0.394284
0.393455
0.392641
0.391841
0.391056
0.390286
0.389532
0.388792
0.388068
0.38736
0.386667
0.38599
0.385328
0.384682
0.384052
0.383436
0.382836
0.382251
0.381681
0.381125
0.380584
0.380056
0.379543
0.379042
0.378555
0.378081
0.377618
0.377168
0.376729
0.3763
0.375883
0.375475
0.375076
0.374687
0.374305
0.373932
0.373565
0.373206
0.372852
0.372504
0.37216
0.37182
0.371485
0.371152
0.370821
0.370492
0.370163
0.444461
0.423211
0.414926
0.413354
0.412317
0.411241
0.410183
0.409153
0.408144
0.407151
0.406169
0.405195
0.404229
0.403272
0.402323
0.401384
0.400455
0.399536
0.398629
0.397734
0.396852
0.395982
0.395126
0.394283
0.393455
0.392641
0.391841
0.391056
0.390286
0.389531
0.388792
0.388068
0.38736
0.386667
0.38599
0.385328
0.384682
0.384052
0.383436
0.382836
0.382251
0.381681
0.381125
0.380584
0.380056
0.379543
0.379042
0.378555
0.378081
0.377618
0.377168
0.376729
0.3763
0.375883
0.375475
0.375076
0.374687
0.374305
0.373932
0.373565
0.373206
0.372852
0.372504
0.37216
0.37182
0.371485
0.371152
0.370821
0.370492
0.370163
0.444461
0.42321
0.414925
0.413353
0.412316
0.41124
0.410183
0.409152
0.408144
0.407151
0.406168
0.405195
0.404229
0.403271
0.402323
0.401383
0.400454
0.399536
0.398629
0.397734
0.396852
0.395982
0.395126
0.394283
0.393455
0.39264
0.391841
0.391056
0.390286
0.389531
0.388792
0.388068
0.38736
0.386667
0.38599
0.385328
0.384682
0.384051
0.383436
0.382836
0.382251
0.381681
0.381125
0.380584
0.380056
0.379543
0.379042
0.378555
0.378081
0.377618
0.377168
0.376729
0.3763
0.375883
0.375475
0.375076
0.374687
0.374305
0.373932
0.373565
0.373206
0.372852
0.372504
0.37216
0.37182
0.371485
0.371152
0.370821
0.370492
0.370163
0.444461
0.42321
0.414925
0.413353
0.412316
0.41124
0.410183
0.409152
0.408144
0.40715
0.406168
0.405194
0.404229
0.403271
0.402323
0.401383
0.400454
0.399536
0.398629
0.397734
0.396852
0.395982
0.395126
0.394283
0.393455
0.39264
0.391841
0.391056
0.390286
0.389531
0.388792
0.388068
0.38736
0.386667
0.38599
0.385328
0.384682
0.384051
0.383436
0.382836
0.382251
0.381681
0.381125
0.380583
0.380056
0.379542
0.379042
0.378555
0.37808
0.377618
0.377168
0.376729
0.3763
0.375883
0.375475
0.375076
0.374687
0.374305
0.373932
0.373565
0.373206
0.372852
0.372504
0.37216
0.37182
0.371485
0.371152
0.370821
0.370492
0.370163
0.444461
0.42321
0.414925
0.413353
0.412316
0.41124
0.410183
0.409152
0.408144
0.40715
0.406168
0.405194
0.404229
0.403271
0.402323
0.401383
0.400454
0.399536
0.398629
0.397734
0.396851
0.395982
0.395126
0.394283
0.393455
0.39264
0.391841
0.391056
0.390286
0.389531
0.388792
0.388068
0.38736
0.386667
0.38599
0.385328
0.384682
0.384051
0.383436
0.382836
0.382251
0.381681
0.381125
0.380583
0.380056
0.379542
0.379042
0.378555
0.37808
0.377618
0.377168
0.376729
0.3763
0.375883
0.375475
0.375076
0.374687
0.374305
0.373932
0.373565
0.373206
0.372852
0.372504
0.37216
0.37182
0.371485
0.371152
0.370821
0.370492
0.370163
0.444461
0.42321
0.414925
0.413353
0.412316
0.41124
0.410183
0.409152
0.408144
0.40715
0.406168
0.405194
0.404229
0.403271
0.402322
0.401383
0.400454
0.399536
0.398629
0.397734
0.396851
0.395982
0.395126
0.394283
0.393455
0.39264
0.391841
0.391056
0.390286
0.389531
0.388792
0.388068
0.38736
0.386667
0.38599
0.385328
0.384682
0.384051
0.383436
0.382836
0.382251
0.381681
0.381125
0.380583
0.380056
0.379542
0.379042
0.378555
0.37808
0.377618
0.377168
0.376729
0.3763
0.375883
0.375475
0.375076
0.374687
0.374305
0.373932
0.373565
0.373206
0.372852
0.372504
0.37216
0.37182
0.371485
0.371152
0.370821
0.370492
0.370163
0.444461
0.42321
0.414925
0.413353
0.412316
0.41124
0.410183
0.409152
0.408144
0.40715
0.406168
0.405194
0.404229
0.403271
0.402322
0.401383
0.400454
0.399536
0.398629
0.397734
0.396851
0.395982
0.395126
0.394283
0.393454
0.39264
0.391841
0.391056
0.390286
0.389531
0.388792
0.388068
0.38736
0.386667
0.38599
0.385328
0.384682
0.384051
0.383436
0.382836
0.382251
0.381681
0.381125
0.380583
0.380056
0.379542
0.379042
0.378555
0.37808
0.377618
0.377168
0.376729
0.3763
0.375883
0.375475
0.375076
0.374687
0.374305
0.373932
0.373565
0.373206
0.372852
0.372504
0.37216
0.37182
0.371485
0.371152
0.370821
0.370492
0.370163
0.444461
0.42321
0.414925
0.413353
0.412316
0.41124
0.410183
0.409152
0.408144
0.40715
0.406168
0.405194
0.404229
0.403271
0.402322
0.401383
0.400454
0.399536
0.398629
0.397734
0.396851
0.395982
0.395126
0.394283
0.393454
0.39264
0.391841
0.391056
0.390286
0.389531
0.388792
0.388068
0.38736
0.386667
0.38599
0.385328
0.384682
0.384051
0.383436
0.382836
0.382251
0.381681
0.381125
0.380583
0.380056
0.379542
0.379042
0.378555
0.37808
0.377618
0.377168
0.376729
0.3763
0.375883
0.375475
0.375076
0.374687
0.374305
0.373932
0.373565
0.373206
0.372852
0.372504
0.37216
0.37182
0.371485
0.371152
0.370821
0.370492
0.370163
0.444461
0.42321
0.414925
0.413353
0.412316
0.41124
0.410183
0.409152
0.408144
0.40715
0.406168
0.405194
0.404229
0.403271
0.402322
0.401383
0.400454
0.399536
0.398629
0.397734
0.396851
0.395982
0.395126
0.394283
0.393454
0.39264
0.391841
0.391056
0.390286
0.389531
0.388792
0.388068
0.38736
0.386667
0.38599
0.385328
0.384682
0.384051
0.383436
0.382836
0.382251
0.381681
0.381125
0.380583
0.380056
0.379542
0.379042
0.378555
0.37808
0.377618
0.377168
0.376729
0.3763
0.375883
0.375475
0.375076
0.374687
0.374305
0.373932
0.373565
0.373206
0.372852
0.372503
0.37216
0.37182
0.371485
0.371152
0.370821
0.370492
0.370163
0.444461
0.42321
0.414925
0.413353
0.412316
0.41124
0.410183
0.409152
0.408144
0.40715
0.406168
0.405194
0.404229
0.403271
0.402322
0.401383
0.400454
0.399536
0.398629
0.397734
0.396851
0.395982
0.395126
0.394283
0.393454
0.39264
0.391841
0.391056
0.390286
0.389531
0.388792
0.388068
0.38736
0.386667
0.38599
0.385328
0.384682
0.384051
0.383436
0.382836
0.382251
0.381681
0.381125
0.380583
0.380056
0.379542
0.379042
0.378555
0.37808
0.377618
0.377168
0.376729
0.3763
0.375883
0.375475
0.375076
0.374687
0.374305
0.373932
0.373565
0.373206
0.372852
0.372503
0.37216
0.37182
0.371485
0.371152
0.370821
0.370492
0.370163
0.444461
0.42321
0.414925
0.413353
0.412316
0.41124
0.410183
0.409152
0.408144
0.40715
0.406168
0.405194
0.404229
0.403271
0.402322
0.401383
0.400454
0.399536
0.398629
0.397734
0.396851
0.395982
0.395126
0.394283
0.393454
0.39264
0.391841
0.391056
0.390286
0.389531
0.388792
0.388068
0.38736
0.386667
0.38599
0.385328
0.384682
0.384051
0.383436
0.382836
0.382251
0.381681
0.381125
0.380583
0.380056
0.379542
0.379042
0.378555
0.37808
0.377618
0.377168
0.376729
0.3763
0.375883
0.375475
0.375076
0.374687
0.374305
0.373932
0.373565
0.373206
0.372852
0.372503
0.37216
0.37182
0.371485
0.371152
0.370821
0.370492
0.370163
0.444461
0.42321
0.414925
0.413353
0.412316
0.41124
0.410183
0.409152
0.408144
0.40715
0.406168
0.405194
0.404229
0.403271
0.402322
0.401383
0.400454
0.399536
0.398629
0.397734
0.396851
0.395982
0.395126
0.394283
0.393454
0.39264
0.391841
0.391056
0.390286
0.389531
0.388792
0.388068
0.38736
0.386667
0.38599
0.385328
0.384682
0.384051
0.383436
0.382836
0.382251
0.381681
0.381125
0.380583
0.380056
0.379542
0.379042
0.378555
0.37808
0.377618
0.377168
0.376729
0.3763
0.375883
0.375475
0.375076
0.374687
0.374305
0.373932
0.373565
0.373206
0.372852
0.372503
0.37216
0.37182
0.371485
0.371152
0.370821
0.370492
0.370163
0.444461
0.42321
0.414925
0.413353
0.412316
0.41124
0.410183
0.409152
0.408144
0.40715
0.406168
0.405194
0.404229
0.403271
0.402322
0.401383
0.400454
0.399536
0.398629
0.397734
0.396851
0.395982
0.395126
0.394283
0.393454
0.39264
0.391841
0.391056
0.390286
0.389531
0.388792
0.388068
0.38736
0.386667
0.38599
0.385328
0.384682
0.384051
0.383436
0.382836
0.382251
0.381681
0.381125
0.380583
0.380056
0.379542
0.379042
0.378555
0.37808
0.377618
0.377168
0.376729
0.3763
0.375883
0.375475
0.375076
0.374687
0.374305
0.373932
0.373565
0.373206
0.372852
0.372503
0.37216
0.37182
0.371485
0.371152
0.370821
0.370492
0.370163
0.444461
0.42321
0.414925
0.413353
0.412316
0.41124
0.410183
0.409152
0.408144
0.40715
0.406168
0.405194
0.404229
0.403271
0.402322
0.401383
0.400454
0.399536
0.398629
0.397734
0.396851
0.395982
0.395126
0.394283
0.393454
0.39264
0.391841
0.391056
0.390286
0.389531
0.388792
0.388068
0.38736
0.386667
0.38599
0.385328
0.384682
0.384051
0.383436
0.382836
0.382251
0.381681
0.381125
0.380583
0.380056
0.379542
0.379042
0.378555
0.37808
0.377618
0.377168
0.376729
0.3763
0.375883
0.375475
0.375076
0.374687
0.374305
0.373932
0.373565
0.373206
0.372852
0.372503
0.37216
0.37182
0.371485
0.371152
0.370821
0.370492
0.370163
0.444461
0.42321
0.414925
0.413353
0.412316
0.41124
0.410183
0.409152
0.408144
0.40715
0.406168
0.405194
0.404229
0.403271
0.402322
0.401383
0.400454
0.399536
0.398629
0.397734
0.396851
0.395982
0.395126
0.394283
0.393454
0.39264
0.391841
0.391056
0.390286
0.389531
0.388792
0.388068
0.38736
0.386667
0.38599
0.385328
0.384682
0.384051
0.383436
0.382836
0.382251
0.381681
0.381125
0.380583
0.380056
0.379542
0.379042
0.378555
0.37808
0.377618
0.377168
0.376729
0.3763
0.375883
0.375475
0.375076
0.374687
0.374305
0.373932
0.373565
0.373206
0.372852
0.372503
0.37216
0.37182
0.371485
0.371152
0.370821
0.370492
0.370163
0.444461
0.42321
0.414925
0.413353
0.412316
0.41124
0.410183
0.409152
0.408144
0.40715
0.406168
0.405194
0.404229
0.403271
0.402322
0.401383
0.400454
0.399536
0.398629
0.397734
0.396851
0.395982
0.395126
0.394283
0.393454
0.39264
0.391841
0.391056
0.390286
0.389531
0.388792
0.388068
0.38736
0.386667
0.38599
0.385328
0.384682
0.384051
0.383436
0.382836
0.382251
0.381681
0.381125
0.380583
0.380056
0.379542
0.379042
0.378555
0.37808
0.377618
0.377168
0.376729
0.3763
0.375883
0.375475
0.375076
0.374687
0.374305
0.373932
0.373565
0.373206
0.372852
0.372503
0.37216
0.37182
0.371485
0.371152
0.370821
0.370492
0.370163
0.444461
0.42321
0.414925
0.413353
0.412316
0.41124
0.410183
0.409152
0.408144
0.40715
0.406168
0.405194
0.404229
0.403271
0.402322
0.401383
0.400454
0.399536
0.398629
0.397734
0.396851
0.395982
0.395126
0.394283
0.393454
0.39264
0.391841
0.391056
0.390286
0.389531
0.388792
0.388068
0.38736
0.386667
0.38599
0.385328
0.384682
0.384051
0.383436
0.382836
0.382251
0.381681
0.381125
0.380583
0.380056
0.379542
0.379042
0.378555
0.37808
0.377618
0.377168
0.376729
0.3763
0.375883
0.375475
0.375076
0.374687
0.374305
0.373932
0.373565
0.373206
0.372852
0.372503
0.37216
0.37182
0.371485
0.371152
0.370821
0.370492
0.370163
0.444461
0.42321
0.414925
0.413353
0.412316
0.41124
0.410183
0.409152
0.408144
0.40715
0.406168
0.405194
0.404229
0.403271
0.402322
0.401383
0.400454
0.399536
0.398629
0.397734
0.396851
0.395982
0.395126
0.394283
0.393454
0.39264
0.391841
0.391056
0.390286
0.389531
0.388792
0.388068
0.38736
0.386667
0.38599
0.385328
0.384682
0.384051
0.383436
0.382836
0.382251
0.381681
0.381125
0.380583
0.380056
0.379542
0.379042
0.378555
0.37808
0.377618
0.377168
0.376729
0.3763
0.375883
0.375475
0.375076
0.374687
0.374305
0.373932
0.373565
0.373206
0.372852
0.372503
0.37216
0.37182
0.371485
0.371152
0.370821
0.370492
0.370163
0.444461
0.42321
0.414925
0.413353
0.412316
0.41124
0.410183
0.409152
0.408144
0.40715
0.406168
0.405194
0.404229
0.403271
0.402322
0.401383
0.400454
0.399536
0.398629
0.397734
0.396851
0.395982
0.395126
0.394283
0.393454
0.39264
0.391841
0.391056
0.390286
0.389531
0.388792
0.388068
0.38736
0.386667
0.38599
0.385328
0.384682
0.384051
0.383436
0.382836
0.382251
0.381681
0.381125
0.380583
0.380056
0.379542
0.379042
0.378555
0.37808
0.377618
0.377168
0.376729
0.3763
0.375883
0.375475
0.375076
0.374687
0.374305
0.373932
0.373565
0.373206
0.372852
0.372503
0.37216
0.37182
0.371485
0.371152
0.370821
0.370492
0.370163
0.444461
0.42321
0.414925
0.413353
0.412316
0.41124
0.410183
0.409152
0.408144
0.40715
0.406168
0.405194
0.404229
0.403271
0.402322
0.401383
0.400454
0.399536
0.398629
0.397734
0.396851
0.395982
0.395126
0.394283
0.393454
0.39264
0.391841
0.391056
0.390286
0.389531
0.388792
0.388068
0.38736
0.386667
0.38599
0.385328
0.384682
0.384051
0.383436
0.382836
0.382251
0.381681
0.381125
0.380583
0.380056
0.379542
0.379042
0.378555
0.37808
0.377618
0.377168
0.376729
0.3763
0.375883
0.375475
0.375076
0.374687
0.374305
0.373932
0.373565
0.373206
0.372852
0.372503
0.37216
0.37182
0.371485
0.371152
0.370821
0.370492
0.370163
0.444461
0.42321
0.414925
0.413353
0.412316
0.41124
0.410183
0.409152
0.408144
0.40715
0.406168
0.405194
0.404229
0.403271
0.402322
0.401383
0.400454
0.399536
0.398629
0.397734
0.396851
0.395982
0.395126
0.394283
0.393454
0.39264
0.391841
0.391056
0.390286
0.389531
0.388792
0.388068
0.38736
0.386667
0.38599
0.385328
0.384682
0.384051
0.383436
0.382836
0.382251
0.381681
0.381125
0.380583
0.380056
0.379542
0.379042
0.378555
0.37808
0.377618
0.377168
0.376729
0.3763
0.375883
0.375475
0.375076
0.374687
0.374305
0.373932
0.373565
0.373206
0.372852
0.372503
0.37216
0.37182
0.371485
0.371152
0.370821
0.370492
0.370163
0.444461
0.42321
0.414925
0.413353
0.412316
0.41124
0.410183
0.409152
0.408144
0.40715
0.406168
0.405194
0.404229
0.403271
0.402322
0.401383
0.400454
0.399536
0.398629
0.397734
0.396851
0.395982
0.395126
0.394283
0.393454
0.39264
0.391841
0.391056
0.390286
0.389531
0.388792
0.388068
0.38736
0.386667
0.38599
0.385328
0.384682
0.384051
0.383436
0.382836
0.382251
0.381681
0.381125
0.380583
0.380056
0.379542
0.379042
0.378555
0.37808
0.377618
0.377168
0.376729
0.3763
0.375883
0.375475
0.375076
0.374687
0.374305
0.373932
0.373565
0.373206
0.372852
0.372503
0.37216
0.37182
0.371485
0.371152
0.370821
0.370492
0.370163
0.444461
0.42321
0.414925
0.413353
0.412316
0.41124
0.410183
0.409152
0.408144
0.40715
0.406168
0.405194
0.404229
0.403271
0.402322
0.401383
0.400454
0.399536
0.398629
0.397734
0.396851
0.395982
0.395126
0.394283
0.393454
0.39264
0.391841
0.391056
0.390286
0.389531
0.388792
0.388068
0.38736
0.386667
0.38599
0.385328
0.384682
0.384051
0.383436
0.382836
0.382251
0.381681
0.381125
0.380583
0.380056
0.379542
0.379042
0.378555
0.37808
0.377618
0.377168
0.376729
0.3763
0.375883
0.375475
0.375076
0.374687
0.374305
0.373932
0.373565
0.373206
0.372852
0.372503
0.37216
0.37182
0.371485
0.371152
0.370821
0.370492
0.370163
0.444461
0.42321
0.414925
0.413353
0.412316
0.41124
0.410183
0.409152
0.408144
0.40715
0.406168
0.405194
0.404229
0.403271
0.402322
0.401383
0.400454
0.399536
0.398629
0.397734
0.396851
0.395982
0.395126
0.394283
0.393454
0.39264
0.391841
0.391056
0.390286
0.389531
0.388792
0.388068
0.38736
0.386667
0.38599
0.385328
0.384682
0.384051
0.383436
0.382836
0.382251
0.381681
0.381125
0.380583
0.380056
0.379542
0.379042
0.378555
0.37808
0.377618
0.377168
0.376729
0.3763
0.375883
0.375475
0.375076
0.374687
0.374305
0.373932
0.373565
0.373206
0.372852
0.372503
0.37216
0.37182
0.371485
0.371152
0.370821
0.370492
0.370163
0.444461
0.42321
0.414925
0.413353
0.412316
0.41124
0.410183
0.409152
0.408144
0.40715
0.406168
0.405194
0.404229
0.403271
0.402322
0.401383
0.400454
0.399536
0.398629
0.397734
0.396851
0.395982
0.395126
0.394283
0.393454
0.39264
0.391841
0.391056
0.390286
0.389531
0.388792
0.388068
0.38736
0.386667
0.38599
0.385328
0.384682
0.384051
0.383436
0.382836
0.382251
0.381681
0.381125
0.380583
0.380056
0.379542
0.379042
0.378555
0.37808
0.377618
0.377168
0.376729
0.3763
0.375883
0.375475
0.375076
0.374687
0.374305
0.373932
0.373565
0.373206
0.372852
0.372503
0.37216
0.37182
0.371485
0.371152
0.370821
0.370492
0.370163
0.444461
0.42321
0.414925
0.413353
0.412316
0.41124
0.410183
0.409152
0.408144
0.40715
0.406168
0.405194
0.404229
0.403271
0.402322
0.401383
0.400454
0.399536
0.398629
0.397734
0.396851
0.395982
0.395126
0.394283
0.393454
0.39264
0.391841
0.391056
0.390286
0.389531
0.388792
0.388068
0.38736
0.386667
0.38599
0.385328
0.384682
0.384051
0.383436
0.382836
0.382251
0.381681
0.381125
0.380583
0.380056
0.379542
0.379042
0.378555
0.37808
0.377618
0.377168
0.376729
0.3763
0.375883
0.375475
0.375076
0.374687
0.374305
0.373932
0.373565
0.373206
0.372852
0.372503
0.37216
0.37182
0.371485
0.371152
0.370821
0.370492
0.370163
0.444461
0.42321
0.414925
0.413353
0.412316
0.41124
0.410183
0.409152
0.408144
0.40715
0.406168
0.405194
0.404229
0.403271
0.402322
0.401383
0.400454
0.399536
0.398629
0.397734
0.396851
0.395982
0.395126
0.394283
0.393454
0.39264
0.391841
0.391056
0.390286
0.389531
0.388792
0.388068
0.38736
0.386667
0.38599
0.385328
0.384682
0.384051
0.383436
0.382836
0.382251
0.381681
0.381125
0.380583
0.380056
0.379542
0.379042
0.378555
0.37808
0.377618
0.377168
0.376729
0.3763
0.375883
0.375475
0.375076
0.374687
0.374305
0.373932
0.373565
0.373206
0.372852
0.372503
0.37216
0.37182
0.371485
0.371152
0.370821
0.370492
0.370163
0.444461
0.42321
0.414925
0.413353
0.412316
0.41124
0.410183
0.409152
0.408144
0.40715
0.406168
0.405194
0.404229
0.403271
0.402322
0.401383
0.400454
0.399536
0.398629
0.397734
0.396851
0.395982
0.395126
0.394283
0.393454
0.39264
0.391841
0.391056
0.390286
0.389531
0.388792
0.388068
0.38736
0.386667
0.38599
0.385328
0.384682
0.384051
0.383436
0.382836
0.382251
0.381681
0.381125
0.380583
0.380056
0.379542
0.379042
0.378555
0.37808
0.377618
0.377168
0.376729
0.3763
0.375883
0.375475
0.375076
0.374687
0.374305
0.373932
0.373565
0.373206
0.372852
0.372503
0.37216
0.37182
0.371485
0.371152
0.370821
0.370492
0.370163
0.444461
0.42321
0.414925
0.413353
0.412316
0.41124
0.410183
0.409152
0.408144
0.40715
0.406168
0.405194
0.404229
0.403271
0.402322
0.401383
0.400454
0.399536
0.398629
0.397734
0.396851
0.395982
0.395126
0.394283
0.393454
0.39264
0.391841
0.391056
0.390286
0.389531
0.388792
0.388068
0.38736
0.386667
0.38599
0.385328
0.384682
0.384051
0.383436
0.382836
0.382251
0.381681
0.381125
0.380583
0.380056
0.379542
0.379042
0.378555
0.37808
0.377618
0.377168
0.376729
0.3763
0.375883
0.375475
0.375076
0.374687
0.374305
0.373932
0.373565
0.373206
0.372852
0.372503
0.37216
0.37182
0.371485
0.371152
0.370821
0.370492
0.370163
0.444461
0.42321
0.414925
0.413353
0.412316
0.41124
0.410183
0.409152
0.408144
0.40715
0.406168
0.405194
0.404229
0.403271
0.402322
0.401383
0.400454
0.399536
0.398629
0.397734
0.396851