/*--------------------------------*- C++ -*----------------------------------*\
  =========                 |
  \\      /  F ield         | OpenFOAM: The Open Source CFD Toolbox
   \\    /   O peration     | Website:  https://openfoam.org
    \\  /    A nd           | Version:  13
     \\/     M anipulation  |
\*---------------------------------------------------------------------------*/
FoamFile
{
    format      ascii;
    class       volScalarField;
    location    "55";
    object      rhok;
}
// * * * * * * * * * * * * * * * * * * * * * * * * * * * * * * * * * * * * * //

dimensions      [];

internalField   nonuniform List<scalar> 
315000
(
0.444428
0.421937
0.414214
0.412719
0.411696
0.410595
0.409481
0.408374
0.407279
0.406195
0.405121
0.404059
0.403007
0.401967
0.400938
0.399923
0.398921
0.397934
0.396962
0.396007
0.395068
0.394146
0.393242
0.392356
0.391489
0.390641
0.389813
0.389003
0.388214
0.387445
0.386695
0.385966
0.385256
0.384567
0.383897
0.383247
0.382617
0.382007
0.381415
0.380843
0.380289
0.379753
0.379236
0.378736
0.378253
0.377787
0.377337
0.376904
0.376485
0.376081
0.375691
0.375315
0.374952
0.374601
0.374262
0.373934
0.373616
0.373308
0.37301
0.37272
0.372437
0.372161
0.371892
0.371629
0.37137
0.371115
0.370864
0.370615
0.370368
0.370122
0.444428
0.421931
0.414202
0.412708
0.411686
0.410588
0.409476
0.408369
0.407273
0.406188
0.405114
0.404051
0.402998
0.401957
0.400928
0.399911
0.398909
0.397921
0.396949
0.395992
0.395053
0.39413
0.393226
0.39234
0.391473
0.390624
0.389796
0.388986
0.388197
0.387427
0.386678
0.385948
0.385239
0.384549
0.38388
0.38323
0.3826
0.38199
0.381398
0.380826
0.380273
0.379737
0.37922
0.378721
0.378238
0.377773
0.377323
0.37689
0.376472
0.376068
0.375679
0.375303
0.37494
0.37459
0.374252
0.373924
0.373607
0.3733
0.373002
0.372713
0.372431
0.372156
0.371887
0.371624
0.371366
0.371112
0.370861
0.370613
0.370367
0.370122
0.444461
0.423338
0.413636
0.412297
0.411421
0.410434
0.409392
0.408324
0.407249
0.406175
0.405106
0.404044
0.402993
0.401952
0.400922
0.399906
0.398903
0.397915
0.396942
0.395985
0.395045
0.394122
0.393217
0.392331
0.391463
0.390615
0.389786
0.388976
0.388187
0.387417
0.386667
0.385938
0.385228
0.384539
0.383869
0.383219
0.382589
0.381979
0.381388
0.380816
0.380262
0.379727
0.37921
0.37871
0.378228
0.377763
0.377314
0.376881
0.376463
0.376059
0.37567
0.375295
0.374933
0.374583
0.374245
0.373918
0.373601
0.373294
0.372997
0.372708
0.372426
0.372152
0.371884
0.371621
0.371364
0.37111
0.37086
0.370612
0.370366
0.370122
0.444428
0.421932
0.4142
0.412701
0.411679
0.41058
0.409468
0.408362
0.407266
0.406182
0.405107
0.404044
0.402991
0.401949
0.400919
0.399903
0.3989
0.397912
0.396939
0.395982
0.395042
0.394119
0.393214
0.392328
0.39146
0.390611
0.389782
0.388972
0.388182
0.387412
0.386663
0.385933
0.385223
0.384533
0.383864
0.383214
0.382584
0.381973
0.381382
0.38081
0.380256
0.379721
0.379204
0.378705
0.378222
0.377757
0.377308
0.376875
0.376457
0.376054
0.375665
0.37529
0.374928
0.374578
0.37424
0.373913
0.373597
0.373291
0.372993
0.372704
0.372423
0.372149
0.371881
0.371619
0.371362
0.371108
0.370859
0.370611
0.370366
0.370122
0.444428
0.421931
0.414203
0.412708
0.411685
0.410586
0.409474
0.408366
0.40727
0.406184
0.405109
0.404045
0.402992
0.40195
0.400921
0.399904
0.398901
0.397913
0.39694
0.395983
0.395043
0.39412
0.393215
0.392328
0.39146
0.390612
0.389782
0.388972
0.388182
0.387412
0.386662
0.385932
0.385222
0.384532
0.383862
0.383212
0.382582
0.381971
0.38138
0.380808
0.380254
0.379719
0.379201
0.378702
0.37822
0.377754
0.377305
0.376872
0.376454
0.376051
0.375662
0.375287
0.374925
0.374575
0.374238
0.373911
0.373595
0.373288
0.372991
0.372702
0.372421
0.372147
0.37188
0.371618
0.371361
0.371108
0.370858
0.370611
0.370366
0.370121
0.444462
0.423376
0.413674
0.412316
0.411427
0.41044
0.409398
0.40833
0.407255
0.406179
0.40511
0.404048
0.402995
0.401954
0.400925
0.399908
0.398905
0.397917
0.396944
0.395987
0.395047
0.394124
0.393219
0.392332
0.391464
0.390615
0.389785
0.388975
0.388185
0.387415
0.386664
0.385934
0.385224
0.384534
0.383864
0.383214
0.382583
0.381972
0.38138
0.380808
0.380254
0.379719
0.379201
0.378702
0.378219
0.377754
0.377304
0.376871
0.376453
0.37605
0.375661
0.375286
0.374924
0.374574
0.374236
0.37391
0.373594
0.373287
0.37299
0.372701
0.37242
0.372147
0.371879
0.371617
0.37136
0.371107
0.370857
0.37061
0.370365
0.370121
0.444399
0.420027
0.415213
0.413316
0.411869
0.410626
0.409472
0.40836
0.407266
0.406185
0.405114
0.404052
0.403001
0.40196
0.40093
0.399914
0.398911
0.397923
0.39695
0.395993
0.395052
0.394129
0.393224
0.392337
0.391469
0.39062
0.38979
0.38898
0.388189
0.387419
0.386668
0.385938
0.385227
0.384537
0.383867
0.383216
0.382586
0.381974
0.381383
0.38081
0.380256
0.37972
0.379202
0.378703
0.37822
0.377754
0.377305
0.376872
0.376454
0.37605
0.375661
0.375286
0.374924
0.374574
0.374236
0.373909
0.373593
0.373287
0.37299
0.372701
0.37242
0.372146
0.371879
0.371617
0.37136
0.371107
0.370857
0.37061
0.370365
0.370121
0.444399
0.420028
0.415218
0.413325
0.411875
0.41063
0.409476
0.408363
0.40727
0.406189
0.405119
0.404057
0.403006
0.401965
0.400936
0.399919
0.398917
0.397928
0.396955
0.395998
0.395058
0.394134
0.393229
0.392342
0.391474
0.390625
0.389795
0.388984
0.388194
0.387423
0.386672
0.385942
0.385231
0.384541
0.38387
0.38322
0.382589
0.381977
0.381385
0.380812
0.380258
0.379722
0.379204
0.378704
0.378222
0.377756
0.377306
0.376873
0.376454
0.376051
0.375662
0.375287
0.374924
0.374574
0.374236
0.37391
0.373593
0.373287
0.37299
0.372701
0.37242
0.372146
0.371879
0.371617
0.37136
0.371107
0.370857
0.37061
0.370365
0.370121
0.444399
0.420025
0.415211
0.413329
0.411886
0.41064
0.409484
0.408368
0.407274
0.406192
0.405121
0.404059
0.403008
0.401967
0.400939
0.399922
0.39892
0.397932
0.396959
0.396002
0.395062
0.394139
0.393234
0.392347
0.391478
0.390629
0.389799
0.388989
0.388198
0.387427
0.386676
0.385946
0.385235
0.384544
0.383874
0.383223
0.382592
0.38198
0.381388
0.380815
0.38026
0.379724
0.379206
0.378706
0.378223
0.377757
0.377308
0.376874
0.376456
0.376052
0.375663
0.375287
0.374925
0.374575
0.374237
0.37391
0.373594
0.373287
0.37299
0.372701
0.37242
0.372146
0.371879
0.371617
0.37136
0.371107
0.370857
0.37061
0.370365
0.370121
0.444463
0.423382
0.41366
0.412308
0.41143
0.410444
0.409403
0.408336
0.407261
0.406187
0.405118
0.404058
0.403007
0.401967
0.400938
0.399923
0.398921
0.397933
0.396961
0.396005
0.395065
0.394142
0.393237
0.39235
0.391482
0.390633
0.389803
0.388992
0.388201
0.387431
0.38668
0.385949
0.385238
0.384547
0.383877
0.383226
0.382594
0.381983
0.38139
0.380817
0.380262
0.379726
0.379208
0.378708
0.378225
0.377759
0.377309
0.376875
0.376457
0.376053
0.375664
0.375288
0.374926
0.374576
0.374238
0.373911
0.373594
0.373288
0.37299
0.372702
0.372421
0.372147
0.371879
0.371617
0.37136
0.371107
0.370857
0.37061
0.370365
0.370121
0.444462
0.423374
0.41363
0.412283
0.411411
0.410431
0.409393
0.408328
0.407255
0.406182
0.405115
0.404055
0.403005
0.401966
0.400938
0.399923
0.398922
0.397935
0.396963
0.396007
0.395067
0.394144
0.39324
0.392353
0.391485
0.390636
0.389806
0.388995
0.388204
0.387433
0.386682
0.385952
0.385241
0.38455
0.383879
0.383228
0.382597
0.381985
0.381392
0.380819
0.380264
0.379728
0.37921
0.378709
0.378226
0.37776
0.37731
0.376876
0.376458
0.376054
0.375665
0.375289
0.374926
0.374576
0.374238
0.373911
0.373595
0.373288
0.372991
0.372702
0.372421
0.372147
0.371879
0.371617
0.37136
0.371107
0.370857
0.37061
0.370365
0.370121
0.444462
0.423373
0.413629
0.412282
0.41141
0.41043
0.409392
0.408328
0.407255
0.406183
0.405116
0.404056
0.403006
0.401967
0.40094
0.399925
0.398924
0.397937
0.396965
0.396009
0.395069
0.394147
0.393242
0.392355
0.391487
0.390638
0.389808
0.388997
0.388206
0.387435
0.386684
0.385953
0.385242
0.384552
0.383881
0.383229
0.382598
0.381986
0.381394
0.38082
0.380265
0.379729
0.379211
0.37871
0.378227
0.377761
0.377311
0.376877
0.376458
0.376055
0.375665
0.375289
0.374927
0.374577
0.374238
0.373911
0.373595
0.373288
0.372991
0.372702
0.372421
0.372147
0.371879
0.371617
0.37136
0.371107
0.370858
0.370611
0.370365
0.370121
0.444462
0.423377
0.413634
0.412287
0.411415
0.410435
0.409397
0.408332
0.407259
0.406186
0.405119
0.404059
0.403009
0.40197
0.400942
0.399927
0.398926
0.397939
0.396967
0.396011
0.395071
0.394148
0.393243
0.392357
0.391488
0.390639
0.389809
0.388999
0.388208
0.387437
0.386686
0.385955
0.385244
0.384553
0.383882
0.38323
0.382599
0.381987
0.381394
0.380821
0.380266
0.37973
0.379211
0.378711
0.378228
0.377761
0.377311
0.376877
0.376459
0.376055
0.375666
0.37529
0.374927
0.374577
0.374239
0.373912
0.373595
0.373289
0.372991
0.372702
0.372421
0.372147
0.371879
0.371617
0.37136
0.371107
0.370858
0.370611
0.370365
0.370121
0.444463
0.423387
0.413673
0.412312
0.411426
0.410442
0.409403
0.408338
0.407265
0.406191
0.405123
0.404063
0.403012
0.401972
0.400944
0.399929
0.398927
0.39794
0.396968
0.396011
0.395072
0.394149
0.393244
0.392357
0.391489
0.39064
0.38981
0.388999
0.388208
0.387437
0.386686
0.385955
0.385244
0.384553
0.383882
0.383231
0.382599
0.381987
0.381395
0.380821
0.380266
0.37973
0.379212
0.378711
0.378228
0.377762
0.377312
0.376878
0.376459
0.376055
0.375666
0.37529
0.374927
0.374577
0.374239
0.373912
0.373595
0.373289
0.372991
0.372702
0.372421
0.372147
0.37188
0.371617
0.37136
0.371107
0.370858
0.370611
0.370365
0.370121
0.4444
0.420059
0.415245
0.413357
0.411907
0.410656
0.409495
0.408377
0.40728
0.406198
0.405126
0.404064
0.403013
0.401973
0.400944
0.399929
0.398927
0.39794
0.396968
0.396011
0.395071
0.394149
0.393244
0.392357
0.391489
0.39064
0.38981
0.388999
0.388208
0.387437
0.386686
0.385955
0.385244
0.384553
0.383882
0.383231
0.3826
0.381988
0.381395
0.380821
0.380267
0.37973
0.379212
0.378711
0.378228
0.377762
0.377312
0.376878
0.376459
0.376055
0.375666
0.37529
0.374927
0.374577
0.374239
0.373912
0.373595
0.373289
0.372991
0.372702
0.372421
0.372147
0.37188
0.371618
0.37136
0.371107
0.370858
0.370611
0.370365
0.370121
0.444428
0.421919
0.414208
0.412716
0.411692
0.410592
0.40948
0.408375
0.40728
0.406198
0.405125
0.404063
0.403012
0.401972
0.400944
0.399929
0.398927
0.397939
0.396967
0.396011
0.395071
0.394148
0.393243
0.392357
0.391488
0.390639
0.389809
0.388999
0.388208
0.387437
0.386686
0.385955
0.385244
0.384553
0.383882
0.383231
0.382599
0.381988
0.381395
0.380821
0.380267
0.37973
0.379212
0.378711
0.378228
0.377762
0.377312
0.376878
0.376459
0.376055
0.375666
0.37529
0.374927
0.374577
0.374239
0.373912
0.373595
0.373289
0.372991
0.372703
0.372421
0.372147
0.37188
0.371618
0.37136
0.371107
0.370858
0.370611
0.370365
0.370121
0.444428
0.421922
0.4142
0.412709
0.411688
0.410589
0.409477
0.408373
0.407279
0.406196
0.405124
0.404062
0.403011
0.401971
0.400943
0.399928
0.398926
0.397939
0.396967
0.39601
0.39507
0.394148
0.393243
0.392356
0.391488
0.390639
0.389809
0.388998
0.388207
0.387436
0.386685
0.385955
0.385244
0.384553
0.383882
0.383231
0.382599
0.381987
0.381395
0.380821
0.380267
0.37973
0.379212
0.378711
0.378228
0.377762
0.377312
0.376878
0.376459
0.376055
0.375666
0.37529
0.374927
0.374577
0.374239
0.373912
0.373595
0.373289
0.372991
0.372703
0.372421
0.372147
0.37188
0.371618
0.37136
0.371107
0.370858
0.370611
0.370365
0.370121
0.444428
0.421922
0.414199
0.412708
0.411686
0.410588
0.409476
0.408372
0.407278
0.406196
0.405123
0.404062
0.403011
0.401971
0.400943
0.399927
0.398926
0.397938
0.396966
0.39601
0.39507
0.394147
0.393242
0.392355
0.391487
0.390638
0.389808
0.388998
0.388207
0.387436
0.386685
0.385954
0.385243
0.384553
0.383882
0.383231
0.382599
0.381987
0.381395
0.380821
0.380266
0.37973
0.379212
0.378711
0.378228
0.377762
0.377312
0.376878
0.376459
0.376055
0.375666
0.37529
0.374928
0.374577
0.374239
0.373912
0.373595
0.373289
0.372991
0.372703
0.372421
0.372147
0.37188
0.371618
0.37136
0.371107
0.370858
0.370611
0.370365
0.370121
0.444428
0.421921
0.414198
0.412707
0.411686
0.410587
0.409476
0.408371
0.407278
0.406195
0.405123
0.404061
0.40301
0.40197
0.400942
0.399927
0.398925
0.397938
0.396965
0.396009
0.395069
0.394147
0.393242
0.392355
0.391487
0.390638
0.389808
0.388997
0.388207
0.387436
0.386685
0.385954
0.385243
0.384552
0.383882
0.38323
0.382599
0.381987
0.381395
0.380821
0.380266
0.37973
0.379212
0.378711
0.378228
0.377762
0.377312
0.376878
0.376459
0.376055
0.375666
0.37529
0.374928
0.374577
0.374239
0.373912
0.373595
0.373289
0.372991
0.372703
0.372421
0.372147
0.37188
0.371618
0.37136
0.371107
0.370858
0.370611
0.370365
0.370121
0.444428
0.421921
0.414198
0.412707
0.411686
0.410587
0.409476
0.408371
0.407277
0.406195
0.405123
0.404061
0.40301
0.40197
0.400942
0.399927
0.398925
0.397937
0.396965
0.396009
0.395069
0.394146
0.393242
0.392355
0.391487
0.390638
0.389808
0.388997
0.388207
0.387436
0.386685
0.385954
0.385243
0.384552
0.383881
0.38323
0.382599
0.381987
0.381395
0.380821
0.380266
0.37973
0.379212
0.378711
0.378228
0.377762
0.377312
0.376878
0.376459
0.376055
0.375666
0.37529
0.374928
0.374577
0.374239
0.373912
0.373595
0.373289
0.372991
0.372703
0.372421
0.372147
0.37188
0.371618
0.37136
0.371107
0.370858
0.370611
0.370365
0.370121
0.444428
0.421921
0.414198
0.412707
0.411685
0.410587
0.409475
0.408371
0.407277
0.406194
0.405122
0.404061
0.40301
0.40197
0.400942
0.399926
0.398925
0.397937
0.396965
0.396009
0.395069
0.394146
0.393242
0.392355
0.391487
0.390638
0.389808
0.388997
0.388207
0.387436
0.386685
0.385954
0.385243
0.384552
0.383881
0.38323
0.382599
0.381987
0.381395
0.380821
0.380266
0.37973
0.379212
0.378711
0.378228
0.377762
0.377312
0.376878
0.376459
0.376055
0.375666
0.37529
0.374928
0.374577
0.374239
0.373912
0.373595
0.373289
0.372991
0.372703
0.372421
0.372147
0.37188
0.371618
0.37136
0.371107
0.370858
0.370611
0.370365
0.370121
0.444428
0.421921
0.414198
0.412707
0.411685
0.410587
0.409475
0.408371
0.407277
0.406194
0.405122
0.404061
0.40301
0.40197
0.400942
0.399926
0.398925
0.397937
0.396965
0.396009
0.395069
0.394146
0.393241
0.392355
0.391487
0.390638
0.389808
0.388997
0.388207
0.387436
0.386685
0.385954
0.385243
0.384552
0.383881
0.38323
0.382599
0.381987
0.381395
0.380821
0.380266
0.37973
0.379212
0.378711
0.378228
0.377762
0.377312
0.376878
0.376459
0.376055
0.375666
0.37529
0.374928
0.374577
0.374239
0.373912
0.373596
0.373289
0.372991
0.372703
0.372421
0.372147
0.37188
0.371618
0.37136
0.371107
0.370858
0.370611
0.370365
0.370121
0.444428
0.421921
0.414198
0.412707
0.411685
0.410587
0.409475
0.408371
0.407277
0.406194
0.405122
0.404061
0.40301
0.40197
0.400942
0.399926
0.398925
0.397937
0.396965
0.396009
0.395069
0.394146
0.393241
0.392355
0.391487
0.390637
0.389808
0.388997
0.388207
0.387436
0.386685
0.385954
0.385243
0.384552
0.383881
0.38323
0.382599
0.381987
0.381395
0.380821
0.380266
0.37973
0.379212
0.378711
0.378228
0.377762
0.377312
0.376878
0.376459
0.376055
0.375666
0.37529
0.374928
0.374577
0.374239
0.373912
0.373596
0.373289
0.372991
0.372703
0.372421
0.372147
0.37188
0.371618
0.37136
0.371107
0.370858
0.370611
0.370365
0.370121
0.444428
0.421921
0.414198
0.412707
0.411685
0.410587
0.409475
0.408371
0.407277
0.406194
0.405122
0.404061
0.40301
0.40197
0.400942
0.399926
0.398925
0.397937
0.396965
0.396009
0.395069
0.394146
0.393241
0.392355
0.391487
0.390637
0.389808
0.388997
0.388207
0.387436
0.386685
0.385954
0.385243
0.384552
0.383881
0.38323
0.382599
0.381987
0.381395
0.380821
0.380266
0.37973
0.379212
0.378711
0.378228
0.377762
0.377312
0.376878
0.376459
0.376055
0.375666
0.37529
0.374928
0.374577
0.374239
0.373912
0.373596
0.373289
0.372991
0.372703
0.372421
0.372147
0.37188
0.371618
0.37136
0.371107
0.370858
0.370611
0.370365
0.370121
0.444428
0.421921
0.414198
0.412707
0.411685
0.410587
0.409475
0.408371
0.407277
0.406194
0.405122
0.404061
0.40301
0.40197
0.400942
0.399926
0.398925
0.397937
0.396965
0.396009
0.395069
0.394146
0.393241
0.392355
0.391487
0.390637
0.389808
0.388997
0.388207
0.387436
0.386685
0.385954
0.385243
0.384552
0.383881
0.38323
0.382599
0.381987
0.381395
0.380821
0.380266
0.37973
0.379212
0.378711
0.378228
0.377762
0.377312
0.376878
0.376459
0.376055
0.375666
0.37529
0.374928
0.374577
0.374239
0.373912
0.373596
0.373289
0.372991
0.372703
0.372421
0.372147
0.37188
0.371618
0.37136
0.371107
0.370858
0.370611
0.370365
0.370121
0.444428
0.421921
0.414198
0.412707
0.411685
0.410587
0.409475
0.408371
0.407277
0.406194
0.405122
0.404061
0.40301
0.40197
0.400942
0.399926
0.398925
0.397937
0.396965
0.396009
0.395069
0.394146
0.393241
0.392355
0.391487
0.390637
0.389808
0.388997
0.388207
0.387436
0.386685
0.385954
0.385243
0.384552
0.383881
0.38323
0.382599
0.381987
0.381395
0.380821
0.380266
0.37973
0.379212
0.378711
0.378228
0.377762
0.377312
0.376878
0.376459
0.376055
0.375666
0.37529
0.374928
0.374577
0.374239
0.373912
0.373596
0.373289
0.372991
0.372703
0.372421
0.372147
0.37188
0.371618
0.37136
0.371107
0.370858
0.370611
0.370365
0.370121
0.444428
0.421921
0.414198
0.412707
0.411685
0.410587
0.409475
0.408371
0.407277
0.406194
0.405122
0.404061
0.40301
0.40197
0.400942
0.399926
0.398925
0.397937
0.396965
0.396009
0.395069
0.394146
0.393241
0.392355
0.391487
0.390637
0.389808
0.388997
0.388207
0.387436
0.386685
0.385954
0.385243
0.384552
0.383881
0.38323
0.382599
0.381987
0.381395
0.380821
0.380266
0.37973
0.379212
0.378711
0.378228
0.377762
0.377312
0.376878
0.376459
0.376055
0.375666
0.37529
0.374928
0.374577
0.374239
0.373912
0.373596
0.373289
0.372991
0.372703
0.372421
0.372147
0.37188
0.371618
0.37136
0.371107
0.370858
0.370611
0.370365
0.370121
0.444428
0.421921
0.414198
0.412707
0.411685
0.410587
0.409475
0.408371
0.407277
0.406194
0.405122
0.404061
0.40301
0.40197
0.400942
0.399926
0.398925
0.397937
0.396965
0.396009
0.395069
0.394146
0.393241
0.392355
0.391487
0.390637
0.389808
0.388997
0.388207
0.387436
0.386685
0.385954
0.385243
0.384552
0.383881
0.38323
0.382599
0.381987
0.381395
0.380821
0.380266
0.37973
0.379212
0.378711
0.378228
0.377762
0.377312
0.376878
0.376459
0.376055
0.375666
0.37529
0.374928
0.374577
0.374239
0.373912
0.373596
0.373289
0.372991
0.372703
0.372421
0.372147
0.37188
0.371618
0.37136
0.371107
0.370858
0.370611
0.370365
0.370121
0.444428
0.421921
0.414198
0.412707
0.411685
0.410587
0.409475
0.408371
0.407277
0.406194
0.405122
0.404061
0.40301
0.40197
0.400942
0.399926
0.398925
0.397937
0.396965
0.396009
0.395069
0.394146
0.393241
0.392355
0.391487
0.390637
0.389808
0.388997
0.388207
0.387436
0.386685
0.385954
0.385243
0.384552
0.383881
0.38323
0.382599
0.381987
0.381395
0.380821
0.380266
0.37973
0.379212
0.378711
0.378228
0.377762
0.377312
0.376878
0.376459
0.376055
0.375666
0.37529
0.374928
0.374577
0.374239
0.373912
0.373596
0.373289
0.372991
0.372703
0.372421
0.372147
0.37188
0.371618
0.37136
0.371107
0.370858
0.370611
0.370365
0.370121
0.444428
0.421921
0.414198
0.412707
0.411685
0.410587
0.409475
0.408371
0.407277
0.406194
0.405122
0.404061
0.40301
0.40197
0.400942
0.399926
0.398925
0.397937
0.396965
0.396009
0.395069
0.394146
0.393241
0.392355
0.391487
0.390637
0.389808
0.388997
0.388207
0.387436
0.386685
0.385954
0.385243
0.384552
0.383881
0.38323
0.382599
0.381987
0.381395
0.380821
0.380266
0.37973
0.379212
0.378711
0.378228
0.377762
0.377312
0.376878
0.376459
0.376055
0.375666
0.37529
0.374928
0.374577
0.374239
0.373912
0.373596
0.373289
0.372991
0.372703
0.372421
0.372147
0.37188
0.371618
0.37136
0.371107
0.370858
0.370611
0.370365
0.370121
0.444428
0.421921
0.414198
0.412707
0.411685
0.410587
0.409475
0.408371
0.407277
0.406194
0.405122
0.404061
0.40301
0.40197
0.400942
0.399926
0.398925
0.397937
0.396965
0.396009
0.395069
0.394146
0.393241
0.392355
0.391487
0.390637
0.389808
0.388997
0.388207
0.387436
0.386685
0.385954
0.385243
0.384552
0.383881
0.38323
0.382599
0.381987
0.381395
0.380821
0.380266
0.37973
0.379212
0.378711
0.378228
0.377762
0.377312
0.376878
0.376459
0.376055
0.375666
0.37529
0.374928
0.374577
0.374239
0.373912
0.373596
0.373289
0.372991
0.372703
0.372421
0.372147
0.37188
0.371618
0.37136
0.371107
0.370858
0.370611
0.370365
0.370121
0.444428
0.421921
0.414198
0.412707
0.411685
0.410587
0.409475
0.408371
0.407277
0.406194
0.405122
0.404061
0.40301
0.40197
0.400942
0.399926
0.398925
0.397937
0.396965
0.396009
0.395069
0.394146
0.393241
0.392355
0.391487
0.390637
0.389808
0.388997
0.388207
0.387436
0.386685
0.385954
0.385243
0.384552
0.383881
0.38323
0.382599
0.381987
0.381395
0.380821
0.380266
0.37973
0.379212
0.378711
0.378228
0.377762
0.377312
0.376878
0.376459
0.376055
0.375666
0.37529
0.374928
0.374577
0.374239
0.373912
0.373596
0.373289
0.372991
0.372703
0.372421
0.372147
0.37188
0.371618
0.37136
0.371107
0.370858
0.370611
0.370365
0.370121
0.444428
0.421921
0.414198
0.412707
0.411685
0.410587
0.409475
0.408371
0.407277
0.406194
0.405122
0.404061
0.40301
0.40197
0.400942
0.399926
0.398925
0.397937
0.396965
0.396009
0.395069
0.394146
0.393241
0.392355
0.391487
0.390637
0.389808
0.388997
0.388207
0.387436
0.386685
0.385954
0.385243
0.384552
0.383881
0.38323
0.382599
0.381987
0.381395
0.380821
0.380266
0.37973
0.379212
0.378711
0.378228
0.377762
0.377312
0.376878
0.376459
0.376055
0.375666
0.37529
0.374928
0.374577
0.374239
0.373912
0.373596
0.373289
0.372991
0.372703
0.372421
0.372147
0.37188
0.371618
0.37136
0.371107
0.370858
0.370611
0.370365
0.370121
0.444428
0.421921
0.414198
0.412707
0.411685
0.410587
0.409475
0.408371
0.407277
0.406194
0.405122
0.404061
0.40301
0.40197
0.400942
0.399926
0.398925
0.397937
0.396965
0.396009
0.395069
0.394146
0.393241
0.392355
0.391487
0.390637
0.389808
0.388997
0.388207
0.387436
0.386685
0.385954
0.385243
0.384552
0.383881
0.38323
0.382599
0.381987
0.381395
0.380821
0.380266
0.37973
0.379212
0.378711
0.378228
0.377762
0.377312
0.376878
0.376459
0.376055
0.375666
0.37529
0.374928
0.374577
0.374239
0.373912
0.373596
0.373289
0.372991
0.372703
0.372421
0.372147
0.37188
0.371618
0.37136
0.371107
0.370858
0.370611
0.370365
0.370121
0.444428
0.421921
0.414198
0.412707
0.411685
0.410587
0.409475
0.408371
0.407277
0.406194
0.405122
0.404061
0.40301
0.40197
0.400942
0.399926
0.398925
0.397937
0.396965
0.396009
0.395069
0.394146
0.393241
0.392355
0.391487
0.390637
0.389808
0.388997
0.388207
0.387436
0.386685
0.385954
0.385243
0.384552
0.383881
0.38323
0.382599
0.381987
0.381395
0.380821
0.380266
0.37973
0.379212
0.378711
0.378228
0.377762
0.377312
0.376878
0.376459
0.376055
0.375666
0.37529
0.374928
0.374577
0.374239
0.373912
0.373596
0.373289
0.372991
0.372703
0.372421
0.372147
0.37188
0.371618
0.37136
0.371107
0.370858
0.370611
0.370365
0.370121
0.444428
0.421921
0.414198
0.412707
0.411685
0.410587
0.409475
0.408371
0.407277
0.406194
0.405122
0.404061
0.40301
0.40197
0.400942
0.399926
0.398925
0.397937
0.396965
0.396009
0.395069
0.394146
0.393241
0.392355
0.391487
0.390637
0.389808
0.388997
0.388207
0.387436
0.386685
0.385954
0.385243
0.384552
0.383881
0.38323
0.382599
0.381987
0.381395
0.380821
0.380266
0.37973
0.379212
0.378711
0.378228
0.377762
0.377312
0.376878
0.376459
0.376055
0.375666
0.37529
0.374928
0.374577
0.374239
0.373912
0.373596
0.373289
0.372991
0.372703
0.372421
0.372147
0.37188
0.371618
0.37136
0.371107
0.370858
0.370611
0.370365
0.370121
0.444428
0.421921
0.414198
0.412707
0.411685
0.410587
0.409475
0.408371
0.407277
0.406194
0.405122
0.404061
0.40301
0.40197
0.400942
0.399926
0.398925
0.397937
0.396965
0.396009
0.395069
0.394146
0.393241
0.392355
0.391487
0.390637
0.389808
0.388997
0.388207
0.387436
0.386685
0.385954
0.385243
0.384552
0.383881
0.38323
0.382599
0.381987
0.381395
0.380821
0.380266
0.37973
0.379212
0.378711
0.378228
0.377762
0.377312
0.376878
0.376459
0.376055
0.375666
0.37529
0.374928
0.374577
0.374239
0.373912
0.373596
0.373289
0.372991
0.372703
0.372421
0.372147
0.37188
0.371618
0.37136
0.371107
0.370858
0.370611
0.370365
0.370121
0.444428
0.421921
0.414198
0.412707
0.411685
0.410587
0.409475
0.408371
0.407277
0.406194
0.405122
0.404061
0.40301
0.40197
0.400942
0.399926
0.398925
0.397937
0.396965
0.396009
0.395069
0.394146
0.393241
0.392355
0.391487
0.390637
0.389808
0.388997
0.388207
0.387436
0.386685
0.385954
0.385243
0.384552
0.383881
0.38323
0.382599
0.381987
0.381395
0.380821
0.380266
0.37973
0.379212
0.378711
0.378228
0.377762
0.377312
0.376878
0.376459
0.376055
0.375666
0.37529
0.374928
0.374577
0.374239
0.373912
0.373596
0.373289
0.372991
0.372703
0.372421
0.372147
0.37188
0.371618
0.37136
0.371107
0.370858
0.370611
0.370365
0.370121
0.444428
0.421921
0.414198
0.412707
0.411685
0.410587
0.409475
0.408371
0.407277
0.406194
0.405122
0.404061
0.40301
0.40197
0.400942
0.399926
0.398925
0.397937
0.396965
0.396009
0.395069
0.394146
0.393241
0.392355
0.391487
0.390637
0.389808
0.388997
0.388207
0.387436
0.386685
0.385954
0.385243
0.384552
0.383881
0.38323
0.382599
0.381987
0.381395
0.380821
0.380266
0.37973
0.379212
0.378711
0.378228
0.377762
0.377312
0.376878
0.376459
0.376055
0.375666
0.37529
0.374928
0.374577
0.374239
0.373912
0.373596
0.373289
0.372991
0.372703
0.372421
0.372147
0.37188
0.371618
0.37136
0.371107
0.370858
0.370611
0.370365
0.370121
0.444428
0.421921
0.414198
0.412707
0.411685
0.410587
0.409475
0.408371
0.407277
0.406194
0.405122
0.404061
0.40301
0.40197
0.400942
0.399926
0.398925
0.397937
0.396965
0.396009
0.395069
0.394146
0.393241
0.392355
0.391487
0.390637
0.389808
0.388997
0.388207
0.387436
0.386685
0.385954
0.385243
0.384552
0.383881
0.38323
0.382599
0.381987
0.381395
0.380821
0.380266
0.37973
0.379212
0.378711
0.378228
0.377762
0.377312
0.376878
0.376459
0.376055
0.375666
0.37529
0.374928
0.374577
0.374239
0.373912
0.373596
0.373289
0.372991
0.372703
0.372421
0.372147
0.37188
0.371618
0.37136
0.371107
0.370858
0.370611
0.370365
0.370121
0.444428
0.421921
0.414198
0.412707
0.411685
0.410587
0.409475
0.408371
0.407277
0.406194
0.405122
0.404061
0.40301
0.40197
0.400942
0.399926
0.398925
0.397937
0.396965
0.396009
0.395069
0.394146
0.393241
0.392355
0.391487
0.390637
0.389808
0.388997
0.388207
0.387436
0.386685
0.385954
0.385243
0.384552
0.383881
0.38323
0.382599
0.381987
0.381395
0.380821
0.380266
0.37973
0.379212
0.378711
0.378228
0.377762
0.377312
0.376878
0.376459
0.376055
0.375666
0.37529
0.374928
0.374577
0.374239
0.373912
0.373596
0.373289
0.372991
0.372703
0.372421
0.372147
0.37188
0.371618
0.37136
0.371107
0.370858
0.370611
0.370365
0.370121
0.444428
0.421921
0.414198
0.412707
0.411685
0.410587
0.409475
0.408371
0.407277
0.406194
0.405122
0.404061
0.40301
0.40197
0.400942
0.399926
0.398925
0.397937
0.396965
0.396009
0.395069
0.394146
0.393241
0.392355
0.391487
0.390637
0.389808
0.388997
0.388207
0.387436
0.386685
0.385954
0.385243
0.384552
0.383881
0.38323
0.382599
0.381987
0.381395
0.380821
0.380266
0.37973
0.379212
0.378711
0.378228
0.377762
0.377312
0.376878
0.376459
0.376055
0.375666
0.37529
0.374928
0.374577
0.374239
0.373912
0.373596
0.373289
0.372991
0.372703
0.372421
0.372147
0.37188
0.371618
0.37136
0.371107
0.370858
0.370611
0.370365
0.370121
0.444428
0.421921
0.414198
0.412707
0.411685
0.410587
0.409475
0.408371
0.407277
0.406194
0.405122
0.404061
0.40301
0.40197
0.400942
0.399926
0.398925
0.397937
0.396965
0.396009
0.395069
0.394146
0.393241
0.392355
0.391487
0.390637
0.389808
0.388997
0.388207
0.387436
0.386685
0.385954
0.385243
0.384552
0.383881
0.38323
0.382599
0.381987
0.381395
0.380821
0.380266
0.37973
0.379212
0.378711
0.378228
0.377762
0.377312
0.376878
0.376459
0.376055
0.375666
0.37529
0.374928
0.374577
0.374239
0.373912
0.373596
0.373289
0.372991
0.372703
0.372421
0.372147
0.37188
0.371618
0.37136
0.371107
0.370858
0.370611
0.370365
0.370121
0.444428
0.421921
0.414198
0.412707
0.411685
0.410587
0.409475
0.408371
0.407277
0.406194
0.405122
0.404061
0.40301
0.40197
0.400942
0.399926
0.398925
0.397937
0.396965
0.396009
0.395069
0.394146
0.393241
0.392355
0.391487
0.390637
0.389808
0.388997
0.388207
0.387436
0.386685
0.385954
0.385243
0.384552
0.383881
0.38323
0.382599
0.381987
0.381395
0.380821
0.380266
0.37973
0.379212
0.378711
0.378228
0.377762
0.377312
0.376878
0.376459
0.376055
0.375666
0.37529
0.374928
0.374577
0.374239
0.373912
0.373596
0.373289
0.372991
0.372703
0.372421
0.372147
0.37188
0.371618
0.37136
0.371107
0.370858
0.370611
0.370365
0.370121
0.444428
0.421921
0.414198
0.412707
0.411685
0.410587
0.409475
0.408371
0.407277
0.406194
0.405122
0.404061
0.40301
0.40197
0.400942
0.399926
0.398925
0.397937
0.396965
0.396009
0.395069
0.394146
0.393241
0.392355
0.391487
0.390637
0.389808
0.388997
0.388207
0.387436
0.386685
0.385954
0.385243
0.384552
0.383881
0.38323
0.382599
0.381987
0.381395
0.380821
0.380266
0.37973
0.379212
0.378711
0.378228
0.377762
0.377312
0.376878
0.376459
0.376055
0.375666
0.37529
0.374928
0.374577
0.374239
0.373912
0.373596
0.373289
0.372991
0.372703
0.372421
0.372147
0.37188
0.371618
0.37136
0.371107
0.370858
0.370611
0.370365
0.370121
0.444428
0.421921
0.414198
0.412707
0.411685
0.410587
0.409475
0.408371
0.407277
0.406194
0.405122
0.404061
0.40301
0.40197
0.400942
0.399926
0.398925
0.397937
0.396965
0.396009
0.395069
0.394146
0.393241
0.392355
0.391487
0.390637
0.389808
0.388997
0.388207
0.387436
0.386685
0.385954
0.385243
0.384552
0.383881
0.38323
0.382599
0.381987
0.381395
0.380821
0.380266
0.37973
0.379212
0.378711
0.378228
0.377762
0.377312
0.376878
0.376459
0.376055
0.375666
0.37529
0.374928
0.374577
0.374239
0.373912
0.373596
0.373289
0.372991
0.372703
0.372421
0.372147
0.37188
0.371618
0.37136
0.371107
0.370858
0.370611
0.370365
0.370121
0.444428
0.421921
0.414198
0.412707
0.411685
0.410587
0.409475
0.408371
0.407277
0.406194
0.405122
0.404061
0.40301
0.40197
0.400942
0.399926
0.398925
0.397937
0.396965
0.396009
0.395069
0.394146
0.393241
0.392355
0.391487
0.390637
0.389808
0.388997
0.388207
0.387436
0.386685
0.385954
0.385243
0.384552
0.383881
0.38323
0.382599
0.381987
0.381395
0.380821
0.380266
0.37973
0.379212
0.378711
0.378228
0.377762
0.377312
0.376878
0.376459
0.376055
0.375666
0.37529
0.374928
0.374577
0.374239
0.373912
0.373596
0.373289
0.372991
0.372703
0.372421
0.372147
0.37188
0.371618
0.37136
0.371107
0.370858
0.370611
0.370365
0.370121
0.444428
0.421921
0.414198
0.412707
0.411685
0.410587
0.409475
0.408371
0.407277