/*--------------------------------*- C++ -*----------------------------------*\
  =========                 |
  \\      /  F ield         | OpenFOAM: The Open Source CFD Toolbox
   \\    /   O peration     | Website:  https://openfoam.org
    \\  /    A nd           | Version:  13
     \\/     M anipulation  |
\*---------------------------------------------------------------------------*/
FoamFile
{
    format      ascii;
    class       volScalarField;
    location    "5";
    object      difft;
}
// * * * * * * * * * * * * * * * * * * * * * * * * * * * * * * * * * * * * * //

dimensions      [0 2 -1 0 0 0 0];

internalField   nonuniform List<scalar> 
78750
(
1.19746e-10
2.91056e-08
1.02147e-06
2.91127e-06
4.78965e-06
6.27712e-06
7.51404e-06
7.92204e-06
8.3279e-06
9.61926e-06
9.60499e-06
9.27271e-06
8.79621e-06
8.23755e-06
7.63563e-06
7.00825e-06
6.37243e-06
5.74225e-06
5.13774e-06
4.5856e-06
4.09187e-06
3.66344e-06
3.32272e-06
3.059e-06
2.86719e-06
2.71554e-06
2.59971e-06
2.5205e-06
2.43076e-06
2.38391e-06
2.22472e-06
1.89224e-06
1.67953e-06
3.37047e-07
2.3493e-09
1.11608e-09
2.86433e-07
1.03771e-05
1.28299e-05
1.13961e-05
1.04626e-05
1.55752e-05
4.13723e-05
7.7144e-05
7.62411e-05
7.38587e-05
5.65399e-05
4.85892e-05
4.54598e-05
4.44783e-05
4.43907e-05
4.49942e-05
4.5899e-05
4.74279e-05
4.88756e-05
5.04035e-05
5.19666e-05
5.39275e-05
5.81573e-05
6.7746e-05
7.61958e-05
7.47534e-05
6.17453e-05
3.11087e-05
1.77966e-05
1.07717e-05
6.79455e-06
5.01178e-06
8.67048e-07
4.55115e-09
1.82587e-09
4.72587e-07
1.31284e-05
1.12317e-05
1.11053e-05
1.05753e-05
1.32678e-05
2.32759e-05
5.5023e-05
7.76107e-05
7.66055e-05
7.59495e-05
7.55846e-05
7.54539e-05
7.54883e-05
7.56555e-05
7.59164e-05
7.62269e-05
7.65378e-05
7.67963e-05
7.69509e-05
7.69597e-05
7.68246e-05
7.65413e-05
7.63449e-05
7.65007e-05
6.88814e-05
3.97673e-05
2.15754e-05
1.19702e-05
7.598e-06
5.51568e-06
4.56468e-06
8.58248e-07
4.2756e-09
1.88629e-09
4.88081e-07
1.39906e-05
1.09786e-05
9.36209e-06
9.8165e-06
1.20809e-05
1.93131e-05
4.12832e-05
7.83244e-05
7.6878e-05
7.57842e-05
7.51209e-05
7.48425e-05
7.48349e-05
7.5e-05
7.52667e-05
7.55559e-05
7.58043e-05
7.5967e-05
7.60206e-05
7.59478e-05
7.57684e-05
7.56689e-05
7.58124e-05
7.64193e-05
5.13262e-05
2.96848e-05
1.72164e-05
1.00762e-05
6.42604e-06
4.79489e-06
4.65261e-06
8.57298e-07
3.96113e-09
2.01452e-09
5.19401e-07
1.31988e-05
1.01215e-05
9.48567e-06
1.0561e-05
1.30767e-05
1.99098e-05
3.8946e-05
7.8409e-05
7.72131e-05
7.61607e-05
7.54872e-05
7.52043e-05
7.52049e-05
7.53731e-05
7.56273e-05
7.58814e-05
7.60728e-05
7.61636e-05
7.61165e-05
7.5931e-05
7.57229e-05
7.5662e-05
7.5914e-05
7.66839e-05
4.6737e-05
2.39921e-05
1.48022e-05
8.14687e-06
5.13863e-06
4.15039e-06
4.5815e-06
8.09084e-07
3.58672e-09
2.07806e-09
5.3566e-07
1.38327e-05
1.10119e-05
9.80817e-06
1.05874e-05
1.28411e-05
1.87993e-05
3.5213e-05
7.211e-05
7.72716e-05
7.6171e-05
7.54425e-05
7.5103e-05
7.50595e-05
7.51861e-05
7.53856e-05
7.55635e-05
7.5663e-05
7.56691e-05
7.55705e-05
7.53967e-05
7.53125e-05
7.54819e-05
7.62042e-05
7.77781e-05
4.0676e-05
2.19929e-05
1.38342e-05
7.27887e-06
4.84444e-06
4.21628e-06
4.84717e-06
7.63869e-07
3.33824e-09
2.10377e-09
5.40854e-07
1.34944e-05
1.02472e-05
9.4512e-06
1.04612e-05
1.25518e-05
1.81316e-05
3.35934e-05
7.00908e-05
7.73583e-05
7.61887e-05
7.54472e-05
7.51121e-05
7.50724e-05
7.51925e-05
7.53729e-05
7.5529e-05
7.56179e-05
7.55923e-05
7.54537e-05
7.52844e-05
7.52055e-05
7.53641e-05
7.59531e-05
7.69925e-05
3.89041e-05
1.85606e-05
1.26235e-05
6.99749e-06
4.61296e-06
3.8502e-06
3.88272e-06
7.3821e-07
3.12903e-09
2.15737e-09
5.55451e-07
1.36772e-05
1.09796e-05
9.37257e-06
9.91971e-06
1.21924e-05
1.78493e-05
3.18466e-05
6.53268e-05
7.70138e-05
7.60457e-05
7.53847e-05
7.50718e-05
7.50188e-05
7.51107e-05
7.52598e-05
7.53781e-05
7.54187e-05
7.53507e-05
7.51872e-05
7.50338e-05
7.50309e-05
7.53223e-05
7.61553e-05
7.7584e-05
4.24321e-05
1.68456e-05
1.01888e-05
5.9052e-06
3.97243e-06
3.76246e-06
4.84686e-06
6.94782e-07
2.90552e-09
2.18746e-09
5.63415e-07
1.34663e-05
1.07733e-05
9.49104e-06
1.02139e-05
1.27416e-05
1.91686e-05
3.2742e-05
6.41633e-05
7.76392e-05
7.63138e-05
7.55116e-05
7.51253e-05
7.50217e-05
7.50678e-05
7.5163e-05
7.52395e-05
7.52511e-05
7.51774e-05
7.50446e-05
7.49466e-05
7.50275e-05
7.54396e-05
7.63887e-05
7.78029e-05
3.66896e-05
1.53945e-05
8.4183e-06
5.4017e-06
4.22173e-06
4.06497e-06
4.81944e-06
6.96122e-07
2.92431e-09
2.22134e-09
5.71028e-07
1.39183e-05
1.06926e-05
9.38164e-06
1.01238e-05
1.23166e-05
1.77414e-05
3.06008e-05
6.03461e-05
7.7469e-05
7.64613e-05
7.57271e-05
7.53389e-05
7.52046e-05
7.52107e-05
7.52622e-05
7.52913e-05
7.52463e-05
7.512e-05
7.49647e-05
7.48744e-05
7.49844e-05
7.54601e-05
7.64867e-05
7.80796e-05
3.23732e-05
1.37108e-05
7.68726e-06
5.21272e-06
4.18886e-06
4.02614e-06
5.05488e-06
6.93931e-07
2.92122e-09
2.22361e-09
5.71251e-07
1.35255e-05
1.03215e-05
9.30684e-06
1.01155e-05
1.2897e-05
1.94852e-05
3.17825e-05
5.99812e-05
7.82954e-05
7.68014e-05
7.59133e-05
7.5482e-05
7.5339e-05
7.53398e-05
7.53832e-05
7.53994e-05
7.53414e-05
7.52077e-05
7.5061e-05
7.50039e-05
7.5181e-05
7.57816e-05
7.69811e-05
7.6008e-05
3.10039e-05
1.36878e-05
8.17167e-06
5.40403e-06
4.29304e-06
4.15191e-06
5.14417e-06
6.96365e-07
2.90427e-09
2.2395e-09
5.76765e-07
1.37399e-05
1.10846e-05
9.48263e-06
1.01219e-05
1.2309e-05
1.72243e-05
2.94436e-05
5.74826e-05
7.73171e-05
7.64377e-05
7.57845e-05
7.54564e-05
7.53672e-05
7.54001e-05
7.54672e-05
7.54976e-05
7.54457e-05
7.53099e-05
7.51484e-05
7.50709e-05
7.52246e-05
7.57744e-05
7.67949e-05
7.65741e-05
2.98674e-05
1.30812e-05
7.62304e-06
5.08151e-06
4.26538e-06
4.28897e-06
5.1641e-06
6.87629e-07
2.85732e-09
2.25979e-09
5.82362e-07
1.38477e-05
1.07519e-05
9.41123e-06
1.01451e-05
1.24034e-05
1.7467e-05
2.98987e-05
5.70814e-05
7.74914e-05
7.65843e-05
7.59202e-05
7.55925e-05
7.5506e-05
7.55388e-05
7.55975e-05
7.56085e-05
7.55306e-05
7.53731e-05
7.51986e-05
7.51007e-05
7.5222e-05
7.57195e-05
7.6669e-05
7.7185e-05
2.97008e-05
1.22861e-05
6.94798e-06
4.95739e-06
4.24514e-06
4.02114e-06
4.7383e-06
6.80336e-07
2.83808e-09
2.26495e-09
5.81147e-07
1.36686e-05
1.01555e-05
9.54855e-06
1.02547e-05
1.26276e-05
1.79533e-05
3.05037e-05
5.7056e-05
7.79402e-05
7.6715e-05
7.5959e-05
7.56056e-05
7.55181e-05
7.55562e-05
7.56146e-05
7.56213e-05
7.55409e-05
7.53838e-05
7.52169e-05
7.51502e-05
7.53307e-05
7.59142e-05
7.69451e-05
7.23694e-05
2.83976e-05
1.24792e-05
7.21983e-06
5.03347e-06
4.05326e-06
4.21972e-06
5.653e-06
6.80167e-07
2.83139e-09
2.27155e-09
5.84225e-07
1.37146e-05
1.0703e-05
9.76114e-06
1.05396e-05
1.28272e-05
1.83239e-05
3.04753e-05
5.63989e-05
7.78482e-05
7.67772e-05
7.60177e-05
7.5634e-05
7.55162e-05
7.55353e-05
7.55841e-05
7.55844e-05
7.5501e-05
7.5347e-05
7.51872e-05
7.51301e-05
7.53211e-05
7.59059e-05
7.69138e-05
6.82995e-05
2.66745e-05
1.18867e-05
7.05168e-06
5.23429e-06
4.41956e-06
4.28331e-06
5.3687e-06
6.94114e-07
2.8552e-09
2.27105e-09
5.85414e-07
1.38492e-05
1.09061e-05
9.96234e-06
1.07795e-05
1.30581e-05
1.95354e-05
3.14035e-05
5.71843e-05
7.81821e-05
7.6868e-05
7.60878e-05
7.57281e-05
7.56348e-05
7.56581e-05
7.56985e-05
7.56795e-05
7.55731e-05
7.53922e-05
7.52065e-05
7.51289e-05
7.53028e-05
7.58627e-05
7.679e-05
6.6187e-05
2.70925e-05
1.23221e-05
7.09844e-06
5.13025e-06
4.23061e-06
4.05764e-06
5.3974e-06
6.9125e-07
2.84405e-09
2.287e-09
5.87951e-07
1.34163e-05
1.00533e-05
1.00542e-05
1.11161e-05
1.3294e-05
1.80482e-05
3.06985e-05
5.77949e-05
7.8294e-05
7.70085e-05
7.62044e-05
7.5807e-05
7.56741e-05
7.56746e-05
7.57086e-05
7.56924e-05
7.55853e-05
7.5402e-05
7.52095e-05
7.51175e-05
7.52713e-05
7.58089e-05
7.67142e-05
6.61071e-05
2.64623e-05
1.14361e-05
6.79879e-06
4.88411e-06
4.21855e-06
4.42624e-06
5.47321e-06
6.85298e-07
2.83019e-09
2.3009e-09
5.93141e-07
1.37972e-05
1.03975e-05
1.03271e-05
1.18465e-05
1.41726e-05
1.88089e-05
3.0352e-05
5.72358e-05
7.81601e-05
7.69805e-05
7.62057e-05
7.58142e-05
7.56804e-05
7.56717e-05
7.56899e-05
7.56627e-05
7.55495e-05
7.53658e-05
7.51802e-05
7.51058e-05
7.52981e-05
7.59476e-05
7.72131e-05
6.79982e-05
2.70654e-05
1.16059e-05
6.82758e-06
5.02224e-06
4.24271e-06
4.20458e-06
5.52627e-06
6.85001e-07
2.85706e-09
2.3016e-09
5.92622e-07
1.39922e-05
1.06387e-05
1.05348e-05
1.1659e-05
1.41077e-05
1.91932e-05
3.126e-05
5.76584e-05
7.81504e-05
7.70015e-05
7.62043e-05
7.57991e-05
7.56601e-05
7.5661e-05
7.56859e-05
7.56561e-05
7.55424e-05
7.5362e-05
7.51861e-05
7.51356e-05
7.53836e-05
7.61281e-05
7.74917e-05
6.71917e-05
2.74578e-05
1.27291e-05
7.64917e-06
5.04165e-06
4.23032e-06
4.23092e-06
5.56898e-06
6.94707e-07
2.8567e-09
2.28831e-09
5.87164e-07
1.37674e-05
1.04312e-05
1.06885e-05
1.23924e-05
1.52814e-05
2.03183e-05
3.12421e-05
5.72645e-05
7.7986e-05
7.69305e-05
7.61826e-05
7.57945e-05
7.56554e-05
7.5633e-05
7.56257e-05
7.55666e-05
7.54378e-05
7.52654e-05
7.51203e-05
7.51302e-05
7.54758e-05
7.63791e-05
7.79791e-05
6.75301e-05
2.63869e-05
1.24885e-05
7.81856e-06
5.72928e-06
4.66158e-06
4.37707e-06
5.14726e-06
6.77438e-07
2.80598e-09
2.29133e-09
5.88293e-07
1.38078e-05
1.084e-05
9.31657e-06
1.00526e-05
1.39253e-05
2.00419e-05
3.22397e-05
5.85445e-05
7.84178e-05
7.70482e-05
7.62157e-05
7.58083e-05
7.56718e-05
7.56638e-05
7.56713e-05
7.56243e-05
7.55166e-05
7.53538e-05
7.51864e-05
7.51296e-05
7.53599e-05
7.60608e-05
7.74065e-05
6.49486e-05
2.59153e-05
1.15426e-05
7.25872e-06
5.44487e-06
4.48179e-06
4.33407e-06
5.33671e-06
6.83923e-07
2.84736e-09
2.29371e-09
5.89003e-07
1.34979e-05
1.06889e-05
9.29868e-06
1.00901e-05
1.25512e-05
1.91093e-05
3.11078e-05
5.78579e-05
7.78725e-05
7.68954e-05
7.61776e-05
7.57945e-05
7.56542e-05
7.5642e-05
7.56549e-05
7.56226e-05
7.55106e-05
7.53433e-05
7.51699e-05
7.5092e-05
7.52485e-05
7.57853e-05
7.67242e-05
6.60969e-05
2.50392e-05
1.11081e-05
6.63353e-06
5.03686e-06
4.18883e-06
4.10584e-06
5.48235e-06
6.88738e-07
2.84035e-09
2.27842e-09
5.83961e-07
1.35672e-05
9.81891e-06
9.30336e-06
1.0068e-05
1.24635e-05
1.76712e-05
3.16016e-05
5.94277e-05
7.82511e-05
7.70186e-05
7.62363e-05
7.58475e-05
7.57126e-05
7.57011e-05
7.57033e-05
7.565e-05
7.55148e-05
7.53174e-05
7.51283e-05
7.50568e-05
7.52441e-05
7.58066e-05
7.67324e-05
6.55494e-05
2.4015e-05
1.04489e-05
6.41766e-06
4.85649e-06
4.45109e-06
4.4493e-06
5.16274e-06
6.69541e-07
2.78368e-09
2.27962e-09
5.83381e-07
1.36114e-05
1.01169e-05
9.38969e-06
1.00943e-05
1.27685e-05
1.85572e-05
3.03187e-05
5.67097e-05
7.8026e-05
7.70081e-05
7.62572e-05
7.5862e-05
7.57223e-05
7.57135e-05
7.57323e-05
7.56892e-05
7.55612e-05
7.53689e-05
7.51783e-05
7.50943e-05
7.52561e-05
7.57844e-05
7.66108e-05
6.25589e-05
2.35807e-05
1.05704e-05
6.57186e-06
5.039e-06
4.28391e-06
4.31184e-06
5.32272e-06
6.70251e-07
2.78868e-09
2.28611e-09
5.8537e-07
1.36658e-05
9.78057e-06
9.54757e-06
1.03334e-05
1.26024e-05
1.9226e-05
3.18813e-05
5.85715e-05
7.78333e-05
7.68806e-05
7.61895e-05
7.58336e-05
7.57154e-05
7.57145e-05
7.57295e-05
7.56888e-05
7.55641e-05
7.53749e-05
7.51861e-05
7.5103e-05
7.52643e-05
7.57916e-05
7.66385e-05
6.30243e-05
2.38054e-05
1.04884e-05
6.51195e-06
5.00179e-06
4.2351e-06
4.18154e-06
5.62263e-06
6.92022e-07
2.85182e-09
2.30386e-09
5.924e-07
1.43928e-05
1.04972e-05
9.85606e-06
1.01762e-05
1.22027e-05
1.84478e-05
3.25062e-05
6.01008e-05
7.79398e-05
7.6835e-05
7.61178e-05
7.5761e-05
7.56452e-05
7.5645e-05
7.56587e-05
7.56202e-05
7.55053e-05
7.53376e-05
7.51913e-05
7.51866e-05
7.54728e-05
7.61873e-05
7.73361e-05
6.32265e-05
2.33588e-05
1.03865e-05
6.22179e-06
4.83198e-06
4.49827e-06
4.52676e-06
5.25069e-06
6.78031e-07
2.82767e-09
2.30208e-09
5.9188e-07
1.33671e-05
1.02501e-05
1.03162e-05
1.08258e-05
1.306e-05
1.85495e-05
3.25985e-05
6.06241e-05
7.82144e-05
7.70045e-05
7.62224e-05
7.58228e-05
7.56801e-05
7.56643e-05
7.56671e-05
7.56175e-05
7.54923e-05
7.53169e-05
7.51663e-05
7.51561e-05
7.54288e-05
7.60885e-05
7.70424e-05
5.98173e-05
2.28463e-05
1.07195e-05
6.81558e-06
5.17766e-06
4.46688e-06
4.41333e-06
5.43573e-06
6.74475e-07
2.7873e-09
2.28469e-09
5.86816e-07
1.39721e-05
1.03764e-05
1.09562e-05
1.23769e-05
1.54863e-05
2.0946e-05
3.38615e-05
6.1556e-05
7.84569e-05
7.70918e-05
7.62538e-05
7.58381e-05
7.56904e-05
7.5673e-05
7.56761e-05
7.56283e-05
7.55032e-05
7.53214e-05
7.51516e-05
7.51041e-05
7.53206e-05
7.59293e-05
7.69498e-05
6.04313e-05
2.25608e-05
1.05158e-05
6.78063e-06
5.08408e-06
4.28062e-06
4.32943e-06
5.85181e-06
6.8276e-07
2.82338e-09
2.28357e-09
5.85812e-07
1.40245e-05
1.06012e-05
8.83927e-06
9.8829e-06
1.2582e-05
1.81022e-05
3.19604e-05
5.99537e-05
7.82333e-05
7.69819e-05
7.61723e-05
7.57551e-05
7.56053e-05
7.55859e-05
7.55842e-05
7.55303e-05
7.53989e-05
7.52112e-05
7.50458e-05
7.50284e-05
7.53315e-05
7.61744e-05
7.7835e-05
6.26646e-05
2.49819e-05
1.267e-05
6.73562e-06
4.97781e-06
4.48132e-06
4.5207e-06
5.64421e-06
6.95942e-07
2.86001e-09
2.28842e-09
5.85727e-07
1.38468e-05
9.97969e-06
9.17382e-06
9.93483e-06
1.27346e-05
1.86924e-05
3.32295e-05
6.14112e-05
7.80776e-05
7.6911e-05
7.61759e-05
7.58203e-05
7.5703e-05
7.56974e-05
7.57042e-05
7.56609e-05
7.55434e-05
7.53714e-05
7.5222e-05
7.52086e-05
7.5518e-05
7.63983e-05
7.81995e-05
6.28402e-05
2.5007e-05
1.32427e-05
8.50773e-06
5.50745e-06
4.48865e-06
4.411e-06
5.42214e-06
6.79214e-07
2.81399e-09
2.29567e-09
5.89083e-07
1.38089e-05
1.02282e-05
9.19483e-06
1.0007e-05
1.25831e-05
1.87283e-05
3.38988e-05
6.20121e-05
7.79558e-05
7.68723e-05
7.61652e-05
7.58108e-05
7.56933e-05
7.56914e-05
7.5702e-05
7.56583e-05
7.55365e-05
7.53659e-05
7.5221e-05
7.52221e-05
7.55319e-05
7.63311e-05
7.77864e-05
5.85964e-05
2.2942e-05
1.03545e-05
6.80496e-06
5.15327e-06
4.38137e-06
4.38426e-06
5.62259e-06
6.80188e-07
2.83676e-09
2.30087e-09
5.90426e-07
1.4065e-05
1.06494e-05
9.26358e-06
9.92463e-06
1.24092e-05
1.87442e-05
3.35516e-05
6.2057e-05
7.77481e-05
7.67526e-05
7.61012e-05
7.57798e-05
7.56804e-05
7.56871e-05
7.57022e-05
7.56608e-05
7.5541e-05
7.53678e-05
7.52154e-05
7.52069e-05
7.55209e-05
7.63878e-05
7.81e-05
6.02338e-05
2.42669e-05
1.25269e-05
6.78551e-06
5.08461e-06
4.40159e-06
4.39345e-06
5.58082e-06
6.81431e-07
2.83756e-09
2.2864e-09
5.86991e-07
1.38482e-05
1.03835e-05
9.0667e-06
9.8183e-06
1.2888e-05
2.03459e-05
3.37991e-05
6.28974e-05
7.79789e-05
7.68022e-05
7.60692e-05
7.56962e-05
7.55581e-05
7.55375e-05
7.55347e-05
7.5483e-05
7.53589e-05
7.51856e-05
7.50348e-05
7.50289e-05
7.5352e-05
7.62598e-05
7.81211e-05
6.07017e-05
2.46068e-05
1.34343e-05
8.44294e-06
5.29385e-06
4.5503e-06
4.57815e-06
5.77441e-06
6.87605e-07
2.82241e-09
2.29814e-09
5.91375e-07
1.42712e-05
1.08502e-05
9.20518e-06
1.00235e-05
1.27793e-05
1.8752e-05
3.29235e-05
6.19938e-05
7.75987e-05
7.67539e-05
7.6108e-05
7.57699e-05
7.56565e-05
7.56529e-05
7.56617e-05
7.5617e-05
7.54962e-05
7.5321e-05
7.51612e-05
7.51311e-05
7.53737e-05
7.60001e-05
7.69307e-05
5.64589e-05
2.10879e-05
1.00239e-05
6.57094e-06
5.05999e-06
4.51821e-06
4.44574e-06
5.12397e-06
6.83415e-07
2.83514e-09
2.29837e-09
5.90814e-07
1.43597e-05
1.0581e-05
9.34438e-06
1.01283e-05
1.26843e-05
1.96971e-05
3.36749e-05
6.23861e-05
7.7714e-05
7.67911e-05
7.61224e-05
7.57846e-05
7.56758e-05
7.56804e-05
7.57014e-05
7.56622e-05
7.55415e-05
7.53724e-05
7.52438e-05
7.52869e-05
7.56958e-05
7.66939e-05
7.84122e-05
5.64625e-05
2.2284e-05
1.13064e-05
7.30724e-06
5.2753e-06
4.39953e-06
4.50318e-06
5.54424e-06
6.8255e-07
2.8453e-09
2.28633e-09
5.87328e-07
1.40028e-05
9.99098e-06
9.38057e-06
1.03247e-05
1.32456e-05
2.05617e-05
3.50191e-05
6.42512e-05
7.79948e-05
7.68313e-05
7.611e-05
7.57656e-05
7.56696e-05
7.56853e-05
7.57023e-05
7.5662e-05
7.5546e-05
7.5375e-05
7.52286e-05
7.52338e-05
7.55797e-05
7.65256e-05
7.84184e-05
5.60773e-05
2.30952e-05
1.24891e-05
7.03595e-06
5.21193e-06
4.5619e-06
4.42264e-06
5.12356e-06
6.72076e-07
2.82824e-09
2.29102e-09
5.86189e-07
1.34038e-05
9.91945e-06
9.34141e-06
1.06107e-05
1.31988e-05
1.87066e-05
3.35689e-05
6.37366e-05
7.76203e-05
7.67511e-05
7.61002e-05
7.57644e-05
7.56536e-05
7.56516e-05
7.56514e-05
7.56055e-05
7.54857e-05
7.53155e-05
7.51683e-05
7.51721e-05
7.55155e-05
7.64441e-05
7.8288e-05
5.66888e-05
2.28368e-05
1.22889e-05
6.96932e-06
5.12192e-06
4.39535e-06
4.50357e-06
5.35339e-06
6.72227e-07
2.81039e-09
2.29641e-09
5.88765e-07
1.4289e-05
1.01148e-05
9.10181e-06
9.95161e-06
1.30287e-05
1.93769e-05
3.42292e-05
6.48757e-05
7.77987e-05
7.68189e-05
7.6135e-05
7.57792e-05
7.56528e-05
7.56416e-05
7.56446e-05
7.5595e-05
7.54765e-05
7.53176e-05
7.51958e-05
7.52155e-05
7.55263e-05
7.6298e-05
7.76871e-05
5.58441e-05
2.16986e-05
9.80733e-06
6.16821e-06
4.90463e-06
4.62699e-06
4.61369e-06
5.25615e-06
6.70718e-07
2.79303e-09
2.27839e-09
5.82695e-07
1.41442e-05
1.00138e-05
9.19084e-06
1.00959e-05
1.28659e-05
1.96526e-05
3.44352e-05
6.40889e-05
7.75479e-05
7.67208e-05
7.60885e-05
7.57502e-05
7.56298e-05
7.562e-05
7.56225e-05
7.55744e-05
7.54598e-05
7.53088e-05
7.51985e-05
7.52522e-05
7.56245e-05
7.64416e-05
7.76355e-05
5.35428e-05
2.05347e-05
1.01589e-05
6.66075e-06
5.16192e-06
4.34062e-06
4.32284e-06
5.55955e-06
6.78808e-07
2.81755e-09
2.27926e-09
5.85074e-07
1.40611e-05
1.03348e-05
9.14781e-06
9.92635e-06
1.29609e-05
1.9751e-05
3.47763e-05
6.55052e-05
7.78211e-05
7.68289e-05
7.61236e-05
7.57519e-05
7.56184e-05
7.56052e-05
7.56064e-05
7.55558e-05
7.54368e-05
7.52787e-05
7.51574e-05
7.51914e-05
7.55461e-05
7.64211e-05
7.80238e-05
5.30763e-05
2.09583e-05
9.69798e-06
6.50966e-06
5.22886e-06
4.5647e-06
4.5049e-06
5.19799e-06
6.78485e-07
2.83395e-09
2.26733e-09
5.84516e-07
1.42215e-05
1.06958e-05
9.32064e-06
1.01737e-05
1.25669e-05
1.94594e-05
3.50243e-05
6.53699e-05
7.75802e-05
7.66999e-05
7.60417e-05
7.56888e-05
7.55609e-05
7.55566e-05
7.55659e-05
7.55205e-05
7.54047e-05
7.52461e-05
7.51169e-05
7.51299e-05
7.54371e-05
7.62203e-05
7.76584e-05
5.23124e-05
2.08652e-05
9.81147e-06
6.44087e-06
5.05958e-06
4.52548e-06
4.53551e-06
5.33421e-06
6.75627e-07
2.82291e-09
2.29443e-09
5.91897e-07
1.46348e-05
1.09714e-05
9.08067e-06
1.00759e-05
1.30937e-05
2.11253e-05
3.71306e-05
6.75435e-05
7.78416e-05
7.67407e-05
7.60397e-05
7.56867e-05
7.55641e-05
7.55526e-05
7.55557e-05
7.55097e-05
7.53971e-05
7.52462e-05
7.51297e-05
7.51601e-05
7.54862e-05
7.62438e-05
7.74725e-05
5.08307e-05
1.8994e-05
9.39228e-06
6.19627e-06
5.00785e-06
4.7448e-06
4.69555e-06
5.5461e-06
6.80423e-07
2.81481e-09
2.29424e-09
5.9087e-07
1.41882e-05
1.06445e-05
9.02663e-06
1.00185e-05
1.31664e-05
2.10058e-05
3.69459e-05
6.77848e-05
7.80927e-05
7.6861e-05
7.60711e-05
7.5651e-05
7.54777e-05
7.54323e-05
7.54155e-05
7.53656e-05
7.52665e-05
7.51409e-05
7.5068e-05
7.51832e-05
7.56734e-05
7.67284e-05
7.8394e-05
5.0445e-05
2.0176e-05
1.04784e-05
6.67893e-06
5.1791e-06
4.53852e-06
4.52743e-06
5.80034e-06
6.91505e-07
2.86178e-09
2.29698e-09
5.91231e-07
1.43574e-05
1.104e-05
9.16559e-06
1.00687e-05
1.29364e-05
1.93343e-05
3.49382e-05
6.65089e-05
7.7764e-05
7.67281e-05
7.6023e-05
7.56619e-05
7.5541e-05
7.55306e-05
7.55302e-05
7.54787e-05
7.53746e-05
7.52281e-05
7.51104e-05
7.51392e-05
7.5458e-05
7.61762e-05
7.72025e-05
4.9829e-05
1.92889e-05
9.77291e-06
6.58741e-06
5.18232e-06
4.51526e-06
4.58245e-06
5.3635e-06
6.81238e-07
2.83428e-09
2.29785e-09
5.90026e-07
1.44659e-05
1.08597e-05
9.25936e-06
1.03193e-05
1.3257e-05
2.0239e-05
3.59817e-05
6.66818e-05
7.76659e-05
7.67199e-05
7.60357e-05
7.56836e-05
7.55592e-05
7.55531e-05
7.55623e-05
7.55131e-05
7.53909e-05
7.5232e-05
7.51119e-05
7.51479e-05
7.55027e-05
7.63631e-05
7.79183e-05
5.13231e-05
2.01447e-05
9.36113e-06
6.1054e-06
4.97987e-06
4.70781e-06
4.61141e-06
5.7801e-06
6.86928e-07
2.83413e-09
2.2998e-09
5.892e-07
1.42336e-05
1.10006e-05
9.26032e-06
1.05327e-05
1.36681e-05
2.07224e-05
3.70301e-05
6.68227e-05
7.77299e-05
7.67557e-05
7.60511e-05
7.56821e-05
7.55541e-05
7.55477e-05
7.55557e-05
7.55075e-05
7.53903e-05
7.52394e-05
7.51396e-05
7.52268e-05
7.56958e-05
7.67601e-05
7.8503e-05
4.86772e-05
1.97099e-05
1.03236e-05
6.60806e-06
5.16342e-06
4.56931e-06
4.60798e-06
5.78873e-06
7.0702e-07
2.92572e-09
2.28147e-09
5.87983e-07
1.49935e-05
1.0757e-05
9.22566e-06
1.03641e-05
1.37709e-05
2.08259e-05
3.71864e-05
6.6752e-05
7.7656e-05
7.67105e-05
7.60144e-05
7.56443e-05
7.5506e-05
7.54815e-05
7.54722e-05
7.54159e-05
7.52971e-05
7.51468e-05
7.50466e-05
7.51349e-05
7.56167e-05
7.67347e-05
7.86487e-05
5.01305e-05
2.03195e-05
1.11986e-05
7.5253e-06
5.47375e-06
4.71121e-06
4.65848e-06
5.58758e-06
7.0401e-07
2.9213e-09
2.24948e-09
5.76122e-07
1.42569e-05
1.00433e-05
8.94536e-06
1.02177e-05
1.46511e-05
2.08779e-05
3.68353e-05
6.66787e-05
7.75249e-05
7.66071e-05
7.59396e-05
7.56e-05
7.54869e-05
7.54769e-05
7.54774e-05
7.54296e-05
7.53177e-05
7.51785e-05
7.50946e-05
7.51952e-05
7.56487e-05
7.66096e-05
7.80531e-05
4.86504e-05
1.88518e-05
1.00207e-05
7.02073e-06
5.4635e-06
4.86088e-06
4.93052e-06
5.6837e-06
6.84844e-07
2.85419e-09
2.26752e-09
5.82939e-07
1.41309e-05
1.07707e-05
9.23265e-06
1.04922e-05
1.44458e-05
2.06254e-05
3.75988e-05
6.87785e-05
7.77498e-05
7.66749e-05
7.59662e-05
7.56045e-05
7.54836e-05
7.5478e-05
7.5483e-05
7.54366e-05
7.53241e-05
7.51777e-05
7.50743e-05
7.51318e-05
7.55215e-05
7.63932e-05
7.77203e-05
4.6265e-05
1.83378e-05
9.46284e-06
6.61623e-06
5.3991e-06
4.80066e-06
4.68642e-06
5.58252e-06
6.98767e-07
2.877e-09
2.25492e-09
5.80126e-07
1.40364e-05
1.01165e-05
9.33455e-06
1.18298e-05
1.48463e-05
2.07494e-05
3.69625e-05
6.96099e-05
7.76785e-05
7.66267e-05
7.59095e-05
7.55385e-05
7.54129e-05
7.54029e-05
7.54061e-05
7.53623e-05
7.5259e-05
7.51308e-05
7.50581e-05
7.51689e-05
7.56412e-05
7.66704e-05
7.83398e-05
4.77047e-05
1.93091e-05
1.03354e-05
6.80263e-06
5.45234e-06
4.73108e-06
4.52028e-06
5.52921e-06
7.01781e-07
2.90101e-09
2.25782e-09
5.80887e-07
1.42157e-05
1.07642e-05
9.1707e-06
9.7126e-06
1.2649e-05
2.01625e-05
3.78982e-05
6.94278e-05
7.75459e-05
7.65385e-05
7.58648e-05
7.55186e-05
7.5396e-05
7.53846e-05
7.53862e-05
7.53394e-05
7.52317e-05
7.50962e-05
7.50087e-05
7.50778e-05
7.54383e-05
7.61982e-05
7.73552e-05
4.7181e-05
1.79235e-05
9.24198e-06
6.35072e-06
4.9966e-06
4.77674e-06
4.96567e-06
5.86218e-06
7.00626e-07
2.88498e-09
2.2539e-09
5.78796e-07
1.44477e-05
1.04524e-05
9.26575e-06
1.02819e-05
1.32451e-05
2.04288e-05
3.7109e-05
6.951e-05
7.75646e-05
7.65556e-05
7.58658e-05
7.55106e-05
7.53843e-05
7.53713e-05
7.53728e-05
7.5327e-05
7.52203e-05
7.50849e-05
7.49957e-05
7.50576e-05
7.54014e-05
7.6119e-05
7.71336e-05
4.51278e-05
1.74258e-05
8.74866e-06
6.11166e-06
5.33738e-06
4.87114e-06
4.65263e-06
5.6461e-06
6.96755e-07
2.8904e-09
2.27007e-09
5.81973e-07
1.41925e-05
9.78213e-06
9.19661e-06
1.03059e-05
1.34747e-05
2.11022e-05
3.85373e-05
6.67947e-05
7.75413e-05
7.65585e-05
7.58605e-05
7.54938e-05
7.53566e-05
7.5332e-05
7.53265e-05
7.52814e-05
7.51834e-05
7.50666e-05
7.49996e-05
7.50851e-05
7.54623e-05
7.62538e-05
7.74591e-05
4.61075e-05
1.77584e-05
9.1054e-06
6.25815e-06
5.24903e-06
4.77333e-06
4.57098e-06
5.68979e-06
7.03588e-07
2.91948e-09
2.28111e-09
5.8887e-07
1.44595e-05
1.05259e-05
9.2244e-06
1.04962e-05
1.39632e-05
2.14034e-05
3.83858e-05
6.66492e-05
7.7454e-05
7.65117e-05
7.58383e-05
7.54807e-05
7.53457e-05
7.53219e-05
7.53153e-05
7.52663e-05
7.51623e-05
7.50391e-05
7.4974e-05
7.50941e-05
7.55547e-05
7.64588e-05
7.76904e-05
4.52255e-05
1.803e-05
9.50086e-06
6.44363e-06
4.99937e-06
4.6356e-06
4.94911e-06
5.84924e-06
6.97162e-07
2.89705e-09
2.26828e-09
5.84803e-07
1.44241e-05
1.11726e-05
1.05312e-05
1.17509e-05
1.41292e-05
2.24457e-05
3.88099e-05
7.03653e-05
7.77601e-05
7.65719e-05
7.58368e-05
7.54648e-05
7.53278e-05
7.5303e-05
7.52967e-05
7.52513e-05
7.51554e-05
7.50444e-05
7.49996e-05
7.51295e-05
7.55856e-05
7.64806e-05
7.77042e-05
4.48364e-05
1.77786e-05
9.38468e-06
6.44917e-06
5.31596e-06
4.8576e-06
4.85706e-06
5.73103e-06
7.0074e-07
2.91898e-09
2.26015e-09
5.79096e-07
1.43482e-05
9.87677e-06
8.84774e-06
9.92444e-06
1.34572e-05
2.07819e-05
3.77591e-05
6.64713e-05
7.73469e-05
7.64687e-05
7.58018e-05
7.54322e-05
7.52826e-05
7.52621e-05
7.52633e-05
7.52265e-05
7.51391e-05
7.50323e-05
7.49783e-05
7.50854e-05
7.54895e-05
7.63071e-05
7.75484e-05
4.43781e-05
1.67954e-05
8.66065e-06
6.20509e-06
5.36889e-06
4.97631e-06
4.67844e-06
5.81328e-06
7.1918e-07
2.97472e-09
2.26537e-09
5.79541e-07
1.3897e-05
9.7373e-06
8.91792e-06
9.99509e-06
1.31814e-05
2.09149e-05
3.80672e-05
6.64137e-05
7.73424e-05
7.64632e-05
7.57937e-05
7.54283e-05
7.52888e-05
7.52659e-05
7.52654e-05
7.52261e-05
7.51331e-05
7.50224e-05
7.49763e-05
7.51028e-05
7.55224e-05
7.63132e-05
7.7367e-05
4.33143e-05
1.73186e-05
9.04404e-06
6.38066e-06
5.31333e-06
4.69671e-06
4.78848e-06
5.9074e-06
7.12023e-07
2.9788e-09
2.25496e-09
5.79659e-07
1.45334e-05
1.03691e-05
9.63022e-06
1.16668e-05
1.50306e-05
2.29252e-05
4.00539e-05
7.27356e-05
7.77463e-05
7.64942e-05
7.57093e-05
7.5302e-05
7.51477e-05
7.51226e-05
7.513e-05
7.51088e-05
7.50428e-05
7.49658e-05
7.4957e-05
7.5136e-05
7.5653e-05
7.66142e-05
7.79047e-05
4.42582e-05
1.76858e-05
9.41346e-06
6.49721e-06
5.27909e-06
4.86566e-06
4.86185e-06
5.77597e-06
7.06135e-07
2.92812e-09
2.27728e-09
5.88164e-07
1.41804e-05
1.11351e-05
1.07817e-05
1.20575e-05
1.53925e-05
2.29325e-05
3.95863e-05
7.19606e-05
7.76639e-05
7.64601e-05
7.57156e-05
7.5343e-05
7.52088e-05
7.51892e-05
7.51877e-05
7.51431e-05
7.50456e-05
7.49383e-05
7.49008e-05
7.50374e-05
7.54856e-05
7.63706e-05
7.77127e-05
4.26176e-05
1.63356e-05
8.58055e-06
6.15282e-06
5.31246e-06
5.07718e-06
5.08767e-06
5.77099e-06
7.00522e-07
2.89767e-09
2.29841e-09
5.96334e-07
1.48747e-05
1.13984e-05
1.12225e-05
1.28727e-05
1.60052e-05
2.30467e-05
3.99197e-05
7.14366e-05
7.78265e-05
7.6541e-05
7.57576e-05
7.53605e-05
7.521e-05
7.51795e-05
7.51706e-05
7.51221e-05
7.5025e-05
7.49158e-05
7.48749e-05
7.50102e-05
7.54631e-05
7.63637e-05
7.77232e-05
4.29391e-05
1.6847e-05
8.94178e-06
6.39313e-06
5.38566e-06
4.92852e-06
4.82526e-06
5.51676e-06
6.88013e-07
2.88737e-09
2.30369e-09
5.95641e-07
1.49595e-05
1.0812e-05
9.14209e-06
1.14097e-05
1.50149e-05
2.26358e-05
4.00882e-05
7.24356e-05
7.77325e-05
7.64987e-05
7.57331e-05
7.53377e-05
7.51817e-05
7.51466e-05
7.51357e-05
7.50876e-05
7.49918e-05
7.48828e-05
7.4838e-05
7.49769e-05
7.54363e-05
7.63484e-05
7.7685e-05
4.38506e-05
1.7502e-05
9.11629e-06
6.34513e-06
5.36581e-06
4.85985e-06
4.85972e-06
6.23861e-06
7.31384e-07
3.0238e-09
2.32094e-09
5.97675e-07
1.51635e-05
1.00311e-05
9.05046e-06
1.00916e-05
1.32891e-05
2.12012e-05
3.90292e-05
7.22048e-05
7.74448e-05
7.63865e-05
7.56763e-05
7.53076e-05
7.51719e-05
7.51465e-05
7.51395e-05
7.50935e-05
7.50012e-05
7.48992e-05
7.48636e-05
7.50055e-05
7.54773e-05
7.64272e-05
7.78506e-05
4.21729e-05
1.6904e-05
8.74686e-06
6.23522e-06
5.43556e-06
4.98859e-06
5.01678e-06
5.87284e-06
7.14525e-07
2.98203e-09
2.30726e-09
5.96339e-07
1.41401e-05
1.09062e-05
9.84712e-06
1.06285e-05
1.40392e-05
2.16257e-05
3.90433e-05
7.10323e-05
7.72583e-05
7.63228e-05
7.56575e-05
7.5297e-05
7.5154e-05
7.51202e-05
7.51067e-05
7.50583e-05
7.49684e-05
7.48742e-05
7.48521e-05
7.50254e-05
7.55895e-05
7.68245e-05
7.91483e-05
4.55898e-05
1.9905e-05
1.16633e-05
6.87843e-06
5.33333e-06
5.00379e-06
5.03283e-06
6.05914e-06
7.31515e-07
3.00885e-09
2.28802e-09
5.89546e-07
1.46187e-05
1.02871e-05
1.01182e-05
1.12045e-05
1.41736e-05
2.11929e-05
3.84081e-05
6.64704e-05
7.72413e-05
7.63333e-05
7.56587e-05
7.5289e-05
7.51425e-05
7.51086e-05
7.50963e-05
7.50474e-05
7.49556e-05
7.48629e-05
7.48444e-05
7.50119e-05
7.55293e-05
7.65808e-05
7.83789e-05
4.41602e-05
1.95799e-05
1.1739e-05
6.81066e-06
5.44865e-06
4.8747e-06
4.876e-06
5.8826e-06
7.29882e-07
3.02886e-09
2.27582e-09
5.83902e-07
1.42018e-05
1.05788e-05
1.09505e-05
1.18283e-05
1.40033e-05
2.25688e-05
4.02155e-05
7.13099e-05
7.74305e-05
7.62737e-05
7.55443e-05
7.51578e-05
7.50035e-05
7.49729e-05
7.49773e-05
7.49622e-05
7.49174e-05
7.48525e-05
7.48356e-05
7.49739e-05
7.53972e-05
7.61838e-05
7.72079e-05
4.06434e-05
1.62273e-05
8.86449e-06
6.49329e-06
5.52801e-06
5.05742e-06
5.00251e-06
5.77915e-06
7.26047e-07
3.00596e-09
2.28014e-09
5.84881e-07
1.43694e-05
1.0593e-05
9.93621e-06
1.07238e-05
1.40445e-05
2.14744e-05
3.94174e-05
7.31306e-05
7.75159e-05
7.63396e-05
7.55824e-05
7.51824e-05
7.5022e-05
7.49854e-05
7.49818e-05
7.49571e-05
7.49041e-05
7.48418e-05
7.48332e-05
7.49958e-05
7.54815e-05
7.6462e-05
7.8149e-05
4.32947e-05
1.79491e-05
8.85729e-06
6.25288e-06
5.39103e-06
5.15216e-06
5.24373e-06
5.76317e-06
7.23141e-07
3.00268e-09
2.272e-09
5.82054e-07
1.42536e-05
9.92358e-06
9.21164e-06
1.20184e-05
1.58446e-05
2.34454e-05
4.06516e-05
7.31129e-05
7.78389e-05
7.64562e-05
7.56236e-05
7.5206e-05
7.50483e-05
7.50145e-05
7.50095e-05
7.49791e-05
7.49211e-05
7.48603e-05
7.48661e-05
7.50623e-05
7.55926e-05
7.65676e-05
7.79862e-05
4.16901e-05
1.65119e-05
8.89133e-06
6.49595e-06
5.62736e-06
5.18984e-06
4.89926e-06
5.49413e-06
7.19122e-07
2.99356e-09
2.27324e-09
5.83629e-07
1.41886e-05
9.76837e-06
9.32437e-06
1.19615e-05
1.50499e-05
2.16008e-05
3.96105e-05
7.24177e-05
7.76084e-05
7.6411e-05
7.56548e-05
7.52707e-05
7.51271e-05
7.50936e-05
7.5078e-05
7.50283e-05
7.49422e-05
7.48572e-05
7.48503e-05
7.50314e-05
7.55206e-05
7.63728e-05
7.74152e-05
4.03747e-05
1.63384e-05
8.91359e-06
6.46301e-06
5.56491e-06
5.06723e-06
5.20815e-06
5.97334e-06
7.08587e-07
2.95934e-09
2.27554e-09
5.82678e-07
1.38932e-05
9.72319e-06
8.71016e-06
9.62859e-06
1.30496e-05
2.10579e-05
3.85226e-05
7.18724e-05
7.73771e-05
7.63565e-05
7.56734e-05
7.53204e-05
7.51903e-05
7.51706e-05
7.51708e-05
7.51368e-05
7.50572e-05
7.4974e-05
7.4971e-05
7.51666e-05
7.57035e-05
7.66588e-05
7.79946e-05
4.15782e-05
1.68971e-05
9.10634e-06
6.42943e-06
5.57803e-06
5.38863e-06
5.3548e-06
6.02908e-06
7.24125e-07
3.00537e-09
2.27531e-09
5.82731e-07
1.43576e-05
1.01687e-05
8.82045e-06
9.7066e-06
1.31781e-05
2.14795e-05
3.92828e-05
7.13816e-05
7.71821e-05
7.62825e-05
7.5643e-05
7.53041e-05
7.51815e-05
7.5165e-05
7.51652e-05
7.51282e-05
7.50523e-05
7.49712e-05
7.49546e-05
7.51169e-05
7.56001e-05
7.65297e-05
7.79408e-05
3.89998e-05
1.58267e-05
8.69943e-06
6.5653e-06
5.77415e-06
5.27834e-06
5.15623e-06
5.79522e-06
7.35213e-07
3.05054e-09
2.2724e-09
5.84622e-07
1.42871e-05
1.07834e-05
8.69325e-06
9.74397e-06
1.38021e-05
2.13343e-05
3.9213e-05
7.34542e-05
7.74153e-05
7.63679e-05
7.56637e-05
7.52977e-05
7.51584e-05
7.5131e-05
7.51257e-05
7.50837e-05
7.50015e-05
7.49183e-05