/*--------------------------------*- C++ -*----------------------------------*\
  =========                 |
  \\      /  F ield         | OpenFOAM: The Open Source CFD Toolbox
   \\    /   O peration     | Website:  https://openfoam.org
    \\  /    A nd           | Version:  13
     \\/     M anipulation  |
\*---------------------------------------------------------------------------*/
FoamFile
{
    format      ascii;
    class       volScalarField;
    location    "5";
    object      nut;
}
// * * * * * * * * * * * * * * * * * * * * * * * * * * * * * * * * * * * * * //

dimensions      [0 2 -1 0 0 0 0];

internalField   nonuniform List<scalar> 
78750
(
6.11183e-11
1.22738e-08
7.07021e-07
1.84667e-06
2.95249e-06
4.24148e-06
5.29969e-06
5.35391e-06
5.46901e-06
6.56332e-06
6.50335e-06
6.40699e-06
6.14032e-06
5.8028e-06
5.42779e-06
5.02952e-06
4.61821e-06
4.20184e-06
3.79153e-06
3.40658e-06
3.05486e-06
2.73874e-06
2.47141e-06
2.26006e-06
2.09791e-06
1.97074e-06
1.87242e-06
1.80278e-06
1.72972e-06
1.69469e-06
1.5466e-06
1.3588e-06
1.17203e-06
2.37773e-07
1.65911e-09
7.64123e-10
1.94398e-07
6.97625e-06
9.60179e-06
7.99651e-06
7.43751e-06
9.93453e-06
2.4502e-05
5.4527e-05
5.35217e-05
5.20617e-05
4.00792e-05
3.37983e-05
3.1471e-05
3.06585e-05
3.0524e-05
3.09193e-05
3.15632e-05
3.25681e-05
3.3604e-05
3.47584e-05
3.58096e-05
3.73392e-05
4.05117e-05
4.74571e-05
5.32944e-05
5.22641e-05
4.15238e-05
2.12238e-05
1.23001e-05
7.69166e-06
5.06808e-06
3.56799e-06
5.47493e-07
3.06191e-09
1.27989e-09
3.30856e-07
9.53043e-06
8.20145e-06
7.35768e-06
7.26443e-06
9.04638e-06
1.60036e-05
3.62559e-05
5.49935e-05
5.39577e-05
5.33278e-05
5.29747e-05
5.28202e-05
5.28061e-05
5.28885e-05
5.30419e-05
5.32357e-05
5.34355e-05
5.36039e-05
5.37043e-05
5.37069e-05
5.36138e-05
5.34213e-05
5.33145e-05
5.34976e-05
4.58843e-05
2.83674e-05
1.513e-05
8.16305e-06
5.11209e-06
3.70444e-06
3.45601e-06
5.98503e-07
2.96394e-09
1.31608e-09
3.40386e-07
9.97606e-06
8.14477e-06
7.7368e-06
7.36969e-06
9.66831e-06
1.41992e-05
2.67674e-05
5.51521e-05
5.41797e-05
5.31823e-05
5.25666e-05
5.22643e-05
5.21912e-05
5.22555e-05
5.24039e-05
5.25829e-05
5.27446e-05
5.28547e-05
5.28945e-05
5.28481e-05
5.27314e-05
5.26885e-05
5.28343e-05
5.34306e-05
3.43733e-05
2.11902e-05
1.14496e-05
6.48704e-06
4.28622e-06
3.26437e-06
3.11283e-06
5.88021e-07
2.72689e-09
1.39711e-09
3.5902e-07
9.36074e-06
7.45804e-06
6.45108e-06
7.00327e-06
8.53242e-06
1.27773e-05
2.51925e-05
5.19385e-05
5.41636e-05
5.3278e-05
5.27072e-05
5.24322e-05
5.23807e-05
5.24447e-05
5.25824e-05
5.27362e-05
5.28585e-05
5.29212e-05
5.28921e-05
5.27715e-05
5.26515e-05
5.26585e-05
5.28987e-05
5.35767e-05
3.07143e-05
1.63184e-05
9.55718e-06
5.35519e-06
3.50255e-06
2.84411e-06
2.80847e-06
5.67934e-07
2.52848e-09
1.43541e-09
3.67956e-07
9.54327e-06
7.19446e-06
6.49921e-06
6.96675e-06
8.42831e-06
1.23035e-05
2.30848e-05
4.7006e-05
5.42834e-05
5.32998e-05
5.2661e-05
5.2328e-05
5.2228e-05
5.22609e-05
5.23482e-05
5.24413e-05
5.25016e-05
5.25084e-05
5.24517e-05
5.23563e-05
5.23444e-05
5.25186e-05
5.30733e-05
5.40292e-05
2.56344e-05
1.41089e-05
8.38856e-06
4.8022e-06
3.31525e-06
2.92146e-06
3.18588e-06
5.50902e-07
2.40432e-09
1.46384e-09
3.76077e-07
9.59875e-06
7.58217e-06
6.69019e-06
7.33263e-06
8.83544e-06
1.32568e-05
2.28068e-05
4.58048e-05
5.44766e-05
5.33636e-05
5.2674e-05
5.23236e-05
5.2214e-05
5.22393e-05
5.23177e-05
5.24046e-05
5.24588e-05
5.24427e-05
5.23585e-05
5.22702e-05
5.22698e-05
5.24568e-05
5.3017e-05
5.40421e-05
2.5066e-05
1.2569e-05
7.81335e-06
4.66498e-06
3.22145e-06
2.69569e-06
2.8394e-06
5.22339e-07
2.23607e-09
1.50343e-09
3.85894e-07
9.57399e-06
7.0903e-06
6.71264e-06
8.1272e-06
9.90833e-06
1.35014e-05
2.22281e-05
4.33019e-05
5.44576e-05
5.33123e-05
5.26182e-05
5.22646e-05
5.21423e-05
5.21505e-05
5.22144e-05
5.22769e-05
5.23002e-05
5.22592e-05
5.2165e-05
5.20956e-05
5.21524e-05
5.24343e-05
5.31295e-05
5.42991e-05
2.6714e-05
1.12783e-05
6.63133e-06
3.93726e-06
2.72607e-06
2.60207e-06
3.62069e-06
5.01931e-07
2.07712e-09
1.5226e-09
3.90305e-07
9.36499e-06
7.09517e-06
6.54472e-06
6.94232e-06
8.59304e-06
1.21155e-05
2.0651e-05
4.0718e-05
5.40525e-05
5.32212e-05
5.26109e-05
5.22643e-05
5.21232e-05
5.21044e-05
5.21337e-05
5.21661e-05
5.21688e-05
5.2126e-05
5.20542e-05
5.2031e-05
5.21439e-05
5.25302e-05
5.33167e-05
5.45313e-05
2.41009e-05
1.01697e-05
5.49345e-06
3.5958e-06
2.89067e-06
2.82147e-06
3.58779e-06
4.98903e-07
2.07521e-09
1.54862e-09
3.97143e-07
9.66922e-06
7.18257e-06
6.45967e-06
6.90635e-06
8.42645e-06
1.18905e-05
2.07704e-05
3.99216e-05
5.44899e-05
5.34869e-05
5.28117e-05
5.24301e-05
5.22541e-05
5.22e-05
5.21945e-05
5.2192e-05
5.21543e-05
5.20749e-05
5.19967e-05
5.19913e-05
5.21566e-05
5.26502e-05
5.36007e-05
5.33001e-05
2.14021e-05
1.09594e-05
6.84243e-06
3.92619e-06
2.97331e-06
2.84105e-06
3.42717e-06
4.91467e-07
2.06412e-09
1.55716e-09
4.00084e-07
9.81723e-06
7.54579e-06
6.57234e-06
7.0743e-06
8.90185e-06
1.25432e-05
2.02931e-05
3.82569e-05
5.44417e-05
5.35656e-05
5.2903e-05
5.25187e-05
5.23428e-05
5.22874e-05
5.22771e-05
5.2264e-05
5.22185e-05
5.21383e-05
5.20699e-05
5.20886e-05
5.2291e-05
5.28024e-05
5.36876e-05
4.91362e-05
1.91471e-05
8.85631e-06
5.32195e-06
3.70455e-06
2.98304e-06
2.87817e-06
3.37848e-06
4.83724e-07
2.04342e-09
1.57483e-09
4.05059e-07
9.69561e-06
7.13312e-06
6.60149e-06
7.26263e-06
9.93881e-06
1.33849e-05
2.09626e-05
3.86961e-05
5.46278e-05
5.35427e-05
5.28658e-05
5.25065e-05
5.23586e-05
5.23241e-05
5.2329e-05
5.23265e-05
5.22847e-05
5.22037e-05
5.21291e-05
5.21393e-05
5.23374e-05
5.28614e-05
5.38029e-05
5.00754e-05
1.96479e-05
8.58655e-06
4.89138e-06
3.39361e-06
3.00033e-06
3.06502e-06
3.65128e-06
4.87872e-07
2.03753e-09
1.58607e-09
4.0753e-07
9.79153e-06
7.42101e-06
6.58028e-06
7.29179e-06
9.89619e-06
1.32682e-05
2.10406e-05
3.82683e-05
5.46556e-05
5.36213e-05
5.29543e-05
5.25986e-05
5.24544e-05
5.24243e-05
5.24261e-05
5.24131e-05
5.23578e-05
5.22648e-05
5.2181e-05
5.2184e-05
5.23851e-05
5.29501e-05
5.40588e-05
5.1616e-05
2.06487e-05
1.0259e-05
6.32035e-06
3.69294e-06
3.00344e-06
2.8502e-06
3.64605e-06
4.90637e-07
2.03874e-09
1.59162e-09
4.0922e-07
9.85333e-06
7.68946e-06
6.70253e-06
7.13013e-06
8.43029e-06
1.17523e-05
1.94361e-05
3.63879e-05
5.42389e-05
5.35021e-05
5.29237e-05
5.25941e-05
5.24582e-05
5.24283e-05
5.24288e-05
5.24127e-05
5.23553e-05
5.2264e-05
5.21873e-05
5.22042e-05
5.24218e-05
5.29717e-05
5.39437e-05
4.81094e-05
1.89106e-05
8.15149e-06
4.87239e-06
3.47912e-06
2.84629e-06
3.0002e-06
4.13693e-06
4.90957e-07
2.02977e-09
1.59752e-09
4.10859e-07
9.59138e-06
7.18617e-06
6.73263e-06
7.23487e-06
8.81678e-06
1.20794e-05
1.9664e-05
3.70718e-05
5.45964e-05
5.36721e-05
5.30115e-05
5.26366e-05
5.24687e-05
5.24179e-05
5.24065e-05
5.23822e-05
5.23202e-05
5.22297e-05
5.21587e-05
5.2187e-05
5.24285e-05
5.30011e-05
5.39963e-05
4.50868e-05
1.77917e-05
7.68252e-06
4.58021e-06
3.56071e-06
3.05379e-06
2.92149e-06
3.62329e-06
4.87738e-07
2.02854e-09
1.60178e-09
4.12488e-07
9.85177e-06
7.28723e-06
6.81438e-06
7.33946e-06
8.85802e-06
1.24953e-05
2.00489e-05
3.65969e-05
5.45513e-05
5.37017e-05
5.30646e-05
5.27046e-05
5.25482e-05
5.25042e-05
5.24912e-05
5.24595e-05
5.23839e-05
5.22788e-05
5.2191e-05
5.22008e-05
5.24184e-05
5.2964e-05
5.39164e-05
4.51748e-05
1.79872e-05
7.94732e-06
4.67075e-06
3.42027e-06
3.00298e-06
2.96358e-06
3.82222e-06
4.92571e-07
2.03956e-09
1.60921e-09
4.13768e-07
9.59365e-06
7.76225e-06
7.00466e-06
7.60716e-06
9.06297e-06
1.21544e-05
1.97381e-05
3.68939e-05
5.44815e-05
5.3717e-05
5.31058e-05
5.27457e-05
5.25776e-05
5.25141e-05
5.24873e-05
5.24472e-05
5.23684e-05
5.22632e-05
5.21796e-05
5.21969e-05
5.2422e-05
5.30069e-05
5.41053e-05
4.58522e-05
1.84271e-05
9.1739e-06
4.84045e-06
3.41612e-06
2.91926e-06
3.07373e-06
3.93258e-06
4.87622e-07
2.02731e-09
1.60627e-09
4.11638e-07
9.74785e-06
7.02501e-06
6.97387e-06
7.79759e-06
9.33699e-06
1.23663e-05
1.9849e-05
3.66835e-05
5.4395e-05
5.36827e-05
5.30918e-05
5.2737e-05
5.25682e-05
5.25058e-05
5.24779e-05
5.24339e-05
5.23523e-05
5.22458e-05
5.21614e-05
5.21737e-05
5.23733e-05
5.28424e-05
5.35233e-05
4.25777e-05
1.63266e-05
7.33116e-06
4.54217e-06
3.41414e-06
2.95338e-06
3.02845e-06
3.70841e-06
4.79784e-07
2.01966e-09
1.59837e-09
4.085e-07
9.63406e-06
7.17439e-06
7.01687e-06
7.64098e-06
9.42696e-06
1.27833e-05
2.05232e-05
3.79645e-05
5.48379e-05
5.3848e-05
5.31564e-05
5.27634e-05
5.25815e-05
5.25166e-05
5.24881e-05
5.24437e-05
5.23627e-05
5.2259e-05
5.218e-05
5.22101e-05
5.24574e-05
5.2999e-05
5.377e-05
4.31931e-05
1.67028e-05
7.79077e-06
4.69177e-06
3.42903e-06
2.96185e-06
2.89694e-06
3.66624e-06
4.82053e-07
2.0109e-09
1.59425e-09
4.08066e-07
9.53914e-06
6.85762e-06
6.8494e-06
7.61264e-06
9.45444e-06
1.30535e-05
2.03735e-05
3.80222e-05
5.48179e-05
5.38288e-05
5.31429e-05
5.27531e-05
5.2568e-05
5.24919e-05
5.24497e-05
5.23936e-05
5.23085e-05
5.22126e-05
5.21576e-05
5.22294e-05
5.2538e-05
5.318e-05
5.40963e-05
4.21542e-05
1.60055e-05
7.55311e-06
4.811e-06
3.61067e-06
3.20619e-06
3.16958e-06
3.79372e-06
4.82048e-07
1.99551e-09
1.60251e-09
4.10934e-07
9.6676e-06
6.97764e-06
6.34945e-06
6.9917e-06
8.96145e-06
1.2729e-05
2.06846e-05
3.74045e-05
5.46806e-05
5.38044e-05
5.31434e-05
5.27598e-05
5.25793e-05
5.25101e-05
5.24752e-05
5.24248e-05
5.23431e-05
5.22397e-05
5.21619e-05
5.21938e-05
5.24352e-05
5.29745e-05
5.37693e-05
4.05974e-05
1.57477e-05
7.43315e-06
4.74719e-06
3.66662e-06
3.08771e-06
3.02139e-06
3.8944e-06
4.90756e-07
2.03395e-09
1.60712e-09
4.12635e-07
9.57009e-06
7.23858e-06
6.38634e-06
6.76782e-06
8.47932e-06
1.21548e-05
2.00211e-05
3.81563e-05
5.45365e-05
5.3707e-05
5.309e-05
5.27264e-05
5.2552e-05
5.24845e-05
5.24525e-05
5.24071e-05
5.23296e-05
5.22369e-05
5.21658e-05
5.21956e-05
5.2449e-05
5.30931e-05
5.43194e-05
4.39598e-05
1.77083e-05
8.96742e-06
4.88029e-06
3.55711e-06
2.9481e-06
2.92001e-06
3.71202e-06
4.86235e-07
2.0273e-09
1.59753e-09
4.10303e-07
9.6452e-06
7.61792e-06
6.50421e-06
6.9765e-06
8.30446e-06
1.16073e-05
2.01533e-05
3.79171e-05
5.43733e-05
5.36823e-05
5.31094e-05
5.27647e-05
5.25984e-05
5.25303e-05
5.24936e-05
5.24386e-05
5.23419e-05
5.22218e-05
5.2136e-05
5.21702e-05
5.24446e-05
5.31124e-05
5.43703e-05
4.35554e-05
1.70903e-05
8.61301e-06
4.57882e-06
3.41251e-06
3.1382e-06
3.14803e-06
3.8457e-06
4.80712e-07
1.98823e-09
1.60158e-09
4.11715e-07
9.98607e-06
7.76133e-06
6.52353e-06
6.96299e-06
8.68707e-06
1.2179e-05
1.96446e-05
3.70196e-05
5.45824e-05
5.37564e-05
5.31361e-05
5.27706e-05
5.25964e-05
5.25308e-05
5.24988e-05
5.24452e-05
5.23585e-05
5.22578e-05
5.2173e-05
5.21974e-05
5.24555e-05
5.30942e-05
5.42971e-05
4.15395e-05
1.67992e-05
8.66953e-06
4.70253e-06
3.47424e-06
3.03348e-06
3.06797e-06
3.88874e-06
4.84579e-07
1.9971e-09
1.61558e-09
4.16232e-07
9.8762e-06
7.72867e-06
6.6687e-06
7.05082e-06
8.51886e-06
1.23274e-05
2.05895e-05
3.84993e-05
5.45055e-05
5.36842e-05
5.30899e-05
5.27487e-05
5.2591e-05
5.25325e-05
5.25041e-05
5.24538e-05
5.23631e-05
5.22551e-05
5.21834e-05
5.22248e-05
5.2501e-05
5.31791e-05
5.44794e-05
4.24104e-05
1.73142e-05
9.33706e-06
5.96749e-06
3.71541e-06
2.96009e-06
2.93868e-06
3.76502e-06
4.84383e-07
2.01641e-09
1.62579e-09
4.19014e-07
1.03039e-05
7.84036e-06
6.91453e-06
7.08089e-06
8.31018e-06
1.21567e-05
2.0671e-05
3.85242e-05
5.42213e-05
5.35586e-05
5.30111e-05
5.26838e-05
5.253e-05
5.24729e-05
5.24455e-05
5.24047e-05
5.23374e-05
5.22497e-05
5.21969e-05
5.2279e-05
5.26271e-05
5.33969e-05
5.4781e-05
4.1981e-05
1.67179e-05
8.6288e-06
4.72551e-06
3.42962e-06
3.16448e-06
3.21615e-06
3.89058e-06
4.82519e-07
2.02341e-09
1.611e-09
4.13551e-07
9.82637e-06
7.5602e-06
6.98689e-06
7.61571e-06
9.20336e-06
1.25876e-05
2.11455e-05
3.91729e-05
5.45475e-05
5.3752e-05
5.31283e-05
5.27581e-05
5.25797e-05
5.25081e-05
5.24692e-05
5.24143e-05
5.23298e-05
5.2232e-05
5.21714e-05
5.22334e-05
5.2531e-05
5.31732e-05
5.42536e-05
3.92109e-05
1.54283e-05
6.97285e-06
4.53944e-06
3.53827e-06
3.04289e-06
3.14161e-06
4.05599e-06
4.87094e-07
2.00584e-09
1.59587e-09
4.09304e-07
9.72611e-06
7.15497e-06
7.24232e-06
7.92434e-06
9.6897e-06
1.33699e-05
2.15695e-05
3.95298e-05
5.47306e-05
5.38364e-05
5.31619e-05
5.27692e-05
5.25809e-05
5.2505e-05
5.2465e-05
5.24112e-05
5.23258e-05
5.22241e-05
5.21566e-05
5.22031e-05
5.24765e-05
5.31088e-05
5.42173e-05
3.9296e-05
1.53343e-05
6.98024e-06
4.42548e-06
3.48603e-06
3.03811e-06
3.02972e-06
3.91619e-06
4.84139e-07
2.00509e-09
1.60114e-09
4.11272e-07
1.01004e-05
7.31854e-06
7.16943e-06
8.29345e-06
1.02583e-05
1.34752e-05
2.09168e-05
3.86002e-05
5.45802e-05
5.37356e-05
5.30919e-05
5.27129e-05
5.25301e-05
5.2456e-05
5.24157e-05
5.23608e-05
5.22747e-05
5.2175e-05
5.21165e-05
5.21899e-05
5.25247e-05
5.3243e-05
5.43669e-05
3.86896e-05
1.50158e-05
7.38148e-06
4.53424e-06
3.37151e-06
3.09004e-06
3.18883e-06
3.76429e-06
4.83677e-07
2.02349e-09
1.60445e-09
4.1228e-07
9.88372e-06
7.68018e-06
6.48351e-06
6.80435e-06
8.48471e-06
1.22655e-05
2.11709e-05
3.93112e-05
5.42765e-05
5.36023e-05
5.3047e-05
5.27161e-05
5.25599e-05
5.25012e-05
5.24748e-05
5.24329e-05
5.23568e-05
5.22662e-05
5.22157e-05
5.23032e-05
5.26606e-05
5.34268e-05
5.46795e-05
3.89527e-05
1.5062e-05
7.65597e-06
4.9352e-06
3.69732e-06
3.2191e-06
3.19846e-06
3.9591e-06
4.84889e-07
2.00646e-09
1.60672e-09
4.12485e-07
1.00332e-05
7.52182e-06
6.35952e-06
6.84713e-06
8.658e-06
1.23202e-05
2.15091e-05
3.98384e-05
5.42536e-05
5.35836e-05
5.30364e-05
5.271e-05
5.25565e-05
5.24993e-05
5.24723e-05
5.24291e-05
5.23513e-05
5.22595e-05
5.22051e-05
5.22723e-05
5.25731e-05
5.31876e-05
5.40564e-05
3.64696e-05
1.39235e-05
6.69248e-06
4.588e-06
3.58103e-06
3.02307e-06
3.07288e-06
4.09552e-06
4.91514e-07
2.03873e-09
1.6033e-09
4.1083e-07
9.70701e-06
7.02472e-06
6.51067e-06
7.10597e-06
9.47261e-06
1.27938e-05
2.17255e-05
4.06958e-05
5.45291e-05
5.36499e-05
5.3043e-05
5.27048e-05
5.25518e-05
5.24958e-05
5.24659e-05
5.24198e-05
5.23425e-05
5.22533e-05
5.22084e-05
5.22972e-05
5.26466e-05
5.33849e-05
5.45464e-05
3.74506e-05
1.46764e-05
7.32415e-06
4.53133e-06
3.53301e-06
3.12672e-06
3.1544e-06
3.94759e-06
4.82665e-07
2.02719e-09
1.59884e-09
4.10273e-07
9.86949e-06
7.61092e-06
6.4054e-06
6.8853e-06
9.06022e-06
1.30463e-05
2.14684e-05
4.02348e-05
5.43018e-05
5.35604e-05
5.298e-05
5.26338e-05
5.24646e-05
5.2394e-05
5.23548e-05
5.23024e-05
5.22222e-05
5.21328e-05
5.20894e-05
5.21866e-05
5.25602e-05
5.3362e-05
5.46819e-05
3.75986e-05
1.48929e-05
7.75711e-06
4.9502e-06
3.60875e-06
3.19749e-06
3.15297e-06
3.78511e-06
4.83509e-07
2.00824e-09
1.60491e-09
4.11021e-07
9.81538e-06
6.93585e-06
6.36699e-06
7.04009e-06
1.01364e-05
1.43594e-05
2.30679e-05
4.1632e-05
5.46974e-05
5.37051e-05
5.30621e-05
5.2708e-05
5.25451e-05
5.24807e-05
5.24487e-05
5.24031e-05
5.23216e-05
5.22275e-05
5.21744e-05
5.22395e-05
5.25345e-05
5.31822e-05
5.42955e-05
3.68969e-05
1.45041e-05
6.74598e-06
4.48846e-06
3.59016e-06
3.19913e-06
3.16566e-06
3.80025e-06
4.8396e-07
2.01794e-09
1.60156e-09
4.10403e-07
1.01848e-05
7.1789e-06
6.34468e-06
6.89734e-06
8.42516e-06
1.27443e-05
2.17996e-05
4.09398e-05
5.43524e-05
5.35915e-05
5.30227e-05
5.26923e-05
5.25406e-05
5.24895e-05
5.24646e-05
5.24204e-05
5.2348e-05
5.2265e-05
5.22328e-05
5.23428e-05
5.27159e-05
5.34385e-05
5.44439e-05
3.51417e-05
1.36593e-05
6.92781e-06
4.66062e-06
3.58135e-06
3.10092e-06
3.19915e-06
4.05494e-06
4.9184e-07
2.05093e-09
1.60058e-09
4.11128e-07
9.84442e-06
7.58137e-06
6.56791e-06
7.03694e-06
8.82611e-06
1.29997e-05
2.21574e-05
4.11498e-05
5.43014e-05
5.35765e-05
5.30126e-05
5.26824e-05
5.25358e-05
5.24807e-05
5.24525e-05
5.24097e-05
5.23368e-05
5.2258e-05
5.22271e-05
5.23346e-05
5.27181e-05
5.35197e-05
5.47749e-05
3.47135e-05
1.3971e-05
7.26764e-06
4.62396e-06
3.55008e-06
3.22614e-06
3.21146e-06
3.97521e-06
4.90418e-07
2.04326e-09
1.60555e-09
4.10953e-07
9.55536e-06
7.42644e-06
6.39593e-06
7.15796e-06
8.94385e-06
1.25722e-05
2.25197e-05
4.20748e-05
5.44537e-05
5.361e-05
5.30203e-05
5.26815e-05
5.25173e-05
5.24554e-05
5.24211e-05
5.23735e-05
5.22985e-05
5.2216e-05
5.2176e-05
5.22727e-05
5.26395e-05
5.3403e-05
5.46005e-05
3.48871e-05
1.37512e-05
7.18116e-06
4.67392e-06
3.61446e-06
3.13801e-06
3.14219e-06
4.01801e-06
4.86892e-07
2.02151e-09
1.60256e-09
4.1139e-07
1.04108e-05
7.73197e-06
6.24248e-06
6.73012e-06
8.90653e-06
1.40736e-05
2.3638e-05
4.30409e-05
5.46892e-05
5.37098e-05
5.30633e-05
5.26997e-05
5.25261e-05
5.24547e-05
5.24174e-05
5.23683e-05
5.2294e-05
5.22127e-05
5.21791e-05
5.22607e-05
5.25488e-05
5.31177e-05
5.39024e-05
3.44193e-05
1.3074e-05
6.35209e-06
4.225e-06
3.405e-06
3.21863e-06
3.32001e-06
3.78261e-06
4.80528e-07
1.99477e-09
1.58925e-09
4.0777e-07
1.00268e-05
7.55214e-06
6.43388e-06
6.82191e-06
8.62774e-06
1.30514e-05
2.30219e-05
4.23185e-05
5.44058e-05
5.35829e-05
5.30031e-05
5.26663e-05
5.25024e-05
5.2435e-05
5.23991e-05
5.23517e-05
5.22806e-05
5.22055e-05
5.21773e-05
5.22796e-05
5.26106e-05
5.32457e-05
5.41675e-05
3.43876e-05
1.29349e-05
6.44194e-06
4.35691e-06
3.51315e-06
3.08391e-06
3.07413e-06
4.23764e-06
4.911e-07
2.02316e-09
1.59218e-09
4.07779e-07
1.00041e-05
6.77243e-06
6.1718e-06
6.77542e-06
8.67516e-06
1.30428e-05
2.32831e-05
4.30983e-05
5.45588e-05
5.36605e-05
5.30351e-05
5.26735e-05
5.25013e-05
5.243e-05
5.23888e-05
5.23375e-05
5.22643e-05
5.219e-05
5.21616e-05
5.22578e-05
5.25852e-05
5.32254e-05
5.41146e-05
3.28939e-05
1.27108e-05
6.29638e-06
4.35058e-06
3.61746e-06
3.18229e-06
3.15741e-06
3.93852e-06
4.8932e-07
2.03581e-09
1.59113e-09
4.09204e-07
9.88233e-06
7.18211e-06
6.55175e-06
6.96806e-06
8.41578e-06
1.2572e-05
2.25081e-05
4.27913e-05
5.42414e-05
5.35003e-05
5.29427e-05
5.26098e-05
5.24519e-05
5.23871e-05
5.23544e-05
5.23084e-05
5.22372e-05
5.21603e-05
5.21238e-05
5.2202e-05
5.25034e-05
5.31141e-05
5.39863e-05
3.25709e-05
1.27282e-05
6.35981e-06
4.31939e-06
3.49948e-06
3.17573e-06
3.19472e-06
4.08267e-06
4.90881e-07
2.03261e-09
1.60432e-09
4.1121e-07
1.01722e-05
6.97714e-06
6.1488e-06
6.8155e-06
8.82825e-06
1.3377e-05
2.3461e-05
4.34436e-05
5.42484e-05
5.35221e-05
5.29542e-05
5.26173e-05
5.24548e-05
5.2391e-05
5.23571e-05
5.23114e-05
5.22427e-05
5.21703e-05
5.21489e-05
5.22657e-05
5.26378e-05
5.34039e-05
5.47053e-05
3.33252e-05
1.33111e-05
6.33978e-06
4.2363e-06
3.44488e-06
3.30289e-06
3.3458e-06
3.99734e-06
4.88807e-07
2.02565e-09
1.60313e-09
4.1121e-07
9.6507e-06
6.79975e-06
6.33843e-06
7.02398e-06
9.1016e-06
1.35322e-05
2.33548e-05
4.33346e-05
5.43296e-05
5.35762e-05
5.29717e-05
5.25958e-05
5.24008e-05
5.23131e-05
5.2266e-05
5.22175e-05
5.21564e-05
5.21041e-05
5.21116e-05
5.2265e-05
5.26691e-05
5.33881e-05
5.43125e-05
3.13699e-05
1.24988e-05
6.5347e-06
4.43666e-06
3.58443e-06
3.23891e-06
3.19796e-06
3.93361e-06
4.93398e-07
2.04933e-09
1.59816e-09
4.0973e-07
9.92589e-06
7.0125e-06
6.40482e-06
7.27622e-06
1.03058e-05
1.44959e-05
2.39945e-05
4.388e-05
5.47443e-05
5.36898e-05
5.30067e-05
5.26276e-05
5.24539e-05
5.23858e-05
5.23499e-05
5.23022e-05
5.22306e-05
5.2147e-05
5.2115e-05
5.22198e-05
5.25686e-05
5.32847e-05
5.44875e-05
3.32764e-05
1.35458e-05
6.57962e-06
4.41117e-06
3.52545e-06
3.15805e-06
3.28741e-06
4.01587e-06
4.90993e-07
2.0351e-09
1.59502e-09
4.07928e-07
9.94775e-06
6.96739e-06
6.40485e-06
7.02586e-06
8.79695e-06
1.302e-05
2.29196e-05
4.35622e-05
5.42393e-05
5.35031e-05
5.29409e-05
5.26046e-05
5.24411e-05
5.23771e-05
5.2344e-05
5.22972e-05
5.22268e-05
5.2158e-05
5.21356e-05
5.22387e-05
5.25725e-05
5.32168e-05
5.4116e-05
3.19659e-05
1.22774e-05
6.11435e-06
4.16697e-06
3.48856e-06
3.33236e-06
3.29221e-06
3.95221e-06
4.85413e-07
2.02286e-09
1.60096e-09
4.08485e-07
9.95827e-06
7.00016e-06
6.34705e-06
7.08905e-06
9.06886e-06
1.34323e-05
2.3785e-05
4.47552e-05
5.4305e-05
5.35326e-05
5.29522e-05
5.26072e-05
5.24422e-05
5.23793e-05
5.23499e-05
5.23074e-05
5.22401e-05
5.21728e-05
5.21658e-05
5.23097e-05
5.27146e-05
5.34498e-05
5.44078e-05
3.0331e-05
1.22133e-05
6.46907e-06
4.37854e-06
3.55958e-06
3.24371e-06
3.25856e-06
4.0702e-06
5.02375e-07
2.09297e-09
1.59218e-09
4.09206e-07
1.03781e-05
7.19087e-06
6.2915e-06
6.87948e-06
8.91677e-06
1.36047e-05
2.3805e-05
4.51112e-05
5.42347e-05
5.34837e-05
5.29164e-05
5.25747e-05
5.24025e-05
5.23269e-05
5.2289e-05
5.22375e-05
5.21697e-05
5.21097e-05
5.21102e-05
5.22624e-05
5.26884e-05
5.34835e-05
5.45832e-05
3.14736e-05
1.26158e-05
6.84429e-06
4.78471e-06
3.748e-06
3.19265e-06
3.23888e-06
3.79618e-06
4.97269e-07
2.08568e-09
1.572e-09
4.0385e-07
1.01921e-05
7.6495e-06
6.3736e-06
6.95057e-06
9.3159e-06
1.36543e-05
2.34215e-05
4.42631e-05
5.42038e-05
5.34428e-05
5.28794e-05
5.25498e-05
5.23922e-05
5.2332e-05
5.23033e-05
5.22602e-05
5.2194e-05
5.21261e-05
5.21171e-05
5.22527e-05
5.26204e-05
5.32649e-05
5.40814e-05
3.0546e-05
1.18917e-05
6.42399e-06
4.55989e-06
3.69266e-06
3.4477e-06
3.50736e-06
4.13943e-06
4.96271e-07
2.05366e-09
1.58511e-09
4.07008e-07
9.70943e-06
7.05015e-06
6.44857e-06
7.28065e-06
9.36241e-06
1.34214e-05
2.36623e-05
4.39465e-05
5.41029e-05
5.34206e-05
5.28721e-05
5.25402e-05
5.23811e-05
5.23179e-05
5.22843e-05
5.22392e-05
5.21731e-05
5.21091e-05
5.2099e-05
5.22297e-05
5.26079e-05
5.33221e-05
5.43736e-05
2.99532e-05
1.17389e-05
6.26086e-06
4.49837e-06
3.7522e-06
3.35099e-06
3.35321e-06
3.98474e-06
4.98093e-07
2.07479e-09
1.57732e-09
4.05466e-07
9.872e-06
7.55919e-06
6.69288e-06
7.6791e-06
9.65208e-06
1.38095e-05
2.44608e-05
4.52941e-05
5.45219e-05
5.35519e-05
5.28964e-05
5.25215e-05
5.23433e-05
5.22736e-05
5.22389e-05
5.21971e-05
5.21386e-05
5.20868e-05
5.20957e-05
5.22508e-05
5.26603e-05
5.33983e-05
5.43805e-05
3.02474e-05
1.21855e-05
6.47625e-06
4.49462e-06
3.70327e-06
3.34762e-06
3.2004e-06
3.76267e-06
4.98049e-07
2.07357e-09
1.57707e-09
4.04095e-07
9.98481e-06
6.92843e-06
6.51452e-06
8.06855e-06
1.04564e-05
1.49442e-05
2.46639e-05
4.53275e-05
5.44303e-05
5.34898e-05
5.2857e-05
5.2497e-05
5.23252e-05
5.22574e-05
5.22225e-05
5.21789e-05
5.21178e-05
5.20633e-05
5.20716e-05
5.22299e-05
5.26698e-05
5.3579e-05
5.52349e-05
3.23263e-05
1.3905e-05
8.12741e-06
4.67195e-06
3.57207e-06
3.34581e-06
3.44742e-06
3.94543e-06
4.94332e-07
2.06149e-09
1.5853e-09
4.0655e-07
9.87382e-06
7.08031e-06
6.31739e-06
6.86577e-06
8.72234e-06
1.32957e-05
2.43829e-05
4.52198e-05
5.43553e-05
5.34627e-05
5.28442e-05
5.24862e-05
5.23155e-05
5.22477e-05
5.22127e-05
5.21695e-05
5.21088e-05
5.2054e-05
5.20594e-05
5.22107e-05
5.26409e-05
5.35339e-05
5.51662e-05
3.13677e-05
1.35362e-05
7.79045e-06
4.5524e-06
3.78849e-06
3.44654e-06
3.37936e-06
3.94732e-06
4.97044e-07
2.06743e-09
1.58789e-09
4.08084e-07
1.02601e-05
7.549e-06
6.41386e-06
7.09313e-06
9.0614e-06
1.36348e-05
2.438e-05
4.55088e-05
5.41337e-05
5.33758e-05
5.28043e-05
5.24604e-05
5.22898e-05
5.22183e-05
5.21819e-05
5.21414e-05
5.20883e-05
5.20475e-05
5.20668e-05
5.22346e-05
5.26865e-05
5.36042e-05
5.52368e-05
3.16522e-05
1.37997e-05
8.10479e-06
4.74391e-06
3.72128e-06
3.39258e-06
3.23729e-06
3.78145e-06
4.98605e-07
2.07857e-09
1.59904e-09
4.11365e-07
9.79359e-06
7.11814e-06
6.42535e-06
7.11468e-06
9.31718e-06
1.38294e-05
2.4292e-05
4.54017e-05
5.41455e-05
5.33684e-05
5.27904e-05
5.24492e-05
5.22811e-05
5.22105e-05
5.21735e-05
5.21309e-05
5.20745e-05
5.20301e-05
5.20487e-05
5.2211e-05
5.26161e-05
5.33383e-05
5.43676e-05
2.95489e-05
1.16507e-05
6.2812e-06
4.41798e-06
3.52433e-06
3.27754e-06
3.48908e-06
4.2736e-06
5.01605e-07
2.0789e-09
1.58168e-09
4.06056e-07
1.00799e-05
7.05192e-06
6.60064e-06
7.44115e-06
9.33499e-06
1.38439e-05
2.40293e-05
4.43699e-05
5.41335e-05
5.33753e-05
5.27929e-05
5.24448e-05
5.22773e-05
5.22099e-05
5.21747e-05
5.21326e-05
5.20744e-05
5.20277e-05
5.20509e-05
5.22234e-05
5.26417e-05
5.33857e-05
5.44583e-05
2.96341e-05
1.15984e-05
6.12383e-06
4.35104e-06
3.70271e-06
3.43708e-06
3.34258e-06
4.07104e-06
4.98984e-07
2.07677e-09
1.58658e-09
4.06163e-07
1.00898e-05
7.43794e-06
6.20862e-06
6.80942e-06
8.91349e-06
1.35712e-05
2.46952e-05
4.52724e-05
5.41919e-05
5.33614e-05
5.27725e-05
5.24228e-05
5.22535e-05
5.21874e-05
5.21533e-05
5.21107e-05
5.20589e-05
5.20207e-05
5.20492e-05
5.22353e-05
5.27131e-05
5.36627e-05
5.53502e-05
3.08907e-05
1.32785e-05
7.67358e-06
4.51188e-06
3.77295e-06
3.45901e-06
3.36703e-06
3.94307e-06
5.0646e-07
2.11259e-09
1.59738e-09
4.10211e-07
1.01318e-05
7.66331e-06
6.42009e-06
7.07966e-06
9.10208e-06
1.38215e-05
2.51888e-05
4.57568e-05
5.42627e-05
5.33934e-05
5.27839e-05
5.24264e-05
5.2252e-05
5.21811e-05
5.21466e-05
5.21096e-05
5.20583e-05
5.20148e-05
5.20372e-05
5.22111e-05
5.26321e-05
5.34024e-05
5.46267e-05
2.94737e-05
1.22785e-05
7.82948e-06
4.74743e-06
3.72553e-06
3.3716e-06
3.42524e-06
4.05424e-06
5.04584e-07
2.12623e-09
1.60136e-09
4.14167e-07
1.03696e-05
7.78548e-06
6.90081e-06
7.58887e-06
9.69196e-06
1.45922e-05
2.50654e-05
4.61393e-05
5.42416e-05
5.33748e-05
5.27323e-05
5.23513e-05
5.21691e-05
5.21e-05
5.20716e-05
5.20436e-05
5.20064e-05
5.19812e-05
5.20245e-05
5.22193e-05
5.26619e-05
5.34261e-05
5.45062e-05
2.93222e-05
1.15651e-05
6.21172e-06
4.48845e-06
3.73271e-06
3.41326e-06
3.42892e-06
3.97449e-06
5.00766e-07
2.08967e-09
1.61692e-09
4.17987e-07
1.00256e-05
7.54606e-06
7.13163e-06
7.957e-06
1.01689e-05
1.46649e-05
2.46645e-05
4.57619e-05
5.42266e-05
5.33681e-05
5.27414e-05
5.23756e-05
5.21963e-05
5.21202e-05
5.20804e-05
5.20396e-05
5.1988e-05
5.19508e-05
5.19804e-05
5.21566e-05
5.25813e-05
5.33492e-05
5.4494e-05
2.81759e-05
1.19829e-05
5.94937e-06
4.18678e-06
3.64942e-06
3.60725e-06
3.62479e-06
3.9221e-06
4.90154e-07
2.06525e-09
1.61921e-09
4.17301e-07
1.04073e-05
7.18418e-06
7.02474e-06
8.07048e-06
9.92692e-06
1.43556e-05
2.47762e-05
4.49998e-05
5.4324e-05
5.3427e-05
5.27718e-05
5.23864e-05
5.2197e-05
5.21207e-05
5.20849e-05
5.20447e-05
5.19928e-05
5.1955e-05
5.19876e-05
5.21765e-05
5.26378e-05
5.35014e-05
5.48921e-05
2.91647e-05
1.32707e-05
8.01284e-06
4.76908e-06
3.77973e-06
3.43944e-06
3.5444e-06
4.35315e-06
5.09305e-07
2.10026e-09
1.62253e-09
4.17124e-07
9.94178e-06
7.24598e-06
6.46264e-06
7.30545e-06
9.53757e-06
1.44176e-05
2.48459e-05
4.57456e-05
5.41414e-05
5.33309e-05
5.27186e-05
5.2351e-05
5.2167e-05
5.20891e-05
5.20544e-05
5.20176e-05
5.19665e-05
5.19262e-05
5.195e-05
5.21165e-05
5.25265e-05
5.32651e-05
5.43357e-05
2.91612e-05
1.14294e-05
6.13284e-06
4.46895e-06
3.81898e-06
3.43083e-06
3.36504e-06
4.19117e-06
5.1911e-07
2.1561e-09
1.62195e-09
4.1681e-07
1.05722e-05
7.50085e-06
6.39871e-06
7.0455e-06
9.17864e-06
1.47608e-05
2.58658e-05
4.67428e-05
5.44527e-05
5.34085e-05
5.27309e-05
5.23475e-05
5.21616e-05
5.20843e-05
5.20457e-05
5.20058e-05
5.19567e-05
5.19223e-05
5.19542e-05
5.21308e-05
5.25307e-05
5.3193e-05
5.39954e-05
2.72914e-05
1.09451e-05
5.87409e-06
4.2575e-06
3.77485e-06
3.59155e-06
3.54847e-06
4.16668e-06
5.13757e-07
2.13643e-09
1.5941e-09
4.07322e-07
9.74573e-06
7.13671e-06
6.66807e-06
7.22841e-06
9.37957e-06
1.41452e-05
2.53604e-05
4.59292e-05
5.41983e-05
5.32972e-05
5.2683e-05
5.23226e-05
5.21424e-05
5.20646e-05
5.20249e-05
5.19855e-05
5.19407e-05
5.19173e-05
5.1973e-05
5.21991e-05
5.27196e-05
5.36387e-05
4.68452e-05
2.9292e-05
1.23989e-05
6.89036e-06
4.60803e-06
3.68857e-06
3.46402e-06
3.62247e-06
4.14053e-06
5.16204e-07
2.14743e-09
1.59632e-09
4.0987e-07
9.73683e-06
6.9608e-06
6.81344e-06
7.63089e-06
9.46257e-06
1.37158e-05
2.50108e-05
4.59821e-05
5.41976e-05
5.32963e-05
5.2678e-05
5.23172e-05
5.21391e-05
5.20634e-05
5.20251e-05
5.19846e-05
5.19364e-05
5.19104e-05
5.1962e-05
5.21774e-05
5.26677e-05
5.35432e-05
5.48454e-05
2.88566e-05
1.23113e-05
6.88753e-06
4.65894e-06
3.87312e-06
3.46843e-06
3.39437e-06
4.15888e-06
5.21177e-07
2.1713e-09
1.5889e-09
4.07707e-07
1.02966e-05
7.20104e-06
6.86443e-06
7.50949e-06
9.22591e-06
1.42632e-05
2.48617e-05
4.57299e-05
5.42658e-05
5.32921e-05
5.26262e-05
5.22411e-05
5.20525e-05
5.1977e-05
5.1947e-05
5.19254e-05
5.19085e-05
5.18983e-05
5.1945e-05
5.21301e-05
5.25687e-05
5.33843e-05
5.47214e-05
2.8471e-05
1.2204e-05
6.29637e-06
4.52111e-06
3.81384e-06
3.53761e-06
3.58715e-06
4.05663e-06
5.12297e-07
2.14319e-09
1.60917e-09
4.13147e-07
9.68024e-06
7.17201e-06
6.67374e-06
7.35976e-06
9.48301e-06
1.39835e-05
2.42257e-05
4.64346e-05
5.42825e-05
5.33208e-05
5.26493e-05
5.22563e-05
5.20621e-05
5.19813e-05
5.19476e-05
5.19217e-05
5.18959e-05
5.18904e-05
5.19473e-05
5.21443e-05
5.2578e-05
5.3324e-05
5.4338e-05
2.80438e-05
1.12872e-05
5.93459e-06
4.32153e-06
3.79212e-06
3.61507e-06
3.58415e-06
4.07951e-06
5.11758e-07
2.14341e-09
1.61041e-09
4.14439e-07
1.0443e-05
7.75305e-06
6.5805e-06
7.71681e-06
9.94934e-06
1.43681e-05
2.48333e-05
4.54194e-05
5.42596e-05
5.33432e-05
5.2672e-05
5.22767e-05
5.20827e-05
5.20019e-05
5.19669e-05
5.1939e-05
5.19118e-05
5.19048e-05
5.19645e-05
5.21661e-05
5.25883e-05
5.32591e-05
5.40505e-05
2.71209e-05
1.0924e-05
5.94677e-06
4.40242e-06
3.86851e-06
3.62484e-06
3.51807e-06
4.09678e-06
5.17293e-07
2.16657e-09
1.60909e-09
4.14657e-07
1.02256e-05
7.6889e-06
6.87836e-06
7.96706e-06
9.84609e-06
1.38884e-05
2.41302e-05
4.48854e-05
5.39441e-05
5.32202e-05
5.2652e-05
5.23084e-05
5.21382e-05
5.20658e-05
5.20285e-05
5.1991e-05
5.19487e-05
5.19269e-05
5.198e-05
5.2191e-05
5.26602e-05
5.34939e-05
5.48322e-05
2.84276e-05
1.22323e-05
6.21378e-06
4.49941e-06
3.90183e-06
3.55929e-06
3.62326e-06
4.54239e-06
5.23852e-07
2.15405e-09
1.59897e-09
4.11739e-07
1.01466e-05
8.16124e-06
7.77069e-06
8.63415e-06
1.08417e-05
1.55653e-05
2.574e-05
4.59079e-05
5.44163e-05
5.33783e-05
5.27144e-05
5.2343e-05
5.21663e-05
5.20973e-05
5.20649e-05
5.20325e-05
5.19947e-05
5.19748e-05
5.20231e-05
5.22156e-05
5.26237e-05
5.32631e-05
5.40143e-05
2.73392e-05
1.10322e-05
6.01563e-06
4.3533e-06
3.86377e-06
3.79552e-06
3.82143e-06
4.2318e-06
5.18316e-07
2.15556e-09
1.60143e-09
4.10434e-07
1.00785e-05
7.368e-06
6.22204e-06
7.60528e-06
9.14116e-06
1.49636e-05
2.57317e-05
4.6237e-05
5.42884e-05
5.33139e-05
5.26814e-05
5.23255e-05
5.21583e-05
5.20934e-05
5.20625e-05
5.20309e-05
5.19964e-05
5.19804e-05
5.20261e-05
5.2209e-05
5.26109e-05
5.3264e-05
5.40473e-05
2.56588e-05
1.04943e-05
5.84693e-06
4.49984e-06
4.01939e-06
3.73914e-06
3.66064e-06
4.15561e-06
5.24285e-07
2.1915e-09
1.59112e-09
4.08905e-07
9.84216e-06
6.97777e-06
5.90628e-06
6.69872e-06
9.28353e-06
1.39136e-05
2.51367e-05
4.63473e-05
5.43049e-05
5.33472e-05
5.27002e-05
5.23268e-05
5.21432e-05
5.20667e-05
5.20304e-05
5.19949e-05
5.19536e-05
5.19402e-05