/*--------------------------------*- C++ -*----------------------------------*\
  =========                 |
  \\      /  F ield         | OpenFOAM: The Open Source CFD Toolbox
   \\    /   O peration     | Website:  https://openfoam.org
    \\  /    A nd           | Version:  13
     \\/     M anipulation  |
\*---------------------------------------------------------------------------*/
FoamFile
{
    format      ascii;
    class       volScalarField;
    location    "14";
    object      nut;
}
// * * * * * * * * * * * * * * * * * * * * * * * * * * * * * * * * * * * * * //

dimensions      [0 2 -1 0 0 0 0];

internalField   nonuniform List<scalar> 
78750
(
1.42069e-14
3.6542e-12
8.27786e-11
1.50747e-10
2.23276e-10
3.01167e-10
3.84584e-10
4.72925e-10
5.64826e-10
6.5825e-10
7.50641e-10
8.39118e-10
9.20666e-10
9.92342e-10
1.05145e-09
1.09571e-09
1.12338e-09
1.13337e-09
1.12527e-09
1.09941e-09
1.05681e-09
9.9916e-10
9.28671e-10
8.48e-10
7.60062e-10
6.67859e-10
5.7428e-10
4.81904e-10
3.92808e-10
3.08402e-10
2.29324e-10
1.55413e-10
8.57773e-11
3.81261e-12
1.48762e-14
3.13028e-13
8.17878e-11
1.16044e-08
2.1296e-08
3.16401e-08
4.27896e-08
5.47829e-08
6.75355e-08
8.08445e-08
9.44053e-08
1.07837e-07
1.20711e-07
1.32582e-07
1.43015e-07
1.51614e-07
1.58044e-07
1.6205e-07
1.63472e-07
1.62252e-07
1.58441e-07
1.5219e-07
1.43746e-07
1.33438e-07
1.21659e-07
1.08838e-07
9.54212e-08
8.1836e-08
6.84661e-08
5.56203e-08
4.35071e-08
3.22168e-08
2.17151e-08
1.18498e-08
8.36342e-11
3.20255e-13
9.33956e-13
2.44128e-10
3.47106e-08
6.41587e-08
9.63569e-08
1.3203e-07
1.71452e-07
2.14396e-07
2.60131e-07
3.07488e-07
3.54994e-07
4.01003e-07
4.43787e-07
4.81633e-07
5.12958e-07
5.36425e-07
5.51025e-07
5.56128e-07
5.51514e-07
5.37384e-07
5.14347e-07
4.83395e-07
4.4585e-07
4.03283e-07
3.57401e-07
3.09929e-07
2.62511e-07
2.16625e-07
1.73448e-07
1.33726e-07
9.77028e-08
6.51219e-08
3.52657e-08
2.48262e-10
9.50072e-13
1.8043e-12
4.71901e-10
6.71136e-08
1.24285e-07
1.87243e-07
2.57523e-07
3.35679e-07
4.21174e-07
5.12388e-07
6.06844e-07
7.01572e-07
7.9333e-07
8.78667e-07
9.54123e-07
1.01652e-06
1.06319e-06
1.09216e-06
1.1022e-06
1.09287e-06
1.06459e-06
1.01854e-06
9.56687e-07
8.81673e-07
7.96657e-07
7.05092e-07
6.10425e-07
5.159e-07
4.24485e-07
3.38662e-07
2.6007e-07
1.89268e-07
1.25732e-07
6.79446e-08
4.78083e-10
1.82837e-12
2.67794e-12
7.00748e-10
9.96156e-08
1.84439e-07
2.779e-07
3.82232e-07
4.98108e-07
6.24476e-07
7.58649e-07
8.96793e-07
1.03453e-06
1.16721e-06
1.29e-06
1.39813e-06
1.48723e-06
1.5537e-06
1.59484e-06
1.60902e-06
1.59565e-06
1.55529e-06
1.48954e-06
1.40106e-06
1.29345e-06
1.17104e-06
1.0386e-06
9.00961e-07
7.62761e-07
6.28378e-07
5.01648e-07
3.85271e-07
2.80325e-07
1.86173e-07
1.00611e-07
7.08161e-10
2.70679e-12
3.36532e-12
8.81047e-10
1.25192e-07
2.31657e-07
3.48861e-07
4.79512e-07
6.24279e-07
7.81601e-07
9.47893e-07
1.11827e-06
1.28731e-06
1.44941e-06
1.59881e-06
1.72993e-06
1.83769e-06
1.91792e-06
1.96749e-06
1.98451e-06
1.96832e-06
1.91955e-06
1.84006e-06
1.73295e-06
1.60237e-06
1.45337e-06
1.29154e-06
1.12261e-06
9.52198e-07
7.85705e-07
6.28018e-07
4.82735e-07
3.51439e-07
2.33502e-07
1.26248e-07
8.88933e-10
3.396e-12
3.80912e-12
9.97662e-10
1.41728e-07
2.62136e-07
3.94575e-07
5.42036e-07
7.05146e-07
8.81984e-07
1.06837e-06
1.25876e-06
1.4471e-06
1.62719e-06
1.79277e-06
1.93779e-06
2.0568e-06
2.14528e-06
2.19989e-06
2.21861e-06
2.20071e-06
2.14689e-06
2.05914e-06
1.94078e-06
1.7963e-06
1.63112e-06
1.4513e-06
1.26309e-06
1.07267e-06
8.86097e-07
7.08903e-07
5.45279e-07
3.97173e-07
2.63994e-07
1.42791e-07
1.0056e-09
3.84002e-12
4.05153e-12
1.06149e-09
1.50784e-07
2.7881e-07
4.19557e-07
5.76159e-07
7.49213e-07
9.36589e-07
1.13378e-06
1.33489e-06
1.53353e-06
1.72319e-06
1.89736e-06
2.04974e-06
2.17467e-06
2.2675e-06
2.32477e-06
2.34437e-06
2.32558e-06
2.26909e-06
2.17698e-06
2.05268e-06
1.90083e-06
1.72707e-06
1.53768e-06
1.33917e-06
1.13804e-06
9.40661e-07
7.52936e-07
5.79376e-07
4.22134e-07
2.80652e-07
1.51836e-07
1.06936e-09
4.08218e-12
4.16625e-12
1.09176e-09
1.55083e-07
2.86724e-07
4.31409e-07
5.92338e-07
7.70092e-07
9.62442e-07
1.16473e-06
1.37088e-06
1.57435e-06
1.7685e-06
1.94669e-06
2.1025e-06
2.23021e-06
2.32507e-06
2.38359e-06
2.4036e-06
2.38438e-06
2.32664e-06
2.23249e-06
2.10541e-06
1.95012e-06
1.77234e-06
1.57846e-06
1.37512e-06
1.16894e-06
9.6648e-07
7.73786e-07
5.9553e-07
4.33966e-07
2.88552e-07
1.56127e-07
1.09958e-09
4.19665e-12
4.21419e-12
1.10444e-09
1.56886e-07
2.90044e-07
4.36379e-07
5.99122e-07
7.78847e-07
9.7328e-07
1.1777e-06
1.38596e-06
1.59146e-06
1.78748e-06
1.96734e-06
2.1246e-06
2.25347e-06
2.34918e-06
2.4082e-06
2.42839e-06
2.409e-06
2.35073e-06
2.25573e-06
2.12749e-06
1.97076e-06
1.7913e-06
1.59554e-06
1.39018e-06
1.1819e-06
9.773e-07
7.82525e-07
6.02302e-07
4.38926e-07
2.91863e-07
1.57925e-07
1.11222e-09
4.24446e-12
4.23214e-12
1.10921e-09
1.57564e-07
2.91292e-07
4.38249e-07
6.01675e-07
7.82141e-07
9.77359e-07
1.18258e-06
1.39164e-06
1.59789e-06
1.79463e-06
1.97512e-06
2.13292e-06
2.26222e-06
2.35825e-06
2.41747e-06
2.43772e-06
2.41826e-06
2.3598e-06
2.26448e-06
2.13581e-06
1.97853e-06
1.79844e-06
1.60197e-06
1.39585e-06
1.18677e-06
9.81373e-07
7.85814e-07
6.0485e-07
4.40792e-07
2.93109e-07
1.58601e-07
1.11697e-09
4.26237e-12
4.23824e-12
1.11083e-09
1.57796e-07
2.91718e-07
4.38887e-07
6.02547e-07
7.83266e-07
9.78752e-07
1.18425e-06
1.39358e-06
1.6001e-06
1.79707e-06
1.97778e-06
2.13576e-06
2.26522e-06
2.36136e-06
2.42065e-06
2.44092e-06
2.42144e-06
2.36291e-06
2.26748e-06
2.13865e-06
1.98119e-06
1.80088e-06
1.60417e-06
1.39778e-06
1.18844e-06
9.82765e-07
7.86937e-07
6.0572e-07
4.41429e-07
2.93534e-07
1.58832e-07
1.11859e-09
4.26845e-12
4.24014e-12
1.11133e-09
1.57868e-07
2.91851e-07
4.39087e-07
6.02819e-07
7.83618e-07
9.79188e-07
1.18477e-06
1.39418e-06
1.60079e-06
1.79784e-06
1.97862e-06
2.13666e-06
2.26616e-06
2.36233e-06
2.42164e-06
2.44192e-06
2.42243e-06
2.36388e-06
2.26842e-06
2.13954e-06
1.98202e-06
1.80165e-06
1.60486e-06
1.39839e-06
1.18896e-06
9.832e-07
7.87289e-07
6.05992e-07
4.41628e-07
2.93667e-07
1.58904e-07
1.11909e-09
4.27035e-12
4.24068e-12
1.11148e-09
1.57889e-07
2.91889e-07
4.39144e-07
6.02898e-07
7.8372e-07
9.79314e-07
1.18492e-06
1.39436e-06
1.60098e-06
1.79806e-06
1.97886e-06
2.13691e-06
2.26643e-06
2.36261e-06
2.42193e-06
2.44221e-06
2.42272e-06
2.36416e-06
2.26869e-06
2.1398e-06
1.98226e-06
1.80187e-06
1.60506e-06
1.39857e-06
1.18911e-06
9.83326e-07
7.8739e-07
6.0607e-07
4.41685e-07
2.93705e-07
1.58925e-07
1.11924e-09
4.27089e-12
4.24083e-12
1.11152e-09
1.57894e-07
2.919e-07
4.39159e-07
6.02919e-07
7.83747e-07
9.79348e-07
1.18496e-06
1.39441e-06
1.60104e-06
1.79812e-06
1.97892e-06
2.13698e-06
2.2665e-06
2.36269e-06
2.42201e-06
2.44229e-06
2.4228e-06
2.36424e-06
2.26876e-06
2.13987e-06
1.98233e-06
1.80193e-06
1.60511e-06
1.39861e-06
1.18915e-06
9.8336e-07
7.87418e-07
6.06091e-07
4.41701e-07
2.93715e-07
1.5893e-07
1.11927e-09
4.27103e-12
4.24086e-12
1.11153e-09
1.57896e-07
2.91902e-07
4.39163e-07
6.02924e-07
7.83754e-07
9.79356e-07
1.18497e-06
1.39442e-06
1.60105e-06
1.79813e-06
1.97894e-06
2.137e-06
2.26652e-06
2.36271e-06
2.42203e-06
2.44231e-06
2.42282e-06
2.36426e-06
2.26878e-06
2.13989e-06
1.98235e-06
1.80194e-06
1.60513e-06
1.39863e-06
1.18916e-06
9.83368e-07
7.87424e-07
6.06097e-07
4.41705e-07
2.93718e-07
1.58932e-07
1.11928e-09
4.27107e-12
4.24087e-12
1.11153e-09
1.57896e-07
2.91903e-07
4.39164e-07
6.02925e-07
7.83755e-07
9.79358e-07
1.18497e-06
1.39442e-06
1.60105e-06
1.79814e-06
1.97894e-06
2.137e-06
2.26652e-06
2.36271e-06
2.42203e-06
2.44231e-06
2.42282e-06
2.36426e-06
2.26878e-06
2.13989e-06
1.98235e-06
1.80194e-06
1.60513e-06
1.39863e-06
1.18916e-06
9.8337e-07
7.87426e-07
6.06098e-07
4.41706e-07
2.93718e-07
1.58932e-07
1.11929e-09
4.27108e-12
4.24088e-12
1.11153e-09
1.57896e-07
2.91903e-07
4.39164e-07
6.02926e-07
7.83756e-07
9.79359e-07
1.18497e-06
1.39442e-06
1.60106e-06
1.79814e-06
1.97894e-06
2.13701e-06
2.26652e-06
2.36271e-06
2.42203e-06
2.44231e-06
2.42282e-06
2.36426e-06
2.26878e-06
2.13989e-06
1.98235e-06
1.80194e-06
1.60513e-06
1.39863e-06
1.18916e-06
9.83371e-07
7.87426e-07
6.06098e-07
4.41706e-07
2.93718e-07
1.58932e-07
1.11929e-09
4.27108e-12
4.24088e-12
1.11153e-09
1.57896e-07
2.91903e-07
4.39164e-07
6.02926e-07
7.83756e-07
9.79359e-07
1.18497e-06
1.39442e-06
1.60106e-06
1.79814e-06
1.97894e-06
2.13701e-06
2.26652e-06
2.36271e-06
2.42203e-06
2.44231e-06
2.42282e-06
2.36426e-06
2.26878e-06
2.13989e-06
1.98235e-06
1.80195e-06
1.60513e-06
1.39863e-06
1.18916e-06
9.83371e-07
7.87426e-07
6.06098e-07
4.41706e-07
2.93719e-07
1.58932e-07
1.11929e-09
4.27108e-12
4.24088e-12
1.11153e-09
1.57896e-07
2.91903e-07
4.39164e-07
6.02926e-07
7.83756e-07
9.79359e-07
1.18497e-06
1.39442e-06
1.60106e-06
1.79814e-06
1.97894e-06
2.13701e-06
2.26652e-06
2.36271e-06
2.42203e-06
2.44231e-06
2.42282e-06
2.36426e-06
2.26878e-06
2.13989e-06
1.98235e-06
1.80195e-06
1.60513e-06
1.39863e-06
1.18916e-06
9.83371e-07
7.87426e-07
6.06098e-07
4.41706e-07
2.93719e-07
1.58932e-07
1.11929e-09
4.27108e-12
4.24088e-12
1.11153e-09
1.57896e-07
2.91903e-07
4.39164e-07
6.02926e-07
7.83756e-07
9.79359e-07
1.18497e-06
1.39442e-06
1.60106e-06
1.79814e-06
1.97894e-06
2.13701e-06
2.26652e-06
2.36271e-06
2.42203e-06
2.44231e-06
2.42282e-06
2.36426e-06
2.26878e-06
2.13989e-06
1.98235e-06
1.80195e-06
1.60513e-06
1.39863e-06
1.18916e-06
9.83371e-07
7.87426e-07
6.06098e-07
4.41706e-07
2.93719e-07
1.58932e-07
1.11929e-09
4.27108e-12
4.24088e-12
1.11153e-09
1.57896e-07
2.91903e-07
4.39164e-07
6.02926e-07
7.83756e-07
9.79359e-07
1.18497e-06
1.39442e-06
1.60106e-06
1.79814e-06
1.97894e-06
2.13701e-06
2.26652e-06
2.36271e-06
2.42203e-06
2.44231e-06
2.42282e-06
2.36426e-06
2.26878e-06
2.13989e-06
1.98235e-06
1.80195e-06
1.60513e-06
1.39863e-06
1.18916e-06
9.83371e-07
7.87426e-07
6.06098e-07
4.41706e-07
2.93719e-07
1.58932e-07
1.11929e-09
4.27108e-12
4.24088e-12
1.11153e-09
1.57896e-07
2.91903e-07
4.39164e-07
6.02926e-07
7.83756e-07
9.79359e-07
1.18497e-06
1.39442e-06
1.60106e-06
1.79814e-06
1.97894e-06
2.13701e-06
2.26652e-06
2.36271e-06
2.42203e-06
2.44231e-06
2.42282e-06
2.36426e-06
2.26878e-06
2.13989e-06
1.98235e-06
1.80195e-06
1.60513e-06
1.39863e-06
1.18916e-06
9.83371e-07
7.87426e-07
6.06098e-07
4.41706e-07
2.93719e-07
1.58932e-07
1.11929e-09
4.27108e-12
4.24088e-12
1.11153e-09
1.57896e-07
2.91903e-07
4.39164e-07
6.02926e-07
7.83756e-07
9.79359e-07
1.18497e-06
1.39442e-06
1.60106e-06
1.79814e-06
1.97894e-06
2.13701e-06
2.26652e-06
2.36271e-06
2.42203e-06
2.44231e-06
2.42282e-06
2.36426e-06
2.26878e-06
2.13989e-06
1.98235e-06
1.80195e-06
1.60513e-06
1.39863e-06
1.18916e-06
9.83371e-07
7.87426e-07
6.06098e-07
4.41706e-07
2.93719e-07
1.58932e-07
1.11929e-09
4.27108e-12
4.24088e-12
1.11153e-09
1.57896e-07
2.91903e-07
4.39164e-07
6.02926e-07
7.83756e-07
9.79359e-07
1.18497e-06
1.39442e-06
1.60106e-06
1.79814e-06
1.97894e-06
2.13701e-06
2.26652e-06
2.36271e-06
2.42203e-06
2.44231e-06
2.42282e-06
2.36426e-06
2.26878e-06
2.13989e-06
1.98235e-06
1.80195e-06
1.60513e-06
1.39863e-06
1.18916e-06
9.83371e-07
7.87426e-07
6.06098e-07
4.41706e-07
2.93719e-07
1.58932e-07
1.11929e-09
4.27108e-12
4.24088e-12
1.11153e-09
1.57896e-07
2.91903e-07
4.39164e-07
6.02926e-07
7.83756e-07
9.79359e-07
1.18497e-06
1.39442e-06
1.60106e-06
1.79814e-06
1.97894e-06
2.13701e-06
2.26652e-06
2.36271e-06
2.42203e-06
2.44231e-06
2.42282e-06
2.36426e-06
2.26878e-06
2.13989e-06
1.98235e-06
1.80195e-06
1.60513e-06
1.39863e-06
1.18916e-06
9.83371e-07
7.87426e-07
6.06098e-07
4.41706e-07
2.93719e-07
1.58932e-07
1.11929e-09
4.27108e-12
4.24088e-12
1.11153e-09
1.57896e-07
2.91903e-07
4.39164e-07
6.02926e-07
7.83756e-07
9.79359e-07
1.18497e-06
1.39442e-06
1.60106e-06
1.79814e-06
1.97894e-06
2.13701e-06
2.26652e-06
2.36271e-06
2.42203e-06
2.44231e-06
2.42282e-06
2.36426e-06
2.26878e-06
2.13989e-06
1.98235e-06
1.80195e-06
1.60513e-06
1.39863e-06
1.18916e-06
9.83371e-07
7.87426e-07
6.06098e-07
4.41706e-07
2.93719e-07
1.58932e-07
1.11929e-09
4.27108e-12
4.24088e-12
1.11153e-09
1.57896e-07
2.91903e-07
4.39164e-07
6.02926e-07
7.83756e-07
9.79359e-07
1.18497e-06
1.39442e-06
1.60106e-06
1.79814e-06
1.97894e-06
2.13701e-06
2.26652e-06
2.36271e-06
2.42203e-06
2.44231e-06
2.42282e-06
2.36426e-06
2.26878e-06
2.13989e-06
1.98235e-06
1.80195e-06
1.60513e-06
1.39863e-06
1.18916e-06
9.83371e-07
7.87426e-07
6.06098e-07
4.41706e-07
2.93719e-07
1.58932e-07
1.11929e-09
4.27108e-12
4.24088e-12
1.11153e-09
1.57896e-07
2.91903e-07
4.39164e-07
6.02926e-07
7.83756e-07
9.79359e-07
1.18497e-06
1.39442e-06
1.60106e-06
1.79814e-06
1.97894e-06
2.13701e-06
2.26652e-06
2.36271e-06
2.42203e-06
2.44231e-06
2.42282e-06
2.36426e-06
2.26878e-06
2.13989e-06
1.98235e-06
1.80195e-06
1.60513e-06
1.39863e-06
1.18916e-06
9.83371e-07
7.87426e-07
6.06098e-07
4.41706e-07
2.93719e-07
1.58932e-07
1.11929e-09
4.27108e-12
4.24088e-12
1.11153e-09
1.57896e-07
2.91903e-07
4.39164e-07
6.02926e-07
7.83756e-07
9.79359e-07
1.18497e-06
1.39442e-06
1.60106e-06
1.79814e-06
1.97894e-06
2.13701e-06
2.26652e-06
2.36271e-06
2.42203e-06
2.44231e-06
2.42282e-06
2.36426e-06
2.26878e-06
2.13989e-06
1.98235e-06
1.80195e-06
1.60513e-06
1.39863e-06
1.18916e-06
9.83371e-07
7.87426e-07
6.06098e-07
4.41706e-07
2.93719e-07
1.58932e-07
1.11929e-09
4.27108e-12
4.24088e-12
1.11153e-09
1.57896e-07
2.91903e-07
4.39164e-07
6.02926e-07
7.83756e-07
9.79359e-07
1.18497e-06
1.39442e-06
1.60106e-06
1.79814e-06
1.97894e-06
2.13701e-06
2.26652e-06
2.36271e-06
2.42203e-06
2.44231e-06
2.42282e-06
2.36426e-06
2.26878e-06
2.13989e-06
1.98235e-06
1.80195e-06
1.60513e-06
1.39863e-06
1.18916e-06
9.83371e-07
7.87426e-07
6.06098e-07
4.41706e-07
2.93719e-07
1.58932e-07
1.11929e-09
4.27108e-12
4.24088e-12
1.11153e-09
1.57896e-07
2.91903e-07
4.39164e-07
6.02926e-07
7.83756e-07
9.79359e-07
1.18497e-06
1.39442e-06
1.60106e-06
1.79814e-06
1.97894e-06
2.13701e-06
2.26652e-06
2.36271e-06
2.42203e-06
2.44231e-06
2.42282e-06
2.36426e-06
2.26878e-06
2.13989e-06
1.98235e-06
1.80195e-06
1.60513e-06
1.39863e-06
1.18916e-06
9.83371e-07
7.87426e-07
6.06098e-07
4.41706e-07
2.93719e-07
1.58932e-07
1.11929e-09
4.27108e-12
4.24088e-12
1.11153e-09
1.57896e-07
2.91903e-07
4.39164e-07
6.02926e-07
7.83756e-07
9.79359e-07
1.18497e-06
1.39442e-06
1.60106e-06
1.79814e-06
1.97894e-06
2.13701e-06
2.26652e-06
2.36271e-06
2.42203e-06
2.44231e-06
2.42282e-06
2.36426e-06
2.26878e-06
2.13989e-06
1.98235e-06
1.80195e-06
1.60513e-06
1.39863e-06
1.18916e-06
9.83371e-07
7.87426e-07
6.06098e-07
4.41706e-07
2.93719e-07
1.58932e-07
1.11929e-09
4.27108e-12
4.24088e-12
1.11153e-09
1.57896e-07
2.91903e-07
4.39164e-07
6.02926e-07
7.83756e-07
9.79359e-07
1.18497e-06
1.39442e-06
1.60106e-06
1.79814e-06
1.97894e-06
2.13701e-06
2.26652e-06
2.36271e-06
2.42203e-06
2.44231e-06
2.42282e-06
2.36426e-06
2.26878e-06
2.13989e-06
1.98235e-06
1.80195e-06
1.60513e-06
1.39863e-06
1.18916e-06
9.83371e-07
7.87426e-07
6.06098e-07
4.41706e-07
2.93719e-07
1.58932e-07
1.11929e-09
4.27108e-12
4.24088e-12
1.11153e-09
1.57896e-07
2.91903e-07
4.39164e-07
6.02926e-07
7.83756e-07
9.79359e-07
1.18497e-06
1.39442e-06
1.60106e-06
1.79814e-06
1.97894e-06
2.13701e-06
2.26652e-06
2.36271e-06
2.42203e-06
2.44231e-06
2.42282e-06
2.36426e-06
2.26878e-06
2.13989e-06
1.98235e-06
1.80195e-06
1.60513e-06
1.39863e-06
1.18916e-06
9.83371e-07
7.87426e-07
6.06098e-07
4.41706e-07
2.93719e-07
1.58932e-07
1.11929e-09
4.27108e-12
4.24088e-12
1.11153e-09
1.57896e-07
2.91903e-07
4.39164e-07
6.02926e-07
7.83756e-07
9.79359e-07
1.18497e-06
1.39442e-06
1.60106e-06
1.79814e-06
1.97894e-06
2.13701e-06
2.26652e-06
2.36271e-06
2.42203e-06
2.44231e-06
2.42282e-06
2.36426e-06
2.26878e-06
2.13989e-06
1.98235e-06
1.80195e-06
1.60513e-06
1.39863e-06
1.18916e-06
9.83371e-07
7.87426e-07
6.06098e-07
4.41706e-07
2.93719e-07
1.58932e-07
1.11929e-09
4.27108e-12
4.24088e-12
1.11153e-09
1.57896e-07
2.91903e-07
4.39164e-07
6.02926e-07
7.83756e-07
9.79359e-07
1.18497e-06
1.39442e-06
1.60106e-06
1.79814e-06
1.97894e-06
2.13701e-06
2.26652e-06
2.36271e-06
2.42203e-06
2.44231e-06
2.42282e-06
2.36426e-06
2.26878e-06
2.13989e-06
1.98235e-06
1.80195e-06
1.60513e-06
1.39863e-06
1.18916e-06
9.83371e-07
7.87426e-07
6.06098e-07
4.41706e-07
2.93719e-07
1.58932e-07
1.11929e-09
4.27108e-12
4.24088e-12
1.11153e-09
1.57896e-07
2.91903e-07
4.39164e-07
6.02926e-07
7.83756e-07
9.79359e-07
1.18497e-06
1.39442e-06
1.60106e-06
1.79814e-06
1.97894e-06
2.13701e-06
2.26652e-06
2.36271e-06
2.42203e-06
2.44231e-06
2.42282e-06
2.36426e-06
2.26878e-06
2.13989e-06
1.98235e-06
1.80195e-06
1.60513e-06
1.39863e-06
1.18916e-06
9.83371e-07
7.87426e-07
6.06098e-07
4.41706e-07
2.93719e-07
1.58932e-07
1.11929e-09
4.27108e-12
4.24088e-12
1.11153e-09
1.57896e-07
2.91903e-07
4.39164e-07
6.02926e-07
7.83756e-07
9.79359e-07
1.18497e-06
1.39442e-06
1.60106e-06
1.79814e-06
1.97894e-06
2.13701e-06
2.26652e-06
2.36271e-06
2.42203e-06
2.44231e-06
2.42282e-06
2.36426e-06
2.26878e-06
2.13989e-06
1.98235e-06
1.80195e-06
1.60513e-06
1.39863e-06
1.18916e-06
9.83371e-07
7.87426e-07
6.06098e-07
4.41706e-07
2.93719e-07
1.58932e-07
1.11929e-09
4.27108e-12
4.24088e-12
1.11153e-09
1.57896e-07
2.91903e-07
4.39164e-07
6.02926e-07
7.83756e-07
9.79359e-07
1.18497e-06
1.39442e-06
1.60106e-06
1.79814e-06
1.97894e-06
2.13701e-06
2.26652e-06
2.36271e-06
2.42203e-06
2.44231e-06
2.42282e-06
2.36426e-06
2.26878e-06
2.13989e-06
1.98235e-06
1.80195e-06
1.60513e-06
1.39863e-06
1.18916e-06
9.83371e-07
7.87426e-07
6.06098e-07
4.41706e-07
2.93719e-07
1.58932e-07
1.11929e-09
4.27108e-12
4.24088e-12
1.11153e-09
1.57896e-07
2.91903e-07
4.39164e-07
6.02926e-07
7.83756e-07
9.79359e-07
1.18497e-06
1.39442e-06
1.60106e-06
1.79814e-06
1.97894e-06
2.13701e-06
2.26652e-06
2.36271e-06
2.42203e-06
2.44231e-06
2.42282e-06
2.36426e-06
2.26878e-06
2.13989e-06
1.98235e-06
1.80195e-06
1.60513e-06
1.39863e-06
1.18916e-06
9.83371e-07
7.87426e-07
6.06098e-07
4.41706e-07
2.93719e-07
1.58932e-07
1.11929e-09
4.27108e-12
4.24088e-12
1.11153e-09
1.57896e-07
2.91903e-07
4.39164e-07
6.02926e-07
7.83756e-07
9.79359e-07
1.18497e-06
1.39442e-06
1.60106e-06
1.79814e-06
1.97894e-06
2.13701e-06
2.26652e-06
2.36271e-06
2.42203e-06
2.44231e-06
2.42282e-06
2.36426e-06
2.26878e-06
2.13989e-06
1.98235e-06
1.80195e-06
1.60513e-06
1.39863e-06
1.18916e-06
9.83371e-07
7.87426e-07
6.06098e-07
4.41706e-07
2.93719e-07
1.58932e-07
1.11929e-09
4.27108e-12
4.24088e-12
1.11153e-09
1.57896e-07
2.91903e-07
4.39164e-07
6.02926e-07
7.83756e-07
9.79359e-07
1.18497e-06
1.39442e-06
1.60106e-06
1.79814e-06
1.97894e-06
2.13701e-06
2.26652e-06
2.36271e-06
2.42203e-06
2.44231e-06
2.42282e-06
2.36426e-06
2.26878e-06
2.13989e-06
1.98235e-06
1.80195e-06
1.60513e-06
1.39863e-06
1.18916e-06
9.83371e-07
7.87426e-07
6.06098e-07
4.41706e-07
2.93719e-07
1.58932e-07
1.11929e-09
4.27108e-12
4.24088e-12
1.11153e-09
1.57896e-07
2.91903e-07
4.39164e-07
6.02926e-07
7.83756e-07
9.79359e-07
1.18497e-06
1.39442e-06
1.60106e-06
1.79814e-06
1.97894e-06
2.13701e-06
2.26652e-06
2.36271e-06
2.42203e-06
2.44231e-06
2.42282e-06
2.36426e-06
2.26878e-06
2.13989e-06
1.98235e-06
1.80195e-06
1.60513e-06
1.39863e-06
1.18916e-06
9.83371e-07
7.87426e-07
6.06098e-07
4.41706e-07
2.93719e-07
1.58932e-07
1.11929e-09
4.27108e-12
4.24088e-12
1.11153e-09
1.57896e-07
2.91903e-07
4.39164e-07
6.02926e-07
7.83756e-07
9.79359e-07
1.18497e-06
1.39442e-06
1.60106e-06
1.79814e-06
1.97894e-06
2.13701e-06
2.26652e-06
2.36271e-06
2.42203e-06
2.44231e-06
2.42282e-06
2.36426e-06
2.26878e-06
2.13989e-06
1.98235e-06
1.80195e-06
1.60513e-06
1.39863e-06
1.18916e-06
9.83371e-07
7.87426e-07
6.06098e-07
4.41706e-07
2.93719e-07
1.58932e-07
1.11929e-09
4.27108e-12
4.24088e-12
1.11153e-09
1.57896e-07
2.91903e-07
4.39164e-07
6.02926e-07
7.83756e-07
9.79359e-07
1.18497e-06
1.39442e-06
1.60106e-06
1.79814e-06
1.97894e-06
2.13701e-06
2.26652e-06
2.36271e-06
2.42203e-06
2.44231e-06
2.42282e-06
2.36426e-06
2.26878e-06
2.13989e-06
1.98235e-06
1.80195e-06
1.60513e-06
1.39863e-06
1.18916e-06
9.83371e-07
7.87426e-07
6.06098e-07
4.41706e-07
2.93719e-07
1.58932e-07
1.11929e-09
4.27108e-12
4.24088e-12
1.11153e-09
1.57896e-07
2.91903e-07
4.39164e-07
6.02926e-07
7.83756e-07
9.79359e-07
1.18497e-06
1.39442e-06
1.60106e-06
1.79814e-06
1.97894e-06
2.13701e-06
2.26652e-06
2.36271e-06
2.42203e-06
2.44231e-06
2.42282e-06
2.36426e-06
2.26878e-06
2.13989e-06
1.98235e-06
1.80195e-06
1.60513e-06
1.39863e-06
1.18916e-06
9.83371e-07
7.87426e-07
6.06098e-07
4.41706e-07
2.93719e-07
1.58932e-07
1.11929e-09
4.27108e-12
4.24088e-12
1.11153e-09
1.57896e-07
2.91903e-07
4.39164e-07
6.02926e-07
7.83756e-07
9.79359e-07
1.18497e-06
1.39442e-06
1.60106e-06
1.79814e-06
1.97894e-06
2.13701e-06
2.26652e-06
2.36271e-06
2.42203e-06
2.44231e-06
2.42282e-06
2.36426e-06
2.26878e-06
2.13989e-06
1.98235e-06
1.80195e-06
1.60513e-06
1.39863e-06
1.18916e-06
9.83371e-07
7.87426e-07
6.06098e-07
4.41706e-07
2.93719e-07
1.58932e-07
1.11929e-09
4.27108e-12
4.24088e-12
1.11153e-09
1.57896e-07
2.91903e-07
4.39164e-07
6.02926e-07
7.83756e-07
9.79359e-07
1.18497e-06
1.39442e-06
1.60106e-06
1.79814e-06
1.97894e-06
2.13701e-06
2.26652e-06
2.36271e-06
2.42203e-06
2.44231e-06
2.42282e-06
2.36426e-06
2.26878e-06
2.13989e-06
1.98235e-06
1.80195e-06
1.60513e-06
1.39863e-06
1.18916e-06
9.83371e-07
7.87426e-07
6.06098e-07
4.41706e-07
2.93719e-07
1.58932e-07
1.11929e-09
4.27108e-12
4.24088e-12
1.11153e-09
1.57896e-07
2.91903e-07
4.39164e-07
6.02926e-07
7.83756e-07
9.79359e-07
1.18497e-06
1.39442e-06
1.60106e-06
1.79814e-06
1.97894e-06
2.13701e-06
2.26652e-06
2.36271e-06
2.42203e-06
2.44231e-06
2.42282e-06
2.36426e-06
2.26878e-06
2.13989e-06
1.98235e-06
1.80195e-06
1.60513e-06
1.39863e-06
1.18916e-06
9.83371e-07
7.87426e-07
6.06098e-07
4.41706e-07
2.93719e-07
1.58932e-07
1.11929e-09
4.27108e-12
4.24088e-12
1.11153e-09
1.57896e-07
2.91903e-07
4.39164e-07
6.02926e-07
7.83756e-07
9.79359e-07
1.18497e-06
1.39442e-06
1.60106e-06
1.79814e-06
1.97894e-06
2.13701e-06
2.26652e-06
2.36271e-06
2.42203e-06
2.44231e-06
2.42282e-06
2.36426e-06
2.26878e-06
2.13989e-06
1.98235e-06
1.80195e-06
1.60513e-06
1.39863e-06
1.18916e-06
9.83371e-07
7.87426e-07
6.06098e-07
4.41706e-07
2.93719e-07
1.58932e-07
1.11929e-09
4.27108e-12
4.24088e-12
1.11153e-09
1.57896e-07
2.91903e-07
4.39164e-07
6.02926e-07
7.83756e-07
9.79359e-07
1.18497e-06
1.39442e-06
1.60106e-06
1.79814e-06
1.97894e-06
2.13701e-06
2.26652e-06
2.36271e-06
2.42203e-06
2.44231e-06
2.42282e-06
2.36426e-06
2.26878e-06
2.13989e-06
1.98235e-06
1.80195e-06
1.60513e-06
1.39863e-06
1.18916e-06
9.83371e-07
7.87426e-07
6.06098e-07
4.41706e-07
2.93719e-07
1.58932e-07
1.11929e-09
4.27108e-12
4.24088e-12
1.11153e-09
1.57896e-07
2.91903e-07
4.39164e-07
6.02926e-07
7.83756e-07
9.79359e-07
1.18497e-06
1.39442e-06
1.60106e-06
1.79814e-06
1.97894e-06
2.13701e-06
2.26652e-06
2.36271e-06
2.42203e-06
2.44231e-06
2.42282e-06
2.36426e-06
2.26878e-06
2.13989e-06
1.98235e-06
1.80195e-06
1.60513e-06
1.39863e-06
1.18916e-06
9.83371e-07
7.87426e-07
6.06098e-07
4.41706e-07
2.93719e-07
1.58932e-07
1.11929e-09
4.27108e-12
4.24088e-12
1.11153e-09
1.57896e-07
2.91903e-07
4.39164e-07
6.02926e-07
7.83756e-07
9.79359e-07
1.18497e-06
1.39442e-06
1.60106e-06
1.79814e-06
1.97894e-06
2.13701e-06
2.26652e-06
2.36271e-06
2.42203e-06
2.44231e-06
2.42282e-06
2.36426e-06
2.26878e-06
2.13989e-06
1.98235e-06
1.80195e-06
1.60513e-06
1.39863e-06
1.18916e-06
9.83371e-07
7.87426e-07
6.06098e-07
4.41706e-07
2.93719e-07
1.58932e-07
1.11929e-09
4.27108e-12
4.24088e-12
1.11153e-09
1.57896e-07
2.91903e-07
4.39164e-07
6.02926e-07
7.83756e-07
9.79359e-07
1.18497e-06
1.39442e-06
1.60106e-06
1.79814e-06
1.97894e-06
2.13701e-06
2.26652e-06
2.36271e-06
2.42203e-06
2.44231e-06
2.42282e-06
2.36426e-06
2.26878e-06
2.13989e-06
1.98235e-06
1.80195e-06
1.60513e-06
1.39863e-06
1.18916e-06
9.83371e-07
7.87426e-07
6.06098e-07
4.41706e-07
2.93719e-07
1.58932e-07
1.11929e-09
4.27108e-12
4.24088e-12
1.11153e-09
1.57896e-07
2.91903e-07
4.39164e-07
6.02926e-07
7.83756e-07
9.79359e-07
1.18497e-06
1.39442e-06
1.60106e-06
1.79814e-06
1.97894e-06
2.13701e-06
2.26652e-06
2.36271e-06
2.42203e-06
2.44231e-06
2.42282e-06
2.36426e-06
2.26878e-06
2.13989e-06
1.98235e-06
1.80195e-06
1.60513e-06
1.39863e-06
1.18916e-06
9.83371e-07
7.87426e-07
6.06098e-07
4.41706e-07
2.93719e-07
1.58932e-07
1.11929e-09
4.27108e-12
4.24088e-12
1.11153e-09
1.57896e-07
2.91903e-07
4.39164e-07
6.02926e-07
7.83756e-07
9.79359e-07
1.18497e-06
1.39442e-06
1.60106e-06
1.79814e-06
1.97894e-06
2.13701e-06
2.26652e-06
2.36271e-06
2.42203e-06
2.44231e-06
2.42282e-06
2.36426e-06
2.26878e-06
2.13989e-06
1.98235e-06
1.80195e-06
1.60513e-06
1.39863e-06
1.18916e-06
9.83371e-07
7.87426e-07
6.06098e-07
4.41706e-07
2.93719e-07
1.58932e-07
1.11929e-09
4.27108e-12
4.24088e-12
1.11153e-09
1.57896e-07
2.91903e-07
4.39164e-07
6.02926e-07
7.83756e-07
9.79359e-07
1.18497e-06
1.39442e-06
1.60106e-06
1.79814e-06
1.97894e-06
2.13701e-06
2.26652e-06
2.36271e-06
2.42203e-06
2.44231e-06
2.42282e-06
2.36426e-06
2.26878e-06
2.13989e-06
1.98235e-06
1.80195e-06
1.60513e-06
1.39863e-06
1.18916e-06
9.83371e-07
7.87426e-07
6.06098e-07
4.41706e-07
2.93719e-07
1.58932e-07
1.11929e-09
4.27108e-12
4.24088e-12
1.11153e-09
1.57896e-07
2.91903e-07
4.39164e-07
6.02926e-07
7.83756e-07
9.79359e-07
1.18497e-06
1.39442e-06
1.60106e-06
1.79814e-06
1.97894e-06
2.13701e-06
2.26652e-06
2.36271e-06
2.42203e-06
2.44231e-06
2.42282e-06
2.36426e-06
2.26878e-06
2.13989e-06
1.98235e-06
1.80195e-06
1.60513e-06
1.39863e-06
1.18916e-06
9.83371e-07
7.87426e-07
6.06098e-07
4.41706e-07
2.93719e-07
1.58932e-07
1.11929e-09
4.27108e-12
4.24088e-12
1.11153e-09
1.57896e-07
2.91903e-07
4.39164e-07
6.02926e-07
7.83756e-07
9.79359e-07
1.18497e-06
1.39442e-06
1.60106e-06
1.79814e-06
1.97894e-06
2.13701e-06
2.26652e-06
2.36271e-06
2.42203e-06
2.44231e-06
2.42282e-06
2.36426e-06
2.26878e-06
2.13989e-06
1.98235e-06
1.80195e-06
1.60513e-06
1.39863e-06
1.18916e-06
9.83371e-07
7.87426e-07
6.06098e-07
4.41706e-07
2.93719e-07
1.58932e-07
1.11929e-09
4.27108e-12
4.24088e-12
1.11153e-09
1.57896e-07
2.91903e-07
4.39164e-07
6.02926e-07
7.83756e-07
9.79359e-07
1.18497e-06
1.39442e-06
1.60106e-06
1.79814e-06
1.97894e-06
2.13701e-06
2.26652e-06
2.36271e-06
2.42203e-06
2.44231e-06
2.42282e-06
2.36426e-06
2.26878e-06
2.13989e-06
1.98235e-06
1.80195e-06
1.60513e-06
1.39863e-06
1.18916e-06
9.83371e-07
7.87426e-07
6.06098e-07
4.41706e-07
2.93719e-07
1.58932e-07
1.11929e-09
4.27108e-12
4.24088e-12
1.11153e-09
1.57896e-07
2.91903e-07
4.39164e-07
6.02926e-07
7.83756e-07
9.79359e-07
1.18497e-06
1.39442e-06
1.60106e-06
1.79814e-06
1.97894e-06
2.13701e-06
2.26652e-06
2.36271e-06
2.42203e-06
2.44231e-06
2.42282e-06
2.36426e-06
2.26878e-06
2.13989e-06
1.98235e-06
1.80195e-06
1.60513e-06
1.39863e-06
1.18916e-06
9.83371e-07
7.87426e-07
6.06098e-07
4.41706e-07
2.93719e-07
1.58932e-07
1.11929e-09
4.27108e-12
4.24088e-12
1.11153e-09
1.57896e-07
2.91903e-07
4.39164e-07
6.02926e-07
7.83756e-07
9.79359e-07
1.18497e-06
1.39442e-06
1.60106e-06
1.79814e-06
1.97894e-06
2.13701e-06
2.26652e-06
2.36271e-06
2.42203e-06
2.44231e-06
2.42282e-06
2.36426e-06
2.26878e-06
2.13989e-06
1.98235e-06
1.80195e-06
1.60513e-06
1.39863e-06
1.18916e-06
9.83371e-07
7.87426e-07
6.06098e-07
4.41706e-07
2.93719e-07
1.58932e-07
1.11929e-09
4.27108e-12
4.24088e-12
1.11153e-09
1.57896e-07
2.91903e-07
4.39164e-07
6.02926e-07
7.83756e-07
9.79359e-07
1.18497e-06
1.39442e-06
1.60106e-06
1.79814e-06
1.97894e-06
2.13701e-06
2.26652e-06
2.36271e-06
2.42203e-06
2.44231e-06
2.42282e-06
2.36426e-06
2.26878e-06
2.13989e-06
1.98235e-06
1.80195e-06
1.60513e-06
1.39863e-06
1.18916e-06
9.83371e-07
7.87426e-07
6.06098e-07
4.41706e-07
2.93719e-07
1.58932e-07
1.11929e-09
4.27108e-12
4.24088e-12
1.11153e-09
1.57896e-07
2.91903e-07
4.39164e-07
6.02926e-07
7.83756e-07
9.79359e-07
1.18497e-06
1.39442e-06
1.60106e-06
1.79814e-06
1.97894e-06
2.13701e-06
2.26652e-06
2.36271e-06
2.42203e-06
2.44231e-06
2.42282e-06
2.36426e-06
2.26878e-06
2.13989e-06
1.98235e-06
1.80195e-06
1.60513e-06
1.39863e-06
1.18916e-06
9.83371e-07
7.87426e-07
6.06098e-07
4.41706e-07
2.93719e-07
1.58932e-07
1.11929e-09
4.27108e-12
4.24088e-12
1.11153e-09
1.57896e-07
2.91903e-07
4.39164e-07
6.02926e-07
7.83756e-07
9.79359e-07
1.18497e-06
1.39442e-06
1.60106e-06
1.79814e-06
1.97894e-06
2.13701e-06
2.26652e-06
2.36271e-06
2.42203e-06
2.44231e-06
2.42282e-06
2.36426e-06
2.26878e-06
2.13989e-06
1.98235e-06
1.80195e-06
1.60513e-06
1.39863e-06
1.18916e-06
9.83371e-07
7.87426e-07
6.06098e-07
4.41706e-07
2.93719e-07
1.58932e-07
1.11929e-09
4.27108e-12
4.24088e-12
1.11153e-09
1.57896e-07
2.91903e-07
4.39164e-07
6.02926e-07
7.83756e-07
9.79359e-07
1.18497e-06
1.39442e-06
1.60106e-06
1.79814e-06
1.97894e-06
2.13701e-06
2.26652e-06
2.36271e-06
2.42203e-06
2.44231e-06
2.42282e-06
2.36426e-06
2.26878e-06
2.13989e-06
1.98235e-06
1.80195e-06
1.60513e-06
1.39863e-06
1.18916e-06
9.83371e-07
7.87426e-07
6.06098e-07
4.41706e-07
2.93719e-07
1.58932e-07
1.11929e-09
4.27108e-12
4.24088e-12
1.11153e-09
1.57896e-07
2.91903e-07
4.39164e-07
6.02926e-07
7.83756e-07
9.79359e-07
1.18497e-06
1.39442e-06
1.60106e-06
1.79814e-06
1.97894e-06
2.13701e-06
2.26652e-06
2.36271e-06
2.42203e-06
2.44231e-06
2.42282e-06
2.36426e-06
2.26878e-06
2.13989e-06
1.98235e-06
1.80195e-06
1.60513e-06
1.39863e-06
1.18916e-06
9.83371e-07
7.87426e-07
6.06098e-07
4.41706e-07
2.93719e-07
1.58932e-07
1.11929e-09
4.27108e-12
4.24088e-12
1.11153e-09
1.57896e-07
2.91903e-07
4.39164e-07
6.02926e-07
7.83756e-07
9.79359e-07
1.18497e-06
1.39442e-06
1.60106e-06
1.79814e-06
1.97894e-06
2.13701e-06
2.26652e-06
2.36271e-06
2.42203e-06
2.44231e-06
2.42282e-06
2.36426e-06
2.26878e-06
2.13989e-06
1.98235e-06
1.80195e-06
1.60513e-06
1.39863e-06
1.18916e-06
9.83371e-07
7.87426e-07
6.06098e-07
4.41706e-07
2.93719e-07
1.58932e-07
1.11929e-09
4.27108e-12
4.24088e-12
1.11153e-09
1.57896e-07
2.91903e-07
4.39164e-07
6.02926e-07
7.83756e-07
9.79359e-07
1.18497e-06
1.39442e-06
1.60106e-06
1.79814e-06
1.97894e-06
2.13701e-06
2.26652e-06
2.36271e-06
2.42203e-06
2.44231e-06
2.42282e-06
2.36426e-06
2.26878e-06
2.13989e-06
1.98235e-06
1.80195e-06
1.60513e-06
1.39863e-06
1.18916e-06
9.83371e-07
7.87426e-07
6.06098e-07
4.41706e-07
2.93719e-07
1.58932e-07
1.11929e-09
4.27108e-12