/*--------------------------------*- C++ -*----------------------------------*\
  =========                 |
  \\      /  F ield         | OpenFOAM: The Open Source CFD Toolbox
   \\    /   O peration     | Website:  https://openfoam.org
    \\  /    A nd           | Version:  13
     \\/     M anipulation  |
\*---------------------------------------------------------------------------*/
FoamFile
{
    format      ascii;
    class       volScalarField;
    location    "92.5";
    object      nut;
}
// * * * * * * * * * * * * * * * * * * * * * * * * * * * * * * * * * * * * * //

dimensions      [0 2 -1 0 0 0 0];

internalField   nonuniform List<scalar> 
315000
(
1.59013e-14
4.16385e-12
9.4998e-11
1.7046e-10
2.4706e-10
3.24924e-10
4.04221e-10
4.85097e-10
5.67644e-10
6.51884e-10
7.37763e-10
8.25149e-10
9.13833e-10
1.00354e-09
1.09393e-09
1.18462e-09
1.27516e-09
1.36509e-09
1.4539e-09
1.54109e-09
1.62611e-09
1.70845e-09
1.78757e-09
1.86294e-09
1.93408e-09
2.00049e-09
2.0617e-09
2.11729e-09
2.16687e-09
2.21007e-09
2.24659e-09
2.27615e-09
2.29854e-09
2.31359e-09
2.32119e-09
2.32128e-09
2.31386e-09
2.299e-09
2.27679e-09
2.2474e-09
2.21105e-09
2.16801e-09
2.11859e-09
2.06313e-09
2.00205e-09
1.93577e-09
1.86474e-09
1.78946e-09
1.71042e-09
1.62815e-09
1.54318e-09
1.45603e-09
1.36725e-09
1.27733e-09
1.18678e-09
1.09608e-09
1.00565e-09
9.15893e-10
8.27145e-10
7.39682e-10
6.53711e-10
5.69365e-10
4.86696e-10
4.05682e-10
3.26225e-10
2.48174e-10
1.71346e-10
9.55863e-11
4.19548e-12
1.60352e-14
3.98007e-13
1.05976e-10
2.41153e-08
4.35747e-08
6.32192e-08
8.31285e-08
1.03367e-07
1.23983e-07
1.45004e-07
1.66435e-07
1.88262e-07
2.1045e-07
2.32945e-07
2.55673e-07
2.78546e-07
3.01465e-07
3.24316e-07
3.46981e-07
3.69334e-07
3.91245e-07
4.12584e-07
4.33219e-07
4.5302e-07
4.71861e-07
4.89619e-07
5.06177e-07
5.21423e-07
5.35256e-07
5.47579e-07
5.5831e-07
5.67372e-07
5.74704e-07
5.80252e-07
5.8398e-07
5.85859e-07
5.85877e-07
5.84034e-07
5.80343e-07
5.74829e-07
5.67532e-07
5.58502e-07
5.47804e-07
5.3551e-07
5.21706e-07
5.06485e-07
4.89952e-07
4.72215e-07
4.53393e-07
4.33608e-07
4.12986e-07
3.91658e-07
3.69754e-07
3.47406e-07
3.24743e-07
3.0189e-07
2.78966e-07
2.56085e-07
2.33346e-07
2.10837e-07
1.88631e-07
1.66783e-07
1.45328e-07
1.2428e-07
1.03632e-07
8.3357e-08
6.34065e-08
4.37145e-08
2.41996e-08
1.0638e-10
3.99578e-13
1.60341e-12
4.27557e-10
2.46271e-07
4.42158e-07
6.37784e-07
8.34214e-07
1.03227e-06
1.23253e-06
1.43531e-06
1.64066e-06
1.84841e-06
2.05813e-06
2.26923e-06
2.48095e-06
2.69239e-06
2.90258e-06
3.11047e-06
3.31501e-06
3.51512e-06
3.70975e-06
3.89785e-06
4.07841e-06
4.25047e-06
4.41311e-06
4.56545e-06
4.70669e-06
4.83607e-06
4.9529e-06
5.05655e-06
5.14647e-06
5.22218e-06
5.28326e-06
5.32939e-06
5.36032e-06
5.37589e-06
5.376e-06
5.36067e-06
5.32996e-06
5.28406e-06
5.22319e-06
5.1477e-06
5.05799e-06
4.95453e-06
4.83789e-06
4.70869e-06
4.56761e-06
4.41541e-06
4.25291e-06
4.08097e-06
3.9005e-06
3.71249e-06
3.51792e-06
3.31785e-06
3.11333e-06
2.90544e-06
2.69524e-06
2.48375e-06
2.27197e-06
2.06077e-06
1.85093e-06
1.64304e-06
1.43752e-06
1.23455e-06
1.03407e-06
8.35752e-07
6.39035e-07
4.43083e-07
2.46822e-07
4.2858e-10
1.60734e-12
2.95861e-12
7.89039e-10
4.51475e-07
8.05342e-07
1.15548e-06
1.50437e-06
1.85388e-06
2.20528e-06
2.55925e-06
2.91592e-06
3.27495e-06
3.63555e-06
3.9966e-06
4.3567e-06
4.71433e-06
5.06784e-06
5.41558e-06
5.75588e-06
6.08714e-06
6.40776e-06
6.71624e-06
7.01112e-06
7.29099e-06
7.55458e-06
7.80072e-06
8.02827e-06
8.23621e-06
8.42358e-06
8.58951e-06
8.73323e-06
8.85407e-06
8.95145e-06
9.02493e-06
9.07416e-06
9.0989e-06
9.09904e-06
9.07458e-06
9.02562e-06
8.95241e-06
8.85529e-06
8.73471e-06
8.59124e-06
8.42555e-06
8.23841e-06
8.03069e-06
7.80333e-06
7.55738e-06
7.29396e-06
7.01424e-06
6.71949e-06
6.41112e-06
6.09058e-06
5.75939e-06
5.41913e-06
5.0714e-06
4.71788e-06
4.3602e-06
4.00002e-06
3.63887e-06
3.27813e-06
2.91893e-06
2.56206e-06
2.20785e-06
1.85617e-06
1.50633e-06
1.15708e-06
8.06529e-07
4.52186e-07
7.90379e-10
2.96376e-12
4.43838e-12
1.18387e-09
6.72598e-07
1.19172e-06
1.7006e-06
2.20386e-06
2.70487e-06
3.20583e-06
3.70795e-06
4.21153e-06
4.71611e-06
5.2206e-06
5.72345e-06
6.22281e-06
6.71667e-06
7.20296e-06
7.67958e-06
8.14452e-06
8.59587e-06
9.0318e-06
9.45056e-06
9.85047e-06
1.02299e-05
1.05872e-05
1.09208e-05
1.12293e-05
1.15113e-05
1.17653e-05
1.19903e-05
1.21852e-05
1.23491e-05
1.24811e-05
1.25807e-05
1.26474e-05
1.26809e-05
1.26811e-05
1.26478e-05
1.25814e-05
1.24821e-05
1.23503e-05
1.21868e-05
1.19921e-05
1.17674e-05
1.15135e-05
1.12318e-05
1.09235e-05
1.05901e-05
1.02329e-05
9.85369e-06
9.45392e-06
9.03527e-06
8.59944e-06
8.14816e-06
7.68327e-06
7.20667e-06
6.72038e-06
6.22648e-06
5.72705e-06
5.2241e-06
4.71947e-06
4.21473e-06
3.71094e-06
3.20857e-06
2.70731e-06
2.20597e-06
1.70233e-06
1.19302e-06
6.73382e-07
1.18538e-09
4.44419e-12
5.93267e-12
1.58273e-09
8.92905e-07
1.57182e-06
2.23153e-06
2.87944e-06
3.52077e-06
4.15889e-06
4.79567e-06
5.43169e-06
6.06649e-06
6.69884e-06
7.32694e-06
7.94871e-06
8.56188e-06
9.16418e-06
9.75339e-06
1.03274e-05
1.08841e-05
1.14215e-05
1.19377e-05
1.24306e-05
1.28983e-05
1.33387e-05
1.37498e-05
1.41298e-05
1.44769e-05
1.47894e-05
1.50661e-05
1.53056e-05
1.55068e-05
1.56689e-05
1.57911e-05
1.58729e-05
1.59139e-05
1.59141e-05
1.58733e-05
1.57917e-05
1.56698e-05
1.55079e-05
1.5307e-05
1.50677e-05
1.47913e-05
1.4479e-05
1.41321e-05
1.37523e-05
1.33414e-05
1.29011e-05
1.24336e-05
1.19408e-05
1.14248e-05
1.08874e-05
1.03308e-05
9.75689e-06
9.1677e-06
8.5654e-06
7.95221e-06
7.33038e-06
6.70219e-06
6.06972e-06
5.43477e-06
4.79856e-06
4.16155e-06
3.52315e-06
2.88151e-06
2.23323e-06
1.5731e-06
8.93689e-07
1.58426e-09
5.93862e-12
7.31238e-12
1.95116e-09
1.0938e-06
1.9145e-06
2.70607e-06
3.479e-06
4.24049e-06
4.99518e-06
5.74562e-06
6.49275e-06
7.23623e-06
7.97479e-06
8.70658e-06
9.42938e-06
1.01409e-05
1.08387e-05
1.15206e-05
1.21844e-05
1.28278e-05
1.34488e-05
1.40451e-05
1.46144e-05
1.51543e-05
1.56624e-05
1.61363e-05
1.65741e-05
1.69737e-05
1.73333e-05
1.76515e-05
1.79267e-05
1.81579e-05
1.8344e-05
1.84843e-05
1.85783e-05
1.86254e-05
1.86255e-05
1.85786e-05
1.84849e-05
1.83448e-05
1.81589e-05
1.7928e-05
1.76529e-05
1.7335e-05
1.69756e-05
1.65762e-05
1.61386e-05
1.56648e-05
1.51569e-05
1.46171e-05
1.4048e-05
1.34518e-05
1.28309e-05
1.21875e-05
1.15238e-05
1.08419e-05
1.01441e-05
9.43254e-06
8.70969e-06
7.97784e-06
7.23917e-06
6.49556e-06
5.74826e-06
4.99761e-06
4.24268e-06
3.4809e-06
2.70764e-06
1.91569e-06
1.09454e-06
1.95263e-09
7.31811e-12
8.47814e-12
2.2626e-09
1.26177e-06
2.19836e-06
3.09645e-06
3.96954e-06
4.82668e-06
5.67365e-06
6.51368e-06
7.34805e-06
8.17656e-06
8.998e-06
9.81051e-06
1.06119e-05
1.13997e-05
1.21717e-05
1.29255e-05
1.36589e-05
1.43696e-05
1.50554e-05
1.57136e-05
1.63417e-05
1.6937e-05
1.74969e-05
1.8019e-05
1.85009e-05
1.89406e-05
1.93362e-05
1.96859e-05
1.99885e-05
2.02425e-05
2.0447e-05
2.06011e-05
2.07043e-05
2.0756e-05
2.07561e-05
2.07046e-05
2.06016e-05
2.04477e-05
2.02434e-05
1.99896e-05
1.96872e-05
1.93376e-05
1.89422e-05
1.85027e-05
1.8021e-05
1.74991e-05
1.69393e-05
1.63441e-05
1.57161e-05
1.50579e-05
1.43723e-05
1.36617e-05
1.29283e-05
1.21745e-05
1.14025e-05
1.06147e-05
9.81328e-06
9.00071e-06
8.17919e-06
7.35056e-06
6.51604e-06
5.67584e-06
4.82865e-06
3.97126e-06
3.09788e-06
2.19943e-06
1.26244e-06
2.26397e-09
8.48349e-12
9.38384e-12
2.5047e-09
1.39122e-06
2.41558e-06
3.39371e-06
4.34161e-06
5.26991e-06
6.18531e-06
7.0916e-06
7.99034e-06
8.8815e-06
9.76391e-06
1.06357e-05
1.14948e-05
1.23387e-05
1.31651e-05
1.39717e-05
1.47562e-05
1.55163e-05
1.62494e-05
1.69529e-05
1.7624e-05
1.82598e-05
1.88575e-05
1.94146e-05
1.99286e-05
2.03975e-05
2.08192e-05
2.1192e-05
2.15144e-05
2.17851e-05
2.20029e-05
2.21671e-05
2.2277e-05
2.2332e-05
2.23321e-05
2.22772e-05
2.21676e-05
2.20036e-05
2.17859e-05
2.15154e-05
2.11932e-05
2.08205e-05
2.0399e-05
1.99302e-05
1.94163e-05
1.88594e-05
1.82618e-05
1.76261e-05
1.69551e-05
1.62517e-05
1.55186e-05
1.47587e-05
1.39742e-05
1.31676e-05
1.23412e-05
1.14973e-05
1.06382e-05
9.76636e-06
8.88387e-06
7.99261e-06
7.09374e-06
6.18729e-06
5.2717e-06
4.34317e-06
3.395e-06
2.41656e-06
1.39183e-06
2.50597e-09
9.38883e-12
1.00346e-11
2.67876e-09
1.48372e-06
2.57003e-06
3.60435e-06
4.60462e-06
5.58261e-06
6.54572e-06
7.49816e-06
8.4417e-06
9.37642e-06
1.03012e-05
1.12143e-05
1.21134e-05
1.29963e-05
1.38606e-05
1.47039e-05
1.55239e-05
1.63183e-05
1.70844e-05
1.78194e-05
1.85203e-05
1.91842e-05
1.98081e-05
2.03895e-05
2.09258e-05
2.14149e-05
2.18548e-05
2.22436e-05
2.25798e-05
2.2862e-05
2.30891e-05
2.32603e-05
2.33748e-05
2.34322e-05
2.34322e-05
2.3375e-05
2.32607e-05
2.30897e-05
2.28627e-05
2.25807e-05
2.22446e-05
2.1856e-05
2.14163e-05
2.09273e-05
2.03911e-05
1.98098e-05
1.9186e-05
1.85223e-05
1.78215e-05
1.70866e-05
1.63205e-05
1.55262e-05
1.47062e-05
1.38629e-05
1.29987e-05
1.21158e-05
1.12166e-05
1.03035e-05
9.37863e-06
8.44381e-06
7.50015e-06
6.54757e-06
5.58427e-06
4.60607e-06
3.60555e-06
2.57094e-06
1.4843e-06
2.67996e-09
1.00394e-11
1.04696e-11
2.79518e-09
1.54534e-06
2.67259e-06
3.74393e-06
4.77865e-06
5.78931e-06
6.78379e-06
7.76656e-06
8.73955e-06
9.70292e-06
1.06556e-05
1.15958e-05
1.25214e-05
1.34299e-05
1.43192e-05
1.51867e-05
1.60302e-05
1.68473e-05
1.76351e-05
1.83909e-05
1.91115e-05
1.97939e-05
2.04351e-05
2.10325e-05
2.15836e-05
2.20861e-05
2.25379e-05
2.29373e-05
2.32826e-05
2.35724e-05
2.38057e-05
2.39814e-05
2.4099e-05
2.4158e-05
2.4158e-05
2.40993e-05
2.39818e-05
2.38062e-05
2.35731e-05
2.32834e-05
2.29383e-05
2.25391e-05
2.20874e-05
2.1585e-05
2.10341e-05
2.04368e-05
1.97956e-05
1.91134e-05
1.83929e-05
1.76372e-05
1.68494e-05
1.60324e-05
1.51889e-05
1.43214e-05
1.34322e-05
1.25236e-05
1.1598e-05
1.06578e-05
9.70505e-06
8.74159e-06
7.76848e-06
6.78557e-06
5.79091e-06
4.78005e-06
3.74509e-06
2.67347e-06
1.54589e-06
2.79634e-09
1.04742e-11
1.07416e-11
2.86799e-09
1.58379e-06
2.73646e-06
3.83078e-06
4.88686e-06
5.91779e-06
6.93175e-06
7.93337e-06
8.92468e-06
9.90589e-06
1.08759e-05
1.18331e-05
1.27751e-05
1.36997e-05
1.46046e-05
1.54873e-05
1.63455e-05
1.71768e-05
1.79783e-05
1.87471e-05
1.948e-05
2.0174e-05
2.08261e-05
2.14336e-05
2.1994e-05
2.25049e-05
2.29642e-05
2.33702e-05
2.37212e-05
2.40159e-05
2.4253e-05
2.44317e-05
2.45512e-05
2.46111e-05
2.46112e-05
2.45514e-05
2.44321e-05
2.42535e-05
2.40166e-05
2.37221e-05
2.33712e-05
2.29654e-05
2.25062e-05
2.19954e-05
2.14352e-05
2.08278e-05
2.01758e-05
1.94819e-05
1.87491e-05
1.79803e-05
1.71789e-05
1.63477e-05
1.54895e-05
1.46068e-05
1.3702e-05
1.27774e-05
1.18353e-05
1.08781e-05
9.908e-06
8.9267e-06
7.93527e-06
6.93351e-06
5.91938e-06
4.88825e-06
3.83193e-06
2.73734e-06
1.58434e-06
2.86915e-09
1.07461e-11
1.09012e-11
2.91078e-09
1.60636e-06
2.77393e-06
3.88169e-06
4.9503e-06
5.99312e-06
7.01852e-06
8.03123e-06
9.03334e-06
1.00251e-05
1.10054e-05
1.19725e-05
1.29244e-05
1.38585e-05
1.47726e-05
1.56643e-05
1.65313e-05
1.7371e-05
1.81807e-05
1.89573e-05
1.96976e-05
2.03985e-05
2.10571e-05
2.16706e-05
2.22365e-05
2.27524e-05
2.32163e-05
2.36262e-05
2.39807e-05
2.42782e-05
2.45176e-05
2.4698e-05
2.48187e-05
2.48792e-05
2.48793e-05
2.48189e-05
2.46984e-05
2.45182e-05
2.42789e-05
2.39815e-05
2.36272e-05
2.32174e-05
2.27537e-05
2.22379e-05
2.16722e-05
2.10588e-05
2.04003e-05
1.96994e-05
1.89592e-05
1.81827e-05
1.73731e-05
1.65335e-05
1.56665e-05
1.47748e-05
1.38608e-05
1.29266e-05
1.19748e-05
1.10076e-05
1.00272e-05
9.03537e-06
8.03315e-06
7.02029e-06
5.99472e-06
4.95169e-06
3.88285e-06
2.77481e-06
1.60691e-06
2.91195e-09
1.09058e-11
1.09897e-11
2.93451e-09
1.61887e-06
2.79469e-06
3.90991e-06
4.98547e-06
6.0349e-06
7.06668e-06
8.08557e-06
9.09372e-06
1.00913e-05
1.10774e-05
1.20502e-05
1.30075e-05
1.3947e-05
1.48663e-05
1.57632e-05
1.66351e-05
1.74796e-05
1.82939e-05
1.90748e-05
1.98193e-05
2.05242e-05
2.11865e-05
2.18034e-05
2.23724e-05
2.28912e-05
2.33576e-05
2.37698e-05
2.41262e-05
2.44254e-05
2.46661e-05
2.48475e-05
2.49689e-05
2.50297e-05
2.50298e-05
2.49691e-05
2.48479e-05
2.46667e-05
2.44261e-05
2.41271e-05
2.37709e-05
2.33588e-05
2.28925e-05
2.23739e-05
2.1805e-05
2.11882e-05
2.0526e-05
1.98212e-05
1.90768e-05
1.82959e-05
1.74817e-05
1.66373e-05
1.57654e-05
1.48686e-05
1.39493e-05
1.30098e-05
1.20525e-05
1.10796e-05
1.00935e-05
9.09577e-06
8.08751e-06
7.06847e-06
6.03652e-06
4.98687e-06
3.91108e-06
2.79557e-06
1.61943e-06
2.93569e-09
1.09944e-11
1.10362e-11
2.94697e-09
1.62544e-06
2.80559e-06
3.92473e-06
5.00395e-06
6.05688e-06
7.09202e-06
8.1142e-06
9.12555e-06
1.01263e-05
1.11155e-05
1.20912e-05
1.30515e-05
1.39939e-05
1.4916e-05
1.58155e-05
1.66901e-05
1.75372e-05
1.8354e-05
1.91373e-05
1.98841e-05
2.05911e-05
2.12553e-05
2.18741e-05
2.24448e-05
2.29651e-05
2.3433e-05
2.38464e-05
2.42039e-05
2.45039e-05
2.47453e-05
2.49273e-05
2.5049e-05
2.511e-05
2.51101e-05
2.50492e-05
2.49277e-05
2.47459e-05
2.45046e-05
2.42047e-05
2.38474e-05
2.34341e-05
2.29665e-05
2.24463e-05
2.18757e-05
2.1257e-05
2.05929e-05
1.9886e-05
1.91393e-05
1.83561e-05
1.75394e-05
1.66924e-05
1.58178e-05
1.49183e-05
1.39962e-05
1.30538e-05
1.20935e-05
1.11177e-05
1.01285e-05
9.12762e-06
8.11615e-06
7.09383e-06
6.05851e-06
5.00537e-06
3.92591e-06
2.80648e-06
1.626e-06
2.94815e-09
1.10408e-11
1.10593e-11
2.95318e-09
1.62871e-06
2.81103e-06
3.93213e-06
5.01318e-06
6.06786e-06
7.1047e-06
8.12854e-06
9.14151e-06
1.01439e-05
1.11346e-05
1.21119e-05
1.30736e-05
1.40175e-05
1.4941e-05
1.5842e-05
1.67179e-05
1.75663e-05
1.83844e-05
1.91689e-05
1.99168e-05
2.06249e-05
2.12902e-05
2.19099e-05
2.24815e-05
2.30026e-05
2.34712e-05
2.38853e-05
2.42433e-05
2.45438e-05
2.47856e-05
2.49678e-05
2.50897e-05
2.51508e-05
2.51509e-05
2.50899e-05
2.49682e-05
2.47861e-05
2.45445e-05
2.42442e-05
2.38863e-05
2.34724e-05
2.3004e-05
2.2483e-05
2.19115e-05
2.12919e-05
2.06268e-05
1.99188e-05
1.9171e-05
1.83865e-05
1.75685e-05
1.67202e-05
1.58443e-05
1.49433e-05
1.40198e-05
1.30759e-05
1.21142e-05
1.11368e-05
1.0146e-05
9.1436e-06
8.13051e-06
7.10653e-06
6.06951e-06
5.01462e-06
3.93332e-06
2.81193e-06
1.62928e-06
2.95437e-09
1.1064e-11
1.10703e-11
2.95613e-09
1.63027e-06
2.81361e-06
3.93565e-06
5.01758e-06
6.0731e-06
7.11075e-06
8.13538e-06
9.14913e-06
1.01522e-05
1.11437e-05
1.21218e-05
1.30842e-05
1.40288e-05
1.4953e-05
1.58547e-05
1.67313e-05
1.75803e-05
1.8399e-05
1.91842e-05
1.99326e-05
2.06413e-05
2.13071e-05
2.19273e-05
2.24993e-05
2.30208e-05
2.34897e-05
2.39041e-05
2.42623e-05
2.45631e-05
2.48051e-05
2.49874e-05
2.51094e-05
2.51705e-05
2.51706e-05
2.51096e-05
2.49878e-05
2.48056e-05
2.45638e-05
2.42632e-05
2.39051e-05
2.34909e-05
2.30221e-05
2.25008e-05
2.19289e-05
2.13088e-05
2.06431e-05
1.99346e-05
1.91862e-05
1.84011e-05
1.75825e-05
1.67336e-05
1.5857e-05
1.49554e-05
1.40311e-05
1.30866e-05
1.21241e-05
1.1146e-05
1.01544e-05
9.15124e-06
8.13736e-06
7.11258e-06
6.07475e-06
5.01902e-06
3.93684e-06
2.81452e-06
1.63084e-06
2.95733e-09
1.1075e-11
1.10752e-11
2.95746e-09
1.63098e-06
2.81479e-06
3.93725e-06
5.01957e-06
6.07548e-06
7.11351e-06
8.1385e-06
9.15261e-06
1.01561e-05
1.11479e-05
1.21263e-05
1.30891e-05
1.4034e-05
1.49586e-05
1.58605e-05
1.67374e-05
1.75868e-05
1.84057e-05
1.91912e-05
1.99399e-05
2.06488e-05
2.13148e-05
2.19353e-05
2.25075e-05
2.30292e-05
2.34982e-05
2.39128e-05
2.42712e-05
2.4572e-05
2.48141e-05
2.49965e-05
2.51185e-05
2.51797e-05
2.51798e-05
2.51188e-05
2.49969e-05
2.48147e-05
2.45727e-05
2.42721e-05
2.39138e-05
2.34994e-05
2.30305e-05
2.2509e-05
2.19369e-05
2.13166e-05
2.06507e-05
1.99419e-05
1.91932e-05
1.84079e-05
1.7589e-05
1.67397e-05
1.58628e-05
1.49609e-05
1.40363e-05
1.30914e-05
1.21286e-05
1.11502e-05
1.01583e-05
9.15472e-06
8.14049e-06
7.11534e-06
6.07714e-06
5.02102e-06
3.93845e-06
2.8157e-06
1.63155e-06
2.95867e-09
1.108e-11
1.10774e-11
2.95804e-09
1.63128e-06
2.81529e-06
3.93794e-06
5.02044e-06
6.07651e-06
7.11471e-06
8.13986e-06
9.15413e-06
1.01578e-05
1.11497e-05
1.21283e-05
1.30912e-05
1.40363e-05
1.4961e-05
1.58631e-05
1.67401e-05
1.75896e-05
1.84087e-05
1.91943e-05
1.99431e-05
2.06521e-05
2.13183e-05
2.19388e-05
2.25111e-05
2.30329e-05
2.3502e-05
2.39166e-05
2.42751e-05
2.45759e-05
2.48181e-05
2.50005e-05
2.51226e-05
2.51837e-05
2.51838e-05
2.51228e-05
2.50009e-05
2.48187e-05
2.45767e-05
2.4276e-05
2.39177e-05
2.35032e-05
2.30342e-05
2.25126e-05
2.19404e-05
2.132e-05
2.0654e-05
1.99451e-05
1.91963e-05
1.84109e-05
1.75919e-05
1.67424e-05
1.58654e-05
1.49633e-05
1.40386e-05
1.30936e-05
1.21306e-05
1.1152e-05
1.016e-05
9.15625e-06
8.14185e-06
7.11655e-06
6.07818e-06
5.02189e-06
3.93914e-06
2.81621e-06
1.63186e-06
2.95925e-09
1.10821e-11
1.10783e-11
2.95828e-09
1.63141e-06
2.81551e-06
3.93823e-06
5.02081e-06
6.07695e-06
7.11521e-06
8.14043e-06
9.15477e-06
1.01585e-05
1.11505e-05
1.21291e-05
1.30921e-05
1.40372e-05
1.4962e-05
1.58642e-05
1.67413e-05
1.75908e-05
1.841e-05
1.91956e-05
1.99445e-05
2.06535e-05
2.13197e-05
2.19403e-05
2.25126e-05
2.30345e-05
2.35036e-05
2.39183e-05
2.42767e-05
2.45776e-05
2.48198e-05
2.50022e-05
2.51243e-05
2.51855e-05
2.51855e-05
2.51245e-05
2.50026e-05
2.48204e-05
2.45784e-05
2.42776e-05
2.39193e-05
2.35048e-05
2.30358e-05
2.25141e-05
2.19419e-05
2.13215e-05
2.06554e-05
1.99465e-05
1.91977e-05
1.84121e-05
1.75931e-05
1.67436e-05
1.58665e-05
1.49644e-05
1.40396e-05
1.30945e-05
1.21314e-05
1.11528e-05
1.01607e-05
9.15688e-06
8.14243e-06
7.11705e-06
6.07861e-06
5.02226e-06
3.93943e-06
2.81642e-06
1.63198e-06
2.95949e-09
1.1083e-11
1.10786e-11
2.95838e-09
1.63146e-06
2.81559e-06
3.93835e-06
5.02095e-06
6.07712e-06
7.11541e-06
8.14066e-06
9.15503e-06
1.01587e-05
1.11508e-05
1.21294e-05
1.30925e-05
1.40376e-05
1.49624e-05
1.58646e-05
1.67418e-05
1.75913e-05
1.84105e-05
1.91961e-05
1.99451e-05
2.06541e-05
2.13203e-05
2.19409e-05
2.25133e-05
2.30351e-05
2.35043e-05
2.39189e-05
2.42774e-05
2.45783e-05
2.48205e-05
2.50029e-05
2.5125e-05
2.51862e-05
2.51862e-05
2.51252e-05
2.50033e-05
2.4821e-05
2.45791e-05
2.42783e-05
2.392e-05
2.35055e-05
2.30365e-05
2.25148e-05
2.19425e-05
2.13221e-05
2.0656e-05
1.9947e-05
1.91982e-05
1.84126e-05
1.75935e-05
1.6744e-05
1.58669e-05
1.49648e-05
1.404e-05
1.30948e-05
1.21318e-05
1.11531e-05
1.0161e-05
9.15714e-06
8.14266e-06
7.11725e-06
6.07878e-06
5.0224e-06
3.93955e-06
2.81651e-06
1.63204e-06
2.95959e-09
1.10834e-11
1.10788e-11
2.95842e-09
1.63148e-06
2.81562e-06
3.93839e-06
5.02101e-06
6.07719e-06
7.11549e-06
8.14075e-06
9.15513e-06
1.01589e-05
1.11509e-05
1.21296e-05
1.30926e-05
1.40378e-05
1.49626e-05
1.58648e-05
1.67419e-05
1.75915e-05
1.84107e-05
1.91963e-05
1.99453e-05
2.06543e-05
2.13206e-05
2.19411e-05
2.25135e-05
2.30354e-05
2.35045e-05
2.39192e-05
2.42777e-05
2.45786e-05
2.48207e-05
2.50032e-05
2.51253e-05
2.51864e-05
2.51865e-05
2.51255e-05
2.50036e-05
2.48213e-05
2.45793e-05
2.42786e-05
2.39202e-05
2.35057e-05
2.30367e-05
2.2515e-05
2.19428e-05
2.13223e-05
2.06562e-05
1.99472e-05
1.91984e-05
1.84128e-05
1.75937e-05
1.67442e-05
1.58671e-05
1.49649e-05
1.40401e-05
1.3095e-05
1.21319e-05
1.11532e-05
1.01611e-05
9.15724e-06
8.14274e-06
7.11733e-06
6.07885e-06
5.02246e-06
3.9396e-06
2.81654e-06
1.63205e-06
2.95963e-09
1.10835e-11
1.10788e-11
2.95843e-09
1.63149e-06
2.81564e-06
3.93841e-06
5.02103e-06
6.07721e-06
7.11552e-06
8.14078e-06
9.15516e-06
1.01589e-05
1.1151e-05
1.21296e-05
1.30927e-05
1.40378e-05
1.49626e-05
1.58648e-05
1.6742e-05
1.75916e-05
1.84108e-05
1.91964e-05
1.99454e-05
2.06544e-05
2.13206e-05
2.19412e-05
2.25136e-05
2.30354e-05
2.35046e-05
2.39193e-05
2.42778e-05
2.45787e-05
2.48208e-05
2.50033e-05
2.51254e-05
2.51865e-05
2.51866e-05
2.51256e-05
2.50037e-05
2.48214e-05
2.45794e-05
2.42787e-05
2.39203e-05
2.35058e-05
2.30368e-05
2.25151e-05
2.19429e-05
2.13224e-05
2.06563e-05
1.99473e-05
1.91985e-05
1.84129e-05
1.75938e-05
1.67443e-05
1.58672e-05
1.4965e-05
1.40402e-05
1.3095e-05
1.2132e-05
1.11533e-05
1.01611e-05
9.15728e-06
8.14278e-06
7.11736e-06
6.07888e-06
5.02248e-06
3.93961e-06
2.81655e-06
1.63206e-06
2.95964e-09
1.10836e-11
1.10788e-11
2.95843e-09
1.63149e-06
2.81564e-06
3.93842e-06
5.02104e-06
6.07722e-06
7.11553e-06
8.14079e-06
9.15518e-06
1.01589e-05
1.1151e-05
1.21296e-05
1.30927e-05
1.40378e-05
1.49627e-05
1.58649e-05
1.6742e-05
1.75916e-05
1.84108e-05
1.91964e-05
1.99454e-05
2.06545e-05
2.13207e-05
2.19413e-05
2.25136e-05
2.30355e-05
2.35047e-05
2.39193e-05
2.42778e-05
2.45787e-05
2.48209e-05
2.50033e-05
2.51254e-05
2.51866e-05
2.51867e-05
2.51256e-05
2.50038e-05
2.48215e-05
2.45795e-05
2.42787e-05
2.39204e-05
2.35059e-05
2.30368e-05
2.25151e-05
2.19429e-05
2.13224e-05
2.06563e-05
1.99474e-05
1.91985e-05
1.84129e-05
1.75938e-05
1.67443e-05
1.58672e-05
1.4965e-05
1.40402e-05
1.30951e-05
1.2132e-05
1.11533e-05
1.01611e-05
9.15729e-06
8.14279e-06
7.11737e-06
6.07889e-06
5.02249e-06
3.93962e-06
2.81656e-06
1.63206e-06
2.95964e-09
1.10836e-11
1.10789e-11
2.95844e-09
1.63149e-06
2.81564e-06
3.93842e-06
5.02104e-06
6.07723e-06
7.11553e-06
8.1408e-06
9.15518e-06
1.01589e-05
1.1151e-05
1.21296e-05
1.30927e-05
1.40378e-05
1.49627e-05
1.58649e-05
1.6742e-05
1.75916e-05
1.84108e-05
1.91965e-05
1.99454e-05
2.06545e-05
2.13207e-05
2.19413e-05
2.25137e-05
2.30355e-05
2.35047e-05
2.39193e-05
2.42778e-05
2.45787e-05
2.48209e-05
2.50033e-05
2.51254e-05
2.51866e-05
2.51867e-05
2.51257e-05
2.50038e-05
2.48215e-05
2.45795e-05
2.42787e-05
2.39204e-05
2.35059e-05
2.30369e-05
2.25152e-05
2.19429e-05
2.13224e-05
2.06563e-05
1.99474e-05
1.91985e-05
1.84129e-05
1.75938e-05
1.67443e-05
1.58672e-05
1.4965e-05
1.40402e-05
1.30951e-05
1.2132e-05
1.11533e-05
1.01611e-05
9.1573e-06
8.14279e-06
7.11738e-06
6.07889e-06
5.02249e-06
3.93962e-06
2.81656e-06
1.63207e-06
2.95965e-09
1.10836e-11
1.10789e-11
2.95844e-09
1.63149e-06
2.81564e-06
3.93842e-06
5.02104e-06
6.07723e-06
7.11553e-06
8.1408e-06
9.15518e-06
1.01589e-05
1.1151e-05
1.21297e-05
1.30927e-05
1.40378e-05
1.49627e-05
1.58649e-05
1.6742e-05
1.75916e-05
1.84108e-05
1.91965e-05
1.99454e-05
2.06545e-05
2.13207e-05
2.19413e-05
2.25137e-05
2.30355e-05
2.35047e-05
2.39193e-05
2.42778e-05
2.45787e-05
2.48209e-05
2.50034e-05
2.51254e-05
2.51866e-05
2.51867e-05
2.51257e-05
2.50038e-05
2.48215e-05
2.45795e-05
2.42787e-05
2.39204e-05
2.35059e-05
2.30369e-05
2.25152e-05
2.19429e-05
2.13225e-05
2.06563e-05
1.99474e-05
1.91985e-05
1.8413e-05
1.75938e-05
1.67443e-05
1.58672e-05
1.4965e-05
1.40402e-05
1.30951e-05
1.2132e-05
1.11533e-05
1.01611e-05
9.1573e-06
8.1428e-06
7.11738e-06
6.07889e-06
5.02249e-06
3.93962e-06
2.81656e-06
1.63207e-06
2.95965e-09
1.10836e-11
1.10789e-11
2.95844e-09
1.63149e-06
2.81564e-06
3.93842e-06
5.02104e-06
6.07723e-06
7.11553e-06
8.1408e-06
9.15518e-06
1.01589e-05
1.1151e-05
1.21297e-05
1.30927e-05
1.40378e-05
1.49627e-05
1.58649e-05
1.6742e-05
1.75916e-05
1.84108e-05
1.91965e-05
1.99454e-05
2.06545e-05
2.13207e-05
2.19413e-05
2.25137e-05
2.30355e-05
2.35047e-05
2.39193e-05
2.42778e-05
2.45787e-05
2.48209e-05
2.50034e-05
2.51254e-05
2.51866e-05
2.51867e-05
2.51257e-05
2.50038e-05
2.48215e-05
2.45795e-05
2.42787e-05
2.39204e-05
2.35059e-05
2.30369e-05
2.25152e-05
2.19429e-05
2.13225e-05
2.06563e-05
1.99474e-05
1.91985e-05
1.8413e-05
1.75938e-05
1.67443e-05
1.58672e-05
1.4965e-05
1.40402e-05
1.30951e-05
1.2132e-05
1.11533e-05
1.01611e-05
9.1573e-06
8.1428e-06
7.11738e-06
6.07889e-06
5.02249e-06
3.93962e-06
2.81656e-06
1.63207e-06
2.95965e-09
1.10836e-11
1.10789e-11
2.95844e-09
1.63149e-06
2.81564e-06
3.93842e-06
5.02104e-06
6.07723e-06
7.11553e-06
8.1408e-06
9.15518e-06
1.01589e-05
1.1151e-05
1.21297e-05
1.30927e-05
1.40378e-05
1.49627e-05
1.58649e-05
1.6742e-05
1.75916e-05
1.84108e-05
1.91965e-05
1.99454e-05
2.06545e-05
2.13207e-05
2.19413e-05
2.25137e-05
2.30355e-05
2.35047e-05
2.39193e-05
2.42778e-05
2.45787e-05
2.48209e-05
2.50034e-05
2.51254e-05
2.51866e-05
2.51867e-05
2.51257e-05
2.50038e-05
2.48215e-05
2.45795e-05
2.42787e-05
2.39204e-05
2.35059e-05
2.30369e-05
2.25152e-05
2.19429e-05
2.13225e-05
2.06563e-05
1.99474e-05
1.91985e-05
1.8413e-05
1.75938e-05
1.67443e-05
1.58672e-05
1.4965e-05
1.40402e-05
1.30951e-05
1.2132e-05
1.11533e-05
1.01611e-05
9.1573e-06
8.1428e-06
7.11738e-06
6.07889e-06
5.02249e-06
3.93962e-06
2.81656e-06
1.63207e-06
2.95965e-09
1.10836e-11
1.10789e-11
2.95844e-09
1.63149e-06
2.81564e-06
3.93842e-06
5.02104e-06
6.07723e-06
7.11553e-06
8.1408e-06
9.15518e-06
1.01589e-05
1.1151e-05
1.21297e-05
1.30927e-05
1.40378e-05
1.49627e-05
1.58649e-05
1.6742e-05
1.75916e-05
1.84108e-05
1.91965e-05
1.99454e-05
2.06545e-05
2.13207e-05
2.19413e-05
2.25137e-05
2.30355e-05
2.35047e-05
2.39193e-05
2.42778e-05
2.45787e-05
2.48209e-05
2.50034e-05
2.51254e-05
2.51866e-05
2.51867e-05
2.51257e-05
2.50038e-05
2.48215e-05
2.45795e-05
2.42787e-05
2.39204e-05
2.35059e-05
2.30369e-05
2.25152e-05
2.19429e-05
2.13225e-05
2.06563e-05
1.99474e-05
1.91985e-05
1.8413e-05
1.75938e-05
1.67443e-05
1.58672e-05
1.4965e-05
1.40402e-05
1.30951e-05
1.2132e-05
1.11533e-05
1.01611e-05
9.1573e-06
8.1428e-06
7.11738e-06
6.07889e-06
5.02249e-06
3.93962e-06
2.81656e-06
1.63207e-06
2.95965e-09
1.10836e-11
1.10789e-11
2.95844e-09
1.63149e-06
2.81564e-06
3.93842e-06
5.02104e-06
6.07723e-06
7.11553e-06
8.1408e-06
9.15518e-06
1.01589e-05
1.1151e-05
1.21297e-05
1.30927e-05
1.40378e-05
1.49627e-05
1.58649e-05
1.6742e-05
1.75916e-05
1.84108e-05
1.91965e-05
1.99454e-05
2.06545e-05
2.13207e-05
2.19413e-05
2.25137e-05
2.30355e-05
2.35047e-05
2.39193e-05
2.42778e-05
2.45787e-05
2.48209e-05
2.50034e-05
2.51254e-05
2.51866e-05
2.51867e-05
2.51257e-05
2.50038e-05
2.48215e-05
2.45795e-05
2.42787e-05
2.39204e-05
2.35059e-05
2.30369e-05
2.25152e-05
2.19429e-05
2.13225e-05
2.06563e-05
1.99474e-05
1.91985e-05
1.8413e-05
1.75938e-05
1.67443e-05
1.58672e-05
1.4965e-05
1.40402e-05
1.30951e-05
1.2132e-05
1.11533e-05
1.01611e-05
9.1573e-06
8.1428e-06
7.11738e-06
6.07889e-06
5.02249e-06
3.93962e-06
2.81656e-06
1.63207e-06
2.95965e-09
1.10836e-11
1.10789e-11
2.95844e-09
1.63149e-06
2.81564e-06
3.93842e-06
5.02104e-06
6.07723e-06
7.11553e-06
8.1408e-06
9.15518e-06
1.01589e-05
1.1151e-05
1.21297e-05
1.30927e-05
1.40378e-05
1.49627e-05
1.58649e-05
1.6742e-05
1.75916e-05
1.84108e-05
1.91965e-05
1.99454e-05
2.06545e-05
2.13207e-05
2.19413e-05
2.25137e-05
2.30355e-05
2.35047e-05
2.39193e-05
2.42778e-05
2.45787e-05
2.48209e-05
2.50034e-05
2.51254e-05
2.51866e-05
2.51867e-05
2.51257e-05
2.50038e-05
2.48215e-05
2.45795e-05
2.42787e-05
2.39204e-05
2.35059e-05
2.30369e-05
2.25152e-05
2.19429e-05
2.13225e-05
2.06563e-05
1.99474e-05
1.91985e-05
1.8413e-05
1.75938e-05
1.67443e-05
1.58672e-05
1.4965e-05
1.40402e-05
1.30951e-05
1.2132e-05
1.11533e-05
1.01611e-05
9.1573e-06
8.1428e-06
7.11738e-06
6.07889e-06
5.02249e-06
3.93962e-06
2.81656e-06
1.63207e-06
2.95965e-09
1.10836e-11
1.10789e-11
2.95844e-09
1.63149e-06
2.81564e-06
3.93842e-06
5.02104e-06
6.07723e-06
7.11553e-06
8.1408e-06
9.15518e-06
1.01589e-05
1.1151e-05
1.21297e-05
1.30927e-05
1.40378e-05
1.49627e-05
1.58649e-05
1.6742e-05
1.75916e-05
1.84108e-05
1.91965e-05
1.99454e-05
2.06545e-05
2.13207e-05
2.19413e-05
2.25137e-05
2.30355e-05
2.35047e-05
2.39193e-05
2.42778e-05
2.45787e-05
2.48209e-05
2.50034e-05
2.51254e-05
2.51866e-05
2.51867e-05
2.51257e-05
2.50038e-05
2.48215e-05
2.45795e-05
2.42787e-05
2.39204e-05
2.35059e-05
2.30369e-05
2.25152e-05
2.19429e-05
2.13225e-05
2.06563e-05
1.99474e-05
1.91985e-05
1.8413e-05
1.75938e-05
1.67443e-05
1.58672e-05
1.4965e-05
1.40402e-05
1.30951e-05
1.2132e-05
1.11533e-05
1.01611e-05
9.1573e-06
8.1428e-06
7.11738e-06
6.07889e-06
5.02249e-06
3.93962e-06
2.81656e-06
1.63207e-06
2.95965e-09
1.10836e-11
1.10789e-11
2.95844e-09
1.63149e-06
2.81564e-06
3.93842e-06
5.02104e-06
6.07723e-06
7.11553e-06
8.1408e-06
9.15518e-06
1.01589e-05
1.1151e-05
1.21297e-05
1.30927e-05
1.40378e-05
1.49627e-05
1.58649e-05
1.6742e-05
1.75916e-05
1.84108e-05
1.91965e-05
1.99454e-05
2.06545e-05
2.13207e-05
2.19413e-05
2.25137e-05
2.30355e-05
2.35047e-05
2.39193e-05
2.42778e-05
2.45787e-05
2.48209e-05
2.50034e-05
2.51254e-05
2.51866e-05
2.51867e-05
2.51257e-05
2.50038e-05
2.48215e-05
2.45795e-05
2.42787e-05
2.39204e-05
2.35059e-05
2.30369e-05
2.25152e-05
2.19429e-05
2.13225e-05
2.06563e-05
1.99474e-05
1.91985e-05
1.8413e-05
1.75938e-05
1.67443e-05
1.58672e-05
1.4965e-05
1.40402e-05
1.30951e-05
1.2132e-05
1.11533e-05
1.01611e-05
9.1573e-06
8.1428e-06
7.11738e-06
6.07889e-06
5.02249e-06
3.93962e-06
2.81656e-06
1.63207e-06
2.95965e-09
1.10836e-11
1.10789e-11
2.95844e-09
1.63149e-06
2.81564e-06
3.93842e-06
5.02104e-06
6.07723e-06
7.11553e-06
8.1408e-06
9.15518e-06
1.01589e-05
1.1151e-05
1.21297e-05
1.30927e-05
1.40378e-05
1.49627e-05
1.58649e-05
1.6742e-05
1.75916e-05
1.84108e-05
1.91965e-05
1.99454e-05
2.06545e-05
2.13207e-05
2.19413e-05
2.25137e-05
2.30355e-05
2.35047e-05
2.39193e-05
2.42778e-05
2.45787e-05
2.48209e-05
2.50034e-05
2.51254e-05
2.51866e-05
2.51867e-05
2.51257e-05
2.50038e-05
2.48215e-05
2.45795e-05
2.42787e-05
2.39204e-05
2.35059e-05
2.30369e-05
2.25152e-05
2.19429e-05
2.13225e-05
2.06563e-05
1.99474e-05
1.91985e-05
1.8413e-05
1.75938e-05
1.67443e-05
1.58672e-05
1.4965e-05
1.40402e-05
1.30951e-05
1.2132e-05
1.11533e-05
1.01611e-05
9.1573e-06
8.1428e-06
7.11738e-06
6.07889e-06
5.02249e-06
3.93962e-06
2.81656e-06
1.63207e-06
2.95965e-09
1.10836e-11
1.10789e-11
2.95844e-09
1.63149e-06
2.81564e-06
3.93842e-06
5.02104e-06
6.07723e-06
7.11553e-06
8.1408e-06
9.15518e-06
1.01589e-05
1.1151e-05
1.21297e-05
1.30927e-05
1.40378e-05
1.49627e-05
1.58649e-05
1.6742e-05
1.75916e-05
1.84108e-05
1.91965e-05
1.99454e-05
2.06545e-05
2.13207e-05
2.19413e-05
2.25137e-05
2.30355e-05
2.35047e-05
2.39193e-05
2.42778e-05
2.45787e-05
2.48209e-05
2.50034e-05
2.51254e-05
2.51866e-05
2.51867e-05
2.51257e-05
2.50038e-05
2.48215e-05
2.45795e-05
2.42787e-05
2.39204e-05
2.35059e-05
2.30369e-05
2.25152e-05
2.19429e-05
2.13225e-05
2.06563e-05
1.99474e-05
1.91985e-05
1.8413e-05
1.75938e-05
1.67443e-05
1.58672e-05
1.4965e-05
1.40402e-05
1.30951e-05
1.2132e-05
1.11533e-05
1.01611e-05
9.1573e-06
8.1428e-06
7.11738e-06
6.07889e-06
5.02249e-06
3.93962e-06
2.81656e-06
1.63207e-06
2.95965e-09
1.10836e-11
1.10789e-11
2.95844e-09
1.63149e-06
2.81564e-06
3.93842e-06
5.02104e-06
6.07723e-06
7.11553e-06
8.1408e-06
9.15518e-06
1.01589e-05
1.1151e-05
1.21297e-05
1.30927e-05