/*--------------------------------*- C++ -*----------------------------------*\
  =========                 |
  \\      /  F ield         | OpenFOAM: The Open Source CFD Toolbox
   \\    /   O peration     | Website:  https://openfoam.org
    \\  /    A nd           | Version:  13
     \\/     M anipulation  |
\*---------------------------------------------------------------------------*/
FoamFile
{
    format      ascii;
    class       volScalarField;
    location    "92.5";
    object      rhok;
}
// * * * * * * * * * * * * * * * * * * * * * * * * * * * * * * * * * * * * * //

dimensions      [];

internalField   nonuniform List<scalar> 
315000
(
0.444589
0.428334
0.414218
0.412812
0.412046
0.411254
0.410443
0.409618
0.408785
0.407949
0.407113
0.406281
0.405452
0.404629
0.403811
0.403
0.402195
0.401396
0.400603
0.399817
0.399037
0.398263
0.397497
0.396737
0.395984
0.395239
0.394502
0.393773
0.393052
0.392339
0.391634
0.390938
0.390251
0.389573
0.388903
0.388243
0.387591
0.386949
0.386315
0.385691
0.385075
0.384468
0.38387
0.383281
0.3827
0.382127
0.381563
0.381007
0.380458
0.379917
0.379383
0.378857
0.378337
0.377824
0.377317
0.376816
0.376321
0.375831
0.375346
0.374865
0.374389
0.373916
0.373447
0.372981
0.372518
0.372057
0.371598
0.37114
0.370683
0.370227
0.444589
0.428336
0.414158
0.412747
0.411979
0.411189
0.410382
0.409562
0.408735
0.407906
0.407076
0.406249
0.405426
0.404607
0.403793
0.402984
0.402181
0.401383
0.400591
0.399806
0.399026
0.398253
0.397487
0.396727
0.395975
0.39523
0.394493
0.393763
0.393042
0.392329
0.391625
0.390929
0.390242
0.389563
0.388894
0.388233
0.387582
0.386939
0.386306
0.385682
0.385066
0.384459
0.383861
0.383272
0.382691
0.382119
0.381555
0.380999
0.380451
0.37991
0.379376
0.37885
0.378331
0.377818
0.377311
0.376811
0.376316
0.375826
0.375341
0.374861
0.374385
0.373913
0.373444
0.372979
0.372516
0.372055
0.371596
0.371139
0.370683
0.370227
0.444613
0.429272
0.414035
0.412569
0.411791
0.411006
0.410214
0.409415
0.408612
0.407805
0.406997
0.406187
0.405378
0.404571
0.403766
0.402963
0.402165
0.40137
0.400581
0.399796
0.399018
0.398245
0.397479
0.396719
0.395967
0.395222
0.394485
0.393756
0.393034
0.392322
0.391617
0.390921
0.390234
0.389556
0.388886
0.388226
0.387574
0.386932
0.386299
0.385674
0.385059
0.384452
0.383855
0.383265
0.382685
0.382113
0.381549
0.380993
0.380445
0.379904
0.379371
0.378845
0.378326
0.377813
0.377307
0.376807
0.376312
0.375822
0.375338
0.374858
0.374382
0.37391
0.373442
0.372977
0.372514
0.372054
0.371595
0.371138
0.370682
0.370227
0.44461
0.429123
0.414039
0.412563
0.411774
0.410987
0.410197
0.409403
0.408604
0.407802
0.406996
0.406189
0.405382
0.404574
0.403769
0.402966
0.402166
0.401371
0.40058
0.399795
0.399015
0.398242
0.397475
0.396715
0.395962
0.395217
0.39448
0.39375
0.393029
0.392316
0.391611
0.390915
0.390228
0.38955
0.388881
0.38822
0.387569
0.386927
0.386293
0.385669
0.385054
0.384447
0.383849
0.38326
0.38268
0.382108
0.381544
0.380988
0.38044
0.3799
0.379367
0.378841
0.378322
0.37781
0.377303
0.376803
0.376309
0.375819
0.375335
0.374855
0.37438
0.373908
0.37344
0.372975
0.372513
0.372053
0.371594
0.371138
0.370682
0.370227
0.444486
0.423126
0.416602
0.414254
0.412656
0.411446
0.410436
0.409527
0.408668
0.407835
0.407013
0.406198
0.405385
0.404576
0.403769
0.402965
0.402165
0.401369
0.400578
0.399792
0.399012
0.398239
0.397472
0.396712
0.395959
0.395214
0.394476
0.393746
0.393025
0.392312
0.391607
0.390911
0.390224
0.389546
0.388877
0.388216
0.387565
0.386923
0.386289
0.385665
0.38505
0.384443
0.383846
0.383257
0.382676
0.382104
0.381541
0.380985
0.380437
0.379897
0.379364
0.378838
0.378319
0.377807
0.377301
0.376801
0.376306
0.375817
0.375333
0.374854
0.374378
0.373907
0.373439
0.372974
0.372512
0.372052
0.371594
0.371137
0.370682
0.370227
0.444613
0.429248
0.414046
0.412577
0.41179
0.410998
0.410201
0.409401
0.408598
0.407793
0.406986
0.406177
0.405369
0.404562
0.403757
0.402955
0.402156
0.401361
0.400571
0.399786
0.399007
0.398234
0.397467
0.396708
0.395955
0.39521
0.394473
0.393743
0.393022
0.392309
0.391605
0.390909
0.390222
0.389543
0.388874
0.388214
0.387562
0.38692
0.386287
0.385663
0.385047
0.384441
0.383843
0.383254
0.382674
0.382102
0.381538
0.380983
0.380435
0.379895
0.379362
0.378836
0.378317
0.377805
0.377299
0.376799
0.376305
0.375816
0.375332
0.374853
0.374377
0.373906
0.373438
0.372973
0.372511
0.372051
0.371593
0.371137
0.370681
0.370227
0.444602
0.428827
0.413993
0.412554
0.411787
0.411008
0.41022
0.409423
0.40862
0.407812
0.407001
0.406189
0.405378
0.404567
0.40376
0.402955
0.402155
0.401359
0.400569
0.399783
0.399004
0.398231
0.397465
0.396705
0.395953
0.395208
0.394471
0.393742
0.39302
0.392308
0.391603
0.390907
0.39022
0.389542
0.388873
0.388212
0.387561
0.386919
0.386285
0.385661
0.385046
0.38444
0.383842
0.383253
0.382673
0.382101
0.381537
0.380981
0.380434
0.379893
0.379361
0.378835
0.378316
0.377804
0.377298
0.376798
0.376304
0.375815
0.375331
0.374852
0.374377
0.373905
0.373438
0.372973
0.372511
0.372051
0.371593
0.371137
0.370681
0.370227
0.444613
0.429261
0.41404
0.412565
0.411784
0.410993
0.410193
0.40939
0.408585
0.407778
0.406971
0.406163
0.405355
0.404549
0.403745
0.402943
0.402146
0.401352
0.400563
0.399779
0.399001
0.398229
0.397463
0.396704
0.395952
0.395207
0.39447
0.393741
0.39302
0.392307
0.391603
0.390907
0.39022
0.389541
0.388872
0.388212
0.38756
0.386918
0.386285
0.385661
0.385045
0.384439
0.383841
0.383252
0.382672
0.3821
0.381536
0.380981
0.380433
0.379893
0.37936
0.378835
0.378316
0.377804
0.377298
0.376798
0.376304
0.375815
0.375331
0.374851
0.374376
0.373905
0.373437
0.372973
0.372511
0.372051
0.371593
0.371137
0.370681
0.370227
0.444496
0.424605
0.417045
0.413211
0.412087
0.411283
0.410415
0.409544
0.408687
0.407844
0.407013
0.40619
0.405373
0.404561
0.403753
0.402949
0.40215
0.401355
0.400565
0.399781
0.399002
0.39823
0.397464
0.396704
0.395952
0.395207
0.39447
0.393741
0.39302
0.392307
0.391603
0.390907
0.39022
0.389541
0.388872
0.388212
0.38756
0.386918
0.386285
0.38566
0.385045
0.384439
0.383841
0.383252
0.382672
0.3821
0.381536
0.380981
0.380433
0.379893
0.37936
0.378834
0.378316
0.377804
0.377298
0.376798
0.376304
0.375815
0.375331
0.374851
0.374376
0.373905
0.373437
0.372973
0.372511
0.372051
0.371593
0.371137
0.370681
0.370227
0.444501
0.424787
0.417122
0.41324
0.4121
0.411283
0.410408
0.409533
0.408674
0.407831
0.407
0.406179
0.405364
0.404554
0.403748
0.402945
0.402147
0.401354
0.400564
0.399781
0.399002
0.39823
0.397464
0.396705
0.395953
0.395208
0.394471
0.393742
0.393021
0.392308
0.391603
0.390907
0.39022
0.389542
0.388872
0.388212
0.387561
0.386918
0.386285
0.385661
0.385045
0.384439
0.383841
0.383252
0.382672
0.3821
0.381536
0.380981
0.380433
0.379893
0.37936
0.378835
0.378316
0.377804
0.377298
0.376798
0.376304
0.375815
0.375331
0.374851
0.374376
0.373905
0.373437
0.372973
0.372511
0.372051
0.371593
0.371137
0.370681
0.370227
0.44461
0.429136
0.414065
0.412615
0.411832
0.411035
0.41023
0.409421
0.408611
0.4078
0.406989
0.406178
0.405369
0.404562
0.403757
0.402955
0.402156
0.401361
0.400572
0.399787
0.399008
0.398235
0.397468
0.396709
0.395956
0.395211
0.394473
0.393744
0.393022
0.392309
0.391604
0.390908
0.390221
0.389543
0.388873
0.388213
0.387561
0.386919
0.386286
0.385661
0.385046
0.384439
0.383842
0.383253
0.382672
0.382101
0.381537
0.380981
0.380433
0.379893
0.37936
0.378835
0.378316
0.377804
0.377298
0.376798
0.376304
0.375815
0.375331
0.374852
0.374376
0.373905
0.373437
0.372973
0.372511
0.372051
0.371593
0.371137
0.370681
0.370227
0.444543
0.426573
0.414792
0.413152
0.412246
0.411344
0.410456
0.409584
0.408726
0.40788
0.407043
0.406215
0.405394
0.404578
0.403768
0.402962
0.402162
0.401366
0.400575
0.39979
0.399011
0.398237
0.397471
0.396711
0.395958
0.395213
0.394475
0.393745
0.393024
0.39231
0.391606
0.390909
0.390222
0.389544
0.388874
0.388214
0.387562
0.38692
0.386286
0.385662
0.385046
0.38444
0.383842
0.383253
0.382673
0.382101
0.381537
0.380982
0.380434
0.379894
0.379361
0.378835
0.378316
0.377804
0.377298
0.376798
0.376304
0.375815
0.375331
0.374852
0.374377
0.373905
0.373438
0.372973
0.372511
0.372051
0.371593
0.371137
0.370681
0.370227
0.444614
0.429293
0.414071
0.412609
0.411826
0.411032
0.410229
0.409421
0.40861
0.407797
0.406985
0.406173
0.405363
0.404555
0.403751
0.402949
0.402152
0.401358
0.40057
0.399786
0.399008
0.398236
0.39747
0.39671
0.395958
0.395213
0.394476
0.393746
0.393025
0.392311
0.391607
0.39091
0.390223
0.389544
0.388875
0.388214
0.387563
0.38692
0.386287
0.385662
0.385047
0.384441
0.383843
0.383254
0.382673
0.382101
0.381538
0.380982
0.380434
0.379894
0.379361
0.378835
0.378317
0.377804
0.377299
0.376799
0.376304
0.375815
0.375331
0.374852
0.374377
0.373905
0.373438
0.372973
0.372511
0.372051
0.371593
0.371137
0.370681
0.370227
0.444589
0.428319
0.414133
0.412699
0.411914
0.411119
0.410312
0.409496
0.408675
0.407852
0.407029
0.406208
0.40539
0.404576
0.403766
0.40296
0.402159
0.401364
0.400573
0.399788
0.39901
0.398237
0.397471
0.396711
0.395959
0.395214
0.394476
0.393747
0.393025
0.392312
0.391607
0.390911
0.390224
0.389545
0.388875
0.388215
0.387563
0.386921
0.386287
0.385663
0.385047
0.384441
0.383843
0.383254
0.382674
0.382102
0.381538
0.380982
0.380434
0.379894
0.379361
0.378836
0.378317
0.377805
0.377299
0.376799
0.376305
0.375816
0.375332
0.374852
0.374377
0.373906
0.373438
0.372973
0.372511
0.372051
0.371593
0.371137
0.370681
0.370227
0.444486
0.42314
0.416608
0.414258
0.412657
0.411444
0.41043
0.409517
0.408655
0.407819
0.406996
0.40618
0.405368
0.404559
0.403754
0.402952
0.402154
0.40136
0.400571
0.399787
0.399009
0.398236
0.39747
0.396711
0.395958
0.395213
0.394476
0.393747
0.393025
0.392312
0.391607
0.390911
0.390224
0.389545
0.388876
0.388215
0.387564
0.386921
0.386288
0.385663
0.385048
0.384441
0.383844
0.383255
0.382674
0.382102
0.381538
0.380983
0.380435
0.379895
0.379362
0.378836
0.378317
0.377805
0.377299
0.376799
0.376305
0.375816
0.375332
0.374852
0.374377
0.373906
0.373438
0.372973
0.372511
0.372051
0.371593
0.371137
0.370681
0.370227
0.444614
0.429297
0.414081
0.41259
0.411785
0.410983
0.410182
0.40938
0.408577
0.407773
0.406967
0.406161
0.405355
0.40455
0.403747
0.402947
0.40215
0.401357
0.400568
0.399784
0.399006
0.398234
0.397468
0.396709
0.395957
0.395212
0.394475
0.393746
0.393025
0.392311
0.391607
0.390911
0.390224
0.389545
0.388876
0.388215
0.387564
0.386921
0.386288
0.385664
0.385048
0.384442
0.383844
0.383255
0.382674
0.382102
0.381539
0.380983
0.380435
0.379895
0.379362
0.378836
0.378317
0.377805
0.377299
0.376799
0.376305
0.375816
0.375332
0.374852
0.374377
0.373906
0.373438
0.372973
0.372511
0.372051
0.371593
0.371137
0.370681
0.370227
0.444484
0.423044
0.416576
0.414246
0.412659
0.411455
0.410447
0.409538
0.408679
0.407843
0.40702
0.406202
0.405388
0.404577
0.403768
0.402964
0.402163
0.401367
0.400576
0.39979
0.399011
0.398237
0.397471
0.396711
0.395958
0.395213
0.394476
0.393746
0.393025
0.392312
0.391607
0.390911
0.390224
0.389546
0.388876
0.388216
0.387564
0.386922
0.386288
0.385664
0.385049
0.384442
0.383844
0.383255
0.382675
0.382103
0.381539
0.380983
0.380435
0.379895
0.379362
0.378836
0.378318
0.377805
0.377299
0.376799
0.376305
0.375816
0.375332
0.374853
0.374377
0.373906
0.373438
0.372973
0.372511
0.372051
0.371593
0.371137
0.370681
0.370227
0.444607
0.429006
0.414041
0.412591
0.411812
0.411024
0.41023
0.40943
0.408626
0.407819
0.40701
0.406199
0.405388
0.404579
0.403771
0.402967
0.402166
0.401369
0.400578
0.399792
0.399013
0.398239
0.397472
0.396712
0.395959
0.395214
0.394477
0.393747
0.393026
0.392312
0.391608
0.390912
0.390224
0.389546
0.388877
0.388216
0.387565
0.386922
0.386289
0.385664
0.385049
0.384442
0.383845
0.383256
0.382675
0.382103
0.381539
0.380983
0.380436
0.379895
0.379362
0.378837
0.378318
0.377806
0.3773
0.3768
0.376305
0.375816
0.375332
0.374853
0.374377
0.373906
0.373438
0.372973
0.372511
0.372051
0.371593
0.371137
0.370681
0.370227
0.444613
0.429274
0.41405
0.412588
0.411806
0.411014
0.410215
0.409412
0.408606
0.407798
0.406989
0.40618
0.405372
0.404565
0.40376
0.402958
0.40216
0.401366
0.400576
0.399791
0.399012
0.398239
0.397473
0.396713
0.39596
0.395215
0.394478
0.393748
0.393027
0.392313
0.391609
0.390913
0.390225
0.389547
0.388877
0.388217
0.387565
0.386923
0.386289
0.385665
0.385049
0.384443
0.383845
0.383256
0.382675
0.382103
0.38154
0.380984
0.380436
0.379896
0.379363
0.378837
0.378318
0.377806
0.3773
0.3768
0.376305
0.375816
0.375332
0.374853
0.374377
0.373906
0.373438
0.372973
0.372511
0.372051
0.371593
0.371137
0.370681
0.370227
0.444545
0.426615
0.414806
0.41316
0.412251
0.411347
0.410458
0.409586
0.408728
0.407882
0.407046
0.406219
0.405398
0.404583
0.403773
0.402967
0.402167
0.401371
0.40058
0.399795
0.399015
0.398242
0.397475
0.396715
0.395962
0.395217
0.394479
0.39375
0.393028
0.392315
0.39161
0.390914
0.390226
0.389548
0.388878
0.388217
0.387566
0.386923
0.38629
0.385665
0.38505
0.384443
0.383845
0.383256
0.382676
0.382104
0.38154
0.380984
0.380436
0.379896
0.379363
0.378837
0.378318
0.377806
0.3773
0.3768
0.376305
0.375816
0.375332
0.374853
0.374377
0.373906
0.373438
0.372973
0.372511
0.372051
0.371593
0.371137
0.370681
0.370227
0.444612
0.429214
0.414065
0.412608
0.411829
0.411039
0.410241
0.409436
0.408628
0.407817
0.407006
0.406194
0.405384
0.404575
0.403769
0.402966
0.402166
0.401371
0.400581
0.399796
0.399016
0.398243
0.397476
0.396716
0.395964
0.395218
0.39448
0.393751
0.393029
0.392316
0.391611
0.390915
0.390227
0.389548
0.388879
0.388218
0.387566
0.386924
0.38629
0.385666
0.38505
0.384444
0.383846
0.383257
0.382676
0.382104
0.38154
0.380984
0.380436
0.379896
0.379363
0.378837
0.378318
0.377806
0.3773
0.3768
0.376305
0.375816
0.375332
0.374853
0.374378
0.373906
0.373438
0.372973
0.372511
0.372051
0.371593
0.371137
0.370681
0.370227
0.444599
0.428698
0.414022
0.412593
0.411828
0.411049
0.410257
0.409457
0.408649
0.407837
0.407023
0.406208
0.405394
0.404582
0.403774
0.402969
0.402168
0.401372
0.400581
0.399796
0.399017
0.398243
0.397477
0.396717
0.395964
0.395219
0.394481
0.393752
0.39303
0.392317
0.391612
0.390915
0.390228
0.389549
0.388879
0.388219
0.387567
0.386924
0.386291
0.385666
0.385051
0.384444
0.383846
0.383257
0.382676
0.382104
0.38154
0.380984
0.380436
0.379896
0.379363
0.378837
0.378318
0.377806
0.3773
0.3768
0.376306
0.375816
0.375332
0.374853
0.374378
0.373906
0.373438
0.372973
0.372511
0.372051
0.371593
0.371137
0.370681
0.370227
0.444614
0.429301
0.414065
0.412601
0.411818
0.411024
0.410223
0.409417
0.408608
0.407798
0.406987
0.406177
0.405369
0.404562
0.403758
0.402957
0.402159
0.401366
0.400577
0.399794
0.399015
0.398243
0.397477
0.396718
0.395965
0.39522
0.394483
0.393753
0.393031
0.392318
0.391613
0.390916
0.390229
0.38955
0.38888
0.388219
0.387568
0.386925
0.386291
0.385667
0.385051
0.384444
0.383846
0.383257
0.382676
0.382104
0.38154
0.380984
0.380436
0.379896
0.379363
0.378837
0.378318
0.377806
0.3773
0.3768
0.376306
0.375816
0.375332
0.374853
0.374378
0.373906
0.373438
0.372973
0.372511
0.372051
0.371593
0.371137
0.370681
0.370227
0.444543
0.426545
0.414782
0.413145
0.412241
0.41134
0.410454
0.409583
0.408726
0.40788
0.407045
0.406218
0.405398
0.404583
0.403773
0.402969
0.402169
0.401374
0.400584
0.399799
0.39902
0.398247
0.397481
0.396721
0.395968
0.395223
0.394485
0.393755
0.393033
0.392319
0.391614
0.390917
0.39023
0.389551
0.388881
0.38822
0.387568
0.386925
0.386292
0.385667
0.385051
0.384444
0.383846
0.383257
0.382677
0.382104
0.38154
0.380985
0.380437
0.379896
0.379363
0.378837
0.378318
0.377806
0.3773
0.3768
0.376306
0.375816
0.375332
0.374853
0.374378
0.373906
0.373438
0.372973
0.372511
0.372051
0.371593
0.371137
0.370681
0.370227
0.444614
0.429308
0.414059
0.412593
0.41181
0.411018
0.41022
0.409417
0.40861
0.407802
0.406994
0.406185
0.405377
0.404571
0.403767
0.402966
0.402168
0.401374
0.400585
0.3998
0.399021
0.398249
0.397482
0.396722
0.395969
0.395224
0.394486
0.393756
0.393034
0.39232
0.391615
0.390918
0.39023
0.389551
0.388881
0.38822
0.387568
0.386926
0.386292
0.385667
0.385051
0.384445
0.383847
0.383257
0.382677
0.382104
0.38154
0.380985
0.380437
0.379896
0.379363
0.378837
0.378318
0.377806
0.3773
0.3768
0.376306
0.375816
0.375332
0.374853
0.374378
0.373906
0.373438
0.372973
0.372511
0.372051
0.371593
0.371137
0.370681
0.370227
0.444609
0.429086
0.414008
0.412555
0.411784
0.411006
0.41022
0.409427
0.408629
0.407826
0.407019
0.406211
0.405402
0.404594
0.403787
0.402983
0.402183
0.401386
0.400595
0.399808
0.399028
0.398254
0.397486
0.396725
0.395972
0.395226
0.394487
0.393757
0.393034
0.392321
0.391615
0.390918
0.390231
0.389552
0.388881
0.38822
0.387569
0.386926
0.386292
0.385667
0.385051
0.384445
0.383847
0.383257
0.382677
0.382104
0.38154
0.380985
0.380437
0.379896
0.379363
0.378837
0.378318
0.377806
0.3773
0.3768
0.376306
0.375816
0.375332
0.374853
0.374378
0.373906
0.373438
0.372973
0.372511
0.372051
0.371593
0.371137
0.370681
0.370227
0.444609
0.429099
0.414047
0.412593
0.411822
0.411043
0.410256
0.409462
0.408662
0.407856
0.407047
0.406236
0.405424
0.404613
0.403803
0.402997
0.402194
0.401395
0.400602
0.399814
0.399033
0.398257
0.397489
0.396727
0.395973
0.395227
0.394488
0.393758
0.393035
0.392321
0.391616
0.390919
0.390231
0.389552
0.388882
0.388221
0.387569
0.386926
0.386292
0.385667
0.385051
0.384445
0.383847
0.383257
0.382677
0.382104
0.381541
0.380985
0.380437
0.379896
0.379363
0.378837
0.378318
0.377806
0.3773
0.3768
0.376306
0.375816
0.375332
0.374853
0.374378
0.373906
0.373438
0.372973
0.372511
0.372051
0.371593
0.371137
0.370681
0.370227
0.444609
0.429104
0.414059
0.412606
0.411836
0.411057
0.410269
0.409475
0.408673
0.407867
0.407057
0.406245
0.405432
0.404619
0.403809
0.403001
0.402198
0.401399
0.400605
0.399816
0.399034
0.398259
0.39749
0.396728
0.395974
0.395227
0.394489
0.393758
0.393035
0.392321
0.391616
0.390919
0.390231
0.389552
0.388882
0.388221
0.387569
0.386926
0.386292
0.385667
0.385051
0.384445
0.383847
0.383257
0.382677
0.382104
0.381541
0.380985
0.380437
0.379896
0.379363
0.378837
0.378318
0.377806
0.3773
0.3768
0.376306
0.375816
0.375332
0.374853
0.374378
0.373906
0.373438
0.372973
0.372511
0.372051
0.371593
0.371137
0.370681
0.370227
0.444609
0.429105
0.414061
0.412609
0.411838
0.411059
0.410272
0.409477
0.408676
0.407869
0.407059
0.406247
0.405433
0.404621
0.40381
0.403003
0.402199
0.401399
0.400605
0.399817
0.399035
0.398259
0.39749
0.396729
0.395974
0.395228
0.394489
0.393758
0.393035
0.392321
0.391616
0.390919
0.390231
0.389552
0.388882
0.388221
0.387569
0.386926
0.386292
0.385667
0.385051
0.384445
0.383847
0.383257
0.382677
0.382104
0.381541
0.380985
0.380437
0.379896
0.379363
0.378837
0.378318
0.377806
0.3773
0.3768
0.376306
0.375816
0.375332
0.374853
0.374378
0.373906
0.373438
0.372973
0.372511
0.372051
0.371593
0.371137
0.370681
0.370227
0.444609
0.429105
0.414062
0.412609
0.411839
0.41106
0.410273
0.409478
0.408676
0.40787
0.407059
0.406247
0.405434
0.404621
0.403811
0.403003
0.402199
0.4014
0.400606
0.399817
0.399035
0.398259
0.39749
0.396729
0.395974
0.395228
0.394489
0.393758
0.393035
0.392321
0.391616
0.390919
0.390231
0.389552
0.388882
0.388221
0.387569
0.386926
0.386292
0.385667
0.385051
0.384445
0.383847
0.383257
0.382677
0.382104
0.381541
0.380985
0.380437
0.379896
0.379363
0.378837
0.378318
0.377806
0.3773
0.3768
0.376306
0.375816
0.375332
0.374853
0.374378
0.373906
0.373438
0.372973
0.372511
0.372051
0.371593
0.371137
0.370681
0.370227
0.444609
0.429105
0.414062
0.412609
0.411839
0.41106
0.410273
0.409478
0.408676
0.40787
0.40706
0.406247
0.405434
0.404621
0.403811
0.403003
0.402199
0.4014
0.400606
0.399817
0.399035
0.398259
0.39749
0.396729
0.395974
0.395228
0.394489
0.393758
0.393035
0.392321
0.391616
0.390919
0.390231
0.389552
0.388882
0.388221
0.387569
0.386926
0.386292
0.385667
0.385051
0.384445
0.383847
0.383257
0.382677
0.382104
0.381541
0.380985
0.380437
0.379896
0.379363
0.378837
0.378318
0.377806
0.3773
0.3768
0.376306
0.375816
0.375332
0.374853
0.374378
0.373906
0.373438
0.372973
0.372511
0.372051
0.371593
0.371137
0.370681
0.370227
0.444609
0.429105
0.414062
0.412609
0.411839
0.41106
0.410273
0.409478
0.408676
0.40787
0.40706
0.406247
0.405434
0.404621
0.403811
0.403003
0.402199
0.4014
0.400606
0.399817
0.399035
0.398259
0.39749
0.396729
0.395974
0.395228
0.394489
0.393758
0.393035
0.392321
0.391616
0.390919
0.390231
0.389552
0.388882
0.388221
0.387569
0.386926
0.386292
0.385667
0.385051
0.384445
0.383847
0.383257
0.382677
0.382104
0.381541
0.380985
0.380437
0.379896
0.379363
0.378837
0.378318
0.377806
0.3773
0.3768
0.376306
0.375816
0.375332
0.374853
0.374378
0.373906
0.373438
0.372973
0.372511
0.372051
0.371593
0.371137
0.370681
0.370227
0.444609
0.429105
0.414062
0.412609
0.411839
0.41106
0.410273
0.409478
0.408676
0.40787
0.40706
0.406247
0.405434
0.404621
0.403811
0.403003
0.402199
0.4014
0.400606
0.399817
0.399035
0.398259
0.39749
0.396729
0.395974
0.395228
0.394489
0.393758
0.393035
0.392321
0.391616
0.390919
0.390231
0.389552
0.388882
0.388221
0.387569
0.386926
0.386292
0.385667
0.385051
0.384445
0.383847
0.383257
0.382677
0.382104
0.381541
0.380985
0.380437
0.379896
0.379363
0.378837
0.378318
0.377806
0.3773
0.3768
0.376306
0.375816
0.375332
0.374853
0.374378
0.373906
0.373438
0.372973
0.372511
0.372051
0.371593
0.371137
0.370681
0.370227
0.444609
0.429105
0.414062
0.412609
0.411839
0.41106
0.410273
0.409478
0.408676
0.40787
0.40706
0.406247
0.405434
0.404621
0.403811
0.403003
0.402199
0.4014
0.400606
0.399817
0.399035
0.398259
0.39749
0.396729
0.395974
0.395228
0.394489
0.393758
0.393035
0.392321
0.391616
0.390919
0.390231
0.389552
0.388882
0.388221
0.387569
0.386926
0.386292
0.385667
0.385051
0.384445
0.383847
0.383257
0.382677
0.382104
0.381541
0.380985
0.380437
0.379896
0.379363
0.378837
0.378318
0.377806
0.3773
0.3768
0.376306
0.375816
0.375332
0.374853
0.374378
0.373906
0.373438
0.372973
0.372511
0.372051
0.371593
0.371137
0.370681
0.370227
0.444609
0.429105
0.414062
0.412609
0.411839
0.41106
0.410273
0.409478
0.408676
0.40787
0.40706
0.406247
0.405434
0.404621
0.403811
0.403003
0.402199
0.4014
0.400606
0.399817
0.399035
0.398259
0.39749
0.396729
0.395974
0.395228
0.394489
0.393758
0.393035
0.392321
0.391616
0.390919
0.390231
0.389552
0.388882
0.388221
0.387569
0.386926
0.386292
0.385667
0.385051
0.384445
0.383847
0.383257
0.382677
0.382104
0.381541
0.380985
0.380437
0.379896
0.379363
0.378837
0.378318
0.377806
0.3773
0.3768
0.376306
0.375816
0.375332
0.374853
0.374378
0.373906
0.373438
0.372973
0.372511
0.372051
0.371593
0.371137
0.370681
0.370227
0.444609
0.429105
0.414062
0.412609
0.411839
0.41106
0.410273
0.409478
0.408676
0.40787
0.40706
0.406247
0.405434
0.404621
0.403811
0.403003
0.402199
0.4014
0.400606
0.399817
0.399035
0.398259
0.39749
0.396729
0.395974
0.395228
0.394489
0.393758
0.393035
0.392321
0.391616
0.390919
0.390231
0.389552
0.388882
0.388221
0.387569
0.386926
0.386292
0.385667
0.385051
0.384445
0.383847
0.383257
0.382677
0.382104
0.381541
0.380985
0.380437
0.379896
0.379363
0.378837
0.378318
0.377806
0.3773
0.3768
0.376306
0.375816
0.375332
0.374853
0.374378
0.373906
0.373438
0.372973
0.372511
0.372051
0.371593
0.371137
0.370681
0.370227
0.444609
0.429105
0.414062
0.412609
0.411839
0.41106
0.410273
0.409478
0.408676
0.40787
0.40706
0.406247
0.405434
0.404621
0.403811
0.403003
0.402199
0.4014
0.400606
0.399817
0.399035
0.398259
0.39749
0.396729
0.395974
0.395228
0.394489
0.393758
0.393035
0.392321
0.391616
0.390919
0.390231
0.389552
0.388882
0.388221
0.387569
0.386926
0.386292
0.385667
0.385051
0.384445
0.383847
0.383257
0.382677
0.382104
0.381541
0.380985
0.380437
0.379896
0.379363
0.378837
0.378318
0.377806
0.3773
0.3768
0.376306
0.375816
0.375332
0.374853
0.374378
0.373906
0.373438
0.372973
0.372511
0.372051
0.371593
0.371137
0.370681
0.370227
0.444609
0.429105
0.414062
0.412609
0.411839
0.41106
0.410273
0.409478
0.408676
0.40787
0.40706
0.406247
0.405434
0.404621
0.403811
0.403003
0.402199
0.4014
0.400606
0.399817
0.399035
0.398259
0.39749
0.396729
0.395974
0.395228
0.394489
0.393758
0.393035
0.392321
0.391616
0.390919
0.390231
0.389552
0.388882
0.388221
0.387569
0.386926
0.386292
0.385667
0.385051
0.384445
0.383847
0.383257
0.382677
0.382104
0.381541
0.380985
0.380437
0.379896
0.379363
0.378837
0.378318
0.377806
0.3773
0.3768
0.376306
0.375816
0.375332
0.374853
0.374378
0.373906
0.373438
0.372973
0.372511
0.372051
0.371593
0.371137
0.370681
0.370227
0.444609
0.429105
0.414062
0.412609
0.411839
0.41106
0.410273
0.409478
0.408676
0.40787
0.40706
0.406247
0.405434
0.404621
0.403811
0.403003
0.402199
0.4014
0.400606
0.399817
0.399035
0.398259
0.39749
0.396729
0.395974
0.395228
0.394489
0.393758
0.393035
0.392321
0.391616
0.390919
0.390231
0.389552
0.388882
0.388221
0.387569
0.386926
0.386292
0.385667
0.385051
0.384445
0.383847
0.383257
0.382677
0.382104
0.381541
0.380985
0.380437
0.379896
0.379363
0.378837
0.378318
0.377806
0.3773
0.3768
0.376306
0.375816
0.375332
0.374853
0.374378
0.373906
0.373438
0.372973
0.372511
0.372051
0.371593
0.371137
0.370681
0.370227
0.444609
0.429105
0.414062
0.412609
0.411839
0.41106
0.410273
0.409478
0.408676
0.40787
0.40706
0.406247
0.405434
0.404621
0.403811
0.403003
0.402199
0.4014
0.400606
0.399817
0.399035
0.398259
0.39749
0.396729
0.395974
0.395228
0.394489
0.393758
0.393035
0.392321
0.391616
0.390919
0.390231
0.389552
0.388882
0.388221
0.387569
0.386926
0.386292
0.385667
0.385051
0.384445
0.383847
0.383257
0.382677
0.382104
0.381541
0.380985
0.380437
0.379896
0.379363
0.378837
0.378318
0.377806
0.3773
0.3768
0.376306
0.375816
0.375332
0.374853
0.374378
0.373906
0.373438
0.372973
0.372511
0.372051
0.371593
0.371137
0.370681
0.370227
0.444609
0.429105
0.414062
0.412609
0.411839
0.41106
0.410273
0.409478
0.408676
0.40787
0.40706
0.406247
0.405434
0.404621
0.403811
0.403003
0.402199
0.4014
0.400606
0.399817
0.399035
0.398259
0.39749
0.396729
0.395974
0.395228
0.394489
0.393758
0.393035
0.392321
0.391616
0.390919
0.390231
0.389552
0.388882
0.388221
0.387569
0.386926
0.386292
0.385667
0.385051
0.384445
0.383847
0.383257
0.382677
0.382104
0.381541
0.380985
0.380437
0.379896
0.379363
0.378837
0.378318
0.377806
0.3773
0.3768
0.376306
0.375816
0.375332
0.374853
0.374378
0.373906
0.373438
0.372973
0.372511
0.372051
0.371593
0.371137
0.370681
0.370227
0.444609
0.429105
0.414062
0.412609
0.411839
0.41106
0.410273
0.409478
0.408676
0.40787
0.40706
0.406247
0.405434
0.404621
0.403811
0.403003
0.402199
0.4014
0.400606
0.399817
0.399035
0.398259
0.39749
0.396729
0.395974
0.395228
0.394489
0.393758
0.393035
0.392321
0.391616
0.390919
0.390231
0.389552
0.388882
0.388221
0.387569
0.386926
0.386292
0.385667
0.385051
0.384445
0.383847
0.383257
0.382677
0.382104
0.381541
0.380985
0.380437
0.379896
0.379363
0.378837
0.378318
0.377806
0.3773
0.3768
0.376306
0.375816
0.375332
0.374853
0.374378
0.373906
0.373438
0.372973
0.372511
0.372051
0.371593
0.371137
0.370681
0.370227
0.444609
0.429105
0.414062
0.412609
0.411839
0.41106
0.410273
0.409478
0.408676
0.40787
0.40706
0.406247
0.405434
0.404621
0.403811
0.403003
0.402199
0.4014
0.400606
0.399817
0.399035
0.398259
0.39749
0.396729
0.395974
0.395228
0.394489
0.393758
0.393035
0.392321
0.391616
0.390919
0.390231
0.389552
0.388882
0.388221
0.387569
0.386926
0.386292
0.385667
0.385051
0.384445
0.383847
0.383257
0.382677
0.382104
0.381541
0.380985
0.380437
0.379896
0.379363
0.378837
0.378318
0.377806
0.3773
0.3768
0.376306
0.375816
0.375332
0.374853
0.374378
0.373906
0.373438
0.372973
0.372511
0.372051
0.371593
0.371137
0.370681
0.370227
0.444609
0.429105
0.414062
0.412609
0.411839
0.41106
0.410273
0.409478
0.408676
0.40787
0.40706
0.406247
0.405434
0.404621
0.403811
0.403003
0.402199
0.4014
0.400606
0.399817
0.399035
0.398259
0.39749
0.396729
0.395974
0.395228
0.394489
0.393758
0.393035
0.392321
0.391616
0.390919
0.390231
0.389552
0.388882
0.388221
0.387569
0.386926
0.386292
0.385667
0.385051
0.384445
0.383847
0.383257
0.382677
0.382104
0.381541
0.380985
0.380437
0.379896
0.379363
0.378837
0.378318
0.377806
0.3773
0.3768
0.376306
0.375816
0.375332
0.374853
0.374378
0.373906
0.373438
0.372973
0.372511
0.372051
0.371593
0.371137
0.370681
0.370227
0.444609
0.429105
0.414062
0.412609
0.411839
0.41106
0.410273
0.409478
0.408676
0.40787
0.40706
0.406247
0.405434
0.404621
0.403811
0.403003
0.402199
0.4014
0.400606
0.399817
0.399035
0.398259
0.39749
0.396729
0.395974
0.395228
0.394489
0.393758
0.393035
0.392321
0.391616
0.390919
0.390231
0.389552
0.388882
0.388221
0.387569
0.386926
0.386292
0.385667
0.385051
0.384445
0.383847
0.383257
0.382677
0.382104
0.381541
0.380985
0.380437
0.379896
0.379363
0.378837
0.378318
0.377806
0.3773
0.3768
0.376306
0.375816
0.375332
0.374853
0.374378
0.373906
0.373438
0.372973
0.372511
0.372051
0.371593
0.371137
0.370681
0.370227
0.444609
0.429105
0.414062
0.412609
0.411839
0.41106
0.410273
0.409478
0.408676
0.40787
0.40706
0.406247
0.405434
0.404621
0.403811
0.403003
0.402199
0.4014
0.400606
0.399817
0.399035
0.398259
0.39749
0.396729
0.395974
0.395228
0.394489
0.393758
0.393035
0.392321
0.391616
0.390919
0.390231
0.389552
0.388882
0.388221
0.387569
0.386926
0.386292
0.385667
0.385051
0.384445
0.383847
0.383257
0.382677
0.382104
0.381541
0.380985
0.380437
0.379896
0.379363
0.378837
0.378318
0.377806
0.3773
0.3768
0.376306
0.375816
0.375332
0.374853
0.374378
0.373906
0.373438
0.372973
0.372511
0.372051
0.371593
0.371137
0.370681
0.370227
0.444609
0.429105
0.414062
0.412609
0.411839
0.41106
0.410273
0.409478
0.408676
0.40787
0.40706
0.406247
0.405434
0.404621
0.403811
0.403003
0.402199
0.4014
0.400606
0.399817
0.399035
0.398259
0.39749
0.396729
0.395974
0.395228
0.394489
0.393758
0.393035
0.392321
0.391616
0.390919
0.390231
0.389552
0.388882
0.388221
0.387569
0.386926
0.386292
0.385667
0.385051
0.384445
0.383847
0.383257
0.382677
0.382104
0.381541
0.380985
0.380437
0.379896
0.379363
0.378837
0.378318
0.377806
0.3773
0.3768
0.376306
0.375816
0.375332
0.374853
0.374378
0.373906
0.373438
0.372973
0.372511
0.372051
0.371593
0.371137
0.370681
0.370227
0.444609
0.429105
0.414062
0.412609
0.411839
0.41106
0.410273
0.409478
0.408676
0.40787
0.40706