/*--------------------------------*- C++ -*----------------------------------*\
  =========                 |
  \\      /  F ield         | OpenFOAM: The Open Source CFD Toolbox
   \\    /   O peration     | Website:  https://openfoam.org
    \\  /    A nd           | Version:  13
     \\/     M anipulation  |
\*---------------------------------------------------------------------------*/
FoamFile
{
    format      ascii;
    class       volScalarField;
    location    "42.5";
    object      nut;
}
// * * * * * * * * * * * * * * * * * * * * * * * * * * * * * * * * * * * * * //

dimensions      [0 2 -1 0 0 0 0];

internalField   nonuniform List<scalar> 
315000
(
2.39525e-13
6.26429e-11
1.42682e-09
2.55132e-09
3.68039e-09
4.81228e-09
5.94622e-09
7.08136e-09
8.21631e-09
9.34901e-09
1.04768e-08
1.15964e-08
1.2704e-08
1.37959e-08
1.48677e-08
1.59154e-08
1.69347e-08
1.79217e-08
1.88724e-08
1.97833e-08
2.06509e-08
2.14722e-08
2.22444e-08
2.2965e-08
2.36318e-08
2.42429e-08
2.47966e-08
2.52917e-08
2.5727e-08
2.61016e-08
2.64147e-08
2.66659e-08
2.68546e-08
2.69807e-08
2.70439e-08
2.70441e-08
2.69814e-08
2.68558e-08
2.66675e-08
2.64169e-08
2.61043e-08
2.57303e-08
2.52956e-08
2.48012e-08
2.42482e-08
2.36378e-08
2.29719e-08
2.22521e-08
2.14808e-08
2.06604e-08
1.97936e-08
1.88837e-08
1.79338e-08
1.69477e-08
1.59292e-08
1.48823e-08
1.38111e-08
1.27198e-08
1.16125e-08
1.04933e-08
9.36563e-09
8.23287e-09
7.09764e-09
5.96196e-09
4.82712e-09
3.69387e-09
2.56273e-09
1.4349e-09
6.3104e-11
2.41528e-13
5.99162e-12
1.5933e-09
3.57821e-07
6.36514e-07
9.09204e-07
1.17664e-06
1.43932e-06
1.6975e-06
1.95121e-06
2.20025e-06
2.4443e-06
2.68291e-06
2.91554e-06
3.14164e-06
3.36065e-06
3.572e-06
3.77517e-06
3.96964e-06
4.15497e-06
4.33074e-06
4.49661e-06
4.65225e-06
4.7974e-06
4.93185e-06
5.05541e-06
5.16796e-06
5.26939e-06
5.35962e-06
5.43861e-06
5.50634e-06
5.56277e-06
5.60792e-06
5.64178e-06
5.66436e-06
5.67566e-06
5.67569e-06
5.66445e-06
5.64192e-06
5.60812e-06
5.56304e-06
5.50667e-06
5.43902e-06
5.36011e-06
5.26996e-06
5.16863e-06
5.05618e-06
4.93273e-06
4.79839e-06
4.65336e-06
4.49784e-06
4.33211e-06
4.15646e-06
3.97126e-06
3.77692e-06
3.57388e-06
3.36264e-06
3.14374e-06
2.91772e-06
2.68516e-06
2.4466e-06
2.20257e-06
1.95351e-06
1.69975e-06
1.44145e-06
1.1786e-06
9.10924e-07
6.37887e-07
3.58713e-07
1.59788e-09
6.00987e-12
2.43008e-11
6.47201e-09
3.37336e-06
5.57524e-06
7.54918e-06
9.36382e-06
1.10586e-05
1.26576e-05
1.41757e-05
1.56225e-05
1.70041e-05
1.83243e-05
1.95854e-05
2.0789e-05
2.19358e-05
2.30262e-05
2.40605e-05
2.50389e-05
2.59613e-05
2.68277e-05
2.76381e-05
2.83927e-05
2.90915e-05
2.97347e-05
3.03225e-05
3.08552e-05
3.13331e-05
3.17566e-05
3.2126e-05
3.24418e-05
3.27044e-05
3.2914e-05
3.3071e-05
3.31755e-05
3.32277e-05
3.32278e-05
3.31757e-05
3.30713e-05
3.29145e-05
3.2705e-05
3.24426e-05
3.2127e-05
3.17577e-05
3.13345e-05
3.08568e-05
3.03244e-05
2.97369e-05
2.90941e-05
2.83956e-05
2.76414e-05
2.68313e-05
2.59653e-05
2.50434e-05
2.40655e-05
2.30315e-05
2.19415e-05
2.07951e-05
1.9592e-05
1.83312e-05
1.70113e-05
1.56299e-05
1.41832e-05
1.2665e-05
1.10659e-05
9.37079e-06
7.55553e-06
5.58062e-06
3.3772e-06
6.48091e-09
2.43356e-11
3.87951e-11
1.03368e-08
5.12958e-06
8.22803e-06
1.09373e-05
1.33889e-05
1.56528e-05
1.77699e-05
1.97655e-05
2.16557e-05
2.3451e-05
2.51585e-05
2.67828e-05
2.83272e-05
2.97941e-05
3.11851e-05
3.25016e-05
3.37444e-05
3.49143e-05
3.60117e-05
3.70371e-05
3.79906e-05
3.88726e-05
3.96835e-05
4.04235e-05
4.10933e-05
4.16934e-05
4.22245e-05
4.26873e-05
4.30825e-05
4.34107e-05
4.36727e-05
4.38687e-05
4.39992e-05
4.40644e-05
4.40645e-05
4.39993e-05
4.38689e-05
4.36729e-05
4.34111e-05
4.30829e-05
4.26878e-05
4.22251e-05
4.1694e-05
4.1094e-05
4.04244e-05
3.96845e-05
3.88738e-05
3.7992e-05
3.70387e-05
3.60136e-05
3.49164e-05
3.37468e-05
3.25042e-05
3.11881e-05
2.97973e-05
2.83307e-05
2.67865e-05
2.51625e-05
2.34553e-05
2.16601e-05
1.977e-05
1.77744e-05
1.56573e-05
1.33932e-05
1.09413e-05
8.23147e-06
5.13215e-06
1.03435e-08
3.88216e-11
4.9766e-11
1.32662e-08
6.37484e-06
1.00535e-05
1.32356e-05
1.60978e-05
1.87307e-05
2.1186e-05
2.34954e-05
2.56789e-05
2.77497e-05
2.97167e-05
3.15861e-05
3.33623e-05
3.50488e-05
3.66479e-05
3.81615e-05
3.95903e-05
4.09346e-05
4.21947e-05
4.33705e-05
4.44623e-05
4.54703e-05
4.63951e-05
4.72372e-05
4.79974e-05
4.86767e-05
4.92761e-05
4.97965e-05
5.02389e-05
5.06041e-05
5.08976e-05
5.11186e-05
5.12665e-05
5.13406e-05
5.13407e-05
5.12668e-05
5.11192e-05
5.08983e-05
5.06049e-05
5.02397e-05
4.97973e-05
4.92768e-05
4.86774e-05
4.7998e-05
4.72378e-05
4.63957e-05
4.54709e-05
4.4463e-05
4.33713e-05
4.21955e-05
4.09356e-05
3.95913e-05
3.81627e-05
3.66493e-05
3.50503e-05
3.33641e-05
3.15879e-05
2.97187e-05
2.77518e-05
2.56812e-05
2.34978e-05
2.11885e-05
1.87331e-05
1.61002e-05
1.32378e-05
1.00554e-05
6.37636e-06
1.32707e-08
4.97841e-11
5.71398e-11
1.52379e-08
7.17926e-06
1.12136e-05
1.46854e-05
1.78e-05
2.06606e-05
2.33255e-05
2.58302e-05
2.81969e-05
3.04406e-05
3.25712e-05
3.45957e-05
3.65192e-05
3.83457e-05
4.00777e-05
4.17163e-05
4.32618e-05
4.47141e-05
4.60729e-05
4.73379e-05
4.85091e-05
4.95865e-05
5.05702e-05
5.14607e-05
5.2259e-05
5.2966e-05
5.35838e-05
5.41106e-05
5.45437e-05
5.49037e-05
4.70724e-05
4.71665e-05
4.72321e-05
4.72656e-05
4.72656e-05
4.72321e-05
4.71666e-05
4.70725e-05
5.49041e-05
5.45441e-05
5.41113e-05
5.35846e-05
5.29669e-05
5.22599e-05
5.14615e-05
5.05709e-05
4.95871e-05
4.85097e-05
4.73385e-05
4.60734e-05
4.47147e-05
4.32625e-05
4.1717e-05
4.00784e-05
3.83466e-05
3.65202e-05
3.45967e-05
3.25723e-05
3.04418e-05
2.81982e-05
2.58315e-05
2.33269e-05
2.0662e-05
1.78014e-05
1.46868e-05
1.12147e-05
7.18022e-06
1.52411e-08
5.7153e-11
6.15683e-11
1.64239e-08
7.65192e-06
1.18895e-05
1.55273e-05
1.87869e-05
2.17789e-05
2.45654e-05
2.71837e-05
2.96577e-05
3.20028e-05
3.42298e-05
3.6346e-05
3.8357e-05
4.02666e-05
4.20772e-05
4.37893e-05
4.54026e-05
4.69168e-05
4.83311e-05
4.96448e-05
5.0857e-05
5.1967e-05
5.29741e-05
5.38807e-05
5.46972e-05
4.7181e-05
4.74878e-05
4.77582e-05
4.79922e-05
4.81897e-05
4.83482e-05
4.84675e-05
4.85472e-05
4.8587e-05
4.8587e-05
4.8547e-05
4.84673e-05
4.8348e-05
4.81896e-05
4.79922e-05
4.77582e-05
4.74879e-05
4.71811e-05
5.46976e-05
5.38812e-05
5.29747e-05
5.19676e-05
5.08576e-05
4.96452e-05
4.83315e-05
4.69172e-05
4.54031e-05
4.37898e-05
4.20778e-05
4.02673e-05
3.83578e-05
3.63469e-05
3.42307e-05
3.20038e-05
2.96587e-05
2.71848e-05
2.45665e-05
2.17801e-05
1.87881e-05
1.55284e-05
1.18905e-05
7.65271e-06
1.64266e-08
6.158e-11
6.39636e-11
1.70663e-08
7.90494e-06
1.22499e-05
1.59757e-05
1.93126e-05
2.23749e-05
2.52266e-05
2.79064e-05
3.04385e-05
3.28391e-05
3.51189e-05
3.72857e-05
3.93451e-05
4.1301e-05
4.31554e-05
4.49083e-05
4.65593e-05
4.81078e-05
4.95527e-05
5.08933e-05
5.21285e-05
5.32564e-05
5.4272e-05
4.70939e-05
4.74926e-05
4.78577e-05
4.81857e-05
4.8475e-05
4.87245e-05
4.89334e-05
4.91011e-05
4.92272e-05
4.93114e-05
4.93536e-05
4.93535e-05
4.93114e-05
4.92271e-05
4.9101e-05
4.89332e-05
4.87243e-05
4.84748e-05
4.81856e-05
4.78576e-05
4.74925e-05
4.70939e-05
5.42722e-05
5.32567e-05
5.21289e-05
5.08938e-05
4.95532e-05
4.81083e-05
4.65599e-05
4.4909e-05
4.31561e-05
4.13019e-05
3.93461e-05
3.72867e-05
3.512e-05
3.28402e-05
3.04398e-05
2.79077e-05
2.52279e-05
2.23762e-05
1.93138e-05
1.59769e-05
1.2251e-05
7.90579e-06
1.70692e-08
6.39758e-11
6.51363e-11
1.73813e-08
8.02844e-06
1.24257e-05
1.61944e-05
1.95692e-05
2.26662e-05
2.55504e-05
2.82609e-05
3.08224e-05
3.32511e-05
3.5558e-05
3.7751e-05
3.98357e-05
4.18161e-05
4.36939e-05
4.5469e-05
4.71409e-05
4.87083e-05
5.01697e-05
5.15227e-05
5.27639e-05
5.38888e-05
5.49645e-05
4.74298e-05
4.78388e-05
4.82136e-05
4.85506e-05
4.88479e-05
4.91041e-05
4.93185e-05
4.94906e-05
4.96199e-05
4.97063e-05
4.97495e-05
4.97495e-05
4.97063e-05
4.96199e-05
4.94905e-05
4.93184e-05
4.9104e-05
4.88478e-05
4.85506e-05
4.82136e-05
4.78388e-05
4.74299e-05
5.49646e-05
5.38891e-05
5.27645e-05
5.15233e-05
5.01704e-05
4.87091e-05
4.71417e-05
4.547e-05
4.36949e-05
4.18173e-05
3.9837e-05
3.77523e-05
3.55594e-05
3.32525e-05
3.08239e-05
2.82625e-05
2.5552e-05
2.26678e-05
1.95707e-05
1.61958e-05
1.24269e-05
8.02942e-06
1.73846e-08
6.51498e-11
6.56583e-11
1.75218e-08
8.08345e-06
1.2504e-05
1.62919e-05
1.96837e-05
2.27965e-05
2.56954e-05
2.84199e-05
3.09947e-05
3.34363e-05
3.57557e-05
3.79608e-05
4.00574e-05
4.20492e-05
4.3938e-05
4.57237e-05
4.74056e-05
4.89829e-05
5.04543e-05
5.18177e-05
5.30698e-05
5.42042e-05
4.71228e-05
4.75776e-05
4.79971e-05
4.83788e-05
4.87208e-05
4.9022e-05
4.92815e-05
4.94985e-05
4.96726e-05
4.98034e-05
4.98908e-05
4.99345e-05
4.99345e-05
4.98908e-05
4.98034e-05
4.96726e-05
4.94985e-05
4.92815e-05
4.90221e-05
4.87209e-05
4.83788e-05
4.79971e-05
4.75777e-05
4.7123e-05
5.42048e-05
5.30705e-05
5.18184e-05
5.04551e-05
4.89839e-05
4.74067e-05
4.57248e-05
4.39393e-05
4.20506e-05
4.00589e-05
3.79624e-05
3.57574e-05
3.34381e-05
3.09965e-05
2.84217e-05
2.56972e-05
2.27983e-05
1.96855e-05
1.62935e-05
1.25054e-05
8.08456e-06
1.75254e-08
6.5673e-11
6.58714e-11
1.75792e-08
8.10595e-06
1.2536e-05
1.63318e-05
1.97306e-05
2.28498e-05
2.57548e-05
2.8485e-05
3.10654e-05
3.35123e-05
3.58368e-05
3.80468e-05
4.0148e-05
4.21442e-05
4.4037e-05
4.58262e-05
4.75112e-05
4.90911e-05
5.0565e-05
5.19318e-05
5.31897e-05
5.43331e-05
4.71832e-05
4.76418e-05
4.80647e-05
4.84491e-05
4.87932e-05
4.90961e-05
4.93569e-05
4.9575e-05
4.975e-05
4.98815e-05
4.99693e-05
5.00133e-05
5.00133e-05
4.99693e-05
4.98815e-05
4.97501e-05
4.95751e-05
4.9357e-05
4.90962e-05
4.87934e-05
4.84492e-05
4.80649e-05
4.7642e-05
4.71835e-05
5.43338e-05
5.31904e-05
5.19326e-05
5.05659e-05
4.90922e-05
4.75125e-05
4.58276e-05
4.40385e-05
4.21458e-05
4.01497e-05
3.80486e-05
3.58387e-05
3.35142e-05
3.10674e-05
2.8487e-05
2.57568e-05
2.28518e-05
1.97325e-05
1.63335e-05
1.25375e-05
8.10714e-06
1.7583e-08
6.5887e-11
6.59502e-11
1.76005e-08
8.1143e-06
1.25479e-05
1.63466e-05
1.97481e-05
2.28696e-05
2.57769e-05
2.85093e-05
3.10918e-05
3.35407e-05
3.58673e-05
3.80793e-05
4.01826e-05
4.21809e-05
4.40757e-05
4.5867e-05
4.7554e-05
4.9136e-05
5.06119e-05
5.19809e-05
5.32411e-05
5.43871e-05
4.72079e-05
4.76675e-05
4.80913e-05
4.84766e-05
4.88215e-05
4.9125e-05
4.93863e-05
4.96049e-05
4.97802e-05
4.9912e-05
4.99999e-05
5.0044e-05
5.0044e-05
5e-05
4.9912e-05
4.97803e-05
4.96049e-05
4.93864e-05
4.91251e-05
4.88216e-05
4.84767e-05
4.80916e-05
4.76677e-05
4.72081e-05
5.43877e-05
5.3242e-05
5.19819e-05
5.0613e-05
4.91372e-05
4.75554e-05
4.58684e-05
4.40773e-05
4.21826e-05
4.01844e-05
3.80812e-05
3.58693e-05
3.35428e-05
3.10939e-05
2.85114e-05
2.5779e-05
2.28717e-05
1.975e-05
1.63484e-05
1.25494e-05
8.11553e-06
1.76044e-08
6.59663e-11
6.59778e-11
1.7608e-08
8.11723e-06
1.2552e-05
1.63518e-05
1.97542e-05
2.28766e-05
2.57847e-05
2.85179e-05
3.11012e-05
3.35509e-05
3.58782e-05
3.8091e-05
4.0195e-05
4.21941e-05
4.40898e-05
4.58819e-05
4.75698e-05
4.91526e-05
5.06293e-05
5.19992e-05
5.32602e-05
5.44069e-05
4.72169e-05
4.76769e-05
4.8101e-05
4.84865e-05
4.88316e-05
4.91354e-05
4.93969e-05
4.96156e-05
4.9791e-05
4.99229e-05
5.00109e-05
5.0055e-05
5.0055e-05
5.0011e-05
4.9923e-05
4.97911e-05
4.96157e-05
4.9397e-05
4.91355e-05
4.88318e-05
4.84867e-05
4.81012e-05
4.76771e-05
4.72172e-05
5.44076e-05
5.32611e-05
5.20002e-05
5.06305e-05
4.91538e-05
4.75712e-05
4.58834e-05
4.40914e-05
4.21959e-05
4.01969e-05
3.8093e-05
3.58803e-05
3.3553e-05
3.11033e-05
2.85201e-05
2.57868e-05
2.28787e-05
1.97562e-05
1.63537e-05
1.25537e-05
8.11848e-06
1.76119e-08
6.5994e-11
6.59869e-11
1.76104e-08
8.1182e-06
1.25534e-05
1.63536e-05
1.97563e-05
2.2879e-05
2.57873e-05
2.85208e-05
3.11043e-05
3.35543e-05
3.58819e-05
3.8095e-05
4.01993e-05
4.21986e-05
4.40946e-05
4.5887e-05
4.75751e-05
4.91582e-05
5.06352e-05
5.20053e-05
5.32666e-05
5.44135e-05
4.722e-05
4.768e-05
4.81042e-05
4.84898e-05
4.8835e-05
4.91388e-05
4.94004e-05
4.96192e-05
4.97947e-05
4.99266e-05
5.00146e-05
5.00587e-05
5.00587e-05
5.00146e-05
4.99266e-05
4.97947e-05
4.96193e-05
4.94005e-05
4.9139e-05
4.88352e-05
4.849e-05
4.81045e-05
4.76803e-05
4.72202e-05
5.44143e-05
5.32675e-05
5.20064e-05
5.06364e-05
4.91595e-05
4.75766e-05
4.58885e-05
4.40962e-05
4.22004e-05
4.02012e-05
3.8097e-05
3.5884e-05
3.35564e-05
3.11065e-05
2.8523e-05
2.57895e-05
2.28811e-05
1.97583e-05
1.63554e-05
1.25551e-05
8.11947e-06
1.76144e-08
6.60033e-11
6.59897e-11
1.76112e-08
8.1185e-06
1.25539e-05
1.63541e-05
1.97569e-05
2.28797e-05
2.57881e-05
2.85217e-05
3.11053e-05
3.35554e-05
3.58831e-05
3.80962e-05
4.02006e-05
4.22001e-05
4.40961e-05
4.58886e-05
4.75768e-05
4.916e-05
5.06371e-05
5.20073e-05
5.32686e-05
5.44156e-05
4.72209e-05
4.7681e-05
4.81052e-05
4.84908e-05
4.88361e-05
4.91399e-05
4.94015e-05
4.96203e-05
4.97958e-05
4.99277e-05
5.00158e-05
5.00598e-05
5.00598e-05
5.00158e-05
4.99277e-05
4.97959e-05
4.96204e-05
4.94016e-05
4.914e-05
4.88363e-05
4.8491e-05
4.81055e-05
4.76812e-05
4.72212e-05
5.44163e-05
5.32695e-05
5.20083e-05
5.06383e-05
4.91613e-05
4.75783e-05
4.58901e-05
4.40978e-05
4.22019e-05
4.02025e-05
3.80982e-05
3.58851e-05
3.35575e-05
3.11075e-05
2.85239e-05
2.57903e-05
2.28818e-05
1.97589e-05
1.6356e-05
1.25555e-05
8.11977e-06
1.76152e-08
6.60061e-11
6.59905e-11
1.76114e-08
8.11859e-06
1.2554e-05
1.63542e-05
1.97571e-05
2.28799e-05
2.57884e-05
2.85219e-05
3.11056e-05
3.35557e-05
3.58834e-05
3.80966e-05
4.0201e-05
4.22005e-05
4.40965e-05
4.5889e-05
4.75773e-05
4.91605e-05
5.06376e-05
5.20078e-05
5.32692e-05
5.44162e-05
4.72212e-05
4.76813e-05
4.81055e-05
4.84911e-05
4.88364e-05
4.91402e-05
4.94018e-05
4.96206e-05
4.97961e-05
4.9928e-05
5.00161e-05
5.00602e-05
5.00602e-05
5.00161e-05
4.99281e-05
4.97962e-05
4.96207e-05
4.94019e-05
4.91404e-05
4.88366e-05
4.84913e-05
4.81058e-05
4.76815e-05
4.72215e-05
5.4417e-05
5.32701e-05
5.20089e-05
5.06388e-05
4.91618e-05
4.75788e-05
4.58906e-05
4.40982e-05
4.22023e-05
4.02029e-05
3.80986e-05
3.58855e-05
3.35579e-05
3.11078e-05
2.85242e-05
2.57906e-05
2.2882e-05
1.97591e-05
1.63561e-05
1.25556e-05
8.11986e-06
1.76154e-08
6.60069e-11
6.59908e-11
1.76115e-08
8.11861e-06
1.2554e-05
1.63543e-05
1.97571e-05
2.288e-05
2.57884e-05
2.8522e-05
3.11057e-05
3.35558e-05
3.58835e-05
3.80967e-05
4.02011e-05
4.22006e-05
4.40966e-05
4.58892e-05
4.75775e-05
4.91606e-05
5.06378e-05
5.2008e-05
5.32694e-05
5.44164e-05
4.72213e-05
4.76813e-05
4.81056e-05
4.84912e-05
4.88365e-05
4.91403e-05
4.94019e-05
4.96207e-05
4.97962e-05
4.99281e-05
5.00162e-05
5.00603e-05
5.00603e-05
5.00162e-05
4.99282e-05
4.97963e-05
4.96208e-05
4.9402e-05
4.91404e-05
4.88366e-05
4.84914e-05
4.81058e-05
4.76816e-05
4.72215e-05
5.44171e-05
5.32703e-05
5.2009e-05
5.0639e-05
4.91619e-05
4.75789e-05
4.58907e-05
4.40983e-05
4.22024e-05
4.0203e-05
3.80987e-05
3.58856e-05
3.35579e-05
3.11079e-05
2.85242e-05
2.57906e-05
2.28821e-05
1.97592e-05
1.63562e-05
1.25557e-05
8.11988e-06
1.76155e-08
6.60071e-11
6.59908e-11
1.76115e-08
8.11862e-06
1.2554e-05
1.63543e-05
1.97571e-05
2.288e-05
2.57884e-05
2.8522e-05
3.11057e-05
3.35558e-05
3.58835e-05
3.80967e-05
4.02011e-05
4.22006e-05
4.40967e-05
4.58892e-05
4.75775e-05
4.91607e-05
5.06378e-05
5.2008e-05
5.32694e-05
5.44164e-05
4.72213e-05
4.76814e-05
4.81056e-05
4.84912e-05
4.88365e-05
4.91403e-05
4.94019e-05
4.96207e-05
4.97962e-05
4.99281e-05
5.00162e-05
5.00603e-05
5.00603e-05
5.00162e-05
4.99282e-05
4.97963e-05
4.96208e-05
4.9402e-05
4.91405e-05
4.88367e-05
4.84914e-05
4.81059e-05
4.76816e-05
4.72216e-05
5.44172e-05
5.32703e-05
5.20091e-05
5.0639e-05
4.9162e-05
4.75789e-05
4.58908e-05
4.40984e-05
4.22024e-05
4.02031e-05
3.80987e-05
3.58856e-05
3.3558e-05
3.11079e-05
2.85242e-05
2.57906e-05
2.28821e-05
1.97592e-05
1.63562e-05
1.25557e-05
8.11989e-06
1.76155e-08
6.60072e-11
6.59908e-11
1.76115e-08
8.11862e-06
1.2554e-05
1.63543e-05
1.97571e-05
2.288e-05
2.57884e-05
2.8522e-05
3.11057e-05
3.35558e-05
3.58835e-05
3.80967e-05
4.02012e-05
4.22006e-05
4.40967e-05
4.58892e-05
4.75775e-05
4.91607e-05
5.06378e-05
5.2008e-05
5.32694e-05
5.44164e-05
4.72213e-05
4.76814e-05
4.81056e-05
4.84912e-05
4.88365e-05
4.91403e-05
4.94019e-05
4.96207e-05
4.97962e-05
4.99281e-05
5.00162e-05
5.00603e-05
5.00603e-05
5.00162e-05
4.99282e-05
4.97963e-05
4.96208e-05
4.94021e-05
4.91405e-05
4.88367e-05
4.84914e-05
4.81059e-05
4.76816e-05
4.72216e-05
5.44172e-05
5.32703e-05
5.20091e-05
5.0639e-05
4.9162e-05
4.75789e-05
4.58908e-05
4.40984e-05
4.22024e-05
4.02031e-05
3.80987e-05
3.58856e-05
3.3558e-05
3.11079e-05
2.85243e-05
2.57906e-05
2.28821e-05
1.97592e-05
1.63562e-05
1.25557e-05
8.11989e-06
1.76155e-08
6.60072e-11
6.59908e-11
1.76115e-08
8.11862e-06
1.2554e-05
1.63543e-05
1.97571e-05
2.288e-05
2.57884e-05
2.8522e-05
3.11057e-05
3.35558e-05
3.58835e-05
3.80967e-05
4.02012e-05
4.22006e-05
4.40967e-05
4.58892e-05
4.75775e-05
4.91607e-05
5.06378e-05
5.2008e-05
5.32694e-05
5.44164e-05
4.72213e-05
4.76814e-05
4.81056e-05
4.84912e-05
4.88365e-05
4.91403e-05
4.94019e-05
4.96207e-05
4.97962e-05
4.99281e-05
5.00162e-05
5.00603e-05
5.00603e-05
5.00162e-05
4.99282e-05
4.97963e-05
4.96208e-05
4.94021e-05
4.91405e-05
4.88367e-05
4.84914e-05
4.81059e-05
4.76816e-05
4.72216e-05
5.44172e-05
5.32703e-05
5.20091e-05
5.0639e-05
4.9162e-05
4.75789e-05
4.58908e-05
4.40984e-05
4.22024e-05
4.02031e-05
3.80987e-05
3.58856e-05
3.3558e-05
3.11079e-05
2.85243e-05
2.57906e-05
2.28821e-05
1.97592e-05
1.63562e-05
1.25557e-05
8.11989e-06
1.76155e-08
6.60072e-11
6.59908e-11
1.76115e-08
8.11862e-06
1.2554e-05
1.63543e-05
1.97571e-05
2.288e-05
2.57884e-05
2.8522e-05
3.11057e-05
3.35558e-05
3.58835e-05
3.80967e-05
4.02012e-05
4.22006e-05
4.40967e-05
4.58892e-05
4.75775e-05
4.91607e-05
5.06378e-05
5.2008e-05
5.32694e-05
5.44164e-05
4.72213e-05
4.76814e-05
4.81056e-05
4.84912e-05
4.88365e-05
4.91403e-05
4.94019e-05
4.96207e-05
4.97962e-05
4.99281e-05
5.00162e-05
5.00603e-05
5.00603e-05
5.00162e-05
4.99282e-05
4.97963e-05
4.96208e-05
4.94021e-05
4.91405e-05
4.88367e-05
4.84914e-05
4.81059e-05
4.76816e-05
4.72216e-05
5.44172e-05
5.32703e-05
5.20091e-05
5.0639e-05
4.9162e-05
4.75789e-05
4.58908e-05
4.40984e-05
4.22024e-05
4.02031e-05
3.80987e-05
3.58856e-05
3.3558e-05
3.11079e-05
2.85243e-05
2.57906e-05
2.28821e-05
1.97592e-05
1.63562e-05
1.25557e-05
8.11989e-06
1.76155e-08
6.60072e-11
6.59908e-11
1.76115e-08
8.11862e-06
1.2554e-05
1.63543e-05
1.97571e-05
2.288e-05
2.57884e-05
2.8522e-05
3.11057e-05
3.35558e-05
3.58835e-05
3.80967e-05
4.02012e-05
4.22006e-05
4.40967e-05
4.58892e-05
4.75775e-05
4.91607e-05
5.06378e-05
5.2008e-05
5.32694e-05
5.44164e-05
4.72213e-05
4.76814e-05
4.81056e-05
4.84912e-05
4.88365e-05
4.91403e-05
4.94019e-05
4.96207e-05
4.97962e-05
4.99281e-05
5.00162e-05
5.00603e-05
5.00603e-05
5.00162e-05
4.99282e-05
4.97963e-05
4.96208e-05
4.94021e-05
4.91405e-05
4.88367e-05
4.84914e-05
4.81059e-05
4.76816e-05
4.72216e-05
5.44172e-05
5.32703e-05
5.20091e-05
5.0639e-05
4.9162e-05
4.75789e-05
4.58908e-05
4.40984e-05
4.22024e-05
4.02031e-05
3.80987e-05
3.58856e-05
3.3558e-05
3.11079e-05
2.85243e-05
2.57906e-05
2.28821e-05
1.97592e-05
1.63562e-05
1.25557e-05
8.11989e-06
1.76155e-08
6.60072e-11
6.59908e-11
1.76115e-08
8.11862e-06
1.2554e-05
1.63543e-05
1.97571e-05
2.288e-05
2.57884e-05
2.8522e-05
3.11057e-05
3.35558e-05
3.58835e-05
3.80967e-05
4.02012e-05
4.22006e-05
4.40967e-05
4.58892e-05
4.75775e-05
4.91607e-05
5.06378e-05
5.2008e-05
5.32694e-05
5.44164e-05
4.72213e-05
4.76814e-05
4.81056e-05
4.84912e-05
4.88365e-05
4.91403e-05
4.94019e-05
4.96207e-05
4.97962e-05
4.99281e-05
5.00162e-05
5.00603e-05
5.00603e-05
5.00162e-05
4.99282e-05
4.97963e-05
4.96208e-05
4.94021e-05
4.91405e-05
4.88367e-05
4.84914e-05
4.81059e-05
4.76816e-05
4.72216e-05
5.44172e-05
5.32703e-05
5.20091e-05
5.0639e-05
4.9162e-05
4.75789e-05
4.58908e-05
4.40984e-05
4.22024e-05
4.02031e-05
3.80987e-05
3.58856e-05
3.3558e-05
3.11079e-05
2.85243e-05
2.57906e-05
2.28821e-05
1.97592e-05
1.63562e-05
1.25557e-05
8.11989e-06
1.76155e-08
6.60072e-11
6.59908e-11
1.76115e-08
8.11862e-06
1.2554e-05
1.63543e-05
1.97571e-05
2.288e-05
2.57884e-05
2.8522e-05
3.11057e-05
3.35558e-05
3.58835e-05
3.80967e-05
4.02012e-05
4.22006e-05
4.40967e-05
4.58892e-05
4.75775e-05
4.91607e-05
5.06378e-05
5.2008e-05
5.32694e-05
5.44164e-05
4.72213e-05
4.76814e-05
4.81056e-05
4.84912e-05
4.88365e-05
4.91403e-05
4.94019e-05
4.96207e-05
4.97962e-05
4.99281e-05
5.00162e-05
5.00603e-05
5.00603e-05
5.00162e-05
4.99282e-05
4.97963e-05
4.96208e-05
4.94021e-05
4.91405e-05
4.88367e-05
4.84914e-05
4.81059e-05
4.76816e-05
4.72216e-05
5.44172e-05
5.32703e-05
5.20091e-05
5.0639e-05
4.9162e-05
4.75789e-05
4.58908e-05
4.40984e-05
4.22024e-05
4.02031e-05
3.80987e-05
3.58856e-05
3.3558e-05
3.11079e-05
2.85243e-05
2.57906e-05
2.28821e-05
1.97592e-05
1.63562e-05
1.25557e-05
8.11989e-06
1.76155e-08
6.60072e-11
6.59908e-11
1.76115e-08
8.11862e-06
1.2554e-05
1.63543e-05
1.97571e-05
2.288e-05
2.57884e-05
2.8522e-05
3.11057e-05
3.35558e-05
3.58835e-05
3.80967e-05
4.02012e-05
4.22006e-05
4.40967e-05
4.58892e-05
4.75775e-05
4.91607e-05
5.06378e-05
5.2008e-05
5.32694e-05
5.44164e-05
4.72213e-05
4.76814e-05
4.81056e-05
4.84912e-05
4.88365e-05
4.91403e-05
4.94019e-05
4.96207e-05
4.97962e-05
4.99281e-05
5.00162e-05
5.00603e-05
5.00603e-05
5.00162e-05
4.99282e-05
4.97963e-05
4.96208e-05
4.94021e-05
4.91405e-05
4.88367e-05
4.84914e-05
4.81059e-05
4.76816e-05
4.72216e-05
5.44172e-05
5.32703e-05
5.20091e-05
5.0639e-05
4.9162e-05
4.75789e-05
4.58908e-05
4.40984e-05
4.22024e-05
4.02031e-05
3.80987e-05
3.58856e-05
3.3558e-05
3.11079e-05
2.85243e-05
2.57906e-05
2.28821e-05
1.97592e-05
1.63562e-05
1.25557e-05
8.11989e-06
1.76155e-08
6.60072e-11
6.59908e-11
1.76115e-08
8.11862e-06
1.2554e-05
1.63543e-05
1.97571e-05
2.288e-05
2.57884e-05
2.8522e-05
3.11057e-05
3.35558e-05
3.58835e-05
3.80967e-05
4.02012e-05
4.22006e-05
4.40967e-05
4.58892e-05
4.75775e-05
4.91607e-05
5.06378e-05
5.2008e-05
5.32694e-05
5.44164e-05
4.72213e-05
4.76814e-05
4.81056e-05
4.84912e-05
4.88365e-05
4.91403e-05
4.94019e-05
4.96207e-05
4.97962e-05
4.99281e-05
5.00162e-05
5.00603e-05
5.00603e-05
5.00162e-05
4.99282e-05
4.97963e-05
4.96208e-05
4.94021e-05
4.91405e-05
4.88367e-05
4.84914e-05
4.81059e-05
4.76816e-05
4.72216e-05
5.44172e-05
5.32703e-05
5.20091e-05
5.0639e-05
4.9162e-05
4.75789e-05
4.58908e-05
4.40984e-05
4.22024e-05
4.02031e-05
3.80987e-05
3.58856e-05
3.3558e-05
3.11079e-05
2.85243e-05
2.57906e-05
2.28821e-05
1.97592e-05
1.63562e-05
1.25557e-05
8.11989e-06
1.76155e-08
6.60072e-11
6.59908e-11
1.76115e-08
8.11862e-06
1.2554e-05
1.63543e-05
1.97571e-05
2.288e-05
2.57884e-05
2.8522e-05
3.11057e-05
3.35558e-05
3.58835e-05
3.80967e-05
4.02012e-05
4.22006e-05
4.40967e-05
4.58892e-05
4.75775e-05
4.91607e-05
5.06378e-05
5.2008e-05
5.32694e-05
5.44164e-05
4.72213e-05
4.76814e-05
4.81056e-05
4.84912e-05
4.88365e-05
4.91403e-05
4.94019e-05
4.96207e-05
4.97962e-05
4.99281e-05
5.00162e-05
5.00603e-05
5.00603e-05
5.00162e-05
4.99282e-05
4.97963e-05
4.96208e-05
4.94021e-05
4.91405e-05
4.88367e-05
4.84914e-05
4.81059e-05
4.76816e-05
4.72216e-05
5.44172e-05
5.32703e-05
5.20091e-05
5.0639e-05
4.9162e-05
4.75789e-05
4.58908e-05
4.40984e-05
4.22024e-05
4.02031e-05
3.80987e-05
3.58856e-05
3.3558e-05
3.11079e-05
2.85243e-05
2.57906e-05
2.28821e-05
1.97592e-05
1.63562e-05
1.25557e-05
8.11989e-06
1.76155e-08
6.60072e-11
6.59908e-11
1.76115e-08
8.11862e-06
1.2554e-05
1.63543e-05
1.97571e-05
2.288e-05
2.57884e-05
2.8522e-05
3.11057e-05
3.35558e-05
3.58835e-05
3.80967e-05
4.02012e-05
4.22006e-05
4.40967e-05
4.58892e-05
4.75775e-05
4.91607e-05
5.06378e-05
5.2008e-05
5.32694e-05
5.44164e-05
4.72213e-05
4.76814e-05
4.81056e-05
4.84912e-05
4.88365e-05
4.91403e-05
4.94019e-05
4.96207e-05
4.97962e-05
4.99281e-05
5.00162e-05
5.00603e-05
5.00603e-05
5.00162e-05
4.99282e-05
4.97963e-05
4.96208e-05
4.94021e-05
4.91405e-05
4.88367e-05
4.84914e-05
4.81059e-05
4.76816e-05
4.72216e-05
5.44172e-05
5.32703e-05
5.20091e-05
5.0639e-05
4.9162e-05
4.75789e-05
4.58908e-05
4.40984e-05
4.22024e-05
4.02031e-05
3.80987e-05
3.58856e-05
3.3558e-05
3.11079e-05
2.85243e-05
2.57906e-05
2.28821e-05
1.97592e-05
1.63562e-05
1.25557e-05
8.11989e-06
1.76155e-08
6.60072e-11
6.59908e-11
1.76115e-08
8.11862e-06
1.2554e-05
1.63543e-05
1.97571e-05
2.288e-05
2.57884e-05
2.8522e-05
3.11057e-05
3.35558e-05
3.58835e-05
3.80967e-05
4.02012e-05
4.22006e-05
4.40967e-05
4.58892e-05
4.75775e-05
4.91607e-05
5.06378e-05
5.2008e-05
5.32694e-05
5.44164e-05
4.72213e-05
4.76814e-05
4.81056e-05
4.84912e-05
4.88365e-05
4.91403e-05
4.94019e-05
4.96207e-05
4.97962e-05
4.99281e-05
5.00162e-05
5.00603e-05
5.00603e-05
5.00162e-05
4.99282e-05
4.97963e-05
4.96208e-05
4.94021e-05
4.91405e-05
4.88367e-05
4.84914e-05
4.81059e-05
4.76816e-05
4.72216e-05
5.44172e-05
5.32703e-05
5.20091e-05
5.0639e-05
4.9162e-05
4.75789e-05
4.58908e-05
4.40984e-05
4.22024e-05
4.02031e-05
3.80987e-05
3.58856e-05
3.3558e-05
3.11079e-05
2.85243e-05
2.57906e-05
2.28821e-05
1.97592e-05
1.63562e-05
1.25557e-05
8.11989e-06
1.76155e-08
6.60072e-11
6.59908e-11
1.76115e-08
8.11862e-06
1.2554e-05
1.63543e-05
1.97571e-05
2.288e-05
2.57884e-05
2.8522e-05
3.11057e-05
3.35558e-05
3.58835e-05
3.80967e-05
4.02012e-05
4.22006e-05
4.40967e-05
4.58892e-05
4.75775e-05
4.91607e-05
5.06378e-05
5.2008e-05
5.32694e-05
5.44164e-05
4.72213e-05
4.76814e-05
4.81056e-05
4.84912e-05
4.88365e-05
4.91403e-05
4.94019e-05
4.96207e-05
4.97962e-05
4.99281e-05
5.00162e-05
5.00603e-05
5.00603e-05
5.00162e-05
4.99282e-05
4.97963e-05
4.96208e-05
4.94021e-05
4.91405e-05
4.88367e-05
4.84914e-05
4.81059e-05
4.76816e-05
4.72216e-05
5.44172e-05
5.32703e-05
5.20091e-05
5.0639e-05
4.9162e-05
4.75789e-05
4.58908e-05
4.40984e-05
4.22024e-05
4.02031e-05
3.80987e-05
3.58856e-05
3.3558e-05
3.11079e-05
2.85243e-05
2.57906e-05
2.28821e-05
1.97592e-05
1.63562e-05
1.25557e-05
8.11989e-06
1.76155e-08
6.60072e-11
6.59908e-11
1.76115e-08
8.11862e-06
1.2554e-05
1.63543e-05
1.97571e-05
2.288e-05
2.57884e-05
2.8522e-05
3.11057e-05
3.35558e-05
3.58835e-05
3.80967e-05
4.02012e-05
4.22006e-05
4.40967e-05
4.58892e-05
4.75775e-05
4.91607e-05
5.06378e-05
5.2008e-05
5.32694e-05
5.44164e-05
4.72213e-05
4.76814e-05
4.81056e-05
4.84912e-05
4.88365e-05
4.91403e-05
4.94019e-05
4.96207e-05
4.97962e-05
4.99281e-05
5.00162e-05
5.00603e-05
5.00603e-05
5.00162e-05
4.99282e-05
4.97963e-05
4.96208e-05
4.94021e-05
4.91405e-05
4.88367e-05
4.84914e-05
4.81059e-05
4.76816e-05
4.72216e-05
5.44172e-05
5.32703e-05
5.20091e-05
5.0639e-05
4.9162e-05
4.75789e-05
4.58908e-05
4.40984e-05
4.22024e-05
4.02031e-05
3.80987e-05
3.58856e-05
3.3558e-05
3.11079e-05
2.85243e-05
2.57906e-05
2.28821e-05
1.97592e-05
1.63562e-05
1.25557e-05
8.11989e-06
1.76155e-08
6.60072e-11
6.59908e-11
1.76115e-08
8.11862e-06
1.2554e-05
1.63543e-05
1.97571e-05
2.288e-05
2.57884e-05
2.8522e-05
3.11057e-05
3.35558e-05
3.58835e-05
3.80967e-05
4.02012e-05
4.22006e-05
4.40967e-05
4.58892e-05
4.75775e-05
4.91607e-05
5.06378e-05
5.2008e-05
5.32694e-05
5.44164e-05
4.72213e-05
4.76814e-05
4.81056e-05
4.84912e-05
4.88365e-05
4.91403e-05
4.94019e-05
4.96207e-05
4.97962e-05
4.99281e-05
5.00162e-05
5.00603e-05
5.00603e-05
5.00162e-05
4.99282e-05
4.97963e-05
4.96208e-05
4.94021e-05
4.91405e-05
4.88367e-05
4.84914e-05
4.81059e-05
4.76816e-05
4.72216e-05
5.44172e-05
5.32703e-05
5.20091e-05
5.0639e-05
4.9162e-05
4.75789e-05
4.58908e-05
4.40984e-05
4.22024e-05
4.02031e-05
3.80987e-05
3.58856e-05
3.3558e-05
3.11079e-05
2.85243e-05
2.57906e-05
2.28821e-05
1.97592e-05
1.63562e-05
1.25557e-05
8.11989e-06
1.76155e-08
6.60072e-11
6.59908e-11
1.76115e-08
8.11862e-06
1.2554e-05
1.63543e-05
1.97571e-05
2.288e-05
2.57884e-05
2.8522e-05
3.11057e-05
3.35558e-05
3.58835e-05
3.80967e-05
4.02012e-05
4.22006e-05
4.40967e-05
4.58892e-05
4.75775e-05
4.91607e-05
5.06378e-05
5.2008e-05
5.32694e-05
5.44164e-05
4.72213e-05
4.76814e-05
4.81056e-05
4.84912e-05
4.88365e-05
4.91403e-05
4.94019e-05
4.96207e-05
4.97962e-05
4.99281e-05
5.00162e-05
5.00603e-05
5.00603e-05
5.00162e-05
4.99282e-05
4.97963e-05
4.96208e-05
4.94021e-05
4.91405e-05
4.88367e-05
4.84914e-05
4.81059e-05
4.76816e-05
4.72216e-05
5.44172e-05
5.32703e-05
5.20091e-05
5.0639e-05
4.9162e-05
4.75789e-05
4.58908e-05
4.40984e-05
4.22024e-05
4.02031e-05
3.80987e-05
3.58856e-05
3.3558e-05
3.11079e-05
2.85243e-05
2.57906e-05
2.28821e-05
1.97592e-05
1.63562e-05
1.25557e-05
8.11989e-06
1.76155e-08
6.60072e-11
6.59908e-11
1.76115e-08
8.11862e-06
1.2554e-05
1.63543e-05
1.97571e-05
2.288e-05
2.57884e-05
2.8522e-05
3.11057e-05
3.35558e-05
3.58835e-05
3.80967e-05
4.02012e-05
4.22006e-05
4.40967e-05
4.58892e-05
4.75775e-05
4.91607e-05
5.06378e-05
5.2008e-05
5.32694e-05
5.44164e-05
4.72213e-05
4.76814e-05
4.81056e-05
4.84912e-05
4.88365e-05
4.91403e-05
4.94019e-05
4.96207e-05
4.97962e-05
4.99281e-05
5.00162e-05
5.00603e-05
5.00603e-05
5.00162e-05
4.99282e-05
4.97963e-05
4.96208e-05
4.94021e-05
4.91405e-05
4.88367e-05
4.84914e-05
4.81059e-05
4.76816e-05
4.72216e-05
5.44172e-05
5.32703e-05
5.20091e-05
5.0639e-05
4.9162e-05
4.75789e-05
4.58908e-05
4.40984e-05
4.22024e-05
4.02031e-05
3.80987e-05
3.58856e-05
3.3558e-05
3.11079e-05
2.85243e-05
2.57906e-05
2.28821e-05
1.97592e-05
1.63562e-05
1.25557e-05
8.11989e-06
1.76155e-08
6.60072e-11
6.59908e-11
1.76115e-08
8.11862e-06
1.2554e-05
1.63543e-05
1.97571e-05
2.288e-05
2.57884e-05
2.8522e-05
3.11057e-05
3.35558e-05
3.58835e-05
3.80967e-05
4.02012e-05
4.22006e-05
4.40967e-05
4.58892e-05
4.75775e-05
4.91607e-05
5.06378e-05
5.2008e-05
5.32694e-05
5.44164e-05
4.72213e-05
4.76814e-05
4.81056e-05
4.84912e-05
4.88365e-05
4.91403e-05
4.94019e-05
4.96207e-05
4.97962e-05
4.99281e-05
5.00162e-05
5.00603e-05
5.00603e-05
5.00162e-05
4.99282e-05
4.97963e-05
4.96208e-05
4.94021e-05
4.91405e-05
4.88367e-05
4.84914e-05
4.81059e-05
4.76816e-05
4.72216e-05
5.44172e-05
5.32703e-05
5.20091e-05
5.0639e-05
4.9162e-05
4.75789e-05
4.58908e-05
4.40984e-05
4.22024e-05
4.02031e-05
3.80987e-05
3.58856e-05
3.3558e-05
3.11079e-05
2.85243e-05
2.57906e-05
2.28821e-05
1.97592e-05
1.63562e-05
1.25557e-05
8.11989e-06
1.76155e-08
6.60072e-11
6.59908e-11
1.76115e-08
8.11862e-06
1.2554e-05
1.63543e-05
1.97571e-05
2.288e-05
2.57884e-05
2.8522e-05
3.11057e-05
3.35558e-05
3.58835e-05
3.80967e-05
4.02012e-05
4.22006e-05
4.40967e-05
4.58892e-05
4.75775e-05
4.91607e-05