/*--------------------------------*- C++ -*----------------------------------*\
  =========                 |
  \\      /  F ield         | OpenFOAM: The Open Source CFD Toolbox
   \\    /   O peration     | Website:  https://openfoam.org
    \\  /    A nd           | Version:  13
     \\/     M anipulation  |
\*---------------------------------------------------------------------------*/
FoamFile
{
    format      ascii;
    class       volScalarField;
    location    "137.5";
    object      nut;
}
// * * * * * * * * * * * * * * * * * * * * * * * * * * * * * * * * * * * * * //

dimensions      [0 2 -1 0 0 0 0];

internalField   nonuniform List<scalar> 
315000
(
1.70154e-15
4.45681e-13
1.01719e-11
1.82638e-11
2.64963e-11
3.48898e-11
4.34689e-11
5.22552e-11
6.12641e-11
7.05027e-11
7.99694e-11
8.96532e-11
9.95342e-11
1.09584e-10
1.19765e-10
1.30034e-10
1.40339e-10
1.50625e-10
1.60832e-10
1.70896e-10
1.8075e-10
1.90328e-10
1.99562e-10
2.08387e-10
2.16737e-10
2.2455e-10
2.31767e-10
2.38333e-10
2.44197e-10
2.49313e-10
2.53643e-10
2.57151e-10
2.5981e-10
2.616e-10
2.62505e-10
2.62519e-10
2.61641e-10
2.5988e-10
2.57247e-10
2.53765e-10
2.49461e-10
2.44368e-10
2.38526e-10
2.31981e-10
2.24783e-10
2.16988e-10
2.08653e-10
1.99841e-10
1.90617e-10
1.81048e-10
1.71199e-10
1.6114e-10
1.50934e-10
1.40646e-10
1.30337e-10
1.20063e-10
1.09874e-10
9.98144e-11
8.99216e-11
8.02241e-11
7.0742e-11
6.14862e-11
5.24585e-11
4.36515e-11
3.50497e-11
2.66306e-11
1.83685e-11
1.02399e-11
4.49254e-13
1.71651e-15
4.25916e-14
1.1344e-11
2.58425e-09
4.67646e-09
6.79639e-09
8.95437e-09
1.11591e-08
1.34174e-08
1.57338e-08
1.81104e-08
2.05469e-08
2.30407e-08
2.55864e-08
2.81767e-08
3.08019e-08
3.34506e-08
3.61094e-08
3.87639e-08
4.13982e-08
4.39958e-08
4.65396e-08
4.90121e-08
5.13959e-08
5.36738e-08
5.58291e-08
5.78457e-08
5.97083e-08
6.14027e-08
6.29159e-08
6.42361e-08
6.5353e-08
6.62579e-08
6.69436e-08
6.74048e-08
6.76379e-08
6.76409e-08
6.74138e-08
6.69586e-08
6.62786e-08
6.53793e-08
6.42678e-08
6.29527e-08
6.14444e-08
5.97544e-08
5.78959e-08
5.58829e-08
5.37308e-08
5.14556e-08
4.9074e-08
4.66033e-08
4.40607e-08
4.14638e-08
3.88296e-08
3.61747e-08
3.35149e-08
3.08648e-08
2.82377e-08
2.5645e-08
2.30965e-08
2.05995e-08
1.81594e-08
1.57787e-08
1.34579e-08
1.11947e-08
8.9846e-09
6.82076e-09
4.69434e-09
2.59484e-09
1.13938e-11
4.27843e-14
1.71457e-13
4.57332e-11
2.65474e-08
4.80628e-08
6.98733e-08
9.21064e-08
1.14871e-07
1.38252e-07
1.62309e-07
1.87074e-07
2.12549e-07
2.38705e-07
2.65486e-07
2.92807e-07
3.20557e-07
3.48605e-07
3.76798e-07
4.04971e-07
4.32945e-07
4.60536e-07
4.87554e-07
5.13809e-07
5.39112e-07
5.63279e-07
5.86131e-07
6.07499e-07
6.27223e-07
6.45154e-07
6.61156e-07
6.7511e-07
6.86908e-07
6.96462e-07
7.03697e-07
7.08561e-07
7.11014e-07
7.11039e-07
7.08635e-07
7.03821e-07
6.96634e-07
6.87127e-07
6.75373e-07
6.61462e-07
6.455e-07
6.27606e-07
6.07916e-07
5.86578e-07
5.63752e-07
5.39607e-07
5.14322e-07
4.88081e-07
4.61072e-07
4.33486e-07
4.05512e-07
3.77335e-07
3.49133e-07
3.21072e-07
2.93305e-07
2.65962e-07
2.39156e-07
2.12971e-07
1.87464e-07
1.62663e-07
1.38567e-07
1.15145e-07
9.23362e-08
7.00556e-08
4.8194e-08
2.66235e-08
4.58706e-11
1.71983e-13
3.24005e-13
8.64292e-11
5.01451e-08
9.0776e-08
1.32021e-07
1.74168e-07
2.17464e-07
2.62106e-07
3.08235e-07
3.55927e-07
4.05196e-07
4.55988e-07
5.08184e-07
5.61603e-07
6.16004e-07
6.71099e-07
7.26558e-07
7.82025e-07
8.37122e-07
8.91465e-07
9.44664e-07
9.96336e-07
1.0461e-06
1.0936e-06
1.13848e-06
1.18042e-06
1.21909e-06
1.25423e-06
1.28556e-06
1.31287e-06
1.33594e-06
1.35461e-06
1.36875e-06
1.37824e-06
1.38303e-06
1.38307e-06
1.37836e-06
1.36894e-06
1.35488e-06
1.33628e-06
1.31327e-06
1.28603e-06
1.25476e-06
1.21968e-06
1.18106e-06
1.13917e-06
1.09433e-06
1.04687e-06
9.97129e-07
9.45479e-07
8.92294e-07
8.37959e-07
7.82861e-07
7.27387e-07
6.71913e-07
6.16797e-07
5.62368e-07
5.08915e-07
4.56678e-07
4.0584e-07
3.5652e-07
3.08771e-07
2.62582e-07
2.17876e-07
1.74511e-07
1.32291e-07
9.09695e-08
5.02566e-08
8.66306e-11
3.24775e-13
5.00606e-13
1.33547e-10
7.74272e-08
1.40103e-07
2.03747e-07
2.68855e-07
3.35847e-07
4.05056e-07
4.76719e-07
5.50963e-07
6.27807e-07
7.07153e-07
7.88794e-07
8.72415e-07
9.57607e-07
1.04388e-06
1.1307e-06
1.21747e-06
1.30361e-06
1.38851e-06
1.47158e-06
1.55222e-06
1.62986e-06
1.70395e-06
1.77394e-06
1.83931e-06
1.89961e-06
1.95437e-06
2.0032e-06
2.04574e-06
2.08168e-06
2.11076e-06
2.13277e-06
2.14754e-06
2.15499e-06
2.15503e-06
2.14769e-06
2.13301e-06
2.11109e-06
2.0821e-06
2.04625e-06
2.00379e-06
1.95504e-06
1.90035e-06
1.84013e-06
1.77481e-06
1.70487e-06
1.63083e-06
1.55322e-06
1.47261e-06
1.38956e-06
1.30467e-06
1.21853e-06
1.13175e-06
1.04491e-06
9.58613e-07
8.73386e-07
7.89721e-07
7.08028e-07
6.28623e-07
5.51714e-07
4.77398e-07
4.05658e-07
3.36366e-07
2.69287e-07
2.04087e-07
1.40345e-07
7.7567e-08
1.33801e-10
5.01576e-13
6.92584e-13
1.84772e-10
1.07034e-07
1.93536e-07
2.81326e-07
3.71127e-07
4.63547e-07
5.59059e-07
6.57992e-07
7.60515e-07
8.66632e-07
9.76182e-07
1.08884e-06
1.20413e-06
1.32145e-06
1.4401e-06
1.55931e-06
1.67829e-06
1.79623e-06
1.91233e-06
2.0258e-06
2.13585e-06
2.24172e-06
2.34268e-06
2.43799e-06
2.52699e-06
2.60903e-06
2.68351e-06
2.74991e-06
2.80773e-06
2.85657e-06
2.89608e-06
2.92597e-06
2.94604e-06
2.95613e-06
2.95619e-06
2.9462e-06
2.92625e-06
2.89646e-06
2.85706e-06
2.80832e-06
2.75059e-06
2.68428e-06
2.60988e-06
2.52792e-06
2.43898e-06
2.34372e-06
2.24282e-06
2.13699e-06
2.02697e-06
1.91352e-06
1.79744e-06
1.6795e-06
1.56051e-06
1.44128e-06
1.3226e-06
1.20524e-06
1.0899e-06
9.77186e-07
8.67569e-07
7.61377e-07
6.58772e-07
5.59749e-07
4.64142e-07
3.71622e-07
2.81716e-07
1.93814e-07
1.07194e-07
1.85064e-10
6.93702e-13
8.87409e-13
2.36762e-10
1.37026e-07
2.47552e-07
3.59608e-07
4.74144e-07
5.91951e-07
7.13638e-07
8.39612e-07
9.70066e-07
1.10498e-06
1.24409e-06
1.38697e-06
1.53294e-06
1.68123e-06
1.8309e-06
1.98101e-06
2.13054e-06
2.27851e-06
2.42392e-06
2.56583e-06
2.70328e-06
2.83536e-06
2.96117e-06
3.07984e-06
3.19056e-06
3.29254e-06
3.38508e-06
3.46753e-06
3.5393e-06
3.5999e-06
3.64891e-06
3.68598e-06
3.71085e-06
3.72336e-06
3.72342e-06
3.71102e-06
3.68626e-06
3.64931e-06
3.60041e-06
3.53992e-06
3.46825e-06
3.38589e-06
3.29344e-06
3.19153e-06
3.08089e-06
2.96228e-06
2.83652e-06
2.70449e-06
2.56707e-06
2.42519e-06
2.27978e-06
2.13182e-06
1.98228e-06
1.83216e-06
1.68245e-06
1.53413e-06
1.3881e-06
1.24517e-06
1.10598e-06
9.7099e-07
8.40448e-07
7.14379e-07
5.9259e-07
4.74675e-07
3.60025e-07
2.4785e-07
1.37197e-07
2.37076e-10
8.88617e-13
1.07244e-12
2.86145e-10
1.6546e-07
2.98659e-07
4.33539e-07
5.71265e-07
7.12797e-07
8.58861e-07
1.00993e-06
1.16621e-06
1.32763e-06
1.49386e-06
1.66431e-06
1.83816e-06
2.01444e-06
2.19205e-06
2.36983e-06
2.54663e-06
2.72129e-06
2.89266e-06
3.05966e-06
3.2212e-06
3.37624e-06
3.52375e-06
3.66277e-06
3.79236e-06
3.91165e-06
4.01982e-06
4.11615e-06
4.19997e-06
4.27072e-06
4.32792e-06
4.37117e-06
4.40019e-06
4.41478e-06
4.41484e-06
4.40037e-06
4.37146e-06
4.32832e-06
4.27123e-06
4.20059e-06
4.11687e-06
4.02063e-06
3.91255e-06
3.79334e-06
3.66382e-06
3.52487e-06
3.37741e-06
3.22242e-06
3.06091e-06
2.89394e-06
2.72258e-06
2.54793e-06
2.37112e-06
2.19332e-06
2.01569e-06
1.83937e-06
1.66547e-06
1.49496e-06
1.32866e-06
1.16715e-06
1.01078e-06
8.59618e-07
7.1345e-07
5.71807e-07
4.33965e-07
2.98964e-07
1.65635e-07
2.86468e-10
1.07368e-12
1.23748e-12
3.302e-10
1.90784e-07
3.44094e-07
4.99155e-07
6.57328e-07
8.19719e-07
9.87154e-07
1.16016e-06
1.33893e-06
1.52338e-06
1.71307e-06
1.90729e-06
2.10509e-06
2.30533e-06
2.50676e-06
2.70808e-06
2.90799e-06
3.1052e-06
3.29847e-06
3.48656e-06
3.6683e-06
3.84255e-06
4.0082e-06
4.16418e-06
4.30948e-06
4.44316e-06
4.56432e-06
4.67217e-06
4.76599e-06
4.84516e-06
4.90914e-06
4.95752e-06
4.98997e-06
5.00628e-06
5.00633e-06
4.99014e-06
4.9578e-06
4.90954e-06
4.84566e-06
4.7666e-06
4.67287e-06
4.56512e-06
4.44404e-06
4.31044e-06
4.16521e-06
4.00929e-06
3.8437e-06
3.66949e-06
3.48779e-06
3.29972e-06
3.10647e-06
2.90927e-06
2.70935e-06
2.50801e-06
2.30656e-06
2.10628e-06
1.90843e-06
1.71415e-06
1.52439e-06
1.33987e-06
1.161e-06
9.87902e-07
8.20364e-07
6.57864e-07
4.99576e-07
3.44394e-07
1.90957e-07
3.30521e-10
1.23872e-12
1.37622e-12
3.67241e-10
2.12046e-07
3.82181e-07
5.54087e-07
7.29285e-07
9.09005e-07
1.09415e-06
1.2853e-06
1.48264e-06
1.68603e-06
1.89498e-06
2.10866e-06
2.326e-06
2.54575e-06
2.76654e-06
2.98694e-06
3.20555e-06
3.42098e-06
3.63189e-06
3.83696e-06
4.03494e-06
4.22461e-06
4.4048e-06
4.57437e-06
4.73225e-06
4.87743e-06
5.00898e-06
5.12605e-06
5.22789e-06
5.31383e-06
5.3833e-06
5.43583e-06
5.47107e-06
5.48877e-06
5.48883e-06
5.47123e-06
5.4361e-06
5.38367e-06
5.31431e-06
5.22847e-06
5.12672e-06
5.00974e-06
4.87828e-06
4.73317e-06
4.57535e-06
4.40585e-06
4.22571e-06
4.03609e-06
3.83814e-06
3.63309e-06
3.42221e-06
3.20678e-06
2.98817e-06
2.76775e-06
2.54694e-06
2.32716e-06
2.10976e-06
1.89602e-06
1.68701e-06
1.48354e-06
1.28612e-06
1.09488e-06
9.0963e-07
7.29804e-07
5.54494e-07
3.82472e-07
2.12213e-07
3.67553e-10
1.37743e-12
1.48648e-12
3.96684e-10
2.28928e-07
4.12387e-07
5.97605e-07
7.86236e-07
9.79608e-07
1.17869e-06
1.38408e-06
1.59598e-06
1.8142e-06
2.03819e-06
2.26705e-06
2.49962e-06
2.73454e-06
2.97034e-06
3.20554e-06
3.43863e-06
3.66814e-06
3.89268e-06
4.11086e-06
4.32137e-06
4.52292e-06
4.71431e-06
4.89434e-06
5.0619e-06
5.21597e-06
5.35558e-06
5.47986e-06
5.58798e-06
5.67922e-06
5.75298e-06
5.80875e-06
5.84616e-06
5.86496e-06
5.86501e-06
5.84632e-06
5.80901e-06
5.75334e-06
5.67968e-06
5.58853e-06
5.4805e-06
5.35631e-06
5.21677e-06
5.06278e-06
4.89529e-06
4.71531e-06
4.52398e-06
4.32246e-06
4.11199e-06
3.89383e-06
3.66932e-06
3.4398e-06
3.20671e-06
2.97151e-06
2.73568e-06
2.50073e-06
2.26812e-06
2.0392e-06
1.81515e-06
1.59685e-06
1.38487e-06
1.17939e-06
9.8021e-07
7.86735e-07
5.97996e-07
4.12665e-07
2.29089e-07
3.96984e-10
1.48764e-12
1.56954e-12
4.18872e-10
2.41641e-07
4.35112e-07
6.30323e-07
8.29027e-07
1.03263e-06
1.24214e-06
1.45818e-06
1.68096e-06
1.91025e-06
2.14546e-06
2.38564e-06
2.62953e-06
2.87573e-06
3.1227e-06
3.36887e-06
3.6127e-06
3.85267e-06
4.08731e-06
4.3152e-06
4.53499e-06
4.74535e-06
4.94503e-06
5.13281e-06
5.30758e-06
5.46831e-06
5.61398e-06
5.74365e-06
5.85646e-06
5.95166e-06
6.02861e-06
6.08679e-06
6.12582e-06
6.14542e-06
6.14547e-06
6.12597e-06
6.08704e-06
6.02896e-06
5.9521e-06
5.85699e-06
5.74426e-06
5.61468e-06
5.46908e-06
5.30843e-06
5.13371e-06
4.94599e-06
4.74636e-06
4.53604e-06
4.31629e-06
4.08842e-06
3.8538e-06
3.61384e-06
3.37001e-06
3.12382e-06
2.87683e-06
2.6306e-06
2.38666e-06
2.14644e-06
1.91116e-06
1.6818e-06
1.45894e-06
1.24281e-06
1.03321e-06
8.29507e-07
6.30698e-07
4.35379e-07
2.41795e-07
4.19162e-10
1.57067e-12
1.62903e-12
4.34766e-10
2.50743e-07
4.51374e-07
6.53726e-07
8.59625e-07
1.07053e-06
1.28749e-06
1.51114e-06
1.74167e-06
1.97887e-06
2.22208e-06
2.47031e-06
2.72228e-06
2.97651e-06
3.23143e-06
3.48543e-06
3.73691e-06
3.98432e-06
4.22615e-06
4.46095e-06
4.68734e-06
4.90397e-06
5.10955e-06
5.30288e-06
5.48285e-06
5.64836e-06
5.79837e-06
5.9319e-06
6.04806e-06
6.14609e-06
6.22532e-06
6.28522e-06
6.3254e-06
6.34558e-06
6.34562e-06
6.32554e-06
6.28546e-06
6.22565e-06
6.14651e-06
6.04858e-06
5.93249e-06
5.79904e-06
5.64911e-06
5.48366e-06
5.30376e-06
5.11048e-06
4.90495e-06
4.68836e-06
4.46201e-06
4.22722e-06
3.98541e-06
3.73801e-06
3.48653e-06
3.23252e-06
2.97758e-06
2.72332e-06
2.47131e-06
2.22302e-06
1.97975e-06
1.74249e-06
1.51187e-06
1.28814e-06
1.07109e-06
8.60089e-07
6.54089e-07
4.51633e-07
2.50892e-07
4.35047e-10
1.63012e-12
1.66962e-12
4.45617e-10
2.56955e-07
4.62469e-07
6.69689e-07
8.80494e-07
1.09638e-06
1.31842e-06
1.54726e-06
1.78309e-06
2.02568e-06
2.27436e-06
2.5281e-06
2.78558e-06
3.04531e-06
3.30566e-06
3.565e-06
3.82171e-06
4.0742e-06
4.32095e-06
4.56049e-06
4.79139e-06
5.01232e-06
5.22194e-06
5.41909e-06
5.60264e-06
5.77144e-06
5.92443e-06
6.06061e-06
6.17908e-06
6.27905e-06
6.35984e-06
6.42092e-06
6.46189e-06
6.48246e-06
6.48251e-06
6.46203e-06
6.42116e-06
6.36017e-06
6.27946e-06
6.17958e-06
6.06119e-06
5.92509e-06
5.77217e-06
5.60343e-06
5.41995e-06
5.22285e-06
5.01327e-06
4.79239e-06
4.56151e-06
4.322e-06
4.07527e-06
3.82278e-06
3.56607e-06
3.30672e-06
3.04635e-06
2.7866e-06
2.52907e-06
2.27528e-06
2.02654e-06
1.78389e-06
1.54798e-06
1.31906e-06
1.09693e-06
8.80948e-07
6.70044e-07
4.62721e-07
2.57101e-07
4.45891e-10
1.67069e-12
1.69608e-12
4.52691e-10
2.61006e-07
4.69702e-07
6.80096e-07
8.94101e-07
1.11324e-06
1.33859e-06
1.57083e-06
1.81012e-06
2.05624e-06
2.3085e-06
2.56585e-06
2.82695e-06
3.09027e-06
3.35419e-06
3.61704e-06
3.87718e-06
4.13302e-06
4.383e-06
4.62565e-06
4.85953e-06
5.08327e-06
5.29557e-06
5.49525e-06
5.68116e-06
5.85214e-06
6.0071e-06
6.14503e-06
6.26502e-06
6.36627e-06
6.44809e-06
6.50995e-06
6.55144e-06
6.57227e-06
6.57232e-06
6.55158e-06
6.51018e-06
6.44841e-06
6.36667e-06
6.26551e-06
6.1456e-06
6.00775e-06
5.85285e-06
5.68194e-06
5.4961e-06
5.29646e-06
5.08421e-06
4.86051e-06
4.62666e-06
4.38404e-06
4.13407e-06
3.87824e-06
3.6181e-06
3.35524e-06
3.0913e-06
2.82795e-06
2.56681e-06
2.30941e-06
2.0571e-06
1.81091e-06
1.57154e-06
1.33922e-06
1.11378e-06
8.94548e-07
6.80446e-07
4.6995e-07
2.61149e-07
4.52961e-10
1.69713e-12
1.71259e-12
4.57107e-10
2.63534e-07
4.74218e-07
6.86594e-07
9.02599e-07
1.12377e-06
1.3512e-06
1.58556e-06
1.82703e-06
2.07537e-06
2.32988e-06
2.5895e-06
2.85288e-06
3.11847e-06
3.38464e-06
3.6497e-06
3.91201e-06
4.16996e-06
4.42198e-06
4.6666e-06
4.90236e-06
5.12788e-06
5.34189e-06
5.54318e-06
5.73059e-06
5.90295e-06
6.05916e-06
6.1982e-06
6.31916e-06
6.42121e-06
6.50369e-06
6.56605e-06
6.60787e-06
6.62887e-06
6.62891e-06
6.608e-06
6.56628e-06
6.50401e-06
6.42162e-06
6.31964e-06
6.19877e-06
6.0598e-06
5.90366e-06
5.73136e-06
5.54402e-06
5.34278e-06
5.12882e-06
4.90333e-06
4.6676e-06
4.42301e-06
4.171e-06
3.91306e-06
3.65075e-06
3.38568e-06
3.11949e-06
2.85387e-06
2.59045e-06
2.33078e-06
2.07622e-06
1.82782e-06
1.58627e-06
1.35183e-06
1.1243e-06
9.03042e-07
6.8694e-07
4.74463e-07
2.63676e-07
4.57375e-10
1.71363e-12
1.72247e-12
4.5975e-10
2.65048e-07
4.76922e-07
6.90487e-07
9.07692e-07
1.13008e-06
1.35877e-06
1.59441e-06
1.83719e-06
2.08687e-06
2.34274e-06
2.60373e-06
2.86849e-06
3.13546e-06
3.40299e-06
3.6694e-06
3.93303e-06
4.19226e-06
4.44553e-06
4.69134e-06
4.92824e-06
5.15486e-06
5.3699e-06
5.57218e-06
5.7605e-06
5.9337e-06
6.09068e-06
6.23041e-06
6.35195e-06
6.4545e-06
6.53739e-06
6.60004e-06
6.64206e-06
6.66316e-06
6.66321e-06
6.6422e-06
6.60027e-06
6.5377e-06
6.45491e-06
6.35243e-06
6.23097e-06
6.09132e-06
5.93441e-06
5.76127e-06
5.57301e-06
5.37079e-06
5.15579e-06
4.92921e-06
4.69234e-06
4.44655e-06
4.1933e-06
3.93407e-06
3.67044e-06
3.40402e-06
3.13648e-06
2.86948e-06
2.60468e-06
2.34364e-06
2.08771e-06
1.83797e-06
1.59511e-06
1.35939e-06
1.13062e-06
9.08133e-07
6.90831e-07
4.77167e-07
2.65189e-07
4.60017e-10
1.72351e-12
1.72815e-12
4.61272e-10
2.65919e-07
4.78479e-07
6.92728e-07
9.10626e-07
1.13372e-06
1.36313e-06
1.59951e-06
1.84306e-06
2.09351e-06
2.35017e-06
2.61197e-06
2.87753e-06
3.1453e-06
3.41363e-06
3.68083e-06
3.94523e-06
4.20521e-06
4.45921e-06
4.70572e-06
4.9433e-06
5.17056e-06
5.38621e-06
5.58907e-06
5.77793e-06
5.95163e-06
6.10906e-06
6.24918e-06
6.37107e-06
6.47392e-06
6.55704e-06
6.61987e-06
6.66201e-06
6.68317e-06
6.68322e-06
6.66215e-06
6.6201e-06
6.55735e-06
6.47432e-06
6.37156e-06
6.24974e-06
6.10969e-06
5.95234e-06
5.7787e-06
5.5899e-06
5.38709e-06
5.17149e-06
4.94427e-06
4.70672e-06
4.46023e-06
4.20625e-06
3.94627e-06
3.68187e-06
3.41467e-06
3.14632e-06
2.87852e-06
2.61292e-06
2.35107e-06
2.09435e-06
1.84384e-06
1.60021e-06
1.36375e-06
1.13426e-06
9.11067e-07
6.93072e-07
4.78723e-07
2.6606e-07
4.61538e-10
1.72919e-12
1.7313e-12
4.62114e-10
2.66402e-07
4.79342e-07
6.93971e-07
9.12253e-07
1.13574e-06
1.36555e-06
1.60235e-06
1.84632e-06
2.09721e-06
2.35432e-06
2.61656e-06
2.88258e-06
3.1508e-06
3.41958e-06
3.68722e-06
3.95205e-06
4.21246e-06
4.46687e-06
4.71378e-06
4.95174e-06
5.17936e-06
5.39536e-06
5.59855e-06
5.78771e-06
5.9617e-06
6.11938e-06
6.25973e-06
6.38182e-06
6.48484e-06
6.56809e-06
6.63103e-06
6.67323e-06
6.69443e-06
6.69447e-06
6.67337e-06
6.63125e-06
6.5684e-06
6.48524e-06
6.38231e-06
6.2603e-06
6.12002e-06
5.96241e-06
5.78849e-06
5.59938e-06
5.39625e-06
5.18029e-06
4.95271e-06
4.71478e-06
4.4679e-06
4.2135e-06
3.9531e-06
3.68826e-06
3.42061e-06
3.15182e-06
2.88356e-06
2.61751e-06
2.35522e-06
2.09805e-06
1.8471e-06
1.60305e-06
1.36618e-06
1.13628e-06
9.12694e-07
6.94315e-07
4.79586e-07
2.66543e-07
4.6238e-10
1.73234e-12
1.73298e-12
4.62564e-10
2.6666e-07
4.79803e-07
6.94636e-07
9.13124e-07
1.13682e-06
1.36685e-06
1.60387e-06
1.84807e-06
2.0992e-06
2.35654e-06
2.61903e-06
2.88529e-06
3.15376e-06
3.42278e-06
3.69067e-06
3.95574e-06
4.21638e-06
4.47102e-06
4.71814e-06
4.95631e-06
5.18413e-06
5.40032e-06
5.60368e-06
5.79302e-06
5.96716e-06
6.12498e-06
6.26546e-06
6.38766e-06
6.49076e-06
6.57409e-06
6.63708e-06
6.67932e-06
6.70054e-06
6.70058e-06
6.67946e-06
6.63731e-06
6.5744e-06
6.49116e-06
6.38814e-06
6.26602e-06
6.12562e-06
5.96786e-06
5.79379e-06
5.60451e-06
5.4012e-06
5.18506e-06
4.95728e-06
4.71914e-06
4.47204e-06
4.21742e-06
3.95679e-06
3.69171e-06
3.42382e-06
3.15478e-06
2.88628e-06
2.61998e-06
2.35744e-06
2.10004e-06
1.84885e-06
1.60457e-06
1.36747e-06
1.13736e-06
9.13565e-07
6.9498e-07
4.80047e-07
2.66801e-07
4.6283e-10
1.73402e-12
1.73384e-12
4.62796e-10
2.66793e-07
4.80041e-07
6.94979e-07
9.13574e-07
1.13738e-06
1.36752e-06
1.60466e-06
1.84898e-06
2.10023e-06
2.3577e-06
2.62032e-06
2.8867e-06
3.1553e-06
3.42445e-06
3.69246e-06
3.95766e-06
4.21842e-06
4.47318e-06
4.72042e-06
4.9587e-06
5.18662e-06
5.40291e-06
5.60637e-06
5.79579e-06
5.97002e-06
6.12792e-06
6.26846e-06
6.39071e-06
6.49387e-06
6.57723e-06
6.64026e-06
6.68252e-06
6.70374e-06
6.70379e-06
6.68266e-06
6.64048e-06
6.57755e-06
6.49427e-06
6.3912e-06
6.26902e-06
6.12855e-06
5.97072e-06
5.79657e-06
5.6072e-06
5.4038e-06
5.18755e-06
4.95967e-06
4.72142e-06
4.4742e-06
4.21946e-06
3.95871e-06
3.69351e-06
3.42549e-06
3.15632e-06
2.88769e-06
2.62127e-06
2.3586e-06
2.10107e-06
1.84976e-06
1.60536e-06
1.36815e-06
1.13792e-06
9.14015e-07
6.95323e-07
4.80285e-07
2.66934e-07
4.63063e-10
1.73488e-12
1.73427e-12
4.62912e-10
2.6686e-07
4.80159e-07
6.9515e-07
9.13799e-07
1.13766e-06
1.36786e-06
1.60505e-06
1.84943e-06
2.10074e-06
2.35828e-06
2.62096e-06
2.88741e-06
3.15608e-06
3.42529e-06
3.69337e-06
3.95863e-06
4.21945e-06
4.47427e-06
4.72157e-06
4.95991e-06
5.18788e-06
5.40422e-06
5.60773e-06
5.7972e-06
5.97146e-06
6.1294e-06
6.26998e-06
6.39226e-06
6.49544e-06
6.57883e-06
6.64187e-06
6.68414e-06
6.70537e-06
6.70541e-06
6.68428e-06
6.64209e-06
6.57914e-06
6.49584e-06
6.39275e-06
6.27054e-06
6.13004e-06
5.97217e-06
5.79797e-06
5.60856e-06
5.40511e-06
5.18881e-06
4.96088e-06
4.72257e-06
4.4753e-06
4.22049e-06
3.95968e-06
3.69442e-06
3.42633e-06
3.1571e-06
2.8884e-06
2.62191e-06
2.35918e-06
2.10159e-06
1.85021e-06
1.60576e-06
1.36848e-06
1.1382e-06
9.1424e-07
6.95494e-07
4.80404e-07
2.67001e-07
4.63178e-10
1.73532e-12
1.73448e-12
4.62968e-10
2.66892e-07
4.80217e-07
6.95233e-07
9.13907e-07
1.1378e-06
1.36802e-06
1.60524e-06
1.84966e-06
2.10099e-06
2.35856e-06
2.62127e-06
2.88776e-06
3.15646e-06
3.4257e-06
3.69381e-06
3.9591e-06
4.21996e-06
4.4748e-06
4.72213e-06
4.9605e-06
5.1885e-06
5.40487e-06
5.6084e-06
5.79789e-06
5.97217e-06
6.13013e-06
6.27073e-06
6.39303e-06
6.49622e-06
6.57961e-06
6.64266e-06
6.68494e-06
6.70617e-06
6.70621e-06
6.68507e-06
6.64288e-06
6.57993e-06
6.49662e-06
6.39351e-06
6.27129e-06
6.13077e-06
5.97288e-06
5.79866e-06
5.60923e-06
5.40575e-06
5.18943e-06
4.96147e-06
4.72314e-06
4.47583e-06
4.221e-06
3.96015e-06
3.69486e-06
3.42674e-06
3.15748e-06
2.88875e-06
2.62222e-06
2.35946e-06
2.10184e-06
1.85043e-06
1.60595e-06
1.36865e-06
1.13833e-06
9.14348e-07
6.95577e-07
4.80461e-07
2.67033e-07
4.63234e-10
1.73552e-12
1.73458e-12
4.62994e-10
2.66907e-07
4.80244e-07
6.95272e-07
9.13958e-07
1.13786e-06
1.3681e-06
1.60533e-06
1.84976e-06
2.10111e-06
2.35869e-06
2.62142e-06
2.88792e-06
3.15664e-06
3.4259e-06
3.69402e-06
3.95933e-06
4.2202e-06
4.47506e-06
4.7224e-06
4.96078e-06
5.18879e-06
5.40517e-06
5.60871e-06
5.79822e-06
5.97251e-06
6.13048e-06
6.27108e-06
6.39339e-06
6.49658e-06
6.57998e-06
6.64303e-06
6.68531e-06
6.70655e-06
6.70659e-06
6.68545e-06
6.64326e-06
6.5803e-06
6.49699e-06
6.39387e-06
6.27164e-06
6.13112e-06
5.97322e-06
5.79899e-06
5.60955e-06
5.40606e-06
5.18972e-06
4.96175e-06
4.7234e-06
4.47608e-06
4.22124e-06
3.96038e-06
3.69507e-06
3.42694e-06
3.15766e-06
2.88891e-06
2.62237e-06
2.3596e-06
2.10196e-06
1.85054e-06
1.60604e-06
1.36872e-06
1.1384e-06
9.14399e-07
6.95616e-07
4.80488e-07
2.67048e-07
4.6326e-10
1.73562e-12
1.73462e-12
4.63006e-10
2.66914e-07
4.80256e-07
6.95289e-07
9.13981e-07
1.13789e-06
1.36813e-06
1.60537e-06
1.84981e-06
2.10117e-06
2.35875e-06
2.62149e-06
2.888e-06
3.15672e-06
3.42599e-06
3.69412e-06
3.95943e-06
4.22031e-06
4.47517e-06
4.72252e-06
4.96091e-06
5.18893e-06
5.40531e-06
5.60886e-06
5.79837e-06
5.97267e-06
6.13064e-06
6.27124e-06
6.39355e-06
6.49675e-06
6.58016e-06
6.64321e-06
6.68549e-06
6.70672e-06
6.70677e-06
6.68563e-06
6.64343e-06
6.58047e-06
6.49716e-06
6.39404e-06
6.27181e-06
6.13128e-06
5.97338e-06
5.79914e-06
5.60969e-06
5.4062e-06
5.18986e-06
4.96188e-06
4.72353e-06
4.4762e-06
4.22135e-06
3.96048e-06
3.69516e-06
3.42703e-06
3.15774e-06
2.88899e-06
2.62244e-06
2.35966e-06
2.10201e-06
1.85059e-06
1.60608e-06
1.36876e-06
1.13842e-06
9.14422e-07
6.95634e-07
4.805e-07
2.67055e-07
4.63272e-10
1.73567e-12
1.73464e-12
4.63011e-10
2.66917e-07
4.80261e-07
6.95297e-07
9.13991e-07
1.1379e-06
1.36815e-06
1.60539e-06
1.84983e-06
2.10119e-06
2.35878e-06
2.62152e-06
2.88803e-06
3.15675e-06
3.42603e-06
3.69416e-06
3.95948e-06
4.22036e-06
4.47523e-06
4.72258e-06
4.96096e-06
5.18899e-06
5.40538e-06
5.60893e-06
5.79844e-06
5.97274e-06
6.13071e-06
6.27132e-06
6.39363e-06
6.49683e-06
6.58023e-06
6.64329e-06
6.68557e-06
6.7068e-06
6.70685e-06
6.6857e-06
6.64351e-06
6.58055e-06
6.49723e-06
6.39411e-06
6.27188e-06
6.13135e-06
5.97345e-06
5.79921e-06
5.60976e-06
5.40626e-06
5.18992e-06
4.96193e-06
4.72358e-06
4.47625e-06
4.2214e-06
3.96053e-06
3.69521e-06
3.42707e-06
3.15777e-06
2.88902e-06
2.62247e-06
2.35968e-06
2.10204e-06
1.85061e-06
1.6061e-06
1.36877e-06
1.13844e-06
9.14433e-07
6.95641e-07
4.80506e-07
2.67058e-07
4.63277e-10
1.73568e-12
1.73465e-12
4.63013e-10
2.66918e-07
4.80263e-07
6.953e-07
9.13996e-07
1.13791e-06
1.36816e-06
1.6054e-06
1.84984e-06
2.1012e-06
2.35879e-06
2.62153e-06
2.88805e-06
3.15677e-06
3.42604e-06
3.69418e-06
3.9595e-06
4.22038e-06
4.47525e-06
4.7226e-06
4.96099e-06
5.18901e-06
5.4054e-06
5.60895e-06
5.79847e-06
5.97277e-06
6.13074e-06
6.27135e-06
6.39366e-06
6.49686e-06
6.58027e-06
6.64332e-06
6.6856e-06
6.70684e-06
6.70688e-06
6.68574e-06
6.64355e-06
6.58058e-06
6.49727e-06
6.39415e-06
6.27191e-06
6.13138e-06
5.97348e-06
5.79924e-06
5.60979e-06
5.40629e-06
5.18994e-06
4.96196e-06
4.7236e-06
4.47627e-06
4.22142e-06
3.96055e-06
3.69522e-06
3.42708e-06
3.15779e-06
2.88904e-06
2.62248e-06
2.3597e-06
2.10205e-06
1.85062e-06
1.6061e-06
1.36878e-06
1.13844e-06
9.14437e-07
6.95645e-07
4.80508e-07
2.67059e-07
4.6328e-10
1.73569e-12
1.73466e-12
4.63014e-10
2.66918e-07
4.80264e-07
6.95302e-07
9.13997e-07
1.13791e-06
1.36816e-06
1.6054e-06
1.84984e-06
2.1012e-06
2.3588e-06
2.62154e-06
2.88805e-06
3.15678e-06
3.42605e-06
3.69418e-06
3.9595e-06
4.22039e-06
4.47526e-06
4.72261e-06
4.961e-06
5.18902e-06
5.40541e-06
5.60897e-06
5.79848e-06
5.97278e-06
6.13075e-06
6.27136e-06
6.39368e-06
6.49688e-06
6.58028e-06
6.64333e-06
6.68562e-06
6.70685e-06
6.7069e-06
6.68575e-06
6.64356e-06
6.5806e-06
6.49728e-06
6.39416e-06
6.27193e-06
6.13139e-06
5.97349e-06
5.79925e-06
5.6098e-06
5.4063e-06
5.18996e-06
4.96197e-06
4.72361e-06
4.47628e-06
4.22143e-06
3.96055e-06
3.69523e-06
3.42709e-06
3.1578e-06
2.88904e-06
2.62249e-06
2.3597e-06
2.10205e-06
1.85062e-06
1.60611e-06
1.36878e-06
1.13844e-06
9.14439e-07
6.95646e-07
4.80509e-07
2.67059e-07
4.63281e-10
1.7357e-12
1.73466e-12
4.63014e-10
2.66919e-07
4.80265e-07
6.95302e-07
9.13998e-07
1.13791e-06
1.36816e-06
1.6054e-06
1.84984e-06
2.10121e-06
2.3588e-06
2.62154e-06
2.88805e-06
3.15678e-06
3.42605e-06
3.69419e-06
3.95951e-06
4.22039e-06
4.47526e-06
4.72262e-06
4.961e-06
5.18903e-06
5.40542e-06
5.60897e-06
5.79848e-06
5.97279e-06
6.13076e-06
6.27137e-06
6.39368e-06
6.49688e-06
6.58029e-06
6.64334e-06
6.68562e-06
6.70686e-06
6.7069e-06
6.68576e-06
6.64357e-06
6.5806e-06
6.49728e-06
6.39417e-06
6.27193e-06
6.1314e-06
5.9735e-06
5.79926e-06
5.6098e-06
5.4063e-06
5.18996e-06
4.96197e-06
4.72362e-06
4.47629e-06
4.22143e-06
3.96056e-06
3.69524e-06
3.42709e-06
3.1578e-06
2.88904e-06
2.62249e-06
2.3597e-06
2.10205e-06
1.85062e-06
1.60611e-06
1.36878e-06
1.13845e-06
9.14439e-07
6.95647e-07
4.80509e-07
2.6706e-07
4.63281e-10
1.7357e-12
1.73466e-12
4.63014e-10
2.66919e-07
4.80265e-07
6.95302e-07
9.13998e-07
1.13791e-06
1.36816e-06
1.60541e-06
1.84984e-06
2.10121e-06
2.3588e-06
2.62154e-06
2.88805e-06
3.15678e-06
3.42606e-06
3.69419e-06
3.95951e-06
4.22039e-06
4.47526e-06
4.72262e-06
4.96101e-06
5.18903e-06
5.40542e-06
5.60897e-06
5.79849e-06
5.97279e-06
6.13076e-06
6.27137e-06
6.39368e-06
6.49689e-06
6.58029e-06
6.64334e-06
6.68562e-06
6.70686e-06
6.7069e-06
6.68576e-06
6.64357e-06
6.58061e-06
6.49729e-06
6.39417e-06
6.27193e-06
6.1314e-06
5.9735e-06
5.79926e-06
5.60981e-06
5.40631e-06
5.18996e-06
4.96198e-06
4.72362e-06
4.47629e-06
4.22143e-06
3.96056e-06
3.69524e-06
3.42709e-06
3.1578e-06
2.88905e-06
2.62249e-06
2.3597e-06
2.10205e-06
1.85062e-06
1.60611e-06
1.36878e-06
1.13845e-06
9.1444e-07
6.95647e-07
4.80509e-07
2.6706e-07
4.63281e-10
1.7357e-12
1.73466e-12
4.63015e-10
2.66919e-07
4.80265e-07
6.95302e-07
9.13999e-07
1.13791e-06
1.36816e-06
1.60541e-06
1.84984e-06
2.10121e-06
2.3588e-06
2.62154e-06
2.88806e-06
3.15678e-06
3.42606e-06
3.69419e-06
3.95951e-06
4.22039e-06
4.47526e-06
4.72262e-06
4.96101e-06
5.18903e-06
5.40542e-06
5.60897e-06
5.79849e-06
5.97279e-06
6.13076e-06
6.27137e-06
6.39368e-06
6.49689e-06
6.58029e-06
6.64334e-06
6.68563e-06
6.70686e-06
6.70691e-06
6.68576e-06
6.64357e-06
6.58061e-06
6.49729e-06
6.39417e-06
6.27194e-06
6.1314e-06
5.9735e-06
5.79926e-06
5.60981e-06
5.40631e-06
5.18996e-06
4.96198e-06
4.72362e-06
4.47629e-06
4.22143e-06
3.96056e-06
3.69524e-06
3.42709e-06
3.1578e-06
2.88905e-06
2.62249e-06
2.3597e-06
2.10205e-06
1.85062e-06
1.60611e-06
1.36878e-06
1.13845e-06
9.1444e-07
6.95647e-07
4.80509e-07
2.6706e-07
4.63281e-10
1.7357e-12
1.73466e-12
4.63015e-10
2.66919e-07
4.80265e-07
6.95302e-07
9.13999e-07
1.13791e-06
1.36816e-06
1.60541e-06
1.84984e-06
2.10121e-06
2.3588e-06
2.62154e-06
2.88806e-06
3.15678e-06
3.42606e-06
3.69419e-06
3.95951e-06
4.22039e-06
4.47526e-06
4.72262e-06
4.96101e-06
5.18903e-06
5.40542e-06
5.60897e-06
5.79849e-06
5.97279e-06
6.13076e-06
6.27137e-06
6.39368e-06
6.49689e-06
6.58029e-06
6.64334e-06
6.68563e-06
6.70686e-06
6.70691e-06
6.68576e-06
6.64357e-06
6.58061e-06
6.49729e-06
6.39417e-06
6.27194e-06
6.1314e-06
5.9735e-06
5.79926e-06
5.60981e-06
5.40631e-06
5.18996e-06
4.96198e-06
4.72362e-06
4.47629e-06
4.22143e-06
3.96056e-06
3.69524e-06
3.42709e-06
3.1578e-06
2.88905e-06
2.62249e-06
2.3597e-06
2.10205e-06
1.85062e-06
1.60611e-06
1.36878e-06
1.13845e-06
9.1444e-07
6.95647e-07
4.80509e-07
2.6706e-07
4.63281e-10
1.7357e-12
1.73466e-12
4.63015e-10
2.66919e-07
4.80265e-07
6.95302e-07
9.13999e-07
1.13791e-06
1.36816e-06
1.60541e-06
1.84984e-06
2.10121e-06
2.3588e-06
2.62154e-06
2.88806e-06
3.15678e-06
3.42606e-06
3.69419e-06
3.95951e-06
4.22039e-06
4.47526e-06
4.72262e-06
4.96101e-06
5.18903e-06
5.40542e-06
5.60897e-06
5.79849e-06
5.97279e-06
6.13076e-06
6.27137e-06
6.39369e-06
6.49689e-06
6.58029e-06
6.64334e-06
6.68563e-06
6.70686e-06
6.70691e-06
6.68576e-06
6.64357e-06
6.58061e-06
6.49729e-06
6.39417e-06
6.27194e-06
6.1314e-06
5.9735e-06
5.79926e-06
5.60981e-06
5.40631e-06
5.18996e-06
4.96198e-06
4.72362e-06
4.47629e-06
4.22143e-06
3.96056e-06
3.69524e-06
3.42709e-06
3.1578e-06
2.88905e-06
2.62249e-06
2.3597e-06
2.10205e-06
1.85062e-06
1.60611e-06
1.36878e-06
1.13845e-06
9.1444e-07
6.95647e-07
4.80509e-07
2.6706e-07
4.63281e-10
1.7357e-12
1.73466e-12
4.63015e-10
2.66919e-07
4.80265e-07
6.95302e-07
9.13999e-07
1.13791e-06
1.36816e-06
1.60541e-06
1.84984e-06
2.10121e-06
2.3588e-06
2.62154e-06
2.88806e-06
3.15678e-06
3.42606e-06
3.69419e-06
3.95951e-06
4.22039e-06
4.47526e-06
4.72262e-06
4.96101e-06
5.18903e-06
5.40542e-06
5.60897e-06
5.79849e-06
5.97279e-06
6.13076e-06
6.27137e-06
6.39369e-06
6.49689e-06
6.58029e-06
6.64334e-06
6.68563e-06
6.70686e-06
6.70691e-06
6.68576e-06
6.64357e-06
6.58061e-06
6.49729e-06
6.39417e-06
6.27194e-06
6.1314e-06
5.9735e-06
5.79926e-06
5.60981e-06
5.40631e-06
5.18996e-06
4.96198e-06
4.72362e-06
4.47629e-06
4.22143e-06
3.96056e-06
3.69524e-06
3.42709e-06
3.1578e-06
2.88905e-06
2.62249e-06
2.3597e-06
2.10205e-06
1.85062e-06
1.60611e-06
1.36878e-06
1.13845e-06
9.1444e-07
6.95647e-07
4.80509e-07
2.6706e-07
4.63281e-10
1.7357e-12
1.73466e-12
4.63015e-10
2.66919e-07
4.80265e-07
6.95303e-07
9.13999e-07
1.13791e-06
1.36816e-06
1.60541e-06
1.84984e-06
2.10121e-06
2.3588e-06
2.62154e-06
2.88806e-06
3.15678e-06
3.42606e-06
3.69419e-06
3.95951e-06
4.22039e-06
4.47526e-06
4.72262e-06
4.96101e-06
5.18903e-06
5.40542e-06
5.60897e-06
5.79849e-06
5.97279e-06
6.13076e-06
6.27137e-06
6.39369e-06
6.49689e-06
6.58029e-06
6.64334e-06
6.68563e-06
6.70686e-06
6.70691e-06
6.68576e-06
6.64357e-06
6.58061e-06
6.49729e-06
6.39417e-06
6.27194e-06
6.1314e-06
5.9735e-06
5.79926e-06
5.60981e-06
5.40631e-06
5.18996e-06
4.96198e-06
4.72362e-06
4.47629e-06
4.22143e-06
3.96056e-06
3.69524e-06
3.42709e-06
3.1578e-06
2.88905e-06
2.62249e-06
2.3597e-06
2.10205e-06
1.85062e-06
1.60611e-06
1.36878e-06
1.13845e-06
9.1444e-07
6.95647e-07
4.80509e-07
2.6706e-07
4.63281e-10
1.7357e-12
1.73466e-12
4.63015e-10
2.66919e-07
4.80265e-07
6.95303e-07
9.13999e-07
1.13791e-06
1.36816e-06
1.60541e-06
1.84984e-06
2.10121e-06
2.3588e-06
2.62154e-06
2.88806e-06
3.15678e-06
3.42606e-06