/*--------------------------------*- C++ -*----------------------------------*\
  =========                 |
  \\      /  F ield         | OpenFOAM: The Open Source CFD Toolbox
   \\    /   O peration     | Website:  https://openfoam.org
    \\  /    A nd           | Version:  13
     \\/     M anipulation  |
\*---------------------------------------------------------------------------*/
FoamFile
{
    format      ascii;
    class       volScalarField;
    location    "137.5";
    object      rhok;
}
// * * * * * * * * * * * * * * * * * * * * * * * * * * * * * * * * * * * * * //

dimensions      [];

internalField   nonuniform List<scalar> 
315000
(
0.444623
0.429663
0.414681
0.413248
0.412498
0.41175
0.411005
0.410263
0.409523
0.408786
0.408052
0.407321
0.406593
0.405867
0.405145
0.404426
0.40371
0.402997
0.402288
0.401581
0.400878
0.400179
0.399482
0.398789
0.3981
0.397414
0.396731
0.396052
0.395377
0.394705
0.394037
0.393372
0.39271
0.392053
0.391398
0.390748
0.390101
0.389457
0.388817
0.38818
0.387546
0.386916
0.386289
0.385666
0.385045
0.384428
0.383814
0.383202
0.382594
0.381988
0.381385
0.380785
0.380187
0.379591
0.378998
0.378407
0.377818
0.377231
0.376646
0.376062
0.37548
0.374899
0.37432
0.373741
0.373164
0.372587
0.372011
0.371436
0.370861
0.370286
0.444623
0.429662
0.414678
0.413245
0.412495
0.411747
0.411002
0.41026
0.40952
0.408783
0.408049
0.407318
0.406589
0.405864
0.405142
0.404422
0.403706
0.402994
0.402284
0.401577
0.400874
0.400175
0.399478
0.398785
0.398096
0.39741
0.396727
0.396048
0.395373
0.394701
0.394033
0.393368
0.392706
0.392049
0.391395
0.390744
0.390097
0.389453
0.388813
0.388176
0.387543
0.386913
0.386286
0.385662
0.385042
0.384425
0.38381
0.383199
0.382591
0.381985
0.381382
0.380782
0.380184
0.379589
0.378996
0.378405
0.377816
0.377229
0.376644
0.37606
0.375478
0.374898
0.374318
0.37374
0.373163
0.372587
0.372011
0.371436
0.370861
0.370286
0.444623
0.42966
0.414676
0.413242
0.412492
0.411744
0.410999
0.410257
0.409517
0.40878
0.408046
0.407315
0.406586
0.405861
0.405138
0.404419
0.403703
0.40299
0.402281
0.401574
0.400871
0.400171
0.399475
0.398782
0.398092
0.397406
0.396724
0.396045
0.395369
0.394697
0.394029
0.393364
0.392703
0.392045
0.391391
0.39074
0.390093
0.38945
0.38881
0.388173
0.38754
0.38691
0.386283
0.385659
0.385039
0.384422
0.383808
0.383197
0.382588
0.381983
0.38138
0.38078
0.380182
0.379587
0.378994
0.378403
0.377814
0.377227
0.376642
0.376059
0.375477
0.374897
0.374317
0.373739
0.373162
0.372586
0.372011
0.371435
0.370861
0.370286
0.444623
0.429659
0.414674
0.41324
0.41249
0.411742
0.410997
0.410254
0.409514
0.408777
0.408043
0.407312
0.406583
0.405858
0.405136
0.404416
0.4037
0.402987
0.402278
0.401571
0.400868
0.400168
0.399472
0.398779
0.398089
0.397403
0.396721
0.396042
0.395366
0.394694
0.394026
0.393361
0.3927
0.392042
0.391388
0.390738
0.39009
0.389447
0.388807
0.38817
0.387537
0.386907
0.38628
0.385657
0.385037
0.384419
0.383805
0.383194
0.382586
0.381981
0.381378
0.380778
0.38018
0.379585
0.378992
0.378401
0.377813
0.377226
0.376641
0.376058
0.375476
0.374896
0.374317
0.373739
0.373162
0.372586
0.37201
0.371435
0.370861
0.370286
0.444623
0.429658
0.414672
0.413238
0.412488
0.41174
0.410995
0.410252
0.409512
0.408775
0.408041
0.40731
0.406581
0.405856
0.405133
0.404414
0.403698
0.402985
0.402275
0.401569
0.400866
0.400166
0.399469
0.398776
0.398087
0.397401
0.396718
0.396039
0.395364
0.394692
0.394023
0.393359
0.392697
0.39204
0.391386
0.390735
0.390088
0.389444
0.388804
0.388168
0.387534
0.386905
0.386278
0.385655
0.385034
0.384417
0.383803
0.383192
0.382584
0.381979
0.381376
0.380776
0.380179
0.379583
0.378991
0.3784
0.377811
0.377225
0.37664
0.376057
0.375475
0.374895
0.374316
0.373738
0.373161
0.372585
0.37201
0.371435
0.37086
0.370286
0.444623
0.429658
0.41467
0.413237
0.412486
0.411738
0.410993
0.41025
0.409511
0.408773
0.408039
0.407308
0.406579
0.405854
0.405131
0.404412
0.403696
0.402983
0.402273
0.401567
0.400864
0.400164
0.399467
0.398774
0.398085
0.397399
0.396716
0.396037
0.395362
0.39469
0.394021
0.393357
0.392695
0.392038
0.391384
0.390733
0.390086
0.389443
0.388803
0.388166
0.387533
0.386903
0.386276
0.385653
0.385033
0.384416
0.383802
0.383191
0.382583
0.381977
0.381375
0.380775
0.380177
0.379582
0.37899
0.378399
0.37781
0.377224
0.376639
0.376056
0.375474
0.374894
0.374315
0.373738
0.373161
0.372585
0.372009
0.371435
0.37086
0.370286
0.444623
0.429657
0.414669
0.413236
0.412485
0.411737
0.410992
0.410249
0.409509
0.408772
0.408038
0.407307
0.406578
0.405853
0.40513
0.404411
0.403695
0.402982
0.402272
0.401565
0.400862
0.400162
0.399466
0.398773
0.398083
0.397397
0.396715
0.396036
0.39536
0.394688
0.39402
0.393355
0.392694
0.392036
0.391382
0.390732
0.390085
0.389441
0.388801
0.388165
0.387531
0.386901
0.386275
0.385652
0.385032
0.384415
0.383801
0.38319
0.382582
0.381976
0.381374
0.380774
0.380176
0.379581
0.378989
0.378398
0.37781
0.377223
0.376638
0.376055
0.375474
0.374894
0.374315
0.373737
0.37316
0.372584
0.372009
0.371435
0.37086
0.370286
0.444623
0.429657
0.414669
0.413235
0.412484
0.411737
0.410991
0.410249
0.409509
0.408772
0.408037
0.407306
0.406577
0.405852
0.405129
0.40441
0.403694
0.402981
0.402271
0.401564
0.400861
0.400161
0.399465
0.398772
0.398082
0.397396
0.396714
0.396035
0.395359
0.394687
0.394019
0.393354
0.392693
0.392035
0.391381
0.390731
0.390084
0.38944
0.3888
0.388164
0.38753
0.386901
0.386274
0.385651
0.385031
0.384414
0.3838
0.383189
0.382581
0.381976
0.381373
0.380773
0.380176
0.379581
0.378988
0.378398
0.377809
0.377223
0.376638
0.376055
0.375473
0.374893
0.374315
0.373737
0.37316
0.372584
0.372009
0.371434
0.37086
0.370286
0.444623
0.429657
0.414668
0.413235
0.412484
0.411736
0.410991
0.410248
0.409508
0.408771
0.408037
0.407305
0.406577
0.405851
0.405129
0.40441
0.403693
0.40298
0.402271
0.401564
0.400861
0.400161
0.399465
0.398772
0.398082
0.397396
0.396713
0.396034
0.395359
0.394687
0.394018
0.393354
0.392692
0.392035
0.391381
0.39073
0.390083
0.38944
0.3888
0.388163
0.38753
0.3869
0.386273
0.38565
0.38503
0.384413
0.383799
0.383188
0.38258
0.381975
0.381373
0.380773
0.380175
0.37958
0.378988
0.378397
0.377809
0.377222
0.376638
0.376055
0.375473
0.374893
0.374314
0.373737
0.37316
0.372584
0.372009
0.371434
0.37086
0.370286
0.444623
0.429657
0.414668
0.413235
0.412484
0.411736
0.410991
0.410248
0.409508
0.408771
0.408037
0.407305
0.406577
0.405851
0.405129
0.404409
0.403693
0.40298
0.40227
0.401564
0.400861
0.400161
0.399464
0.398771
0.398082
0.397396
0.396713
0.396034
0.395359
0.394687
0.394018
0.393353
0.392692
0.392035
0.39138
0.39073
0.390083
0.389439
0.388799
0.388163
0.38753
0.3869
0.386273
0.38565
0.38503
0.384413
0.383799
0.383188
0.38258
0.381975
0.381372
0.380772
0.380175
0.37958
0.378987
0.378397
0.377809
0.377222
0.376637
0.376054
0.375473
0.374893
0.374314
0.373737
0.37316
0.372584
0.372009
0.371434
0.37086
0.370286
0.444623
0.429657
0.414668
0.413235
0.412484
0.411736
0.410991
0.410248
0.409508
0.408771
0.408037
0.407305
0.406577
0.405851
0.405129
0.40441
0.403693
0.40298
0.40227
0.401564
0.400861
0.400161
0.399464
0.398771
0.398082
0.397396
0.396713
0.396034
0.395359
0.394687
0.394018
0.393353
0.392692
0.392034
0.39138
0.39073
0.390083
0.389439
0.388799
0.388163
0.387529
0.3869
0.386273
0.38565
0.38503
0.384413
0.383799
0.383188
0.38258
0.381975
0.381372
0.380772
0.380175
0.37958
0.378987
0.378397
0.377808
0.377222
0.376637
0.376054
0.375473
0.374893
0.374314
0.373737
0.37316
0.372584
0.372009
0.371434
0.37086
0.370286
0.444623
0.429657
0.414669
0.413235
0.412484
0.411736
0.410991
0.410248
0.409509
0.408771
0.408037
0.407306
0.406577
0.405852
0.405129
0.40441
0.403693
0.40298
0.402271
0.401564
0.400861
0.400161
0.399464
0.398771
0.398082
0.397396
0.396713
0.396034
0.395359
0.394687
0.394018
0.393353
0.392692
0.392035
0.39138
0.39073
0.390083
0.389439
0.388799
0.388163
0.387529
0.3869
0.386273
0.38565
0.38503
0.384413
0.383799
0.383188
0.38258
0.381975
0.381372
0.380772
0.380175
0.37958
0.378987
0.378397
0.377808
0.377222
0.376637
0.376054
0.375473
0.374893
0.374314
0.373737
0.37316
0.372584
0.372009
0.371434
0.37086
0.370286
0.444623
0.429657
0.414669
0.413235
0.412485
0.411737
0.410991
0.410249
0.409509
0.408772
0.408037
0.407306
0.406577
0.405852
0.405129
0.40441
0.403694
0.402981
0.402271
0.401564
0.400861
0.400161
0.399465
0.398772
0.398082
0.397396
0.396713
0.396034
0.395359
0.394687
0.394018
0.393354
0.392692
0.392035
0.391381
0.39073
0.390083
0.389439
0.388799
0.388163
0.38753
0.3869
0.386273
0.38565
0.38503
0.384413
0.383799
0.383188
0.38258
0.381975
0.381372
0.380772
0.380175
0.37958
0.378987
0.378397
0.377808
0.377222
0.376637
0.376054
0.375473
0.374893
0.374314
0.373737
0.37316
0.372584
0.372009
0.371434
0.37086
0.370286
0.444623
0.429657
0.414669
0.413235
0.412485
0.411737
0.410991
0.410249
0.409509
0.408772
0.408037
0.407306
0.406577
0.405852
0.405129
0.40441
0.403694
0.402981
0.402271
0.401564
0.400861
0.400161
0.399465
0.398772
0.398082
0.397396
0.396713
0.396034
0.395359
0.394687
0.394019
0.393354
0.392692
0.392035
0.391381
0.39073
0.390083
0.38944
0.3888
0.388163
0.38753
0.3869
0.386273
0.38565
0.38503
0.384413
0.383799
0.383188
0.38258
0.381975
0.381372
0.380772
0.380175
0.37958
0.378987
0.378397
0.377809
0.377222
0.376637
0.376054
0.375473
0.374893
0.374314
0.373737
0.37316
0.372584
0.372009
0.371434
0.37086
0.370286
0.444623
0.429657
0.414669
0.413235
0.412485
0.411737
0.410992
0.410249
0.409509
0.408772
0.408038
0.407306
0.406578
0.405852
0.40513
0.40441
0.403694
0.402981
0.402271
0.401565
0.400861
0.400162
0.399465
0.398772
0.398082
0.397396
0.396714
0.396035
0.395359
0.394687
0.394019
0.393354
0.392693
0.392035
0.391381
0.39073
0.390083
0.38944
0.3888
0.388163
0.38753
0.3869
0.386273
0.38565
0.38503
0.384413
0.383799
0.383188
0.38258
0.381975
0.381372
0.380773
0.380175
0.37958
0.378988
0.378397
0.377809
0.377222
0.376637
0.376055
0.375473
0.374893
0.374314
0.373737
0.37316
0.372584
0.372009
0.371434
0.37086
0.370286
0.444623
0.429657
0.414669
0.413236
0.412485
0.411737
0.410992
0.410249
0.409509
0.408772
0.408038
0.407306
0.406578
0.405852
0.40513
0.40441
0.403694
0.402981
0.402271
0.401565
0.400862
0.400162
0.399465
0.398772
0.398083
0.397397
0.396714
0.396035
0.395359
0.394687
0.394019
0.393354
0.392693
0.392035
0.391381
0.390731
0.390084
0.38944
0.3888
0.388163
0.38753
0.3869
0.386274
0.38565
0.38503
0.384413
0.383799
0.383188
0.38258
0.381975
0.381373
0.380773
0.380175
0.37958
0.378988
0.378397
0.377809
0.377222
0.376638
0.376055
0.375473
0.374893
0.374314
0.373737
0.37316
0.372584
0.372009
0.371434
0.37086
0.370286
0.444623
0.429657
0.41467
0.413236
0.412485
0.411737
0.410992
0.41025
0.40951
0.408772
0.408038
0.407307
0.406578
0.405853
0.40513
0.404411
0.403695
0.402982
0.402272
0.401565
0.400862
0.400162
0.399466
0.398773
0.398083
0.397397
0.396714
0.396035
0.39536
0.394688
0.394019
0.393355
0.392693
0.392036
0.391382
0.390731
0.390084
0.38944
0.3888
0.388164
0.38753
0.386901
0.386274
0.385651
0.385031
0.384414
0.3838
0.383189
0.382581
0.381975
0.381373
0.380773
0.380176
0.379581
0.378988
0.378397
0.377809
0.377222
0.376638
0.376055
0.375473
0.374893
0.374314
0.373737
0.37316
0.372584
0.372009
0.371434
0.37086
0.370286
0.444623
0.429657
0.41467
0.413236
0.412486
0.411738
0.410993
0.41025
0.40951
0.408773
0.408039
0.407307
0.406579
0.405853
0.405131
0.404411
0.403695
0.402982
0.402272
0.401566
0.400863
0.400163
0.399466
0.398773
0.398084
0.397397
0.396715
0.396036
0.39536
0.394688
0.39402
0.393355
0.392694
0.392036
0.391382
0.390731
0.390084
0.389441
0.388801
0.388164
0.387531
0.386901
0.386274
0.385651
0.385031
0.384414
0.3838
0.383189
0.382581
0.381976
0.381373
0.380773
0.380176
0.379581
0.378988
0.378398
0.377809
0.377223
0.376638
0.376055
0.375473
0.374893
0.374315
0.373737
0.37316
0.372584
0.372009
0.371434
0.37086
0.370286
0.444623
0.429658
0.414671
0.413237
0.412486
0.411739
0.410993
0.410251
0.409511
0.408774
0.408039
0.407308
0.406579
0.405854
0.405131
0.404412
0.403696
0.402983
0.402273
0.401566
0.400863
0.400163
0.399467
0.398774
0.398084
0.397398
0.396715
0.396036
0.395361
0.394689
0.39402
0.393356
0.392694
0.392037
0.391383
0.390732
0.390085
0.389441
0.388801
0.388165
0.387531
0.386901
0.386275
0.385651
0.385031
0.384414
0.3838
0.383189
0.382581
0.381976
0.381373
0.380773
0.380176
0.379581
0.378988
0.378398
0.377809
0.377223
0.376638
0.376055
0.375474
0.374893
0.374315
0.373737
0.37316
0.372584
0.372009
0.371435
0.37086
0.370286
0.444623
0.429658
0.414671
0.413238
0.412487
0.411739
0.410994
0.410251
0.409511
0.408774
0.40804
0.407309
0.40658
0.405855
0.405132
0.404413
0.403697
0.402984
0.402274
0.401567
0.400864
0.400164
0.399468
0.398775
0.398085
0.397399
0.396716
0.396037
0.395362
0.39469
0.394021
0.393356
0.392695
0.392037
0.391383
0.390733
0.390085
0.389442
0.388802
0.388165
0.387532
0.386902
0.386275
0.385652
0.385032
0.384415
0.383801
0.38319
0.382582
0.381976
0.381374
0.380774
0.380176
0.379581
0.378989
0.378398
0.37781
0.377223
0.376638
0.376055
0.375474
0.374894
0.374315
0.373737
0.37316
0.372584
0.372009
0.371435
0.37086
0.370286
0.444623
0.429658
0.414672
0.413238
0.412488
0.41174
0.410995
0.410252
0.409512
0.408775
0.408041
0.40731
0.406581
0.405856
0.405133
0.404414
0.403698
0.402984
0.402275
0.401568
0.400865
0.400165
0.399469
0.398775
0.398086
0.3974
0.396717
0.396038
0.395362
0.39469
0.394022
0.393357
0.392696
0.392038
0.391384
0.390733
0.390086
0.389443
0.388802
0.388166
0.387532
0.386902
0.386276
0.385653
0.385032
0.384415
0.383801
0.38319
0.382582
0.381977
0.381374
0.380774
0.380177
0.379582
0.378989
0.378398
0.37781
0.377223
0.376639
0.376055
0.375474
0.374894
0.374315
0.373737
0.37316
0.372585
0.372009
0.371435
0.37086
0.370286
0.444623
0.429659
0.414673
0.413239
0.412489
0.411741
0.410996
0.410253
0.409513
0.408776
0.408042
0.40731
0.406582
0.405856
0.405134
0.404415
0.403698
0.402985
0.402276
0.401569
0.400866
0.400166
0.399469
0.398776
0.398087
0.397401
0.396718
0.396039
0.395363
0.394691
0.394023
0.393358
0.392697
0.392039
0.391385
0.390734
0.390087
0.389443
0.388803
0.388166
0.387533
0.386903
0.386276
0.385653
0.385033
0.384416
0.383802
0.383191
0.382583
0.381977
0.381375
0.380775
0.380177
0.379582
0.378989
0.378399
0.37781
0.377224
0.376639
0.376056
0.375474
0.374894
0.374315
0.373737
0.373161
0.372585
0.372009
0.371435
0.37086
0.370286
0.444623
0.429659
0.414674
0.41324
0.41249
0.411742
0.410997
0.410254
0.409514
0.408777
0.408043
0.407311
0.406583
0.405857
0.405135
0.404416
0.403699
0.402986
0.402277
0.40157
0.400867
0.400167
0.39947
0.398777
0.398088
0.397401
0.396719
0.39604
0.395364
0.394692
0.394024
0.393359
0.392697
0.39204
0.391385
0.390735
0.390088
0.389444
0.388804
0.388167
0.387534
0.386904
0.386277
0.385654
0.385033
0.384416
0.383802
0.383191
0.382583
0.381978
0.381375
0.380775
0.380178
0.379582
0.37899
0.378399
0.37781
0.377224
0.376639
0.376056
0.375474
0.374894
0.374315
0.373737
0.373161
0.372585
0.372009
0.371435
0.37086
0.370286
0.444623
0.42966
0.414674
0.413241
0.412491
0.411743
0.410997
0.410255
0.409515
0.408778
0.408044
0.407312
0.406584
0.405858
0.405136
0.404417
0.4037
0.402987
0.402277
0.401571
0.400868
0.400168
0.399471
0.398778
0.398089
0.397402
0.39672
0.396041
0.395365
0.394693
0.394024
0.393359
0.392698
0.39204
0.391386
0.390735
0.390088
0.389445
0.388804
0.388168
0.387534
0.386904
0.386278
0.385654
0.385034
0.384417
0.383803
0.383192
0.382584
0.381978
0.381375
0.380775
0.380178
0.379583
0.37899
0.378399
0.377811
0.377224
0.376639
0.376056
0.375475
0.374894
0.374315
0.373738
0.373161
0.372585
0.37201
0.371435
0.37086
0.370286
0.444623
0.42966
0.414675
0.413242
0.412491
0.411744
0.410998
0.410256
0.409516
0.408779
0.408045
0.407313
0.406585
0.405859
0.405137
0.404417
0.403701
0.402988
0.402278
0.401572
0.400869
0.400169
0.399472
0.398779
0.398089
0.397403
0.396721
0.396041
0.395366
0.394694
0.394025
0.39336
0.392699
0.392041
0.391387
0.390736
0.390089
0.389445
0.388805
0.388168
0.387535
0.386905
0.386278
0.385655
0.385035
0.384417
0.383803
0.383192
0.382584
0.381979
0.381376
0.380776
0.380178
0.379583
0.37899
0.3784
0.377811
0.377224
0.37664
0.376056
0.375475
0.374895
0.374316
0.373738
0.373161
0.372585
0.37201
0.371435
0.37086
0.370286
0.444623
0.42966
0.414676
0.413242
0.412492
0.411744
0.410999
0.410257
0.409517
0.40878
0.408045
0.407314
0.406586
0.40586
0.405138
0.404418
0.403702
0.402989
0.402279
0.401573
0.400869
0.40017
0.399473
0.39878
0.39809
0.397404
0.396721
0.396042
0.395367
0.394695
0.394026
0.393361
0.3927
0.392042
0.391388
0.390737
0.39009
0.389446
0.388806
0.388169
0.387536
0.386906
0.386279
0.385655
0.385035
0.384418
0.383804
0.383193
0.382584
0.381979
0.381376
0.380776
0.380179
0.379583
0.378991
0.3784
0.377811
0.377225
0.37664
0.376057
0.375475
0.374895
0.374316
0.373738
0.373161
0.372585
0.37201
0.371435
0.37086
0.370286
0.444623
0.429661
0.414677
0.413243
0.412493
0.411745
0.411
0.410257
0.409518
0.408781
0.408046
0.407315
0.406587
0.405861
0.405139
0.404419
0.403703
0.40299
0.40228
0.401574
0.40087
0.40017
0.399474
0.398781
0.398091
0.397405
0.396722
0.396043
0.395367
0.394695
0.394027
0.393362
0.3927
0.392043
0.391388
0.390738
0.39009
0.389447
0.388806
0.38817
0.387536
0.386906
0.386279
0.385656
0.385036
0.384418
0.383804
0.383193
0.382585
0.381979
0.381377
0.380777
0.380179
0.379584
0.378991
0.3784
0.377812
0.377225
0.37664
0.376057
0.375475
0.374895
0.374316
0.373738
0.373161
0.372585
0.37201
0.371435
0.37086
0.370286
0.444623
0.429661
0.414677
0.413244
0.412494
0.411746
0.411001
0.410258
0.409518
0.408781
0.408047
0.407316
0.406587
0.405862
0.405139
0.40442
0.403704
0.402991
0.402281
0.401574
0.400871
0.400171
0.399475
0.398782
0.398092
0.397406
0.396723
0.396044
0.395368
0.394696
0.394028
0.393363
0.392701
0.392043
0.391389
0.390738
0.390091
0.389447
0.388807
0.38817
0.387537
0.386907
0.38628
0.385656
0.385036
0.384419
0.383805
0.383194
0.382585
0.38198
0.381377
0.380777
0.380179
0.379584
0.378991
0.378401
0.377812
0.377225
0.37664
0.376057
0.375475
0.374895
0.374316
0.373738
0.373161
0.372585
0.37201
0.371435
0.37086
0.370286
0.444623
0.429662
0.414678
0.413245
0.412494
0.411747
0.411001
0.410259
0.409519
0.408782
0.408048
0.407317
0.406588
0.405863
0.40514
0.404421
0.403705
0.402992
0.402282
0.401575
0.400872
0.400172
0.399475
0.398782
0.398093
0.397406
0.396724
0.396045
0.395369
0.394697
0.394028
0.393363
0.392702
0.392044
0.39139
0.390739
0.390092
0.389448
0.388808
0.388171
0.387537
0.386907
0.38628
0.385657
0.385037
0.384419
0.383805
0.383194
0.382586
0.38198
0.381377
0.380777
0.38018
0.379584
0.378992
0.378401
0.377812
0.377225
0.37664
0.376057
0.375475
0.374895
0.374316
0.373738
0.373161
0.372585
0.37201
0.371435
0.370861
0.370286
0.444623
0.429662
0.414679
0.413245
0.412495
0.411747
0.411002
0.41026
0.40952
0.408783
0.408049
0.407317
0.406589
0.405863
0.405141
0.404422
0.403705
0.402992
0.402282
0.401576
0.400873
0.400173
0.399476
0.398783
0.398093
0.397407
0.396724
0.396045
0.39537
0.394697
0.394029
0.393364
0.392702
0.392045
0.39139
0.390739
0.390092
0.389448
0.388808
0.388171
0.387538
0.386908
0.386281
0.385657
0.385037
0.38442
0.383806
0.383194
0.382586
0.381981
0.381378
0.380778
0.38018
0.379585
0.378992
0.378401
0.377812
0.377226
0.376641
0.376057
0.375476
0.374895
0.374316
0.373738
0.373161
0.372585
0.37201
0.371435
0.370861
0.370286
0.444623
0.429662
0.414679
0.413246
0.412496
0.411748
0.411003
0.41026
0.40952
0.408783
0.408049
0.407318
0.406589
0.405864
0.405142
0.404422
0.403706
0.402993
0.402283
0.401577
0.400873
0.400173
0.399477
0.398784
0.398094
0.397408
0.396725
0.396046
0.39537
0.394698
0.394029
0.393364
0.392703
0.392045
0.391391
0.39074
0.390093
0.389449
0.388809
0.388172
0.387538
0.386908
0.386281
0.385658
0.385037
0.38442
0.383806
0.383195
0.382586
0.381981
0.381378
0.380778
0.38018
0.379585
0.378992
0.378401
0.377813
0.377226
0.376641
0.376058
0.375476
0.374895
0.374316
0.373738
0.373162
0.372585
0.37201
0.371435
0.370861
0.370286
0.444623
0.429662
0.41468
0.413246
0.412496
0.411748
0.411003
0.410261
0.409521
0.408784
0.40805
0.407318
0.40659
0.405865
0.405142
0.404423
0.403707
0.402993
0.402284
0.401577
0.400874
0.400174
0.399477
0.398784
0.398094
0.397408
0.396725
0.396046
0.395371
0.394698
0.39403
0.393365
0.392703
0.392045
0.391391
0.39074
0.390093
0.389449
0.388809
0.388172
0.387539
0.386908
0.386282
0.385658
0.385038
0.38442
0.383806
0.383195
0.382587
0.381981
0.381378
0.380778
0.38018
0.379585
0.378992
0.378401
0.377813
0.377226
0.376641
0.376058
0.375476
0.374896
0.374316
0.373739
0.373162
0.372585
0.37201
0.371435
0.370861
0.370286
0.444623
0.429663
0.41468
0.413247
0.412497
0.411749
0.411004
0.410261
0.409521
0.408784
0.40805
0.407319
0.40659
0.405865
0.405143
0.404423
0.403707
0.402994
0.402284
0.401577
0.400874
0.400174
0.399478
0.398785
0.398095
0.397409
0.396726
0.396047
0.395371
0.394699
0.39403
0.393365
0.392704
0.392046
0.391391
0.390741
0.390093
0.38945
0.388809
0.388172
0.387539
0.386909
0.386282
0.385658
0.385038
0.384421
0.383806
0.383195
0.382587
0.381981
0.381378
0.380778
0.380181
0.379585
0.378992
0.378402
0.377813
0.377226
0.376641
0.376058
0.375476
0.374896
0.374317
0.373739
0.373162
0.372586
0.37201
0.371435
0.370861
0.370286
0.444623
0.429663
0.41468
0.413247
0.412497
0.411749
0.411004
0.410262
0.409522
0.408785
0.408051
0.407319
0.406591
0.405865
0.405143
0.404424
0.403707
0.402994
0.402284
0.401578
0.400875
0.400175
0.399478
0.398785
0.398095
0.397409
0.396726
0.396047
0.395371
0.394699
0.394031
0.393366
0.392704
0.392046
0.391392
0.390741
0.390094
0.38945
0.38881
0.388173
0.387539
0.386909
0.386282
0.385659
0.385038
0.384421
0.383807
0.383195
0.382587
0.381981
0.381379
0.380778
0.380181
0.379585
0.378992
0.378402
0.377813
0.377226
0.376641
0.376058
0.375476
0.374896
0.374317
0.373739
0.373162
0.372586
0.37201
0.371435
0.370861
0.370286
0.444623
0.429663
0.414681
0.413247
0.412497
0.411749
0.411004
0.410262
0.409522
0.408785
0.408051
0.407319
0.406591
0.405866
0.405143
0.404424
0.403708
0.402995
0.402285
0.401578
0.400875
0.400175
0.399478
0.398785
0.398095
0.397409
0.396726
0.396047
0.395372
0.394699
0.394031
0.393366
0.392704
0.392046
0.391392
0.390741
0.390094
0.38945
0.38881
0.388173
0.387539
0.386909
0.386282
0.385659
0.385038
0.384421
0.383807
0.383195
0.382587
0.381982
0.381379
0.380779
0.380181
0.379586
0.378993
0.378402
0.377813
0.377226
0.376641
0.376058
0.375476
0.374896
0.374317
0.373739
0.373162
0.372586
0.37201
0.371435
0.370861
0.370286
0.444623
0.429663
0.414681
0.413247
0.412497
0.41175
0.411004
0.410262
0.409522
0.408785
0.408051
0.40732
0.406591
0.405866
0.405143
0.404424
0.403708
0.402995
0.402285
0.401578
0.400875
0.400175
0.399479
0.398785
0.398096
0.397409
0.396727
0.396047
0.395372
0.3947
0.394031
0.393366
0.392704
0.392046
0.391392
0.390741
0.390094
0.38945
0.38881
0.388173
0.387539
0.386909
0.386282
0.385659
0.385038
0.384421
0.383807
0.383196
0.382587
0.381982
0.381379
0.380779
0.380181
0.379586
0.378993
0.378402
0.377813
0.377226
0.376641
0.376058
0.375476
0.374896
0.374317
0.373739
0.373162
0.372586
0.37201
0.371435
0.370861
0.370286
0.444623
0.429663
0.414681
0.413248
0.412497
0.41175
0.411005
0.410262
0.409522
0.408785
0.408051
0.40732
0.406591
0.405866
0.405143
0.404424
0.403708
0.402995
0.402285
0.401578
0.400875
0.400175
0.399479
0.398785
0.398096
0.39741
0.396727
0.396048
0.395372
0.3947
0.394031
0.393366
0.392705
0.392047
0.391392
0.390741
0.390094
0.38945
0.38881
0.388173
0.387539
0.386909
0.386282
0.385659
0.385038
0.384421
0.383807
0.383196
0.382587
0.381982
0.381379
0.380779
0.380181
0.379586
0.378993
0.378402
0.377813
0.377226
0.376641
0.376058
0.375476
0.374896
0.374317
0.373739
0.373162
0.372586
0.37201
0.371435
0.370861
0.370286
0.444623
0.429663
0.414681
0.413248
0.412497
0.41175
0.411005
0.410262
0.409522
0.408785
0.408051
0.40732
0.406591
0.405866
0.405144
0.404424
0.403708
0.402995
0.402285
0.401579
0.400875
0.400175
0.399479
0.398786
0.398096
0.39741
0.396727
0.396048
0.395372
0.3947
0.394031
0.393366
0.392705
0.392047
0.391392
0.390741
0.390094
0.38945
0.38881
0.388173
0.38754
0.386909
0.386283
0.385659
0.385038
0.384421
0.383807
0.383196
0.382587
0.381982
0.381379
0.380779
0.380181
0.379586
0.378993
0.378402
0.377813
0.377226
0.376641
0.376058
0.375476
0.374896
0.374317
0.373739
0.373162
0.372586
0.37201
0.371435
0.370861
0.370286
0.444623
0.429663
0.414681
0.413248
0.412497
0.41175
0.411005
0.410262
0.409522
0.408785
0.408051
0.40732
0.406591
0.405866
0.405144
0.404424
0.403708
0.402995
0.402285
0.401579
0.400875
0.400175
0.399479
0.398786
0.398096
0.39741
0.396727
0.396048
0.395372
0.3947
0.394031
0.393366
0.392705
0.392047
0.391392
0.390741
0.390094
0.38945
0.38881
0.388173
0.38754
0.386909
0.386283
0.385659
0.385039
0.384421
0.383807
0.383196
0.382587
0.381982
0.381379
0.380779
0.380181
0.379586
0.378993
0.378402
0.377813
0.377226
0.376641
0.376058
0.375476
0.374896
0.374317
0.373739
0.373162
0.372586
0.37201
0.371435
0.370861
0.370286
0.444623
0.429663
0.414681
0.413248
0.412498
0.41175
0.411005
0.410262
0.409522
0.408785
0.408051
0.40732
0.406592
0.405866
0.405144
0.404424
0.403708
0.402995
0.402285
0.401579
0.400875
0.400175
0.399479
0.398786
0.398096
0.39741
0.396727
0.396048
0.395372
0.3947
0.394031
0.393366
0.392705
0.392047
0.391392
0.390742
0.390094
0.38945
0.38881
0.388173
0.38754
0.386909
0.386283
0.385659
0.385039
0.384421
0.383807
0.383196
0.382587
0.381982
0.381379
0.380779
0.380181
0.379586
0.378993
0.378402
0.377813
0.377226
0.376641
0.376058
0.375476
0.374896
0.374317
0.373739
0.373162
0.372586
0.37201
0.371435
0.370861
0.370286
0.444623
0.429663
0.414681
0.413248
0.412498
0.41175
0.411005
0.410262
0.409522
0.408785
0.408051
0.40732
0.406592
0.405866
0.405144
0.404424
0.403708
0.402995
0.402285
0.401579
0.400875
0.400175
0.399479
0.398786
0.398096
0.39741
0.396727
0.396048
0.395372
0.3947
0.394031
0.393366
0.392705
0.392047
0.391392
0.390742
0.390094
0.38945
0.38881
0.388173
0.38754
0.386909
0.386283
0.385659
0.385039
0.384421
0.383807
0.383196
0.382587
0.381982
0.381379
0.380779
0.380181
0.379586
0.378993
0.378402
0.377813
0.377226
0.376641
0.376058
0.375476
0.374896
0.374317
0.373739
0.373162
0.372586
0.37201
0.371435
0.370861
0.370286
0.444623
0.429663
0.414681
0.413248
0.412498
0.41175
0.411005
0.410262
0.409523
0.408785
0.408051
0.40732
0.406592
0.405866
0.405144
0.404424
0.403708
0.402995
0.402285
0.401579
0.400875
0.400175
0.399479
0.398786
0.398096
0.39741
0.396727
0.396048
0.395372
0.3947
0.394031
0.393366
0.392705
0.392047
0.391392
0.390742
0.390094
0.38945
0.38881
0.388173
0.38754
0.386909
0.386283
0.385659
0.385039
0.384421
0.383807
0.383196
0.382587
0.381982
0.381379
0.380779
0.380181
0.379586
0.378993
0.378402
0.377813
0.377226
0.376641
0.376058
0.375476
0.374896
0.374317
0.373739
0.373162
0.372586
0.37201
0.371435
0.370861
0.370286
0.444623
0.429663
0.414681
0.413248
0.412498
0.41175
0.411005
0.410262
0.409523
0.408785
0.408051
0.40732
0.406592
0.405866
0.405144
0.404424
0.403708
0.402995
0.402285
0.401579
0.400875
0.400175
0.399479
0.398786
0.398096
0.39741
0.396727
0.396048
0.395372
0.3947
0.394031
0.393366
0.392705
0.392047
0.391392
0.390742
0.390094
0.38945
0.38881
0.388173
0.38754
0.386909
0.386283
0.385659
0.385039
0.384421
0.383807
0.383196
0.382587
0.381982
0.381379
0.380779
0.380181
0.379586
0.378993
0.378402
0.377813
0.377226
0.376641
0.376058
0.375476
0.374896
0.374317
0.373739
0.373162
0.372586
0.37201
0.371435
0.370861
0.370286
0.444623
0.429663
0.414681
0.413248
0.412498
0.41175
0.411005
0.410262
0.409523
0.408785
0.408051
0.40732
0.406592
0.405866
0.405144
0.404424
0.403708
0.402995
0.402285
0.401579
0.400875
0.400175
0.399479
0.398786
0.398096
0.39741
0.396727
0.396048
0.395372
0.3947
0.394031
0.393366
0.392705
0.392047
0.391392
0.390742
0.390094
0.38945
0.38881
0.388173
0.38754
0.386909
0.386283
0.385659
0.385039
0.384421
0.383807
0.383196
0.382587
0.381982
0.381379
0.380779
0.380181
0.379586
0.378993
0.378402
0.377813
0.377226
0.376641
0.376058
0.375476
0.374896
0.374317
0.373739
0.373162
0.372586
0.37201
0.371435
0.370861
0.370286
0.444623
0.429663
0.414681
0.413248
0.412498
0.41175
0.411005
0.410262
0.409523
0.408785
0.408051
0.40732
0.406592
0.405866
0.405144
0.404424
0.403708
0.402995
0.402285
0.401579
0.400875
0.400175
0.399479
0.398786
0.398096
0.39741
0.396727
0.396048
0.395372
0.3947
0.394031
0.393366
0.392705
0.392047
0.391392
0.390742
0.390094
0.38945
0.38881
0.388173
0.38754
0.386909
0.386283
0.385659
0.385039
0.384421
0.383807
0.383196
0.382587
0.381982
0.381379
0.380779
0.380181
0.379586
0.378993
0.378402
0.377813
0.377226
0.376641
0.376058
0.375476
0.374896
0.374317
0.373739
0.373162
0.372586
0.37201
0.371435
0.370861
0.370286
0.444623
0.429663
0.414681
0.413248
0.412498
0.41175
0.411005
0.410262
0.409523
0.408785
0.408051
0.40732
0.406592
0.405866
0.405144
0.404424
0.403708
0.402995
0.402285
0.401579
0.400875
0.400175
0.399479
0.398786
0.398096
0.39741
0.396727
0.396048
0.395372
0.3947
0.394031
0.393366
0.392705
0.392047
0.391392
0.390742
0.390094
0.38945
0.38881
0.388173
0.38754
0.386909
0.386283
0.385659
0.385039
0.384421
0.383807
0.383196
0.382587
0.381982
0.381379
0.380779
0.380181
0.379586
0.378993
0.378402
0.377813
0.377226
0.376641
0.376058
0.375476
0.374896
0.374317
0.373739
0.373162
0.372586
0.37201
0.371435
0.370861
0.370286
0.444623
0.429663
0.414681
0.413248
0.412498
0.41175
0.411005
0.410262
0.409523
0.408785
0.408051
0.40732
0.406592
0.405866
0.405144
0.404424
0.403708
0.402995
0.402285
0.401579
0.400875
0.400175
0.399479
0.398786
0.398096
0.39741
0.396727
0.396048
0.395372
0.3947
0.394031
0.393366
0.392705
0.392047
0.391392
0.390742
0.390094
0.38945
0.38881
0.388173
0.38754
0.386909
0.386283
0.385659
0.385039
0.384421
0.383807
0.383196
0.382587
0.381982
0.381379
0.380779
0.380181
0.379586
0.378993
0.378402
0.377813
0.377226
0.376641
0.376058
0.375476
0.374896
0.374317
0.373739
0.373162
0.372586
0.37201
0.371435
0.370861
0.370286
0.444623
0.429663
0.414681
0.413248
0.412498
0.41175
0.411005
0.410262
0.409523
0.408785
0.408051
0.40732
0.406592
0.405866
0.405144
0.404424
0.403708