/*--------------------------------*- C++ -*----------------------------------*\
  =========                 |
  \\      /  F ield         | OpenFOAM: The Open Source CFD Toolbox
   \\    /   O peration     | Website:  https://openfoam.org
    \\  /    A nd           | Version:  13
     \\/     M anipulation  |
\*---------------------------------------------------------------------------*/
FoamFile
{
    format      ascii;
    class       volScalarField;
    location    "29";
    object      k;
}
// * * * * * * * * * * * * * * * * * * * * * * * * * * * * * * * * * * * * * //

dimensions      [0 2 -2 0 0 0 0];

internalField   nonuniform List<scalar> 
78750
(
4.83523e-16
1.37319e-14
6.21729e-14
1.1277e-13
1.66092e-13
2.22527e-13
2.82103e-13
3.44399e-13
4.08534e-13
4.73217e-13
5.36829e-13
5.9753e-13
6.53378e-13
7.02456e-13
7.42989e-13
7.73458e-13
7.9269e-13
7.9993e-13
7.94887e-13
7.77752e-13
7.49187e-13
7.10285e-13
6.625e-13
6.07564e-13
5.47373e-13
4.83871e-13
4.18921e-13
3.54182e-13
2.90997e-13
2.30295e-13
1.72538e-13
1.17697e-13
6.53019e-14
1.45455e-14
5.14463e-16
1.04871e-14
3.02525e-13
1.50779e-12
2.75455e-12
4.06709e-12
5.45987e-12
6.93565e-12
8.48452e-12
1.00843e-11
1.17022e-11
1.32965e-11
1.48202e-11
1.62235e-11
1.74572e-11
1.84758e-11
1.92403e-11
1.97209e-11
1.98982e-11
1.9765e-11
1.93264e-11
1.85998e-11
1.76135e-11
1.64049e-11
1.50188e-11
1.35038e-11
1.19099e-11
1.02847e-11
8.6705e-12
7.10143e-12
5.6008e-12
4.17956e-12
2.83571e-12
1.55492e-12
3.12504e-13
1.084e-14
2.90805e-14
8.3914e-13
4.19101e-12
7.70162e-12
1.14707e-11
1.55645e-11
2.00083e-11
2.47814e-11
2.9817e-11
3.50061e-11
4.0204e-11
4.52408e-11
4.99326e-11
5.40946e-11
5.75533e-11
6.01591e-11
6.1796e-11
6.23899e-11
6.19134e-11
6.03878e-11
5.78816e-11
5.4506e-11
5.0407e-11
4.57558e-11
4.07366e-11
3.55339e-11
3.03197e-11
2.52417e-11
2.04125e-11
1.59026e-11
1.1736e-11
7.88983e-12
4.29858e-12
8.61685e-13
2.98754e-14
5.55549e-14
1.60314e-12
8.01253e-12
1.47564e-11
2.20491e-11
3.00379e-11
3.87859e-11
4.82624e-11
5.83397e-11
6.87995e-11
7.93456e-11
8.96235e-11
9.92445e-11
1.07813e-10
1.14954e-10
1.20343e-10
1.23726e-10
1.24941e-10
1.2393e-10
1.20739e-10
1.15522e-10
1.08524e-10
1.00062e-10
9.05085e-11
8.02575e-11
6.96995e-11
5.9193e-11
4.90397e-11
3.94646e-11
3.0602e-11
2.24889e-11
1.50661e-11
8.18836e-12
1.63985e-12
5.68481e-14
8.54221e-14
2.46489e-12
1.23217e-11
2.27063e-11
3.39595e-11
4.63168e-11
5.98824e-11
7.46125e-11
9.03112e-11
1.06638e-10
1.2313e-10
1.39226e-10
1.54314e-10
1.67764e-10
1.78981e-10
1.87447e-10
1.92757e-10
1.94652e-10
1.93039e-10
1.87997e-10
1.7977e-10
1.68749e-10
1.55446e-10
1.40451e-10
1.2439e-10
1.07881e-10
9.14878e-11
7.56824e-11
6.08144e-11
4.70894e-11
3.45597e-11
2.31275e-11
1.25598e-11
2.51453e-12
8.71705e-14
1.14592e-13
3.30648e-12
1.6529e-11
3.04639e-11
4.55721e-11
6.21731e-11
8.0409e-11
1.00222e-10
1.21349e-10
1.43332e-10
1.65545e-10
1.87233e-10
2.07566e-10
2.25695e-10
2.40815e-10
2.52222e-10
2.59371e-10
2.61911e-10
2.59718e-10
2.52898e-10
2.41783e-10
2.26906e-10
2.08958e-10
1.88738e-10
1.67093e-10
1.44858e-10
1.22792e-10
1.01533e-10
8.15497e-11
6.31171e-11
4.63038e-11
3.09758e-11
1.68176e-11
3.3666e-12
1.16709e-13
1.40279e-13
4.04768e-12
2.02344e-11
3.72938e-11
5.57919e-11
7.61204e-11
9.84541e-11
1.22723e-10
1.48603e-10
1.75534e-10
2.02749e-10
2.29321e-10
2.54233e-10
2.76443e-10
2.94963e-10
3.08932e-10
3.1768e-10
3.2078e-10
3.18077e-10
3.09703e-10
2.96067e-10
2.77823e-10
2.5582e-10
2.31037e-10
2.04514e-10
1.77274e-10
1.50248e-10
1.24216e-10
9.97517e-11
7.71926e-11
5.66214e-11
3.7873e-11
2.056e-11
4.11548e-12
1.42668e-13
1.60965e-13
4.64474e-12
2.32197e-11
4.27959e-11
6.40231e-11
8.73516e-11
1.12982e-10
1.40833e-10
1.70534e-10
2.01442e-10
2.32673e-10
2.63167e-10
2.91753e-10
3.17237e-10
3.38485e-10
3.54508e-10
3.64537e-10
3.68082e-10
3.64967e-10
3.55344e-10
3.39683e-10
3.18735e-10
2.93474e-10
2.65028e-10
2.34587e-10
2.03327e-10
1.72317e-10
1.4245e-10
1.14386e-10
8.85107e-11
6.49184e-11
4.34198e-11
2.35699e-11
4.71762e-12
1.63532e-13
1.76272e-13
5.08678e-12
2.54306e-11
4.68705e-11
7.01185e-11
9.56678e-11
1.23738e-10
1.54241e-10
1.8677e-10
2.20619e-10
2.54822e-10
2.88216e-10
3.1952e-10
3.47425e-10
3.70689e-10
3.88229e-10
3.99204e-10
4.03077e-10
3.99654e-10
3.89106e-10
3.71945e-10
3.48995e-10
3.21325e-10
2.90167e-10
2.56828e-10
2.22594e-10
1.88637e-10
1.55934e-10
1.25208e-10
9.68795e-11
7.10533e-11
4.75209e-11
2.5795e-11
5.16263e-12
1.78944e-13
1.86711e-13
5.38844e-12
2.69399e-11
4.96523e-11
7.42799e-11
1.01345e-10
1.31081e-10
1.63394e-10
1.97853e-10
2.3371e-10
2.69942e-10
3.05316e-10
3.38475e-10
3.68031e-10
3.9267e-10
4.11245e-10
4.22864e-10
4.26959e-10
4.23326e-10
4.12144e-10
3.93958e-10
3.69641e-10
3.40324e-10
3.07316e-10
2.71999e-10
2.35736e-10
1.99767e-10
1.65129e-10
1.32586e-10
1.02585e-10
7.52356e-11
5.03165e-11
2.73117e-11
5.46579e-12
1.89436e-13
1.93293e-13
5.5788e-12
2.78928e-11
5.14086e-11
7.69073e-11
1.0493e-10
1.35718e-10
1.69174e-10
2.04852e-10
2.41977e-10
2.79489e-10
3.16113e-10
3.50443e-10
3.81042e-10
4.06549e-10
4.25776e-10
4.37802e-10
4.42036e-10
4.38269e-10
4.26686e-10
4.07852e-10
3.82671e-10
3.52315e-10
3.18137e-10
2.81571e-10
2.44026e-10
2.06788e-10
1.70928e-10
1.37239e-10
1.06183e-10
7.78725e-11
5.20789e-11
2.82677e-11
5.65678e-12
1.96041e-13
1.97145e-13
5.69027e-12
2.84512e-11
5.24378e-11
7.8447e-11
1.07031e-10
1.38435e-10
1.72561e-10
2.08953e-10
2.46821e-10
2.85085e-10
3.22441e-10
3.57457e-10
3.88667e-10
4.14683e-10
4.34293e-10
4.46556e-10
4.50871e-10
4.47025e-10
4.35207e-10
4.15992e-10
3.90304e-10
3.59338e-10
3.24475e-10
2.87177e-10
2.48881e-10
2.10898e-10
1.74324e-10
1.39963e-10
1.08289e-10
7.94156e-11
5.31102e-11
2.8827e-11
5.76846e-12
1.99899e-13
1.99244e-13
5.7511e-12
2.8756e-11
5.29997e-11
7.92876e-11
1.08178e-10
1.39919e-10
1.7441e-10
2.11193e-10
2.49467e-10
2.8814e-10
3.25897e-10
3.61288e-10
3.92832e-10
4.19125e-10
4.38944e-10
4.51336e-10
4.55696e-10
4.51806e-10
4.39859e-10
4.20437e-10
3.94472e-10
3.63172e-10
3.27934e-10
2.90236e-10
2.5153e-10
2.13141e-10
1.76176e-10
1.41449e-10
1.09437e-10
8.02572e-11
5.36725e-11
2.9132e-11
5.82931e-12
2.02e-13
2.00314e-13
5.78213e-12
2.89117e-11
5.32866e-11
7.97169e-11
1.08764e-10
1.40677e-10
1.75355e-10
2.12337e-10
2.50819e-10
2.89701e-10
3.27663e-10
3.63245e-10
3.94959e-10
4.21394e-10
4.41319e-10
4.53778e-10
4.5816e-10
4.54249e-10
4.42235e-10
4.22707e-10
3.966e-10
3.6513e-10
3.29701e-10
2.91798e-10
2.52882e-10
2.14286e-10
1.77121e-10
1.42207e-10
1.10023e-10
8.06865e-11
5.39593e-11
2.92875e-11
5.86032e-12
2.03069e-13
2.00827e-13
5.79701e-12
2.89863e-11
5.34242e-11
7.99228e-11
1.09045e-10
1.4104e-10
1.75808e-10
2.12886e-10
2.51467e-10
2.9045e-10
3.2851e-10
3.64184e-10
3.9598e-10
4.22483e-10
4.42459e-10
4.5495e-10
4.59342e-10
4.5542e-10
4.43375e-10
4.23795e-10
3.97621e-10
3.66069e-10
3.30548e-10
2.92547e-10
2.5353e-10
2.14835e-10
1.77574e-10
1.42571e-10
1.10304e-10
8.08921e-11
5.40967e-11
2.9362e-11
5.87516e-12
2.0358e-13
2.01058e-13
5.80372e-12
2.902e-11
5.34864e-11
8.00158e-11
1.09172e-10
1.41204e-10
1.76013e-10
2.13134e-10
2.5176e-10
2.90789e-10
3.28892e-10
3.64608e-10
3.96441e-10
4.22975e-10
4.42974e-10
4.55479e-10
4.59877e-10
4.55949e-10
4.4389e-10
4.24287e-10
3.98082e-10
3.66493e-10
3.3093e-10
2.92885e-10
2.53823e-10
2.15082e-10
1.77779e-10
1.42735e-10
1.10431e-10
8.09849e-11
5.41587e-11
2.93956e-11
5.88185e-12
2.03811e-13
2.01156e-13
5.80658e-12
2.90344e-11
5.35129e-11
8.00555e-11
1.09226e-10
1.41275e-10
1.76101e-10
2.1324e-10
2.51885e-10
2.90933e-10
3.29056e-10
3.64789e-10
3.96638e-10
4.23185e-10
4.43194e-10
4.55705e-10
4.60105e-10
4.56176e-10
4.4411e-10
4.24497e-10
3.98279e-10
3.66674e-10
3.31094e-10
2.93029e-10
2.53948e-10
2.15188e-10
1.77866e-10
1.42805e-10
1.10485e-10
8.10246e-11
5.41851e-11
2.94099e-11
5.8847e-12
2.03909e-13
2.01196e-13
5.80774e-12
2.90402e-11
5.35237e-11
8.00716e-11
1.09248e-10
1.41303e-10
1.76136e-10
2.13283e-10
2.51936e-10
2.90992e-10
3.29122e-10
3.64863e-10
3.96718e-10
4.2327e-10
4.43284e-10
4.55797e-10
4.60197e-10
4.56267e-10
4.44199e-10
4.24583e-10
3.98358e-10
3.66748e-10
3.3116e-10
2.93088e-10
2.53999e-10
2.15231e-10
1.77901e-10
1.42833e-10
1.10507e-10
8.10406e-11
5.41958e-11
2.94157e-11
5.88586e-12
2.03948e-13
2.01211e-13
5.80819e-12
2.90425e-11
5.35278e-11
8.00778e-11
1.09256e-10
1.41314e-10
1.7615e-10
2.13299e-10
2.51955e-10
2.91014e-10
3.29148e-10
3.64891e-10
3.96749e-10
4.23303e-10
4.43318e-10
4.55832e-10
4.60233e-10
4.56302e-10
4.44233e-10
4.24615e-10
3.98389e-10
3.66776e-10
3.31185e-10
2.9311e-10
2.54018e-10
2.15248e-10
1.77915e-10
1.42844e-10
1.10515e-10
8.10467e-11
5.42e-11
2.94179e-11
5.8863e-12
2.03964e-13
2.01217e-13
5.80835e-12
2.90433e-11
5.35293e-11
8.008e-11
1.09259e-10
1.41318e-10
1.76155e-10
2.13305e-10
2.51962e-10
2.91023e-10
3.29157e-10
3.64901e-10
3.9676e-10
4.23315e-10
4.4333e-10
4.55845e-10
4.60246e-10
4.56315e-10
4.44246e-10
4.24627e-10
3.984e-10
3.66786e-10
3.31195e-10
2.93118e-10
2.54025e-10
2.15254e-10
1.7792e-10
1.42848e-10
1.10518e-10
8.1049e-11
5.42015e-11
2.94188e-11
5.88646e-12
2.03969e-13
2.01219e-13
5.80841e-12
2.90436e-11
5.35298e-11
8.00808e-11
1.0926e-10
1.41319e-10
1.76156e-10
2.13307e-10
2.51965e-10
2.91026e-10
3.2916e-10
3.64905e-10
3.96764e-10
4.2332e-10
4.43335e-10
4.5585e-10
4.60251e-10
4.5632e-10
4.4425e-10
4.24632e-10
3.98404e-10
3.6679e-10
3.31198e-10
2.93121e-10
2.54028e-10
2.15256e-10
1.77922e-10
1.42849e-10
1.10519e-10
8.10498e-11
5.4202e-11
2.9419e-11
5.88652e-12
2.03971e-13
2.01219e-13
5.80843e-12
2.90437e-11
5.353e-11
8.00811e-11
1.09261e-10
1.4132e-10
1.76157e-10
2.13308e-10
2.51966e-10
2.91026e-10
3.29161e-10
3.64906e-10
3.96766e-10
4.23321e-10
4.43336e-10
4.55851e-10
4.60252e-10
4.56321e-10
4.44252e-10
4.24633e-10
3.98406e-10
3.66791e-10
3.31199e-10
2.93122e-10
2.54029e-10
2.15256e-10
1.77922e-10
1.4285e-10
1.1052e-10
8.10501e-11
5.42022e-11
2.94191e-11
5.88654e-12
2.03972e-13
2.0122e-13
5.80843e-12
2.90437e-11
5.35301e-11
8.00812e-11
1.09261e-10
1.4132e-10
1.76157e-10
2.13308e-10
2.51966e-10
2.91027e-10
3.29162e-10
3.64907e-10
3.96766e-10
4.23321e-10
4.43337e-10
4.55852e-10
4.60253e-10
4.56322e-10
4.44252e-10
4.24633e-10
3.98406e-10
3.66791e-10
3.31199e-10
2.93123e-10
2.54029e-10
2.15257e-10
1.77922e-10
1.4285e-10
1.1052e-10
8.10501e-11
5.42022e-11
2.94192e-11
5.88654e-12
2.03972e-13
2.0122e-13
5.80843e-12
2.90437e-11
5.35301e-11
8.00812e-11
1.09261e-10
1.4132e-10
1.76157e-10
2.13308e-10
2.51966e-10
2.91027e-10
3.29162e-10
3.64907e-10
3.96766e-10
4.23322e-10
4.43337e-10
4.55852e-10
4.60253e-10
4.56322e-10
4.44253e-10
4.24634e-10
3.98406e-10
3.66792e-10
3.31199e-10
2.93123e-10
2.54029e-10
2.15257e-10
1.77922e-10
1.4285e-10
1.1052e-10
8.10502e-11
5.42023e-11
2.94192e-11
5.88654e-12
2.03972e-13
2.0122e-13
5.80843e-12
2.90437e-11
5.35301e-11
8.00812e-11
1.09261e-10
1.4132e-10
1.76157e-10
2.13308e-10
2.51966e-10
2.91027e-10
3.29162e-10
3.64907e-10
3.96766e-10
4.23322e-10
4.43337e-10
4.55852e-10
4.60253e-10
4.56322e-10
4.44253e-10
4.24634e-10
3.98406e-10
3.66792e-10
3.31199e-10
2.93123e-10
2.54029e-10
2.15257e-10
1.77922e-10
1.4285e-10
1.1052e-10
8.10502e-11
5.42023e-11
2.94192e-11
5.88655e-12
2.03972e-13
2.0122e-13
5.80843e-12
2.90437e-11
5.35301e-11
8.00812e-11
1.09261e-10
1.4132e-10
1.76157e-10
2.13308e-10
2.51966e-10
2.91027e-10
3.29162e-10
3.64907e-10
3.96766e-10
4.23322e-10
4.43337e-10
4.55852e-10
4.60253e-10
4.56322e-10
4.44253e-10
4.24634e-10
3.98406e-10
3.66792e-10
3.31199e-10
2.93123e-10
2.54029e-10
2.15257e-10
1.77922e-10
1.4285e-10
1.1052e-10
8.10502e-11
5.42023e-11
2.94192e-11
5.88655e-12
2.03972e-13
2.0122e-13
5.80843e-12
2.90437e-11
5.35301e-11
8.00812e-11
1.09261e-10
1.4132e-10
1.76157e-10
2.13308e-10
2.51966e-10
2.91027e-10
3.29162e-10
3.64907e-10
3.96766e-10
4.23322e-10
4.43337e-10
4.55852e-10
4.60253e-10
4.56322e-10
4.44253e-10
4.24634e-10
3.98406e-10
3.66792e-10
3.31199e-10
2.93123e-10
2.54029e-10
2.15257e-10
1.77922e-10
1.4285e-10
1.1052e-10
8.10502e-11
5.42023e-11
2.94192e-11
5.88655e-12
2.03972e-13
2.0122e-13
5.80843e-12
2.90437e-11
5.35301e-11
8.00812e-11
1.09261e-10
1.4132e-10
1.76157e-10
2.13308e-10
2.51966e-10
2.91027e-10
3.29162e-10
3.64907e-10
3.96766e-10
4.23322e-10
4.43337e-10
4.55852e-10
4.60253e-10
4.56322e-10
4.44253e-10
4.24634e-10
3.98406e-10
3.66792e-10
3.31199e-10
2.93123e-10
2.54029e-10
2.15257e-10
1.77922e-10
1.4285e-10
1.1052e-10
8.10502e-11
5.42023e-11
2.94192e-11
5.88655e-12
2.03972e-13
2.0122e-13
5.80843e-12
2.90437e-11
5.35301e-11
8.00812e-11
1.09261e-10
1.4132e-10
1.76157e-10
2.13308e-10
2.51966e-10
2.91027e-10
3.29162e-10
3.64907e-10
3.96766e-10
4.23322e-10
4.43337e-10
4.55852e-10
4.60253e-10
4.56322e-10
4.44253e-10
4.24634e-10
3.98406e-10
3.66792e-10
3.31199e-10
2.93123e-10
2.54029e-10
2.15257e-10
1.77922e-10
1.4285e-10
1.1052e-10
8.10502e-11
5.42023e-11
2.94192e-11
5.88655e-12
2.03972e-13
2.0122e-13
5.80843e-12
2.90437e-11
5.35301e-11
8.00812e-11
1.09261e-10
1.4132e-10
1.76157e-10
2.13308e-10
2.51966e-10
2.91027e-10
3.29162e-10
3.64907e-10
3.96766e-10
4.23322e-10
4.43337e-10
4.55852e-10
4.60253e-10
4.56322e-10
4.44253e-10
4.24634e-10
3.98406e-10
3.66792e-10
3.31199e-10
2.93123e-10
2.54029e-10
2.15257e-10
1.77922e-10
1.4285e-10
1.1052e-10
8.10502e-11
5.42023e-11
2.94192e-11
5.88655e-12
2.03972e-13
2.0122e-13
5.80843e-12
2.90437e-11
5.35301e-11
8.00812e-11
1.09261e-10
1.4132e-10
1.76157e-10
2.13308e-10
2.51966e-10
2.91027e-10
3.29162e-10
3.64907e-10
3.96766e-10
4.23322e-10
4.43337e-10
4.55852e-10
4.60253e-10
4.56322e-10
4.44253e-10
4.24634e-10
3.98406e-10
3.66792e-10
3.31199e-10
2.93123e-10
2.54029e-10
2.15257e-10
1.77922e-10
1.4285e-10
1.1052e-10
8.10502e-11
5.42023e-11
2.94192e-11
5.88655e-12
2.03972e-13
2.0122e-13
5.80843e-12
2.90437e-11
5.35301e-11
8.00812e-11
1.09261e-10
1.4132e-10
1.76157e-10
2.13308e-10
2.51966e-10
2.91027e-10
3.29162e-10
3.64907e-10
3.96766e-10
4.23322e-10
4.43337e-10
4.55852e-10
4.60253e-10
4.56322e-10
4.44253e-10
4.24634e-10
3.98406e-10
3.66792e-10
3.31199e-10
2.93123e-10
2.54029e-10
2.15257e-10
1.77922e-10
1.4285e-10
1.1052e-10
8.10502e-11
5.42023e-11
2.94192e-11
5.88655e-12
2.03972e-13
2.0122e-13
5.80843e-12
2.90437e-11
5.35301e-11
8.00812e-11
1.09261e-10
1.4132e-10
1.76157e-10
2.13308e-10
2.51966e-10
2.91027e-10
3.29162e-10
3.64907e-10
3.96766e-10
4.23322e-10
4.43337e-10
4.55852e-10
4.60253e-10
4.56322e-10
4.44253e-10
4.24634e-10
3.98406e-10
3.66792e-10
3.31199e-10
2.93123e-10
2.54029e-10
2.15257e-10
1.77922e-10
1.4285e-10
1.1052e-10
8.10502e-11
5.42023e-11
2.94192e-11
5.88655e-12
2.03972e-13
2.0122e-13
5.80843e-12
2.90437e-11
5.35301e-11
8.00812e-11
1.09261e-10
1.4132e-10
1.76157e-10
2.13308e-10
2.51966e-10
2.91027e-10
3.29162e-10
3.64907e-10
3.96766e-10
4.23322e-10
4.43337e-10
4.55852e-10
4.60253e-10
4.56322e-10
4.44253e-10
4.24634e-10
3.98406e-10
3.66792e-10
3.31199e-10
2.93123e-10
2.54029e-10
2.15257e-10
1.77922e-10
1.4285e-10
1.1052e-10
8.10502e-11
5.42023e-11
2.94192e-11
5.88655e-12
2.03972e-13
2.0122e-13
5.80843e-12
2.90437e-11
5.35301e-11
8.00812e-11
1.09261e-10
1.4132e-10
1.76157e-10
2.13308e-10
2.51966e-10
2.91027e-10
3.29162e-10
3.64907e-10
3.96766e-10
4.23322e-10
4.43337e-10
4.55852e-10
4.60253e-10
4.56322e-10
4.44253e-10
4.24634e-10
3.98406e-10
3.66792e-10
3.31199e-10
2.93123e-10
2.54029e-10
2.15257e-10
1.77922e-10
1.4285e-10
1.1052e-10
8.10502e-11
5.42023e-11
2.94192e-11
5.88655e-12
2.03972e-13
2.0122e-13
5.80843e-12
2.90437e-11
5.35301e-11
8.00812e-11
1.09261e-10
1.4132e-10
1.76157e-10
2.13308e-10
2.51966e-10
2.91027e-10
3.29162e-10
3.64907e-10
3.96766e-10
4.23322e-10
4.43337e-10
4.55852e-10
4.60253e-10
4.56322e-10
4.44253e-10
4.24634e-10
3.98406e-10
3.66792e-10
3.31199e-10
2.93123e-10
2.54029e-10
2.15257e-10
1.77922e-10
1.4285e-10
1.1052e-10
8.10502e-11
5.42023e-11
2.94192e-11
5.88655e-12
2.03972e-13
2.0122e-13
5.80843e-12
2.90437e-11
5.35301e-11
8.00812e-11
1.09261e-10
1.4132e-10
1.76157e-10
2.13308e-10
2.51966e-10
2.91027e-10
3.29162e-10
3.64907e-10
3.96766e-10
4.23322e-10
4.43337e-10
4.55852e-10
4.60253e-10
4.56322e-10
4.44253e-10
4.24634e-10
3.98406e-10
3.66792e-10
3.31199e-10
2.93123e-10
2.54029e-10
2.15257e-10
1.77922e-10
1.4285e-10
1.1052e-10
8.10502e-11
5.42023e-11
2.94192e-11
5.88655e-12
2.03972e-13
2.0122e-13
5.80843e-12
2.90437e-11
5.35301e-11
8.00812e-11
1.09261e-10
1.4132e-10
1.76157e-10
2.13308e-10
2.51966e-10
2.91027e-10
3.29162e-10
3.64907e-10
3.96766e-10
4.23322e-10
4.43337e-10
4.55852e-10
4.60253e-10
4.56322e-10
4.44253e-10
4.24634e-10
3.98406e-10
3.66792e-10
3.31199e-10
2.93123e-10
2.54029e-10
2.15257e-10
1.77922e-10
1.4285e-10
1.1052e-10
8.10502e-11
5.42023e-11
2.94192e-11
5.88655e-12
2.03972e-13
2.0122e-13
5.80843e-12
2.90437e-11
5.35301e-11
8.00812e-11
1.09261e-10
1.4132e-10
1.76157e-10
2.13308e-10
2.51966e-10
2.91027e-10
3.29162e-10
3.64907e-10
3.96766e-10
4.23322e-10
4.43337e-10
4.55852e-10
4.60253e-10
4.56322e-10
4.44253e-10
4.24634e-10
3.98406e-10
3.66792e-10
3.31199e-10
2.93123e-10
2.54029e-10
2.15257e-10
1.77922e-10
1.4285e-10
1.1052e-10
8.10502e-11
5.42023e-11
2.94192e-11
5.88655e-12
2.03972e-13
2.0122e-13
5.80843e-12
2.90437e-11
5.35301e-11
8.00812e-11
1.09261e-10
1.4132e-10
1.76157e-10
2.13308e-10
2.51966e-10
2.91027e-10
3.29162e-10
3.64907e-10
3.96766e-10
4.23322e-10
4.43337e-10
4.55852e-10
4.60253e-10
4.56322e-10
4.44253e-10
4.24634e-10
3.98406e-10
3.66792e-10
3.31199e-10
2.93123e-10
2.54029e-10
2.15257e-10
1.77922e-10
1.4285e-10
1.1052e-10
8.10502e-11
5.42023e-11
2.94192e-11
5.88655e-12
2.03972e-13
2.0122e-13
5.80843e-12
2.90437e-11
5.35301e-11
8.00812e-11
1.09261e-10
1.4132e-10
1.76157e-10
2.13308e-10
2.51966e-10
2.91027e-10
3.29162e-10
3.64907e-10
3.96766e-10
4.23322e-10
4.43337e-10
4.55852e-10
4.60253e-10
4.56322e-10
4.44253e-10
4.24634e-10
3.98406e-10
3.66792e-10
3.31199e-10
2.93123e-10
2.54029e-10
2.15257e-10
1.77922e-10
1.4285e-10
1.1052e-10
8.10502e-11
5.42023e-11
2.94192e-11
5.88655e-12
2.03972e-13
2.0122e-13
5.80843e-12
2.90437e-11
5.35301e-11
8.00812e-11
1.09261e-10
1.4132e-10
1.76157e-10
2.13308e-10
2.51966e-10
2.91027e-10
3.29162e-10
3.64907e-10
3.96766e-10
4.23322e-10
4.43337e-10
4.55852e-10
4.60253e-10
4.56322e-10
4.44253e-10
4.24634e-10
3.98406e-10
3.66792e-10
3.31199e-10
2.93123e-10
2.54029e-10
2.15257e-10
1.77922e-10
1.4285e-10
1.1052e-10
8.10502e-11
5.42023e-11
2.94192e-11
5.88655e-12
2.03972e-13
2.0122e-13
5.80843e-12
2.90437e-11
5.35301e-11
8.00812e-11
1.09261e-10
1.4132e-10
1.76157e-10
2.13308e-10
2.51966e-10
2.91027e-10
3.29162e-10
3.64907e-10
3.96766e-10
4.23322e-10
4.43337e-10
4.55852e-10
4.60253e-10
4.56322e-10
4.44253e-10
4.24634e-10
3.98406e-10
3.66792e-10
3.31199e-10
2.93123e-10
2.54029e-10
2.15257e-10
1.77922e-10
1.4285e-10
1.1052e-10
8.10502e-11
5.42023e-11
2.94192e-11
5.88655e-12
2.03972e-13
2.0122e-13
5.80843e-12
2.90437e-11
5.35301e-11
8.00812e-11
1.09261e-10
1.4132e-10
1.76157e-10
2.13308e-10
2.51966e-10
2.91027e-10
3.29162e-10
3.64907e-10
3.96766e-10
4.23322e-10
4.43337e-10
4.55852e-10
4.60253e-10
4.56322e-10
4.44253e-10
4.24634e-10
3.98406e-10
3.66792e-10
3.31199e-10
2.93123e-10
2.54029e-10
2.15257e-10
1.77922e-10
1.4285e-10
1.1052e-10
8.10502e-11
5.42023e-11
2.94192e-11
5.88655e-12
2.03972e-13
2.0122e-13
5.80843e-12
2.90437e-11
5.35301e-11
8.00812e-11
1.09261e-10
1.4132e-10
1.76157e-10
2.13308e-10
2.51966e-10
2.91027e-10
3.29162e-10
3.64907e-10
3.96766e-10
4.23322e-10
4.43337e-10
4.55852e-10
4.60253e-10
4.56322e-10
4.44253e-10
4.24634e-10
3.98406e-10
3.66792e-10
3.31199e-10
2.93123e-10
2.54029e-10
2.15257e-10
1.77922e-10
1.4285e-10
1.1052e-10
8.10502e-11
5.42023e-11
2.94192e-11
5.88655e-12
2.03972e-13
2.0122e-13
5.80843e-12
2.90437e-11
5.35301e-11
8.00812e-11
1.09261e-10
1.4132e-10
1.76157e-10
2.13308e-10
2.51966e-10
2.91027e-10
3.29162e-10
3.64907e-10
3.96766e-10
4.23322e-10
4.43337e-10
4.55852e-10
4.60253e-10
4.56322e-10
4.44253e-10
4.24634e-10
3.98406e-10
3.66792e-10
3.31199e-10
2.93123e-10
2.54029e-10
2.15257e-10
1.77922e-10
1.4285e-10
1.1052e-10
8.10502e-11
5.42023e-11
2.94192e-11
5.88655e-12
2.03972e-13
2.0122e-13
5.80843e-12
2.90437e-11
5.35301e-11
8.00812e-11
1.09261e-10
1.4132e-10
1.76157e-10
2.13308e-10
2.51966e-10
2.91027e-10
3.29162e-10
3.64907e-10
3.96766e-10
4.23322e-10
4.43337e-10
4.55852e-10
4.60253e-10
4.56322e-10
4.44253e-10
4.24634e-10
3.98406e-10
3.66792e-10
3.31199e-10
2.93123e-10
2.54029e-10
2.15257e-10
1.77922e-10
1.4285e-10
1.1052e-10
8.10502e-11
5.42023e-11
2.94192e-11
5.88655e-12
2.03972e-13
2.0122e-13
5.80843e-12
2.90437e-11
5.35301e-11
8.00812e-11
1.09261e-10
1.4132e-10
1.76157e-10
2.13308e-10
2.51966e-10
2.91027e-10
3.29162e-10
3.64907e-10
3.96766e-10
4.23322e-10
4.43337e-10
4.55852e-10
4.60253e-10
4.56322e-10
4.44253e-10
4.24634e-10
3.98406e-10
3.66792e-10
3.31199e-10
2.93123e-10
2.54029e-10
2.15257e-10
1.77922e-10
1.4285e-10
1.1052e-10
8.10502e-11
5.42023e-11
2.94192e-11
5.88655e-12
2.03972e-13
2.0122e-13
5.80843e-12
2.90437e-11
5.35301e-11
8.00812e-11
1.09261e-10
1.4132e-10
1.76157e-10
2.13308e-10
2.51966e-10
2.91027e-10
3.29162e-10
3.64907e-10
3.96766e-10
4.23322e-10
4.43337e-10
4.55852e-10
4.60253e-10
4.56322e-10
4.44253e-10
4.24634e-10
3.98406e-10
3.66792e-10
3.31199e-10
2.93123e-10
2.54029e-10
2.15257e-10
1.77922e-10
1.4285e-10
1.1052e-10
8.10502e-11
5.42023e-11
2.94192e-11
5.88655e-12
2.03972e-13
2.0122e-13
5.80843e-12
2.90437e-11
5.35301e-11
8.00812e-11
1.09261e-10
1.4132e-10
1.76157e-10
2.13308e-10
2.51966e-10
2.91027e-10
3.29162e-10
3.64907e-10
3.96766e-10
4.23322e-10
4.43337e-10
4.55852e-10
4.60253e-10
4.56322e-10
4.44253e-10
4.24634e-10
3.98406e-10
3.66792e-10
3.31199e-10
2.93123e-10
2.54029e-10
2.15257e-10
1.77922e-10
1.4285e-10
1.1052e-10
8.10502e-11
5.42023e-11
2.94192e-11
5.88655e-12
2.03972e-13
2.0122e-13
5.80843e-12
2.90437e-11
5.35301e-11
8.00812e-11
1.09261e-10
1.4132e-10
1.76157e-10
2.13308e-10
2.51966e-10
2.91027e-10
3.29162e-10
3.64907e-10
3.96766e-10
4.23322e-10
4.43337e-10
4.55852e-10
4.60253e-10
4.56322e-10
4.44253e-10
4.24634e-10
3.98406e-10
3.66792e-10
3.31199e-10
2.93123e-10
2.54029e-10
2.15257e-10
1.77922e-10
1.4285e-10
1.1052e-10
8.10502e-11
5.42023e-11
2.94192e-11
5.88655e-12
2.03972e-13
2.0122e-13
5.80843e-12
2.90437e-11
5.35301e-11
8.00812e-11
1.09261e-10
1.4132e-10
1.76157e-10
2.13308e-10
2.51966e-10
2.91027e-10
3.29162e-10
3.64907e-10
3.96766e-10
4.23322e-10
4.43337e-10
4.55852e-10
4.60253e-10
4.56322e-10
4.44253e-10
4.24634e-10
3.98406e-10
3.66792e-10
3.31199e-10
2.93123e-10
2.54029e-10
2.15257e-10
1.77922e-10
1.4285e-10
1.1052e-10
8.10502e-11
5.42023e-11
2.94192e-11
5.88655e-12
2.03972e-13
2.0122e-13
5.80843e-12
2.90437e-11
5.35301e-11
8.00812e-11
1.09261e-10
1.4132e-10
1.76157e-10
2.13308e-10
2.51966e-10
2.91027e-10
3.29162e-10
3.64907e-10
3.96766e-10
4.23322e-10
4.43337e-10
4.55852e-10
4.60253e-10
4.56322e-10
4.44253e-10
4.24634e-10
3.98406e-10
3.66792e-10
3.31199e-10
2.93123e-10
2.54029e-10
2.15257e-10
1.77922e-10
1.4285e-10
1.1052e-10
8.10502e-11
5.42023e-11
2.94192e-11
5.88655e-12
2.03972e-13
2.0122e-13
5.80843e-12
2.90437e-11
5.35301e-11
8.00812e-11
1.09261e-10
1.4132e-10
1.76157e-10
2.13308e-10
2.51966e-10
2.91027e-10
3.29162e-10
3.64907e-10
3.96766e-10
4.23322e-10
4.43337e-10
4.55852e-10
4.60253e-10
4.56322e-10
4.44253e-10
4.24634e-10
3.98406e-10
3.66792e-10
3.31199e-10
2.93123e-10
2.54029e-10
2.15257e-10
1.77922e-10
1.4285e-10
1.1052e-10
8.10502e-11
5.42023e-11
2.94192e-11
5.88655e-12
2.03972e-13
2.0122e-13
5.80843e-12
2.90437e-11
5.35301e-11
8.00812e-11
1.09261e-10
1.4132e-10
1.76157e-10
2.13308e-10
2.51966e-10
2.91027e-10
3.29162e-10
3.64907e-10
3.96766e-10
4.23322e-10
4.43337e-10
4.55852e-10
4.60253e-10
4.56322e-10
4.44253e-10
4.24634e-10
3.98406e-10
3.66792e-10
3.31199e-10
2.93123e-10
2.54029e-10
2.15257e-10
1.77922e-10
1.4285e-10
1.1052e-10
8.10502e-11
5.42023e-11
2.94192e-11
5.88655e-12
2.03972e-13
2.0122e-13
5.80843e-12
2.90437e-11
5.35301e-11
8.00812e-11
1.09261e-10
1.4132e-10
1.76157e-10
2.13308e-10
2.51966e-10
2.91027e-10
3.29162e-10
3.64907e-10
3.96766e-10
4.23322e-10
4.43337e-10
4.55852e-10
4.60253e-10
4.56322e-10
4.44253e-10
4.24634e-10
3.98406e-10
3.66792e-10
3.31199e-10
2.93123e-10
2.54029e-10
2.15257e-10
1.77922e-10
1.4285e-10
1.1052e-10
8.10502e-11
5.42023e-11
2.94192e-11
5.88655e-12
2.03972e-13
2.0122e-13
5.80843e-12
2.90437e-11
5.35301e-11
8.00812e-11
1.09261e-10
1.4132e-10
1.76157e-10
2.13308e-10
2.51966e-10
2.91027e-10
3.29162e-10
3.64907e-10
3.96766e-10
4.23322e-10
4.43337e-10
4.55852e-10
4.60253e-10
4.56322e-10
4.44253e-10
4.24634e-10
3.98406e-10
3.66792e-10
3.31199e-10
2.93123e-10
2.54029e-10
2.15257e-10
1.77922e-10
1.4285e-10
1.1052e-10
8.10502e-11
5.42023e-11
2.94192e-11
5.88655e-12
2.03972e-13
2.0122e-13
5.80843e-12
2.90437e-11
5.35301e-11
8.00812e-11
1.09261e-10
1.4132e-10
1.76157e-10
2.13308e-10
2.51966e-10
2.91027e-10
3.29162e-10
3.64907e-10
3.96766e-10
4.23322e-10
4.43337e-10
4.55852e-10
4.60253e-10
4.56322e-10
4.44253e-10
4.24634e-10
3.98406e-10
3.66792e-10
3.31199e-10
2.93123e-10
2.54029e-10
2.15257e-10
1.77922e-10
1.4285e-10
1.1052e-10
8.10502e-11
5.42023e-11
2.94192e-11
5.88655e-12
2.03972e-13
2.0122e-13
5.80843e-12
2.90437e-11
5.35301e-11
8.00812e-11
1.09261e-10
1.4132e-10
1.76157e-10
2.13308e-10
2.51966e-10
2.91027e-10
3.29162e-10
3.64907e-10
3.96766e-10
4.23322e-10
4.43337e-10
4.55852e-10
4.60253e-10
4.56322e-10
4.44253e-10
4.24634e-10
3.98406e-10
3.66792e-10
3.31199e-10
2.93123e-10
2.54029e-10
2.15257e-10
1.77922e-10
1.4285e-10
1.1052e-10
8.10502e-11
5.42023e-11
2.94192e-11
5.88655e-12
2.03972e-13
2.0122e-13
5.80843e-12
2.90437e-11
5.35301e-11
8.00812e-11
1.09261e-10
1.4132e-10
1.76157e-10
2.13308e-10
2.51966e-10
2.91027e-10
3.29162e-10
3.64907e-10
3.96766e-10
4.23322e-10
4.43337e-10
4.55852e-10
4.60253e-10
4.56322e-10
4.44253e-10
4.24634e-10
3.98406e-10
3.66792e-10
3.31199e-10
2.93123e-10
2.54029e-10
2.15257e-10
1.77922e-10
1.4285e-10
1.1052e-10
8.10502e-11
5.42023e-11
2.94192e-11
5.88655e-12
2.03972e-13
2.0122e-13
5.80843e-12
2.90437e-11
5.35301e-11
8.00812e-11
1.09261e-10
1.4132e-10
1.76157e-10
2.13308e-10
2.51966e-10
2.91027e-10
3.29162e-10
3.64907e-10
3.96766e-10
4.23322e-10
4.43337e-10
4.55852e-10
4.60253e-10
4.56322e-10
4.44253e-10
4.24634e-10
3.98406e-10
3.66792e-10
3.31199e-10
2.93123e-10
2.54029e-10
2.15257e-10
1.77922e-10
1.4285e-10
1.1052e-10
8.10502e-11
5.42023e-11
2.94192e-11
5.88655e-12
2.03972e-13
2.0122e-13
5.80843e-12
2.90437e-11
5.35301e-11
8.00812e-11
1.09261e-10
1.4132e-10
1.76157e-10
2.13308e-10
2.51966e-10
2.91027e-10
3.29162e-10
3.64907e-10
3.96766e-10
4.23322e-10
4.43337e-10
4.55852e-10
4.60253e-10
4.56322e-10
4.44253e-10
4.24634e-10
3.98406e-10
3.66792e-10
3.31199e-10
2.93123e-10
2.54029e-10
2.15257e-10
1.77922e-10
1.4285e-10
1.1052e-10
8.10502e-11
5.42023e-11
2.94192e-11
5.88655e-12
2.03972e-13
2.0122e-13
5.80843e-12
2.90437e-11
5.35301e-11
8.00812e-11
1.09261e-10
1.4132e-10
1.76157e-10
2.13308e-10
2.51966e-10
2.91027e-10
3.29162e-10
3.64907e-10
3.96766e-10
4.23322e-10
4.43337e-10
4.55852e-10
4.60253e-10
4.56322e-10
4.44253e-10
4.24634e-10
3.98406e-10
3.66792e-10
3.31199e-10
2.93123e-10
2.54029e-10
2.15257e-10
1.77922e-10
1.4285e-10
1.1052e-10
8.10502e-11
5.42023e-11
2.94192e-11
5.88655e-12
2.03972e-13
2.0122e-13
5.80843e-12
2.90437e-11
5.35301e-11
8.00812e-11
1.09261e-10
1.4132e-10
1.76157e-10
2.13308e-10
2.51966e-10
2.91027e-10
3.29162e-10
3.64907e-10
3.96766e-10
4.23322e-10
4.43337e-10
4.55852e-10
4.60253e-10
4.56322e-10
4.44253e-10
4.24634e-10
3.98406e-10
3.66792e-10
3.31199e-10
2.93123e-10
2.54029e-10
2.15257e-10
1.77922e-10
1.4285e-10
1.1052e-10
8.10502e-11
5.42023e-11
2.94192e-11
5.88655e-12
2.03972e-13
2.0122e-13
5.80843e-12
2.90437e-11
5.35301e-11
8.00812e-11
1.09261e-10
1.4132e-10
1.76157e-10
2.13308e-10
2.51966e-10
2.91027e-10
3.29162e-10
3.64907e-10
3.96766e-10
4.23322e-10
4.43337e-10
4.55852e-10
4.60253e-10
4.56322e-10
4.44253e-10
4.24634e-10
3.98406e-10
3.66792e-10
3.31199e-10
2.93123e-10
2.54029e-10
2.15257e-10
1.77922e-10
1.4285e-10
1.1052e-10
8.10502e-11
5.42023e-11
2.94192e-11
5.88655e-12
2.03972e-13
2.0122e-13
5.80843e-12
2.90437e-11
5.35301e-11
8.00812e-11
1.09261e-10
1.4132e-10
1.76157e-10
2.13308e-10
2.51966e-10
2.91027e-10
3.29162e-10
3.64907e-10
3.96766e-10
4.23322e-10
4.43337e-10
4.55852e-10
4.60253e-10
4.56322e-10
4.44253e-10
4.24634e-10
3.98406e-10
3.66792e-10
3.31199e-10
2.93123e-10
2.54029e-10
2.15257e-10
1.77922e-10
1.4285e-10
1.1052e-10
8.10502e-11
5.42023e-11
2.94192e-11
5.88655e-12
2.03972e-13
2.0122e-13
5.80843e-12
2.90437e-11
5.35301e-11
8.00812e-11
1.09261e-10
1.4132e-10
1.76157e-10
2.13308e-10
2.51966e-10
2.91027e-10
3.29162e-10
3.64907e-10
3.96766e-10
4.23322e-10
4.43337e-10
4.55852e-10
4.60253e-10
4.56322e-10
4.44253e-10
4.24634e-10
3.98406e-10
3.66792e-10
3.31199e-10
2.93123e-10
2.54029e-10
2.15257e-10
1.77922e-10
1.4285e-10
1.1052e-10
8.10502e-11
5.42023e-11
2.94192e-11
5.88655e-12
2.03972e-13
2.0122e-13
5.80843e-12
2.90437e-11
5.35301e-11
8.00812e-11
1.09261e-10
1.4132e-10
1.76157e-10
2.13308e-10
2.51966e-10
2.91027e-10
3.29162e-10
3.64907e-10
3.96766e-10
4.23322e-10
4.43337e-10
4.55852e-10
4.60253e-10
4.56322e-10
4.44253e-10
4.24634e-10
3.98406e-10
3.66792e-10
3.31199e-10
2.93123e-10
2.54029e-10
2.15257e-10
1.77922e-10
1.4285e-10
1.1052e-10
8.10502e-11
5.42023e-11
2.94192e-11
5.88655e-12
2.03972e-13
2.0122e-13
5.80843e-12
2.90437e-11
5.35301e-11
8.00812e-11
1.09261e-10
1.4132e-10
1.76157e-10
2.13308e-10
2.51966e-10
2.91027e-10
3.29162e-10
3.64907e-10
3.96766e-10
4.23322e-10
4.43337e-10
4.55852e-10
4.60253e-10
4.56322e-10
4.44253e-10
4.24634e-10
3.98406e-10
3.66792e-10
3.31199e-10
2.93123e-10
2.54029e-10
2.15257e-10
1.77922e-10
1.4285e-10
1.1052e-10
8.10502e-11
5.42023e-11
2.94192e-11
5.88655e-12
2.03972e-13
2.0122e-13
5.80843e-12
2.90437e-11
5.35301e-11
8.00812e-11
1.09261e-10
1.4132e-10
1.76157e-10
2.13308e-10
2.51966e-10
2.91027e-10
3.29162e-10
3.64907e-10
3.96766e-10
4.23322e-10
4.43337e-10
4.55852e-10
4.60253e-10
4.56322e-10
4.44253e-10
4.24634e-10
3.98406e-10
3.66792e-10
3.31199e-10
2.93123e-10
2.54029e-10
2.15257e-10
1.77922e-10
1.4285e-10
1.1052e-10
8.10502e-11
5.42023e-11
2.94192e-11
5.88655e-12
2.03972e-13
2.0122e-13
5.80843e-12
2.90437e-11
5.35301e-11
8.00812e-11
1.09261e-10
1.4132e-10
1.76157e-10
2.13308e-10
2.51966e-10
2.91027e-10
3.29162e-10
3.64907e-10
3.96766e-10
4.23322e-10
4.43337e-10
4.55852e-10
4.60253e-10
4.56322e-10