/*--------------------------------*- C++ -*----------------------------------*\
  =========                 |
  \\      /  F ield         | OpenFOAM: The Open Source CFD Toolbox
   \\    /   O peration     | Website:  https://openfoam.org
    \\  /    A nd           | Version:  13
     \\/     M anipulation  |
\*---------------------------------------------------------------------------*/
FoamFile
{
    format      ascii;
    class       volScalarField;
    location    "197.5";
    object      nut;
}
// * * * * * * * * * * * * * * * * * * * * * * * * * * * * * * * * * * * * * //

dimensions      [0 2 -1 0 0 0 0];

internalField   nonuniform List<scalar> 
315000
(
1.01614e-16
2.66225e-14
6.07764e-13
1.09154e-12
1.58419e-12
2.08718e-12
2.60218e-12
3.13072e-12
3.67394e-12
4.2325e-12
4.80652e-12
5.39559e-12
5.9987e-12
6.61433e-12
7.24042e-12
7.87443e-12
8.51335e-12
9.15381e-12
9.79207e-12
1.04241e-11
1.10457e-11
1.16524e-11
1.22398e-11
1.28033e-11
1.33386e-11
1.38412e-11
1.4307e-11
1.4732e-11
1.51127e-11
1.54456e-11
1.57279e-11
1.59571e-11
1.6131e-11
1.62482e-11
1.63076e-11
1.63087e-11
1.62514e-11
1.61362e-11
1.59643e-11
1.57371e-11
1.54566e-11
1.51255e-11
1.47464e-11
1.43229e-11
1.38584e-11
1.3357e-11
1.28228e-11
1.22601e-11
1.16733e-11
1.10671e-11
1.04458e-11
9.81387e-12
9.17554e-12
8.53484e-12
7.89551e-12
7.26095e-12
6.63416e-12
6.0177e-12
5.41363e-12
4.82351e-12
4.24832e-12
3.6885e-12
3.14393e-12
2.61394e-12
2.09737e-12
1.59267e-12
1.09806e-12
6.11947e-13
2.68395e-14
1.02518e-16
2.5463e-15
6.78365e-13
1.54588e-10
2.79846e-10
4.06909e-10
5.36453e-10
6.69057e-10
8.05186e-10
9.45173e-10
1.08921e-09
1.23734e-09
1.38945e-09
1.54531e-09
1.7045e-09
1.8665e-09
2.03065e-09
2.19616e-09
2.36214e-09
2.52763e-09
2.69157e-09
2.85286e-09
3.01033e-09
3.16283e-09
3.30918e-09
3.44821e-09
3.57878e-09
3.69981e-09
3.81026e-09
3.90918e-09
3.9957e-09
4.06907e-09
4.12862e-09
4.17382e-09
4.20426e-09
4.21967e-09
4.21991e-09
4.20497e-09
4.17499e-09
4.13023e-09
4.07112e-09
3.99817e-09
3.91203e-09
3.81347e-09
3.70335e-09
3.58262e-09
3.45231e-09
3.31351e-09
3.16734e-09
3.01498e-09
2.8576e-09
2.69637e-09
2.53244e-09
2.36693e-09
2.20088e-09
2.03527e-09
1.87098e-09
1.70881e-09
1.54942e-09
1.39333e-09
1.24096e-09
1.09256e-09
9.48219e-10
8.07908e-10
6.71432e-10
5.38455e-10
4.0851e-10
2.81011e-10
1.55272e-10
6.81559e-13
2.55861e-15
1.03079e-14
2.75016e-12
1.59817e-09
2.89684e-09
4.21669e-09
5.56608e-09
6.95229e-09
8.38132e-09
9.85766e-09
1.13841e-08
1.29619e-08
1.45901e-08
1.62664e-08
1.79864e-08
1.97443e-08
2.15324e-08
2.3342e-08
2.51627e-08
2.69834e-08
2.87918e-08
3.05751e-08
3.232e-08
3.40128e-08
3.56401e-08
3.71881e-08
3.86438e-08
3.99945e-08
4.12283e-08
4.23341e-08
4.33019e-08
4.4123e-08
4.47896e-08
4.52956e-08
4.56364e-08
4.58086e-08
4.58108e-08
4.56428e-08
4.53063e-08
4.48043e-08
4.41417e-08
4.33244e-08
4.23601e-08
4.12575e-08
4.00267e-08
3.86786e-08
3.72252e-08
3.56791e-08
3.40535e-08
3.23618e-08
3.06176e-08
2.88347e-08
2.70263e-08
2.52052e-08
2.33837e-08
2.15731e-08
1.97835e-08
1.80239e-08
1.63019e-08
1.46234e-08
1.29927e-08
1.14124e-08
9.8831e-09
8.40379e-09
6.97165e-09
5.58216e-09
4.22934e-09
2.90587e-09
1.60336e-09
2.75945e-12
1.03434e-14
1.97732e-14
5.27588e-12
3.06673e-09
5.56326e-09
8.10853e-09
1.07222e-08
1.34216e-08
1.62214e-08
1.91333e-08
2.2165e-08
2.53207e-08
2.86005e-08
3.20003e-08
3.55121e-08
3.91237e-08
4.28195e-08
4.65802e-08
5.03836e-08
5.42047e-08
5.80165e-08
6.17902e-08
6.54958e-08
6.91025e-08
7.25793e-08
7.58955e-08
7.9021e-08
8.1927e-08
8.4586e-08
8.69727e-08
8.90642e-08
9.08401e-08
9.22831e-08
9.3379e-08
9.41169e-08
9.44896e-08
9.44934e-08
9.41282e-08
9.33977e-08
9.2309e-08
9.08729e-08
8.91035e-08
8.70182e-08
8.46371e-08
8.19831e-08
7.90817e-08
7.59601e-08
7.26471e-08
6.91728e-08
6.55679e-08
6.18634e-08
5.80901e-08
5.4278e-08
5.04559e-08
4.6651e-08
4.28881e-08
3.91897e-08
3.55748e-08
3.20595e-08
2.86556e-08
2.53715e-08
2.22112e-08
1.91746e-08
1.62577e-08
1.34525e-08
1.07477e-08
8.12848e-09
5.5774e-09
3.07479e-09
5.29028e-12
1.98281e-14
3.11114e-14
8.30163e-12
4.82641e-09
8.7607e-09
1.27813e-08
1.69235e-08
2.12187e-08
2.5694e-08
3.0371e-08
3.52653e-08
4.03859e-08
4.5735e-08
5.13076e-08
5.70917e-08
6.30681e-08
6.92111e-08
7.54887e-08
8.18633e-08
8.82924e-08
9.47296e-08
1.01125e-07
1.07427e-07
1.1358e-07
1.1953e-07
1.25222e-07
1.30601e-07
1.35614e-07
1.4021e-07
1.44343e-07
1.4797e-07
1.51054e-07
1.53561e-07
1.55467e-07
1.56751e-07
1.57399e-07
1.57404e-07
1.56767e-07
1.55494e-07
1.53598e-07
1.511e-07
1.48025e-07
1.44407e-07
1.40282e-07
1.35693e-07
1.30686e-07
1.25313e-07
1.19626e-07
1.13679e-07
1.07527e-07
1.01227e-07
9.48321e-08
8.83944e-08
8.19637e-08
7.55868e-08
6.9306e-08
6.3159e-08
5.7178e-08
5.13887e-08
4.58103e-08
4.0455e-08
3.53279e-08
3.04268e-08
2.57428e-08
2.12603e-08
1.69577e-08
1.28079e-08
8.77945e-09
4.83707e-09
8.32068e-12
3.1184e-14
4.38275e-14
1.16953e-11
6.80008e-09
1.23476e-08
1.8025e-08
2.38858e-08
2.9978e-08
3.63431e-08
4.30144e-08
5.00167e-08
5.73651e-08
6.50643e-08
7.31086e-08
8.14816e-08
9.01566e-08
9.90966e-08
1.08255e-07
1.17578e-07
1.27003e-07
1.36462e-07
1.45882e-07
1.55185e-07
1.64291e-07
1.73114e-07
1.81572e-07
1.89577e-07
1.9705e-07
2.03911e-07
2.10089e-07
2.15515e-07
2.20132e-07
2.2389e-07
2.26746e-07
2.28671e-07
2.29641e-07
2.29648e-07
2.28691e-07
2.26779e-07
2.23935e-07
2.2019e-07
2.15584e-07
2.10168e-07
2.04001e-07
1.97148e-07
1.89683e-07
1.81684e-07
1.73232e-07
1.64413e-07
1.5531e-07
1.46008e-07
1.36589e-07
1.27129e-07
1.17702e-07
1.08376e-07
9.92135e-08
9.02685e-08
8.15877e-08
7.32081e-08
6.51567e-08
5.74498e-08
5.00933e-08
4.30825e-08
3.64025e-08
3.00285e-08
2.39272e-08
1.80571e-08
1.23702e-08
6.81291e-09
1.17183e-11
4.39152e-14
5.71454e-14
1.52498e-11
8.86701e-09
1.61035e-08
2.35153e-08
3.1175e-08
3.91478e-08
4.74901e-08
5.62478e-08
6.54547e-08
7.51319e-08
8.52867e-08
9.59121e-08
1.06987e-07
1.18476e-07
1.30331e-07
1.4249e-07
1.5488e-07
1.67418e-07
1.80016e-07
1.92574e-07
2.04991e-07
2.17155e-07
2.28955e-07
2.40273e-07
2.50996e-07
2.61011e-07
2.70211e-07
2.78498e-07
2.85781e-07
2.9198e-07
2.97025e-07
3.00861e-07
3.03445e-07
3.04748e-07
3.04756e-07
3.03468e-07
3.00899e-07
2.97077e-07
2.92046e-07
2.8586e-07
2.7859e-07
2.70314e-07
2.61123e-07
2.51117e-07
2.40402e-07
2.29089e-07
2.17295e-07
2.05133e-07
1.92719e-07
1.80161e-07
1.67562e-07
1.55021e-07
1.42628e-07
1.30465e-07
1.18604e-07
1.07108e-07
9.60259e-08
8.53922e-08
7.52286e-08
6.5542e-08
5.63254e-08
4.75577e-08
3.92051e-08
3.12219e-08
2.35516e-08
1.6129e-08
8.88149e-09
1.52757e-11
5.72446e-14
7.02968e-14
1.87599e-11
1.09079e-08
1.98114e-08
2.89343e-08
3.83676e-08
4.81935e-08
5.84829e-08
6.92932e-08
8.06672e-08
9.26313e-08
1.05195e-07
1.18349e-07
1.32067e-07
1.46306e-07
1.61004e-07
1.76084e-07
1.91456e-07
2.07016e-07
2.22653e-07
2.38247e-07
2.53668e-07
2.6878e-07
2.83441e-07
2.97507e-07
3.10834e-07
3.23282e-07
3.34718e-07
3.45018e-07
3.5407e-07
3.61774e-07
3.68045e-07
3.72812e-07
3.76023e-07
3.77641e-07
3.7765e-07
3.76047e-07
3.72853e-07
3.68101e-07
3.61846e-07
3.54156e-07
3.45117e-07
3.34829e-07
3.23404e-07
3.10965e-07
2.97647e-07
2.83588e-07
2.68931e-07
2.53823e-07
2.38404e-07
2.22811e-07
2.07172e-07
1.9161e-07
1.76234e-07
1.61149e-07
1.46445e-07
1.32199e-07
1.18473e-07
1.0531e-07
9.27365e-08
8.07622e-08
6.93775e-08
5.85562e-08
4.82557e-08
3.84184e-08
2.89735e-08
1.9839e-08
1.09235e-08
1.87879e-11
7.0404e-14
8.26562e-14
2.20588e-11
1.28258e-08
2.32951e-08
3.40244e-08
4.51222e-08
5.6686e-08
6.88001e-08
8.15327e-08
9.49343e-08
1.09036e-07
1.23848e-07
1.39361e-07
1.55541e-07
1.72337e-07
1.89675e-07
2.07464e-07
2.25595e-07
2.43947e-07
2.62388e-07
2.80775e-07
2.98956e-07
3.16771e-07
3.34052e-07
3.50628e-07
3.6633e-07
3.80994e-07
3.94463e-07
4.06592e-07
4.17248e-07
4.26316e-07
4.33696e-07
4.39305e-07
4.43082e-07
4.44986e-07
4.44995e-07
4.43108e-07
4.39348e-07
4.33755e-07
4.26391e-07
4.17338e-07
4.06695e-07
3.94579e-07
3.81121e-07
3.66468e-07
3.50774e-07
3.34205e-07
3.1693e-07
2.99118e-07
2.80939e-07
2.62553e-07
2.44111e-07
2.25757e-07
2.07622e-07
1.89828e-07
1.72484e-07
1.5568e-07
1.39491e-07
1.23969e-07
1.09147e-07
9.50341e-08
8.16212e-08
6.8877e-08
5.67511e-08
4.51753e-08
3.40654e-08
2.33238e-08
1.28421e-08
2.20881e-11
8.27683e-14
9.37788e-14
2.50278e-11
1.45517e-08
2.64296e-08
3.86037e-08
5.11978e-08
6.43233e-08
7.80763e-08
9.25345e-08
1.07755e-07
1.23773e-07
1.406e-07
1.58223e-07
1.76605e-07
1.95684e-07
2.15377e-07
2.35578e-07
2.56163e-07
2.76994e-07
2.9792e-07
3.18779e-07
3.39401e-07
3.59601e-07
3.7919e-07
3.97975e-07
4.15764e-07
4.32372e-07
4.47622e-07
4.61352e-07
4.73412e-07
4.83672e-07
4.9202e-07
4.98364e-07
5.02636e-07
5.04788e-07
5.04796e-07
5.02662e-07
4.98408e-07
4.9208e-07
4.83749e-07
4.73504e-07
4.61458e-07
4.47741e-07
4.32503e-07
4.15905e-07
3.98125e-07
3.79347e-07
3.59763e-07
3.39567e-07
3.18948e-07
2.98089e-07
2.77162e-07
2.56329e-07
2.3574e-07
2.15534e-07
1.95834e-07
1.76747e-07
1.58357e-07
1.40724e-07
1.23887e-07
1.07857e-07
9.26252e-08
7.81551e-08
6.43899e-08
5.1252e-08
3.86455e-08
2.64589e-08
1.45683e-08
2.50576e-11
9.38933e-14
1.034e-13
2.75961e-11
1.60447e-08
2.91408e-08
4.2564e-08
5.64516e-08
7.0927e-08
8.60962e-08
1.02045e-07
1.18836e-07
1.36508e-07
1.55073e-07
1.74515e-07
1.94793e-07
2.15839e-07
2.37557e-07
2.5983e-07
2.82521e-07
3.05477e-07
3.28531e-07
3.51506e-07
3.74211e-07
3.96446e-07
4.18002e-07
4.38667e-07
4.58231e-07
4.7649e-07
4.93253e-07
5.0834e-07
5.21589e-07
5.32859e-07
5.42026e-07
5.48992e-07
5.53681e-07
5.56043e-07
5.56052e-07
5.53708e-07
5.49036e-07
5.42087e-07
5.32936e-07
5.21682e-07
5.08447e-07
4.93373e-07
4.76622e-07
4.58373e-07
4.38818e-07
4.1816e-07
3.96609e-07
3.74378e-07
3.51676e-07
3.28702e-07
3.05647e-07
2.82689e-07
2.59994e-07
2.37715e-07
2.15991e-07
1.94938e-07
1.7465e-07
1.55198e-07
1.36623e-07
1.18939e-07
1.02136e-07
8.61755e-08
7.09939e-08
5.6506e-08
4.26059e-08
2.91701e-08
1.60612e-08
2.7626e-11
1.03515e-13
1.11416e-13
2.97363e-11
1.72887e-08
3.13998e-08
4.58637e-08
6.0829e-08
7.64289e-08
9.27779e-08
1.09968e-07
1.28068e-07
1.47117e-07
1.67129e-07
1.88085e-07
2.09941e-07
2.32621e-07
2.56021e-07
2.80016e-07
3.04455e-07
3.29172e-07
3.53989e-07
3.78714e-07
4.03142e-07
4.27058e-07
4.50238e-07
4.72454e-07
4.9348e-07
5.131e-07
5.31107e-07
5.47311e-07
5.61538e-07
5.73637e-07
5.83477e-07
5.90954e-07
5.95986e-07
5.98521e-07
5.9853e-07
5.96013e-07
5.90998e-07
5.83538e-07
5.73714e-07
5.6163e-07
5.47417e-07
5.31227e-07
5.13231e-07
4.93622e-07
4.72604e-07
4.50395e-07
4.27221e-07
4.03309e-07
3.78883e-07
3.54159e-07
3.29342e-07
3.04622e-07
2.80179e-07
2.5618e-07
2.32772e-07
2.10085e-07
1.8822e-07
1.67254e-07
1.47231e-07
1.28171e-07
1.10059e-07
9.28568e-08
7.64954e-08
6.0883e-08
4.59052e-08
3.14288e-08
1.73051e-08
2.9766e-11
1.1153e-13
1.17859e-13
3.14567e-11
1.82887e-08
3.32156e-08
4.85162e-08
6.43478e-08
8.08519e-08
9.81495e-08
1.16339e-07
1.3549e-07
1.55648e-07
1.76823e-07
1.98997e-07
2.22122e-07
2.46115e-07
2.70869e-07
2.96245e-07
3.22087e-07
3.48219e-07
3.74449e-07
4.00577e-07
4.26385e-07
4.51647e-07
4.76126e-07
4.99582e-07
5.21778e-07
5.42485e-07
5.61486e-07
5.78581e-07
5.93589e-07
6.0635e-07
6.16727e-07
6.24611e-07
6.29917e-07
6.32588e-07
6.32597e-07
6.29943e-07
6.24654e-07
6.16787e-07
6.06426e-07
5.9368e-07
5.78687e-07
5.61605e-07
5.42615e-07
5.21919e-07
4.99731e-07
4.76283e-07
4.51809e-07
4.26551e-07
4.00745e-07
3.74618e-07
3.48387e-07
3.22253e-07
2.96407e-07
2.71026e-07
2.46266e-07
2.22265e-07
1.99131e-07
1.76947e-07
1.55761e-07
1.35592e-07
1.16429e-07
9.82275e-08
8.09175e-08
6.44011e-08
4.8557e-08
3.32442e-08
1.83048e-08
3.14858e-11
1.17971e-13
1.22859e-13
3.2792e-11
1.9065e-08
3.46252e-08
5.05752e-08
6.70797e-08
8.42861e-08
1.02321e-07
1.21286e-07
1.41256e-07
1.62275e-07
1.84355e-07
2.07477e-07
2.31588e-07
2.56604e-07
2.82409e-07
3.08861e-07
3.35793e-07
3.63023e-07
3.90352e-07
4.17569e-07
4.4445e-07
4.70756e-07
4.96244e-07
5.20662e-07
5.43764e-07
5.65314e-07
5.85085e-07
6.02871e-07
6.18483e-07
6.31756e-07
6.42549e-07
6.50748e-07
6.56266e-07
6.59044e-07
6.59053e-07
6.56292e-07
6.50791e-07
6.42609e-07
6.31831e-07
6.18573e-07
6.02975e-07
5.85202e-07
5.65442e-07
5.43903e-07
5.20809e-07
4.96398e-07
4.70917e-07
4.44614e-07
4.17736e-07
3.9052e-07
3.6319e-07
3.35957e-07
3.09021e-07
2.82564e-07
2.56753e-07
2.3173e-07
2.0761e-07
1.84478e-07
1.62387e-07
1.41357e-07
1.21375e-07
1.02398e-07
8.43508e-08
6.71321e-08
5.06154e-08
3.46532e-08
1.90808e-08
3.28207e-11
1.2297e-13
1.2661e-13
3.37938e-11
1.96474e-08
3.56829e-08
5.21204e-08
6.913e-08
8.6864e-08
1.05453e-07
1.25002e-07
1.45587e-07
1.67254e-07
1.90015e-07
2.13851e-07
2.38705e-07
2.6449e-07
2.91087e-07
3.18348e-07
3.46103e-07
3.7416e-07
4.02316e-07
4.30353e-07
4.5804e-07
4.85133e-07
5.11379e-07
5.36521e-07
5.60306e-07
5.82489e-07
6.0284e-07
6.21145e-07
6.37212e-07
6.5087e-07
6.61976e-07
6.70412e-07
6.76089e-07
6.78946e-07
6.78955e-07
6.76114e-07
6.70454e-07
6.62035e-07
6.50944e-07
6.37301e-07
6.21248e-07
6.02955e-07
5.82616e-07
5.60443e-07
5.36667e-07
5.11532e-07
4.85292e-07
4.58203e-07
4.30518e-07
4.02481e-07
3.74324e-07
3.46265e-07
3.18507e-07
2.91241e-07
2.64637e-07
2.38844e-07
2.13981e-07
1.90137e-07
1.67364e-07
1.45686e-07
1.25089e-07
1.05529e-07
8.69277e-08
6.91817e-08
5.216e-08
3.57104e-08
1.96629e-08
3.3822e-11
1.26719e-13
1.29332e-13
3.4521e-11
2.00702e-08
3.64508e-08
5.32424e-08
7.0619e-08
8.87364e-08
1.07728e-07
1.27702e-07
1.48735e-07
1.70874e-07
1.94132e-07
2.18487e-07
2.43883e-07
2.7023e-07
2.97405e-07
3.25258e-07
3.53612e-07
3.82273e-07
4.11033e-07
4.39669e-07
4.67945e-07
4.95612e-07
5.22412e-07
5.48082e-07
5.72365e-07
5.95011e-07
6.15785e-07
6.34469e-07
6.50867e-07
6.64807e-07
6.76141e-07
6.8475e-07
6.90543e-07
6.93459e-07
6.93468e-07
6.90568e-07
6.84792e-07
6.76199e-07
6.64881e-07
6.50956e-07
6.34571e-07
6.15899e-07
5.95136e-07
5.725e-07
5.48226e-07
5.22563e-07
4.95769e-07
4.68106e-07
4.39832e-07
4.11196e-07
3.82436e-07
3.53772e-07
3.25415e-07
2.97557e-07
2.70376e-07
2.44022e-07
2.18617e-07
1.94252e-07
1.70983e-07
1.48833e-07
1.27788e-07
1.07803e-07
8.87994e-08
7.06699e-08
5.32814e-08
3.64779e-08
2.00855e-08
3.45488e-11
1.29439e-13
1.31245e-13
3.50321e-11
2.03674e-08
3.69906e-08
5.40312e-08
7.16661e-08
9.00536e-08
1.09329e-07
1.29602e-07
1.50951e-07
1.73424e-07
1.97033e-07
2.21755e-07
2.47535e-07
2.74279e-07
3.01863e-07
3.30133e-07
3.58912e-07
3.88001e-07
4.17189e-07
4.46249e-07
4.74942e-07
5.03016e-07
5.30208e-07
5.56253e-07
5.80889e-07
6.03863e-07
6.24936e-07
6.4389e-07
6.60523e-07
6.74662e-07
6.86158e-07
6.9489e-07
7.00765e-07
7.03723e-07
7.03731e-07
7.0079e-07
6.94931e-07
6.86216e-07
6.74735e-07
6.60611e-07
6.4399e-07
6.2505e-07
6.03987e-07
5.81023e-07
5.56396e-07
5.30358e-07
5.03171e-07
4.75101e-07
4.4641e-07
4.17351e-07
3.88162e-07
3.59071e-07
3.30289e-07
3.02014e-07
2.74423e-07
2.47672e-07
2.21884e-07
1.97151e-07
1.73532e-07
1.51049e-07
1.29688e-07
1.09403e-07
9.01159e-08
7.17165e-08
5.40698e-08
3.70174e-08
2.03825e-08
3.50596e-11
1.31351e-13
1.32548e-13
3.53803e-11
2.057e-08
3.73584e-08
5.45689e-08
7.238e-08
9.09517e-08
1.10421e-07
1.30899e-07
1.52464e-07
1.75165e-07
1.99014e-07
2.23989e-07
2.50031e-07
2.77047e-07
3.04912e-07
3.3347e-07
3.6254e-07
3.91923e-07
4.21405e-07
4.50757e-07
4.79737e-07
5.08091e-07
5.35553e-07
5.61856e-07
5.86734e-07
6.09934e-07
6.31214e-07
6.50353e-07
6.67148e-07
6.81425e-07
6.93032e-07
7.01848e-07
7.0778e-07
7.10766e-07
7.10775e-07
7.07805e-07
7.0189e-07
6.93089e-07
6.81497e-07
6.67235e-07
6.50453e-07
6.31327e-07
6.10058e-07
5.86868e-07
5.61998e-07
5.35702e-07
5.08245e-07
4.79896e-07
4.50917e-07
4.21566e-07
3.92084e-07
3.62698e-07
3.33625e-07
3.05062e-07
2.77191e-07
2.50167e-07
2.24116e-07
1.99132e-07
1.75273e-07
1.52561e-07
1.30984e-07
1.10495e-07
9.10136e-08
7.24299e-08
5.46071e-08
3.7385e-08
2.05849e-08
3.54076e-11
1.32653e-13
1.33408e-13
3.56104e-11
2.07038e-08
3.76016e-08
5.49243e-08
7.2852e-08
9.15459e-08
1.11144e-07
1.31757e-07
1.53466e-07
1.76319e-07
2.00327e-07
2.25469e-07
2.51687e-07
2.78885e-07
3.06937e-07
3.35686e-07
3.64951e-07
3.9453e-07
4.24208e-07
4.53755e-07
4.82927e-07
5.11468e-07
5.39111e-07
5.65586e-07
5.90627e-07
6.13978e-07
6.35396e-07
6.54658e-07
6.71563e-07
6.85931e-07
6.97613e-07
7.06485e-07
7.12455e-07
7.1546e-07
7.15469e-07
7.1248e-07
7.06527e-07
6.9767e-07
6.86003e-07
6.71649e-07
6.54758e-07
6.35508e-07
6.14101e-07
5.9076e-07
5.65727e-07
5.39259e-07
5.11622e-07
4.83085e-07
4.53915e-07
4.24369e-07
3.9469e-07
3.65109e-07
3.3584e-07
3.07086e-07
2.79028e-07
2.51822e-07
2.25597e-07
2.00445e-07
1.76426e-07
1.53563e-07
1.31842e-07
1.11217e-07
9.16074e-08
7.29017e-08
5.49623e-08
3.7628e-08
2.07187e-08
3.56375e-11
1.33513e-13
1.33961e-13
3.5758e-11
2.07897e-08
3.77577e-08
5.51525e-08
7.31552e-08
9.19275e-08
1.11608e-07
1.32309e-07
1.54111e-07
1.77061e-07
2.01173e-07
2.26423e-07
2.52753e-07
2.80069e-07
3.08243e-07
3.37116e-07
3.66507e-07
3.96213e-07
4.26019e-07
4.55692e-07
4.84989e-07
5.13651e-07
5.41411e-07
5.67998e-07
5.93145e-07
6.16594e-07
6.38103e-07
6.57445e-07
6.7442e-07
6.88848e-07
7.00579e-07
7.09488e-07
7.15483e-07
7.185e-07
7.18509e-07
7.15508e-07
7.09529e-07
7.00636e-07
6.8892e-07
6.74506e-07
6.57545e-07
6.38215e-07
6.16717e-07
5.93278e-07
5.6814e-07
5.41559e-07
5.13805e-07
4.85146e-07
4.55851e-07
4.26179e-07
3.96373e-07
3.66664e-07
3.3727e-07
3.08391e-07
2.80212e-07
2.52889e-07
2.2655e-07
2.0129e-07
1.77168e-07
1.54207e-07
1.32394e-07
1.11681e-07
9.19888e-08
7.32047e-08
5.51904e-08
3.7784e-08
2.08045e-08
3.5785e-11
1.34065e-13
1.34305e-13
3.58501e-11
2.08433e-08
3.7855e-08
5.52949e-08
7.33443e-08
9.21657e-08
1.11898e-07
1.32654e-07
1.54513e-07
1.77525e-07
2.01701e-07
2.2702e-07
2.53422e-07
2.80811e-07
3.09061e-07
3.38012e-07
3.67483e-07
3.9727e-07
4.27155e-07
4.56909e-07
4.86284e-07
5.15023e-07
5.42858e-07
5.69515e-07
5.94729e-07
6.1824e-07
6.39806e-07
6.59199e-07
6.76219e-07
6.90685e-07
7.02446e-07
7.11379e-07
7.17389e-07
7.20415e-07
7.20423e-07
7.17414e-07
7.1142e-07
7.02503e-07
6.90757e-07
6.76305e-07
6.59299e-07
6.39917e-07
6.18363e-07
5.94862e-07
5.69656e-07
5.43005e-07
5.15176e-07
4.86441e-07
4.57068e-07
4.27315e-07
3.97429e-07
3.6764e-07
3.38166e-07
3.09209e-07
2.80954e-07
2.53557e-07
2.27147e-07
2.01818e-07
1.77632e-07
1.54609e-07
1.32738e-07
1.11971e-07
9.22269e-08
7.33937e-08
5.53326e-08
3.78812e-08
2.0858e-08
3.5877e-11
1.34409e-13
1.34513e-13
3.59058e-11
2.08757e-08
3.7914e-08
5.53812e-08
7.3459e-08
9.23103e-08
1.12074e-07
1.32863e-07
1.54758e-07
1.77807e-07
2.02023e-07
2.27383e-07
2.53828e-07
2.81263e-07
3.0956e-07
3.38559e-07
3.68079e-07
3.97915e-07
4.2785e-07
4.57652e-07
4.87076e-07
5.15862e-07
5.43742e-07
5.70444e-07
5.95699e-07
6.19248e-07
6.40848e-07
6.60273e-07
6.7732e-07
6.9181e-07
7.0359e-07
7.12537e-07
7.18557e-07
7.21587e-07
7.21596e-07
7.18582e-07
7.12578e-07
7.03647e-07
6.91882e-07
6.77406e-07
6.60373e-07
6.4096e-07
6.19371e-07
5.95831e-07
5.70584e-07
5.4389e-07
5.16015e-07
4.87233e-07
4.57811e-07
4.28009e-07
3.98073e-07
3.68235e-07
3.38713e-07
3.09708e-07
2.81406e-07
2.53963e-07
2.2751e-07
2.0214e-07
1.77914e-07
1.54854e-07
1.32948e-07
1.12147e-07
9.23714e-08
7.35084e-08
5.54189e-08
3.79402e-08
2.08905e-08
3.59327e-11
1.34617e-13
1.34636e-13
3.59388e-11
2.08949e-08
3.79488e-08
5.54322e-08
7.35268e-08
9.23957e-08
1.12178e-07
1.32987e-07
1.54903e-07
1.77974e-07
2.02214e-07
2.27599e-07
2.5407e-07
2.81531e-07
3.09856e-07
3.38884e-07
3.68432e-07
3.98298e-07
4.28262e-07
4.58094e-07
4.87547e-07
5.16362e-07
5.44269e-07
5.70996e-07
5.96276e-07
6.19848e-07
6.4147e-07
6.60914e-07
6.77977e-07
6.92481e-07
7.04272e-07
7.13228e-07
7.19254e-07
7.22287e-07
7.22295e-07
7.19279e-07
7.13269e-07
7.04329e-07
6.92552e-07
6.78063e-07
6.61013e-07
6.41581e-07
6.19971e-07
5.96408e-07
5.71137e-07
5.44416e-07
5.16514e-07
4.87704e-07
4.58253e-07
4.28422e-07
3.98457e-07
3.68589e-07
3.39037e-07
3.10004e-07
2.81674e-07
2.54204e-07
2.27725e-07
2.02331e-07
1.78081e-07
1.54999e-07
1.33071e-07
1.12251e-07
9.24568e-08
7.35761e-08
5.54698e-08
3.7975e-08
2.09096e-08
3.59656e-11
1.3474e-13
1.34707e-13
3.59577e-11
2.09059e-08
3.79689e-08
5.54615e-08
7.35658e-08
9.24448e-08
1.12238e-07
1.33058e-07
1.54986e-07
1.7807e-07
2.02324e-07
2.27723e-07
2.54209e-07
2.81686e-07
3.10027e-07
3.39072e-07
3.68637e-07
3.9852e-07
4.28501e-07
4.5835e-07
4.8782e-07
5.16651e-07
5.44574e-07
5.71317e-07
5.96611e-07
6.20197e-07
6.4183e-07
6.61286e-07
6.78359e-07
6.9287e-07
7.04669e-07
7.13629e-07
7.19659e-07
7.22693e-07
7.22701e-07
7.19683e-07
7.1367e-07
7.04725e-07
6.92942e-07
6.78444e-07
6.61385e-07
6.41942e-07
6.2032e-07
5.96743e-07
5.71458e-07
5.44722e-07
5.16804e-07
4.87976e-07
4.58509e-07
4.28661e-07
3.98678e-07
3.68794e-07
3.39225e-07
3.10175e-07
2.81828e-07
2.54344e-07
2.27849e-07
2.0244e-07
1.78177e-07
1.55082e-07
1.33143e-07
1.12311e-07
9.25059e-08
7.36151e-08
5.54991e-08
3.7995e-08
2.09206e-08
3.59845e-11
1.34811e-13
1.34746e-13
3.59682e-11
2.09121e-08
3.79801e-08
5.54779e-08
7.35876e-08
9.24724e-08
1.12272e-07
1.33098e-07
1.55033e-07
1.78124e-07
2.02385e-07
2.27793e-07
2.54287e-07
2.81774e-07
3.10123e-07
3.39177e-07
3.68752e-07
3.98645e-07
4.28636e-07
4.58495e-07
4.87974e-07
5.16815e-07
5.44747e-07
5.71498e-07
5.96801e-07
6.20394e-07
6.42034e-07
6.61496e-07
6.78575e-07
6.93091e-07
7.04893e-07
7.13857e-07
7.19888e-07
7.22923e-07
7.22932e-07
7.19912e-07
7.13897e-07
7.04949e-07
6.93163e-07
6.7866e-07
6.61595e-07
6.42146e-07
6.20517e-07
5.96933e-07
5.71639e-07
5.44894e-07
5.16967e-07
4.88131e-07
4.58653e-07
4.28796e-07
3.98803e-07
3.68909e-07
3.39331e-07
3.10271e-07
2.81916e-07
2.54422e-07
2.27919e-07
2.02502e-07
1.78231e-07
1.55129e-07
1.33183e-07
1.12345e-07
9.25334e-08
7.36369e-08
5.55155e-08
3.80062e-08
2.09268e-08
3.59951e-11
1.3485e-13
1.34768e-13
3.5974e-11
2.09154e-08
3.79862e-08
5.54868e-08
7.35995e-08
9.24874e-08
1.1229e-07
1.3312e-07
1.55059e-07
1.78154e-07
2.02419e-07
2.27831e-07
2.5433e-07
2.81821e-07
3.10176e-07
3.39236e-07
3.68816e-07
3.98714e-07
4.28711e-07
4.58574e-07
4.88059e-07
5.16905e-07
5.44842e-07
5.71598e-07
5.96905e-07
6.20503e-07
6.42147e-07
6.61612e-07
6.78694e-07
6.93213e-07
7.05017e-07
7.13982e-07
7.20014e-07
7.23051e-07
7.23059e-07
7.20039e-07
7.14023e-07
7.05073e-07
6.93284e-07
6.7878e-07
6.61711e-07
6.42259e-07
6.20625e-07
5.97037e-07
5.71739e-07
5.44989e-07
5.17057e-07
4.88216e-07
4.58733e-07
4.2887e-07
3.98872e-07
3.68972e-07
3.39389e-07
3.10324e-07
2.81964e-07
2.54465e-07
2.27957e-07
2.02536e-07
1.78261e-07
1.55154e-07
1.33204e-07
1.12363e-07
9.25484e-08
7.36488e-08
5.55245e-08
3.80123e-08
2.09301e-08
3.60009e-11
1.34872e-13
1.34779e-13
3.59771e-11
2.09172e-08
3.79894e-08
5.54916e-08
7.36059e-08
9.24954e-08
1.123e-07
1.33132e-07
1.55072e-07
1.7817e-07
2.02437e-07
2.27851e-07
2.54353e-07
2.81847e-07
3.10205e-07
3.39267e-07
3.6885e-07
3.98751e-07
4.2875e-07
4.58617e-07
4.88105e-07
5.16953e-07
5.44893e-07
5.71652e-07
5.96961e-07
6.20561e-07
6.42208e-07
6.61675e-07
6.78758e-07
6.93278e-07
7.05084e-07
7.1405e-07
7.20083e-07
7.23119e-07
7.23127e-07
7.20107e-07
7.1409e-07
7.0514e-07
6.9335e-07
6.78844e-07
6.61774e-07
6.42319e-07
6.20684e-07
5.97094e-07
5.71793e-07
5.45041e-07
5.17106e-07
4.88261e-07
4.58776e-07
4.2891e-07
3.98909e-07
3.69006e-07
3.3942e-07
3.10353e-07
2.81989e-07
2.54488e-07
2.27978e-07
2.02554e-07
1.78276e-07
1.55168e-07
1.33216e-07
1.12373e-07
9.25565e-08
7.36552e-08
5.55292e-08
3.80156e-08
2.09319e-08
3.60039e-11
1.34883e-13
1.34785e-13
3.59787e-11
2.09181e-08
3.79911e-08
5.54941e-08
7.36092e-08
9.24996e-08
1.12305e-07
1.33138e-07
1.55079e-07
1.78178e-07
2.02447e-07
2.27862e-07
2.54365e-07
2.8186e-07
3.10219e-07
3.39283e-07
3.68868e-07
3.9877e-07
4.28771e-07
4.5864e-07
4.88129e-07
5.16979e-07
5.4492e-07
5.7168e-07
5.96991e-07
6.20592e-07
6.4224e-07
6.61708e-07
6.78792e-07
6.93313e-07
7.05119e-07
7.14085e-07
7.20118e-07
7.23155e-07
7.23163e-07
7.20143e-07
7.14126e-07
7.05175e-07
6.93384e-07
6.78878e-07
6.61807e-07
6.42351e-07
6.20715e-07
5.97123e-07
5.71821e-07
5.45067e-07
5.17131e-07
4.88285e-07
4.58798e-07
4.28931e-07
3.98929e-07
3.69024e-07
3.39436e-07
3.10368e-07
2.82003e-07
2.545e-07
2.27988e-07
2.02563e-07
1.78285e-07
1.55175e-07
1.33222e-07
1.12378e-07
9.25606e-08
7.36585e-08
5.55317e-08
3.80173e-08
2.09328e-08
3.60055e-11
1.34889e-13
1.34788e-13
3.59795e-11
2.09186e-08
3.7992e-08
5.54953e-08
7.36109e-08
9.25017e-08
1.12308e-07
1.33141e-07
1.55083e-07
1.78182e-07
2.02451e-07
2.27868e-07
2.54371e-07
2.81867e-07
3.10227e-07
3.39291e-07
3.68877e-07
3.9878e-07
4.28782e-07
4.58651e-07
4.88141e-07
5.16992e-07
5.44934e-07
5.71695e-07
5.97006e-07
6.20608e-07
6.42256e-07
6.61724e-07
6.78809e-07
6.93331e-07
7.05137e-07
7.14104e-07
7.20137e-07
7.23174e-07
7.23182e-07
7.20162e-07
7.14144e-07
7.05193e-07
6.93402e-07
6.78895e-07
6.61824e-07
6.42368e-07
6.20731e-07
5.97138e-07
5.71835e-07
5.45081e-07
5.17144e-07
4.88297e-07
4.5881e-07
4.28941e-07
3.98938e-07
3.69033e-07
3.39444e-07
3.10375e-07
2.82009e-07
2.54506e-07
2.27994e-07
2.02568e-07
1.78289e-07
1.55179e-07
1.33225e-07
1.1238e-07
9.25627e-08
7.36601e-08
5.5533e-08
3.80181e-08
2.09333e-08
3.60063e-11
1.34892e-13
1.3479e-13
3.59799e-11
2.09188e-08
3.79924e-08
5.5496e-08
7.36117e-08
9.25028e-08
1.12309e-07
1.33142e-07
1.55085e-07
1.78184e-07
2.02454e-07
2.2787e-07
2.54374e-07
2.81871e-07
3.10231e-07
3.39296e-07
3.68881e-07
3.98785e-07
4.28787e-07
4.58657e-07
4.88147e-07
5.16998e-07
5.44941e-07
5.71702e-07
5.97014e-07
6.20616e-07
6.42264e-07
6.61733e-07
6.78818e-07
6.9334e-07
7.05146e-07
7.14113e-07
7.20146e-07
7.23183e-07
7.23191e-07
7.20171e-07
7.14154e-07
7.05202e-07
6.93411e-07
6.78904e-07
6.61832e-07
6.42376e-07
6.20738e-07
5.97146e-07
5.71843e-07
5.45088e-07
5.17151e-07
4.88303e-07
4.58816e-07
4.28947e-07
3.98943e-07
3.69038e-07
3.39449e-07
3.10379e-07
2.82013e-07
2.54509e-07
2.27997e-07
2.02571e-07
1.78291e-07
1.55181e-07
1.33227e-07
1.12382e-07
9.25638e-08
7.3661e-08
5.55336e-08
3.80186e-08
2.09336e-08
3.60067e-11
1.34894e-13
1.34791e-13
3.59801e-11
2.0919e-08
3.79926e-08
5.54963e-08
7.36121e-08
9.25033e-08
1.1231e-07
1.33143e-07
1.55086e-07
1.78185e-07
2.02455e-07
2.27872e-07
2.54376e-07
2.81872e-07
3.10233e-07
3.39298e-07
3.68884e-07
3.98787e-07
4.2879e-07
4.5866e-07
4.8815e-07
5.17001e-07
5.44944e-07
5.71706e-07
5.97017e-07
6.2062e-07
6.42268e-07
6.61737e-07
6.78822e-07
6.93344e-07
7.0515e-07
7.14117e-07
7.20151e-07
7.23187e-07
7.23196e-07
7.20175e-07
7.14158e-07
7.05207e-07
6.93415e-07
6.78908e-07
6.61836e-07
6.4238e-07
6.20742e-07
5.9715e-07
5.71846e-07
5.45091e-07
5.17154e-07
4.88306e-07
4.58818e-07
4.28949e-07
3.98946e-07
3.6904e-07
3.39451e-07
3.10381e-07
2.82014e-07
2.54511e-07
2.27998e-07
2.02572e-07
1.78292e-07
1.55181e-07
1.33228e-07
1.12382e-07
9.25643e-08
7.36614e-08
5.55339e-08
3.80188e-08
2.09337e-08
3.60069e-11
1.34894e-13
1.34791e-13
3.59802e-11
2.0919e-08
3.79927e-08
5.54964e-08
7.36123e-08
9.25035e-08
1.1231e-07
1.33144e-07
1.55086e-07
1.78186e-07
2.02456e-07
2.27872e-07
2.54377e-07
2.81873e-07
3.10233e-07
3.39299e-07
3.68885e-07
3.98788e-07
4.28791e-07
4.58661e-07
4.88151e-07
5.17003e-07
5.44946e-07
5.71707e-07
5.97019e-07
6.20622e-07
6.4227e-07
6.61739e-07
6.78824e-07
6.93346e-07
7.05152e-07
7.14119e-07
7.20153e-07
7.2319e-07
7.23198e-07
7.20178e-07
7.1416e-07
7.05209e-07
6.93418e-07
6.7891e-07
6.61838e-07
6.42382e-07
6.20744e-07
5.97151e-07
5.71848e-07
5.45093e-07
5.17156e-07
4.88308e-07
4.5882e-07
4.28951e-07
3.98947e-07
3.69041e-07
3.39452e-07
3.10382e-07
2.82015e-07
2.54511e-07
2.27999e-07
2.02572e-07
1.78292e-07
1.55182e-07
1.33228e-07
1.12383e-07
9.25646e-08
7.36616e-08
5.55341e-08
3.80189e-08
2.09337e-08
3.6007e-11
1.34895e-13
1.34791e-13
3.59802e-11
2.0919e-08
3.79928e-08
5.54965e-08
7.36124e-08
9.25037e-08
1.1231e-07
1.33144e-07
1.55086e-07
1.78186e-07
2.02456e-07
2.27873e-07
2.54377e-07
2.81874e-07
3.10234e-07
3.39299e-07
3.68885e-07
3.98789e-07
4.28792e-07
4.58662e-07
4.88152e-07
5.17004e-07
5.44946e-07
5.71708e-07
5.9702e-07
6.20622e-07
6.42271e-07
6.6174e-07
6.78825e-07
6.93347e-07
7.05153e-07
7.1412e-07
7.20154e-07
7.23191e-07
7.23199e-07
7.20179e-07
7.14161e-07
7.0521e-07
6.93419e-07
6.78911e-07
6.61839e-07
6.42383e-07
6.20745e-07
5.97152e-07
5.71849e-07
5.45094e-07
5.17156e-07
4.88309e-07
4.5882e-07
4.28951e-07
3.98948e-07
3.69042e-07
3.39452e-07
3.10382e-07
2.82016e-07
2.54512e-07
2.27999e-07
2.02573e-07
1.78293e-07
1.55182e-07
1.33228e-07
1.12383e-07
9.25647e-08
7.36617e-08
5.55341e-08
3.80189e-08
2.09337e-08
3.60071e-11
1.34895e-13
1.34791e-13
3.59802e-11
2.09191e-08
3.79928e-08
5.54965e-08
7.36124e-08
9.25037e-08
1.1231e-07
1.33144e-07
1.55086e-07
1.78186e-07
2.02456e-07
2.27873e-07
2.54377e-07
2.81874e-07
3.10234e-07
3.39299e-07
3.68885e-07
3.98789e-07
4.28792e-07
4.58662e-07
4.88152e-07
5.17004e-07
5.44947e-07
5.71709e-07
5.9702e-07
6.20623e-07
6.42272e-07
6.6174e-07
6.78825e-07
6.93347e-07
7.05154e-07
7.14121e-07
7.20154e-07
7.23191e-07
7.23199e-07
7.20179e-07
7.14162e-07
7.0521e-07
6.93419e-07
6.78911e-07
6.6184e-07
6.42383e-07
6.20745e-07
5.97153e-07
5.71849e-07
5.45094e-07
5.17157e-07
4.88309e-07
4.58821e-07
4.28951e-07
3.98948e-07
3.69042e-07
3.39452e-07
3.10382e-07
2.82016e-07
2.54512e-07
2.27999e-07
2.02573e-07
1.78293e-07
1.55182e-07
1.33228e-07
1.12383e-07
9.25647e-08
7.36617e-08
5.55342e-08
3.80189e-08
2.09338e-08
3.60071e-11
1.34895e-13
1.34791e-13
3.59803e-11
2.09191e-08
3.79928e-08
5.54965e-08
7.36124e-08
9.25037e-08
1.1231e-07
1.33144e-07
1.55086e-07
1.78186e-07
2.02456e-07
2.27873e-07
2.54377e-07
2.81874e-07
3.10234e-07
3.39299e-07
3.68885e-07
3.98789e-07
4.28792e-07
4.58662e-07
4.88153e-07
5.17004e-07
5.44947e-07
5.71709e-07
5.97021e-07
6.20623e-07
6.42272e-07
6.61741e-07
6.78826e-07
6.93348e-07
7.05154e-07
7.14121e-07
7.20155e-07
7.23191e-07
7.232e-07
7.20179e-07
7.14162e-07
7.05211e-07
6.93419e-07
6.78912e-07
6.6184e-07
6.42383e-07
6.20746e-07
5.97153e-07
5.71849e-07
5.45094e-07
5.17157e-07
4.88309e-07
4.58821e-07
4.28952e-07
3.98948e-07
3.69042e-07
3.39452e-07
3.10382e-07
2.82016e-07
2.54512e-07
2.27999e-07
2.02573e-07
1.78293e-07
1.55182e-07
1.33228e-07
1.12383e-07
9.25647e-08
7.36617e-08
5.55342e-08
3.80189e-08
2.09338e-08
3.60071e-11
1.34895e-13
1.34791e-13
3.59803e-11
2.09191e-08
3.79928e-08
5.54965e-08
7.36124e-08
9.25037e-08
1.1231e-07
1.33144e-07
1.55086e-07
1.78186e-07
2.02456e-07
2.27873e-07
2.54377e-07
2.81874e-07
3.10234e-07