/*--------------------------------*- C++ -*----------------------------------*\
  =========                 |
  \\      /  F ield         | OpenFOAM: The Open Source CFD Toolbox
   \\    /   O peration     | Website:  https://openfoam.org
    \\  /    A nd           | Version:  13
     \\/     M anipulation  |
\*---------------------------------------------------------------------------*/
FoamFile
{
    format      ascii;
    class       volScalarField;
    location    "197.5";
    object      rhok;
}
// * * * * * * * * * * * * * * * * * * * * * * * * * * * * * * * * * * * * * //

dimensions      [];

internalField   nonuniform List<scalar> 
315000
(
0.444654
0.430939
0.417717
0.413717
0.412917
0.412344
0.411703
0.411034
0.410355
0.409671
0.408987
0.408302
0.407618
0.406935
0.406252
0.405571
0.40489
0.40421
0.403531
0.402852
0.402175
0.401499
0.400824
0.40015
0.399476
0.398804
0.398134
0.397464
0.396795
0.396128
0.395461
0.394796
0.394132
0.39347
0.392808
0.392148
0.391489
0.390831
0.390175
0.38952
0.388866
0.388213
0.387561
0.386911
0.386262
0.385614
0.384967
0.384321
0.383676
0.383032
0.38239
0.381748
0.381107
0.380467
0.379828
0.37919
0.378553
0.377916
0.37728
0.376645
0.37601
0.375376
0.374742
0.374109
0.373476
0.372843
0.372211
0.371579
0.370947
0.370315
0.444654
0.430934
0.417707
0.41371
0.412913
0.41234
0.411699
0.411031
0.410352
0.409669
0.408985
0.408301
0.407617
0.406934
0.406251
0.40557
0.404889
0.404209
0.40353
0.402851
0.402174
0.401498
0.400823
0.400149
0.399475
0.398803
0.398132
0.397463
0.396794
0.396126
0.39546
0.394795
0.394131
0.393468
0.392807
0.392147
0.391488
0.39083
0.390174
0.389518
0.388864
0.388212
0.38756
0.38691
0.38626
0.385612
0.384965
0.38432
0.383675
0.383031
0.382389
0.381747
0.381106
0.380466
0.379827
0.379189
0.378552
0.377915
0.37728
0.376644
0.37601
0.375375
0.374742
0.374109
0.373476
0.372843
0.372211
0.371579
0.370947
0.370315
0.444654
0.430935
0.417709
0.413723
0.412922
0.412343
0.411701
0.411033
0.410354
0.40967
0.408986
0.408301
0.407617
0.406934
0.406251
0.405569
0.404888
0.404208
0.403529
0.402851
0.402173
0.401497
0.400822
0.400148
0.399475
0.398802
0.398131
0.397462
0.396793
0.396125
0.395459
0.394794
0.39413
0.393467
0.392806
0.392146
0.391487
0.390829
0.390172
0.389517
0.388863
0.38821
0.387559
0.386909
0.386259
0.385611
0.384964
0.384319
0.383674
0.38303
0.382388
0.381746
0.381105
0.380466
0.379827
0.379189
0.378551
0.377915
0.377279
0.376644
0.376009
0.375375
0.374741
0.374108
0.373475
0.372843
0.372211
0.371579
0.370947
0.370315
0.444653
0.430868
0.416527
0.41427
0.413302
0.412499
0.411764
0.411058
0.410363
0.409673
0.408986
0.408301
0.407616
0.406932
0.40625
0.405568
0.404887
0.404207
0.403528
0.402849
0.402172
0.401496
0.400821
0.400146
0.399473
0.398801
0.39813
0.39746
0.396792
0.396124
0.395458
0.394793
0.394129
0.393466
0.392805
0.392144
0.391485
0.390828
0.390171
0.389516
0.388862
0.388209
0.387558
0.386907
0.386258
0.38561
0.384963
0.384318
0.383673
0.383029
0.382387
0.381745
0.381105
0.380465
0.379826
0.379188
0.378551
0.377914
0.377278
0.376643
0.376009
0.375375
0.374741
0.374108
0.373475
0.372843
0.372211
0.371579
0.370947
0.370315
0.444653
0.430865
0.416519
0.414262
0.413297
0.412494
0.411759
0.411053
0.410358
0.409669
0.408982
0.408297
0.407613
0.406929
0.406247
0.405565
0.404884
0.404204
0.403525
0.402847
0.40217
0.401493
0.400818
0.400144
0.399471
0.398799
0.398128
0.397458
0.39679
0.396122
0.395456
0.394791
0.394127
0.393464
0.392803
0.392143
0.391484
0.390826
0.39017
0.389515
0.388861
0.388208
0.387556
0.386906
0.386257
0.385609
0.384962
0.384317
0.383672
0.383028
0.382386
0.381744
0.381104
0.380464
0.379825
0.379187
0.37855
0.377914
0.377278
0.376643
0.376008
0.375374
0.374741
0.374108
0.373475
0.372842
0.37221
0.371578
0.370947
0.370315
0.444653
0.430865
0.416519
0.414261
0.4133
0.412498
0.411762
0.411054
0.410358
0.409667
0.40898
0.408294
0.407609
0.406926
0.406243
0.405561
0.40488
0.4042
0.403521
0.402843
0.402166
0.40149
0.400815
0.400141
0.399468
0.398796
0.398125
0.397455
0.396787
0.396119
0.395453
0.394788
0.394124
0.393462
0.392801
0.392141
0.391482
0.390824
0.390168
0.389513
0.388859
0.388206
0.387555
0.386905
0.386256
0.385608
0.384961
0.384315
0.383671
0.383027
0.382385
0.381743
0.381103
0.380463
0.379824
0.379187
0.378549
0.377913
0.377277
0.376642
0.376008
0.375374
0.37474
0.374107
0.373475
0.372842
0.37221
0.371578
0.370947
0.370315
0.444654
0.43093
0.417697
0.413707
0.412908
0.412332
0.411689
0.41102
0.41034
0.409656
0.408971
0.408287
0.407603
0.40692
0.406237
0.405556
0.404875
0.404195
0.403516
0.402838
0.402161
0.401485
0.40081
0.400136
0.399463
0.398791
0.398121
0.397451
0.396783
0.396116
0.39545
0.394785
0.394121
0.393459
0.392798
0.392138
0.391479
0.390822
0.390166
0.389511
0.388857
0.388204
0.387553
0.386903
0.386254
0.385606
0.38496
0.384314
0.38367
0.383026
0.382384
0.381742
0.381102
0.380462
0.379824
0.379186
0.378549
0.377912
0.377277
0.376642
0.376007
0.375373
0.37474
0.374107
0.373474
0.372842
0.37221
0.371578
0.370946
0.370315
0.444654
0.430923
0.417687
0.413687
0.412889
0.412316
0.411675
0.411007
0.410329
0.409646
0.408962
0.408278
0.407595
0.406912
0.40623
0.405548
0.404868
0.404188
0.40351
0.402832
0.402155
0.401479
0.400805
0.400131
0.399458
0.398787
0.398116
0.397447
0.396779
0.396112
0.395446
0.394781
0.394118
0.393456
0.392795
0.392135
0.391476
0.390819
0.390163
0.389508
0.388855
0.388202
0.387551
0.386901
0.386252
0.385605
0.384958
0.384313
0.383668
0.383025
0.382383
0.381741
0.381101
0.380461
0.379823
0.379185
0.378548
0.377912
0.377276
0.376641
0.376007
0.375373
0.37474
0.374107
0.373474
0.372842
0.37221
0.371578
0.370946
0.370315
0.444654
0.430919
0.417679
0.413678
0.412881
0.412308
0.411667
0.410999
0.41032
0.409638
0.408954
0.40827
0.407587
0.406904
0.406223
0.405541
0.404861
0.404182
0.403503
0.402826
0.402149
0.401474
0.400799
0.400126
0.399453
0.398782
0.398112
0.397443
0.396775
0.396108
0.395442
0.394778
0.394114
0.393452
0.392792
0.392132
0.391474
0.390817
0.390161
0.389506
0.388853
0.3882
0.387549
0.386899
0.386251
0.385603
0.384957
0.384311
0.383667
0.383024
0.382382
0.38174
0.3811
0.380461
0.379822
0.379184
0.378547
0.377911
0.377276
0.376641
0.376006
0.375373
0.374739
0.374106
0.373474
0.372842
0.37221
0.371578
0.370946
0.370315
0.444654
0.430917
0.417674
0.413673
0.412875
0.412302
0.411661
0.410993
0.410314
0.409632
0.408948
0.408264
0.407581
0.406898
0.406217
0.405536
0.404856
0.404176
0.403498
0.402821
0.402144
0.401469
0.400795
0.400121
0.399449
0.398778
0.398108
0.397439
0.396771
0.396104
0.395439
0.394775
0.394111
0.39345
0.392789
0.39213
0.391471
0.390814
0.390159
0.389504
0.388851
0.388199
0.387548
0.386898
0.386249
0.385602
0.384956
0.38431
0.383666
0.383023
0.382381
0.38174
0.381099
0.38046
0.379822
0.379184
0.378547
0.377911
0.377275
0.37664
0.376006
0.375372
0.374739
0.374106
0.373474
0.372842
0.37221
0.371578
0.370946
0.370315
0.444654
0.430914
0.41767
0.413668
0.41287
0.412297
0.411656
0.410988
0.410309
0.409627
0.408943
0.40826
0.407576
0.406894
0.406212
0.405531
0.404851
0.404172
0.403494
0.402817
0.40214
0.401465
0.400791
0.400118
0.399446
0.398774
0.398105
0.397436
0.396768
0.396102
0.395436
0.394772
0.394109
0.393447
0.392787
0.392128
0.391469
0.390813
0.390157
0.389503
0.388849
0.388197
0.387546
0.386897
0.386248
0.385601
0.384955
0.384309
0.383665
0.383022
0.38238
0.381739
0.381099
0.38046
0.379821
0.379183
0.378547
0.37791
0.377275
0.37664
0.376006
0.375372
0.374739
0.374106
0.373474
0.372841
0.37221
0.371578
0.370946
0.370315
0.444654
0.430913
0.417667
0.413665
0.412867
0.412294
0.411653
0.410985
0.410306
0.409624
0.40894
0.408256
0.407573
0.406891
0.406209
0.405528
0.404848
0.404169
0.403491
0.402814
0.402138
0.401463
0.400788
0.400115
0.399443
0.398772
0.398102
0.397434
0.396766
0.3961
0.395434
0.39477
0.394108
0.393446
0.392785
0.392126
0.391468
0.390811
0.390156
0.389502
0.388848
0.388196
0.387546
0.386896
0.386248
0.3856
0.384954
0.384309
0.383665
0.383022
0.38238
0.381739
0.381098
0.380459
0.379821
0.379183
0.378546
0.37791
0.377275
0.37664
0.376006
0.375372
0.374739
0.374106
0.373474
0.372841
0.372209
0.371578
0.370946
0.370315
0.444654
0.430912
0.417666
0.413664
0.412866
0.412292
0.411651
0.410983
0.410305
0.409622
0.408938
0.408255
0.407572
0.406889
0.406207
0.405527
0.404847
0.404168
0.40349
0.402812
0.402136
0.401461
0.400787
0.400114
0.399442
0.398771
0.398101
0.397433
0.396765
0.396099
0.395433
0.394769
0.394107
0.393445
0.392785
0.392125
0.391468
0.390811
0.390155
0.389501
0.388848
0.388196
0.387545
0.386896
0.386247
0.3856
0.384954
0.384309
0.383664
0.383021
0.382379
0.381738
0.381098
0.380459
0.379821
0.379183
0.378546
0.37791
0.377275
0.37664
0.376006
0.375372
0.374739
0.374106
0.373473
0.372841
0.372209
0.371578
0.370946
0.370315
0.444654
0.430912
0.417665
0.413663
0.412865
0.412292
0.411651
0.410983
0.410304
0.409621
0.408938
0.408254
0.407571
0.406889
0.406207
0.405526
0.404846
0.404167
0.403489
0.402812
0.402136
0.401461
0.400787
0.400113
0.399441
0.398771
0.398101
0.397432
0.396765
0.396098
0.395433
0.394769
0.394106
0.393445
0.392784
0.392125
0.391467
0.390811
0.390155
0.389501
0.388848
0.388196
0.387545
0.386895
0.386247
0.3856
0.384954
0.384308
0.383664
0.383021
0.382379
0.381738
0.381098
0.380459
0.379821
0.379183
0.378546
0.37791
0.377275
0.37664
0.376006
0.375372
0.374739
0.374106
0.373473
0.372841
0.372209
0.371578
0.370946
0.370315
0.444654
0.430912
0.417666
0.413663
0.412865
0.412292
0.411651
0.410983
0.410304
0.409622
0.408938
0.408254
0.407571
0.406889
0.406207
0.405526
0.404846
0.404167
0.403489
0.402812
0.402136
0.401461
0.400787
0.400114
0.399442
0.398771
0.398101
0.397432
0.396765
0.396098
0.395433
0.394769
0.394106
0.393445
0.392784
0.392125
0.391467
0.390811
0.390155
0.389501
0.388848
0.388196
0.387545
0.386895
0.386247
0.3856
0.384954
0.384308
0.383664
0.383021
0.382379
0.381738
0.381098
0.380459
0.379821
0.379183
0.378546
0.37791
0.377275
0.37664
0.376006
0.375372
0.374739
0.374106
0.373473
0.372841
0.372209
0.371578
0.370946
0.370315
0.444654
0.430913
0.417666
0.413664
0.412866
0.412292
0.411651
0.410983
0.410305
0.409622
0.408938
0.408255
0.407572
0.406889
0.406208
0.405527
0.404847
0.404168
0.40349
0.402812
0.402136
0.401461
0.400787
0.400114
0.399442
0.398771
0.398101
0.397433
0.396765
0.396099
0.395434
0.39477
0.394107
0.393445
0.392785
0.392126
0.391468
0.390811
0.390155
0.389501
0.388848
0.388196
0.387545
0.386896
0.386247
0.3856
0.384954
0.384309
0.383665
0.383022
0.382379
0.381738
0.381098
0.380459
0.379821
0.379183
0.378546
0.37791
0.377275
0.37664
0.376006
0.375372
0.374739
0.374106
0.373473
0.372841
0.372209
0.371578
0.370946
0.370315
0.444654
0.430913
0.417666
0.413664
0.412866
0.412293
0.411652
0.410984
0.410305
0.409623
0.408939
0.408255
0.407572
0.40689
0.406208
0.405527
0.404847
0.404168
0.40349
0.402813
0.402137
0.401462
0.400788
0.400114
0.399442
0.398772
0.398102
0.397433
0.396765
0.396099
0.395434
0.39477
0.394107
0.393445
0.392785
0.392126
0.391468
0.390811
0.390156
0.389501
0.388848
0.388196
0.387545
0.386896
0.386247
0.3856
0.384954
0.384309
0.383665
0.383022
0.38238
0.381739
0.381098
0.380459
0.379821
0.379183
0.378546
0.37791
0.377275
0.37664
0.376006
0.375372
0.374739
0.374106
0.373474
0.372841
0.372209
0.371578
0.370946
0.370315
0.444654
0.430913
0.417667
0.413664
0.412866
0.412293
0.411652
0.410984
0.410306
0.409623
0.408939
0.408256
0.407573
0.40689
0.406209
0.405528
0.404848
0.404169
0.403491
0.402814
0.402137
0.401462
0.400788
0.400115
0.399443
0.398772
0.398102
0.397434
0.396766
0.3961
0.395434
0.39477
0.394108
0.393446
0.392785
0.392126
0.391468
0.390812
0.390156
0.389502
0.388848
0.388197
0.387546
0.386896
0.386248
0.3856
0.384954
0.384309
0.383665
0.383022
0.38238
0.381739
0.381099
0.380459
0.379821
0.379183
0.378546
0.37791
0.377275
0.37664
0.376006
0.375372
0.374739
0.374106
0.373474
0.372841
0.37221
0.371578
0.370946
0.370315
0.444654
0.430913
0.417667
0.413665
0.412867
0.412294
0.411653
0.410985
0.410306
0.409624
0.40894
0.408257
0.407574
0.406891
0.40621
0.405529
0.404849
0.40417
0.403492
0.402815
0.402138
0.401463
0.400789
0.400116
0.399444
0.398773
0.398103
0.397434
0.396767
0.3961
0.395435
0.394771
0.394108
0.393447
0.392786
0.392127
0.391469
0.390812
0.390156
0.389502
0.388849
0.388197
0.387546
0.386897
0.386248
0.385601
0.384954
0.384309
0.383665
0.383022
0.38238
0.381739
0.381099
0.38046
0.379821
0.379184
0.378547
0.377911
0.377275
0.37664
0.376006
0.375372
0.374739
0.374106
0.373474
0.372841
0.37221
0.371578
0.370946
0.370315
0.444654
0.430914
0.417669
0.413667
0.412869
0.412296
0.411655
0.410987
0.410308
0.409626
0.408942
0.408259
0.407576
0.406893
0.406212
0.405531
0.404851
0.404172
0.403494
0.402816
0.40214
0.401465
0.400791
0.400118
0.399445
0.398774
0.398105
0.397436
0.396768
0.396102
0.395436
0.394772
0.394109
0.393448
0.392787
0.392128
0.39147
0.390813
0.390157
0.389503
0.38885
0.388198
0.387547
0.386897
0.386249
0.385601
0.384955
0.38431
0.383666
0.383023
0.38238
0.381739
0.381099
0.38046
0.379821
0.379184
0.378547
0.377911
0.377275
0.37664
0.376006
0.375372
0.374739
0.374106
0.373474
0.372842
0.37221
0.371578
0.370946
0.370315
0.444654
0.430916
0.417672
0.41367
0.412872
0.412299
0.411658
0.41099
0.410312
0.409629
0.408946
0.408262
0.407579
0.406897
0.406215
0.405534
0.404854
0.404175
0.403497
0.402819
0.402143
0.401468
0.400793
0.40012
0.399448
0.398777
0.398107
0.397438
0.39677
0.396104
0.395438
0.394774
0.394111
0.393449
0.392789
0.392129
0.391471
0.390814
0.390158
0.389504
0.388851
0.388199
0.387548
0.386898
0.386249
0.385602
0.384956
0.38431
0.383666
0.383023
0.382381
0.38174
0.3811
0.38046
0.379822
0.379184
0.378547
0.377911
0.377275
0.376641
0.376006
0.375373
0.374739
0.374106
0.373474
0.372842
0.37221
0.371578
0.370946
0.370315
0.444654
0.430918
0.417676
0.413675
0.412877
0.412304
0.411663
0.410995
0.410317
0.409634
0.408951
0.408267
0.407584
0.406901
0.406219
0.405538
0.404858
0.404179
0.403501
0.402823
0.402147
0.401471
0.400797
0.400124
0.399451
0.39878
0.39811
0.397441
0.396773
0.396106
0.395441
0.394776
0.394113
0.393451
0.392791
0.392131
0.391473
0.390816
0.39016
0.389505
0.388852
0.3882
0.387549
0.386899
0.38625
0.385603
0.384957
0.384311
0.383667
0.383024
0.382382
0.38174
0.3811
0.380461
0.379822
0.379184
0.378548
0.377911
0.377276
0.376641
0.376007
0.375373
0.374739
0.374106
0.373474
0.372842
0.37221
0.371578
0.370946
0.370315
0.444654
0.430921
0.417681
0.41368
0.412882
0.412309
0.411669
0.411001
0.410322
0.409639
0.408956
0.408272
0.407589
0.406906
0.406224
0.405543
0.404863
0.404184
0.403505
0.402828
0.402151
0.401475
0.400801
0.400127
0.399455
0.398783
0.398113
0.397444
0.396776
0.396109
0.395443
0.394779
0.394116
0.393454
0.392793
0.392133
0.391475
0.390818
0.390162
0.389507
0.388853
0.388201
0.38755
0.3869
0.386251
0.385604
0.384957
0.384312
0.383668
0.383024
0.382382
0.381741
0.381101
0.380461
0.379823
0.379185
0.378548
0.377912
0.377276
0.376641
0.376007
0.375373
0.37474
0.374107
0.373474
0.372842
0.37221
0.371578
0.370946
0.370315
0.444654
0.430923
0.417686
0.413686
0.412888
0.412315
0.411674
0.411006
0.410327
0.409645
0.408961
0.408277
0.407593
0.40691
0.406228
0.405547
0.404867
0.404187
0.403509
0.402831
0.402154
0.401479
0.400804
0.40013
0.399458
0.398786
0.398116
0.397446
0.396778
0.396111
0.395445
0.394781
0.394117
0.393455
0.392794
0.392135
0.391476
0.390819
0.390163
0.389508
0.388854
0.388202
0.387551
0.386901
0.386252
0.385605
0.384958
0.384313
0.383668
0.383025
0.382383
0.381741
0.381101
0.380462
0.379823
0.379185
0.378548
0.377912
0.377276
0.376641
0.376007
0.375373
0.37474
0.374107
0.373474
0.372842
0.37221
0.371578
0.370946
0.370315
0.444654
0.430925
0.417691
0.413702
0.4129
0.412322
0.41168
0.411011
0.410332
0.409649
0.408965
0.40828
0.407596
0.406913
0.406231
0.405549
0.404869
0.404189
0.40351
0.402833
0.402156
0.40148
0.400805
0.400131
0.399459
0.398787
0.398117
0.397447
0.396779
0.396112
0.395446
0.394782
0.394118
0.393456
0.392795
0.392135
0.391477
0.390819
0.390163
0.389509
0.388855
0.388203
0.387551
0.386901
0.386253
0.385605
0.384958
0.384313
0.383669
0.383025
0.382383
0.381742
0.381101
0.380462
0.379823
0.379185
0.378548
0.377912
0.377276
0.376641
0.376007
0.375373
0.37474
0.374107
0.373474
0.372842
0.37221
0.371578
0.370946
0.370315
0.444653
0.430859
0.416509
0.41425
0.413282
0.412478
0.411743
0.411037
0.410342
0.409652
0.408965
0.40828
0.407596
0.406912
0.40623
0.405548
0.404868
0.404188
0.403509
0.402832
0.402155
0.401479
0.400804
0.400131
0.399458
0.398786
0.398116
0.397447
0.396779
0.396112
0.395446
0.394781
0.394118
0.393456
0.392795
0.392135
0.391476
0.390819
0.390163
0.389508
0.388855
0.388202
0.387551
0.386901
0.386253
0.385605
0.384958
0.384313
0.383669
0.383025
0.382383
0.381742
0.381101
0.380462
0.379823
0.379185
0.378548
0.377912
0.377276
0.376642
0.376007
0.375373
0.37474
0.374107
0.373474
0.372842
0.37221
0.371578
0.370946
0.370315
0.444653
0.430854
0.416497
0.414239
0.413273
0.41247
0.411735
0.411029
0.410335
0.409646
0.408959
0.408274
0.40759
0.406907
0.406225
0.405544
0.404864
0.404184
0.403506
0.402828
0.402152
0.401476
0.400801
0.400128
0.399455
0.398784
0.398114
0.397444
0.396776
0.39611
0.395444
0.394779
0.394116
0.393454
0.392793
0.392134
0.391475
0.390818
0.390162
0.389508
0.388854
0.388202
0.387551
0.386901
0.386252
0.385604
0.384958
0.384313
0.383668
0.383025
0.382383
0.381742
0.381101
0.380462
0.379823
0.379185
0.378548
0.377912
0.377276
0.376641
0.376007
0.375373
0.37474
0.374107
0.373474
0.372842
0.37221
0.371578
0.370946
0.370315
0.444652
0.430851
0.41649
0.414231
0.413266
0.412463
0.411728
0.411022
0.410328
0.409639
0.408953
0.408268
0.407584
0.406902
0.40622
0.405539
0.404859
0.404179
0.403501
0.402824
0.402147
0.401472
0.400797
0.400124
0.399452
0.39878
0.39811
0.397441
0.396774
0.396107
0.395441
0.394777
0.394114
0.393452
0.392791
0.392132
0.391474
0.390817
0.390161
0.389506
0.388853
0.388201
0.38755
0.3869
0.386251
0.385604
0.384957
0.384312
0.383668
0.383025
0.382382
0.381741
0.381101
0.380462
0.379823
0.379185
0.378548
0.377912
0.377276
0.376641
0.376007
0.375373
0.37474
0.374107
0.373474
0.372842
0.37221
0.371578
0.370946
0.370315
0.444652
0.430848
0.416485
0.414226
0.41326
0.412457
0.411722
0.411016
0.410322
0.409633
0.408947
0.408263
0.407579
0.406896
0.406215
0.405534
0.404854
0.404175
0.403496
0.402819
0.402143
0.401468
0.400794
0.40012
0.399448
0.398777
0.398107
0.397438
0.396771
0.396104
0.395439
0.394775
0.394112
0.39345
0.39279
0.39213
0.391472
0.390815
0.39016
0.389505
0.388852
0.3882
0.387549
0.386899
0.386251
0.385603
0.384957
0.384312
0.383667
0.383024
0.382382
0.381741
0.381101
0.380461
0.379823
0.379185
0.378548
0.377912
0.377276
0.376641
0.376007
0.375373
0.37474
0.374107
0.373474
0.372842
0.37221
0.371578
0.370946
0.370315
0.444652
0.430846
0.416481
0.414222
0.413256
0.412453
0.411718
0.411012
0.410318
0.409629
0.408943
0.408258
0.407575
0.406892
0.406211
0.40553
0.40485
0.404171
0.403493
0.402816
0.40214
0.401465
0.400791
0.400117
0.399445
0.398775
0.398105
0.397436
0.396769
0.396102
0.395437
0.394773
0.39411
0.393449
0.392788
0.392129
0.391471
0.390814
0.390159
0.389504
0.388851
0.388199
0.387548
0.386899
0.38625
0.385603
0.384956
0.384311
0.383667
0.383024
0.382382
0.381741
0.3811
0.380461
0.379823
0.379185
0.378548
0.377912
0.377276
0.376641
0.376007
0.375373
0.37474
0.374107
0.373474
0.372842
0.37221
0.371578
0.370946
0.370315
0.444652
0.430845
0.416479
0.414219
0.413253
0.41245
0.411715
0.411009
0.410315
0.409626
0.40894
0.408256
0.407572
0.40689
0.406208
0.405527
0.404847
0.404169
0.403491
0.402814
0.402138
0.401462
0.400788
0.400116
0.399444
0.398773
0.398103
0.397435
0.396767
0.396101
0.395436
0.394772
0.394109
0.393447
0.392787
0.392128
0.39147
0.390813
0.390158
0.389504
0.38885
0.388199
0.387548
0.386898
0.38625
0.385602
0.384956
0.384311
0.383667
0.383024
0.382382
0.381741
0.3811
0.380461
0.379823
0.379185
0.378548
0.377912
0.377276
0.376641
0.376007
0.375373
0.37474
0.374107
0.373474
0.372842
0.37221
0.371578
0.370946
0.370315
0.444652
0.430844
0.416478
0.414218
0.413252
0.412448
0.411714
0.411008
0.410314
0.409625
0.408939
0.408254
0.407571
0.406888
0.406207
0.405526
0.404846
0.404167
0.403489
0.402812
0.402136
0.401461
0.400787
0.400114
0.399443
0.398772
0.398102
0.397434
0.396766
0.3961
0.395435
0.394771
0.394108
0.393447
0.392787
0.392128
0.39147
0.390813
0.390157
0.389503
0.38885
0.388198
0.387548
0.386898
0.38625
0.385602
0.384956
0.384311
0.383667
0.383024
0.382382
0.381741
0.3811
0.380461
0.379823
0.379185
0.378548
0.377912
0.377276
0.376641
0.376007
0.375373
0.37474
0.374107
0.373474
0.372842
0.37221
0.371578
0.370946
0.370315
0.444652
0.430844
0.416477
0.414217
0.413251
0.412448
0.411713
0.411007
0.410313
0.409624
0.408938
0.408253
0.40757
0.406887
0.406206
0.405525
0.404845
0.404166
0.403489
0.402812
0.402136
0.401461
0.400787
0.400114
0.399442
0.398771
0.398102
0.397433
0.396766
0.3961
0.395435
0.394771
0.394108
0.393447
0.392786
0.392127
0.391469
0.390813
0.390157
0.389503
0.38885
0.388198
0.387547
0.386898
0.386249
0.385602
0.384956
0.384311
0.383667
0.383024
0.382382
0.381741
0.3811
0.380461
0.379823
0.379185
0.378548
0.377912
0.377276
0.376641
0.376007
0.375373
0.37474
0.374107
0.373474
0.372842
0.37221
0.371578
0.370946
0.370315
0.444652
0.430844
0.416477
0.414217
0.413251
0.412447
0.411713
0.411007
0.410312
0.409624
0.408938
0.408253
0.40757
0.406887
0.406205
0.405525
0.404845
0.404166
0.403488
0.402811
0.402135
0.40146
0.400786
0.400114
0.399442
0.398771
0.398101
0.397433
0.396766
0.396099
0.395434
0.394771
0.394108
0.393447
0.392786
0.392127
0.391469
0.390813
0.390157
0.389503
0.38885
0.388198
0.387547
0.386898
0.386249
0.385602
0.384956
0.384311
0.383667
0.383024
0.382382
0.381741
0.3811
0.380461
0.379823
0.379185
0.378548
0.377912
0.377276
0.376641
0.376007
0.375373
0.37474
0.374107
0.373474
0.372842
0.37221
0.371578
0.370946
0.370315
0.444652
0.430844
0.416477
0.414217
0.413251
0.412447
0.411713
0.411006
0.410312
0.409624
0.408937
0.408253
0.407569
0.406887
0.406205
0.405525
0.404845
0.404166
0.403488
0.402811
0.402135
0.40146
0.400786
0.400114
0.399442
0.398771
0.398101
0.397433
0.396766
0.396099
0.395434
0.394771
0.394108
0.393447
0.392786
0.392127
0.391469
0.390813
0.390157
0.389503
0.38885
0.388198
0.387547
0.386898
0.38625
0.385602
0.384956
0.384311
0.383667
0.383024
0.382382
0.381741
0.3811
0.380461
0.379823
0.379185
0.378548
0.377912
0.377276
0.376641
0.376007
0.375373
0.37474
0.374107
0.373474
0.372842
0.37221
0.371578
0.370946
0.370315
0.444652
0.430844
0.416477
0.414217
0.413251
0.412447
0.411713
0.411006
0.410312
0.409624
0.408937
0.408253
0.407569
0.406887
0.406205
0.405525
0.404845
0.404166
0.403488
0.402811
0.402135
0.40146
0.400786
0.400114
0.399442
0.398771
0.398101
0.397433
0.396766
0.396099
0.395434
0.394771
0.394108
0.393447
0.392786
0.392127
0.391469
0.390813
0.390157
0.389503
0.38885
0.388198
0.387548
0.386898
0.38625
0.385602
0.384956
0.384311
0.383667
0.383024
0.382382
0.381741
0.3811
0.380461
0.379823
0.379185
0.378548
0.377912
0.377276
0.376641
0.376007
0.375373
0.37474
0.374107
0.373474
0.372842
0.37221
0.371578
0.370946
0.370315
0.444652
0.430844
0.416477
0.414217
0.413251
0.412447
0.411713
0.411007
0.410312
0.409624
0.408937
0.408253
0.407569
0.406887
0.406205
0.405525
0.404845
0.404166
0.403488
0.402811
0.402135
0.40146
0.400786
0.400114
0.399442
0.398771
0.398102
0.397433
0.396766
0.3961
0.395435
0.394771
0.394108
0.393447
0.392786
0.392127
0.391469
0.390813
0.390157
0.389503
0.38885
0.388198
0.387548
0.386898
0.38625
0.385602
0.384956
0.384311
0.383667
0.383024
0.382382
0.381741
0.3811
0.380461
0.379823
0.379185
0.378548
0.377912
0.377276
0.376641
0.376007
0.375373
0.37474
0.374107
0.373474
0.372842
0.37221
0.371578
0.370946
0.370315
0.444652
0.430844
0.416477
0.414217
0.413251
0.412447
0.411713
0.411007
0.410312
0.409624
0.408938
0.408253
0.40757
0.406887
0.406205
0.405525
0.404845
0.404166
0.403488
0.402811
0.402135
0.40146
0.400786
0.400114
0.399442
0.398771
0.398102
0.397433
0.396766
0.3961
0.395435
0.394771
0.394108
0.393447
0.392786
0.392127
0.39147
0.390813
0.390157
0.389503
0.38885
0.388198
0.387548
0.386898
0.38625
0.385602
0.384956
0.384311
0.383667
0.383024
0.382382
0.381741
0.3811
0.380461
0.379823
0.379185
0.378548
0.377912
0.377276
0.376641
0.376007
0.375373
0.37474
0.374107
0.373474
0.372842
0.37221
0.371578
0.370946
0.370315
0.444652
0.430844
0.416477
0.414217
0.413251
0.412447
0.411713
0.411007
0.410312
0.409624
0.408938
0.408253
0.40757
0.406887
0.406205
0.405525
0.404845
0.404166
0.403488
0.402811
0.402135
0.40146
0.400787
0.400114
0.399442
0.398771
0.398102
0.397433
0.396766
0.3961
0.395435
0.394771
0.394108
0.393447
0.392786
0.392127
0.39147
0.390813
0.390157
0.389503
0.38885
0.388198
0.387548
0.386898
0.38625
0.385602
0.384956
0.384311
0.383667
0.383024
0.382382
0.381741
0.381101
0.380461
0.379823
0.379185
0.378548
0.377912
0.377276
0.376641
0.376007
0.375373
0.37474
0.374107
0.373474
0.372842
0.37221
0.371578
0.370946
0.370315
0.444652
0.430844
0.416477
0.414217
0.413251
0.412447
0.411713
0.411007
0.410313
0.409624
0.408938
0.408253
0.40757
0.406887
0.406206
0.405525
0.404845
0.404166
0.403488
0.402811
0.402135
0.40146
0.400787
0.400114
0.399442
0.398771
0.398102
0.397433
0.396766
0.3961
0.395435
0.394771
0.394108
0.393447
0.392786
0.392127
0.39147
0.390813
0.390158
0.389503
0.38885
0.388198
0.387548
0.386898
0.38625
0.385602
0.384956
0.384311
0.383667
0.383024
0.382382
0.381741
0.381101
0.380461
0.379823
0.379185
0.378548
0.377912
0.377276
0.376641
0.376007
0.375373
0.37474
0.374107
0.373474
0.372842
0.37221
0.371578
0.370946
0.370315
0.444652
0.430844
0.416477
0.414217
0.413251
0.412447
0.411713
0.411007
0.410313
0.409624
0.408938
0.408253
0.40757
0.406887
0.406206
0.405525
0.404845
0.404166
0.403488
0.402811
0.402135
0.401461
0.400787
0.400114
0.399442
0.398771
0.398102
0.397433
0.396766
0.3961
0.395435
0.394771
0.394108
0.393447
0.392787
0.392127
0.39147
0.390813
0.390158
0.389503
0.38885
0.388198
0.387548
0.386898
0.38625
0.385602
0.384956
0.384311
0.383667
0.383024
0.382382
0.381741
0.381101
0.380461
0.379823
0.379185
0.378548
0.377912
0.377276
0.376641
0.376007
0.375373
0.37474
0.374107
0.373474
0.372842
0.37221
0.371578
0.370946
0.370315
0.444652
0.430844
0.416477
0.414217
0.413251
0.412447
0.411713
0.411007
0.410313
0.409624
0.408938
0.408253
0.40757
0.406887
0.406206
0.405525
0.404845
0.404166
0.403488
0.402811
0.402135
0.401461
0.400787
0.400114
0.399442
0.398771
0.398102
0.397433
0.396766
0.3961
0.395435
0.394771
0.394108
0.393447
0.392787
0.392127
0.39147
0.390813
0.390158
0.389503
0.38885
0.388198
0.387548
0.386898
0.38625
0.385602
0.384956
0.384311
0.383667
0.383024
0.382382
0.381741
0.381101
0.380461
0.379823
0.379185
0.378548
0.377912
0.377276
0.376641
0.376007
0.375373
0.37474
0.374107
0.373474
0.372842
0.37221
0.371578
0.370946
0.370315
0.444652
0.430844
0.416477
0.414217
0.413251
0.412447
0.411713
0.411007
0.410313
0.409624
0.408938
0.408253
0.40757
0.406887
0.406206
0.405525
0.404845
0.404166
0.403488
0.402811
0.402135
0.401461
0.400787
0.400114
0.399442
0.398771
0.398102
0.397433
0.396766
0.3961
0.395435
0.394771
0.394108
0.393447
0.392787
0.392127
0.39147
0.390813
0.390158
0.389503
0.38885
0.388198
0.387548
0.386898
0.38625
0.385602
0.384956
0.384311
0.383667
0.383024
0.382382
0.381741
0.381101
0.380461
0.379823
0.379185
0.378548
0.377912
0.377276
0.376641
0.376007
0.375373
0.37474
0.374107
0.373474
0.372842
0.37221
0.371578
0.370946
0.370315
0.444652
0.430844
0.416477
0.414217
0.413251
0.412447
0.411713
0.411007
0.410313
0.409624
0.408938
0.408253
0.40757
0.406887
0.406206
0.405525
0.404845
0.404166
0.403488
0.402811
0.402136
0.401461
0.400787
0.400114
0.399442
0.398771
0.398102
0.397433
0.396766
0.3961
0.395435
0.394771
0.394108
0.393447
0.392787
0.392128
0.39147
0.390813
0.390158
0.389503
0.38885
0.388198
0.387548
0.386898
0.38625
0.385602
0.384956
0.384311
0.383667
0.383024
0.382382
0.381741
0.381101
0.380461
0.379823
0.379185
0.378548
0.377912
0.377276
0.376641
0.376007
0.375373
0.37474
0.374107
0.373474
0.372842
0.37221
0.371578
0.370946
0.370315
0.444652
0.430844
0.416477
0.414217
0.413251
0.412447
0.411713
0.411007
0.410313
0.409624
0.408938
0.408253
0.40757
0.406887
0.406206
0.405525
0.404845
0.404166
0.403488
0.402811
0.402136
0.401461
0.400787
0.400114
0.399442
0.398771
0.398102
0.397433
0.396766
0.3961
0.395435
0.394771
0.394108
0.393447
0.392787
0.392128
0.39147
0.390813
0.390158
0.389503
0.38885
0.388198
0.387548
0.386898
0.38625
0.385602
0.384956
0.384311
0.383667
0.383024
0.382382
0.381741
0.381101
0.380461
0.379823
0.379185
0.378548
0.377912
0.377276
0.376641
0.376007
0.375373
0.37474
0.374107
0.373474
0.372842
0.37221
0.371578
0.370946
0.370315
0.444652
0.430844
0.416477
0.414217
0.413251
0.412447
0.411713
0.411007
0.410313
0.409624
0.408938
0.408253
0.40757
0.406887
0.406206
0.405525
0.404845
0.404166
0.403488
0.402811
0.402136
0.401461
0.400787
0.400114
0.399442
0.398771
0.398102
0.397433
0.396766
0.3961
0.395435
0.394771
0.394108
0.393447
0.392787
0.392128
0.39147
0.390813
0.390158
0.389503
0.38885
0.388198
0.387548
0.386898
0.38625
0.385602
0.384956
0.384311
0.383667
0.383024
0.382382
0.381741
0.381101
0.380461
0.379823
0.379185
0.378548
0.377912
0.377276
0.376641
0.376007
0.375373
0.37474
0.374107
0.373474
0.372842
0.37221
0.371578
0.370946
0.370315
0.444652
0.430844
0.416477
0.414217
0.413251
0.412447
0.411713
0.411007
0.410313
0.409624
0.408938
0.408253
0.40757
0.406887
0.406206
0.405525
0.404845
0.404166
0.403488
0.402811
0.402136
0.401461
0.400787
0.400114
0.399442
0.398771
0.398102
0.397433
0.396766
0.3961
0.395435
0.394771
0.394108
0.393447
0.392787
0.392128
0.39147
0.390813
0.390158
0.389503
0.38885
0.388198
0.387548
0.386898
0.38625
0.385602
0.384956
0.384311
0.383667
0.383024
0.382382
0.381741
0.381101
0.380461
0.379823
0.379185
0.378548
0.377912
0.377276
0.376641
0.376007
0.375373
0.37474
0.374107
0.373474
0.372842
0.37221
0.371578
0.370946
0.370315
0.444652
0.430844
0.416477
0.414217
0.413251
0.412447
0.411713
0.411007
0.410313
0.409624