/*--------------------------------*- C++ -*----------------------------------*\
  =========                 |
  \\      /  F ield         | OpenFOAM: The Open Source CFD Toolbox
   \\    /   O peration     | Website:  https://openfoam.org
    \\  /    A nd           | Version:  13
     \\/     M anipulation  |
\*---------------------------------------------------------------------------*/
FoamFile
{
    format      ascii;
    class       volScalarField;
    location    "35";
    object      nut;
}
// * * * * * * * * * * * * * * * * * * * * * * * * * * * * * * * * * * * * * //

dimensions      [0 2 -1 0 0 0 0];

internalField   nonuniform List<scalar> 
315000
(
3.88766e-13
1.01608e-10
2.31261e-09
4.12896e-09
5.94464e-09
7.75485e-09
9.55657e-09
1.13467e-08
1.31217e-08
1.48768e-08
1.66068e-08
1.8306e-08
1.99682e-08
2.15872e-08
2.31572e-08
2.46724e-08
2.61275e-08
2.75179e-08
2.88396e-08
3.00891e-08
3.12635e-08
3.23608e-08
3.33794e-08
3.43181e-08
3.51765e-08
3.59544e-08
3.6652e-08
3.72696e-08
3.78079e-08
3.82675e-08
3.86492e-08
3.89537e-08
3.91815e-08
3.93331e-08
3.9409e-08
3.94092e-08
3.93338e-08
3.91826e-08
3.89552e-08
3.86512e-08
3.827e-08
3.78109e-08
3.72733e-08
3.66563e-08
3.59596e-08
3.51826e-08
3.43252e-08
3.33875e-08
3.23702e-08
3.12742e-08
3.01011e-08
2.88531e-08
2.75329e-08
2.61439e-08
2.46903e-08
2.31765e-08
2.16079e-08
1.99901e-08
1.83289e-08
1.66307e-08
1.49012e-08
1.31465e-08
1.13716e-08
9.58095e-09
7.77823e-09
5.96623e-09
4.14754e-09
2.326e-09
1.02384e-10
3.9216e-13
9.70812e-12
2.57985e-09
5.74692e-07
1.01336e-06
1.43591e-06
1.84401e-06
2.23886e-06
2.62114e-06
2.99116e-06
3.34891e-06
3.69419e-06
4.02666e-06
4.3459e-06
4.65148e-06
4.94302e-06
5.22014e-06
5.48256e-06
5.73007e-06
5.96252e-06
6.17984e-06
6.38205e-06
6.56922e-06
6.7415e-06
6.89905e-06
7.04212e-06
7.17096e-06
7.28582e-06
7.387e-06
7.47477e-06
7.5494e-06
7.61116e-06
7.66026e-06
7.6969e-06
7.72125e-06
7.7334e-06
7.73342e-06
7.72131e-06
7.69701e-06
7.66041e-06
7.61136e-06
7.54966e-06
7.47509e-06
7.38739e-06
7.2863e-06
7.17153e-06
7.04281e-06
6.89987e-06
6.74244e-06
6.57032e-06
6.3833e-06
6.18126e-06
5.96412e-06
5.73186e-06
5.48454e-06
5.22231e-06
4.94537e-06
4.65402e-06
4.3486e-06
4.02951e-06
3.69717e-06
3.35198e-06
2.99426e-06
2.62423e-06
2.24186e-06
1.84684e-06
1.43843e-06
1.01542e-06
5.76064e-07
2.5871e-09
9.73713e-12
3.91772e-11
1.0427e-08
5.16328e-06
8.2707e-06
1.09794e-05
1.34208e-05
1.56644e-05
1.77508e-05
1.97052e-05
2.15436e-05
2.32769e-05
2.49124e-05
2.64553e-05
2.79095e-05
2.9278e-05
3.05633e-05
3.17675e-05
3.28927e-05
3.39405e-05
3.49129e-05
3.58117e-05
3.66386e-05
3.73957e-05
3.80847e-05
3.87076e-05
3.92662e-05
3.97623e-05
4.01974e-05
4.05732e-05
4.08915e-05
4.11536e-05
4.13612e-05
4.15155e-05
4.16177e-05
4.16686e-05
4.16686e-05
4.16177e-05
4.15155e-05
4.13613e-05
4.11537e-05
4.08917e-05
4.05736e-05
4.01979e-05
3.9763e-05
3.92672e-05
3.87089e-05
3.80862e-05
3.73975e-05
3.66408e-05
3.58142e-05
3.49159e-05
3.39439e-05
3.28965e-05
3.17719e-05
3.05682e-05
2.92834e-05
2.79154e-05
2.64617e-05
2.49193e-05
2.32843e-05
2.15514e-05
1.97132e-05
1.7759e-05
1.56726e-05
1.34288e-05
1.0987e-05
8.27734e-06
5.1683e-06
1.04399e-08
3.92277e-11
5.95714e-11
1.5863e-08
7.41471e-06
1.15299e-05
1.5047e-05
1.81785e-05
2.10311e-05
2.36656e-05
2.61187e-05
2.84146e-05
3.05694e-05
3.25943e-05
3.44976e-05
3.62856e-05
3.79634e-05
3.95352e-05
4.10046e-05
4.23749e-05
4.36488e-05
4.48289e-05
4.59177e-05
4.69176e-05
4.78308e-05
4.86595e-05
4.94138e-05
5.00939e-05
5.07001e-05
5.12331e-05
5.16939e-05
5.20842e-05
5.24056e-05
5.26598e-05
5.28486e-05
5.29735e-05
5.30356e-05
5.30356e-05
5.29734e-05
5.28485e-05
5.26596e-05
5.24054e-05
5.20841e-05
5.16939e-05
5.12332e-05
5.07004e-05
5.00944e-05
4.94144e-05
4.86601e-05
4.78315e-05
4.69184e-05
4.59186e-05
4.48299e-05
4.36499e-05
4.23762e-05
4.10062e-05
3.9537e-05
3.79655e-05
3.6288e-05
3.45002e-05
3.25972e-05
3.05726e-05
2.84181e-05
2.61224e-05
2.36693e-05
2.1035e-05
1.81823e-05
1.50507e-05
1.15332e-05
7.41735e-06
1.58709e-08
5.96032e-11
7.31771e-11
1.94962e-08
8.8186e-06
1.35125e-05
1.74962e-05
2.10299e-05
2.42411e-05
2.72011e-05
2.99533e-05
3.25256e-05
3.49368e-05
3.72001e-05
3.93254e-05
4.132e-05
4.31901e-05
4.49405e-05
4.65747e-05
4.80955e-05
4.95052e-05
5.08062e-05
5.20002e-05
5.30907e-05
5.40722e-05
5.50009e-05
4.73409e-05
4.76854e-05
4.79985e-05
4.82776e-05
4.85217e-05
4.87306e-05
4.89043e-05
4.9043e-05
4.91469e-05
4.92161e-05
4.92506e-05
4.92506e-05
4.9216e-05
4.91468e-05
4.90429e-05
4.89042e-05
4.87304e-05
4.85215e-05
4.82774e-05
4.79984e-05
4.76852e-05
4.73407e-05
5.50005e-05
5.4072e-05
5.30907e-05
5.20005e-05
5.08066e-05
4.95055e-05
4.80957e-05
4.6575e-05
4.49409e-05
4.31906e-05
4.13206e-05
3.93261e-05
3.72011e-05
3.49379e-05
3.25268e-05
2.99547e-05
2.72026e-05
2.42426e-05
2.10315e-05
1.74978e-05
1.3514e-05
8.81987e-06
1.95007e-08
7.31961e-11
8.1224e-11
2.16489e-08
9.62011e-06
1.46311e-05
1.88717e-05
2.26284e-05
2.60398e-05
2.91831e-05
3.21048e-05
3.48349e-05
3.73936e-05
3.9795e-05
4.20498e-05
4.41657e-05
4.61489e-05
4.80035e-05
4.97323e-05
5.13385e-05
5.28264e-05
5.41968e-05
4.71889e-05
4.77477e-05
4.82667e-05
4.87459e-05
4.91835e-05
4.958e-05
4.99358e-05
5.02512e-05
5.05264e-05
5.07617e-05
5.09575e-05
5.11138e-05
5.12308e-05
5.13088e-05
5.13477e-05
5.13477e-05
5.13086e-05
5.12306e-05
5.11135e-05
5.09571e-05
5.07613e-05
5.05259e-05
5.02506e-05
4.99352e-05
4.95794e-05
4.91829e-05
4.87454e-05
4.82664e-05
4.77474e-05
4.71886e-05
5.41964e-05
5.28264e-05
5.13384e-05
4.9732e-05
4.80034e-05
4.61489e-05
4.41658e-05
4.20499e-05
3.97953e-05
3.7394e-05
3.48354e-05
3.21054e-05
2.91838e-05
2.60406e-05
2.26293e-05
1.88726e-05
1.4632e-05
9.62088e-06
2.16521e-08
8.12382e-11
8.54682e-11
2.27865e-08
1.00361e-05
1.52088e-05
1.95813e-05
2.34532e-05
2.69689e-05
3.02083e-05
3.322e-05
3.60347e-05
3.86735e-05
4.11511e-05
4.34782e-05
4.5663e-05
4.7711e-05
4.96255e-05
5.141e-05
5.30731e-05
5.46371e-05
4.74622e-05
4.81103e-05
4.8708e-05
4.92602e-05
4.97684e-05
5.0233e-05
5.06545e-05
5.10329e-05
5.13686e-05
5.16617e-05
5.19126e-05
5.21213e-05
5.2288e-05
5.24129e-05
5.24961e-05
5.25377e-05
5.25377e-05
5.2496e-05
5.24128e-05
5.22878e-05
5.2121e-05
5.19123e-05
5.16614e-05
5.13682e-05
5.10325e-05
5.06541e-05
5.02326e-05
4.97679e-05
4.92598e-05
4.87076e-05
4.811e-05
4.74619e-05
5.46365e-05
5.3073e-05
5.141e-05
4.96255e-05
4.77111e-05
4.56631e-05
4.34785e-05
4.11515e-05
3.8674e-05
3.60354e-05
3.32207e-05
3.02092e-05
2.69697e-05
2.34541e-05
1.95822e-05
1.52097e-05
1.00369e-05
2.27898e-08
8.54826e-11
8.74782e-11
2.33263e-08
1.02321e-05
1.54806e-05
1.99153e-05
2.3842e-05
2.74078e-05
3.06939e-05
3.37494e-05
3.66058e-05
3.92844e-05
4.18002e-05
4.41645e-05
4.6386e-05
4.84708e-05
5.04217e-05
5.22387e-05
5.39174e-05
4.72189e-05
4.79196e-05
4.85776e-05
4.91912e-05
4.97601e-05
5.0284e-05
5.07633e-05
5.11982e-05
5.15888e-05
5.19355e-05
5.22383e-05
5.24976e-05
5.27134e-05
5.28858e-05
5.30151e-05
5.31012e-05
5.31442e-05
5.31442e-05
5.31011e-05
5.3015e-05
5.28857e-05
5.27132e-05
5.24974e-05
5.22381e-05
5.19353e-05
5.15886e-05
5.1198e-05
5.07631e-05
5.02838e-05
4.97599e-05
4.91911e-05
4.85775e-05
4.79194e-05
4.72186e-05
5.39175e-05
5.22391e-05
5.04221e-05
4.84712e-05
4.63866e-05
4.41652e-05
4.18011e-05
3.92854e-05
3.66069e-05
3.37506e-05
3.06951e-05
2.74091e-05
2.38433e-05
1.99166e-05
1.54818e-05
1.02331e-05
2.33302e-08
8.74946e-11
8.83233e-11
2.3554e-08
1.03147e-05
1.55952e-05
2.00564e-05
2.40066e-05
2.7594e-05
3.09004e-05
3.39754e-05
3.68504e-05
3.9547e-05
4.20802e-05
4.44615e-05
4.66999e-05
4.88018e-05
5.07716e-05
5.26113e-05
5.43173e-05
4.74047e-05
4.81172e-05
4.87856e-05
4.94084e-05
4.99855e-05
5.0517e-05
5.10032e-05
5.14444e-05
5.18409e-05
5.21928e-05
5.25003e-05
5.27635e-05
5.29827e-05
5.3158e-05
5.32893e-05
5.33768e-05
5.34205e-05
5.34205e-05
5.33768e-05
5.32892e-05
5.31579e-05
5.29827e-05
5.27635e-05
5.25002e-05
5.21927e-05
5.18408e-05
5.14443e-05
5.10031e-05
5.05169e-05
4.99855e-05
4.94084e-05
4.87856e-05
4.81173e-05
4.74049e-05
5.43178e-05
5.26119e-05
5.07723e-05
4.88026e-05
4.67009e-05
4.44627e-05
4.20816e-05
3.95484e-05
3.6852e-05
3.3977e-05
3.09021e-05
2.75957e-05
2.40083e-05
2.00579e-05
1.55967e-05
1.03159e-05
2.35584e-08
8.8342e-11
8.86526e-11
2.36428e-08
1.03469e-05
1.564e-05
2.01116e-05
2.4071e-05
2.76669e-05
3.09813e-05
3.40637e-05
3.69457e-05
3.96488e-05
4.21879e-05
4.45744e-05
4.68171e-05
4.89225e-05
5.08962e-05
5.27443e-05
5.44683e-05
4.74767e-05
4.81966e-05
4.88703e-05
4.94969e-05
5.00772e-05
5.06117e-05
5.11007e-05
5.15446e-05
5.19435e-05
5.22976e-05
5.2607e-05
5.2872e-05
5.30927e-05
5.3269e-05
5.34012e-05
5.34893e-05
5.35334e-05
5.35334e-05
5.34893e-05
5.34012e-05
5.3269e-05
5.30926e-05
5.2872e-05
5.2607e-05
5.22975e-05
5.19435e-05
5.15446e-05
5.11008e-05
5.06118e-05
5.00773e-05
4.94971e-05
4.88704e-05
4.81968e-05
4.74769e-05
5.44691e-05
5.27452e-05
5.08972e-05
4.89236e-05
4.68184e-05
4.4576e-05
4.21896e-05
3.96505e-05
3.69476e-05
3.40656e-05
3.09833e-05
2.76689e-05
2.40729e-05
2.01134e-05
1.56417e-05
1.03483e-05
2.36477e-08
8.86728e-11
8.87713e-11
2.36749e-08
1.03586e-05
1.56563e-05
2.01317e-05
2.40946e-05
2.76937e-05
3.10112e-05
3.40966e-05
3.69815e-05
3.96875e-05
4.22294e-05
4.46188e-05
4.68642e-05
4.89725e-05
5.09492e-05
5.28006e-05
5.45283e-05
4.75045e-05
4.8226e-05
4.89012e-05
4.95292e-05
5.01107e-05
5.06464e-05
5.11365e-05
5.15814e-05
5.19812e-05
5.23361e-05
5.26463e-05
5.2912e-05
5.31332e-05
5.331e-05
5.34425e-05
5.35308e-05
5.3575e-05
5.3575e-05
5.35308e-05
5.34425e-05
5.331e-05
5.31332e-05
5.2912e-05
5.26463e-05
5.23361e-05
5.19812e-05
5.15814e-05
5.11366e-05
5.06465e-05
5.01109e-05
4.95294e-05
4.89014e-05
4.82263e-05
4.75048e-05
5.45292e-05
5.28017e-05
5.09505e-05
4.89739e-05
4.68658e-05
4.46204e-05
4.22312e-05
3.96894e-05
3.69835e-05
3.40986e-05
3.10133e-05
2.76958e-05
2.40967e-05
2.01336e-05
1.5658e-05
1.03601e-05
2.368e-08
8.87923e-11
8.88103e-11
2.36855e-08
1.03625e-05
1.56617e-05
2.01384e-05
2.41025e-05
2.77027e-05
3.10212e-05
3.41076e-05
3.69936e-05
3.97005e-05
4.22436e-05
4.46339e-05
4.68804e-05
4.89897e-05
5.09675e-05
5.28199e-05
5.45487e-05
4.75139e-05
4.82359e-05
4.89115e-05
4.954e-05
5.01219e-05
5.0658e-05
5.11485e-05
5.15937e-05
5.19938e-05
5.2349e-05
5.26595e-05
5.29254e-05
5.31467e-05
5.33237e-05
5.34564e-05
5.35448e-05
5.3589e-05
5.3589e-05
5.35448e-05
5.34564e-05
5.33237e-05
5.31467e-05
5.29254e-05
5.26595e-05
5.23491e-05
5.19939e-05
5.15938e-05
5.11486e-05
5.06581e-05
5.01221e-05
4.95402e-05
4.89118e-05
4.82362e-05
4.75143e-05
5.45496e-05
5.28211e-05
5.09688e-05
4.89912e-05
4.6882e-05
4.46357e-05
4.22454e-05
3.97025e-05
3.69957e-05
3.41097e-05
3.10234e-05
2.77048e-05
2.41046e-05
2.01403e-05
1.56635e-05
1.03639e-05
2.36907e-08
8.88317e-11
8.88219e-11
2.36886e-08
1.03636e-05
1.56633e-05
2.01404e-05
2.41048e-05
2.77054e-05
3.10242e-05
3.4111e-05
3.69973e-05
3.97045e-05
4.22479e-05
4.46385e-05
4.68854e-05
4.8995e-05
5.09731e-05
5.28258e-05
5.45549e-05
4.75168e-05
4.82389e-05
4.89147e-05
4.95433e-05
5.01254e-05
5.06615e-05
5.11521e-05
5.15974e-05
5.19977e-05
5.2353e-05
5.26635e-05
5.29295e-05
5.31509e-05
5.33279e-05
5.34606e-05
5.35491e-05
5.35933e-05
5.35933e-05
5.35491e-05
5.34606e-05
5.33279e-05
5.31509e-05
5.29295e-05
5.26636e-05
5.2353e-05
5.19977e-05
5.15975e-05
5.11523e-05
5.06617e-05
5.01256e-05
4.95435e-05
4.8915e-05
4.82393e-05
4.75172e-05
5.45559e-05
5.2827e-05
5.09744e-05
4.89965e-05
4.6887e-05
4.46403e-05
4.22498e-05
3.97065e-05
3.69994e-05
3.41131e-05
3.10264e-05
2.77076e-05
2.41069e-05
2.01424e-05
1.56651e-05
1.03651e-05
2.36939e-08
8.88435e-11
8.88251e-11
2.36895e-08
1.0364e-05
1.56638e-05
2.01409e-05
2.41055e-05
2.77061e-05
3.10251e-05
3.41119e-05
3.69983e-05
3.97056e-05
4.22491e-05
4.46398e-05
4.68867e-05
4.89965e-05
5.09747e-05
5.28275e-05
5.45567e-05
4.75177e-05
4.82398e-05
4.89156e-05
4.95442e-05
5.01263e-05
5.06625e-05
5.11532e-05
5.15985e-05
5.19987e-05
5.23541e-05
5.26647e-05
5.29306e-05
5.31521e-05
5.33291e-05
5.34618e-05
5.35503e-05
5.35945e-05
5.35945e-05
5.35503e-05
5.34618e-05
5.33291e-05
5.31521e-05
5.29307e-05
5.26647e-05
5.23542e-05
5.19988e-05
5.15986e-05
5.11533e-05
5.06627e-05
5.01265e-05
4.95445e-05
4.89159e-05
4.82401e-05
4.7518e-05
5.45576e-05
5.28287e-05
5.0976e-05
4.8998e-05
4.68884e-05
4.46416e-05
4.2251e-05
3.97077e-05
3.70004e-05
3.41141e-05
3.10273e-05
2.77083e-05
2.41076e-05
2.01429e-05
1.56656e-05
1.03654e-05
2.36947e-08
8.88467e-11
8.88259e-11
2.36897e-08
1.03641e-05
1.56639e-05
2.01411e-05
2.41056e-05
2.77063e-05
3.10253e-05
3.41121e-05
3.69985e-05
3.97059e-05
4.22494e-05
4.46402e-05
4.68871e-05
4.89968e-05
5.09751e-05
5.28279e-05
5.45571e-05
4.75179e-05
4.824e-05
4.89158e-05
4.95444e-05
5.01266e-05
5.06628e-05
5.11534e-05
5.15988e-05
5.1999e-05
5.23544e-05
5.2665e-05
5.29309e-05
5.31524e-05
5.33294e-05
5.34622e-05
5.35506e-05
5.35948e-05
5.35948e-05
5.35506e-05
5.34622e-05
5.33295e-05
5.31524e-05
5.2931e-05
5.2665e-05
5.23545e-05
5.19991e-05
5.15989e-05
5.11536e-05
5.0663e-05
5.01268e-05
4.95447e-05
4.89161e-05
4.82404e-05
4.75182e-05
5.45581e-05
5.28291e-05
5.09764e-05
4.89983e-05
4.68887e-05
4.4642e-05
4.22513e-05
3.9708e-05
3.70007e-05
3.41143e-05
3.10275e-05
2.77085e-05
2.41078e-05
2.01431e-05
1.56657e-05
1.03655e-05
2.3695e-08
8.88476e-11
8.88261e-11
2.36898e-08
1.03641e-05
1.56639e-05
2.01411e-05
2.41057e-05
2.77064e-05
3.10254e-05
3.41122e-05
3.69986e-05
3.9706e-05
4.22495e-05
4.46402e-05
4.68872e-05
4.89969e-05
5.09752e-05
5.2828e-05
5.45573e-05
4.75179e-05
4.82401e-05
4.89159e-05
4.95445e-05
5.01266e-05
5.06628e-05
5.11535e-05
5.15988e-05
5.19991e-05
5.23545e-05
5.26651e-05
5.2931e-05
5.31525e-05
5.33295e-05
5.34622e-05
5.35507e-05
5.35949e-05
5.35949e-05
5.35507e-05
5.34622e-05
5.33295e-05
5.31525e-05
5.29311e-05
5.26651e-05
5.23545e-05
5.19992e-05
5.1599e-05
5.11536e-05
5.0663e-05
5.01269e-05
4.95448e-05
4.89162e-05
4.82404e-05
4.75183e-05
5.45582e-05
5.28292e-05
5.09765e-05
4.89984e-05
4.68888e-05
4.4642e-05
4.22514e-05
3.9708e-05
3.70007e-05
3.41144e-05
3.10276e-05
2.77086e-05
2.41078e-05
2.01431e-05
1.56657e-05
1.03655e-05
2.3695e-08
8.88477e-11
8.88262e-11
2.36898e-08
1.03641e-05
1.56639e-05
2.01411e-05
2.41057e-05
2.77064e-05
3.10254e-05
3.41122e-05
3.69986e-05
3.9706e-05
4.22495e-05
4.46403e-05
4.68872e-05
4.89969e-05
5.09752e-05
5.28281e-05
5.45573e-05
4.75179e-05
4.82401e-05
4.89159e-05
4.95445e-05
5.01267e-05
5.06629e-05
5.11535e-05
5.15989e-05
5.19991e-05
5.23545e-05
5.26651e-05
5.2931e-05
5.31525e-05
5.33295e-05
5.34622e-05
5.35507e-05
5.35949e-05
5.35949e-05
5.35507e-05
5.34623e-05
5.33296e-05
5.31525e-05
5.29311e-05
5.26651e-05
5.23545e-05
5.19992e-05
5.1599e-05
5.11537e-05
5.0663e-05
5.01269e-05
4.95448e-05
4.89162e-05
4.82404e-05
4.75183e-05
5.45582e-05
5.28292e-05
5.09765e-05
4.89985e-05
4.68888e-05
4.46421e-05
4.22514e-05
3.9708e-05
3.70007e-05
3.41144e-05
3.10276e-05
2.77086e-05
2.41078e-05
2.01431e-05
1.56657e-05
1.03656e-05
2.3695e-08
8.88478e-11
8.88262e-11
2.36898e-08
1.03641e-05
1.56639e-05
2.01411e-05
2.41057e-05
2.77064e-05
3.10254e-05
3.41122e-05
3.69986e-05
3.9706e-05
4.22495e-05
4.46403e-05
4.68872e-05
4.8997e-05
5.09752e-05
5.28281e-05
5.45573e-05
4.75179e-05
4.82401e-05
4.89159e-05
4.95445e-05
5.01267e-05
5.06629e-05
5.11535e-05
5.15989e-05
5.19991e-05
5.23545e-05
5.26651e-05
5.2931e-05
5.31525e-05
5.33295e-05
5.34623e-05
5.35507e-05
5.35949e-05
5.35949e-05
5.35507e-05
5.34623e-05
5.33296e-05
5.31525e-05
5.29311e-05
5.26651e-05
5.23545e-05
5.19992e-05
5.1599e-05
5.11537e-05
5.0663e-05
5.01269e-05
4.95448e-05
4.89162e-05
4.82404e-05
4.75183e-05
5.45582e-05
5.28292e-05
5.09765e-05
4.89985e-05
4.68889e-05
4.46421e-05
4.22514e-05
3.9708e-05
3.70007e-05
3.41144e-05
3.10276e-05
2.77086e-05
2.41078e-05
2.01431e-05
1.56657e-05
1.03656e-05
2.3695e-08
8.88478e-11
8.88262e-11
2.36898e-08
1.03641e-05
1.56639e-05
2.01411e-05
2.41057e-05
2.77064e-05
3.10254e-05
3.41122e-05
3.69986e-05
3.9706e-05
4.22495e-05
4.46403e-05
4.68872e-05
4.8997e-05
5.09752e-05
5.28281e-05
5.45573e-05
4.75179e-05
4.82401e-05
4.89159e-05
4.95445e-05
5.01267e-05
5.06629e-05
5.11535e-05
5.15989e-05
5.19991e-05
5.23545e-05
5.26651e-05
5.2931e-05
5.31525e-05
5.33295e-05
5.34623e-05
5.35507e-05
5.35949e-05
5.35949e-05
5.35507e-05
5.34623e-05
5.33296e-05
5.31525e-05
5.29311e-05
5.26651e-05
5.23545e-05
5.19992e-05
5.1599e-05
5.11537e-05
5.0663e-05
5.01269e-05
4.95448e-05
4.89162e-05
4.82404e-05
4.75183e-05
5.45582e-05
5.28292e-05
5.09765e-05
4.89985e-05
4.68889e-05
4.46421e-05
4.22514e-05
3.9708e-05
3.70007e-05
3.41144e-05
3.10276e-05
2.77086e-05
2.41078e-05
2.01431e-05
1.56657e-05
1.03656e-05
2.3695e-08
8.88478e-11
8.88262e-11
2.36898e-08
1.03641e-05
1.56639e-05
2.01411e-05
2.41057e-05
2.77064e-05
3.10254e-05
3.41122e-05
3.69986e-05
3.9706e-05
4.22495e-05
4.46403e-05
4.68872e-05
4.8997e-05
5.09752e-05
5.28281e-05
5.45573e-05
4.75179e-05
4.82401e-05
4.89159e-05
4.95445e-05
5.01267e-05
5.06629e-05
5.11535e-05
5.15989e-05
5.19991e-05
5.23545e-05
5.26651e-05
5.2931e-05
5.31525e-05
5.33295e-05
5.34623e-05
5.35507e-05
5.35949e-05
5.35949e-05
5.35507e-05
5.34623e-05
5.33296e-05
5.31525e-05
5.29311e-05
5.26651e-05
5.23545e-05
5.19992e-05
5.1599e-05
5.11537e-05
5.0663e-05
5.01269e-05
4.95448e-05
4.89162e-05
4.82404e-05
4.75183e-05
5.45582e-05
5.28292e-05
5.09765e-05
4.89985e-05
4.68889e-05
4.46421e-05
4.22514e-05
3.9708e-05
3.70007e-05
3.41144e-05
3.10276e-05
2.77086e-05
2.41078e-05
2.01431e-05
1.56657e-05
1.03656e-05
2.3695e-08
8.88478e-11
8.88262e-11
2.36898e-08
1.03641e-05
1.56639e-05
2.01411e-05
2.41057e-05
2.77064e-05
3.10254e-05
3.41122e-05
3.69986e-05
3.9706e-05
4.22495e-05
4.46403e-05
4.68872e-05
4.8997e-05
5.09752e-05
5.28281e-05
5.45573e-05
4.75179e-05
4.82401e-05
4.89159e-05
4.95445e-05
5.01267e-05
5.06629e-05
5.11535e-05
5.15989e-05
5.19991e-05
5.23545e-05
5.26651e-05
5.2931e-05
5.31525e-05
5.33295e-05
5.34623e-05
5.35507e-05
5.35949e-05
5.35949e-05
5.35507e-05
5.34623e-05
5.33296e-05
5.31525e-05
5.29311e-05
5.26651e-05
5.23545e-05
5.19992e-05
5.1599e-05
5.11537e-05
5.0663e-05
5.01269e-05
4.95448e-05
4.89162e-05
4.82404e-05
4.75183e-05
5.45582e-05
5.28292e-05
5.09765e-05
4.89985e-05
4.68889e-05
4.46421e-05
4.22514e-05
3.9708e-05
3.70007e-05
3.41144e-05
3.10276e-05
2.77086e-05
2.41078e-05
2.01431e-05
1.56657e-05
1.03656e-05
2.3695e-08
8.88478e-11
8.88262e-11
2.36898e-08
1.03641e-05
1.56639e-05
2.01411e-05
2.41057e-05
2.77064e-05
3.10254e-05
3.41122e-05
3.69986e-05
3.9706e-05
4.22495e-05
4.46403e-05
4.68872e-05
4.8997e-05
5.09752e-05
5.28281e-05
5.45573e-05
4.75179e-05
4.82401e-05
4.89159e-05
4.95445e-05
5.01267e-05
5.06629e-05
5.11535e-05
5.15989e-05
5.19991e-05
5.23545e-05
5.26651e-05
5.2931e-05
5.31525e-05
5.33295e-05
5.34623e-05
5.35507e-05
5.35949e-05
5.35949e-05
5.35507e-05
5.34623e-05
5.33296e-05
5.31525e-05
5.29311e-05
5.26651e-05
5.23545e-05
5.19992e-05
5.1599e-05
5.11537e-05
5.0663e-05
5.01269e-05
4.95448e-05
4.89162e-05
4.82404e-05
4.75183e-05
5.45582e-05
5.28292e-05
5.09765e-05
4.89985e-05
4.68889e-05
4.46421e-05
4.22514e-05
3.9708e-05
3.70007e-05
3.41144e-05
3.10276e-05
2.77086e-05
2.41078e-05
2.01431e-05
1.56657e-05
1.03656e-05
2.3695e-08
8.88478e-11
8.88262e-11
2.36898e-08
1.03641e-05
1.56639e-05
2.01411e-05
2.41057e-05
2.77064e-05
3.10254e-05
3.41122e-05
3.69986e-05
3.9706e-05
4.22495e-05
4.46403e-05
4.68872e-05
4.8997e-05
5.09752e-05
5.28281e-05
5.45573e-05
4.75179e-05
4.82401e-05
4.89159e-05
4.95445e-05
5.01267e-05
5.06629e-05
5.11535e-05
5.15989e-05
5.19991e-05
5.23545e-05
5.26651e-05
5.2931e-05
5.31525e-05
5.33295e-05
5.34623e-05
5.35507e-05
5.35949e-05
5.35949e-05
5.35507e-05
5.34623e-05
5.33296e-05
5.31525e-05
5.29311e-05
5.26651e-05
5.23545e-05
5.19992e-05
5.1599e-05
5.11537e-05
5.0663e-05
5.01269e-05
4.95448e-05
4.89162e-05
4.82404e-05
4.75183e-05
5.45582e-05
5.28292e-05
5.09765e-05
4.89985e-05
4.68889e-05
4.46421e-05
4.22514e-05
3.9708e-05
3.70007e-05
3.41144e-05
3.10276e-05
2.77086e-05
2.41078e-05
2.01431e-05
1.56657e-05
1.03656e-05
2.3695e-08
8.88478e-11
8.88262e-11
2.36898e-08
1.03641e-05
1.56639e-05
2.01411e-05
2.41057e-05
2.77064e-05
3.10254e-05
3.41122e-05
3.69986e-05
3.9706e-05
4.22495e-05
4.46403e-05
4.68872e-05
4.8997e-05
5.09752e-05
5.28281e-05
5.45573e-05
4.75179e-05
4.82401e-05
4.89159e-05
4.95445e-05
5.01267e-05
5.06629e-05
5.11535e-05
5.15989e-05
5.19991e-05
5.23545e-05
5.26651e-05
5.2931e-05
5.31525e-05
5.33295e-05
5.34623e-05
5.35507e-05
5.35949e-05
5.35949e-05
5.35507e-05
5.34623e-05
5.33296e-05
5.31525e-05
5.29311e-05
5.26651e-05
5.23545e-05
5.19992e-05
5.1599e-05
5.11537e-05
5.0663e-05
5.01269e-05
4.95448e-05
4.89162e-05
4.82404e-05
4.75183e-05
5.45582e-05
5.28292e-05
5.09765e-05
4.89985e-05
4.68889e-05
4.46421e-05
4.22514e-05
3.9708e-05
3.70007e-05
3.41144e-05
3.10276e-05
2.77086e-05
2.41078e-05
2.01431e-05
1.56657e-05
1.03656e-05
2.3695e-08
8.88478e-11
8.88262e-11
2.36898e-08
1.03641e-05
1.56639e-05
2.01411e-05
2.41057e-05
2.77064e-05
3.10254e-05
3.41122e-05
3.69986e-05
3.9706e-05
4.22495e-05
4.46403e-05
4.68872e-05
4.8997e-05
5.09752e-05
5.28281e-05
5.45573e-05
4.75179e-05
4.82401e-05
4.89159e-05
4.95445e-05
5.01267e-05
5.06629e-05
5.11535e-05
5.15989e-05
5.19991e-05
5.23545e-05
5.26651e-05
5.2931e-05
5.31525e-05
5.33295e-05
5.34623e-05
5.35507e-05
5.35949e-05
5.35949e-05
5.35507e-05
5.34623e-05
5.33296e-05
5.31525e-05
5.29311e-05
5.26651e-05
5.23545e-05
5.19992e-05
5.1599e-05
5.11537e-05
5.0663e-05
5.01269e-05
4.95448e-05
4.89162e-05
4.82404e-05
4.75183e-05
5.45582e-05
5.28292e-05
5.09765e-05
4.89985e-05
4.68889e-05
4.46421e-05
4.22514e-05
3.9708e-05
3.70007e-05
3.41144e-05
3.10276e-05
2.77086e-05
2.41078e-05
2.01431e-05
1.56657e-05
1.03656e-05
2.3695e-08
8.88478e-11
8.88262e-11
2.36898e-08
1.03641e-05
1.56639e-05
2.01411e-05
2.41057e-05
2.77064e-05
3.10254e-05
3.41122e-05
3.69986e-05
3.9706e-05
4.22495e-05
4.46403e-05
4.68872e-05
4.8997e-05
5.09752e-05
5.28281e-05
5.45573e-05
4.75179e-05
4.82401e-05
4.89159e-05
4.95445e-05
5.01267e-05
5.06629e-05
5.11535e-05
5.15989e-05
5.19991e-05
5.23545e-05
5.26651e-05
5.2931e-05
5.31525e-05
5.33295e-05
5.34623e-05
5.35507e-05
5.35949e-05
5.35949e-05
5.35507e-05
5.34623e-05
5.33296e-05
5.31525e-05
5.29311e-05
5.26651e-05
5.23545e-05
5.19992e-05
5.1599e-05
5.11537e-05
5.0663e-05
5.01269e-05
4.95448e-05
4.89162e-05
4.82404e-05
4.75183e-05
5.45582e-05
5.28292e-05
5.09765e-05
4.89985e-05
4.68889e-05
4.46421e-05
4.22514e-05
3.9708e-05
3.70007e-05
3.41144e-05
3.10276e-05
2.77086e-05
2.41078e-05
2.01431e-05
1.56657e-05
1.03656e-05
2.3695e-08
8.88478e-11
8.88262e-11
2.36898e-08
1.03641e-05
1.56639e-05
2.01411e-05
2.41057e-05
2.77064e-05
3.10254e-05
3.41122e-05
3.69986e-05
3.9706e-05
4.22495e-05
4.46403e-05
4.68872e-05
4.8997e-05
5.09752e-05
5.28281e-05
5.45573e-05
4.75179e-05
4.82401e-05
4.89159e-05
4.95445e-05
5.01267e-05
5.06629e-05
5.11535e-05
5.15989e-05
5.19991e-05
5.23545e-05
5.26651e-05
5.2931e-05
5.31525e-05
5.33295e-05
5.34623e-05
5.35507e-05
5.35949e-05
5.35949e-05
5.35507e-05
5.34623e-05
5.33296e-05
5.31525e-05
5.29311e-05
5.26651e-05
5.23545e-05
5.19992e-05
5.1599e-05
5.11537e-05
5.0663e-05
5.01269e-05
4.95448e-05
4.89162e-05
4.82404e-05
4.75183e-05
5.45582e-05
5.28292e-05
5.09765e-05
4.89985e-05
4.68889e-05
4.46421e-05
4.22514e-05
3.9708e-05
3.70007e-05
3.41144e-05
3.10276e-05
2.77086e-05
2.41078e-05
2.01431e-05
1.56657e-05
1.03656e-05
2.3695e-08
8.88478e-11
8.88262e-11
2.36898e-08
1.03641e-05
1.56639e-05
2.01411e-05
2.41057e-05
2.77064e-05
3.10254e-05
3.41122e-05
3.69986e-05
3.9706e-05
4.22495e-05
4.46403e-05
4.68872e-05
4.8997e-05
5.09752e-05
5.28281e-05
5.45573e-05
4.75179e-05
4.82401e-05
4.89159e-05
4.95445e-05
5.01267e-05
5.06629e-05
5.11535e-05
5.15989e-05
5.19991e-05
5.23545e-05
5.26651e-05
5.2931e-05
5.31525e-05
5.33295e-05
5.34623e-05
5.35507e-05
5.35949e-05
5.35949e-05
5.35507e-05
5.34623e-05
5.33296e-05
5.31525e-05
5.29311e-05
5.26651e-05
5.23545e-05
5.19992e-05
5.1599e-05
5.11537e-05
5.0663e-05
5.01269e-05
4.95448e-05
4.89162e-05
4.82404e-05
4.75183e-05
5.45582e-05
5.28292e-05
5.09765e-05
4.89985e-05
4.68889e-05
4.46421e-05
4.22514e-05
3.9708e-05
3.70007e-05
3.41144e-05
3.10276e-05
2.77086e-05
2.41078e-05
2.01431e-05
1.56657e-05
1.03656e-05
2.3695e-08
8.88478e-11
8.88262e-11
2.36898e-08
1.03641e-05
1.56639e-05
2.01411e-05
2.41057e-05
2.77064e-05
3.10254e-05
3.41122e-05
3.69986e-05
3.9706e-05
4.22495e-05
4.46403e-05
4.68872e-05
4.8997e-05
5.09752e-05
5.28281e-05
5.45573e-05
4.75179e-05
4.82401e-05
4.89159e-05
4.95445e-05
5.01267e-05
5.06629e-05
5.11535e-05
5.15989e-05
5.19991e-05
5.23545e-05
5.26651e-05
5.2931e-05
5.31525e-05
5.33295e-05
5.34623e-05
5.35507e-05
5.35949e-05
5.35949e-05
5.35507e-05
5.34623e-05
5.33296e-05
5.31525e-05
5.29311e-05
5.26651e-05
5.23545e-05
5.19992e-05
5.1599e-05
5.11537e-05
5.0663e-05
5.01269e-05
4.95448e-05
4.89162e-05
4.82404e-05
4.75183e-05
5.45582e-05
5.28292e-05
5.09765e-05
4.89985e-05
4.68889e-05
4.46421e-05
4.22514e-05
3.9708e-05
3.70007e-05
3.41144e-05
3.10276e-05
2.77086e-05
2.41078e-05
2.01431e-05
1.56657e-05
1.03656e-05
2.3695e-08
8.88478e-11
8.88262e-11
2.36898e-08
1.03641e-05
1.56639e-05
2.01411e-05
2.41057e-05
2.77064e-05
3.10254e-05
3.41122e-05
3.69986e-05
3.9706e-05
4.22495e-05
4.46403e-05
4.68872e-05
4.8997e-05
5.09752e-05
5.28281e-05
5.45573e-05
4.75179e-05
4.82401e-05
4.89159e-05
4.95445e-05
5.01267e-05
5.06629e-05
5.11535e-05
5.15989e-05
5.19991e-05
5.23545e-05
5.26651e-05
5.2931e-05
5.31525e-05
5.33295e-05
5.34623e-05
5.35507e-05
5.35949e-05
5.35949e-05
5.35507e-05
5.34623e-05
5.33296e-05
5.31525e-05
5.29311e-05
5.26651e-05
5.23545e-05
5.19992e-05
5.1599e-05
5.11537e-05
5.0663e-05
5.01269e-05
4.95448e-05
4.89162e-05
4.82404e-05
4.75183e-05
5.45582e-05
5.28292e-05
5.09765e-05
4.89985e-05
4.68889e-05
4.46421e-05
4.22514e-05
3.9708e-05
3.70007e-05
3.41144e-05
3.10276e-05
2.77086e-05
2.41078e-05
2.01431e-05
1.56657e-05
1.03656e-05
2.3695e-08
8.88478e-11
8.88262e-11
2.36898e-08
1.03641e-05
1.56639e-05
2.01411e-05
2.41057e-05
2.77064e-05
3.10254e-05
3.41122e-05
3.69986e-05
3.9706e-05
4.22495e-05
4.46403e-05
4.68872e-05
4.8997e-05
5.09752e-05
5.28281e-05
5.45573e-05
4.75179e-05
4.82401e-05
4.89159e-05
4.95445e-05
5.01267e-05
5.06629e-05
5.11535e-05
5.15989e-05
5.19991e-05
5.23545e-05
5.26651e-05
5.2931e-05
5.31525e-05
5.33295e-05
5.34623e-05
5.35507e-05
5.35949e-05
5.35949e-05
5.35507e-05
5.34623e-05
5.33296e-05
5.31525e-05
5.29311e-05
5.26651e-05
5.23545e-05
5.19992e-05
5.1599e-05
5.11537e-05
5.0663e-05
5.01269e-05
4.95448e-05
4.89162e-05
4.82404e-05
4.75183e-05
5.45582e-05
5.28292e-05
5.09765e-05
4.89985e-05
4.68889e-05
4.46421e-05
4.22514e-05
3.9708e-05
3.70007e-05
3.41144e-05
3.10276e-05
2.77086e-05
2.41078e-05
2.01431e-05
1.56657e-05
1.03656e-05
2.3695e-08
8.88478e-11
8.88262e-11
2.36898e-08
1.03641e-05
1.56639e-05
2.01411e-05
2.41057e-05
2.77064e-05
3.10254e-05
3.41122e-05
3.69986e-05
3.9706e-05
4.22495e-05
4.46403e-05
4.68872e-05
4.8997e-05
5.09752e-05
5.28281e-05
5.45573e-05
4.75179e-05
4.82401e-05
4.89159e-05
4.95445e-05
5.01267e-05
5.06629e-05
5.11535e-05
5.15989e-05
5.19991e-05
5.23545e-05
5.26651e-05
5.2931e-05
5.31525e-05
5.33295e-05
5.34623e-05
5.35507e-05
5.35949e-05
5.35949e-05
5.35507e-05
5.34623e-05
5.33296e-05
5.31525e-05
5.29311e-05
5.26651e-05
5.23545e-05
5.19992e-05
5.1599e-05
5.11537e-05
5.0663e-05
5.01269e-05
4.95448e-05
4.89162e-05
4.82404e-05
4.75183e-05
5.45582e-05
5.28292e-05
5.09765e-05
4.89985e-05
4.68889e-05
4.46421e-05
4.22514e-05
3.9708e-05
3.70007e-05
3.41144e-05
3.10276e-05
2.77086e-05
2.41078e-05
2.01431e-05
1.56657e-05
1.03656e-05
2.3695e-08
8.88478e-11
8.88262e-11
2.36898e-08
1.03641e-05
1.56639e-05
2.01411e-05
2.41057e-05
2.77064e-05
3.10254e-05
3.41122e-05
3.69986e-05
3.9706e-05
4.22495e-05
4.46403e-05
4.68872e-05
4.8997e-05
5.09752e-05
5.28281e-05
5.45573e-05
4.75179e-05
4.82401e-05
4.89159e-05
4.95445e-05
5.01267e-05
5.06629e-05
5.11535e-05
5.15989e-05
5.19991e-05
5.23545e-05
5.26651e-05
5.2931e-05
5.31525e-05
5.33295e-05
5.34623e-05
5.35507e-05
5.35949e-05
5.35949e-05
5.35507e-05
5.34623e-05
5.33296e-05
5.31525e-05
5.29311e-05
5.26651e-05
5.23545e-05
5.19992e-05
5.1599e-05
5.11537e-05
5.0663e-05
5.01269e-05
4.95448e-05
4.89162e-05
4.82404e-05
4.75183e-05
5.45582e-05
5.28292e-05
5.09765e-05
4.89985e-05
4.68889e-05
4.46421e-05
4.22514e-05
3.9708e-05
3.70007e-05
3.41144e-05
3.10276e-05
2.77086e-05
2.41078e-05
2.01431e-05
1.56657e-05
1.03656e-05
2.3695e-08
8.88478e-11
8.88262e-11
2.36898e-08
1.03641e-05
1.56639e-05
2.01411e-05
2.41057e-05
2.77064e-05
3.10254e-05
3.41122e-05
3.69986e-05
3.9706e-05
4.22495e-05
4.46403e-05
4.68872e-05
4.8997e-05
5.09752e-05
5.28281e-05
5.45573e-05
4.75179e-05
4.82401e-05
4.89159e-05
4.95445e-05
5.01267e-05
5.06629e-05
5.11535e-05
5.15989e-05
5.19991e-05
5.23545e-05
5.26651e-05
5.2931e-05
5.31525e-05
5.33295e-05
5.34623e-05
5.35507e-05
5.35949e-05
5.35949e-05
5.35507e-05
5.34623e-05
5.33296e-05
5.31525e-05
5.29311e-05
5.26651e-05
5.23545e-05
5.19992e-05
5.1599e-05
5.11537e-05
5.0663e-05
5.01269e-05
4.95448e-05
4.89162e-05
4.82404e-05
4.75183e-05
5.45582e-05
5.28292e-05
5.09765e-05
4.89985e-05
4.68889e-05
4.46421e-05
4.22514e-05
3.9708e-05
3.70007e-05
3.41144e-05
3.10276e-05
2.77086e-05
2.41078e-05
2.01431e-05
1.56657e-05
1.03656e-05
2.3695e-08
8.88478e-11
8.88262e-11
2.36898e-08
1.03641e-05
1.56639e-05
2.01411e-05
2.41057e-05
2.77064e-05
3.10254e-05
3.41122e-05
3.69986e-05
3.9706e-05
4.22495e-05
4.46403e-05
4.68872e-05
4.8997e-05
5.09752e-05
5.28281e-05
5.45573e-05
4.75179e-05
4.82401e-05
4.89159e-05
4.95445e-05
5.01267e-05
5.06629e-05
5.11535e-05
5.15989e-05
5.19991e-05
5.23545e-05
5.26651e-05
5.2931e-05
5.31525e-05
5.33295e-05
5.34623e-05
5.35507e-05
5.35949e-05
5.35949e-05
5.35507e-05
5.34623e-05
5.33296e-05
5.31525e-05
5.29311e-05
5.26651e-05
5.23545e-05
5.19992e-05
5.1599e-05
5.11537e-05
5.0663e-05
5.01269e-05
4.95448e-05
4.89162e-05
4.82404e-05
4.75183e-05
5.45582e-05
5.28292e-05
5.09765e-05
4.89985e-05
4.68889e-05
4.46421e-05
4.22514e-05
3.9708e-05
3.70007e-05
3.41144e-05
3.10276e-05
2.77086e-05
2.41078e-05
2.01431e-05
1.56657e-05
1.03656e-05
2.3695e-08
8.88478e-11
8.88262e-11
2.36898e-08
1.03641e-05
1.56639e-05
2.01411e-05
2.41057e-05
2.77064e-05
3.10254e-05
3.41122e-05
3.69986e-05
3.9706e-05
4.22495e-05
4.46403e-05
4.68872e-05
4.8997e-05
5.09752e-05