/*--------------------------------*- C++ -*----------------------------------*\
  =========                 |
  \\      /  F ield         | OpenFOAM: The Open Source CFD Toolbox
   \\    /   O peration     | Website:  https://openfoam.org
    \\  /    A nd           | Version:  13
     \\/     M anipulation  |
\*---------------------------------------------------------------------------*/
FoamFile
{
    format      ascii;
    class       volScalarField;
    location    "15";
    object      nut;
}
// * * * * * * * * * * * * * * * * * * * * * * * * * * * * * * * * * * * * * //

dimensions      [0 2 -1 0 0 0 0];

internalField   nonuniform List<scalar> 
315000
(
2.17361e-12
5.64712e-10
1.27801e-08
2.25817e-08
3.21075e-08
4.12849e-08
5.00564e-08
5.83742e-08
6.62029e-08
7.35297e-08
8.03926e-08
8.67879e-08
9.26993e-08
9.81136e-08
1.03027e-07
1.07443e-07
1.11379e-07
1.14854e-07
1.17897e-07
1.20539e-07
1.22814e-07
1.24757e-07
1.26403e-07
1.27786e-07
1.2894e-07
1.29893e-07
1.30675e-07
1.31309e-07
1.31818e-07
1.32221e-07
1.32532e-07
1.32766e-07
1.32932e-07
1.33039e-07
1.3309e-07
1.33088e-07
1.33034e-07
1.32924e-07
1.32755e-07
1.32518e-07
1.32203e-07
1.31797e-07
1.31285e-07
1.30647e-07
1.29863e-07
1.28907e-07
1.27751e-07
1.26366e-07
1.2472e-07
1.22778e-07
1.20505e-07
1.17867e-07
1.14829e-07
1.11361e-07
1.07435e-07
1.03029e-07
9.81286e-08
9.27284e-08
8.68321e-08
8.04518e-08
7.36027e-08
6.62886e-08
5.84715e-08
5.01635e-08
4.13993e-08
3.22248e-08
2.26936e-08
1.28698e-08
5.7041e-10
2.19972e-12
5.26927e-11
1.39188e-08
2.86358e-06
4.7198e-06
6.34305e-06
7.78422e-06
9.07317e-06
1.02285e-05
1.1262e-05
1.21816e-05
1.30226e-05
1.37881e-05
1.44804e-05
1.51025e-05
1.56577e-05
1.615e-05
1.65837e-05
1.69632e-05
1.72931e-05
1.75781e-05
1.78226e-05
1.80309e-05
1.82072e-05
1.83554e-05
1.84791e-05
1.85816e-05
1.86658e-05
1.87343e-05
1.87895e-05
1.88332e-05
1.88672e-05
1.88928e-05
1.89111e-05
1.89228e-05
1.89285e-05
1.89283e-05
1.89224e-05
1.89104e-05
1.88919e-05
1.8866e-05
1.88317e-05
1.87877e-05
1.87322e-05
1.86634e-05
1.85789e-05
1.84762e-05
1.83522e-05
1.82038e-05
1.80274e-05
1.7819e-05
1.75745e-05
1.72897e-05
1.696e-05
1.65808e-05
1.61476e-05
1.56559e-05
1.51015e-05
1.44803e-05
1.37889e-05
1.30245e-05
1.21844e-05
1.12658e-05
1.02334e-05
9.07892e-06
7.79056e-06
6.34967e-06
4.72616e-06
2.86874e-06
1.39524e-08
5.28322e-11
1.88206e-10
4.98398e-08
1.84922e-05
2.63384e-05
3.27402e-05
3.82096e-05
4.29806e-05
4.71785e-05
5.08734e-05
5.43554e-05
4.79035e-05
4.91416e-05
5.02363e-05
5.11997e-05
5.20445e-05
5.27827e-05
5.34254e-05
5.39829e-05
5.44646e-05
5.4879e-05
5.52339e-05
5.55365e-05
5.57931e-05
5.60096e-05
5.61912e-05
5.63426e-05
5.64678e-05
5.65706e-05
5.6654e-05
5.67207e-05
5.6773e-05
5.68126e-05
5.68411e-05
5.68595e-05
5.68684e-05
5.68683e-05
5.68591e-05
5.68405e-05
5.68118e-05
5.67719e-05
5.67193e-05
5.66524e-05
5.65687e-05
5.64657e-05
5.63402e-05
5.61885e-05
5.60067e-05
5.579e-05
5.55331e-05
5.52304e-05
5.48753e-05
5.44609e-05
5.39792e-05
5.34218e-05
5.27793e-05
5.20413e-05
5.11969e-05
5.02339e-05
4.91398e-05
4.79022e-05
5.43534e-05
5.08731e-05
4.71799e-05
4.29831e-05
3.82128e-05
3.27446e-05
2.63439e-05
1.84984e-05
4.9869e-08
1.88327e-10
2.33754e-10
6.19381e-08
2.18178e-05
3.05727e-05
3.76764e-05
4.37191e-05
4.89837e-05
5.34864e-05
4.79512e-05
4.96653e-05
5.11992e-05
5.25531e-05
5.37469e-05
5.47988e-05
5.57242e-05
5.65367e-05
5.72482e-05
5.78693e-05
5.84098e-05
5.88785e-05
5.92834e-05
5.96317e-05
5.99301e-05
6.01845e-05
6.04002e-05
6.0582e-05
6.07342e-05
6.08605e-05
6.09641e-05
6.10479e-05
6.11142e-05
6.11649e-05
6.12017e-05
6.12255e-05
6.12372e-05
6.12371e-05
6.12252e-05
6.12013e-05
6.11644e-05
6.11135e-05
6.1047e-05
6.0963e-05
6.08592e-05
6.07328e-05
6.05804e-05
6.03985e-05
6.01826e-05
5.99281e-05
5.96296e-05
5.92811e-05
5.88761e-05
5.84073e-05
5.78668e-05
5.72456e-05
5.65342e-05
5.57218e-05
5.47964e-05
5.37446e-05
5.2551e-05
5.11973e-05
4.96636e-05
4.79496e-05
5.34825e-05
4.89807e-05
4.37172e-05
3.76753e-05
3.05722e-05
2.18183e-05
6.19455e-08
2.3379e-10
2.49957e-10
6.62847e-08
2.29816e-05
3.20576e-05
3.94161e-05
4.56538e-05
5.08539e-05
4.71017e-05
4.90644e-05
5.08431e-05
5.24216e-05
5.38224e-05
5.5065e-05
5.6166e-05
5.71401e-05
5.80005e-05
5.87589e-05
5.94261e-05
6.00115e-05
6.05236e-05
6.09704e-05
6.13587e-05
6.16949e-05
6.19846e-05
6.22331e-05
6.24448e-05
6.2624e-05
6.27742e-05
6.28987e-05
6.30004e-05
6.30814e-05
6.31439e-05
6.31894e-05
6.32191e-05
6.32337e-05
6.32337e-05
6.32189e-05
6.31892e-05
6.31436e-05
6.3081e-05
6.29998e-05
6.28981e-05
6.27734e-05
6.26231e-05
6.24439e-05
6.2232e-05
6.19835e-05
6.16937e-05
6.13575e-05
6.09691e-05
6.05223e-05
6.00101e-05
5.94247e-05
5.87576e-05
5.79992e-05
5.71389e-05
5.61648e-05
5.50639e-05
5.38215e-05
5.24208e-05
5.08424e-05
4.90636e-05
4.71009e-05
5.08528e-05
4.56539e-05
3.94166e-05
3.20581e-05
2.29825e-05
6.62934e-08
2.49999e-10
2.54646e-10
6.75537e-08
2.33229e-05
3.24982e-05
3.99439e-05
4.62627e-05
5.15127e-05
4.74144e-05
4.94018e-05
5.1209e-05
5.28137e-05
5.42396e-05
5.55064e-05
5.66314e-05
5.76294e-05
5.85139e-05
5.92966e-05
5.99881e-05
6.05978e-05
6.1134e-05
6.16043e-05
6.20154e-05
6.23733e-05
6.26836e-05
6.29512e-05
6.31805e-05
6.33756e-05
6.354e-05
6.36769e-05
6.37891e-05
6.3879e-05
6.39485e-05
6.39992e-05
6.40323e-05
6.40487e-05
6.40486e-05
6.40322e-05
6.3999e-05
6.39482e-05
6.38787e-05
6.37888e-05
6.36765e-05
6.35395e-05
6.33751e-05
6.31799e-05
6.29506e-05
6.2683e-05
6.23727e-05
6.20147e-05
6.16037e-05
6.11334e-05
6.05972e-05
5.99876e-05
5.92962e-05
5.85135e-05
5.76291e-05
5.66312e-05
5.55063e-05
5.42396e-05
5.28139e-05
5.12093e-05
4.94021e-05
4.74147e-05
5.15142e-05
4.62646e-05
3.99458e-05
3.25002e-05
2.33251e-05
6.75681e-08
2.5471e-10
2.55924e-10
6.7901e-08
2.34165e-05
3.26191e-05
4.00891e-05
4.64306e-05
5.16955e-05
4.75016e-05
4.94957e-05
5.13116e-05
5.29248e-05
5.43591e-05
5.56345e-05
5.67681e-05
5.77749e-05
5.86684e-05
5.94603e-05
6.01612e-05
6.07802e-05
6.13257e-05
6.18051e-05
6.2225e-05
6.25914e-05
6.29097e-05
6.31847e-05
6.34209e-05
6.36222e-05
6.37921e-05
6.39338e-05
6.40501e-05
6.41433e-05
6.42155e-05
6.42682e-05
6.43027e-05
6.43197e-05
6.43197e-05
6.43026e-05
6.42681e-05
6.42153e-05
6.41431e-05
6.40498e-05
6.39335e-05
6.37918e-05
6.36218e-05
6.34206e-05
6.31844e-05
6.29094e-05
6.25911e-05
6.22247e-05
6.18049e-05
6.13255e-05
6.07801e-05
6.01611e-05
5.94604e-05
5.86685e-05
5.77751e-05
5.67684e-05
5.56349e-05
5.43596e-05
5.29255e-05
5.13124e-05
4.94966e-05
4.75025e-05
5.16981e-05
4.64336e-05
4.00921e-05
3.26222e-05
2.34197e-05
6.79193e-08
2.56003e-10
2.56223e-10
6.79826e-08
2.34386e-05
3.26478e-05
4.01235e-05
4.64706e-05
5.17391e-05
4.75227e-05
4.95185e-05
5.13366e-05
5.29521e-05
5.43887e-05
5.56665e-05
5.68025e-05
5.7812e-05
5.87081e-05
5.95027e-05
6.02063e-05
6.08281e-05
6.13764e-05
6.18585e-05
6.2281e-05
6.26499e-05
6.29706e-05
6.32478e-05
6.3486e-05
6.3689e-05
6.38606e-05
6.40037e-05
6.41211e-05
6.42154e-05
6.42883e-05
6.43416e-05
6.43765e-05
6.43937e-05
6.43937e-05
6.43764e-05
6.43416e-05
6.42882e-05
6.42152e-05
6.4121e-05
6.40035e-05
6.38603e-05
6.36888e-05
6.34857e-05
6.32476e-05
6.29703e-05
6.26497e-05
6.22809e-05
6.18584e-05
6.13763e-05
6.08281e-05
6.02064e-05
5.95029e-05
5.87084e-05
5.78124e-05
5.68031e-05
5.56672e-05
5.43895e-05
5.2953e-05
5.13377e-05
4.95196e-05
4.75238e-05
5.17421e-05
4.64741e-05
4.01271e-05
3.26514e-05
2.34422e-05
6.80023e-08
2.56307e-10
2.56283e-10
6.79991e-08
2.34432e-05
3.26537e-05
4.01307e-05
4.64788e-05
5.17481e-05
4.75271e-05
4.95233e-05
5.1342e-05
5.29579e-05
5.43951e-05
5.56734e-05
5.68101e-05
5.78201e-05
5.87169e-05
5.95122e-05
6.02164e-05
6.08389e-05
6.13878e-05
6.18706e-05
6.22938e-05
6.26633e-05
6.29845e-05
6.32622e-05
6.35009e-05
6.37044e-05
6.38763e-05
6.40198e-05
6.41375e-05
6.4232e-05
6.43051e-05
6.43586e-05
6.43935e-05
6.44108e-05
6.44108e-05
6.43935e-05
6.43585e-05
6.4305e-05
6.42319e-05
6.41374e-05
6.40196e-05
6.38761e-05
6.37042e-05
6.35007e-05
6.3262e-05
6.29843e-05
6.26631e-05
6.22937e-05
6.18705e-05
6.13878e-05
6.0839e-05
6.02166e-05
5.95125e-05
5.87173e-05
5.78206e-05
5.68107e-05
5.56742e-05
5.4396e-05
5.29589e-05
5.13431e-05
4.95245e-05
4.75283e-05
5.17513e-05
4.64825e-05
4.01344e-05
3.26574e-05
2.34468e-05
6.80193e-08
2.56368e-10
2.56294e-10
6.80021e-08
2.3444e-05
3.26548e-05
4.01319e-05
4.64803e-05
5.17498e-05
4.7528e-05
4.95242e-05
5.1343e-05
5.2959e-05
5.43963e-05
5.56748e-05
5.68115e-05
5.78217e-05
5.87186e-05
5.9514e-05
6.02184e-05
6.0841e-05
6.13901e-05
6.1873e-05
6.22963e-05
6.26659e-05
6.29873e-05
6.32651e-05
6.35039e-05
6.37075e-05
6.38795e-05
6.4023e-05
6.41408e-05
6.42353e-05
6.43085e-05
6.4362e-05
6.4397e-05
6.44142e-05
6.44142e-05
6.43969e-05
6.43619e-05
6.43084e-05
6.42352e-05
6.41407e-05
6.40228e-05
6.38793e-05
6.37073e-05
6.35037e-05
6.32649e-05
6.29871e-05
6.26658e-05
6.22962e-05
6.1873e-05
6.13901e-05
6.08411e-05
6.02186e-05
5.95143e-05
5.8719e-05
5.78222e-05
5.68122e-05
5.56755e-05
5.43972e-05
5.29601e-05
5.13441e-05
4.95254e-05
4.75292e-05
5.1753e-05
4.6484e-05
4.01357e-05
3.26585e-05
2.34476e-05
6.80223e-08
2.56379e-10
2.56295e-10
6.80025e-08
2.34441e-05
3.26549e-05
4.01322e-05
4.64806e-05
5.17501e-05
4.75281e-05
4.95244e-05
5.13431e-05
5.29592e-05
5.43965e-05
5.5675e-05
5.68118e-05
5.7822e-05
5.87189e-05
5.95143e-05
6.02187e-05
6.08414e-05
6.13905e-05
6.18734e-05
6.22967e-05
6.26664e-05
6.29878e-05
6.32656e-05
6.35044e-05
6.3708e-05
6.388e-05
6.40236e-05
6.41414e-05
6.42359e-05
6.43091e-05
6.43626e-05
6.43976e-05
6.44148e-05
6.44148e-05
6.43975e-05
6.43625e-05
6.4309e-05
6.42358e-05
6.41412e-05
6.40234e-05
6.38798e-05
6.37078e-05
6.35042e-05
6.32654e-05
6.29876e-05
6.26663e-05
6.22966e-05
6.18734e-05
6.13905e-05
6.08415e-05
6.0219e-05
5.95146e-05
5.87193e-05
5.78225e-05
5.68124e-05
5.56758e-05
5.43974e-05
5.29603e-05
5.13443e-05
4.95256e-05
4.75293e-05
5.17533e-05
4.64843e-05
4.01359e-05
3.26587e-05
2.34478e-05
6.80228e-08
2.56381e-10
2.56295e-10
6.80026e-08
2.34441e-05
3.2655e-05
4.01322e-05
4.64806e-05
5.17501e-05
4.75281e-05
4.95244e-05
5.13432e-05
5.29593e-05
5.43965e-05
5.5675e-05
5.68118e-05
5.7822e-05
5.87189e-05
5.95144e-05
6.02188e-05
6.08414e-05
6.13906e-05
6.18735e-05
6.22968e-05
6.26665e-05
6.29878e-05
6.32657e-05
6.35045e-05
6.37081e-05
6.38801e-05
6.40237e-05
6.41415e-05
6.4236e-05
6.43092e-05
6.43627e-05
6.43977e-05
6.44149e-05
6.44149e-05
6.43976e-05
6.43626e-05
6.43091e-05
6.42359e-05
6.41413e-05
6.40235e-05
6.38799e-05
6.37079e-05
6.35043e-05
6.32655e-05
6.29877e-05
6.26663e-05
6.22967e-05
6.18734e-05
6.13906e-05
6.08416e-05
6.0219e-05
5.95147e-05
5.87193e-05
5.78225e-05
5.68125e-05
5.56758e-05
5.43975e-05
5.29603e-05
5.13443e-05
4.95256e-05
4.75293e-05
5.17534e-05
4.64843e-05
4.01359e-05
3.26587e-05
2.34478e-05
6.80229e-08
2.56381e-10
2.56295e-10
6.80026e-08
2.34441e-05
3.2655e-05
4.01322e-05
4.64806e-05
5.17501e-05
4.75281e-05
4.95244e-05
5.13432e-05
5.29593e-05
5.43965e-05
5.5675e-05
5.68118e-05
5.7822e-05
5.87189e-05
5.95144e-05
6.02188e-05
6.08415e-05
6.13906e-05
6.18735e-05
6.22968e-05
6.26665e-05
6.29878e-05
6.32657e-05
6.35045e-05
6.37081e-05
6.38801e-05
6.40237e-05
6.41415e-05
6.4236e-05
6.43092e-05
6.43627e-05
6.43977e-05
6.4415e-05
6.44149e-05
6.43976e-05
6.43626e-05
6.43091e-05
6.42359e-05
6.41413e-05
6.40235e-05
6.38799e-05
6.37079e-05
6.35043e-05
6.32655e-05
6.29877e-05
6.26664e-05
6.22967e-05
6.18735e-05
6.13906e-05
6.08416e-05
6.0219e-05
5.95147e-05
5.87194e-05
5.78225e-05
5.68125e-05
5.56758e-05
5.43975e-05
5.29603e-05
5.13443e-05
4.95256e-05
4.75293e-05
5.17534e-05
4.64843e-05
4.01359e-05
3.26587e-05
2.34478e-05
6.80229e-08
2.56381e-10
2.56295e-10
6.80026e-08
2.34441e-05
3.2655e-05
4.01322e-05
4.64806e-05
5.17501e-05
4.75281e-05
4.95244e-05
5.13432e-05
5.29593e-05
5.43965e-05
5.5675e-05
5.68118e-05
5.7822e-05
5.87189e-05
5.95144e-05
6.02188e-05
6.08415e-05
6.13906e-05
6.18735e-05
6.22968e-05
6.26665e-05
6.29879e-05
6.32657e-05
6.35045e-05
6.37081e-05
6.38801e-05
6.40237e-05
6.41415e-05
6.4236e-05
6.43092e-05
6.43627e-05
6.43977e-05
6.4415e-05
6.44149e-05
6.43976e-05
6.43626e-05
6.43091e-05
6.42359e-05
6.41413e-05
6.40235e-05
6.38799e-05
6.37079e-05
6.35043e-05
6.32655e-05
6.29877e-05
6.26664e-05
6.22967e-05
6.18735e-05
6.13906e-05
6.08416e-05
6.0219e-05
5.95147e-05
5.87194e-05
5.78225e-05
5.68125e-05
5.56758e-05
5.43975e-05
5.29603e-05
5.13443e-05
4.95256e-05
4.75293e-05
5.17534e-05
4.64843e-05
4.01359e-05
3.26587e-05
2.34478e-05
6.80229e-08
2.56381e-10
2.56295e-10
6.80026e-08
2.34441e-05
3.2655e-05
4.01322e-05
4.64806e-05
5.17501e-05
4.75281e-05
4.95244e-05
5.13432e-05
5.29593e-05
5.43965e-05
5.5675e-05
5.68118e-05
5.7822e-05
5.87189e-05
5.95144e-05
6.02188e-05
6.08415e-05
6.13906e-05
6.18735e-05
6.22968e-05
6.26665e-05
6.29879e-05
6.32657e-05
6.35045e-05
6.37081e-05
6.38801e-05
6.40237e-05
6.41415e-05
6.4236e-05
6.43092e-05
6.43627e-05
6.43977e-05
6.4415e-05
6.44149e-05
6.43976e-05
6.43626e-05
6.43091e-05
6.42359e-05
6.41413e-05
6.40235e-05
6.38799e-05
6.37079e-05
6.35043e-05
6.32655e-05
6.29877e-05
6.26664e-05
6.22967e-05
6.18735e-05
6.13906e-05
6.08416e-05
6.0219e-05
5.95147e-05
5.87194e-05
5.78225e-05
5.68125e-05
5.56758e-05
5.43975e-05
5.29603e-05
5.13443e-05
4.95256e-05
4.75293e-05
5.17534e-05
4.64843e-05
4.01359e-05
3.26587e-05
2.34478e-05
6.80229e-08
2.56381e-10
2.56295e-10
6.80026e-08
2.34441e-05
3.2655e-05
4.01322e-05
4.64806e-05
5.17501e-05
4.75281e-05
4.95244e-05
5.13432e-05
5.29593e-05
5.43965e-05
5.5675e-05
5.68118e-05
5.7822e-05
5.87189e-05
5.95144e-05
6.02188e-05
6.08415e-05
6.13906e-05
6.18735e-05
6.22968e-05
6.26665e-05
6.29879e-05
6.32657e-05
6.35045e-05
6.37081e-05
6.38801e-05
6.40237e-05
6.41415e-05
6.4236e-05
6.43092e-05
6.43627e-05
6.43977e-05
6.4415e-05
6.44149e-05
6.43976e-05
6.43626e-05
6.43091e-05
6.42359e-05
6.41413e-05
6.40235e-05
6.38799e-05
6.37079e-05
6.35043e-05
6.32655e-05
6.29877e-05
6.26664e-05
6.22967e-05
6.18735e-05
6.13906e-05
6.08416e-05
6.0219e-05
5.95147e-05
5.87194e-05
5.78225e-05
5.68125e-05
5.56758e-05
5.43975e-05
5.29603e-05
5.13443e-05
4.95256e-05
4.75293e-05
5.17534e-05
4.64843e-05
4.01359e-05
3.26587e-05
2.34478e-05
6.80229e-08
2.56381e-10
2.56295e-10
6.80026e-08
2.34441e-05
3.2655e-05
4.01322e-05
4.64806e-05
5.17501e-05
4.75281e-05
4.95244e-05
5.13432e-05
5.29593e-05
5.43965e-05
5.5675e-05
5.68118e-05
5.7822e-05
5.87189e-05
5.95144e-05
6.02188e-05
6.08415e-05
6.13906e-05
6.18735e-05
6.22968e-05
6.26665e-05
6.29879e-05
6.32657e-05
6.35045e-05
6.37081e-05
6.38801e-05
6.40237e-05
6.41415e-05
6.4236e-05
6.43092e-05
6.43627e-05
6.43977e-05
6.4415e-05
6.44149e-05
6.43976e-05
6.43626e-05
6.43091e-05
6.42359e-05
6.41413e-05
6.40235e-05
6.38799e-05
6.37079e-05
6.35043e-05
6.32655e-05
6.29877e-05
6.26664e-05
6.22967e-05
6.18735e-05
6.13906e-05
6.08416e-05
6.0219e-05
5.95147e-05
5.87194e-05
5.78225e-05
5.68125e-05
5.56758e-05
5.43975e-05
5.29603e-05
5.13443e-05
4.95256e-05
4.75293e-05
5.17534e-05
4.64843e-05
4.01359e-05
3.26587e-05
2.34478e-05
6.80229e-08
2.56381e-10
2.56295e-10
6.80026e-08
2.34441e-05
3.2655e-05
4.01322e-05
4.64806e-05
5.17501e-05
4.75281e-05
4.95244e-05
5.13432e-05
5.29593e-05
5.43965e-05
5.5675e-05
5.68118e-05
5.7822e-05
5.87189e-05
5.95144e-05
6.02188e-05
6.08415e-05
6.13906e-05
6.18735e-05
6.22968e-05
6.26665e-05
6.29879e-05
6.32657e-05
6.35045e-05
6.37081e-05
6.38801e-05
6.40237e-05
6.41415e-05
6.4236e-05
6.43092e-05
6.43627e-05
6.43977e-05
6.4415e-05
6.44149e-05
6.43976e-05
6.43626e-05
6.43091e-05
6.42359e-05
6.41413e-05
6.40235e-05
6.38799e-05
6.37079e-05
6.35043e-05
6.32655e-05
6.29877e-05
6.26664e-05
6.22967e-05
6.18735e-05
6.13906e-05
6.08416e-05
6.0219e-05
5.95147e-05
5.87194e-05
5.78225e-05
5.68125e-05
5.56758e-05
5.43975e-05
5.29603e-05
5.13443e-05
4.95256e-05
4.75293e-05
5.17534e-05
4.64843e-05
4.01359e-05
3.26587e-05
2.34478e-05
6.80229e-08
2.56381e-10
2.56295e-10
6.80026e-08
2.34441e-05
3.2655e-05
4.01322e-05
4.64806e-05
5.17501e-05
4.75281e-05
4.95244e-05
5.13432e-05
5.29593e-05
5.43965e-05
5.5675e-05
5.68118e-05
5.7822e-05
5.87189e-05
5.95144e-05
6.02188e-05
6.08415e-05
6.13906e-05
6.18735e-05
6.22968e-05
6.26665e-05
6.29879e-05
6.32657e-05
6.35045e-05
6.37081e-05
6.38801e-05
6.40237e-05
6.41415e-05
6.4236e-05
6.43092e-05
6.43627e-05
6.43977e-05
6.4415e-05
6.44149e-05
6.43976e-05
6.43626e-05
6.43091e-05
6.42359e-05
6.41413e-05
6.40235e-05
6.38799e-05
6.37079e-05
6.35043e-05
6.32655e-05
6.29877e-05
6.26664e-05
6.22967e-05
6.18735e-05
6.13906e-05
6.08416e-05
6.0219e-05
5.95147e-05
5.87194e-05
5.78225e-05
5.68125e-05
5.56758e-05
5.43975e-05
5.29603e-05
5.13443e-05
4.95256e-05
4.75293e-05
5.17534e-05
4.64843e-05
4.01359e-05
3.26587e-05
2.34478e-05
6.80229e-08
2.56381e-10
2.56295e-10
6.80026e-08
2.34441e-05
3.2655e-05
4.01322e-05
4.64806e-05
5.17501e-05
4.75281e-05
4.95244e-05
5.13432e-05
5.29593e-05
5.43965e-05
5.5675e-05
5.68118e-05
5.7822e-05
5.87189e-05
5.95144e-05
6.02188e-05
6.08415e-05
6.13906e-05
6.18735e-05
6.22968e-05
6.26665e-05
6.29879e-05
6.32657e-05
6.35045e-05
6.37081e-05
6.38801e-05
6.40237e-05
6.41415e-05
6.4236e-05
6.43092e-05
6.43627e-05
6.43977e-05
6.4415e-05
6.44149e-05
6.43976e-05
6.43626e-05
6.43091e-05
6.42359e-05
6.41413e-05
6.40235e-05
6.38799e-05
6.37079e-05
6.35043e-05
6.32655e-05
6.29877e-05
6.26664e-05
6.22967e-05
6.18735e-05
6.13906e-05
6.08416e-05
6.0219e-05
5.95147e-05
5.87194e-05
5.78225e-05
5.68125e-05
5.56758e-05
5.43975e-05
5.29603e-05
5.13443e-05
4.95256e-05
4.75293e-05
5.17534e-05
4.64843e-05
4.01359e-05
3.26587e-05
2.34478e-05
6.80229e-08
2.56381e-10
2.56295e-10
6.80026e-08
2.34441e-05
3.2655e-05
4.01322e-05
4.64806e-05
5.17501e-05
4.75281e-05
4.95244e-05
5.13432e-05
5.29593e-05
5.43965e-05
5.5675e-05
5.68118e-05
5.7822e-05
5.87189e-05
5.95144e-05
6.02188e-05
6.08415e-05
6.13906e-05
6.18735e-05
6.22968e-05
6.26665e-05
6.29879e-05
6.32657e-05
6.35045e-05
6.37081e-05
6.38801e-05
6.40237e-05
6.41415e-05
6.4236e-05
6.43092e-05
6.43627e-05
6.43977e-05
6.4415e-05
6.44149e-05
6.43976e-05
6.43626e-05
6.43091e-05
6.42359e-05
6.41413e-05
6.40235e-05
6.38799e-05
6.37079e-05
6.35043e-05
6.32655e-05
6.29877e-05
6.26664e-05
6.22967e-05
6.18735e-05
6.13906e-05
6.08416e-05
6.0219e-05
5.95147e-05
5.87194e-05
5.78225e-05
5.68125e-05
5.56758e-05
5.43975e-05
5.29603e-05
5.13443e-05
4.95256e-05
4.75293e-05
5.17534e-05
4.64843e-05
4.01359e-05
3.26587e-05
2.34478e-05
6.80229e-08
2.56381e-10
2.56295e-10
6.80026e-08
2.34441e-05
3.2655e-05
4.01322e-05
4.64806e-05
5.17501e-05
4.75281e-05
4.95244e-05
5.13432e-05
5.29593e-05
5.43965e-05
5.5675e-05
5.68118e-05
5.7822e-05
5.87189e-05
5.95144e-05
6.02188e-05
6.08415e-05
6.13906e-05
6.18735e-05
6.22968e-05
6.26665e-05
6.29879e-05
6.32657e-05
6.35045e-05
6.37081e-05
6.38801e-05
6.40237e-05
6.41415e-05
6.4236e-05
6.43092e-05
6.43627e-05
6.43977e-05
6.4415e-05
6.44149e-05
6.43976e-05
6.43626e-05
6.43091e-05
6.42359e-05
6.41413e-05
6.40235e-05
6.38799e-05
6.37079e-05
6.35043e-05
6.32655e-05
6.29877e-05
6.26664e-05
6.22967e-05
6.18735e-05
6.13906e-05
6.08416e-05
6.0219e-05
5.95147e-05
5.87194e-05
5.78225e-05
5.68125e-05
5.56758e-05
5.43975e-05
5.29603e-05
5.13443e-05
4.95256e-05
4.75293e-05
5.17534e-05
4.64843e-05
4.01359e-05
3.26587e-05
2.34478e-05
6.80229e-08
2.56381e-10
2.56295e-10
6.80026e-08
2.34441e-05
3.2655e-05
4.01322e-05
4.64806e-05
5.17501e-05
4.75281e-05
4.95244e-05
5.13432e-05
5.29593e-05
5.43965e-05
5.5675e-05
5.68118e-05
5.7822e-05
5.87189e-05
5.95144e-05
6.02188e-05
6.08415e-05
6.13906e-05
6.18735e-05
6.22968e-05
6.26665e-05
6.29879e-05
6.32657e-05
6.35045e-05
6.37081e-05
6.38801e-05
6.40237e-05
6.41415e-05
6.4236e-05
6.43092e-05
6.43627e-05
6.43977e-05
6.4415e-05
6.44149e-05
6.43976e-05
6.43626e-05
6.43091e-05
6.42359e-05
6.41413e-05
6.40235e-05
6.38799e-05
6.37079e-05
6.35043e-05
6.32655e-05
6.29877e-05
6.26664e-05
6.22967e-05
6.18735e-05
6.13906e-05
6.08416e-05
6.0219e-05
5.95147e-05
5.87194e-05
5.78225e-05
5.68125e-05
5.56758e-05
5.43975e-05
5.29603e-05
5.13443e-05
4.95256e-05
4.75293e-05
5.17534e-05
4.64843e-05
4.01359e-05
3.26587e-05
2.34478e-05
6.80229e-08
2.56381e-10
2.56295e-10
6.80026e-08
2.34441e-05
3.2655e-05
4.01322e-05
4.64806e-05
5.17501e-05
4.75281e-05
4.95244e-05
5.13432e-05
5.29593e-05
5.43965e-05
5.5675e-05
5.68118e-05
5.7822e-05
5.87189e-05
5.95144e-05
6.02188e-05
6.08415e-05
6.13906e-05
6.18735e-05
6.22968e-05
6.26665e-05
6.29879e-05
6.32657e-05
6.35045e-05
6.37081e-05
6.38801e-05
6.40237e-05
6.41415e-05
6.4236e-05
6.43092e-05
6.43627e-05
6.43977e-05
6.4415e-05
6.44149e-05
6.43976e-05
6.43626e-05
6.43091e-05
6.42359e-05
6.41413e-05
6.40235e-05
6.38799e-05
6.37079e-05
6.35043e-05
6.32655e-05
6.29877e-05
6.26664e-05
6.22967e-05
6.18735e-05
6.13906e-05
6.08416e-05
6.0219e-05
5.95147e-05
5.87194e-05
5.78225e-05
5.68125e-05
5.56758e-05
5.43975e-05
5.29603e-05
5.13443e-05
4.95256e-05
4.75293e-05
5.17534e-05
4.64843e-05
4.01359e-05
3.26587e-05
2.34478e-05
6.80229e-08
2.56381e-10
2.56295e-10
6.80026e-08
2.34441e-05
3.2655e-05
4.01322e-05
4.64806e-05
5.17501e-05
4.75281e-05
4.95244e-05
5.13432e-05
5.29593e-05
5.43965e-05
5.5675e-05
5.68118e-05
5.7822e-05
5.87189e-05
5.95144e-05
6.02188e-05
6.08415e-05
6.13906e-05
6.18735e-05
6.22968e-05
6.26665e-05
6.29879e-05
6.32657e-05
6.35045e-05
6.37081e-05
6.38801e-05
6.40237e-05
6.41415e-05
6.4236e-05
6.43092e-05
6.43627e-05
6.43977e-05
6.4415e-05
6.44149e-05
6.43976e-05
6.43626e-05
6.43091e-05
6.42359e-05
6.41413e-05
6.40235e-05
6.38799e-05
6.37079e-05
6.35043e-05
6.32655e-05
6.29877e-05
6.26664e-05
6.22967e-05
6.18735e-05
6.13906e-05
6.08416e-05
6.0219e-05
5.95147e-05
5.87194e-05
5.78225e-05
5.68125e-05
5.56758e-05
5.43975e-05
5.29603e-05
5.13443e-05
4.95256e-05
4.75293e-05
5.17534e-05
4.64843e-05
4.01359e-05
3.26587e-05
2.34478e-05
6.80229e-08
2.56381e-10
2.56295e-10
6.80026e-08
2.34441e-05
3.2655e-05
4.01322e-05
4.64806e-05
5.17501e-05
4.75281e-05
4.95244e-05
5.13432e-05
5.29593e-05
5.43965e-05
5.5675e-05
5.68118e-05
5.7822e-05
5.87189e-05
5.95144e-05
6.02188e-05
6.08415e-05
6.13906e-05
6.18735e-05
6.22968e-05
6.26665e-05
6.29879e-05
6.32657e-05
6.35045e-05
6.37081e-05
6.38801e-05
6.40237e-05
6.41415e-05
6.4236e-05
6.43092e-05
6.43627e-05
6.43977e-05
6.4415e-05
6.44149e-05
6.43976e-05
6.43626e-05
6.43091e-05
6.42359e-05
6.41413e-05
6.40235e-05
6.38799e-05
6.37079e-05
6.35043e-05
6.32655e-05
6.29877e-05
6.26664e-05
6.22967e-05
6.18735e-05
6.13906e-05
6.08416e-05
6.0219e-05
5.95147e-05
5.87194e-05
5.78225e-05
5.68125e-05
5.56758e-05
5.43975e-05
5.29603e-05
5.13443e-05
4.95256e-05
4.75293e-05
5.17534e-05
4.64843e-05
4.01359e-05
3.26587e-05
2.34478e-05
6.80229e-08
2.56381e-10
2.56295e-10
6.80026e-08
2.34441e-05
3.2655e-05
4.01322e-05
4.64806e-05
5.17501e-05
4.75281e-05
4.95244e-05
5.13432e-05
5.29593e-05
5.43965e-05
5.5675e-05
5.68118e-05
5.7822e-05
5.87189e-05
5.95144e-05
6.02188e-05
6.08415e-05
6.13906e-05
6.18735e-05
6.22968e-05
6.26665e-05
6.29879e-05
6.32657e-05
6.35045e-05
6.37081e-05
6.38801e-05
6.40237e-05
6.41415e-05
6.4236e-05
6.43092e-05
6.43627e-05
6.43977e-05
6.4415e-05
6.44149e-05
6.43976e-05
6.43626e-05
6.43091e-05
6.42359e-05
6.41413e-05
6.40235e-05
6.38799e-05
6.37079e-05
6.35043e-05
6.32655e-05
6.29877e-05
6.26664e-05
6.22967e-05
6.18735e-05
6.13906e-05
6.08416e-05
6.0219e-05
5.95147e-05
5.87194e-05
5.78225e-05
5.68125e-05
5.56758e-05
5.43975e-05
5.29603e-05
5.13443e-05
4.95256e-05
4.75293e-05
5.17534e-05
4.64843e-05
4.01359e-05
3.26587e-05
2.34478e-05
6.80229e-08
2.56381e-10
2.56295e-10
6.80026e-08
2.34441e-05
3.2655e-05
4.01322e-05
4.64806e-05
5.17501e-05
4.75281e-05
4.95244e-05
5.13432e-05
5.29593e-05
5.43965e-05
5.5675e-05
5.68118e-05
5.7822e-05
5.87189e-05
5.95144e-05
6.02188e-05
6.08415e-05
6.13906e-05
6.18735e-05
6.22968e-05
6.26665e-05
6.29879e-05
6.32657e-05
6.35045e-05
6.37081e-05
6.38801e-05
6.40237e-05
6.41415e-05
6.4236e-05
6.43092e-05
6.43627e-05
6.43977e-05
6.4415e-05
6.44149e-05
6.43976e-05
6.43626e-05
6.43091e-05
6.42359e-05
6.41413e-05
6.40235e-05
6.38799e-05
6.37079e-05
6.35043e-05
6.32655e-05
6.29877e-05
6.26664e-05
6.22967e-05
6.18735e-05
6.13906e-05
6.08416e-05
6.0219e-05
5.95147e-05
5.87194e-05
5.78225e-05
5.68125e-05
5.56758e-05
5.43975e-05
5.29603e-05
5.13443e-05
4.95256e-05
4.75293e-05
5.17534e-05
4.64843e-05
4.01359e-05
3.26587e-05
2.34478e-05
6.80229e-08
2.56381e-10
2.56295e-10
6.80026e-08
2.34441e-05
3.2655e-05
4.01322e-05
4.64806e-05
5.17501e-05
4.75281e-05
4.95244e-05
5.13432e-05
5.29593e-05
5.43965e-05
5.5675e-05
5.68118e-05
5.7822e-05
5.87189e-05
5.95144e-05
6.02188e-05
6.08415e-05
6.13906e-05
6.18735e-05
6.22968e-05
6.26665e-05
6.29879e-05
6.32657e-05
6.35045e-05
6.37081e-05
6.38801e-05
6.40237e-05
6.41415e-05
6.4236e-05
6.43092e-05
6.43627e-05
6.43977e-05
6.4415e-05
6.44149e-05
6.43976e-05
6.43626e-05
6.43091e-05
6.42359e-05
6.41413e-05
6.40235e-05
6.38799e-05
6.37079e-05
6.35043e-05
6.32655e-05
6.29877e-05
6.26664e-05
6.22967e-05
6.18735e-05
6.13906e-05
6.08416e-05
6.0219e-05
5.95147e-05
5.87194e-05
5.78225e-05
5.68125e-05
5.56758e-05
5.43975e-05
5.29603e-05
5.13443e-05
4.95256e-05
4.75293e-05
5.17534e-05
4.64843e-05
4.01359e-05
3.26587e-05
2.34478e-05
6.80229e-08
2.56381e-10
2.56295e-10
6.80026e-08
2.34441e-05
3.2655e-05
4.01322e-05
4.64806e-05
5.17501e-05
4.75281e-05
4.95244e-05
5.13432e-05
5.29593e-05
5.43965e-05
5.5675e-05
5.68118e-05
5.7822e-05
5.87189e-05
5.95144e-05
6.02188e-05
6.08415e-05
6.13906e-05
6.18735e-05
6.22968e-05
6.26665e-05
6.29879e-05
6.32657e-05
6.35045e-05
6.37081e-05
6.38801e-05
6.40237e-05
6.41415e-05
6.4236e-05
6.43092e-05
6.43627e-05
6.43977e-05
6.4415e-05
6.44149e-05
6.43976e-05
6.43626e-05
6.43091e-05
6.42359e-05
6.41413e-05
6.40235e-05
6.38799e-05
6.37079e-05
6.35043e-05
6.32655e-05
6.29877e-05
6.26664e-05
6.22967e-05
6.18735e-05
6.13906e-05
6.08416e-05
6.0219e-05
5.95147e-05
5.87194e-05
5.78225e-05
5.68125e-05
5.56758e-05
5.43975e-05
5.29603e-05
5.13443e-05
4.95256e-05
4.75293e-05
5.17534e-05
4.64843e-05
4.01359e-05
3.26587e-05
2.34478e-05
6.80229e-08
2.56381e-10
2.56295e-10
6.80026e-08
2.34441e-05
3.2655e-05
4.01322e-05
4.64806e-05
5.17501e-05
4.75281e-05
4.95244e-05
5.13432e-05
5.29593e-05
5.43965e-05
5.5675e-05
5.68118e-05
5.7822e-05
5.87189e-05
5.95144e-05
6.02188e-05
6.08415e-05
6.13906e-05
6.18735e-05
6.22968e-05
6.26665e-05
6.29879e-05
6.32657e-05
6.35045e-05
6.37081e-05
6.38801e-05
6.40237e-05
6.41415e-05
6.4236e-05
6.43092e-05
6.43627e-05
6.43977e-05
6.4415e-05
6.44149e-05
6.43976e-05
6.43626e-05
6.43091e-05
6.42359e-05
6.41413e-05
6.40235e-05
6.38799e-05
6.37079e-05
6.35043e-05
6.32655e-05
6.29877e-05
6.26664e-05
6.22967e-05
6.18735e-05
6.13906e-05
6.08416e-05
6.0219e-05
5.95147e-05
5.87194e-05
5.78225e-05
5.68125e-05
5.56758e-05
5.43975e-05
5.29603e-05
5.13443e-05
4.95256e-05
4.75293e-05
5.17534e-05
4.64843e-05
4.01359e-05
3.26587e-05
2.34478e-05
6.80229e-08
2.56381e-10
2.56295e-10
6.80026e-08
2.34441e-05
3.2655e-05
4.01322e-05
4.64806e-05
5.17501e-05
4.75281e-05
4.95244e-05
5.13432e-05
5.29593e-05
5.43965e-05
5.5675e-05
5.68118e-05
5.7822e-05
5.87189e-05
5.95144e-05
6.02188e-05
6.08415e-05
6.13906e-05
6.18735e-05
6.22968e-05
6.26665e-05
6.29879e-05
6.32657e-05
6.35045e-05
6.37081e-05
6.38801e-05
6.40237e-05
6.41415e-05
6.4236e-05
6.43092e-05
6.43627e-05
6.43977e-05
6.4415e-05
6.44149e-05
6.43976e-05
6.43626e-05
6.43091e-05
6.42359e-05
6.41413e-05
6.40235e-05
6.38799e-05
6.37079e-05
6.35043e-05
6.32655e-05
6.29877e-05
6.26664e-05
6.22967e-05
6.18735e-05
6.13906e-05
6.08416e-05
6.0219e-05
5.95147e-05
5.87194e-05
5.78225e-05
5.68125e-05
5.56758e-05
5.43975e-05
5.29603e-05
5.13443e-05
4.95256e-05
4.75293e-05
5.17534e-05
4.64843e-05
4.01359e-05
3.26587e-05
2.34478e-05
6.80229e-08
2.56381e-10
2.56295e-10
6.80026e-08
2.34441e-05
3.2655e-05
4.01322e-05
4.64806e-05
5.17501e-05
4.75281e-05
4.95244e-05
5.13432e-05
5.29593e-05
5.43965e-05
5.5675e-05
5.68118e-05
5.7822e-05
5.87189e-05
5.95144e-05
6.02188e-05
6.08415e-05
6.13906e-05
6.18735e-05
6.22968e-05
6.26665e-05
6.29879e-05
6.32657e-05
6.35045e-05
6.37081e-05
6.38801e-05
6.40237e-05
6.41415e-05
6.4236e-05
6.43092e-05
6.43627e-05
6.43977e-05
6.4415e-05
6.44149e-05
6.43976e-05
6.43626e-05
6.43091e-05
6.42359e-05
6.41413e-05
6.40235e-05
6.38799e-05
6.37079e-05
6.35043e-05
6.32655e-05
6.29877e-05
6.26664e-05
6.22967e-05
6.18735e-05
6.13906e-05
6.08416e-05
6.0219e-05
5.95147e-05
5.87194e-05
5.78225e-05
5.68125e-05
5.56758e-05
5.43975e-05
5.29603e-05
5.13443e-05
4.95256e-05
4.75293e-05
5.17534e-05
4.64843e-05
4.01359e-05
3.26587e-05
2.34478e-05
6.80229e-08
2.56381e-10
2.56295e-10
6.80026e-08
2.34441e-05
3.2655e-05
4.01322e-05
4.64806e-05
5.17501e-05
4.75281e-05
4.95244e-05
5.13432e-05
5.29593e-05
5.43965e-05
5.5675e-05
5.68118e-05
5.7822e-05
5.87189e-05
5.95144e-05
6.02188e-05
6.08415e-05
6.13906e-05
6.18735e-05
6.22968e-05
6.26665e-05
6.29879e-05
6.32657e-05
6.35045e-05
6.37081e-05
6.38801e-05
6.40237e-05
6.41415e-05
6.4236e-05
6.43092e-05
6.43627e-05
6.43977e-05
6.4415e-05
6.44149e-05
6.43976e-05
6.43626e-05
6.43091e-05
6.42359e-05
6.41413e-05
6.40235e-05
6.38799e-05
6.37079e-05
6.35043e-05
6.32655e-05
6.29877e-05
6.26664e-05
6.22967e-05
6.18735e-05
6.13906e-05
6.08416e-05
6.0219e-05
5.95147e-05
5.87194e-05
5.78225e-05
5.68125e-05
5.56758e-05
5.43975e-05
5.29603e-05
5.13443e-05
4.95256e-05
4.75293e-05
5.17534e-05
4.64843e-05
4.01359e-05
3.26587e-05
2.34478e-05
6.80229e-08
2.56381e-10
2.56295e-10
6.80026e-08
2.34441e-05
3.2655e-05
4.01322e-05
4.64806e-05
5.17501e-05
4.75281e-05
4.95244e-05
5.13432e-05
5.29593e-05
5.43965e-05
5.5675e-05
5.68118e-05
5.7822e-05
5.87189e-05
5.95144e-05
6.02188e-05
6.08415e-05
6.13906e-05
6.18735e-05
6.22968e-05
6.26665e-05
6.29879e-05
6.32657e-05
6.35045e-05
6.37081e-05
6.38801e-05
6.40237e-05
6.41415e-05
6.4236e-05
6.43092e-05
6.43627e-05
6.43977e-05
6.4415e-05
6.44149e-05
6.43976e-05
6.43626e-05
6.43091e-05
6.42359e-05
6.41413e-05
6.40235e-05
6.38799e-05
6.37079e-05
6.35043e-05
6.32655e-05
6.29877e-05
6.26664e-05
6.22967e-05
6.18735e-05
6.13906e-05
6.08416e-05
6.0219e-05
5.95147e-05
5.87194e-05
5.78225e-05
5.68125e-05
5.56758e-05
5.43975e-05
5.29603e-05
5.13443e-05
4.95256e-05
4.75293e-05
5.17534e-05
4.64843e-05
4.01359e-05
3.26587e-05
2.34478e-05
6.80229e-08
2.56381e-10
2.56295e-10
6.80026e-08
2.34441e-05
3.2655e-05
4.01322e-05
4.64806e-05
5.17501e-05
4.75281e-05
4.95244e-05
5.13432e-05
5.29593e-05
5.43965e-05