/*--------------------------------*- C++ -*----------------------------------*\
  =========                 |
  \\      /  F ield         | OpenFOAM: The Open Source CFD Toolbox
   \\    /   O peration     | Website:  https://openfoam.org
    \\  /    A nd           | Version:  13
     \\/     M anipulation  |
\*---------------------------------------------------------------------------*/
FoamFile
{
    format      ascii;
    class       volScalarField;
    location    "310";
    object      k;
}
// * * * * * * * * * * * * * * * * * * * * * * * * * * * * * * * * * * * * * //

dimensions      [0 2 -2 0 0 0 0];

internalField   nonuniform List<scalar> 
78750
(
2.22045e-16
3.24464e-15
1.46649e-14
2.6595e-14
3.91675e-14
5.24731e-14
6.65178e-14
8.12021e-14
9.63184e-14
1.11563e-13
1.26553e-13
1.40857e-13
1.54016e-13
1.65579e-13
1.7513e-13
1.82308e-13
1.86839e-13
1.88545e-13
1.87358e-13
1.83321e-13
1.76592e-13
1.67426e-13
1.56168e-13
1.43224e-13
1.29041e-13
1.14076e-13
9.87696e-14
8.35111e-14
6.86171e-14
5.4307e-14
4.06894e-14
2.77585e-14
1.54037e-14
3.43636e-15
2.22045e-16
2.47249e-15
7.13169e-14
3.55416e-13
6.49282e-13
9.58623e-13
1.28684e-12
1.63458e-12
1.99951e-12
2.3764e-12
2.75749e-12
3.13304e-12
3.49192e-12
3.82241e-12
4.11295e-12
4.35283e-12
4.53288e-12
4.64604e-12
4.6878e-12
4.65644e-12
4.55318e-12
4.38207e-12
4.14979e-12
3.86517e-12
3.53872e-12
3.1819e-12
2.80646e-12
2.42362e-12
2.04335e-12
1.67366e-12
1.32007e-12
9.85139e-13
6.68416e-13
3.66529e-13
7.36697e-14
2.5557e-15
6.83641e-15
1.97255e-13
9.85124e-13
1.81028e-12
2.69615e-12
3.65831e-12
4.70265e-12
5.82433e-12
7.00766e-12
8.22699e-12
9.44835e-12
1.06318e-11
1.17342e-11
1.27121e-11
1.35247e-11
1.41369e-11
1.45215e-11
1.4661e-11
1.45491e-11
1.41906e-11
1.36018e-11
1.28087e-11
1.18456e-11
1.07528e-11
9.57345e-12
8.35096e-12
7.12574e-12
5.93244e-12
4.79758e-12
3.73771e-12
2.75846e-12
1.85448e-12
1.01039e-12
2.0255e-13
7.02309e-15
1.30125e-14
3.75485e-13
1.87664e-12
3.4561e-12
5.16408e-12
7.03502e-12
9.08374e-12
1.1303e-11
1.36629e-11
1.61123e-11
1.85819e-11
2.09886e-11
2.32414e-11
2.52477e-11
2.69198e-11
2.81816e-11
2.89737e-11
2.92582e-11
2.90213e-11
2.82743e-11
2.70528e-11
2.5414e-11
2.34327e-11
2.11956e-11
1.87952e-11
1.63228e-11
1.38625e-11
1.14848e-11
9.24247e-12
7.16697e-12
5.26692e-12
3.52854e-12
1.91775e-12
3.84069e-13
1.33149e-14
1.99431e-14
5.75463e-13
2.87664e-12
5.30102e-12
7.9281e-12
1.08129e-11
1.39796e-11
1.74182e-11
2.10827e-11
2.48938e-11
2.87432e-11
3.25004e-11
3.60219e-11
3.91613e-11
4.17794e-11
4.37552e-11
4.49944e-11
4.54368e-11
4.50603e-11
4.38835e-11
4.19632e-11
3.9391e-11
3.6286e-11
3.2786e-11
2.90372e-11
2.51837e-11
2.13571e-11
1.76677e-11
1.4197e-11
1.0993e-11
8.06806e-12
5.39921e-12
2.93215e-12
5.87036e-13
2.03507e-14
2.67044e-14
7.70542e-13
3.85192e-12
7.09923e-12
1.06199e-11
1.44882e-11
1.87374e-11
2.33538e-11
2.82763e-11
3.3398e-11
3.85731e-11
4.36259e-11
4.83628e-11
5.25861e-11
5.61082e-11
5.87656e-11
6.04309e-11
6.10227e-11
6.05118e-11
5.89231e-11
5.63339e-11
5.28682e-11
4.8687e-11
4.39765e-11
3.89339e-11
3.37535e-11
2.86126e-11
2.36594e-11
1.90032e-11
1.47082e-11
1.07904e-11
7.21854e-12
3.91917e-12
7.84552e-13
2.71979e-14
3.26925e-14
9.43329e-13
4.71571e-12
8.69137e-12
1.30021e-11
1.77391e-11
2.29431e-11
2.85977e-11
3.46276e-11
4.0902e-11
4.7242e-11
5.34323e-11
5.92355e-11
6.44092e-11
6.87233e-11
7.19773e-11
7.40151e-11
7.47372e-11
7.41076e-11
7.21572e-11
6.89812e-11
6.47316e-11
5.9606e-11
5.38329e-11
4.76542e-11
4.1308e-11
3.50115e-11
2.89462e-11
2.32461e-11
1.79895e-11
1.31958e-11
8.82661e-12
4.79177e-12
9.59165e-13
3.32504e-14
3.75802e-14
1.0844e-12
5.42102e-12
9.99122e-12
1.49466e-11
2.03921e-11
2.63744e-11
3.28747e-11
3.98065e-11
4.70193e-11
5.43073e-11
6.1423e-11
6.80933e-11
7.40395e-11
7.89971e-11
8.27356e-11
8.50757e-11
8.5903e-11
8.51763e-11
8.29314e-11
7.92777e-11
7.43903e-11
6.84965e-11
6.18589e-11
5.47558e-11
4.7461e-11
4.02241e-11
3.32536e-11
2.67035e-11
2.06637e-11
1.51564e-11
1.01374e-11
5.5031e-12
1.10148e-12
3.81821e-14
4.12736e-14
1.19104e-12
5.95432e-12
1.0974e-11
1.64167e-11
2.23976e-11
2.89681e-11
3.61074e-11
4.37205e-11
5.1642e-11
5.96459e-11
6.74601e-11
7.4785e-11
8.13142e-11
8.67573e-11
9.08612e-11
9.34291e-11
9.43353e-11
9.3535e-11
9.10673e-11
8.70526e-11
8.16833e-11
7.52093e-11
6.79188e-11
6.01178e-11
5.21067e-11
4.41596e-11
3.65057e-11
2.93138e-11
2.26827e-11
1.66366e-11
1.11271e-11
6.04011e-12
1.20889e-12
4.19026e-14
4.38624e-14
1.26583e-12
6.32846e-12
1.16635e-11
1.7448e-11
2.38045e-11
3.07876e-11
3.83751e-11
4.64659e-11
5.48844e-11
6.33903e-11
7.16945e-11
7.94782e-11
8.6416e-11
9.21994e-11
9.65593e-11
9.92866e-11
1.00248e-10
9.93956e-11
9.67713e-11
9.25033e-11
8.67959e-11
7.99147e-11
7.21664e-11
6.38759e-11
5.53625e-11
4.69176e-11
3.87846e-11
3.11428e-11
2.40972e-11
1.76737e-11
1.18204e-11
6.41628e-12
1.2841e-12
4.45062e-14
4.55491e-14
1.31459e-12
6.57249e-12
1.21132e-11
1.81207e-11
2.47222e-11
3.19743e-11
3.98542e-11
4.82567e-11
5.69994e-11
6.58327e-11
7.44563e-11
8.25392e-11
8.97435e-11
9.57487e-11
1.00275e-10
1.03107e-10
1.04104e-10
1.03217e-10
1.00491e-10
9.6057e-11
9.0129e-11
8.29822e-11
7.49352e-11
6.63253e-11
5.74844e-11
4.87149e-11
4.02695e-11
3.23345e-11
2.50188e-11
1.83492e-11
1.2272e-11
6.66126e-12
1.33306e-12
4.61999e-14
4.65733e-14
1.34422e-12
6.72085e-12
1.23867e-11
1.85297e-11
2.52801e-11
3.26959e-11
4.07535e-11
4.93455e-11
5.82853e-11
6.73178e-11
7.61356e-11
8.44005e-11
9.17668e-11
9.79068e-11
1.02535e-10
1.05429e-10
1.06448e-10
1.0554e-10
1.02751e-10
9.82172e-11
9.21548e-11
8.48465e-11
7.66177e-11
6.78137e-11
5.87736e-11
4.98067e-11
4.11714e-11
3.30582e-11
2.55785e-11
1.87594e-11
1.25461e-11
6.80999e-12
1.36277e-12
4.72268e-14
4.71546e-14
1.36105e-12
6.80517e-12
1.25421e-11
1.87622e-11
2.55973e-11
3.31061e-11
4.12648e-11
4.99646e-11
5.90165e-11
6.81621e-11
7.70904e-11
8.54587e-11
9.29171e-11
9.91337e-11
1.03819e-10
1.06749e-10
1.0778e-10
1.06861e-10
1.04037e-10
9.9445e-11
9.33062e-11
8.59059e-11
7.75738e-11
6.86593e-11
5.9506e-11
5.04269e-11
4.16837e-11
3.34693e-11
2.58963e-11
1.89923e-11
1.27018e-11
6.89442e-12
1.37962e-12
4.78089e-14
4.74641e-14
1.37002e-12
6.85013e-12
1.2625e-11
1.88861e-11
2.57664e-11
3.33249e-11
4.15374e-11
5.02947e-11
5.94064e-11
6.86124e-11
7.75995e-11
8.6023e-11
9.35305e-11
9.9788e-11
1.04504e-10
1.07453e-10
1.08491e-10
1.07565e-10
1.04722e-10
1.001e-10
9.392e-11
8.64706e-11
7.80834e-11
6.911e-11
5.98962e-11
5.07574e-11
4.19567e-11
3.36882e-11
2.60655e-11
1.91164e-11
1.27847e-11
6.93938e-12
1.38859e-12
4.81184e-14
4.76192e-14
1.37452e-12
6.87268e-12
1.26665e-11
1.89483e-11
2.58513e-11
3.34346e-11
4.16742e-11
5.04603e-11
5.9602e-11
6.88383e-11
7.78551e-11
8.63062e-11
9.38384e-11
1.00116e-10
1.04848e-10
1.07807e-10
1.08847e-10
1.07918e-10
1.05066e-10
1.00428e-10
9.42279e-11
8.67539e-11
7.8339e-11
6.9336e-11
6.0092e-11
5.09231e-11
4.20935e-11
3.3798e-11
2.61504e-11
1.91785e-11
1.28262e-11
6.9619e-12
1.39308e-12
4.82732e-14
4.76924e-14
1.37664e-12
6.88336e-12
1.26862e-11
1.89778e-11
2.58915e-11
3.34866e-11
4.1739e-11
5.05388e-11
5.96947e-11
6.89453e-11
7.79761e-11
8.64404e-11
9.39842e-11
1.00272e-10
1.05011e-10
1.07974e-10
1.09016e-10
1.08086e-10
1.05228e-10
1.00583e-10
9.43737e-11
8.6888e-11
7.846e-11
6.9443e-11
6.01846e-11
5.10015e-11
4.21583e-11
3.38499e-11
2.61905e-11
1.92079e-11
1.28459e-11
6.97255e-12
1.3952e-12
4.83463e-14
4.77252e-14
1.3776e-12
6.88814e-12
1.2695e-11
1.8991e-11
2.59095e-11
3.35099e-11
4.1768e-11
5.05739e-11
5.97362e-11
6.89933e-11
7.80304e-11
8.65005e-11
9.40496e-11
1.00342e-10
1.05084e-10
1.08049e-10
1.09092e-10
1.08161e-10
1.05301e-10
1.00653e-10
9.44391e-11
8.69481e-11
7.85142e-11
6.9491e-11
6.02261e-11
5.10367e-11
4.21873e-11
3.38732e-11
2.62085e-11
1.92211e-11
1.28547e-11
6.97732e-12
1.39615e-12
4.8379e-14
4.77391e-14
1.378e-12
6.89018e-12
1.26988e-11
1.89966e-11
2.59171e-11
3.35198e-11
4.17804e-11
5.05889e-11
5.97539e-11
6.90137e-11
7.80535e-11
8.65261e-11
9.40774e-11
1.00371e-10
1.05115e-10
1.08081e-10
1.09124e-10
1.08193e-10
1.05332e-10
1.00683e-10
9.44669e-11
8.69737e-11
7.85373e-11
6.95114e-11
6.02438e-11
5.10516e-11
4.21996e-11
3.38831e-11
2.62161e-11
1.92267e-11
1.28584e-11
6.97935e-12
1.39655e-12
4.83929e-14
4.77448e-14
1.37817e-12
6.891e-12
1.27003e-11
1.89989e-11
2.59202e-11
3.35238e-11
4.17854e-11
5.0595e-11
5.97611e-11
6.9022e-11
7.80628e-11
8.65365e-11
9.40887e-11
1.00383e-10
1.05128e-10
1.08094e-10
1.09137e-10
1.08206e-10
1.05345e-10
1.00695e-10
9.44781e-11
8.69841e-11
7.85466e-11
6.95197e-11
6.02509e-11
5.10576e-11
4.22046e-11
3.38871e-11
2.62192e-11
1.9229e-11
1.28599e-11
6.98017e-12
1.39672e-12
4.83985e-14
4.77469e-14
1.37823e-12
6.89132e-12
1.27009e-11
1.89997e-11
2.59214e-11
3.35253e-11
4.17873e-11
5.05973e-11
5.97638e-11
6.90252e-11
7.80664e-11
8.65405e-11
9.40931e-11
1.00388e-10
1.05132e-10
1.08099e-10
1.09142e-10
1.08211e-10
1.0535e-10
1.007e-10
9.44825e-11
8.69881e-11
7.85503e-11
6.95228e-11
6.02537e-11
5.106e-11
4.22065e-11
3.38886e-11
2.62204e-11
1.92299e-11
1.28605e-11
6.98049e-12
1.39678e-12
4.84006e-14
4.77477e-14
1.37825e-12
6.89144e-12
1.27011e-11
1.90001e-11
2.59219e-11
3.35259e-11
4.17881e-11
5.05982e-11
5.97648e-11
6.90264e-11
7.80678e-11
8.6542e-11
9.40947e-11
1.0039e-10
1.05134e-10
1.08101e-10
1.09144e-10
1.08212e-10
1.05352e-10
1.00701e-10
9.44841e-11
8.69896e-11
7.85516e-11
6.9524e-11
6.02547e-11
5.10608e-11
4.22072e-11
3.38892e-11
2.62209e-11
1.92302e-11
1.28607e-11
6.9806e-12
1.3968e-12
4.84014e-14
4.7748e-14
1.37826e-12
6.89148e-12
1.27012e-11
1.90002e-11
2.5922e-11
3.35261e-11
4.17883e-11
5.05985e-11
5.97652e-11
6.90268e-11
7.80682e-11
8.65425e-11
9.40952e-11
1.0039e-10
1.05135e-10
1.08101e-10
1.09145e-10
1.08213e-10
1.05352e-10
1.00702e-10
9.44847e-11
8.69901e-11
7.85521e-11
6.95244e-11
6.02551e-11
5.10611e-11
4.22075e-11
3.38894e-11
2.6221e-11
1.92303e-11
1.28608e-11
6.98064e-12
1.39681e-12
4.84017e-14
4.77481e-14
1.37826e-12
6.89149e-12
1.27012e-11
1.90002e-11
2.59221e-11
3.35262e-11
4.17884e-11
5.05986e-11
5.97653e-11
6.90269e-11
7.80684e-11
8.65427e-11
9.40954e-11
1.00391e-10
1.05135e-10
1.08102e-10
1.09145e-10
1.08213e-10
1.05352e-10
1.00702e-10
9.44848e-11
8.69902e-11
7.85522e-11
6.95246e-11
6.02552e-11
5.10612e-11
4.22076e-11
3.38895e-11
2.62211e-11
1.92303e-11
1.28608e-11
6.98066e-12
1.39681e-12
4.84018e-14
4.77481e-14
1.37826e-12
6.8915e-12
1.27012e-11
1.90002e-11
2.59221e-11
3.35262e-11
4.17884e-11
5.05986e-11
5.97654e-11
6.9027e-11
7.80684e-11
8.65428e-11
9.40955e-11
1.00391e-10
1.05135e-10
1.08102e-10
1.09145e-10
1.08213e-10
1.05353e-10
1.00702e-10
9.44849e-11
8.69903e-11
7.85523e-11
6.95246e-11
6.02552e-11
5.10613e-11
4.22076e-11
3.38895e-11
2.62211e-11
1.92303e-11
1.28608e-11
6.98066e-12
1.39681e-12
4.84018e-14
4.77482e-14
1.37826e-12
6.8915e-12
1.27012e-11
1.90002e-11
2.59221e-11
3.35262e-11
4.17884e-11
5.05986e-11
5.97654e-11
6.9027e-11
7.80685e-11
8.65428e-11
9.40955e-11
1.00391e-10
1.05135e-10
1.08102e-10
1.09145e-10
1.08213e-10
1.05353e-10
1.00702e-10
9.44849e-11
8.69903e-11
7.85523e-11
6.95246e-11
6.02552e-11
5.10613e-11
4.22076e-11
3.38895e-11
2.62211e-11
1.92303e-11
1.28608e-11
6.98066e-12
1.39682e-12
4.84019e-14
4.77482e-14
1.37826e-12
6.8915e-12
1.27012e-11
1.90002e-11
2.59221e-11
3.35262e-11
4.17884e-11
5.05986e-11
5.97654e-11
6.9027e-11
7.80685e-11
8.65428e-11
9.40955e-11
1.00391e-10
1.05135e-10
1.08102e-10
1.09145e-10
1.08213e-10
1.05353e-10
1.00702e-10
9.44849e-11
8.69903e-11
7.85523e-11
6.95246e-11
6.02552e-11
5.10613e-11
4.22076e-11
3.38895e-11
2.62211e-11
1.92303e-11
1.28608e-11
6.98066e-12
1.39682e-12
4.84019e-14
4.77482e-14
1.37826e-12
6.8915e-12
1.27012e-11
1.90002e-11
2.59221e-11
3.35262e-11
4.17884e-11
5.05986e-11
5.97654e-11
6.9027e-11
7.80685e-11
8.65428e-11
9.40955e-11
1.00391e-10
1.05135e-10
1.08102e-10
1.09145e-10
1.08213e-10
1.05353e-10
1.00702e-10
9.44849e-11
8.69903e-11
7.85523e-11
6.95246e-11
6.02552e-11
5.10613e-11
4.22076e-11
3.38895e-11
2.62211e-11
1.92303e-11
1.28608e-11
6.98066e-12
1.39682e-12
4.84019e-14
4.77482e-14
1.37826e-12
6.8915e-12
1.27012e-11
1.90002e-11
2.59221e-11
3.35262e-11
4.17884e-11
5.05986e-11
5.97654e-11
6.9027e-11
7.80685e-11
8.65428e-11
9.40955e-11
1.00391e-10
1.05135e-10
1.08102e-10
1.09145e-10
1.08213e-10
1.05353e-10
1.00702e-10
9.44849e-11
8.69903e-11
7.85523e-11
6.95246e-11
6.02552e-11
5.10613e-11
4.22076e-11
3.38895e-11
2.62211e-11
1.92303e-11
1.28608e-11
6.98066e-12
1.39682e-12
4.84019e-14
4.77482e-14
1.37826e-12
6.8915e-12
1.27012e-11
1.90002e-11
2.59221e-11
3.35262e-11
4.17884e-11
5.05986e-11
5.97654e-11
6.9027e-11
7.80685e-11
8.65428e-11
9.40955e-11
1.00391e-10
1.05135e-10
1.08102e-10
1.09145e-10
1.08213e-10
1.05353e-10
1.00702e-10
9.44849e-11
8.69903e-11
7.85523e-11
6.95246e-11
6.02552e-11
5.10613e-11
4.22076e-11
3.38895e-11
2.62211e-11
1.92303e-11
1.28608e-11
6.98066e-12
1.39682e-12
4.84019e-14
4.77482e-14
1.37826e-12
6.8915e-12
1.27012e-11
1.90002e-11
2.59221e-11
3.35262e-11
4.17884e-11
5.05986e-11
5.97654e-11
6.9027e-11
7.80685e-11
8.65428e-11
9.40955e-11
1.00391e-10
1.05135e-10
1.08102e-10
1.09145e-10
1.08213e-10
1.05353e-10
1.00702e-10
9.44849e-11
8.69903e-11
7.85523e-11
6.95246e-11
6.02553e-11
5.10613e-11
4.22076e-11
3.38895e-11
2.62211e-11
1.92303e-11
1.28608e-11
6.98066e-12
1.39682e-12
4.84019e-14
4.77482e-14
1.37826e-12
6.8915e-12
1.27012e-11
1.90002e-11
2.59221e-11
3.35262e-11
4.17884e-11
5.05986e-11
5.97654e-11
6.9027e-11
7.80685e-11
8.65428e-11
9.40955e-11
1.00391e-10
1.05135e-10
1.08102e-10
1.09145e-10
1.08213e-10
1.05353e-10
1.00702e-10
9.44849e-11
8.69903e-11
7.85523e-11
6.95246e-11
6.02553e-11
5.10613e-11
4.22076e-11
3.38895e-11
2.62211e-11
1.92303e-11
1.28608e-11
6.98066e-12
1.39682e-12
4.84019e-14
4.77482e-14
1.37826e-12
6.8915e-12
1.27012e-11
1.90002e-11
2.59221e-11
3.35262e-11
4.17884e-11
5.05986e-11
5.97654e-11
6.9027e-11
7.80685e-11
8.65428e-11
9.40955e-11
1.00391e-10
1.05135e-10
1.08102e-10
1.09145e-10
1.08213e-10
1.05353e-10
1.00702e-10
9.44849e-11
8.69903e-11
7.85523e-11
6.95246e-11
6.02553e-11
5.10613e-11
4.22076e-11
3.38895e-11
2.62211e-11
1.92303e-11
1.28608e-11
6.98066e-12
1.39682e-12
4.84019e-14
4.77482e-14
1.37826e-12
6.8915e-12
1.27012e-11
1.90002e-11
2.59221e-11
3.35262e-11
4.17884e-11
5.05986e-11
5.97654e-11
6.9027e-11
7.80685e-11
8.65428e-11
9.40955e-11
1.00391e-10
1.05135e-10
1.08102e-10
1.09145e-10
1.08213e-10
1.05353e-10
1.00702e-10
9.44849e-11
8.69903e-11
7.85523e-11
6.95246e-11
6.02553e-11
5.10613e-11
4.22076e-11
3.38895e-11
2.62211e-11
1.92303e-11
1.28608e-11
6.98066e-12
1.39682e-12
4.84019e-14
4.77482e-14
1.37826e-12
6.8915e-12
1.27012e-11
1.90002e-11
2.59221e-11
3.35262e-11
4.17884e-11
5.05986e-11
5.97654e-11
6.9027e-11
7.80685e-11
8.65428e-11
9.40955e-11
1.00391e-10
1.05135e-10
1.08102e-10
1.09145e-10
1.08213e-10
1.05353e-10
1.00702e-10
9.44849e-11
8.69903e-11
7.85523e-11
6.95246e-11
6.02553e-11
5.10613e-11
4.22076e-11
3.38895e-11
2.62211e-11
1.92303e-11
1.28608e-11
6.98066e-12
1.39682e-12
4.84019e-14
4.77482e-14
1.37826e-12
6.8915e-12
1.27012e-11
1.90002e-11
2.59221e-11
3.35262e-11
4.17884e-11
5.05986e-11
5.97654e-11
6.9027e-11
7.80685e-11
8.65428e-11
9.40955e-11
1.00391e-10
1.05135e-10
1.08102e-10
1.09145e-10
1.08213e-10
1.05353e-10
1.00702e-10
9.44849e-11
8.69903e-11
7.85523e-11
6.95246e-11
6.02553e-11
5.10613e-11
4.22076e-11
3.38895e-11
2.62211e-11
1.92303e-11
1.28608e-11
6.98066e-12
1.39682e-12
4.84019e-14
4.77482e-14
1.37826e-12
6.8915e-12
1.27012e-11
1.90002e-11
2.59221e-11
3.35262e-11
4.17884e-11
5.05986e-11
5.97654e-11
6.9027e-11
7.80685e-11
8.65428e-11
9.40955e-11
1.00391e-10
1.05135e-10
1.08102e-10
1.09145e-10
1.08213e-10
1.05353e-10
1.00702e-10
9.44849e-11
8.69903e-11
7.85523e-11
6.95246e-11
6.02553e-11
5.10613e-11
4.22076e-11
3.38895e-11
2.62211e-11
1.92303e-11
1.28608e-11
6.98066e-12
1.39682e-12
4.84019e-14
4.77482e-14
1.37826e-12
6.8915e-12
1.27012e-11
1.90002e-11
2.59221e-11
3.35262e-11
4.17884e-11
5.05986e-11
5.97654e-11
6.9027e-11
7.80685e-11
8.65428e-11
9.40955e-11
1.00391e-10
1.05135e-10
1.08102e-10
1.09145e-10
1.08213e-10
1.05353e-10
1.00702e-10
9.44849e-11
8.69903e-11
7.85523e-11
6.95246e-11
6.02553e-11
5.10613e-11
4.22076e-11
3.38895e-11
2.62211e-11
1.92303e-11
1.28608e-11
6.98066e-12
1.39682e-12
4.84019e-14
4.77482e-14
1.37826e-12
6.8915e-12
1.27012e-11
1.90002e-11
2.59221e-11
3.35262e-11
4.17884e-11
5.05986e-11
5.97654e-11
6.9027e-11
7.80685e-11
8.65428e-11
9.40955e-11
1.00391e-10
1.05135e-10
1.08102e-10
1.09145e-10
1.08213e-10
1.05353e-10
1.00702e-10
9.44849e-11
8.69903e-11
7.85523e-11
6.95246e-11
6.02553e-11
5.10613e-11
4.22076e-11
3.38895e-11
2.62211e-11
1.92303e-11
1.28608e-11
6.98066e-12
1.39682e-12
4.84019e-14
4.77482e-14
1.37826e-12
6.8915e-12
1.27012e-11
1.90002e-11
2.59221e-11
3.35262e-11
4.17884e-11
5.05986e-11
5.97654e-11
6.9027e-11
7.80685e-11
8.65428e-11
9.40955e-11
1.00391e-10
1.05135e-10
1.08102e-10
1.09145e-10
1.08213e-10
1.05353e-10
1.00702e-10
9.44849e-11
8.69903e-11
7.85523e-11
6.95246e-11
6.02553e-11
5.10613e-11
4.22076e-11
3.38895e-11
2.62211e-11
1.92303e-11
1.28608e-11
6.98066e-12
1.39682e-12
4.84019e-14
4.77482e-14
1.37826e-12
6.8915e-12
1.27012e-11
1.90002e-11
2.59221e-11
3.35262e-11
4.17884e-11
5.05986e-11
5.97654e-11
6.9027e-11
7.80685e-11
8.65428e-11
9.40955e-11
1.00391e-10
1.05135e-10
1.08102e-10
1.09145e-10
1.08213e-10
1.05353e-10
1.00702e-10
9.44849e-11
8.69903e-11
7.85523e-11
6.95246e-11
6.02553e-11
5.10613e-11
4.22076e-11
3.38895e-11
2.62211e-11
1.92303e-11
1.28608e-11
6.98066e-12
1.39682e-12
4.84019e-14
4.77482e-14
1.37826e-12
6.8915e-12
1.27012e-11
1.90002e-11
2.59221e-11
3.35262e-11
4.17884e-11
5.05986e-11
5.97654e-11
6.9027e-11
7.80685e-11
8.65428e-11
9.40955e-11
1.00391e-10
1.05135e-10
1.08102e-10
1.09145e-10
1.08213e-10
1.05353e-10
1.00702e-10
9.44849e-11
8.69903e-11
7.85523e-11
6.95246e-11
6.02553e-11
5.10613e-11
4.22076e-11
3.38895e-11
2.62211e-11
1.92303e-11
1.28608e-11
6.98066e-12
1.39682e-12
4.84019e-14
4.77482e-14
1.37826e-12
6.8915e-12
1.27012e-11
1.90002e-11
2.59221e-11
3.35262e-11
4.17884e-11
5.05986e-11
5.97654e-11
6.9027e-11
7.80685e-11
8.65428e-11
9.40955e-11
1.00391e-10
1.05135e-10
1.08102e-10
1.09145e-10
1.08213e-10
1.05353e-10
1.00702e-10
9.44849e-11
8.69903e-11
7.85523e-11
6.95246e-11
6.02553e-11
5.10613e-11
4.22076e-11
3.38895e-11
2.62211e-11
1.92303e-11
1.28608e-11
6.98066e-12
1.39682e-12
4.84019e-14
4.77482e-14
1.37826e-12
6.8915e-12
1.27012e-11
1.90002e-11
2.59221e-11
3.35262e-11
4.17884e-11
5.05986e-11
5.97654e-11
6.9027e-11
7.80685e-11
8.65428e-11
9.40955e-11
1.00391e-10
1.05135e-10
1.08102e-10
1.09145e-10
1.08213e-10
1.05353e-10
1.00702e-10
9.44849e-11
8.69903e-11
7.85523e-11
6.95246e-11
6.02553e-11
5.10613e-11
4.22076e-11
3.38895e-11
2.62211e-11
1.92303e-11
1.28608e-11
6.98066e-12
1.39682e-12
4.84019e-14
4.77482e-14
1.37826e-12
6.8915e-12
1.27012e-11
1.90002e-11
2.59221e-11
3.35262e-11
4.17884e-11
5.05986e-11
5.97654e-11
6.9027e-11
7.80685e-11
8.65428e-11
9.40955e-11
1.00391e-10
1.05135e-10
1.08102e-10
1.09145e-10
1.08213e-10
1.05353e-10
1.00702e-10
9.44849e-11
8.69903e-11
7.85523e-11
6.95246e-11
6.02553e-11
5.10613e-11
4.22076e-11
3.38895e-11
2.62211e-11
1.92303e-11
1.28608e-11
6.98066e-12
1.39682e-12
4.84019e-14
4.77482e-14
1.37826e-12
6.8915e-12
1.27012e-11
1.90002e-11
2.59221e-11
3.35262e-11
4.17884e-11
5.05986e-11
5.97654e-11
6.9027e-11
7.80685e-11
8.65428e-11
9.40955e-11
1.00391e-10
1.05135e-10
1.08102e-10
1.09145e-10
1.08213e-10
1.05353e-10
1.00702e-10
9.44849e-11
8.69903e-11
7.85523e-11
6.95246e-11
6.02553e-11
5.10613e-11
4.22076e-11
3.38895e-11
2.62211e-11
1.92303e-11
1.28608e-11
6.98066e-12
1.39682e-12
4.84019e-14
4.77482e-14
1.37826e-12
6.8915e-12
1.27012e-11
1.90002e-11
2.59221e-11
3.35262e-11
4.17884e-11
5.05986e-11
5.97654e-11
6.9027e-11
7.80685e-11
8.65428e-11
9.40955e-11
1.00391e-10
1.05135e-10
1.08102e-10
1.09145e-10
1.08213e-10
1.05353e-10
1.00702e-10
9.44849e-11
8.69903e-11
7.85523e-11
6.95246e-11
6.02553e-11
5.10613e-11
4.22076e-11
3.38895e-11
2.62211e-11
1.92303e-11
1.28608e-11
6.98066e-12
1.39682e-12
4.84019e-14
4.77482e-14
1.37826e-12
6.8915e-12
1.27012e-11
1.90002e-11
2.59221e-11
3.35262e-11
4.17884e-11
5.05986e-11
5.97654e-11
6.9027e-11
7.80685e-11
8.65428e-11
9.40955e-11
1.00391e-10
1.05135e-10
1.08102e-10
1.09145e-10
1.08213e-10
1.05353e-10
1.00702e-10
9.44849e-11
8.69903e-11
7.85523e-11
6.95246e-11
6.02553e-11
5.10613e-11
4.22076e-11
3.38895e-11
2.62211e-11
1.92303e-11
1.28608e-11
6.98066e-12
1.39682e-12
4.84019e-14
4.77482e-14
1.37826e-12
6.8915e-12
1.27012e-11
1.90002e-11
2.59221e-11
3.35262e-11
4.17884e-11
5.05986e-11
5.97654e-11
6.9027e-11
7.80685e-11
8.65428e-11
9.40955e-11
1.00391e-10
1.05135e-10
1.08102e-10
1.09145e-10
1.08213e-10
1.05353e-10
1.00702e-10
9.44849e-11
8.69903e-11
7.85523e-11
6.95246e-11
6.02553e-11
5.10613e-11
4.22076e-11
3.38895e-11
2.62211e-11
1.92303e-11
1.28608e-11
6.98066e-12
1.39682e-12
4.84019e-14
4.77482e-14
1.37826e-12
6.8915e-12
1.27012e-11
1.90002e-11
2.59221e-11
3.35262e-11
4.17884e-11
5.05986e-11
5.97654e-11
6.9027e-11
7.80685e-11
8.65428e-11
9.40955e-11
1.00391e-10
1.05135e-10
1.08102e-10
1.09145e-10
1.08213e-10
1.05353e-10
1.00702e-10
9.44849e-11
8.69903e-11
7.85523e-11
6.95246e-11
6.02553e-11
5.10613e-11
4.22076e-11
3.38895e-11
2.62211e-11
1.92303e-11
1.28608e-11
6.98066e-12
1.39682e-12
4.84019e-14
4.77482e-14
1.37826e-12
6.8915e-12
1.27012e-11
1.90002e-11
2.59221e-11
3.35262e-11
4.17884e-11
5.05986e-11
5.97654e-11
6.9027e-11
7.80685e-11
8.65428e-11
9.40955e-11
1.00391e-10
1.05135e-10
1.08102e-10
1.09145e-10
1.08213e-10
1.05353e-10
1.00702e-10
9.44849e-11
8.69903e-11
7.85523e-11
6.95246e-11
6.02553e-11
5.10613e-11
4.22076e-11
3.38895e-11
2.62211e-11
1.92303e-11
1.28608e-11
6.98066e-12
1.39682e-12
4.84019e-14
4.77482e-14
1.37826e-12
6.8915e-12
1.27012e-11
1.90002e-11
2.59221e-11
3.35262e-11
4.17884e-11
5.05986e-11
5.97654e-11
6.9027e-11
7.80685e-11
8.65428e-11
9.40955e-11
1.00391e-10
1.05135e-10
1.08102e-10
1.09145e-10
1.08213e-10
1.05353e-10
1.00702e-10
9.44849e-11
8.69903e-11
7.85523e-11
6.95246e-11
6.02553e-11
5.10613e-11
4.22076e-11
3.38895e-11
2.62211e-11
1.92303e-11
1.28608e-11
6.98066e-12
1.39682e-12
4.84019e-14
4.77482e-14
1.37826e-12
6.8915e-12
1.27012e-11
1.90002e-11
2.59221e-11
3.35262e-11
4.17884e-11
5.05986e-11
5.97654e-11
6.9027e-11
7.80685e-11
8.65428e-11
9.40955e-11
1.00391e-10
1.05135e-10
1.08102e-10
1.09145e-10
1.08213e-10
1.05353e-10
1.00702e-10
9.44849e-11
8.69903e-11
7.85523e-11
6.95246e-11
6.02553e-11
5.10613e-11
4.22076e-11
3.38895e-11
2.62211e-11
1.92303e-11
1.28608e-11
6.98066e-12
1.39682e-12
4.84019e-14
4.77482e-14
1.37826e-12
6.8915e-12
1.27012e-11
1.90002e-11
2.59221e-11
3.35262e-11
4.17884e-11
5.05986e-11
5.97654e-11
6.9027e-11
7.80685e-11
8.65428e-11
9.40955e-11
1.00391e-10
1.05135e-10
1.08102e-10
1.09145e-10
1.08213e-10
1.05353e-10
1.00702e-10
9.44849e-11
8.69903e-11
7.85523e-11
6.95246e-11
6.02553e-11
5.10613e-11
4.22076e-11
3.38895e-11
2.62211e-11
1.92303e-11
1.28608e-11
6.98066e-12
1.39682e-12
4.84019e-14
4.77482e-14
1.37826e-12
6.8915e-12
1.27012e-11
1.90002e-11
2.59221e-11
3.35262e-11
4.17884e-11
5.05986e-11
5.97654e-11
6.9027e-11
7.80685e-11
8.65428e-11
9.40955e-11
1.00391e-10
1.05135e-10
1.08102e-10
1.09145e-10
1.08213e-10
1.05353e-10
1.00702e-10
9.44849e-11
8.69903e-11
7.85523e-11
6.95246e-11
6.02553e-11
5.10613e-11
4.22076e-11
3.38895e-11
2.62211e-11
1.92303e-11
1.28608e-11
6.98066e-12
1.39682e-12
4.84019e-14
4.77482e-14
1.37826e-12
6.8915e-12
1.27012e-11
1.90002e-11
2.59221e-11
3.35262e-11
4.17884e-11
5.05986e-11
5.97654e-11
6.9027e-11
7.80685e-11
8.65428e-11
9.40955e-11
1.00391e-10
1.05135e-10
1.08102e-10
1.09145e-10
1.08213e-10
1.05353e-10
1.00702e-10
9.44849e-11
8.69903e-11
7.85523e-11
6.95246e-11
6.02553e-11
5.10613e-11
4.22076e-11
3.38895e-11
2.62211e-11
1.92303e-11
1.28608e-11
6.98066e-12
1.39682e-12
4.84019e-14
4.77482e-14
1.37826e-12
6.8915e-12
1.27012e-11
1.90002e-11
2.59221e-11
3.35262e-11
4.17884e-11
5.05986e-11
5.97654e-11
6.9027e-11
7.80685e-11
8.65428e-11
9.40955e-11
1.00391e-10
1.05135e-10
1.08102e-10
1.09145e-10
1.08213e-10
1.05353e-10
1.00702e-10
9.44849e-11
8.69903e-11
7.85523e-11
6.95246e-11
6.02553e-11
5.10613e-11
4.22076e-11
3.38895e-11
2.62211e-11
1.92303e-11
1.28608e-11
6.98066e-12
1.39682e-12
4.84019e-14
4.77482e-14
1.37826e-12
6.8915e-12
1.27012e-11
1.90002e-11
2.59221e-11
3.35262e-11
4.17884e-11
5.05986e-11
5.97654e-11
6.9027e-11
7.80685e-11
8.65428e-11
9.40955e-11
1.00391e-10
1.05135e-10
1.08102e-10
1.09145e-10
1.08213e-10
1.05353e-10
1.00702e-10
9.44849e-11
8.69903e-11
7.85523e-11
6.95246e-11
6.02553e-11
5.10613e-11
4.22076e-11
3.38895e-11
2.62211e-11
1.92303e-11
1.28608e-11
6.98066e-12
1.39682e-12
4.84019e-14
4.77482e-14
1.37826e-12
6.8915e-12
1.27012e-11
1.90002e-11
2.59221e-11
3.35262e-11
4.17884e-11
5.05986e-11
5.97654e-11
6.9027e-11
7.80685e-11
8.65428e-11
9.40955e-11
1.00391e-10
1.05135e-10
1.08102e-10
1.09145e-10
1.08213e-10
1.05353e-10
1.00702e-10
9.44849e-11
8.69903e-11
7.85523e-11
6.95246e-11
6.02553e-11
5.10613e-11
4.22076e-11
3.38895e-11
2.62211e-11
1.92303e-11
1.28608e-11
6.98066e-12
1.39682e-12
4.84019e-14
4.77482e-14
1.37826e-12
6.8915e-12
1.27012e-11
1.90002e-11
2.59221e-11
3.35262e-11
4.17884e-11
5.05986e-11
5.97654e-11
6.9027e-11
7.80685e-11
8.65428e-11
9.40955e-11
1.00391e-10
1.05135e-10
1.08102e-10
1.09145e-10
1.08213e-10
1.05353e-10
1.00702e-10
9.44849e-11
8.69903e-11
7.85523e-11
6.95246e-11
6.02553e-11
5.10613e-11
4.22076e-11
3.38895e-11
2.62211e-11
1.92303e-11
1.28608e-11
6.98066e-12
1.39682e-12
4.84019e-14
4.77482e-14
1.37826e-12
6.8915e-12
1.27012e-11
1.90002e-11
2.59221e-11
3.35262e-11
4.17884e-11
5.05986e-11
5.97654e-11
6.9027e-11
7.80685e-11
8.65428e-11
9.40955e-11
1.00391e-10
1.05135e-10
1.08102e-10
1.09145e-10
1.08213e-10
1.05353e-10
1.00702e-10
9.44849e-11
8.69903e-11
7.85523e-11
6.95246e-11
6.02553e-11
5.10613e-11
4.22076e-11
3.38895e-11
2.62211e-11
1.92303e-11
1.28608e-11
6.98066e-12
1.39682e-12
4.84019e-14
4.77482e-14
1.37826e-12
6.8915e-12
1.27012e-11
1.90002e-11
2.59221e-11
3.35262e-11
4.17884e-11
5.05986e-11
5.97654e-11
6.9027e-11
7.80685e-11
8.65428e-11
9.40955e-11
1.00391e-10
1.05135e-10
1.08102e-10
1.09145e-10
1.08213e-10
1.05353e-10
1.00702e-10
9.44849e-11
8.69903e-11
7.85523e-11
6.95246e-11
6.02553e-11
5.10613e-11
4.22076e-11
3.38895e-11
2.62211e-11
1.92303e-11
1.28608e-11
6.98066e-12
1.39682e-12
4.84019e-14
4.77482e-14
1.37826e-12
6.8915e-12
1.27012e-11
1.90002e-11
2.59221e-11
3.35262e-11
4.17884e-11
5.05986e-11
5.97654e-11
6.9027e-11
7.80685e-11
8.65428e-11
9.40955e-11
1.00391e-10
1.05135e-10
1.08102e-10
1.09145e-10
1.08213e-10
1.05353e-10
1.00702e-10
9.44849e-11
8.69903e-11
7.85523e-11
6.95246e-11
6.02553e-11
5.10613e-11
4.22076e-11
3.38895e-11
2.62211e-11
1.92303e-11
1.28608e-11
6.98066e-12
1.39682e-12
4.84019e-14
4.77482e-14
1.37826e-12
6.8915e-12
1.27012e-11
1.90002e-11
2.59221e-11
3.35262e-11
4.17884e-11
5.05986e-11
5.97654e-11
6.9027e-11
7.80685e-11
8.65428e-11
9.40955e-11
1.00391e-10
1.05135e-10
1.08102e-10
1.09145e-10
1.08213e-10
1.05353e-10
1.00702e-10
9.44849e-11
8.69903e-11
7.85523e-11
6.95246e-11
6.02553e-11
5.10613e-11
4.22076e-11
3.38895e-11
2.62211e-11
1.92303e-11
1.28608e-11
6.98066e-12
1.39682e-12
4.84019e-14
4.77482e-14
1.37826e-12
6.8915e-12
1.27012e-11
1.90002e-11
2.59221e-11
3.35262e-11
4.17884e-11
5.05986e-11
5.97654e-11
6.9027e-11
7.80685e-11
8.65428e-11
9.40955e-11
1.00391e-10
1.05135e-10
1.08102e-10
1.09145e-10
1.08213e-10
1.05353e-10
1.00702e-10
9.44849e-11
8.69903e-11
7.85523e-11
6.95246e-11
6.02553e-11
5.10613e-11
4.22076e-11
3.38895e-11
2.62211e-11
1.92303e-11
1.28608e-11
6.98066e-12
1.39682e-12
4.84019e-14
4.77482e-14
1.37826e-12
6.8915e-12
1.27012e-11
1.90002e-11
2.59221e-11
3.35262e-11
4.17884e-11
5.05986e-11
5.97654e-11
6.9027e-11
7.80685e-11
8.65428e-11
9.40955e-11
1.00391e-10
1.05135e-10
1.08102e-10
1.09145e-10
1.08213e-10
1.05353e-10
1.00702e-10
9.44849e-11
8.69903e-11
7.85523e-11
6.95246e-11
6.02553e-11
5.10613e-11
4.22076e-11
3.38895e-11
2.62211e-11
1.92303e-11
1.28608e-11
6.98066e-12
1.39682e-12
4.84019e-14
4.77482e-14
1.37826e-12
6.8915e-12
1.27012e-11
1.90002e-11
2.59221e-11
3.35262e-11
4.17884e-11
5.05986e-11
5.97654e-11
6.9027e-11
7.80685e-11
8.65428e-11
9.40955e-11
1.00391e-10
1.05135e-10
1.08102e-10
1.09145e-10
1.08213e-10
1.05353e-10
1.00702e-10
9.44849e-11
8.69903e-11
7.85523e-11
6.95246e-11
6.02553e-11
5.10613e-11
4.22076e-11
3.38895e-11
2.62211e-11
1.92303e-11
1.28608e-11
6.98066e-12
1.39682e-12
4.84019e-14
4.77482e-14
1.37826e-12
6.8915e-12
1.27012e-11
1.90002e-11
2.59221e-11
3.35262e-11
4.17884e-11
5.05986e-11
5.97654e-11
6.9027e-11
7.80685e-11
8.65428e-11
9.40955e-11
1.00391e-10
1.05135e-10
1.08102e-10
1.09145e-10
1.08213e-10
1.05353e-10
1.00702e-10
9.44849e-11
8.69903e-11
7.85523e-11
6.95246e-11
6.02553e-11
5.10613e-11
4.22076e-11
3.38895e-11
2.62211e-11
1.92303e-11
1.28608e-11
6.98066e-12
1.39682e-12
4.84019e-14
4.77482e-14
1.37826e-12
6.8915e-12
1.27012e-11
1.90002e-11
2.59221e-11
3.35262e-11
4.17884e-11
5.05986e-11
5.97654e-11
6.9027e-11
7.80685e-11
8.65428e-11
9.40955e-11
1.00391e-10
1.05135e-10
1.08102e-10
1.09145e-10
1.08213e-10
1.05353e-10
1.00702e-10
9.44849e-11
8.69903e-11
7.85523e-11
6.95246e-11
6.02553e-11
5.10613e-11
4.22076e-11
3.38895e-11
2.62211e-11
1.92303e-11
1.28608e-11
6.98066e-12
1.39682e-12
4.84019e-14
4.77482e-14
1.37826e-12
6.8915e-12
1.27012e-11
1.90002e-11
2.59221e-11
3.35262e-11
4.17884e-11
5.05986e-11
5.97654e-11
6.9027e-11
7.80685e-11
8.65428e-11
9.40955e-11
1.00391e-10
1.05135e-10
1.08102e-10
1.09145e-10
1.08213e-10
1.05353e-10
1.00702e-10
9.44849e-11
8.69903e-11
7.85523e-11
6.95246e-11
6.02553e-11
5.10613e-11
4.22076e-11
3.38895e-11
2.62211e-11
1.92303e-11
1.28608e-11
6.98066e-12
1.39682e-12
4.84019e-14
4.77482e-14
1.37826e-12
6.8915e-12
1.27012e-11
1.90002e-11
2.59221e-11
3.35262e-11
4.17884e-11
5.05986e-11
5.97654e-11
6.9027e-11
7.80685e-11
8.65428e-11
9.40955e-11
1.00391e-10
1.05135e-10
1.08102e-10
1.09145e-10
1.08213e-10
1.05353e-10
1.00702e-10
9.44849e-11
8.69903e-11
7.85523e-11
6.95246e-11
6.02553e-11
5.10613e-11
4.22076e-11
3.38895e-11
2.62211e-11
1.92303e-11
1.28608e-11
6.98066e-12
1.39682e-12
4.84019e-14
4.77482e-14
1.37826e-12
6.8915e-12
1.27012e-11
1.90002e-11
2.59221e-11
3.35262e-11
4.17884e-11
5.05986e-11