/*--------------------------------*- C++ -*----------------------------------*\
  =========                 |
  \\      /  F ield         | OpenFOAM: The Open Source CFD Toolbox
   \\    /   O peration     | Website:  https://openfoam.org
    \\  /    A nd           | Version:  13
     \\/     M anipulation  |
\*---------------------------------------------------------------------------*/
FoamFile
{
    format      ascii;
    class       volScalarField;
    location    "85";
    object      nut;
}
// * * * * * * * * * * * * * * * * * * * * * * * * * * * * * * * * * * * * * //

dimensions      [0 2 -1 0 0 0 0];

internalField   nonuniform List<scalar> 
315000
(
2.33374e-14
6.11069e-12
1.39403e-10
2.50092e-10
3.6238e-10
4.76429e-10
5.92463e-10
7.10678e-10
8.3119e-10
9.54014e-10
1.07906e-09
1.20611e-09
1.33488e-09
1.46494e-09
1.59581e-09
1.72692e-09
1.85766e-09
1.98735e-09
2.11529e-09
2.24075e-09
2.36298e-09
2.48125e-09
2.59479e-09
2.70289e-09
2.80484e-09
2.89994e-09
2.98756e-09
3.0671e-09
3.13798e-09
3.19973e-09
3.2519e-09
3.29412e-09
3.32608e-09
3.34756e-09
3.3584e-09
3.35852e-09
3.34793e-09
3.32669e-09
3.29496e-09
3.25297e-09
3.20102e-09
3.13949e-09
3.0688e-09
2.98946e-09
2.90202e-09
2.80708e-09
2.70528e-09
2.59731e-09
2.48388e-09
2.36572e-09
2.24356e-09
2.11816e-09
1.99026e-09
1.86059e-09
1.72986e-09
1.59872e-09
1.46782e-09
1.3377e-09
1.20886e-09
1.0817e-09
9.56546e-10
8.33584e-10
7.12913e-10
5.94514e-10
4.78264e-10
3.6396e-10
2.51356e-10
1.40248e-10
6.15636e-12
2.35311e-14
5.84211e-13
1.55547e-10
3.53786e-08
6.38872e-08
9.26279e-08
1.21711e-07
1.51227e-07
1.81237e-07
2.11777e-07
2.42852e-07
2.74434e-07
3.0647e-07
3.38877e-07
3.71549e-07
4.04359e-07
4.37164e-07
4.69807e-07
5.0212e-07
5.33929e-07
5.65057e-07
5.95321e-07
6.24543e-07
6.52545e-07
6.79155e-07
7.04204e-07
7.27535e-07
7.48996e-07
7.68448e-07
7.85764e-07
8.00829e-07
8.13545e-07
8.23825e-07
8.31602e-07
8.36824e-07
8.39455e-07
8.39478e-07
8.36893e-07
8.31717e-07
8.23985e-07
8.13748e-07
8.01075e-07
7.86051e-07
7.68774e-07
7.49358e-07
7.27932e-07
7.04633e-07
6.79612e-07
6.53028e-07
6.25048e-07
5.95845e-07
5.65596e-07
5.3448e-07
5.02679e-07
4.70369e-07
4.37726e-07
4.04917e-07
3.72098e-07
3.39413e-07
3.06989e-07
2.74932e-07
2.43323e-07
2.12218e-07
1.81642e-07
1.5159e-07
1.22026e-07
9.28876e-08
6.40821e-08
3.54968e-08
1.56116e-10
5.86428e-13
2.35619e-12
6.2826e-10
3.60466e-07
6.44579e-07
9.26415e-07
1.20761e-06
1.48941e-06
1.77264e-06
2.05774e-06
2.34479e-06
2.63353e-06
2.92339e-06
3.21355e-06
3.50303e-06
3.79066e-06
4.07522e-06
4.35541e-06
4.62991e-06
4.89744e-06
5.15669e-06
5.40643e-06
5.64546e-06
5.87262e-06
6.08681e-06
6.287e-06
6.47223e-06
6.64161e-06
6.7943e-06
6.92958e-06
7.04679e-06
7.14536e-06
7.22482e-06
7.28479e-06
7.32498e-06
7.34519e-06
7.34532e-06
7.32538e-06
7.28546e-06
7.22576e-06
7.14655e-06
7.04823e-06
6.93126e-06
6.79622e-06
6.64375e-06
6.47459e-06
6.28956e-06
6.08955e-06
5.87552e-06
5.64852e-06
5.40962e-06
5.15999e-06
4.90083e-06
4.63337e-06
4.35891e-06
4.07875e-06
3.79419e-06
3.50652e-06
3.21698e-06
2.92672e-06
2.63673e-06
2.34784e-06
2.06059e-06
1.77526e-06
1.49176e-06
1.20965e-06
9.28083e-07
6.45824e-07
3.61216e-07
6.29668e-10
2.36161e-12
4.30841e-12
1.149e-09
6.53001e-07
1.15701e-06
1.65045e-06
2.13743e-06
2.62096e-06
3.10302e-06
3.58472e-06
4.06637e-06
4.54762e-06
5.02757e-06
5.5049e-06
5.97801e-06
6.44513e-06
6.90442e-06
7.354e-06
7.79202e-06
8.21666e-06
8.62617e-06
9.01892e-06
9.39333e-06
9.74789e-06
1.00812e-05
1.03918e-05
1.06785e-05
1.09401e-05
1.11756e-05
1.13838e-05
1.1564e-05
1.17154e-05
1.18373e-05
1.19292e-05
1.19907e-05
1.20217e-05
1.20218e-05
1.19912e-05
1.19299e-05
1.18383e-05
1.17167e-05
1.15656e-05
1.13857e-05
1.11777e-05
1.09426e-05
1.06812e-05
1.03947e-05
1.00843e-05
9.7512e-06
9.39682e-06
9.02257e-06
8.62996e-06
8.22056e-06
7.79602e-06
7.35806e-06
6.90852e-06
6.44923e-06
5.98209e-06
5.50892e-06
5.03149e-06
4.55141e-06
4.06999e-06
3.58812e-06
3.10615e-06
2.62378e-06
2.13988e-06
1.65247e-06
1.15853e-06
6.53926e-07
1.15077e-09
4.31525e-12
6.39003e-12
1.70448e-09
9.59254e-07
1.68442e-06
2.38587e-06
3.07161e-06
3.74727e-06
4.4165e-06
5.08138e-06
5.74268e-06
6.40013e-06
7.0527e-06
7.69877e-06
8.33644e-06
8.96359e-06
9.57808e-06
1.01778e-05
1.07606e-05
1.13246e-05
1.18679e-05
1.23884e-05
1.28845e-05
1.33541e-05
1.37956e-05
1.42072e-05
1.4587e-05
1.49336e-05
1.52455e-05
1.55213e-05
1.57599e-05
1.59603e-05
1.61216e-05
1.62433e-05
1.63247e-05
1.63655e-05
1.63657e-05
1.63251e-05
1.6244e-05
1.61226e-05
1.59616e-05
1.57615e-05
1.55231e-05
1.52476e-05
1.4936e-05
1.45896e-05
1.421e-05
1.37987e-05
1.33574e-05
1.28879e-05
1.2392e-05
1.18716e-05
1.13285e-05
1.07646e-05
1.01818e-05
9.58212e-06
8.96764e-06
8.34048e-06
7.70276e-06
7.0566e-06
6.40392e-06
5.7463e-06
5.0848e-06
4.41967e-06
3.75013e-06
3.07411e-06
2.38794e-06
1.68599e-06
9.60226e-07
1.70639e-09
6.39742e-12
8.43047e-12
2.24923e-09
1.25412e-06
2.18423e-06
3.07459e-06
3.93819e-06
4.78379e-06
5.61702e-06
6.44111e-06
7.25748e-06
8.0661e-06
8.866e-06
9.65553e-06
1.04327e-05
1.11953e-05
1.19412e-05
1.26682e-05
1.33741e-05
1.40568e-05
1.47143e-05
1.53444e-05
1.59448e-05
1.65131e-05
1.70471e-05
1.75447e-05
1.80036e-05
1.84221e-05
1.87984e-05
1.91311e-05
1.94186e-05
1.966e-05
1.98543e-05
2.00007e-05
2.00987e-05
2.01478e-05
2.0148e-05
2.00991e-05
2.00014e-05
1.98552e-05
1.96612e-05
1.942e-05
1.91327e-05
1.88003e-05
1.84242e-05
1.80059e-05
1.75472e-05
1.70498e-05
1.6516e-05
1.59478e-05
1.53476e-05
1.47177e-05
1.40603e-05
1.33776e-05
1.26718e-05
1.19449e-05
1.1199e-05
1.04363e-05
9.65915e-06
8.86955e-06
8.06955e-06
7.26079e-06
6.44425e-06
5.61993e-06
4.78643e-06
3.94051e-06
3.07653e-06
2.18571e-06
1.25505e-06
2.2511e-09
8.43775e-12
1.02493e-11
2.73508e-09
1.51282e-06
2.61688e-06
3.6651e-06
4.67564e-06
5.66049e-06
6.62722e-06
7.58024e-06
8.52157e-06
9.45156e-06
1.03694e-05
1.12735e-05
1.2162e-05
1.30326e-05
1.38832e-05
1.47117e-05
1.55158e-05
1.62933e-05
1.7042e-05
1.77592e-05
1.84424e-05
1.90888e-05
1.96957e-05
2.02609e-05
2.07819e-05
2.12567e-05
2.16835e-05
2.20605e-05
2.23864e-05
2.26599e-05
2.288e-05
2.30458e-05
2.31567e-05
2.32123e-05
2.32124e-05
2.3157e-05
2.30463e-05
2.28808e-05
2.26609e-05
2.23876e-05
2.20619e-05
2.1685e-05
2.12585e-05
2.07838e-05
2.0263e-05
1.9698e-05
1.90912e-05
1.8445e-05
1.7762e-05
1.70449e-05
1.62963e-05
1.55188e-05
1.47148e-05
1.38864e-05
1.30358e-05
1.21651e-05
1.12766e-05
1.03725e-05
9.45457e-06
8.52447e-06
7.58298e-06
6.62978e-06
5.66282e-06
4.67769e-06
3.66681e-06
2.6182e-06
1.51365e-06
2.73681e-09
1.02561e-11
1.17266e-11
3.12991e-09
1.72026e-06
2.96022e-06
4.13034e-06
5.25353e-06
6.34456e-06
7.41268e-06
8.46327e-06
9.49895e-06
1.05204e-05
1.15269e-05
1.25171e-05
1.34891e-05
1.44409e-05
1.53701e-05
1.62748e-05
1.71527e-05
1.80014e-05
1.88184e-05
1.96008e-05
2.03457e-05
2.10502e-05
2.17114e-05
2.23268e-05
2.2894e-05
2.34107e-05
2.38749e-05
2.4285e-05
2.46394e-05
2.49368e-05
2.5176e-05
2.53563e-05
2.54768e-05
2.55372e-05
2.55373e-05
2.54771e-05
2.53567e-05
2.51767e-05
2.49376e-05
2.46404e-05
2.42862e-05
2.38763e-05
2.34122e-05
2.28956e-05
2.23286e-05
2.17134e-05
2.10523e-05
2.0348e-05
1.96032e-05
1.88208e-05
1.80039e-05
1.71553e-05
1.62775e-05
1.53728e-05
1.44436e-05
1.34919e-05
1.25199e-05
1.15296e-05
1.0523e-05
9.50148e-06
8.46567e-06
7.41491e-06
6.3466e-06
5.25533e-06
4.13185e-06
2.96138e-06
1.721e-06
3.13149e-09
1.17328e-11
1.28262e-11
3.42398e-09
1.87323e-06
3.2115e-06
4.46917e-06
5.6729e-06
6.83961e-06
7.97985e-06
9.09975e-06
1.02024e-05
1.12886e-05
1.2358e-05
1.34092e-05
1.44404e-05
1.54496e-05
1.64346e-05
1.73933e-05
1.83235e-05
1.92227e-05
2.00881e-05
2.09166e-05
2.17052e-05
2.24507e-05
2.31502e-05
2.38011e-05
2.44008e-05
2.49471e-05
2.54379e-05
2.58714e-05
2.62459e-05
2.65601e-05
2.68129e-05
2.70033e-05
2.71307e-05
2.71945e-05
2.71946e-05
2.71309e-05
2.70037e-05
2.68135e-05
2.65609e-05
2.62468e-05
2.58724e-05
2.54391e-05
2.49485e-05
2.44023e-05
2.38027e-05
2.3152e-05
2.24526e-05
2.17072e-05
2.09187e-05
2.00903e-05
1.9225e-05
1.83258e-05
1.73957e-05
1.6437e-05
1.5452e-05
1.44429e-05
1.34116e-05
1.23604e-05
1.1291e-05
1.02046e-05
9.10191e-06
7.98186e-06
6.84145e-06
5.67452e-06
4.47053e-06
3.21256e-06
1.8739e-06
3.42544e-09
1.28319e-11
1.35812e-11
3.62604e-09
1.97762e-06
3.38215e-06
4.69856e-06
5.95619e-06
7.17351e-06
8.36194e-06
9.52815e-06
1.06755e-05
1.1805e-05
1.29164e-05
1.40084e-05
1.50792e-05
1.61269e-05
1.71492e-05
1.81442e-05
1.91095e-05
2.00425e-05
2.09403e-05
2.17998e-05
2.26176e-05
2.33906e-05
2.41158e-05
2.47905e-05
2.54121e-05
2.59782e-05
2.64868e-05
2.69359e-05
2.7324e-05
2.76495e-05
2.79114e-05
2.81087e-05
2.82406e-05
2.83067e-05
2.83068e-05
2.82408e-05
2.8109e-05
2.79119e-05
2.76502e-05
2.73248e-05
2.69369e-05
2.64879e-05
2.59795e-05
2.54135e-05
2.4792e-05
2.41175e-05
2.33923e-05
2.26194e-05
2.18017e-05
2.09424e-05
2.00446e-05
1.91117e-05
1.81465e-05
1.71515e-05
1.61292e-05
1.50815e-05
1.40107e-05
1.29187e-05
1.18073e-05
1.06776e-05
9.53018e-06
8.36384e-06
7.17524e-06
5.95772e-06
4.69984e-06
3.38314e-06
1.97826e-06
3.62743e-09
1.35867e-11
1.40625e-11
3.75494e-09
2.04394e-06
3.49023e-06
4.84358e-06
6.13511e-06
7.38424e-06
8.60299e-06
9.79835e-06
1.09739e-05
1.21307e-05
1.32686e-05
1.43864e-05
1.54822e-05
1.65542e-05
1.76003e-05
1.86182e-05
1.96058e-05
2.05603e-05
2.14787e-05
2.23577e-05
2.31941e-05
2.39846e-05
2.47262e-05
2.5416e-05
2.60515e-05
2.66302e-05
2.71501e-05
2.76092e-05
2.80059e-05
2.83387e-05
2.86063e-05
2.8808e-05
2.89428e-05
2.90104e-05
2.90104e-05
2.8943e-05
2.88083e-05
2.86069e-05
2.83393e-05
2.80067e-05
2.76102e-05
2.71512e-05
2.66315e-05
2.60528e-05
2.54175e-05
2.47278e-05
2.39863e-05
2.3196e-05
2.23597e-05
2.14807e-05
2.05623e-05
1.96079e-05
1.86204e-05
1.76025e-05
1.65565e-05
1.54845e-05
1.43886e-05
1.32709e-05
1.21329e-05
1.0976e-05
9.80035e-06
8.60486e-06
7.38594e-06
6.13661e-06
4.84484e-06
3.4912e-06
2.04457e-06
3.75631e-09
1.4068e-11
1.4349e-11
3.83171e-09
2.08335e-06
3.55435e-06
4.92956e-06
6.24114e-06
7.50913e-06
8.74586e-06
9.95853e-06
1.11508e-05
1.23239e-05
1.34776e-05
1.46108e-05
1.57216e-05
1.68082e-05
1.78684e-05
1.89001e-05
1.99011e-05
2.08685e-05
2.17993e-05
2.26901e-05
2.35377e-05
2.43387e-05
2.50901e-05
2.57891e-05
2.64329e-05
2.70193e-05
2.7546e-05
2.80112e-05
2.8413e-05
2.87501e-05
2.90213e-05
2.92256e-05
2.93622e-05
2.94306e-05
2.94307e-05
2.93624e-05
2.9226e-05
2.90219e-05
2.87508e-05
2.84138e-05
2.80121e-05
2.75471e-05
2.70205e-05
2.64343e-05
2.57906e-05
2.50917e-05
2.43405e-05
2.35396e-05
2.26921e-05
2.18013e-05
2.08706e-05
1.99032e-05
1.89024e-05
1.78706e-05
1.68104e-05
1.57239e-05
1.4613e-05
1.34799e-05
1.23261e-05
1.11529e-05
9.96054e-06
8.74774e-06
7.51084e-06
6.24265e-06
4.93083e-06
3.55533e-06
2.08398e-06
3.83309e-09
1.43545e-11
1.45089e-11
3.87461e-09
2.10535e-06
3.59013e-06
4.97752e-06
6.3003e-06
7.57883e-06
8.82563e-06
1.0048e-05
1.12497e-05
1.2432e-05
1.35946e-05
1.47365e-05
1.58558e-05
1.69506e-05
1.80189e-05
1.90584e-05
2.0067e-05
2.10417e-05
2.19796e-05
2.28772e-05
2.37311e-05
2.45381e-05
2.52952e-05
2.59993e-05
2.6648e-05
2.72387e-05
2.77693e-05
2.82379e-05
2.86428e-05
2.89824e-05
2.92556e-05
2.94614e-05
2.9599e-05
2.96679e-05
2.9668e-05
2.95992e-05
2.94617e-05
2.92561e-05
2.89831e-05
2.86436e-05
2.82389e-05
2.77705e-05
2.724e-05
2.66494e-05
2.60009e-05
2.52968e-05
2.45399e-05
2.3733e-05
2.28792e-05
2.19817e-05
2.10439e-05
2.00692e-05
1.90607e-05
1.80212e-05
1.69529e-05
1.58581e-05
1.47388e-05
1.35969e-05
1.24342e-05
1.12519e-05
1.00501e-05
8.82754e-06
7.58057e-06
6.30184e-06
4.97881e-06
3.59112e-06
2.10599e-06
3.87601e-09
1.45145e-11
1.45931e-11
3.89719e-09
2.11693e-06
3.60896e-06
5.00277e-06
6.33146e-06
7.61556e-06
8.86771e-06
1.00953e-05
1.1302e-05
1.24891e-05
1.36565e-05
1.4803e-05
1.59269e-05
1.70261e-05
1.80987e-05
1.91425e-05
2.01552e-05
2.11339e-05
2.20756e-05
2.29768e-05
2.38342e-05
2.46444e-05
2.54045e-05
2.61115e-05
2.67627e-05
2.73558e-05
2.78886e-05
2.83591e-05
2.87655e-05
2.91065e-05
2.93808e-05
2.95874e-05
2.97255e-05
2.97948e-05
2.97949e-05
2.97258e-05
2.95878e-05
2.93813e-05
2.91072e-05
2.87664e-05
2.83601e-05
2.78898e-05
2.73571e-05
2.67642e-05
2.61131e-05
2.54062e-05
2.46463e-05
2.38361e-05
2.29788e-05
2.20777e-05
2.11361e-05
2.01574e-05
1.91448e-05
1.81011e-05
1.70285e-05
1.59292e-05
1.48054e-05
1.36589e-05
1.24914e-05
1.13042e-05
1.00973e-05
8.86966e-06
7.61734e-06
6.33302e-06
5.00409e-06
3.60997e-06
2.11758e-06
3.89862e-09
1.45987e-11
1.4635e-11
3.90844e-09
2.1227e-06
3.61834e-06
5.01536e-06
6.347e-06
7.6339e-06
8.88873e-06
1.01189e-05
1.13281e-05
1.25178e-05
1.36876e-05
1.48364e-05
1.59626e-05
1.70641e-05
1.81389e-05
1.91849e-05
2.01996e-05
2.11803e-05
2.2124e-05
2.30271e-05
2.38862e-05
2.46982e-05
2.54598e-05
2.61682e-05
2.68208e-05
2.74151e-05
2.7949e-05
2.84204e-05
2.88277e-05
2.91694e-05
2.94442e-05
2.96513e-05
2.97897e-05
2.98591e-05
2.98592e-05
2.97899e-05
2.96517e-05
2.94448e-05
2.91701e-05
2.88286e-05
2.84215e-05
2.79502e-05
2.74165e-05
2.68223e-05
2.61698e-05
2.54615e-05
2.47e-05
2.38882e-05
2.30291e-05
2.21261e-05
2.11826e-05
2.02019e-05
1.91872e-05
1.81413e-05
1.70665e-05
1.5965e-05
1.48388e-05
1.36899e-05
1.25201e-05
1.13303e-05
1.0121e-05
8.8907e-06
7.6357e-06
6.34859e-06
5.01669e-06
3.61937e-06
2.12336e-06
3.90988e-09
1.46407e-11
1.46547e-11
3.91374e-09
2.12542e-06
3.62277e-06
5.02131e-06
6.35436e-06
7.64258e-06
8.8987e-06
1.01301e-05
1.13405e-05
1.25314e-05
1.37024e-05
1.48523e-05
1.59796e-05
1.70822e-05
1.81581e-05
1.92051e-05
2.02208e-05
2.12026e-05
2.21472e-05
2.30512e-05
2.39112e-05
2.4724e-05
2.54863e-05
2.61955e-05
2.68487e-05
2.74436e-05
2.7978e-05
2.84499e-05
2.88576e-05
2.91997e-05
2.94748e-05
2.9682e-05
2.98206e-05
2.98901e-05
2.98901e-05
2.98209e-05
2.96824e-05
2.94754e-05
2.92004e-05
2.88585e-05
2.8451e-05
2.79792e-05
2.7445e-05
2.68502e-05
2.61971e-05
2.54881e-05
2.47258e-05
2.39132e-05
2.30533e-05
2.21493e-05
2.12048e-05
2.02232e-05
1.92075e-05
1.81605e-05
1.70846e-05
1.5982e-05
1.48548e-05
1.37047e-05
1.25337e-05
1.13428e-05
1.01322e-05
8.90069e-06
7.6444e-06
6.35595e-06
5.02265e-06
3.62381e-06
2.12609e-06
3.9152e-09
1.46605e-11
1.46636e-11
3.91613e-09
2.12664e-06
3.62476e-06
5.02398e-06
6.35767e-06
7.6465e-06
8.90319e-06
1.01352e-05
1.13462e-05
1.25375e-05
1.3709e-05
1.48595e-05
1.59873e-05
1.70904e-05
1.81668e-05
1.92143e-05
2.02305e-05
2.12127e-05
2.21577e-05
2.30622e-05
2.39226e-05
2.47357e-05
2.54985e-05
2.6208e-05
2.68615e-05
2.74567e-05
2.79913e-05
2.84635e-05
2.88714e-05
2.92135e-05
2.94888e-05
2.96961e-05
2.98348e-05
2.99043e-05
2.99043e-05
2.9835e-05
2.96965e-05
2.94894e-05
2.92143e-05
2.88723e-05
2.84645e-05
2.79925e-05
2.74581e-05
2.6863e-05
2.62096e-05
2.55003e-05
2.47376e-05
2.39246e-05
2.30643e-05
2.21599e-05
2.1215e-05
2.02329e-05
1.92167e-05
1.81692e-05
1.70929e-05
1.59898e-05
1.4862e-05
1.37115e-05
1.25399e-05
1.13484e-05
1.01373e-05
8.90519e-06
7.64832e-06
6.35927e-06
5.02533e-06
3.6258e-06
2.12732e-06
3.91759e-09
1.46693e-11
1.46673e-11
3.91715e-09
2.12717e-06
3.62561e-06
5.02513e-06
6.35909e-06
7.64818e-06
8.90513e-06
1.01373e-05
1.13486e-05
1.25402e-05
1.37119e-05
1.48627e-05
1.59907e-05
1.7094e-05
1.81706e-05
1.92183e-05
2.02347e-05
2.12171e-05
2.21623e-05
2.3067e-05
2.39276e-05
2.47409e-05
2.55038e-05
2.62134e-05
2.68671e-05
2.74624e-05
2.79972e-05
2.84694e-05
2.88774e-05
2.92196e-05
2.94949e-05
2.97023e-05
2.9841e-05
2.99105e-05
2.99106e-05
2.98412e-05
2.97027e-05
2.94955e-05
2.92204e-05
2.88783e-05
2.84704e-05
2.79984e-05
2.74638e-05
2.68686e-05
2.6215e-05
2.55056e-05
2.47428e-05
2.39296e-05
2.30691e-05
2.21646e-05
2.12194e-05
2.02371e-05
1.92207e-05
1.8173e-05
1.70965e-05
1.59931e-05
1.48651e-05
1.37144e-05
1.25425e-05
1.13508e-05
1.01395e-05
8.90713e-06
7.65001e-06
6.3607e-06
5.02649e-06
3.62666e-06
2.12784e-06
3.91861e-09
1.46731e-11
1.46689e-11
3.91756e-09
2.12738e-06
3.62596e-06
5.0256e-06
6.35967e-06
7.64887e-06
8.90592e-06
1.01382e-05
1.13496e-05
1.25413e-05
1.37131e-05
1.4864e-05
1.59921e-05
1.70955e-05
1.81722e-05
1.922e-05
2.02365e-05
2.1219e-05
2.21643e-05
2.3069e-05
2.39296e-05
2.4743e-05
2.5506e-05
2.62157e-05
2.68694e-05
2.74648e-05
2.79996e-05
2.84718e-05
2.88799e-05
2.92222e-05
2.94975e-05
2.97049e-05
2.98436e-05
2.99131e-05
2.99132e-05
2.98438e-05
2.97053e-05
2.94981e-05
2.92229e-05
2.88808e-05
2.84729e-05
2.80008e-05
2.74662e-05
2.68709e-05
2.62173e-05
2.55078e-05
2.47449e-05
2.39317e-05
2.30711e-05
2.21665e-05
2.12213e-05
2.02388e-05
1.92224e-05
1.81746e-05
1.70979e-05
1.59945e-05
1.48664e-05
1.37156e-05
1.25436e-05
1.13518e-05
1.01404e-05
8.90793e-06
7.6507e-06
6.36129e-06
5.02696e-06
3.62701e-06
2.12806e-06
3.91903e-09
1.46747e-11
1.46695e-11
3.91773e-09
2.12747e-06
3.6261e-06
5.02579e-06
6.3599e-06
7.64915e-06
8.90624e-06
1.01386e-05
1.135e-05
1.25417e-05
1.37136e-05
1.48645e-05
1.59926e-05
1.70961e-05
1.81728e-05
1.92206e-05
2.02372e-05
2.12197e-05
2.2165e-05
2.30698e-05
2.39305e-05
2.47439e-05
2.55069e-05
2.62166e-05
2.68704e-05
2.74657e-05
2.80006e-05
2.84728e-05
2.88809e-05
2.92232e-05
2.94985e-05
2.97059e-05
2.98446e-05
2.99141e-05
2.99142e-05
2.98449e-05
2.97063e-05
2.94991e-05
2.92239e-05
2.88818e-05
2.84739e-05
2.80018e-05
2.74671e-05
2.68719e-05
2.62182e-05
2.55087e-05
2.47458e-05
2.39325e-05
2.30719e-05
2.21672e-05
2.1222e-05
2.02395e-05
1.9223e-05
1.81752e-05
1.70985e-05
1.59951e-05
1.48669e-05
1.3716e-05
1.25441e-05
1.13522e-05
1.01407e-05
8.90825e-06
7.65098e-06
6.36152e-06
5.02715e-06
3.62715e-06
2.12814e-06
3.9192e-09
1.46753e-11
1.46697e-11
3.91779e-09
2.1275e-06
3.62615e-06
5.02586e-06
6.35999e-06
7.64925e-06
8.90636e-06
1.01387e-05
1.13501e-05
1.25419e-05
1.37138e-05
1.48647e-05
1.59928e-05
1.70963e-05
1.8173e-05
1.92209e-05
2.02374e-05
2.122e-05
2.21653e-05
2.30701e-05
2.39308e-05
2.47442e-05
2.55072e-05
2.62169e-05
2.68707e-05
2.74661e-05
2.80009e-05
2.84732e-05
2.88813e-05
2.92236e-05
2.94989e-05
2.97063e-05
2.9845e-05
2.99145e-05
2.99146e-05
2.98453e-05
2.97067e-05
2.94995e-05
2.92243e-05
2.88822e-05
2.84743e-05
2.80022e-05
2.74675e-05
2.68722e-05
2.62186e-05
2.5509e-05
2.47461e-05
2.39328e-05
2.30722e-05
2.21675e-05
2.12223e-05
2.02398e-05
1.92233e-05
1.81755e-05
1.70988e-05
1.59953e-05
1.48671e-05
1.37162e-05
1.25442e-05
1.13524e-05
1.01409e-05
8.90837e-06
7.65108e-06
6.36161e-06
5.02722e-06
3.6272e-06
2.12817e-06
3.91926e-09
1.46755e-11
1.46698e-11
3.91781e-09
2.12751e-06
3.62617e-06
5.02589e-06
6.36002e-06
7.64929e-06
8.9064e-06
1.01388e-05
1.13502e-05
1.25419e-05
1.37139e-05
1.48647e-05
1.59929e-05
1.70964e-05
1.81731e-05
1.9221e-05
2.02375e-05
2.12201e-05
2.21654e-05
2.30702e-05
2.39309e-05
2.47443e-05
2.55073e-05
2.62171e-05
2.68708e-05
2.74662e-05
2.80011e-05
2.84734e-05
2.88814e-05
2.92237e-05
2.94991e-05
2.97065e-05
2.98452e-05
2.99147e-05
2.99148e-05
2.98454e-05
2.97069e-05
2.94996e-05
2.92245e-05
2.88823e-05
2.84744e-05
2.80023e-05
2.74676e-05
2.68724e-05
2.62187e-05
2.55091e-05
2.47462e-05
2.39329e-05
2.30723e-05
2.21676e-05
2.12224e-05
2.02399e-05
1.92234e-05
1.81756e-05
1.70988e-05
1.59954e-05
1.48672e-05
1.37163e-05
1.25443e-05
1.13524e-05
1.01409e-05
8.90841e-06
7.65112e-06
6.36164e-06
5.02724e-06
3.62722e-06
2.12819e-06
3.91928e-09
1.46756e-11
1.46698e-11
3.91782e-09
2.12751e-06
3.62618e-06
5.02589e-06
6.36003e-06
7.6493e-06
8.90642e-06
1.01388e-05
1.13502e-05
1.2542e-05
1.37139e-05
1.48648e-05
1.59929e-05
1.70964e-05
1.81732e-05
1.9221e-05
2.02376e-05
2.12201e-05
2.21655e-05
2.30702e-05
2.39309e-05
2.47444e-05
2.55074e-05
2.62171e-05
2.68709e-05
2.74663e-05
2.80011e-05
2.84734e-05
2.88815e-05
2.92238e-05
2.94991e-05
2.97065e-05
2.98452e-05
2.99147e-05
2.99148e-05
2.98455e-05
2.97069e-05
2.94997e-05
2.92245e-05
2.88824e-05
2.84745e-05
2.80023e-05
2.74677e-05
2.68724e-05
2.62188e-05
2.55092e-05
2.47463e-05
2.3933e-05
2.30723e-05
2.21677e-05
2.12224e-05
2.02399e-05
1.92234e-05
1.81756e-05
1.70989e-05
1.59954e-05
1.48672e-05
1.37163e-05
1.25443e-05
1.13525e-05
1.01409e-05
8.90843e-06
7.65113e-06
6.36165e-06
5.02725e-06
3.62723e-06
2.12819e-06
3.91929e-09
1.46757e-11
1.46699e-11
3.91782e-09
2.12752e-06
3.62618e-06
5.0259e-06
6.36004e-06
7.6493e-06
8.90642e-06
1.01388e-05
1.13502e-05
1.2542e-05
1.37139e-05
1.48648e-05
1.59929e-05
1.70964e-05
1.81732e-05
1.9221e-05
2.02376e-05
2.12201e-05
2.21655e-05
2.30702e-05
2.3931e-05
2.47444e-05
2.55074e-05
2.62171e-05
2.68709e-05
2.74663e-05
2.80011e-05
2.84734e-05
2.88815e-05
2.92238e-05
2.94991e-05
2.97065e-05
2.98452e-05
2.99147e-05
2.99148e-05
2.98455e-05
2.97069e-05
2.94997e-05
2.92245e-05
2.88824e-05
2.84745e-05
2.80024e-05
2.74677e-05
2.68724e-05
2.62188e-05
2.55092e-05
2.47463e-05
2.3933e-05
2.30724e-05
2.21677e-05
2.12224e-05
2.02399e-05
1.92234e-05
1.81756e-05
1.70989e-05
1.59954e-05
1.48672e-05
1.37163e-05
1.25443e-05
1.13525e-05
1.0141e-05
8.90843e-06
7.65114e-06
6.36165e-06
5.02725e-06
3.62723e-06
2.12819e-06
3.9193e-09
1.46757e-11
1.46699e-11
3.91782e-09
2.12752e-06
3.62618e-06
5.0259e-06
6.36004e-06
7.64931e-06
8.90642e-06
1.01388e-05
1.13502e-05
1.2542e-05
1.37139e-05
1.48648e-05
1.59929e-05
1.70964e-05
1.81732e-05
1.9221e-05
2.02376e-05
2.12201e-05
2.21655e-05
2.30702e-05
2.3931e-05
2.47444e-05
2.55074e-05
2.62171e-05
2.68709e-05
2.74663e-05
2.80011e-05
2.84734e-05
2.88815e-05
2.92238e-05
2.94991e-05
2.97065e-05
2.98452e-05
2.99147e-05
2.99148e-05
2.98455e-05
2.97069e-05
2.94997e-05
2.92245e-05
2.88824e-05
2.84745e-05
2.80024e-05
2.74677e-05
2.68724e-05
2.62188e-05
2.55092e-05
2.47463e-05
2.3933e-05
2.30724e-05
2.21677e-05
2.12224e-05
2.02399e-05
1.92234e-05
1.81756e-05
1.70989e-05
1.59954e-05
1.48672e-05
1.37163e-05
1.25443e-05
1.13525e-05
1.0141e-05
8.90843e-06
7.65114e-06
6.36165e-06
5.02726e-06
3.62723e-06
2.12819e-06
3.9193e-09
1.46757e-11
1.46699e-11
3.91782e-09
2.12752e-06
3.62618e-06
5.0259e-06
6.36004e-06
7.64931e-06
8.90642e-06
1.01388e-05
1.13502e-05
1.2542e-05
1.37139e-05
1.48648e-05
1.59929e-05
1.70964e-05
1.81732e-05
1.9221e-05
2.02376e-05
2.12201e-05
2.21655e-05
2.30702e-05
2.3931e-05
2.47444e-05
2.55074e-05
2.62171e-05
2.68709e-05
2.74663e-05
2.80011e-05
2.84734e-05
2.88815e-05
2.92238e-05
2.94991e-05
2.97065e-05
2.98452e-05
2.99148e-05
2.99148e-05
2.98455e-05
2.97069e-05
2.94997e-05
2.92245e-05
2.88824e-05
2.84745e-05
2.80024e-05
2.74677e-05
2.68724e-05
2.62188e-05
2.55092e-05
2.47463e-05
2.3933e-05
2.30724e-05
2.21677e-05
2.12224e-05
2.02399e-05
1.92234e-05
1.81756e-05
1.70989e-05
1.59954e-05
1.48672e-05
1.37163e-05
1.25443e-05
1.13525e-05
1.0141e-05
8.90843e-06
7.65114e-06
6.36165e-06
5.02726e-06
3.62723e-06
2.12819e-06
3.9193e-09
1.46757e-11
1.46699e-11
3.91782e-09
2.12752e-06
3.62618e-06
5.0259e-06
6.36004e-06
7.64931e-06
8.90642e-06
1.01388e-05
1.13502e-05
1.2542e-05
1.37139e-05
1.48648e-05
1.59929e-05
1.70964e-05
1.81732e-05
1.9221e-05
2.02376e-05
2.12201e-05
2.21655e-05
2.30702e-05
2.3931e-05
2.47444e-05
2.55074e-05
2.62171e-05
2.68709e-05
2.74663e-05
2.80011e-05
2.84734e-05
2.88815e-05
2.92238e-05
2.94991e-05
2.97065e-05
2.98452e-05
2.99148e-05
2.99148e-05
2.98455e-05
2.97069e-05
2.94997e-05
2.92245e-05
2.88824e-05
2.84745e-05
2.80024e-05
2.74677e-05
2.68724e-05
2.62188e-05
2.55092e-05
2.47463e-05
2.3933e-05
2.30724e-05
2.21677e-05
2.12224e-05
2.02399e-05
1.92234e-05
1.81756e-05
1.70989e-05
1.59954e-05
1.48672e-05
1.37163e-05
1.25443e-05
1.13525e-05
1.0141e-05
8.90843e-06
7.65114e-06
6.36165e-06
5.02726e-06
3.62723e-06
2.12819e-06
3.9193e-09
1.46757e-11
1.46699e-11
3.91782e-09
2.12752e-06
3.62618e-06
5.0259e-06
6.36004e-06
7.64931e-06
8.90642e-06
1.01388e-05
1.13502e-05
1.2542e-05
1.37139e-05
1.48648e-05
1.59929e-05
1.70964e-05
1.81732e-05
1.9221e-05
2.02376e-05
2.12201e-05
2.21655e-05
2.30702e-05
2.3931e-05
2.47444e-05
2.55074e-05
2.62171e-05
2.68709e-05
2.74663e-05
2.80011e-05
2.84734e-05
2.88815e-05
2.92238e-05
2.94991e-05
2.97065e-05
2.98452e-05
2.99148e-05
2.99148e-05
2.98455e-05
2.97069e-05
2.94997e-05
2.92245e-05
2.88824e-05
2.84745e-05
2.80024e-05
2.74677e-05
2.68724e-05
2.62188e-05
2.55092e-05
2.47463e-05
2.3933e-05
2.30724e-05
2.21677e-05
2.12224e-05
2.02399e-05
1.92234e-05
1.81756e-05
1.70989e-05
1.59954e-05
1.48672e-05
1.37163e-05
1.25443e-05
1.13525e-05
1.0141e-05
8.90843e-06
7.65114e-06
6.36165e-06
5.02726e-06
3.62723e-06
2.12819e-06
3.9193e-09
1.46757e-11
1.46699e-11
3.91782e-09
2.12752e-06
3.62618e-06
5.0259e-06
6.36004e-06
7.64931e-06
8.90642e-06
1.01388e-05
1.13502e-05
1.2542e-05
1.37139e-05
1.48648e-05
1.59929e-05
1.70964e-05
1.81732e-05
1.9221e-05
2.02376e-05
2.12201e-05
2.21655e-05
2.30702e-05
2.3931e-05
2.47444e-05
2.55074e-05
2.62171e-05
2.68709e-05
2.74663e-05
2.80011e-05
2.84734e-05
2.88815e-05
2.92238e-05
2.94991e-05
2.97065e-05
2.98452e-05
2.99148e-05
2.99148e-05
2.98455e-05
2.97069e-05
2.94997e-05
2.92245e-05
2.88824e-05
2.84745e-05
2.80024e-05
2.74677e-05
2.68724e-05
2.62188e-05
2.55092e-05
2.47463e-05
2.3933e-05
2.30724e-05
2.21677e-05
2.12224e-05
2.02399e-05
1.92234e-05
1.81756e-05
1.70989e-05
1.59954e-05
1.48672e-05
1.37163e-05
1.25443e-05
1.13525e-05
1.0141e-05
8.90843e-06
7.65114e-06
6.36165e-06
5.02726e-06
3.62723e-06
2.12819e-06
3.9193e-09
1.46757e-11
1.46699e-11
3.91782e-09
2.12752e-06
3.62618e-06
5.0259e-06
6.36004e-06
7.64931e-06
8.90642e-06
1.01388e-05
1.13502e-05
1.2542e-05
1.37139e-05
1.48648e-05
1.59929e-05
1.70964e-05
1.81732e-05
1.9221e-05
2.02376e-05
2.12201e-05
2.21655e-05
2.30702e-05
2.3931e-05
2.47444e-05
2.55074e-05
2.62171e-05
2.68709e-05
2.74663e-05
2.80011e-05
2.84734e-05
2.88815e-05
2.92238e-05
2.94991e-05
2.97065e-05
2.98452e-05
2.99148e-05
2.99148e-05
2.98455e-05
2.97069e-05
2.94997e-05
2.92245e-05
2.88824e-05
2.84745e-05
2.80024e-05
2.74677e-05
2.68724e-05
2.62188e-05
2.55092e-05
2.47463e-05
2.3933e-05
2.30724e-05
2.21677e-05
2.12224e-05
2.02399e-05
1.92234e-05
1.81756e-05
1.70989e-05
1.59954e-05
1.48672e-05
1.37163e-05
1.25443e-05
1.13525e-05
1.0141e-05
8.90843e-06
7.65114e-06
6.36165e-06
5.02726e-06
3.62723e-06
2.12819e-06
3.9193e-09
1.46757e-11
1.46699e-11
3.91782e-09
2.12752e-06
3.62618e-06
5.0259e-06
6.36004e-06
7.64931e-06
8.90642e-06
1.01388e-05
1.13502e-05
1.2542e-05
1.37139e-05
1.48648e-05
1.59929e-05
1.70964e-05
1.81732e-05
1.9221e-05
2.02376e-05
2.12201e-05
2.21655e-05
2.30702e-05
2.3931e-05
2.47444e-05
2.55074e-05
2.62171e-05
2.68709e-05
2.74663e-05
2.80011e-05
2.84734e-05
2.88815e-05
2.92238e-05
2.94991e-05
2.97065e-05
2.98452e-05
2.99148e-05
2.99148e-05
2.98455e-05
2.97069e-05
2.94997e-05
2.92245e-05
2.88824e-05
2.84745e-05
2.80024e-05
2.74677e-05
2.68724e-05
2.62188e-05
2.55092e-05
2.47463e-05
2.3933e-05
2.30724e-05
2.21677e-05
2.12224e-05
2.02399e-05
1.92234e-05
1.81756e-05
1.70989e-05
1.59954e-05
1.48672e-05
1.37163e-05
1.25443e-05
1.13525e-05
1.0141e-05
8.90843e-06
7.65114e-06
6.36165e-06
5.02726e-06
3.62723e-06
2.12819e-06
3.9193e-09
1.46757e-11
1.46699e-11
3.91782e-09
2.12752e-06
3.62618e-06
5.0259e-06
6.36004e-06
7.64931e-06
8.90642e-06
1.01388e-05
1.13502e-05
1.2542e-05
1.37139e-05
1.48648e-05
1.59929e-05
1.70964e-05
1.81732e-05
1.9221e-05
2.02376e-05
2.12201e-05
2.21655e-05
2.30702e-05
2.3931e-05
2.47444e-05
2.55074e-05
2.62171e-05
2.68709e-05
2.74663e-05
2.80011e-05
2.84734e-05
2.88815e-05
2.92238e-05
2.94991e-05
2.97065e-05
2.98452e-05
2.99148e-05
2.99148e-05
2.98455e-05
2.97069e-05
2.94997e-05
2.92245e-05
2.88824e-05
2.84745e-05
2.80024e-05
2.74677e-05
2.68724e-05
2.62188e-05
2.55092e-05
2.47463e-05
2.3933e-05
2.30724e-05
2.21677e-05
2.12224e-05
2.02399e-05
1.92234e-05
1.81756e-05
1.70989e-05
1.59954e-05
1.48672e-05
1.37163e-05
1.25443e-05
1.13525e-05
1.0141e-05
8.90843e-06
7.65114e-06
6.36165e-06
5.02726e-06
3.62723e-06
2.12819e-06
3.9193e-09
1.46757e-11
1.46699e-11
3.91782e-09
2.12752e-06
3.62618e-06
5.0259e-06
6.36004e-06
7.64931e-06
8.90642e-06
1.01388e-05
1.13502e-05
1.2542e-05
1.37139e-05
1.48648e-05
1.59929e-05
1.70964e-05
1.81732e-05
1.9221e-05
2.02376e-05
2.12201e-05
2.21655e-05
2.30702e-05
2.3931e-05
2.47444e-05
2.55074e-05
2.62171e-05
2.68709e-05
2.74663e-05
2.80011e-05
2.84734e-05
2.88815e-05
2.92238e-05
2.94991e-05
2.97065e-05
2.98452e-05
2.99148e-05
2.99148e-05
2.98455e-05
2.97069e-05
2.94997e-05
2.92245e-05
2.88824e-05
2.84745e-05
2.80024e-05
2.74677e-05
2.68724e-05
2.62188e-05
2.55092e-05
2.47463e-05
2.3933e-05
2.30724e-05
2.21677e-05
2.12224e-05
2.02399e-05
1.92234e-05
1.81756e-05
1.70989e-05
1.59954e-05
1.48672e-05
1.37163e-05
1.25443e-05
1.13525e-05
1.0141e-05
8.90843e-06
7.65114e-06
6.36165e-06
5.02726e-06
3.62723e-06
2.12819e-06
3.9193e-09
1.46757e-11
1.46699e-11
3.91782e-09
2.12752e-06
3.62618e-06
5.0259e-06
6.36004e-06
7.64931e-06
8.90642e-06
1.01388e-05
1.13502e-05
1.2542e-05
1.37139e-05
1.48648e-05
1.59929e-05
1.70964e-05
1.81732e-05
1.9221e-05
2.02376e-05
2.12201e-05
2.21655e-05
2.30702e-05
2.3931e-05
2.47444e-05
2.55074e-05
2.62171e-05
2.68709e-05
2.74663e-05
2.80011e-05
2.84734e-05
2.88815e-05
2.92238e-05
2.94991e-05
2.97065e-05
2.98452e-05
2.99148e-05
2.99148e-05
2.98455e-05
2.97069e-05
2.94997e-05
2.92245e-05
2.88824e-05
2.84745e-05
2.80024e-05
2.74677e-05
2.68724e-05
2.62188e-05
2.55092e-05
2.47463e-05
2.3933e-05
2.30724e-05
2.21677e-05
2.12224e-05
2.02399e-05
1.92234e-05
1.81756e-05
1.70989e-05
1.59954e-05
1.48672e-05
1.37163e-05
1.25443e-05
1.13525e-05
1.0141e-05
8.90843e-06
7.65114e-06
6.36165e-06
5.02726e-06
3.62723e-06
2.12819e-06
3.9193e-09
1.46757e-11
1.46699e-11
3.91782e-09
2.12752e-06
3.62618e-06
5.0259e-06
6.36004e-06
7.64931e-06
8.90642e-06
1.01388e-05
1.13502e-05
1.2542e-05
1.37139e-05
1.48648e-05
1.59929e-05
1.70964e-05
1.81732e-05
1.9221e-05
2.02376e-05
2.12201e-05
2.21655e-05
2.30702e-05
2.3931e-05
2.47444e-05
2.55074e-05
2.62171e-05
2.68709e-05
2.74663e-05
2.80011e-05
2.84734e-05
2.88815e-05
2.92238e-05
2.94991e-05
2.97065e-05
2.98452e-05
2.99148e-05
2.99148e-05
2.98455e-05
2.97069e-05
2.94997e-05
2.92245e-05
2.88824e-05
2.84745e-05
2.80024e-05
2.74677e-05
2.68724e-05
2.62188e-05
2.55092e-05
2.47463e-05
2.3933e-05
2.30724e-05
2.21677e-05
2.12224e-05
2.02399e-05
1.92234e-05
1.81756e-05
1.70989e-05
1.59954e-05
1.48672e-05
1.37163e-05
1.25443e-05
1.13525e-05
1.0141e-05
8.90843e-06
7.65114e-06
6.36165e-06
5.02726e-06
3.62723e-06
2.12819e-06
3.9193e-09
1.46757e-11
1.46699e-11
3.91782e-09
2.12752e-06
3.62618e-06
5.0259e-06
6.36004e-06
7.64931e-06
8.90642e-06
1.01388e-05
1.13502e-05
1.2542e-05
1.37139e-05
1.48648e-05
1.59929e-05
1.70964e-05