/*--------------------------------*- C++ -*----------------------------------*\
  =========                 |
  \\      /  F ield         | OpenFOAM: The Open Source CFD Toolbox
   \\    /   O peration     | Website:  https://openfoam.org
    \\  /    A nd           | Version:  13
     \\/     M anipulation  |
\*---------------------------------------------------------------------------*/
FoamFile
{
    format      ascii;
    class       volScalarField;
    location    "8";
    object      k;
}
// * * * * * * * * * * * * * * * * * * * * * * * * * * * * * * * * * * * * * //

dimensions      [0 2 -2 0 0 0 0];

internalField   nonuniform List<scalar> 
78750
(
2.47468e-07
6.13109e-06
4.43473e-05
7.95202e-05
0.000111274
0.000131081
0.000146283
0.000155629
0.000159621
0.000166456
0.000168776
0.00016781
0.000165047
0.000160669
0.000154783
0.000149458
0.000145002
0.000141003
0.000135962
0.000129006
0.000120884
0.000112327
0.000103922
9.58671e-05
8.84751e-05
8.18303e-05
7.61534e-05
7.1421e-05
6.739e-05
6.6597e-05
6.58662e-05
6.74651e-05
6.94295e-05
4.45986e-05
2.85849e-06
4.659e-07
1.3197e-05
8.41365e-05
0.000134271
0.000149767
0.000157638
0.000158032
0.000156496
0.000153808
0.000151147
0.00014846
0.000147425
0.000146899
0.00014731
0.000146959
0.000148343
0.000149831
0.000150703
0.000150418
0.000150989
0.000147005
0.000144522
0.000143294
0.000144734
0.00014292
0.000139293
0.000136075
0.000133572
0.000132735
0.000133047
0.000136743
0.000140875
0.000133564
5.90171e-05
3.01288e-06
1.08343e-06
3.06532e-05
0.000104051
0.000143107
0.00015604
0.000162862
0.000163152
0.00016021
0.000154503
0.000149676
0.000147448
0.000149993
0.000147955
0.000147332
0.000145402
0.000144579
0.00014491
0.000146633
0.000147425
0.000145561
0.000144897
0.000144641
0.000144524
0.000145922
0.000146818
0.000148022
0.000150967
0.000154043
0.000156474
0.000161964
0.000159426
0.000157578
0.000156586
5.52697e-05
2.59787e-06
1.2209e-06
3.47104e-05
0.000110114
0.00014794
0.000162718
0.000168472
0.000166931
0.000160826
0.000154207
0.000148817
0.000147113
0.00015271
0.000147863
0.000146148
0.000143932
0.000141829
0.000139927
0.000138258
0.000136745
0.00013532
0.000134032
0.000133085
0.000132937
0.000133889
0.000137048
0.00014273
0.000150617
0.000150579
0.000164504
0.000173894
0.000161892
0.000156127
0.000145957
5.07908e-05
2.14041e-06
1.33497e-06
3.77407e-05
0.000111815
0.000150208
0.000165782
0.000171315
0.00016905
0.000162491
0.000155414
0.000150784
0.00014911
0.000147413
0.000148106
0.000145917
0.000143119
0.000140184
0.000137419
0.000134944
0.00013281
0.000131171
0.000130254
0.000130387
0.000132151
0.000136078
0.000142252
0.000147899
0.00014624
0.000148434
0.000156257
0.000160585
0.000159776
0.000157621
0.000145577
5.11363e-05
2.1604e-06
1.38895e-06
3.92343e-05
0.000113872
0.00014895
0.000168337
0.000175219
0.000173284
0.000166423
0.000158629
0.000153477
0.000153055
0.000148901
0.000148042
0.000144391
0.000140265
0.000136214
0.000132581
0.000129563
0.000127272
0.000125927
0.000125863
0.000127242
0.000130818
0.000136647
0.000145119
0.000148152
0.000154449
0.000156599
0.000159252
0.00016307
0.00016416
0.000163522
0.000150493
4.79637e-05
2.04345e-06
1.40737e-06
3.96856e-05
0.000114329
0.00015021
0.000170158
0.000177109
0.000174812
0.000167495
0.000159295
0.000154644
0.000160241
0.000150503
0.000146123
0.000143277
0.000139032
0.000134753
0.000130999
0.000128017
0.000125982
0.000125044
0.000125435
0.000127649
0.000131865
0.000138294
0.000147691
0.000156807
0.000153128
0.000154057
0.0001584
0.000164614
0.000169331
0.000170388
0.00015477
4.64827e-05
1.85925e-06
1.45731e-06
4.11402e-05
0.000116616
0.00015238
0.000172513
0.000179573
0.000177392
0.000170082
0.000161284
0.000153264
0.000147147
0.000145297
0.000144002
0.00014237
0.000138473
0.000134306
0.000130614
0.000127743
0.000125933
0.000125441
0.000126407
0.000129288
0.000133846
0.000139649
0.000143928
0.000150427
0.00015266
0.000155067
0.00015954
0.000167571
0.000176582
0.000178419
0.000156392
4.67494e-05
1.88809e-06
1.4706e-06
4.1448e-05
0.000117207
0.000153552
0.000174335
0.000181454
0.000178982
0.000171483
0.00016279
0.000155237
0.000150274
0.000148208
0.000145667
0.000143291
0.000139177
0.000134956
0.000131331
0.000128666
0.000127218
0.00012723
0.000128778
0.000132337
0.000137488
0.000143817
0.000148109
0.000154461
0.000156471
0.000159235
0.000164766
0.000174756
0.000184283
0.000185304
0.000161737
4.82175e-05
2.01372e-06
1.50192e-06
4.22963e-05
0.000118395
0.000154807
0.000175719
0.000182718
0.000179966
0.000172383
0.000163634
0.000155966
0.000150234
0.000146941
0.000147121
0.000143824
0.000139608
0.000135481
0.000132011
0.00012958
0.000128479
0.000128902
0.000131152
0.000135206
0.000140801
0.000147413
0.000150493
0.000153075
0.000156631
0.000161383
0.000166426
0.000176318
0.000189796
0.000193432
0.000169561
5.2377e-05
2.19889e-06
1.51227e-06
4.25515e-05
0.000118696
0.000155102
0.000176085
0.000183094
0.000180315
0.000173149
0.00016427
0.000156216
0.000150369
0.000146875
0.000145116
0.000143507
0.000139654
0.000135624
0.000132256
0.000130009
0.000129154
0.000129822
0.000132325
0.000136569
0.000142204
0.00014852
0.000150788
0.000156278
0.000164739
0.000174001
0.000181163
0.000186236
0.000193033
0.00019856
0.000176624
5.59937e-05
2.29488e-06
1.52936e-06
4.29928e-05
0.000119673
0.000156115
0.000176119
0.000182912
0.000180734
0.000172293
0.000163258
0.000155332
0.000149974
0.000147617
0.000147862
0.000144094
0.00013968
0.000135573
0.000132299
0.0001302
0.000129506
0.000130292
0.000132829
0.000136982
0.000142335
0.000148183
0.0001513
0.000159194
0.000171998
0.000186581
0.000200144
0.000208209
0.000210947
0.000208951
0.000179924
5.81706e-05
2.33792e-06
1.54472e-06
4.33887e-05
0.00012017
0.000156658
0.000176644
0.000183192
0.000180397
0.000172098
0.00016302
0.000155263
0.000150283
0.000148201
0.000147483
0.000143725
0.000139422
0.000135434
0.000132349
0.000130512
0.000130109
0.000131174
0.000133875
0.000137892
0.000142498
0.000146158
0.000150886
0.00016026
0.000175178
0.000192497
0.000209897
0.000222832
0.000228045
0.000222167
0.000186024
6.61011e-05
2.6662e-06
1.57004e-06
4.40865e-05
0.000121143
0.000157582
0.000177247
0.000183789
0.000180077
0.000171427
0.000162373
0.000155012
0.000151554
0.000154571
0.000149447
0.000144425
0.000139701
0.000135663
0.000132679
0.000131029
0.000130857
0.000132179
0.000135127
0.000139353
0.000144313
0.000149607
0.00015301
0.000162766
0.00017819
0.000195405
0.000212083
0.000225496
0.000232392
0.000227904
0.000191015
7.20869e-05
2.91189e-06
1.58737e-06
4.45504e-05
0.000121964
0.000158173
0.000177452
0.00018324
0.000178412
0.000169238
0.000160485
0.00015377
0.000150325
0.000152382
0.000146762
0.000143873
0.000139587
0.000135689
0.000132787
0.000131241
0.000131185
0.000132615
0.000135632
0.000139902
0.000144926
0.000150367
0.000154135
0.000164912
0.000181601
0.000199734
0.000216685
0.000231281
0.000240174
0.000235355
0.000193996
7.64656e-05
3.08532e-06
1.61164e-06
4.51979e-05
0.000123357
0.000159288
0.000177999
0.000183105
0.000177861
0.000168985
0.000160091
0.000153263
0.000149449
0.00014838
0.000146022
0.000143644
0.000139467
0.000135636
0.000132854
0.000131444
0.000131539
0.000133151
0.000136249
0.000140507
0.000145448
0.00015086
0.00015434
0.000165484
0.000183812
0.000205529
0.00022641
0.000239618
0.000247893
0.000241168
0.000197896
8.04776e-05
3.25425e-06
1.61599e-06
4.53317e-05
0.000124621
0.000160405
0.000179043
0.000183464
0.00017804
0.000168337
0.000159457
0.000152832
0.000149316
0.000148517
0.000145657
0.000143469
0.000139459
0.000135721
0.000133032
0.000131714
0.000131892
0.000133594
0.000136702
0.00014089
0.000145713
0.000151036
0.000153677
0.000164154
0.000181537
0.000202565
0.000225628
0.000239733
0.000251854
0.000245726
0.000201762
8.36322e-05
3.38343e-06
1.62145e-06
4.55062e-05
0.000124412
0.000160255
0.000177862
0.000182066
0.000177618
0.000168032
0.000158943
0.000152369
0.000149671
0.000153302
0.000149324
0.000144316
0.000139702
0.000135875
0.000133221
0.00013198
0.000132234
0.000133996
0.000137112
0.000141226
0.000145858
0.000150763
0.000152991
0.000162345
0.0001791
0.000200886
0.000226528
0.000248251
0.000256362
0.000250002
0.000204839
8.67401e-05
3.50883e-06
1.63195e-06
4.58134e-05
0.000124824
0.000160484
0.000178528
0.000182316
0.000176599
0.000167412
0.000158358
0.000151888
0.000149591
0.000153587
0.000148837
0.00014389
0.000139592
0.000135987
0.000133443
0.000132267
0.000132556
0.000134309
0.00013734
0.000141215
0.000145169
0.000147385
0.000151203
0.000160825
0.000177262
0.000198274
0.000222553
0.000244718
0.00025794
0.000253331
0.000208345
8.7908e-05
3.57204e-06
1.63652e-06
4.59184e-05
0.000124623
0.000159733
0.000178478
0.000182302
0.000176293
0.000167184
0.000158367
0.000151664
0.000149028
0.000152125
0.000147992
0.000143761
0.000139558
0.000136016
0.00013355
0.000132479
0.00013289
0.000134759
0.000137876
0.000141796
0.000145785
0.000148007
0.000151568
0.000161034
0.000177118
0.000197924
0.000222339
0.00024795
0.000260635
0.000256389
0.000211683
9.28526e-05
3.74741e-06
1.6396e-06
4.59855e-05
0.000124111
0.000160196
0.000177819
0.000182122
0.000176578
0.000167098
0.000158257
0.000151516
0.000148394
0.00014792
0.000145313
0.000143331
0.00013961
0.000136186
0.00013375
0.000132692
0.000133132
0.00013503
0.000138186
0.000142248
0.000146864
0.000151935
0.000152582
0.0001607
0.000176031
0.00019689
0.000221011
0.00024482
0.000262369
0.000258727
0.000213832
9.45367e-05
3.85963e-06
1.65141e-06
4.63917e-05
0.000125344
0.000160645
0.000177748
0.00018185
0.000176611
0.000167392
0.000158356
0.00015186
0.000149758
0.000153792
0.000149464
0.000144679
0.000140185
0.000136508
0.000133992
0.000132867
0.000133255
0.000135124
0.000138241
0.000142134
0.000146091
0.000148082
0.000151531
0.000160323
0.00017553
0.000196325
0.000221231
0.000244938
0.000263523
0.000260951
0.000216756
9.65861e-05
3.9392e-06
1.63997e-06
4.59612e-05
0.00012402
0.000159341
0.000177732
0.000181349
0.000175839
0.000167294
0.000158484
0.000152062
0.000149452
0.000151986
0.000146162
0.000143627
0.000139764
0.000136343
0.000133919
0.00013287
0.000133303
0.000135218
0.000138403
0.000142397
0.000146488
0.000148669
0.000152677
0.000161763
0.000176138
0.00019563
0.000219941
0.000245799
0.000265421
0.000262822
0.000217829
9.74892e-05
3.95952e-06
1.64111e-06
4.60221e-05
0.0001244
0.000159504
0.000177625
0.000181225
0.000175392
0.000166626
0.000157673
0.000151551
0.000149236
0.00015277
0.000149541
0.000144687
0.00014023
0.000136582
0.000134124
0.000133118
0.000133625
0.000135601
0.000138795
0.000142677
0.000146456
0.000148075
0.000152962
0.000163156
0.000179071
0.00019876
0.000222122
0.000248038
0.000268427
0.000265683
0.000220419
9.97921e-05
4.06036e-06
1.64594e-06
4.61782e-05
0.000124918
0.000159923
0.000177357
0.00018087
0.000175445
0.000166327
0.000157805
0.000151231
0.000147351
0.000145844
0.000146846
0.000143823
0.000139942
0.000136498
0.00013409
0.000133091
0.000133582
0.000135559
0.000138821
0.000142917
0.000147195
0.000149447
0.000153473
0.00016322
0.000179215
0.000199751
0.000224726
0.000249183
0.000269519
0.000267597
0.000222401
0.000100668
4.12298e-06
1.64539e-06
4.61684e-05
0.000124884
0.000159842
0.000177327
0.000180529
0.000175243
0.000166598
0.000158079
0.00015171
0.000147927
0.000145774
0.000144324
0.000143121
0.000139752
0.000136471
0.000134109
0.000133097
0.000133578
0.000135539
0.000138778
0.000142849
0.00014714
0.00014954
0.000153879
0.000164134
0.000180419
0.000202193
0.000229022
0.000258591
0.000274123
0.000270524
0.000224757
0.000102187
4.18328e-06
1.64784e-06
4.61938e-05
0.000124532
0.000158507
0.000175516
0.000179526
0.000174092
0.000164968
0.000157029
0.000152322
0.00015165
0.000153694
0.000149642
0.000144696
0.000140219
0.000136593
0.000134131
0.0001331
0.000133576
0.000135526
0.000138757
0.000142843
0.000147116
0.000149653
0.000154055
0.000164752
0.000181959
0.000204349
0.000231187
0.000259837
0.000276154
0.000271791
0.00022576
0.000102819
4.19426e-06
1.64246e-06
4.60371e-05
0.000124702
0.000158911
0.000176286
0.000179572
0.000173685
0.000165443
0.00015792
0.000155134
0.000162415
0.000157108
0.000150339
0.000144733
0.000140165
0.000136564
0.000134125
0.00013309
0.000133572
0.000135528
0.000138755
0.000142818
0.000147064
0.000149536
0.000154198
0.000165301
0.000182778
0.000205096
0.000231251
0.000258624
0.000278514
0.000276526
0.000229962
0.000106229
4.35107e-06
1.63327e-06
4.57951e-05
0.000123586
0.000158494
0.000176304
0.000179639
0.000174075
0.000164905
0.000156868
0.000153028
0.000158002
0.000154019
0.000149619
0.000144561
0.000140069
0.000136489
0.000134104
0.000133121
0.000133651
0.000135642
0.000138852
0.00014277
0.000146659
0.000148383
0.000153837
0.000165737
0.000183816
0.000206725
0.000233178
0.000260564
0.000281342
0.000277543
0.000231176
0.000109628
4.45632e-06
1.63915e-06
4.59878e-05
0.000124439
0.000159147
0.000176293
0.00017984
0.000174312
0.000165449
0.00015694
0.000151329
0.000148401
0.000147827
0.000145779
0.000143671
0.000139895
0.000136469
0.00013414
0.000133259
0.000133861
0.000135901
0.000139161
0.000143111
0.000146998
0.000148706
0.000154301
0.000166603
0.000185325
0.000209062
0.000236707
0.000265021
0.000285265
0.00028161
0.000234131
0.00011026
4.46674e-06
1.64405e-06
4.61783e-05
0.000124437
0.000159213
0.000175605
0.000179706
0.000174185
0.000164985
0.000157381
0.000152632
0.000150842
0.000148506
0.000148118
0.000144366
0.000140197
0.000136617
0.000134183
0.000133195
0.000133733
0.000135721
0.000138886
0.000142806
0.000146805
0.000148967
0.000154494
0.000167006
0.000185843
0.000209593
0.000237336
0.000266954
0.000288372
0.000284304
0.00023627
0.000113747
4.61392e-06
1.63573e-06
4.58818e-05
0.000124386
0.000159341
0.000175916
0.00017967
0.000174084
0.000164834
0.000157055
0.000153595
0.000153839
0.000150073
0.000146243
0.000143692
0.000139829
0.000136395
0.000134062
0.00013315
0.00013372
0.000135749
0.000139038
0.000143203
0.000148059
0.000153931
0.000156764
0.000169654
0.000190926
0.000218007
0.000247901
0.000274733
0.000294677
0.000288283
0.000238545
0.000114118
4.63906e-06
1.6354e-06
4.59096e-05
0.000124559
0.000159501
0.000176518
0.000179363
0.000173172
0.000164883
0.000157505
0.000154957
0.000162479
0.000157068
0.000149824
0.000144339
0.000139927
0.000136452
0.000134169
0.000133323
0.00013398
0.000136059
0.000139271
0.000143073
0.000146766
0.000148308
0.000154558
0.000168392
0.000189661
0.000216817
0.000246847
0.00027693
0.000297471
0.000289314
0.00024076
0.000113604
4.66108e-06
1.64226e-06
4.60735e-05
0.000124171
0.000158885
0.000176401
0.000178897
0.000173555
0.000164366
0.000156396
0.000152678
0.000157802
0.000153663
0.000148526
0.000144049
0.000139805
0.000136332
0.000134043
0.000133187
0.000133803
0.000135807
0.000138963
0.000142749
0.000146428
0.000148104
0.000154408
0.000168117
0.000188971
0.000216883
0.000248427
0.000276549
0.000298647
0.000296612
0.000244635
0.000119764
4.84816e-06
1.63888e-06
4.59633e-05
0.00012437
0.000158744
0.000176348
0.000179437
0.000173707
0.00016458
0.000156009
0.000150464
0.000147505
0.000146876
0.000144928
0.000143083
0.000139468
0.000136168
0.000133944
0.000133116
0.000133773
0.000135804
0.000138961
0.000142732
0.000146424
0.000148173
0.000154692
0.000168934
0.000190509
0.000217731
0.000248873
0.000284353
0.000305128
0.000299582
0.000249935
0.000119641
4.852e-06
1.63907e-06
4.59105e-05
0.000124152
0.000158509
0.000175999
0.000179068
0.000173389
0.000164521
0.000156294
0.000150804
0.000148366
0.000147452
0.000147222
0.000143627
0.000139685
0.000136283
0.000133993
0.000133139
0.000133777
0.000135829
0.00013903
0.000142871
0.000146657
0.000148448
0.000154996
0.000169366
0.000191236
0.000219038
0.000249892
0.000284588
0.000306337
0.00030112
0.000250408
0.000118519
4.8442e-06
1.64981e-06
4.61295e-05
0.000124293
0.000158988
0.000175508
0.000178478
0.000172924
0.000164233
0.00015629
0.000150835
0.000149113
0.000152395
0.000148407
0.000143931
0.000139793
0.000136397
0.000134144
0.000133305
0.000133956
0.000136036
0.000139297
0.000143238
0.000147172
0.000149054
0.000155382
0.000169271
0.000190643
0.000218219
0.000249154
0.000284004
0.000308481
0.000309004
0.000257364
0.000122973
4.94581e-06
1.63688e-06
4.58146e-05
0.000123117
0.000158993
0.000176181
0.000179202
0.000173591
0.000164777
0.000156681
0.00015166
0.000149364
0.00014757
0.000147548
0.000143785
0.000139712
0.000136296
0.000133991
0.000133161
0.000133825
0.000135895
0.000139091
0.000142895
0.000146622
0.000148359
0.000154995
0.00016934
0.00019086
0.000219419
0.000255327
0.00029083
0.000314337
0.000305172
0.000253417
0.00012003
4.90911e-06
1.62874e-06
4.56296e-05
0.00012295
0.000157928
0.000174876
0.000177594
0.000172155
0.000163553
0.000156086
0.000151838
0.000150714
0.000148009
0.000147169
0.00014353
0.000139597
0.000136226
0.000133987
0.000133168
0.000133819
0.000135891
0.000139113
0.000142966
0.000146768
0.000148527
0.000155273
0.000169986
0.000192354
0.000220622
0.000251599
0.000286553
0.000314248
0.000310501
0.000258266
0.000121413
4.88937e-06
1.63287e-06
4.56509e-05
0.000122947
0.000157985
0.000174833
0.000177652
0.00017223
0.000163985
0.000156458
0.000153755
0.000160351
0.000155246
0.000148956
0.000143997
0.000139681
0.00013626
0.000134066
0.000133315
0.000134043
0.000136162
0.000139396
0.000143223
0.000147004
0.000148811
0.000155547
0.000170065
0.000192055
0.000220706
0.000255221
0.000290235
0.000313416
0.000305058
0.000258501
0.000123128
4.95787e-06
1.63079e-06
4.55583e-05
0.000122977
0.000157745
0.000174578
0.000178015
0.000172167
0.000163884
0.000155898
0.000150515
0.000147796
0.000148031
0.000145303
0.000143283
0.000139587
0.00013624
0.000133947
0.000133099
0.000133797
0.00013597
0.000139339
0.000143349
0.000147264
0.000149048
0.000155807
0.000170284
0.000192121
0.000221517
0.000255752
0.00029066
0.000315069
0.000311133
0.000258171
0.000121244
4.94448e-06
1.62109e-06
4.5512e-05
0.000123437
0.000158138
0.00017462
0.000178184
0.000172541
0.000163854
0.000156137
0.000151489
0.000150355
0.000153606
0.000149436
0.000144252
0.000139708
0.000136098
0.000133766
0.000132978
0.000133722
0.000135898
0.000139228
0.000143235
0.00014722
0.000149215
0.000156193
0.000170848
0.000192708
0.000221503
0.000253541
0.000289164
0.000309214
0.00030884
0.000258984
0.000120585
4.92641e-06
1.62852e-06
4.56114e-05
0.000123034
0.000157696
0.000174569
0.000177976
0.000172712
0.000164117
0.000156483
0.000152136
0.000150324
0.000147372
0.000147006
0.000143235
0.000139258
0.000135888
0.00013368
0.000132888
0.000133628
0.000135813
0.000139186
0.000143202
0.000147205
0.000149294
0.000156593
0.000171794
0.000194026
0.000221975
0.000257206
0.000290988
0.000314845
0.000310458
0.000258509
0.000120859
4.93404e-06
1.63206e-06
4.56726e-05
0.000123887
0.000158622
0.00017526
0.000177556
0.000172594
0.000163901
0.000156124
0.000152514
0.000152311
0.000148217
0.00014713
0.00014334
0.000139318
0.000135942
0.000133732
0.000132972
0.000133732
0.000135948
0.000139336
0.000143367
0.000147382
0.000149403
0.000156706
0.000171913
0.000194267
0.000222406
0.000254667
0.000289999
0.000313343
0.000307331
0.000255268
0.000121309
4.92447e-06
1.62142e-06
4.54979e-05
0.000123253
0.000157644
0.000175234
0.00017837
0.000172709
0.000163588
0.000156197
0.000153
0.000158705
0.000154468
0.000149505
0.000144241
0.000139691
0.000136096
0.00013379
0.000133
0.000133734
0.000135886
0.000139198
0.000143168
0.000147175
0.00014936
0.000157001
0.000172616
0.000195017
0.000223024
0.000255058
0.000287904
0.000316423
0.000310291
0.000260279
0.000119939
4.92254e-06
1.62266e-06
4.54945e-05
0.000122949
0.000158233
0.000175336
0.000178288
0.000172569
0.000163979
0.000156014
0.000151121
0.000149272
0.000146288
0.000146442
0.000143195
0.000139284
0.000135928
0.000133707
0.000132917
0.000133658
0.000135828
0.000139149
0.000143141
0.000147213
0.000149639
0.000157907
0.000174702
0.000198817
0.000228058
0.000258711
0.000290897
0.000314506
0.000310958
0.000257099
0.000123739
4.99517e-06
1.62078e-06
4.54837e-05
0.000123634
0.000158323
0.000175454
0.000178139
0.000171786
0.000163232
0.000155831
0.000152055
0.000156453
0.000148232
0.000144663
0.000142748
0.00013917
0.000135913
0.000133728
0.000132977
0.000133733
0.00013595
0.000139347
0.000143425
0.000147574
0.000149961
0.000158061
0.000174536
0.000198482
0.000228111
0.000260776
0.00029263
0.000319813
0.000312437
0.000260528
0.000121264
4.97277e-06
1.61687e-06
4.52923e-05
0.000123005
0.000157956
0.000174344
0.000177797
0.000172078
0.000163549
0.000155341
0.000150136
0.000148813
0.000152581
0.000148557
0.000143672
0.000139342
0.000135914
0.000133741
0.000132998
0.000133765
0.000136018
0.000139501
0.000143729
0.000148073
0.000150686
0.000159075
0.00017563
0.000199001
0.000228388
0.000261514
0.000292941
0.000319298
0.00031257
0.000257422
0.000122817
4.96285e-06
1.61818e-06
4.53234e-05
0.000122655
0.000157901
0.000174884
0.000178061
0.000172687
0.000163914
0.000155588
0.000150082
0.000148566
0.000152133
0.000147702
0.000143245
0.000139135
0.000135789
0.000133676
0.000133048
0.0001339
0.000136153
0.000139555
0.000143631
0.000147849
0.000150555
0.000159586
0.000177734
0.000203406
0.000234282
0.000266634
0.000299745
0.000321032
0.000313975
0.000263244
0.000123287
4.97318e-06
1.61857e-06
4.53753e-05
0.000123366
0.000157719
0.000174947
0.000177853
0.000171811
0.000163129
0.000155233
0.000150205
0.000148905
0.000152168
0.000147764
0.000143315
0.000139157
0.000135761
0.000133582
0.000132901
0.000133755
0.000136047
0.00013953
0.000143705
0.000147964
0.000150563
0.000159341
0.000176884
0.000202095
0.000232836
0.000270132
0.000302684
0.00032891
0.000320816
0.000263266
0.000121763
4.97422e-06
1.62126e-06
4.52714e-05
0.000123217
0.000156998
0.000174833
0.000177845
0.000172317
0.000163661
0.000155939
0.000151377
0.000150967
0.000152644
0.000148991
0.000144046
0.000139465
0.000135842
0.000133546
0.000132811
0.000133631
0.000135909
0.000139329
0.000143467
0.000147778
0.000150603
0.00015963
0.000177453
0.000202589
0.000235417
0.000270712
0.000303581
0.0003283
0.000315041
0.00026412
0.000123889
5.00754e-06
1.60785e-06
4.50349e-05
0.000122617
0.000157447
0.000174914
0.000177493
0.0001725
0.000163538
0.0001563
0.000154237
0.000161393
0.000156322
0.000149761
0.000144089
0.000139452
0.000135848
0.00013358
0.000132851
0.000133674
0.000135935
0.000139373
0.000143529
0.000147897
0.000150838
0.000160396
0.000179254
0.000205682
0.000237358
0.000273527
0.000309496
0.000330615
0.000320859
0.000264365
0.000123959
5.0906e-06
1.60715e-06
4.50393e-05
0.000122749
0.000157311
0.000174087
0.000177316
0.000172463
0.000163828
0.000156662
0.000153159
0.000157731
0.000153833
0.000148455
0.0001436
0.000139304
0.000135864
0.000133669
0.000132965
0.000133791
0.00013607
0.000139542
0.000143754
0.000148216
0.000151138
0.000160732
0.000179326
0.000205351
0.000237253
0.000273318
0.000308405
0.000327486
0.000320841
0.000265148
0.000126765
5.12002e-06
1.61959e-06
4.52951e-05
0.000123611
0.000158127
0.00017475
0.000177563
0.000172262
0.000164285
0.000157268
0.000152491
0.000149787
0.000153435
0.000149145
0.000144011
0.000139405
0.000135789
0.000133475
0.000132736
0.000133586
0.000135926
0.000139508
0.000143805
0.000148367
0.000151572
0.000161618
0.000180821
0.000207133
0.000237976
0.000272337
0.000307059
0.000333008
0.000321651
0.000265029
0.000126003
5.09787e-06
1.6172e-06
4.53274e-05
0.000123685
0.000158272
0.000174272
0.000177958
0.00017255
0.000164175
0.000156882
0.000152105
0.000150232
0.000152409
0.000148914
0.000143957
0.00013943
0.000135805
0.000133507
0.000132772
0.000133623
0.000135961
0.000139515
0.00014384
0.000148451
0.000151626
0.000161583
0.000180952
0.000208032
0.000241841
0.000275937
0.000306966
0.000331445
0.000319256
0.000265485
0.000125786
5.21156e-06
1.61603e-06
4.52887e-05
0.000123128
0.000157796
0.000174532
0.000177645
0.000171973
0.000163221
0.000155667
0.000151125
0.000148264
0.000146112
0.000146396
0.000142864
0.000138953
0.000135651
0.00013349
0.000132796
0.000133647
0.000135939
0.000139333
0.000143115
0.000146035
0.000150765
0.000161409
0.000181017
0.000208332
0.000241229
0.000276375
0.000312409
0.000335455
0.000327168
0.000269251
0.00013222
5.37241e-06
1.62733e-06
4.54951e-05
0.000123844
0.000158562
0.000175252
0.000177143
0.00017139
0.000162951
0.000154895
0.000149979
0.000147678
0.000146661
0.000146341
0.000142777
0.000138741
0.000135374
0.000133253
0.000132637
0.000133557
0.0001359
0.000139327
0.000143163
0.000146243
0.000151129
0.000162153
0.000182359
0.000209925
0.000244841
0.000283157
0.000315654
0.000337459
0.000327956
0.000269186
0.00013158
5.33779e-06
1.63204e-06
4.5599e-05
0.000123787
0.000158492
0.000175257
0.000177918
0.000171788
0.000162345
0.000154298
0.000149061
0.000146953
0.000146749
0.000144488
0.000142339
0.000138564
0.00013526
0.00013318
0.000132639
0.000133608
0.00013598
0.000139441
0.000143314
0.000146426
0.0001513
0.00016256
0.00018317
0.000211405
0.000246592
0.000285144
0.000323178
0.00034577
0.000336026
0.000276643
0.000132364
5.3577e-06
1.6209e-06
4.53224e-05
0.00012371
0.000158329
0.00017492
0.000176678
0.00017119
0.000162078
0.000154247
0.000149291
0.000147979
0.000151277
0.000148112
0.000143474
0.000139002
0.000135457
0.000133245
0.000132575
0.000133506
0.000135892
0.000139484
0.000143835
0.000148527
0.000151999
0.000162785
0.000183516
0.000212315
0.000246618
0.000284489
0.000318086
0.000343688
0.000330827
0.00027575
0.000132964
5.38857e-06
1.622e-06
4.53364e-05
0.000123118
0.000157946
0.000174629
0.000176783
0.000170887
0.000162396
0.000154504
0.000149375
0.000147231
0.000146422
0.000144236
0.000142218
0.00013846
0.000135167
0.000133083
0.000132505
0.0001335
0.000135915
0.000139515
0.000143852
0.00014851
0.000151942
0.000162813
0.000183292
0.000211478
0.000245649
0.000284003
0.000321759
0.0003445
0.000333925
0.000273185
0.000132176
5.4191e-06
1.62779e-06
4.54788e-05
0.000122963
0.000157483
0.000174057
0.000176961
0.000171474
0.000162715
0.000154744
0.000150016
0.00014797
0.000147104
0.000144688
0.000142229
0.000138432
0.000135158
0.000133099
0.000132548
0.00013354
0.000135954
0.000139572
0.000143938
0.000148652
0.000152203
0.000163202
0.000183657
0.000211214
0.000244742
0.000283597
0.000317001
0.00034354
0.000334136
0.000272014
0.000131541
5.41648e-06
1.61199e-06
4.50444e-05
0.000122928
0.00015777
0.000174465
0.000176766
0.000170596
0.00016233
0.000154724
0.000149747
0.000147394
0.000146109
0.000145981
0.000142438
0.000138415
0.000135121
0.000133081
0.000132525
0.000133514
0.00013591
0.000139366
0.000143211
0.000146328
0.000151505
0.000163219
0.000183999
0.00021201
0.00024589
0.0002845
0.000320442
0.000341256
0.000330619
0.00027758
0.000135352
5.47722e-06
1.58826e-06
4.44299e-05
0.000121451
0.000155448
0.000172193
0.000175242
0.000170253
0.000162282
0.00015462
0.000149843
0.000148613
0.000147528
0.00014476
0.000142457
0.000138652
0.000135394
0.000133362
0.000132847
0.000133897
0.000136393
0.000139961
0.000143896
0.000147071
0.000152493
0.000164674
0.000185964
0.00021428
0.000248102
0.000286041
0.000321992
0.000348327
0.00033653
0.000277461
0.000134875
5.48644e-06
1.59443e-06
4.44974e-05
0.000121562
0.000155641
0.000172252
0.000174957
0.000169623
0.000161728
0.000155028
0.000152445
0.000159041
0.000154677
0.000149067
0.000143612
0.000138914
0.000135329
0.000133178
0.000132628
0.000133638
0.000136071
0.000139598
0.000143579
0.000146875
0.000152388
0.000164853
0.000186703
0.000215676
0.000250197
0.000288982
0.000327934
0.000348021
0.0003344
0.000274687
0.000133584
5.48955e-06
1.59481e-06
4.4522e-05
0.000121118
0.000156236
0.000173001
0.000175051
0.00016944
0.000161496
0.000154604
0.000151872
0.000157429
0.000153316
0.000148531
0.000143383
0.0001388
0.000135259
0.000133112
0.00013255
0.000133559
0.000136027
0.000139566
0.000143507
0.000146723
0.000152288
0.000164802
0.000186765
0.000216142
0.000251297
0.000289264
0.00032747
0.000348235
0.000339814
0.000280538
0.000134311
5.50834e-06
1.58923e-06
4.45117e-05
0.000121732
0.000155688
0.000172297
0.000175477
0.0001695
0.000161589
0.000154288
0.00015015
0.000148911
0.000147263
0.00014451
0.000142221
0.000138416
0.000135114
0.000133055
0.000132573
0.000133647
0.00013615
0.000139752
0.00014384
0.000147322
0.000153193
0.000166238
0.000188632
0.000218109
0.000253734
0.000294325
0.000326899
0.000351865
0.000337272
0.00028063
0.000133804
5.51043e-06
1.58633e-06
4.44129e-05
0.000121203
0.000155899
0.000173092
0.000174983
0.000169329
0.000161644
0.000155023
0.000152786
0.000159055
0.000154647
0.000148919
0.000143444
0.000138803
0.000135273
0.00013315
0.000132613
0.000133663
0.000136167
0.00013982
0.000143981
0.000147571
0.000153621
0.000167282
0.000190631
0.000220738
0.000255818
0.000295368
0.00032818
0.000351083
0.000344254
0.000282784
0.000136704
5.55709e-06
1.60568e-06
4.47731e-05
0.000122002
0.000156306
0.0001732
0.000175666
0.000169794
0.0001616
0.000154539
0.000150467
0.000148843
0.000151858
0.000148428
0.000143514
0.000139002
0.000135486
0.000133352
0.000132796
0.000133817
0.000136281
0.000139917
0.000144273
0.000149151
0.000153964
0.000167376
0.000190792
0.000221284
0.000256413
0.000293824
0.000329533
0.000354803
0.000342211
0.000276748
0.000135494
5.51915e-06
1.60152e-06
4.48139e-05
0.00012247
0.000157047
0.000173379
0.000175668
0.000169876
0.000161747
0.000154848
0.000150912
0.000149727
0.0001477
0.000147619
0.000143015
0.00013852
0.000135046
0.000132997
0.000132533
0.000133644
0.000136222
0.000139931
0.000144387
0.000149394
0.000154469
0.000168309
0.000192017
0.000222806
0.000259066
0.000298621
0.000330643
0.000350662
0.000338817
0.000280964
0.000135257
5.49962e-06
1.58788e-06
4.44976e-05
0.000121952
0.000156684
0.000173148
0.000175054
0.000169509
0.00016089
0.000154256
0.000151077
0.000150944
0.000148604
0.00014741
0.00014279
0.00013837
0.000134969
0.000132972
0.00013256
0.000133699
0.000136276
0.000140052
0.000144613
0.000149865
0.0001553
0.000170114
0.000195888
0.000229323
0.000267343
0.000304956
0.000340546
0.0003528
0.000337352
0.00027557
0.000134482
5.4871e-06
1.60859e-06
4.48954e-05
0.000121935
0.000156363
0.0001733
0.00017546
0.000169655
0.000160711
0.000153642
0.000150882
0.00015613
0.000149407
0.000147133
0.0001425
0.000138174
0.000134854
0.000132945