/*--------------------------------*- C++ -*----------------------------------*\
  =========                 |
  \\      /  F ield         | OpenFOAM: The Open Source CFD Toolbox
   \\    /   O peration     | Website:  https://openfoam.org
    \\  /    A nd           | Version:  13
     \\/     M anipulation  |
\*---------------------------------------------------------------------------*/
FoamFile
{
    format      ascii;
    class       volScalarField;
    location    "8";
    object      p_rgh;
}
// * * * * * * * * * * * * * * * * * * * * * * * * * * * * * * * * * * * * * //

dimensions      [0 2 -2 0 0 0 0];

internalField   nonuniform List<scalar> 
78750
(
0.0737468
0.0735836
0.073402
0.0731322
0.072704
0.0721644
0.0715061
0.0708329
0.0702094
0.069674
0.0692463
0.0687119
0.0681851
0.0678445
0.0675896
0.0673202
0.0671013
0.0669012
0.0667202
0.066557
0.0664075
0.0662668
0.0661318
0.0659961
0.0658572
0.0657067
0.0655486
0.0653805
0.0652037
0.0650153
0.0648289
0.0646607
0.0644611
0.0641972
0.0639026
0.0716621
0.0712299
0.0707424
0.0702138
0.069601
0.0689564
0.0684345
0.0679251
0.067396
0.0669938
0.0666988
0.0664993
0.0663076
0.0660995
0.0659699
0.0658985
0.0658543
0.0658255
0.065801
0.0657694
0.0657196
0.0656415
0.0655251
0.0653588
0.0651267
0.0648107
0.0644088
0.0639299
0.0633624
0.0626847
0.0618788
0.0609615
0.0599556
0.0588364
0.0576085
0.0719101
0.0711748
0.0704191
0.0696482
0.0689065
0.0682317
0.0676514
0.0672205
0.0669038
0.0666577
0.0664677
0.0663273
0.0662226
0.0661226
0.0660391
0.0659716
0.0659079
0.065841
0.0657644
0.0656695
0.0655457
0.0653797
0.0651529
0.0648411
0.0644249
0.0638936
0.063227
0.0624005
0.061377
0.0601566
0.0587293
0.0570781
0.0552467
0.0532505
0.0511128
0.0724951
0.071471
0.0704774
0.0695375
0.068678
0.0679314
0.0673093
0.0668008
0.066394
0.066082
0.065852
0.065684
0.0655636
0.065474
0.0653969
0.0653286
0.0652676
0.0652022
0.0651237
0.0650214
0.0648813
0.064685
0.064411
0.0640306
0.0635109
0.0628201
0.0619273
0.0607793
0.0593449
0.0575983
0.0555379
0.0531676
0.0505239
0.0476543
0.0446167
0.0739989
0.0726993
0.0714515
0.0702882
0.0692399
0.0683288
0.0675606
0.0669337
0.066438
0.0660574
0.0657741
0.0655703
0.0654274
0.0653244
0.0652423
0.0651758
0.0651145
0.0650488
0.0649699
0.0648631
0.0647111
0.0644928
0.064175
0.0637216
0.0630923
0.0622374
0.0611119
0.0596501
0.0578144
0.0555725
0.0529085
0.0498366
0.0464004
0.0426746
0.0387512
0.0755396
0.0739539
0.0724431
0.0710424
0.0697852
0.0686944
0.0677768
0.0670279
0.0664341
0.0659767
0.065634
0.0653846
0.0652085
0.0650827
0.0649857
0.0649072
0.0648391
0.0647663
0.0646755
0.0645528
0.064375
0.0641134
0.0637328
0.0631891
0.0624284
0.0613913
0.0600102
0.0582254
0.0559701
0.0532131
0.0499449
0.0461776
0.0419686
0.0374072
0.0326099
0.0772846
0.0754119
0.0736278
0.0719754
0.0704938
0.069208
0.0681259
0.0672422
0.0665419
0.0660028
0.0655995
0.0653064
0.0650987
0.0649502
0.0648376
0.0647474
0.0646675
0.0645828
0.0644761
0.0643269
0.0641118
0.0637986
0.0633429
0.0626898
0.061779
0.0605406
0.0588927
0.0567684
0.0540889
0.0508143
0.046935
0.0424688
0.0374835
0.0320819
0.0264015
0.0791216
0.0769615
0.074905
0.0730027
0.0712987
0.0698204
0.0685766
0.0675613
0.0667567
0.0661373
0.0656739
0.0653365
0.0650969
0.0649274
0.0648021
0.0647042
0.0646188
0.0645287
0.0644151
0.0642554
0.0640205
0.0636721
0.0631603
0.0624223
0.0613866
0.0599718
0.0580858
0.0556431
0.0525671
0.0488012
0.0443264
0.0391708
0.0334085
0.0271631
0.0205985
0.080975
0.0785271
0.0761972
0.0740424
0.0721127
0.0704387
0.0690306
0.0678816
0.0669717
0.066272
0.0657495
0.0653703
0.0651027
0.0649163
0.0647825
0.064681
0.0645943
0.064503
0.0643864
0.064219
0.0639681
0.063591
0.0630308
0.0622148
0.0610606
0.0594744
0.0573541
0.0545991
0.0511198
0.0468563
0.0417858
0.0359369
0.0293959
0.0223131
0.0148714
0.082893
0.0801569
0.0775527
0.075145
0.0729895
0.0711198
0.069547
0.0682636
0.067247
0.0664648
0.06588
0.0654546
0.0651531
0.064942
0.0647901
0.0646748
0.0645762
0.0644729
0.0643415
0.0641536
0.0638726
0.0634505
0.0628233
0.0619109
0.0606211
0.0588479
0.0564732
0.0533937
0.0495007
0.0447281
0.0390528
0.0325075
0.0251937
0.0172754
0.00896291
0.0848213
0.081797
0.0789188
0.0762579
0.0738759
0.0718094
0.0700704
0.0686506
0.0675251
0.0666583
0.0660092
0.0655357
0.0651983
0.0649593
0.0647853
0.0646514
0.0645357
0.0644144
0.0642616
0.0640456
0.0637258
0.0632487
0.062544
0.0615249
0.0600902
0.0581219
0.0554916
0.0520782
0.0477671
0.042486
0.0362102
0.0289751
0.0208977
0.012148
0.0029605
0.0867562
0.0834431
0.080289
0.0773722
0.0747603
0.0724936
0.0705853
0.0690265
0.0677903
0.0668376
0.0661232
0.0656006
0.0652251
0.0649546
0.0647531
0.0645944
0.064454
0.0643058
0.0641209
0.0638643
0.0634909
0.0629415
0.0621396
0.0609928
0.059391
0.0572127
0.0543137
0.0505481
0.0458067
0.0400119
0.0331315
0.0252078
0.0163493
0.00676298
-0.00330177
0.0887416
0.0851397
0.0817097
0.0785377
0.0756967
0.0732328
0.071159
0.0694651
0.068122
0.0670873
0.0663121
0.0657449
0.065337
0.0650434
0.0648258
0.0646548
0.0645037
0.0643438
0.0641439
0.0638657
0.0634602
0.062863
0.0619913
0.0607452
0.0590095
0.0566451
0.0534956
0.0494095
0.0442634
0.0379666
0.0304893
0.0218806
0.0122535
0.00182936
-0.00912058
0.0907836
0.0868938
0.08319
0.0797657
0.0767002
0.074038
0.0717989
0.0699705
0.0685219
0.0674058
0.0665693
0.0659584
0.0655202
0.0652069
0.0649776
0.0647998
0.0646444
0.064481
0.0642759
0.0639885
0.063566
0.0629396
0.0620203
0.0606991
0.0588476
0.0563139
0.0529312
0.0485357
0.042991
0.0361983
0.0281256
0.0188133
0.00843199
-0.0028256
-0.0146554
0.0928416
0.0886633
0.0846845
0.0810063
0.0777161
0.0748597
0.0724557
0.0704921
0.0689344
0.0677347
0.0668354
0.0661782
0.0657062
0.0653679
0.0651198
0.0649272
0.0647585
0.0645809
0.0643584
0.0640468
0.0635897
0.0629129
0.0619209
0.0604969
0.0585023
0.0557768
0.0521408
0.0474154
0.0414576
0.0341621
0.0254952
0.0155024
0.00433989
-0.0077599
-0.0204652
0.0949454
0.090478
0.0862228
0.0822911
0.0787725
0.0757208
0.0731535
0.071059
0.0693983
0.0681194
0.0671607
0.0664601
0.0659584
0.0656006
0.0653408
0.065141
0.0649668
0.0647833
0.0645518
0.0642256
0.063744
0.0630278
0.0619749
0.0604617
0.0583396
0.0554313
0.0515476
0.0464987
0.0401326
0.0323375
0.0230739
0.0124056
0.00046727
-0.0124577
-0.0260369
0.0970815
0.0923272
0.0878007
0.0836156
0.0798686
0.0766168
0.0738801
0.0716471
0.069878
0.0685161
0.0674969
0.0667526
0.0662202
0.065842
0.0655691
0.0653606
0.0651796
0.0649884
0.0647458
0.0644025
0.0638945
0.0631376
0.062023
0.0604172
0.0581616
0.0550687
0.050935
0.0455607
0.0387799
0.0304717
0.0205983
0.00922387
-0.0034767
-0.0172354
-0.0316889
0.0992299
0.0941861
0.0893835
0.0849483
0.080978
0.077533
0.0746329
0.0722655
0.0703902
0.0689468
0.0678662
0.0670772
0.0665129
0.0661138
0.0658274
0.0656102
0.0654228
0.065226
0.0649761
0.0646201
0.0640898
0.0632959
0.0621233
0.0604297
0.058045
0.0547698
0.05039
0.0446973
0.0375127
0.0287104
0.0182484
0.00618237
-0.00730246
-0.0219018
-0.0372332
0.101385
0.096055
0.09098
0.0862927
0.0820973
0.0784571
0.0753961
0.0728948
0.0709128
0.0693873
0.0682454
0.067413
0.066819
0.0663997
0.0661013
0.0658769
0.0656845
0.0654828
0.0652259
0.064858
0.0643074
0.06348
0.062254
0.0604775
0.0579676
0.0545144
0.0498943
0.0438888
0.0363071
0.0270102
0.0159484
0.00319092
-0.0110833
-0.0265103
-0.0427234
0.103535
0.0979184
0.0925683
0.087624
0.0832012
0.0793621
0.0761323
0.0734977
0.0714093
0.0698021
0.0685994
0.0677225
0.0670966
0.0666548
0.0663396
0.0661016
0.0658969
0.0656822
0.0654083
0.0650166
0.0644311
0.0635525
0.0622526
0.0603725
0.057719
0.0540722
0.0491948
0.0428523
0.0348466
0.0250437
0.0133854
-5.023e-05
-0.0150774
-0.0313506
-0.0484319
0.105679
0.0997757
0.0941532
0.0889562
0.0843058
0.0802721
0.0768753
0.0741056
0.071913
0.0702264
0.0689655
0.068047
0.0673929
0.0669328
0.0666059
0.0663612
0.0661517
0.0659311
0.0656487
0.0652426
0.0646333
0.0637162
0.0623564
0.0603855
0.0576017
0.0537718
0.0486461
0.0419802
0.033563
0.023249
0.0109849
-0.00315468
-0.0189501
-0.0360622
-0.0540235
0.107829
0.101637
0.0957374
0.0902876
0.0854106
0.0811825
0.0776294
0.0747275
0.0724286
0.0706595
0.0693361
0.068372
0.0676849
0.0672023
0.066861
0.0666058
0.0663873
0.0661574
0.0658628
0.0654388
0.0648018
0.0638424
0.0624191
0.0603551
0.0574379
0.0534236
0.0480499
0.0410575
0.0322206
0.0213832
0.00851274
-0.00631504
-0.022882
-0.0408173
-0.0596573
0.10998
0.103497
0.097322
0.091622
0.0865229
0.082097
0.0783733
0.0753352
0.0729286
0.0710771
0.069692
0.0686832
0.0679646
0.0674592
0.0671007
0.0668323
0.0666024
0.0663603
0.0660501
0.065604
0.0649339
0.0639258
0.0624318
0.0602674
0.0572105
0.0530057
0.0473785
0.0400605
0.0308247
0.0195126
0.00606183
-0.00944741
-0.0267801
-0.0455437
-0.0652519
0.112138
0.10537
0.0989239
0.0929699
0.0876409
0.0830181
0.0791261
0.0759502
0.0734357
0.0715021
0.0700571
0.0690053
0.0682571
0.067732
0.0673608
0.0670842
0.066848
0.0665996
0.0662806
0.0658204
0.0651278
0.0640829
0.0625305
0.0602769
0.0570892
0.0527019
0.0468297
0.0391927
0.0295504
0.0177348
0.00368748
-0.0125074
-0.0306124
-0.0502192
-0.0707998
0.114296
0.10724
0.100521
0.0943126
0.0887573
0.0839364
0.0798846
0.0765767
0.0739569
0.071941
0.0704334
0.0693351
0.0685532
0.0680046
0.0676171
0.0673283
0.0670821
0.0668235
0.0664917
0.0660131
0.0652926
0.0642052
0.0625891
0.0602423
0.0569221
0.0523509
0.0462307
0.0382672
0.0282056
0.0158699
0.00120914
-0.0156853
-0.0345671
-0.0550124
-0.0764753
0.116431
0.109088
0.102092
0.0956284
0.0898469
0.0848337
0.0806178
0.0771758
0.074448
0.0723492
0.070779
0.0696354
0.068821
0.0682489
0.0678437
0.0675409
0.0672824
0.0670105
0.0666621
0.0661604
0.0654063
0.0642699
0.0625832
0.0601364
0.0566763
0.0519145
0.0455411
0.0372508
0.0267845
0.0139662
-0.0012771
-0.0188539
-0.0385144
-0.0597921
-0.0821379
0.118572
0.11094
0.103671
0.0969538
0.0909393
0.085726
0.0813401
0.0777635
0.0749301
0.0727514
0.071121
0.0699328
0.0690864
0.0684911
0.0680691
0.0677533
0.0674832
0.067199
0.0668349
0.0663109
0.0655241
0.0643393
0.062582
0.0600344
0.0564352
0.0514839
0.0448567
0.0362385
0.0253565
0.0120222
-0.00383506
-0.0221288
-0.0425419
-0.0646387
-0.0878401
0.120719
0.112795
0.105248
0.0982781
0.0920445
0.0866349
0.0820825
0.0783672
0.0754262
0.0731634
0.0714715
0.0702386
0.0693602
0.0687426
0.0683047
0.0679767
0.067696
0.0674005
0.0670218
0.0664772
0.0656597
0.0644296
0.0626059
0.0599629
0.056228
0.0510906
0.0442155
0.0352739
0.0239813
0.0101394
-0.00631586
-0.0252741
-0.0464663
-0.0694106
-0.0934929
0.122835
0.114624
0.106807
0.0995923
0.0931359
0.0875304
0.0828153
0.0789671
0.0759179
0.0735714
0.0718162
0.0705386
0.0696289
0.0689897
0.0685374
0.0681993
0.0679103
0.0676063
0.0672167
0.0666554
0.0658118
0.0645405
0.0626538
0.0599173
0.0560501
0.0507283
0.0436041
0.0343396
0.0226423
0.00830392
-0.00873794
-0.028379
-0.0503405
-0.0741159
-0.0990824
0.125002
0.116505
0.108416
0.100936
0.0942414
0.0884367
0.0835554
0.0795735
0.0764192
0.0739933
0.0721791
0.0708577
0.0699166
0.0692554
0.0687871
0.0684371
0.0681379
0.0678232
0.0674198
0.0668388
0.0659658
0.0646504
0.0626984
0.0598675
0.0558647
0.0503557
0.0429829
0.0333917
0.0212763
0.00642867
-0.0112169
-0.0315707
-0.0543038
-0.0789153
-0.104752
0.127155
0.11837
0.110001
0.10227
0.095356
0.0893562
0.0843079
0.0801856
0.0769219
0.074411
0.0725328
0.0711642
0.0701889
0.0695029
0.0690166
0.0686527
0.0683411
0.0680132
0.0675933
0.0669894
0.0660825
0.064717
0.0626927
0.0597595
0.0556167
0.0499188
0.0422916
0.0323685
0.0198416
0.00450267
-0.01374
-0.0347555
-0.0582524
-0.0836894
-0.110398
0.1293
0.120224
0.111581
0.103607
0.0964637
0.0902682
0.0850562
0.0808035
0.0774339
0.0748409
0.0729009
0.071487
0.0704798
0.0697717
0.0692697
0.0688942
0.0685728
0.0682346
0.0678013
0.067178
0.0662423
0.0648338
0.0627452
0.0597178
0.0554396
0.0495548
0.0416785
0.0314392
0.0185112
0.00267001
-0.0161707
-0.0378915
-0.0621724
-0.0884611
-0.116048
0.131448
0.122086
0.113173
0.104933
0.0975618
0.0911701
0.0857942
0.0814088
0.0779358
0.0752642
0.0732659
0.0718112
0.0707755
0.0700484
0.0695343
0.0691505
0.0688227
0.0684778
0.0680353
0.0673973
0.0664376
0.0649907
0.0628425
0.0597259
0.0553185
0.0492511
0.0411303
0.0305653
0.0172202
0.000859687
-0.0185861
-0.0410182
-0.0660747
-0.0931987
-0.12167
0.133617
0.123966
0.114772
0.106281
0.0986883
0.0920991
0.0865548
0.0820286
0.0784442
0.0756882
0.0736277
0.0721269
0.0710582
0.0703077
0.0697766
0.0693798
0.0690407
0.0686838
0.068226
0.0675664
0.0665749
0.0650811
0.0628645
0.0596494
0.0551035
0.048848
0.0404736
0.0295787
0.0158194
-0.00103594
-0.0210686
-0.0441489
-0.0699578
-0.0979067
-0.127248
0.135785
0.125849
0.116389
0.107649
0.0998275
0.0930409
0.0873319
0.0826734
0.0789832
0.0761442
0.0740199
0.0724723
0.0713701
0.0705951
0.0700462
0.0696356
0.0692844
0.0689149
0.0684415
0.0677602
0.0667367
0.0651952
0.0629087
0.059594
0.0549096
0.0484653
0.0398399
0.0286229
0.0144636
-0.00288782
-0.0235208
-0.0473035
-0.0738891
-0.102664
-0.132879
0.137973
0.127746
0.118005
0.109008
0.100957
0.0939727
0.088101
0.0833105
0.0795154
0.0765954
0.0744116
0.0728201
0.0716869
0.0708906
0.0703265
0.0699048
0.0695444
0.069165
0.0686787
0.0679785
0.0669264
0.0653417
0.0629907
0.0595821
0.054764
0.0481337
0.0392588
0.0277166
0.0131405
-0.0047298
-0.0259721
-0.0504631
-0.0778233
-0.107454
-0.138554
0.140156
0.12964
0.119624
0.110375
0.102097
0.0949198
0.0888818
0.0839531
0.0800473
0.0770412
0.0747945
0.0731587
0.0719927
0.071173
0.0705922
0.0701578
0.0697864
0.069396
0.0688958
0.0681758
0.0670942
0.065465
0.0630481
0.0595437
0.0545902
0.047774
0.0386499
0.0267788
0.0117877
-0.00657785
-0.0284095
-0.0535649
-0.081685
-0.11213
-0.144097
0.142327
0.131524
0.121242
0.11174
0.103239
0.0958638
0.0896597
0.0845962
0.0805867
0.0775028
0.075195
0.073514
0.0723171
0.0714761
0.0708807
0.070436
0.070056
0.069656
0.0691434
0.0684048
0.0672947
0.0656219
0.06314
0.0595405
0.054451
0.0474481
0.0380744
0.0258848
0.0104944
-0.00836674
-0.0307947
-0.0566536
-0.0855537
-0.116834
-0.149695
0.144516
0.133425
0.122863
0.113108
0.104377
0.0968025
0.09043
0.0852318
0.0811146
0.0779488
0.0755811
0.0738557
0.0726273
0.071765
0.0711552
0.0706999
0.0703111
0.069902
0.0693771
0.0686203
0.0674821
0.0657664
0.0632199
0.0595257
0.0543021
0.047113
0.0374906
0.0249745
0.00916656
-0.0102068
-0.0332435
-0.059808
-0.0894909
-0.121616
-0.155332
0.146733
0.135357
0.12452
0.114512
0.105553
0.0977794
0.0912401
0.0859047
0.081678
0.0784255
0.0759939
0.074222
0.0729599
0.0720727
0.0714445
0.070975
0.0705735
0.070151
0.0696098
0.0688307
0.0676601
0.0658968
0.0632811
0.0594885
0.0541276
0.0467511
0.0368767
0.0240313
0.00781139
-0.0120684
-0.0356932
-0.0629195
-0.0933414
-0.1263
-0.160901
0.148923
0.137253
0.126142
0.11588
0.106698
0.0987344
0.0920346
0.086565
0.0822331
0.0789001
0.0764082
0.0745938
0.0733016
0.0723938
0.0717517
0.0712727
0.070864
0.0704342
0.069883
0.0690882
0.0678926
0.0660898
0.0634131
0.0595293
0.0540357
0.0464736
0.0363511
0.0231845
0.00655755
-0.0138126
-0.0380319
-0.0659502
-0.0971564
-0.130943
-0.166415
0.151076
0.13912
0.127733
0.117214
0.107808
0.0996484
0.0927856
0.0871852
0.0827486
0.0793375
0.0767845
0.0749254
0.0736012
0.0726716
0.0720144
0.0715242
0.0711059
0.0706658
0.0701011
0.0692867
0.0680616
0.0662142
0.0634711
0.0594903
0.0538615
0.046114
0.0357414
0.0222463
0.00521024
-0.0156644
-0.0404901
-0.0691132
-0.101108
-0.135743
-0.1721
0.153283
0.14104
0.129379
0.118611
0.108971
0.100605
0.0935725
0.0878358
0.0832924
0.0797965
0.0771819
0.0752777
0.073923
0.0729719
0.0722999
0.0717985
0.07137
0.0709188
0.0703396
0.0695042
0.0682474
0.0663528
0.0635408
0.0594623
0.0536947
0.0457578
0.0351339
0.0213174
0.00386955
-0.0175184
-0.0429415
-0.0722456
-0.104999
-0.140463
-0.177683
0.155497
0.142963
0.13103
0.120007
0.110142
0.101587
0.0943883
0.0885125
0.0838621
0.0802837
0.0776094
0.0756621
0.0742764
0.0733046
0.0726181
0.0721062
0.0716693
0.0712095
0.0706189
0.0697667
0.0684836
0.0665482
0.0636739
0.0595026
0.0536023
0.0454811
0.0346089
0.0204667
0.00260506
-0.0192841
-0.0453061
-0.0753066
-0.108822
-0.145103
-0.183221
0.157692
0.144876
0.132666
0.121388
0.111301
0.102553
0.0951929
0.0891864
0.0844274
0.0807661
0.0780275
0.0760327
0.0746123
0.0736146
0.0729087
0.0723816
0.0719315
0.0714579
0.0708506
0.0699756
0.0686598
0.0666766
0.0637327
0.0594616
0.0534238
0.0451146
0.0339918
0.0195215
0.00124818
-0.0211352
-0.047747
-0.0784209
-0.112721
-0.149851
-0.188823
0.15992
0.146812
0.134326
0.122803
0.11249
0.103539
0.0960104
0.0898676
0.0850006
0.0812563
0.0784557
0.076416
0.0749633
0.073943
0.0732213
0.0726826
0.0722226
0.0717387
0.071118
0.0702235
0.0688782
0.0668503
0.0638407
0.0594753
0.0533011
0.0448041
0.0334306
0.0186388
-3.80192e-05
-0.0229284
-0.0501453
-0.0815119
-0.116562
-0.154523
-0.194371
0.162121
0.148731
0.135981
0.124198
0.113653
0.104507
0.0968123
0.0905335
0.0855628
0.0817406
0.0788809
0.0767978
0.0753148
0.0742732
0.0735365
0.0729867
0.0725171
0.0720233
0.0713899
0.0704768
0.0691035
0.067033
0.0639592
0.0594995
0.0531926
0.0445126
0.0328926
0.0177756
-0.00131406
-0.0247151
-0.0525383
-0.0846132
-0.12045
-0.159241
-0.199964
0.164348
0.15067
0.137641
0.125601
0.114829
0.105489
0.0976293
0.0912131
0.086129
0.0822195
0.0792971
0.0771676
0.0756502
0.0745833
0.0738274
0.0732619
0.0727782
0.0722695
0.0716177
0.0706798
0.0692711
0.0671493
0.0640021
0.0594398
0.052992
0.0441198
0.0322432
0.0167986
-0.0027035
-0.0265941
-0.0549968
-0.0877433
-0.124354
-0.163986
-0.205588
0.166561
0.15259
0.139279
0.126989
0.115994
0.106454
0.0984309
0.0918846
0.0866987
0.0827066
0.0797217
0.0775483
0.0760008
0.0749139
0.0741449
0.0735706
0.0730797
0.072563
0.0719003
0.0709454
0.0695097
0.0673461
0.0641354
0.0594793
0.0528959
0.0438371
0.031713
0.0159429
-0.00397234
-0.0283778
-0.0573968
-0.0908398
-0.128216
-0.168679
-0.211157
0.168776
0.154514
0.140938
0.128396
0.117172
0.107434
0.099245
0.0925626
0.0872722
0.0832031
0.0801584
0.0779412
0.0763627
0.0752542
0.07447
0.0738846
0.0733845
0.0728581
0.0721825
0.0712087
0.0697443
0.0675371
0.0642616
0.059511
0.0527944
0.0435519
0.0311784
0.0150802
-0.00524922
-0.0301666
-0.0597793
-0.0939195
-0.132069
-0.173363
-0.216715
0.171057
0.156511
0.14266
0.129862
0.118412
0.10848
0.100122
0.0933004
0.0878961
0.0837387
0.0806283
0.0783618
0.0767475
0.0756129
0.0748095
0.0742091
0.0736957
0.0731559
0.0724643
0.0714683
0.0699718
0.0677173
0.0643726
0.0595231
0.0526685
0.0432362
0.0306117
0.0141928
-0.00654162
-0.0319433
-0.062144
-0.0969622
-0.135874
-0.177994
-0.222241
0.173292
0.158455
0.144327
0.131276
0.119602
0.109472
0.100952
0.0939989
0.0884918
0.0842538
0.0810863
0.0787792
0.0771354
0.0759807
0.0751638
0.074554
0.0740332
0.0734853
0.0727829
0.0717708
0.070249
0.0679549
0.0645499
0.0596095
0.0526221
0.0430064
0.0301355
0.0133939
-0.00774414
-0.0336515
-0.0644559
-0.0999572
-0.139654
-0.182632
-0.227755
0.175512
0.160383
0.145982
0.132681
0.120775
0.110446
0.101761
0.094674
0.0890622
0.0847463
0.0815174
0.0791659
0.0774922
0.0763167
0.0754857
0.0748655
0.0743359
0.0737787
0.0730639
0.0720332
0.0704827
0.0681448
0.064674
0.059638
0.0525157
0.0427138
0.0295914
0.0125217
-0.00903674
-0.0354559
-0.0668649
-0.103068
-0.143504
-0.1873
-0.233278
0.177778
0.162361
0.147687
0.13413
0.121996
0.111473
0.102618
0.0953933
0.0896693
0.0852673
0.0819752
0.0795769
0.0778691
0.0766699
0.0758213
0.0751878
0.0746467
0.0740772
0.0733468
0.0722942
0.0707113
0.0683256
0.064785
0.0596499
0.0523894
0.0423977
0.0290238
0.0116261
-0.0103388
-0.0372531
-0.0692473
-0.106141
-0.147382
-0.19201
-0.238863
0.180005
0.164301
0.149354
0.135542
0.123186
0.112468
0.103453
0.0960945
0.0902664
0.0857836
0.0824316
0.0799909
0.0782529
0.0770323
0.0761696
0.0755259
0.074976
0.0743975
0.0736551
0.072585
0.0709752
0.0685482
0.0649448
0.059717
0.0523231
0.0421467
0.028525
0.0108081
-0.0115645
-0.0389858
-0.0715902
-0.109177
-0.151189
-0.196676
-0.24443
0.182235
0.166246
0.151018
0.136954
0.124377
0.113461
0.104281
0.0967915
0.0908606
0.0862956
0.0828822
0.0803965
0.0786268
0.0773837
0.0765043
0.0758476
0.0752865
0.0746963
0.0739394
0.0728481
0.0712069
0.0687327
0.0650607
0.0597344
0.0522044
0.0418418
0.0279689
0.00992184
-0.0128723
-0.0408085
-0.0740123
-0.112271
-0.15503
-0.201333
-0.249954
0.184519
0.168244
0.152748
0.138433
0.125621
0.114509
0.105158
0.0975271
0.0914839
0.0868349
0.0833559
0.0808216
0.079017
0.0777491
0.0768517
0.0761809
0.0756072
0.0750031
0.074229
0.0731144
0.0714399
0.0689174
0.0651754
0.05975
0.0520799
0.041527
0.027401
0.00902636
-0.0141748
-0.0425934
-0.0763818
-0.115338
-0.158874
-0.205996
-0.255469
0.186793
0.170224
0.154448
0.13988
0.126844
0.115532
0.106017
0.0982508
0.0920973
0.0873663
0.083829
0.081252
0.0794163
0.0781265
0.0772132
0.0765308
0.0759475
0.0753337
0.0745466
0.073413
0.0717092
0.0691423
0.0653341
0.0598125
0.0520074
0.0412686
0.0268943
0.00819707
-0.015404
-0.0443298
-0.0787222
-0.118369
-0.162694
-0.210666
-0.261029
0.189046
0.172199
0.156152
0.141325
0.128057
0.116548
0.106869
0.0989731
0.0927193
0.0879061
0.0843065
0.081685
0.0798181
0.0785062
0.0775768
0.0768821
0.0762879
0.0756625
0.074861
0.0737068
0.0719727
0.0693604
0.0654853
0.0598677
0.0519275
0.0410013
0.0263766
0.00735681
-0.0166653
-0.0461081
-0.0811082
-0.12145
-0.166526
-0.215352
-0.266603
0.19134
0.174196
0.157869
0.142791
0.1293
0.117599
0.107756
0.0997221
0.0933605
0.0884665
0.084806
0.0821396
0.0802401
0.0789056
0.0779613
0.0772559
0.076653
0.0760184
0.0752046
0.0740324
0.0722705
0.0696161
0.0656779
0.0599669
0.0518923
0.0407815
0.0259096
0.00656589
-0.0178607
-0.0477922
-0.0833779
-0.124404
-0.170255
-0.219898
-0.272033
0.193631
0.176204
0.159616
0.144289
0.13057
0.118666
0.108655
0.100484
0.0940096
0.0890288
0.0853042
0.0825911
0.080659
0.079302
0.0783425
0.0776262
0.0770142
0.0763703
0.0755444
0.0743539
0.0725633
0.0698647
0.0658605
0.0600534
0.0518433
0.040545
0.0254192
0.00574075
-0.019106
-0.0495494
-0.0857372
-0.127452
-0.174062
-0.224515
-0.277525
0.195922
0.178203
0.161331
0.145746
0.131803
0.119705
0.109529
0.101228
0.0946542
0.0895952
0.0858111
0.0830544
0.0810908
0.0797109
0.0787336
0.0780037
0.0773799
0.0767236
0.0758823
0.0746707
0.0728497
0.0701057
0.066034
0.0601303
0.0517835
0.0402975
0.0249239
0.00493019
-0.020316
-0.0512578
-0.08805
-0.130453
-0.17785
-0.229162
-0.283043
0.198213
0.180207
0.163055
0.147215
0.133046
0.120758
0.110421
0.101984
0.0953029
0.0901632
0.0863186
0.0835189
0.0815262
0.080127
0.0791378
0.0783994
0.0777687
0.0771052
0.0762541
0.075027
0.073181
0.0703977
0.0662658
0.060271
0.0517921
0.0401226
0.0245026
0.00418321
-0.0214747
-0.0529204
-0.0902991
-0.133396
-0.181557
-0.233677
-0.288434
0.200519
0.182226
0.164808
0.148717
0.134317
0.121827
0.111319
0.102744
0.0959515
0.0907296
0.0868245
0.0839794
0.0819532
0.0805307
0.0795251
0.078775
0.0781348
0.0774613
0.0765974
0.0753515
0.073477
0.0706501
0.0664528
0.0603625
0.0517483
0.0398916
0.0240189
0.00337379
-0.022696
-0.0546473
-0.0926343
-0.136418
-0.185366
-0.238366
-0.293995
0.202837
0.184259
0.166568
0.150224
0.135599
0.122911
0.112239
0.103529
0.096628
0.0913186
0.087348
0.0844562
0.0823967
0.08095
0.0799269
0.0791634
0.0785114
0.0778252
0.0769451
0.0756767
0.0737693
0.070894
0.0666264
0.0604376
0.0516864
0.0396424
0.0235204
0.00255104
-0.0239319
-0.056388
-0.0949786
-0.139463
-0.189165
-0.242957
-0.299457
0.205126
0.186257
0.168281
0.151682
0.136835
0.123951
0.113115
0.104274
0.0972703
0.0918821
0.0878533
0.0849184
0.0828283
0.0813599
0.0803211
0.0795455
0.078883
0.0781863
0.0772927
0.0760049
0.0740683
0.0711489
0.066816
0.0605308
0.0516429
0.0394116
0.0230376
0.00173749
-0.0251582
-0.0581034
-0.0972679
-0.142418
-0.192883
-0.247514
-0.304879
0.207402
0.188245
0.170005
0.153156
0.138078
0.124997
0.113993
0.105014
0.0979029
0.0924321
0.0883408
0.0853621
0.0832419
0.0817533
0.0807001
0.0799138
0.0792418
0.0785346
0.0776274
0.0763197
0.0743529
0.0713881
0.0669877
0.060605
0.0515792
0.0391589
0.0225337
0.000909348
-0.0263926
-0.0598557
-0.0996378
-0.145501
-0.196754
-0.252207
-0.310447
0.209734
0.190291
0.17178
0.154677
0.139365
0.126088
0.114921
0.105807
0.0985894
0.0930371
0.0888837
0.0858581
0.0837025
0.0821885
0.0811178
0.0803185
0.0796357
0.0789173
0.0779961
0.0766684
0.0746721
0.071663
0.0671972
0.06072
0.0515609
0.0389558
0.0220843
0.000138769
-0.0275741
-0.0615431
-0.101928
-0.14846
-0.20048
-0.256814
-0.315961
0.212025
0.192288
0.173489
0.156127
0.140599
0.127128
0.115797
0.106552
0.0992257
0.0935904
0.0893768
0.0863079
0.0841226
0.0825868
0.0815002
0.080689
0.0799962
0.0792671
0.0783322
0.076985
0.0749594
0.071906
0.0673742
0.0608014
0.0515072
0.0387164
0.0215932
-0.000678627
-0.0287995
-0.0632484
-0.104213
-0.15144
-0.204218
-0.261363
-0.321353
0.214296
0.194278
0.17522
0.157614
0.141861
0.12819
0.116689
0.107307
0.099877
0.0941597
0.0898828
0.0867672
0.0845502
0.0829943
0.0818938
0.0810717
0.0803688
0.0796289
0.0786799
0.0773122
0.0752557
0.0721562
0.0675567
0.060886
0.0514528
0.0384726
0.0210984
-0.00149613
-0.0300248
-0.0649891
-0.10655
-0.154468
-0.208027
-0.266011
-0.326881
0.216668
0.196364
0.177027
0.159166
0.143177
0.129308
0.117642
0.108119
0.100576
0.0947752
0.090438
0.0872794
0.0850288
0.0834476
0.0823289
0.0814935
0.08078
0.0800293
0.0790665
0.0776792
0.0755932
0.0724492
0.067784
0.0610185
0.0514518
0.0382864
0.0206634
-0.00225928
-0.0312099
-0.0666913
-0.10887
-0.157479
-0.211818
-0.270619
-0.332352
0.218992
0.198399
0.178789
0.160669
0.144458
0.130394
0.118561
0.108905
0.101256
0.0953716
0.0909693
0.0877619
0.0854767
0.0838699
0.0827328
0.0818831
0.0811567
0.0803923
0.0794129
0.0780029
0.0758845
0.0726929
0.0679584
0.0610942
0.0513903
0.038036
0.0201591
-0.00309484
-0.0324567
-0.0684256
-0.111194
-0.160502
-0.215579
-0.275254
-0.337909
0.221306
0.200419
0.180521
0.162146
0.145707
0.131447
0.119453
0.109667
0.101915
0.0959519
0.0914925
0.0882437
0.0859298
0.0843037
0.0831525
0.0822926
0.0815577
0.0807844
0.079793
0.0783647
0.0762178
0.0729826
0.0681828
0.0612227
0.0513811
0.0378387
0.0197132
-0.00385916
-0.0336216
-0.070101
-0.113475
-0.163481
-0.219361
-0.279811
-0.343327
0.223654
0.202475
0.182308
0.163688
0.147023
0.132567
0.120405
0.110478
0.102616
0.0965683
0.0920454
0.0887523
0.0864081
0.0847625
0.0835986
0.0827299
0.0819878
0.081207
0.0802052
0.0787611
0.0765889
0.0733142
0.0684537
0.0614032
0.0514317
0.0377073
0.0193343
-0.00456382
-0.0347432
-0.0717313
-0.115696
-0.166374
-0.223027
-0.284379
-0.348771
0.225967
0.20451
0.184086
0.165206
0.148312
0.133659
0.121334
0.111278
0.10331
0.0971795
0.0925934
0.0892521
0.0868714
0.0851984
0.084015
0.083131
0.0823758
0.0815815
0.0805635
0.0790971
0.0768927
0.0735704
0.0686405
0.0614909
0.0513816
0.0374687
0.018846
-0.00537824
-0.0359697
-0.0734438
-0.118
-0.169363
-0.226771
-0.288906
-0.354184
0.228265
0.206514
0.185797
0.166665
0.149553
0.134706
0.122217
0.112027
0.103956
0.0977477
0.0931047
0.0897238
0.087317
0.0856268
0.0844315
0.0835397
0.0827781
0.0819764
0.0809477
0.0794642
0.0772326
0.0738682
0.0688743
0.0616301
0.051385
0.0372856
0.0184137
-0.00612865
-0.0371153
-0.0750933
-0.120252
-0.172308
-0.230493
-0.293493
-0.359614
0.230627
0.208591
0.187607
0.168224
0.150874
0.135824
0.123163
0.112831
0.104651
0.0983606
0.0936558
0.0902295
0.0877911
0.0860797
0.0848699
0.0839669
0.0831957
0.082384
0.081342
0.0798395
0.0775793
0.0741713
0.0691124
0.0617739
0.0513945
0.0371088
0.0179859
-0.00689149
-0.0383108
-0.0768158
-0.122574
-0.175307
-0.234239
-0.298061
-0.365068
0.233006
0.210685
0.189425
0.169782
0.152205
0.136958
0.124133
0.113665
0.105372
0.0989934
0.0942248
0.0907516
0.0882773
0.0865388
0.0853086
0.0843894
0.0836033
0.0827761
0.0817158
0.0801885
0.0778926
0.0744329
0.0692999
0.0618574
0.0513379
0.036862
0.0174816
-0.00771945
-0.0395353
-0.0785228
-0.124881
-0.17833
-0.238066
-0.302709
-0.370573
0.235369
0.21275
0.191201
0.171307
0.153516
0.138079
0.125093
0.114495
0.1061
0.0996398
0.094808
0.0912878
0.0887799
0.0870181
0.0857713
0.0848402
0.0840446
0.0832074
0.082134
0.0805879
0.0782637
0.0747615
0.0695657
0.0620316
0.0513775
0.0367159
0.0170943
-0.00842608
-0.040653
-0.0801483
-0.127102
-0.181231
-0.241721
-0.307246
-0.37603
0.237714
0.21481
0.193006
0.172866
0.15484
0.139203
0.126048
0.115313
0.106809
0.100268
0.0953743
0.0918096
0.0892713
0.0874871
0.0862246
0.0852819
0.0844765
0.0836293
0.0825433
0.0809788
0.0786267
0.0750818
0.0698216
0.0621933
0.0514054
0.0365583
0.0166831
-0.00916947
-0.0418164
-0.0818266
-0.129389
-0.184212
-0.245485
-0.311782
-0.381429
0.240066
0.216881
0.1948
0.1744
0.156145
0.140308
0.12699
0.116126
0.107519
0.100898
0.0959445
0.0923354
0.0897648
0.0879589
0.0866811
0.085727
0.0849121
0.0840546
0.0829551
0.081371
0.0789892
0.0753993
0.070072
0.0623458
0.0514223
0.0363886
0.0162661
-0.00990877
-0.0429666
-0.0834619
-0.131609
-0.187114
-0.249138
-0.316316
-0.386846
0.24242
0.218941
0.196584
0.175932
0.157455
0.141427
0.127942
0.116935
0.108219
0.101513
0.0964996
0.0928471
0.0902453
0.0884176
0.0871245
0.0861588
0.0853338
0.0844658
0.0833528
0.0817491
0.0793378
0.0757035
0.0703112
0.0624906
0.0514301
0.0362087
0.0158332
-0.0106674
-0.0441182
-0.0851156
-0.133857
-0.190048
-0.25286
-0.320867
-0.392261
0.244783
0.221003
0.198364
0.177463
0.158759
0.142531
0.128882
0.117742
0.108918
0.102131
0.0970553
0.0933605
0.0907297
0.088882
0.0875753
0.0865997
0.0857659
0.0848885
0.0837631
0.0821413
0.0797021
0.0760251
0.0705674
0.0626521
0.0514589
0.0360523
0.0154302
-0.011387
-0.045255
-0.086769
-0.136117
-0.193007
-0.256589
-0.325419
-0.397676
0.247139
0.223088
0.200189
0.179027
0.160091
0.143664
0.129848
0.118578
0.109651
0.102783
0.0976462
0.0939042
0.0912399
0.0893683
0.0880446
0.0870567
0.0862129
0.0853251
0.0841862
0.0825445
0.0800755
0.0763533
0.0708294
0.0628176
0.0514875
0.0358934
0.0150194
-0.0121336
-0.0464277
-0.0884434
-0.13839
-0.195952
-0.260298
-0.329962
-0.403099
0.249502
0.22516
0.201971
0.180555
0.161399
0.144779
0.1308
0.119392
0.110358
0.103406
0.0982056
0.0944171
0.0917194
0.0898243
0.0884835
0.0874823
0.0866268
0.0857268
0.0845725
0.0829093
0.0804084
0.0766393
0.0710472
0.0629372
0.0514692
0.0356868
0.0145612
-0.0129174
-0.0476043
-0.0901125
-0.140653
-0.198922
-0.26404
-0.334532