/*--------------------------------*- C++ -*----------------------------------*\
  =========                 |
  \\      /  F ield         | OpenFOAM: The Open Source CFD Toolbox
   \\    /   O peration     | Website:  https://openfoam.org
    \\  /    A nd           | Version:  13
     \\/     M anipulation  |
\*---------------------------------------------------------------------------*/
FoamFile
{
    format      ascii;
    class       surfaceScalarField;
    location    "8";
    object      phi;
}
// * * * * * * * * * * * * * * * * * * * * * * * * * * * * * * * * * * * * * //

dimensions      [0 3 -1 0 0 0 0];

internalField   nonuniform List<scalar> 
228225
(
8.57315e-07
-5.31271e-07
2.76448e-07
3.34536e-06
-2.92225e-06
4.34817e-07
7.36497e-06
-4.40437e-06
3.85313e-07
1.20285e-05
-4.96255e-06
2.99459e-07
1.67829e-05
-4.99384e-06
2.39781e-07
2.11357e-05
-4.55575e-06
2.03372e-07
2.48852e-05
-3.93296e-06
1.83806e-07
2.7952e-05
-3.24225e-06
1.75824e-07
3.04083e-05
-2.64709e-06
1.91281e-07
3.20343e-05
-1.83376e-06
2.08317e-07
3.30192e-05
-1.17629e-06
1.91701e-07
3.34087e-05
-5.51421e-07
1.62243e-07
3.34472e-05
-1.63023e-07
1.24919e-07
3.32357e-05
1.10581e-07
1.01317e-07
3.28864e-05
2.79259e-07
7.04394e-08
3.23933e-05
4.43435e-07
4.99853e-08
3.17536e-05
6.11692e-07
2.84257e-08
3.09835e-05
7.65071e-07
5.39306e-09
3.01262e-05
8.70134e-07
-1.25664e-08
2.92317e-05
9.15692e-07
-2.09032e-08
2.83435e-05
9.09837e-07
-2.12713e-08
2.74895e-05
8.71176e-07
-1.69001e-08
2.66803e-05
8.18799e-07
-9.43237e-09
2.59143e-05
7.66115e-07
9.26727e-11
2.517e-05
7.33833e-07
1.05917e-08
2.43848e-05
7.63564e-07
2.17366e-08
2.34912e-05
8.60637e-07
3.3021e-08
2.23933e-05
1.05367e-06
4.42491e-08
2.10135e-05
1.32392e-06
5.58842e-08
1.91721e-05
1.77729e-06
6.40588e-08
1.67553e-05
2.34685e-06
6.98295e-08
1.36066e-05
3.0711e-06
7.7458e-08
9.47498e-06
4.03985e-06
9.15108e-08
4.4742e-06
4.90689e-06
9.3564e-08
4.40579e-06
6.84205e-08
1.56397e-06
-2.2589e-06
1.63546e-07
4.54795e-06
-6.07666e-06
1.70352e-07
7.33831e-06
-7.34473e-06
1.49994e-07
9.61999e-06
-7.39366e-06
1.49441e-07
1.14519e-05
-6.98271e-06
1.57005e-07
1.29201e-05
-6.19475e-06
1.71017e-07
1.39289e-05
-5.12904e-06
1.8751e-07
1.45756e-05
-4.08314e-06
1.94459e-07
1.4781e-05
-3.05578e-06
2.03698e-07
1.47891e-05
-2.05861e-06
2.17181e-07
1.45206e-05
-1.14317e-06
2.35934e-07
1.41386e-05
-4.078e-07
2.38832e-07
1.37085e-05
5.47249e-08
2.12617e-07
1.33957e-05
2.28773e-07
1.94815e-07
1.31427e-05
3.52467e-07
1.8022e-07
1.29905e-05
4.23469e-07
1.72532e-07
1.29723e-05
4.59958e-07
1.70363e-07
1.3091e-05
4.76644e-07
1.70149e-07
1.33145e-05
4.76454e-07
1.70572e-07
1.35982e-05
4.60766e-07
1.7167e-07
1.39001e-05
4.34575e-07
1.73804e-07
1.41871e-05
4.07533e-07
1.76924e-07
1.44325e-05
3.92251e-07
1.81544e-07
1.461e-05
4.01538e-07
1.8738e-07
1.46939e-05
4.58591e-07
1.91543e-07
1.46612e-05
6.07334e-07
1.89078e-07
1.44646e-05
8.75039e-07
1.82367e-07
1.40481e-05
1.29425e-06
1.7615e-07
1.33148e-05
1.88906e-06
1.68408e-07
1.22747e-05
2.6507e-06
1.66945e-07
1.07209e-05
3.73826e-06
1.6257e-07
8.52527e-06
5.11345e-06
1.53548e-07
5.69226e-06
6.72982e-06
1.43315e-07
2.36725e-06
8.1069e-06
1.25302e-07
6.69015e-06
8.28843e-08
9.67905e-07
-3.3474e-06
1.22366e-07
2.35154e-06
-7.56736e-06
1.08191e-07
3.38878e-06
-8.46455e-06
8.34385e-08
4.18353e-06
-8.26895e-06
8.14231e-08
4.68394e-06
-7.5708e-06
8.86331e-08
4.98022e-06
-6.58155e-06
9.14883e-08
5.20992e-06
-5.46104e-06
1.03477e-07
5.30788e-06
-4.30124e-06
1.21619e-07
5.28251e-06
-3.16388e-06
1.35165e-07
5.16767e-06
-2.0832e-06
1.41092e-07
5.06384e-06
-1.17416e-06
1.36109e-07
5.15069e-06
-6.18172e-07
1.24369e-07
5.45824e-06
-3.65441e-07
1.13232e-07
5.83893e-06
-2.57785e-07
1.06452e-07
6.27888e-06
-1.91565e-07
1.04702e-07
6.74536e-06
-1.47855e-07
1.0546e-07
7.22428e-06
-1.25108e-07
1.06736e-07
7.70802e-06
-1.15633e-07
1.09102e-07
8.18675e-06
-1.14409e-07
1.12644e-07
8.64707e-06
-1.16438e-07
1.17347e-07
9.07543e-06
-1.16595e-07
1.23214e-07
9.459e-06
-1.05698e-07
1.29979e-07
9.78539e-06
-7.09547e-08
1.37048e-07
1.0038e-05
5.26709e-09
1.43832e-07
1.02037e-05
1.42269e-07
1.50734e-07
1.02738e-05
3.77802e-07
1.59513e-07
1.01993e-05
7.77414e-07
1.72203e-07
9.92989e-06
1.37565e-06
1.88046e-07
9.39631e-06
2.21828e-06
2.04334e-07
8.56698e-06
3.26802e-06
2.11932e-07
7.32731e-06
4.76076e-06
2.17052e-07
5.58781e-06
6.64401e-06
2.0881e-07
3.43022e-06
8.70223e-06
1.85056e-07
1.2133e-06
1.01769e-05
1.46772e-07
7.81428e-06
8.91991e-08
5.44643e-07
-3.95007e-06
5.97131e-08
1.04951e-06
-8.12194e-06
5.08091e-08
1.52082e-06
-8.97953e-06
4.46008e-08
1.95061e-06
-8.73906e-06
4.12432e-08
2.32404e-06
-7.98587e-06
4.2703e-08
2.60325e-06
-6.90843e-06
4.89159e-08
2.80049e-06
-5.71361e-06
5.67276e-08
2.96013e-06
-4.52355e-06
6.41839e-08
3.13846e-06
-3.41169e-06
7.11569e-08
3.39546e-06
-2.41859e-06
8.02019e-08
3.73272e-06
-1.59588e-06
8.6108e-08
4.06212e-06
-1.03132e-06
8.49337e-08
4.3659e-06
-7.47848e-07
7.94103e-08
4.65391e-06
-6.19361e-07
7.41672e-08
4.94533e-06
-5.54001e-07
7.15826e-08
5.23921e-06
-5.13311e-07
7.21388e-08
5.53271e-06
-4.92661e-07
7.45999e-08
5.82193e-06
-4.82515e-07
7.8196e-08
6.10356e-06
-4.7856e-07
8.30355e-08
6.37228e-06
-4.73806e-07
8.9138e-08
6.62112e-06
-4.61377e-07
9.64083e-08
6.8442e-06
-4.33182e-07
1.04842e-07
7.03914e-06
-3.79758e-07
1.14262e-07
7.19374e-06
-2.73304e-07
1.24357e-07
7.29676e-06
-9.56724e-08
1.35386e-07
7.31358e-06
2.11831e-07
1.49777e-07
7.29881e-06
6.2265e-07
1.70352e-07
7.119e-06
1.36265e-06
1.93821e-07
6.74652e-06
2.37583e-06
2.16008e-07
6.02844e-06
3.74633e-06
2.40774e-07
4.97014e-06
5.55903e-06
2.60913e-07
3.55462e-06
7.79335e-06
2.66896e-07
1.94919e-06
1.00603e-05
2.48209e-07
5.37991e-07
1.14e-05
1.89144e-07
8.25537e-06
9.69251e-08
2.12547e-07
-4.19717e-06
3.73875e-08
5.45787e-07
-8.47393e-06
2.04545e-08
8.0564e-07
-9.24865e-06
1.06957e-08
1.01388e-06
-8.95378e-06
7.89979e-09
1.18252e-06
-8.16048e-06
7.48277e-09
1.3417e-06
-7.07494e-06
8.92482e-09
1.50321e-06
-5.8854e-06
1.19816e-08
1.67774e-06
-4.7132e-06
1.70315e-08
1.86961e-06
-3.625e-06
2.3547e-08
2.09164e-06
-2.6685e-06
3.00171e-08
2.36317e-06
-1.90085e-06
3.53247e-08
2.67445e-06
-1.37933e-06
3.81305e-08
2.98992e-06
-1.10099e-06
3.86488e-08
3.30077e-06
-9.67938e-07
3.85064e-08
3.60234e-06
-8.93993e-07
3.90897e-08
3.89837e-06
-8.49558e-07
4.08209e-08
4.18812e-06
-8.25355e-07
4.35402e-08
4.46842e-06
-8.10001e-07
4.7764e-08
4.73438e-06
-7.97075e-07
5.31111e-08
4.9846e-06
-7.82774e-07
5.92838e-08
5.21603e-06
-7.58677e-07
6.63404e-08
5.42386e-06
-7.14598e-07
7.39703e-08
5.60164e-06
-6.38663e-07
8.15159e-08
5.7411e-06
-5.02516e-07
9.02122e-08
5.8137e-06
-2.68229e-07
1.00441e-07
5.77323e-06
1.3973e-07
1.1308e-07
5.70277e-06
5.66372e-07
1.27416e-07
5.48039e-06
1.4383e-06
1.47517e-07
5.09496e-06
2.59068e-06
1.71363e-07
4.53522e-06
4.10924e-06
1.97596e-07
3.80706e-06
6.06085e-06
2.26995e-07
2.91092e-06
8.43804e-06
2.51963e-07
1.79893e-06
1.0913e-05
2.59813e-07
6.1439e-07
1.23571e-05
2.282e-07
8.75676e-06
1.13056e-07
1.33114e-07
-4.35182e-06
2.5209e-08
3.30563e-07
-8.68634e-06
1.71066e-08
5.60368e-07
-9.48657e-06
9.89391e-09
7.87727e-07
-9.18584e-06
6.41727e-09
9.97943e-07
-8.37424e-06
5.32991e-09
1.19246e-06
-7.27351e-06
6.03251e-09
1.38602e-06
-6.08513e-06
8.3526e-09
1.59378e-06
-4.93029e-06
1.16474e-08
1.82407e-06
-3.86839e-06
1.55467e-08
2.0742e-06
-2.93574e-06
1.96042e-08
2.33217e-06
-2.17946e-06
2.28678e-08
2.58611e-06
-1.65612e-06
2.45385e-08
2.83161e-06
-1.37002e-06
2.47105e-08
3.07106e-06
-1.23089e-06
2.44329e-08
3.30645e-06
-1.1533e-06
2.47844e-08
3.53748e-06
-1.10599e-06
2.6223e-08
3.76331e-06
-1.0789e-06
2.84963e-08
3.98601e-06
-1.06335e-06
3.14574e-08
4.20365e-06
-1.04945e-06
3.55204e-08
4.41288e-06
-1.03168e-06
4.04044e-08
4.61168e-06
-1.00239e-06
4.56284e-08
4.79798e-06
-9.5121e-07
5.1022e-08
4.96777e-06
-8.64395e-07
5.67074e-08
5.1307e-06
-7.27e-07
6.25005e-08
5.27981e-06
-4.85371e-07
6.91272e-08
5.37627e-06
-3.30803e-08
7.75481e-08
5.36715e-06
4.891e-07
8.80365e-08
5.32347e-06
1.38213e-06
1.02046e-07
5.13422e-06
2.66404e-06
1.18099e-07
4.76869e-06
4.33661e-06
1.40073e-07
4.14104e-06
6.52299e-06
1.6713e-07
3.14032e-06
9.24141e-06
1.98631e-07
1.81079e-06
1.20228e-05
2.2113e-07
5.15517e-07
1.3444e-05
2.10051e-07
9.16591e-06
1.06415e-07
1.15659e-07
-4.46962e-06
6.14314e-09
2.95902e-07
-8.85621e-06
-8.07277e-09
4.72359e-07
-9.64797e-06
-1.31465e-08
6.33803e-07
-9.33074e-06
-1.4688e-08
7.76904e-07
-8.49998e-06
-1.54032e-08
9.10345e-07
-7.38966e-06
-1.52039e-08
1.04407e-06
-6.20267e-06
-1.39662e-08
1.18686e-06
-5.0591e-06
-1.15901e-08
1.34896e-06
-4.01983e-06
-8.10582e-09
1.53783e-06
-3.11817e-06
-3.85433e-09
1.74929e-06
-2.38915e-06
5.02022e-10
1.97055e-06
-1.87969e-06
4.03025e-09
2.18848e-06
-1.5929e-06
6.16771e-09
2.40195e-06
-1.45071e-06
7.33014e-09
2.61315e-06
-1.37206e-06
8.47089e-09
2.82233e-06
-1.32443e-06
1.01626e-08
3.02834e-06
-1.2964e-06
1.23679e-08
3.22978e-06
-1.27902e-06
1.50389e-08
3.42751e-06
-1.26453e-06
1.81401e-08
3.62017e-06
-1.24509e-06
2.15583e-08
3.805e-06
-1.21169e-06
2.52629e-08
3.98143e-06
-1.15603e-06
2.91295e-08
4.15414e-06
-1.0692e-06
3.28293e-08
4.32654e-06
-9.34569e-07
3.60749e-08
4.50052e-06
-6.97515e-07
3.92657e-08
4.6423e-06
-2.17789e-07
4.42137e-08
4.65456e-06
4.26814e-07
5.17098e-08
4.67068e-06
1.30689e-06
6.11406e-08
4.52981e-06
2.73074e-06
7.61467e-08
4.06099e-06
4.71284e-06
9.43431e-08
3.23163e-06
7.23274e-06
1.2106e-07
2.10624e-06
1.02163e-05
1.51568e-07
9.65197e-07
1.29925e-05
1.72544e-07
1.36642e-07
1.41129e-05
1.61287e-07
9.23477e-06
6.78598e-08
6.6477e-08
-4.53631e-06
4.12027e-09
2.03043e-07
-8.98335e-06
-7.19728e-09
3.54743e-07
-9.78539e-06
-1.24265e-08
5.04176e-07
-9.46368e-06
-1.46937e-08
6.49306e-07
-8.62726e-06
-1.59656e-08
7.94315e-07
-7.51627e-06
-1.63895e-08
9.44216e-07
-6.33451e-06
-1.59075e-08
1.1021e-06
-5.20019e-06
-1.44806e-08
1.26911e-06
-4.17225e-06
-1.21369e-08
1.44469e-06
-3.28222e-06
-9.0413e-09
1.62625e-06
-2.5628e-06
-5.64591e-09
1.80559e-06
-2.0546e-06
-2.68972e-09
1.97595e-06
-1.76123e-06
-7.76853e-10
2.14091e-06
-1.6149e-06
2.23006e-10
2.30277e-06
-1.53411e-06
1.14649e-09
2.46124e-06
-1.48446e-06
2.50958e-09
2.61542e-06
-1.4539e-06
4.26473e-09
2.76417e-06
-1.43318e-06
6.35795e-09
2.90622e-06
-1.41436e-06
8.74312e-09
3.04043e-06
-1.38968e-06
1.13424e-08
3.16647e-06
-1.35086e-06
1.40665e-08
3.28376e-06
-1.28918e-06
1.67502e-08
3.39307e-06
-1.19665e-06
1.90964e-08
3.49054e-06
-1.05206e-06
2.12556e-08
3.55899e-06
-7.88073e-07
2.37095e-08
3.57346e-06
-2.58276e-07
2.79872e-08
3.50719e-06
4.60466e-07
3.51139e-08
3.36971e-06
1.4021e-06
4.50224e-08
3.08836e-06
2.95277e-06
6.20409e-08
2.6438e-06
5.0739e-06
8.60283e-08
2.0769e-06
7.68502e-06
1.16679e-07
1.43682e-06
1.07102e-05
1.47829e-07
7.76933e-07
1.34864e-05
1.67683e-07
1.98376e-07
1.45359e-05
1.57781e-07
9.36555e-06
6.76635e-08
8.37726e-08
-4.60841e-06
-7.93428e-09
2.22088e-07
-9.09849e-06
-2.10502e-08
3.64199e-07
-9.90194e-06
-2.37892e-08
4.95651e-07
-9.56929e-06
-2.41321e-08
6.11691e-07
-8.71675e-06
-2.47461e-08
7.19697e-07
-7.59704e-06
-2.53297e-08
8.31206e-07
-6.41858e-06
-2.53955e-08
9.53775e-07
-5.29599e-06
-2.45868e-08
1.09011e-06
-4.28353e-06
-2.27229e-08
1.24055e-06
-3.41049e-06
-1.9818e-08
1.40199e-06
-2.70591e-06
-1.62093e-08
1.56478e-06
-2.20304e-06
-1.26894e-08
1.72086e-06
-1.90595e-06
-1.01492e-08
1.87122e-06
-1.75552e-06
-8.7543e-09
2.01838e-06
-1.67257e-06
-7.78645e-09
2.16272e-06
-1.62121e-06
-6.67341e-09
2.30368e-06
-1.58855e-06
-5.38511e-09
2.44046e-06
-1.56507e-06
-3.95308e-09
2.57216e-06
-1.54269e-06
-2.42065e-09
2.69793e-06
-1.51365e-06
-8.61596e-10
2.81705e-06
-1.4697e-06
6.11955e-10
2.92913e-06
-1.40228e-06
1.86072e-09
3.03356e-06
-1.30286e-06
2.70548e-09
3.12371e-06
-1.14443e-06
3.46434e-09
3.18195e-06
-8.49535e-07
4.86775e-09
3.18711e-06
-2.6903e-07
7.54587e-09
3.13167e-06
5.05337e-07
1.28759e-08
3.00861e-06
1.50557e-06
2.22751e-08
2.80386e-06
3.12137e-06
3.88308e-08
2.55467e-06
5.26105e-06
6.43363e-08
2.20606e-06
7.93684e-06
9.86549e-08
1.67191e-06
1.11101e-05
1.3564e-07
9.74406e-07
1.40236e-05
1.6183e-07
3.45861e-07
1.50057e-05
1.60806e-07
9.63647e-06
7.50222e-08
6.41162e-08
-4.65845e-06
-1.05245e-08
1.75779e-07
-9.18591e-06
-2.22391e-08
2.86504e-07
-9.98538e-06
-2.56061e-08
3.88791e-07
-9.64328e-06
-2.6659e-08
4.85984e-07
-8.78471e-06
-2.75324e-08
5.88164e-07
-7.6691e-06
-2.82964e-08
7.03864e-07
-6.50359e-06
-2.874e-08
8.36734e-07
-5.39822e-06
-2.85655e-08
9.85055e-07
-4.40216e-06
-2.74974e-08
1.14391e-06
-3.54172e-06
-2.53864e-08
1.30697e-06
-2.84451e-06
-2.23891e-08
1.46501e-06
-2.34026e-06
-1.91615e-08
1.61344e-06
-2.03645e-06
-1.66947e-08
1.75558e-06
-1.88122e-06
-1.54337e-08
1.89514e-06
-1.79638e-06
-1.48165e-08
2.03359e-06
-1.74443e-06
-1.42915e-08
2.17115e-06
-1.71137e-06
-1.37751e-08
2.30759e-06
-1.68721e-06
-1.33049e-08
2.4425e-06
-1.66364e-06
-1.29422e-08
2.57552e-06
-1.63289e-06
-1.27644e-08
2.70651e-06
-1.58684e-06
-1.28515e-08
2.83561e-06
-1.51713e-06
-1.32879e-08
2.96274e-06
-1.41467e-06
-1.42077e-08
3.08637e-06
-1.25115e-06
-1.53755e-08
3.20427e-06
-9.48984e-07
-1.63609e-08
3.31937e-06
-3.64455e-07
-1.71881e-08
3.30734e-06
5.36445e-07
-1.60082e-08
3.30362e-06
1.52349e-06
-1.06782e-08
3.19086e-06
3.23648e-06
1.00472e-09
2.94293e-06
5.49001e-06
2.18498e-08
2.48751e-06
8.33982e-06
5.47563e-08
1.82229e-06
1.16807e-05
9.63707e-08
1.04957e-06
1.46668e-05
1.31442e-07
3.1475e-07
1.56009e-05
1.4212e-07
9.87973e-06
7.15608e-08
5.94412e-08
-4.69907e-06
-1.54156e-08
1.62736e-07
-9.26301e-06
-2.42722e-08
2.7547e-07
-1.00708e-05
-2.57286e-08
3.88124e-07
-9.72827e-06
-2.60985e-08
5.02213e-07
-8.87025e-06
-2.68945e-08
6.24499e-07
-7.76179e-06
-2.78503e-08
7.5618e-07
-6.60476e-06
-2.86516e-08
8.94996e-07
-5.50603e-06
-2.90107e-08
1.03844e-06
-4.51485e-06
-2.86476e-08
1.18382e-06
-3.6576e-06
-2.73409e-08
1.32657e-06
-2.96017e-06
-2.50818e-08
1.46338e-06
-2.45311e-06
-2.23401e-08
1.59369e-06
-2.14546e-06
-2.00927e-08
1.7207e-06
-1.98819e-06
-1.90531e-08
1.84757e-06
-1.90351e-06
-1.88225e-08
1.97638e-06
-1.85344e-06
-1.8887e-08
2.10799e-06
-1.82296e-06
-1.90745e-08
2.2424e-06
-1.80126e-06
-1.93906e-08
2.37922e-06
-1.77956e-06
-1.99043e-08
2.51799e-06
-1.74998e-06
-2.06806e-08
2.65844e-06
-1.70461e-06
-2.17026e-08
2.80083e-06
-1.63553e-06
-2.30398e-08
2.94652e-06
-1.53435e-06
-2.49597e-08
3.09975e-06
-1.37545e-06
-2.74962e-08
3.2657e-06
-1.08198e-06
-3.08045e-08
3.42868e-06
-4.89475e-07
-3.53193e-08
3.48592e-06
5.21507e-07
-3.94045e-08
3.51974e-06
1.53198e-06
-3.90983e-08
3.39486e-06
3.3994e-06
-3.49006e-08
3.06883e-06
5.83941e-06
-2.07346e-08
2.45561e-06
8.94797e-06
7.17019e-09
1.60321e-06
1.24895e-05
4.51544e-08
8.03382e-07
1.53926e-05
7.57924e-08
1.42974e-07
1.61833e-05
8.04955e-08
9.99274e-06
3.00575e-08
8.25038e-08
-4.75742e-06
-2.08339e-08
1.97441e-07
-9.34778e-06
-2.82984e-08
3.19486e-07
-1.01624e-05
-2.88302e-08
4.43123e-07
-9.82165e-06
-2.87265e-08
5.65898e-07
-8.96205e-06
-2.93728e-08
6.90991e-07
-7.85474e-06
-3.0434e-08
8.10532e-07
-6.69098e-06
-3.14923e-08
9.20711e-07
-5.58207e-06
-3.21888e-08
1.02768e-06
-4.5876e-06
-3.21469e-08
1.13921e-06
-3.73596e-06
-3.10359e-08
1.25706e-06
-3.04727e-06
-2.87499e-08
1.37714e-06
-2.54583e-06
-2.57321e-08
1.49462e-06
-2.2386e-06
-2.3107e-08
1.61032e-06
-2.08101e-06
-2.18786e-08
1.72746e-06
-1.99797e-06
-2.17221e-08
1.84855e-06
-1.9515e-06
-2.20635e-08
1.97452e-06
-1.92528e-06
-2.26357e-08
2.10535e-06
-1.90764e-06
-2.34023e-08
2.24074e-06
-1.8894e-06
-2.44428e-08
2.38025e-06
-1.86256e-06
-2.58098e-08
2.52361e-06
-1.81946e-06
-2.74117e-08
2.67148e-06
-1.75297e-06
-2.93434e-08
2.82764e-06
-1.65731e-06
-3.20187e-08
3.00148e-06
-1.51184e-06
-3.58668e-08
3.20131e-06
-1.23766e-06
-4.15793e-08
3.40164e-06
-6.35314e-07
-5.10832e-08
3.52832e-06
4.5805e-07
-5.96036e-08
3.49382e-06
1.63252e-06
-6.21268e-08
3.21967e-06
3.74348e-06
-6.61111e-08
2.66657e-06
6.45398e-06
-5.82961e-08
1.89341e-06
9.75964e-06
-3.59969e-08
1.0618e-06
1.3327e-05
-3.79399e-09
2.80961e-07
1.61533e-05
2.25205e-08
-1.06734e-07
1.65489e-05
2.48923e-08
9.89866e-06
-1.2566e-08
8.48927e-08
-4.81679e-06
-2.22313e-08
1.94441e-07
-9.42792e-06
-2.75732e-08
3.01033e-07
-1.02398e-05
-2.76373e-08
4.00772e-07
-9.89239e-06
-2.74976e-08
4.7732e-07
-9.00887e-06
-2.81499e-08
5.54597e-07
-7.90098e-06
-2.9358e-08
6.25572e-07
-6.7296e-06
-3.05522e-08
6.92404e-07
-5.6156e-06
-3.13618e-08
7.66145e-07
-4.62785e-06
-3.14536e-08
8.49847e-07
-3.78707e-06
-3.05089e-08
9.50642e-07
-3.11771e-06
-2.83931e-08
1.05592e-06
-2.62402e-06
-2.54676e-08
1.15647e-06
-2.31513e-06
-2.28019e-08
1.25184e-06
-2.15396e-06
-2.14092e-08
1.34549e-06
-2.06959e-06
-2.10795e-08
1.43943e-06
-2.02322e-06
-2.12377e-08
1.53403e-06
-1.99725e-06
-2.16183e-08
1.62907e-06
-1.97946e-06
-2.21655e-08
1.72413e-06
-1.96043e-06
-2.29361e-08
1.8187e-06
-1.93207e-06
-2.3955e-08
1.91237e-06
-1.88692e-06
-2.51169e-08
2.00559e-06
-1.81862e-06
-2.65111e-08
2.10111e-06
-1.72318e-06
-2.85131e-08
2.20122e-06
-1.5788e-06
-3.15977e-08
2.297e-06
-1.29425e-06
-3.67165e-08
2.36587e-06
-6.56121e-07
-4.45903e-08
2.35729e-06
5.22195e-07
-5.17964e-08
2.15934e-06
1.88713e-06
-5.2865e-08
1.78449e-06
4.17423e-06
-5.22998e-08
1.27468e-06
7.01035e-06
-4.37339e-08
7.69184e-07
1.0295e-05
-2.77929e-08
3.89393e-07
1.37149e-05
-6.10163e-09
1.61972e-08
1.65237e-05
5.78238e-09
-9.34171e-08
1.66608e-05
9.57343e-10
9.83426e-06
-2.88932e-08
6.78004e-08
-4.85862e-06
-2.27498e-08
1.59312e-07
-9.49036e-06
-2.72226e-08
2.42861e-07
-1.02954e-05
-2.64057e-08
3.1687e-07
-9.9393e-06
-2.56733e-08
4.01594e-07
-9.06661e-06
-2.54911e-08
4.6583e-07
-7.93665e-06
-2.68761e-08
5.20643e-07
-6.75449e-06
-2.80904e-08
5.73741e-07
-5.63779e-06
-2.89434e-08
6.45511e-07
-4.66845e-06
-2.92305e-08
7.29971e-07
-3.84129e-06
-2.82597e-08
8.19975e-07
-3.17873e-06
-2.69779e-08
9.07671e-07
-2.68556e-06
-2.44852e-08
9.89539e-07
-2.37366e-06
-2.20434e-08
1.06623e-06
-2.20892e-06
-2.06661e-08
1.14054e-06
-2.12259e-06
-2.0293e-08
1.21398e-06
-2.07519e-06
-2.04319e-08
1.28684e-06
-2.04819e-06
-2.08167e-08
1.3589e-06
-2.029e-06
-2.13737e-08
1.4298e-06
-2.00799e-06
-2.21365e-08
1.49913e-06
-1.97705e-06
-2.31111e-08
1.56648e-06
-1.92884e-06
-2.42011e-08
1.63181e-06
-1.85729e-06
-2.54703e-08
1.69536e-06
-1.75811e-06
-2.72692e-08
1.75291e-06
-1.60436e-06
-3.00282e-08
1.78671e-06
-1.29017e-06
-3.47118e-08
1.76444e-06
-5.8786e-07
-4.16891e-08
1.68249e-06
6.56049e-07
-4.71113e-08
1.50252e-06
2.11874e-06
-4.68815e-08
1.26062e-06
4.46193e-06
-4.15382e-08
9.39349e-07
7.36472e-06
-2.96008e-08
5.19655e-07
1.0731e-05
-1.33093e-08
3.49292e-08
1.41996e-05
2.40741e-09
-2.16809e-08
1.65741e-05
8.56759e-09
3.68938e-09
1.66334e-05
5.59143e-09
9.85566e-06
-1.76068e-08
6.29301e-08
-4.89677e-06
-2.15856e-08
1.34263e-07
-9.53511e-06
-2.4815e-08
1.97918e-07
-1.03335e-05
-2.409e-08
2.47503e-07
-9.96413e-06
-2.31987e-08
3.16017e-07
-9.10922e-06
-2.42296e-08
3.78534e-07
-7.97301e-06
-2.44661e-08
4.4138e-07
-6.79054e-06
-2.50877e-08
5.09816e-07
-5.67909e-06
-2.53146e-08
5.74716e-07
-4.70511e-06
-2.62054e-08
6.40644e-07
-3.87895e-06
-2.61831e-08
7.02217e-07
-3.21328e-06
-2.50352e-08
7.71194e-07
-2.72998e-06
-2.28971e-08
8.39692e-07
-2.42016e-06
-2.07129e-08
9.05822e-07
-2.25452e-06
-1.94698e-08
9.71537e-07
-2.16813e-06
-1.91678e-08
1.03835e-06
-2.12157e-06
-1.93945e-08
1.10664e-06
-2.0955e-06
-1.98905e-08
1.17631e-06
-2.07694e-06
-2.05859e-08
1.24721e-06
-2.05616e-06
-2.15153e-08
1.31923e-06
-2.02516e-06
-2.2679e-08
1.39244e-06
-1.97686e-06
-2.39657e-08
1.46737e-06
-1.9056e-06
-2.54208e-08
1.54589e-06
-1.80786e-06
-2.74305e-08
1.62997e-06
-1.65594e-06
-3.05607e-08
1.71286e-06
-1.33382e-06
-3.60071e-08
1.7537e-06
-5.79304e-07
-4.49346e-08
1.73418e-06
7.3231e-07
-5.19587e-08
1.5312e-06
2.37988e-06
-5.35421e-08
1.21026e-06
4.83721e-06
-5.04195e-08
7.82136e-07
7.83413e-06
-3.81809e-08
2.94289e-07
1.12424e-05
-2.06059e-08
-9.16035e-08
1.45943e-05
-6.45173e-09
-1.07181e-07
1.65892e-05
3.26774e-09
-7.86067e-08
1.66113e-05
-2.64127e-09
9.80238e-06
-2.52044e-08
4.35724e-08
-4.91901e-06
-1.8151e-08
8.67842e-08
-9.55606e-06
-2.04276e-08
1.27478e-07
-1.03528e-05
-1.99555e-08
1.84581e-07
-1.00009e-05
-1.91428e-08
2.39405e-07
-9.14347e-06
-1.92045e-08
2.99356e-07
-8.01147e-06
-1.99031e-08
3.48494e-07
-6.81717e-06
-2.06571e-08
4.06789e-07
-5.71366e-06
-2.17126e-08
4.5056e-07
-4.7251e-06
-2.16082e-08
4.93979e-07
-3.8989e-06
-2.13533e-08
5.35749e-07
-3.23341e-06
-1.97981e-08
5.7973e-07
-2.75378e-06
-1.85466e-08
6.23429e-07
-2.44567e-06
-1.69022e-08
6.65906e-07
-2.28003e-06
-1.588e-08
7.07529e-07
-2.19314e-06
-1.55679e-08
7.48813e-07
-2.1461e-06
-1.56662e-08
7.89679e-07
-2.11925e-06
-1.59719e-08
8.29854e-07
-2.09948e-06
-1.64212e-08
8.69252e-07
-2.07726e-06
-1.70245e-08
9.07809e-07
-2.04464e-06
-1.77586e-08
9.45461e-07
-1.99468e-06
-1.85243e-08
9.82667e-07
-1.92219e-06
-1.93331e-08
1.02036e-06
-1.82359e-06
-2.04764e-08
1.05686e-06
-1.66764e-06
-2.25177e-08
1.07707e-06
-1.32386e-06
-2.6491e-08
1.03947e-06
-5.04252e-07
-3.24304e-08
9.64895e-07
8.49657e-07
-3.72241e-08
7.25777e-07
2.66237e-06
-3.81431e-08
4.45835e-07
5.15691e-06
-3.52672e-08
1.63563e-07
8.14703e-06
-2.68918e-08
-6.41148e-08
1.14873e-05
-1.42706e-08
-7.19074e-08
1.46064e-05
-2.00766e-09
-8.02784e-08
1.65967e-05
3.57303e-09
-3.12313e-08
1.65682e-05
-2.10726e-09
9.79313e-06
-2.18515e-08
3.44674e-08
-4.93452e-06
-1.58887e-08
8.18559e-08
-9.58448e-06
-1.7577e-08
1.23267e-07
-1.03763e-05
-1.66293e-08
1.74971e-07
-1.00344e-05
-1.67716e-08
2.25865e-07
-9.17593e-06
-1.69167e-08
2.69135e-07
-8.03598e-06
-1.72629e-08
3.06852e-07
-6.83581e-06
-1.74408e-08
3.41029e-07
-5.72788e-06
-1.81875e-08
3.76867e-07
-4.74091e-06
-1.81785e-08
4.10525e-07
-3.9123e-06
-1.82443e-08
4.49438e-07
-3.25315e-06
-1.72831e-08
4.83597e-07
-2.7705e-06
-1.58552e-08
5.19734e-07
-2.46619e-06
-1.43718e-08
5.54574e-07
-2.30029e-06
-1.35111e-08
5.88671e-07
-2.213e-06
-1.32129e-08
6.22469e-07
-2.16556e-06
-1.32765e-08
6.56019e-07
-2.13819e-06
-1.34987e-08
6.89041e-07
-2.11753e-06
-1.38126e-08
7.21927e-07
-2.09461e-06
-1.43057e-08
7.54767e-07
-2.06128e-06
-1.49352e-08
7.87583e-07
-2.01063e-06
-1.56042e-08
8.20737e-07
-1.93778e-06
-1.63133e-08
8.55032e-07
-1.83913e-06
-1.72968e-08
8.89553e-07
-1.68088e-06
-1.9022e-08
9.1431e-07
-1.32214e-06
-2.2736e-08
9.07315e-07
-4.64016e-07
-2.81321e-08
8.48666e-07
9.45746e-07
-3.18533e-08
6.56756e-07
2.89137e-06
-3.18519e-08
4.05038e-07
5.44112e-06
-2.78779e-08
1.49488e-07
8.42616e-06
-1.97431e-08
-2.32147e-08
1.16717e-05
-8.93674e-09
-1.07063e-07
1.46904e-05
1.79186e-09
-8.37562e-08
1.65702e-05
5.68915e-09
-5.70176e-08
1.65458e-05
-5.81874e-10
9.75706e-06
-2.08271e-08
2.61936e-08
-4.94507e-06
-1.26933e-08
6.02665e-08
-9.60129e-06
-1.53893e-08
9.67914e-08
-1.03967e-05
-1.48222e-08
1.24375e-07
-1.00463e-05
-1.43323e-08
1.39896e-07
-9.17586e-06
-1.43207e-08
1.62154e-07
-8.04246e-06
-1.4392e-08
1.95824e-07
-6.85322e-06
-1.46021e-08
2.23621e-07
-5.73912e-06
-1.47495e-08
2.55338e-07
-4.75627e-06
-1.45562e-08
2.8826e-07
-3.92947e-06
-1.39038e-08
3.21232e-07
-3.27105e-06
-1.32774e-08
3.49272e-07
-2.78496e-06
-1.20406e-08
3.72568e-07
-2.47719e-06
-1.1016e-08
3.95936e-07
-2.31245e-06
-1.0158e-08
4.19174e-07
-2.22542e-06
-9.79808e-09
4.41707e-07
-2.17731e-06
-9.71102e-09
4.63323e-07
-2.14891e-06
-9.76503e-09
4.84404e-07
-2.12756e-06
-9.86061e-09
5.05066e-07
-2.10398e-06
-1.0041e-08
5.2555e-07
-2.07021e-06
-1.02512e-08
5.46199e-07
-2.01953e-06
-1.04487e-08
5.67623e-07
-1.94723e-06
-1.06756e-08
5.90288e-07
-1.84912e-06
-1.11371e-08
6.12527e-07
-1.68849e-06
-1.22191e-08
6.2543e-07
-1.31647e-06
-1.46035e-08
6.12123e-07
-4.27234e-07
-1.80774e-08
5.37859e-07
1.04657e-06
-2.05087e-08
3.83317e-07
3.07214e-06
-2.0381e-08
1.88223e-07
5.65828e-06
-1.69475e-08
5.27548e-09
8.6239e-06
-1.02489e-08
-3.72868e-08
1.17195e-05
-1.21042e-09
-4.01206e-08
1.4689e-05
7.01015e-09
-2.72363e-08
1.65494e-05
1.04856e-08
-3.10737e-08
1.655e-05
3.40041e-09
9.73994e-06
-1.38256e-08
1.19951e-08
-4.94543e-06
-9.45296e-09
3.00327e-08
-9.60661e-06
-1.12449e-08
5.85971e-08
-1.04123e-05
-1.16782e-08
9.33598e-08
-1.00683e-05
-1.14751e-08
1.12305e-07
-9.18214e-06
-1.13028e-08
1.27968e-07
-8.04541e-06
-1.12137e-08
1.71355e-07
-6.88403e-06
-1.1105e-08
2.02184e-07
-5.75732e-06
-1.10696e-08
2.33905e-07
-4.77501e-06
-1.11603e-08
2.57387e-07
-3.93997e-06
-1.10998e-08
2.70776e-07
-3.27215e-06
-1.04625e-08
2.80787e-07
-2.78397e-06
-9.47941e-09
2.90604e-07
-2.47753e-06
-8.31453e-09
3.03117e-07
-2.31626e-06
-7.70239e-09
3.16184e-07
-2.23015e-06
-7.37285e-09
3.28366e-07
-2.18127e-06
-7.21457e-09
3.39891e-07
-2.15224e-06
-7.11475e-09
3.50544e-07
-2.12996e-06
-7.09855e-09
3.59888e-07
-2.10498e-06
-7.10948e-09
3.67733e-07
-2.06962e-06
-7.15183e-09
3.7394e-07
-2.01727e-06
-7.19688e-09
3.78524e-07
-1.94328e-06
-7.25053e-09
3.80217e-07
-1.84182e-06
-7.44262e-09
3.73664e-07
-1.67156e-06
-7.96061e-09
3.48466e-07
-1.27811e-06
-9.05567e-09
2.92318e-07
-3.54782e-07
-1.04975e-08
2.19962e-07
1.13593e-06
-1.08663e-08
1.86993e-07
3.12019e-06
-9.67817e-09
2.05283e-07
5.65105e-06
-6.52286e-09
2.1449e-07
8.61961e-06
-1.06501e-09
1.8897e-07
1.1742e-05
6.07961e-09
1.74838e-07
1.46924e-05
1.28931e-08
2.18024e-08
1.66889e-05
1.57867e-08
2.22173e-08
1.65426e-05
1.08223e-08
9.76572e-06
-3.43629e-09
9.50722e-09
-4.94592e-06
-7.36494e-09
3.19045e-08
-9.6177e-06
-9.98896e-09
6.06504e-08
-1.04294e-05
-1.0267e-08
7.37754e-08
-1.00701e-05
-1.00026e-08
1.12926e-07
-9.21041e-06
-9.68017e-09
1.41612e-07
-8.06298e-06
-9.66635e-09
1.48394e-07
-6.87912e-06
-1.01344e-08
1.7103e-07
-5.76843e-06
-9.86302e-09
1.81089e-07
-4.77331e-06
-9.82653e-09
1.81452e-07
-3.92918e-06
-9.20362e-09
1.79403e-07
-3.25992e-06
-8.47609e-09
1.84235e-07
-2.77994e-06
-7.49936e-09
1.96364e-07
-2.48183e-06
-6.71479e-09
2.08869e-07
-2.3216e-06
-6.18627e-09
2.22234e-07
-2.23664e-06
-5.93573e-09
2.36265e-07
-2.18848e-06
-5.84089e-09
2.50651e-07
-2.15965e-06
-5.90116e-09
2.64855e-07
-2.13702e-06
-5.98238e-09
2.78707e-07
-2.11147e-06
-6.12676e-09
2.92087e-07
-2.07539e-06
-6.32563e-09
3.05051e-07
-2.02239e-06
-6.55154e-09
3.18146e-07
-1.94825e-06
-6.78666e-09
3.3202e-07
-1.84687e-06
-7.16526e-09
3.45305e-07
-1.67447e-06
-7.89081e-09
3.48657e-07
-1.26815e-06
-9.10146e-09
3.35171e-07
-3.2417e-07
-1.10567e-08
2.77078e-07
1.21185e-06
-1.18123e-08
1.75073e-07
3.23695e-06
-9.86674e-09
1.07584e-07
5.72899e-06
-6.16731e-09
1.30613e-07
8.60087e-06
-7.89307e-10
8.77706e-08
1.17817e-05
5.91367e-09
5.34499e-08
1.47173e-05
1.21655e-08
1.29554e-08
1.67177e-05
1.47038e-08
-2.84187e-08
1.65748e-05
1.27663e-08
9.73821e-06
-7.92589e-10
1.17843e-08
-4.94985e-06
-6.40354e-09
3.49326e-08
-9.63125e-06
-8.47813e-09
6.9687e-08
-1.0455e-05
-8.16407e-09
7.88906e-08
-1.00702e-05
-7.99373e-09
8.28898e-08
-9.2046e-06
-8.44724e-09
1.00724e-07
-8.07135e-06
-8.31173e-09
7.84139e-08
-6.84711e-06
-8.22653e-09
6.11165e-08
-5.74088e-06
-8.63089e-09
4.7989e-08
-4.75053e-06
-8.22243e-09
5.21092e-08
-3.924e-06
-7.81706e-09
7.012e-08
-3.26929e-06
-7.16271e-09
8.64096e-08
-2.78852e-06
-6.41944e-09
9.85291e-08
-2.48722e-06
-5.69377e-09
1.08294e-07
-2.32526e-06
-5.20652e-09
1.15591e-07
-2.23807e-06
-4.9847e-09
1.21138e-07
-2.18823e-06
-4.86898e-09
1.24509e-07
-2.15721e-06
-4.80591e-09
1.26365e-07
-2.13298e-06
-4.812e-09
1.26909e-07
-2.10597e-06
-4.87288e-09
1.2649e-07
-2.06877e-06
-4.97981e-09
1.25398e-07
-2.01496e-06
-5.10619e-09
1.23989e-07
-1.94034e-06
-5.23006e-09
1.2181e-07
-1.8378e-06
-5.35762e-09
1.16778e-07
-1.66133e-06
-5.58303e-09
1.03187e-07
-1.24428e-06
-6.02453e-09
7.56968e-08
-2.84786e-07
-6.12786e-09
4.45381e-08
1.25471e-06
-5.33018e-09
9.11279e-09
3.28195e-06
-3.68402e-09
-2.49826e-08
5.76849e-06
-8.48795e-10
6.70881e-09
8.56939e-06
3.33188e-09
4.07732e-08
1.17422e-05
8.23119e-09
4.40071e-08
1.4703e-05
1.30121e-08
5.75046e-08
1.66918e-05
1.55424e-08
2.49623e-08
1.65988e-05
1.25723e-08
9.76117e-06
2.11466e-09
4.87451e-09
-4.94716e-06
-6.21656e-09
2.11282e-08
-9.63861e-06
-7.63579e-09
2.81586e-08
-1.04531e-05
-7.86393e-09
3.74157e-08
-1.00714e-05
-7.2167e-09
1.69457e-08
-9.17627e-06
-6.77498e-09
3.12478e-09
-8.0492e-06
-7.02388e-09
3.87737e-08
-6.87497e-06
-6.66022e-09
6.71571e-08
-5.76167e-06
-6.39258e-09
9.76154e-08
-4.77328e-06
-6.32528e-09
1.18729e-07
-3.93751e-06
-6.07858e-09
1.30263e-07
-3.27364e-06
-5.72054e-09
1.40296e-07
-2.79227e-06
-5.10002e-09
1.50192e-07
-2.49151e-06
-4.62919e-09
1.58815e-07
-2.32864e-06
-4.3806e-09
1.66565e-07
-2.2407e-06
-4.28471e-09
1.74682e-07
-2.19115e-06
-4.31028e-09
1.83258e-07
-2.1604e-06
-4.4168e-09
1.92203e-07
-2.13629e-06
-4.58683e-09
2.01517e-07
-2.10933e-06
-4.82284e-09
2.1112e-07
-2.07205e-06
-5.14033e-09
2.20824e-07
-2.01793e-06
-5.53256e-09
2.30565e-07
-1.94281e-06
-5.99822e-09
2.39723e-07
-1.83882e-06
-6.53693e-09
2.47338e-07
-1.6593e-06
-7.17196e-09
2.56491e-07
-1.24134e-06
-7.9095e-09
2.7365e-07
-2.87941e-07
-8.2032e-09
3.26544e-07
1.21486e-06
-6.95171e-09
4.06171e-07
3.21208e-06
-4.33829e-09
4.56987e-07
5.72292e-06
-1.04604e-09
3.45309e-07
8.68075e-06
3.13658e-09
2.37435e-07
1.18444e-05
7.81451e-09
1.05523e-07
1.48254e-05
1.19802e-08
2.44571e-08
1.67626e-05
1.36017e-08
3.41309e-08
1.65811e-05
1.19186e-08
9.79395e-06
1.4738e-09
3.30935e-09
-4.94339e-06
-5.6121e-09
-4.67343e-10
-9.62646e-06
-7.28282e-09
-1.775e-08
-1.04284e-05
-6.62059e-09
-6.86388e-09
-1.00749e-05
-6.46295e-09
3.64816e-08
-9.21255e-06
-6.26663e-09
6.14624e-08
-8.06708e-06
-6.27054e-09
6.91796e-08
-6.87485e-06
-6.72809e-09
7.4343e-08
-5.75842e-06
-7.07221e-09
7.51987e-08
-4.76564e-06
-7.05448e-09
7.62471e-08
-3.93045e-06
-6.71448e-09
7.51893e-08
-3.26529e-06
-6.05888e-09
8.20992e-08
-2.79269e-06
-5.41554e-09
9.09888e-08
-2.49466e-06
-4.84637e-09
9.88695e-08
-2.33129e-06
-4.46447e-09
1.07909e-07
-2.24462e-06
-4.34281e-09
1.18617e-07
-2.19663e-06
-4.37796e-09
1.30984e-07
-2.16733e-06
-4.5021e-09
1.4504e-07
-2.1446e-06
-4.70953e-09
1.60738e-07
-2.11891e-06
-4.99914e-09
1.7791e-07
-2.08268e-06
-5.37481e-09
1.96438e-07
-2.02946e-06
-5.82031e-09
2.16427e-07
-1.95519e-06
-6.3622e-09
2.3817e-07
-1.85199e-06
-6.98853e-09
2.60451e-07
-1.6712e-06
-7.83466e-09
2.74482e-07
-1.24198e-06
-9.11096e-09
2.72298e-07
-2.69396e-07
-1.04681e-08
2.27195e-07
1.27609e-06
-1.05795e-08
1.42955e-07
3.3089e-06
-8.47226e-09
7.44508e-08
5.79985e-06