/*--------------------------------*- C++ -*----------------------------------*\
  =========                 |
  \\      /  F ield         | OpenFOAM: The Open Source CFD Toolbox
   \\    /   O peration     | Website:  https://openfoam.org
    \\  /    A nd           | Version:  13
     \\/     M anipulation  |
\*---------------------------------------------------------------------------*/
FoamFile
{
    format      ascii;
    class       volScalarField;
    location    "19";
    object      k;
}
// * * * * * * * * * * * * * * * * * * * * * * * * * * * * * * * * * * * * * //

dimensions      [0 2 -2 0 0 0 0];

internalField   nonuniform List<scalar> 
78750
(
4.85218e-13
1.38356e-11
6.28502e-11
1.14296e-10
1.68966e-10
2.27414e-10
2.89766e-10
3.55623e-10
4.24052e-10
4.93632e-10
5.62546e-10
6.28705e-10
6.89878e-10
7.43843e-10
7.8853e-10
8.22155e-10
8.43337e-10
8.5119e-10
8.45378e-10
8.26141e-10
7.94276e-10
7.51087e-10
6.98296e-10
6.37936e-10
5.7221e-10
5.03354e-10
4.33485e-10
3.6446e-10
2.97754e-10
2.34351e-10
1.74692e-10
1.18654e-10
6.56096e-11
1.45508e-11
5.12281e-13
1.06329e-11
3.07958e-10
1.54018e-09
2.82224e-09
4.18421e-09
5.64493e-09
7.20971e-09
8.86913e-09
1.05994e-08
1.23638e-08
1.41153e-08
1.57996e-08
1.73589e-08
1.87353e-08
1.98751e-08
2.07317e-08
2.12694e-08
2.14651e-08
2.13104e-08
2.08117e-08
1.99902e-08
1.88801e-08
1.75266e-08
1.59827e-08
1.43058e-08
1.2554e-08
1.0782e-08
9.03796e-09
7.35951e-09
5.77168e-09
4.28495e-09
2.89471e-09
1.5822e-09
3.16835e-10
1.09453e-11
3.10173e-11
8.98474e-10
4.50336e-09
8.30621e-09
1.24341e-08
1.69744e-08
2.19649e-08
2.73883e-08
3.31707e-08
3.91852e-08
4.52602e-08
5.11902e-08
5.67495e-08
6.17072e-08
6.58437e-08
6.89672e-08
7.09283e-08
7.16313e-08
7.10414e-08
6.91873e-08
6.61594e-08
6.21023e-08
5.72043e-08
5.16829e-08
4.57684e-08
3.96874e-08
3.36472e-08
2.78228e-08
2.23447e-08
1.72905e-08
1.2681e-08
8.48069e-09
4.60286e-09
9.19273e-10
3.17469e-11
6.15945e-11
1.78453e-09
8.95349e-09
1.65621e-08
2.4899e-08
3.41695e-08
4.44741e-08
5.57941e-08
6.7987e-08
8.07915e-08
9.38417e-08
1.0669e-07
1.18829e-07
1.29728e-07
1.38869e-07
1.45795e-07
1.50146e-07
1.5169e-07
1.50343e-07
1.46178e-07
1.39417e-07
1.30413e-07
1.19616e-07
1.07541e-07
9.4717e-08
8.16538e-08
6.88027e-08
5.65348e-08
4.51182e-08
3.47024e-08
2.53123e-08
1.68518e-08
9.11744e-09
1.81865e-09
6.27895e-11
9.57968e-11
2.77639e-09
1.39377e-08
2.5813e-08
3.88759e-08
5.34666e-08
6.97574e-08
8.77294e-08
1.07164e-07
1.27646e-07
1.48594e-07
1.69287e-07
1.88897e-07
2.06548e-07
2.2138e-07
2.32629e-07
2.39692e-07
2.42179e-07
2.39953e-07
2.33139e-07
2.2211e-07
2.07461e-07
1.89948e-07
1.70423e-07
1.49764e-07
1.28801e-07
1.08256e-07
8.8722e-08
7.06199e-08
5.41787e-08
3.94264e-08
2.61973e-08
1.41542e-08
2.82133e-09
9.73696e-11
1.26786e-10
3.67604e-09
1.84617e-08
3.42115e-08
5.15689e-08
7.0997e-08
9.27334e-08
1.16758e-07
1.42779e-07
1.70243e-07
1.98366e-07
2.26182e-07
2.52571e-07
2.76341e-07
2.96323e-07
3.11476e-07
3.20982e-07
3.24313e-07
3.21284e-07
3.12065e-07
2.97168e-07
2.77399e-07
2.5379e-07
2.27502e-07
1.99728e-07
1.71588e-07
1.44054e-07
1.17918e-07
9.37418e-08
7.18289e-08
5.22107e-08
3.46582e-08
1.87123e-08
3.72803e-09
1.28604e-10
1.50587e-10
4.36792e-09
2.19437e-08
4.06774e-08
6.13439e-08
8.4502e-08
1.10439e-07
1.39132e-07
1.70234e-07
2.03081e-07
2.36734e-07
2.70033e-07
3.01637e-07
3.30108e-07
3.5404e-07
3.72184e-07
3.83558e-07
3.87531e-07
3.83882e-07
3.72815e-07
3.54946e-07
3.31243e-07
3.02945e-07
2.71452e-07
2.38199e-07
2.04531e-07
1.71611e-07
1.40386e-07
1.11529e-07
8.54005e-08
6.20361e-08
4.1158e-08
2.22126e-08
4.42367e-09
1.52537e-10
1.66467e-10
4.83019e-09
2.42724e-08
4.50026e-08
6.78847e-08
9.35415e-08
1.22294e-07
1.54117e-07
1.88625e-07
2.25078e-07
2.62434e-07
2.99405e-07
3.34497e-07
3.6611e-07
3.9268e-07
4.12819e-07
4.25437e-07
4.29836e-07
4.2577e-07
4.13469e-07
3.93612e-07
3.67279e-07
3.35845e-07
3.00868e-07
2.63947e-07
2.26576e-07
1.90048e-07
1.55413e-07
1.23421e-07
9.44708e-08
6.85998e-08
4.54983e-08
2.45492e-08
4.88755e-09
1.68473e-10
1.75823e-10
5.10299e-09
2.5648e-08
4.75583e-08
7.17504e-08
9.88854e-08
1.29304e-07
1.6298e-07
1.99504e-07
2.38092e-07
2.7764e-07
3.16783e-07
3.53938e-07
3.87408e-07
4.15536e-07
4.36853e-07
4.50205e-07
4.54854e-07
4.50542e-07
4.37509e-07
4.16478e-07
3.88589e-07
3.553e-07
3.18262e-07
2.79169e-07
2.39607e-07
2.00944e-07
1.64292e-07
1.30445e-07
9.9826e-08
7.24737e-08
4.80591e-08
2.59273e-08
5.16086e-09
1.77847e-10
1.80756e-10
5.24705e-09
2.63752e-08
4.89096e-08
7.37949e-08
1.01712e-07
1.33013e-07
1.67671e-07
2.05263e-07
2.44982e-07
2.85691e-07
3.25985e-07
3.64232e-07
3.98686e-07
4.27639e-07
4.49579e-07
4.63319e-07
4.681e-07
4.63656e-07
4.50236e-07
4.28583e-07
3.99869e-07
3.65598e-07
3.27467e-07
2.87225e-07
2.46502e-07
2.06708e-07
1.68988e-07
1.34159e-07
1.02656e-07
7.45202e-08
4.94115e-08
2.66549e-08
5.30499e-09
1.82782e-10
1.8311e-10
5.3159e-09
2.67232e-08
4.95563e-08
7.47735e-08
1.03066e-07
1.34789e-07
1.69917e-07
2.08021e-07
2.48283e-07
2.89549e-07
3.30394e-07
3.69166e-07
4.04091e-07
4.3344e-07
4.55679e-07
4.69605e-07
4.74449e-07
4.69942e-07
4.56336e-07
4.34384e-07
4.05275e-07
3.70531e-07
3.31877e-07
2.91083e-07
2.49803e-07
2.09467e-07
1.71235e-07
1.35935e-07
1.0401e-07
7.54988e-08
5.0058e-08
2.70026e-08
5.3738e-09
1.85135e-10
1.84135e-10
5.34595e-09
2.68752e-08
4.98389e-08
7.52012e-08
1.03657e-07
1.35566e-07
1.709e-07
2.09228e-07
2.49728e-07
2.91238e-07
3.32325e-07
3.71326e-07
4.06458e-07
4.3598e-07
4.5835e-07
4.72357e-07
4.77229e-07
4.72694e-07
4.59007e-07
4.36924e-07
4.07641e-07
3.72691e-07
3.33807e-07
2.92771e-07
2.51247e-07
2.10673e-07
1.72217e-07
1.36712e-07
1.04601e-07
7.59264e-08
5.03404e-08
2.71545e-08
5.40381e-09
1.86159e-10
1.84547e-10
5.35802e-09
2.69363e-08
4.99526e-08
7.53734e-08
1.03896e-07
1.35879e-07
1.71296e-07
2.09715e-07
2.5031e-07
2.91918e-07
3.33103e-07
3.72197e-07
4.07412e-07
4.37004e-07
4.59427e-07
4.73467e-07
4.7835e-07
4.73804e-07
4.60083e-07
4.37947e-07
4.08595e-07
3.73561e-07
3.34585e-07
2.93451e-07
2.51829e-07
2.11159e-07
1.72613e-07
1.37024e-07
1.04839e-07
7.60983e-08
5.04539e-08
2.72155e-08
5.41586e-09
1.86569e-10
1.847e-10
5.36252e-09
2.69591e-08
4.9995e-08
7.54376e-08
1.03985e-07
1.35995e-07
1.71444e-07
2.09896e-07
2.50527e-07
2.92172e-07
3.33393e-07
3.72522e-07
4.07769e-07
4.37387e-07
4.5983e-07
4.73882e-07
4.78769e-07
4.74219e-07
4.60486e-07
4.3833e-07
4.08951e-07
3.73886e-07
3.34875e-07
2.93705e-07
2.52046e-07
2.11341e-07
1.7276e-07
1.37141e-07
1.04928e-07
7.61624e-08
5.04963e-08
2.72383e-08
5.42035e-09
1.86722e-10
1.84753e-10
5.36408e-09
2.69671e-08
5.00098e-08
7.546e-08
1.04015e-07
1.36036e-07
1.71495e-07
2.09959e-07
2.50603e-07
2.92261e-07
3.33495e-07
3.72635e-07
4.07893e-07
4.3752e-07
4.5997e-07
4.74026e-07
4.78915e-07
4.74363e-07
4.60626e-07
4.38463e-07
4.09075e-07
3.74e-07
3.34976e-07
2.93793e-07
2.52122e-07
2.11404e-07
1.72812e-07
1.37181e-07
1.04959e-07
7.61847e-08
5.0511e-08
2.72462e-08
5.4219e-09
1.86775e-10
1.8477e-10
5.36458e-09
2.69696e-08
5.00146e-08
7.54672e-08
1.04026e-07
1.36049e-07
1.71512e-07
2.0998e-07
2.50628e-07
2.9229e-07
3.33528e-07
3.72672e-07
4.07933e-07
4.37564e-07
4.60015e-07
4.74074e-07
4.78963e-07
4.7441e-07
4.60672e-07
4.38507e-07
4.09116e-07
3.74036e-07
3.35009e-07
2.93822e-07
2.52146e-07
2.11424e-07
1.72828e-07
1.37195e-07
1.04969e-07
7.6192e-08
5.05158e-08
2.72488e-08
5.42241e-09
1.86792e-10
1.84775e-10
5.36474e-09
2.69704e-08
5.0016e-08
7.54694e-08
1.04029e-07
1.36053e-07
1.71517e-07
2.09986e-07
2.50635e-07
2.92299e-07
3.33538e-07
3.72684e-07
4.07946e-07
4.37577e-07
4.60029e-07
4.74088e-07
4.78977e-07
4.74425e-07
4.60686e-07
4.3852e-07
4.09128e-07
3.74048e-07
3.35019e-07
2.93831e-07
2.52154e-07
2.11431e-07
1.72833e-07
1.37199e-07
1.04972e-07
7.61942e-08
5.05172e-08
2.72495e-08
5.42256e-09
1.86797e-10
1.84776e-10
5.36478e-09
2.69707e-08
5.00165e-08
7.54701e-08
1.04029e-07
1.36054e-07
1.71518e-07
2.09988e-07
2.50637e-07
2.92301e-07
3.33541e-07
3.72687e-07
4.07949e-07
4.37581e-07
4.60033e-07
4.74092e-07
4.78981e-07
4.74429e-07
4.6069e-07
4.38524e-07
4.09132e-07
3.74051e-07
3.35022e-07
2.93834e-07
2.52156e-07
2.11433e-07
1.72835e-07
1.372e-07
1.04973e-07
7.61948e-08
5.05177e-08
2.72498e-08
5.42261e-09
1.86799e-10
1.84777e-10
5.36479e-09
2.69707e-08
5.00166e-08
7.54703e-08
1.0403e-07
1.36055e-07
1.71519e-07
2.09988e-07
2.50638e-07
2.92302e-07
3.33541e-07
3.72688e-07
4.0795e-07
4.37582e-07
4.60035e-07
4.74093e-07
4.78983e-07
4.7443e-07
4.60691e-07
4.38525e-07
4.09133e-07
3.74052e-07
3.35023e-07
2.93834e-07
2.52157e-07
2.11433e-07
1.72835e-07
1.372e-07
1.04973e-07
7.6195e-08
5.05178e-08
2.72498e-08
5.42262e-09
1.86799e-10
1.84777e-10
5.3648e-09
2.69707e-08
5.00166e-08
7.54703e-08
1.0403e-07
1.36055e-07
1.71519e-07
2.09989e-07
2.50638e-07
2.92302e-07
3.33542e-07
3.72688e-07
4.07951e-07
4.37582e-07
4.60035e-07
4.74094e-07
4.78983e-07
4.7443e-07
4.60691e-07
4.38525e-07
4.09133e-07
3.74052e-07
3.35023e-07
2.93835e-07
2.52157e-07
2.11433e-07
1.72835e-07
1.372e-07
1.04973e-07
7.61951e-08
5.05178e-08
2.72498e-08
5.42262e-09
1.86799e-10
1.84777e-10
5.3648e-09
2.69707e-08
5.00166e-08
7.54703e-08
1.0403e-07
1.36055e-07
1.71519e-07
2.09989e-07
2.50638e-07
2.92302e-07
3.33542e-07
3.72688e-07
4.07951e-07
4.37582e-07
4.60035e-07
4.74094e-07
4.78983e-07
4.7443e-07
4.60691e-07
4.38525e-07
4.09133e-07
3.74052e-07
3.35023e-07
2.93835e-07
2.52157e-07
2.11433e-07
1.72836e-07
1.372e-07
1.04973e-07
7.61951e-08
5.05178e-08
2.72499e-08
5.42262e-09
1.86799e-10
1.84777e-10
5.3648e-09
2.69707e-08
5.00166e-08
7.54703e-08
1.0403e-07
1.36055e-07
1.71519e-07
2.09989e-07
2.50638e-07
2.92302e-07
3.33542e-07
3.72688e-07
4.07951e-07
4.37582e-07
4.60035e-07
4.74094e-07
4.78983e-07
4.7443e-07
4.60691e-07
4.38525e-07
4.09133e-07
3.74052e-07
3.35023e-07
2.93835e-07
2.52157e-07
2.11433e-07
1.72836e-07
1.372e-07
1.04973e-07
7.61951e-08
5.05178e-08
2.72499e-08
5.42262e-09
1.86799e-10
1.84777e-10
5.3648e-09
2.69707e-08
5.00166e-08
7.54703e-08
1.0403e-07
1.36055e-07
1.71519e-07
2.09989e-07
2.50638e-07
2.92302e-07
3.33542e-07
3.72688e-07
4.07951e-07
4.37582e-07
4.60035e-07
4.74094e-07
4.78983e-07
4.7443e-07
4.60691e-07
4.38525e-07
4.09133e-07
3.74052e-07
3.35023e-07
2.93835e-07
2.52157e-07
2.11433e-07
1.72836e-07
1.372e-07
1.04973e-07
7.61951e-08
5.05178e-08
2.72499e-08
5.42262e-09
1.86799e-10
1.84777e-10
5.3648e-09
2.69707e-08
5.00166e-08
7.54703e-08
1.0403e-07
1.36055e-07
1.71519e-07
2.09989e-07
2.50638e-07
2.92302e-07
3.33542e-07
3.72688e-07
4.07951e-07
4.37582e-07
4.60035e-07
4.74094e-07
4.78983e-07
4.74431e-07
4.60691e-07
4.38525e-07
4.09133e-07
3.74052e-07
3.35023e-07
2.93835e-07
2.52157e-07
2.11433e-07
1.72836e-07
1.372e-07
1.04973e-07
7.61951e-08
5.05178e-08
2.72499e-08
5.42262e-09
1.86799e-10
1.84777e-10
5.3648e-09
2.69707e-08
5.00166e-08
7.54703e-08
1.0403e-07
1.36055e-07
1.71519e-07
2.09989e-07
2.50638e-07
2.92302e-07
3.33542e-07
3.72688e-07
4.07951e-07
4.37582e-07
4.60035e-07
4.74094e-07
4.78983e-07
4.74431e-07
4.60691e-07
4.38525e-07
4.09133e-07
3.74052e-07
3.35023e-07
2.93835e-07
2.52157e-07
2.11433e-07
1.72836e-07
1.372e-07
1.04973e-07
7.61951e-08
5.05178e-08
2.72499e-08
5.42262e-09
1.86799e-10
1.84777e-10
5.3648e-09
2.69707e-08
5.00166e-08
7.54703e-08
1.0403e-07
1.36055e-07
1.71519e-07
2.09989e-07
2.50638e-07
2.92302e-07
3.33542e-07
3.72688e-07
4.07951e-07
4.37582e-07
4.60035e-07
4.74094e-07
4.78983e-07
4.74431e-07
4.60691e-07
4.38525e-07
4.09133e-07
3.74052e-07
3.35023e-07
2.93835e-07
2.52157e-07
2.11433e-07
1.72836e-07
1.372e-07
1.04973e-07
7.61951e-08
5.05178e-08
2.72499e-08
5.42262e-09
1.86799e-10
1.84777e-10
5.3648e-09
2.69707e-08
5.00166e-08
7.54703e-08
1.0403e-07
1.36055e-07
1.71519e-07
2.09989e-07
2.50638e-07
2.92302e-07
3.33542e-07
3.72688e-07
4.07951e-07
4.37582e-07
4.60035e-07
4.74094e-07
4.78983e-07
4.74431e-07
4.60691e-07
4.38525e-07
4.09133e-07
3.74052e-07
3.35023e-07
2.93835e-07
2.52157e-07
2.11433e-07
1.72836e-07
1.372e-07
1.04973e-07
7.61951e-08
5.05178e-08
2.72499e-08
5.42262e-09
1.86799e-10
1.84777e-10
5.3648e-09
2.69707e-08
5.00166e-08
7.54703e-08
1.0403e-07
1.36055e-07
1.71519e-07
2.09989e-07
2.50638e-07
2.92302e-07
3.33542e-07
3.72688e-07
4.07951e-07
4.37582e-07
4.60035e-07
4.74094e-07
4.78983e-07
4.74431e-07
4.60691e-07
4.38525e-07
4.09133e-07
3.74052e-07
3.35023e-07
2.93835e-07
2.52157e-07
2.11433e-07
1.72836e-07
1.372e-07
1.04973e-07
7.61951e-08
5.05178e-08
2.72499e-08
5.42262e-09
1.86799e-10
1.84777e-10
5.3648e-09
2.69707e-08
5.00166e-08
7.54703e-08
1.0403e-07
1.36055e-07
1.71519e-07
2.09989e-07
2.50638e-07
2.92302e-07
3.33542e-07
3.72688e-07
4.07951e-07
4.37582e-07
4.60035e-07
4.74094e-07
4.78983e-07
4.74431e-07
4.60691e-07
4.38525e-07
4.09133e-07
3.74052e-07
3.35023e-07
2.93835e-07
2.52157e-07
2.11433e-07
1.72836e-07
1.372e-07
1.04973e-07
7.61951e-08
5.05178e-08
2.72499e-08
5.42262e-09
1.86799e-10
1.84777e-10
5.3648e-09
2.69707e-08
5.00166e-08
7.54703e-08
1.0403e-07
1.36055e-07
1.71519e-07
2.09989e-07
2.50638e-07
2.92302e-07
3.33542e-07
3.72688e-07
4.07951e-07
4.37582e-07
4.60035e-07
4.74094e-07
4.78983e-07
4.74431e-07
4.60691e-07
4.38525e-07
4.09133e-07
3.74052e-07
3.35023e-07
2.93835e-07
2.52157e-07
2.11433e-07
1.72836e-07
1.372e-07
1.04973e-07
7.61951e-08
5.05178e-08
2.72499e-08
5.42262e-09
1.86799e-10
1.84777e-10
5.3648e-09
2.69707e-08
5.00166e-08
7.54703e-08
1.0403e-07
1.36055e-07
1.71519e-07
2.09989e-07
2.50638e-07
2.92302e-07
3.33542e-07
3.72688e-07
4.07951e-07
4.37582e-07
4.60035e-07
4.74094e-07
4.78983e-07
4.74431e-07
4.60691e-07
4.38525e-07
4.09133e-07
3.74052e-07
3.35023e-07
2.93835e-07
2.52157e-07
2.11433e-07
1.72836e-07
1.372e-07
1.04973e-07
7.61951e-08
5.05178e-08
2.72499e-08
5.42262e-09
1.86799e-10
1.84777e-10
5.3648e-09
2.69707e-08
5.00166e-08
7.54703e-08
1.0403e-07
1.36055e-07
1.71519e-07
2.09989e-07
2.50638e-07
2.92302e-07
3.33542e-07
3.72688e-07
4.07951e-07
4.37582e-07
4.60035e-07
4.74094e-07
4.78983e-07
4.74431e-07
4.60691e-07
4.38525e-07
4.09133e-07
3.74052e-07
3.35023e-07
2.93835e-07
2.52157e-07
2.11433e-07
1.72836e-07
1.372e-07
1.04973e-07
7.61951e-08
5.05178e-08
2.72499e-08
5.42262e-09
1.86799e-10
1.84777e-10
5.3648e-09
2.69707e-08
5.00166e-08
7.54703e-08
1.0403e-07
1.36055e-07
1.71519e-07
2.09989e-07
2.50638e-07
2.92302e-07
3.33542e-07
3.72688e-07
4.07951e-07
4.37582e-07
4.60035e-07
4.74094e-07
4.78983e-07
4.74431e-07
4.60691e-07
4.38525e-07
4.09133e-07
3.74052e-07
3.35023e-07
2.93835e-07
2.52157e-07
2.11433e-07
1.72836e-07
1.372e-07
1.04973e-07
7.61951e-08
5.05178e-08
2.72499e-08
5.42262e-09
1.86799e-10
1.84777e-10
5.3648e-09
2.69707e-08
5.00166e-08
7.54703e-08
1.0403e-07
1.36055e-07
1.71519e-07
2.09989e-07
2.50638e-07
2.92302e-07
3.33542e-07
3.72688e-07
4.07951e-07
4.37582e-07
4.60035e-07
4.74094e-07
4.78983e-07
4.74431e-07
4.60691e-07
4.38525e-07
4.09133e-07
3.74052e-07
3.35023e-07
2.93835e-07
2.52157e-07
2.11433e-07
1.72836e-07
1.372e-07
1.04973e-07
7.61951e-08
5.05178e-08
2.72499e-08
5.42262e-09
1.86799e-10
1.84777e-10
5.3648e-09
2.69707e-08
5.00166e-08
7.54703e-08
1.0403e-07
1.36055e-07
1.71519e-07
2.09989e-07
2.50638e-07
2.92302e-07
3.33542e-07
3.72688e-07
4.07951e-07
4.37582e-07
4.60035e-07
4.74094e-07
4.78983e-07
4.74431e-07
4.60691e-07
4.38525e-07
4.09133e-07
3.74052e-07
3.35023e-07
2.93835e-07
2.52157e-07
2.11433e-07
1.72836e-07
1.372e-07
1.04973e-07
7.61951e-08
5.05178e-08
2.72499e-08
5.42262e-09
1.86799e-10
1.84777e-10
5.3648e-09
2.69707e-08
5.00166e-08
7.54703e-08
1.0403e-07
1.36055e-07
1.71519e-07
2.09989e-07
2.50638e-07
2.92302e-07
3.33542e-07
3.72688e-07
4.07951e-07
4.37582e-07
4.60035e-07
4.74094e-07
4.78983e-07
4.74431e-07
4.60691e-07
4.38525e-07
4.09133e-07
3.74052e-07
3.35023e-07
2.93835e-07
2.52157e-07
2.11433e-07
1.72836e-07
1.372e-07
1.04973e-07
7.61951e-08
5.05178e-08
2.72499e-08
5.42262e-09
1.86799e-10
1.84777e-10
5.3648e-09
2.69707e-08
5.00166e-08
7.54703e-08
1.0403e-07
1.36055e-07
1.71519e-07
2.09989e-07
2.50638e-07
2.92302e-07
3.33542e-07
3.72688e-07
4.07951e-07
4.37582e-07
4.60035e-07
4.74094e-07
4.78983e-07
4.74431e-07
4.60691e-07
4.38525e-07
4.09133e-07
3.74052e-07
3.35023e-07
2.93835e-07
2.52157e-07
2.11433e-07
1.72836e-07
1.372e-07
1.04973e-07
7.61951e-08
5.05178e-08
2.72499e-08
5.42262e-09
1.86799e-10
1.84777e-10
5.3648e-09
2.69707e-08
5.00166e-08
7.54703e-08
1.0403e-07
1.36055e-07
1.71519e-07
2.09989e-07
2.50638e-07
2.92302e-07
3.33542e-07
3.72688e-07
4.07951e-07
4.37582e-07
4.60035e-07
4.74094e-07
4.78983e-07
4.74431e-07
4.60691e-07
4.38525e-07
4.09133e-07
3.74052e-07
3.35023e-07
2.93835e-07
2.52157e-07
2.11433e-07
1.72836e-07
1.372e-07
1.04973e-07
7.61951e-08
5.05178e-08
2.72499e-08
5.42262e-09
1.86799e-10
1.84777e-10
5.3648e-09
2.69707e-08
5.00166e-08
7.54703e-08
1.0403e-07
1.36055e-07
1.71519e-07
2.09989e-07
2.50638e-07
2.92302e-07
3.33542e-07
3.72688e-07
4.07951e-07
4.37582e-07
4.60035e-07
4.74094e-07
4.78983e-07
4.74431e-07
4.60691e-07
4.38525e-07
4.09133e-07
3.74052e-07
3.35023e-07
2.93835e-07
2.52157e-07
2.11433e-07
1.72836e-07
1.372e-07
1.04973e-07
7.61951e-08
5.05178e-08
2.72499e-08
5.42262e-09
1.86799e-10
1.84777e-10
5.3648e-09
2.69707e-08
5.00166e-08
7.54703e-08
1.0403e-07
1.36055e-07
1.71519e-07
2.09989e-07
2.50638e-07
2.92302e-07
3.33542e-07
3.72688e-07
4.07951e-07
4.37582e-07
4.60035e-07
4.74094e-07
4.78983e-07
4.74431e-07
4.60691e-07
4.38525e-07
4.09133e-07
3.74052e-07
3.35023e-07
2.93835e-07
2.52157e-07
2.11433e-07
1.72836e-07
1.372e-07
1.04973e-07
7.61951e-08
5.05178e-08
2.72499e-08
5.42262e-09
1.86799e-10
1.84777e-10
5.3648e-09
2.69707e-08
5.00166e-08
7.54703e-08
1.0403e-07
1.36055e-07
1.71519e-07
2.09989e-07
2.50638e-07
2.92302e-07
3.33542e-07
3.72688e-07
4.07951e-07
4.37582e-07
4.60035e-07
4.74094e-07
4.78983e-07
4.74431e-07
4.60691e-07
4.38525e-07
4.09133e-07
3.74052e-07
3.35023e-07
2.93835e-07
2.52157e-07
2.11433e-07
1.72836e-07
1.372e-07
1.04973e-07
7.61951e-08
5.05178e-08
2.72499e-08
5.42262e-09
1.86799e-10
1.84777e-10
5.3648e-09
2.69707e-08
5.00166e-08
7.54703e-08
1.0403e-07
1.36055e-07
1.71519e-07
2.09989e-07
2.50638e-07
2.92302e-07
3.33542e-07
3.72688e-07
4.07951e-07
4.37582e-07
4.60035e-07
4.74094e-07
4.78983e-07
4.74431e-07
4.60691e-07
4.38525e-07
4.09133e-07
3.74052e-07
3.35023e-07
2.93835e-07
2.52157e-07
2.11433e-07
1.72836e-07
1.372e-07
1.04973e-07
7.61951e-08
5.05178e-08
2.72499e-08
5.42262e-09
1.86799e-10
1.84777e-10
5.3648e-09
2.69707e-08
5.00166e-08
7.54703e-08
1.0403e-07
1.36055e-07
1.71519e-07
2.09989e-07
2.50638e-07
2.92302e-07
3.33542e-07
3.72688e-07
4.07951e-07
4.37582e-07
4.60035e-07
4.74094e-07
4.78983e-07
4.74431e-07
4.60691e-07
4.38525e-07
4.09133e-07
3.74052e-07
3.35023e-07
2.93835e-07
2.52157e-07
2.11433e-07
1.72836e-07
1.372e-07
1.04973e-07
7.61951e-08
5.05178e-08
2.72499e-08
5.42262e-09
1.86799e-10
1.84777e-10
5.3648e-09
2.69707e-08
5.00166e-08
7.54703e-08
1.0403e-07
1.36055e-07
1.71519e-07
2.09989e-07
2.50638e-07
2.92302e-07
3.33542e-07
3.72688e-07
4.07951e-07
4.37582e-07
4.60035e-07
4.74094e-07
4.78983e-07
4.74431e-07
4.60691e-07
4.38525e-07
4.09133e-07
3.74052e-07
3.35023e-07
2.93835e-07
2.52157e-07
2.11433e-07
1.72836e-07
1.372e-07
1.04973e-07
7.61951e-08
5.05178e-08
2.72499e-08
5.42262e-09
1.86799e-10
1.84777e-10
5.3648e-09
2.69707e-08
5.00166e-08
7.54703e-08
1.0403e-07
1.36055e-07
1.71519e-07
2.09989e-07
2.50638e-07
2.92302e-07
3.33542e-07
3.72688e-07
4.07951e-07
4.37582e-07
4.60035e-07
4.74094e-07
4.78983e-07
4.74431e-07
4.60691e-07
4.38525e-07
4.09133e-07
3.74052e-07
3.35023e-07
2.93835e-07
2.52157e-07
2.11433e-07
1.72836e-07
1.372e-07
1.04973e-07
7.61951e-08
5.05178e-08
2.72499e-08
5.42262e-09
1.86799e-10
1.84777e-10
5.3648e-09
2.69707e-08
5.00166e-08
7.54703e-08
1.0403e-07
1.36055e-07
1.71519e-07
2.09989e-07
2.50638e-07
2.92302e-07
3.33542e-07
3.72688e-07
4.07951e-07
4.37582e-07
4.60035e-07
4.74094e-07
4.78983e-07
4.74431e-07
4.60691e-07
4.38525e-07
4.09133e-07
3.74052e-07
3.35023e-07
2.93835e-07
2.52157e-07
2.11433e-07
1.72836e-07
1.372e-07
1.04973e-07
7.61951e-08
5.05178e-08
2.72499e-08
5.42262e-09
1.86799e-10
1.84777e-10
5.3648e-09
2.69707e-08
5.00166e-08
7.54703e-08
1.0403e-07
1.36055e-07
1.71519e-07
2.09989e-07
2.50638e-07
2.92302e-07
3.33542e-07
3.72688e-07
4.07951e-07
4.37582e-07
4.60035e-07
4.74094e-07
4.78983e-07
4.74431e-07
4.60691e-07
4.38525e-07
4.09133e-07
3.74052e-07
3.35023e-07
2.93835e-07
2.52157e-07
2.11433e-07
1.72836e-07
1.372e-07
1.04973e-07
7.61951e-08
5.05178e-08
2.72499e-08
5.42262e-09
1.86799e-10
1.84777e-10
5.3648e-09
2.69707e-08
5.00166e-08
7.54703e-08
1.0403e-07
1.36055e-07
1.71519e-07
2.09989e-07
2.50638e-07
2.92302e-07
3.33542e-07
3.72688e-07
4.07951e-07
4.37582e-07
4.60035e-07
4.74094e-07
4.78983e-07
4.74431e-07
4.60691e-07
4.38525e-07
4.09133e-07
3.74052e-07
3.35023e-07
2.93835e-07
2.52157e-07
2.11433e-07
1.72836e-07
1.372e-07
1.04973e-07
7.61951e-08
5.05178e-08
2.72499e-08
5.42262e-09
1.86799e-10
1.84777e-10
5.3648e-09
2.69707e-08
5.00166e-08
7.54703e-08
1.0403e-07
1.36055e-07
1.71519e-07
2.09989e-07
2.50638e-07
2.92302e-07
3.33542e-07
3.72688e-07
4.07951e-07
4.37582e-07
4.60035e-07
4.74094e-07
4.78983e-07
4.74431e-07
4.60691e-07
4.38525e-07
4.09133e-07
3.74052e-07
3.35023e-07
2.93835e-07
2.52157e-07
2.11433e-07
1.72836e-07
1.372e-07
1.04973e-07
7.61951e-08
5.05178e-08
2.72499e-08
5.42262e-09
1.86799e-10
1.84777e-10
5.3648e-09
2.69707e-08
5.00166e-08
7.54703e-08
1.0403e-07
1.36055e-07
1.71519e-07
2.09989e-07
2.50638e-07
2.92302e-07
3.33542e-07
3.72688e-07
4.07951e-07
4.37582e-07
4.60035e-07
4.74094e-07
4.78983e-07
4.74431e-07
4.60691e-07
4.38525e-07
4.09133e-07
3.74052e-07
3.35023e-07
2.93835e-07
2.52157e-07
2.11433e-07
1.72836e-07
1.372e-07
1.04973e-07
7.61951e-08
5.05178e-08
2.72499e-08
5.42262e-09
1.86799e-10
1.84777e-10
5.3648e-09
2.69707e-08
5.00166e-08
7.54703e-08
1.0403e-07
1.36055e-07
1.71519e-07
2.09989e-07
2.50638e-07
2.92302e-07
3.33542e-07
3.72688e-07
4.07951e-07
4.37582e-07
4.60035e-07
4.74094e-07
4.78983e-07
4.74431e-07
4.60691e-07
4.38525e-07
4.09133e-07
3.74052e-07
3.35023e-07
2.93835e-07
2.52157e-07
2.11433e-07
1.72836e-07
1.372e-07
1.04973e-07
7.61951e-08
5.05178e-08
2.72499e-08
5.42262e-09
1.86799e-10
1.84777e-10
5.3648e-09
2.69707e-08
5.00166e-08
7.54703e-08
1.0403e-07
1.36055e-07
1.71519e-07
2.09989e-07
2.50638e-07
2.92302e-07
3.33542e-07
3.72688e-07
4.07951e-07
4.37582e-07
4.60035e-07
4.74094e-07
4.78983e-07
4.74431e-07
4.60691e-07
4.38525e-07
4.09133e-07
3.74052e-07
3.35023e-07
2.93835e-07
2.52157e-07
2.11433e-07
1.72836e-07
1.372e-07
1.04973e-07
7.61951e-08
5.05178e-08
2.72499e-08
5.42262e-09
1.86799e-10
1.84777e-10
5.3648e-09
2.69707e-08
5.00166e-08
7.54703e-08
1.0403e-07
1.36055e-07
1.71519e-07
2.09989e-07
2.50638e-07
2.92302e-07
3.33542e-07
3.72688e-07
4.07951e-07
4.37582e-07
4.60035e-07
4.74094e-07
4.78983e-07
4.74431e-07
4.60691e-07
4.38525e-07
4.09133e-07
3.74052e-07
3.35023e-07
2.93835e-07
2.52157e-07
2.11433e-07
1.72836e-07
1.372e-07
1.04973e-07
7.61951e-08
5.05178e-08
2.72499e-08
5.42262e-09
1.86799e-10
1.84777e-10
5.3648e-09
2.69707e-08
5.00166e-08
7.54703e-08
1.0403e-07
1.36055e-07
1.71519e-07
2.09989e-07
2.50638e-07
2.92302e-07
3.33542e-07
3.72688e-07
4.07951e-07
4.37582e-07
4.60035e-07
4.74094e-07
4.78983e-07
4.74431e-07
4.60691e-07
4.38525e-07
4.09133e-07
3.74052e-07
3.35023e-07
2.93835e-07
2.52157e-07
2.11433e-07
1.72836e-07
1.372e-07
1.04973e-07
7.61951e-08
5.05178e-08
2.72499e-08
5.42262e-09
1.86799e-10
1.84777e-10
5.3648e-09
2.69707e-08
5.00166e-08
7.54703e-08
1.0403e-07
1.36055e-07
1.71519e-07
2.09989e-07
2.50638e-07
2.92302e-07
3.33542e-07
3.72688e-07
4.07951e-07
4.37582e-07
4.60035e-07
4.74094e-07
4.78983e-07
4.74431e-07
4.60691e-07
4.38525e-07
4.09133e-07
3.74052e-07
3.35023e-07
2.93835e-07
2.52157e-07
2.11433e-07
1.72836e-07
1.372e-07
1.04973e-07
7.61951e-08
5.05178e-08
2.72499e-08
5.42262e-09
1.86799e-10
1.84777e-10
5.3648e-09
2.69707e-08
5.00166e-08
7.54703e-08
1.0403e-07
1.36055e-07
1.71519e-07
2.09989e-07
2.50638e-07
2.92302e-07
3.33542e-07
3.72688e-07
4.07951e-07
4.37582e-07
4.60035e-07
4.74094e-07
4.78983e-07
4.74431e-07
4.60691e-07
4.38525e-07
4.09133e-07
3.74052e-07
3.35023e-07
2.93835e-07
2.52157e-07
2.11433e-07
1.72836e-07
1.372e-07
1.04973e-07
7.61951e-08
5.05178e-08
2.72499e-08
5.42262e-09
1.86799e-10
1.84777e-10
5.3648e-09
2.69707e-08
5.00166e-08
7.54703e-08
1.0403e-07
1.36055e-07
1.71519e-07
2.09989e-07
2.50638e-07
2.92302e-07
3.33542e-07
3.72688e-07
4.07951e-07
4.37582e-07
4.60035e-07
4.74094e-07
4.78983e-07
4.74431e-07
4.60691e-07
4.38525e-07
4.09133e-07
3.74052e-07
3.35023e-07
2.93835e-07
2.52157e-07
2.11433e-07
1.72836e-07
1.372e-07
1.04973e-07
7.61951e-08
5.05178e-08
2.72499e-08
5.42262e-09
1.86799e-10
1.84777e-10
5.3648e-09
2.69707e-08
5.00166e-08
7.54703e-08
1.0403e-07
1.36055e-07
1.71519e-07
2.09989e-07
2.50638e-07
2.92302e-07
3.33542e-07
3.72688e-07
4.07951e-07
4.37582e-07
4.60035e-07
4.74094e-07
4.78983e-07
4.74431e-07
4.60691e-07
4.38525e-07
4.09133e-07
3.74052e-07
3.35023e-07
2.93835e-07
2.52157e-07
2.11433e-07
1.72836e-07
1.372e-07
1.04973e-07
7.61951e-08
5.05178e-08
2.72499e-08
5.42262e-09
1.86799e-10
1.84777e-10
5.3648e-09
2.69707e-08
5.00166e-08
7.54703e-08
1.0403e-07
1.36055e-07
1.71519e-07
2.09989e-07
2.50638e-07
2.92302e-07
3.33542e-07
3.72688e-07
4.07951e-07
4.37582e-07
4.60035e-07
4.74094e-07
4.78983e-07
4.74431e-07
4.60691e-07
4.38525e-07
4.09133e-07
3.74052e-07
3.35023e-07
2.93835e-07
2.52157e-07
2.11433e-07
1.72836e-07
1.372e-07
1.04973e-07
7.61951e-08
5.05178e-08
2.72499e-08
5.42262e-09
1.86799e-10
1.84777e-10
5.3648e-09
2.69707e-08
5.00166e-08
7.54703e-08
1.0403e-07
1.36055e-07
1.71519e-07
2.09989e-07
2.50638e-07
2.92302e-07
3.33542e-07
3.72688e-07
4.07951e-07
4.37582e-07
4.60035e-07
4.74094e-07
4.78983e-07
4.74431e-07
4.60691e-07
4.38525e-07
4.09133e-07
3.74052e-07
3.35023e-07
2.93835e-07
2.52157e-07
2.11433e-07
1.72836e-07
1.372e-07
1.04973e-07
7.61951e-08
5.05178e-08
2.72499e-08
5.42262e-09
1.86799e-10
1.84777e-10
5.3648e-09
2.69707e-08
5.00166e-08
7.54703e-08
1.0403e-07
1.36055e-07
1.71519e-07
2.09989e-07
2.50638e-07
2.92302e-07
3.33542e-07
3.72688e-07
4.07951e-07
4.37582e-07
4.60035e-07
4.74094e-07
4.78983e-07
4.74431e-07
4.60691e-07
4.38525e-07
4.09133e-07
3.74052e-07
3.35023e-07
2.93835e-07
2.52157e-07
2.11433e-07
1.72836e-07
1.372e-07
1.04973e-07
7.61951e-08
5.05178e-08
2.72499e-08
5.42262e-09
1.86799e-10
1.84777e-10
5.3648e-09
2.69707e-08
5.00166e-08
7.54703e-08
1.0403e-07
1.36055e-07
1.71519e-07
2.09989e-07
2.50638e-07
2.92302e-07
3.33542e-07
3.72688e-07
4.07951e-07
4.37582e-07
4.60035e-07
4.74094e-07
4.78983e-07
4.74431e-07
4.60691e-07
4.38525e-07
4.09133e-07
3.74052e-07
3.35023e-07
2.93835e-07
2.52157e-07
2.11433e-07
1.72836e-07
1.372e-07
1.04973e-07
7.61951e-08
5.05178e-08
2.72499e-08
5.42262e-09
1.86799e-10
1.84777e-10
5.3648e-09
2.69707e-08
5.00166e-08
7.54703e-08
1.0403e-07
1.36055e-07
1.71519e-07
2.09989e-07
2.50638e-07
2.92302e-07
3.33542e-07
3.72688e-07
4.07951e-07
4.37582e-07
4.60035e-07
4.74094e-07
4.78983e-07
4.74431e-07
4.60691e-07
4.38525e-07
4.09133e-07
3.74052e-07
3.35023e-07
2.93835e-07
2.52157e-07
2.11433e-07
1.72836e-07
1.372e-07
1.04973e-07
7.61951e-08
5.05178e-08
2.72499e-08
5.42262e-09
1.86799e-10
1.84777e-10
5.3648e-09
2.69707e-08
5.00166e-08
7.54703e-08
1.0403e-07
1.36055e-07
1.71519e-07
2.09989e-07
2.50638e-07
2.92302e-07
3.33542e-07
3.72688e-07
4.07951e-07
4.37582e-07
4.60035e-07
4.74094e-07
4.78983e-07
4.74431e-07
4.60691e-07
4.38525e-07
4.09133e-07
3.74052e-07
3.35023e-07
2.93835e-07
2.52157e-07
2.11433e-07
1.72836e-07
1.372e-07
1.04973e-07
7.61951e-08
5.05178e-08
2.72499e-08
5.42262e-09
1.86799e-10
1.84777e-10
5.3648e-09
2.69707e-08
5.00166e-08
7.54703e-08
1.0403e-07
1.36055e-07
1.71519e-07
2.09989e-07
2.50638e-07
2.92302e-07
3.33542e-07
3.72688e-07
4.07951e-07
4.37582e-07
4.60035e-07
4.74094e-07
4.78983e-07
4.74431e-07
4.60691e-07
4.38525e-07
4.09133e-07
3.74052e-07
3.35023e-07
2.93835e-07
2.52157e-07
2.11433e-07
1.72836e-07
1.372e-07
1.04973e-07
7.61951e-08
5.05178e-08
2.72499e-08
5.42262e-09
1.86799e-10
1.84777e-10
5.3648e-09
2.69707e-08
5.00166e-08
7.54703e-08
1.0403e-07
1.36055e-07
1.71519e-07
2.09989e-07
2.50638e-07
2.92302e-07
3.33542e-07
3.72688e-07
4.07951e-07
4.37582e-07
4.60035e-07
4.74094e-07
4.78983e-07
4.74431e-07
4.60691e-07
4.38525e-07
4.09133e-07
3.74052e-07
3.35023e-07
2.93835e-07
2.52157e-07
2.11433e-07
1.72836e-07
1.372e-07
1.04973e-07
7.61951e-08
5.05178e-08
2.72499e-08
5.42262e-09
1.86799e-10
1.84777e-10
5.3648e-09
2.69707e-08
5.00166e-08
7.54703e-08
1.0403e-07
1.36055e-07
1.71519e-07
2.09989e-07
2.50638e-07
2.92302e-07
3.33542e-07
3.72688e-07
4.07951e-07
4.37582e-07
4.60035e-07
4.74094e-07
4.78983e-07
4.74431e-07
4.60691e-07
4.38525e-07
4.09133e-07
3.74052e-07
3.35023e-07
2.93835e-07
2.52157e-07
2.11433e-07
1.72836e-07
1.372e-07
1.04973e-07
7.61951e-08
5.05178e-08
2.72499e-08
5.42262e-09
1.86799e-10
1.84777e-10
5.3648e-09
2.69707e-08
5.00166e-08
7.54703e-08
1.0403e-07
1.36055e-07
1.71519e-07
2.09989e-07
2.50638e-07
2.92302e-07
3.33542e-07
3.72688e-07
4.07951e-07
4.37582e-07
4.60035e-07
4.74094e-07
4.78983e-07
4.74431e-07
4.60691e-07
4.38525e-07
4.09133e-07
3.74052e-07
3.35023e-07
2.93835e-07
2.52157e-07
2.11433e-07
1.72836e-07
1.372e-07
1.04973e-07
7.61951e-08
5.05178e-08
2.72499e-08
5.42262e-09
1.86799e-10
1.84777e-10
5.3648e-09
2.69707e-08
5.00166e-08
7.54703e-08
1.0403e-07
1.36055e-07
1.71519e-07
2.09989e-07
2.50638e-07
2.92302e-07
3.33542e-07
3.72688e-07
4.07951e-07
4.37582e-07
4.60035e-07
4.74094e-07
4.78983e-07
4.74431e-07
4.60691e-07
4.38525e-07
4.09133e-07
3.74052e-07
3.35023e-07
2.93835e-07
2.52157e-07
2.11433e-07
1.72836e-07
1.372e-07
1.04973e-07
7.61951e-08
5.05178e-08
2.72499e-08
5.42262e-09
1.86799e-10
1.84777e-10
5.3648e-09
2.69707e-08
5.00166e-08
7.54703e-08
1.0403e-07
1.36055e-07
1.71519e-07
2.09989e-07
2.50638e-07
2.92302e-07
3.33542e-07
3.72688e-07
4.07951e-07
4.37582e-07
4.60035e-07
4.74094e-07
4.78983e-07
4.74431e-07
4.60691e-07
4.38525e-07
4.09133e-07
3.74052e-07
3.35023e-07
2.93835e-07
2.52157e-07
2.11433e-07
1.72836e-07
1.372e-07
1.04973e-07
7.61951e-08
5.05178e-08
2.72499e-08
5.42262e-09
1.86799e-10
1.84777e-10
5.3648e-09
2.69707e-08
5.00166e-08
7.54703e-08
1.0403e-07
1.36055e-07
1.71519e-07
2.09989e-07
2.50638e-07
2.92302e-07
3.33542e-07
3.72688e-07
4.07951e-07
4.37582e-07
4.60035e-07
4.74094e-07
4.78983e-07