/*--------------------------------*- C++ -*----------------------------------*\
  =========                 |
  \\      /  F ield         | OpenFOAM: The Open Source CFD Toolbox
   \\    /   O peration     | Website:  https://openfoam.org
    \\  /    A nd           | Version:  13
     \\/     M anipulation  |
\*---------------------------------------------------------------------------*/
FoamFile
{
    format      ascii;
    class       volScalarField;
    location    "100";
    object      rhok;
}
// * * * * * * * * * * * * * * * * * * * * * * * * * * * * * * * * * * * * * //

dimensions      [];

internalField   nonuniform List<scalar> 
315000
(
0.444606
0.428978
0.414094
0.412655
0.411892
0.411122
0.410346
0.409564
0.408778
0.407988
0.407198
0.406407
0.405618
0.404831
0.404047
0.403267
0.402491
0.401719
0.400952
0.40019
0.399434
0.398683
0.397937
0.397198
0.396464
0.395737
0.395016
0.394301
0.393593
0.392892
0.392198
0.391511
0.390831
0.390159
0.389494
0.388836
0.388186
0.387544
0.386909
0.386281
0.385661
0.385049
0.384444
0.383846
0.383255
0.382672
0.382096
0.381526
0.380963
0.380406
0.379856
0.379312
0.378773
0.378241
0.377713
0.377191
0.376673
0.37616
0.375651
0.375146
0.374645
0.374147
0.373652
0.37316
0.372669
0.372181
0.371695
0.371209
0.370725
0.370241
0.444615
0.429349
0.414061
0.412591
0.411818
0.411041
0.410263
0.409483
0.408701
0.407918
0.407135
0.406353
0.405571
0.404791
0.404014
0.403239
0.402468
0.4017
0.400936
0.400177
0.399422
0.398672
0.397928
0.397189
0.396455
0.395728
0.395007
0.394293
0.393585
0.392884
0.39219
0.391503
0.390823
0.39015
0.389485
0.388828
0.388178
0.387535
0.3869
0.386273
0.385653
0.385041
0.384436
0.383839
0.383248
0.382665
0.382089
0.381519
0.380956
0.3804
0.37985
0.379306
0.378768
0.378235
0.377708
0.377186
0.376669
0.376156
0.375647
0.375143
0.374642
0.374144
0.373649
0.373157
0.372668
0.37218
0.371694
0.371209
0.370725
0.370241
0.444614
0.429304
0.414008
0.412541
0.411768
0.410995
0.410219
0.409442
0.408665
0.407886
0.407107
0.406329
0.405551
0.404775
0.404
0.403227
0.402458
0.401691
0.400928
0.40017
0.399415
0.398666
0.397921
0.397182
0.396449
0.395722
0.395001
0.394286
0.393578
0.392877
0.392183
0.391496
0.390816
0.390144
0.389479
0.388821
0.388171
0.387529
0.386894
0.386267
0.385647
0.385035
0.38443
0.383832
0.383242
0.382659
0.382083
0.381514
0.380951
0.380395
0.379845
0.379301
0.378763
0.378231
0.377704
0.377182
0.376665
0.376153
0.375644
0.37514
0.374639
0.374142
0.373647
0.373156
0.372666
0.372179
0.371693
0.371208
0.370724
0.370241
0.444615
0.429346
0.414027
0.412555
0.411781
0.411005
0.410228
0.40945
0.408672
0.407892
0.407113
0.406333
0.405555
0.404778
0.404002
0.403229
0.402458
0.401691
0.400927
0.400168
0.399413
0.398663
0.397918
0.397178
0.396445
0.395717
0.394996
0.394281
0.393573
0.392872
0.392178
0.39149
0.390811
0.390138
0.389473
0.388816
0.388166
0.387523
0.386889
0.386262
0.385642
0.38503
0.384425
0.383828
0.383238
0.382655
0.382079
0.381509
0.380947
0.380391
0.379841
0.379298
0.37876
0.378228
0.377701
0.377179
0.376662
0.37615
0.375642
0.375138
0.374637
0.37414
0.373646
0.373154
0.372665
0.372178
0.371692
0.371207
0.370724
0.370241
0.444613
0.429242
0.414016
0.412555
0.411785
0.411013
0.410239
0.409463
0.408685
0.407906
0.407126
0.406346
0.405566
0.404787
0.40401
0.403235
0.402464
0.401695
0.40093
0.40017
0.399414
0.398663
0.397917
0.397177
0.396443
0.395715
0.394993
0.394278
0.39357
0.392868
0.392174
0.391487
0.390807
0.390134
0.389469
0.388812
0.388162
0.38752
0.386885
0.386258
0.385638
0.385026
0.384422
0.383824
0.383234
0.382651
0.382075
0.381506
0.380944
0.380388
0.379838
0.379295
0.378757
0.378225
0.377699
0.377177
0.37666
0.376148
0.37564
0.375136
0.374636
0.374139
0.373645
0.373153
0.372664
0.372177
0.371691
0.371207
0.370724
0.370241
0.444616
0.429359
0.414054
0.412582
0.411807
0.411031
0.410254
0.409475
0.408694
0.407913
0.407132
0.40635
0.405569
0.404789
0.404011
0.403236
0.402463
0.401694
0.400929
0.400168
0.399412
0.398661
0.397915
0.397175
0.396441
0.395712
0.394991
0.394276
0.393567
0.392866
0.392171
0.391484
0.390804
0.390132
0.389467
0.388809
0.388159
0.387517
0.386882
0.386255
0.385636
0.385024
0.384419
0.383822
0.383232
0.382649
0.382073
0.381504
0.380942
0.380386
0.379836
0.379293
0.378755
0.378223
0.377697
0.377175
0.376659
0.376147
0.375639
0.375135
0.374635
0.374138
0.373644
0.373152
0.372663
0.372176
0.371691
0.371207
0.370723
0.370241
0.444612
0.429219
0.414026
0.412568
0.411799
0.411027
0.410253
0.409477
0.408698
0.407917
0.407136
0.406354
0.405573
0.404793
0.404014
0.403238
0.402465
0.401695
0.400929
0.400168
0.399411
0.39866
0.397914
0.397174
0.396439
0.395711
0.394989
0.394274
0.393565
0.392864
0.39217
0.391482
0.390802
0.39013
0.389465
0.388807
0.388158
0.387515
0.386881
0.386253
0.385634
0.385022
0.384417
0.38382
0.38323
0.382647
0.382072
0.381503
0.38094
0.380385
0.379835
0.379292
0.378754
0.378222
0.377696
0.377174
0.376658
0.376146
0.375638
0.375134
0.374634
0.374137
0.373643
0.373152
0.372663
0.372176
0.371691
0.371206
0.370723
0.370241
0.444616
0.429359
0.414066
0.412594
0.41182
0.411044
0.410266
0.409485
0.408704
0.407921
0.407137
0.406354
0.405572
0.404791
0.404011
0.403235
0.402462
0.401692
0.400926
0.400165
0.399409
0.398658
0.397912
0.397172
0.396437
0.395709
0.394988
0.394273
0.393564
0.392863
0.392168
0.391481
0.390801
0.390129
0.389464
0.388806
0.388157
0.387514
0.38688
0.386253
0.385633
0.385021
0.384417
0.383819
0.383229
0.382647
0.382071
0.381502
0.38094
0.380384
0.379834
0.379291
0.378754
0.378222
0.377695
0.377174
0.376657
0.376145
0.375638
0.375134
0.374634
0.374137
0.373643
0.373152
0.372663
0.372176
0.37169
0.371206
0.370723
0.370241
0.444609
0.429099
0.414024
0.412574
0.411809
0.411039
0.410265
0.409488
0.408708
0.407926
0.407142
0.406359
0.405576
0.404794
0.404014
0.403237
0.402463
0.401693
0.400927
0.400165
0.399409
0.398657
0.397912
0.397171
0.396437
0.395709
0.394987
0.394272
0.393564
0.392863
0.392168
0.391481
0.390801
0.390129
0.389464
0.388806
0.388156
0.387514
0.386879
0.386252
0.385633
0.385021
0.384416
0.383819
0.383229
0.382646
0.382071
0.381502
0.380939
0.380384
0.379834
0.379291
0.378753
0.378221
0.377695
0.377174
0.376657
0.376145
0.375637
0.375134
0.374633
0.374137
0.373643
0.373152
0.372663
0.372176
0.37169
0.371206
0.370723
0.370241
0.444615
0.429338
0.414031
0.412561
0.411786
0.41101
0.410233
0.409453
0.408673
0.407892
0.407111
0.406331
0.405551
0.404772
0.403996
0.403222
0.402451
0.401683
0.400919
0.400159
0.399404
0.398654
0.397909
0.39717
0.396436
0.395708
0.394987
0.394272
0.393564
0.392863
0.392168
0.391481
0.390801
0.390129
0.389464
0.388806
0.388156
0.387514
0.38688
0.386252
0.385633
0.385021
0.384416
0.383819
0.383229
0.382646
0.382071
0.381502
0.380939
0.380384
0.379834
0.379291
0.378753
0.378221
0.377695
0.377174
0.376657
0.376145
0.375637
0.375134
0.374633
0.374137
0.373643
0.373152
0.372663
0.372176
0.37169
0.371206
0.370723
0.370241
0.444615
0.429324
0.414054
0.412579
0.411801
0.411019
0.410232
0.409447
0.408663
0.40788
0.407099
0.406319
0.40554
0.404763
0.403988
0.403216
0.402446
0.40168
0.400917
0.400158
0.399403
0.398653
0.397909
0.39717
0.396436
0.395709
0.394987
0.394273
0.393564
0.392863
0.392169
0.391482
0.390802
0.390129
0.389464
0.388807
0.388157
0.387515
0.38688
0.386253
0.385633
0.385021
0.384417
0.383819
0.383229
0.382647
0.382071
0.381502
0.38094
0.380384
0.379834
0.379291
0.378753
0.378222
0.377695
0.377174
0.376657
0.376145
0.375637
0.375134
0.374633
0.374137
0.373643
0.373152
0.372663
0.372176
0.37169
0.371206
0.370723
0.370241
0.444501
0.424786
0.417115
0.413226
0.412099
0.411298
0.410443
0.409592
0.408758
0.407941
0.407138
0.406344
0.405557
0.404775
0.403997
0.403222
0.402451
0.401684
0.40092
0.400161
0.399406
0.398656
0.397911
0.397171
0.396437
0.39571
0.394988
0.394273
0.393565
0.392864
0.392169
0.391482
0.390802
0.39013
0.389465
0.388807
0.388157
0.387515
0.38688
0.386253
0.385634
0.385022
0.384417
0.38382
0.38323
0.382647
0.382071
0.381502
0.38094
0.380384
0.379835
0.379291
0.378754
0.378222
0.377695
0.377174
0.376657
0.376145
0.375638
0.375134
0.374634
0.374137
0.373643
0.373152
0.372663
0.372176
0.37169
0.371206
0.370723
0.370241
0.444615
0.429335
0.414083
0.412615
0.411835
0.411051
0.410265
0.409479
0.408693
0.407909
0.407125
0.406343
0.405561
0.404782
0.404005
0.40323
0.402458
0.40169
0.400925
0.400165
0.399409
0.398658
0.397913
0.397173
0.396439
0.395711
0.394989
0.394274
0.393566
0.392864
0.39217
0.391483
0.390803
0.39013
0.389465
0.388808
0.388158
0.387516
0.386881
0.386254
0.385634
0.385022
0.384417
0.38382
0.38323
0.382647
0.382072
0.381503
0.38094
0.380384
0.379835
0.379292
0.378754
0.378222
0.377696
0.377174
0.376658
0.376146
0.375638
0.375134
0.374634
0.374137
0.373643
0.373152
0.372663
0.372176
0.371691
0.371206
0.370723
0.370241
0.444613
0.429259
0.414045
0.412584
0.411814
0.411041
0.410266
0.409488
0.408709
0.407928
0.407146
0.406364
0.405582
0.404801
0.404022
0.403245
0.402471
0.401701
0.400935
0.400173
0.399415
0.398663
0.397917
0.397176
0.396441
0.395713
0.394991
0.394275
0.393567
0.392865
0.392171
0.391483
0.390803
0.390131
0.389466
0.388808
0.388158
0.387516
0.386881
0.386254
0.385635
0.385022
0.384418
0.383821
0.383231
0.382648
0.382072
0.381503
0.380941
0.380385
0.379835
0.379292
0.378754
0.378222
0.377696
0.377174
0.376658
0.376146
0.375638
0.375134
0.374634
0.374137
0.373643
0.373152
0.372663
0.372176
0.371691
0.371206
0.370723
0.370241
0.444613
0.429257
0.414048
0.412586
0.411816
0.411044
0.410269
0.409492
0.408713
0.407932
0.40715
0.406367
0.405585
0.404804
0.404025
0.403248
0.402474
0.401703
0.400937
0.400174
0.399417
0.398665
0.397918
0.397177
0.396442
0.395714
0.394992
0.394276
0.393568
0.392866
0.392171
0.391484
0.390804
0.390131
0.389466
0.388809
0.388159
0.387516
0.386882
0.386255
0.385635
0.385023
0.384418
0.383821
0.383231
0.382648
0.382072
0.381503
0.380941
0.380385
0.379835
0.379292
0.378755
0.378223
0.377696
0.377175
0.376658
0.376146
0.375638
0.375134
0.374634
0.374137
0.373643
0.373152
0.372663
0.372176
0.371691
0.371206
0.370723
0.370241
0.444616
0.429361
0.414056
0.412583
0.411809
0.411033
0.410255
0.409476
0.408696
0.407915
0.407133
0.406352
0.405571
0.404791
0.404013
0.403238
0.402465
0.401696
0.40093
0.400169
0.399413
0.398662
0.397916
0.397175
0.396441
0.395713
0.394991
0.394276
0.393567
0.392866
0.392171
0.391484
0.390804
0.390132
0.389467
0.388809
0.388159
0.387517
0.386882
0.386255
0.385635
0.385023
0.384419
0.383821
0.383231
0.382648
0.382072
0.381503
0.380941
0.380385
0.379836
0.379292
0.378755
0.378223
0.377696
0.377175
0.376658
0.376146
0.375638
0.375134
0.374634
0.374137
0.373643
0.373152
0.372663
0.372176
0.371691
0.371207
0.370723
0.370241
0.444613
0.429255
0.414005
0.412542
0.411771
0.410999
0.410225
0.409449
0.408671
0.407893
0.407113
0.406334
0.405555
0.404778
0.404002
0.403228
0.402457
0.401689
0.400925
0.400165
0.399409
0.398659
0.397913
0.397174
0.39644
0.395712
0.394991
0.394276
0.393567
0.392866
0.392172
0.391484
0.390804
0.390132
0.389467
0.388809
0.388159
0.387517
0.386882
0.386255
0.385636
0.385024
0.384419
0.383822
0.383232
0.382649
0.382073
0.381504
0.380941
0.380386
0.379836
0.379293
0.378755
0.378223
0.377696
0.377175
0.376658
0.376146
0.375638
0.375135
0.374634
0.374137
0.373643
0.373152
0.372663
0.372176
0.371691
0.371207
0.370723
0.370241
0.444615
0.429336
0.414013
0.412542
0.411768
0.410993
0.410216
0.409437
0.408658
0.407878
0.407099
0.406319
0.405541
0.404764
0.403989
0.403216
0.402446
0.40168
0.400917
0.400158
0.399404
0.398654
0.39791
0.397171
0.396438
0.39571
0.394989
0.394275
0.393567
0.392866
0.392171
0.391484
0.390805
0.390132
0.389467
0.38881
0.38816
0.387518
0.386883
0.386256
0.385636
0.385024
0.384419
0.383822
0.383232
0.382649
0.382073
0.381504
0.380942
0.380386
0.379836
0.379293
0.378755
0.378223
0.377697
0.377175
0.376658
0.376146
0.375639
0.375135
0.374634
0.374137
0.373643
0.373152
0.372663
0.372176
0.371691
0.371207
0.370723
0.370241
0.444615
0.429338
0.414063
0.412596
0.411822
0.411044
0.410263
0.409478
0.408693
0.407907
0.407121
0.406337
0.405554
0.404773
0.403996
0.403221
0.40245
0.401682
0.400919
0.400159
0.399405
0.398655
0.397911
0.397172
0.396439
0.395711
0.39499
0.394276
0.393568
0.392866
0.392172
0.391485
0.390805
0.390133
0.389468
0.38881
0.38816
0.387518
0.386883
0.386256
0.385637
0.385024
0.38442
0.383822
0.383232
0.382649
0.382073
0.381504
0.380942
0.380386
0.379837
0.379293
0.378755
0.378223
0.377697
0.377175
0.376659
0.376147
0.375639
0.375135
0.374634
0.374138
0.373644
0.373152
0.372663
0.372176
0.371691
0.371207
0.370723
0.370241
0.444589
0.428333
0.414139
0.412731
0.411971
0.411193
0.410402
0.409603
0.408801
0.407997
0.407195
0.406396
0.405601
0.40481
0.404024
0.403243
0.402467
0.401696
0.400929
0.400168
0.399412
0.398661
0.397915
0.397176
0.396442
0.395714
0.394993
0.394278
0.393569
0.392868
0.392174
0.391487
0.390807
0.390134
0.389469
0.388811
0.388161
0.387519
0.386884
0.386257
0.385637
0.385025
0.38442
0.383823
0.383233
0.38265
0.382074
0.381505
0.380942
0.380386
0.379837
0.379293
0.378756
0.378224
0.377697
0.377175
0.376659
0.376147
0.375639
0.375135
0.374635
0.374138
0.373644
0.373152
0.372663
0.372176
0.371691
0.371207
0.370723
0.370241
0.444615
0.429351
0.414131
0.412668
0.411894
0.411114
0.410328
0.409539
0.408747
0.407954
0.407161
0.406371
0.405582
0.404797
0.404015
0.403237
0.402463
0.401694
0.400928
0.400168
0.399412
0.398662
0.397916
0.397177
0.396443
0.395715
0.394994
0.394279
0.393571
0.392869
0.392175
0.391488
0.390808
0.390135
0.38947
0.388812
0.388162
0.38752
0.386885
0.386257
0.385638
0.385025
0.384421
0.383823
0.383233
0.38265
0.382074
0.381505
0.380943
0.380387
0.379837
0.379293
0.378756
0.378224
0.377697
0.377176
0.376659
0.376147
0.375639
0.375135
0.374635
0.374138
0.373644
0.373152
0.372663
0.372176
0.371691
0.371207
0.370723
0.370241
0.444595
0.428566
0.414107
0.412691
0.411932
0.411159
0.410375
0.409583
0.408786
0.407988
0.40719
0.406394
0.405601
0.404811
0.404026
0.403246
0.40247
0.401698
0.400932
0.400171
0.399414
0.398663
0.397918
0.397178
0.396444
0.395717
0.394995
0.39428
0.393572
0.39287
0.392176
0.391488
0.390808
0.390136
0.38947
0.388813
0.388163
0.38752
0.386885
0.386258
0.385638
0.385026
0.384421
0.383824
0.383234
0.38265
0.382074
0.381505
0.380943
0.380387
0.379837
0.379294
0.378756
0.378224
0.377697
0.377176
0.376659
0.376147
0.375639
0.375135
0.374635
0.374138
0.373644
0.373152
0.372663
0.372176
0.371691
0.371207
0.370723
0.370241
0.444615
0.429347
0.414069
0.4126
0.411826
0.411048
0.410268
0.409485
0.408701
0.407916
0.407131
0.406347
0.405565
0.404784
0.404007
0.403232
0.40246
0.401692
0.400928
0.400168
0.399413
0.398663
0.397918
0.397179
0.396445
0.395717
0.394996
0.394281
0.393573
0.392871
0.392177
0.391489
0.390809
0.390136
0.389471
0.388813
0.388163
0.387521
0.386886
0.386258
0.385639
0.385026
0.384422
0.383824
0.383234
0.382651
0.382075
0.381506
0.380943
0.380387
0.379837
0.379294
0.378756
0.378224
0.377697
0.377176
0.376659
0.376147
0.375639
0.375135
0.374635
0.374138
0.373644
0.373152
0.372663
0.372176
0.371691
0.371207
0.370723
0.370241
0.444614
0.429293
0.414006
0.412541
0.411769
0.410995
0.410219
0.409442
0.408664
0.407885
0.407106
0.406327
0.40555
0.404773
0.403999
0.403227
0.402457
0.40169
0.400928
0.400169
0.399414
0.398664
0.397919
0.39718
0.396446
0.395719
0.394997
0.394282
0.393574
0.392872
0.392178
0.39149
0.39081
0.390137
0.389472
0.388814
0.388164
0.387521
0.386886
0.386259
0.385639
0.385027
0.384422
0.383824
0.383234
0.382651
0.382075
0.381506
0.380943
0.380387
0.379838
0.379294
0.378756
0.378224
0.377698
0.377176
0.376659
0.376147
0.375639
0.375135
0.374635
0.374138
0.373644
0.373152
0.372663
0.372176
0.371691
0.371207
0.370723
0.370241
0.444615
0.429327
0.414064
0.412602
0.411825
0.411041
0.410254
0.409466
0.40868
0.407894
0.407111
0.406329
0.405549
0.404772
0.403997
0.403224
0.402455
0.401689
0.400926
0.400168
0.399413
0.398664
0.397919
0.39718
0.396447
0.395719
0.394998
0.394283
0.393575
0.392873
0.392178
0.391491
0.390811
0.390138
0.389473
0.388815
0.388165
0.387522
0.386887
0.386259
0.38564
0.385027
0.384422
0.383825
0.383234
0.382651
0.382075
0.381506
0.380943
0.380387
0.379838
0.379294
0.378756
0.378224
0.377698
0.377176
0.376659
0.376147
0.375639
0.375135
0.374635
0.374138
0.373644
0.373153
0.372663
0.372176
0.371691
0.371207
0.370723
0.370241
0.444546
0.426691
0.41484
0.413193
0.412286
0.411387
0.410507
0.409648
0.408808
0.407983
0.407171
0.406369
0.405575
0.404789
0.404008
0.403231
0.40246
0.401692
0.400929
0.400169
0.399415
0.398665
0.397921
0.397182
0.396448
0.395721
0.394999
0.394284
0.393576
0.392874
0.39218
0.391492
0.390812
0.390139
0.389474
0.388816
0.388165
0.387523
0.386887
0.38626
0.38564
0.385028
0.384423
0.383825
0.383235
0.382652
0.382076
0.381506
0.380944
0.380388
0.379838
0.379294
0.378757
0.378224
0.377698
0.377176
0.376659
0.376147
0.375639
0.375135
0.374635
0.374138
0.373644
0.373153
0.372663
0.372176
0.371691
0.371207
0.370723
0.370241
0.444615
0.429333
0.414083
0.412621
0.411844
0.411061
0.410275
0.409488
0.408701
0.407914
0.40713
0.406347
0.405565
0.404787
0.40401
0.403236
0.402466
0.401698
0.400935
0.400175
0.39942
0.39867
0.397925
0.397185
0.396451
0.395723
0.395002
0.394286
0.393578
0.392876
0.392181
0.391493
0.390813
0.39014
0.389474
0.388816
0.388166
0.387523
0.386888
0.38626
0.38564
0.385028
0.384423
0.383825
0.383235
0.382652
0.382076
0.381506
0.380944
0.380388
0.379838
0.379294
0.378757
0.378224
0.377698
0.377176
0.376659
0.376147
0.375639
0.375135
0.374635
0.374138
0.373644
0.373153
0.372663
0.372176
0.371691
0.371207
0.370723
0.370241
0.444614
0.429307
0.414046
0.412581
0.411809
0.411036
0.41026
0.409483
0.408704
0.407925
0.407144
0.406364
0.405585
0.404806
0.404029
0.403254
0.402482
0.401713
0.400948
0.400187
0.39943
0.398678
0.397932
0.397191
0.396456
0.395727
0.395005
0.394289
0.39358
0.392878
0.392183
0.391495
0.390814
0.390141
0.389475
0.388817
0.388167
0.387524
0.386888
0.386261
0.385641
0.385028
0.384423
0.383826
0.383235
0.382652
0.382076
0.381507
0.380944
0.380388
0.379838
0.379294
0.378757
0.378225
0.377698
0.377176
0.376659
0.376147
0.375639
0.375135
0.374635
0.374138
0.373644
0.373153
0.372663
0.372176
0.371691
0.371207
0.370723
0.370241
0.444615
0.429322
0.414072
0.412606
0.411834
0.411061
0.410285
0.409508
0.408729
0.407949
0.407168
0.406387
0.405605
0.404825
0.404047
0.40327
0.402496
0.401725
0.400959
0.400196
0.399438
0.398685
0.397938
0.397196
0.39646
0.395731
0.395008
0.394291
0.393582
0.392879
0.392184
0.391496
0.390815
0.390142
0.389476
0.388818
0.388167
0.387524
0.386889
0.386261
0.385641
0.385028
0.384423
0.383826
0.383235
0.382652
0.382076
0.381507
0.380944
0.380388
0.379838
0.379294
0.378757
0.378225
0.377698
0.377176
0.376659
0.376147
0.375639
0.375135
0.374635
0.374138
0.373644
0.373153
0.372663
0.372176
0.371691
0.371207
0.370723
0.370241
0.444615
0.429329
0.414085
0.41262
0.411849
0.411075
0.410299
0.409522
0.408742
0.407962
0.40718
0.406398
0.405616
0.404835
0.404055
0.403278
0.402503
0.401732
0.400964
0.400201
0.399442
0.398689
0.397941
0.397199
0.396462
0.395733
0.395009
0.394293
0.393583
0.39288
0.392185
0.391496
0.390815
0.390142
0.389476
0.388818
0.388167
0.387524
0.386889
0.386261
0.385641
0.385029
0.384423
0.383826
0.383235
0.382652
0.382076
0.381507
0.380944
0.380388
0.379838
0.379294
0.378757
0.378225
0.377698
0.377176
0.376659
0.376147
0.375639
0.375135
0.374635
0.374138
0.373644
0.373153
0.372663
0.372176
0.371691
0.371207
0.370723
0.370241
0.444615
0.429331
0.41409
0.412624
0.411853
0.41108
0.410304
0.409526
0.408747
0.407966
0.407184
0.406402
0.405619
0.404838
0.404058
0.40328
0.402505
0.401734
0.400966
0.400202
0.399444
0.39869
0.397942
0.397199
0.396463
0.395733
0.39501
0.394293
0.393583
0.392881
0.392185
0.391497
0.390816
0.390142
0.389476
0.388818
0.388167
0.387524
0.386889
0.386261
0.385641
0.385029
0.384424
0.383826
0.383235
0.382652
0.382076
0.381507
0.380944
0.380388
0.379838
0.379294
0.378757
0.378225
0.377698
0.377176
0.376659
0.376147
0.375639
0.375135
0.374635
0.374138
0.373644
0.373153
0.372663
0.372176
0.371691
0.371207
0.370723
0.370241
0.444615
0.429331
0.414091
0.412626
0.411854
0.411081
0.410305
0.409528
0.408748
0.407967
0.407185
0.406403
0.40562
0.404839
0.404059
0.403281
0.402506
0.401734
0.400966
0.400203
0.399444
0.39869
0.397942
0.3972
0.396463
0.395733
0.39501
0.394293
0.393583
0.392881
0.392185
0.391497
0.390816
0.390142
0.389476
0.388818
0.388167
0.387524
0.386889
0.386261
0.385641
0.385029
0.384424
0.383826
0.383235
0.382652
0.382076
0.381507
0.380944
0.380388
0.379838
0.379294
0.378757
0.378225
0.377698
0.377176
0.376659
0.376147
0.375639
0.375135
0.374635
0.374138
0.373644
0.373153
0.372663
0.372176
0.371691
0.371207
0.370723
0.370241
0.444615
0.429331
0.414091
0.412626
0.411855
0.411081
0.410306
0.409528
0.408748
0.407967
0.407185
0.406403
0.405621
0.404839
0.404059
0.403281
0.402506
0.401734
0.400967
0.400203
0.399444
0.39869
0.397942
0.3972
0.396463
0.395733
0.39501
0.394293
0.393583
0.392881
0.392185
0.391497
0.390816
0.390142
0.389476
0.388818
0.388167
0.387524
0.386889
0.386261
0.385641
0.385029
0.384424
0.383826
0.383235
0.382652
0.382076
0.381507
0.380944
0.380388
0.379838
0.379294
0.378757
0.378225
0.377698
0.377176
0.376659
0.376147
0.375639
0.375135
0.374635
0.374138
0.373644
0.373153
0.372663
0.372176
0.371691
0.371207
0.370723
0.370241
0.444615
0.429331
0.414091
0.412626
0.411855
0.411081
0.410306
0.409528
0.408748
0.407967
0.407185
0.406403
0.405621
0.404839
0.404059
0.403281
0.402506
0.401734
0.400967
0.400203
0.399444
0.39869
0.397942
0.3972
0.396463
0.395733
0.39501
0.394293
0.393583
0.392881
0.392185
0.391497
0.390816
0.390142
0.389476
0.388818
0.388167
0.387524
0.386889
0.386261
0.385641
0.385029
0.384424
0.383826
0.383235
0.382652
0.382076
0.381507
0.380944
0.380388
0.379838
0.379294
0.378757
0.378225
0.377698
0.377176
0.376659
0.376147
0.375639
0.375135
0.374635
0.374138
0.373644
0.373153
0.372663
0.372176
0.371691
0.371207
0.370723
0.370241
0.444615
0.429331
0.414091
0.412626
0.411855
0.411081
0.410306
0.409528
0.408748
0.407967
0.407185
0.406403
0.405621
0.404839
0.404059
0.403281
0.402506
0.401735
0.400967
0.400203
0.399444
0.39869
0.397942
0.3972
0.396463
0.395733
0.39501
0.394293
0.393583
0.392881
0.392185
0.391497
0.390816
0.390142
0.389476
0.388818
0.388167
0.387524
0.386889
0.386261
0.385641
0.385029
0.384424
0.383826
0.383235
0.382652
0.382076
0.381507
0.380944
0.380388
0.379838
0.379294
0.378757
0.378225
0.377698
0.377176
0.376659
0.376147
0.375639
0.375135
0.374635
0.374138
0.373644
0.373153
0.372663
0.372176
0.371691
0.371207
0.370723
0.370241
0.444615
0.429331
0.414091
0.412626
0.411855
0.411081
0.410306
0.409528
0.408748
0.407967
0.407185
0.406403
0.405621
0.404839
0.404059
0.403281
0.402506
0.401735
0.400967
0.400203
0.399444
0.39869
0.397942
0.3972
0.396463
0.395733
0.39501
0.394293
0.393583
0.392881
0.392185
0.391497
0.390816
0.390142
0.389476
0.388818
0.388167
0.387524
0.386889
0.386261
0.385641
0.385029
0.384424
0.383826
0.383235
0.382652
0.382076
0.381507
0.380944
0.380388
0.379838
0.379294
0.378757
0.378225
0.377698
0.377176
0.376659
0.376147
0.375639
0.375135
0.374635
0.374138
0.373644
0.373153
0.372663
0.372176
0.371691
0.371207
0.370723
0.370241
0.444615
0.429331
0.414091
0.412626
0.411855
0.411081
0.410306
0.409528
0.408748
0.407967
0.407185
0.406403
0.405621
0.404839
0.404059
0.403281
0.402506
0.401735
0.400967
0.400203
0.399444
0.39869
0.397942
0.3972
0.396463
0.395733
0.39501
0.394293
0.393583
0.392881
0.392185
0.391497
0.390816
0.390142
0.389476
0.388818
0.388167
0.387524
0.386889
0.386261
0.385641
0.385029
0.384424
0.383826
0.383235
0.382652
0.382076
0.381507
0.380944
0.380388
0.379838
0.379294
0.378757
0.378225
0.377698
0.377176
0.376659
0.376147
0.375639
0.375135
0.374635
0.374138
0.373644
0.373153
0.372663
0.372176
0.371691
0.371207
0.370723
0.370241
0.444615
0.429331
0.414091
0.412626
0.411855
0.411081
0.410306
0.409528
0.408748
0.407967
0.407185
0.406403
0.405621
0.404839
0.404059
0.403281
0.402506
0.401735
0.400967
0.400203
0.399444
0.39869
0.397942
0.3972
0.396463
0.395733
0.39501
0.394293
0.393583
0.392881
0.392185
0.391497
0.390816
0.390142
0.389476
0.388818
0.388167
0.387524
0.386889
0.386261
0.385641
0.385029
0.384424
0.383826
0.383235
0.382652
0.382076
0.381507
0.380944
0.380388
0.379838
0.379294
0.378757
0.378225
0.377698
0.377176
0.376659
0.376147
0.375639
0.375135
0.374635
0.374138
0.373644
0.373153
0.372663
0.372176
0.371691
0.371207
0.370723
0.370241
0.444615
0.429331
0.414091
0.412626
0.411855
0.411081
0.410306
0.409528
0.408748
0.407967
0.407185
0.406403
0.405621
0.404839
0.404059
0.403281
0.402506
0.401735
0.400967
0.400203
0.399444
0.39869
0.397942
0.3972
0.396463
0.395733
0.39501
0.394293
0.393583
0.392881
0.392185
0.391497
0.390816
0.390142
0.389476
0.388818
0.388167
0.387524
0.386889
0.386261
0.385641
0.385029
0.384424
0.383826
0.383235
0.382652
0.382076
0.381507
0.380944
0.380388
0.379838
0.379294
0.378757
0.378225
0.377698
0.377176
0.376659
0.376147
0.375639
0.375135
0.374635
0.374138
0.373644
0.373153
0.372663
0.372176
0.371691
0.371207
0.370723
0.370241
0.444615
0.429331
0.414091
0.412626
0.411855
0.411081
0.410306
0.409528
0.408748
0.407967
0.407185
0.406403
0.405621
0.404839
0.404059
0.403281
0.402506
0.401735
0.400967
0.400203
0.399444
0.39869
0.397942
0.3972
0.396463
0.395733
0.39501
0.394293
0.393583
0.392881
0.392185
0.391497
0.390816
0.390142
0.389476
0.388818
0.388167
0.387524
0.386889
0.386261
0.385641
0.385029
0.384424
0.383826
0.383235
0.382652
0.382076
0.381507
0.380944
0.380388
0.379838
0.379294
0.378757
0.378225
0.377698
0.377176
0.376659
0.376147
0.375639
0.375135
0.374635
0.374138
0.373644
0.373153
0.372663
0.372176
0.371691
0.371207
0.370723
0.370241
0.444615
0.429331
0.414091
0.412626
0.411855
0.411081
0.410306
0.409528
0.408748
0.407967
0.407185
0.406403
0.405621
0.404839
0.404059
0.403281
0.402506
0.401735
0.400967
0.400203
0.399444
0.39869
0.397942
0.3972
0.396463
0.395733
0.39501
0.394293
0.393583
0.392881
0.392185
0.391497
0.390816
0.390142
0.389476
0.388818
0.388167
0.387524
0.386889
0.386261
0.385641
0.385029
0.384424
0.383826
0.383235
0.382652
0.382076
0.381507
0.380944
0.380388
0.379838
0.379294
0.378757
0.378225
0.377698
0.377176
0.376659
0.376147
0.375639
0.375135
0.374635
0.374138
0.373644
0.373153
0.372663
0.372176
0.371691
0.371207
0.370723
0.370241
0.444615
0.429331
0.414091
0.412626
0.411855
0.411081
0.410306
0.409528
0.408748
0.407967
0.407185
0.406403
0.405621
0.404839
0.404059
0.403281
0.402506
0.401735
0.400967
0.400203
0.399444
0.39869
0.397942
0.3972
0.396463
0.395733
0.39501
0.394293
0.393583
0.392881
0.392185
0.391497
0.390816
0.390142
0.389476
0.388818
0.388167
0.387524
0.386889
0.386261
0.385641
0.385029
0.384424
0.383826
0.383235
0.382652
0.382076
0.381507
0.380944
0.380388
0.379838
0.379294
0.378757
0.378225
0.377698
0.377176
0.376659
0.376147
0.375639
0.375135
0.374635
0.374138
0.373644
0.373153
0.372663
0.372176
0.371691
0.371207
0.370723
0.370241
0.444615
0.429331
0.414091
0.412626
0.411855
0.411081
0.410306
0.409528
0.408748
0.407967
0.407185
0.406403
0.405621
0.404839
0.404059
0.403281
0.402506
0.401735
0.400967
0.400203
0.399444
0.39869
0.397942
0.3972
0.396463
0.395733
0.39501
0.394293
0.393583
0.392881
0.392185
0.391497
0.390816
0.390142
0.389476
0.388818
0.388167
0.387524
0.386889
0.386261
0.385641
0.385029
0.384424
0.383826
0.383235
0.382652
0.382076
0.381507
0.380944
0.380388
0.379838
0.379294
0.378757
0.378225
0.377698
0.377176
0.376659
0.376147
0.375639
0.375135
0.374635
0.374138
0.373644
0.373153
0.372663
0.372176
0.371691
0.371207
0.370723
0.370241
0.444615
0.429331
0.414091
0.412626
0.411855
0.411081
0.410306
0.409528
0.408748
0.407967
0.407185
0.406403
0.405621
0.404839
0.404059
0.403281
0.402506
0.401735
0.400967
0.400203
0.399444
0.39869
0.397942
0.3972
0.396463
0.395733
0.39501
0.394293
0.393583
0.392881
0.392185
0.391497
0.390816
0.390142
0.389476
0.388818
0.388167
0.387524
0.386889
0.386261
0.385641
0.385029
0.384424
0.383826
0.383235
0.382652
0.382076
0.381507
0.380944
0.380388
0.379838
0.379294
0.378757
0.378225
0.377698
0.377176
0.376659
0.376147
0.375639
0.375135
0.374635
0.374138
0.373644
0.373153
0.372663
0.372176
0.371691
0.371207
0.370723
0.370241
0.444615
0.429331
0.414091
0.412626
0.411855
0.411081
0.410306
0.409528
0.408748
0.407967
0.407185
0.406403
0.405621
0.404839
0.404059
0.403281
0.402506
0.401735
0.400967
0.400203
0.399444
0.39869
0.397942
0.3972
0.396463
0.395733
0.39501
0.394293
0.393583
0.392881
0.392185
0.391497
0.390816
0.390142
0.389476
0.388818
0.388167
0.387524
0.386889
0.386261
0.385641
0.385029
0.384424
0.383826
0.383235
0.382652
0.382076
0.381507
0.380944
0.380388
0.379838
0.379294
0.378757
0.378225
0.377698
0.377176
0.376659
0.376147
0.375639
0.375135
0.374635
0.374138
0.373644
0.373153
0.372663
0.372176
0.371691
0.371207
0.370723
0.370241
0.444615
0.429331
0.414091
0.412626
0.411855
0.411081
0.410306
0.409528
0.408748
0.407967
0.407185
0.406403
0.405621
0.404839
0.404059
0.403281
0.402506
0.401735
0.400967
0.400203
0.399444
0.39869
0.397942
0.3972
0.396463
0.395733
0.39501
0.394293
0.393583
0.392881
0.392185
0.391497
0.390816
0.390142
0.389476
0.388818
0.388167
0.387524
0.386889
0.386261
0.385641
0.385029
0.384424
0.383826
0.383235
0.382652
0.382076
0.381507
0.380944
0.380388
0.379838
0.379294
0.378757
0.378225
0.377698
0.377176
0.376659
0.376147
0.375639
0.375135
0.374635
0.374138
0.373644
0.373153
0.372663
0.372176
0.371691
0.371207
0.370723
0.370241
0.444615
0.429331
0.414091
0.412626
0.411855
0.411081
0.410306
0.409528
0.408748
0.407967
0.407185
0.406403
0.405621
0.404839
0.404059
0.403281
0.402506
0.401735
0.400967
0.400203
0.399444
0.39869
0.397942
0.3972
0.396463
0.395733
0.39501
0.394293
0.393583
0.392881
0.392185
0.391497
0.390816
0.390142
0.389476
0.388818
0.388167
0.387524
0.386889
0.386261
0.385641
0.385029
0.384424
0.383826
0.383235
0.382652
0.382076
0.381507
0.380944
0.380388
0.379838
0.379294
0.378757
0.378225
0.377698
0.377176
0.376659
0.376147
0.375639
0.375135
0.374635
0.374138