/*--------------------------------*- C++ -*----------------------------------*\
  =========                 |
  \\      /  F ield         | OpenFOAM: The Open Source CFD Toolbox
   \\    /   O peration     | Website:  https://openfoam.org
    \\  /    A nd           | Version:  13
     \\/     M anipulation  |
\*---------------------------------------------------------------------------*/
FoamFile
{
    format      ascii;
    class       volScalarField;
    location    "80";
    object      nut;
}
// * * * * * * * * * * * * * * * * * * * * * * * * * * * * * * * * * * * * * //

dimensions      [0 2 -1 0 0 0 0];

internalField   nonuniform List<scalar> 
315000
(
3.0203e-14
7.90803e-12
1.80393e-10
3.23579e-10
4.68759e-10
6.16118e-10
7.65925e-10
9.18411e-10
1.07371e-09
1.23182e-09
1.3926e-09
1.55579e-09
1.72098e-09
1.88764e-09
2.05515e-09
2.22278e-09
2.38975e-09
2.55521e-09
2.71828e-09
2.87804e-09
3.03357e-09
3.18392e-09
3.32817e-09
3.46541e-09
3.59474e-09
3.71533e-09
3.82637e-09
3.92712e-09
4.01687e-09
4.09503e-09
4.16104e-09
4.21445e-09
4.25487e-09
4.28203e-09
4.29573e-09
4.29588e-09
4.28246e-09
4.25559e-09
4.21544e-09
4.16231e-09
4.09656e-09
4.01866e-09
3.92915e-09
3.82864e-09
3.71781e-09
3.59742e-09
3.46827e-09
3.33119e-09
3.18709e-09
3.03686e-09
2.88144e-09
2.72175e-09
2.55874e-09
2.39331e-09
2.22635e-09
2.05871e-09
1.89117e-09
1.72445e-09
1.55917e-09
1.39588e-09
1.23495e-09
1.07669e-09
9.21201e-10
7.68494e-10
6.18426e-10
4.70754e-10
3.25182e-10
1.81469e-10
7.96647e-12
3.04514e-14
7.56159e-13
2.01319e-10
4.57695e-08
8.26059e-08
1.19698e-07
1.57182e-07
1.95169e-07
2.33733e-07
2.72914e-07
3.12713e-07
3.5309e-07
3.93973e-07
4.35254e-07
4.76796e-07
5.18439e-07
5.60002e-07
6.01289e-07
6.42092e-07
6.82195e-07
7.21381e-07
7.59426e-07
7.96113e-07
8.31224e-07
8.6455e-07
8.95888e-07
9.25045e-07
9.51841e-07
9.76109e-07
9.97696e-07
1.01647e-06
1.0323e-06
1.04509e-06
1.05477e-06
1.06126e-06
1.06454e-06
1.06456e-06
1.06134e-06
1.0549e-06
1.04528e-06
1.03253e-06
1.01675e-06
9.98029e-07
9.76488e-07
9.52263e-07
9.25507e-07
8.96388e-07
8.65084e-07
8.3179e-07
7.96706e-07
7.60043e-07
7.22017e-07
6.82847e-07
6.42754e-07
6.01958e-07
5.60673e-07
5.19107e-07
4.77455e-07
4.359e-07
3.94601e-07
3.53694e-07
3.13287e-07
2.73453e-07
2.34229e-07
1.95616e-07
1.57572e-07
1.2002e-07
8.28487e-08
4.59174e-08
2.02033e-10
7.58948e-13
3.05249e-12
8.13888e-10
4.65311e-07
8.29066e-07
1.18781e-06
1.54381e-06
1.89875e-06
2.25376e-06
2.60943e-06
2.9659e-06
3.32286e-06
3.67966e-06
4.03536e-06
4.38881e-06
4.73869e-06
5.08361e-06
5.42211e-06
5.75275e-06
6.07408e-06
6.38467e-06
6.68316e-06
6.96823e-06
7.2386e-06
7.49307e-06
7.73051e-06
7.94987e-06
8.15016e-06
8.3305e-06
8.4901e-06
8.62824e-06
8.74433e-06
8.83786e-06
8.9084e-06
8.95565e-06
8.9794e-06
8.97955e-06
8.95608e-06
8.90912e-06
8.83886e-06
8.74562e-06
8.6298e-06
8.49192e-06
8.33258e-06
8.15249e-06
7.95243e-06
7.7333e-06
7.49606e-06
7.24179e-06
6.97159e-06
6.68669e-06
6.38833e-06
6.07785e-06
5.75662e-06
5.42605e-06
5.08758e-06
4.74268e-06
4.39278e-06
4.03928e-06
3.68349e-06
3.32656e-06
2.96944e-06
2.61277e-06
2.25684e-06
1.90153e-06
1.54623e-06
1.18981e-06
8.30574e-07
4.66227e-07
8.15626e-10
3.05919e-12
5.53873e-12
1.47708e-09
8.34408e-07
1.46989e-06
2.08663e-06
2.69066e-06
3.28628e-06
3.87633e-06
4.46244e-06
5.04521e-06
5.62441e-06
6.19916e-06
6.76812e-06
7.32963e-06
7.88184e-06
8.42285e-06
8.95068e-06
9.46343e-06
9.95924e-06
1.04363e-05
1.0893e-05
1.13275e-05
1.17383e-05
1.21239e-05
1.24828e-05
1.28138e-05
1.31154e-05
1.33865e-05
1.36262e-05
1.38334e-05
1.40074e-05
1.41475e-05
1.4253e-05
1.43237e-05
1.43591e-05
1.43593e-05
1.43241e-05
1.42538e-05
1.41485e-05
1.40088e-05
1.38351e-05
1.36282e-05
1.33888e-05
1.31179e-05
1.28165e-05
1.24859e-05
1.21272e-05
1.17418e-05
1.13311e-05
1.08968e-05
1.04403e-05
9.96337e-06
9.46767e-06
8.95501e-06
8.42723e-06
7.88626e-06
7.33404e-06
6.77249e-06
6.20345e-06
5.62858e-06
5.04921e-06
4.46622e-06
3.87984e-06
3.28946e-06
2.69345e-06
2.08895e-06
1.47166e-06
8.35496e-07
1.4792e-09
5.54691e-12
8.13698e-12
2.17049e-09
1.21152e-06
2.11158e-06
2.97315e-06
3.80813e-06
4.62463e-06
5.42792e-06
6.22107e-06
7.00545e-06
7.78116e-06
8.54735e-06
9.30258e-06
1.0045e-05
1.07726e-05
1.14833e-05
1.21749e-05
1.28456e-05
1.34931e-05
1.41157e-05
1.47113e-05
1.5278e-05
1.58138e-05
1.63167e-05
1.67849e-05
1.72165e-05
1.76099e-05
1.79634e-05
1.82758e-05
1.85459e-05
1.87725e-05
1.89549e-05
1.90923e-05
1.91842e-05
1.92304e-05
1.92305e-05
1.91847e-05
1.9093e-05
1.89559e-05
1.87738e-05
1.85474e-05
1.82777e-05
1.79655e-05
1.76122e-05
1.72191e-05
1.67877e-05
1.63197e-05
1.5817e-05
1.52814e-05
1.47149e-05
1.41194e-05
1.3497e-05
1.28495e-05
1.2179e-05
1.14874e-05
1.07768e-05
1.00492e-05
9.30673e-06
8.55144e-06
7.78513e-06
7.00928e-06
6.22471e-06
5.43132e-06
4.62773e-06
3.81085e-06
2.97543e-06
2.11333e-06
1.21262e-06
2.1727e-09
8.14554e-12
1.06222e-11
2.83409e-09
1.56462e-06
2.70175e-06
3.77811e-06
4.81275e-06
5.81815e-06
6.80227e-06
7.76978e-06
8.72299e-06
9.66248e-06
1.05877e-05
1.14972e-05
1.23892e-05
1.32619e-05
1.41131e-05
1.49407e-05
1.57426e-05
1.65169e-05
1.72613e-05
1.79734e-05
1.86509e-05
1.92913e-05
1.98922e-05
2.04511e-05
2.09661e-05
2.14352e-05
2.18566e-05
2.22287e-05
2.25502e-05
2.28199e-05
2.30369e-05
2.32003e-05
2.33097e-05
2.33645e-05
2.33646e-05
2.331e-05
2.32009e-05
2.30377e-05
2.2821e-05
2.25515e-05
2.22302e-05
2.18583e-05
2.14372e-05
2.09683e-05
2.04535e-05
1.98947e-05
1.92941e-05
1.86539e-05
1.79765e-05
1.72645e-05
1.65202e-05
1.57461e-05
1.49442e-05
1.41166e-05
1.32655e-05
1.23929e-05
1.15008e-05
1.05912e-05
9.66597e-06
8.72636e-06
7.77299e-06
6.80527e-06
5.8209e-06
4.81518e-06
3.78016e-06
2.70334e-06
1.56563e-06
2.83619e-09
1.06304e-11
1.27762e-11
3.4096e-09
1.86511e-06
3.19677e-06
4.44664e-06
5.64092e-06
6.79628e-06
7.92317e-06
9.02778e-06
1.01133e-05
1.11808e-05
1.22299e-05
1.32596e-05
1.42682e-05
1.52538e-05
1.62144e-05
1.71481e-05
1.80526e-05
1.89258e-05
1.97652e-05
2.05681e-05
2.13315e-05
2.20528e-05
2.27291e-05
2.3358e-05
2.39372e-05
2.44645e-05
2.4938e-05
2.53561e-05
2.57173e-05
2.60202e-05
2.62638e-05
2.64473e-05
2.657e-05
2.66315e-05
2.66316e-05
2.65703e-05
2.64478e-05
2.62645e-05
2.6021e-05
2.57183e-05
2.53574e-05
2.49395e-05
2.44661e-05
2.3939e-05
2.336e-05
2.27312e-05
2.2055e-05
2.13339e-05
2.05706e-05
1.97679e-05
1.89286e-05
1.80555e-05
1.7151e-05
1.62174e-05
1.52569e-05
1.42713e-05
1.32627e-05
1.22329e-05
1.11837e-05
1.01161e-05
9.03051e-06
7.92573e-06
6.79863e-06
5.643e-06
4.44841e-06
3.19814e-06
1.866e-06
3.41149e-09
1.27836e-11
1.44726e-11
3.86315e-09
2.09843e-06
3.57699e-06
4.95653e-06
6.26934e-06
7.53557e-06
8.76771e-06
9.97314e-06
1.11558e-05
1.23171e-05
1.34571e-05
1.45748e-05
1.56688e-05
1.67371e-05
1.7778e-05
1.87894e-05
1.97692e-05
2.0715e-05
2.16239e-05
2.2493e-05
2.33192e-05
2.40994e-05
2.48307e-05
2.55106e-05
2.61365e-05
2.67063e-05
2.72179e-05
2.76695e-05
2.80595e-05
2.83867e-05
2.86497e-05
2.88478e-05
2.89803e-05
2.90467e-05
2.90468e-05
2.89806e-05
2.88482e-05
2.86503e-05
2.83874e-05
2.80604e-05
2.76706e-05
2.72191e-05
2.67077e-05
2.61381e-05
2.55123e-05
2.48325e-05
2.41013e-05
2.33212e-05
2.24952e-05
2.16262e-05
2.07173e-05
1.97717e-05
1.87919e-05
1.77806e-05
1.67397e-05
1.56714e-05
1.45774e-05
1.34597e-05
1.23196e-05
1.11582e-05
9.97549e-06
8.76991e-06
7.53759e-06
6.27114e-06
4.95806e-06
3.57819e-06
2.09921e-06
3.86484e-09
1.44793e-11
1.56946e-11
4.19008e-09
2.26483e-06
3.84615e-06
5.31579e-06
6.71067e-06
8.05353e-06
9.35831e-06
1.06333e-05
1.18829e-05
1.31089e-05
1.43115e-05
1.54899e-05
1.66428e-05
1.77683e-05
1.88646e-05
1.99298e-05
2.09616e-05
2.19576e-05
2.29145e-05
2.38294e-05
2.46987e-05
2.55196e-05
2.62889e-05
2.7004e-05
2.76622e-05
2.82613e-05
2.87992e-05
2.9274e-05
2.9684e-05
3.00278e-05
3.03044e-05
3.05126e-05
3.06518e-05
3.07216e-05
3.07217e-05
3.06521e-05
3.0513e-05
3.03049e-05
3.00285e-05
2.96848e-05
2.92749e-05
2.88003e-05
2.82625e-05
2.76636e-05
2.70054e-05
2.62905e-05
2.55213e-05
2.47006e-05
2.38313e-05
2.29166e-05
2.19597e-05
2.09638e-05
1.9932e-05
1.88669e-05
1.77706e-05
1.66451e-05
1.54923e-05
1.43138e-05
1.31112e-05
1.18851e-05
1.06354e-05
9.36031e-06
8.05535e-06
6.7123e-06
5.31717e-06
3.84723e-06
2.26554e-06
4.19165e-09
1.57008e-11
1.65054e-11
4.40716e-09
2.37456e-06
4.02279e-06
5.5509e-06
6.99898e-06
8.39146e-06
9.74331e-06
1.10634e-05
1.23563e-05
1.36243e-05
1.48676e-05
1.60855e-05
1.72766e-05
1.84393e-05
1.95718e-05
2.0672e-05
2.17378e-05
2.27665e-05
2.37548e-05
2.46994e-05
2.55971e-05
2.64444e-05
2.72386e-05
2.79766e-05
2.8656e-05
2.92743e-05
2.98293e-05
3.03193e-05
3.07424e-05
3.10972e-05
3.13825e-05
3.15974e-05
3.1741e-05
3.1813e-05
3.18131e-05
3.17412e-05
3.15977e-05
3.1383e-05
3.10978e-05
3.07431e-05
3.03202e-05
2.98304e-05
2.92754e-05
2.86573e-05
2.7978e-05
2.72401e-05
2.64461e-05
2.55988e-05
2.47013e-05
2.37568e-05
2.27685e-05
2.17399e-05
2.06742e-05
1.9574e-05
1.84415e-05
1.72788e-05
1.60877e-05
1.48698e-05
1.36265e-05
1.23585e-05
1.10654e-05
9.74522e-06
8.39321e-06
7.00053e-06
5.55222e-06
4.02382e-06
2.37523e-06
4.40868e-09
1.65115e-11
1.70043e-11
4.54084e-09
2.44184e-06
4.13082e-06
5.69448e-06
7.1749e-06
8.59758e-06
9.97809e-06
1.13256e-05
1.26451e-05
1.39387e-05
1.52069e-05
1.64489e-05
1.76635e-05
1.88491e-05
2.00037e-05
2.11256e-05
2.22123e-05
2.32611e-05
2.42688e-05
2.52318e-05
2.61468e-05
2.70106e-05
2.782e-05
2.85723e-05
2.92647e-05
2.98949e-05
3.04606e-05
3.09599e-05
3.13911e-05
3.17527e-05
3.20435e-05
3.22624e-05
3.24089e-05
3.24822e-05
3.24823e-05
3.24091e-05
3.22628e-05
3.2044e-05
3.17533e-05
3.13919e-05
3.09608e-05
3.04616e-05
2.9896e-05
2.9266e-05
2.85737e-05
2.78216e-05
2.70123e-05
2.61486e-05
2.52337e-05
2.42707e-05
2.32632e-05
2.22144e-05
2.11278e-05
2.0006e-05
1.88513e-05
1.76658e-05
1.64512e-05
1.52091e-05
1.39409e-05
1.26472e-05
1.13276e-05
9.97999e-06
8.59933e-06
7.17645e-06
5.6958e-06
4.13185e-06
2.44252e-06
4.54236e-09
1.70104e-11
1.72906e-11
4.61761e-09
2.48041e-06
4.19265e-06
5.77662e-06
7.27552e-06
8.71549e-06
1.01124e-05
1.14757e-05
1.28105e-05
1.41189e-05
1.54014e-05
1.66574e-05
1.78856e-05
1.90844e-05
2.0252e-05
2.13864e-05
2.24853e-05
2.35458e-05
2.45647e-05
2.55384e-05
2.64636e-05
2.73369e-05
2.81553e-05
2.89159e-05
2.96159e-05
3.0253e-05
3.0825e-05
3.13298e-05
3.17657e-05
3.21313e-05
3.24253e-05
3.26467e-05
3.27947e-05
3.28689e-05
3.28689e-05
3.27949e-05
3.2647e-05
3.24258e-05
3.2132e-05
3.17665e-05
3.13307e-05
3.0826e-05
3.02542e-05
2.96173e-05
2.89174e-05
2.81569e-05
2.73387e-05
2.64654e-05
2.55404e-05
2.45667e-05
2.35479e-05
2.24874e-05
2.13886e-05
2.02542e-05
1.90867e-05
1.78879e-05
1.66597e-05
1.54037e-05
1.41211e-05
1.28126e-05
1.14778e-05
1.01144e-05
8.71727e-06
7.27711e-06
5.77796e-06
4.1937e-06
2.4811e-06
4.61916e-09
1.72968e-11
1.74447e-11
4.65895e-09
2.50115e-06
4.2259e-06
5.82079e-06
7.32965e-06
8.77895e-06
1.01848e-05
1.15566e-05
1.28997e-05
1.42161e-05
1.55064e-05
1.67701e-05
1.80057e-05
1.92117e-05
2.03864e-05
2.15277e-05
2.26333e-05
2.37003e-05
2.47253e-05
2.5705e-05
2.66358e-05
2.75144e-05
2.83377e-05
2.91029e-05
2.98071e-05
3.04481e-05
3.10234e-05
3.15313e-05
3.19699e-05
3.23376e-05
3.26334e-05
3.28561e-05
3.3005e-05
3.30797e-05
3.30797e-05
3.30053e-05
3.28565e-05
3.26339e-05
3.23383e-05
3.19707e-05
3.15323e-05
3.10246e-05
3.04493e-05
2.98085e-05
2.91044e-05
2.83394e-05
2.75162e-05
2.66377e-05
2.5707e-05
2.47274e-05
2.37024e-05
2.26355e-05
2.153e-05
2.03887e-05
1.92141e-05
1.8008e-05
1.67724e-05
1.55088e-05
1.42184e-05
1.29019e-05
1.15588e-05
1.01868e-05
8.78078e-06
7.33127e-06
5.82216e-06
4.22698e-06
2.50186e-06
4.66053e-09
1.7451e-11
1.75227e-11
4.67989e-09
2.51167e-06
4.24275e-06
5.84318e-06
7.35711e-06
8.81117e-06
1.02215e-05
1.15978e-05
1.2945e-05
1.42656e-05
1.556e-05
1.68275e-05
1.8067e-05
1.92768e-05
2.04551e-05
2.16e-05
2.27091e-05
2.37794e-05
2.48077e-05
2.57905e-05
2.67242e-05
2.76056e-05
2.84315e-05
2.9199e-05
2.99055e-05
3.05484e-05
3.11256e-05
3.16351e-05
3.2075e-05
3.24439e-05
3.27406e-05
3.2964e-05
3.31134e-05
3.31883e-05
3.31884e-05
3.31137e-05
3.29644e-05
3.27412e-05
3.24446e-05
3.20759e-05
3.16361e-05
3.11268e-05
3.05497e-05
2.99069e-05
2.92006e-05
2.84332e-05
2.76074e-05
2.67261e-05
2.57925e-05
2.48099e-05
2.37817e-05
2.27114e-05
2.16024e-05
2.04575e-05
1.92792e-05
1.80694e-05
1.683e-05
1.55624e-05
1.4268e-05
1.29473e-05
1.15999e-05
1.02236e-05
8.81303e-06
7.35877e-06
5.84458e-06
4.24385e-06
2.51239e-06
4.68151e-09
1.75291e-11
1.756e-11
4.68992e-09
2.5167e-06
4.25082e-06
5.85392e-06
7.37028e-06
8.82664e-06
1.02392e-05
1.16176e-05
1.29669e-05
1.42895e-05
1.55858e-05
1.68553e-05
1.80967e-05
1.93083e-05
2.04884e-05
2.16351e-05
2.27458e-05
2.38179e-05
2.48478e-05
2.5832e-05
2.67672e-05
2.76499e-05
2.84771e-05
2.92458e-05
2.99534e-05
3.05973e-05
3.11754e-05
3.16856e-05
3.21263e-05
3.24958e-05
3.27929e-05
3.30167e-05
3.31663e-05
3.32413e-05
3.32414e-05
3.31666e-05
3.30171e-05
3.27935e-05
3.24965e-05
3.21271e-05
3.16867e-05
3.11766e-05
3.05986e-05
2.99548e-05
2.92474e-05
2.84788e-05
2.76517e-05
2.67691e-05
2.58341e-05
2.48499e-05
2.38201e-05
2.27482e-05
2.16374e-05
2.04908e-05
1.93107e-05
1.80991e-05
1.68578e-05
1.55883e-05
1.42919e-05
1.29692e-05
1.16198e-05
1.02413e-05
8.82853e-06
7.37196e-06
5.85534e-06
4.25194e-06
2.51743e-06
4.69155e-09
1.75664e-11
1.75769e-11
4.69446e-09
2.51899e-06
4.25449e-06
5.85879e-06
7.37627e-06
8.83368e-06
1.02473e-05
1.16266e-05
1.29769e-05
1.43004e-05
1.55976e-05
1.6868e-05
1.81102e-05
1.93227e-05
2.05037e-05
2.16512e-05
2.27627e-05
2.38355e-05
2.48662e-05
2.58511e-05
2.6787e-05
2.76703e-05
2.84981e-05
2.92674e-05
2.99755e-05
3.06199e-05
3.11984e-05
3.1709e-05
3.215e-05
3.25198e-05
3.28171e-05
3.30411e-05
3.31908e-05
3.32658e-05
3.32659e-05
3.3191e-05
3.30415e-05
3.28177e-05
3.25205e-05
3.21509e-05
3.17101e-05
3.11996e-05
3.06212e-05
2.9977e-05
2.9269e-05
2.84999e-05
2.76722e-05
2.6789e-05
2.58532e-05
2.48684e-05
2.38378e-05
2.27651e-05
2.16536e-05
2.05061e-05
1.93252e-05
1.81127e-05
1.68705e-05
1.56001e-05
1.43028e-05
1.29792e-05
1.16288e-05
1.02493e-05
8.83558e-06
7.37797e-06
5.86023e-06
4.25561e-06
2.51972e-06
4.69611e-09
1.75834e-11
1.75841e-11
4.69642e-09
2.51997e-06
4.25607e-06
5.8609e-06
7.37886e-06
8.83672e-06
1.02507e-05
1.16305e-05
1.29812e-05
1.43051e-05
1.56028e-05
1.68735e-05
1.81162e-05
1.9329e-05
2.05104e-05
2.16582e-05
2.27701e-05
2.38433e-05
2.48742e-05
2.58595e-05
2.67957e-05
2.76793e-05
2.85074e-05
2.92769e-05
2.99852e-05
3.06298e-05
3.12085e-05
3.17193e-05
3.21604e-05
3.25303e-05
3.28278e-05
3.30518e-05
3.32016e-05
3.32766e-05
3.32767e-05
3.32018e-05
3.30522e-05
3.28283e-05
3.2531e-05
3.21613e-05
3.17203e-05
3.12097e-05
3.06312e-05
2.99867e-05
2.92785e-05
2.85091e-05
2.76812e-05
2.67977e-05
2.58616e-05
2.48764e-05
2.38455e-05
2.27725e-05
2.16606e-05
2.05128e-05
1.93315e-05
1.81186e-05
1.6876e-05
1.56052e-05
1.43075e-05
1.29835e-05
1.16327e-05
1.02528e-05
8.83864e-06
7.38056e-06
5.86234e-06
4.2572e-06
2.52071e-06
4.69808e-09
1.75907e-11
1.75871e-11
4.69723e-09
2.52038e-06
4.25672e-06
5.86176e-06
7.37993e-06
8.83798e-06
1.02522e-05
1.16321e-05
1.2983e-05
1.43071e-05
1.56049e-05
1.68758e-05
1.81186e-05
1.93316e-05
2.05131e-05
2.16611e-05
2.27732e-05
2.38465e-05
2.48776e-05
2.5863e-05
2.67993e-05
2.76831e-05
2.85112e-05
2.92809e-05
2.99893e-05
3.0634e-05
3.12128e-05
3.17236e-05
3.21648e-05
3.25347e-05
3.28322e-05
3.30563e-05
3.32061e-05
3.32811e-05
3.32812e-05
3.32063e-05
3.30567e-05
3.28328e-05
3.25355e-05
3.21657e-05
3.17247e-05
3.1214e-05
3.06353e-05
2.99908e-05
2.92825e-05
2.8513e-05
2.7685e-05
2.68013e-05
2.58651e-05
2.48798e-05
2.38488e-05
2.27756e-05
2.16635e-05
2.05156e-05
1.93341e-05
1.81211e-05
1.68783e-05
1.56074e-05
1.43095e-05
1.29853e-05
1.16344e-05
1.02543e-05
8.8399e-06
7.38163e-06
5.86321e-06
4.25785e-06
2.52112e-06
4.69889e-09
1.75937e-11
1.75883e-11
4.69754e-09
2.52054e-06
4.25698e-06
5.86211e-06
7.38035e-06
8.83848e-06
1.02528e-05
1.16328e-05
1.29837e-05
1.43079e-05
1.56058e-05
1.68767e-05
1.81196e-05
1.93327e-05
2.05142e-05
2.16623e-05
2.27744e-05
2.38478e-05
2.48789e-05
2.58644e-05
2.68007e-05
2.76846e-05
2.85128e-05
2.92825e-05
2.99909e-05
3.06357e-05
3.12145e-05
3.17253e-05
3.21665e-05
3.25365e-05
3.2834e-05
3.30581e-05
3.32079e-05
3.3283e-05
3.3283e-05
3.32081e-05
3.30585e-05
3.28346e-05
3.25372e-05
3.21674e-05
3.17264e-05
3.12157e-05
3.0637e-05
2.99924e-05
2.92841e-05
2.85145e-05
2.76865e-05
2.68027e-05
2.58665e-05
2.48812e-05
2.38501e-05
2.27768e-05
2.16647e-05
2.05167e-05
1.93352e-05
1.81221e-05
1.68792e-05
1.56082e-05
1.43103e-05
1.2986e-05
1.1635e-05
1.02548e-05
8.8404e-06
7.38206e-06
5.86355e-06
4.25811e-06
2.52128e-06
4.6992e-09
1.75948e-11
1.75887e-11
4.69766e-09
2.5206e-06
4.25707e-06
5.86224e-06
7.38051e-06
8.83866e-06
1.0253e-05
1.1633e-05
1.2984e-05
1.43082e-05
1.56061e-05
1.68771e-05
1.812e-05
1.93331e-05
2.05147e-05
2.16627e-05
2.27749e-05
2.38483e-05
2.48795e-05
2.5865e-05
2.68013e-05
2.76851e-05
2.85134e-05
2.92831e-05
2.99915e-05
3.06363e-05
3.12151e-05
3.1726e-05
3.21672e-05
3.25372e-05
3.28347e-05
3.30588e-05
3.32086e-05
3.32837e-05
3.32837e-05
3.32088e-05
3.30592e-05
3.28353e-05
3.25379e-05
3.21681e-05
3.1727e-05
3.12163e-05
3.06376e-05
2.9993e-05
2.92847e-05
2.85151e-05
2.7687e-05
2.68033e-05
2.58671e-05
2.48817e-05
2.38506e-05
2.27773e-05
2.16652e-05
2.05171e-05
1.93356e-05
1.81225e-05
1.68796e-05
1.56086e-05
1.43106e-05
1.29863e-05
1.16352e-05
1.02551e-05
8.84059e-06
7.38222e-06
5.86368e-06
4.2582e-06
2.52134e-06
4.69932e-09
1.75953e-11
1.75889e-11
4.69771e-09
2.52062e-06
4.25711e-06
5.86228e-06
7.38057e-06
8.83873e-06
1.0253e-05
1.16331e-05
1.29841e-05
1.43083e-05
1.56062e-05
1.68772e-05
1.81201e-05
1.93332e-05
2.05148e-05
2.16629e-05
2.27751e-05
2.38484e-05
2.48796e-05
2.58652e-05
2.68015e-05
2.76854e-05
2.85136e-05
2.92833e-05
2.99918e-05
3.06365e-05
3.12154e-05
3.17262e-05
3.21674e-05
3.25374e-05
3.2835e-05
3.3059e-05
3.32088e-05
3.32839e-05
3.3284e-05
3.32091e-05
3.30594e-05
3.28355e-05
3.25382e-05
3.21683e-05
3.17273e-05
3.12166e-05
3.06379e-05
2.99933e-05
2.92849e-05
2.85154e-05
2.76872e-05
2.68035e-05
2.58673e-05
2.48819e-05
2.38507e-05
2.27774e-05
2.16653e-05
2.05173e-05
1.93357e-05
1.81226e-05
1.68797e-05
1.56087e-05
1.43107e-05
1.29864e-05
1.16353e-05
1.02551e-05
8.84065e-06
7.38228e-06
5.86373e-06
4.25824e-06
2.52136e-06
4.69937e-09
1.75955e-11
1.75889e-11
4.69772e-09
2.52063e-06
4.25712e-06
5.8623e-06
7.38059e-06
8.83876e-06
1.02531e-05
1.16331e-05
1.29841e-05
1.43083e-05
1.56062e-05
1.68773e-05
1.81201e-05
1.93333e-05
2.05149e-05
2.1663e-05
2.27751e-05
2.38485e-05
2.48797e-05
2.58652e-05
2.68016e-05
2.76854e-05
2.85137e-05
2.92834e-05
2.99918e-05
3.06366e-05
3.12154e-05
3.17263e-05
3.21675e-05
3.25375e-05
3.28351e-05
3.30591e-05
3.32089e-05
3.3284e-05
3.32841e-05
3.32092e-05
3.30595e-05
3.28356e-05
3.25383e-05
3.21684e-05
3.17274e-05
3.12166e-05
3.0638e-05
2.99933e-05
2.9285e-05
2.85154e-05
2.76873e-05
2.68036e-05
2.58673e-05
2.48819e-05
2.38508e-05
2.27775e-05
2.16654e-05
2.05174e-05
1.93358e-05
1.81227e-05
1.68798e-05
1.56087e-05
1.43107e-05
1.29865e-05
1.16354e-05
1.02552e-05
8.84068e-06
7.3823e-06
5.86375e-06
4.25825e-06
2.52137e-06
4.69938e-09
1.75955e-11
1.7589e-11
4.69773e-09
2.52063e-06
4.25712e-06
5.8623e-06
7.38059e-06
8.83876e-06
1.02531e-05
1.16331e-05
1.29841e-05
1.43083e-05
1.56063e-05
1.68773e-05
1.81202e-05
1.93333e-05
2.05149e-05
2.1663e-05
2.27752e-05
2.38485e-05
2.48797e-05
2.58653e-05
2.68016e-05
2.76855e-05
2.85137e-05
2.92834e-05
2.99919e-05
3.06366e-05
3.12155e-05
3.17264e-05
3.21676e-05
3.25376e-05
3.28351e-05
3.30591e-05
3.3209e-05
3.3284e-05
3.32841e-05
3.32092e-05
3.30596e-05
3.28357e-05
3.25383e-05
3.21685e-05
3.17274e-05
3.12167e-05
3.0638e-05
2.99934e-05
2.9285e-05
2.85155e-05
2.76873e-05
2.68036e-05
2.58674e-05
2.4882e-05
2.38508e-05
2.27775e-05
2.16654e-05
2.05174e-05
1.93358e-05
1.81227e-05
1.68798e-05
1.56087e-05
1.43107e-05
1.29865e-05
1.16354e-05
1.02552e-05
8.84069e-06
7.3823e-06
5.86375e-06
4.25826e-06
2.52137e-06
4.69939e-09
1.75955e-11
1.7589e-11
4.69773e-09
2.52063e-06
4.25712e-06
5.86231e-06
7.3806e-06
8.83877e-06
1.02531e-05
1.16331e-05
1.29841e-05
1.43083e-05
1.56063e-05
1.68773e-05
1.81202e-05
1.93333e-05
2.05149e-05
2.1663e-05
2.27752e-05
2.38485e-05
2.48797e-05
2.58653e-05
2.68016e-05
2.76855e-05
2.85137e-05
2.92834e-05
2.99919e-05
3.06367e-05
3.12155e-05
3.17264e-05
3.21676e-05
3.25376e-05
3.28351e-05
3.30592e-05
3.3209e-05
3.32841e-05
3.32841e-05
3.32092e-05
3.30596e-05
3.28357e-05
3.25383e-05
3.21685e-05
3.17274e-05
3.12167e-05
3.0638e-05
2.99934e-05
2.9285e-05
2.85155e-05
2.76874e-05
2.68036e-05
2.58674e-05
2.4882e-05
2.38508e-05
2.27775e-05
2.16654e-05
2.05174e-05
1.93358e-05
1.81227e-05
1.68798e-05
1.56087e-05
1.43108e-05
1.29865e-05
1.16354e-05
1.02552e-05
8.84069e-06
7.3823e-06
5.86375e-06
4.25826e-06
2.52137e-06
4.69939e-09
1.75955e-11
1.7589e-11
4.69773e-09
2.52063e-06
4.25713e-06
5.86231e-06
7.3806e-06
8.83877e-06
1.02531e-05
1.16331e-05
1.29841e-05
1.43083e-05
1.56063e-05
1.68773e-05
1.81202e-05
1.93333e-05
2.05149e-05
2.1663e-05
2.27752e-05
2.38485e-05
2.48797e-05
2.58653e-05
2.68016e-05
2.76855e-05
2.85137e-05
2.92834e-05
2.99919e-05
3.06367e-05
3.12155e-05
3.17264e-05
3.21676e-05
3.25376e-05
3.28351e-05
3.30592e-05
3.3209e-05
3.32841e-05
3.32841e-05
3.32092e-05
3.30596e-05
3.28357e-05
3.25383e-05
3.21685e-05
3.17274e-05
3.12167e-05
3.0638e-05
2.99934e-05
2.9285e-05
2.85155e-05
2.76874e-05
2.68036e-05
2.58674e-05
2.4882e-05
2.38508e-05
2.27775e-05
2.16654e-05
2.05174e-05
1.93358e-05
1.81227e-05
1.68798e-05
1.56087e-05
1.43108e-05
1.29865e-05
1.16354e-05
1.02552e-05
8.84069e-06
7.38231e-06
5.86375e-06
4.25826e-06
2.52137e-06
4.69939e-09
1.75955e-11
1.7589e-11
4.69773e-09
2.52063e-06
4.25713e-06
5.86231e-06
7.3806e-06
8.83877e-06
1.02531e-05
1.16331e-05
1.29841e-05
1.43083e-05
1.56063e-05
1.68773e-05
1.81202e-05
1.93333e-05
2.05149e-05
2.1663e-05
2.27752e-05
2.38485e-05
2.48798e-05
2.58653e-05
2.68016e-05
2.76855e-05
2.85137e-05
2.92834e-05
2.99919e-05
3.06367e-05
3.12155e-05
3.17264e-05
3.21676e-05
3.25376e-05
3.28351e-05
3.30592e-05
3.3209e-05
3.32841e-05
3.32841e-05
3.32092e-05
3.30596e-05
3.28357e-05
3.25383e-05
3.21685e-05
3.17274e-05
3.12167e-05
3.0638e-05
2.99934e-05
2.9285e-05
2.85155e-05
2.76874e-05
2.68036e-05
2.58674e-05
2.4882e-05
2.38508e-05
2.27775e-05
2.16654e-05
2.05174e-05
1.93358e-05
1.81227e-05
1.68798e-05
1.56087e-05
1.43108e-05
1.29865e-05
1.16354e-05
1.02552e-05
8.84069e-06
7.38231e-06
5.86375e-06
4.25826e-06
2.52137e-06
4.69939e-09
1.75955e-11
1.7589e-11
4.69773e-09
2.52063e-06
4.25713e-06
5.86231e-06
7.3806e-06
8.83877e-06
1.02531e-05
1.16331e-05
1.29841e-05
1.43083e-05
1.56063e-05
1.68773e-05
1.81202e-05
1.93333e-05
2.05149e-05
2.1663e-05
2.27752e-05
2.38485e-05
2.48798e-05
2.58653e-05
2.68016e-05
2.76855e-05
2.85137e-05
2.92834e-05
2.99919e-05
3.06367e-05
3.12155e-05
3.17264e-05
3.21676e-05
3.25376e-05
3.28351e-05
3.30592e-05
3.3209e-05
3.32841e-05
3.32841e-05
3.32092e-05
3.30596e-05
3.28357e-05
3.25383e-05
3.21685e-05
3.17274e-05
3.12167e-05
3.0638e-05
2.99934e-05
2.9285e-05
2.85155e-05
2.76874e-05
2.68036e-05
2.58674e-05
2.4882e-05
2.38508e-05
2.27775e-05
2.16654e-05
2.05174e-05
1.93358e-05
1.81227e-05
1.68798e-05
1.56087e-05
1.43108e-05
1.29865e-05
1.16354e-05
1.02552e-05
8.84069e-06
7.38231e-06
5.86375e-06
4.25826e-06
2.52137e-06
4.69939e-09
1.75955e-11
1.7589e-11
4.69773e-09
2.52063e-06
4.25713e-06
5.86231e-06
7.3806e-06
8.83877e-06
1.02531e-05
1.16331e-05
1.29841e-05
1.43083e-05
1.56063e-05
1.68773e-05
1.81202e-05
1.93333e-05
2.05149e-05
2.1663e-05
2.27752e-05
2.38485e-05
2.48798e-05
2.58653e-05
2.68016e-05
2.76855e-05
2.85137e-05
2.92834e-05
2.99919e-05
3.06367e-05
3.12155e-05
3.17264e-05
3.21676e-05
3.25376e-05
3.28351e-05
3.30592e-05
3.3209e-05
3.32841e-05
3.32841e-05
3.32092e-05
3.30596e-05
3.28357e-05
3.25383e-05
3.21685e-05
3.17274e-05
3.12167e-05
3.0638e-05
2.99934e-05
2.9285e-05
2.85155e-05
2.76874e-05
2.68036e-05
2.58674e-05
2.4882e-05
2.38508e-05
2.27775e-05
2.16654e-05
2.05174e-05
1.93358e-05
1.81227e-05
1.68798e-05
1.56087e-05
1.43108e-05
1.29865e-05
1.16354e-05
1.02552e-05
8.84069e-06
7.38231e-06
5.86375e-06
4.25826e-06
2.52137e-06
4.69939e-09
1.75955e-11
1.7589e-11
4.69773e-09
2.52063e-06
4.25713e-06
5.86231e-06
7.3806e-06
8.83877e-06
1.02531e-05
1.16331e-05
1.29841e-05
1.43083e-05
1.56063e-05
1.68773e-05
1.81202e-05
1.93333e-05
2.05149e-05
2.1663e-05
2.27752e-05
2.38485e-05
2.48798e-05
2.58653e-05
2.68016e-05
2.76855e-05
2.85137e-05
2.92834e-05
2.99919e-05
3.06367e-05
3.12155e-05
3.17264e-05
3.21676e-05
3.25376e-05
3.28351e-05
3.30592e-05
3.3209e-05
3.32841e-05
3.32841e-05
3.32092e-05
3.30596e-05
3.28357e-05
3.25383e-05
3.21685e-05
3.17274e-05
3.12167e-05
3.0638e-05
2.99934e-05
2.9285e-05
2.85155e-05
2.76874e-05
2.68036e-05
2.58674e-05
2.4882e-05
2.38508e-05
2.27775e-05
2.16654e-05
2.05174e-05
1.93358e-05
1.81227e-05
1.68798e-05
1.56087e-05
1.43108e-05
1.29865e-05
1.16354e-05
1.02552e-05
8.84069e-06
7.38231e-06
5.86375e-06
4.25826e-06
2.52137e-06
4.69939e-09
1.75955e-11
1.7589e-11
4.69773e-09
2.52063e-06
4.25713e-06
5.86231e-06
7.3806e-06
8.83877e-06
1.02531e-05
1.16331e-05
1.29841e-05
1.43083e-05
1.56063e-05
1.68773e-05
1.81202e-05
1.93333e-05
2.05149e-05
2.1663e-05
2.27752e-05
2.38485e-05
2.48798e-05
2.58653e-05
2.68016e-05
2.76855e-05
2.85137e-05
2.92834e-05
2.99919e-05
3.06367e-05
3.12155e-05
3.17264e-05
3.21676e-05
3.25376e-05
3.28351e-05
3.30592e-05
3.3209e-05
3.32841e-05
3.32841e-05
3.32092e-05
3.30596e-05
3.28357e-05
3.25383e-05
3.21685e-05
3.17274e-05
3.12167e-05
3.0638e-05
2.99934e-05
2.9285e-05
2.85155e-05
2.76874e-05
2.68036e-05
2.58674e-05
2.4882e-05
2.38508e-05
2.27775e-05
2.16654e-05
2.05174e-05
1.93358e-05
1.81227e-05
1.68798e-05
1.56087e-05
1.43108e-05
1.29865e-05
1.16354e-05
1.02552e-05
8.84069e-06
7.38231e-06
5.86375e-06
4.25826e-06
2.52137e-06
4.69939e-09
1.75955e-11
1.7589e-11
4.69773e-09
2.52063e-06
4.25713e-06
5.86231e-06
7.3806e-06
8.83877e-06
1.02531e-05
1.16331e-05
1.29841e-05
1.43083e-05
1.56063e-05
1.68773e-05
1.81202e-05
1.93333e-05
2.05149e-05
2.1663e-05
2.27752e-05
2.38485e-05
2.48798e-05
2.58653e-05
2.68016e-05
2.76855e-05
2.85137e-05
2.92834e-05
2.99919e-05
3.06367e-05
3.12155e-05
3.17264e-05
3.21676e-05
3.25376e-05
3.28351e-05
3.30592e-05
3.3209e-05
3.32841e-05
3.32841e-05
3.32092e-05
3.30596e-05
3.28357e-05
3.25383e-05
3.21685e-05
3.17274e-05
3.12167e-05
3.0638e-05
2.99934e-05
2.9285e-05
2.85155e-05
2.76874e-05
2.68036e-05
2.58674e-05
2.4882e-05
2.38508e-05
2.27775e-05
2.16654e-05
2.05174e-05
1.93358e-05
1.81227e-05
1.68798e-05
1.56087e-05
1.43108e-05
1.29865e-05
1.16354e-05
1.02552e-05
8.84069e-06
7.38231e-06
5.86375e-06
4.25826e-06
2.52137e-06
4.69939e-09
1.75955e-11
1.7589e-11
4.69773e-09
2.52063e-06
4.25713e-06
5.86231e-06
7.3806e-06
8.83877e-06
1.02531e-05
1.16331e-05
1.29841e-05
1.43083e-05
1.56063e-05
1.68773e-05
1.81202e-05
1.93333e-05
2.05149e-05
2.1663e-05
2.27752e-05
2.38485e-05
2.48798e-05
2.58653e-05
2.68016e-05
2.76855e-05
2.85137e-05
2.92834e-05
2.99919e-05
3.06367e-05
3.12155e-05
3.17264e-05
3.21676e-05
3.25376e-05
3.28351e-05
3.30592e-05
3.3209e-05
3.32841e-05
3.32841e-05
3.32092e-05
3.30596e-05
3.28357e-05
3.25383e-05
3.21685e-05
3.17274e-05
3.12167e-05
3.0638e-05
2.99934e-05
2.9285e-05
2.85155e-05
2.76874e-05
2.68036e-05
2.58674e-05
2.4882e-05
2.38508e-05
2.27775e-05
2.16654e-05
2.05174e-05
1.93358e-05
1.81227e-05
1.68798e-05
1.56087e-05
1.43108e-05
1.29865e-05
1.16354e-05
1.02552e-05
8.84069e-06
7.38231e-06
5.86375e-06
4.25826e-06
2.52137e-06
4.69939e-09
1.75955e-11
1.7589e-11
4.69773e-09
2.52063e-06
4.25713e-06
5.86231e-06
7.3806e-06
8.83877e-06
1.02531e-05
1.16331e-05
1.29841e-05
1.43083e-05
1.56063e-05
1.68773e-05
1.81202e-05
1.93333e-05
2.05149e-05
2.1663e-05
2.27752e-05
2.38485e-05
2.48798e-05
2.58653e-05
2.68016e-05
2.76855e-05
2.85137e-05
2.92834e-05
2.99919e-05
3.06367e-05
3.12155e-05
3.17264e-05
3.21676e-05
3.25376e-05
3.28351e-05
3.30592e-05
3.3209e-05
3.32841e-05
3.32841e-05
3.32092e-05
3.30596e-05
3.28357e-05
3.25383e-05
3.21685e-05
3.17274e-05
3.12167e-05
3.0638e-05
2.99934e-05
2.9285e-05
2.85155e-05
2.76874e-05
2.68036e-05
2.58674e-05
2.4882e-05
2.38508e-05
2.27775e-05
2.16654e-05
2.05174e-05
1.93358e-05
1.81227e-05
1.68798e-05
1.56087e-05
1.43108e-05
1.29865e-05
1.16354e-05
1.02552e-05
8.84069e-06
7.38231e-06
5.86375e-06
4.25826e-06
2.52137e-06
4.69939e-09
1.75955e-11
1.7589e-11
4.69773e-09
2.52063e-06
4.25713e-06
5.86231e-06
7.3806e-06
8.83877e-06
1.02531e-05
1.16331e-05
1.29841e-05
1.43083e-05
1.56063e-05
1.68773e-05
1.81202e-05
1.93333e-05
2.05149e-05
2.1663e-05
2.27752e-05
2.38485e-05
2.48798e-05
2.58653e-05
2.68016e-05
2.76855e-05
2.85137e-05
2.92834e-05
2.99919e-05
3.06367e-05
3.12155e-05
3.17264e-05
3.21676e-05
3.25376e-05
3.28351e-05
3.30592e-05
3.3209e-05
3.32841e-05
3.32841e-05
3.32092e-05
3.30596e-05
3.28357e-05
3.25383e-05
3.21685e-05
3.17274e-05
3.12167e-05
3.0638e-05
2.99934e-05
2.9285e-05
2.85155e-05
2.76874e-05
2.68036e-05
2.58674e-05
2.4882e-05
2.38508e-05
2.27775e-05
2.16654e-05
2.05174e-05
1.93358e-05
1.81227e-05
1.68798e-05
1.56087e-05
1.43108e-05
1.29865e-05
1.16354e-05
1.02552e-05
8.84069e-06
7.38231e-06
5.86375e-06
4.25826e-06
2.52137e-06
4.69939e-09
1.75955e-11
1.7589e-11
4.69773e-09
2.52063e-06
4.25713e-06
5.86231e-06
7.3806e-06
8.83877e-06
1.02531e-05
1.16331e-05
1.29841e-05
1.43083e-05
1.56063e-05
1.68773e-05
1.81202e-05
1.93333e-05
2.05149e-05
2.1663e-05
2.27752e-05
2.38485e-05
2.48798e-05
2.58653e-05
2.68016e-05
2.76855e-05
2.85137e-05
2.92834e-05
2.99919e-05
3.06367e-05
3.12155e-05
3.17264e-05
3.21676e-05
3.25376e-05
3.28351e-05
3.30592e-05
3.3209e-05
3.32841e-05
3.32841e-05
3.32092e-05
3.30596e-05
3.28357e-05
3.25383e-05
3.21685e-05
3.17274e-05
3.12167e-05
3.0638e-05
2.99934e-05
2.9285e-05
2.85155e-05
2.76874e-05
2.68036e-05
2.58674e-05
2.4882e-05
2.38508e-05
2.27775e-05
2.16654e-05
2.05174e-05
1.93358e-05
1.81227e-05
1.68798e-05
1.56087e-05
1.43108e-05
1.29865e-05
1.16354e-05
1.02552e-05
8.84069e-06
7.38231e-06
5.86375e-06
4.25826e-06
2.52137e-06
4.69939e-09
1.75955e-11
1.7589e-11
4.69773e-09
2.52063e-06
4.25713e-06
5.86231e-06
7.3806e-06
8.83877e-06
1.02531e-05
1.16331e-05
1.29841e-05
1.43083e-05
1.56063e-05
1.68773e-05
1.81202e-05
1.93333e-05