/*--------------------------------*- C++ -*----------------------------------*\
  =========                 |
  \\      /  F ield         | OpenFOAM: The Open Source CFD Toolbox
   \\    /   O peration     | Website:  https://openfoam.org
    \\  /    A nd           | Version:  13
     \\/     M anipulation  |
\*---------------------------------------------------------------------------*/
FoamFile
{
    format      ascii;
    class       volScalarField;
    location    "80";
    object      rhok;
}
// * * * * * * * * * * * * * * * * * * * * * * * * * * * * * * * * * * * * * //

dimensions      [];

internalField   nonuniform List<scalar> 
315000
(
0.444567
0.427476
0.414197
0.41278
0.411981
0.411143
0.410278
0.409397
0.408507
0.407616
0.406725
0.405837
0.404954
0.404077
0.403207
0.402343
0.401486
0.400637
0.399795
0.398962
0.398138
0.397322
0.396515
0.395718
0.394931
0.394154
0.393388
0.392632
0.391888
0.391154
0.390432
0.389722
0.389023
0.388335
0.38766
0.386997
0.386345
0.385705
0.385077
0.384461
0.383857
0.383264
0.382682
0.382112
0.381552
0.381004
0.380466
0.379939
0.379421
0.378913
0.378415
0.377926
0.377445
0.376973
0.376509
0.376053
0.375603
0.37516
0.374724
0.374293
0.373868
0.373448
0.373031
0.372619
0.37221
0.371804
0.371401
0.370999
0.370599
0.370199
0.44459
0.428359
0.41398
0.412565
0.41179
0.410985
0.410153
0.409302
0.408438
0.407565
0.406689
0.405811
0.404935
0.404062
0.403194
0.402332
0.401476
0.400627
0.399786
0.398952
0.398128
0.397312
0.396505
0.395708
0.394921
0.394143
0.393377
0.392621
0.391876
0.391143
0.390421
0.38971
0.389011
0.388324
0.387648
0.386985
0.386333
0.385693
0.385066
0.38445
0.383845
0.383252
0.382671
0.382101
0.381542
0.380994
0.380456
0.379929
0.379412
0.378904
0.378406
0.377918
0.377437
0.376966
0.376502
0.376046
0.375597
0.375155
0.374719
0.374288
0.373863
0.373444
0.373028
0.372616
0.372208
0.371802
0.371399
0.370998
0.370598
0.370199
0.444576
0.427835
0.414074
0.41267
0.411885
0.411062
0.410211
0.409343
0.408464
0.407581
0.406696
0.405813
0.404934
0.404059
0.403189
0.402326
0.40147
0.40062
0.399779
0.398945
0.39812
0.397304
0.396497
0.3957
0.394913
0.394135
0.393369
0.392613
0.391868
0.391134
0.390412
0.389701
0.389002
0.388315
0.387639
0.386976
0.386324
0.385685
0.385057
0.384441
0.383837
0.383244
0.382663
0.382093
0.381534
0.380986
0.380449
0.379922
0.379405
0.378898
0.3784
0.377911
0.377431
0.37696
0.376497
0.376041
0.375592
0.37515
0.374714
0.374285
0.37386
0.37344
0.373025
0.372614
0.372206
0.371801
0.371398
0.370997
0.370597
0.370199
0.444538
0.426372
0.414724
0.413083
0.412156
0.41123
0.41031
0.409396
0.40849
0.40759
0.406697
0.405809
0.404928
0.404052
0.403183
0.40232
0.401464
0.400615
0.399774
0.39894
0.398115
0.397299
0.396492
0.395695
0.394907
0.39413
0.393363
0.392607
0.391862
0.391128
0.390406
0.389695
0.388996
0.388309
0.387633
0.38697
0.386318
0.385679
0.385051
0.384435
0.383831
0.383238
0.382657
0.382087
0.381528
0.38098
0.380443
0.379916
0.3794
0.378893
0.378395
0.377907
0.377427
0.376956
0.376493
0.376037
0.375589
0.375147
0.374711
0.374282
0.373858
0.373438
0.373023
0.372612
0.372204
0.3718
0.371397
0.370996
0.370597
0.370199
0.444475
0.422753
0.416473
0.414196
0.412618
0.411394
0.410347
0.409386
0.408467
0.407569
0.40668
0.405798
0.404921
0.404048
0.40318
0.402318
0.401463
0.400614
0.399772
0.398939
0.398113
0.397297
0.39649
0.395692
0.394904
0.394127
0.39336
0.392604
0.391858
0.391125
0.390402
0.389691
0.388992
0.388305
0.387629
0.386966
0.386314
0.385675
0.385047
0.384431
0.383827
0.383234
0.382653
0.382083
0.381525
0.380977
0.38044
0.379913
0.379396
0.378889
0.378392
0.377904
0.377424
0.376953
0.37649
0.376035
0.375586
0.375145
0.374709
0.37428
0.373856
0.373437
0.373022
0.372611
0.372203
0.371799
0.371396
0.370996
0.370597
0.370198
0.444576
0.427822
0.414103
0.4127
0.411907
0.411074
0.410217
0.409344
0.408463
0.407578
0.406692
0.405809
0.404929
0.404054
0.403184
0.402321
0.401464
0.400614
0.399772
0.398938
0.398113
0.397296
0.396489
0.395691
0.394903
0.394125
0.393358
0.392602
0.391857
0.391123
0.3904
0.389689
0.38899
0.388303
0.387627
0.386964
0.386312
0.385673
0.385045
0.384429
0.383825
0.383232
0.382651
0.382081
0.381523
0.380975
0.380438
0.379911
0.379394
0.378887
0.37839
0.377902
0.377422
0.376951
0.376488
0.376033
0.375585
0.375143
0.374708
0.374279
0.373855
0.373436
0.373021
0.37261
0.372203
0.371798
0.371396
0.370996
0.370597
0.370198
0.444539
0.426391
0.414726
0.413099
0.412186
0.41126
0.410337
0.409418
0.408507
0.407602
0.406705
0.405815
0.404931
0.404054
0.403184
0.40232
0.401463
0.400614
0.399772
0.398938
0.398113
0.397296
0.396489
0.395691
0.394903
0.394125
0.393358
0.392602
0.391857
0.391123
0.3904
0.389689
0.38899
0.388302
0.387627
0.386963
0.386312
0.385672
0.385044
0.384428
0.383824
0.383231
0.38265
0.38208
0.381522
0.380974
0.380437
0.37991
0.379393
0.378887
0.378389
0.377901
0.377422
0.376951
0.376488
0.376032
0.375584
0.375143
0.374708
0.374278
0.373854
0.373435
0.373021
0.37261
0.372202
0.371798
0.371396
0.370996
0.370597
0.370198
0.444566
0.427423
0.414199
0.412796
0.411994
0.411146
0.410272
0.409384
0.40849
0.407596
0.406704
0.405816
0.404934
0.404057
0.403187
0.402323
0.401466
0.400616
0.399774
0.39894
0.398114
0.397298
0.39649
0.395692
0.394904
0.394126
0.393359
0.392603
0.391857
0.391123
0.3904
0.389689
0.38899
0.388303
0.387627
0.386963
0.386312
0.385672
0.385044
0.384428
0.383824
0.383231
0.38265
0.38208
0.381522
0.380974
0.380437
0.37991
0.379393
0.378886
0.378389
0.377901
0.377421
0.37695
0.376487
0.376032
0.375584
0.375142
0.374707
0.374278
0.373854
0.373435
0.37302
0.37261
0.372202
0.371798
0.371396
0.370995
0.370597
0.370198
0.444539
0.426387
0.414709
0.41308
0.412167
0.411244
0.410324
0.409409
0.4085
0.407599
0.406703
0.405814
0.404932
0.404055
0.403186
0.402322
0.401466
0.400616
0.399774
0.39894
0.398115
0.397298
0.396491
0.395693
0.394905
0.394127
0.39336
0.392603
0.391858
0.391124
0.390401
0.38969
0.388991
0.388303
0.387628
0.386964
0.386312
0.385672
0.385045
0.384429
0.383824
0.383232
0.38265
0.382081
0.381522
0.380974
0.380437
0.37991
0.379393
0.378887
0.378389
0.377901
0.377422
0.376951
0.376488
0.376032
0.375584
0.375143
0.374707
0.374278
0.373854
0.373435
0.373021
0.37261
0.372202
0.371798
0.371396
0.370995
0.370597
0.370198
0.44459
0.428349
0.413987
0.412577
0.411798
0.410986
0.410148
0.409293
0.408426
0.407552
0.406676
0.405798
0.404923
0.404051
0.403184
0.402321
0.401466
0.400616
0.399775
0.398941
0.398115
0.397299
0.396491
0.395694
0.394906
0.394128
0.393361
0.392604
0.391859
0.391125
0.390402
0.389691
0.388992
0.388304
0.387628
0.386965
0.386313
0.385673
0.385045
0.384429
0.383825
0.383232
0.382651
0.382081
0.381522
0.380975
0.380437
0.379911
0.379394
0.378887
0.37839
0.377901
0.377422
0.376951
0.376488
0.376033
0.375584
0.375143
0.374708
0.374278
0.373854
0.373435
0.373021
0.37261
0.372203
0.371798
0.371396
0.370996
0.370597
0.370198
0.444555
0.427003
0.414369
0.412895
0.412055
0.411179
0.410284
0.409384
0.408484
0.407588
0.406696
0.40581
0.404929
0.404054
0.403184
0.402322
0.401465
0.400616
0.399775
0.398941
0.398116
0.397299
0.396492
0.395694
0.394906
0.394128
0.393361
0.392605
0.391859
0.391125
0.390403
0.389692
0.388992
0.388305
0.387629
0.386965
0.386314
0.385674
0.385046
0.38443
0.383826
0.383233
0.382652
0.382082
0.381523
0.380975
0.380438
0.379911
0.379395
0.378888
0.37839
0.377902
0.377423
0.376951
0.376488
0.376033
0.375585
0.375143
0.374708
0.374279
0.373855
0.373436
0.373021
0.37261
0.372203
0.371798
0.371396
0.370996
0.370597
0.370198
0.444491
0.424399
0.416931
0.413154
0.412026
0.411202
0.410305
0.409392
0.408483
0.407583
0.40669
0.405805
0.404925
0.404051
0.403183
0.402321
0.401465
0.400616
0.399775
0.398941
0.398116
0.3973
0.396492
0.395694
0.394907
0.394129
0.393362
0.392605
0.39186
0.391126
0.390403
0.389692
0.388993
0.388305
0.38763
0.386966
0.386314
0.385675
0.385047
0.384431
0.383826
0.383234
0.382653
0.382083
0.381524
0.380976
0.380439
0.379912
0.379395
0.378888
0.378391
0.377903
0.377423
0.376952
0.376489
0.376033
0.375585
0.375144
0.374708
0.374279
0.373855
0.373436
0.373021
0.37261
0.372203
0.371798
0.371396
0.370996
0.370597
0.370198
0.444576
0.427827
0.414087
0.412682
0.411895
0.41107
0.410217
0.409347
0.408467
0.407583
0.406697
0.405814
0.404934
0.404058
0.403188
0.402325
0.401468
0.400618
0.399776
0.398942
0.398117
0.3973
0.396493
0.395695
0.394907
0.394129
0.393362
0.392606
0.391861
0.391127
0.390404
0.389693
0.388994
0.388306
0.38763
0.386967
0.386315
0.385675
0.385047
0.384431
0.383827
0.383234
0.382653
0.382083
0.381524
0.380977
0.380439
0.379912
0.379396
0.378889
0.378391
0.377903
0.377423
0.376952
0.376489
0.376034
0.375585
0.375144
0.374709
0.374279
0.373855
0.373436
0.373021
0.37261
0.372203
0.371798
0.371396
0.370996
0.370597
0.370198
0.444576
0.42783
0.414089
0.412677
0.411892
0.411068
0.410215
0.409345
0.408465
0.407582
0.406697
0.405814
0.404934
0.404059
0.403189
0.402325
0.401468
0.400619
0.399777
0.398943
0.398117
0.397301
0.396493
0.395695
0.394908
0.39413
0.393363
0.392606
0.391861
0.391127
0.390405
0.389693
0.388994
0.388307
0.387631
0.386967
0.386316
0.385676
0.385048
0.384432
0.383828
0.383235
0.382654
0.382084
0.381525
0.380977
0.38044
0.379913
0.379396
0.378889
0.378392
0.377903
0.377424
0.376953
0.37649
0.376034
0.375586
0.375144
0.374709
0.374279
0.373855
0.373436
0.373021
0.372611
0.372203
0.371798
0.371396
0.370996
0.370597
0.370198
0.444491
0.424402
0.416935
0.413159
0.412031
0.411206
0.410307
0.409394
0.408485
0.407584
0.406692
0.405806
0.404927
0.404053
0.403185
0.402323
0.401467
0.400618
0.399777
0.398943
0.398118
0.397301
0.396494
0.395696
0.394908
0.394131
0.393363
0.392607
0.391862
0.391128
0.390405
0.389694
0.388995
0.388307
0.387632
0.386968
0.386316
0.385676
0.385048
0.384432
0.383828
0.383235
0.382654
0.382084
0.381525
0.380977
0.38044
0.379913
0.379396
0.378889
0.378392
0.377904
0.377424
0.376953
0.37649
0.376034
0.375586
0.375144
0.374709
0.37428
0.373856
0.373436
0.373022
0.372611
0.372203
0.371799
0.371396
0.370996
0.370597
0.370198
0.444555
0.427005
0.414391
0.412925
0.412084
0.411204
0.410306
0.409403
0.4085
0.4076
0.406706
0.405817
0.404935
0.404058
0.403188
0.402325
0.401468
0.400619
0.399777
0.398944
0.398118
0.397302
0.396494
0.395697
0.394909
0.394131
0.393364
0.392608
0.391862
0.391128
0.390405
0.389694
0.388995
0.388307
0.387632
0.386968
0.386316
0.385677
0.385049
0.384433
0.383828
0.383236
0.382654
0.382084
0.381525
0.380978
0.38044
0.379913
0.379397
0.37889
0.378392
0.377904
0.377424
0.376953
0.37649
0.376034
0.375586
0.375144
0.374709
0.37428
0.373856
0.373436
0.373022
0.372611
0.372203
0.371799
0.371396
0.370996
0.370597
0.370198
0.444576
0.427814
0.41409
0.412694
0.411911
0.411085
0.410231
0.409359
0.408476
0.40759
0.406703
0.405818
0.404938
0.404062
0.403192
0.402328
0.401471
0.400622
0.39978
0.398946
0.39812
0.397303
0.396496
0.395698
0.39491
0.394132
0.393365
0.392608
0.391863
0.391129
0.390406
0.389695
0.388995
0.388308
0.387632
0.386968
0.386317
0.385677
0.385049
0.384433
0.383828
0.383236
0.382654
0.382084
0.381526
0.380978
0.38044
0.379913
0.379397
0.37889
0.378392
0.377904
0.377424
0.376953
0.37649
0.376035
0.375586
0.375145
0.374709
0.37428
0.373856
0.373436
0.373022
0.372611
0.372203
0.371799
0.371396
0.370996
0.370597
0.370198
0.444555
0.427026
0.414372
0.4129
0.412064
0.411192
0.410301
0.409404
0.408504
0.407607
0.406713
0.405825
0.404942
0.404065
0.403195
0.402331
0.401474
0.400624
0.399782
0.398948
0.398122
0.397305
0.396497
0.395699
0.394911
0.394133
0.393366
0.392609
0.391864
0.391129
0.390407
0.389695
0.388996
0.388308
0.387633
0.386969
0.386317
0.385677
0.385049
0.384433
0.383829
0.383236
0.382655
0.382085
0.381526
0.380978
0.38044
0.379914
0.379397
0.37889
0.378392
0.377904
0.377424
0.376953
0.37649
0.376035
0.375586
0.375145
0.374709
0.37428
0.373856
0.373437
0.373022
0.372611
0.372203
0.371799
0.371396
0.370996
0.370597
0.370198
0.44459
0.428361
0.41397
0.412554
0.411778
0.410973
0.410144
0.409295
0.408434
0.407563
0.406689
0.405812
0.404937
0.404065
0.403197
0.402334
0.401477
0.400627
0.399785
0.398951
0.398125
0.397307
0.396499
0.395701
0.394913
0.394135
0.393367
0.39261
0.391865
0.39113
0.390407
0.389696
0.388997
0.388309
0.387633
0.386969
0.386317
0.385677
0.385049
0.384433
0.383829
0.383236
0.382655
0.382085
0.381526
0.380978
0.38044
0.379914
0.379397
0.37889
0.378392
0.377904
0.377424
0.376953
0.37649
0.376035
0.375586
0.375145
0.374709
0.37428
0.373856
0.373437
0.373022
0.372611
0.372203
0.371799
0.371396
0.370996
0.370597
0.370198
0.44459
0.428371
0.413949
0.412526
0.411752
0.410952
0.410128
0.409285
0.408428
0.407562
0.406689
0.405815
0.40494
0.404068
0.4032
0.402337
0.401481
0.40063
0.399788
0.398953
0.398127
0.39731
0.396501
0.395703
0.394914
0.394136
0.393368
0.392611
0.391866
0.391131
0.390408
0.389697
0.388997
0.388309
0.387633
0.386969
0.386318
0.385678
0.385049
0.384433
0.383829
0.383236
0.382655
0.382085
0.381526
0.380978
0.380441
0.379914
0.379397
0.37889
0.378392
0.377904
0.377424
0.376953
0.37649
0.376035
0.375586
0.375145
0.374709
0.37428
0.373856
0.373437
0.373022
0.372611
0.372203
0.371799
0.371396
0.370996
0.370597
0.370198
0.44459
0.428372
0.413951
0.412528
0.411754
0.410954
0.41013
0.409288
0.408431
0.407564
0.406692
0.405817
0.404943
0.404071
0.403203
0.40234
0.401483
0.400632
0.39979
0.398955
0.398129
0.397311
0.396503
0.395704
0.394915
0.394137
0.393369
0.392612
0.391866
0.391132
0.390409
0.389697
0.388997
0.38831
0.387634
0.38697
0.386318
0.385678
0.38505
0.384433
0.383829
0.383236
0.382655
0.382085
0.381526
0.380978
0.380441
0.379914
0.379397
0.37889
0.378392
0.377904
0.377424
0.376953
0.37649
0.376035
0.375586
0.375145
0.374709
0.37428
0.373856
0.373437
0.373022
0.372611
0.372203
0.371799
0.371396
0.370996
0.370597
0.370198
0.44459
0.428373
0.413952
0.412529
0.411755
0.410955
0.410132
0.409289
0.408432
0.407566
0.406693
0.405819
0.404944
0.404072
0.403204
0.402341
0.401484
0.400633
0.399791
0.398956
0.398129
0.397312
0.396503
0.395705
0.394916
0.394137
0.39337
0.392613
0.391867
0.391132
0.390409
0.389697
0.388998
0.38831
0.387634
0.38697
0.386318
0.385678
0.38505
0.384433
0.383829
0.383236
0.382655
0.382085
0.381526
0.380978
0.380441
0.379914
0.379397
0.37889
0.378392
0.377904
0.377424
0.376953
0.37649
0.376035
0.375586
0.375145
0.374709
0.37428
0.373856
0.373437
0.373022
0.372611
0.372203
0.371799
0.371396
0.370996
0.370597
0.370198
0.44459
0.428373
0.413952
0.41253
0.411756
0.410956
0.410132
0.40929
0.408433
0.407566
0.406694
0.405819
0.404945
0.404073
0.403204
0.402341
0.401484
0.400634
0.399791
0.398956
0.39813
0.397312
0.396504
0.395705
0.394916
0.394138
0.39337
0.392613
0.391867
0.391132
0.390409
0.389697
0.388998
0.38831
0.387634
0.38697
0.386318
0.385678
0.38505
0.384433
0.383829
0.383236
0.382655
0.382085
0.381526
0.380978
0.38044
0.379914
0.379397
0.37889
0.378392
0.377904
0.377424
0.376953
0.37649
0.376035
0.375586
0.375145
0.374709
0.37428
0.373856
0.373436
0.373022
0.372611
0.372203
0.371799
0.371396
0.370996
0.370597
0.370198
0.44459
0.428374
0.413953
0.41253
0.411756
0.410956
0.410132
0.40929
0.408433
0.407567
0.406694
0.40582
0.404945
0.404073
0.403205
0.402341
0.401484
0.400634
0.399791
0.398956
0.39813
0.397312
0.396504
0.395705
0.394916
0.394138
0.39337
0.392613
0.391867
0.391132
0.390409
0.389697
0.388998
0.38831
0.387634
0.38697
0.386318
0.385678
0.38505
0.384433
0.383829
0.383236
0.382655
0.382085
0.381526
0.380978
0.38044
0.379914
0.379397
0.37889
0.378392
0.377904
0.377424
0.376953
0.37649
0.376035
0.375586
0.375145
0.374709
0.37428
0.373856
0.373436
0.373022
0.372611
0.372203
0.371799
0.371396
0.370996
0.370597
0.370198
0.44459
0.428374
0.413953
0.41253
0.411756
0.410956
0.410132
0.40929
0.408433
0.407567
0.406694
0.40582
0.404945
0.404073
0.403205
0.402342
0.401484
0.400634
0.399791
0.398956
0.39813
0.397312
0.396504
0.395705
0.394916
0.394138
0.39337
0.392613
0.391867
0.391132
0.390409
0.389697
0.388998
0.38831
0.387634
0.38697
0.386318
0.385678
0.38505
0.384433
0.383829
0.383236
0.382655
0.382085
0.381526
0.380978
0.38044
0.379914
0.379397
0.37889
0.378392
0.377904
0.377424
0.376953
0.37649
0.376035
0.375586
0.375145
0.374709
0.37428
0.373856
0.373436
0.373022
0.372611
0.372203
0.371799
0.371396
0.370996
0.370597
0.370198
0.44459
0.428374
0.413953
0.41253
0.411756
0.410956
0.410132
0.40929
0.408433
0.407567
0.406694
0.40582
0.404945
0.404073
0.403205
0.402342
0.401484
0.400634
0.399791
0.398956
0.39813
0.397312
0.396504
0.395705
0.394916
0.394138
0.39337
0.392613
0.391867
0.391132
0.390409
0.389697
0.388998
0.38831
0.387634
0.38697
0.386318
0.385678
0.38505
0.384433
0.383829
0.383236
0.382655
0.382085
0.381526
0.380978
0.38044
0.379914
0.379397
0.37889
0.378392
0.377904
0.377424
0.376953
0.37649
0.376035
0.375586
0.375145
0.374709
0.37428
0.373856
0.373436
0.373022
0.372611
0.372203
0.371799
0.371396
0.370996
0.370597
0.370198
0.44459
0.428374
0.413953
0.41253
0.411756
0.410956
0.410132
0.40929
0.408433
0.407567
0.406694
0.40582
0.404945
0.404073
0.403205
0.402342
0.401484
0.400634
0.399791
0.398956
0.39813
0.397312
0.396504
0.395705
0.394916
0.394138
0.39337
0.392613
0.391867
0.391132
0.390409
0.389697
0.388998
0.38831
0.387634
0.38697
0.386318
0.385678
0.38505
0.384433
0.383829
0.383236
0.382655
0.382085
0.381526
0.380978
0.38044
0.379914
0.379397
0.37889
0.378392
0.377904
0.377424
0.376953
0.37649
0.376035
0.375586
0.375145
0.374709
0.37428
0.373856
0.373436
0.373022
0.372611
0.372203
0.371799
0.371396
0.370996
0.370597
0.370198
0.44459
0.428374
0.413953
0.41253
0.411756
0.410956
0.410132
0.40929
0.408433
0.407567
0.406694
0.40582
0.404945
0.404073
0.403205
0.402342
0.401484
0.400634
0.399791
0.398956
0.39813
0.397312
0.396504
0.395705
0.394916
0.394138
0.39337
0.392613
0.391867
0.391132
0.390409
0.389697
0.388998
0.38831
0.387634
0.38697
0.386318
0.385678
0.38505
0.384433
0.383829
0.383236
0.382655
0.382085
0.381526
0.380978
0.38044
0.379914
0.379397
0.37889
0.378392
0.377904
0.377424
0.376953
0.37649
0.376035
0.375586
0.375145
0.374709
0.37428
0.373856
0.373436
0.373022
0.372611
0.372203
0.371799
0.371396
0.370996
0.370597
0.370198
0.44459
0.428374
0.413953
0.41253
0.411756
0.410956
0.410132
0.40929
0.408433
0.407567
0.406694
0.40582
0.404945
0.404073
0.403205
0.402342
0.401484
0.400634
0.399791
0.398956
0.39813
0.397312
0.396504
0.395705
0.394916
0.394138
0.39337
0.392613
0.391867
0.391132
0.390409
0.389697
0.388998
0.38831
0.387634
0.38697
0.386318
0.385678
0.38505
0.384433
0.383829
0.383236
0.382655
0.382085
0.381526
0.380978
0.38044
0.379914
0.379397
0.37889
0.378392
0.377904
0.377424
0.376953
0.37649
0.376035
0.375586
0.375145
0.374709
0.37428
0.373856
0.373436
0.373022
0.372611
0.372203
0.371799
0.371396
0.370996
0.370597
0.370198
0.44459
0.428374
0.413953
0.41253
0.411756
0.410956
0.410132
0.40929
0.408433
0.407567
0.406694
0.40582
0.404945
0.404073
0.403205
0.402342
0.401484
0.400634
0.399791
0.398956
0.39813
0.397312
0.396504
0.395705
0.394916
0.394138
0.39337
0.392613
0.391867
0.391132
0.390409
0.389697
0.388998
0.38831
0.387634
0.38697
0.386318
0.385678
0.38505
0.384433
0.383829
0.383236
0.382655
0.382085
0.381526
0.380978
0.38044
0.379914
0.379397
0.37889
0.378392
0.377904
0.377424
0.376953
0.37649
0.376035
0.375586
0.375145
0.374709
0.37428
0.373856
0.373436
0.373022
0.372611
0.372203
0.371799
0.371396
0.370996
0.370597
0.370198
0.44459
0.428374
0.413953
0.41253
0.411756
0.410956
0.410132
0.40929
0.408433
0.407567
0.406694
0.40582
0.404945
0.404073
0.403205
0.402342
0.401484
0.400634
0.399791
0.398956
0.39813
0.397312
0.396504
0.395705
0.394916
0.394138
0.39337
0.392613
0.391867
0.391132
0.390409
0.389697
0.388998
0.38831
0.387634
0.38697
0.386318
0.385678
0.38505
0.384433
0.383829
0.383236
0.382655
0.382085
0.381526
0.380978
0.38044
0.379914
0.379397
0.37889
0.378392
0.377904
0.377424
0.376953
0.37649
0.376035
0.375586
0.375145
0.374709
0.37428
0.373856
0.373436
0.373022
0.372611
0.372203
0.371799
0.371396
0.370996
0.370597
0.370198
0.44459
0.428374
0.413953
0.41253
0.411756
0.410956
0.410132
0.40929
0.408433
0.407567
0.406694
0.40582
0.404945
0.404073
0.403205
0.402342
0.401484
0.400634
0.399791
0.398956
0.39813
0.397312
0.396504
0.395705
0.394916
0.394138
0.39337
0.392613
0.391867
0.391132
0.390409
0.389697
0.388998
0.38831
0.387634
0.38697
0.386318
0.385678
0.38505
0.384433
0.383829
0.383236
0.382655
0.382085
0.381526
0.380978
0.38044
0.379914
0.379397
0.37889
0.378392
0.377904
0.377424
0.376953
0.37649
0.376035
0.375586
0.375145
0.374709
0.37428
0.373856
0.373436
0.373022
0.372611
0.372203
0.371799
0.371396
0.370996
0.370597
0.370198
0.44459
0.428374
0.413953
0.41253
0.411756
0.410956
0.410132
0.40929
0.408433
0.407567
0.406694
0.40582
0.404945
0.404073
0.403205
0.402342
0.401484
0.400634
0.399791
0.398956
0.39813
0.397312
0.396504
0.395705
0.394916
0.394138
0.39337
0.392613
0.391867
0.391132
0.390409
0.389697
0.388998
0.38831
0.387634
0.38697
0.386318
0.385678
0.38505
0.384433
0.383829
0.383236
0.382655
0.382085
0.381526
0.380978
0.38044
0.379914
0.379397
0.37889
0.378392
0.377904
0.377424
0.376953
0.37649
0.376035
0.375586
0.375145
0.374709
0.37428
0.373856
0.373436
0.373022
0.372611
0.372203
0.371799
0.371396
0.370996
0.370597
0.370198
0.44459
0.428374
0.413953
0.41253
0.411756
0.410956
0.410132
0.40929
0.408433
0.407567
0.406694
0.40582
0.404945
0.404073
0.403205
0.402342
0.401484
0.400634
0.399791
0.398956
0.39813
0.397312
0.396504
0.395705
0.394916
0.394138
0.39337
0.392613
0.391867
0.391132
0.390409
0.389697
0.388998
0.38831
0.387634
0.38697
0.386318
0.385678
0.38505
0.384433
0.383829
0.383236
0.382655
0.382085
0.381526
0.380978
0.38044
0.379914
0.379397
0.37889
0.378392
0.377904
0.377424
0.376953
0.37649
0.376035
0.375586
0.375145
0.374709
0.37428
0.373856
0.373436
0.373022
0.372611
0.372203
0.371799
0.371396
0.370996
0.370597
0.370198
0.44459
0.428374
0.413953
0.41253
0.411756
0.410956
0.410132
0.40929
0.408433
0.407567
0.406694
0.40582
0.404945
0.404073
0.403205
0.402342
0.401484
0.400634
0.399791
0.398956
0.39813
0.397312
0.396504
0.395705
0.394916
0.394138
0.39337
0.392613
0.391867
0.391132
0.390409
0.389697
0.388998
0.38831
0.387634
0.38697
0.386318
0.385678
0.38505
0.384433
0.383829
0.383236
0.382655
0.382085
0.381526
0.380978
0.38044
0.379914
0.379397
0.37889
0.378392
0.377904
0.377424
0.376953
0.37649
0.376035
0.375586
0.375145
0.374709
0.37428
0.373856
0.373436
0.373022
0.372611
0.372203
0.371799
0.371396
0.370996
0.370597
0.370198
0.44459
0.428374
0.413953
0.41253
0.411756
0.410956
0.410132
0.40929
0.408433
0.407567
0.406694
0.40582
0.404945
0.404073
0.403205
0.402342
0.401484
0.400634
0.399791
0.398956
0.39813
0.397312
0.396504
0.395705
0.394916
0.394138
0.39337
0.392613
0.391867
0.391132
0.390409
0.389697
0.388998
0.38831
0.387634
0.38697
0.386318
0.385678
0.38505
0.384433
0.383829
0.383236
0.382655
0.382085
0.381526
0.380978
0.38044
0.379914
0.379397
0.37889
0.378392
0.377904
0.377424
0.376953
0.37649
0.376035
0.375586
0.375145
0.374709
0.37428
0.373856
0.373436
0.373022
0.372611
0.372203
0.371799
0.371396
0.370996
0.370597
0.370198
0.44459
0.428374
0.413953
0.41253
0.411756
0.410956
0.410132
0.40929
0.408433
0.407567
0.406694
0.40582
0.404945
0.404073
0.403205
0.402342
0.401484
0.400634
0.399791
0.398956
0.39813
0.397312
0.396504
0.395705
0.394916
0.394138
0.39337
0.392613
0.391867
0.391132
0.390409
0.389697
0.388998
0.38831
0.387634
0.38697
0.386318
0.385678
0.38505
0.384433
0.383829
0.383236
0.382655
0.382085
0.381526
0.380978
0.38044
0.379914
0.379397
0.37889
0.378392
0.377904
0.377424
0.376953
0.37649
0.376035
0.375586
0.375145
0.374709
0.37428
0.373856
0.373436
0.373022
0.372611
0.372203
0.371799
0.371396
0.370996
0.370597
0.370198
0.44459
0.428374
0.413953
0.41253
0.411756
0.410956
0.410132
0.40929
0.408433
0.407567
0.406694
0.40582
0.404945
0.404073
0.403205
0.402342
0.401484
0.400634
0.399791
0.398956
0.39813
0.397312
0.396504
0.395705
0.394916
0.394138
0.39337
0.392613
0.391867
0.391132
0.390409
0.389697
0.388998
0.38831
0.387634
0.38697
0.386318
0.385678
0.38505
0.384433
0.383829
0.383236
0.382655
0.382085
0.381526
0.380978
0.38044
0.379914
0.379397
0.37889
0.378392
0.377904
0.377424
0.376953
0.37649
0.376035
0.375586
0.375145
0.374709
0.37428
0.373856
0.373436
0.373022
0.372611
0.372203
0.371799
0.371396
0.370996
0.370597
0.370198
0.44459
0.428374
0.413953
0.41253
0.411756
0.410956
0.410132
0.40929
0.408433
0.407567
0.406694
0.40582
0.404945
0.404073
0.403205
0.402342
0.401484
0.400634
0.399791
0.398956
0.39813
0.397312
0.396504
0.395705
0.394916
0.394138
0.39337
0.392613
0.391867
0.391132
0.390409
0.389697
0.388998
0.38831
0.387634
0.38697
0.386318
0.385678
0.38505
0.384433
0.383829
0.383236
0.382655
0.382085
0.381526
0.380978
0.38044
0.379914
0.379397
0.37889
0.378392
0.377904
0.377424
0.376953
0.37649
0.376035
0.375586
0.375145
0.374709
0.37428
0.373856
0.373436
0.373022
0.372611
0.372203
0.371799
0.371396
0.370996
0.370597
0.370198
0.44459
0.428374
0.413953
0.41253
0.411756
0.410956
0.410132
0.40929
0.408433
0.407567
0.406694
0.40582
0.404945
0.404073
0.403205
0.402342
0.401484
0.400634
0.399791
0.398956
0.39813
0.397312
0.396504
0.395705
0.394916
0.394138
0.39337
0.392613
0.391867
0.391132
0.390409
0.389697
0.388998
0.38831
0.387634
0.38697
0.386318
0.385678
0.38505
0.384433
0.383829
0.383236
0.382655
0.382085
0.381526
0.380978
0.38044
0.379914
0.379397
0.37889
0.378392
0.377904
0.377424
0.376953
0.37649
0.376035
0.375586
0.375145
0.374709
0.37428
0.373856
0.373436
0.373022
0.372611
0.372203
0.371799
0.371396
0.370996
0.370597
0.370198
0.44459
0.428374
0.413953
0.41253
0.411756
0.410956
0.410132
0.40929
0.408433
0.407567
0.406694
0.40582
0.404945
0.404073
0.403205
0.402342
0.401484
0.400634
0.399791
0.398956
0.39813
0.397312
0.396504
0.395705
0.394916
0.394138
0.39337
0.392613
0.391867
0.391132
0.390409
0.389697
0.388998
0.38831
0.387634
0.38697
0.386318
0.385678
0.38505
0.384433
0.383829
0.383236
0.382655
0.382085
0.381526
0.380978
0.38044
0.379914
0.379397
0.37889
0.378392
0.377904
0.377424
0.376953
0.37649
0.376035
0.375586
0.375145
0.374709
0.37428
0.373856
0.373436
0.373022
0.372611
0.372203
0.371799
0.371396
0.370996
0.370597
0.370198
0.44459
0.428374
0.413953
0.41253
0.411756
0.410956
0.410132
0.40929
0.408433
0.407567
0.406694
0.40582
0.404945
0.404073
0.403205
0.402342
0.401484
0.400634
0.399791
0.398956
0.39813
0.397312
0.396504
0.395705
0.394916
0.394138
0.39337
0.392613
0.391867
0.391132
0.390409
0.389697
0.388998
0.38831
0.387634
0.38697
0.386318
0.385678
0.38505
0.384433
0.383829
0.383236
0.382655
0.382085
0.381526
0.380978
0.38044
0.379914
0.379397
0.37889
0.378392
0.377904
0.377424
0.376953
0.37649
0.376035
0.375586
0.375145
0.374709
0.37428
0.373856
0.373436
0.373022
0.372611
0.372203
0.371799
0.371396
0.370996
0.370597
0.370198
0.44459
0.428374
0.413953
0.41253
0.411756
0.410956
0.410132
0.40929
0.408433
0.407567
0.406694
0.40582
0.404945
0.404073
0.403205
0.402342
0.401484
0.400634
0.399791
0.398956
0.39813
0.397312
0.396504
0.395705
0.394916
0.394138
0.39337
0.392613
0.391867
0.391132
0.390409
0.389697
0.388998
0.38831
0.387634
0.38697
0.386318
0.385678
0.38505
0.384433
0.383829
0.383236
0.382655
0.382085
0.381526
0.380978
0.38044
0.379914
0.379397
0.37889
0.378392
0.377904
0.377424
0.376953
0.37649
0.376035
0.375586
0.375145
0.374709
0.37428
0.373856
0.373436
0.373022
0.372611
0.372203
0.371799
0.371396
0.370996
0.370597
0.370198
0.44459
0.428374
0.413953
0.41253
0.411756
0.410956
0.410132
0.40929
0.408433
0.407567
0.406694
0.40582
0.404945
0.404073
0.403205
0.402342
0.401484
0.400634
0.399791
0.398956
0.39813
0.397312
0.396504
0.395705
0.394916
0.394138
0.39337
0.392613
0.391867
0.391132
0.390409
0.389697
0.388998
0.38831
0.387634
0.38697
0.386318
0.385678
0.38505
0.384433
0.383829
0.383236
0.382655
0.382085
0.381526
0.380978
0.38044
0.379914
0.379397
0.37889
0.378392
0.377904
0.377424
0.376953
0.37649
0.376035
0.375586
0.375145
0.374709
0.37428
0.373856
0.373436
0.373022
0.372611
0.372203
0.371799
0.371396
0.370996
0.370597
0.370198
0.44459
0.428374
0.413953
0.41253
0.411756
0.410956
0.410132
0.40929
0.408433
0.407567
0.406694
0.40582
0.404945
0.404073
0.403205
0.402342
0.401484
0.400634
0.399791
0.398956
0.39813
0.397312
0.396504
0.395705
0.394916
0.394138
0.39337
0.392613
0.391867
0.391132
0.390409
0.389697
0.388998
0.38831
0.387634
0.38697
0.386318
0.385678
0.38505
0.384433
0.383829
0.383236
0.382655
0.382085
0.381526
0.380978
0.38044
0.379914
0.379397
0.37889
0.378392
0.377904
0.377424
0.376953
0.37649
0.376035
0.375586
0.375145
0.374709
0.37428
0.373856
0.373436
0.373022
0.372611
0.372203
0.371799
0.371396
0.370996
0.370597
0.370198
0.44459
0.428374
0.413953
0.41253
0.411756
0.410956
0.410132
0.40929
0.408433
0.407567
0.406694
0.40582
0.404945
0.404073
0.403205
0.402342
0.401484
0.400634
0.399791
0.398956
0.39813
0.397312
0.396504
0.395705
0.394916
0.394138
0.39337
0.392613
0.391867
0.391132
0.390409
0.389697
0.388998
0.38831
0.387634
0.38697
0.386318
0.385678
0.38505
0.384433
0.383829
0.383236
0.382655
0.382085
0.381526
0.380978
0.38044
0.379914
0.379397
0.37889
0.378392
0.377904
0.377424
0.376953
0.37649
0.376035
0.375586
0.375145
0.374709
0.37428
0.373856
0.373436
0.373022
0.372611
0.372203
0.371799
0.371396
0.370996
0.370597
0.370198
0.44459
0.428374
0.413953
0.41253
0.411756
0.410956
0.410132
0.40929
0.408433
0.407567
0.406694
0.40582
0.404945
0.404073
0.403205
0.402342
0.401484
0.400634
0.399791
0.398956
0.39813
0.397312
0.396504
0.395705
0.394916
0.394138
0.39337
0.392613
0.391867
0.391132
0.390409
0.389697
0.388998
0.38831
0.387634
0.38697
0.386318
0.385678
0.38505
0.384433
0.383829
0.383236
0.382655
0.382085
0.381526
0.380978
0.38044
0.379914
0.379397
0.37889
0.378392
0.377904
0.377424
0.376953
0.37649
0.376035
0.375586
0.375145
0.374709
0.37428
0.373856
0.373436
0.373022
0.372611
0.372203
0.371799
0.371396
0.370996
0.370597
0.370198
0.44459
0.428374
0.413953
0.41253
0.411756
0.410956
0.410132
0.40929
0.408433
0.407567
0.406694
0.40582
0.404945
0.404073
0.403205
0.402342
0.401484
0.400634
0.399791
0.398956
0.39813
0.397312
0.396504
0.395705