/*--------------------------------*- C++ -*----------------------------------*\
  =========                 |
  \\      /  F ield         | OpenFOAM: The Open Source CFD Toolbox
   \\    /   O peration     | Website:  https://openfoam.org
    \\  /    A nd           | Version:  13
     \\/     M anipulation  |
\*---------------------------------------------------------------------------*/
FoamFile
{
    format      ascii;
    class       volScalarField;
    location    "9";
    object      difft;
}
// * * * * * * * * * * * * * * * * * * * * * * * * * * * * * * * * * * * * * //

dimensions      [0 2 -1 0 0 0 0];

internalField   nonuniform List<scalar> 
78750
(
8.02145e-11
2.21245e-08
7.86757e-07
2.47459e-06
3.91976e-06
5.05744e-06
5.99111e-06
6.58375e-06
7.59587e-06
8.25065e-06
8.95874e-06
1.07923e-05
1.32854e-05
1.40042e-05
1.4623e-05
1.52388e-05
1.54555e-05
1.45333e-05
1.37054e-05
1.36315e-05
1.42155e-05
1.51025e-05
1.52792e-05
1.45464e-05
1.37222e-05
1.28569e-05
1.20349e-05
1.12679e-05
1.00643e-05
8.6118e-06
7.67532e-06
6.71687e-06
5.68819e-06
1.29384e-06
9.33277e-09
7.28458e-10
1.87728e-07
2.85682e-06
8.49316e-06
1.30023e-05
1.44465e-05
1.3562e-05
1.60274e-05
1.68954e-05
1.76824e-05
1.90112e-05
2.09319e-05
2.06713e-05
3.47553e-05
6.81892e-05
5.55033e-05
4.02352e-05
3.45588e-05
3.30442e-05
3.32485e-05
3.24808e-05
3.12557e-05
3.22692e-05
3.37652e-05
3.85755e-05
5.52193e-05
5.46842e-05
3.31103e-05
2.14423e-05
1.44112e-05
9.97621e-06
8.01499e-06
7.03157e-06
1.36648e-06
7.99982e-09
2.43714e-09
6.23482e-07
8.38418e-06
1.66195e-05
1.47302e-05
1.33361e-05
1.32438e-05
1.32307e-05
1.30486e-05
1.27016e-05
1.28103e-05
1.75859e-05
4.08414e-05
6.67836e-05
7.28315e-05
5.86679e-05
5.21713e-05
4.86171e-05
4.71688e-05
4.69365e-05
4.73105e-05
5.06357e-05
5.65897e-05
6.18165e-05
5.46135e-05
3.6596e-05
2.37123e-05
1.71743e-05
1.34706e-05
9.70232e-06
7.31245e-06
6.32092e-06
6.71151e-06
1.2174e-06
6.55089e-09
2.87385e-09
7.31922e-07
1.02587e-05
1.93271e-05
1.54826e-05
1.25754e-05
1.12522e-05
1.09563e-05
1.101e-05
1.12185e-05
1.22214e-05
1.5812e-05
2.67722e-05
5.52687e-05
7.82636e-05
7.79794e-05
7.75737e-05
7.71398e-05
7.56648e-05
7.43595e-05
7.48014e-05
7.56583e-05
7.26467e-05
5.94378e-05
4.05129e-05
2.68423e-05
1.8038e-05
1.29107e-05
9.77566e-06
7.64921e-06
6.0595e-06
5.09818e-06
5.31884e-06
1.09086e-06
5.15541e-09
3.43765e-09
8.73387e-07
1.35495e-05
1.67669e-05
1.32468e-05
1.16776e-05
1.11293e-05
1.10397e-05
1.12013e-05
1.18261e-05
1.37436e-05
1.96318e-05
3.04321e-05
5.12165e-05
7.28269e-05
7.78204e-05
7.63431e-05
7.50664e-05
7.39563e-05
7.30805e-05
7.26375e-05
7.28029e-05
7.12761e-05
4.56535e-05
3.67044e-05
2.37475e-05
1.45002e-05
1.08144e-05
8.26627e-06
6.22116e-06
4.93498e-06
4.67685e-06
5.77834e-06
9.29351e-07
4.26323e-09
3.54911e-09
8.99557e-07
1.3061e-05
1.76166e-05
1.36898e-05
1.19039e-05
1.12965e-05
1.11863e-05
1.13481e-05
1.18528e-05
1.3293e-05
1.72619e-05
2.82526e-05
4.99144e-05
7.68766e-05
7.56796e-05
7.36981e-05
7.20575e-05
7.08862e-05
7.0335e-05
7.05291e-05
7.17243e-05
5.99402e-05
3.72742e-05
2.87609e-05
1.90986e-05
1.24046e-05
9.28694e-06
7.09789e-06
5.8478e-06
5.1856e-06
4.96812e-06
5.85528e-06
9.09269e-07
4.33037e-09
3.66179e-09
9.25848e-07
1.38713e-05
1.67249e-05
1.31832e-05
1.16921e-05
1.12658e-05
1.13213e-05
1.17165e-05
1.2578e-05
1.45159e-05
1.8968e-05
2.91e-05
4.97215e-05
7.46688e-05
7.51451e-05
7.32348e-05
7.16847e-05
7.06931e-05
7.04369e-05
7.10168e-05
7.27053e-05
5.78214e-05
3.55295e-05
2.43475e-05
1.85892e-05
1.26328e-05
8.63125e-06
6.99872e-06
6.07089e-06
5.084e-06
4.48522e-06
5.21514e-06
9.24564e-07
4.38139e-09
3.83884e-09
9.69342e-07
1.39868e-05
1.72229e-05
1.36045e-05
1.20738e-05
1.16354e-05
1.16828e-05
1.20372e-05
1.27993e-05
1.45025e-05
1.8558e-05
2.80325e-05
4.82768e-05
7.55147e-05
7.49597e-05
7.30267e-05
7.15239e-05
7.06483e-05
7.05666e-05
7.13162e-05
7.30759e-05
6.31678e-05
3.76275e-05
2.16187e-05
1.72961e-05
1.19205e-05
8.22784e-06
6.61109e-06
5.29939e-06
4.54033e-06
4.45911e-06
5.91549e-06
9.5558e-07
4.29279e-09
3.86313e-09
9.74433e-07
1.4002e-05
1.68785e-05
1.33574e-05
1.19671e-05
1.16618e-05
1.18504e-05
1.23626e-05
1.33007e-05
1.51533e-05
1.92134e-05
2.85996e-05
4.76153e-05
7.46993e-05
7.5173e-05
7.34941e-05
7.22352e-05
7.16338e-05
7.18316e-05
7.29353e-05
7.48265e-05
6.43555e-05
3.74627e-05
2.14936e-05
1.59148e-05
1.12295e-05
7.66054e-06
6.09659e-06
5.17469e-06
4.70625e-06
4.78355e-06
6.43735e-06
1.00491e-06
4.48057e-09
3.99163e-09
1.00567e-06
1.42769e-05
1.70166e-05
1.35654e-05
1.2216e-05
1.19111e-05
1.21068e-05
1.26051e-05
1.35147e-05
1.53135e-05
1.93417e-05
2.90762e-05
4.6907e-05
7.21907e-05
7.63466e-05
7.46348e-05
7.35135e-05
7.31371e-05
7.35736e-05
7.4886e-05
7.67683e-05
5.83809e-05
3.26034e-05
1.83321e-05
1.44249e-05
1.04694e-05
7.42774e-06
6.19955e-06
5.37399e-06
4.83087e-06
4.88911e-06
6.78878e-06
1.05938e-06
4.90259e-09
4.00575e-09
1.00912e-06
1.40773e-05
1.70639e-05
1.36226e-05
1.228e-05
1.18771e-05
1.21471e-05
1.2762e-05
1.36322e-05
1.54596e-05
1.94263e-05
2.82146e-05
4.61301e-05
7.0215e-05
7.68339e-05
7.53438e-05
7.43958e-05
7.42035e-05
7.48049e-05
7.62279e-05
7.41276e-05
5.09062e-05
2.87876e-05
1.70904e-05
1.40175e-05
1.04771e-05
7.56781e-06
6.23015e-06
5.41489e-06
5.04945e-06
5.08215e-06
6.84535e-06
1.183e-06
5.7115e-09
4.07729e-09
1.02548e-06
1.40829e-05
1.71985e-05
1.37143e-05
1.23672e-05
1.20304e-05
1.19907e-05
1.24052e-05
1.35084e-05
1.54448e-05
1.95086e-05
2.8394e-05
4.53053e-05
6.85723e-05
7.71279e-05
7.57288e-05
7.48679e-05
7.47656e-05
7.5454e-05
7.69682e-05
6.91358e-05
4.76923e-05
2.8364e-05
1.70813e-05
1.47438e-05
1.16644e-05
8.47324e-06
6.95048e-06
5.74097e-06
4.84469e-06
4.76693e-06
6.86917e-06
1.28155e-06
6.03673e-09
4.15438e-09
1.04311e-06
1.42977e-05
1.69858e-05
1.35174e-05
1.22136e-05
1.17634e-05
1.1976e-05
1.27246e-05
1.38483e-05
1.59161e-05
1.99911e-05
2.85054e-05
4.5327e-05
6.87541e-05
7.69487e-05
7.56989e-05
7.49243e-05
7.48738e-05
7.55734e-05
7.7048e-05
7.55229e-05
5.37609e-05
3.06923e-05
1.76564e-05
1.49904e-05
1.18225e-05
8.92557e-06
7.29726e-06
5.72882e-06
4.82072e-06
5.11165e-06
7.98056e-06
1.35597e-06
6.18346e-09
4.25304e-09
1.06652e-06
1.45629e-05
1.70607e-05
1.35657e-05
1.21758e-05
1.18482e-05
1.2035e-05
1.2657e-05
1.38704e-05
1.59574e-05
1.99797e-05
2.83519e-05
4.49623e-05
6.76896e-05
7.72829e-05
7.5956e-05
7.5227e-05
7.52863e-05
7.61471e-05
7.77258e-05
7.87958e-05
5.58019e-05
3.03868e-05
1.71127e-05
1.3851e-05
1.08896e-05
8.25477e-06
7.07147e-06
6.21279e-06
5.591e-06
5.80425e-06
9.25051e-06
1.62594e-06
7.46184e-09
4.29692e-09
1.07605e-06
1.45846e-05
1.73923e-05
1.36546e-05
1.205e-05
1.15415e-05
1.1877e-05
1.27732e-05
1.40469e-05
1.61423e-05
2.02446e-05
2.8638e-05
4.41928e-05
6.67547e-05
7.7225e-05
7.60101e-05
7.53701e-05
7.5491e-05
7.64074e-05
7.78565e-05
6.75284e-05
5.45502e-05
2.96059e-05
1.66902e-05
1.37085e-05
1.09616e-05
8.4629e-06
7.16364e-06
6.17368e-06
5.72343e-06
6.23563e-06
9.84466e-06
1.7462e-06
8.04419e-09
4.38104e-09
1.09628e-06
1.48503e-05
1.71707e-05
1.36481e-05
1.22503e-05
1.196e-05
1.18952e-05
1.20937e-05
1.34718e-05
1.61938e-05
2.09444e-05
3.01351e-05
4.45909e-05
6.6858e-05
7.70839e-05
7.59327e-05
7.53688e-05
7.5536e-05
7.64772e-05
7.79479e-05
6.76292e-05
5.56164e-05
2.8842e-05
1.56371e-05
1.22417e-05
9.81765e-06
7.95877e-06
7.12161e-06
6.4616e-06
6.09329e-06
7.06487e-06
1.37057e-05
1.88607e-06
9.33608e-09
4.41339e-09
1.10506e-06
1.50132e-05
1.72744e-05
1.36861e-05
1.2256e-05
1.18141e-05
1.19714e-05
1.25621e-05
1.3681e-05
1.59629e-05
2.02547e-05
2.91685e-05
4.38669e-05
6.60819e-05
7.7116e-05
7.59451e-05
7.54139e-05
7.56465e-05
7.6617e-05
7.80468e-05
6.76035e-05
5.37073e-05
2.70214e-05
1.47831e-05
1.15232e-05
9.50197e-06
7.98322e-06
7.24979e-06
6.53907e-06
6.27807e-06
7.72903e-06
1.49253e-05
2.14037e-06
1.04979e-08
4.42708e-09
1.10846e-06
1.49158e-05
1.77175e-05
1.40334e-05
1.17317e-05
1.13186e-05
1.16585e-05
1.22953e-05
1.35218e-05
1.60471e-05
2.09623e-05
3.00054e-05
4.58266e-05
6.62829e-05
7.72389e-05
7.60459e-05
7.54738e-05
7.5675e-05
7.66071e-05
7.7966e-05
6.75235e-05
5.39963e-05
2.62621e-05
1.40393e-05
1.07123e-05
8.82587e-06
7.52831e-06
7.02197e-06
6.75483e-06
7.15253e-06
8.96902e-06
1.59298e-05
2.26856e-06
1.12761e-08
4.44289e-09
1.11158e-06
1.47881e-05
1.72098e-05
1.33835e-05
1.1996e-05
1.15581e-05
1.15467e-05
1.25783e-05
1.39565e-05
1.56821e-05
1.97718e-05
2.78572e-05
4.33338e-05
6.55956e-05
7.70146e-05
7.59776e-05
7.55013e-05
7.57508e-05
7.66644e-05
7.79673e-05
6.74129e-05
5.11627e-05
2.38627e-05
1.28219e-05
9.47447e-06
8.04957e-06
7.54121e-06
7.35107e-06
7.22619e-06
7.62682e-06
9.09351e-06
1.59966e-05
2.41373e-06
1.1914e-08
4.46964e-09
1.11974e-06
1.50251e-05
1.70958e-05
1.34752e-05
1.22704e-05
1.16939e-05
1.15413e-05
1.18376e-05
1.29647e-05
1.58741e-05
2.07017e-05
3.00969e-05
4.43684e-05
6.51277e-05
7.70856e-05
7.60877e-05
7.56992e-05
7.59968e-05
7.69075e-05
7.81338e-05
6.74144e-05
4.73254e-05
2.24394e-05
1.24467e-05
9.36288e-06
8.02084e-06
7.43847e-06
7.15755e-06
7.31265e-06
7.7109e-06
9.40422e-06
1.64238e-05
2.49348e-06
1.22999e-08
4.46001e-09
1.1166e-06
1.48877e-05
1.75315e-05
1.39573e-05
1.14381e-05
1.11801e-05
1.15539e-05
1.21064e-05
1.34759e-05
1.56866e-05
2.05042e-05
2.95065e-05
4.50398e-05
6.45443e-05
7.73467e-05
7.63001e-05
7.58677e-05
7.61266e-05
7.70012e-05
7.82404e-05
7.26975e-05
4.4451e-05
2.061e-05
1.14476e-05
8.68439e-06
7.89252e-06
7.37407e-06
7.42493e-06
7.5321e-06
7.72118e-06
9.44236e-06
1.67447e-05
2.57771e-06
1.28555e-08
4.48493e-09
1.12322e-06
1.4793e-05
1.64947e-05
1.30615e-05
1.18652e-05
1.13243e-05
1.15029e-05
1.22613e-05
1.36227e-05
1.60235e-05
2.02372e-05
2.95864e-05
4.41878e-05
6.35374e-05
7.74673e-05
7.64379e-05
7.60621e-05
7.63595e-05
7.72352e-05
7.84281e-05
6.89381e-05
4.18864e-05
2.02303e-05
1.15551e-05
8.86949e-06
7.81386e-06
7.30682e-06
7.17926e-06
7.41054e-06
7.87884e-06
9.49067e-06
1.68505e-05
2.65015e-06
1.3173e-08
4.44861e-09
1.11349e-06
1.51379e-05
1.69141e-05
1.34181e-05
1.2188e-05
1.17981e-05
1.1481e-05
1.19031e-05
1.30334e-05
1.54777e-05
2.03973e-05
2.92375e-05
4.36832e-05
6.33962e-05
7.72525e-05
7.63458e-05
7.60167e-05
7.63382e-05
7.72388e-05
7.84589e-05
7.00882e-05
4.28295e-05
2.03943e-05
1.16069e-05
8.886e-06
7.88788e-06
7.2549e-06
7.08921e-06
7.44412e-06
7.99292e-06
9.43169e-06
1.73483e-05
2.68237e-06
1.34779e-08
4.45209e-09
1.11667e-06
1.46943e-05
1.75282e-05
1.32481e-05
1.13812e-05
1.11223e-05
1.13851e-05
1.21399e-05
1.35245e-05
1.594e-05
2.05819e-05
2.88383e-05
4.39185e-05
6.45954e-05
7.73245e-05
7.63881e-05
7.60255e-05
7.63304e-05
7.72006e-05
7.83273e-05
6.74004e-05
4.22495e-05
1.97948e-05
1.12815e-05
8.60778e-06
7.60334e-06
7.33666e-06
7.45241e-06
7.45259e-06
8.00306e-06
9.95399e-06
1.78232e-05
2.76631e-06
1.37606e-08
4.48574e-09
1.12441e-06
1.51873e-05
1.64243e-05
1.34005e-05
1.18093e-05
1.1253e-05
1.14502e-05
1.20204e-05
1.34287e-05
1.61393e-05
2.07754e-05
2.9596e-05
4.39575e-05
6.30253e-05
7.74664e-05
7.65676e-05
7.62302e-05
7.65479e-05
7.74293e-05
7.86188e-05
6.80934e-05
4.01732e-05
1.92865e-05
1.12816e-05
8.77447e-06
7.81675e-06
7.30555e-06
7.30768e-06
7.46072e-06
7.80683e-06
9.75652e-06
1.78683e-05
2.82101e-06
1.41256e-08
4.42674e-09
1.10716e-06
1.46701e-05
1.67962e-05
1.33798e-05
1.19639e-05
1.12489e-05
1.12874e-05
1.19162e-05
1.32558e-05
1.60977e-05
2.20601e-05
3.06831e-05
4.50736e-05
6.43574e-05
7.74532e-05
7.64479e-05
7.60854e-05
7.64096e-05
7.72942e-05
7.84986e-05
6.78042e-05
4.02101e-05
1.94068e-05
1.13146e-05
8.75331e-06
7.78545e-06
7.41822e-06
7.03408e-06
7.20726e-06
8.04441e-06
9.92409e-06
1.82133e-05
2.8909e-06
1.4711e-08
4.43544e-09
1.11062e-06
1.48451e-05
1.69114e-05
1.32162e-05
1.16385e-05
1.12527e-05
1.1414e-05
1.21119e-05
1.34031e-05
1.57629e-05
2.04153e-05
2.98176e-05
4.44516e-05
6.42947e-05
7.73564e-05
7.64204e-05
7.6054e-05
7.6367e-05
7.72712e-05
7.84843e-05
6.89287e-05
4.06265e-05
1.92182e-05
1.1101e-05
8.6107e-06
7.60231e-06
7.13978e-06
7.31429e-06
7.5323e-06
8.01049e-06
1.00351e-05
1.81869e-05
3.01761e-06
1.49167e-08
4.46944e-09
1.11865e-06
1.50417e-05
1.66173e-05
1.31791e-05
1.16334e-05
1.12166e-05
1.15716e-05
1.22417e-05
1.3299e-05
1.58655e-05
2.03393e-05
2.85081e-05
4.32295e-05
6.32595e-05
7.72738e-05
7.63857e-05
7.60778e-05
7.64055e-05
7.7285e-05
7.84933e-05
6.82313e-05
3.99176e-05
1.90241e-05
1.10957e-05
8.61661e-06
7.68754e-06
7.35073e-06
7.28486e-06
7.43211e-06
7.93868e-06
1.00191e-05
1.84941e-05
2.99409e-06
1.486e-08
4.43038e-09
1.11114e-06
1.47595e-05
1.72846e-05
1.36522e-05
1.14647e-05
1.08575e-05
1.09827e-05
1.16871e-05
1.34654e-05
1.60215e-05
2.08684e-05
3.09361e-05
4.56941e-05
6.46918e-05
7.74558e-05
7.64555e-05
7.61033e-05
7.64314e-05
7.73353e-05
7.8562e-05
6.79439e-05
3.95372e-05
1.88592e-05
1.10995e-05
8.69111e-06
7.77054e-06
7.34902e-06
7.43329e-06
7.30178e-06
7.88015e-06
1.05216e-05
1.90708e-05
2.96564e-06
1.48704e-08
4.41483e-09
1.10321e-06
1.44315e-05
1.66732e-05
1.27437e-05
1.18511e-05
1.12681e-05
1.10739e-05
1.18667e-05
1.33323e-05
1.59991e-05
2.0942e-05
2.95605e-05
4.44525e-05
6.4124e-05
7.7381e-05
7.65354e-05
7.62342e-05
7.65829e-05
7.7477e-05
7.8589e-05
6.63975e-05
3.87683e-05
1.87221e-05
1.10028e-05
8.60202e-06
7.83898e-06
7.364e-06
7.26248e-06
7.54351e-06
8.29163e-06
1.04523e-05
1.862e-05
2.96956e-06
1.49616e-08
4.43561e-09
1.1092e-06
1.49931e-05
1.64529e-05
1.3101e-05
1.15125e-05
1.10966e-05
1.13919e-05
1.2064e-05
1.34121e-05
1.61492e-05
2.09726e-05
2.91134e-05
4.33253e-05
6.30789e-05
7.72488e-05
7.63811e-05
7.61037e-05
7.6467e-05
7.73815e-05
7.86495e-05
6.85182e-05
4.00718e-05
1.8957e-05
1.1162e-05
8.75148e-06
7.80434e-06
7.30381e-06
7.26551e-06
7.6403e-06
8.11021e-06
1.00089e-05
1.9043e-05
2.9612e-06
1.5283e-08
4.41813e-09
1.10877e-06
1.48451e-05
1.69662e-05
1.34698e-05
1.18445e-05
1.10302e-05
1.10155e-05
1.19e-05
1.33251e-05
1.61022e-05
2.10417e-05
2.96132e-05
4.57965e-05
6.54603e-05
7.72989e-05
7.63995e-05
7.60842e-05
7.64604e-05
7.73933e-05
7.86628e-05
6.92687e-05
3.97402e-05
1.87026e-05
1.10377e-05
8.61376e-06
7.61491e-06
7.35613e-06
7.42662e-06
7.42368e-06
8.33628e-06
1.1077e-05
1.95371e-05
3.0613e-06
1.55064e-08
4.41867e-09
1.1062e-06
1.46014e-05
1.63636e-05
1.26829e-05
1.14978e-05
1.12542e-05
1.15474e-05
1.21355e-05
1.33773e-05
1.57256e-05
2.1721e-05
3.12912e-05
4.58445e-05
6.53666e-05
7.75124e-05
7.66076e-05
7.63112e-05
7.66719e-05
7.75749e-05
7.87701e-05
6.69448e-05
3.71347e-05
1.7649e-05
1.06348e-05
8.49552e-06
8.08938e-06
7.9485e-06
7.76552e-06
7.79823e-06
8.33777e-06
1.05822e-05
1.94717e-05
3.0554e-06
1.56444e-08
4.4316e-09
1.10954e-06
1.52322e-05
1.66077e-05
1.33096e-05
1.15507e-05
1.09512e-05
1.12345e-05
1.2014e-05
1.3527e-05
1.65351e-05
2.28879e-05
3.14534e-05
4.48044e-05
6.248e-05
7.71465e-05
7.64913e-05
7.61633e-05
7.65302e-05
7.74505e-05
7.85979e-05
6.61517e-05
3.86216e-05
1.84452e-05
1.09472e-05
8.61795e-06
7.82685e-06
7.62326e-06
7.77095e-06
7.86393e-06
8.12725e-06
1.06021e-05
2.03361e-05
3.21972e-06
1.63816e-08
4.42495e-09
1.10788e-06
1.49655e-05
1.64603e-05
1.31803e-05
1.17549e-05
1.14075e-05
1.12507e-05
1.16293e-05
1.32811e-05
1.65277e-05
2.25612e-05
3.12111e-05
4.58814e-05
6.51909e-05
7.73892e-05
7.63984e-05
7.60721e-05
7.64366e-05
7.73786e-05
7.86576e-05
6.78451e-05
3.88996e-05
1.84154e-05
1.0963e-05
8.635e-06
7.84049e-06
7.41423e-06
7.43828e-06
7.86863e-06
8.83018e-06
1.13612e-05
2.0055e-05
3.28129e-06
1.65351e-08
4.40322e-09
1.10252e-06
1.48908e-05
1.66099e-05
1.33801e-05
1.16804e-05
1.07961e-05
1.11586e-05
1.22576e-05
1.35666e-05
1.59529e-05
2.13508e-05
3.00681e-05
4.58222e-05
6.51268e-05
7.7365e-05
7.64035e-05
7.60837e-05
7.64486e-05
7.73866e-05
7.86648e-05
6.73699e-05
3.77261e-05
1.77768e-05
1.06273e-05
8.43072e-06
7.78648e-06
7.7555e-06
7.90584e-06
8.04879e-06
8.53779e-06
1.10326e-05
2.05477e-05
3.26226e-06
1.6594e-08
4.43428e-09
1.10963e-06
1.50157e-05
1.65607e-05
1.29737e-05
1.1574e-05
1.12123e-05
1.12664e-05
1.19451e-05
1.34077e-05
1.59182e-05
2.07784e-05
3.0203e-05
4.54598e-05
6.49204e-05
7.72644e-05
7.6411e-05
7.61528e-05
7.65511e-05
7.74939e-05
7.87453e-05
6.64755e-05
3.74984e-05
1.78958e-05
1.08331e-05
8.58505e-06
7.85081e-06
7.72942e-06
7.71929e-06
7.89588e-06
8.48381e-06
1.08348e-05
2.07361e-05
3.2546e-06
1.68034e-08
4.42272e-09
1.10865e-06
1.45709e-05
1.66734e-05
1.2666e-05
1.11838e-05
1.12475e-05
1.15199e-05
1.18326e-05
1.30209e-05
1.60129e-05
2.13618e-05
3.10209e-05
4.52512e-05
6.45463e-05
7.7219e-05
7.63805e-05
7.60724e-05
7.64338e-05
7.73786e-05
7.86859e-05
6.77319e-05
3.79715e-05
1.79737e-05
1.08576e-05
8.61752e-06
7.82395e-06
7.45846e-06
7.48406e-06
7.9184e-06
9.02089e-06
1.18947e-05
2.06649e-05
3.3373e-06
1.69571e-08
4.40986e-09
1.10445e-06
1.48992e-05
1.66152e-05
1.33106e-05
1.16965e-05
1.09307e-05
1.10585e-05
1.19762e-05
1.36696e-05
1.6236e-05
2.08226e-05
3.05143e-05
4.52074e-05
6.31379e-05
7.7404e-05
7.64422e-05
7.61348e-05
7.64992e-05
7.74356e-05
7.87104e-05
6.6703e-05
3.67841e-05
1.74291e-05
1.05389e-05
8.48507e-06
8.05531e-06
7.90843e-06
7.77653e-06
8.03139e-06
8.87972e-06
1.12827e-05
2.0594e-05
3.34516e-06
1.70817e-08
4.45839e-09
1.11357e-06
1.5046e-05
1.63682e-05
1.31019e-05
1.14714e-05
1.09772e-05
1.12039e-05
1.19575e-05
1.3564e-05
1.61782e-05
2.11729e-05
3.00873e-05
4.5573e-05
6.53197e-05
7.72273e-05
7.64722e-05
7.62351e-05
7.66179e-05
7.7557e-05
7.88396e-05
6.71391e-05
3.74754e-05
1.7896e-05
1.0826e-05
8.57824e-06
7.999e-06
7.74488e-06
7.68364e-06
8.11788e-06
8.77596e-06
1.12993e-05
2.09886e-05
3.34662e-06
1.72469e-08
4.46729e-09
1.11412e-06
1.46641e-05
1.71478e-05
1.26187e-05
1.11549e-05
1.11192e-05
1.12319e-05
1.19203e-05
1.33815e-05
1.62154e-05
2.14904e-05
3.04182e-05
4.59679e-05
6.47709e-05
7.72988e-05
7.63754e-05
7.60918e-05
7.65051e-05
7.74688e-05
7.87731e-05
6.665e-05
3.65896e-05
1.75661e-05
1.07486e-05
8.59079e-06
7.8418e-06
7.68368e-06
7.78821e-06
8.06477e-06
9.26062e-06
1.21061e-05
2.09894e-05
3.48121e-06
1.75369e-08
4.40962e-09
1.10556e-06
1.47485e-05
1.5994e-05
1.32233e-05
1.18069e-05
1.07046e-05
1.08932e-05
1.19938e-05
1.37439e-05
1.67192e-05
2.22098e-05
3.09533e-05
4.53692e-05
6.42064e-05
7.73387e-05
7.6382e-05
7.60796e-05
7.65013e-05
7.7488e-05
7.87984e-05
6.63217e-05
3.70562e-05
1.77052e-05
1.07828e-05
8.63107e-06
8.01686e-06
7.87763e-06
7.97676e-06
8.28366e-06
9.05603e-06
1.16077e-05
2.14055e-05
3.47764e-06
1.75262e-08
4.41555e-09
1.10517e-06
1.51021e-05
1.6369e-05
1.28891e-05
1.13568e-05
1.13762e-05
1.15551e-05
1.17569e-05
1.29947e-05
1.57185e-05
2.10708e-05
3.06136e-05
4.62619e-05
6.5282e-05
7.72214e-05
7.63209e-05
7.60588e-05
7.64501e-05
7.73462e-05
7.84297e-05
6.61895e-05
3.6776e-05
1.76352e-05
1.07638e-05
8.60919e-06
7.96333e-06
7.9423e-06
8.16599e-06
8.34964e-06
9.05593e-06
1.17282e-05
2.18018e-05
3.52375e-06
1.78078e-08
4.43006e-09
1.11008e-06
1.46516e-05
1.68622e-05
1.26095e-05
1.11941e-05
1.1118e-05
1.1231e-05
1.19396e-05
1.33917e-05
1.61973e-05
2.17667e-05
3.05751e-05
4.56401e-05
6.44597e-05
7.72907e-05
7.63941e-05
7.61e-05
7.65002e-05
7.74575e-05
7.86235e-05
6.48274e-05
3.60204e-05
1.75933e-05
1.0887e-05
8.78922e-06
8.17235e-06
7.97625e-06
7.90563e-06
8.47437e-06
9.51391e-06
1.18614e-05
2.13159e-05
3.57426e-06
1.80106e-08
4.39588e-09
1.10066e-06
1.46043e-05
1.6226e-05
1.28246e-05
1.15664e-05
1.10497e-05
1.11722e-05
1.18411e-05
1.33594e-05
1.64361e-05
2.18314e-05
3.1344e-05
4.62843e-05
6.45267e-05
7.72409e-05
7.63622e-05
7.61214e-05
7.65354e-05
7.74848e-05
7.87091e-05
6.55383e-05
3.69861e-05
1.78276e-05
1.09221e-05
8.75328e-06
8.12614e-06
8.05262e-06
8.19924e-06
8.51969e-06
9.38304e-06
1.19344e-05
2.10321e-05
3.573e-06
1.81214e-08
4.40265e-09
1.10273e-06
1.49622e-05
1.62711e-05
1.31474e-05
1.14149e-05
1.11703e-05
1.13934e-05
1.17293e-05
1.32394e-05
1.60971e-05
2.12017e-05
3.02476e-05
4.49703e-05
6.47443e-05
7.71107e-05
7.63189e-05
7.60889e-05
7.65064e-05
7.74773e-05
7.87142e-05
6.66541e-05
3.70541e-05
1.77467e-05
1.0832e-05
8.70061e-06
8.08473e-06
7.95976e-06
8.31577e-06
8.69931e-06
9.52488e-06
1.22791e-05
2.15764e-05
3.6033e-06
1.82128e-08
4.41712e-09
1.10434e-06
1.46171e-05
1.67803e-05
1.2595e-05
1.13197e-05
1.09332e-05
1.12016e-05
1.20641e-05
1.343e-05
1.63688e-05
2.15458e-05
3.1137e-05
4.52907e-05
6.43458e-05
7.73084e-05
7.64777e-05
7.623e-05
7.66327e-05
7.7562e-05
7.87624e-05
6.44076e-05
3.57613e-05
1.7566e-05
1.09685e-05
8.94421e-06
8.3329e-06
8.25555e-06
8.3663e-06
8.8117e-06
9.78095e-06
1.23253e-05
2.20275e-05
3.61159e-06
1.83439e-08
4.41721e-09
1.10072e-06
1.49105e-05
1.60211e-05
1.31067e-05
1.1569e-05
1.10826e-05
1.10705e-05
1.21146e-05
1.38653e-05
1.64625e-05
2.1999e-05
3.08442e-05
4.49605e-05
6.34021e-05
7.72135e-05
7.63595e-05
7.61165e-05
7.65566e-05
7.75687e-05
7.88329e-05
6.51975e-05
3.66458e-05
1.77781e-05
1.10197e-05
8.8792e-06
8.36883e-06
8.31312e-06
8.37197e-06
8.85532e-06
9.61543e-06
1.26666e-05
2.30362e-05
3.7502e-06
1.86514e-08
4.37281e-09
1.09307e-06
1.47287e-05
1.68335e-05
1.33205e-05
1.15101e-05
1.09272e-05
1.10823e-05
1.17919e-05
1.3465e-05
1.64462e-05
2.27882e-05
3.19237e-05
4.6938e-05
6.56735e-05
7.72534e-05
7.63461e-05
7.60966e-05
7.6537e-05
7.75442e-05
7.88371e-05
6.63261e-05
3.65066e-05
1.75731e-05
1.08771e-05
8.84604e-06
8.23393e-06
8.24778e-06
8.77968e-06
9.07274e-06
9.67499e-06
1.26091e-05
2.2912e-05
3.71707e-06
1.86072e-08
4.37148e-09
1.0954e-06
1.51581e-05
1.63486e-05
1.28141e-05
1.16106e-05
1.12205e-05
1.10772e-05
1.17808e-05
1.36353e-05
1.6522e-05
2.06845e-05
2.9691e-05
4.49076e-05
6.46475e-05
7.71666e-05
7.63857e-05
7.61865e-05
7.66524e-05
7.76718e-05
7.89533e-05
6.42977e-05
3.5845e-05
1.76308e-05
1.10466e-05
9.0101e-06
8.38778e-06
8.28245e-06
8.58795e-06
8.8516e-06
9.81142e-06
1.27461e-05
2.25724e-05
3.69842e-06
1.86406e-08
4.38457e-09
1.09738e-06
1.46061e-05
1.64221e-05
1.27176e-05
1.14568e-05
1.09827e-05
1.15327e-05
1.22286e-05
1.30995e-05
1.57746e-05
2.14698e-05
3.16873e-05
4.69314e-05
6.58847e-05
7.72445e-05
7.63566e-05
7.61317e-05
7.66042e-05
7.76462e-05
7.8956e-05
6.54954e-05
3.68176e-05
1.79281e-05
1.11268e-05
8.98788e-06
8.47266e-06
8.30394e-06
8.25573e-06
8.85177e-06
1.00229e-05
1.30283e-05
2.36407e-05
3.78548e-06
1.88894e-08
4.35315e-09
1.08979e-06
1.47852e-05
1.6261e-05
1.33622e-05
1.17036e-05
1.11436e-05
1.09669e-05
1.16155e-05
1.35081e-05
1.62867e-05
2.17674e-05
3.11728e-05
4.61591e-05
6.58937e-05
7.71115e-05
7.62783e-05
7.6067e-05
7.65389e-05
7.75835e-05
7.89332e-05
6.6229e-05
3.65877e-05
1.76923e-05
1.09935e-05
8.87995e-06
8.29067e-06
8.34759e-06
8.85503e-06
9.32005e-06
1.01837e-05
1.31408e-05
2.29984e-05
3.79342e-06
1.89065e-08
4.36101e-09
1.0931e-06
1.49427e-05
1.65417e-05
1.31512e-05
1.15358e-05
1.07911e-05
1.10065e-05
1.18678e-05
1.34019e-05
1.66228e-05
2.17215e-05
3.03563e-05
4.5052e-05
6.37639e-05
7.72595e-05
7.64691e-05
7.62586e-05
7.66921e-05
7.76519e-05
7.88355e-05
6.39439e-05
3.53041e-05
1.75025e-05
1.10511e-05
9.10438e-06
8.60081e-06
8.48493e-06
8.5362e-06
8.99622e-06
1.00146e-05
1.30266e-05
2.36048e-05
3.76203e-06
1.88631e-08
4.36055e-09
1.08984e-06
1.47615e-05
1.64756e-05
1.28002e-05
1.12877e-05
1.10217e-05
1.12328e-05
1.21788e-05
1.37989e-05
1.61374e-05
2.10488e-05
3.04065e-05
4.63687e-05
6.53627e-05
7.72566e-05
7.63522e-05
7.6111e-05
7.65676e-05
7.75438e-05
7.87433e-05
6.53186e-05
3.63737e-05
1.79114e-05
1.12071e-05
9.07045e-06
8.41483e-06
8.31603e-06
8.55046e-06
8.9656e-06
1.02154e-05
1.36862e-05
2.41366e-05
3.80793e-06
1.90696e-08
4.36443e-09
1.08974e-06
1.49225e-05
1.63865e-05
1.31653e-05
1.16583e-05
1.09203e-05
1.08198e-05
1.15682e-05
1.34742e-05
1.64562e-05
2.19872e-05
3.12366e-05
4.59142e-05
6.57667e-05
7.71752e-05
7.63367e-05
7.61108e-05
7.65378e-05
7.75108e-05
7.8723e-05
6.48712e-05
3.55823e-05
1.74854e-05
1.10727e-05
9.05465e-06
8.49194e-06
8.46e-06
8.87518e-06
9.32296e-06
1.00388e-05
1.31988e-05
2.36703e-05
3.8118e-06
1.92067e-08
4.34556e-09
1.09059e-06
1.44408e-05
1.63865e-05
1.24824e-05
1.10518e-05
1.08236e-05
1.11688e-05
1.18941e-05
1.34053e-05
1.68914e-05
2.24149e-05
3.0492e-05
4.47335e-05
6.32537e-05
7.72723e-05
7.64176e-05
7.61844e-05
7.66325e-05
7.76068e-05
7.88222e-05
6.29498e-05
3.47696e-05
1.74999e-05
1.12239e-05
9.29719e-06
8.74093e-06
8.59267e-06
8.63472e-06
8.96479e-06
1.02209e-05
1.2804e-05
2.25303e-05
3.84083e-06
1.94125e-08
4.32866e-09
1.08522e-06
1.47372e-05
1.643e-05
1.28289e-05
1.11558e-05
1.08327e-05
1.12363e-05
1.21536e-05
1.34984e-05
1.58032e-05
2.05403e-05
3.05821e-05
4.60895e-05
6.55829e-05
7.71676e-05
7.6333e-05
7.61515e-05
7.66412e-05
7.76543e-05
7.88874e-05
6.3227e-05
3.52078e-05
1.75627e-05
1.12694e-05
9.29774e-06
8.75347e-06
8.67701e-06
8.72502e-06
8.81649e-06
9.92514e-06
1.33262e-05
2.42566e-05
3.85928e-06
1.93175e-08
4.35023e-09
1.08831e-06
1.49464e-05
1.63037e-05
1.33336e-05
1.16005e-05
1.07149e-05
1.07862e-05
1.15419e-05
1.34369e-05
1.64856e-05
2.20564e-05
3.1119e-05
4.65343e-05
6.57292e-05
7.72258e-05
7.63669e-05
7.61406e-05
7.66368e-05
7.77152e-05
7.9077e-05
6.50344e-05
3.61709e-05
1.76886e-05
1.12802e-05
9.38933e-06
8.78544e-06
8.40789e-06
8.52169e-06
9.30747e-06
1.05017e-05
1.34067e-05
2.34079e-05
3.86798e-06
1.93771e-08
4.33828e-09
1.08728e-06
1.4402e-05
1.64437e-05
1.21321e-05
1.10348e-05
1.09308e-05
1.10338e-05
1.18947e-05
1.34696e-05
1.68225e-05
2.28688e-05
3.24065e-05
4.58801e-05
6.41833e-05
7.7291e-05
7.64816e-05
7.62991e-05
7.67979e-05
7.78745e-05
7.92477e-05
6.53793e-05
3.58575e-05
1.76189e-05
1.11977e-05
9.11022e-06
8.67388e-06
8.84393e-06
9.02134e-06
9.49362e-06
1.04188e-05
1.34421e-05
2.37281e-05
3.86056e-06
1.93618e-08
4.31138e-09
1.08227e-06
1.49111e-05
1.58608e-05
1.28603e-05
1.12037e-05
1.08027e-05
1.1219e-05
1.21658e-05
1.39211e-05
1.64807e-05
2.14884e-05
3.04378e-05
4.57092e-05
6.49769e-05
7.72358e-05
7.63809e-05
7.61977e-05
7.67363e-05
7.78293e-05
7.91991e-05
6.53616e-05
3.55821e-05
1.75147e-05
1.11629e-05
9.28786e-06
8.87011e-06
8.7923e-06
8.98067e-06
9.20353e-06
1.03676e-05
1.39554e-05
2.48056e-05
3.87945e-06
1.97144e-08
4.33918e-09
1.08431e-06
1.48632e-05
1.60617e-05
1.25468e-05
1.15128e-05
1.11462e-05
1.09576e-05
1.17926e-05
1.33352e-05
1.64237e-05
2.28676e-05
3.20333e-05
4.72444e-05
6.50899e-05
7.72809e-05
7.64278e-05
7.62609e-05
7.67851e-05
7.78797e-05
7.92488e-05
6.39662e-05
3.46917e-05
1.73336e-05
1.11729e-05
9.36737e-06
8.88444e-06
8.82216e-06
9.10697e-06
9.62452e-06
1.05276e-05
1.33271e-05
2.38734e-05
3.90004e-06
1.97881e-08
4.36409e-09
1.09164e-06
1.49841e-05
1.58145e-05
1.25654e-05
1.12195e-05
1.08458e-05
1.11556e-05
1.19513e-05
1.33985e-05
1.64836e-05
2.1887e-05
3.12454e-05
4.60184e-05
6.59079e-05
7.71341e-05
7.63567e-05
7.61987e-05
7.67416e-05
7.78037e-05
7.91475e-05
6.43186e-05
3.45992e-05
1.7251e-05
1.11023e-05
9.16606e-06
8.73899e-06
8.94217e-06
9.31914e-06
9.5185e-06
1.04523e-05
1.38029e-05
2.40695e-05
3.98339e-06
1.99413e-08
4.32475e-09
1.08243e-06
1.46143e-05
1.5974e-05
1.25669e-05
1.10617e-05
1.08532e-05
1.14759e-05
1.22336e-05
1.34292e-05
1.63563e-05
2.29556e-05
3.14133e-05
4.56709e-05
6.54167e-05
7.73292e-05
7.64982e-05
7.63181e-05
7.67935e-05
7.784e-05
7.91649e-05
6.45298e-05
3.44373e-05
1.7341e-05
1.12116e-05
9.39222e-06
9.0854e-06
9.07241e-06
8.96342e-06
9.46147e-06
1.08299e-05
1.37096e-05
2.4059e-05
3.96927e-06
1.99748e-08
4.32446e-09
1.08265e-06
1.4885e-05
1.67352e-05
1.30005e-05
1.09678e-05
1.05733e-05
1.09505e-05
1.18474e-05
1.37117e-05
1.68239e-05
2.30808e-05
3.30559e-05
4.7905e-05
6.42418e-05
7.71745e-05
7.64253e-05
7.62765e-05
7.68564e-05
7.79963e-05
7.94126e-05
6.37483e-05
3.42633e-05
1.72748e-05
1.11889e-05
9.39326e-06
9.02261e-06
9.12609e-06
9.42304e-06
9.79799e-06
1.06229e-05
1.3801e-05
2.37625e-05
3.9983e-06
2.00572e-08
4.36156e-09
1.09052e-06
1.50935e-05
1.58313e-05
1.27566e-05
1.13332e-05
1.08089e-05
1.10675e-05
1.18168e-05
1.33872e-05
1.66357e-05
2.29397e-05
3.18851e-05
4.6299e-05
6.52356e-05
7.7244e-05
7.64384e-05
7.62928e-05
7.68323e-05
7.79252e-05
7.90529e-05
6.294e-05
3.40538e-05
1.73688e-05
1.13747e-05
9.53865e-06
9.08561e-06
9.07502e-06
9.32339e-06
9.76208e-06
1.06342e-05
1.34343e-05
2.41918e-05
3.95606e-06
2.00825e-08
4.35662e-09
1.08907e-06
1.49408e-05
1.6159e-05
1.2357e-05
1.12399e-05
1.09779e-05
1.09895e-05
1.21114e-05
1.38841e-05
1.62365e-05
2.11884e-05
3.03441e-05
4.64216e-05
6.55159e-05
7.72559e-05
7.64869e-05
7.6337e-05
7.68608e-05
7.79222e-05
7.92641e-05
6.32488e-05
3.42588e-05
1.74331e-05
1.1409e-05
9.5417e-06
9.03793e-06
9.0197e-06
9.09543e-06
9.59775e-06
1.0885e-05
1.42851e-05
2.49789e-05
4.042e-06
2.02138e-08
4.33501e-09
1.08796e-06
1.47689e-05
1.6265e-05
1.25495e-05
1.12083e-05
1.1081e-05
1.11725e-05
1.1636e-05
1.33682e-05
1.70694e-05
2.34671e-05
3.23415e-05
4.68003e-05
6.42624e-05
7.72225e-05
7.63986e-05
7.62488e-05
7.68074e-05
7.79399e-05
7.93469e-05
6.35483e-05
3.4518e-05
1.75086e-05
1.14442e-05
9.53523e-06
8.97222e-06
8.99106e-06
9.56167e-06
9.99504e-06
1.08316e-05
1.35261e-05
2.43864e-05
4.01966e-06
2.02941e-08
4.38303e-09
1.09442e-06
1.52009e-05
1.60997e-05
1.2693e-05
1.10779e-05
1.08167e-05
1.12475e-05
1.19307e-05
1.34368e-05
1.68026e-05
2.34655e-05
3.23541e-05
4.65501e-05
6.50375e-05
7.71848e-05
7.6375e-05
7.6273e-05
7.68554e-05
7.79738e-05
7.91893e-05
6.30073e-05
3.40966e-05
1.7215e-05
1.12198e-05
9.52586e-06
9.38121e-06
9.32524e-06
9.40132e-06
9.86745e-06
1.08328e-05
1.38852e-05
2.42351e-05
4.07403e-06
2.06341e-08
4.36348e-09
1.09341e-06
1.46908e-05
1.55912e-05
1.25584e-05
1.1594e-05
1.07039e-05
1.07564e-05
1.22113e-05
1.39759e-05
1.66328e-05
2.2832e-05
3.14885e-05
4.69136e-05
6.5752e-05
7.71659e-05
7.63742e-05
7.62564e-05
7.68649e-05
7.80544e-05
7.95552e-05
6.33753e-05
3.42321e-05
1.74774e-05
1.15122e-05
9.65479e-06
9.19034e-06
9.35053e-06
9.32711e-06
9.68883e-06
1.08899e-05
1.44085e-05
2.56909e-05
4.12104e-06
2.06615e-08
4.32121e-09
1.08234e-06
1.47586e-05
1.6328e-05
1.27769e-05
1.10211e-05
1.08933e-05
1.13201e-05
1.1571e-05
1.31651e-05
1.68855e-05
2.24923e-05
3.26927e-05
4.70059e-05
6.45983e-05
7.71346e-05
7.65438e-05
7.63633e-05
7.6921e-05
7.8095e-05
7.96231e-05
6.43648e-05
3.4294e-05
1.73549e-05
1.14018e-05
9.63087e-06
9.21349e-06
9.2237e-06
9.7994e-06
1.03098e-05
1.11833e-05
1.4212e-05
2.46494e-05
4.15635e-06
2.07092e-08
4.38389e-09
1.09405e-06
1.50732e-05
1.60159e-05
1.25033e-05
1.11068e-05
1.07427e-05
1.09902e-05
1.19735e-05
1.36338e-05
1.63907e-05
2.17566e-05
3.11983e-05
4.67592e-05
6.55756e-05
7.71099e-05
7.64217e-05