/*--------------------------------*- C++ -*----------------------------------*\
  =========                 |
  \\      /  F ield         | OpenFOAM: The Open Source CFD Toolbox
   \\    /   O peration     | Website:  https://openfoam.org
    \\  /    A nd           | Version:  13
     \\/     M anipulation  |
\*---------------------------------------------------------------------------*/
FoamFile
{
    format      ascii;
    class       volScalarField;
    location    "9";
    object      k;
}
// * * * * * * * * * * * * * * * * * * * * * * * * * * * * * * * * * * * * * //

dimensions      [0 2 -2 0 0 0 0];

internalField   nonuniform List<scalar> 
78750
(
3.77918e-08
1.14664e-06
1.58686e-05
5.39864e-05
7.95946e-05
9.97922e-05
0.000116733
0.000132225
0.0001452
0.000154434
0.000163083
0.000170879
0.000173678
0.000175293
0.000177524
0.000179179
0.000178596
0.000177684
0.000177149
0.000176525
0.000175108
0.000172414
0.000167572
0.000160591
0.000152388
0.00014347
0.000134849
0.000126556
0.000120484
0.000113848
0.000114392
0.000114493
0.000114615
7.37852e-05
4.75634e-06
3.53734e-07
1.01884e-05
8.10523e-05
0.000139441
0.00015627
0.000168332
0.000173652
0.000174517
0.000172142
0.000168557
0.000164266
0.000159797
0.000156044
0.000152972
0.000150815
0.000149452
0.000148454
0.00014884
0.000148841
0.000148761
0.000148814
0.000148778
0.000148288
0.000147489
0.000146447
0.000147166
0.000146768
0.000147026
0.000149702
0.000148996
0.000149965
0.000145563
0.000147544
7.19998e-05
3.87082e-06
1.17815e-06
3.35025e-05
0.000118788
0.000149029
0.00016496
0.000175212
0.000178025
0.000176865
0.000171445
0.000163376
0.000155272
0.000150126
0.000152041
0.000148569
0.000148089
0.000148097
0.00014658
0.000147507
0.000147875
0.000147714
0.000147654
0.000148108
0.000146131
0.00014529
0.000144825
0.000144755
0.000144308
0.000151739
0.000158308
0.000166338
0.000170783
0.000172424
0.000149915
6.80472e-05
3.23753e-06
1.39737e-06
3.95406e-05
0.000122631
0.000156162
0.000177442
0.000187404
0.00018703
0.000180723
0.000170769
0.000161239
0.000153461
0.000150066
0.000154733
0.000150573
0.000148001
0.000146559
0.000145461
0.000144599
0.000143841
0.00014312
0.000142506
0.00014219
0.000142528
0.00014417
0.000147084
0.000146022
0.000145036
0.000161086
0.000174676
0.000180162
0.000163177
0.000159926
0.000148198
5.80574e-05
2.52079e-06
1.68935e-06
4.76385e-05
0.000130307
0.000164271
0.00018302
0.000189853
0.000187933
0.000180533
0.000170937
0.000160838
0.000154414
0.000153628
0.000151414
0.00014843
0.000146126
0.000144874
0.000142782
0.000140613
0.000138611
0.000137014
0.000136213
0.000136533
0.000138608
0.000142353
0.000146716
0.000152753
0.000148868
0.000151421
0.000154422
0.000159536
0.000159036
0.00016011
0.000147983
4.93372e-05
2.02908e-06
1.72844e-06
4.8635e-05
0.000134501
0.000168099
0.000187681
0.000195546
0.000193512
0.000184927
0.00017359
0.000162463
0.000153673
0.000148574
0.00014793
0.000145999
0.000144588
0.000141386
0.000137981
0.000135027
0.000132916
0.000131939
0.000132357
0.000134659
0.000138977
0.000145769
0.000153537
0.000164124
0.00017642
0.000162461
0.00015829
0.000159342
0.000163318
0.000164747
0.000149214
4.79074e-05
2.04137e-06
1.79491e-06
5.04106e-05
0.000135634
0.000170513
0.000190488
0.000197683
0.000194948
0.000185935
0.00017437
0.000163167
0.00015475
0.000150741
0.000154175
0.00015018
0.000145583
0.000141273
0.000137513
0.000134579
0.000132751
0.000132323
0.000133411
0.000136365
0.000140489
0.000143244
0.000147586
0.000149587
0.000153822
0.000156399
0.000160142
0.000165898
0.000171584
0.000172461
0.000157196
4.87335e-05
2.08687e-06
1.87858e-06
5.2659e-05
0.000139746
0.000174107
0.000193775
0.00020119
0.000198706
0.000189851
0.000178099
0.000166187
0.000156493
0.000151398
0.000153785
0.000149584
0.000144973
0.000140738
0.000137052
0.000134251
0.000132647
0.000132522
0.000133924
0.000137174
0.000141701
0.000146844
0.000147303
0.000149222
0.000152372
0.000157447
0.000163964
0.000171788
0.000180207
0.000182468
0.00016321
5.05935e-05
2.05462e-06
1.88869e-06
5.28458e-05
0.000139319
0.000175381
0.000195766
0.000203231
0.000200444
0.000191315
0.000179335
0.000167221
0.000157206
0.000151602
0.000153423
0.000149121
0.00014507
0.000141173
0.000137871
0.000135522
0.000134438
0.00013484
0.000136912
0.000140364
0.000144634
0.000147548
0.000152205
0.00015449
0.000157601
0.000163812
0.00017218
0.00018189
0.00019169
0.000193808
0.000169334
5.36525e-05
2.14616e-06
1.9559e-06
5.47045e-05
0.000142167
0.000177699
0.000197752
0.000205254
0.000202504
0.000193622
0.000181615
0.000169392
0.000158981
0.000152028
0.000149556
0.000147453
0.000146156
0.000143016
0.000140061
0.000138051
0.000137388
0.000138221
0.000140684
0.00014432
0.000148726
0.000153516
0.000152266
0.000154707
0.000159693
0.000167603
0.0001794
0.000192467
0.000202328
0.000201552
0.000172781
5.65254e-05
2.34117e-06
1.96172e-06
5.48456e-05
0.000142774
0.000178808
0.000199346
0.000207378
0.000204177
0.000195084
0.000182866
0.000170424
0.000159667
0.000151977
0.000147897
0.000146717
0.000146308
0.000143829
0.000141363
0.000139748
0.000139469
0.000140588
0.000143094
0.000146111
0.000147661
0.000150091
0.000155222
0.00016257
0.000170122
0.000176611
0.000183612
0.000197421
0.000213408
0.000216017
0.000185714
6.29224e-05
2.733e-06
1.99878e-06
5.57981e-05
0.0001443
0.000180481
0.000200813
0.000209182
0.000205294
0.000193388
0.000180599
0.000168658
0.000158908
0.000152413
0.000149108
0.000146889
0.000146597
0.000144399
0.000142167
0.000140781
0.000140722
0.000142049
0.000144781
0.000147972
0.000149721
0.000154303
0.000163044
0.000175593
0.000188804
0.000199125
0.000205082
0.000208704
0.000217922
0.00021933
0.00019631
6.89409e-05
2.95303e-06
2.03607e-06
5.67297e-05
0.000145403
0.000181502
0.000201078
0.000207696
0.000202613
0.000192172
0.000179982
0.000168334
0.000159041
0.000153573
0.000155516
0.000151502
0.000148099
0.000144944
0.000142467
0.000141033
0.00014098
0.000142309
0.000145029
0.000148276
0.000150603
0.000156227
0.000167217
0.000183746
0.000202764
0.000221432
0.00023563
0.000241045
0.000238897
0.000234269
0.000200632
7.22125e-05
2.96767e-06
2.08175e-06
5.79086e-05
0.000147403
0.000183359
0.000202449
0.000208843
0.000202449
0.000191625
0.000179258
0.000167635
0.000158184
0.000151699
0.000148079
0.000147303
0.000147186
0.000144919
0.000142714
0.000141472
0.000141614
0.000143162
0.000145727
0.000148126
0.000151939
0.000159068
0.000172375
0.000192001
0.000214635
0.000237575
0.00025714
0.00026856
0.000268509
0.000257182
0.000214055
8.69791e-05
3.59909e-06
2.09764e-06
5.82358e-05
0.000148137
0.000184364
0.000203178
0.000209284
0.000202067
0.00019044
0.00017804
0.000166592
0.000157524
0.000151707
0.000148641
0.000146848
0.000146812
0.000144759
0.000142804
0.000141749
0.000141992
0.000143599
0.000146025
0.000148295
0.000152775
0.000160856
0.000175953
0.000198358
0.000223775
0.000248846
0.000269223
0.000281442
0.000283109
0.000270645
0.000222656
9.41209e-05
3.91269e-06
2.13271e-06
5.90513e-05
0.000147565
0.000185846
0.000204159
0.000209293
0.000202797
0.000189908
0.000176938
0.000165334
0.000156756
0.000151635
0.000149528
0.000147273
0.000146844
0.000144687
0.000142747
0.000141775
0.000142076
0.000143719
0.000146205
0.000148667
0.00015343
0.00016203
0.000178446
0.000203213
0.000232086
0.000261731
0.000286891
0.000302799
0.000304727
0.000287635
0.000233807
0.000108391
4.51709e-06
2.14676e-06
5.94166e-05
0.000148342
0.00018718
0.000205415
0.000209099
0.000202588
0.000189006
0.000175897
0.000164692
0.000156529
0.000151682
0.000149804
0.000147277
0.000146865
0.000144673
0.000142716
0.00014181
0.000142242
0.000143945
0.000146355
0.000148634
0.000153273
0.000162084
0.000179441
0.000205289
0.000234485
0.000263656
0.000289652
0.0003071
0.000313443
0.000298331
0.000244207
0.000121924
5.12253e-06
2.15811e-06
5.97765e-05
0.000148717
0.00018668
0.000203161
0.000205651
0.000199721
0.000187482
0.000174575
0.0001635
0.000155719
0.000151162
0.000148569
0.000147171
0.000146849
0.000144768
0.000142847
0.000141899
0.000142283
0.000143921
0.000146216
0.000148335
0.000152664
0.000161203
0.000178674
0.000205841
0.000238817
0.000274086
0.000304897
0.000321299
0.000326011
0.00030827
0.000253162
0.000131897
5.55254e-06
2.16144e-06
5.98057e-05
0.000148221
0.000186062
0.000204002
0.000206039
0.000198655
0.000186365
0.0001736
0.000162494
0.000154219
0.000149657
0.000148423
0.000149864
0.000147434
0.000144831
0.000142859
0.000141961
0.000142401
0.000144061
0.000146539
0.000149419
0.000152574
0.000160555
0.000177746
0.000204498
0.000236349
0.000270822
0.000301967
0.000323153
0.000332232
0.000314689
0.000260245
0.000140147
5.91263e-06
2.17446e-06
6.02176e-05
0.000148608
0.000186885
0.000204206
0.000205452
0.000199354
0.000186399
0.000173266
0.000161956
0.000154013
0.000149858
0.000149114
0.000149724
0.000147487
0.000144926
0.000143048
0.000142325
0.000142866
0.000144529
0.000146879
0.000149481
0.000152242
0.000159969
0.00017661
0.000202242
0.000232877
0.000267034
0.000301198
0.000331618
0.000333708
0.000317401
0.000264382
0.000145329
6.12901e-06
2.17218e-06
6.01627e-05
0.000148155
0.000186107
0.00020255
0.000205258
0.000199058
0.000186674
0.00017331
0.000161333
0.000153341
0.000148956
0.000147334
0.000147091
0.000147066
0.000145091
0.000143334
0.00014258
0.000143038
0.000144527
0.000146496
0.000147963
0.000151105
0.000158634
0.000174615
0.000199379
0.000229192
0.000262534
0.000296935
0.000327889
0.000338793
0.000321444
0.000268888
0.000150969
6.40709e-06
2.18342e-06
6.04684e-05
0.000148536
0.000186358
0.000202843
0.000206114
0.000198596
0.000185608
0.000172373
0.000161252
0.000153085
0.000149241
0.000148655
0.00014783
0.000147416
0.00014537
0.000143664
0.000143002
0.000143536
0.000145029
0.000146895
0.000148168
0.000151132
0.000158368
0.000173153
0.000195898
0.000225168
0.000259781
0.00029695
0.000329869
0.000338213
0.000324586
0.00027307
0.000154303
6.59967e-06
2.17427e-06
6.03404e-05
0.000148526
0.00018633
0.000202621
0.000206051
0.0001988
0.000186296
0.000172754
0.000161012
0.000152468
0.000148191
0.000147273
0.000149248
0.000147494
0.000145273
0.000143585
0.000142946
0.000143459
0.000145022
0.000147003
0.000148386
0.000151401
0.000158643
0.000173345
0.000195059
0.000222217
0.00025514
0.000292022
0.000326561
0.000348053
0.000328418
0.000276603
0.000157804
6.71857e-06
2.17024e-06
6.00462e-05
0.000148397
0.000185526
0.000203291
0.000205918
0.000198026
0.000185287
0.000171822
0.000160446
0.000152583
0.0001484
0.00014736
0.000149116
0.000147403
0.000145238
0.000143541
0.000142913
0.000143511
0.0001451
0.000147269
0.00014957
0.000151853
0.000159116
0.0001747
0.000198226
0.000227568
0.000261848
0.000298932
0.000332518
0.000347112
0.000330971
0.000279488
0.000161497
6.86862e-06
2.18741e-06
6.05451e-05
0.000148642
0.000186328
0.000203325
0.00020575
0.000198173
0.000185528
0.000171881
0.000160709
0.00015346
0.000150364
0.000149174
0.0001499
0.000147953
0.000145691
0.000143987
0.000143342
0.000143881
0.000145376
0.000147246
0.000148466
0.000151477
0.000158986
0.000174179
0.000196925
0.000225543
0.000259082
0.000293747
0.000327207
0.000349565
0.000332104
0.000281411
0.000163885
6.99912e-06
2.16422e-06
6.00618e-05
0.000147929
0.00018575
0.000202588
0.000203892
0.00019638
0.00018407
0.000171267
0.000160159
0.000154177
0.000152683
0.000150682
0.000148485
0.000147683
0.000145438
0.00014367
0.000142978
0.000143505
0.00014502
0.000146936
0.000148212
0.000151289
0.000158822
0.000173973
0.000196741
0.000225576
0.00025972
0.000297142
0.000330565
0.000344175
0.000334596
0.000285348
0.000168626
7.26562e-06
2.16553e-06
5.9968e-05
0.000148265
0.000184819
0.000201426
0.00020386
0.00019631
0.000184475
0.000171184
0.00015985
0.00015197
0.000148229
0.000148284
0.000147118
0.000146856
0.000145027
0.000143485
0.000142949
0.000143541
0.00014507
0.000146972
0.000148226
0.000151197
0.000158596
0.000173776
0.000196585
0.000225393
0.000259198
0.000293767
0.000326521
0.000347055
0.000335353
0.000287838
0.000176272
7.51956e-06
2.18436e-06
6.05569e-05
0.000148466
0.00018596
0.00020258
0.000204482
0.000196128
0.000184077
0.000170966
0.000159826
0.000152166
0.000149245
0.000152829
0.000150577
0.000147919
0.00014543
0.000143666
0.000142996
0.000143535
0.000145042
0.000146958
0.000148263
0.000151314
0.000158872
0.00017409
0.000196396
0.000224125
0.000257115
0.000292935
0.000325649
0.000344929
0.000337511
0.000289759
0.000174271
7.47116e-06
2.15783e-06
5.97375e-05
0.000148685
0.000185749
0.000202155
0.000204723
0.000196448
0.000183589
0.000170202
0.000159472
0.000152229
0.000148877
0.000148376
0.000147415
0.000147181
0.000145294
0.000143638
0.000143023
0.0001436
0.000145143
0.000147094
0.000148446
0.000151715
0.0001597
0.000175508
0.000198388
0.000226385
0.000259388
0.000296539
0.000328193
0.000347444
0.000339685
0.000291256
0.000177504
7.49158e-06
2.15821e-06
5.98833e-05
0.000149897
0.000185722
0.000201955
0.000203095
0.000195889
0.00018251
0.000170161
0.000159303
0.000152503
0.000150087
0.000153127
0.000150338
0.000147658
0.00014538
0.0001438
0.000143274
0.000143882
0.000145367
0.000147146
0.000148268
0.000151793
0.00016009
0.000176181
0.00019954
0.000228499
0.000264573
0.00030203
0.000330629
0.000349762
0.000341656
0.000292742
0.00017727
7.52714e-06
2.17411e-06
6.02984e-05
0.000149486
0.000185305
0.00020174
0.00020382
0.000196043
0.000183616
0.000170766
0.000159997
0.000152956
0.000150464
0.000153688
0.000150805
0.000147957
0.000145467
0.000143721
0.000143076
0.000143703
0.000145321
0.00014735
0.000148819
0.000152217
0.000160382
0.000176538
0.000199888
0.000228694
0.000264223
0.000301885
0.000332318
0.000352628
0.000345077
0.000295423
0.000177773
7.62861e-06
2.15866e-06
5.98622e-05
0.000147918
0.000185441
0.000201956
0.000203789
0.000195693
0.000182272
0.000169471
0.000159744
0.000153321
0.000150276
0.000147648
0.000146671
0.000146685
0.000144963
0.000143488
0.000143022
0.000143683
0.00014527
0.000147325
0.000148889
0.000152365
0.000160874
0.000177695
0.000201564
0.000230065
0.000262959
0.000300406
0.00033595
0.000354961
0.00034678
0.000297298
0.000179789
7.74516e-06
2.16075e-06
5.98977e-05
0.000148255
0.000183987
0.000201234
0.000203072
0.000194064
0.000182086
0.000169427
0.000160207
0.000155094
0.000154162
0.000151635
0.00014899
0.000147865
0.000145668
0.000144041
0.000143489
0.000144106
0.00014565
0.000147556
0.000148896
0.000152422
0.000161323
0.000178906
0.000204675
0.000236246
0.000271794
0.0003087
0.000340697
0.000358822
0.000349473
0.000298792
0.000180556
7.74922e-06
2.1745e-06
6.02929e-05
0.000149796
0.000184953
0.000200568
0.00020237
0.000194815
0.000181657
0.000169017
0.000159403
0.000154496
0.000154014
0.000152037
0.000149088
0.000148051
0.00014568
0.00014383
0.00014316
0.000143757
0.000145319
0.000147231
0.000148425
0.000152165
0.000160949
0.000177905
0.00020268
0.000233539
0.000271265
0.000310142
0.000342812
0.000360524
0.000352168
0.000302579
0.000187673
8.12446e-06
2.165e-06
5.99453e-05
0.00014816
0.000185189
0.000201789
0.000203617
0.000195256
0.000182239
0.000168913
0.000159038
0.000154139
0.00015346
0.000151097
0.000148666
0.000147589
0.000145347
0.000143687
0.000143112
0.000143748
0.000145365
0.000147402
0.000148917
0.000152476
0.000161193
0.000178475
0.000203415
0.000234989
0.000270016
0.000310016
0.000345768
0.000363986
0.000354793
0.000305762
0.000193236
8.26862e-06
2.15907e-06
6.00164e-05
0.00014972
0.000184979
0.000201663
0.000203582
0.00019512
0.00018226
0.000168751
0.000158488
0.000152996
0.000152839
0.000150116
0.00014769
0.00014713
0.000145125
0.000143509
0.000142958
0.000143617
0.00014526
0.000147342
0.000148904
0.000152522
0.000161483
0.000179228
0.00020521
0.000236977
0.000273192
0.000315951
0.00035177
0.000365551
0.000356311
0.000307077
0.000193675
8.29396e-06
2.17019e-06
6.02052e-05
0.000149625
0.000185128
0.000201603
0.000203443
0.000195178
0.000182397
0.000169247
0.000158609
0.000154314
0.000159139
0.000154902
0.00014853
0.000147057
0.00014503
0.000143567
0.000143128
0.000143844
0.000145496
0.000147545
0.000149017
0.000152626
0.000161601
0.000179115
0.000204564
0.000236241
0.000272613
0.000314019
0.000350768
0.000367545
0.000359052
0.000309784
0.000193081
8.36381e-06
2.16361e-06
5.99544e-05
0.000148281
0.000184742
0.000201317
0.00020318
0.000195254
0.000182592
0.000169257
0.000158195
0.000150922
0.000147577
0.00014824
0.000149284
0.000147414
0.000145208
0.000143611
0.000143077
0.000143727
0.000145367
0.000147461
0.000149032
0.000152693
0.000161786
0.000179638
0.000204995
0.000236351
0.000272593
0.000310675
0.000347071
0.000368546
0.000361369
0.00031095
0.000194024
8.42705e-06
2.16229e-06
6.00709e-05
0.00014984
0.000183788
0.000201254
0.000202337
0.000194016
0.000181214
0.000168796
0.00015795
0.000151152
0.000148379
0.000148323
0.000147114
0.000146959
0.000145166
0.000143589
0.000143067
0.000143733
0.000145373
0.000147456
0.000149032
0.0001527
0.000161898
0.000180075
0.000206147
0.000237542
0.000273589
0.000311804
0.000348398
0.000371979
0.000369963
0.000313979
0.000194685
8.47523e-06
2.18598e-06
6.04816e-05
0.000149613
0.000184281
0.000201311
0.000203421
0.000195115
0.000181579
0.000168889
0.000158392
0.000151697
0.000149528
0.00015262
0.000150023
0.000147487
0.000145285
0.000143762
0.000143318
0.000144013
0.000145642
0.000147712
0.000149262
0.000152999
0.000162208
0.000180153
0.000206201
0.000239068
0.000276077
0.000312432
0.0003488
0.000372594
0.000366451
0.000315174
0.000196257
8.53272e-06
2.18323e-06
6.03382e-05
0.000148609
0.000185315
0.000201385
0.00020188
0.000193491
0.000180939
0.000168511
0.000158335
0.000152109
0.000149372
0.000147347
0.000146778
0.000146793
0.000144994
0.000143512
0.000143044
0.000143815
0.000145483
0.000147569
0.000149114
0.000152848
0.000162129
0.000180106
0.000206232
0.000238681
0.000276221
0.000314417
0.000352293
0.00037625
0.000368931
0.00031836
0.000199894
8.71193e-06
2.16351e-06
6.01546e-05
0.000149308
0.000184788
0.000200953
0.000202513
0.000194353
0.0001816
0.00016878
0.000158658
0.000152956
0.000151513
0.000149405
0.00014767
0.000147186
0.000145131
0.000143509
0.000142966
0.000143696
0.000145431
0.000147541
0.000149076
0.000152897
0.000162309
0.000180504
0.000206295
0.000238444
0.000276557
0.000317586
0.000355172
0.000378833
0.000370201
0.000319358
0.000201079
8.7146e-06
2.16292e-06
5.99962e-05
0.000149675
0.000184177
0.000201121
0.000202656
0.000194568
0.000181837
0.00016873
0.000158083
0.00015092
0.000147092
0.000145918
0.000146026
0.000146478
0.000144833
0.000143384
0.00014294
0.000143619
0.000145154
0.000146994
0.000148292
0.000152543
0.000162566
0.000181497
0.000208122
0.000240805
0.000279184
0.000320021
0.000356456
0.000381126
0.000373424
0.000322531
0.000203338
8.84555e-06
2.17092e-06
6.00985e-05
0.000148803
0.000185128
0.000201255
0.000202825
0.000194519
0.000181615
0.000168138
0.000158041
0.000151791
0.000148764
0.000147053
0.000146444
0.000146593
0.000144953
0.000143516
0.000143012
0.000143693
0.000145307
0.000147244
0.000148575
0.00015276
0.000162731
0.000181565
0.000208291
0.00024138
0.000280015
0.000321774
0.000360774
0.000384819
0.000377053
0.00032523
0.000208038
9.0248e-06
2.16135e-06
6.01416e-05
0.00014999
0.000184034
0.000201334
0.000202927
0.000194551
0.000181839
0.000168909
0.00015842
0.000151873
0.000149057
0.000148307
0.000148994
0.000147075
0.000144992
0.000143476
0.000143081
0.00014383
0.000145497
0.000147522
0.000148946
0.000153258
0.00016333
0.000182288
0.000209062
0.000242414
0.000281826
0.000324656
0.000364517
0.000389012
0.000379712
0.000328376
0.000207486
9.00575e-06
2.15306e-06
5.97054e-05
0.000149125
0.000184812
0.000201274
0.000202791
0.000193813
0.00018073
0.000168044
0.000158081
0.000151562
0.000149405
0.000152674
0.000150243
0.00014738
0.000145047
0.000143488
0.000143047
0.00014378
0.000145452
0.000147509
0.000149124
0.000153705
0.000164281
0.000184007
0.000211517
0.000244735
0.00028341
0.000326855
0.000365767
0.00039049
0.000382371
0.000329331
0.000206385
9.01616e-06
2.16091e-06
5.98023e-05
0.000148421
0.000184742
0.000201195
0.000202774
0.000194533
0.000181493
0.000168606
0.000158374
0.000152162
0.000149528
0.000149071
0.000149722
0.000147488
0.000145292
0.000143763
0.000143324
0.000144032
0.000145631
0.000147619
0.000149107
0.000153652
0.00016432
0.000184201
0.000212196
0.000246809
0.000287902
0.000333421
0.000373771
0.000398683
0.000387544
0.00033342
0.000205773
9.04818e-06
2.16139e-06
5.97815e-05
0.000149788
0.000184731
0.000200989
0.000202599
0.000193648
0.000180811
0.000168377
0.000159106
0.0001534
0.000151001
0.000149003
0.000149561
0.0001475
0.000145206
0.000143538
0.000143061
0.000143842
0.000145632
0.00014779
0.000149409
0.000154083
0.000164875
0.000184948
0.000213061
0.00024812
0.000289947
0.000336422
0.000377999
0.000409017
0.000400752
0.000341958
0.000215248
9.31307e-06
2.14173e-06
5.94946e-05
0.000148511
0.000184592
0.000200812
0.000202601
0.000194623
0.000181919
0.000168959
0.000158717
0.000153975
0.000153224
0.000149644
0.000147653
0.000146908
0.000144971
0.000143484
0.000143077
0.000143867
0.000145619
0.000147786
0.000149577
0.000154522
0.0001659
0.00018698
0.000216637
0.000252418
0.000291937
0.000337189
0.000380159
0.000409754
0.000400133
0.000349556
0.000214299
9.32939e-06
2.14144e-06
5.95242e-05
0.000148936
0.000184514
0.000200416
0.000201984
0.000193072
0.00018125
0.000168799
0.000158901
0.000154108
0.000157656
0.000149561
0.000149318
0.000147253
0.000145109
0.000143653
0.000143308
0.000144145
0.000145918
0.000148059
0.000149674
0.00015452
0.000165689
0.00018621
0.000215363
0.000251591
0.000294143
0.000338277
0.00038083
0.000409348
0.000404485
0.000344122
0.000216123
9.32668e-06
2.14509e-06
5.94365e-05
0.000148419
0.000184459
0.000200621
0.00020152
0.000193961
0.000181007
0.000168249
0.000158109
0.000151438
0.00014808
0.000147821
0.00014697
0.000146672
0.000144848
0.000143386
0.000143024
0.000143886
0.000145734
0.000148017
0.000149778
0.000154668
0.000165837
0.000186383
0.000214855
0.000250097
0.00029137
0.000338312
0.000382911
0.000410267
0.000399605
0.000348768
0.000215944
9.4429e-06
2.13544e-06
5.94349e-05
0.000150035
0.0001842
0.000199548
0.000202333
0.000194295
0.000181621
0.000168681
0.000158304
0.000151659
0.000148541
0.00014755
0.000148776
0.000146968
0.000144891
0.000143409
0.000143043
0.000143888
0.000145709
0.000147981
0.000149915
0.000155146
0.000167162
0.000189109
0.000219796
0.000257554
0.000301492
0.00034882
0.000393172
0.000420205
0.000409885
0.000349862
0.000220312
9.50727e-06
2.1368e-06
5.93995e-05
0.000148588
0.000182952
0.00020023
0.000202012
0.000193681
0.000181071
0.000168427
0.000158223
0.00015127
0.000147669
0.00014689
0.0001486
0.00014715
0.000145217
0.000143758
0.000143348
0.000144131
0.000145833
0.000147901
0.000149599
0.00015492
0.000166959
0.000188656
0.000218326
0.000254659
0.000297757
0.000347619
0.000392062
0.000420548
0.000411755
0.000351958
0.000219668
9.46687e-06
2.14516e-06
5.95829e-05
0.000150166
0.000184372
0.00020022
0.000201849
0.000193873
0.000181434
0.000168326
0.000158762
0.000152465
0.000149207
0.000147337
0.000146691
0.000146579
0.000144817
0.000143383
0.000143025
0.000143795
0.000145531
0.0001477
0.000149568
0.00015495
0.000167111
0.000189053
0.000219384
0.00025677
0.000300273
0.000345713
0.000394795
0.000422962
0.000408749
0.000351343
0.00022042
9.53308e-06
2.14874e-06
5.95563e-05
0.000149864
0.00018266
0.000199378
0.000201259
0.000192439
0.000180176
0.000168167
0.00015796
0.000152041
0.000149232
0.000148098
0.000149243
0.000147211
0.000145035
0.000143514
0.000143103
0.000143884
0.000145619
0.000147779
0.000149625
0.000155169
0.00016779
0.000190268
0.000220528
0.000256934
0.000299961
0.000350666
0.000391638
0.000423589
0.000416397
0.000359427
0.000221562
9.62595e-06
2.13763e-06
5.9522e-05
0.000149958
0.000183634
0.000198654
0.000199746
0.000191785
0.000179406
0.000166961
0.000157209
0.000151383
0.000149307
0.0001487
0.000149255
0.000147333
0.000145215
0.000143687
0.000143285
0.000144054
0.000145794
0.000147977
0.000149793
0.000155391
0.000168085
0.000190673
0.000221403
0.000258397
0.000301243
0.000350161
0.000395685
0.000424657
0.000416205
0.000359307
0.000224035
9.72327e-06
2.12455e-06
5.91075e-05
0.000149591
0.000183957
0.000199762
0.000200489
0.000192619
0.000180014
0.000167277
0.000157354
0.000151261
0.000149309
0.000152976
0.000150502
0.000147677
0.000145266
0.000143664
0.00014323
0.000144099
0.000145913
0.000148194
0.000150124
0.000155844
0.000168661
0.000191392
0.000222114
0.000258974
0.000301042
0.000346465
0.000390269
0.000424602
0.00041224
0.000360565
0.000225184
9.72692e-06
2.13701e-06
5.93203e-05
0.000148236
0.000183689
0.000199791
0.000201523
0.000193149
0.000180207
0.000167406
0.000157325
0.000151429
0.000148568
0.000147526
0.000148813
0.000147048
0.000144993
0.000143528
0.000143214
0.000144105
0.000145969
0.000148357
0.000150581
0.000156485
0.000169541
0.000192749
0.000223943
0.000261282
0.000304578
0.000350546
0.000391633
0.000422321
0.000414956
0.000359968
0.000225512
9.74186e-06
2.13307e-06
5.93444e-05
0.000149759
0.000183956
0.000199751
0.000199852
0.000192332
0.000179737
0.000166739
0.000157212
0.000151903
0.000149769
0.000148563
0.000149457
0.000147457
0.000145304
0.000143802
0.000143423
0.000144207
0.000145791
0.00014732
0.000150469
0.000156923
0.000170637
0.0001947
0.000226869
0.000265169
0.000309092
0.000355767
0.000402562
0.000422692
0.000413946
0.000356637
0.000225521
9.73672e-06
2.12499e-06
5.92102e-05
0.000149286
0.000183768
0.000199588
0.00020001
0.000191664
0.000179687
0.000167137
0.000157211
0.000151954
0.000150229
0.000148894
0.000149465
0.000147465
0.000145238
0.000143673
0.000143286
0.000144095
0.000145696
0.00014723
0.000150413
0.000156993
0.00017108
0.000195931
0.000229152
0.000268852
0.000310838
0.00035737
0.000405845
0.000434968
0.000423768
0.00036453
0.000224828
9.83321e-06
2.13428e-06
5.91154e-05
0.000147811
0.000183451
0.000199577
0.00020008
0.000192593
0.000179739
0.000167011
0.000156951
0.000151841
0.000150683
0.000148999
0.000147419
0.00014686
0.000145041
0.000143646
0.000143335
0.000144165
0.000145764
0.000147258
0.00015041
0.000157034
0.000171206
0.000196026
0.000229297
0.000269186
0.000313581
0.000364978
0.000408713
0.000430749
0.000421805
0.000363395
0.00022426
9.85376e-06
2.14891e-06
5.95975e-05
0.000149289
0.00018359
0.000199873
0.000200825
0.000191498
0.000179453
0.000166568
0.00015698
0.000151137
0.000148789
0.000147866
0.000148794
0.000147092
0.000145012
0.000143582
0.000143268
0.000144105
0.000145685
0.000147167
0.000150349
0.000157035
0.000171249
0.000195975
0.000228978
0.000268093
0.000313901
0.000365324
0.000410451
0.000436581
0.000423272
0.000365235
0.000227207
1.0003e-05
2.12933e-06
5.92291e-05
0.000148817
0.000182419
0.000198443
0.000200669
0.000192092
0.000179549
0.000167299
0.000157628
0.000153334
0.000153038
0.000150566
0.00014818
0.000147393
0.000145327
0.000143823
0.000143426
0.000144155
0.00014572
0.000147285
0.000150542
0.000157457
0.00017235
0.000198108
0.000232554
0.000273013
0.000316101
0.000361573
0.000405721
0.000431609
0.000422527
0.00036534
0.000232213
1.00903e-05
2.12733e-06
5.9222e-05
0.000149423
0.000183855
0.00019973
0.000200735
0.000192519
0.00017969
0.00016655
0.000157616
0.00015307
0.000152407
0.000150414
0.000148023
0.000147185
0.000145199
0.000143793
0.000143502
0.000144364
0.000146016
0.000147585
0.000150886
0.000157822
0.000172618
0.000198166
0.00023243
0.000274145
0.000321776
0.00037092
0.000414108
0.000433346
0.000421285
0.000360239
0.000229228
1.00583e-05
2.15288e-06
5.97418e-05
0.000149713
0.000183957
0.000199788
0.00020087
0.000191462
0.000179448
0.000167076
0.00015732
0.000151785
0.000151132
0.000149694
0.000147415
0.000146854
0.000145035
0.000143648
0.000143372
0.000144267
0.000145889
0.000147404
0.000150619
0.000157514
0.000172171
0.000197303
0.000231374
0.000272776
0.000318319
0.000367757
0.000414536
0.000435085
0.000422295
0.000360283
0.000228976
1.00527e-05
2.14339e-06
5.95151e-05
0.000150536
0.000184665
0.000199195
0.000200953
0.000192428
0.000179306
0.000166907
0.000157499
0.000152185
0.00015055
0.000152625
0.000147962
0.00014703
0.000145147
0.000143787
0.000143484
0.000144319
0.000145928
0.000147456
0.000150774
0.000157828
0.000172749
0.000198272
0.00023251
0.000273892
0.000322494
0.000372746
0.000417478
0.000442188
0.00042437
0.000368976
0.000231026
1.01507e-05
2.13327e-06
5.93308e-05
0.000148107
0.000182844
0.000200201
0.0002015
0.000192824
0.000180165
0.000167659
0.000158151
0.000153385
0.000152453
0.000150136
0.000147787
0.000147087
0.000145095
0.000143646
0.000143383
0.000144292
0.000145981
0.000147656
0.000151121
0.000158455
0.000173805
0.000199698
0.000233502
0.00027357
0.000320561
0.000374176
0.000418038
0.000439681
0.000425747
0.00036945
0.000230551
1.01412e-05
2.1559e-06
5.98538e-05
0.000149587
0.000184075
0.000200266
0.000201452
0.00019262
0.00017996
0.000167457
0.000157952
0.000152947
0.000152165
0.000149862
0.000147837
0.000146977
0.000145017
0.000143663
0.000143409
0.000144308
0.000146017
0.000147668
0.000151113
0.000158458
0.000173936
0.000200353
0.000235596
0.000277865
0.000323344
0.000374159
0.000417631
0.00044584
0.00042975
0.000373472
0.000234066
1.03096e-05
2.14662e-06
5.96004e-05
0.000150038
0.000184378
0.000200281
0.000201478
0.000191891
0.000179132
0.000166839
0.000157828
0.000152571
0.000151457
0.000149417
0.000147473
0.000146759
0.000144939
0.000143611
0.000143404
0.000144374
0.00014621
0.000148053
0.000151697
0.000159244
0.000174966
0.000201395
0.000236203
0.000278271
0.000323837
0.00037406
0.000419564
0.000443805
0.000436303
0.00037154
0.000235601
1.03675e-05
2.12767e-06
5.92518e-05
0.000149534
0.000183709
0.000198572
0.000199829
0.00019208
0.000179734
0.000167229
0.000156899
0.000150343
0.000147715
0.000148255
0.000148752
0.000147074
0.000145248
0.000143921
0.000143637
0.00014453
0.000146366
0.000148273
0.000152096
0.000160076
0.000176747
0.000204669
0.000240928
0.000281925
0.000329367
0.000377618
0.000419962
0.000447135
0.000437369
0.000377852
0.000235873
1.04097e-05
2.15297e-06
5.95734e-05
0.00014831
0.000182825
0.000199574
0.000200519
0.00019159
0.000178267
0.000165784
0.000156308
0.000150612
0.000148681
0.000151704
0.00014928
0.000147113
0.000145108
0.000143758