/*--------------------------------*- C++ -*----------------------------------*\
  =========                 |
  \\      /  F ield         | OpenFOAM: The Open Source CFD Toolbox
   \\    /   O peration     | Website:  https://openfoam.org
    \\  /    A nd           | Version:  13
     \\/     M anipulation  |
\*---------------------------------------------------------------------------*/
FoamFile
{
    format      ascii;
    class       volScalarField;
    location    "9";
    object      omega;
}
// * * * * * * * * * * * * * * * * * * * * * * * * * * * * * * * * * * * * * //

dimensions      [0 0 -1 0 0 0 0];

internalField   nonuniform List<scalar> 
78750
(
678.67
75.4078
15.1502
15.1502
15.1502
15.1502
15.1502
15.1502
15.1502
15.1502
15.1502
15.1502
15.1502
15.1502
15.1502
15.1502
15.1502
15.1502
15.1502
15.1502
15.1502
15.1502
15.1502
15.1502
15.1502
15.1502
15.1502
15.1502
15.1502
15.1502
15.1502
15.1502
15.1502
75.4078
678.67
678.67
75.4078
2.66272
2.66272
3.21317
3.32347
3.37148
3.37314
3.34855
3.31458
3.27003
3.22779
3.19131
3.16062
3.14127
3.13016
3.12152
3.15109
3.13917
3.13494
3.13629
3.13558
3.12662
3.12586
3.12042
2.66272
2.66272
2.66272
2.66272
2.66272
2.66272
3.13158
2.66272
75.4078
678.67
678.67
75.4078
2.66272
2.66272
3.27819
3.3801
3.40641
3.3957
3.344
3.26338
3.1875
3.13925
2.66272
2.66272
2.66272
2.66272
3.12258
2.66272
2.66272
2.66272
2.66272
2.66272
3.1252
3.1282
3.132
3.13663
3.12017
2.66272
2.66272
2.66272
2.66272
2.66272
3.20992
75.4078
678.67
678.67
75.4078
2.66272
3.18484
3.39695
3.49212
3.48879
3.43071
3.33812
3.23855
3.16537
3.13262
2.66272
2.66272
2.66272
2.66272
2.66272
2.66272
2.66272
2.66272
2.66272
2.66272
2.66272
2.66272
2.66272
3.15857
3.12928
2.66272
2.66272
2.66272
3.14512
3.17855
3.12865
75.4078
678.67
678.67
75.4078
2.66272
3.2644
3.45027
3.5158
3.4986
3.4334
3.33754
3.24431
3.19516
3.27873
3.22441
3.16938
3.12895
2.66272
2.66272
2.66272
2.66272
2.66272
2.66272
2.66272
2.66272
2.66272
2.66272
2.66272
3.141
3.20243
3.19592
3.19204
3.21429
3.24152
3.12639
75.4078
678.67
678.67
75.4078
2.66272
3.30549
3.49574
3.56911
3.55117
3.47257
3.36709
3.26174
3.1797
3.13757
3.17547
3.14075
2.66272
2.66272
2.66272
2.66272
2.66272
2.66272
2.66272
2.66272
2.66272
2.66272
2.66272
2.66272
2.66272
3.15677
3.19236
3.23092
3.28311
3.30017
3.14804
75.4078
678.67
678.67
75.4078
2.66272
3.32773
3.52128
3.58847
3.5639
3.48106
3.37283
3.26719
3.18974
3.14207
2.66272
2.66272
2.66272
2.66272
2.66272
2.66272
2.66272
2.66272
2.66272
2.66272
2.66272
3.12684
3.20204
3.16639
3.16629
3.196
3.24414
3.30969
3.36711
3.3752
3.22463
75.4078
678.67
678.67
75.4078
2.66272
3.36181
3.5505
3.61907
3.59715
3.51682
3.40789
3.29521
3.20219
3.14511
2.66272
2.66272
2.66272
2.66272
2.66272
2.66272
2.66272
2.66272
2.66272
2.66272
2.66272
2.66272
3.13403
3.15281
3.17603
3.22554
3.28934
3.36687
3.44949
3.47121
3.27954
75.4078
678.67
678.67
75.4078
2.66272
3.37478
3.56873
3.63718
3.61265
3.5302
3.41938
3.304
3.20537
3.13689
2.66272
2.66272
2.66272
2.66272
2.66272
2.66272
2.66272
2.66272
2.66272
2.66272
2.66272
3.15253
3.24815
3.20536
3.22198
3.27905
3.36516
3.46099
3.55074
3.56753
3.33241
75.4078
678.67
678.67
75.4078
2.66272
3.39561
3.58579
3.65434
3.63037
3.55077
3.44028
3.32491
3.22559
3.16809
3.1888
3.15023
2.66272
2.66272
2.66272
2.66272
2.66272
2.66272
2.66272
2.66272
2.66272
2.66272
3.13718
3.17607
3.23023
3.3112
3.42692
3.55378
3.64851
3.64211
3.37246
75.4078
678.67
678.67
75.4078
2.66272
3.40627
3.60004
3.67278
3.64526
3.56468
3.45271
3.33591
3.23393
3.1636
3.13205
3.13619
2.66272
2.66272
2.66272
2.66272
2.66272
2.66272
2.66272
2.66272
3.13587
3.14802
3.19527
3.26917
3.34657
3.40962
3.4681
3.58908
3.7378
3.7642
3.50001
75.4078
678.67
678.67
75.4078
2.66272
3.42216
3.61356
3.6875
3.65286
3.54924
3.43232
3.31955
3.22608
3.16518
3.14239
3.1226
2.66272
2.66272
2.66272
2.66272
2.66272
2.66272
2.66272
2.66272
3.13888
3.18265
3.26622
3.38805
3.51688
3.62052
3.6827
3.71046
3.74976
3.78453
3.5835
75.4078
678.67
678.67
75.4078
2.66272
3.43167
3.61642
3.68389
3.63872
3.5387
3.42497
3.31332
3.21903
3.1544
2.66272
2.66272
2.66272
2.66272
2.66272
2.66272
2.66272
2.66272
2.66272
2.66272
3.13892
3.19461
3.30084
3.45819
3.63458
3.80464
3.93394
3.99201
3.98346
3.93281
3.62826
75.4078
678.67
678.67
75.4078
2.66272
3.44882
3.62647
3.6764
3.62879
3.53275
3.41811
3.30806
3.21864
3.1607
3.13736
3.14169
2.66272
2.66272
2.66272
2.66272
2.66272
2.66272
2.66272
3.12952
3.15969
3.22521
3.35017
3.53203
3.73448
3.93133
4.09414
4.19031
4.19708
4.1074
3.74455
75.4078
678.67
678.67
75.4078
2.66272
3.45904
3.63275
3.68624
3.62397
3.52165
3.40632
3.2977
3.2108
3.1602
3.14356
3.12046
2.66272
2.66272
2.66272
2.66272
2.66272
2.66272
2.66272
3.12206
3.16384
3.24015
3.38108
3.58477
3.80613
4.01494
4.18019
4.28081
4.30023
4.20552
3.81118
75.4078
678.67
678.67
75.4078
3.1219
3.47595
3.64125
3.68291
3.61783
3.51359
3.39538
3.28507
3.20471
3.16253
3.17892
3.12328
2.66272
2.66272
2.66272
2.66272
2.66272
2.66272
2.66272
3.12538
3.16925
3.25012
3.40203
3.625
3.87206
4.11107
4.30506
4.42808
4.44914
4.32787
3.90217
75.4078
678.67
678.67
75.4078
3.14071
3.49107
3.65177
3.68314
3.62334
3.50435
3.38493
3.27883
3.20381
3.16672
3.17664
3.12584
2.66272
2.66272
2.66272
2.66272
2.66272
2.66272
2.66272
3.12509
3.16711
3.249
3.40835
3.63883
3.88725
4.12373
4.33302
4.45269
4.50525
4.402
3.98401
75.4078
678.67
678.67
75.4078
3.13727
3.47549
3.64212
3.66507
3.61791
3.49691
3.37485
3.26981
3.20218
3.17966
3.15142
3.12525
2.66272
2.66272
2.66272
2.66272
2.66272
2.66272
2.66272
3.12158
3.16106
3.23969
3.3987
3.63923
3.91592
4.19406
4.42175
4.55514
4.59002
4.46689
4.04913
75.4078
678.67
678.67
75.4078
3.13115
3.4849
3.62984
3.65692
3.59948
3.48737
3.36721
3.26203
3.18429
3.13971
3.13374
2.66272
2.66272
2.66272
2.66272
2.66272
2.66272
2.66272
2.66272
2.66272
3.15569
3.2314
3.38781
3.62407
3.89169
4.1668
4.40412
4.56768
4.62732
4.50577
4.09711
75.4078
678.67
678.67
75.4078
3.14593
3.49218
3.6441
3.65647
3.5939
3.48359
3.36435
3.25875
3.18235
3.14862
3.16814
2.66272
2.66272
2.66272
2.66272
2.66272
2.66272
2.66272
2.66272
2.66272
3.15186
3.22544
3.37699
3.60351
3.8612
4.13316
4.39304
4.61708
4.63546
4.52549
4.12694
75.4078
678.67
678.67
75.4078
3.12575
3.47251
3.63896
3.65439
3.59775
3.47659
3.35426
3.24927
3.17954
3.14513
3.13367
3.13633
2.66272
2.66272
2.66272
2.66272
2.66272
2.66272
2.66272
3.12774
3.14987
3.2166
3.3609
3.5803
3.83299
4.10135
4.36583
4.60697
4.68036
4.55553
4.16308
75.4078
678.67
678.67
75.4078
3.13613
3.47524
3.63724
3.65049
3.58763
3.4819
3.3583
3.24848
3.17294
3.14492
3.18159
3.15008
2.66272
2.66272
2.66272
2.66272
2.66272
2.66272
2.66272
3.1304
3.14967
3.21365
3.34743
3.54783
3.78831
4.05912
4.33712
4.60031
4.686
4.57983
4.19398
75.4078
678.67
678.67
75.4078
3.13609
3.47134
3.63331
3.65754
3.59744
3.48649
3.36101
3.24866
3.16759
3.1307
3.1243
2.66272
2.66272
2.66272
2.66272
2.66272
2.66272
2.66272
2.66272
3.13145
3.15351
3.21881
3.35419
3.5529
3.79657
4.06948
4.35331
4.60135
4.73648
4.60314
4.22097
75.4078
678.67
678.67
75.4078
3.14055
3.47988
3.62627
3.65376
3.58005
3.46666
3.34308
3.23706
3.16644
3.13052
3.12286
2.66272
2.66272
2.66272
2.66272
2.66272
2.66272
2.66272
2.66272
2.66272
3.14901
3.21949
3.36378
3.57386
3.81814
4.08859
4.3647
4.6033
4.73399
4.61805
4.24079
75.4078
678.67
678.67
75.4078
3.13734
3.48441
3.63784
3.65467
3.58537
3.4716
3.34537
3.23882
3.1727
3.14862
3.13489
2.66272
2.66272
2.66272
2.66272
2.66272
2.66272
2.66272
2.66272
3.13448
3.15356
3.22133
3.36052
3.56373
3.80363
4.07156
4.3605
4.59437
4.69831
4.62444
4.25714
75.4078
678.67
678.67
75.4078
3.1202
3.46486
3.62075
3.65048
3.58494
3.47009
3.34206
3.23869
3.19592
3.2492
3.21078
3.15655
2.66272
2.66272
2.66272
2.66272
2.66272
2.66272
2.66272
3.13168
3.15133
3.21874
3.35941
3.56547
3.81241
4.08427
4.34594
4.57855
4.70144
4.64438
4.28926
75.4078
678.67
678.67
75.4078
3.12975
3.47296
3.62672
3.64959
3.58225
3.46725
3.34201
3.23407
3.15743
3.12308
3.15754
3.13524
2.66272
2.66272
2.66272
2.66272
2.66272
2.66272
2.66272
3.13177
3.15174
3.21882
3.35821
3.5617
3.80293
4.0756
4.35486
4.57971
4.70206
4.6479
4.30051
75.4078
678.67
678.67
75.4078
3.13433
3.4768
3.62883
3.64134
3.58069
3.46755
3.34443
3.2367
3.16131
3.12356
2.66272
2.66272
2.66272
2.66272
2.66272
2.66272
2.66272
2.66272
2.66272
3.13192
3.15251
3.22157
3.36402
3.5689
3.80969
4.07931
4.35968
4.59301
4.71767
4.66922
4.31826
75.4078
678.67
678.67
75.4078
3.13112
3.47206
3.61577
3.64532
3.56776
3.44872
3.3304
3.22947
3.163
3.13871
3.16899
3.14737
2.66272
2.66272
2.66272
2.66272
2.66272
2.66272
2.66272
3.13377
3.15632
3.22873
3.3758
3.58462
3.82824
4.10169
4.40087
4.60874
4.73552
4.68233
4.32563
75.4078
678.67
678.67
75.4078
2.66272
3.47282
3.62228
3.64269
3.57052
3.45031
3.32994
3.2314
3.16183
3.12884
2.66272
2.66272
2.66272
2.66272
2.66272
2.66272
2.66272
2.66272
2.66272
3.12437
3.15695
3.23389
3.38225
3.5918
3.83629
4.11531
4.40257
4.62253
4.75543
4.69981
4.34059
75.4078
678.67
678.67
75.4078
2.66272
3.45834
3.61066
3.63394
3.56978
3.455
3.33422
3.23527
3.16891
3.135
2.66272
2.66272
2.66272
2.66272
2.66272
2.66272
2.66272
2.66272
2.66272
3.13722
3.16118
3.23643
3.38654
3.59756
3.84132
4.11178
4.39415
4.63884
4.77386
4.7229
4.36192
75.4078
678.67
678.67
75.4078
3.12482
3.46979
3.62353
3.64398
3.56994
3.45309
3.33133
3.22953
3.17298
3.15341
3.1281
3.12977
2.66272
2.66272
2.66272
2.66272
2.66272
2.66272
2.66272
3.13762
3.16176
3.23982
3.39719
3.61492
3.86159
4.12783
4.3997
4.64234
4.79187
4.73557
4.37585
75.4078
678.67
678.67
75.4078
3.12411
3.46583
3.60764
3.62456
3.56034
3.44621
3.32718
3.2338
3.19348
3.24926
3.2003
3.15019
2.66272
2.66272
2.66272
2.66272
2.66272
2.66272
2.66272
3.13795
3.16252
3.24317
3.40632
3.63794
3.90762
4.19444
4.47875
4.71925
4.81918
4.75444
4.38998
75.4078
678.67
678.67
75.4078
2.66272
3.45648
3.61665
3.63371
3.55588
3.446
3.32633
3.23221
3.19239
3.24548
3.20289
3.15351
2.66272
2.66272
2.66272
2.66272
2.66272
2.66272
2.66272
3.125
3.15903
3.23996
3.39776
3.62139
3.88825
4.1794
4.47333
4.72243
4.82925
4.77368
4.42014
75.4078
678.67
678.67
75.4078
3.12369
3.46957
3.62107
3.63704
3.56402
3.44191
3.32348
3.22843
3.19164
3.25073
3.20789
3.15349
2.66272
2.66272
2.66272
2.66272
2.66272
2.66272
2.66272
3.13772
3.16259
3.24255
3.40249
3.6244
3.88373
4.18095
4.4938
4.74728
4.85112
4.78931
4.43773
75.4078
678.67
678.67
75.4078
2.66272
3.45592
3.61813
3.63602
3.55508
3.44459
3.32316
3.22317
3.16812
3.20357
3.17817
3.14615
2.66272
2.66272
2.66272
2.66272
2.66272
2.66272
2.66272
3.13814
3.16308
3.24484
3.41041
3.64452
3.91571
4.19629
4.49672
4.74771
4.85814
4.80078
4.44747
75.4078
678.67
678.67
75.4078
2.66272
3.46432
3.62114
3.63812
3.56268
3.44448
3.32231
3.21928
3.15049
2.66272
2.66272
3.12267
2.66272
2.66272
2.66272
2.66272
2.66272
2.66272
2.66272
3.13843
3.16269
3.24477
3.4084
3.63674
3.90197
4.20025
4.46826
4.72165
4.87352
4.82075
4.47202
75.4078
678.67
678.67
75.4078
3.12653
3.45292
3.60787
3.62436
3.55953
3.44558
3.32358
3.21865
3.15381
3.13218
3.16186
2.66272
2.66272
2.66272
2.66272
2.66272
2.66272
2.66272
2.66272
3.13889
3.16443
3.24771
3.41434
3.64445
3.91796
4.20429
4.47821
4.73104
4.88393
4.85499
4.47769
75.4078
678.67
678.67
75.4078
2.66272
3.45949
3.61776
3.63443
3.56057
3.44451
3.32236
3.21986
3.15511
3.13389
3.16511
3.13989
2.66272
2.66272
2.66272
2.66272
2.66272
2.66272
2.66272
3.13939
3.16471
3.24928
3.41967
3.6565
3.92817
4.21795
4.4932
4.74897
4.90547
4.85505
4.4998
75.4078
678.67
678.67
75.4078
2.66272
3.46164
3.60995
3.63576
3.56186
3.44414
3.3226
3.22318
3.15823
3.12732
2.66272
2.66272
2.66272
2.66272
2.66272
2.66272
2.66272
2.66272
2.66272
3.14185
3.1676
3.25229
3.42016
3.65424
3.92857
4.22196
4.49965
4.75571
4.91505
4.86842
4.51297
75.4078
678.67
678.67
75.4078
3.13111
3.4734
3.62294
3.63468
3.55936
3.44095
3.31444
3.21736
3.1645
3.14808
3.12725
3.13127
2.66272
2.66272
2.66272
2.66272
2.66272
2.66272
2.66272
3.14102
3.1667
3.25171
3.41863
3.65018
3.92083
4.21707
4.51801
4.78474
4.94647
4.89386
4.53862
75.4078
678.67
678.67
75.4078
2.66272
3.45181
3.60252
3.62093
3.55046
3.43478
3.31909
3.22638
3.186
3.2386
3.19627
3.15063
2.66272
2.66272
2.66272
2.66272
2.66272
2.66272
2.66272
3.14121
3.16833
3.25487
3.42548
3.66149
3.93872
4.24666
4.55083
4.80603
4.96319
4.90254
4.54488
75.4078
678.67
678.67
75.4078
2.66272
3.46252
3.6123
3.62514
3.55813
3.44121
3.31512
3.21663
3.15436
3.12327
3.12584
3.13215
2.66272
2.66272
2.66272
2.66272
2.66272
2.66272
2.66272
3.12121
3.16239
3.25687
3.43327
3.67326
3.95121
4.25997
4.56573
4.81186
4.97991
4.92909
4.57287
75.4078
678.67
678.67
75.4078
3.13089
3.46702
3.60545
3.62439
3.5566
3.43888
3.31605
3.22222
3.16929
3.14869
3.12996
3.13316
2.66272
2.66272
2.66272
2.66272
2.66272
2.66272
2.66272
3.12722
3.16585
3.25877
3.43449
3.67599
3.95862
4.26632
4.57723
4.85127
5.00834
4.95445
4.58701
75.4078
678.67
678.67
75.4078
2.66272
3.46208
3.61674
3.63186
3.5568
3.43954
3.3195
3.22356
3.16978
3.15714
3.13605
2.66272
2.66272
2.66272
2.66272
2.66272
2.66272
2.66272
2.66272
3.13001
3.17004
3.26385
3.44041
3.68205
3.96666
4.27855
4.5954
4.86963
5.03375
4.96747
4.61193
75.4078
678.67
678.67
75.4078
2.66272
3.45525
3.61466
3.62894
3.55467
3.43816
3.31868
3.21952
3.15364
3.12265
2.66272
2.66272
2.66272
2.66272
2.66272
2.66272
2.66272
2.66272
2.66272
3.1315
3.17377
3.27248
3.45599
3.7046
3.98406
4.28631
4.59878
4.88614
5.04873
4.99557
4.62368
75.4078
678.67
678.67
75.4078
3.12464
3.46559
3.615
3.62989
3.55456
3.42891
3.31251
3.22163
3.16538
3.14697
3.16548
2.66272
2.66272
2.66272
2.66272
2.66272
2.66272
2.66272
2.66272
3.13162
3.17393
3.27332
3.45677
3.70821
4.00252
4.33356
4.66046
4.95077
5.12606
5.0474
4.66979
75.4078
678.67
678.67
75.4078
2.66272
3.45626
3.61183
3.62868
3.55663
3.4357
3.31841
3.22914
3.1791
3.17131
3.14044
2.66272
2.66272
2.66272
2.66272
2.66272
2.66272
2.66272
2.66272
3.13409
3.17739
3.27751
3.46273
3.71161
4.00537
4.33638
4.65275
4.95743
5.12687
5.10658
4.73494
75.4078
678.67
678.67
75.4078
2.66272
3.45881
3.61309
3.63319
3.55913
3.44437
3.32257
3.22456
3.18549
3.23397
3.1899
3.1438
2.66272
2.66272
2.66272
2.66272
2.66272
2.66272
2.66272
3.13577
3.18176
3.28719
3.48102
3.74262
4.0386
4.34532
4.68134
4.96851
5.12185
5.10312
4.736
75.4078
678.67
678.67
75.4078
2.66272
3.45711
3.59778
3.61562
3.55111
3.43278
3.31717
3.21707
3.1506
2.66272
3.12097
2.66272
2.66272
2.66272
2.66272
2.66272
2.66272
2.66272
2.66272
3.13681
3.18142
3.28507
3.47359
3.72888
4.02151
4.34542
4.68686
4.97727
5.1603
5.08243
4.70979
75.4078
678.67
678.67
75.4078
3.12503
3.46567
3.60979
3.62574
3.54931
3.43977
3.31777
3.22198
3.16103
3.14433
3.17154
3.13989
2.66272
2.66272
2.66272
2.66272
2.66272
2.66272
2.66272
3.13798
3.18354
3.28734
3.47803
3.73388
4.03612
4.35122
4.70037
5.00516
5.18212
5.0956
4.70213
75.4078
678.67
678.67
75.4078
2.66272
3.44527
3.60826
3.62771
3.55783
3.44405
3.32151
3.22447
3.17026
3.15713
3.13539
2.66272
2.66272
2.66272
2.66272
2.66272
2.66272
2.66272
2.66272
3.13868
3.18747
3.29769
3.4968
3.75918
4.06234
4.39845
4.72621
5.02379
5.20419
5.15367
4.77289
75.4078
678.67
678.67
75.4078
2.66272
3.45257
3.60674
3.62244
3.54248
3.42909
3.31619
3.22092
3.15756
3.1286
3.12409
2.66272
2.66272
2.66272
2.66272
2.66272
2.66272
2.66272
2.66272
3.13312
3.18434
3.29787
3.49756
3.75844
4.05808
4.38607
4.72095
4.99787
5.18226
5.15284
4.77669
75.4078
678.67
678.67
75.4078
2.66272
3.45448
3.60722
3.62608
3.55108
3.43611
3.31698
3.22876
3.17552
3.15297
3.13196
3.13316
2.66272
2.66272
2.66272
2.66272
2.66272
2.66272
2.66272
3.13197
3.18467
3.29872
3.49804
3.75557
4.04607
4.37213
4.7345
5.04943
5.23091
5.15898
4.78549
75.4078
678.67
678.67
75.4078
2.66272
3.45044
3.58792
3.61105
3.54766
3.43522
3.31705
3.22335
3.17676
3.16578
3.14036
2.66272
2.66272
2.66272
2.66272
2.66272
2.66272
2.66272
2.66272
3.13202
3.18647
3.30628
3.51491
3.78554
4.08291
4.39891
4.73861
5.03468
5.19594
5.16163
4.7918
75.4078
678.67
678.67
75.4078
2.66272
3.44323
3.5992
3.61368
3.54058
3.42818
3.31086
3.21526
3.16373
3.15711
3.13846
2.66272
2.66272
2.66272
2.66272
2.66272
2.66272
2.66272
2.66272
3.13342
3.18808
3.30808
3.51659
3.7885
4.09412
4.41499
4.73179
5.00884
5.22214
5.15483
4.77484
75.4078
678.67
678.67
75.4078
2.66272
3.4491
3.60039
3.61415
3.53197
3.42003
3.30977
3.21405
3.15172
3.12162
2.66272
2.66272
2.66272
2.66272
2.66272
2.66272
2.66272
2.66272
2.66272
3.13629
3.1921
3.31336
3.52361
3.79381
4.0997
4.42248
4.74026
5.01464
5.21924
5.15791
4.81496
75.4078
678.67
678.67
75.4078
2.66272
3.44762
3.5983
3.61473
3.54416
3.42661
3.30231
3.21351
3.16117
3.14154
3.13455
2.66272
2.66272
2.66272
2.66272
2.66272
2.66272
2.66272
2.66272
3.14241
3.19935
3.32199
3.53582
3.81028
4.11765
4.45282
4.77969
5.04759
5.23541
5.1973
4.77117
75.4078
678.67
678.67
75.4078
2.66272
3.45105
3.60244
3.61403
3.53111
3.42092
3.30527
3.21339
3.1709
3.16359
3.14031
2.66272
2.66272
2.66272
2.66272
2.66272
2.66272
2.66272
3.12233
3.14649
3.20547
3.33254
3.55219
3.83289
4.14628
4.47669
4.80133
5.11297
5.25087
5.20181
4.81293
75.4078
678.67
678.67
75.4078
2.66272
3.44666
3.59997
3.61371
3.537
3.4233
3.30613
3.21206
3.16593
3.16936
3.14202
2.66272
2.66272
2.66272
2.66272
2.66272
2.66272
2.66272
3.12137
3.14548
3.20515
3.33475
3.55918
3.84499
4.16564
4.48644
4.81571
5.10361
5.30048
5.21685
4.8259
75.4078
678.67
678.67
75.4078
2.66272
3.44848
3.6
3.61291
3.53819
3.41639
3.29612
3.20761
3.16734
3.21234
3.18316
3.14125
2.66272
2.66272
2.66272
2.66272
2.66272
2.66272
3.12235
3.14603
3.20624
3.33769
3.56368
3.84988
4.16485
4.50001
4.8416
5.14121
5.28923
5.1736
4.80202
75.4078
678.67
678.67
75.4078
2.66272
3.43675
3.59725
3.60993
3.53787
3.4227
3.3017
3.20318
3.15063
3.13759
3.12294
2.66272
2.66272
2.66272
2.66272
2.66272
2.66272
2.66272
3.12035
3.14456
3.20571
3.33805
3.56454
3.8519
4.17071
4.50506
4.84124
5.1315
5.27636
5.21422
4.84244
75.4078
678.67
678.67
75.4078
2.66272
3.44582
3.59762
3.61067
3.52938
3.4158
3.30369
3.21016
3.17445
3.23372
3.19269
3.1498
2.66272
2.66272
2.66272
2.66272
2.66272
2.66272
3.1207
3.14497
3.20839
3.34638
3.58012
3.87763
4.20617
4.54278
4.84716
5.13759
5.28786
5.18394
4.81171
75.4078
678.67
678.67
75.4078
2.66272
3.45126
3.60127
3.60154
3.53677
3.42151
3.29977
3.21381
3.18077
3.23718
3.18896
3.14376
2.66272
2.66272
2.66272
2.66272
2.66272
2.66272
3.12558
3.15051
3.21344
3.34938
3.57951
3.87074
4.19624
4.5507
4.89901
5.18237
5.31061
5.24298
4.81542
75.4078
678.67
678.67
75.4078
2.66272
3.44082
3.59042
3.61066
3.53606
3.41444
3.29741
3.2063
3.1626
3.19774
3.17565
3.13987
2.66272
2.66272
2.66272
2.66272
2.66272
2.66272
3.12338
3.14755
3.20974
3.34541
3.57351
3.86767
4.19833
4.54766
4.88968
5.17195
5.31334
5.24756
4.84226
75.4078
678.67
678.67
75.4078
2.66272
3.4555
3.60185
3.60531
3.53206
3.42202
3.30442
3.21294
3.16029
3.14127
2.66272
3.12634
2.66272
2.66272
2.66272
2.66272
2.66272
2.66272
3.12265
3.14717
3.21231
3.35035
3.57936
3.86561
4.1886
4.54483
4.87618
5.18932
5.35541
5.24938
4.86933
75.4078
678.67
678.67
75.4078
2.66272
3.4542
3.60604
3.61781
3.54225
3.42743
3.30941
3.21906
3.18219
3.22929
3.18557
3.14226
2.66272
2.66272
2.66272
2.66272
2.66272
2.66272
3.12428
3.15063
3.21882
3.36247
3.59803
3.88999
4.20841
4.55013
4.91623
5.179
5.35255
5.25312
4.86175
75.4078
678.67
678.67
75.4078
2.66272
3.44546
3.6046
3.61598
3.53081
3.41531
3.29966
3.21447
3.17879
3.22849
3.17765
3.14168
2.66272
2.66272
2.66272
2.66272
2.66272
2.66272
3.12467
3.15006
3.21722
3.36049
3.59918
3.89905
4.23355
4.57624
4.89962
5.21248
5.33949
5.30339
4.9184
75.4078
678.67
678.67
75.4078
2.66272
3.46123
3.60651
3.61798
3.53983
3.42291
3.30516
3.21867
3.17766
3.23093
3.19009
3.13822
2.66272
2.66272
2.66272
2.66272
2.66272
2.66272
3.12838
3.1565
3.22597
3.37153
3.60927
3.90501
4.23274
4.58049
4.93129
5.22054
5.36428
5.30548
4.91559
75.4078
678.67
678.67
75.4078
2.66272
3.43867
3.60035
3.61575
3.54117
3.4252
3.30828
3.21664
3.15829
3.13005
3.14897
2.66272
2.66272
2.66272
2.66272
2.66272
2.66272
2.66272
3.12972
3.16114
3.23525
3.39009
3.64184
3.95051
4.28073
4.62446
4.95027
5.22612
5.40549
5.29125
4.9098
75.4078
678.67
678.67
75.4078
2.66272
3.45021
3.59326
3.60432
3.52702
3.41725
3.29896
3.20745
3.15367
3.12211
2.66272
2.66272
2.66272
2.66272
2.66272
2.66272
2.66272
2.66272
2.66272
3.15274
3.2278
3.38174
3.63216
3.94427
4.28557
4.63708
4.96827
5.24096
5.40675
5.2962
4.91622
75.4078
678.67
678.67
75.4078
2.66272
3.45367
3.60151
3.61288
3.52831
3.40915
3.29164
3.20305
3.15246
3.13614
3.12335
3.12696
2.66272
2.66272
2.66272
2.66272
2.66272
2.66272
3.12938
3.15854
3.2316
3.38447
3.63356
3.94249
4.28512
4.64993
4.97027
5.2363
5.39842
5.30213
4.92056
75.4078
678.67
678.67
75.4078
2.66272
3.44691
3.59508
3.59706
3.52229
3.41336
3.29415
3.20402
3.15677
3.14968
3.13719
2.66272
2.66272
2.66272
2.66272
2.66272
2.66272
2.66272
3.12959
3.16044
3.2371
3.39781
3.65559
3.96988
4.30864
4.67454
5.03112
5.30945
5.43807
5.31216
4.92278
75.4078
678.67
678.67
75.4078
2.66272
3.43702
3.58563
3.60426
3.52777
3.4078
3.29584
3.20355
3.14977
3.13805
3.17036
3.14169
2.66272
2.66272
2.66272
2.66272
2.66272
2.66272
3.1321
3.16091
3.23747
3.39864
3.65524
3.97156
4.31855
4.66112
5.02089
5.29558
5.44724
5.33619
4.93028
75.4078
678.67
678.67
75.4078
2.66272
3.44947
3.59356
3.6036
3.52697
3.40968
3.29183
3.20499
3.16351
3.15776
3.14116
2.66272
2.66272
2.66272
2.66272
2.66272
2.66272
2.66272
3.13229
3.1627
3.23961
3.40041
3.65638
3.97417
4.31707
4.65812
4.99778
5.28829
5.44687
5.36332
4.92996
75.4078
678.67
678.67
75.4078
2.66272
3.42391
3.58041
3.58304
3.51702
3.40122
3.29115
3.20538
3.16642
3.17782
3.17964
3.14201
2.66272
2.66272
2.66272
2.66272
2.66272
2.66272
3.12079
3.1637
3.24854
3.41807
3.68103
3.99414
4.3291
4.6808
5.01972
5.32533
5.45801
5.37916
4.97527
75.4078
678.67
678.67
75.4078
2.66272
3.43532
3.57419
3.58123
3.50888
3.40457
3.29464
3.20974
3.17052
3.21846
3.18049
3.14084
2.66272
2.66272
2.66272
2.66272
2.66272
2.66272
3.12345
3.1648
3.24934
3.41749
3.68192
4.00015
4.33592
4.68422
5.0208
5.32027
5.46336
5.38163
4.94381
75.4078
678.67
678.67
75.4078
2.66272
3.44102
3.58401
3.59222
3.51492
3.39942
3.28219
3.19607
3.14168
3.12267
3.16121
3.13538
2.66272
2.66272
2.66272
2.66272
2.66272
2.66272
3.1218
3.16437
3.2489
3.41619
3.67803
3.99698
4.33727
4.68134
5.03252
5.3193
5.46209
5.3838
4.98253
75.4078
678.67
678.67
75.4078
2.66272
3.43191
3.57955
3.58252
3.50665
3.3921
3.27876
3.19132
3.14123
3.12783
3.15521
3.13054
2.66272
2.66272
2.66272
2.66272
2.66272
2.66272
3.12329
3.16657
3.25412
3.42971
3.70385
4.03178
4.39408
4.76114
5.10404
5.37944
5.50932
5.39051
4.95209
75.4078
678.67
678.67
75.4078
2.66272
3.42258
3.58224
3.59494
3.51756
3.40001
3.27991
3.18998
3.1398
3.12767
2.66272
2.66272
2.66272
2.66272
2.66272
2.66272
2.66272
2.66272
3.12606
3.16962
3.25846
3.43481
3.70746
4.03608
4.38315
4.75148
5.09337
5.36901
5.49864
5.36147
4.94636
75.4078
678.67
678.67
75.4078
2.66272
3.43391
3.5823
3.59316
3.51518
3.40037
3.28468
3.19642
3.1585
3.20428
3.17652
3.13754
2.66272
2.66272
2.66272
2.66272
2.66272
2.66272
3.12572
3.16916
3.25669
3.42934
3.69729
4.0234
4.37366
4.75106
5.09776
5.37234
5.47303
5.39273
4.9516
75.4078
678.67
678.67
75.4078
2.66272
3.43262
3.58558
3.59449
3.51543
3.4016
3.28663
3.19529
3.14117
3.12332
2.66272
2.66272
2.66272
2.66272
2.66272
2.66272
2.66272
2.66272
3.12782
3.17244
3.26208
3.43895
3.71043
4.0354
4.39402
4.75337
5.09597
5.36912
5.48076
5.36857
4.96405
75.4078
678.67
678.67
75.4078
2.66272
3.42054
3.57001
3.59069
3.51066
3.38682
3.27167
3.18894
3.15822
3.20669
3.17773
3.14173
2.66272
2.66272
2.66272
2.66272
2.66272
2.66272
3.13153
3.17875
3.27294
3.45823
3.73945
4.06929
4.411
4.75847
5.08901
5.35817
5.48029
5.37559
4.96383
75.4078
678.67
678.67
75.4078
2.66272
3.43161
3.57213
3.58919
3.50997
3.38663
3.27648
3.19376
3.16685
3.22176
3.18552
3.1386
2.66272
2.66272
2.66272
2.66272
2.66272
2.66272
3.13104
3.1774
3.27142
3.45452
3.733
4.06697
4.41936
4.77608
5.11961
5.38824
5.4989
5.38363
5.00942
75.4078
678.67
678.67
75.4078
2.66272
3.40991
3.56046
3.56765
3.49571
3.38587
3.2721
3.19141
3.15844
3.2078
3.18114
3.141
2.66272
2.66272
2.66272
2.66272
2.66272
2.66272
3.12734
3.17969
3.27725
3.46471
3.74548
4.07497
4.4332
4.80809
5.17449
5.43797
5.51939
5.43536
4.98697
75.4078
678.67
678.67
75.4078
2.66272
3.42037
3.5688
3.5797
3.50404
3.38962
3.27382
3.19109
3.15154
3.17984
3.12241
3.12281
2.66272
2.66272
2.66272
2.66272
2.66272
2.66272
3.12917
3.1838
3.28647
3.48376
3.77828
4.1233
4.48288
4.83066
5.17663
5.44185
5.56108
5.42058
5.01742
75.4078
678.67
678.67
75.4078
2.66272
3.42094
3.56819
3.56569
3.48912
3.38189
3.27407
3.19089
3.1444
3.13355
3.12127
2.66272
2.66272
2.66272
2.66272
2.66272
2.66272
2.66272
3.1306
3.18472
3.28608
3.47891
3.7674
4.11044
4.4726
4.82263
5.15512
5.41726
5.53853
5.44873
5.02051
75.4078
678.67
678.67
75.4078
2.66272
3.41455
3.5638
3.57
3.49569
3.38644
3.28031
3.20551
3.17594
3.22427
3.18633
3.14176
2.66272
2.66272
2.66272
2.66272
2.66272
2.66272
3.13751
3.1931
3.29625
3.4927
3.78221
4.11729
4.47449
4.84209
5.18025
5.4427
5.548
5.42158
5.0228
75.4078
678.67
678.67
75.4078
2.66272
3.40955
3.56482
3.57639
3.50152
3.39098
3.28509
3.20977
3.16674
3.13532
3.15216
2.66272
2.66272
2.66272
2.66272
2.66272
2.66272
2.66272
3.14204
3.19649
3.3047
3.51143
3.81585
4.17053
4.54009
4.90371
5.2346
5.45897
5.56145
5.44713
4.99574
75.4078
678.67
678.67
75.4078
2.66272
3.40241
3.54972
3.56878
3.49324
3.38187
3.27507
3.20173
3.16251
3.13237
2.66272
2.66272
2.66272
2.66272
2.66272
2.66272
2.66272
2.66272
3.13751
3.19631
3.30461
3.50659
3.80307
4.15328
4.52514
4.89612
5.23325
5.46541
5.57926
5.46565
5.02971
75.4078
678.67
678.67
75.4078
2.66272
3.40327
3.55454
3.56027
3.48515
3.37496
3.27147
3.19435
3.15404
3.13082
2.66272
3.13006
2.66272
2.66272
2.66272
2.66272
2.66272
2.66272
3.14208
3.20249
3.31285
3.51837
3.8154
4.15672
4.52203
4.90011
5.27035
5.54623
5.65173
5.49378
5.04551
75.4078
678.67
678.67
75.4078
2.66272
3.40232
3.55663
3.57035
3.49459
3.38151
3.2698
3.18364
3.13354
2.66272
2.66272
3.12532
2.66272
2.66272
2.66272
2.66272
2.66272
2.66272
3.14681
3.20995
3.3254
3.53981
3.84569
4.19349
4.55458
4.91821
5.2639
5.55295
5.65875
5.51241
5.09912
75.4078
678.67
678.67
75.4078
2.66272
3.39061
3.55446
3.56891
3.49061
3.3776
3.26521
3.18366
3.13634
2.66272
2.66272
2.66272
2.66272
2.66272
2.66272
2.66272
2.66272
3.12478
3.15181
3.21411
3.32942
3.54318
3.84896
4.19895
4.56208
4.92626
5.28948
5.54281
5.675
5.52311
5.1002
75.4078
678.67
678.67
75.4078
2.66272
3.4022
3.54366
3.56637
3.49114
3.37737
3.27463
3.20286
3.1604
3.13404
3.1235
3.1276
2.66272
2.66272
2.66272
2.66272
2.66272
3.12073
3.14713
3.20974
3.32544
3.54018
3.8494
4.20312
4.57211
4.95063
5.27325
5.5458
5.66302
5.51996
5.10327
75.4078
678.67
678.67
75.4078
2.66272
3.39842
3.54612
3.56203
3.48354
3.38409
3.2825
3.20797
3.16765
3.14688
3.17134
3.14215
2.66272
2.66272
2.66272
2.66272
2.66272
3.12109
3.14781
3.21089
3.32756
3.54358
3.85456
4.21459
4.58959
4.95323
5.27548
5.54726
5.65467
5.55181
5.08411
75.4078
678.67
678.67
75.4078
2.66272
3.40329
3.55272
3.56252
3.47951
3.36521
3.26142
3.19156
3.15118
3.12748
2.66272
3.12515
2.66272
2.66272
2.66272
2.66272
2.66272
3.12081
3.14895
3.21364
3.33223
3.5534
3.86879
4.22661
4.60079
4.97867
5.3171
5.5567
5.68423
5.51471
5.06791
75.4078
678.67
678.67
75.4078
2.66272
3.38555
3.54583
3.55296
3.48296
3.37102
3.25809
3.17755
3.1283
2.66272
2.66272
2.66272
2.66272
2.66272
2.66272
2.66272
2.66272
3.12259
3.1507
3.21698
3.33942
3.56635
3.88529
4.2476
4.62313
4.9986
5.33919
5.61916
5.71056
5.55964
5.11104
75.4078
678.67
678.67
75.4078
2.66272
3.39386
3.54057
3.55894
3.48172
3.37271
3.26254
3.1803
3.13778
3.12237
2.66272
2.66272
2.66272
2.66272
2.66272
2.66272
2.66272
3.12259
3.15051
3.21673
3.33979
3.56624
3.88762
4.25326
4.63429
5.01822
5.38357
5.63381
5.72403
5.57768
5.12946
75.4078
678.67
678.67
75.4078
2.66272
3.39753
3.54841
3.55748
3.48246
3.36651
3.26202
3.18265
3.14298
3.12961
2.66272
3.12678
2.66272
2.66272
2.66272
2.66272
2.66272
3.12346
3.15198
3.21897
3.34233
3.56953
3.89214
4.26111
4.64857
5.04449
5.38589
5.64497
5.74422
5.59309
5.1422
75.4078
678.67
678.67
75.4078
2.66272
3.38973
3.54341
3.55181
3.46834
3.36449
3.25933
3.18178
3.15047
3.15181
3.13344
2.66272
2.66272
2.66272
2.66272
2.66272
2.66272
3.12799
3.15642
3.22356
3.3476
3.5743
3.89448
4.26019
4.64399
5.03145
5.37704
5.63856
5.73163
5.60198
5.15118
75.4078
678.67
678.67
75.4078
2.66272
3.37861
3.52936
3.55083
3.4734
3.36454
3.25857
3.18263
3.15706
3.20036
3.17759
3.14363
2.66272
2.66272
2.66272
2.66272
2.66272
3.12813
3.1566
3.22412
3.34833
3.57609
3.89727
4.26149
4.63801
5.00985
5.35237
5.64557
5.72365
5.59537
5.14504
75.4078
678.67
678.67
75.4078
2.66272
3.38957
3.53848
3.55129
3.4742
3.35572
3.2526
3.17362
3.13357
3.1242
2.66272
2.66272
2.66272
2.66272
2.66272
2.66272
2.66272
3.12843
3.15804
3.22712
3.35455
3.58815
3.91665
4.29
4.6835
5.06184
5.3995
5.6526
5.7549
5.60185
5.14854
75.4078
678.67
678.67
75.4078
2.66272
3.40052
3.54906
3.55559
3.46689
3.35913
3.2518
3.17921
3.15313
3.19604
3.1749
3.14199
2.66272
2.66272
2.66272
2.66272
2.66272
3.13126
3.16071
3.23025
3.35878
3.59237
3.91924
4.29134
4.67689
5.05518
5.39368
5.64566
5.72623
5.59601
5.14118
75.4078
678.67
678.67
75.4078
2.66272
3.37922
3.53088
3.54123
3.47056
3.35791
3.25421
3.17658
3.13419
2.66272
3.12328
2.66272
2.66272
2.66272
2.66272
2.66272
2.66272
3.13228
3.16219
3.2317
3.36107
3.59648
3.92292
4.29014
4.67185
5.0535
5.39936
5.64843
5.72498
5.58557
5.11224
75.4078
678.67
678.67
75.4078
2.66272
3.38255
3.53167
3.54062
3.46919
3.36229
3.25811
3.17874
3.13773
3.13081
3.16047
3.13709
2.66272
2.66272
2.66272
2.66272
2.66272
3.13218
3.16234
3.23427
3.3682
3.61112
3.9502
4.33362
4.7266
5.10151
5.41427
5.66409
5.76075
5.58878
5.11772
75.4078
678.67
678.67
75.4078
2.66272
3.38839
3.53402
3.54106
3.46339
3.35039
3.24976
3.17779
3.13648
3.12767
3.15891
3.13576
2.66272
2.66272
2.66272
2.66272
2.66272
3.13258
3.16237
3.23336
3.36551
3.6039
3.93693
4.319
4.7183
5.111
5.47037
5.72766
5.80806
5.60052
5.1248
75.4078
678.67
678.67
75.4078
2.66272
3.38574
3.53138
3.53086
3.4529
3.35406
3.25115
3.17852
3.14169
3.13683
3.15567
3.13951
2.66272
2.66272
2.66272
2.66272