/*--------------------------------*- C++ -*----------------------------------*\
  =========                 |
  \\      /  F ield         | OpenFOAM: The Open Source CFD Toolbox
   \\    /   O peration     | Website:  https://openfoam.org
    \\  /    A nd           | Version:  13
     \\/     M anipulation  |
\*---------------------------------------------------------------------------*/
FoamFile
{
    format      ascii;
    class       volScalarField;
    location    "9";
    object      p_rgh;
}
// * * * * * * * * * * * * * * * * * * * * * * * * * * * * * * * * * * * * * //

dimensions      [0 2 -2 0 0 0 0];

internalField   nonuniform List<scalar> 
78750
(
0.0737513
0.073537
0.0734084
0.0732502
0.0729819
0.0726436
0.0721951
0.071609
0.0710632
0.0705688
0.0700913
0.0697134
0.069421
0.0690497
0.0687297
0.0684915
0.0683238
0.0681721
0.0680334
0.0679068
0.0677894
0.0676767
0.0675682
0.0674573
0.0673397
0.067212
0.0670784
0.0669338
0.0667911
0.0666332
0.0664977
0.0663727
0.0662353
0.0660482
0.0657675
0.073119
0.0727109
0.0722444
0.0716933
0.0711368
0.070506
0.0698129
0.0692611
0.0686965
0.0682041
0.0678338
0.0675437
0.0673529
0.067222
0.0670725
0.0669646
0.066924
0.0668867
0.0668474
0.0668144
0.0667775
0.0667257
0.0666379
0.0664948
0.0662848
0.065995
0.0656264
0.0651936
0.0646604
0.0640163
0.0632637
0.0624093
0.0614725
0.0604365
0.0592869
0.0730731
0.0723815
0.071663
0.0709017
0.0701494
0.0694335
0.0688516
0.0684251
0.0680655
0.0677248
0.0674572
0.067277
0.0671538
0.067088
0.0670463
0.0670066
0.0669723
0.0669313
0.0668751
0.0667962
0.0666839
0.0665242
0.0663005
0.0659928
0.0655781
0.0650414
0.0643662
0.0635299
0.062524
0.0613513
0.0599775
0.0584002
0.0566677
0.0547919
0.0527879
0.073845
0.0728752
0.0719089
0.0709782
0.0701059
0.0693317
0.0686637
0.0680972
0.0676625
0.0673382
0.0670876
0.0669013
0.0667657
0.0666724
0.0666065
0.0665492
0.0664921
0.0664305
0.0663506
0.0662399
0.0660834
0.0658612
0.0655494
0.0651176
0.0645389
0.0637885
0.0628271
0.0616274
0.0601616
0.0584198
0.0564097
0.0541333
0.0516256
0.0489226
0.0460729
0.0755045
0.0742773
0.0730891
0.0719691
0.070942
0.070033
0.0692526
0.0686021
0.0680727
0.0676548
0.067334
0.0670944
0.0669204
0.0667958
0.0667019
0.066621
0.066542
0.0664531
0.0663439
0.0661985
0.0659952
0.06571
0.0653054
0.0647501
0.0640116
0.0630476
0.0618098
0.0602593
0.0583627
0.0561031
0.0534798
0.0505073
0.0472288
0.0437052
0.0400091
0.0771843
0.0756885
0.0742537
0.0729099
0.0716877
0.0706089
0.0696836
0.0689114
0.068284
0.0677878
0.0674054
0.0671179
0.0669076
0.0667583
0.06665
0.0665609
0.0664774
0.0663872
0.0662733
0.0661156
0.0658901
0.0655662
0.0651043
0.0644618
0.0635903
0.0624365
0.060948
0.0590722
0.0567734
0.05402
0.0508071
0.0471607
0.0431324
0.0388063
0.0342815
0.0791967
0.0774327
0.0757414
0.0741608
0.0727244
0.071457
0.0703692
0.0694606
0.0687217
0.0681362
0.0676842
0.0673438
0.0670935
0.0669126
0.0667784
0.0666677
0.066565
0.0664546
0.0663167
0.0661278
0.0658593
0.0654743
0.0649264
0.0641647
0.0631331
0.0617635
0.0600027
0.0577756
0.0550412
0.0517708
0.0479619
0.04364
0.0388736
0.0337573
0.0284108
0.0812111
0.0791749
0.0772248
0.0754038
0.0737509
0.0722927
0.0710414
0.0699959
0.0691454
0.068471
0.0679493
0.0675546
0.0672616
0.0670463
0.0668827
0.066746
0.0666182
0.066481
0.0663107
0.06608
0.0657551
0.0652937
0.064644
0.063748
0.0625409
0.0609457
0.058892
0.0563025
0.0531272
0.0493362
0.0449272
0.0399333
0.0344308
0.028524
0.0223496
0.0833355
0.0810287
0.0788194
0.0767572
0.0748859
0.0732354
0.0718189
0.0706356
0.0696731
0.06891
0.0683199
0.067874
0.0675436
0.0673012
0.0671187
0.0669689
0.0668304
0.0666815
0.0664956
0.0662417
0.0658815
0.0653674
0.0646398
0.0636325
0.062273
0.0604747
0.0581488
0.0552238
0.0516347
0.0473407
0.0423437
0.0366814
0.0304349
0.0237282
0.0167177
0.0855107
0.0829325
0.0804641
0.0781613
0.0760729
0.0742313
0.0726509
0.0713304
0.0702575
0.0694068
0.0687489
0.0682517
0.0678834
0.0676133
0.0674116
0.0672491
0.0671011
0.0669428
0.0667449
0.0664731
0.0660849
0.065527
0.0647323
0.0636252
0.0621216
0.0601267
0.0575455
0.0542886
0.0502858
0.0454954
0.0399131
0.0335804
0.0265885
0.0190847
0.0112446
0.0876962
0.084848
0.0821229
0.0795811
0.0772762
0.0752438
0.0734998
0.0720431
0.070858
0.0699191
0.0691937
0.0686466
0.0682425
0.0679483
0.0677318
0.0675612
0.0674082
0.0672445
0.0670383
0.0667517
0.0663382
0.0657378
0.0648756
0.0636675
0.0620189
0.0598259
0.0569843
0.0533939
0.0489731
0.0436726
0.0374937
0.0304859
0.0227501
0.014455
0.00579493
0.0898705
0.0867511
0.0837664
0.0809822
0.0784573
0.0762309
0.0743209
0.072725
0.0714252
0.0703964
0.0696021
0.0690034
0.0685615
0.06824
0.0680037
0.0678179
0.0676512
0.0674728
0.0672479
0.0669351
0.0664831
0.0658258
0.0648824
0.0635609
0.0617567
0.0593575
0.0562474
0.0523113
0.0474677
0.0416623
0.0348879
0.027201
0.0187315
0.00964784
0.000166854
0.0920708
0.0886785
0.0854303
0.0823994
0.0796502
0.077225
0.0751435
0.0734049
0.0719905
0.0708682
0.0699997
0.0693425
0.0688539
0.0684926
0.0682191
0.0679958
0.0677906
0.0675704
0.067297
0.0669246
0.0663971
0.065644
0.0645806
0.0631099
0.0611179
0.0584808
0.0550668
0.0507586
0.0454704
0.0391522
0.0317957
0.0234533
0.0142568
0.00438762
-0.0059195
0.09432
0.0906559
0.0871468
0.083873
0.080904
0.078285
0.0760364
0.0741575
0.0726304
0.071419
0.0704809
0.0697705
0.0692414
0.0688489
0.0685504
0.0683062
0.0680811
0.0678394
0.0675397
0.0671323
0.0665565
0.0657359
0.0645804
0.0629864
0.0608342
0.0579837
0.054294
0.0496458
0.0439339
0.037098
0.0291414
0.0201309
0.0101915
-0.000477908
-0.0116137
0.096584
0.0926482
0.0888794
0.0853616
0.0821708
0.0793547
0.0769374
0.0749149
0.0732679
0.0719628
0.0709528
0.0701879
0.069618
0.0691944
0.068871
0.0686059
0.0683614
0.0680994
0.0677755
0.0673367
0.0667177
0.0658379
0.0646011
0.0628937
0.0605837
0.0575256
0.0535696
0.0485815
0.042455
0.0351229
0.0265835
0.0168985
0.00622043
-0.00523834
-0.0172092
0.0988957
0.0946877
0.0906573
0.0868961
0.0834847
0.080476
0.0778949
0.0757401
0.0739832
0.0725865
0.0715046
0.0706847
0.0700728
0.0696168
0.0692674
0.0689798
0.0687141
0.0684292
0.0680775
0.067602
0.0669332
0.0659853
0.0646553
0.062825
0.0603525
0.05708
0.0528467
0.0475112
0.0409574
0.0331157
0.0239878
0.0136376
0.002228
-0.010013
-0.0228023
0.101276
0.0967973
0.0925058
0.0885025
0.0848736
0.0816722
0.0789227
0.0766256
0.0747568
0.0732732
0.0721231
0.0712513
0.0706012
0.0701179
0.0697487
0.0694465
0.0691688
0.068871
0.0685028
0.0680036
0.0672995
0.0662992
0.0648928
0.0629512
0.060326
0.0568495
0.0523491
0.0466725
0.0396964
0.0313483
0.0216195
0.0106018
-0.00154759
-0.0146003
-0.0282204
0.103687
0.0989392
0.0943899
0.0901469
0.0863003
0.0829028
0.0799824
0.0775411
0.075556
0.0739816
0.0727609
0.0718344
0.0711412
0.0706243
0.0702305
0.0699079
0.0696112
0.0692941
0.0689028
0.0683727
0.0676241
0.0665604
0.0650681
0.0630108
0.0602277
0.0565404
0.0517675
0.0457513
0.0383619
0.0295194
0.0192173
0.00753919
-0.00535232
-0.019177
-0.0336202
0.106107
0.101088
0.0962793
0.0917946
0.0877244
0.0841363
0.08106
0.0784884
0.0763935
0.0747316
0.0734462
0.0724731
0.0717485
0.07121
0.0708001
0.0704684
0.0701653
0.0698395
0.0694352
0.0688847
0.0681067
0.0669988
0.0654352
0.06327
0.0603345
0.0564433
0.0514043
0.0450497
0.0372422
0.0278944
0.0170152
0.00466796
-0.00897117
-0.0235946
-0.0388657
0.108581
0.103289
0.0982168
0.093487
0.0891987
0.0854171
0.0821711
0.0794576
0.0772493
0.0754965
0.0741397
0.0731132
0.0723497
0.0717852
0.0713589
0.0710148
0.0707027
0.0703697
0.0699546
0.0693863
0.0685772
0.0674197
0.065783
0.0635113
0.060425
0.056329
0.0510235
0.0443283
0.0360903
0.0262326
0.0147347
0.00170672
-0.0126638
-0.0280809
-0.0441756
0.111073
0.10551
0.100179
0.0952077
0.0907002
0.0867222
0.0833051
0.080452
0.078133
0.0762968
0.0748776
0.0738032
0.0730043
0.0724139
0.0719699
0.0716155
0.0712946
0.0709506
0.0705212
0.0699318
0.0690907
0.0678839
0.0661727
0.0637923
0.0605541
0.0562531
0.0506813
0.0436484
0.0349977
0.0246406
0.0125593
-0.00113975
-0.0162538
-0.0324605
-0.0493756
0.113523
0.107688
0.102099
0.096886
0.0921589
0.0879922
0.0844215
0.0814386
0.0790111
0.0770865
0.075598
0.0744732
0.073638
0.0730228
0.0725619
0.0721955
0.071866
0.0715134
0.0710717
0.0704629
0.0695906
0.0683352
0.0665503
0.0640623
0.0606731
0.056168
0.0503291
0.0429523
0.0338817
0.0230131
0.0103588
-0.00401477
-0.0198734
-0.0368828
-0.0546375
0.115969
0.109863
0.104014
0.0985609
0.09362
0.0892615
0.0855224
0.0823982
0.0798569
0.0778416
0.0762832
0.075106
0.0742315
0.073587
0.0731045
0.0727188
0.0723701
0.0719963
0.0715284
0.0708844
0.0699634
0.0686403
0.0667627
0.0641496
0.0605948
0.0558723
0.0497503
0.04202
0.0325145
0.021136
0.00788469
-0.00712775
-0.0236957
-0.0414689
-0.0600365
0.118478
0.1121
0.105991
0.100296
0.0951325
0.0905751
0.0866604
0.0833926
0.0807369
0.0786323
0.0770058
0.0757766
0.0748643
0.0741913
0.0736865
0.0732844
0.072921
0.0725316
0.0720437
0.0713717
0.0704102
0.0690288
0.0670687
0.0643406
0.0606275
0.0556952
0.0493051
0.0412385
0.0313189
0.0194415
0.00559301
-0.0101027
-0.0274137
-0.0459914
-0.0653835
0.120963
0.114315
0.107947
0.102006
0.0966197
0.0918746
0.0878024
0.0843997
0.0816312
0.0794381
0.0777422
0.0764596
0.0755074
0.0748053
0.074279
0.0738604
0.0734827
0.0730783
0.072572
0.0718744
0.070876
0.0694405
0.0674017
0.0645625
0.0606961
0.0555579
0.0488989
0.0404885
0.030142
0.0177486
0.00330285
-0.0130938
-0.0311638
-0.0505327
-0.0707479
0.123411
0.116489
0.109859
0.103683
0.0980866
0.0931528
0.0889167
0.0853765
0.0824953
0.0802111
0.0784446
0.0771093
0.0761176
0.0753864
0.074839
0.0744034
0.0740106
0.0735901
0.0730632
0.0723372
0.0712979
0.0698033
0.0676803
0.0647235
0.0606984
0.0553489
0.0484139
0.0396537
0.0288845
0.0159931
0.000969613
-0.0160706
-0.0348704
-0.0550341
-0.0760843
0.125887
0.118697
0.111814
0.105392
0.0995698
0.0944332
0.0900275
0.0863492
0.0833585
0.0809871
0.0791537
0.077767
0.076737
0.0759773
0.0754077
0.074954
0.0745451
0.0741076
0.0735601
0.0728062
0.071727
0.0701752
0.0679706
0.0648997
0.0607184
0.0551617
0.0479605
0.0388692
0.0276907
0.0143072
-0.00129412
-0.0189866
-0.0385118
-0.0594664
-0.0813482
0.128365
0.120905
0.113756
0.107089
0.101046
0.0957153
0.0911421
0.0873219
0.0842135
0.0817489
0.0798429
0.0784025
0.0773325
0.0765438
0.0759526
0.0754813
0.0750561
0.0746006
0.0740304
0.0732453
0.0721221
0.070508
0.0682165
0.0650262
0.0606832
0.0549125
0.0474338
0.0379901
0.0263705
0.0124525
-0.00376423
-0.0221391
-0.0423926
-0.0641185
-0.0868157
0.130772
0.123035
0.115626
0.108726
0.102464
0.096941
0.0921999
0.0882398
0.0850185
0.0824669
0.0804937
0.0790027
0.0778964
0.0770811
0.076471
0.0759856
0.0755479
0.0750787
0.0744904
0.0736791
0.072517
0.0708457
0.0684724
0.0651667
0.0606662
0.0546858
0.046935
0.0371468
0.0251073
0.0106985
-0.00609124
-0.0251303
-0.04614
-0.0686702
-0.0921926
0.133222
0.125214
0.117545
0.110391
0.103907
0.0981917
0.0932884
0.0891946
0.0858684
0.0832318
0.0811948
0.0796554
0.0785124
0.07767
0.0770393
0.0765376
0.0760853
0.0756006
0.0749929
0.0741547
0.0729538
0.0712262
0.068772
0.0653536
0.0606984
0.0545117
0.0464943
0.0363702
0.0239189
0.00901054
-0.00836051
-0.0280667
-0.0498217
-0.0731511
-0.0974949
0.135712
0.127436
0.119505
0.112108
0.105409
0.0995028
0.0944357
0.090202
0.0867568
0.0840266
0.0819145
0.0803184
0.0791335
0.0782594
0.0776048
0.0770837
0.0766135
0.0761098
0.0754787
0.0746092
0.0733645
0.0715754
0.0690352
0.0654976
0.0606826
0.0542847
0.0459919
0.0355176
0.0226387
0.00721384
-0.0107655
-0.0311421
-0.0536205
-0.0777298
-0.102897
0.138194
0.129644
0.121456
0.113825
0.106903
0.100798
0.0955583
0.0911803
0.0876182
0.0847943
0.0826108
0.0809587
0.079733
0.0788296
0.0781517
0.0776112
0.0771232
0.0766004
0.0759462
0.0750455
0.0737572
0.0719062
0.0692793
0.0656226
0.0606464
0.0540356
0.0454697
0.0346581
0.0213628
0.00544497
-0.0131118
-0.0341543
-0.05736
-0.0822555
-0.108259
0.140664
0.131843
0.123397
0.11552
0.10838
0.102082
0.0966761
0.0921623
0.0884925
0.0855835
0.0833336
0.0816327
0.0803695
0.0794375
0.0787385
0.0781809
0.0776777
0.0771392
0.0764654
0.0755379
0.0742111
0.0723042
0.0695972
0.0658287
0.060698
0.0538793
0.045044
0.0338846
0.0201567
0.0037184
-0.0154367
-0.0371704
-0.0611348
-0.0868222
-0.113642
0.143138
0.134048
0.125338
0.117217
0.109856
0.103363
0.0977913
0.0931408
0.0893559
0.0863547
0.0840356
0.0822828
0.08098
0.0800191
0.0792985
0.0787245
0.078207
0.077653
0.0769592
0.0760038
0.0746365
0.0726714
0.0698818
0.0659977
0.0607098
0.0536822
0.0445712
0.0330629
0.0189133
0.00197517
-0.0177611
-0.0401309
-0.0648222
-0.0913149
-0.118962
0.145615
0.136251
0.127282
0.11892
0.11134
0.104658
0.0989232
0.0941282
0.0902282
0.0871376
0.0847464
0.0829381
0.0815939
0.0806023
0.0798587
0.0792661
0.0787309
0.0781578
0.0774407
0.0764538
0.0750426
0.0730155
0.0701391
0.0661354
0.0606866
0.0534469
0.0440653
0.0322225
0.0176601
0.00022241
-0.0201032
-0.043148
-0.0685742
-0.0958378
-0.124301
0.148058
0.138423
0.129192
0.120585
0.112789
0.105912
0.100009
0.0950778
0.0910688
0.0878935
0.0854373
0.0835802
0.082201
0.0811839
0.0804214
0.0798139
0.0792659
0.0786789
0.0779438
0.0769314
0.0754825
0.0734
0.0704433
0.0663272
0.0607235
0.0532767
0.0436259
0.0314399
0.0164504
-0.00150289
-0.0224237
-0.0461534
-0.0723215
-0.1004
-0.129704
0.150519
0.140613
0.131124
0.122278
0.114255
0.107174
0.101103
0.0960358
0.0919133
0.0886432
0.0861161
0.0842064
0.0827891
0.0817442
0.080961
0.0803372
0.0797744
0.0791716
0.0784167
0.0773767
0.0758879
0.0737476
0.0707088
0.0664762
0.0607139
0.0530571
0.0431333
0.0305983
0.0151825
-0.00327166
-0.0247744
-0.0491486
-0.0760471
-0.104898
-0.135022
0.152987
0.142807
0.133058
0.123973
0.115733
0.108468
0.102233
0.0970244
0.0927876
0.0894287
0.0868316
0.084868
0.0834096
0.0823342
0.0815275
0.080884
0.0803033
0.0796814
0.0789031
0.0778316
0.0762989
0.0740969
0.0709717
0.0666213
0.0607
0.0528317
0.0426353
0.029763
0.013933
-0.00502274
-0.0271168
-0.0521702
-0.0798143
-0.109468
-0.140414
0.155436
0.144989
0.134982
0.125648
0.117192
0.109737
0.103337
0.0979881
0.0936385
0.0901944
0.0875311
0.0855171
0.084021
0.0829177
0.0820912
0.0814329
0.080839
0.0802028
0.0794059
0.0783082
0.0767371
0.0744786
0.0712723
0.0668078
0.0607299
0.0526527
0.0421852
0.0289656
0.0127068
-0.00676404
-0.02946
-0.0551987
-0.0835841
-0.114029
-0.145815
0.157915
0.147193
0.136922
0.127349
0.118668
0.111008
0.10444
0.0989545
0.094492
0.0909539
0.0882185
0.0861518
0.0846172
0.0834853
0.0826367
0.0819607
0.0813506
0.080697
0.0798786
0.0787513
0.0771381
0.0748198
0.0715294
0.0669477
0.0607108
0.0524234
0.0416814
0.0281158
0.0114346
-0.00853508
-0.0318043
-0.0581841
-0.0872922
-0.118519
-0.15112
0.160377
0.149385
0.138864
0.129048
0.120151
0.112305
0.105569
0.0999438
0.09537
0.0917442
0.0889406
0.0868199
0.0852455
0.084085
0.0832154
0.0825229
0.0818985
0.08123
0.0803926
0.0792388
0.077587
0.0752123
0.07184
0.0671437
0.0607502
0.0522541
0.041244
0.0273418
0.0102468
-0.0102209
-0.0340752
-0.0611269
-0.0909753
-0.122988
-0.156414
0.162833
0.151573
0.140782
0.130723
0.121608
0.113571
0.106676
0.100915
0.0962267
0.0925108
0.0896374
0.0874654
0.0858518
0.0846624
0.0837715
0.0830631
0.0824249
0.0817416
0.0808857
0.079706
0.0780164
0.0755859
0.0721332
0.0673241
0.0607753
0.0520706
0.0407882
0.0265401
0.00901588
-0.0119752
-0.0364411
-0.0641846
-0.0947735
-0.127582
-0.161832
0.165285
0.153749
0.142703
0.132407
0.123068
0.114831
0.107763
0.101862
0.0970616
0.0932561
0.0903135
0.0880904
0.0864402
0.085224
0.0843137
0.0835894
0.0829364
0.082237
0.0813606
0.0801524
0.0784221
0.0759332
0.0723972
0.0674706
0.0607625
0.0518479
0.0402943
0.0257037
0.00775861
-0.0137322
-0.0387719
-0.0671634
-0.0984922
-0.132108
-0.16719
0.167764
0.155957
0.144651
0.134105
0.124546
0.116114
0.108879
0.102833
0.0979199
0.0940268
0.0910175
0.0887433
0.0870555
0.0858116
0.0848804
0.0841399
0.0834725
0.0827574
0.0818609
0.0806246
0.0788534
0.0763058
0.0726872
0.0676467
0.0607823
0.0516584
0.0398336
0.0249016
0.00653693
-0.0154462
-0.0410743
-0.0701383
-0.102207
-0.1366
-0.172495
0.170215
0.158134
0.146561
0.135774
0.126
0.117382
0.109985
0.103808
0.0987806
0.0947957
0.0917151
0.0893858
0.0876558
0.08638
0.0854235
0.0846617
0.0839749
0.0832396
0.0823189
0.0810509
0.0792357
0.0766262
0.0729207
0.0677598
0.0607342
0.0513983
0.0392966
0.0240124
0.0052218
-0.0172741
-0.0435013
-0.0732272
-0.106023
-0.141212
-0.177948
0.172646
0.160298
0.148474
0.137452
0.127457
0.118643
0.11108
0.104762
0.0996231
0.0955499
0.0923995
0.090018
0.0882494
0.0869451
0.0859678
0.0851893
0.0844871
0.0837351
0.0827934
0.081496
0.0796393
0.0769704
0.073181
0.0679042
0.0607205
0.0511745
0.0388044
0.0231849
0.00397395
-0.0190371
-0.045846
-0.0762465
-0.109779
-0.145742
-0.18329
0.175109
0.162488
0.1504
0.139127
0.128909
0.119897
0.112168
0.105713
0.100463
0.0963036
0.0930873
0.0906566
0.0888525
0.087523
0.0865276
0.0857358
0.0850217
0.0842567
0.0832978
0.0819756
0.0800818
0.0773578
0.0734889
0.0680994
0.0607604
0.0510062
0.0383639
0.0223959
0.00275384
-0.0207604
-0.0481633
-0.0792353
-0.113505
-0.150266
-0.188634
0.17757
0.164679
0.152332
0.14082
0.130388
0.121186
0.113286
0.106688
0.101319
0.0970653
0.0937766
0.0912894
0.0894422
0.0880802
0.0870597
0.0862473
0.0855148
0.0847307
0.0837488
0.0823962
0.08046
0.0776759
0.0737215
0.0682153
0.0607183
0.0507546
0.0378397
0.021534
0.00148455
-0.0225202
-0.0505045
-0.0822443
-0.117256
-0.154815
-0.194023
0.180022
0.166861
0.154255
0.142502
0.131847
0.122449
0.114383
0.107646
0.102166
0.0978205
0.0944634
0.0919247
0.0900386
0.0886476
0.0876053
0.0867757
0.0860279
0.0852274
0.0842248
0.0828434
0.0808658
0.078023
0.0739862
0.0683624
0.0607059
0.0505316
0.0373472
0.0206978
0.000218662
-0.0243081
-0.0528896
-0.0852879
-0.121033
-0.159364
-0.199393
0.182442
0.169007
0.156136
0.144136
0.133256
0.123665
0.115437
0.108564
0.102979
0.0985515
0.0951266
0.0925383
0.0906169
0.0892008
0.0881406
0.0872972
0.0865367
0.0857219
0.0847007
0.0832929
0.0812766
0.0783768
0.0742584
0.0685215
0.0607093
0.050326
0.0368661
0.0198663
-0.00104034
-0.0260766
-0.0552505
-0.0883282
-0.124814
-0.163954
-0.204818
0.184883
0.171173
0.158046
0.14581
0.134718
0.124938
0.116542
0.109528
0.10382
0.0992957
0.0957976
0.0931538
0.0911915
0.0897451
0.0886607
0.0877975
0.087019
0.0861849
0.0851402
0.0837008
0.0816403
0.0786779
0.074471
0.0686145
0.0606425
0.050048
0.0363188
0.0189837
-0.00233472
-0.0278535
-0.057601
-0.0913399
-0.128562
-0.168491
-0.210168
0.187316
0.17334
0.159957
0.147472
0.136161
0.126183
0.11762
0.110468
0.104651
0.100041
0.0964769
0.093784
0.0917836
0.0903088
0.0892038
0.0883236
0.08753
0.0866802
0.0856156
0.0841485
0.0820481
0.0790284
0.0747412
0.0687695
0.0606394
0.0498352
0.0358344
0.0181548
-0.00358727
-0.0296189
-0.0599614
-0.0943634
-0.132322
-0.173036
-0.215533
0.189761
0.175512
0.161863
0.149138
0.137603
0.127429
0.118701
0.111414
0.105487
0.100791
0.0971596
0.0944134
0.0923745
0.0908709
0.0897445
0.0888478
0.0880391
0.0871734
0.0860889
0.0845943
0.0824545
0.0793775
0.0750079
0.0689218
0.0606348
0.0496222
0.0353472
0.0173187
-0.0048558
-0.0314138
-0.0623549
-0.0974401
-0.136128
-0.177624
-0.220939
0.192233
0.177712
0.163805
0.150839
0.139084
0.128718
0.119821
0.112389
0.106342
0.101549
0.0978441
0.0950422
0.0929614
0.0914269
0.0902773
0.0893622
0.0885364
0.087652
0.0865451
0.0850203
0.0828377
0.0797002
0.0752454
0.0690421
0.0605967
0.0493724
0.0348258
0.0164554
-0.00613777
-0.0331792
-0.0646958
-0.10044
-0.139879
-0.182192
-0.226359
0.194679
0.179888
0.165722
0.152513
0.140539
0.129975
0.120912
0.11334
0.10718
0.102296
0.0985215
0.0956706
0.0935534
0.0919924
0.0908226
0.0898913
0.089052
0.0881531
0.087027
0.0854755
0.0832541
0.0800601
0.075524
0.0692052
0.0606021
0.0491694
0.0343529
0.0156444
-0.00736285
-0.0349165
-0.0670351
-0.103456
-0.143647
-0.186738
-0.231708
0.197083
0.182017
0.167585
0.154135
0.141941
0.131187
0.121959
0.114255
0.107992
0.103028
0.0991875
0.0962843
0.0941288
0.0925403
0.0913507
0.0904043
0.0895518
0.088639
0.0874949
0.0859177
0.0836585
0.0804089
0.0757924
0.0693612
0.0606034
0.0489627
0.0338752
0.0148226
-0.00861603
-0.0366838
-0.069394
-0.106476
-0.147386
-0.191276
-0.237093
0.199493
0.184156
0.169472
0.155777
0.143364
0.132425
0.123034
0.115188
0.108806
0.103748
0.0998373
0.0968796
0.0946843
0.0930664
0.0918552
0.0908913
0.0900221
0.0890916
0.0879258
0.086319
0.0840177
0.0807081
0.0760071
0.0694587
0.0605411
0.0486897
0.0333293
0.0139284
-0.00992999
-0.0384904
-0.0717705
-0.109514
-0.15114
-0.195793
-0.242421
0.201945
0.186335
0.17139
0.157453
0.14482
0.133674
0.124112
0.116125
0.109626
0.104476
0.100496
0.0974888
0.0952563
0.0936102
0.0923766
0.0913944
0.0905084
0.0895591
0.0883698
0.0867311
0.0843851
0.0810125
0.0762238
0.0695548
0.0604772
0.0484137
0.0327774
0.0130327
-0.011245
-0.0403179
-0.0741962
-0.112611
-0.154989
-0.200445
-0.247897
0.204352
0.188472
0.173267
0.159087
0.146233
0.134895
0.125166
0.117043
0.110438
0.105204
0.101156
0.0980958
0.095823
0.0941477
0.0928918
0.0918913
0.0909889
0.0900223
0.0888117
0.0871439
0.0847568
0.0813252
0.0764534
0.0696699
0.0604356
0.0481629
0.032258
0.0121767
-0.0125183
-0.0420942
-0.0765714
-0.115665
-0.1588
-0.205064
-0.253344
0.206783
0.190635
0.175168
0.160747
0.147676
0.136153
0.126266
0.118003
0.111284
0.105958
0.101839
0.0987251
0.0964117
0.0947053
0.0934268
0.0924082
0.0914892
0.0905052
0.0892731
0.0875762
0.0851476
0.0816572
0.0767021
0.0698017
0.0604088
0.0479271
0.0317508
0.0113256
-0.013796
-0.0438706
-0.0789206
-0.118666
-0.162521
-0.209566
-0.258671
0.209262
0.192841
0.177115
0.16245
0.149155
0.137429
0.127368
0.118965
0.112127
0.106707
0.102517
0.0993498
0.0969989
0.0952657
0.0939665
0.0929324
0.0919992
0.0909992
0.0897464
0.0880204
0.08555
0.0819994
0.0769595
0.0699421
0.0603892
0.0476946
0.0312431
0.0104649
-0.0150886
-0.0456802
-0.081326
-0.121746
-0.16633
-0.214152
-0.264076
0.211709
0.195019
0.17903
0.164121
0.150605
0.138687
0.128457
0.119917
0.112971
0.107465
0.103208
0.0999891
0.0975975
0.095833
0.0945102
0.0934564
0.0925056
0.0914873
0.0902125
0.0884571
0.0859454
0.0823359
0.0772129
0.0700804
0.0603702
0.0474659
0.0307418
0.00962458
-0.0163442
-0.0474476
-0.0836981
-0.124792
-0.170133
-0.218766
-0.269516
0.214136
0.19717
0.180918
0.165774
0.152051
0.139947
0.129557
0.120879
0.113819
0.108223
0.103896
0.100625
0.0981946
0.0964027
0.0950593
0.0939887
0.0930231
0.0919892
0.0906949
0.0889124
0.0863618
0.0826961
0.0774924
0.0702456
0.0603795
0.0472688
0.0302795
0.00882681
-0.0175575
-0.0491476
-0.0859713
-0.12774
-0.173816
-0.223226
-0.2748
0.216572
0.199343
0.182839
0.16745
0.153502
0.141197
0.130639
0.121818
0.114643
0.108957
0.104562
0.101239
0.0987733
0.0969551
0.0955933
0.0945098
0.0935332
0.0924877
0.0911776
0.0893716
0.0867851
0.0830656
0.0777826
0.070422
0.0603994
0.0470805
0.0298169
0.00801338
-0.0188019
-0.050905
-0.0883086
-0.130725
-0.177521
-0.227711
-0.28011
0.219039
0.201534
0.184763
0.169133
0.154956
0.142456
0.131736
0.122779
0.115494
0.10972
0.105256
0.101881
0.0993741
0.0975263
0.0961421
0.095041
0.0940483
0.0929851
0.0916532
0.0898176
0.087189
0.0834093
0.0780411
0.0705647
0.0603846
0.0468545
0.0293154
0.0071673
-0.0200689
-0.052685
-0.0906949
-0.133789
-0.181322
-0.232296
-0.285514
0.221479
0.203705
0.186685
0.17081
0.156422
0.143733
0.132843
0.123749
0.11635
0.110485
0.105949
0.102521
0.0999752
0.0980981
0.0966908
0.0955696
0.0945584
0.093476
0.0921209
0.0902541
0.0875819
0.0837408
0.0782879
0.0706927
0.0603525
0.0466113
0.0288035
0.0063146
-0.0213429
-0.0544513
-0.0930421
-0.136806
-0.185086
-0.23688
-0.290938
0.223917
0.205872
0.188583
0.172465
0.157856
0.144971
0.133912
0.124677
0.117165
0.111212
0.106609
0.103129
0.100545
0.0986403
0.0972136
0.0960779
0.0950537
0.0939566
0.0925823
0.0906888
0.087978
0.0840804
0.0785453
0.0708359
0.060339
0.0463877
0.0283043
0.0054741
-0.0226012
-0.0562255
-0.0954116
-0.139845
-0.188847
-0.24143
-0.29634
0.226377
0.20806
0.190512
0.174149
0.159313
0.146236
0.135012
0.125634
0.118009
0.111966
0.107293
0.103761
0.101138
0.0992032
0.0977539
0.0966008
0.0955612
0.0944478
0.0930529
0.0911307
0.0883786
0.0844216
0.0788028
0.070977
0.0603218
0.0461617
0.0278114
0.00463671
-0.0238725
-0.0580089
-0.0977869
-0.142884
-0.192638
-0.246003
-0.3017
0.228811
0.210215
0.192407
0.175808
0.160759
0.147484
0.136092
0.126579
0.11884
0.112705
0.107962
0.104376
0.101715
0.0997515
0.0982803
0.0971081
0.0960506
0.0949187
0.0935016
0.0915493
0.0887547
0.0847376
0.0790342
0.0710919
0.0602791
0.0459087
0.027283
0.00376001
-0.0251593
-0.0597813
-0.100139
-0.145907
-0.196389
-0.250543
-0.307077
0.231221
0.212359
0.194289
0.177441
0.162174
0.148709
0.137156
0.127508
0.119658
0.113437
0.108627
0.104989
0.102288
0.100297
0.0988059
0.0976185
0.0965472
0.0953996
0.0939621
0.0919818
0.0891468
0.085071
0.0792841
0.0712245
0.0602529
0.0456729
0.0267779
0.00292066
-0.0264198
-0.0615575
-0.102503
-0.148925
-0.200163
-0.255118
-0.312489
0.233695
0.214561
0.19623
0.179146
0.163659
0.149997
0.138275
0.12848
0.120516
0.114203
0.109323
0.105634
0.102896
0.100876
0.0993624
0.0981572
0.0970709
0.0959077
0.0944504
0.0924426
0.0895688
0.0854371
0.0795695
0.0713963
0.0602678
0.0454773
0.0263062
0.0020984
-0.0276791
-0.0633349
-0.104885
-0.151996
-0.203953
-0.259665
-0.317827
0.236123
0.21672
0.198138
0.18081
0.1651
0.151246
0.139357
0.129427
0.121349
0.114946
0.109995
0.106252
0.103472
0.101422
0.0998849
0.0986622
0.0975593
0.096378
0.0948987
0.0928611
0.0899443
0.0857515
0.0797977
0.0715075
0.0602212
0.0452216
0.025783
0.00123481
-0.0289501
-0.0650911
-0.107214
-0.154995
-0.207706
-0.264239
-0.323251
0.238531
0.218855
0.200008
0.182435
0.166507
0.152463
0.140412
0.130349
0.122164
0.115676
0.110658
0.106865
0.104049
0.101972
0.100416
0.0991758
0.0980577
0.0968606
0.0953612
0.0932953
0.0903386
0.0860882
0.080053
0.0716462
0.0602014
0.0449928
0.0252829
0.000397052
-0.0302078
-0.0668579
-0.109572
-0.158009
-0.211453
-0.268777
-0.328614
0.24102
0.221077
0.20197
0.184154
0.168004
0.153757
0.141531
0.131316
0.12301
0.11643
0.111345
0.1075
0.104644
0.10254
0.100964
0.0997099
0.0985789
0.0973673
0.0958491
0.0937566
0.0907601
0.0864518
0.0803346
0.0718138
0.0602119
0.0447921
0.0248048
-0.000434869
-0.0314796
-0.0686553
-0.111966
-0.161066
-0.215233
-0.273354
-0.334026
0.243465
0.223239
0.203868
0.185809
0.169437
0.155001
0.142613
0.132266
0.12385
0.117179
0.112021
0.108123
0.105228
0.103093
0.101493
0.100221
0.0990721
0.0978419
0.0963009
0.0941776
0.0911379
0.0867683
0.0805635
0.0719243
0.0601636
0.0445335
0.0242773
-0.00130501
-0.0327685
-0.0704295
-0.114329
-0.164117
-0.21903
-0.277919
-0.339399
0.245859
0.225366
0.205735
0.187436
0.170857
0.156235
0.143689
0.133211
0.124688
0.117932
0.112706
0.108756
0.105823
0.10366
0.102038
0.100746
0.0995821
0.0983353
0.0967739
0.0946231
0.091544
0.0871175
0.0808323
0.0720769
0.0601579
0.0443192
0.023793
-0.00212314
-0.0339944
-0.0721594
-0.116641
-0.167085
-0.222733
-0.282396
-0.34471
0.248355
0.227594
0.207717
0.189182
0.172373
0.157548
0.144827
0.134201
0.12556
0.11871
0.113415
0.109412
0.10644
0.104249
0.102607
0.1013
0.100121
0.0988595
0.0972789
0.0951013
0.0919844
0.0875026
0.0811373
0.0722699
0.0601955
0.0441478
0.0233471
-0.00292097
-0.0352252
-0.073914
-0.118988
-0.170085
-0.226471
-0.286966
-0.350104
0.250808
0.229777
0.209635
0.190848
0.17382
0.158802
0.145915
0.13515
0.126395
0.119457
0.11409
0.110034
0.107023
0.104803
0.103139
0.101815
0.100619
0.0993392
0.097736
0.0955276
0.0923677
0.087825
0.0813726
0.0723867
0.0601528
0.043894
0.0228236
-0.00378226
-0.0365054
-0.0756825
-0.12135
-0.173137
-0.230254
-0.291506
-0.355443
0.253256
0.231952
0.21154
0.192512
0.175276
0.160068
0.147017
0.136115
0.127245
0.120216
0.114782
0.110672
0.107618
0.105367
0.103681
0.102339
0.101128
0.0998318
0.0982081
0.0959714
0.0927706
0.0881693
0.0816347
0.0725316
0.0601395
0.0436721
0.02233
-0.00461984
-0.0377627
-0.0774475
-0.123697
-0.176153
-0.23401
-0.296081
-0.36088
0.255721
0.234147
0.213483
0.194217
0.176742
0.161333
0.148112
0.137067
0.128084
0.120966
0.115464
0.111306
0.108217
0.105939
0.10423
0.10287
0.101644
0.100331
0.0986868
0.0964222
0.0931812
0.0885218
0.0819055
0.0726884
0.0601387
0.0434594
0.021842
-0.0054576
-0.0390325
-0.0792381
-0.126091
-0.179194
-0.237797
-0.300661
-0.366271
0.258161
0.236311
0.215386
0.195871
0.178183
0.162588
0.149205
0.138032
0.128939
0.121729
0.116155
0.111941
0.108813
0.106508
0.10478
0.103403
0.102162
0.100832
0.0991668
0.0968727
0.0935897
0.0888703
0.0821681
0.0728354
0.060129
0.043242
0.0213549
-0.00628238
-0.0402728
-0.0809615
-0.12839
-0.182181
-0.241521
-0.305162
-0.371613
0.26059
0.238472
0.217282
0.19753
0.179628
0.163841
0.150292
0.138972
0.129768
0.122471
0.116828
0.112562
0.109394
0.107059
0.105309
0.103916
0.102659
0.101314
0.0996285
0.0973069
0.0939842
0.0892073
0.0824237
0.0729728
0.0601064
0.0430091
0.0208509
-0.00713171
-0.0415377
-0.0827387
-0.130754
-0.185205
-0.24528
-0.309685
-0.376921
0.263043
0.240655
0.219212
0.199219
0.181094
0.165105
0.151385
0.139925
0.130603
0.123218
0.117511
0.113197
0.109991
0.107628
0.105857
0.104447
0.103176
0.101814
0.100108
0.0977587
0.0943959
0.0895611
0.0826934
0.0731286
0.0601061
0.0427979
0.0203652
-0.00795786
-0.0427956
-0.0845141
-0.133126
-0.188247
-0.249045
-0.314294
-0.382394
0.265515
0.242856
0.221153
0.200912
0.182562
0.166381
0.152496
0.140905
0.131475
0.123999
0.118218
0.113849
0.110604
0.108212
0.10642
0.104994
0.103709
0.102332
0.100607
0.0982299
0.0948269
0.0899337
0.0829845
0.0733038
0.0601241
0.0426088
0.0199065
-0.00876248
-0.0440227
-0.0862406
-0.135448
-0.191239
-0.252798
-0.318802
-0.387723
0.267955
0.24502
0.223048
0.202564
0.184003
0.167635
0.15359
0.141855
0.132312
0.124748
0.118897
0.114474
0.111189
0.108767
0.106952
0.105507
0.104204
0.102809
0.101062
0.0986557
0.0952107
0.0902579
0.0832247
0.0734272
0.0600883
0.0423613
0.0193851
-0.00962918
-0.0453003
-0.088015
-0.137802
-0.194254
-0.256522
-0.323335
-0.393096
0.270439
0.247233
0.225011
0.204291
0.185505
0.168936
0.154716
0.14284
0.133177
0.125522
0.119604
0.11513
0.111807
0.109358
0.107522
0.106061
0.104743
0.103332
0.101564
0.0991292
0.0956441
0.0906336
0.0835165
0.0736039
0.0601075
0.0421703
0.0189258