/*--------------------------------*- C++ -*----------------------------------*\
  =========                 |
  \\      /  F ield         | OpenFOAM: The Open Source CFD Toolbox
   \\    /   O peration     | Website:  https://openfoam.org
    \\  /    A nd           | Version:  13
     \\/     M anipulation  |
\*---------------------------------------------------------------------------*/
FoamFile
{
    format      ascii;
    class       volVectorField;
    location    "9";
    object      U;
}
// * * * * * * * * * * * * * * * * * * * * * * * * * * * * * * * * * * * * * //

dimensions      [0 1 -1 0 0 0 0];

internalField   nonuniform List<vector> 
78750
(
(0.00385404 0.00596529 0.00705675)
(0.00914776 0.00332742 0.0135047)
(0.0125747 -0.0121604 0.0166045)
(0.0197448 -0.0288157 0.0167341)
(0.0278748 -0.0397483 0.0158578)
(0.0379556 -0.0435473 0.0149523)
(0.0459663 -0.048378 0.0126366)
(0.0547104 -0.0442371 0.0113328)
(0.0614375 -0.0396452 0.0102901)
(0.0676996 -0.0336008 0.00982206)
(0.0712157 -0.027007 0.00996454)
(0.0750704 -0.0185591 0.00981656)
(0.0758842 -0.014583 0.00917402)
(0.0766206 -0.011275 0.00839915)
(0.0760685 -0.00849705 0.0076668)
(0.0755637 -0.00539929 0.00689325)
(0.0742344 -0.00332012 0.00601702)
(0.0727852 -0.00116076 0.00535413)
(0.071166 0.00189183 0.00501802)
(0.0692941 0.00553931 0.00487287)
(0.067186 0.00892953 0.00473041)
(0.0648787 0.011448 0.00450127)
(0.0625162 0.0129671 0.0042224)
(0.0601044 0.0137138 0.00397886)
(0.0577243 0.0139368 0.00381467)
(0.0552998 0.0140887 0.00375077)
(0.052855 0.014289 0.00375156)
(0.0499879 0.015033 0.00377207)
(0.0469027 0.0161453 0.0037988)
(0.0426375 0.0189815 0.0039293)
(0.0382093 0.0215532 0.0039451)
(0.0317287 0.0251282 0.00388729)
(0.0245374 0.0288929 0.00402721)
(0.0148275 0.0342863 0.00444147)
(0.00428567 0.0310526 0.00292136)
(0.000703732 -0.0112175 0.00611176)
(0.0060896 -0.0508822 0.00831864)
(0.0143008 -0.0800079 0.0064934)
(0.0208126 -0.0930631 0.00469713)
(0.027763 -0.0923262 0.00417303)
(0.030467 -0.0894503 0.00414411)
(0.0346284 -0.077702 0.00539332)
(0.0364289 -0.0659436 0.00620532)
(0.0371018 -0.054478 0.00659373)
(0.0381953 -0.0421867 0.00711161)
(0.0380451 -0.0298897 0.00752795)
(0.0373397 -0.0183945 0.00813673)
(0.0368974 -0.00765164 0.00909028)
(0.0357081 0.00384245 0.00859051)
(0.0342395 0.0104303 0.0073542)
(0.0335754 0.0136397 0.0067023)
(0.0328803 0.0166007 0.00637972)
(0.0320253 0.0178848 0.00635092)
(0.0315892 0.0183617 0.00647154)
(0.0312544 0.0186773 0.00665266)
(0.0311764 0.0187368 0.0068177)
(0.0313155 0.0186308 0.00696038)
(0.0315422 0.0179852 0.00708807)
(0.0316821 0.0174391 0.00718654)
(0.0318226 0.0171227 0.00733503)
(0.0316138 0.0175418 0.00723157)
(0.0312036 0.0192912 0.00692969)
(0.0304017 0.0235525 0.00649688)
(0.0288199 0.0294256 0.00618953)
(0.026805 0.0374841 0.00600788)
(0.0239997 0.0484689 0.00589512)
(0.0198215 0.0629462 0.00567529)
(0.0148932 0.0803768 0.00537434)
(0.00796519 0.0953094 0.00467423)
(0.00171141 0.0800223 0.00296028)
(0.00086088 -0.0374052 0.00308931)
(0.00480887 -0.0984184 0.00322979)
(0.00849692 -0.117609 0.00306399)
(0.0105525 -0.117063 0.00305354)
(0.0125846 -0.110138 0.00293878)
(0.0133148 -0.0977855 0.00278708)
(0.0147252 -0.084137 0.00324088)
(0.0151902 -0.0699667 0.00394721)
(0.0147214 -0.0555912 0.00440865)
(0.0141204 -0.0414148 0.00507219)
(0.0140012 -0.027308 0.00576403)
(0.013398 -0.0139469 0.00582919)
(0.0127316 -0.00577415 0.00520723)
(0.0127871 -0.00185303 0.00457798)
(0.0132366 -0.000142961 0.00431077)
(0.014011 0.00122492 0.00429699)
(0.0149226 0.00221176 0.00443543)
(0.0159345 0.0029204 0.00462141)
(0.0169845 0.00347302 0.00482051)
(0.018037 0.0039792 0.00502358)
(0.0190843 0.00450273 0.00523539)
(0.0200962 0.00509415 0.0054398)
(0.021012 0.00592092 0.0055898)
(0.0217635 0.00732389 0.00563376)
(0.0222882 0.00965466 0.00560914)
(0.022525 0.0133274 0.00564378)
(0.0223841 0.0189573 0.00584503)
(0.0217232 0.0267968 0.00619347)
(0.0207455 0.0364308 0.0065257)
(0.0192262 0.0481174 0.00669986)
(0.0167045 0.0655178 0.00686147)
(0.0136943 0.086106 0.0066785)
(0.00999628 0.108153 0.0061645)
(0.00506693 0.125834 0.00507732)
(0.000778243 0.100734 0.00293103)
(0.000747188 -0.0498506 0.00120004)
(0.00245133 -0.106895 0.000974448)
(0.00355573 -0.123188 0.000742801)
(0.0044757 -0.122894 0.000749145)
(0.00510212 -0.116265 0.000805166)
(0.0057922 -0.104311 0.000955857)
(0.00615097 -0.0890881 0.00101329)
(0.00626844 -0.0726974 0.00116365)
(0.00693889 -0.0570999 0.00186676)
(0.00692814 -0.0423326 0.00246759)
(0.00715573 -0.0287069 0.00305143)
(0.00762544 -0.0169871 0.00343617)
(0.00828097 -0.00892413 0.00342498)
(0.00895227 -0.00507816 0.00316261)
(0.00959237 -0.00338088 0.00294002)
(0.0102015 -0.00249288 0.00288172)
(0.0109087 -0.00180758 0.00295183)
(0.011612 -0.00138248 0.00307988)
(0.0123192 -0.00112842 0.00323673)
(0.0130334 -0.000866118 0.00342291)
(0.0137345 -0.000481693 0.00362291)
(0.0144043 0.000183478 0.00382003)
(0.0150319 0.00133861 0.00399027)
(0.0155844 0.00324696 0.00413792)
(0.0160258 0.0063251 0.0043408)
(0.0163651 0.0111912 0.00468693)
(0.0166092 0.0183473 0.00517919)
(0.0165716 0.0282281 0.00581117)
(0.0159163 0.0413624 0.00642068)
(0.014949 0.0573631 0.00716538)
(0.0131167 0.0776704 0.0077165)
(0.010356 0.103491 0.00777186)
(0.00681314 0.132838 0.00720627)
(0.00273606 0.152906 0.00591852)
(2.44328e-05 0.113489 0.00323842)
(0.000174196 -0.0583004 0.000741794)
(0.00093684 -0.118753 0.000564835)
(0.00171843 -0.131446 0.000177005)
(0.00230434 -0.128683 -1.96459e-05)
(0.00283062 -0.119142 -0.000146482)
(0.0031254 -0.105337 -0.000187845)
(0.00337131 -0.0898014 -7.82676e-05)
(0.00360223 -0.0741517 0.000145858)
(0.00384548 -0.0591033 0.000428084)
(0.00415539 -0.0451765 0.000768641)
(0.00453888 -0.0328784 0.00112376)
(0.00504104 -0.0229905 0.00140603)
(0.00568327 -0.0162659 0.00153192)
(0.00637055 -0.0125699 0.0015237)
(0.00702754 -0.0107158 0.00147638)
(0.00768159 -0.00968297 0.00147099)
(0.00833806 -0.00905589 0.0015351)
(0.00896328 -0.00861783 0.00165629)
(0.0096002 -0.00818626 0.0018206)
(0.0101894 -0.00775722 0.00198387)
(0.0107482 -0.00718274 0.00213845)
(0.0112862 -0.00632047 0.00225652)
(0.0117056 -0.0051503 0.00230969)
(0.0121497 -0.00276432 0.00240004)
(0.0124282 0.00127495 0.00257659)
(0.0125464 0.00539319 0.0027351)
(0.012673 0.0139017 0.00310981)
(0.0123906 0.0263008 0.003556)
(0.0119548 0.0424591 0.0043627)
(0.0108333 0.0626955 0.00556058)
(0.00907328 0.0899582 0.00677354)
(0.006574 0.123076 0.0074135)
(0.00391973 0.154188 0.00697128)
(0.00142057 0.168471 0.00544333)
(-5.23955e-05 0.115897 0.00250576)
(0.000206007 -0.0595334 0.000173338)
(0.000629471 -0.119672 -4.22423e-05)
(0.001014 -0.134051 -0.0001198)
(0.00142911 -0.132024 -0.000162823)
(0.00183908 -0.123043 -0.000203758)
(0.0022235 -0.109416 -0.000211784)
(0.00256964 -0.0938085 -0.000178329)
(0.0028973 -0.0780536 -8.78474e-05)
(0.00323127 -0.0630929 6.21523e-05)
(0.00360379 -0.0493253 0.000269391)
(0.00403142 -0.0370694 0.000498914)
(0.00451438 -0.0269863 0.000688345)
(0.00504564 -0.0200006 0.000778154)
(0.00558238 -0.0161617 0.000775587)
(0.00607562 -0.0142575 0.000742725)
(0.00656006 -0.0131635 0.000742622)
(0.00704999 -0.0124376 0.000795758)
(0.00751653 -0.011914 0.000881672)
(0.0079687 -0.0114538 0.000985505)
(0.00840179 -0.0109246 0.00109487)
(0.00880834 -0.0101813 0.00119461)
(0.00918321 -0.00906166 0.00126363)
(0.0094918 -0.0073658 0.00129726)
(0.00975157 -0.00450777 0.001341)
(0.0099553 0.000445624 0.00141645)
(0.00995299 0.00560374 0.0015106)
(0.00971393 0.0156454 0.00175944)
(0.00950735 0.0291177 0.00209527)
(0.00907229 0.0471215 0.00278381)
(0.00802501 0.0711319 0.0038911)
(0.00693269 0.0994394 0.00547956)
(0.00563127 0.131229 0.00682767)
(0.00408332 0.161112 0.00709643)
(0.00204069 0.174942 0.00585991)
(0.000241191 0.119184 0.00259723)
(0.000102556 -0.0626954 -0.000184506)
(0.000504184 -0.124043 -0.00071379)
(0.000870726 -0.137078 -0.000945004)
(0.00119072 -0.134216 -0.00103118)
(0.00148764 -0.124356 -0.00110775)
(0.00173922 -0.110113 -0.0011661)
(0.00197791 -0.0942332 -0.00118296)
(0.00222787 -0.078494 -0.00113755)
(0.0024996 -0.0638063 -0.00101682)
(0.00280571 -0.0506272 -0.000825907)
(0.00316444 -0.0392393 -0.000585696)
(0.00358683 -0.0301172 -0.000344813)
(0.0040647 -0.0237764 -0.000164226)
(0.00456048 -0.0201363 -7.42938e-05)
(0.0050238 -0.0182445 -4.62246e-05)
(0.00548249 -0.0171457 -2.29138e-05)
(0.00595149 -0.0164102 2.41445e-05)
(0.00640819 -0.0158605 8.59884e-05)
(0.00685613 -0.0153549 0.000153062)
(0.00729225 -0.0147542 0.000216598)
(0.00771785 -0.0139177 0.000263098)
(0.00812133 -0.0127224 0.000262741)
(0.00850227 -0.0109607 0.000201042)
(0.00888162 -0.00801436 9.93878e-05)
(0.00929913 -0.00248256 -1.5553e-05)
(0.00950972 0.00421743 -0.000100281)
(0.00957949 0.0138214 -0.000124922)
(0.00970602 0.0281948 0.000158728)
(0.00945862 0.0482267 0.000456527)
(0.00908046 0.072022 0.000969792)
(0.00828749 0.100252 0.00206515)
(0.00680487 0.135159 0.00373826)
(0.00462238 0.171343 0.00508738)
(0.00200002 0.188631 0.00482513)
(0.00015442 0.126304 0.00205762)
(0.000126117 -0.063488 -0.00020354)
(0.000358362 -0.125336 -0.000530839)
(0.000597219 -0.138889 -0.000678408)
(0.000872782 -0.136212 -0.000767437)
(0.00114862 -0.126619 -0.000852905)
(0.00141456 -0.112688 -0.000930081)
(0.0016792 -0.0971124 -0.000981979)
(0.00196051 -0.081638 -0.000993103)
(0.00226915 -0.0671434 -0.000951833)
(0.00261096 -0.0540622 -0.000854346)
(0.00298904 -0.0426882 -0.000709799)
(0.00339671 -0.0334622 -0.000546603)
(0.00382146 -0.026922 -0.000410894)
(0.00423663 -0.0231088 -0.000338548)
(0.00461399 -0.0211504 -0.000321551)
(0.0049887 -0.0200404 -0.000312153)
(0.00537607 -0.0193137 -0.000284399)
(0.00575567 -0.0187748 -0.000244744)
(0.00613285 -0.0182746 -0.000200941)
(0.00650564 -0.017674 -0.000161122)
(0.00687431 -0.0168367 -0.000137833)
(0.00723516 -0.01565 -0.000158054)
(0.00758717 -0.0139639 -0.000249692)
(0.00795696 -0.0112302 -0.00040676)
(0.0083732 -0.00611343 -0.000596091)
(0.00871984 0.00272436 -0.000768926)
(0.00889764 0.0112508 -0.000887344)
(0.00897297 0.0279222 -0.00100895)
(0.0088827 0.0487095 -0.000845165)
(0.00832585 0.0756433 -0.000577719)
(0.00709506 0.110215 9.43416e-05)
(0.00507025 0.150795 0.0012937)
(0.00287741 0.187366 0.00243465)
(0.000866777 0.199788 0.00251326)
(-0.000129399 0.127982 0.000747694)
(0.000112969 -0.0647329 -0.00044301)
(0.000361628 -0.127092 -0.000980752)
(0.000579001 -0.140509 -0.00112383)
(0.000809727 -0.137606 -0.00118523)
(0.00102185 -0.127598 -0.00127035)
(0.00121081 -0.113271 -0.00136775)
(0.00139613 -0.0974928 -0.00144686)
(0.00159464 -0.082038 -0.00148054)
(0.00181844 -0.0677692 -0.00144831)
(0.00207737 -0.0550747 -0.00134262)
(0.00237413 -0.0441887 -0.00117258)
(0.00270644 -0.0354105 -0.000970093)
(0.00306427 -0.0291471 -0.000790379)
(0.00341854 -0.0254051 -0.000679572)
(0.00373864 -0.0234464 -0.000637507)
(0.00404995 -0.0223423 -0.000618289)
(0.00436547 -0.0216264 -0.000591253)
(0.00466897 -0.02109 -0.000558463)
(0.00496383 -0.0205789 -0.000524547)
(0.00524836 -0.0199545 -0.000495992)
(0.00552283 -0.0190897 -0.000484014)
(0.00578672 -0.0178936 -0.000509313)
(0.00603191 -0.0162194 -0.000586095)
(0.00626085 -0.0134572 -0.000705935)
(0.00648761 -0.00804976 -0.000830696)
(0.00659997 0.00147773 -0.000910644)
(0.00655977 0.0114199 -0.000938452)
(0.00652235 0.0290955 -0.000810279)
(0.00608249 0.0530819 -0.000428218)
(0.00535216 0.0836907 0.000181282)
(0.00433459 0.120551 0.000955624)
(0.00300404 0.161185 0.00171768)
(0.00167797 0.196185 0.00202787)
(0.000581848 0.206084 0.00146254)
(1.14256e-05 0.127963 5.77661e-05)
(9.27081e-05 -0.0653593 -0.000394825)
(0.000237999 -0.128184 -0.000827013)
(0.000386936 -0.141567 -0.000951526)
(0.000585846 -0.138614 -0.00102062)
(0.000792886 -0.128688 -0.00110062)
(0.00101684 -0.114597 -0.00119199)
(0.00125892 -0.0990923 -0.00127807)
(0.00150457 -0.0838572 -0.00134031)
(0.00176156 -0.0697866 -0.00135556)
(0.00204341 -0.0572159 -0.00130923)
(0.00233399 -0.0463932 -0.00119929)
(0.00263156 -0.0376072 -0.0010472)
(0.0029316 -0.0312663 -0.00090202)
(0.00322621 -0.0273895 -0.000810366)
(0.00349299 -0.0253241 -0.000778127)
(0.00374936 -0.0241617 -0.00077009)
(0.0040045 -0.0233997 -0.000757756)
(0.00424897 -0.0228108 -0.000741567)
(0.00448334 -0.0222383 -0.000725908)
(0.00470648 -0.0215449 -0.000716922)
(0.00492122 -0.0206119 -0.000725508)
(0.00512279 -0.0193704 -0.000768505)
(0.00529958 -0.0176155 -0.00084661)
(0.00544518 -0.0145967 -0.000949138)
(0.00552044 -0.00871001 -0.00105245)
(0.00549546 0.00147166 -0.00110669)
(0.0054108 0.0121369 -0.00105772)
(0.0051404 0.0310151 -0.000767983)
(0.0047582 0.0557285 -0.000191143)
(0.00427906 0.0866156 0.000719675)
(0.0036831 0.124053 0.00186724)
(0.00294105 0.165789 0.00290215)
(0.00203422 0.200336 0.00324739)
(0.00105423 0.208058 0.00257294)
(0.000266497 0.128548 0.000849872)
(9.51913e-05 -0.0655494 -0.000598309)
(0.000285767 -0.128878 -0.00109426)
(0.000466026 -0.142607 -0.00115202)
(0.000709258 -0.139782 -0.00118502)
(0.000959021 -0.129898 -0.00126448)
(0.00120677 -0.115798 -0.00137218)
(0.00144736 -0.100216 -0.00147398)
(0.00168833 -0.0846175 -0.0015534)
(0.00191348 -0.0707825 -0.00156799)
(0.00213055 -0.058247 -0.00152443)
(0.00235167 -0.0474717 -0.00140953)
(0.00257987 -0.0387769 -0.00124336)
(0.00281781 -0.0325189 -0.00107896)
(0.00306433 -0.0286871 -0.000972001)
(0.00329644 -0.0266176 -0.000932498)
(0.00352029 -0.0254335 -0.000928019)
(0.00374307 -0.0246407 -0.000929472)
(0.00396045 -0.0240096 -0.000931816)
(0.00417154 -0.0233838 -0.000936707)
(0.00437611 -0.0226263 -0.000949536)
(0.00457814 -0.0216271 -0.000982676)
(0.00476449 -0.0203076 -0.00105089)
(0.00492219 -0.0183638 -0.00115774)
(0.00503922 -0.0148783 -0.00130063)
(0.00508874 -0.00826251 -0.00147434)
(0.0050864 0.00274636 -0.00168989)
(0.00501955 0.0141876 -0.0017857)
(0.00495397 0.0341062 -0.00170944)
(0.00476669 0.0591532 -0.000934803)
(0.00454791 0.0902872 0.000355537)
(0.00423943 0.127822 0.00209347)
(0.00379441 0.169313 0.00382294)
(0.00287011 0.205744 0.00476871)
(0.00163175 0.214725 0.00430772)
(0.000402115 0.133132 0.00208505)
(0.000134464 -0.0662035 -0.000722193)
(0.000414721 -0.130209 -0.00121257)
(0.000627915 -0.144058 -0.00128222)
(0.000877704 -0.141257 -0.00132169)
(0.00110862 -0.131351 -0.00141116)
(0.00131365 -0.117206 -0.00153888)
(0.00150613 -0.101603 -0.00166923)
(0.00167461 -0.0862321 -0.00174902)
(0.00189045 -0.0720111 -0.00183797)
(0.0020832 -0.0593954 -0.00182432)
(0.00230993 -0.0486517 -0.00171692)
(0.00256579 -0.0399983 -0.00153172)
(0.00284092 -0.033776 -0.00132988)
(0.00312292 -0.0299558 -0.00118764)
(0.00338985 -0.0278715 -0.00113055)
(0.0036487 -0.0266712 -0.00112737)
(0.00391179 -0.0258639 -0.00114579)
(0.00417722 -0.0252159 -0.00117263)
(0.00444439 -0.0245667 -0.00120516)
(0.00471554 -0.0237762 -0.00124787)
(0.00498925 -0.0227359 -0.00131758)
(0.00525392 -0.0213267 -0.00143915)
(0.00550673 -0.0191946 -0.00163286)
(0.0057484 -0.0154692 -0.00192307)
(0.00597427 -0.00863939 -0.00234766)
(0.0062258 0.00292885 -0.0028804)
(0.00642908 0.0140774 -0.00322623)
(0.00651194 0.0337813 -0.00338833)
(0.00670653 0.0589977 -0.00340979)
(0.00657627 0.0903824 -0.00280685)
(0.00611469 0.12834 -0.00113982)
(0.00479508 0.172146 0.00146315)
(0.00301532 0.212123 0.00340526)
(0.00141018 0.22161 0.00363086)
(0.000193995 0.137655 0.00128967)
(0.000161191 -0.0671196 -0.0007461)
(0.000424536 -0.131559 -0.00112595)
(0.000594745 -0.145202 -0.00116345)
(0.000792317 -0.142169 -0.00119589)
(0.000969768 -0.131969 -0.00128369)
(0.00113169 -0.117579 -0.00141684)
(0.00127526 -0.101801 -0.00156361)
(0.00145231 -0.0866296 -0.00170278)
(0.0016173 -0.0723464 -0.001785)
(0.00183896 -0.0600883 -0.00180929)
(0.00209842 -0.0497078 -0.00174145)
(0.00239234 -0.0413717 -0.00158745)
(0.00270344 -0.0353092 -0.00139709)
(0.003009 -0.0315273 -0.00125057)
(0.00328968 -0.0294598 -0.00118901)
(0.00356471 -0.0282938 -0.00118792)
(0.00385016 -0.027544 -0.00121462)
(0.00414307 -0.0269639 -0.00125271)
(0.00444472 -0.0263819 -0.00129725)
(0.00475686 -0.0256542 -0.00135204)
(0.00508039 -0.0246666 -0.00143423)
(0.00540783 -0.0233419 -0.00158295)
(0.00575093 -0.0214126 -0.00183836)
(0.00614822 -0.0180011 -0.00225461)
(0.00656316 -0.0112897 -0.00286815)
(0.0070826 0.000505317 -0.00365746)
(0.00736635 0.0121976 -0.00419474)
(0.00748282 0.0332012 -0.00481146)
(0.00741107 0.0593452 -0.00536311)
(0.00670257 0.0940149 -0.00524237)
(0.00546504 0.138632 -0.00420208)
(0.00361315 0.18882 -0.00218232)
(0.00185927 0.225699 -8.53127e-05)
(0.000439675 0.231463 0.000685107)
(-6.85716e-05 0.138502 -0.000143111)
(0.000159285 -0.0677836 -0.000761605)
(0.000363777 -0.132472 -0.00108211)
(0.00047429 -0.14597 -0.00109198)
(0.000640866 -0.142882 -0.00111466)
(0.000823208 -0.132738 -0.00118774)
(0.0010205 -0.118351 -0.00129639)
(0.00118962 -0.102673 -0.00142793)
(0.00134429 -0.0874741 -0.001559)
(0.00150494 -0.0735208 -0.0016523)
(0.00170053 -0.0613348 -0.00169426)
(0.00192125 -0.0510334 -0.00165433)
(0.00216282 -0.0427197 -0.00152795)
(0.00241365 -0.0366124 -0.00135523)
(0.00265633 -0.0327417 -0.00121153)
(0.00287845 -0.0306026 -0.0011447)
(0.00309287 -0.0294106 -0.00113854)
(0.00331105 -0.0286621 -0.00116157)
(0.00353054 -0.0280892 -0.00119617)
(0.003751 -0.0275116 -0.00123623)
(0.00397402 -0.0267862 -0.00128512)
(0.00420062 -0.0258058 -0.0013587)
(0.00442033 -0.0245164 -0.00149276)
(0.00464319 -0.0226658 -0.0017366)
(0.00486014 -0.0192773 -0.00215062)
(0.00511383 -0.0122076 -0.00278474)
(0.00526948 0.000489435 -0.00349517)
(0.0053392 0.01439 -0.00399317)
(0.00532712 0.0379434 -0.00448705)
(0.00483652 0.0692201 -0.00469211)
(0.00405076 0.107053 -0.00461172)
(0.00290353 0.151254 -0.00403338)
(0.0018358 0.198281 -0.00278266)
(0.00100689 0.233838 -0.00154316)
(0.000275139 0.235164 -0.000924322)
(3.50475e-05 0.137925 -0.00088002)
(0.000184688 -0.068329 -0.000764559)
(0.000391588 -0.133152 -0.00100939)
(0.000501905 -0.146558 -0.00100457)
(0.000682113 -0.143739 -0.00104767)
(0.000834616 -0.133701 -0.00112012)
(0.000997857 -0.11934 -0.00122097)
(0.00116861 -0.103223 -0.00131036)
(0.00134026 -0.0876006 -0.00139459)
(0.00158017 -0.0739217 -0.00151187)
(0.00173862 -0.0619278 -0.00158105)
(0.00189629 -0.051792 -0.00157482)
(0.00208501 -0.0436141 -0.00147881)
(0.00230655 -0.0375888 -0.00132438)
(0.00253336 -0.0337238 -0.00118505)
(0.00274489 -0.0315648 -0.00111666)
(0.00295046 -0.0303668 -0.00111038)
(0.00316171 -0.0296247 -0.00113755)
(0.00337588 -0.029059 -0.00117825)
(0.00359204 -0.028482 -0.001225)
(0.00381144 -0.0277499 -0.00128127)
(0.00403231 -0.0267726 -0.00136613)
(0.00425064 -0.0254722 -0.00151531)
(0.00447328 -0.0235761 -0.00178255)
(0.004685 -0.0201497 -0.00222489)
(0.00488604 -0.012878 -0.00292098)
(0.00505816 0.00033979 -0.00377215)
(0.00504866 0.0147409 -0.00434904)
(0.00484677 0.0389844 -0.00486398)
(0.00435716 0.0703489 -0.00492419)
(0.00359185 0.109759 -0.004527)
(0.00258035 0.156007 -0.00371404)
(0.00124894 0.2026 -0.00264244)
(0.000284565 0.236703 -0.00187462)
(9.68343e-05 0.239041 -0.00172384)
(0.000183268 0.138203 -0.0013578)
(0.000193483 -0.0691126 -0.000708506)
(0.000374809 -0.134049 -0.000899435)
(0.000452656 -0.147614 -0.000906101)
(0.000576105 -0.144301 -0.000902009)
(0.000670091 -0.134187 -0.000967999)
(0.000731546 -0.119714 -0.0010542)
(0.000834576 -0.104325 -0.0011806)
(0.00101857 -0.0892773 -0.00129767)
(0.0011834 -0.074978 -0.00133061)
(0.0013725 -0.0623203 -0.00131556)
(0.0015482 -0.0520905 -0.00128792)
(0.00172369 -0.0441643 -0.00122323)
(0.00190725 -0.0383956 -0.00111903)
(0.00208002 -0.0345845 -0.00100934)
(0.00224115 -0.032423 -0.000952229)
(0.00239884 -0.0312326 -0.000947061)
(0.00256227 -0.030511 -0.000970943)
(0.00272811 -0.0299664 -0.00100659)
(0.00289605 -0.0294043 -0.00104715)
(0.00306771 -0.0286823 -0.00109559)
(0.0032421 -0.0277184 -0.00116897)
(0.00341982 -0.0264475 -0.00130324)
(0.00359027 -0.0245985 -0.00155415)
(0.00378519 -0.0211331 -0.00200442)
(0.0039525 -0.0134119 -0.00268837)
(0.00409257 0.00114053 -0.0035075)
(0.00403199 0.0182357 -0.00407471)
(0.00372345 0.0458427 -0.00456312)
(0.00314135 0.0803929 -0.00464251)
(0.00231915 0.121715 -0.00425571)
(0.00150742 0.168503 -0.00348321)
(0.000351157 0.215069 -0.002645)
(-0.000372927 0.243418 -0.00211269)
(-0.000167641 0.236905 -0.00182183)
(0.000104903 0.136811 -0.00153684)
(0.000146329 -0.0694201 -0.000580249)
(0.000276266 -0.134305 -0.000751209)
(0.00033388 -0.147649 -0.000753946)
(0.000448955 -0.144532 -0.000772306)
(0.000588547 -0.134087 -0.000802199)
(0.000784883 -0.119794 -0.000879002)
(0.000938601 -0.104267 -0.000979917)
(0.00101371 -0.089546 -0.00111016)
(0.00106398 -0.075406 -0.0011672)
(0.00118245 -0.0632918 -0.00120542)
(0.00132679 -0.0530793 -0.00118799)
(0.00146493 -0.044935 -0.00111433)
(0.00158001 -0.0388767 -0.000989883)
(0.00171009 -0.0349818 -0.000878385)
(0.00183293 -0.0327899 -0.000817188)
(0.0019586 -0.0316015 -0.000809692)
(0.00207922 -0.0308747 -0.000825112)
(0.00220135 -0.0303237 -0.000851879)
(0.00232023 -0.0297525 -0.000883303)
(0.00244052 -0.0290235 -0.000923538)
(0.00256018 -0.0280603 -0.000986439)
(0.00268021 -0.0268057 -0.00110339)
(0.00278844 -0.0249659 -0.00131912)
(0.00288199 -0.0213788 -0.0017181)
(0.00296469 -0.0131244 -0.00238323)
(0.00296802 0.00222254 -0.00312814)
(0.0028588 0.0208458 -0.00361181)
(0.00257718 0.0489183 -0.00395646)
(0.0020555 0.0832504 -0.00396595)
(0.00132173 0.124336 -0.00359675)
(0.000337475 0.171238 -0.00290722)
(-0.000258713 0.217755 -0.00221984)
(-0.000281823 0.242018 -0.00180445)
(7.70255e-05 0.2372 -0.00176844)
(0.000186906 0.136454 -0.00145224)
(0.000127089 -0.0695224 -0.000473416)
(0.000229935 -0.135062 -0.000626515)
(0.000278375 -0.148478 -0.000631717)
(0.000386665 -0.145426 -0.000653388)
(0.000511109 -0.135848 -0.000724312)
(0.000636863 -0.121478 -0.000788126)
(0.000747609 -0.105248 -0.000836317)
(0.000817353 -0.0895872 -0.00088408)
(0.000862999 -0.0755333 -0.000930479)
(0.000951146 -0.0633611 -0.00095262)
(0.00107677 -0.0530734 -0.00092723)
(0.00120131 -0.0448943 -0.000853457)
(0.00132122 -0.0390951 -0.000772315)
(0.00144881 -0.0354959 -0.000718045)
(0.00155093 -0.0333796 -0.000682296)
(0.00165254 -0.0321704 -0.000673542)
(0.00176062 -0.0314366 -0.000688047)
(0.00186493 -0.0308823 -0.000711411)
(0.001973 -0.0303136 -0.000739754)
(0.00208284 -0.0295897 -0.000774684)
(0.00218663 -0.028637 -0.000829343)
(0.00229635 -0.0274112 -0.000938569)
(0.00241872 -0.0256077 -0.00115644)
(0.00251802 -0.0220026 -0.00154113)
(0.00259596 -0.013434 -0.00214671)
(0.00261156 0.00276552 -0.00280476)
(0.00244289 0.0230932 -0.00326696)
(0.00193932 0.053707 -0.00358386)
(0.00122478 0.0915062 -0.00354554)
(0.000403775 0.134903 -0.00315755)
(-0.000383335 0.181195 -0.00252979)
(-0.000490311 0.220852 -0.00189671)
(-0.000324887 0.241943 -0.00156007)
(-6.68688e-06 0.236278 -0.00158198)
(0.000137415 0.135646 -0.00144574)
(0.000127013 -0.0695906 -0.000392447)
(0.000229062 -0.135067 -0.000499441)
(0.000274221 -0.148637 -0.00051458)
(0.00034894 -0.145401 -0.000524418)
(0.000380892 -0.135696 -0.000584227)
(0.00033405 -0.121219 -0.000635956)
(0.000350738 -0.104901 -0.000659622)
(0.000462187 -0.0894839 -0.000699551)
(0.000589711 -0.075724 -0.000747267)
(0.000665455 -0.0640325 -0.000792219)
(0.000706976 -0.0539025 -0.000779532)
(0.000770377 -0.0456812 -0.000717702)
(0.000856537 -0.0396377 -0.000631073)
(0.000909336 -0.0356353 -0.000541362)
(0.000964134 -0.0334512 -0.000501683)
(0.0010123 -0.0322592 -0.000492941)
(0.00105457 -0.0315112 -0.000495307)
(0.00110482 -0.0309678 -0.00050812)
(0.00114895 -0.0304084 -0.000524182)
(0.0011872 -0.0296969 -0.000544826)
(0.00123326 -0.028782 -0.000583151)
(0.00126012 -0.0275772 -0.000646748)
(0.00126027 -0.025746 -0.000766606)
(0.00123306 -0.0218537 -0.00100169)
(0.00111221 -0.0123656 -0.00138377)
(0.000962282 0.00521945 -0.0018305)
(0.000675081 0.0289413 -0.00213886)
(0.000285554 0.0606296 -0.00238616)
(-8.31286e-05 0.0967332 -0.00241909)
(-0.000372102 0.137781 -0.00223517)
(-0.0004417 0.180536 -0.00182386)
(-0.000236139 0.218331 -0.00132002)
(-0.000106889 0.240768 -0.00110263)
(0.000149106 0.235438 -0.00116896)
(0.000261152 0.1353 -0.0010273)
(0.000125823 -0.0697413 -0.000330623)
(0.00022866 -0.135811 -0.000450433)
(0.000240973 -0.149107 -0.000449809)
(0.000290387 -0.145901 -0.000458762)
(0.000335645 -0.135251 -0.000472541)
(0.000435626 -0.120934 -0.000517782)
(0.000477821 -0.105849 -0.000595025)
(0.000512599 -0.0909723 -0.000660729)
(0.000528619 -0.0764635 -0.000671302)
(0.000532967 -0.063566 -0.000650099)
(0.000529928 -0.0531855 -0.00062308)
(0.000530891 -0.0451743 -0.000575999)
(0.000553944 -0.039393 -0.000508924)
(0.000608909 -0.0357119 -0.000450595)
(0.000659913 -0.0335518 -0.000411162)
(0.000701779 -0.0323462 -0.000400368)
(0.000753118 -0.0316727 -0.000414556)
(0.000787836 -0.0311232 -0.000428071)
(0.000820863 -0.0305257 -0.000441348)
(0.000849554 -0.0297578 -0.00045669)
(0.000866535 -0.0287613 -0.000479693)
(0.000878867 -0.0275058 -0.000530949)
(0.000867609 -0.025575 -0.000631274)
(0.000813855 -0.0213929 -0.000818451)
(0.000677351 -0.0115005 -0.00110669)
(0.00050505 0.00617851 -0.00141524)
(0.000316066 0.0298112 -0.00159807)
(0.000194294 0.0613204 -0.00168415)
(9.97535e-05 0.0972098 -0.00167106)
(8.83431e-05 0.140132 -0.00150024)
(9.292e-05 0.180639 -0.00119651)
(6.15811e-05 0.218159 -0.000832186)
(6.15349e-05 0.241461 -0.000688585)
(0.000257126 0.235547 -0.000760703)
(0.000262334 0.135197 -0.000656795)
(0.000131825 -0.0697488 -0.000278222)
(0.000214065 -0.135877 -0.000375981)
(0.00020787 -0.148946 -0.000363188)
(0.00027058 -0.145968 -0.000376357)
(0.000321444 -0.136296 -0.000418913)
(0.000339793 -0.121804 -0.00045931)
(0.000325273 -0.105517 -0.000495534)
(0.000202991 -0.0894586 -0.000515419)
(0.000117234 -0.0754915 -0.00053531)
(9.17235e-05 -0.0635014 -0.000537898)
(0.000133552 -0.0532464 -0.000500964)
(0.000193924 -0.0451911 -0.000446133)
(0.0002436 -0.039415 -0.000386508)
(0.000280897 -0.0357247 -0.000337671)
(0.000314028 -0.0336136 -0.000311603)
(0.000340329 -0.0324053 -0.000301594)
(0.000352809 -0.0316294 -0.000296833)
(0.000362135 -0.0310444 -0.000300172)
(0.00036252 -0.030433 -0.000306722)
(0.000357677 -0.029666 -0.000316453)
(0.000348458 -0.0286853 -0.000332674)
(0.000331091 -0.0274348 -0.000363123)
(0.00029028 -0.025451 -0.000421417)
(0.000198969 -0.0209463 -0.00052823)
(3.31219e-05 -0.0102166 -0.00068604)
(-0.000141355 0.00867354 -0.000855626)
(-0.00024504 0.0336268 -0.000971012)
(-0.00021143 0.0637831 -0.00104883)
(-0.000198663 0.100543 -0.000996034)
(-3.9378e-05 0.138709 -0.000904358)
(0.000166867 0.182376 -0.000643332)
(0.000246425 0.219828 -0.000391206)
(0.000238044 0.241114 -0.000293953)
(0.000361597 0.235329 -0.000379)
(0.000298972 0.135187 -0.000369198)
(0.000165173 -0.0699126 -0.000246119)
(0.000226261 -0.136602 -0.000341537)
(0.000165573 -0.149643 -0.000320799)
(0.000178858 -0.146377 -0.000319911)
(0.000136902 -0.135907 -0.000336799)
(1.33155e-05 -0.121219 -0.000370671)
(-2.09641e-05 -0.104775 -0.000388089)
(5.51321e-05 -0.0894306 -0.000416774)
(0.000119838 -0.0754948 -0.000436425)
(0.000167376 -0.0633505 -0.000435977)
(0.000191335 -0.0536093 -0.00042586)
(0.000214531 -0.0453825 -0.000380763)
(0.000251162 -0.0395252 -0.000331247)
(0.000284831 -0.0357588 -0.000291296)
(0.000308119 -0.0335465 -0.000269805)
(0.000320925 -0.0323201 -0.000265596)
(0.000328428 -0.03156 -0.000270441)
(0.000334057 -0.0309313 -0.000278719)
(0.000336039 -0.0302697 -0.000289861)
(0.000334116 -0.0294522 -0.000304523)
(0.000326762 -0.0284285 -0.000325528)
(0.000304973 -0.0271222 -0.000357454)
(0.000250635 -0.0250068 -0.000408397)
(0.000140298 -0.0202718 -0.000484022)
(1.57147e-06 -0.00955493 -0.000564951)
(-8.73054e-05 0.008777 -0.000590813)
(3.2922e-05 0.0326738 -0.00060509)
(0.000205601 0.0626813 -0.000605118)
(0.00037055 0.0987515 -0.000568357)
(0.000455987 0.138194 -0.000439455)
(0.000438811 0.18082 -0.000273211)
(0.000528675 0.218276 -8.37032e-05)
(0.000447622 0.240959 -1.73338e-05)
(0.000551822 0.236304 -0.000108241)
(0.00041852 0.1359 -0.000148437)
(0.000170311 -0.0698337 -0.000219724)
(0.000214098 -0.135736 -0.000268112)
(9.50651e-05 -0.149526 -0.00026248)
(7.5904e-05 -0.145766 -0.000248263)
(8.98131e-05 -0.135268 -0.000254892)
(0.000148527 -0.120603 -0.000283293)
(0.000129251 -0.105743 -0.000351035)
(0.000115802 -0.0905758 -0.000399541)
(0.000111117 -0.0761136 -0.000419381)
(0.000123416 -0.0639545 -0.000433805)
(0.000121299 -0.0532318 -0.000408879)
(0.000136826 -0.0451913 -0.000371776)
(0.000178403 -0.0394588 -0.000327773)
(0.000225692 -0.0357869 -0.00029299)
(0.000263284 -0.0335557 -0.000270156)
(0.000303739 -0.0323285 -0.000265964)
(0.000340151 -0.0315755 -0.000274211)
(0.000377611 -0.0309856 -0.000289213)
(0.000416909 -0.0303576 -0.000308227)
(0.000459337 -0.0295669 -0.000331955)
(0.000502762 -0.0285565 -0.000364281)
(0.000541004 -0.0272507 -0.000413266)
(0.000568309 -0.0251483 -0.0004923)
(0.000563742 -0.0204705 -0.000624259)
(0.000537919 -0.00970572 -0.000809746)
(0.00056755 0.00872105 -0.000937451)
(0.00059091 0.0323553 -0.000909565)
(0.000602317 0.0631571 -0.000799368)
(0.000518545 0.0988098 -0.000607959)
(0.000440004 0.140227 -0.000405152)
(0.000344212 0.180819 -0.000177721)
(0.000195733 0.219886 5.66015e-06)
(0.00013863 0.242434 6.79024e-05)
(0.000352084 0.236507 -2.68851e-05)
(0.000344312 0.136383 -0.000129526)
(0.000157434 -0.0701694 -0.000157777)
(0.00021846 -0.135825 -0.000182729)
(0.000183802 -0.149136 -0.000167481)
(0.000221528 -0.146309 -0.000174278)
(0.000223582 -0.136341 -0.000195105)
(0.000227596 -0.121229 -0.000215903)
(0.000200614 -0.104726 -0.000247993)
(8.5943e-05 -0.0890567 -0.000286324)
(-6.63898e-06 -0.0755081 -0.000332408)
(-8.77236e-05 -0.0629834 -0.000339158)
(-0.000102781 -0.0530033 -0.000333996)
(-7.5554e-05 -0.0453053 -0.000316662)
(-4.32769e-05 -0.0395604 -0.000285418)
(-1.18807e-05 -0.0357872 -0.000256386)
(2.42447e-05 -0.0337251 -0.000245082)
(5.28284e-05 -0.0324998 -0.000241208)
(7.62414e-05 -0.0317666 -0.000247569)
(9.67293e-05 -0.0311788 -0.000258708)
(0.000114173 -0.0305515 -0.000273275)