/*--------------------------------*- C++ -*----------------------------------*\
  =========                 |
  \\      /  F ield         | OpenFOAM: The Open Source CFD Toolbox
   \\    /   O peration     | Website:  https://openfoam.org
    \\  /    A nd           | Version:  13
     \\/     M anipulation  |
\*---------------------------------------------------------------------------*/
FoamFile
{
    format      ascii;
    class       volScalarField;
    location    "46";
    object      nut;
}
// * * * * * * * * * * * * * * * * * * * * * * * * * * * * * * * * * * * * * //

dimensions      [0 2 -1 0 0 0 0];

internalField   nonuniform List<scalar> 
78750
(
3.27176e-19
2.94458e-18
1.46562e-17
1.46562e-17
1.46562e-17
1.46562e-17
1.46562e-17
1.46562e-17
1.46562e-17
1.46562e-17
1.46562e-17
1.46562e-17
1.46562e-17
1.46562e-17
1.46562e-17
1.46562e-17
1.46562e-17
1.46562e-17
1.46562e-17
1.46562e-17
1.46562e-17
1.46562e-17
1.46562e-17
1.46562e-17
1.46562e-17
1.46562e-17
1.46562e-17
1.46562e-17
1.46562e-17
1.46562e-17
1.46562e-17
1.46562e-17
1.46562e-17
2.94458e-18
3.27176e-19
3.27176e-19
2.94458e-18
8.33901e-17
8.33901e-17
8.33901e-17
8.33901e-17
8.33901e-17
8.33901e-17
8.33901e-17
8.33901e-17
8.33901e-17
8.33901e-17
8.33901e-17
8.33901e-17
8.33901e-17
8.33901e-17
8.33901e-17
8.33901e-17
8.33901e-17
8.33901e-17
8.33901e-17
8.33901e-17
8.33901e-17
8.33901e-17
8.33901e-17
8.33901e-17
8.33901e-17
8.33901e-17
8.33901e-17
8.33901e-17
8.33901e-17
8.33901e-17
8.33901e-17
2.94458e-18
3.27176e-19
3.27176e-19
2.94458e-18
8.33901e-17
8.33901e-17
8.33901e-17
8.33901e-17
8.33901e-17
8.33901e-17
8.33901e-17
8.33901e-17
8.33901e-17
8.85398e-17
9.48278e-17
1.00913e-16
1.06211e-16
1.10307e-16
1.12916e-16
1.13871e-16
1.13111e-16
1.10683e-16
1.06745e-16
1.01565e-16
9.55446e-17
8.92463e-17
8.34818e-17
8.33901e-17
8.33901e-17
8.33901e-17
8.33901e-17
8.33901e-17
8.33901e-17
8.33901e-17
8.33901e-17
2.94458e-18
3.27176e-19
3.27176e-19
2.94458e-18
8.33901e-17
8.33901e-17
8.33901e-17
8.33901e-17
8.38616e-17
9.43427e-17
1.0785e-16
1.23307e-16
1.39777e-16
1.56364e-16
1.72203e-16
1.86483e-16
1.98474e-16
2.07562e-16
2.13282e-16
2.15337e-16
2.13621e-16
2.08222e-16
1.99417e-16
1.8766e-16
1.73552e-16
1.57817e-16
1.41269e-16
1.2477e-16
1.09197e-16
9.54731e-17
8.46637e-17
8.33901e-17
8.33901e-17
8.33901e-17
8.33901e-17
2.94458e-18
3.27176e-19
3.27176e-19
2.94458e-18
8.33901e-17
8.33901e-17
8.33901e-17
9.33188e-17
1.11149e-16
1.3269e-16
1.57034e-16
1.83219e-16
2.10196e-16
2.36843e-16
2.62e-16
2.84524e-16
3.03359e-16
3.17594e-16
3.26528e-16
3.29716e-16
3.26995e-16
3.18502e-16
3.0466e-16
2.86151e-16
2.63868e-16
2.38861e-16
2.12268e-16
1.85252e-16
1.58943e-16
1.34399e-16
1.12594e-16
9.44086e-17
8.33901e-17
8.33901e-17
8.33901e-17
2.94458e-18
3.27176e-19
3.27176e-19
2.94458e-18
8.33901e-17
8.33901e-17
9.34718e-17
1.15505e-16
1.42302e-16
1.73069e-16
2.06917e-16
2.42782e-16
2.79415e-16
3.15413e-16
3.49291e-16
3.79563e-16
4.04841e-16
4.23925e-16
4.35887e-16
4.40136e-16
4.36461e-16
4.25041e-16
4.06441e-16
3.81564e-16
3.51591e-16
3.179e-16
2.81973e-16
2.45299e-16
2.09291e-16
1.75211e-16
1.44137e-16
1.16967e-16
9.4494e-17
8.33901e-17
8.33901e-17
2.94458e-18
3.27176e-19
3.27176e-19
2.94458e-18
8.33901e-17
8.38135e-17
1.07857e-16
1.37287e-16
1.71674e-16
2.10395e-16
2.52557e-16
2.96973e-16
3.42182e-16
3.86512e-16
4.28172e-16
4.65363e-16
4.96397e-16
5.19811e-16
5.34476e-16
5.3967e-16
5.35137e-16
5.21098e-16
4.98241e-16
4.6767e-16
4.30825e-16
3.89381e-16
3.45135e-16
2.99881e-16
2.55304e-16
2.12883e-16
1.73826e-16
1.3905e-16
1.09202e-16
8.47023e-17
8.33901e-17
2.94458e-18
3.27176e-19
3.27176e-19
2.94458e-18
8.33901e-17
9.17524e-17
1.21309e-16
1.56613e-16
1.97295e-16
2.42731e-16
2.91965e-16
3.43676e-16
3.96214e-16
4.4767e-16
4.95988e-16
5.39099e-16
5.75057e-16
6.02176e-16
6.19151e-16
6.25152e-16
6.19882e-16
6.03598e-16
5.77096e-16
5.41649e-16
4.98921e-16
4.50842e-16
3.99479e-16
3.46893e-16
2.95004e-16
2.45484e-16
1.99676e-16
1.5856e-16
1.22782e-16
9.27279e-17
8.33901e-17
2.94458e-18
3.27176e-19
3.27176e-19
2.94458e-18
8.33901e-17
9.83924e-17
1.32504e-16
1.72636e-16
2.18474e-16
2.69408e-16
3.2443e-16
3.82116e-16
4.40659e-16
4.97957e-16
5.51736e-16
5.99703e-16
6.397e-16
6.69858e-16
6.88728e-16
6.95389e-16
6.89512e-16
6.71383e-16
6.41887e-16
6.02438e-16
5.54881e-16
5.01359e-16
4.44162e-16
3.85566e-16
3.2769e-16
2.7236e-16
2.21027e-16
1.74721e-16
1.34078e-16
9.94277e-17
8.33901e-17
2.94458e-18
3.27176e-19
3.27176e-19
2.94458e-18
8.33901e-17
1.03681e-16
1.41392e-16
1.85317e-16
2.35196e-16
2.90434e-16
3.49991e-16
4.12363e-16
4.75619e-16
5.37504e-16
5.95572e-16
6.47354e-16
6.90524e-16
7.23069e-16
7.43427e-16
7.50605e-16
7.44249e-16
7.24669e-16
6.92818e-16
6.50222e-16
5.98871e-16
5.41073e-16
4.79293e-16
4.15983e-16
3.53412e-16
2.93533e-16
2.37877e-16
1.87508e-16
1.43045e-16
1.04763e-16
8.33901e-17
2.94458e-18
3.27176e-19
3.27176e-19
2.94458e-18
8.33901e-17
1.07709e-16
1.48137e-16
1.94905e-16
2.47807e-16
3.06267e-16
3.69224e-16
4.35111e-16
5.01905e-16
5.67235e-16
6.28525e-16
6.83173e-16
7.28729e-16
7.63067e-16
7.84542e-16
7.92107e-16
7.8539e-16
7.64717e-16
7.31095e-16
6.86133e-16
6.31929e-16
5.70918e-16
5.05697e-16
4.38847e-16
3.72755e-16
3.09469e-16
2.50579e-16
1.97174e-16
1.49852e-16
1.08832e-16
8.33901e-17
2.94458e-18
3.27176e-19
3.27176e-19
2.94458e-18
8.33901e-17
1.1063e-16
1.53011e-16
2.01816e-16
2.56883e-16
3.17651e-16
3.83046e-16
4.51455e-16
5.2079e-16
5.88594e-16
6.52198e-16
7.08905e-16
7.56173e-16
7.91799e-16
8.14076e-16
8.21919e-16
8.14941e-16
7.93482e-16
7.58587e-16
7.11924e-16
6.55671e-16
5.92351e-16
5.24658e-16
4.55266e-16
3.86649e-16
3.20919e-16
2.59715e-16
2.04139e-16
1.54771e-16
1.11784e-16
8.33901e-17
2.94458e-18
3.27176e-19
3.27176e-19
2.94458e-18
8.33901e-17
1.12671e-16
1.56391e-16
2.06584e-16
2.63128e-16
3.25474e-16
3.92538e-16
4.62677e-16
5.33755e-16
6.03256e-16
6.68449e-16
7.26569e-16
7.75012e-16
8.11521e-16
8.34348e-16
8.42381e-16
8.35223e-16
8.13225e-16
7.77455e-16
7.29624e-16
6.71963e-16
6.07058e-16
5.37669e-16
4.66534e-16
3.96185e-16
3.28782e-16
2.65996e-16
2.08939e-16
1.58179e-16
1.13844e-16
8.33901e-17
2.94458e-18
3.27176e-19
3.27176e-19
2.94458e-18
8.33901e-17
1.1402e-16
1.58618e-16
2.09719e-16
2.67229e-16
3.30609e-16
3.98767e-16
4.7004e-16
5.42261e-16
6.12876e-16
6.79111e-16
7.38157e-16
7.87371e-16
8.2446e-16
8.47648e-16
8.55805e-16
8.48529e-16
8.26176e-16
7.89831e-16
7.41233e-16
6.82648e-16
6.16703e-16
5.46201e-16
4.73923e-16
4.02438e-16
3.33938e-16
2.70115e-16
2.12088e-16
1.60415e-16
1.15196e-16
8.33901e-17
2.94458e-18
3.27176e-19
3.27176e-19
2.94458e-18
8.33901e-17
1.14867e-16
1.60016e-16
2.11686e-16
2.69802e-16
3.33831e-16
4.02676e-16
4.74661e-16
5.47599e-16
6.18912e-16
6.85801e-16
7.45429e-16
7.95127e-16
8.32579e-16
8.55993e-16
8.64228e-16
8.56878e-16
8.34301e-16
7.97595e-16
7.48516e-16
6.89351e-16
6.22754e-16
5.51553e-16
4.78557e-16
4.06359e-16
3.37172e-16
2.72698e-16
2.14062e-16
1.61817e-16
1.16043e-16
8.33901e-17
2.94458e-18
3.27176e-19
3.27176e-19
2.94458e-18
8.33901e-17
1.15375e-16
1.60855e-16
2.12868e-16
2.71348e-16
3.35766e-16
4.05023e-16
4.77436e-16
5.50805e-16
6.22538e-16
6.89819e-16
7.49797e-16
7.99785e-16
8.37456e-16
8.61005e-16
8.69286e-16
8.61891e-16
8.39181e-16
8.02258e-16
7.5289e-16
6.93376e-16
6.26386e-16
5.54766e-16
4.81339e-16
4.08713e-16
3.39113e-16
2.74248e-16
2.15247e-16
1.62658e-16
1.16552e-16
8.33901e-17
2.94458e-18
3.27176e-19
3.27176e-19
2.94458e-18
8.33901e-17
1.15668e-16
1.61338e-16
2.13548e-16
2.72237e-16
3.3688e-16
4.06374e-16
4.79033e-16
5.5265e-16
6.24625e-16
6.92132e-16
7.5231e-16
8.02466e-16
8.40262e-16
8.63889e-16
8.72197e-16
8.64776e-16
8.41988e-16
8.04941e-16
7.55406e-16
6.95692e-16
6.28476e-16
5.56614e-16
4.82939e-16
4.10067e-16
3.40229e-16
2.7514e-16
2.15929e-16
1.63142e-16
1.16844e-16
8.33901e-17
2.94458e-18
3.27176e-19
3.27176e-19
2.94458e-18
8.33901e-17
1.1583e-16
1.61605e-16
2.13923e-16
2.72728e-16
3.37495e-16
4.0712e-16
4.79914e-16
5.53668e-16
6.25776e-16
6.93408e-16
7.53697e-16
8.03945e-16
8.4181e-16
8.65481e-16
8.73803e-16
8.66368e-16
8.43537e-16
8.06421e-16
7.56794e-16
6.96969e-16
6.29629e-16
5.57634e-16
4.83822e-16
4.10814e-16
3.40844e-16
2.75631e-16
2.16305e-16
1.63409e-16
1.17005e-16
8.33901e-17
2.94458e-18
3.27176e-19
3.27176e-19
2.94458e-18
8.33901e-17
1.15915e-16
1.61746e-16
2.14122e-16
2.72988e-16
3.3782e-16
4.07515e-16
4.80381e-16
5.54207e-16
6.26386e-16
6.94084e-16
7.54432e-16
8.04729e-16
8.42631e-16
8.66324e-16
8.74654e-16
8.67211e-16
8.44358e-16
8.07205e-16
7.57529e-16
6.97646e-16
6.30239e-16
5.58174e-16
4.84289e-16
4.11209e-16
3.4117e-16
2.75892e-16
2.16504e-16
1.6355e-16
1.17092e-16
8.33901e-17
2.94458e-18
3.27176e-19
3.27176e-19
2.94458e-18
8.33901e-17
1.15959e-16
1.61818e-16
2.14223e-16
2.7312e-16
3.37986e-16
4.07716e-16
4.80619e-16
5.54482e-16
6.26697e-16
6.94428e-16
7.54807e-16
8.05128e-16
8.43048e-16
8.66753e-16
8.75088e-16
8.67641e-16
8.44776e-16
8.07604e-16
7.57904e-16
6.9799e-16
6.3055e-16
5.58449e-16
4.84527e-16
4.11411e-16
3.41336e-16
2.76024e-16
2.16606e-16
1.63623e-16
1.17137e-16
8.33901e-17
2.94458e-18
3.27176e-19
3.27176e-19
2.94458e-18
8.33901e-17
1.1598e-16
1.61853e-16
2.14273e-16
2.73185e-16
3.38067e-16
4.07815e-16
4.80735e-16
5.54616e-16
6.26849e-16
6.94597e-16
7.5499e-16
8.05323e-16
8.43253e-16
8.66964e-16
8.753e-16
8.67851e-16
8.44981e-16
8.078e-16
7.58087e-16
6.98159e-16
6.30703e-16
5.58583e-16
4.84644e-16
4.11509e-16
3.41418e-16
2.7609e-16
2.16656e-16
1.63659e-16
1.17159e-16
8.33901e-17
2.94458e-18
3.27176e-19
3.27176e-19
2.94458e-18
8.33901e-17
1.1599e-16
1.6187e-16
2.14296e-16
2.73216e-16
3.38106e-16
4.07861e-16
4.8079e-16
5.5468e-16
6.26921e-16
6.94677e-16
7.55076e-16
8.05416e-16
8.4335e-16
8.67063e-16
8.754e-16
8.6795e-16
8.45077e-16
8.07892e-16
7.58174e-16
6.98239e-16
6.30774e-16
5.58647e-16
4.84699e-16
4.11556e-16
3.41456e-16
2.7612e-16
2.16679e-16
1.63676e-16
1.17169e-16
8.33901e-17
2.94458e-18
3.27176e-19
3.27176e-19
2.94458e-18
8.33901e-17
1.15995e-16
1.61877e-16
2.14307e-16
2.7323e-16
3.38123e-16
4.07882e-16
4.80815e-16
5.54709e-16
6.26954e-16
6.94713e-16
7.55116e-16
8.05458e-16
8.43394e-16
8.67108e-16
8.75446e-16
8.67996e-16
8.45121e-16
8.07934e-16
7.58213e-16
6.98275e-16
6.30807e-16
5.58676e-16
4.84724e-16
4.11577e-16
3.41474e-16
2.76134e-16
2.1669e-16
1.63684e-16
1.17174e-16
8.33901e-17
2.94458e-18
3.27176e-19
3.27176e-19
2.94458e-18
8.33901e-17
1.15997e-16
1.61881e-16
2.14312e-16
2.73236e-16
3.38131e-16
4.07892e-16
4.80826e-16
5.54722e-16
6.26968e-16
6.94729e-16
7.55133e-16
8.05476e-16
8.43413e-16
8.67128e-16
8.75466e-16
8.68016e-16
8.45141e-16
8.07953e-16
7.58231e-16
6.98291e-16
6.30822e-16
5.58688e-16
4.84735e-16
4.11586e-16
3.41481e-16
2.7614e-16
2.16695e-16
1.63687e-16
1.17176e-16
8.33901e-17
2.94458e-18
3.27176e-19
3.27176e-19
2.94458e-18
8.33901e-17
1.15998e-16
1.61882e-16
2.14314e-16
2.73239e-16
3.38134e-16
4.07896e-16
4.80831e-16
5.54727e-16
6.26974e-16
6.94736e-16
7.55141e-16
8.05484e-16
8.43421e-16
8.67137e-16
8.75474e-16
8.68024e-16
8.45149e-16
8.07961e-16
7.58238e-16
6.98298e-16
6.30828e-16
5.58694e-16
4.84739e-16
4.1159e-16
3.41485e-16
2.76143e-16
2.16697e-16
1.63689e-16
1.17177e-16
8.33901e-17
2.94458e-18
3.27176e-19
3.27176e-19
2.94458e-18
8.33901e-17
1.15998e-16
1.61883e-16
2.14314e-16
2.7324e-16
3.38135e-16
4.07897e-16
4.80833e-16
5.54729e-16
6.26977e-16
6.94738e-16
7.55144e-16
8.05487e-16
8.43425e-16
8.6714e-16
8.75478e-16
8.68027e-16
8.45152e-16
8.07964e-16
7.58241e-16
6.98301e-16
6.3083e-16
5.58696e-16
4.84741e-16
4.11592e-16
3.41486e-16
2.76144e-16
2.16697e-16
1.63689e-16
1.17178e-16
8.33901e-17
2.94458e-18
3.27176e-19
3.27176e-19
2.94458e-18
8.33901e-17
1.15998e-16
1.61883e-16
2.14315e-16
2.7324e-16
3.38136e-16
4.07898e-16
4.80834e-16
5.5473e-16
6.26978e-16
6.9474e-16
7.55145e-16
8.05489e-16
8.43426e-16
8.67141e-16
8.75479e-16
8.68029e-16
8.45154e-16
8.07965e-16
7.58242e-16
6.98302e-16
6.30831e-16
5.58697e-16
4.84742e-16
4.11593e-16
3.41486e-16
2.76144e-16
2.16698e-16
1.63689e-16
1.17178e-16
8.33901e-17
2.94458e-18
3.27176e-19
3.27176e-19
2.94458e-18
8.33901e-17
1.15998e-16
1.61883e-16
2.14315e-16
2.7324e-16
3.38136e-16
4.07898e-16
4.80834e-16
5.5473e-16
6.26978e-16
6.9474e-16
7.55145e-16
8.05489e-16
8.43427e-16
8.67142e-16
8.7548e-16
8.68029e-16
8.45154e-16
8.07966e-16
7.58243e-16
6.98302e-16
6.30831e-16
5.58697e-16
4.84742e-16
4.11593e-16
3.41487e-16
2.76145e-16
2.16698e-16
1.6369e-16
1.17178e-16
8.33901e-17
2.94458e-18
3.27176e-19
3.27176e-19
2.94458e-18
8.33901e-17
1.15998e-16
1.61883e-16
2.14315e-16
2.7324e-16
3.38136e-16
4.07898e-16
4.80834e-16
5.5473e-16
6.26978e-16
6.9474e-16
7.55145e-16
8.05489e-16
8.43427e-16
8.67142e-16
8.7548e-16
8.6803e-16
8.45154e-16
8.07966e-16
7.58243e-16
6.98302e-16
6.30832e-16
5.58697e-16
4.84743e-16
4.11593e-16
3.41487e-16
2.76145e-16
2.16698e-16
1.6369e-16
1.17178e-16
8.33901e-17
2.94458e-18
3.27176e-19
3.27176e-19
2.94458e-18
8.33901e-17
1.15998e-16
1.61883e-16
2.14315e-16
2.7324e-16
3.38136e-16
4.07898e-16
4.80834e-16
5.54731e-16
6.26978e-16
6.9474e-16
7.55145e-16
8.05489e-16
8.43427e-16
8.67142e-16
8.7548e-16
8.6803e-16
8.45154e-16
8.07966e-16
7.58243e-16
6.98302e-16
6.30832e-16
5.58697e-16
4.84743e-16
4.11593e-16
3.41487e-16
2.76145e-16
2.16698e-16
1.6369e-16
1.17178e-16
8.33901e-17
2.94458e-18
3.27176e-19
3.27176e-19
2.94458e-18
8.33901e-17
1.15998e-16
1.61883e-16
2.14315e-16
2.7324e-16
3.38136e-16
4.07898e-16
4.80834e-16
5.54731e-16
6.26978e-16
6.9474e-16
7.55146e-16
8.05489e-16
8.43427e-16
8.67142e-16
8.7548e-16
8.6803e-16
8.45154e-16
8.07966e-16
7.58243e-16
6.98302e-16
6.30832e-16
5.58697e-16
4.84743e-16
4.11593e-16
3.41487e-16
2.76145e-16
2.16698e-16
1.6369e-16
1.17178e-16
8.33901e-17
2.94458e-18
3.27176e-19
3.27176e-19
2.94458e-18
8.33901e-17
1.15998e-16
1.61883e-16
2.14315e-16
2.7324e-16
3.38136e-16
4.07898e-16
4.80834e-16
5.54731e-16
6.26978e-16
6.9474e-16
7.55146e-16
8.05489e-16
8.43427e-16
8.67142e-16
8.7548e-16
8.6803e-16
8.45154e-16
8.07966e-16
7.58243e-16
6.98302e-16
6.30832e-16
5.58697e-16
4.84743e-16
4.11593e-16
3.41487e-16
2.76145e-16
2.16698e-16
1.6369e-16
1.17178e-16
8.33901e-17
2.94458e-18
3.27176e-19
3.27176e-19
2.94458e-18
8.33901e-17
1.15998e-16
1.61883e-16
2.14315e-16
2.7324e-16
3.38136e-16
4.07898e-16
4.80834e-16
5.54731e-16
6.26978e-16
6.9474e-16
7.55146e-16
8.05489e-16
8.43427e-16
8.67142e-16
8.7548e-16
8.6803e-16
8.45154e-16
8.07966e-16
7.58243e-16
6.98302e-16
6.30832e-16
5.58697e-16
4.84743e-16
4.11593e-16
3.41487e-16
2.76145e-16
2.16698e-16
1.6369e-16
1.17178e-16
8.33901e-17
2.94458e-18
3.27176e-19
3.27176e-19
2.94458e-18
8.33901e-17
1.15998e-16
1.61883e-16
2.14315e-16
2.7324e-16
3.38136e-16
4.07898e-16
4.80834e-16
5.54731e-16
6.26978e-16
6.9474e-16
7.55146e-16
8.05489e-16
8.43427e-16
8.67142e-16
8.7548e-16
8.6803e-16
8.45154e-16
8.07966e-16
7.58243e-16
6.98302e-16
6.30832e-16
5.58697e-16
4.84743e-16
4.11593e-16
3.41487e-16
2.76145e-16
2.16698e-16
1.6369e-16
1.17178e-16
8.33901e-17
2.94458e-18
3.27176e-19
3.27176e-19
2.94458e-18
8.33901e-17
1.15998e-16
1.61883e-16
2.14315e-16
2.7324e-16
3.38136e-16
4.07898e-16
4.80834e-16
5.54731e-16
6.26978e-16
6.9474e-16
7.55146e-16
8.05489e-16
8.43427e-16
8.67142e-16
8.7548e-16
8.6803e-16
8.45154e-16
8.07966e-16
7.58243e-16
6.98302e-16
6.30832e-16
5.58697e-16
4.84743e-16
4.11593e-16
3.41487e-16
2.76145e-16
2.16698e-16
1.6369e-16
1.17178e-16
8.33901e-17
2.94458e-18
3.27176e-19
3.27176e-19
2.94458e-18
8.33901e-17
1.15998e-16
1.61883e-16
2.14315e-16
2.7324e-16
3.38136e-16
4.07898e-16
4.80834e-16
5.54731e-16
6.26978e-16
6.9474e-16
7.55146e-16
8.05489e-16
8.43427e-16
8.67142e-16
8.7548e-16
8.6803e-16
8.45154e-16
8.07966e-16
7.58243e-16
6.98302e-16
6.30832e-16
5.58697e-16
4.84743e-16
4.11593e-16
3.41487e-16
2.76145e-16
2.16698e-16
1.6369e-16
1.17178e-16
8.33901e-17
2.94458e-18
3.27176e-19
3.27176e-19
2.94458e-18
8.33901e-17
1.15998e-16
1.61883e-16
2.14315e-16
2.7324e-16
3.38136e-16
4.07898e-16
4.80834e-16
5.54731e-16
6.26978e-16
6.9474e-16
7.55146e-16
8.05489e-16
8.43427e-16
8.67142e-16
8.7548e-16
8.6803e-16
8.45154e-16
8.07966e-16
7.58243e-16
6.98302e-16
6.30832e-16
5.58697e-16
4.84743e-16
4.11593e-16
3.41487e-16
2.76145e-16
2.16698e-16
1.6369e-16
1.17178e-16
8.33901e-17
2.94458e-18
3.27176e-19
3.27176e-19
2.94458e-18
8.33901e-17
1.15998e-16
1.61883e-16
2.14315e-16
2.7324e-16
3.38136e-16
4.07898e-16
4.80834e-16
5.54731e-16
6.26978e-16
6.9474e-16
7.55146e-16
8.05489e-16
8.43427e-16
8.67142e-16
8.7548e-16
8.6803e-16
8.45154e-16
8.07966e-16
7.58243e-16
6.98302e-16
6.30832e-16
5.58697e-16
4.84743e-16
4.11593e-16
3.41487e-16
2.76145e-16
2.16698e-16
1.6369e-16
1.17178e-16
8.33901e-17
2.94458e-18
3.27176e-19
3.27176e-19
2.94458e-18
8.33901e-17
1.15998e-16
1.61883e-16
2.14315e-16
2.7324e-16
3.38136e-16
4.07898e-16
4.80834e-16
5.54731e-16
6.26978e-16
6.9474e-16
7.55146e-16
8.05489e-16
8.43427e-16
8.67142e-16
8.7548e-16
8.6803e-16
8.45154e-16
8.07966e-16
7.58243e-16
6.98302e-16
6.30832e-16
5.58697e-16
4.84743e-16
4.11593e-16
3.41487e-16
2.76145e-16
2.16698e-16
1.6369e-16
1.17178e-16
8.33901e-17
2.94458e-18
3.27176e-19
3.27176e-19
2.94458e-18
8.33901e-17
1.15998e-16
1.61883e-16
2.14315e-16
2.7324e-16
3.38136e-16
4.07898e-16
4.80834e-16
5.54731e-16
6.26978e-16
6.9474e-16
7.55146e-16
8.05489e-16
8.43427e-16
8.67142e-16
8.7548e-16
8.6803e-16
8.45154e-16
8.07966e-16
7.58243e-16
6.98302e-16
6.30832e-16
5.58697e-16
4.84743e-16
4.11593e-16
3.41487e-16
2.76145e-16
2.16698e-16
1.6369e-16
1.17178e-16
8.33901e-17
2.94458e-18
3.27176e-19
3.27176e-19
2.94458e-18
8.33901e-17
1.15998e-16
1.61883e-16
2.14315e-16
2.7324e-16
3.38136e-16
4.07898e-16
4.80834e-16
5.54731e-16
6.26978e-16
6.9474e-16
7.55146e-16
8.05489e-16
8.43427e-16
8.67142e-16
8.7548e-16
8.6803e-16
8.45154e-16
8.07966e-16
7.58243e-16
6.98302e-16
6.30832e-16
5.58697e-16
4.84743e-16
4.11593e-16
3.41487e-16
2.76145e-16
2.16698e-16
1.6369e-16
1.17178e-16
8.33901e-17
2.94458e-18
3.27176e-19
3.27176e-19
2.94458e-18
8.33901e-17
1.15998e-16
1.61883e-16
2.14315e-16
2.7324e-16
3.38136e-16
4.07898e-16
4.80834e-16
5.54731e-16
6.26978e-16
6.9474e-16
7.55146e-16
8.05489e-16
8.43427e-16
8.67142e-16
8.7548e-16
8.6803e-16
8.45154e-16
8.07966e-16
7.58243e-16
6.98302e-16
6.30832e-16
5.58697e-16
4.84743e-16
4.11593e-16
3.41487e-16
2.76145e-16
2.16698e-16
1.6369e-16
1.17178e-16
8.33901e-17
2.94458e-18
3.27176e-19
3.27176e-19
2.94458e-18
8.33901e-17
1.15998e-16
1.61883e-16
2.14315e-16
2.7324e-16
3.38136e-16
4.07898e-16
4.80834e-16
5.54731e-16
6.26978e-16
6.9474e-16
7.55146e-16
8.05489e-16
8.43427e-16
8.67142e-16
8.7548e-16
8.6803e-16
8.45154e-16
8.07966e-16
7.58243e-16
6.98302e-16
6.30832e-16
5.58697e-16
4.84743e-16
4.11593e-16
3.41487e-16
2.76145e-16
2.16698e-16
1.6369e-16
1.17178e-16
8.33901e-17
2.94458e-18
3.27176e-19
3.27176e-19
2.94458e-18
8.33901e-17
1.15998e-16
1.61883e-16
2.14315e-16
2.7324e-16
3.38136e-16
4.07898e-16
4.80834e-16
5.54731e-16
6.26978e-16
6.9474e-16
7.55146e-16
8.05489e-16
8.43427e-16
8.67142e-16
8.7548e-16
8.6803e-16
8.45154e-16
8.07966e-16
7.58243e-16
6.98302e-16
6.30832e-16
5.58697e-16
4.84743e-16
4.11593e-16
3.41487e-16
2.76145e-16
2.16698e-16
1.6369e-16
1.17178e-16
8.33901e-17
2.94458e-18
3.27176e-19
3.27176e-19
2.94458e-18
8.33901e-17
1.15998e-16
1.61883e-16
2.14315e-16
2.7324e-16
3.38136e-16
4.07898e-16
4.80834e-16
5.54731e-16
6.26978e-16
6.9474e-16
7.55146e-16
8.05489e-16
8.43427e-16
8.67142e-16
8.7548e-16
8.6803e-16
8.45154e-16
8.07966e-16
7.58243e-16
6.98302e-16
6.30832e-16
5.58697e-16
4.84743e-16
4.11593e-16
3.41487e-16
2.76145e-16
2.16698e-16
1.6369e-16
1.17178e-16
8.33901e-17
2.94458e-18
3.27176e-19
3.27176e-19
2.94458e-18
8.33901e-17
1.15998e-16
1.61883e-16
2.14315e-16
2.7324e-16
3.38136e-16
4.07898e-16
4.80834e-16
5.54731e-16
6.26978e-16
6.9474e-16
7.55146e-16
8.05489e-16
8.43427e-16
8.67142e-16
8.7548e-16
8.6803e-16
8.45154e-16
8.07966e-16
7.58243e-16
6.98302e-16
6.30832e-16
5.58697e-16
4.84743e-16
4.11593e-16
3.41487e-16
2.76145e-16
2.16698e-16
1.6369e-16
1.17178e-16
8.33901e-17
2.94458e-18
3.27176e-19
3.27176e-19
2.94458e-18
8.33901e-17
1.15998e-16
1.61883e-16
2.14315e-16
2.7324e-16
3.38136e-16
4.07898e-16
4.80834e-16
5.54731e-16
6.26978e-16
6.9474e-16
7.55146e-16
8.05489e-16
8.43427e-16
8.67142e-16
8.7548e-16
8.6803e-16
8.45154e-16
8.07966e-16
7.58243e-16
6.98302e-16
6.30832e-16
5.58697e-16
4.84743e-16
4.11593e-16
3.41487e-16
2.76145e-16
2.16698e-16
1.6369e-16
1.17178e-16
8.33901e-17
2.94458e-18
3.27176e-19
3.27176e-19
2.94458e-18
8.33901e-17
1.15998e-16
1.61883e-16
2.14315e-16
2.7324e-16
3.38136e-16
4.07898e-16
4.80834e-16
5.54731e-16
6.26978e-16
6.9474e-16
7.55146e-16
8.05489e-16
8.43427e-16
8.67142e-16
8.7548e-16
8.6803e-16
8.45154e-16
8.07966e-16
7.58243e-16
6.98302e-16
6.30832e-16
5.58697e-16
4.84743e-16
4.11593e-16
3.41487e-16
2.76145e-16
2.16698e-16
1.6369e-16
1.17178e-16
8.33901e-17
2.94458e-18
3.27176e-19
3.27176e-19
2.94458e-18
8.33901e-17
1.15998e-16
1.61883e-16
2.14315e-16
2.7324e-16
3.38136e-16
4.07898e-16
4.80834e-16
5.54731e-16
6.26978e-16
6.9474e-16
7.55146e-16
8.05489e-16
8.43427e-16
8.67142e-16
8.7548e-16
8.6803e-16
8.45154e-16
8.07966e-16
7.58243e-16
6.98302e-16
6.30832e-16
5.58697e-16
4.84743e-16
4.11593e-16
3.41487e-16
2.76145e-16
2.16698e-16
1.6369e-16
1.17178e-16
8.33901e-17
2.94458e-18
3.27176e-19
3.27176e-19
2.94458e-18
8.33901e-17
1.15998e-16
1.61883e-16
2.14315e-16
2.7324e-16
3.38136e-16
4.07898e-16
4.80834e-16
5.54731e-16
6.26978e-16
6.9474e-16
7.55146e-16
8.05489e-16
8.43427e-16
8.67142e-16
8.7548e-16
8.6803e-16
8.45154e-16
8.07966e-16
7.58243e-16
6.98302e-16
6.30832e-16
5.58697e-16
4.84743e-16
4.11593e-16
3.41487e-16
2.76145e-16
2.16698e-16
1.6369e-16
1.17178e-16
8.33901e-17
2.94458e-18
3.27176e-19
3.27176e-19
2.94458e-18
8.33901e-17
1.15998e-16
1.61883e-16
2.14315e-16
2.7324e-16
3.38136e-16
4.07898e-16
4.80834e-16
5.54731e-16
6.26978e-16
6.9474e-16
7.55146e-16
8.05489e-16
8.43427e-16
8.67142e-16
8.7548e-16
8.6803e-16
8.45154e-16
8.07966e-16
7.58243e-16
6.98302e-16
6.30832e-16
5.58697e-16
4.84743e-16
4.11593e-16
3.41487e-16
2.76145e-16
2.16698e-16
1.6369e-16
1.17178e-16
8.33901e-17
2.94458e-18
3.27176e-19
3.27176e-19
2.94458e-18
8.33901e-17
1.15998e-16
1.61883e-16
2.14315e-16
2.7324e-16
3.38136e-16
4.07898e-16
4.80834e-16
5.54731e-16
6.26978e-16
6.9474e-16
7.55146e-16
8.05489e-16
8.43427e-16
8.67142e-16
8.7548e-16
8.6803e-16
8.45154e-16
8.07966e-16
7.58243e-16
6.98302e-16
6.30832e-16
5.58697e-16
4.84743e-16
4.11593e-16
3.41487e-16
2.76145e-16
2.16698e-16
1.6369e-16
1.17178e-16
8.33901e-17
2.94458e-18
3.27176e-19
3.27176e-19
2.94458e-18
8.33901e-17
1.15998e-16
1.61883e-16
2.14315e-16
2.7324e-16
3.38136e-16
4.07898e-16
4.80834e-16
5.54731e-16
6.26978e-16
6.9474e-16
7.55146e-16
8.05489e-16
8.43427e-16
8.67142e-16
8.7548e-16
8.6803e-16
8.45154e-16
8.07966e-16
7.58243e-16
6.98302e-16
6.30832e-16
5.58697e-16
4.84743e-16
4.11593e-16
3.41487e-16
2.76145e-16
2.16698e-16
1.6369e-16
1.17178e-16
8.33901e-17
2.94458e-18
3.27176e-19
3.27176e-19
2.94458e-18
8.33901e-17
1.15998e-16
1.61883e-16
2.14315e-16
2.7324e-16
3.38136e-16
4.07898e-16
4.80834e-16
5.54731e-16
6.26978e-16
6.9474e-16
7.55146e-16
8.05489e-16
8.43427e-16
8.67142e-16
8.7548e-16
8.6803e-16
8.45154e-16
8.07966e-16
7.58243e-16
6.98302e-16
6.30832e-16
5.58697e-16
4.84743e-16
4.11593e-16
3.41487e-16
2.76145e-16
2.16698e-16
1.6369e-16
1.17178e-16
8.33901e-17
2.94458e-18
3.27176e-19
3.27176e-19
2.94458e-18
8.33901e-17
1.15998e-16
1.61883e-16
2.14315e-16
2.7324e-16
3.38136e-16
4.07898e-16
4.80834e-16
5.54731e-16
6.26978e-16
6.9474e-16
7.55146e-16
8.05489e-16
8.43427e-16
8.67142e-16
8.7548e-16
8.6803e-16
8.45154e-16
8.07966e-16
7.58243e-16
6.98302e-16
6.30832e-16
5.58697e-16
4.84743e-16
4.11593e-16
3.41487e-16
2.76145e-16
2.16698e-16
1.6369e-16
1.17178e-16
8.33901e-17
2.94458e-18
3.27176e-19
3.27176e-19
2.94458e-18
8.33901e-17
1.15998e-16
1.61883e-16
2.14315e-16
2.7324e-16
3.38136e-16
4.07898e-16
4.80834e-16
5.54731e-16
6.26978e-16
6.9474e-16
7.55146e-16
8.05489e-16
8.43427e-16
8.67142e-16
8.7548e-16
8.6803e-16
8.45154e-16
8.07966e-16
7.58243e-16
6.98302e-16
6.30832e-16
5.58697e-16
4.84743e-16
4.11593e-16
3.41487e-16
2.76145e-16
2.16698e-16
1.6369e-16
1.17178e-16
8.33901e-17
2.94458e-18
3.27176e-19
3.27176e-19
2.94458e-18
8.33901e-17
1.15998e-16
1.61883e-16
2.14315e-16
2.7324e-16
3.38136e-16
4.07898e-16
4.80834e-16
5.54731e-16
6.26978e-16
6.9474e-16
7.55146e-16
8.05489e-16
8.43427e-16
8.67142e-16
8.7548e-16
8.6803e-16
8.45154e-16
8.07966e-16
7.58243e-16
6.98302e-16
6.30832e-16
5.58697e-16
4.84743e-16
4.11593e-16
3.41487e-16
2.76145e-16
2.16698e-16
1.6369e-16
1.17178e-16
8.33901e-17
2.94458e-18
3.27176e-19
3.27176e-19
2.94458e-18
8.33901e-17
1.15998e-16
1.61883e-16
2.14315e-16
2.7324e-16
3.38136e-16
4.07898e-16
4.80834e-16
5.54731e-16
6.26978e-16
6.9474e-16
7.55146e-16
8.05489e-16
8.43427e-16
8.67142e-16
8.7548e-16
8.6803e-16
8.45154e-16
8.07966e-16
7.58243e-16
6.98302e-16
6.30832e-16
5.58697e-16
4.84743e-16
4.11593e-16
3.41487e-16
2.76145e-16
2.16698e-16
1.6369e-16
1.17178e-16
8.33901e-17
2.94458e-18
3.27176e-19
3.27176e-19
2.94458e-18
8.33901e-17
1.15998e-16
1.61883e-16
2.14315e-16
2.7324e-16
3.38136e-16
4.07898e-16
4.80834e-16
5.54731e-16
6.26978e-16
6.9474e-16
7.55146e-16
8.05489e-16
8.43427e-16
8.67142e-16
8.7548e-16
8.6803e-16
8.45154e-16
8.07966e-16
7.58243e-16
6.98302e-16
6.30832e-16
5.58697e-16
4.84743e-16
4.11593e-16
3.41487e-16
2.76145e-16
2.16698e-16
1.6369e-16
1.17178e-16
8.33901e-17
2.94458e-18
3.27176e-19
3.27176e-19
2.94458e-18
8.33901e-17
1.15998e-16
1.61883e-16
2.14315e-16
2.7324e-16
3.38136e-16
4.07898e-16
4.80834e-16
5.54731e-16
6.26978e-16
6.9474e-16
7.55146e-16
8.05489e-16
8.43427e-16
8.67142e-16
8.7548e-16
8.6803e-16
8.45154e-16
8.07966e-16
7.58243e-16
6.98302e-16
6.30832e-16
5.58697e-16
4.84743e-16
4.11593e-16
3.41487e-16
2.76145e-16
2.16698e-16
1.6369e-16
1.17178e-16
8.33901e-17
2.94458e-18
3.27176e-19
3.27176e-19
2.94458e-18
8.33901e-17
1.15998e-16
1.61883e-16
2.14315e-16
2.7324e-16
3.38136e-16
4.07898e-16
4.80834e-16
5.54731e-16
6.26978e-16
6.9474e-16
7.55146e-16
8.05489e-16
8.43427e-16
8.67142e-16
8.7548e-16
8.6803e-16
8.45154e-16
8.07966e-16
7.58243e-16
6.98302e-16
6.30832e-16
5.58697e-16
4.84743e-16
4.11593e-16
3.41487e-16
2.76145e-16
2.16698e-16
1.6369e-16
1.17178e-16
8.33901e-17
2.94458e-18
3.27176e-19
3.27176e-19
2.94458e-18
8.33901e-17
1.15998e-16
1.61883e-16
2.14315e-16
2.7324e-16
3.38136e-16
4.07898e-16
4.80834e-16
5.54731e-16
6.26978e-16
6.9474e-16
7.55146e-16
8.05489e-16
8.43427e-16
8.67142e-16
8.7548e-16
8.6803e-16
8.45154e-16
8.07966e-16
7.58243e-16
6.98302e-16
6.30832e-16
5.58697e-16
4.84743e-16
4.11593e-16
3.41487e-16
2.76145e-16
2.16698e-16
1.6369e-16
1.17178e-16
8.33901e-17
2.94458e-18
3.27176e-19
3.27176e-19
2.94458e-18
8.33901e-17
1.15998e-16
1.61883e-16
2.14315e-16
2.7324e-16
3.38136e-16
4.07898e-16
4.80834e-16
5.54731e-16
6.26978e-16
6.9474e-16
7.55146e-16
8.05489e-16
8.43427e-16
8.67142e-16
8.7548e-16
8.6803e-16
8.45154e-16
8.07966e-16
7.58243e-16
6.98302e-16
6.30832e-16
5.58697e-16
4.84743e-16
4.11593e-16
3.41487e-16
2.76145e-16
2.16698e-16
1.6369e-16
1.17178e-16
8.33901e-17
2.94458e-18
3.27176e-19
3.27176e-19
2.94458e-18
8.33901e-17
1.15998e-16
1.61883e-16
2.14315e-16
2.7324e-16
3.38136e-16
4.07898e-16
4.80834e-16
5.54731e-16
6.26978e-16
6.9474e-16
7.55146e-16
8.05489e-16
8.43427e-16
8.67142e-16
8.7548e-16
8.6803e-16
8.45154e-16
8.07966e-16
7.58243e-16
6.98302e-16
6.30832e-16
5.58697e-16
4.84743e-16
4.11593e-16
3.41487e-16
2.76145e-16
2.16698e-16
1.6369e-16
1.17178e-16
8.33901e-17
2.94458e-18
3.27176e-19
3.27176e-19
2.94458e-18
8.33901e-17
1.15998e-16
1.61883e-16
2.14315e-16
2.7324e-16
3.38136e-16
4.07898e-16
4.80834e-16
5.54731e-16
6.26978e-16
6.9474e-16
7.55146e-16
8.05489e-16
8.43427e-16
8.67142e-16
8.7548e-16
8.6803e-16
8.45154e-16
8.07966e-16
7.58243e-16
6.98302e-16
6.30832e-16
5.58697e-16
4.84743e-16
4.11593e-16
3.41487e-16
2.76145e-16
2.16698e-16
1.6369e-16
1.17178e-16
8.33901e-17
2.94458e-18
3.27176e-19
3.27176e-19
2.94458e-18
8.33901e-17
1.15998e-16
1.61883e-16
2.14315e-16
2.7324e-16
3.38136e-16
4.07898e-16
4.80834e-16
5.54731e-16
6.26978e-16
6.9474e-16
7.55146e-16
8.05489e-16
8.43427e-16
8.67142e-16
8.7548e-16
8.6803e-16
8.45154e-16
8.07966e-16
7.58243e-16
6.98302e-16
6.30832e-16
5.58697e-16
4.84743e-16
4.11593e-16
3.41487e-16
2.76145e-16
2.16698e-16
1.6369e-16
1.17178e-16
8.33901e-17
2.94458e-18
3.27176e-19
3.27176e-19
2.94458e-18
8.33901e-17
1.15998e-16
1.61883e-16
2.14315e-16
2.7324e-16
3.38136e-16
4.07898e-16
4.80834e-16
5.54731e-16
6.26978e-16
6.9474e-16
7.55146e-16
8.05489e-16
8.43427e-16
8.67142e-16
8.7548e-16
8.6803e-16
8.45154e-16
8.07966e-16
7.58243e-16
6.98302e-16
6.30832e-16
5.58697e-16
4.84743e-16
4.11593e-16
3.41487e-16
2.76145e-16
2.16698e-16
1.6369e-16
1.17178e-16
8.33901e-17
2.94458e-18
3.27176e-19
3.27176e-19
2.94458e-18
8.33901e-17
1.15998e-16
1.61883e-16
2.14315e-16
2.7324e-16
3.38136e-16
4.07898e-16
4.80834e-16
5.54731e-16
6.26978e-16
6.9474e-16
7.55146e-16
8.05489e-16
8.43427e-16
8.67142e-16
8.7548e-16
8.6803e-16
8.45154e-16
8.07966e-16
7.58243e-16
6.98302e-16
6.30832e-16
5.58697e-16
4.84743e-16
4.11593e-16
3.41487e-16
2.76145e-16
2.16698e-16
1.6369e-16
1.17178e-16
8.33901e-17
2.94458e-18
3.27176e-19
3.27176e-19
2.94458e-18
8.33901e-17
1.15998e-16
1.61883e-16
2.14315e-16
2.7324e-16
3.38136e-16
4.07898e-16
4.80834e-16
5.54731e-16
6.26978e-16
6.9474e-16
7.55146e-16
8.05489e-16
8.43427e-16
8.67142e-16
8.7548e-16
8.6803e-16
8.45154e-16
8.07966e-16
7.58243e-16
6.98302e-16
6.30832e-16
5.58697e-16
4.84743e-16
4.11593e-16
3.41487e-16
2.76145e-16
2.16698e-16
1.6369e-16
1.17178e-16
8.33901e-17
2.94458e-18
3.27176e-19
3.27176e-19
2.94458e-18
8.33901e-17
1.15998e-16
1.61883e-16
2.14315e-16
2.7324e-16
3.38136e-16
4.07898e-16
4.80834e-16
5.54731e-16
6.26978e-16
6.9474e-16
7.55146e-16
8.05489e-16
8.43427e-16
8.67142e-16
8.7548e-16
8.6803e-16
8.45154e-16
8.07966e-16
7.58243e-16
6.98302e-16
6.30832e-16
5.58697e-16
4.84743e-16
4.11593e-16
3.41487e-16
2.76145e-16
2.16698e-16
1.6369e-16
1.17178e-16
8.33901e-17
2.94458e-18
3.27176e-19
3.27176e-19
2.94458e-18
8.33901e-17
1.15998e-16
1.61883e-16
2.14315e-16
2.7324e-16
3.38136e-16
4.07898e-16
4.80834e-16
5.54731e-16
6.26978e-16
6.9474e-16
7.55146e-16
8.05489e-16
8.43427e-16
8.67142e-16
8.7548e-16