/*--------------------------------*- C++ -*----------------------------------*\
  =========                 |
  \\      /  F ield         | OpenFOAM: The Open Source CFD Toolbox
   \\    /   O peration     | Website:  https://openfoam.org
    \\  /    A nd           | Version:  13
     \\/     M anipulation  |
\*---------------------------------------------------------------------------*/
FoamFile
{
    format      ascii;
    class       volScalarField;
    location    "32.5";
    object      nut;
}
// * * * * * * * * * * * * * * * * * * * * * * * * * * * * * * * * * * * * * //

dimensions      [0 2 -1 0 0 0 0];

internalField   nonuniform List<scalar> 
315000
(
4.61931e-13
1.20696e-10
2.74617e-09
4.89988e-09
7.04875e-09
9.18622e-09
1.13078e-08
1.34092e-08
1.54851e-08
1.75298e-08
1.95365e-08
2.14981e-08
2.34074e-08
2.52574e-08
2.70413e-08
2.87531e-08
3.03873e-08
3.19393e-08
3.34056e-08
3.47832e-08
3.60703e-08
3.72656e-08
3.83689e-08
3.93803e-08
4.03008e-08
4.11314e-08
4.18738e-08
4.25293e-08
4.30995e-08
4.35857e-08
4.39888e-08
4.43099e-08
4.45498e-08
4.47093e-08
4.47889e-08
4.47889e-08
4.47094e-08
4.455e-08
4.43104e-08
4.39897e-08
4.35872e-08
4.31018e-08
4.25324e-08
4.18777e-08
4.11363e-08
4.03067e-08
3.93874e-08
3.83772e-08
3.72753e-08
3.60814e-08
3.4796e-08
3.342e-08
3.19554e-08
3.04051e-08
2.87726e-08
2.70625e-08
2.52803e-08
2.34318e-08
2.15239e-08
1.95634e-08
1.75577e-08
1.55136e-08
1.34379e-08
1.13362e-08
9.21363e-09
7.07424e-09
4.92197e-09
2.76222e-09
1.21632e-10
4.66037e-13
1.15247e-11
3.06168e-09
6.794e-07
1.19322e-06
1.68478e-06
2.15648e-06
2.61e-06
3.0464e-06
3.46621e-06
3.86962e-06
4.25657e-06
4.62686e-06
4.9802e-06
5.31631e-06
5.63495e-06
5.93594e-06
6.21916e-06
6.4846e-06
6.73234e-06
6.96254e-06
7.17544e-06
7.37138e-06
7.55074e-06
7.71395e-06
7.86149e-06
7.99385e-06
8.11154e-06
8.21503e-06
8.3048e-06
8.38125e-06
8.44457e-06
8.49497e-06
8.53261e-06
8.55763e-06
8.57011e-06
8.57012e-06
8.55766e-06
8.53268e-06
8.49509e-06
8.44475e-06
8.38151e-06
8.30517e-06
8.21548e-06
8.11206e-06
7.99446e-06
7.8622e-06
7.71479e-06
7.55171e-06
7.37251e-06
7.17674e-06
6.96401e-06
6.73401e-06
6.48647e-06
6.22123e-06
5.93822e-06
5.63744e-06
5.31901e-06
4.98308e-06
4.62992e-06
4.25979e-06
3.87296e-06
3.46962e-06
3.04982e-06
2.61336e-06
2.15966e-06
1.68764e-06
1.19558e-06
6.80992e-07
3.07018e-09
1.15589e-11
4.63606e-11
1.23352e-08
5.97527e-06
9.45788e-06
1.24657e-05
1.5159e-05
1.76208e-05
1.98988e-05
2.20223e-05
2.40103e-05
2.58756e-05
2.76272e-05
2.92716e-05
3.08137e-05
3.22577e-05
3.3607e-05
3.48647e-05
3.60337e-05
3.71167e-05
3.81164e-05
3.90355e-05
3.98769e-05
4.0643e-05
4.13366e-05
4.19601e-05
4.2516e-05
4.30066e-05
4.34342e-05
4.38021e-05
4.41217e-05
4.439e-05
4.46053e-05
4.47669e-05
4.48746e-05
4.49285e-05
4.49285e-05
4.48747e-05
4.47671e-05
4.46056e-05
4.43905e-05
4.41225e-05
4.3803e-05
4.34351e-05
4.30076e-05
4.25171e-05
4.19614e-05
4.13381e-05
4.06448e-05
3.9879e-05
3.9038e-05
3.81193e-05
3.712e-05
3.60375e-05
3.4869e-05
3.36118e-05
3.2263e-05
3.08195e-05
2.92779e-05
2.76341e-05
2.5883e-05
2.40181e-05
2.20304e-05
1.99071e-05
1.76293e-05
1.51673e-05
1.24736e-05
9.46491e-06
5.9807e-06
1.23497e-08
4.64177e-11
6.91684e-11
1.84135e-08
8.40117e-06
1.29182e-05
1.6751e-05
2.01459e-05
2.32241e-05
2.60542e-05
2.86778e-05
3.1122e-05
3.34053e-05
3.55407e-05
3.75381e-05
3.9405e-05
4.11477e-05
4.27715e-05
4.42811e-05
4.56808e-05
4.69743e-05
4.81651e-05
4.92563e-05
5.02585e-05
5.11721e-05
5.19981e-05
5.27376e-05
5.3392e-05
5.39629e-05
5.44554e-05
5.48921e-05
4.70644e-05
4.72004e-05
4.73128e-05
4.73984e-05
4.7456e-05
4.74848e-05
4.74848e-05
4.74559e-05
4.73983e-05
4.73125e-05
4.72001e-05
4.70641e-05
5.48911e-05
5.44544e-05
5.39621e-05
5.33914e-05
5.27372e-05
5.19979e-05
5.11722e-05
5.02588e-05
4.92569e-05
4.81658e-05
4.69753e-05
4.56819e-05
4.42823e-05
4.27728e-05
4.11492e-05
3.94068e-05
3.75402e-05
3.55431e-05
3.3408e-05
3.1125e-05
2.8681e-05
2.60576e-05
2.32276e-05
2.01494e-05
1.67544e-05
1.29213e-05
8.40375e-06
1.84217e-08
6.92016e-11
8.36319e-11
2.22759e-08
9.84027e-06
1.49252e-05
1.9215e-05
2.30029e-05
2.64305e-05
2.95767e-05
3.24893e-05
3.51994e-05
3.7728e-05
4.00901e-05
4.22971e-05
4.43578e-05
4.62793e-05
4.80674e-05
4.97263e-05
5.12592e-05
5.26674e-05
5.39497e-05
4.70271e-05
4.75431e-05
4.80208e-05
4.84591e-05
4.88583e-05
4.92189e-05
4.95418e-05
4.98275e-05
5.00792e-05
5.0292e-05
5.04678e-05
5.06077e-05
5.07121e-05
5.07815e-05
5.08161e-05
5.0816e-05
5.07813e-05
5.07118e-05
5.06072e-05
5.04673e-05
5.02913e-05
5.00785e-05
4.98268e-05
4.95412e-05
4.92183e-05
4.88577e-05
4.84586e-05
4.80203e-05
4.75427e-05
4.70268e-05
5.39491e-05
5.26672e-05
5.12593e-05
4.97263e-05
4.80673e-05
4.62793e-05
4.43579e-05
4.22974e-05
4.00906e-05
3.77286e-05
3.52002e-05
3.24903e-05
2.95778e-05
2.64317e-05
2.30042e-05
1.92163e-05
1.49265e-05
9.84141e-06
2.22803e-08
8.36511e-11
9.17686e-11
2.4453e-08
1.06238e-05
1.60068e-05
2.05382e-05
2.45355e-05
2.81509e-05
3.14684e-05
3.4539e-05
3.73957e-05
4.00608e-05
4.25501e-05
4.48758e-05
4.70474e-05
4.90729e-05
5.09588e-05
5.27117e-05
5.43339e-05
4.73473e-05
4.80145e-05
4.86366e-05
4.92121e-05
4.9742e-05
5.02273e-05
5.06691e-05
5.1068e-05
5.14249e-05
5.17404e-05
5.20151e-05
5.22495e-05
5.24441e-05
5.25993e-05
5.27153e-05
5.27925e-05
5.28311e-05
5.2831e-05
5.27924e-05
5.27151e-05
5.2599e-05
5.24437e-05
5.22491e-05
5.20146e-05
5.17398e-05
5.14243e-05
5.10673e-05
5.06684e-05
5.02266e-05
4.97413e-05
4.92114e-05
4.8636e-05
4.8014e-05
4.73468e-05
5.43331e-05
5.27114e-05
5.09585e-05
4.90725e-05
4.70471e-05
4.48757e-05
4.25501e-05
4.00609e-05
3.7396e-05
3.45394e-05
3.14689e-05
2.81515e-05
2.45362e-05
2.05389e-05
1.60076e-05
1.06245e-05
2.44564e-08
9.17835e-11
9.58422e-11
2.55454e-08
1.10108e-05
1.6539e-05
2.1189e-05
2.529e-05
2.89992e-05
3.24032e-05
3.55544e-05
3.84867e-05
4.12229e-05
4.37792e-05
4.61683e-05
4.84006e-05
5.04851e-05
5.24303e-05
5.42404e-05
4.7397e-05
4.81495e-05
4.88523e-05
4.95054e-05
5.01101e-05
5.06678e-05
5.11792e-05
5.16453e-05
5.20668e-05
5.24443e-05
5.27784e-05
5.30696e-05
5.33184e-05
5.3525e-05
5.369e-05
5.38135e-05
5.38957e-05
5.39367e-05
5.39367e-05
5.38956e-05
5.38133e-05
5.36898e-05
5.35248e-05
5.3318e-05
5.30692e-05
5.2778e-05
5.24439e-05
5.20664e-05
5.16448e-05
5.11787e-05
5.06673e-05
5.01097e-05
4.95049e-05
4.88518e-05
4.81491e-05
4.73967e-05
5.42397e-05
5.243e-05
5.0485e-05
4.84007e-05
4.61686e-05
4.37796e-05
4.12233e-05
3.84873e-05
3.55551e-05
3.24039e-05
2.9e-05
2.52909e-05
2.11899e-05
1.65399e-05
1.10116e-05
2.55491e-08
9.58582e-11
9.76673e-11
2.60361e-08
1.11837e-05
1.67768e-05
2.14801e-05
2.56283e-05
2.93806e-05
3.2825e-05
3.60144e-05
3.89831e-05
4.17542e-05
4.43441e-05
4.67648e-05
4.90243e-05
5.11264e-05
5.30717e-05
5.4984e-05
4.77783e-05
4.85394e-05
4.92542e-05
4.99214e-05
5.05406e-05
5.11125e-05
5.16375e-05
5.21165e-05
5.25499e-05
5.29383e-05
5.32823e-05
5.35823e-05
5.38388e-05
5.40519e-05
5.42221e-05
5.43496e-05
5.44344e-05
5.44768e-05
5.44768e-05
5.44344e-05
5.43495e-05
5.4222e-05
5.40518e-05
5.38386e-05
5.35821e-05
5.32821e-05
5.29381e-05
5.25496e-05
5.21162e-05
5.16373e-05
5.11123e-05
5.05404e-05
4.99212e-05
4.92541e-05
4.85392e-05
4.77782e-05
5.49838e-05
5.30717e-05
5.1127e-05
4.9025e-05
4.67656e-05
4.4345e-05
4.17552e-05
3.89842e-05
3.60156e-05
3.28263e-05
2.9382e-05
2.56297e-05
2.14814e-05
1.6778e-05
1.11848e-05
2.60405e-08
9.76861e-11
9.83819e-11
2.62288e-08
1.12516e-05
1.68703e-05
2.15949e-05
2.5762e-05
2.95318e-05
3.29925e-05
3.61976e-05
3.91815e-05
4.19675e-05
4.45725e-05
4.70089e-05
4.92851e-05
5.14044e-05
5.3365e-05
4.70996e-05
4.79234e-05
4.86977e-05
4.94224e-05
5.00977e-05
5.07243e-05
5.13029e-05
5.18342e-05
5.2319e-05
5.27579e-05
5.31513e-05
5.34999e-05
5.3804e-05
5.40639e-05
5.42801e-05
5.44526e-05
5.45819e-05
5.4668e-05
5.4711e-05
5.4711e-05
5.46679e-05
5.45819e-05
5.44526e-05
5.428e-05
5.40638e-05
5.38039e-05
5.34998e-05
5.31512e-05
5.27578e-05
5.23189e-05
5.18342e-05
5.13028e-05
5.07243e-05
5.00977e-05
4.94224e-05
4.86978e-05
4.79235e-05
4.70998e-05
5.33657e-05
5.14053e-05
4.92861e-05
4.701e-05
4.45738e-05
4.19689e-05
3.9183e-05
3.61993e-05
3.29943e-05
2.95335e-05
2.57637e-05
2.15966e-05
1.68719e-05
1.1253e-05
2.62338e-08
9.84032e-11
9.86458e-11
2.63001e-08
1.12769e-05
1.69051e-05
2.16377e-05
2.58121e-05
2.95888e-05
3.30562e-05
3.62677e-05
3.9258e-05
4.20505e-05
4.46621e-05
4.71052e-05
4.93884e-05
5.15149e-05
5.34826e-05
4.71545e-05
4.79816e-05
4.87591e-05
4.94869e-05
5.01652e-05
5.07946e-05
5.13758e-05
5.19097e-05
5.23969e-05
5.28379e-05
5.32334e-05
5.35838e-05
5.38895e-05
5.41509e-05
5.43682e-05
5.45418e-05
5.46717e-05
5.47583e-05
5.48016e-05
5.48016e-05
5.47583e-05
5.46717e-05
5.45417e-05
5.43682e-05
5.41508e-05
5.38895e-05
5.35838e-05
5.32334e-05
5.28379e-05
5.23969e-05
5.19097e-05
5.13759e-05
5.07947e-05
5.01653e-05
4.94871e-05
4.87594e-05
4.79819e-05
4.71548e-05
5.34834e-05
5.1516e-05
4.93897e-05
4.71067e-05
4.46637e-05
4.20522e-05
3.92599e-05
3.62697e-05
3.30582e-05
2.95908e-05
2.58141e-05
2.16396e-05
1.69069e-05
1.12783e-05
2.63056e-08
9.86687e-11
9.87356e-11
2.63244e-08
1.12855e-05
1.69171e-05
2.16525e-05
2.58294e-05
2.96084e-05
3.30782e-05
3.62921e-05
3.92847e-05
4.20795e-05
4.46934e-05
4.71389e-05
4.94244e-05
5.15533e-05
5.35234e-05
4.71736e-05
4.80018e-05
4.87804e-05
4.95092e-05
5.01885e-05
5.08189e-05
5.14011e-05
5.19358e-05
5.24238e-05
5.28657e-05
5.32619e-05
5.36129e-05
5.39192e-05
5.41811e-05
5.43989e-05
5.45728e-05
5.4703e-05
5.47898e-05
5.48331e-05
5.48331e-05
5.47897e-05
5.4703e-05
5.45727e-05
5.43988e-05
5.41811e-05
5.39192e-05
5.36129e-05
5.32619e-05
5.28657e-05
5.24239e-05
5.19359e-05
5.14012e-05
5.0819e-05
5.01887e-05
4.95094e-05
4.87807e-05
4.80022e-05
4.7174e-05
5.35244e-05
5.15546e-05
4.94259e-05
4.71405e-05
4.46951e-05
4.20814e-05
3.92867e-05
3.62942e-05
3.30803e-05
2.96106e-05
2.58315e-05
2.16545e-05
1.69189e-05
1.1287e-05
2.63301e-08
9.87593e-11
9.87634e-11
2.6332e-08
1.12882e-05
1.69208e-05
2.1657e-05
2.58348e-05
2.96146e-05
3.30851e-05
3.62997e-05
3.9293e-05
4.20885e-05
4.47032e-05
4.71494e-05
4.94357e-05
5.15654e-05
5.35361e-05
4.71797e-05
4.80081e-05
4.8787e-05
4.95162e-05
5.01958e-05
5.08265e-05
5.1409e-05
5.1944e-05
5.24323e-05
5.28744e-05
5.32708e-05
5.36221e-05
5.39286e-05
5.41906e-05
5.44085e-05
5.45825e-05
5.47129e-05
5.47997e-05
5.48431e-05
5.48431e-05
5.47997e-05
5.47129e-05
5.45825e-05
5.44085e-05
5.41906e-05
5.39286e-05
5.36221e-05
5.32709e-05
5.28745e-05
5.24324e-05
5.19442e-05
5.14091e-05
5.08267e-05
5.0196e-05
4.95165e-05
4.87874e-05
4.80085e-05
4.71801e-05
5.35372e-05
5.15667e-05
4.94373e-05
4.71511e-05
4.4705e-05
4.20905e-05
3.92951e-05
3.63019e-05
3.30873e-05
2.96168e-05
2.58369e-05
2.16591e-05
1.69226e-05
1.12897e-05
2.63378e-08
9.87873e-11
9.87711e-11
2.63341e-08
1.12889e-05
1.69218e-05
2.16583e-05
2.58363e-05
2.96163e-05
3.3087e-05
3.63019e-05
3.92954e-05
4.20911e-05
4.4706e-05
4.71524e-05
4.94389e-05
5.15688e-05
5.35397e-05
4.71814e-05
4.801e-05
4.8789e-05
4.95182e-05
5.01979e-05
5.08287e-05
5.14113e-05
5.19464e-05
5.24348e-05
5.28769e-05
5.32734e-05
5.36248e-05
5.39313e-05
5.41934e-05
5.44113e-05
5.45854e-05
5.47157e-05
5.48026e-05
5.48459e-05
5.48459e-05
5.48026e-05
5.47157e-05
5.45854e-05
5.44113e-05
5.41934e-05
5.39313e-05
5.36248e-05
5.32735e-05
5.2877e-05
5.24348e-05
5.19465e-05
5.14114e-05
5.08289e-05
5.01981e-05
4.95185e-05
4.87893e-05
4.80104e-05
4.71818e-05
5.35409e-05
5.15702e-05
4.94405e-05
4.71541e-05
4.47078e-05
4.20931e-05
3.92975e-05
3.6304e-05
3.30892e-05
2.96186e-05
2.58385e-05
2.16604e-05
1.69237e-05
1.12905e-05
2.63399e-08
9.87952e-11
9.87731e-11
2.63346e-08
1.12891e-05
1.69221e-05
2.16587e-05
2.58367e-05
2.96168e-05
3.30875e-05
3.63024e-05
3.9296e-05
4.20918e-05
4.47067e-05
4.71532e-05
4.94398e-05
5.15697e-05
5.35407e-05
4.71818e-05
4.80104e-05
4.87895e-05
4.95187e-05
5.01984e-05
5.08292e-05
5.14119e-05
5.1947e-05
5.24354e-05
5.28776e-05
5.32741e-05
5.36255e-05
5.3932e-05
5.41941e-05
5.44121e-05
5.45861e-05
5.47165e-05
5.48033e-05
5.48467e-05
5.48467e-05
5.48033e-05
5.47165e-05
5.45861e-05
5.44121e-05
5.41941e-05
5.3932e-05
5.36255e-05
5.32742e-05
5.28777e-05
5.24355e-05
5.19472e-05
5.1412e-05
5.08294e-05
5.01987e-05
4.9519e-05
4.87898e-05
4.80108e-05
4.71823e-05
5.35418e-05
5.15711e-05
4.94413e-05
4.71549e-05
4.47086e-05
4.20938e-05
3.92981e-05
3.63046e-05
3.30898e-05
2.9619e-05
2.58389e-05
2.16607e-05
1.6924e-05
1.12907e-05
2.63405e-08
9.87973e-11
9.87736e-11
2.63348e-08
1.12892e-05
1.69222e-05
2.16588e-05
2.58368e-05
2.96169e-05
3.30877e-05
3.63026e-05
3.92962e-05
4.2092e-05
4.47069e-05
4.71534e-05
4.944e-05
5.15699e-05
5.35409e-05
4.71819e-05
4.80105e-05
4.87896e-05
4.95188e-05
5.01986e-05
5.08294e-05
5.1412e-05
5.19472e-05
5.24356e-05
5.28778e-05
5.32743e-05
5.36256e-05
5.39322e-05
5.41943e-05
5.44122e-05
5.45863e-05
5.47167e-05
5.48035e-05
5.48469e-05
5.48469e-05
5.48035e-05
5.47167e-05
5.45863e-05
5.44122e-05
5.41943e-05
5.39322e-05
5.36257e-05
5.32743e-05
5.28778e-05
5.24357e-05
5.19473e-05
5.14122e-05
5.08296e-05
5.01988e-05
4.95191e-05
4.87899e-05
4.8011e-05
4.71824e-05
5.35421e-05
5.15713e-05
4.94416e-05
4.71551e-05
4.47087e-05
4.2094e-05
3.92983e-05
3.63048e-05
3.30899e-05
2.96191e-05
2.5839e-05
2.16608e-05
1.6924e-05
1.12907e-05
2.63406e-08
9.87978e-11
9.87737e-11
2.63348e-08
1.12892e-05
1.69222e-05
2.16588e-05
2.58368e-05
2.96169e-05
3.30877e-05
3.63026e-05
3.92962e-05
4.2092e-05
4.47069e-05
4.71534e-05
4.944e-05
5.15699e-05
5.3541e-05
4.7182e-05
4.80106e-05
4.87896e-05
4.95189e-05
5.01986e-05
5.08294e-05
5.1412e-05
5.19472e-05
5.24356e-05
5.28778e-05
5.32743e-05
5.36257e-05
5.39322e-05
5.41943e-05
5.44123e-05
5.45864e-05
5.47167e-05
5.48036e-05
5.48469e-05
5.48469e-05
5.48036e-05
5.47167e-05
5.45864e-05
5.44123e-05
5.41943e-05
5.39322e-05
5.36257e-05
5.32744e-05
5.28779e-05
5.24357e-05
5.19473e-05
5.14122e-05
5.08296e-05
5.01989e-05
4.95192e-05
4.879e-05
4.8011e-05
4.71824e-05
5.35421e-05
5.15713e-05
4.94416e-05
4.71552e-05
4.47088e-05
4.2094e-05
3.92983e-05
3.63048e-05
3.30899e-05
2.96192e-05
2.5839e-05
2.16608e-05
1.69241e-05
1.12907e-05
2.63406e-08
9.87979e-11
9.87737e-11
2.63348e-08
1.12892e-05
1.69222e-05
2.16588e-05
2.58368e-05
2.96169e-05
3.30877e-05
3.63026e-05
3.92962e-05
4.2092e-05
4.47069e-05
4.71534e-05
4.944e-05
5.157e-05
5.3541e-05
4.7182e-05
4.80106e-05
4.87896e-05
4.95189e-05
5.01986e-05
5.08294e-05
5.14121e-05
5.19472e-05
5.24356e-05
5.28778e-05
5.32743e-05
5.36257e-05
5.39322e-05
5.41943e-05
5.44123e-05
5.45864e-05
5.47167e-05
5.48036e-05
5.4847e-05
5.4847e-05
5.48036e-05
5.47167e-05
5.45864e-05
5.44123e-05
5.41943e-05
5.39322e-05
5.36257e-05
5.32744e-05
5.28779e-05
5.24357e-05
5.19473e-05
5.14122e-05
5.08296e-05
5.01989e-05
4.95192e-05
4.879e-05
4.8011e-05
4.71824e-05
5.35421e-05
5.15713e-05
4.94416e-05
4.71552e-05
4.47088e-05
4.2094e-05
3.92983e-05
3.63048e-05
3.30899e-05
2.96192e-05
2.5839e-05
2.16609e-05
1.69241e-05
1.12907e-05
2.63406e-08
9.87979e-11
9.87737e-11
2.63348e-08
1.12892e-05
1.69222e-05
2.16588e-05
2.58368e-05
2.96169e-05
3.30877e-05
3.63026e-05
3.92962e-05
4.2092e-05
4.47069e-05
4.71534e-05
4.944e-05
5.157e-05
5.3541e-05
4.7182e-05
4.80106e-05
4.87896e-05
4.95189e-05
5.01986e-05
5.08294e-05
5.14121e-05
5.19472e-05
5.24356e-05
5.28778e-05
5.32743e-05
5.36257e-05
5.39322e-05
5.41943e-05
5.44123e-05
5.45864e-05
5.47167e-05
5.48036e-05
5.4847e-05
5.4847e-05
5.48036e-05
5.47167e-05
5.45864e-05
5.44123e-05
5.41943e-05
5.39322e-05
5.36257e-05
5.32744e-05
5.28779e-05
5.24357e-05
5.19474e-05
5.14122e-05
5.08296e-05
5.01989e-05
4.95192e-05
4.879e-05
4.8011e-05
4.71824e-05
5.35421e-05
5.15713e-05
4.94416e-05
4.71552e-05
4.47088e-05
4.2094e-05
3.92983e-05
3.63048e-05
3.30899e-05
2.96192e-05
2.5839e-05
2.16609e-05
1.69241e-05
1.12907e-05
2.63406e-08
9.87979e-11
9.87737e-11
2.63348e-08
1.12892e-05
1.69222e-05
2.16588e-05
2.58368e-05
2.96169e-05
3.30877e-05
3.63026e-05
3.92962e-05
4.2092e-05
4.47069e-05
4.71534e-05
4.944e-05
5.157e-05
5.3541e-05
4.7182e-05
4.80106e-05
4.87896e-05
4.95189e-05
5.01986e-05
5.08294e-05
5.14121e-05
5.19472e-05
5.24356e-05
5.28778e-05
5.32743e-05
5.36257e-05
5.39322e-05
5.41943e-05
5.44123e-05
5.45864e-05
5.47167e-05
5.48036e-05
5.4847e-05
5.4847e-05
5.48036e-05
5.47167e-05
5.45864e-05
5.44123e-05
5.41943e-05
5.39322e-05
5.36257e-05
5.32744e-05
5.28779e-05
5.24357e-05
5.19474e-05
5.14122e-05
5.08296e-05
5.01989e-05
4.95192e-05
4.879e-05
4.8011e-05
4.71824e-05
5.35421e-05
5.15713e-05
4.94416e-05
4.71552e-05
4.47088e-05
4.2094e-05
3.92983e-05
3.63048e-05
3.30899e-05
2.96192e-05
2.5839e-05
2.16609e-05
1.69241e-05
1.12907e-05
2.63406e-08
9.87979e-11
9.87737e-11
2.63348e-08
1.12892e-05
1.69222e-05
2.16588e-05
2.58368e-05
2.96169e-05
3.30877e-05
3.63026e-05
3.92962e-05
4.2092e-05
4.47069e-05
4.71534e-05
4.944e-05
5.157e-05
5.3541e-05
4.7182e-05
4.80106e-05
4.87896e-05
4.95189e-05
5.01986e-05
5.08294e-05
5.14121e-05
5.19472e-05
5.24356e-05
5.28778e-05
5.32743e-05
5.36257e-05
5.39322e-05
5.41943e-05
5.44123e-05
5.45864e-05
5.47167e-05
5.48036e-05
5.4847e-05
5.4847e-05
5.48036e-05
5.47167e-05
5.45864e-05
5.44123e-05
5.41943e-05
5.39322e-05
5.36257e-05
5.32744e-05
5.28779e-05
5.24357e-05
5.19474e-05
5.14122e-05
5.08296e-05
5.01989e-05
4.95192e-05
4.879e-05
4.8011e-05
4.71824e-05
5.35421e-05
5.15713e-05
4.94416e-05
4.71552e-05
4.47088e-05
4.2094e-05
3.92983e-05
3.63048e-05
3.30899e-05
2.96192e-05
2.5839e-05
2.16609e-05
1.69241e-05
1.12907e-05
2.63406e-08
9.87979e-11
9.87737e-11
2.63348e-08
1.12892e-05
1.69222e-05
2.16588e-05
2.58368e-05
2.96169e-05
3.30877e-05
3.63026e-05
3.92962e-05
4.2092e-05
4.47069e-05
4.71534e-05
4.944e-05
5.157e-05
5.3541e-05
4.7182e-05
4.80106e-05
4.87896e-05
4.95189e-05
5.01986e-05
5.08294e-05
5.14121e-05
5.19472e-05
5.24356e-05
5.28778e-05
5.32743e-05
5.36257e-05
5.39322e-05
5.41943e-05
5.44123e-05
5.45864e-05
5.47167e-05
5.48036e-05
5.4847e-05
5.4847e-05
5.48036e-05
5.47167e-05
5.45864e-05
5.44123e-05
5.41943e-05
5.39322e-05
5.36257e-05
5.32744e-05
5.28779e-05
5.24357e-05
5.19474e-05
5.14122e-05
5.08296e-05
5.01989e-05
4.95192e-05
4.879e-05
4.8011e-05
4.71824e-05
5.35421e-05
5.15713e-05
4.94416e-05
4.71552e-05
4.47088e-05
4.2094e-05
3.92983e-05
3.63048e-05
3.30899e-05
2.96192e-05
2.5839e-05
2.16609e-05
1.69241e-05
1.12907e-05
2.63406e-08
9.87979e-11
9.87737e-11
2.63348e-08
1.12892e-05
1.69222e-05
2.16588e-05
2.58368e-05
2.96169e-05
3.30877e-05
3.63026e-05
3.92962e-05
4.2092e-05
4.47069e-05
4.71534e-05
4.944e-05
5.157e-05
5.3541e-05
4.7182e-05
4.80106e-05
4.87896e-05
4.95189e-05
5.01986e-05
5.08294e-05
5.14121e-05
5.19472e-05
5.24356e-05
5.28778e-05
5.32743e-05
5.36257e-05
5.39322e-05
5.41943e-05
5.44123e-05
5.45864e-05
5.47167e-05
5.48036e-05
5.4847e-05
5.4847e-05
5.48036e-05
5.47167e-05
5.45864e-05
5.44123e-05
5.41943e-05
5.39322e-05
5.36257e-05
5.32744e-05
5.28779e-05
5.24357e-05
5.19474e-05
5.14122e-05
5.08296e-05
5.01989e-05
4.95192e-05
4.879e-05
4.8011e-05
4.71824e-05
5.35421e-05
5.15713e-05
4.94416e-05
4.71552e-05
4.47088e-05
4.2094e-05
3.92983e-05
3.63048e-05
3.30899e-05
2.96192e-05
2.5839e-05
2.16609e-05
1.69241e-05
1.12907e-05
2.63406e-08
9.87979e-11
9.87737e-11
2.63348e-08
1.12892e-05
1.69222e-05
2.16588e-05
2.58368e-05
2.96169e-05
3.30877e-05
3.63026e-05
3.92962e-05
4.2092e-05
4.47069e-05
4.71534e-05
4.944e-05
5.157e-05
5.3541e-05
4.7182e-05
4.80106e-05
4.87896e-05
4.95189e-05
5.01986e-05
5.08294e-05
5.14121e-05
5.19472e-05
5.24356e-05
5.28778e-05
5.32743e-05
5.36257e-05
5.39322e-05
5.41943e-05
5.44123e-05
5.45864e-05
5.47167e-05
5.48036e-05
5.4847e-05
5.4847e-05
5.48036e-05
5.47167e-05
5.45864e-05
5.44123e-05
5.41943e-05
5.39322e-05
5.36257e-05
5.32744e-05
5.28779e-05
5.24357e-05
5.19474e-05
5.14122e-05
5.08296e-05
5.01989e-05
4.95192e-05
4.879e-05
4.8011e-05
4.71824e-05
5.35421e-05
5.15713e-05
4.94416e-05
4.71552e-05
4.47088e-05
4.2094e-05
3.92983e-05
3.63048e-05
3.30899e-05
2.96192e-05
2.5839e-05
2.16609e-05
1.69241e-05
1.12907e-05
2.63406e-08
9.87979e-11
9.87737e-11
2.63348e-08
1.12892e-05
1.69222e-05
2.16588e-05
2.58368e-05
2.96169e-05
3.30877e-05
3.63026e-05
3.92962e-05
4.2092e-05
4.47069e-05
4.71534e-05
4.944e-05
5.157e-05
5.3541e-05
4.7182e-05
4.80106e-05
4.87896e-05
4.95189e-05
5.01986e-05
5.08294e-05
5.14121e-05
5.19472e-05
5.24356e-05
5.28778e-05
5.32743e-05
5.36257e-05
5.39322e-05
5.41943e-05
5.44123e-05
5.45864e-05
5.47167e-05
5.48036e-05
5.4847e-05
5.4847e-05
5.48036e-05
5.47167e-05
5.45864e-05
5.44123e-05
5.41943e-05
5.39322e-05
5.36257e-05
5.32744e-05
5.28779e-05
5.24357e-05
5.19474e-05
5.14122e-05
5.08296e-05
5.01989e-05
4.95192e-05
4.879e-05
4.8011e-05
4.71824e-05
5.35421e-05
5.15713e-05
4.94416e-05
4.71552e-05
4.47088e-05
4.2094e-05
3.92983e-05
3.63048e-05
3.30899e-05
2.96192e-05
2.5839e-05
2.16609e-05
1.69241e-05
1.12907e-05
2.63406e-08
9.87979e-11
9.87737e-11
2.63348e-08
1.12892e-05
1.69222e-05
2.16588e-05
2.58368e-05
2.96169e-05
3.30877e-05
3.63026e-05
3.92962e-05
4.2092e-05
4.47069e-05
4.71534e-05
4.944e-05
5.157e-05
5.3541e-05
4.7182e-05
4.80106e-05
4.87896e-05
4.95189e-05
5.01986e-05
5.08294e-05
5.14121e-05
5.19472e-05
5.24356e-05
5.28778e-05
5.32743e-05
5.36257e-05
5.39322e-05
5.41943e-05
5.44123e-05
5.45864e-05
5.47167e-05
5.48036e-05
5.4847e-05
5.4847e-05
5.48036e-05
5.47167e-05
5.45864e-05
5.44123e-05
5.41943e-05
5.39322e-05
5.36257e-05
5.32744e-05
5.28779e-05
5.24357e-05
5.19474e-05
5.14122e-05
5.08296e-05
5.01989e-05
4.95192e-05
4.879e-05
4.8011e-05
4.71824e-05
5.35421e-05
5.15713e-05
4.94416e-05
4.71552e-05
4.47088e-05
4.2094e-05
3.92983e-05
3.63048e-05
3.30899e-05
2.96192e-05
2.5839e-05
2.16609e-05
1.69241e-05
1.12907e-05
2.63406e-08
9.87979e-11
9.87737e-11
2.63348e-08
1.12892e-05
1.69222e-05
2.16588e-05
2.58368e-05
2.96169e-05
3.30877e-05
3.63026e-05
3.92962e-05
4.2092e-05
4.47069e-05
4.71534e-05
4.944e-05
5.157e-05
5.3541e-05
4.7182e-05
4.80106e-05
4.87896e-05
4.95189e-05
5.01986e-05
5.08294e-05
5.14121e-05
5.19472e-05
5.24356e-05
5.28778e-05
5.32743e-05
5.36257e-05
5.39322e-05
5.41943e-05
5.44123e-05
5.45864e-05
5.47167e-05
5.48036e-05
5.4847e-05
5.4847e-05
5.48036e-05
5.47167e-05
5.45864e-05
5.44123e-05
5.41943e-05
5.39322e-05
5.36257e-05
5.32744e-05
5.28779e-05
5.24357e-05
5.19474e-05
5.14122e-05
5.08296e-05
5.01989e-05
4.95192e-05
4.879e-05
4.8011e-05
4.71824e-05
5.35421e-05
5.15713e-05
4.94416e-05
4.71552e-05
4.47088e-05
4.2094e-05
3.92983e-05
3.63048e-05
3.30899e-05
2.96192e-05
2.5839e-05
2.16609e-05
1.69241e-05
1.12907e-05
2.63406e-08
9.87979e-11
9.87737e-11
2.63348e-08
1.12892e-05
1.69222e-05
2.16588e-05
2.58368e-05
2.96169e-05
3.30877e-05
3.63026e-05
3.92962e-05
4.2092e-05
4.47069e-05
4.71534e-05
4.944e-05
5.157e-05
5.3541e-05
4.7182e-05
4.80106e-05
4.87896e-05
4.95189e-05
5.01986e-05
5.08294e-05
5.14121e-05
5.19472e-05
5.24356e-05
5.28778e-05
5.32743e-05
5.36257e-05
5.39322e-05
5.41943e-05
5.44123e-05
5.45864e-05
5.47167e-05
5.48036e-05
5.4847e-05
5.4847e-05
5.48036e-05
5.47167e-05
5.45864e-05
5.44123e-05
5.41943e-05
5.39322e-05
5.36257e-05
5.32744e-05
5.28779e-05
5.24357e-05
5.19474e-05
5.14122e-05
5.08296e-05
5.01989e-05
4.95192e-05
4.879e-05
4.8011e-05
4.71824e-05
5.35421e-05
5.15713e-05
4.94416e-05
4.71552e-05
4.47088e-05
4.2094e-05
3.92983e-05
3.63048e-05
3.30899e-05
2.96192e-05
2.5839e-05
2.16609e-05
1.69241e-05
1.12907e-05
2.63406e-08
9.87979e-11
9.87737e-11
2.63348e-08
1.12892e-05
1.69222e-05
2.16588e-05
2.58368e-05
2.96169e-05
3.30877e-05
3.63026e-05
3.92962e-05
4.2092e-05
4.47069e-05
4.71534e-05
4.944e-05
5.157e-05
5.3541e-05
4.7182e-05
4.80106e-05
4.87896e-05
4.95189e-05
5.01986e-05
5.08294e-05
5.14121e-05
5.19472e-05
5.24356e-05
5.28778e-05
5.32743e-05
5.36257e-05
5.39322e-05
5.41943e-05
5.44123e-05
5.45864e-05
5.47167e-05
5.48036e-05
5.4847e-05
5.4847e-05
5.48036e-05
5.47167e-05
5.45864e-05
5.44123e-05
5.41943e-05
5.39322e-05
5.36257e-05
5.32744e-05
5.28779e-05
5.24357e-05
5.19474e-05
5.14122e-05
5.08296e-05
5.01989e-05
4.95192e-05
4.879e-05
4.8011e-05
4.71824e-05
5.35421e-05
5.15713e-05
4.94416e-05
4.71552e-05
4.47088e-05
4.2094e-05
3.92983e-05
3.63048e-05
3.30899e-05
2.96192e-05
2.5839e-05
2.16609e-05
1.69241e-05
1.12907e-05
2.63406e-08
9.87979e-11
9.87737e-11
2.63348e-08
1.12892e-05
1.69222e-05
2.16588e-05
2.58368e-05
2.96169e-05
3.30877e-05
3.63026e-05
3.92962e-05
4.2092e-05
4.47069e-05
4.71534e-05
4.944e-05
5.157e-05
5.3541e-05
4.7182e-05
4.80106e-05
4.87896e-05
4.95189e-05
5.01986e-05
5.08294e-05
5.14121e-05
5.19472e-05
5.24356e-05
5.28778e-05
5.32743e-05
5.36257e-05
5.39322e-05
5.41943e-05
5.44123e-05
5.45864e-05
5.47167e-05
5.48036e-05
5.4847e-05
5.4847e-05
5.48036e-05
5.47167e-05
5.45864e-05
5.44123e-05
5.41943e-05
5.39322e-05
5.36257e-05
5.32744e-05
5.28779e-05
5.24357e-05
5.19474e-05
5.14122e-05
5.08296e-05
5.01989e-05
4.95192e-05
4.879e-05
4.8011e-05
4.71824e-05
5.35421e-05
5.15713e-05
4.94416e-05
4.71552e-05
4.47088e-05
4.2094e-05
3.92983e-05
3.63048e-05
3.30899e-05
2.96192e-05
2.5839e-05
2.16609e-05
1.69241e-05
1.12907e-05
2.63406e-08
9.87979e-11
9.87737e-11
2.63348e-08
1.12892e-05
1.69222e-05
2.16588e-05
2.58368e-05
2.96169e-05
3.30877e-05
3.63026e-05
3.92962e-05
4.2092e-05
4.47069e-05
4.71534e-05
4.944e-05
5.157e-05
5.3541e-05
4.7182e-05
4.80106e-05
4.87896e-05
4.95189e-05
5.01986e-05
5.08294e-05
5.14121e-05
5.19472e-05
5.24356e-05
5.28778e-05
5.32743e-05
5.36257e-05
5.39322e-05
5.41943e-05
5.44123e-05
5.45864e-05
5.47167e-05
5.48036e-05
5.4847e-05
5.4847e-05
5.48036e-05
5.47167e-05
5.45864e-05
5.44123e-05
5.41943e-05
5.39322e-05
5.36257e-05
5.32744e-05
5.28779e-05
5.24357e-05
5.19474e-05
5.14122e-05
5.08296e-05
5.01989e-05
4.95192e-05
4.879e-05
4.8011e-05
4.71824e-05
5.35421e-05
5.15713e-05
4.94416e-05
4.71552e-05
4.47088e-05
4.2094e-05
3.92983e-05
3.63048e-05
3.30899e-05
2.96192e-05
2.5839e-05
2.16609e-05
1.69241e-05
1.12907e-05
2.63406e-08
9.87979e-11
9.87737e-11
2.63348e-08
1.12892e-05
1.69222e-05
2.16588e-05
2.58368e-05
2.96169e-05
3.30877e-05
3.63026e-05
3.92962e-05
4.2092e-05
4.47069e-05
4.71534e-05
4.944e-05
5.157e-05
5.3541e-05
4.7182e-05
4.80106e-05
4.87896e-05
4.95189e-05
5.01986e-05
5.08294e-05
5.14121e-05
5.19472e-05
5.24356e-05
5.28778e-05
5.32743e-05
5.36257e-05
5.39322e-05
5.41943e-05
5.44123e-05
5.45864e-05
5.47167e-05
5.48036e-05
5.4847e-05
5.4847e-05
5.48036e-05
5.47167e-05
5.45864e-05
5.44123e-05
5.41943e-05
5.39322e-05
5.36257e-05
5.32744e-05
5.28779e-05
5.24357e-05
5.19474e-05
5.14122e-05
5.08296e-05
5.01989e-05
4.95192e-05
4.879e-05
4.8011e-05
4.71824e-05
5.35421e-05
5.15713e-05
4.94416e-05
4.71552e-05
4.47088e-05
4.2094e-05
3.92983e-05
3.63048e-05
3.30899e-05
2.96192e-05
2.5839e-05
2.16609e-05
1.69241e-05
1.12907e-05
2.63406e-08
9.87979e-11
9.87737e-11
2.63348e-08
1.12892e-05
1.69222e-05
2.16588e-05
2.58368e-05
2.96169e-05
3.30877e-05
3.63026e-05
3.92962e-05
4.2092e-05
4.47069e-05
4.71534e-05
4.944e-05
5.157e-05
5.3541e-05
4.7182e-05
4.80106e-05
4.87896e-05
4.95189e-05
5.01986e-05
5.08294e-05
5.14121e-05
5.19472e-05
5.24356e-05
5.28778e-05
5.32743e-05
5.36257e-05
5.39322e-05
5.41943e-05
5.44123e-05
5.45864e-05
5.47167e-05
5.48036e-05
5.4847e-05
5.4847e-05
5.48036e-05
5.47167e-05
5.45864e-05
5.44123e-05
5.41943e-05
5.39322e-05
5.36257e-05
5.32744e-05
5.28779e-05
5.24357e-05
5.19474e-05
5.14122e-05
5.08296e-05
5.01989e-05
4.95192e-05
4.879e-05
4.8011e-05
4.71824e-05
5.35421e-05
5.15713e-05
4.94416e-05
4.71552e-05
4.47088e-05
4.2094e-05
3.92983e-05
3.63048e-05
3.30899e-05
2.96192e-05
2.5839e-05
2.16609e-05
1.69241e-05
1.12907e-05
2.63406e-08
9.87979e-11
9.87737e-11
2.63348e-08
1.12892e-05
1.69222e-05
2.16588e-05
2.58368e-05
2.96169e-05
3.30877e-05
3.63026e-05
3.92962e-05
4.2092e-05
4.47069e-05
4.71534e-05
4.944e-05
5.157e-05
5.3541e-05
4.7182e-05
4.80106e-05
4.87896e-05
4.95189e-05
5.01986e-05
5.08294e-05
5.14121e-05
5.19472e-05
5.24356e-05
5.28778e-05
5.32743e-05
5.36257e-05
5.39322e-05
5.41943e-05
5.44123e-05
5.45864e-05
5.47167e-05
5.48036e-05
5.4847e-05
5.4847e-05
5.48036e-05
5.47167e-05
5.45864e-05
5.44123e-05
5.41943e-05
5.39322e-05
5.36257e-05
5.32744e-05
5.28779e-05
5.24357e-05
5.19474e-05
5.14122e-05
5.08296e-05
5.01989e-05
4.95192e-05
4.879e-05
4.8011e-05
4.71824e-05
5.35421e-05
5.15713e-05
4.94416e-05
4.71552e-05
4.47088e-05
4.2094e-05
3.92983e-05
3.63048e-05
3.30899e-05
2.96192e-05
2.5839e-05
2.16609e-05
1.69241e-05
1.12907e-05
2.63406e-08
9.87979e-11
9.87737e-11
2.63348e-08
1.12892e-05
1.69222e-05
2.16588e-05
2.58368e-05
2.96169e-05
3.30877e-05
3.63026e-05
3.92962e-05
4.2092e-05
4.47069e-05
4.71534e-05
4.944e-05
5.157e-05
5.3541e-05
4.7182e-05
4.80106e-05
4.87896e-05
4.95189e-05
5.01986e-05
5.08294e-05
5.14121e-05
5.19472e-05
5.24356e-05
5.28778e-05
5.32743e-05
5.36257e-05
5.39322e-05
5.41943e-05
5.44123e-05
5.45864e-05
5.47167e-05
5.48036e-05
5.4847e-05
5.4847e-05
5.48036e-05
5.47167e-05
5.45864e-05
5.44123e-05
5.41943e-05
5.39322e-05
5.36257e-05
5.32744e-05
5.28779e-05
5.24357e-05
5.19474e-05
5.14122e-05
5.08296e-05
5.01989e-05
4.95192e-05
4.879e-05
4.8011e-05
4.71824e-05
5.35421e-05
5.15713e-05
4.94416e-05
4.71552e-05
4.47088e-05
4.2094e-05
3.92983e-05
3.63048e-05
3.30899e-05
2.96192e-05
2.5839e-05
2.16609e-05
1.69241e-05
1.12907e-05
2.63406e-08
9.87979e-11
9.87737e-11
2.63348e-08
1.12892e-05
1.69222e-05
2.16588e-05
2.58368e-05
2.96169e-05
3.30877e-05
3.63026e-05
3.92962e-05
4.2092e-05
4.47069e-05
4.71534e-05
4.944e-05
5.157e-05
5.3541e-05
4.7182e-05
4.80106e-05
4.87896e-05
4.95189e-05
5.01986e-05
5.08294e-05
5.14121e-05
5.19472e-05
5.24356e-05
5.28778e-05
5.32743e-05
5.36257e-05
5.39322e-05
5.41943e-05
5.44123e-05
5.45864e-05
5.47167e-05
5.48036e-05
5.4847e-05
5.4847e-05
5.48036e-05
5.47167e-05
5.45864e-05
5.44123e-05
5.41943e-05
5.39322e-05
5.36257e-05
5.32744e-05
5.28779e-05
5.24357e-05
5.19474e-05
5.14122e-05
5.08296e-05
5.01989e-05
4.95192e-05
4.879e-05
4.8011e-05
4.71824e-05
5.35421e-05
5.15713e-05
4.94416e-05
4.71552e-05
4.47088e-05
4.2094e-05
3.92983e-05
3.63048e-05
3.30899e-05
2.96192e-05
2.5839e-05
2.16609e-05
1.69241e-05
1.12907e-05
2.63406e-08
9.87979e-11
9.87737e-11
2.63348e-08
1.12892e-05
1.69222e-05
2.16588e-05
2.58368e-05
2.96169e-05
3.30877e-05
3.63026e-05
3.92962e-05
4.2092e-05
4.47069e-05
4.71534e-05
4.944e-05
5.157e-05
5.3541e-05
4.7182e-05
4.80106e-05
4.87896e-05
4.95189e-05
5.01986e-05
5.08294e-05
5.14121e-05
5.19472e-05
5.24356e-05
5.28778e-05
5.32743e-05
5.36257e-05