/*--------------------------------*- C++ -*----------------------------------*\
  =========                 |
  \\      /  F ield         | OpenFOAM: The Open Source CFD Toolbox
   \\    /   O peration     | Website:  https://openfoam.org
    \\  /    A nd           | Version:  13
     \\/     M anipulation  |
\*---------------------------------------------------------------------------*/
FoamFile
{
    format      ascii;
    class       volScalarField;
    location    "157.5";
    object      rhok;
}
// * * * * * * * * * * * * * * * * * * * * * * * * * * * * * * * * * * * * * //

dimensions      [];

internalField   nonuniform List<scalar> 
315000
(
0.444629
0.429897
0.415143
0.413732
0.412992
0.412255
0.411521
0.410789
0.410059
0.409331
0.408607
0.407884
0.407165
0.406447
0.405733
0.405021
0.404312
0.403606
0.402902
0.402201
0.401503
0.400808
0.400116
0.399426
0.398739
0.398055
0.397374
0.396696
0.396021
0.395348
0.394678
0.394011
0.393347
0.392686
0.392027
0.391371
0.390718
0.390067
0.38942
0.388774
0.388131
0.387491
0.386853
0.386218
0.385585
0.384954
0.384325
0.383699
0.383074
0.382452
0.381832
0.381213
0.380596
0.379981
0.379368
0.378756
0.378146
0.377537
0.376929
0.376322
0.375717
0.375112
0.374509
0.373906
0.373304
0.372702
0.372101
0.3715
0.3709
0.370299
0.444629
0.429896
0.415141
0.413729
0.41299
0.412253
0.411518
0.410786
0.410056
0.409329
0.408604
0.407881
0.407162
0.406444
0.40573
0.405018
0.404309
0.403603
0.402899
0.402198
0.4015
0.400805
0.400112
0.399423
0.398736
0.398052
0.397371
0.396693
0.396017
0.395345
0.394675
0.394008
0.393344
0.392683
0.392024
0.391368
0.390715
0.390065
0.389417
0.388771
0.388129
0.387488
0.386851
0.386215
0.385582
0.384951
0.384323
0.383696
0.383072
0.38245
0.38183
0.381211
0.380594
0.37998
0.379366
0.378755
0.378144
0.377535
0.376928
0.376321
0.375716
0.375111
0.374508
0.373905
0.373303
0.372701
0.3721
0.3715
0.370899
0.370299
0.444629
0.429895
0.415139
0.413727
0.412987
0.41225
0.411516
0.410783
0.410054
0.409326
0.408601
0.407879
0.407159
0.406442
0.405727
0.405015
0.404306
0.4036
0.402896
0.402195
0.401497
0.400802
0.40011
0.39942
0.398733
0.398049
0.397368
0.39669
0.396015
0.395342
0.394672
0.394006
0.393341
0.39268
0.392022
0.391366
0.390713
0.390062
0.389414
0.388769
0.388126
0.387486
0.386848
0.386213
0.38558
0.384949
0.384321
0.383694
0.38307
0.382448
0.381828
0.381209
0.380593
0.379978
0.379365
0.378753
0.378143
0.377534
0.376927
0.37632
0.375715
0.37511
0.374507
0.373904
0.373302
0.372701
0.3721
0.3715
0.370899
0.370299
0.444629
0.429894
0.415137
0.413725
0.412986
0.412248
0.411514
0.410781
0.410051
0.409324
0.408599
0.407877
0.407157
0.40644
0.405725
0.405013
0.404304
0.403598
0.402894
0.402193
0.401495
0.4008
0.400107
0.399418
0.398731
0.398047
0.397366
0.396688
0.396012
0.39534
0.39467
0.394003
0.393339
0.392678
0.392019
0.391363
0.39071
0.39006
0.389412
0.388767
0.388124
0.387484
0.386846
0.386211
0.385578
0.384947
0.384319
0.383693
0.383069
0.382446
0.381826
0.381208
0.380591
0.379977
0.379364
0.378752
0.378142
0.377533
0.376926
0.376319
0.375714
0.37511
0.374506
0.373904
0.373302
0.372701
0.3721
0.371499
0.370899
0.370299
0.444629
0.429893
0.415135
0.413723
0.412984
0.412247
0.411512
0.41078
0.41005
0.409322
0.408597
0.407875
0.407155
0.406438
0.405723
0.405011
0.404302
0.403596
0.402892
0.402191
0.401493
0.400798
0.400105
0.399416
0.398729
0.398045
0.397364
0.396686
0.39601
0.395338
0.394668
0.394001
0.393337
0.392676
0.392017
0.391362
0.390708
0.390058
0.38941
0.388765
0.388122
0.387482
0.386845
0.386209
0.385576
0.384946
0.384317
0.383691
0.383067
0.382445
0.381825
0.381207
0.38059
0.379976
0.379362
0.378751
0.378141
0.377532
0.376925
0.376319
0.375713
0.375109
0.374506
0.373903
0.373302
0.3727
0.3721
0.371499
0.370899
0.370299
0.444629
0.429893
0.415134
0.413722
0.412982
0.412245
0.41151
0.410778
0.410048
0.409321
0.408596
0.407873
0.407153
0.406436
0.405721
0.40501
0.4043
0.403594
0.40289
0.402189
0.401491
0.400796
0.400103
0.399414
0.398727
0.398043
0.397362
0.396684
0.396009
0.395336
0.394666
0.394
0.393335
0.392674
0.392016
0.39136
0.390707
0.390056
0.389409
0.388764
0.388121
0.387481
0.386843
0.386208
0.385575
0.384945
0.384316
0.38369
0.383066
0.382444
0.381824
0.381206
0.380589
0.379975
0.379362
0.37875
0.37814
0.377531
0.376924
0.376318
0.375713
0.375109
0.374505
0.373903
0.373301
0.3727
0.372099
0.371499
0.370899
0.370299
0.444629
0.429892
0.415133
0.413721
0.412981
0.412244
0.411509
0.410777
0.410047
0.409319
0.408594
0.407872
0.407152
0.406435
0.40572
0.405008
0.404299
0.403593
0.402889
0.402188
0.40149
0.400795
0.400102
0.399412
0.398726
0.398042
0.397361
0.396683
0.396007
0.395335
0.394665
0.393998
0.393334
0.392673
0.392014
0.391359
0.390706
0.390055
0.389407
0.388762
0.38812
0.38748
0.386842
0.386207
0.385574
0.384944
0.384315
0.383689
0.383065
0.382443
0.381823
0.381205
0.380589
0.379974
0.379361
0.378749
0.378139
0.377531
0.376924
0.376317
0.375712
0.375108
0.374505
0.373903
0.373301
0.3727
0.372099
0.371499
0.370899
0.370299
0.444629
0.429892
0.415132
0.41372
0.41298
0.412243
0.411508
0.410776
0.410046
0.409318
0.408593
0.407871
0.407151
0.406434
0.405719
0.405007
0.404298
0.403592
0.402888
0.402187
0.401489
0.400794
0.400101
0.399411
0.398725
0.398041
0.39736
0.396682
0.396006
0.395334
0.394664
0.393997
0.393333
0.392672
0.392013
0.391358
0.390705
0.390054
0.389407
0.388761
0.388119
0.387479
0.386841
0.386206
0.385573
0.384943
0.384314
0.383688
0.383064
0.382442
0.381822
0.381204
0.380588
0.379973
0.37936
0.378749
0.378139
0.37753
0.376923
0.376317
0.375712
0.375108
0.374505
0.373902
0.373301
0.3727
0.372099
0.371499
0.370899
0.370299
0.444629
0.429892
0.415132
0.413719
0.41298
0.412243
0.411508
0.410775
0.410045
0.409318
0.408593
0.40787
0.40715
0.406433
0.405718
0.405007
0.404297
0.403591
0.402887
0.402186
0.401488
0.400793
0.4001
0.399411
0.398724
0.39804
0.397359
0.396681
0.396005
0.395333
0.394663
0.393996
0.393332
0.392671
0.392013
0.391357
0.390704
0.390054
0.389406
0.388761
0.388118
0.387478
0.386841
0.386205
0.385573
0.384942
0.384314
0.383688
0.383064
0.382442
0.381822
0.381204
0.380587
0.379973
0.37936
0.378749
0.378139
0.37753
0.376923
0.376317
0.375712
0.375108
0.374505
0.373902
0.373301
0.3727
0.372099
0.371499
0.370899
0.370299
0.444629
0.429891
0.415131
0.413719
0.412979
0.412242
0.411507
0.410775
0.410045
0.409317
0.408592
0.40787
0.40715
0.406433
0.405718
0.405006
0.404297
0.40359
0.402887
0.402186
0.401488
0.400792
0.4001
0.39941
0.398723
0.39804
0.397358
0.39668
0.396005
0.395332
0.394663
0.393996
0.393332
0.392671
0.392012
0.391356
0.390703
0.390053
0.389405
0.38876
0.388118
0.387478
0.38684
0.386205
0.385572
0.384942
0.384313
0.383687
0.383063
0.382441
0.381822
0.381203
0.380587
0.379973
0.37936
0.378748
0.378138
0.37753
0.376923
0.376317
0.375712
0.375108
0.374504
0.373902
0.373301
0.372699
0.372099
0.371499
0.370899
0.370299
0.444629
0.429891
0.415131
0.413719
0.412979
0.412242
0.411507
0.410775
0.410045
0.409317
0.408592
0.40787
0.40715
0.406432
0.405718
0.405006
0.404297
0.40359
0.402886
0.402185
0.401487
0.400792
0.4001
0.39941
0.398723
0.398039
0.397358
0.39668
0.396005
0.395332
0.394663
0.393996
0.393332
0.39267
0.392012
0.391356
0.390703
0.390053
0.389405
0.38876
0.388117
0.387477
0.38684
0.386205
0.385572
0.384942
0.384313
0.383687
0.383063
0.382441
0.381821
0.381203
0.380587
0.379972
0.379359
0.378748
0.378138
0.37753
0.376922
0.376316
0.375711
0.375107
0.374504
0.373902
0.3733
0.372699
0.372099
0.371499
0.370899
0.370299
0.444629
0.429891
0.415131
0.413719
0.412979
0.412242
0.411507
0.410775
0.410045
0.409317
0.408592
0.407869
0.40715
0.406432
0.405718
0.405006
0.404296
0.40359
0.402886
0.402185
0.401487
0.400792
0.400099
0.39941
0.398723
0.398039
0.397358
0.39668
0.396005
0.395332
0.394662
0.393996
0.393332
0.39267
0.392012
0.391356
0.390703
0.390053
0.389405
0.38876
0.388117
0.387477
0.38684
0.386205
0.385572
0.384941
0.384313
0.383687
0.383063
0.382441
0.381821
0.381203
0.380587
0.379972
0.379359
0.378748
0.378138
0.37753
0.376922
0.376316
0.375711
0.375107
0.374504
0.373902
0.3733
0.372699
0.372099
0.371499
0.370899
0.370299
0.444629
0.429891
0.415131
0.413719
0.412979
0.412242
0.411507
0.410775
0.410045
0.409317
0.408592
0.40787
0.40715
0.406432
0.405718
0.405006
0.404297
0.40359
0.402886
0.402185
0.401487
0.400792
0.400099
0.39941
0.398723
0.398039
0.397358
0.39668
0.396005
0.395332
0.394662
0.393996
0.393332
0.39267
0.392012
0.391356
0.390703
0.390053
0.389405
0.38876
0.388117
0.387477
0.38684
0.386205
0.385572
0.384941
0.384313
0.383687
0.383063
0.382441
0.381821
0.381203
0.380587
0.379972
0.379359
0.378748
0.378138
0.37753
0.376922
0.376316
0.375711
0.375107
0.374504
0.373902
0.3733
0.372699
0.372099
0.371499
0.370899
0.370299
0.444629
0.429891
0.415131
0.413719
0.412979
0.412242
0.411507
0.410775
0.410045
0.409317
0.408592
0.40787
0.40715
0.406432
0.405718
0.405006
0.404297
0.40359
0.402886
0.402186
0.401487
0.400792
0.4001
0.39941
0.398723
0.398039
0.397358
0.39668
0.396005
0.395332
0.394663
0.393996
0.393332
0.39267
0.392012
0.391356
0.390703
0.390053
0.389405
0.38876
0.388117
0.387477
0.38684
0.386205
0.385572
0.384941
0.384313
0.383687
0.383063
0.382441
0.381821
0.381203
0.380587
0.379972
0.379359
0.378748
0.378138
0.37753
0.376922
0.376316
0.375711
0.375107
0.374504
0.373902
0.3733
0.372699
0.372099
0.371499
0.370899
0.370299
0.444629
0.429891
0.415131
0.413719
0.41298
0.412242
0.411508
0.410775
0.410045
0.409317
0.408592
0.40787
0.40715
0.406433
0.405718
0.405006
0.404297
0.40359
0.402887
0.402186
0.401488
0.400792
0.4001
0.39941
0.398723
0.39804
0.397358
0.39668
0.396005
0.395332
0.394663
0.393996
0.393332
0.392671
0.392012
0.391356
0.390703
0.390053
0.389405
0.38876
0.388118
0.387478
0.38684
0.386205
0.385572
0.384942
0.384313
0.383687
0.383063
0.382441
0.381821
0.381203
0.380587
0.379972
0.37936
0.378748
0.378138
0.37753
0.376922
0.376316
0.375711
0.375107
0.374504
0.373902
0.3733
0.372699
0.372099
0.371499
0.370899
0.370299
0.444629
0.429892
0.415132
0.413719
0.41298
0.412243
0.411508
0.410775
0.410045
0.409318
0.408593
0.40787
0.40715
0.406433
0.405718
0.405006
0.404297
0.403591
0.402887
0.402186
0.401488
0.400793
0.4001
0.399411
0.398724
0.39804
0.397359
0.396681
0.396005
0.395333
0.394663
0.393996
0.393332
0.392671
0.392012
0.391357
0.390704
0.390053
0.389406
0.38876
0.388118
0.387478
0.38684
0.386205
0.385572
0.384942
0.384314
0.383687
0.383063
0.382442
0.381822
0.381203
0.380587
0.379973
0.37936
0.378748
0.378138
0.37753
0.376923
0.376317
0.375712
0.375108
0.374504
0.373902
0.373301
0.372699
0.372099
0.371499
0.370899
0.370299
0.444629
0.429892
0.415132
0.41372
0.41298
0.412243
0.411508
0.410776
0.410046
0.409318
0.408593
0.407871
0.407151
0.406433
0.405719
0.405007
0.404298
0.403591
0.402887
0.402186
0.401488
0.400793
0.400101
0.399411
0.398724
0.39804
0.397359
0.396681
0.396006
0.395333
0.394663
0.393997
0.393332
0.392671
0.392013
0.391357
0.390704
0.390054
0.389406
0.388761
0.388118
0.387478
0.386841
0.386205
0.385573
0.384942
0.384314
0.383688
0.383064
0.382442
0.381822
0.381204
0.380587
0.379973
0.37936
0.378748
0.378139
0.37753
0.376923
0.376317
0.375712
0.375108
0.374505
0.373902
0.373301
0.3727
0.372099
0.371499
0.370899
0.370299
0.444629
0.429892
0.415132
0.41372
0.412981
0.412243
0.411509
0.410776
0.410046
0.409319
0.408593
0.407871
0.407151
0.406434
0.405719
0.405007
0.404298
0.403592
0.402888
0.402187
0.401489
0.400793
0.400101
0.399411
0.398725
0.398041
0.39736
0.396681
0.396006
0.395334
0.394664
0.393997
0.393333
0.392672
0.392013
0.391357
0.390704
0.390054
0.389406
0.388761
0.388119
0.387478
0.386841
0.386206
0.385573
0.384942
0.384314
0.383688
0.383064
0.382442
0.381822
0.381204
0.380588
0.379973
0.37936
0.378749
0.378139
0.37753
0.376923
0.376317
0.375712
0.375108
0.374505
0.373902
0.373301
0.3727
0.372099
0.371499
0.370899
0.370299
0.444629
0.429892
0.415133
0.413721
0.412981
0.412244
0.411509
0.410777
0.410047
0.409319
0.408594
0.407872
0.407152
0.406434
0.40572
0.405008
0.404299
0.403592
0.402888
0.402187
0.401489
0.400794
0.400102
0.399412
0.398725
0.398041
0.39736
0.396682
0.396007
0.395334
0.394664
0.393997
0.393333
0.392672
0.392014
0.391358
0.390705
0.390054
0.389407
0.388762
0.388119
0.387479
0.386841
0.386206
0.385573
0.384943
0.384314
0.383688
0.383064
0.382442
0.381822
0.381204
0.380588
0.379973
0.37936
0.378749
0.378139
0.37753
0.376923
0.376317
0.375712
0.375108
0.374505
0.373902
0.373301
0.3727
0.372099
0.371499
0.370899
0.370299
0.444629
0.429892
0.415133
0.413721
0.412982
0.412244
0.41151
0.410777
0.410047
0.40932
0.408595
0.407872
0.407152
0.406435
0.40572
0.405008
0.404299
0.403593
0.402889
0.402188
0.40149
0.400795
0.400102
0.399412
0.398726
0.398042
0.397361
0.396682
0.396007
0.395335
0.394665
0.393998
0.393334
0.392673
0.392014
0.391358
0.390705
0.390055
0.389407
0.388762
0.388119
0.387479
0.386842
0.386207
0.385574
0.384943
0.384315
0.383689
0.383065
0.382443
0.381823
0.381204
0.380588
0.379974
0.379361
0.378749
0.378139
0.377531
0.376923
0.376317
0.375712
0.375108
0.374505
0.373903
0.373301
0.3727
0.372099
0.371499
0.370899
0.370299
0.444629
0.429893
0.415134
0.413722
0.412982
0.412245
0.41151
0.410778
0.410048
0.40932
0.408595
0.407873
0.407153
0.406436
0.405721
0.405009
0.4043
0.403593
0.40289
0.402189
0.401491
0.400795
0.400103
0.399413
0.398726
0.398042
0.397361
0.396683
0.396008
0.395335
0.394665
0.393999
0.393335
0.392673
0.392015
0.391359
0.390706
0.390055
0.389408
0.388763
0.38812
0.38748
0.386842
0.386207
0.385574
0.384944
0.384315
0.383689
0.383065
0.382443
0.381823
0.381205
0.380588
0.379974
0.379361
0.378749
0.378139
0.377531
0.376923
0.376317
0.375712
0.375108
0.374505
0.373903
0.373301
0.3727
0.372099
0.371499
0.370899
0.370299
0.444629
0.429893
0.415134
0.413722
0.412983
0.412246
0.411511
0.410778
0.410048
0.409321
0.408596
0.407873
0.407153
0.406436
0.405722
0.40501
0.4043
0.403594
0.40289
0.402189
0.401491
0.400796
0.400103
0.399414
0.398727
0.398043
0.397362
0.396684
0.396008
0.395336
0.394666
0.393999
0.393335
0.392674
0.392015
0.39136
0.390706
0.390056
0.389408
0.388763
0.38812
0.38748
0.386843
0.386207
0.385575
0.384944
0.384316
0.38369
0.383065
0.382443
0.381823
0.381205
0.380589
0.379974
0.379361
0.37875
0.37814
0.377531
0.376924
0.376318
0.375712
0.375108
0.374505
0.373903
0.373301
0.3727
0.372099
0.371499
0.370899
0.370299
0.444629
0.429893
0.415135
0.413723
0.412983
0.412246
0.411511
0.410779
0.410049
0.409321
0.408596
0.407874
0.407154
0.406437
0.405722
0.40501
0.404301
0.403595
0.402891
0.40219
0.401492
0.400797
0.400104
0.399414
0.398728
0.398044
0.397363
0.396684
0.396009
0.395336
0.394667
0.394
0.393336
0.392674
0.392016
0.39136
0.390707
0.390057
0.389409
0.388764
0.388121
0.387481
0.386843
0.386208
0.385575
0.384944
0.384316
0.38369
0.383066
0.382444
0.381824
0.381206
0.380589
0.379974
0.379361
0.37875
0.37814
0.377531
0.376924
0.376318
0.375713
0.375109
0.374505
0.373903
0.373301
0.3727
0.372099
0.371499
0.370899
0.370299
0.444629
0.429893
0.415136
0.413723
0.412984
0.412247
0.411512
0.41078
0.41005
0.409322
0.408597
0.407875
0.407155
0.406438
0.405723
0.405011
0.404302
0.403595
0.402892
0.402191
0.401493
0.400797
0.400105
0.399415
0.398728
0.398044
0.397363
0.396685
0.39601
0.395337
0.394667
0.394
0.393336
0.392675
0.392016
0.391361
0.390708
0.390057
0.389409
0.388764
0.388121
0.387481
0.386844
0.386208
0.385576
0.384945
0.384317
0.38369
0.383066
0.382444
0.381824
0.381206
0.380589
0.379975
0.379362
0.37875
0.37814
0.377532
0.376924
0.376318
0.375713
0.375109
0.374505
0.373903
0.373301
0.3727
0.372099
0.371499
0.370899
0.370299
0.444629
0.429894
0.415136
0.413724
0.412985
0.412247
0.411513
0.41078
0.41005
0.409323
0.408598
0.407875
0.407155
0.406438
0.405724
0.405012
0.404303
0.403596
0.402892
0.402191
0.401493
0.400798
0.400105
0.399416
0.398729
0.398045
0.397364
0.396686
0.39601
0.395338
0.394668
0.394001
0.393337
0.392676
0.392017
0.391361
0.390708
0.390058
0.38941
0.388765
0.388122
0.387482
0.386844
0.386209
0.385576
0.384945
0.384317
0.383691
0.383067
0.382445
0.381824
0.381206
0.38059
0.379975
0.379362
0.37875
0.37814
0.377532
0.376924
0.376318
0.375713
0.375109
0.374506
0.373903
0.373301
0.3727
0.372099
0.371499
0.370899
0.370299
0.444629
0.429894
0.415137
0.413724
0.412985
0.412248
0.411513
0.410781
0.410051
0.409323
0.408598
0.407876
0.407156
0.406439
0.405724
0.405012
0.404303
0.403597
0.402893
0.402192
0.401494
0.400799
0.400106
0.399416
0.39873
0.398046
0.397365
0.396686
0.396011
0.395338
0.394669
0.394002
0.393338
0.392676
0.392018
0.391362
0.390709
0.390058
0.38941
0.388765
0.388122
0.387482
0.386845
0.386209
0.385576
0.384946
0.384317
0.383691
0.383067
0.382445
0.381825
0.381207
0.38059
0.379975
0.379362
0.378751
0.378141
0.377532
0.376925
0.376318
0.375713
0.375109
0.374506
0.373903
0.373301
0.3727
0.372099
0.371499
0.370899
0.370299
0.444629
0.429894
0.415137
0.413725
0.412986
0.412248
0.411514
0.410781
0.410051
0.409324
0.408599
0.407877
0.407157
0.406439
0.405725
0.405013
0.404304
0.403597
0.402894
0.402193
0.401494
0.400799
0.400107
0.399417
0.39873
0.398046
0.397365
0.396687
0.396011
0.395339
0.394669
0.394002
0.393338
0.392677
0.392018
0.391362
0.390709
0.390059
0.389411
0.388766
0.388123
0.387483
0.386845
0.38621
0.385577
0.384946
0.384318
0.383691
0.383067
0.382445
0.381825
0.381207
0.38059
0.379976
0.379363
0.378751
0.378141
0.377532
0.376925
0.376318
0.375713
0.375109
0.374506
0.373903
0.373302
0.3727
0.3721
0.371499
0.370899
0.370299
0.444629
0.429895
0.415138
0.413725
0.412986
0.412249
0.411514
0.410782
0.410052
0.409324
0.408599
0.407877
0.407157
0.40644
0.405725
0.405013
0.404304
0.403598
0.402894
0.402193
0.401495
0.4008
0.400107
0.399418
0.398731
0.398047
0.397366
0.396687
0.396012
0.395339
0.39467
0.394003
0.393339
0.392677
0.392019
0.391363
0.39071
0.390059
0.389411
0.388766
0.388123
0.387483
0.386845
0.38621
0.385577
0.384947
0.384318
0.383692
0.383068
0.382446
0.381825
0.381207
0.380591
0.379976
0.379363
0.378751
0.378141
0.377532
0.376925
0.376319
0.375713
0.375109
0.374506
0.373903
0.373302
0.3727
0.3721
0.371499
0.370899
0.370299
0.444629
0.429895
0.415138
0.413726
0.412987
0.412249
0.411515
0.410782
0.410052
0.409325
0.4086
0.407878
0.407158
0.40644
0.405726
0.405014
0.404305
0.403598
0.402895
0.402194
0.401496
0.4008
0.400108
0.399418
0.398731
0.398047
0.397366
0.396688
0.396012
0.39534
0.39467
0.394003
0.393339
0.392678
0.392019
0.391363
0.39071
0.39006
0.389412
0.388766
0.388124
0.387484
0.386846
0.38621
0.385578
0.384947
0.384318
0.383692
0.383068
0.382446
0.381826
0.381207
0.380591
0.379976
0.379363
0.378751
0.378141
0.377533
0.376925
0.376319
0.375714
0.375109
0.374506
0.373904
0.373302
0.3727
0.3721
0.371499
0.370899
0.370299
0.444629
0.429895
0.415138
0.413726
0.412987
0.41225
0.411515
0.410783
0.410053
0.409325
0.4086
0.407878
0.407158
0.406441
0.405726
0.405014
0.404305
0.403599
0.402895
0.402194
0.401496
0.400801
0.400108
0.399419
0.398732
0.398048
0.397367
0.396688
0.396013
0.39534
0.394671
0.394004
0.393339
0.392678
0.392019
0.391364
0.39071
0.39006
0.389412
0.388767
0.388124
0.387484
0.386846
0.386211
0.385578
0.384947
0.384319
0.383692
0.383068
0.382446
0.381826
0.381208
0.380591
0.379976
0.379363
0.378752
0.378141
0.377533
0.376925
0.376319
0.375714
0.37511
0.374506
0.373904
0.373302
0.372701
0.3721
0.371499
0.370899
0.370299
0.444629
0.429895
0.415139
0.413727
0.412987
0.41225
0.411515
0.410783
0.410053
0.409326
0.408601
0.407878
0.407159
0.406441
0.405727
0.405015
0.404306
0.403599
0.402895
0.402195
0.401496
0.400801
0.400109
0.399419
0.398732
0.398048
0.397367
0.396689
0.396013
0.395341
0.394671
0.394004
0.39334
0.392678
0.39202
0.391364
0.390711
0.39006
0.389412
0.388767
0.388124
0.387484
0.386846
0.386211
0.385578
0.384947
0.384319
0.383693
0.383068
0.382446
0.381826
0.381208
0.380591
0.379976
0.379363
0.378752
0.378142
0.377533
0.376925
0.376319
0.375714
0.37511
0.374506
0.373904
0.373302
0.372701
0.3721
0.371499
0.370899
0.370299
0.444629
0.429895
0.415139
0.413727
0.412988
0.41225
0.411516
0.410783
0.410054
0.409326
0.408601
0.407879
0.407159
0.406442
0.405727
0.405015
0.404306
0.4036
0.402896
0.402195
0.401497
0.400801
0.400109
0.399419
0.398732
0.398048
0.397367
0.396689
0.396014
0.395341
0.394671
0.394004
0.39334
0.392679
0.39202
0.391364
0.390711
0.390061
0.389413
0.388767
0.388125
0.387484
0.386847
0.386211
0.385578
0.384948
0.384319
0.383693
0.383069
0.382446
0.381826
0.381208
0.380591
0.379977
0.379363
0.378752
0.378142
0.377533
0.376925
0.376319
0.375714
0.37511
0.374506
0.373904
0.373302
0.372701
0.3721
0.371499
0.370899
0.370299
0.444629
0.429895
0.415139
0.413727
0.412988
0.412251
0.411516
0.410784
0.410054
0.409326
0.408601
0.407879
0.407159
0.406442
0.405727
0.405015
0.404306
0.4036
0.402896
0.402195
0.401497
0.400802
0.400109
0.39942
0.398733
0.398049
0.397368
0.396689
0.396014
0.395341
0.394671
0.394005
0.39334
0.392679
0.39202
0.391364
0.390711
0.390061
0.389413
0.388768
0.388125
0.387485
0.386847
0.386212
0.385579
0.384948
0.384319
0.383693
0.383069
0.382447
0.381826
0.381208
0.380592
0.379977
0.379364
0.378752
0.378142
0.377533
0.376926
0.376319
0.375714
0.37511
0.374506
0.373904
0.373302
0.372701
0.3721
0.371499
0.370899
0.370299
0.444629
0.429895
0.415139
0.413727
0.412988
0.412251
0.411516
0.410784
0.410054
0.409327
0.408602
0.407879
0.407159
0.406442
0.405728
0.405016
0.404306
0.4036
0.402896
0.402195
0.401497
0.400802
0.400109
0.39942
0.398733
0.398049
0.397368
0.39669
0.396014
0.395341
0.394672
0.394005
0.393341
0.392679
0.392021
0.391365
0.390711
0.390061
0.389413
0.388768
0.388125
0.387485
0.386847
0.386212
0.385579
0.384948
0.384319
0.383693
0.383069
0.382447
0.381827
0.381208
0.380592
0.379977
0.379364
0.378752
0.378142
0.377533
0.376926
0.376319
0.375714
0.37511
0.374506
0.373904
0.373302
0.372701
0.3721
0.371499
0.370899
0.370299
0.444629
0.429896
0.41514
0.413728
0.412988
0.412251
0.411516
0.410784
0.410054
0.409327
0.408602
0.407879
0.40716
0.406442
0.405728
0.405016
0.404307
0.4036
0.402897
0.402196
0.401497
0.400802
0.40011
0.39942
0.398733
0.398049
0.397368
0.39669
0.396014
0.395342
0.394672
0.394005
0.393341
0.392679
0.392021
0.391365
0.390712
0.390061
0.389413
0.388768
0.388125
0.387485
0.386847
0.386212
0.385579
0.384948
0.38432
0.383693
0.383069
0.382447
0.381827
0.381208
0.380592
0.379977
0.379364
0.378752
0.378142
0.377533
0.376926
0.376319
0.375714
0.37511
0.374506
0.373904
0.373302
0.372701
0.3721
0.371499
0.370899
0.370299
0.444629
0.429896
0.41514
0.413728
0.412988
0.412251
0.411517
0.410784
0.410054
0.409327
0.408602
0.40788
0.40716
0.406442
0.405728
0.405016
0.404307
0.4036
0.402897
0.402196
0.401498
0.400802
0.40011
0.39942
0.398733
0.398049
0.397368
0.39669
0.396014
0.395342
0.394672
0.394005
0.393341
0.392679
0.392021
0.391365
0.390712
0.390061
0.389413
0.388768
0.388125
0.387485
0.386847
0.386212
0.385579
0.384948
0.38432
0.383693
0.383069
0.382447
0.381827
0.381208
0.380592
0.379977
0.379364
0.378752
0.378142
0.377533
0.376926
0.376319
0.375714
0.37511
0.374507
0.373904
0.373302
0.372701
0.3721
0.371499
0.370899
0.370299
0.444629
0.429896
0.41514
0.413728
0.412988
0.412251
0.411517
0.410784
0.410054
0.409327
0.408602
0.40788
0.40716
0.406443
0.405728
0.405016
0.404307
0.4036
0.402897
0.402196
0.401498
0.400802
0.40011
0.39942
0.398733
0.398049
0.397368
0.39669
0.396015
0.395342
0.394672
0.394005
0.393341
0.39268
0.392021
0.391365
0.390712
0.390061
0.389413
0.388768
0.388125
0.387485
0.386847
0.386212
0.385579
0.384948
0.38432
0.383693
0.383069
0.382447
0.381827
0.381208
0.380592
0.379977
0.379364
0.378752
0.378142
0.377533
0.376926
0.376319
0.375714
0.37511
0.374507
0.373904
0.373302
0.372701
0.3721
0.371499
0.370899
0.370299
0.444629
0.429896
0.41514
0.413728
0.412988
0.412251
0.411517
0.410784
0.410054
0.409327
0.408602
0.40788
0.40716
0.406443
0.405728
0.405016
0.404307
0.403601
0.402897
0.402196
0.401498
0.400802
0.40011
0.39942
0.398733
0.398049
0.397368
0.39669
0.396015
0.395342
0.394672
0.394005
0.393341
0.39268
0.392021
0.391365
0.390712
0.390061
0.389413
0.388768
0.388125
0.387485
0.386847
0.386212
0.385579
0.384948
0.38432
0.383694
0.383069
0.382447
0.381827
0.381209
0.380592
0.379977
0.379364
0.378752
0.378142
0.377533
0.376926
0.376319
0.375714
0.37511
0.374507
0.373904
0.373302
0.372701
0.3721
0.371499
0.370899
0.370299
0.444629
0.429896
0.41514
0.413728
0.412989
0.412251
0.411517
0.410784
0.410055
0.409327
0.408602
0.40788
0.40716
0.406443
0.405728
0.405016
0.404307
0.403601
0.402897
0.402196
0.401498
0.400803
0.40011
0.39942
0.398734
0.39805
0.397368
0.39669
0.396015
0.395342
0.394672
0.394005
0.393341
0.39268
0.392021
0.391365
0.390712
0.390061
0.389414
0.388768
0.388125
0.387485
0.386847
0.386212
0.385579
0.384948
0.38432
0.383694
0.383069
0.382447
0.381827
0.381209
0.380592
0.379977
0.379364
0.378752
0.378142
0.377533
0.376926
0.376319
0.375714
0.37511
0.374507
0.373904
0.373302
0.372701
0.3721
0.371499
0.370899
0.370299
0.444629
0.429896
0.41514
0.413728
0.412989
0.412252
0.411517
0.410784
0.410055
0.409327
0.408602
0.40788
0.40716
0.406443
0.405728
0.405016
0.404307
0.403601
0.402897
0.402196
0.401498
0.400803
0.40011
0.39942
0.398734
0.39805
0.397368
0.39669
0.396015
0.395342
0.394672
0.394005
0.393341
0.39268
0.392021
0.391365
0.390712
0.390061
0.389414
0.388768
0.388126
0.387485
0.386847
0.386212
0.385579
0.384948
0.38432
0.383694
0.383069
0.382447
0.381827
0.381209
0.380592
0.379977
0.379364
0.378752
0.378142
0.377533
0.376926
0.376319
0.375714
0.37511
0.374507
0.373904
0.373302
0.372701
0.3721
0.371499
0.370899
0.370299
0.444629
0.429896
0.41514
0.413728
0.412989
0.412252
0.411517
0.410785
0.410055
0.409327
0.408602
0.40788
0.40716
0.406443
0.405728
0.405016
0.404307
0.403601
0.402897
0.402196
0.401498
0.400803
0.40011
0.39942
0.398734
0.39805
0.397368
0.39669
0.396015
0.395342
0.394672
0.394005
0.393341
0.39268
0.392021
0.391365
0.390712
0.390061
0.389414
0.388768
0.388126
0.387485
0.386848
0.386212
0.385579
0.384948
0.38432
0.383694
0.383069
0.382447
0.381827
0.381209
0.380592
0.379977
0.379364
0.378752
0.378142
0.377533
0.376926
0.37632
0.375714
0.37511
0.374507
0.373904
0.373302
0.372701
0.3721
0.371499
0.370899
0.370299
0.444629
0.429896
0.41514
0.413728
0.412989
0.412252
0.411517
0.410785
0.410055
0.409327
0.408602
0.40788
0.40716
0.406443
0.405728
0.405016
0.404307
0.403601
0.402897
0.402196
0.401498
0.400803
0.40011
0.39942
0.398734
0.39805
0.397368
0.39669
0.396015
0.395342
0.394672
0.394005
0.393341
0.39268
0.392021
0.391365
0.390712
0.390062
0.389414
0.388768
0.388126
0.387485
0.386848
0.386212
0.385579
0.384948
0.38432
0.383694
0.383069
0.382447
0.381827
0.381209
0.380592
0.379977
0.379364
0.378752
0.378142
0.377533
0.376926
0.37632
0.375714
0.37511
0.374507
0.373904
0.373302
0.372701
0.3721
0.371499
0.370899
0.370299
0.444629
0.429896
0.41514
0.413728
0.412989
0.412252
0.411517
0.410785
0.410055
0.409327
0.408602
0.40788
0.40716
0.406443
0.405728
0.405016
0.404307
0.403601
0.402897
0.402196
0.401498
0.400803
0.40011
0.39942
0.398734
0.39805
0.397368
0.39669
0.396015
0.395342
0.394672
0.394005
0.393341
0.39268
0.392021
0.391365
0.390712
0.390062
0.389414
0.388768
0.388126
0.387485
0.386848
0.386212
0.385579
0.384948
0.38432
0.383694
0.383069
0.382447
0.381827
0.381209
0.380592
0.379977
0.379364
0.378752
0.378142
0.377533
0.376926
0.37632
0.375714
0.37511
0.374507
0.373904
0.373302
0.372701
0.3721
0.371499
0.370899
0.370299
0.444629
0.429896
0.41514
0.413728
0.412989
0.412252
0.411517
0.410785
0.410055
0.409327
0.408602
0.40788
0.40716
0.406443
0.405728
0.405016
0.404307
0.403601
0.402897
0.402196
0.401498
0.400803
0.40011
0.39942
0.398734
0.39805
0.397368
0.39669
0.396015
0.395342
0.394672
0.394005
0.393341
0.39268
0.392021
0.391365
0.390712
0.390062
0.389414
0.388768
0.388126
0.387485
0.386848
0.386212
0.385579
0.384948
0.38432
0.383694
0.383069
0.382447
0.381827
0.381209
0.380592
0.379977
0.379364
0.378752
0.378142
0.377533
0.376926
0.37632
0.375714
0.37511
0.374507
0.373904
0.373302
0.372701
0.3721
0.371499
0.370899
0.370299
0.444629
0.429896
0.41514
0.413728
0.412989
0.412252
0.411517
0.410785
0.410055
0.409327
0.408602
0.40788
0.40716
0.406443
0.405728
0.405016
0.404307
0.403601
0.402897
0.402196
0.401498
0.400803
0.40011
0.39942
0.398734
0.39805
0.397368
0.39669
0.396015
0.395342
0.394672
0.394005
0.393341
0.39268
0.392021
0.391365
0.390712
0.390062
0.389414
0.388768
0.388126
0.387485
0.386848
0.386212
0.385579
0.384948
0.38432
0.383694
0.383069
0.382447
0.381827
0.381209
0.380592
0.379977
0.379364
0.378752
0.378142
0.377533
0.376926
0.37632
0.375714
0.37511
0.374507
0.373904
0.373302
0.372701
0.3721
0.371499
0.370899
0.370299
0.444629
0.429896
0.41514
0.413728
0.412989
0.412252
0.411517
0.410785
0.410055
0.409327
0.408602
0.40788
0.40716
0.406443
0.405728
0.405016
0.404307
0.403601
0.402897
0.402196
0.401498
0.400803
0.40011
0.39942
0.398734
0.39805
0.397368
0.39669
0.396015
0.395342
0.394672
0.394005
0.393341
0.39268
0.392021
0.391365
0.390712
0.390062
0.389414
0.388768
0.388126
0.387485
0.386848
0.386212
0.385579
0.384948
0.38432
0.383694
0.383069
0.382447
0.381827
0.381209
0.380592
0.379977
0.379364
0.378752
0.378142
0.377533
0.376926
0.37632
0.375714
0.37511
0.374507
0.373904
0.373302
0.372701
0.3721
0.371499
0.370899
0.370299
0.444629
0.429896
0.41514
0.413728
0.412989
0.412252
0.411517
0.410785
0.410055
0.409327
0.408602
0.40788
0.40716
0.406443
0.405728
0.405016
0.404307
0.403601
0.402897
0.402196
0.401498
0.400803
0.40011
0.39942
0.398734
0.39805
0.397368
0.39669
0.396015
0.395342
0.394672
0.394005
0.393341
0.39268
0.392021
0.391365
0.390712
0.390062
0.389414
0.388768
0.388126
0.387485
0.386848
0.386212
0.385579
0.384948
0.38432
0.383694
0.383069
0.382447
0.381827
0.381209
0.380592
0.379977
0.379364
0.378752
0.378142
0.377533
0.376926
0.37632
0.375714
0.37511
0.374507
0.373904
0.373302
0.372701
0.3721
0.371499
0.370899
0.370299
0.444629
0.429896
0.41514
0.413728
0.412989
0.412252
0.411517
0.410785
0.410055
0.409327
0.408602
0.40788
0.40716
0.406443
0.405728
0.405016
0.404307
0.403601
0.402897
0.402196
0.401498
0.400803
0.40011
0.39942