/*--------------------------------*- C++ -*----------------------------------*\
  =========                 |
  \\      /  F ield         | OpenFOAM: The Open Source CFD Toolbox
   \\    /   O peration     | Website:  https://openfoam.org
    \\  /    A nd           | Version:  13
     \\/     M anipulation  |
\*---------------------------------------------------------------------------*/
FoamFile
{
    format      ascii;
    class       volScalarField;
    location    "37.5";
    object      rhok;
}
// * * * * * * * * * * * * * * * * * * * * * * * * * * * * * * * * * * * * * //

dimensions      [];

internalField   nonuniform List<scalar> 
315000
(
0.444287
0.415957
0.413262
0.411863
0.41048
0.409116
0.40777
0.406442
0.405135
0.403849
0.402583
0.40134
0.400119
0.398921
0.397748
0.396598
0.395474
0.394376
0.393303
0.392257
0.391238
0.390247
0.389283
0.388347
0.387439
0.386559
0.385708
0.384886
0.384091
0.383326
0.382588
0.381879
0.381197
0.380543
0.379917
0.379317
0.378744
0.378196
0.377674
0.377177
0.376704
0.376254
0.375828
0.375423
0.37504
0.374678
0.374335
0.374012
0.373707
0.373419
0.373148
0.372893
0.372653
0.372427
0.372214
0.372014
0.371825
0.371647
0.371479
0.37132
0.371169
0.371026
0.37089
0.370759
0.370634
0.370513
0.370395
0.37028
0.370167
0.370056
0.444287
0.415954
0.413259
0.411859
0.410476
0.409111
0.407764
0.406437
0.405129
0.403842
0.402575
0.401331
0.40011
0.398911
0.397737
0.396586
0.395461
0.394362
0.393288
0.392242
0.391222
0.390229
0.389265
0.388328
0.387419
0.386539
0.385688
0.384864
0.38407
0.383304
0.382566
0.381856
0.381175
0.380521
0.379894
0.379295
0.378722
0.378174
0.377653
0.377156
0.376683
0.376234
0.375808
0.375404
0.375022
0.37466
0.374318
0.373995
0.373691
0.373404
0.373134
0.372879
0.37264
0.372415
0.372203
0.372003
0.371815
0.371638
0.371471
0.371312
0.371163
0.37102
0.370885
0.370755
0.37063
0.37051
0.370393
0.370279
0.370166
0.370055
0.444287
0.415967
0.413272
0.411873
0.41049
0.409125
0.407779
0.406451
0.405142
0.403854
0.402588
0.401343
0.40012
0.398921
0.397745
0.396594
0.395467
0.394367
0.393292
0.392244
0.391223
0.390229
0.389263
0.388325
0.387415
0.386534
0.385681
0.384857
0.384061
0.383294
0.382556
0.381846
0.381164
0.380509
0.379882
0.379282
0.378709
0.378161
0.377639
0.377142
0.37667
0.376221
0.375795
0.375391
0.375009
0.374648
0.374306
0.373984
0.37368
0.373393
0.373124
0.37287
0.372631
0.372406
0.372194
0.371995
0.371808
0.371631
0.371464
0.371307
0.371158
0.371016
0.370881
0.370751
0.370627
0.370507
0.370391
0.370277
0.370165
0.370055
0.444288
0.415992
0.4133
0.411901
0.410519
0.409154
0.407808
0.40648
0.405171
0.403883
0.402615
0.40137
0.400146
0.398945
0.397768
0.396616
0.395488
0.394386
0.39331
0.39226
0.391237
0.390242
0.389274
0.388334
0.387423
0.38654
0.385686
0.38486
0.384063
0.383295
0.382555
0.381844
0.381161
0.380506
0.379878
0.379277
0.378703
0.378155
0.377633
0.377135
0.376662
0.376213
0.375787
0.375383
0.375001
0.37464
0.374298
0.373976
0.373672
0.373386
0.373116
0.372863
0.372624
0.3724
0.372188
0.37199
0.371803
0.371626
0.37146
0.371303
0.371154
0.371012
0.370878
0.370749
0.370625
0.370506
0.37039
0.370276
0.370165
0.370055
0.444289
0.416025
0.413334
0.411937
0.410556
0.409191
0.407845
0.406517
0.405208
0.40392
0.402652
0.401405
0.40018
0.398979
0.397801
0.396647
0.395517
0.394413
0.393336
0.392284
0.391259
0.390262
0.389293
0.388351
0.387438
0.386554
0.385698
0.384871
0.384072
0.383302
0.382561
0.381849
0.381164
0.380508
0.379879
0.379277
0.378702
0.378154
0.377631
0.377133
0.376659
0.37621
0.375783
0.375379
0.374997
0.374635
0.374294
0.373972
0.373668
0.373382
0.373112
0.372858
0.37262
0.372396
0.372185
0.371986
0.371799
0.371623
0.371457
0.3713
0.371151
0.37101
0.370876
0.370747
0.370624
0.370504
0.370389
0.370276
0.370165
0.370055
0.44429
0.416057
0.413369
0.411972
0.410592
0.409228
0.407882
0.406554
0.405246
0.403957
0.402688
0.401441
0.400215
0.399013
0.397833
0.396678
0.395548
0.394442
0.393363
0.39231
0.391284
0.390285
0.389314
0.38837
0.387456
0.38657
0.385712
0.384883
0.384083
0.383312
0.38257
0.381856
0.38117
0.380513
0.379883
0.37928
0.378705
0.378155
0.377632
0.377133
0.376659
0.376209
0.375782
0.375378
0.374995
0.374633
0.374292
0.373969
0.373665
0.373379
0.37311
0.372856
0.372617
0.372393
0.372182
0.371984
0.371797
0.371621
0.371455
0.371298
0.37115
0.371009
0.370874
0.370746
0.370623
0.370504
0.370388
0.370275
0.370164
0.370055
0.44429
0.416083
0.413397
0.412001
0.410621
0.409258
0.407913
0.406585
0.405276
0.403987
0.402718
0.401471
0.400245
0.399041
0.397861
0.396705
0.395573
0.394467
0.393386
0.392332
0.391304
0.390304
0.389332
0.388387
0.387471
0.386584
0.385725
0.384895
0.384094
0.383322
0.382578
0.381863
0.381177
0.380518
0.379888
0.379284
0.378708
0.378158
0.377633
0.377134
0.37666
0.37621
0.375782
0.375378
0.374995
0.374633
0.374291
0.373968
0.373664
0.373378
0.373108
0.372855
0.372616
0.372392
0.372181
0.371982
0.371796
0.37162
0.371454
0.371297
0.371149
0.371008
0.370874
0.370745
0.370622
0.370503
0.370388
0.370275
0.370164
0.370054
0.444291
0.416101
0.413417
0.412022
0.410642
0.40928
0.407934
0.406607
0.405298
0.404009
0.40274
0.401492
0.400266
0.399062
0.397881
0.396724
0.395592
0.394485
0.393403
0.392348
0.39132
0.390319
0.389345
0.3884
0.387483
0.386594
0.385735
0.384904
0.384102
0.383329
0.382585
0.381869
0.381182
0.380523
0.379891
0.379287
0.37871
0.37816
0.377635
0.377136
0.376661
0.37621
0.375783
0.375378
0.374995
0.374632
0.37429
0.373968
0.373664
0.373377
0.373108
0.372854
0.372615
0.372391
0.37218
0.371982
0.371795
0.371619
0.371453
0.371297
0.371148
0.371007
0.370873
0.370745
0.370622
0.370503
0.370387
0.370275
0.370164
0.370054
0.444291
0.416112
0.413429
0.412035
0.410656
0.409294
0.407948
0.406621
0.405312
0.404023
0.402754
0.401506
0.400279
0.399075
0.397894
0.396737
0.395604
0.394496
0.393414
0.392359
0.39133
0.390328
0.389354
0.388408
0.38749
0.386601
0.385741
0.38491
0.384107
0.383334
0.382589
0.381873
0.381185
0.380526
0.379894
0.37929
0.378712
0.378161
0.377636
0.377137
0.376662
0.376211
0.375783
0.375378
0.374995
0.374632
0.37429
0.373968
0.373663
0.373377
0.373107
0.372853
0.372615
0.372391
0.37218
0.371981
0.371795
0.371619
0.371453
0.371296
0.371148
0.371007
0.370873
0.370745
0.370621
0.370503
0.370387
0.370275
0.370164
0.370054
0.444291
0.416119
0.413436
0.412042
0.410664
0.409301
0.407956
0.406629
0.405321
0.404031
0.402762
0.401514
0.400287
0.399083
0.397902
0.396744
0.395611
0.394503
0.393421
0.392365
0.391335
0.390333
0.389359
0.388413
0.387495
0.386606
0.385745
0.384913
0.384111
0.383337
0.382592
0.381875
0.381187
0.380528
0.379896
0.379291
0.378713
0.378162
0.377637
0.377137
0.376662
0.376211
0.375783
0.375378
0.374995
0.374632
0.37429
0.373967
0.373663
0.373377
0.373107
0.372853
0.372615
0.37239
0.372179
0.371981
0.371794
0.371619
0.371453
0.371296
0.371148
0.371007
0.370873
0.370744
0.370621
0.370502
0.370387
0.370275
0.370164
0.370054
0.444291
0.416123
0.41344
0.412046
0.410668
0.409306
0.407961
0.406634
0.405325
0.404036
0.402767
0.401518
0.400292
0.399087
0.397906
0.396748
0.395615
0.394507
0.393424
0.392368
0.391339
0.390336
0.389362
0.388416
0.387497
0.386608
0.385747
0.384915
0.384112
0.383338
0.382593
0.381877
0.381188
0.380529
0.379896
0.379292
0.378714
0.378163
0.377638
0.377138
0.376663
0.376211
0.375784
0.375378
0.374995
0.374633
0.37429
0.373967
0.373663
0.373377
0.373107
0.372853
0.372615
0.37239
0.372179
0.371981
0.371794
0.371618
0.371453
0.371296
0.371148
0.371007
0.370873
0.370744
0.370621
0.370502
0.370387
0.370275
0.370164
0.370054
0.444291
0.416124
0.413442
0.412048
0.41067
0.409308
0.407963
0.406636
0.405327
0.404038
0.402769
0.40152
0.400294
0.399089
0.397908
0.39675
0.395617
0.394509
0.393426
0.39237
0.39134
0.390338
0.389363
0.388417
0.387499
0.386609
0.385748
0.384916
0.384113
0.383339
0.382594
0.381877
0.381189
0.380529
0.379897
0.379292
0.378714
0.378163
0.377638
0.377138
0.376663
0.376212
0.375784
0.375378
0.374995
0.374633
0.37429
0.373967
0.373663
0.373377
0.373107
0.372853
0.372615
0.37239
0.372179
0.371981
0.371794
0.371618
0.371453
0.371296
0.371147
0.371007
0.370873
0.370744
0.370621
0.370502
0.370387
0.370275
0.370164
0.370054
0.444291
0.416125
0.413443
0.412049
0.410671
0.409309
0.407964
0.406637
0.405328
0.404039
0.40277
0.401521
0.400295
0.39909
0.397909
0.396751
0.395618
0.394509
0.393427
0.392371
0.391341
0.390339
0.389364
0.388417
0.387499
0.38661
0.385749
0.384917
0.384114
0.383339
0.382594
0.381877
0.381189
0.380529
0.379897
0.379292
0.378715
0.378163
0.377638
0.377138
0.376663
0.376212
0.375784
0.375378
0.374995
0.374633
0.37429
0.373967
0.373663
0.373377
0.373107
0.372853
0.372614
0.37239
0.372179
0.371981
0.371794
0.371618
0.371452
0.371296
0.371147
0.371007
0.370873
0.370744
0.370621
0.370502
0.370387
0.370274
0.370164
0.370054
0.444291
0.416125
0.413443
0.412049
0.410671
0.409309
0.407964
0.406637
0.405329
0.404039
0.40277
0.401522
0.400295
0.399091
0.397909
0.396751
0.395618
0.39451
0.393427
0.392371
0.391341
0.390339
0.389364
0.388418
0.387499
0.38661
0.385749
0.384917
0.384114
0.38334
0.382594
0.381878
0.381189
0.380529
0.379897
0.379292
0.378715
0.378163
0.377638
0.377138
0.376663
0.376212
0.375784
0.375378
0.374995
0.374633
0.37429
0.373967
0.373663
0.373377
0.373107
0.372853
0.372614
0.37239
0.372179
0.371981
0.371794
0.371618
0.371452
0.371296
0.371147
0.371007
0.370873
0.370744
0.370621
0.370502
0.370387
0.370274
0.370164
0.370054
0.444291
0.416125
0.413443
0.412049
0.410671
0.409309
0.407964
0.406637
0.405329
0.40404
0.40277
0.401522
0.400295
0.399091
0.397909
0.396752
0.395618
0.39451
0.393427
0.392371
0.391341
0.390339
0.389364
0.388418
0.3875
0.38661
0.385749
0.384917
0.384114
0.38334
0.382594
0.381878
0.381189
0.380529
0.379897
0.379292
0.378715
0.378163
0.377638
0.377138
0.376663
0.376212
0.375784
0.375378
0.374995
0.374633
0.37429
0.373967
0.373663
0.373377
0.373107
0.372853
0.372614
0.37239
0.372179
0.371981
0.371794
0.371618
0.371452
0.371296
0.371147
0.371007
0.370873
0.370744
0.370621
0.370502
0.370387
0.370274
0.370164
0.370054
0.444291
0.416125
0.413443
0.412049
0.410671
0.409309
0.407964
0.406637
0.405329
0.40404
0.40277
0.401522
0.400295
0.399091
0.397909
0.396752
0.395618
0.39451
0.393427
0.392371
0.391341
0.390339
0.389364
0.388418
0.3875
0.38661
0.385749
0.384917
0.384114
0.38334
0.382594
0.381878
0.381189
0.380529
0.379897
0.379292
0.378715
0.378163
0.377638
0.377138
0.376663
0.376212
0.375784
0.375378
0.374995
0.374633
0.37429
0.373967
0.373663
0.373377
0.373107
0.372853
0.372614
0.37239
0.372179
0.371981
0.371794
0.371618
0.371452
0.371296
0.371147
0.371007
0.370873
0.370744
0.370621
0.370502
0.370387
0.370274
0.370164
0.370054
0.444291
0.416125
0.413443
0.412049
0.410671
0.409309
0.407964
0.406637
0.405329
0.40404
0.40277
0.401522
0.400295
0.399091
0.397909
0.396752
0.395618
0.39451
0.393427
0.392371
0.391341
0.390339
0.389364
0.388418
0.3875
0.38661
0.385749
0.384917
0.384114
0.38334
0.382594
0.381878
0.381189
0.380529
0.379897
0.379292
0.378715
0.378163
0.377638
0.377138
0.376663
0.376212
0.375784
0.375378
0.374995
0.374633
0.37429
0.373967
0.373663
0.373377
0.373107
0.372853
0.372614
0.37239
0.372179
0.371981
0.371794
0.371618
0.371452
0.371296
0.371147
0.371007
0.370873
0.370744
0.370621
0.370502
0.370387
0.370274
0.370164
0.370054
0.444291
0.416125
0.413443
0.412049
0.410671
0.409309
0.407964
0.406637
0.405329
0.40404
0.40277
0.401522
0.400295
0.399091
0.397909
0.396752
0.395618
0.39451
0.393427
0.392371
0.391341
0.390339
0.389364
0.388418
0.3875
0.38661
0.385749
0.384917
0.384114
0.38334
0.382594
0.381878
0.381189
0.380529
0.379897
0.379292
0.378715
0.378163
0.377638
0.377138
0.376663
0.376212
0.375784
0.375378
0.374995
0.374633
0.37429
0.373967
0.373663
0.373377
0.373107
0.372853
0.372614
0.37239
0.372179
0.371981
0.371794
0.371618
0.371452
0.371296
0.371147
0.371007
0.370873
0.370744
0.370621
0.370502
0.370387
0.370274
0.370164
0.370054
0.444291
0.416125
0.413443
0.412049
0.410671
0.409309
0.407964
0.406637
0.405329
0.40404
0.40277
0.401522
0.400295
0.399091
0.397909
0.396752
0.395618
0.39451
0.393427
0.392371
0.391341
0.390339
0.389364
0.388418
0.3875
0.38661
0.385749
0.384917
0.384114
0.38334
0.382594
0.381878
0.381189
0.380529
0.379897
0.379292
0.378715
0.378163
0.377638
0.377138
0.376663
0.376212
0.375784
0.375378
0.374995
0.374633
0.37429
0.373967
0.373663
0.373377
0.373107
0.372853
0.372614
0.37239
0.372179
0.371981
0.371794
0.371618
0.371452
0.371296
0.371147
0.371007
0.370873
0.370744
0.370621
0.370502
0.370387
0.370274
0.370164
0.370054
0.444291
0.416125
0.413443
0.412049
0.410671
0.409309
0.407964
0.406637
0.405329
0.40404
0.40277
0.401522
0.400295
0.399091
0.397909
0.396752
0.395618
0.39451
0.393427
0.392371
0.391341
0.390339
0.389364
0.388418
0.3875
0.38661
0.385749
0.384917
0.384114
0.38334
0.382594
0.381878
0.381189
0.380529
0.379897
0.379292
0.378715
0.378163
0.377638
0.377138
0.376663
0.376212
0.375784
0.375378
0.374995
0.374633
0.37429
0.373967
0.373663
0.373377
0.373107
0.372853
0.372614
0.37239
0.372179
0.371981
0.371794
0.371618
0.371452
0.371296
0.371147
0.371007
0.370873
0.370744
0.370621
0.370502
0.370387
0.370274
0.370164
0.370054
0.444291
0.416125
0.413443
0.412049
0.410671
0.409309
0.407964
0.406637
0.405329
0.40404
0.40277
0.401522
0.400295
0.399091
0.397909
0.396752
0.395618
0.39451
0.393427
0.392371
0.391341
0.390339
0.389364
0.388418
0.3875
0.38661
0.385749
0.384917
0.384114
0.38334
0.382594
0.381878
0.381189
0.380529
0.379897
0.379292
0.378715
0.378163
0.377638
0.377138
0.376663
0.376212
0.375784
0.375378
0.374995
0.374633
0.37429
0.373967
0.373663
0.373377
0.373107
0.372853
0.372614
0.37239
0.372179
0.371981
0.371794
0.371618
0.371452
0.371296
0.371147
0.371007
0.370873
0.370744
0.370621
0.370502
0.370387
0.370274
0.370164
0.370054
0.444291
0.416125
0.413443
0.412049
0.410671
0.409309
0.407964
0.406637
0.405329
0.40404
0.40277
0.401522
0.400295
0.399091
0.397909
0.396752
0.395618
0.39451
0.393427
0.392371
0.391341
0.390339
0.389364
0.388418
0.3875
0.38661
0.385749
0.384917
0.384114
0.38334
0.382594
0.381878
0.381189
0.380529
0.379897
0.379292
0.378715
0.378163
0.377638
0.377138
0.376663
0.376212
0.375784
0.375378
0.374995
0.374633
0.37429
0.373967
0.373663
0.373377
0.373107
0.372853
0.372614
0.37239
0.372179
0.371981
0.371794
0.371618
0.371452
0.371296
0.371147
0.371007
0.370873
0.370744
0.370621
0.370502
0.370387
0.370274
0.370164
0.370054
0.444291
0.416125
0.413443
0.412049
0.410671
0.409309
0.407964
0.406637
0.405329
0.40404
0.40277
0.401522
0.400295
0.399091
0.397909
0.396752
0.395618
0.39451
0.393427
0.392371
0.391341
0.390339
0.389364
0.388418
0.3875
0.38661
0.385749
0.384917
0.384114
0.38334
0.382594
0.381878
0.381189
0.380529
0.379897
0.379292
0.378715
0.378163
0.377638
0.377138
0.376663
0.376212
0.375784
0.375378
0.374995
0.374633
0.37429
0.373967
0.373663
0.373377
0.373107
0.372853
0.372614
0.37239
0.372179
0.371981
0.371794
0.371618
0.371452
0.371296
0.371147
0.371007
0.370873
0.370744
0.370621
0.370502
0.370387
0.370274
0.370164
0.370054
0.444291
0.416125
0.413443
0.412049
0.410671
0.409309
0.407964
0.406637
0.405329
0.40404
0.40277
0.401522
0.400295
0.399091
0.397909
0.396752
0.395618
0.39451
0.393427
0.392371
0.391341
0.390339
0.389364
0.388418
0.3875
0.38661
0.385749
0.384917
0.384114
0.38334
0.382594
0.381878
0.381189
0.380529
0.379897
0.379292
0.378715
0.378163
0.377638
0.377138
0.376663
0.376212
0.375784
0.375378
0.374995
0.374633
0.37429
0.373967
0.373663
0.373377
0.373107
0.372853
0.372614
0.37239
0.372179
0.371981
0.371794
0.371618
0.371452
0.371296
0.371147
0.371007
0.370873
0.370744
0.370621
0.370502
0.370387
0.370274
0.370164
0.370054
0.444291
0.416125
0.413443
0.412049
0.410671
0.409309
0.407964
0.406637
0.405329
0.40404
0.40277
0.401522
0.400295
0.399091
0.397909
0.396752
0.395618
0.39451
0.393427
0.392371
0.391341
0.390339
0.389364
0.388418
0.3875
0.38661
0.385749
0.384917
0.384114
0.38334
0.382594
0.381878
0.381189
0.380529
0.379897
0.379292
0.378715
0.378163
0.377638
0.377138
0.376663
0.376212
0.375784
0.375378
0.374995
0.374633
0.37429
0.373967
0.373663
0.373377
0.373107
0.372853
0.372614
0.37239
0.372179
0.371981
0.371794
0.371618
0.371452
0.371296
0.371147
0.371007
0.370873
0.370744
0.370621
0.370502
0.370387
0.370274
0.370164
0.370054
0.444291
0.416125
0.413443
0.412049
0.410671
0.409309
0.407964
0.406637
0.405329
0.40404
0.40277
0.401522
0.400295
0.399091
0.397909
0.396752
0.395618
0.39451
0.393427
0.392371
0.391341
0.390339
0.389364
0.388418
0.3875
0.38661
0.385749
0.384917
0.384114
0.38334
0.382594
0.381878
0.381189
0.380529
0.379897
0.379292
0.378715
0.378163
0.377638
0.377138
0.376663
0.376212
0.375784
0.375378
0.374995
0.374633
0.37429
0.373967
0.373663
0.373377
0.373107
0.372853
0.372614
0.37239
0.372179
0.371981
0.371794
0.371618
0.371452
0.371296
0.371147
0.371007
0.370873
0.370744
0.370621
0.370502
0.370387
0.370274
0.370164
0.370054
0.444291
0.416125
0.413443
0.412049
0.410671
0.409309
0.407964
0.406637
0.405329
0.40404
0.40277
0.401522
0.400295
0.399091
0.397909
0.396752
0.395618
0.39451
0.393427
0.392371
0.391341
0.390339
0.389364
0.388418
0.3875
0.38661
0.385749
0.384917
0.384114
0.38334
0.382594
0.381878
0.381189
0.380529
0.379897
0.379292
0.378715
0.378163
0.377638
0.377138
0.376663
0.376212
0.375784
0.375378
0.374995
0.374633
0.37429
0.373967
0.373663
0.373377
0.373107
0.372853
0.372614
0.37239
0.372179
0.371981
0.371794
0.371618
0.371452
0.371296
0.371147
0.371007
0.370873
0.370744
0.370621
0.370502
0.370387
0.370274
0.370164
0.370054
0.444291
0.416125
0.413443
0.412049
0.410671
0.409309
0.407964
0.406637
0.405329
0.40404
0.40277
0.401522
0.400295
0.399091
0.397909
0.396752
0.395618
0.39451
0.393427
0.392371
0.391341
0.390339
0.389364
0.388418
0.3875
0.38661
0.385749
0.384917
0.384114
0.38334
0.382594
0.381878
0.381189
0.380529
0.379897
0.379292
0.378715
0.378163
0.377638
0.377138
0.376663
0.376212
0.375784
0.375378
0.374995
0.374633
0.37429
0.373967
0.373663
0.373377
0.373107
0.372853
0.372614
0.37239
0.372179
0.371981
0.371794
0.371618
0.371452
0.371296
0.371147
0.371007
0.370873
0.370744
0.370621
0.370502
0.370387
0.370274
0.370164
0.370054
0.444291
0.416125
0.413443
0.412049
0.410671
0.409309
0.407964
0.406637
0.405329
0.40404
0.40277
0.401522
0.400295
0.399091
0.397909
0.396752
0.395618
0.39451
0.393427
0.392371
0.391341
0.390339
0.389364
0.388418
0.3875
0.38661
0.385749
0.384917
0.384114
0.38334
0.382594
0.381878
0.381189
0.380529
0.379897
0.379292
0.378715
0.378163
0.377638
0.377138
0.376663
0.376212
0.375784
0.375378
0.374995
0.374633
0.37429
0.373967
0.373663
0.373377
0.373107
0.372853
0.372614
0.37239
0.372179
0.371981
0.371794
0.371618
0.371452
0.371296
0.371147
0.371007
0.370873
0.370744
0.370621
0.370502
0.370387
0.370274
0.370164
0.370054
0.444291
0.416125
0.413443
0.412049
0.410671
0.409309
0.407964
0.406637
0.405329
0.40404
0.40277
0.401522
0.400295
0.399091
0.397909
0.396752
0.395618
0.39451
0.393427
0.392371
0.391341
0.390339
0.389364
0.388418
0.3875
0.38661
0.385749
0.384917
0.384114
0.38334
0.382594
0.381878
0.381189
0.380529
0.379897
0.379292
0.378715
0.378163
0.377638
0.377138
0.376663
0.376212
0.375784
0.375378
0.374995
0.374633
0.37429
0.373967
0.373663
0.373377
0.373107
0.372853
0.372614
0.37239
0.372179
0.371981
0.371794
0.371618
0.371452
0.371296
0.371147
0.371007
0.370873
0.370744
0.370621
0.370502
0.370387
0.370274
0.370164
0.370054
0.444291
0.416125
0.413443
0.412049
0.410671
0.409309
0.407964
0.406637
0.405329
0.40404
0.40277
0.401522
0.400295
0.399091
0.397909
0.396752
0.395618
0.39451
0.393427
0.392371
0.391341
0.390339
0.389364
0.388418
0.3875
0.38661
0.385749
0.384917
0.384114
0.38334
0.382594
0.381878
0.381189
0.380529
0.379897
0.379292
0.378715
0.378163
0.377638
0.377138
0.376663
0.376212
0.375784
0.375378
0.374995
0.374633
0.37429
0.373967
0.373663
0.373377
0.373107
0.372853
0.372614
0.37239
0.372179
0.371981
0.371794
0.371618
0.371452
0.371296
0.371147
0.371007
0.370873
0.370744
0.370621
0.370502
0.370387
0.370274
0.370164
0.370054
0.444291
0.416125
0.413443
0.412049
0.410671
0.409309
0.407964
0.406637
0.405329
0.40404
0.40277
0.401522
0.400295
0.399091
0.397909
0.396752
0.395618
0.39451
0.393427
0.392371
0.391341
0.390339
0.389364
0.388418
0.3875
0.38661
0.385749
0.384917
0.384114
0.38334
0.382594
0.381878
0.381189
0.380529
0.379897
0.379292
0.378715
0.378163
0.377638
0.377138
0.376663
0.376212
0.375784
0.375378
0.374995
0.374633
0.37429
0.373967
0.373663
0.373377
0.373107
0.372853
0.372614
0.37239
0.372179
0.371981
0.371794
0.371618
0.371452
0.371296
0.371147
0.371007
0.370873
0.370744
0.370621
0.370502
0.370387
0.370274
0.370164
0.370054
0.444291
0.416125
0.413443
0.412049
0.410671
0.409309
0.407964
0.406637
0.405329
0.40404
0.40277
0.401522
0.400295
0.399091
0.397909
0.396752
0.395618
0.39451
0.393427
0.392371
0.391341
0.390339
0.389364
0.388418
0.3875
0.38661
0.385749
0.384917
0.384114
0.38334
0.382594
0.381878
0.381189
0.380529
0.379897
0.379292
0.378715
0.378163
0.377638
0.377138
0.376663
0.376212
0.375784
0.375378
0.374995
0.374633
0.37429
0.373967
0.373663
0.373377
0.373107
0.372853
0.372614
0.37239
0.372179
0.371981
0.371794
0.371618
0.371452
0.371296
0.371147
0.371007
0.370873
0.370744
0.370621
0.370502
0.370387
0.370274
0.370164
0.370054
0.444291
0.416125
0.413443
0.412049
0.410671
0.409309
0.407964
0.406637
0.405329
0.40404
0.40277
0.401522
0.400295
0.399091
0.397909
0.396752
0.395618
0.39451
0.393427
0.392371
0.391341
0.390339
0.389364
0.388418
0.3875
0.38661
0.385749
0.384917
0.384114
0.38334
0.382594
0.381878
0.381189
0.380529
0.379897
0.379292
0.378715
0.378163
0.377638
0.377138
0.376663
0.376212
0.375784
0.375378
0.374995
0.374633
0.37429
0.373967
0.373663
0.373377
0.373107
0.372853
0.372614
0.37239
0.372179
0.371981
0.371794
0.371618
0.371452
0.371296
0.371147
0.371007
0.370873
0.370744
0.370621
0.370502
0.370387
0.370274
0.370164
0.370054
0.444291
0.416125
0.413443
0.412049
0.410671
0.409309
0.407964
0.406637
0.405329
0.40404
0.40277
0.401522
0.400295
0.399091
0.397909
0.396752
0.395618
0.39451
0.393427
0.392371
0.391341
0.390339
0.389364
0.388418
0.3875
0.38661
0.385749
0.384917
0.384114
0.38334
0.382594
0.381878
0.381189
0.380529
0.379897
0.379292
0.378715
0.378163
0.377638
0.377138
0.376663
0.376212
0.375784
0.375378
0.374995
0.374633
0.37429
0.373967
0.373663
0.373377
0.373107
0.372853
0.372614
0.37239
0.372179
0.371981
0.371794
0.371618
0.371452
0.371296
0.371147
0.371007
0.370873
0.370744
0.370621
0.370502
0.370387
0.370274
0.370164
0.370054
0.444291
0.416125
0.413443
0.412049
0.410671
0.409309
0.407964
0.406637
0.405329
0.40404
0.40277
0.401522
0.400295
0.399091
0.397909
0.396752
0.395618
0.39451
0.393427
0.392371
0.391341
0.390339
0.389364
0.388418
0.3875
0.38661
0.385749
0.384917
0.384114
0.38334
0.382594
0.381878
0.381189
0.380529
0.379897
0.379292
0.378715
0.378163
0.377638
0.377138
0.376663
0.376212
0.375784
0.375378
0.374995
0.374633
0.37429
0.373967
0.373663
0.373377
0.373107
0.372853
0.372614
0.37239
0.372179
0.371981
0.371794
0.371618
0.371452
0.371296
0.371147
0.371007
0.370873
0.370744
0.370621
0.370502
0.370387
0.370274
0.370164
0.370054
0.444291
0.416125
0.413443
0.412049
0.410671
0.409309
0.407964
0.406637
0.405329
0.40404
0.40277
0.401522
0.400295
0.399091
0.397909
0.396752
0.395618
0.39451
0.393427
0.392371
0.391341
0.390339
0.389364
0.388418
0.3875
0.38661
0.385749
0.384917
0.384114
0.38334
0.382594
0.381878
0.381189
0.380529
0.379897
0.379292
0.378715
0.378163
0.377638
0.377138
0.376663
0.376212
0.375784
0.375378
0.374995
0.374633
0.37429
0.373967
0.373663
0.373377
0.373107
0.372853
0.372614
0.37239
0.372179
0.371981
0.371794
0.371618
0.371452
0.371296
0.371147
0.371007
0.370873
0.370744
0.370621
0.370502
0.370387
0.370274
0.370164
0.370054
0.444291
0.416125
0.413443
0.412049
0.410671
0.409309
0.407964
0.406637
0.405329
0.40404
0.40277
0.401522
0.400295
0.399091
0.397909
0.396752
0.395618
0.39451
0.393427
0.392371
0.391341
0.390339
0.389364
0.388418
0.3875
0.38661
0.385749
0.384917
0.384114
0.38334
0.382594
0.381878
0.381189
0.380529
0.379897
0.379292
0.378715
0.378163
0.377638
0.377138
0.376663
0.376212
0.375784
0.375378
0.374995
0.374633
0.37429
0.373967
0.373663
0.373377
0.373107
0.372853
0.372614
0.37239
0.372179
0.371981
0.371794
0.371618
0.371452
0.371296
0.371147
0.371007
0.370873
0.370744
0.370621
0.370502
0.370387
0.370274
0.370164
0.370054
0.444291
0.416125
0.413443
0.412049
0.410671
0.409309
0.407964
0.406637
0.405329
0.40404
0.40277
0.401522
0.400295
0.399091
0.397909
0.396752
0.395618
0.39451
0.393427
0.392371
0.391341
0.390339
0.389364
0.388418
0.3875
0.38661
0.385749
0.384917
0.384114
0.38334
0.382594
0.381878
0.381189
0.380529
0.379897
0.379292
0.378715
0.378163
0.377638
0.377138
0.376663
0.376212
0.375784
0.375378
0.374995
0.374633
0.37429
0.373967
0.373663
0.373377
0.373107
0.372853
0.372614
0.37239
0.372179
0.371981
0.371794
0.371618
0.371452
0.371296
0.371147
0.371007
0.370873
0.370744
0.370621
0.370502
0.370387
0.370274
0.370164
0.370054
0.444291
0.416125
0.413443
0.412049
0.410671
0.409309
0.407964
0.406637
0.405329
0.40404
0.40277
0.401522
0.400295
0.399091
0.397909
0.396752
0.395618
0.39451
0.393427
0.392371
0.391341
0.390339
0.389364
0.388418
0.3875
0.38661
0.385749
0.384917
0.384114
0.38334
0.382594
0.381878
0.381189
0.380529
0.379897
0.379292
0.378715
0.378163
0.377638
0.377138
0.376663
0.376212
0.375784
0.375378
0.374995
0.374633
0.37429
0.373967
0.373663
0.373377
0.373107
0.372853
0.372614
0.37239
0.372179
0.371981
0.371794
0.371618
0.371452
0.371296
0.371147
0.371007
0.370873
0.370744
0.370621
0.370502
0.370387
0.370274
0.370164
0.370054
0.444291
0.416125
0.413443
0.412049
0.410671
0.409309
0.407964
0.406637
0.405329
0.40404
0.40277
0.401522
0.400295
0.399091
0.397909
0.396752
0.395618
0.39451
0.393427
0.392371
0.391341
0.390339
0.389364
0.388418
0.3875
0.38661
0.385749
0.384917
0.384114
0.38334
0.382594
0.381878
0.381189
0.380529
0.379897
0.379292
0.378715
0.378163
0.377638
0.377138
0.376663
0.376212
0.375784
0.375378
0.374995
0.374633
0.37429
0.373967
0.373663
0.373377
0.373107
0.372853
0.372614
0.37239
0.372179
0.371981
0.371794
0.371618
0.371452
0.371296
0.371147
0.371007
0.370873
0.370744
0.370621
0.370502
0.370387
0.370274
0.370164
0.370054
0.444291
0.416125
0.413443
0.412049
0.410671
0.409309
0.407964
0.406637
0.405329
0.40404
0.40277
0.401522
0.400295
0.399091
0.397909
0.396752
0.395618
0.39451
0.393427
0.392371
0.391341
0.390339
0.389364
0.388418
0.3875
0.38661
0.385749
0.384917
0.384114
0.38334
0.382594
0.381878
0.381189
0.380529
0.379897
0.379292
0.378715
0.378163
0.377638
0.377138
0.376663
0.376212
0.375784
0.375378
0.374995
0.374633
0.37429
0.373967
0.373663
0.373377
0.373107
0.372853
0.372614
0.37239
0.372179
0.371981
0.371794
0.371618
0.371452
0.371296
0.371147
0.371007
0.370873
0.370744
0.370621
0.370502
0.370387
0.370274
0.370164
0.370054
0.444291
0.416125
0.413443
0.412049
0.410671
0.409309
0.407964
0.406637
0.405329
0.40404
0.40277
0.401522
0.400295
0.399091
0.397909
0.396752
0.395618
0.39451
0.393427
0.392371
0.391341
0.390339
0.389364
0.388418
0.3875
0.38661
0.385749
0.384917
0.384114
0.38334
0.382594
0.381878
0.381189
0.380529
0.379897
0.379292
0.378715
0.378163
0.377638
0.377138
0.376663
0.376212
0.375784
0.375378
0.374995
0.374633
0.37429
0.373967
0.373663
0.373377
0.373107
0.372853
0.372614
0.37239
0.372179
0.371981
0.371794
0.371618
0.371452
0.371296
0.371147
0.371007
0.370873
0.370744
0.370621
0.370502
0.370387
0.370274
0.370164
0.370054
0.444291
0.416125
0.413443
0.412049
0.410671
0.409309
0.407964
0.406637
0.405329
0.40404
0.40277
0.401522
0.400295
0.399091
0.397909
0.396752
0.395618
0.39451
0.393427
0.392371
0.391341
0.390339
0.389364
0.388418
0.3875
0.38661
0.385749
0.384917
0.384114
0.38334
0.382594
0.381878
0.381189
0.380529
0.379897
0.379292
0.378715
0.378163
0.377638
0.377138
0.376663
0.376212
0.375784
0.375378
0.374995
0.374633
0.37429
0.373967
0.373663
0.373377
0.373107
0.372853
0.372614
0.37239
0.372179
0.371981
0.371794
0.371618
0.371452
0.371296
0.371147
0.371007
0.370873
0.370744
0.370621
0.370502
0.370387
0.370274
0.370164
0.370054
0.444291
0.416125
0.413443
0.412049
0.410671
0.409309
0.407964
0.406637
0.405329
0.40404
0.40277
0.401522
0.400295
0.399091
0.397909
0.396752
0.395618
0.39451
0.393427
0.392371
0.391341
0.390339
0.389364
0.388418
0.3875
0.38661
0.385749
0.384917
0.384114
0.38334
0.382594
0.381878
0.381189
0.380529
0.379897
0.379292
0.378715
0.378163
0.377638
0.377138
0.376663
0.376212
0.375784
0.375378
0.374995
0.374633
0.37429
0.373967
0.373663
0.373377
0.373107
0.372853
0.372614
0.37239
0.372179
0.371981
0.371794
0.371618
0.371452
0.371296
0.371147
0.371007
0.370873
0.370744
0.370621
0.370502
0.370387
0.370274
0.370164
0.370054
0.444291
0.416125
0.413443
0.412049
0.410671
0.409309
0.407964
0.406637
0.405329
0.40404
0.40277
0.401522
0.400295
0.399091
0.397909
0.396752
0.395618
0.39451
0.393427
0.392371
0.391341
0.390339
0.389364
0.388418
0.3875
0.38661
0.385749
0.384917
0.384114
0.38334
0.382594
0.381878
0.381189
0.380529
0.379897
0.379292
0.378715
0.378163
0.377638
0.377138
0.376663
0.376212
0.375784
0.375378
0.374995
0.374633
0.37429
0.373967
0.373663
0.373377
0.373107
0.372853
0.372614
0.37239
0.372179
0.371981
0.371794
0.371618
0.371452
0.371296
0.371147
0.371007
0.370873
0.370744
0.370621
0.370502
0.370387
0.370274
0.370164
0.370054
0.444291
0.416125
0.413443
0.412049
0.410671
0.409309
0.407964
0.406637
0.405329
0.40404
0.40277
0.401522
0.400295
0.399091
0.397909
0.396752
0.395618
0.39451
0.393427
0.392371
0.391341
0.390339
0.389364
0.388418
0.3875
0.38661
0.385749
0.384917
0.384114
0.38334
0.382594
0.381878
0.381189
0.380529
0.379897
0.379292
0.378715
0.378163
0.377638
0.377138
0.376663
0.376212
0.375784
0.375378
0.374995
0.374633
0.37429
0.373967
0.373663
0.373377
0.373107
0.372853
0.372614
0.37239
0.372179
0.371981
0.371794
0.371618
0.371452
0.371296
0.371147
0.371007
0.370873
0.370744
0.370621
0.370502
0.370387
0.370274
0.370164
0.370054
0.444291
0.416125
0.413443
0.412049
0.410671
0.409309
0.407964
0.406637
0.405329
0.40404
0.40277
0.401522
0.400295