/*--------------------------------*- C++ -*----------------------------------*\
  =========                 |
  \\      /  F ield         | OpenFOAM: The Open Source CFD Toolbox
   \\    /   O peration     | Website:  https://openfoam.org
    \\  /    A nd           | Version:  13
     \\/     M anipulation  |
\*---------------------------------------------------------------------------*/
FoamFile
{
    format      ascii;
    class       volScalarField;
    location    "24";
    object      k;
}
// * * * * * * * * * * * * * * * * * * * * * * * * * * * * * * * * * * * * * //

dimensions      [0 2 -2 0 0 0 0];

internalField   nonuniform List<scalar> 
78750
(
1.70629e-14
4.85055e-13
2.19781e-12
3.98838e-12
5.8783e-12
7.88234e-12
1.00021e-11
1.22228e-11
1.4513e-11
1.68262e-11
1.91041e-11
2.12801e-11
2.32839e-11
2.5046e-11
2.6502e-11
2.75968e-11
2.82876e-11
2.85471e-11
2.83648e-11
2.77476e-11
2.67197e-11
2.53207e-11
2.36038e-11
2.16316e-11
1.94731e-11
1.71987e-11
1.48756e-11
1.25639e-11
1.03117e-11
8.1523e-12
6.10193e-12
4.15904e-12
2.30602e-12
5.13138e-13
1.81289e-14
3.71241e-13
1.07195e-11
5.34673e-11
9.77341e-11
1.44413e-10
1.94043e-10
2.46734e-10
3.0214e-10
3.59466e-10
4.17523e-10
4.74811e-10
5.2962e-10
5.80142e-10
6.24589e-10
6.61304e-10
6.88871e-10
7.06195e-10
7.12577e-10
7.07752e-10
6.9191e-10
6.65681e-10
6.30099e-10
5.86534e-10
5.36611e-10
4.82104e-10
4.24823e-10
3.66498e-10
3.08662e-10
2.52541e-10
1.98973e-10
1.48344e-10
1.00569e-10
5.51127e-11
1.10676e-11
3.83536e-13
1.04734e-12
3.02458e-11
1.51163e-10
2.77948e-10
4.14297e-10
5.62678e-10
7.24049e-10
8.97683e-10
1.08115e-09
1.27046e-09
1.46032e-09
1.64447e-09
1.81615e-09
1.96854e-09
2.09524e-09
2.19073e-09
2.25071e-09
2.27245e-09
2.25494e-09
2.19896e-09
2.10705e-09
1.98333e-09
1.83319e-09
1.66296e-09
1.47943e-09
1.28939e-09
1.09916e-09
9.14151e-10
7.38495e-10
5.74749e-10
4.23761e-10
2.84658e-10
1.54997e-10
3.10489e-11
1.07563e-12
2.03821e-12
5.88559e-11
2.94347e-10
5.4243e-10
8.11202e-10
1.10624e-09
1.42999e-09
1.78135e-09
2.15563e-09
2.54469e-09
2.93746e-09
3.32069e-09
3.67977e-09
3.99983e-09
4.26677e-09
4.46828e-09
4.59481e-09
4.64022e-09
4.60228e-09
4.48283e-09
4.28761e-09
4.02589e-09
3.70973e-09
3.35308e-09
2.97081e-09
2.57757e-09
2.18677e-09
1.80969e-09
1.4547e-09
1.12676e-09
8.27183e-10
5.53678e-10
3.00728e-10
6.01876e-11
2.08508e-12
3.17714e-12
9.1736e-11
4.58863e-10
8.46201e-10
1.26683e-09
1.72985e-09
2.23936e-09
2.79383e-09
3.38592e-09
4.00279e-09
4.62683e-09
5.23681e-09
5.80924e-09
6.3201e-09
6.74652e-09
7.06852e-09
7.27053e-09
7.34257e-09
7.28102e-09
7.08892e-09
6.77574e-09
6.35661e-09
5.85118e-09
5.28212e-09
4.67344e-09
4.04868e-09
3.42931e-09
2.83323e-09
2.27364e-09
1.75823e-09
1.28885e-09
8.61633e-10
4.67581e-10
9.3552e-11
3.24102e-12
4.28553e-12
1.2374e-10
6.18997e-10
1.14179e-09
1.71e-09
2.33609e-09
3.02573e-09
3.77694e-09
4.57981e-09
5.41692e-09
6.26433e-09
7.09312e-09
7.87129e-09
8.56599e-09
9.14597e-09
9.58389e-09
9.85839e-09
9.95583e-09
9.87127e-09
9.60895e-09
9.18187e-09
8.61083e-09
7.92279e-09
7.14876e-09
6.32153e-09
5.47321e-09
4.633e-09
3.82519e-09
3.06764e-09
2.37071e-09
1.73679e-09
1.16051e-09
6.29536e-10
1.25933e-10
4.36268e-12
5.23183e-12
1.51077e-10
7.55816e-10
1.39432e-09
2.08858e-09
2.85392e-09
3.69735e-09
4.61647e-09
5.59919e-09
6.62417e-09
7.66209e-09
8.67745e-09
9.63099e-09
1.04824e-08
1.11932e-08
1.17298e-08
1.20659e-08
1.21848e-08
1.20805e-08
1.17581e-08
1.12337e-08
1.05331e-08
9.6892e-09
8.74033e-09
7.72672e-09
6.68777e-09
5.65924e-09
4.6709e-09
3.74457e-09
2.89287e-09
2.11865e-09
1.41528e-09
7.67583e-10
1.53524e-10
5.31789e-12
5.95142e-12
1.7188e-10
8.59986e-10
1.58661e-09
2.37687e-09
3.24828e-09
4.20888e-09
5.25597e-09
6.37577e-09
7.54396e-09
8.7271e-09
9.8847e-09
1.09719e-08
1.19428e-08
1.27533e-08
1.33651e-08
1.37482e-08
1.38834e-08
1.37638e-08
1.33954e-08
1.27967e-08
1.1997e-08
1.10343e-08
9.95202e-09
8.79628e-09
7.61202e-09
6.44001e-09
5.31416e-09
4.25932e-09
3.28983e-09
2.40889e-09
1.60888e-09
8.72463e-10
1.74474e-10
6.04263e-12
6.44318e-12
1.86111e-10
9.31287e-10
1.71824e-09
2.57425e-09
3.51833e-09
4.55923e-09
5.69404e-09
6.90783e-09
8.17424e-09
9.457e-09
1.07122e-08
1.18912e-08
1.2944e-08
1.38229e-08
1.44863e-08
1.49016e-08
1.50478e-08
1.49177e-08
1.45177e-08
1.38679e-08
1.30002e-08
1.19557e-08
1.07819e-08
9.5286e-09
8.24466e-09
6.97428e-09
5.75421e-09
4.61135e-09
3.56122e-09
2.60726e-09
1.74117e-09
9.4411e-10
1.88775e-10
6.53689e-12
6.74753e-12
1.94927e-10
9.75494e-10
1.79987e-09
2.69666e-09
3.68584e-09
4.77658e-09
5.96585e-09
7.23802e-09
8.56545e-09
9.91011e-09
1.1226e-08
1.2462e-08
1.35657e-08
1.44872e-08
1.51826e-08
1.56178e-08
1.57709e-08
1.56342e-08
1.52145e-08
1.45328e-08
1.36227e-08
1.25275e-08
1.12967e-08
9.98282e-09
8.63695e-09
7.30548e-09
6.02691e-09
4.82944e-09
3.72931e-09
2.73009e-09
1.82306e-09
9.88452e-10
1.97619e-10
6.84222e-12
6.91935e-12
1.99911e-10
1.0005e-09
1.84605e-09
2.76592e-09
3.78063e-09
4.8996e-09
6.11973e-09
7.42498e-09
8.78699e-09
1.01667e-08
1.1517e-08
1.27853e-08
1.39179e-08
1.48635e-08
1.55771e-08
1.60236e-08
1.61806e-08
1.60401e-08
1.56091e-08
1.49094e-08
1.39753e-08
1.28512e-08
1.15881e-08
1.02399e-08
8.85889e-09
7.49281e-09
6.18112e-09
4.95274e-09
3.82431e-09
2.7995e-09
1.86932e-09
1.0135e-09
2.0261e-10
7.0143e-12
7.00847e-12
2.02499e-10
1.0135e-09
1.87005e-09
2.80193e-09
3.82992e-09
4.96357e-09
6.19976e-09
7.52222e-09
8.90223e-09
1.03002e-08
1.16684e-08
1.29535e-08
1.41012e-08
1.50593e-08
1.57824e-08
1.62347e-08
1.63937e-08
1.62512e-08
1.58145e-08
1.51053e-08
1.41586e-08
1.30195e-08
1.17396e-08
1.03735e-08
8.97425e-09
7.59016e-09
6.26123e-09
5.01678e-09
3.87364e-09
2.83553e-09
1.89334e-09
1.02649e-09
2.05198e-10
7.10343e-12
7.05121e-12
2.03741e-10
1.01974e-09
1.88159e-09
2.81924e-09
3.85361e-09
4.99433e-09
6.23824e-09
7.56899e-09
8.95766e-09
1.03645e-08
1.17412e-08
1.30345e-08
1.41894e-08
1.51535e-08
1.58811e-08
1.63363e-08
1.64963e-08
1.63528e-08
1.59132e-08
1.51995e-08
1.42468e-08
1.31005e-08
1.18125e-08
1.04377e-08
9.0297e-09
7.63694e-09
6.29973e-09
5.04754e-09
3.89734e-09
2.85283e-09
1.90487e-09
1.03273e-09
2.06439e-10
7.14611e-12
7.07027e-12
2.04296e-10
1.02254e-09
1.88675e-09
2.82698e-09
3.86421e-09
5.00809e-09
6.25545e-09
7.58991e-09
8.98246e-09
1.03932e-08
1.17738e-08
1.30707e-08
1.42288e-08
1.51957e-08
1.59253e-08
1.63818e-08
1.65422e-08
1.63983e-08
1.59574e-08
1.52417e-08
1.42863e-08
1.31367e-08
1.18451e-08
1.04664e-08
9.05448e-09
7.65785e-09
6.31693e-09
5.06128e-09
3.90792e-09
2.86056e-09
1.91001e-09
1.03552e-09
2.06993e-10
7.16513e-12
7.07822e-12
2.04528e-10
1.0237e-09
1.8889e-09
2.83021e-09
3.86864e-09
5.01384e-09
6.26265e-09
7.59865e-09
8.99283e-09
1.04052e-08
1.17874e-08
1.30858e-08
1.42453e-08
1.52133e-08
1.59438e-08
1.64008e-08
1.65614e-08
1.64173e-08
1.59759e-08
1.52593e-08
1.43028e-08
1.31518e-08
1.18587e-08
1.04784e-08
9.06484e-09
7.66658e-09
6.32411e-09
5.06702e-09
3.91234e-09
2.86379e-09
1.91216e-09
1.03668e-09
2.07224e-10
7.17305e-12
7.08133e-12
2.04619e-10
1.02416e-09
1.88975e-09
2.83148e-09
3.87037e-09
5.01609e-09
6.26547e-09
7.60208e-09
8.9969e-09
1.04099e-08
1.17928e-08
1.30918e-08
1.42518e-08
1.52203e-08
1.59511e-08
1.64083e-08
1.65689e-08
1.64248e-08
1.59832e-08
1.52662e-08
1.43093e-08
1.31578e-08
1.1864e-08
1.04832e-08
9.06891e-09
7.67001e-09
6.32693e-09
5.06928e-09
3.91407e-09
2.86505e-09
1.91301e-09
1.03713e-09
2.07314e-10
7.17615e-12
7.08248e-12
2.04652e-10
1.02433e-09
1.89006e-09
2.83195e-09
3.87102e-09
5.01693e-09
6.26652e-09
7.60335e-09
8.9984e-09
1.04117e-08
1.17947e-08
1.3094e-08
1.42542e-08
1.52228e-08
1.59537e-08
1.6411e-08
1.65717e-08
1.64275e-08
1.59858e-08
1.52688e-08
1.43117e-08
1.316e-08
1.1866e-08
1.04849e-08
9.07041e-09
7.67128e-09
6.32797e-09
5.07011e-09
3.91471e-09
2.86552e-09
1.91332e-09
1.0373e-09
2.07347e-10
7.17729e-12
7.08288e-12
2.04664e-10
1.02439e-09
1.89017e-09
2.83211e-09
3.87124e-09
5.01722e-09
6.26688e-09
7.6038e-09
8.99893e-09
1.04123e-08
1.17954e-08
1.30948e-08
1.4255e-08
1.52237e-08
1.59547e-08
1.6412e-08
1.65727e-08
1.64285e-08
1.59868e-08
1.52697e-08
1.43125e-08
1.31607e-08
1.18667e-08
1.04855e-08
9.07094e-09
7.67172e-09
6.32834e-09
5.0704e-09
3.91494e-09
2.86568e-09
1.91343e-09
1.03736e-09
2.07359e-10
7.17769e-12
7.08301e-12
2.04668e-10
1.02441e-09
1.89021e-09
2.83217e-09
3.87131e-09
5.01732e-09
6.267e-09
7.60395e-09
8.9991e-09
1.04125e-08
1.17957e-08
1.3095e-08
1.42553e-08
1.5224e-08
1.5955e-08
1.64123e-08
1.6573e-08
1.64288e-08
1.59871e-08
1.527e-08
1.43128e-08
1.3161e-08
1.18669e-08
1.04857e-08
9.07111e-09
7.67187e-09
6.32846e-09
5.0705e-09
3.91501e-09
2.86574e-09
1.91346e-09
1.03738e-09
2.07363e-10
7.17782e-12
7.08305e-12
2.04669e-10
1.02441e-09
1.89022e-09
2.83218e-09
3.87134e-09
5.01735e-09
6.26704e-09
7.60399e-09
8.99916e-09
1.04125e-08
1.17957e-08
1.30951e-08
1.42554e-08
1.52241e-08
1.59551e-08
1.64124e-08
1.65731e-08
1.64289e-08
1.59872e-08
1.52701e-08
1.43129e-08
1.31611e-08
1.1867e-08
1.04858e-08
9.07116e-09
7.67192e-09
6.3285e-09
5.07053e-09
3.91503e-09
2.86576e-09
1.91347e-09
1.03739e-09
2.07364e-10
7.17786e-12
7.08306e-12
2.04669e-10
1.02442e-09
1.89022e-09
2.83219e-09
3.87135e-09
5.01736e-09
6.26705e-09
7.60401e-09
8.99917e-09
1.04126e-08
1.17958e-08
1.30951e-08
1.42554e-08
1.52241e-08
1.59551e-08
1.64124e-08
1.65731e-08
1.64289e-08
1.59872e-08
1.52701e-08
1.43129e-08
1.31611e-08
1.1867e-08
1.04858e-08
9.07118e-09
7.67193e-09
6.32851e-09
5.07054e-09
3.91504e-09
2.86576e-09
1.91348e-09
1.03739e-09
2.07364e-10
7.17787e-12
7.08307e-12
2.04669e-10
1.02442e-09
1.89022e-09
2.83219e-09
3.87135e-09
5.01736e-09
6.26706e-09
7.60401e-09
8.99918e-09
1.04126e-08
1.17958e-08
1.30951e-08
1.42554e-08
1.52241e-08
1.59551e-08
1.64125e-08
1.65731e-08
1.6429e-08
1.59872e-08
1.52701e-08
1.43129e-08
1.31611e-08
1.1867e-08
1.04858e-08
9.07119e-09
7.67193e-09
6.32851e-09
5.07054e-09
3.91504e-09
2.86576e-09
1.91348e-09
1.03739e-09
2.07364e-10
7.17787e-12
7.08307e-12
2.04669e-10
1.02442e-09
1.89022e-09
2.83219e-09
3.87135e-09
5.01736e-09
6.26706e-09
7.60401e-09
8.99918e-09
1.04126e-08
1.17958e-08
1.30951e-08
1.42554e-08
1.52241e-08
1.59551e-08
1.64125e-08
1.65731e-08
1.6429e-08
1.59872e-08
1.52701e-08
1.43129e-08
1.31611e-08
1.1867e-08
1.04858e-08
9.07119e-09
7.67193e-09
6.32851e-09
5.07054e-09
3.91504e-09
2.86576e-09
1.91348e-09
1.03739e-09
2.07364e-10
7.17788e-12
7.08307e-12
2.04669e-10
1.02442e-09
1.89022e-09
2.83219e-09
3.87135e-09
5.01736e-09
6.26706e-09
7.60401e-09
8.99918e-09
1.04126e-08
1.17958e-08
1.30951e-08
1.42554e-08
1.52241e-08
1.59551e-08
1.64125e-08
1.65731e-08
1.6429e-08
1.59872e-08
1.52701e-08
1.43129e-08
1.31611e-08
1.1867e-08
1.04858e-08
9.07119e-09
7.67193e-09
6.32851e-09
5.07054e-09
3.91504e-09
2.86576e-09
1.91348e-09
1.03739e-09
2.07364e-10
7.17788e-12
7.08307e-12
2.04669e-10
1.02442e-09
1.89022e-09
2.83219e-09
3.87135e-09
5.01736e-09
6.26706e-09
7.60401e-09
8.99918e-09
1.04126e-08
1.17958e-08
1.30951e-08
1.42554e-08
1.52241e-08
1.59551e-08
1.64125e-08
1.65731e-08
1.6429e-08
1.59872e-08
1.52701e-08
1.43129e-08
1.31611e-08
1.1867e-08
1.04858e-08
9.07119e-09
7.67193e-09
6.32851e-09
5.07054e-09
3.91504e-09
2.86576e-09
1.91348e-09
1.03739e-09
2.07364e-10
7.17788e-12
7.08307e-12
2.04669e-10
1.02442e-09
1.89022e-09
2.83219e-09
3.87135e-09
5.01736e-09
6.26706e-09
7.60401e-09
8.99918e-09
1.04126e-08
1.17958e-08
1.30951e-08
1.42554e-08
1.52241e-08
1.59551e-08
1.64125e-08
1.65731e-08
1.6429e-08
1.59872e-08
1.52701e-08
1.43129e-08
1.31611e-08
1.1867e-08
1.04858e-08
9.07119e-09
7.67193e-09
6.32851e-09
5.07054e-09
3.91504e-09
2.86576e-09
1.91348e-09
1.03739e-09
2.07364e-10
7.17788e-12
7.08307e-12
2.04669e-10
1.02442e-09
1.89022e-09
2.83219e-09
3.87135e-09
5.01736e-09
6.26706e-09
7.60401e-09
8.99918e-09
1.04126e-08
1.17958e-08
1.30951e-08
1.42554e-08
1.52241e-08
1.59551e-08
1.64125e-08
1.65731e-08
1.6429e-08
1.59872e-08
1.52701e-08
1.43129e-08
1.31611e-08
1.1867e-08
1.04858e-08
9.07119e-09
7.67193e-09
6.32851e-09
5.07054e-09
3.91504e-09
2.86576e-09
1.91348e-09
1.03739e-09
2.07364e-10
7.17788e-12
7.08307e-12
2.04669e-10
1.02442e-09
1.89022e-09
2.83219e-09
3.87135e-09
5.01736e-09
6.26706e-09
7.60401e-09
8.99918e-09
1.04126e-08
1.17958e-08
1.30951e-08
1.42554e-08
1.52241e-08
1.59551e-08
1.64125e-08
1.65731e-08
1.6429e-08
1.59872e-08
1.52701e-08
1.43129e-08
1.31611e-08
1.1867e-08
1.04858e-08
9.07119e-09
7.67193e-09
6.32851e-09
5.07054e-09
3.91504e-09
2.86576e-09
1.91348e-09
1.03739e-09
2.07364e-10
7.17788e-12
7.08307e-12
2.04669e-10
1.02442e-09
1.89022e-09
2.83219e-09
3.87135e-09
5.01736e-09
6.26706e-09
7.60401e-09
8.99918e-09
1.04126e-08
1.17958e-08
1.30951e-08
1.42554e-08
1.52241e-08
1.59551e-08
1.64125e-08
1.65731e-08
1.6429e-08
1.59872e-08
1.52701e-08
1.43129e-08
1.31611e-08
1.1867e-08
1.04858e-08
9.07119e-09
7.67193e-09
6.32851e-09
5.07054e-09
3.91504e-09
2.86576e-09
1.91348e-09
1.03739e-09
2.07364e-10
7.17788e-12
7.08307e-12
2.04669e-10
1.02442e-09
1.89022e-09
2.83219e-09
3.87135e-09
5.01736e-09
6.26706e-09
7.60401e-09
8.99918e-09
1.04126e-08
1.17958e-08
1.30951e-08
1.42554e-08
1.52241e-08
1.59551e-08
1.64125e-08
1.65731e-08
1.6429e-08
1.59872e-08
1.52701e-08
1.43129e-08
1.31611e-08
1.1867e-08
1.04858e-08
9.07119e-09
7.67193e-09
6.32851e-09
5.07054e-09
3.91504e-09
2.86576e-09
1.91348e-09
1.03739e-09
2.07364e-10
7.17788e-12
7.08307e-12
2.04669e-10
1.02442e-09
1.89022e-09
2.83219e-09
3.87135e-09
5.01736e-09
6.26706e-09
7.60401e-09
8.99918e-09
1.04126e-08
1.17958e-08
1.30951e-08
1.42554e-08
1.52241e-08
1.59551e-08
1.64125e-08
1.65731e-08
1.6429e-08
1.59872e-08
1.52701e-08
1.43129e-08
1.31611e-08
1.1867e-08
1.04858e-08
9.07119e-09
7.67193e-09
6.32851e-09
5.07054e-09
3.91504e-09
2.86576e-09
1.91348e-09
1.03739e-09
2.07364e-10
7.17788e-12
7.08307e-12
2.04669e-10
1.02442e-09
1.89022e-09
2.83219e-09
3.87135e-09
5.01736e-09
6.26706e-09
7.60401e-09
8.99918e-09
1.04126e-08
1.17958e-08
1.30951e-08
1.42554e-08
1.52241e-08
1.59551e-08
1.64125e-08
1.65731e-08
1.6429e-08
1.59872e-08
1.52701e-08
1.43129e-08
1.31611e-08
1.1867e-08
1.04858e-08
9.07119e-09
7.67193e-09
6.32851e-09
5.07054e-09
3.91504e-09
2.86576e-09
1.91348e-09
1.03739e-09
2.07364e-10
7.17788e-12
7.08307e-12
2.04669e-10
1.02442e-09
1.89022e-09
2.83219e-09
3.87135e-09
5.01736e-09
6.26706e-09
7.60401e-09
8.99918e-09
1.04126e-08
1.17958e-08
1.30951e-08
1.42554e-08
1.52241e-08
1.59551e-08
1.64125e-08
1.65731e-08
1.6429e-08
1.59872e-08
1.52701e-08
1.43129e-08
1.31611e-08
1.1867e-08
1.04858e-08
9.07119e-09
7.67193e-09
6.32851e-09
5.07054e-09
3.91504e-09
2.86576e-09
1.91348e-09
1.03739e-09
2.07364e-10
7.17788e-12
7.08307e-12
2.04669e-10
1.02442e-09
1.89022e-09
2.83219e-09
3.87135e-09
5.01736e-09
6.26706e-09
7.60401e-09
8.99918e-09
1.04126e-08
1.17958e-08
1.30951e-08
1.42554e-08
1.52241e-08
1.59551e-08
1.64125e-08
1.65731e-08
1.6429e-08
1.59872e-08
1.52701e-08
1.43129e-08
1.31611e-08
1.1867e-08
1.04858e-08
9.07119e-09
7.67193e-09
6.32851e-09
5.07054e-09
3.91504e-09
2.86576e-09
1.91348e-09
1.03739e-09
2.07364e-10
7.17788e-12
7.08307e-12
2.04669e-10
1.02442e-09
1.89022e-09
2.83219e-09
3.87135e-09
5.01736e-09
6.26706e-09
7.60401e-09
8.99918e-09
1.04126e-08
1.17958e-08
1.30951e-08
1.42554e-08
1.52241e-08
1.59551e-08
1.64125e-08
1.65731e-08
1.6429e-08
1.59872e-08
1.52701e-08
1.43129e-08
1.31611e-08
1.1867e-08
1.04858e-08
9.07119e-09
7.67193e-09
6.32851e-09
5.07054e-09
3.91504e-09
2.86576e-09
1.91348e-09
1.03739e-09
2.07364e-10
7.17788e-12
7.08307e-12
2.04669e-10
1.02442e-09
1.89022e-09
2.83219e-09
3.87135e-09
5.01736e-09
6.26706e-09
7.60401e-09
8.99918e-09
1.04126e-08
1.17958e-08
1.30951e-08
1.42554e-08
1.52241e-08
1.59551e-08
1.64125e-08
1.65731e-08
1.6429e-08
1.59872e-08
1.52701e-08
1.43129e-08
1.31611e-08
1.1867e-08
1.04858e-08
9.07119e-09
7.67193e-09
6.32851e-09
5.07054e-09
3.91504e-09
2.86576e-09
1.91348e-09
1.03739e-09
2.07364e-10
7.17788e-12
7.08307e-12
2.04669e-10
1.02442e-09
1.89022e-09
2.83219e-09
3.87135e-09
5.01736e-09
6.26706e-09
7.60401e-09
8.99918e-09
1.04126e-08
1.17958e-08
1.30951e-08
1.42554e-08
1.52241e-08
1.59551e-08
1.64125e-08
1.65731e-08
1.6429e-08
1.59872e-08
1.52701e-08
1.43129e-08
1.31611e-08
1.1867e-08
1.04858e-08
9.07119e-09
7.67193e-09
6.32851e-09
5.07054e-09
3.91504e-09
2.86576e-09
1.91348e-09
1.03739e-09
2.07364e-10
7.17788e-12
7.08307e-12
2.04669e-10
1.02442e-09
1.89022e-09
2.83219e-09
3.87135e-09
5.01736e-09
6.26706e-09
7.60401e-09
8.99918e-09
1.04126e-08
1.17958e-08
1.30951e-08
1.42554e-08
1.52241e-08
1.59551e-08
1.64125e-08
1.65731e-08
1.6429e-08
1.59872e-08
1.52701e-08
1.43129e-08
1.31611e-08
1.1867e-08
1.04858e-08
9.07119e-09
7.67193e-09
6.32851e-09
5.07054e-09
3.91504e-09
2.86576e-09
1.91348e-09
1.03739e-09
2.07364e-10
7.17788e-12
7.08307e-12
2.04669e-10
1.02442e-09
1.89022e-09
2.83219e-09
3.87135e-09
5.01736e-09
6.26706e-09
7.60401e-09
8.99918e-09
1.04126e-08
1.17958e-08
1.30951e-08
1.42554e-08
1.52241e-08
1.59551e-08
1.64125e-08
1.65731e-08
1.6429e-08
1.59872e-08
1.52701e-08
1.43129e-08
1.31611e-08
1.1867e-08
1.04858e-08
9.07119e-09
7.67193e-09
6.32851e-09
5.07054e-09
3.91504e-09
2.86576e-09
1.91348e-09
1.03739e-09
2.07364e-10
7.17788e-12
7.08307e-12
2.04669e-10
1.02442e-09
1.89022e-09
2.83219e-09
3.87135e-09
5.01736e-09
6.26706e-09
7.60401e-09
8.99918e-09
1.04126e-08
1.17958e-08
1.30951e-08
1.42554e-08
1.52241e-08
1.59551e-08
1.64125e-08
1.65731e-08
1.6429e-08
1.59872e-08
1.52701e-08
1.43129e-08
1.31611e-08
1.1867e-08
1.04858e-08
9.07119e-09
7.67193e-09
6.32851e-09
5.07054e-09
3.91504e-09
2.86576e-09
1.91348e-09
1.03739e-09
2.07364e-10
7.17788e-12
7.08307e-12
2.04669e-10
1.02442e-09
1.89022e-09
2.83219e-09
3.87135e-09
5.01736e-09
6.26706e-09
7.60401e-09
8.99918e-09
1.04126e-08
1.17958e-08
1.30951e-08
1.42554e-08
1.52241e-08
1.59551e-08
1.64125e-08
1.65731e-08
1.6429e-08
1.59872e-08
1.52701e-08
1.43129e-08
1.31611e-08
1.1867e-08
1.04858e-08
9.07119e-09
7.67193e-09
6.32851e-09
5.07054e-09
3.91504e-09
2.86576e-09
1.91348e-09
1.03739e-09
2.07364e-10
7.17788e-12
7.08307e-12
2.04669e-10
1.02442e-09
1.89022e-09
2.83219e-09
3.87135e-09
5.01736e-09
6.26706e-09
7.60401e-09
8.99918e-09
1.04126e-08
1.17958e-08
1.30951e-08
1.42554e-08
1.52241e-08
1.59551e-08
1.64125e-08
1.65731e-08
1.6429e-08
1.59872e-08
1.52701e-08
1.43129e-08
1.31611e-08
1.1867e-08
1.04858e-08
9.07119e-09
7.67193e-09
6.32851e-09
5.07054e-09
3.91504e-09
2.86576e-09
1.91348e-09
1.03739e-09
2.07364e-10
7.17788e-12
7.08307e-12
2.04669e-10
1.02442e-09
1.89022e-09
2.83219e-09
3.87135e-09
5.01736e-09
6.26706e-09
7.60401e-09
8.99918e-09
1.04126e-08
1.17958e-08
1.30951e-08
1.42554e-08
1.52241e-08
1.59551e-08
1.64125e-08
1.65731e-08
1.6429e-08
1.59872e-08
1.52701e-08
1.43129e-08
1.31611e-08
1.1867e-08
1.04858e-08
9.07119e-09
7.67193e-09
6.32851e-09
5.07054e-09
3.91504e-09
2.86576e-09
1.91348e-09
1.03739e-09
2.07364e-10
7.17788e-12
7.08307e-12
2.04669e-10
1.02442e-09
1.89022e-09
2.83219e-09
3.87135e-09
5.01736e-09
6.26706e-09
7.60401e-09
8.99918e-09
1.04126e-08
1.17958e-08
1.30951e-08
1.42554e-08
1.52241e-08
1.59551e-08
1.64125e-08
1.65731e-08
1.6429e-08
1.59872e-08
1.52701e-08
1.43129e-08
1.31611e-08
1.1867e-08
1.04858e-08
9.07119e-09
7.67193e-09
6.32851e-09
5.07054e-09
3.91504e-09
2.86576e-09
1.91348e-09
1.03739e-09
2.07364e-10
7.17788e-12
7.08307e-12
2.04669e-10
1.02442e-09
1.89022e-09
2.83219e-09
3.87135e-09
5.01736e-09
6.26706e-09
7.60401e-09
8.99918e-09
1.04126e-08
1.17958e-08
1.30951e-08
1.42554e-08
1.52241e-08
1.59551e-08
1.64125e-08
1.65731e-08
1.6429e-08
1.59872e-08
1.52701e-08
1.43129e-08
1.31611e-08
1.1867e-08
1.04858e-08
9.07119e-09
7.67193e-09
6.32851e-09
5.07054e-09
3.91504e-09
2.86576e-09
1.91348e-09
1.03739e-09
2.07364e-10
7.17788e-12
7.08307e-12
2.04669e-10
1.02442e-09
1.89022e-09
2.83219e-09
3.87135e-09
5.01736e-09
6.26706e-09
7.60401e-09
8.99918e-09
1.04126e-08
1.17958e-08
1.30951e-08
1.42554e-08
1.52241e-08
1.59551e-08
1.64125e-08
1.65731e-08
1.6429e-08
1.59872e-08
1.52701e-08
1.43129e-08
1.31611e-08
1.1867e-08
1.04858e-08
9.07119e-09
7.67193e-09
6.32851e-09
5.07054e-09
3.91504e-09
2.86576e-09
1.91348e-09
1.03739e-09
2.07364e-10
7.17788e-12
7.08307e-12
2.04669e-10
1.02442e-09
1.89022e-09
2.83219e-09
3.87135e-09
5.01736e-09
6.26706e-09
7.60401e-09
8.99918e-09
1.04126e-08
1.17958e-08
1.30951e-08
1.42554e-08
1.52241e-08
1.59551e-08
1.64125e-08
1.65731e-08
1.6429e-08
1.59872e-08
1.52701e-08
1.43129e-08
1.31611e-08
1.1867e-08
1.04858e-08
9.07119e-09
7.67193e-09
6.32851e-09
5.07054e-09
3.91504e-09
2.86576e-09
1.91348e-09
1.03739e-09
2.07364e-10
7.17788e-12
7.08307e-12
2.04669e-10
1.02442e-09
1.89022e-09
2.83219e-09
3.87135e-09
5.01736e-09
6.26706e-09
7.60401e-09
8.99918e-09
1.04126e-08
1.17958e-08
1.30951e-08
1.42554e-08
1.52241e-08
1.59551e-08
1.64125e-08
1.65731e-08
1.6429e-08
1.59872e-08
1.52701e-08
1.43129e-08
1.31611e-08
1.1867e-08
1.04858e-08
9.07119e-09
7.67193e-09
6.32851e-09
5.07054e-09
3.91504e-09
2.86576e-09
1.91348e-09
1.03739e-09
2.07364e-10
7.17788e-12
7.08307e-12
2.04669e-10
1.02442e-09
1.89022e-09
2.83219e-09
3.87135e-09
5.01736e-09
6.26706e-09
7.60401e-09
8.99918e-09
1.04126e-08
1.17958e-08
1.30951e-08
1.42554e-08
1.52241e-08
1.59551e-08
1.64125e-08
1.65731e-08
1.6429e-08
1.59872e-08
1.52701e-08
1.43129e-08
1.31611e-08
1.1867e-08
1.04858e-08
9.07119e-09
7.67193e-09
6.32851e-09
5.07054e-09
3.91504e-09
2.86576e-09
1.91348e-09
1.03739e-09
2.07364e-10
7.17788e-12
7.08307e-12
2.04669e-10
1.02442e-09
1.89022e-09
2.83219e-09
3.87135e-09
5.01736e-09
6.26706e-09
7.60401e-09
8.99918e-09
1.04126e-08
1.17958e-08
1.30951e-08
1.42554e-08
1.52241e-08
1.59551e-08
1.64125e-08
1.65731e-08
1.6429e-08
1.59872e-08
1.52701e-08
1.43129e-08
1.31611e-08
1.1867e-08
1.04858e-08
9.07119e-09
7.67193e-09
6.32851e-09
5.07054e-09
3.91504e-09
2.86576e-09
1.91348e-09
1.03739e-09
2.07364e-10
7.17788e-12
7.08307e-12
2.04669e-10
1.02442e-09
1.89022e-09
2.83219e-09
3.87135e-09
5.01736e-09
6.26706e-09
7.60401e-09
8.99918e-09
1.04126e-08
1.17958e-08
1.30951e-08
1.42554e-08
1.52241e-08
1.59551e-08
1.64125e-08
1.65731e-08
1.6429e-08
1.59872e-08
1.52701e-08
1.43129e-08
1.31611e-08
1.1867e-08
1.04858e-08
9.07119e-09
7.67193e-09
6.32851e-09
5.07054e-09
3.91504e-09
2.86576e-09
1.91348e-09
1.03739e-09
2.07364e-10
7.17788e-12
7.08307e-12
2.04669e-10
1.02442e-09
1.89022e-09
2.83219e-09
3.87135e-09
5.01736e-09
6.26706e-09
7.60401e-09
8.99918e-09
1.04126e-08
1.17958e-08
1.30951e-08
1.42554e-08
1.52241e-08
1.59551e-08
1.64125e-08
1.65731e-08
1.6429e-08
1.59872e-08
1.52701e-08
1.43129e-08
1.31611e-08
1.1867e-08
1.04858e-08
9.07119e-09
7.67193e-09
6.32851e-09
5.07054e-09
3.91504e-09
2.86576e-09
1.91348e-09
1.03739e-09
2.07364e-10
7.17788e-12
7.08307e-12
2.04669e-10
1.02442e-09
1.89022e-09
2.83219e-09
3.87135e-09
5.01736e-09
6.26706e-09
7.60401e-09
8.99918e-09
1.04126e-08
1.17958e-08
1.30951e-08
1.42554e-08
1.52241e-08
1.59551e-08
1.64125e-08
1.65731e-08
1.6429e-08
1.59872e-08
1.52701e-08
1.43129e-08
1.31611e-08
1.1867e-08
1.04858e-08
9.07119e-09
7.67193e-09
6.32851e-09
5.07054e-09
3.91504e-09
2.86576e-09
1.91348e-09
1.03739e-09
2.07364e-10
7.17788e-12
7.08307e-12
2.04669e-10
1.02442e-09
1.89022e-09
2.83219e-09
3.87135e-09
5.01736e-09
6.26706e-09
7.60401e-09
8.99918e-09
1.04126e-08
1.17958e-08
1.30951e-08
1.42554e-08
1.52241e-08
1.59551e-08
1.64125e-08
1.65731e-08
1.6429e-08
1.59872e-08
1.52701e-08
1.43129e-08
1.31611e-08
1.1867e-08
1.04858e-08
9.07119e-09
7.67193e-09
6.32851e-09
5.07054e-09
3.91504e-09
2.86576e-09
1.91348e-09
1.03739e-09
2.07364e-10
7.17788e-12
7.08307e-12
2.04669e-10
1.02442e-09
1.89022e-09
2.83219e-09
3.87135e-09
5.01736e-09
6.26706e-09
7.60401e-09
8.99918e-09
1.04126e-08
1.17958e-08
1.30951e-08
1.42554e-08
1.52241e-08
1.59551e-08
1.64125e-08
1.65731e-08
1.6429e-08
1.59872e-08
1.52701e-08
1.43129e-08
1.31611e-08
1.1867e-08
1.04858e-08
9.07119e-09
7.67193e-09
6.32851e-09
5.07054e-09
3.91504e-09
2.86576e-09
1.91348e-09
1.03739e-09
2.07364e-10
7.17788e-12
7.08307e-12
2.04669e-10
1.02442e-09
1.89022e-09
2.83219e-09
3.87135e-09
5.01736e-09
6.26706e-09
7.60401e-09
8.99918e-09
1.04126e-08
1.17958e-08
1.30951e-08
1.42554e-08
1.52241e-08
1.59551e-08
1.64125e-08
1.65731e-08
1.6429e-08
1.59872e-08
1.52701e-08
1.43129e-08
1.31611e-08
1.1867e-08
1.04858e-08
9.07119e-09
7.67193e-09
6.32851e-09
5.07054e-09
3.91504e-09
2.86576e-09
1.91348e-09
1.03739e-09
2.07364e-10
7.17788e-12
7.08307e-12
2.04669e-10
1.02442e-09
1.89022e-09
2.83219e-09
3.87135e-09
5.01736e-09
6.26706e-09
7.60401e-09
8.99918e-09
1.04126e-08
1.17958e-08
1.30951e-08
1.42554e-08
1.52241e-08
1.59551e-08
1.64125e-08
1.65731e-08
1.6429e-08
1.59872e-08
1.52701e-08
1.43129e-08
1.31611e-08
1.1867e-08
1.04858e-08
9.07119e-09
7.67193e-09
6.32851e-09
5.07054e-09
3.91504e-09
2.86576e-09
1.91348e-09
1.03739e-09
2.07364e-10
7.17788e-12
7.08307e-12
2.04669e-10
1.02442e-09
1.89022e-09
2.83219e-09
3.87135e-09
5.01736e-09
6.26706e-09
7.60401e-09
8.99918e-09
1.04126e-08
1.17958e-08
1.30951e-08
1.42554e-08
1.52241e-08
1.59551e-08
1.64125e-08
1.65731e-08
1.6429e-08
1.59872e-08
1.52701e-08
1.43129e-08
1.31611e-08
1.1867e-08
1.04858e-08
9.07119e-09
7.67193e-09
6.32851e-09
5.07054e-09
3.91504e-09
2.86576e-09
1.91348e-09
1.03739e-09
2.07364e-10
7.17788e-12
7.08307e-12
2.04669e-10
1.02442e-09
1.89022e-09
2.83219e-09
3.87135e-09
5.01736e-09
6.26706e-09
7.60401e-09
8.99918e-09
1.04126e-08
1.17958e-08
1.30951e-08
1.42554e-08
1.52241e-08
1.59551e-08
1.64125e-08
1.65731e-08
1.6429e-08
1.59872e-08
1.52701e-08
1.43129e-08
1.31611e-08
1.1867e-08
1.04858e-08
9.07119e-09
7.67193e-09
6.32851e-09
5.07054e-09
3.91504e-09
2.86576e-09
1.91348e-09
1.03739e-09
2.07364e-10
7.17788e-12
7.08307e-12
2.04669e-10
1.02442e-09
1.89022e-09
2.83219e-09
3.87135e-09
5.01736e-09
6.26706e-09
7.60401e-09
8.99918e-09
1.04126e-08
1.17958e-08
1.30951e-08
1.42554e-08
1.52241e-08
1.59551e-08
1.64125e-08
1.65731e-08
1.6429e-08
1.59872e-08
1.52701e-08
1.43129e-08
1.31611e-08
1.1867e-08
1.04858e-08
9.07119e-09
7.67193e-09
6.32851e-09
5.07054e-09
3.91504e-09
2.86576e-09
1.91348e-09
1.03739e-09
2.07364e-10
7.17788e-12
7.08307e-12
2.04669e-10
1.02442e-09
1.89022e-09
2.83219e-09
3.87135e-09
5.01736e-09
6.26706e-09
7.60401e-09
8.99918e-09
1.04126e-08
1.17958e-08
1.30951e-08
1.42554e-08
1.52241e-08
1.59551e-08
1.64125e-08
1.65731e-08
1.6429e-08
1.59872e-08
1.52701e-08
1.43129e-08
1.31611e-08
1.1867e-08
1.04858e-08
9.07119e-09
7.67193e-09
6.32851e-09
5.07054e-09
3.91504e-09
2.86576e-09
1.91348e-09
1.03739e-09
2.07364e-10
7.17788e-12
7.08307e-12
2.04669e-10
1.02442e-09
1.89022e-09
2.83219e-09
3.87135e-09
5.01736e-09
6.26706e-09
7.60401e-09
8.99918e-09
1.04126e-08
1.17958e-08
1.30951e-08
1.42554e-08
1.52241e-08
1.59551e-08
1.64125e-08
1.65731e-08
1.6429e-08
1.59872e-08
1.52701e-08
1.43129e-08
1.31611e-08
1.1867e-08
1.04858e-08
9.07119e-09
7.67193e-09
6.32851e-09
5.07054e-09
3.91504e-09
2.86576e-09
1.91348e-09
1.03739e-09
2.07364e-10
7.17788e-12
7.08307e-12
2.04669e-10
1.02442e-09
1.89022e-09
2.83219e-09
3.87135e-09
5.01736e-09
6.26706e-09
7.60401e-09
8.99918e-09
1.04126e-08
1.17958e-08
1.30951e-08
1.42554e-08
1.52241e-08
1.59551e-08
1.64125e-08
1.65731e-08
1.6429e-08
1.59872e-08
1.52701e-08
1.43129e-08
1.31611e-08
1.1867e-08
1.04858e-08
9.07119e-09
7.67193e-09
6.32851e-09
5.07054e-09
3.91504e-09
2.86576e-09
1.91348e-09
1.03739e-09
2.07364e-10
7.17788e-12
7.08307e-12
2.04669e-10
1.02442e-09
1.89022e-09
2.83219e-09
3.87135e-09
5.01736e-09
6.26706e-09
7.60401e-09
8.99918e-09
1.04126e-08
1.17958e-08
1.30951e-08
1.42554e-08
1.52241e-08
1.59551e-08
1.64125e-08
1.65731e-08
1.6429e-08
1.59872e-08
1.52701e-08
1.43129e-08
1.31611e-08
1.1867e-08
1.04858e-08
9.07119e-09
7.67193e-09
6.32851e-09
5.07054e-09
3.91504e-09
2.86576e-09
1.91348e-09
1.03739e-09
2.07364e-10
7.17788e-12
7.08307e-12
2.04669e-10
1.02442e-09
1.89022e-09
2.83219e-09
3.87135e-09
5.01736e-09
6.26706e-09
7.60401e-09
8.99918e-09
1.04126e-08
1.17958e-08
1.30951e-08
1.42554e-08
1.52241e-08
1.59551e-08
1.64125e-08
1.65731e-08
1.6429e-08
1.59872e-08
1.52701e-08
1.43129e-08
1.31611e-08
1.1867e-08
1.04858e-08
9.07119e-09
7.67193e-09
6.32851e-09
5.07054e-09
3.91504e-09
2.86576e-09
1.91348e-09
1.03739e-09
2.07364e-10
7.17788e-12
7.08307e-12
2.04669e-10
1.02442e-09
1.89022e-09
2.83219e-09
3.87135e-09
5.01736e-09
6.26706e-09
7.60401e-09
8.99918e-09
1.04126e-08
1.17958e-08
1.30951e-08
1.42554e-08
1.52241e-08
1.59551e-08
1.64125e-08
1.65731e-08
1.6429e-08
1.59872e-08
1.52701e-08
1.43129e-08
1.31611e-08
1.1867e-08
1.04858e-08
9.07119e-09
7.67193e-09
6.32851e-09
5.07054e-09
3.91504e-09
2.86576e-09
1.91348e-09
1.03739e-09
2.07364e-10
7.17788e-12
7.08307e-12
2.04669e-10
1.02442e-09
1.89022e-09
2.83219e-09
3.87135e-09
5.01736e-09
6.26706e-09
7.60401e-09
8.99918e-09
1.04126e-08
1.17958e-08
1.30951e-08
1.42554e-08
1.52241e-08
1.59551e-08
1.64125e-08
1.65731e-08
1.6429e-08
1.59872e-08
1.52701e-08
1.43129e-08
1.31611e-08
1.1867e-08
1.04858e-08
9.07119e-09
7.67193e-09
6.32851e-09
5.07054e-09
3.91504e-09
2.86576e-09
1.91348e-09
1.03739e-09
2.07364e-10
7.17788e-12
7.08307e-12
2.04669e-10
1.02442e-09
1.89022e-09
2.83219e-09
3.87135e-09
5.01736e-09
6.26706e-09
7.60401e-09
8.99918e-09
1.04126e-08
1.17958e-08
1.30951e-08
1.42554e-08
1.52241e-08
1.59551e-08
1.64125e-08
1.65731e-08
1.6429e-08
1.59872e-08
1.52701e-08
1.43129e-08
1.31611e-08
1.1867e-08
1.04858e-08
9.07119e-09
7.67193e-09
6.32851e-09
5.07054e-09
3.91504e-09
2.86576e-09
1.91348e-09
1.03739e-09
2.07364e-10
7.17788e-12
7.08307e-12
2.04669e-10
1.02442e-09
1.89022e-09
2.83219e-09
3.87135e-09
5.01736e-09
6.26706e-09
7.60401e-09
8.99918e-09
1.04126e-08
1.17958e-08
1.30951e-08
1.42554e-08
1.52241e-08
1.59551e-08
1.64125e-08
1.65731e-08
1.6429e-08
1.59872e-08
1.52701e-08
1.43129e-08
1.31611e-08
1.1867e-08
1.04858e-08
9.07119e-09
7.67193e-09
6.32851e-09
5.07054e-09
3.91504e-09
2.86576e-09
1.91348e-09
1.03739e-09
2.07364e-10
7.17788e-12
7.08307e-12
2.04669e-10
1.02442e-09
1.89022e-09
2.83219e-09
3.87135e-09
5.01736e-09
6.26706e-09
7.60401e-09
8.99918e-09
1.04126e-08
1.17958e-08
1.30951e-08
1.42554e-08
1.52241e-08
1.59551e-08
1.64125e-08
1.65731e-08
1.6429e-08
1.59872e-08
1.52701e-08
1.43129e-08
1.31611e-08
1.1867e-08
1.04858e-08
9.07119e-09
7.67193e-09
6.32851e-09
5.07054e-09
3.91504e-09
2.86576e-09
1.91348e-09
1.03739e-09
2.07364e-10
7.17788e-12
7.08307e-12
2.04669e-10
1.02442e-09
1.89022e-09
2.83219e-09
3.87135e-09
5.01736e-09
6.26706e-09