/*--------------------------------*- C++ -*----------------------------------*\
  =========                 |
  \\      /  F ield         | OpenFOAM: The Open Source CFD Toolbox
   \\    /   O peration     | Website:  https://openfoam.org
    \\  /    A nd           | Version:  13
     \\/     M anipulation  |
\*---------------------------------------------------------------------------*/
FoamFile
{
    format      ascii;
    class       volScalarField;
    location    "290";
    object      nut;
}
// * * * * * * * * * * * * * * * * * * * * * * * * * * * * * * * * * * * * * //

dimensions      [0 2 -1 0 0 0 0];

internalField   nonuniform List<scalar> 
78750
(
7.12456e-19
1.82102e-16
4.10375e-15
7.44342e-15
1.0963e-14
1.4688e-14
1.86204e-14
2.27322e-14
2.69655e-14
3.12349e-14
3.54337e-14
3.94403e-14
4.31266e-14
4.6366e-14
4.90414e-14
5.10525e-14
5.2322e-14
5.27998e-14
5.24669e-14
5.13359e-14
4.94505e-14
4.68827e-14
4.37287e-14
4.01026e-14
3.61297e-14
3.19382e-14
2.76511e-14
2.3378e-14
1.92074e-14
1.52008e-14
1.13885e-14
7.76867e-15
4.31029e-15
1.92892e-16
7.58045e-19
1.54524e-17
4.01185e-15
5.66257e-13
1.03449e-12
1.52742e-12
2.05048e-12
2.60472e-12
3.18641e-12
3.78723e-12
4.39481e-12
4.99357e-12
5.56581e-12
6.09282e-12
6.55613e-12
6.93867e-12
7.22581e-12
7.40628e-12
7.47286e-12
7.42284e-12
7.25815e-12
6.98527e-12
6.61483e-12
6.16096e-12
5.64039e-12
5.07143e-12
4.47282e-12
3.86246e-12
3.25625e-12
2.66698e-12
2.10341e-12
1.56966e-12
1.06497e-12
5.83959e-13
4.14419e-15
1.59724e-17
4.28493e-17
1.1128e-14
1.57396e-12
2.89239e-12
4.30788e-12
5.84535e-12
7.51423e-12
9.30678e-12
1.1198e-11
1.31467e-11
1.50988e-11
1.69904e-11
1.87525e-11
2.03155e-11
2.16145e-11
2.25931e-11
2.32078e-11
2.34309e-11
2.32519e-11
2.2679e-11
2.17378e-11
2.047e-11
1.89306e-11
1.71839e-11
1.52989e-11
1.33449e-11
1.13867e-11
9.47964e-12
7.66601e-12
5.97231e-12
4.40752e-12
2.96307e-12
1.61436e-12
1.1427e-14
4.40205e-17
8.18584e-17
2.12595e-14
3.00915e-12
5.54184e-12
8.28067e-12
1.12809e-11
1.45663e-11
1.81252e-11
2.19098e-11
2.5838e-11
2.97987e-11
3.36586e-11
3.72718e-11
4.04897e-11
4.31716e-11
4.51954e-11
4.64659e-11
4.69223e-11
4.65424e-11
4.53443e-11
4.33851e-11
4.07567e-11
3.75789e-11
3.3991e-11
3.01412e-11
2.6176e-11
2.22302e-11
1.84171e-11
1.48211e-11
1.14928e-11
8.44582e-12
5.65817e-12
3.07518e-12
2.17464e-14
8.3764e-17
1.25867e-16
3.26875e-14
4.62748e-12
8.52749e-12
1.27537e-11
1.73945e-11
2.24892e-11
2.80211e-11
3.39169e-11
4.00486e-11
4.6242e-11
5.22872e-11
5.79534e-11
6.30047e-11
6.72175e-11
7.03968e-11
7.23909e-11
7.31027e-11
7.2497e-11
7.06033e-11
6.75135e-11
6.33747e-11
5.83787e-11
5.27472e-11
4.67155e-11
4.05154e-11
3.43587e-11
2.84229e-11
2.28392e-11
1.76847e-11
1.29791e-11
8.68565e-12
4.7169e-12
3.33458e-14
1.28443e-16
1.68848e-16
4.3848e-14
6.20757e-12
1.14409e-11
1.71149e-11
2.33495e-11
3.0198e-11
3.7639e-11
4.55733e-11
5.38291e-11
6.21712e-11
7.03164e-11
7.79527e-11
8.47611e-11
9.04393e-11
9.47234e-11
9.74081e-11
9.83623e-11
9.75386e-11
9.49772e-11
9.0803e-11
8.52158e-11
7.84752e-11
7.08815e-11
6.27527e-11
5.44021e-11
4.61154e-11
3.81314e-11
3.06265e-11
2.3704e-11
1.73896e-11
1.16331e-11
6.31594e-12
4.46452e-14
1.71968e-16
2.06697e-16
5.36772e-14
7.59914e-12
1.40059e-11
2.09529e-11
2.85874e-11
3.6975e-11
4.60892e-11
5.58088e-11
6.5923e-11
7.61434e-11
8.61228e-11
9.54785e-11
1.0382e-10
1.10775e-10
1.16021e-10
1.19307e-10
1.20471e-10
1.19455e-10
1.16311e-10
1.1119e-10
1.04338e-10
9.60745e-11
8.67672e-11
7.68064e-11
6.65761e-11
5.64264e-11
4.66499e-11
3.74623e-11
2.89901e-11
2.12645e-11
1.42234e-11
7.72144e-12
5.45764e-14
2.10217e-16
2.37176e-16
6.1595e-14
8.72029e-12
1.60722e-11
2.40442e-11
3.28054e-11
4.24309e-11
5.28906e-11
6.40452e-11
7.56525e-11
8.73816e-11
9.88337e-11
1.0957e-10
1.1914e-10
1.2712e-10
1.33137e-10
1.36904e-10
1.38235e-10
1.37065e-10
1.33451e-10
1.2757e-10
1.19703e-10
1.10216e-10
9.95326e-11
8.81006e-11
7.63607e-11
6.47146e-11
5.34979e-11
4.29584e-11
3.32407e-11
2.43805e-11
1.63065e-11
8.85179e-12
6.25615e-14
2.4096e-16
2.59731e-16
6.7457e-14
9.55059e-12
1.76025e-11
2.63334e-11
3.59286e-11
4.64705e-11
5.7926e-11
7.01424e-11
8.28546e-11
9.56997e-11
1.08241e-10
1.19998e-10
1.30477e-10
1.39214e-10
1.45802e-10
1.49923e-10
1.51378e-10
1.50092e-10
1.46131e-10
1.39686e-10
1.31067e-10
1.20675e-10
1.08974e-10
9.64533e-11
8.35966e-11
7.08436e-11
5.85619e-11
4.70224e-11
3.63836e-11
2.66845e-11
1.78467e-11
9.68747e-12
6.84628e-14
2.63668e-16
2.75113e-16
7.14574e-14
1.01174e-11
1.86472e-11
2.78962e-11
3.80608e-11
4.92284e-11
6.13636e-11
7.43049e-11
8.77712e-11
1.01378e-10
1.14663e-10
1.27116e-10
1.38216e-10
1.47469e-10
1.54445e-10
1.58809e-10
1.60347e-10
1.58982e-10
1.54783e-10
1.47953e-10
1.38821e-10
1.27811e-10
1.15414e-10
1.02151e-10
8.85318e-11
7.50236e-11
6.20151e-11
4.97935e-11
3.85265e-11
2.82551e-11
1.88966e-11
1.02571e-11
7.24831e-14
2.79128e-16
2.84812e-16
7.39817e-14
1.04753e-11
1.93068e-11
2.8883e-11
3.94071e-11
5.09697e-11
6.35341e-11
7.69332e-11
9.08756e-11
1.04964e-10
1.18718e-10
1.31611e-10
1.43102e-10
1.52682e-10
1.59903e-10
1.64419e-10
1.66009e-10
1.64594e-10
1.60244e-10
1.53171e-10
1.43714e-10
1.32314e-10
1.19478e-10
1.05745e-10
9.16453e-11
7.76602e-11
6.41931e-11
5.1541e-11
3.98777e-11
2.92454e-11
1.95585e-11
1.06161e-11
7.50159e-14
2.8886e-16
2.90487e-16
7.546e-14
1.0685e-11
1.96933e-11
2.94612e-11
4.0196e-11
5.19901e-11
6.48062e-11
7.84735e-11
9.26951e-11
1.07065e-10
1.21095e-10
1.34245e-10
1.45966e-10
1.55736e-10
1.63101e-10
1.67706e-10
1.69327e-10
1.67883e-10
1.63444e-10
1.56228e-10
1.46581e-10
1.34952e-10
1.21858e-10
1.07851e-10
9.34686e-11
7.92041e-11
6.54682e-11
5.2564e-11
4.06685e-11
2.9825e-11
1.99458e-11
1.08261e-11
7.64969e-14
2.94546e-16
2.9358e-16
7.62666e-14
1.07995e-11
1.99043e-11
2.97769e-11
4.06268e-11
5.25473e-11
6.55008e-11
7.93147e-11
9.36888e-11
1.08213e-10
1.22392e-10
1.35684e-10
1.4753e-10
1.57405e-10
1.64848e-10
1.69502e-10
1.71139e-10
1.69678e-10
1.65191e-10
1.57897e-10
1.48146e-10
1.36391e-10
1.23158e-10
1.09e-10
9.44635e-11
8.00464e-11
6.61638e-11
5.3122e-11
4.10999e-11
3.0141e-11
2.0157e-11
1.09407e-11
7.73038e-14
2.97641e-16
2.95157e-16
7.66782e-14
1.08579e-11
2.00121e-11
2.99381e-11
4.08468e-11
5.2832e-11
6.58556e-11
7.97444e-11
9.41963e-11
1.08799e-10
1.23056e-10
1.36419e-10
1.48329e-10
1.58257e-10
1.6574e-10
1.70419e-10
1.72065e-10
1.70596e-10
1.66084e-10
1.5875e-10
1.48945e-10
1.37127e-10
1.23821e-10
1.09586e-10
9.49713e-11
8.04763e-11
6.65188e-11
5.34067e-11
4.13199e-11
3.03023e-11
2.02647e-11
1.09991e-11
7.7715e-14
2.99216e-16
2.95912e-16
7.68754e-14
1.0886e-11
2.00638e-11
3.00154e-11
4.09523e-11
5.29684e-11
6.60258e-11
7.99504e-11
9.44398e-11
1.0908e-10
1.23374e-10
1.36771e-10
1.48713e-10
1.58666e-10
1.66168e-10
1.70859e-10
1.72509e-10
1.71036e-10
1.66512e-10
1.59159e-10
1.49329e-10
1.37479e-10
1.24139e-10
1.09867e-10
9.52148e-11
8.06824e-11
6.6689e-11
5.35432e-11
4.14253e-11
3.03795e-11
2.03163e-11
1.1027e-11
7.79118e-14
2.9997e-16
2.96252e-16
7.69644e-14
1.08986e-11
2.00871e-11
3.00504e-11
4.1e-11
5.30301e-11
6.61027e-11
8.00436e-11
9.45498e-11
1.09207e-10
1.23517e-10
1.36931e-10
1.48886e-10
1.58851e-10
1.66361e-10
1.71058e-10
1.72709e-10
1.71234e-10
1.66705e-10
1.59343e-10
1.49502e-10
1.37639e-10
1.24283e-10
1.09995e-10
9.53247e-11
8.07754e-11
6.67658e-11
5.36048e-11
4.14729e-11
3.04143e-11
2.03396e-11
1.10397e-11
7.80005e-14
3.00309e-16
2.96397e-16
7.70024e-14
1.0904e-11
2.00971e-11
3.00653e-11
4.10203e-11
5.30564e-11
6.61355e-11
8.00834e-11
9.45968e-11
1.09262e-10
1.23579e-10
1.36999e-10
1.4896e-10
1.5893e-10
1.66444e-10
1.71143e-10
1.72795e-10
1.71319e-10
1.66788e-10
1.59422e-10
1.49576e-10
1.37707e-10
1.24344e-10
1.10049e-10
9.53717e-11
8.08152e-11
6.67986e-11
5.3631e-11
4.14932e-11
3.04292e-11
2.03495e-11
1.10451e-11
7.80384e-14
3.00453e-16
2.96456e-16
7.70178e-14
1.09062e-11
2.01011e-11
3.00713e-11
4.10286e-11
5.30671e-11
6.61488e-11
8.00995e-11
9.46159e-11
1.09284e-10
1.23604e-10
1.37026e-10
1.4899e-10
1.58962e-10
1.66478e-10
1.71177e-10
1.7283e-10
1.71354e-10
1.66821e-10
1.59454e-10
1.49606e-10
1.37734e-10
1.24369e-10
1.10071e-10
9.53907e-11
8.08312e-11
6.68118e-11
5.36417e-11
4.15015e-11
3.04352e-11
2.03536e-11
1.10472e-11
7.80537e-14
3.00512e-16
2.96478e-16
7.70237e-14
1.09071e-11
2.01027e-11
3.00737e-11
4.10318e-11
5.30712e-11
6.6154e-11
8.01057e-11
9.46232e-11
1.09292e-10
1.23613e-10
1.37037e-10
1.49001e-10
1.58974e-10
1.6649e-10
1.7119e-10
1.72843e-10
1.71367e-10
1.66834e-10
1.59467e-10
1.49617e-10
1.37745e-10
1.24378e-10
1.10079e-10
9.5398e-11
8.08374e-11
6.68169e-11
5.36458e-11
4.15046e-11
3.04376e-11
2.03551e-11
1.10481e-11
7.80595e-14
3.00534e-16
2.96487e-16
7.70258e-14
1.09074e-11
2.01032e-11
3.00745e-11
4.10329e-11
5.30727e-11
6.61558e-11
8.0108e-11
9.46259e-11
1.09295e-10
1.23617e-10
1.37041e-10
1.49006e-10
1.58978e-10
1.66495e-10
1.71195e-10
1.72848e-10
1.71372e-10
1.66839e-10
1.59471e-10
1.49621e-10
1.37749e-10
1.24382e-10
1.10082e-10
9.54007e-11
8.08397e-11
6.68188e-11
5.36473e-11
4.15058e-11
3.04384e-11
2.03557e-11
1.10484e-11
7.80617e-14
3.00542e-16
2.9649e-16
7.70266e-14
1.09075e-11
2.01034e-11
3.00748e-11
4.10333e-11
5.30733e-11
6.61565e-11
8.01087e-11
9.46268e-11
1.09296e-10
1.23618e-10
1.37042e-10
1.49007e-10
1.5898e-10
1.66497e-10
1.71197e-10
1.7285e-10
1.71373e-10
1.66841e-10
1.59473e-10
1.49623e-10
1.3775e-10
1.24383e-10
1.10083e-10
9.54016e-11
8.08405e-11
6.68195e-11
5.36478e-11
4.15062e-11
3.04387e-11
2.03559e-11
1.10485e-11
7.80624e-14
3.00545e-16
2.96491e-16
7.70268e-14
1.09075e-11
2.01035e-11
3.00749e-11
4.10335e-11
5.30734e-11
6.61567e-11
8.0109e-11
9.46271e-11
1.09297e-10
1.23618e-10
1.37043e-10
1.49007e-10
1.58981e-10
1.66497e-10
1.71197e-10
1.7285e-10
1.71374e-10
1.66841e-10
1.59473e-10
1.49623e-10
1.3775e-10
1.24384e-10
1.10084e-10
9.54019e-11
8.08408e-11
6.68197e-11
5.3648e-11
4.15063e-11
3.04388e-11
2.03559e-11
1.10485e-11
7.80627e-14
3.00546e-16
2.96491e-16
7.70269e-14
1.09075e-11
2.01035e-11
3.00749e-11
4.10335e-11
5.30735e-11
6.61568e-11
8.01091e-11
9.46272e-11
1.09297e-10
1.23618e-10
1.37043e-10
1.49008e-10
1.58981e-10
1.66498e-10
1.71198e-10
1.7285e-10
1.71374e-10
1.66841e-10
1.59473e-10
1.49624e-10
1.37751e-10
1.24384e-10
1.10084e-10
9.5402e-11
8.08408e-11
6.68198e-11
5.3648e-11
4.15064e-11
3.04388e-11
2.03559e-11
1.10485e-11
7.80628e-14
3.00546e-16
2.96491e-16
7.70269e-14
1.09075e-11
2.01035e-11
3.00749e-11
4.10335e-11
5.30735e-11
6.61568e-11
8.01091e-11
9.46273e-11
1.09297e-10
1.23619e-10
1.37043e-10
1.49008e-10
1.58981e-10
1.66498e-10
1.71198e-10
1.72851e-10
1.71374e-10
1.66842e-10
1.59473e-10
1.49624e-10
1.37751e-10
1.24384e-10
1.10084e-10
9.54021e-11
8.08409e-11
6.68198e-11
5.36481e-11
4.15064e-11
3.04388e-11
2.0356e-11
1.10485e-11
7.80628e-14
3.00547e-16
2.96491e-16
7.7027e-14
1.09075e-11
2.01035e-11
3.00749e-11
4.10335e-11
5.30735e-11
6.61568e-11
8.01091e-11
9.46273e-11
1.09297e-10
1.23619e-10
1.37043e-10
1.49008e-10
1.58981e-10
1.66498e-10
1.71198e-10
1.72851e-10
1.71374e-10
1.66842e-10
1.59474e-10
1.49624e-10
1.37751e-10
1.24384e-10
1.10084e-10
9.54021e-11
8.08409e-11
6.68198e-11
5.36481e-11
4.15064e-11
3.04388e-11
2.0356e-11
1.10485e-11
7.80628e-14
3.00547e-16
2.96491e-16
7.7027e-14
1.09075e-11
2.01035e-11
3.00749e-11
4.10335e-11
5.30735e-11
6.61568e-11
8.01091e-11
9.46273e-11
1.09297e-10
1.23619e-10
1.37043e-10
1.49008e-10
1.58981e-10
1.66498e-10
1.71198e-10
1.72851e-10
1.71374e-10
1.66842e-10
1.59474e-10
1.49624e-10
1.37751e-10
1.24384e-10
1.10084e-10
9.54021e-11
8.08409e-11
6.68198e-11
5.36481e-11
4.15064e-11
3.04388e-11
2.0356e-11
1.10485e-11
7.80628e-14
3.00547e-16
2.96491e-16
7.7027e-14
1.09075e-11
2.01035e-11
3.00749e-11
4.10335e-11
5.30735e-11
6.61568e-11
8.01091e-11
9.46273e-11
1.09297e-10
1.23619e-10
1.37043e-10
1.49008e-10
1.58981e-10
1.66498e-10
1.71198e-10
1.72851e-10
1.71374e-10
1.66842e-10
1.59474e-10
1.49624e-10
1.37751e-10
1.24384e-10
1.10084e-10
9.54021e-11
8.08409e-11
6.68198e-11
5.36481e-11
4.15064e-11
3.04388e-11
2.0356e-11
1.10485e-11
7.80628e-14
3.00547e-16
2.96491e-16
7.7027e-14
1.09075e-11
2.01035e-11
3.00749e-11
4.10335e-11
5.30735e-11
6.61568e-11
8.01091e-11
9.46273e-11
1.09297e-10
1.23619e-10
1.37043e-10
1.49008e-10
1.58981e-10
1.66498e-10
1.71198e-10
1.72851e-10
1.71374e-10
1.66842e-10
1.59474e-10
1.49624e-10
1.37751e-10
1.24384e-10
1.10084e-10
9.54021e-11
8.08409e-11
6.68198e-11
5.36481e-11
4.15064e-11
3.04388e-11
2.0356e-11
1.10485e-11
7.80628e-14
3.00547e-16
2.96491e-16
7.7027e-14
1.09075e-11
2.01035e-11
3.00749e-11
4.10335e-11
5.30735e-11
6.61568e-11
8.01091e-11
9.46273e-11
1.09297e-10
1.23619e-10
1.37043e-10
1.49008e-10
1.58981e-10
1.66498e-10
1.71198e-10
1.72851e-10
1.71374e-10
1.66842e-10
1.59474e-10
1.49624e-10
1.37751e-10
1.24384e-10
1.10084e-10
9.54021e-11
8.08409e-11
6.68198e-11
5.36481e-11
4.15064e-11
3.04388e-11
2.0356e-11
1.10485e-11
7.80628e-14
3.00547e-16
2.96491e-16
7.7027e-14
1.09075e-11
2.01035e-11
3.00749e-11
4.10335e-11
5.30735e-11
6.61568e-11
8.01091e-11
9.46273e-11
1.09297e-10
1.23619e-10
1.37043e-10
1.49008e-10
1.58981e-10
1.66498e-10
1.71198e-10
1.72851e-10
1.71374e-10
1.66842e-10
1.59474e-10
1.49624e-10
1.37751e-10
1.24384e-10
1.10084e-10
9.54021e-11
8.08409e-11
6.68198e-11
5.36481e-11
4.15064e-11
3.04388e-11
2.0356e-11
1.10485e-11
7.80628e-14
3.00547e-16
2.96491e-16
7.7027e-14
1.09075e-11
2.01035e-11
3.00749e-11
4.10335e-11
5.30735e-11
6.61568e-11
8.01091e-11
9.46273e-11
1.09297e-10
1.23619e-10
1.37043e-10
1.49008e-10
1.58981e-10
1.66498e-10
1.71198e-10
1.72851e-10
1.71374e-10
1.66842e-10
1.59474e-10
1.49624e-10
1.37751e-10
1.24384e-10
1.10084e-10
9.54021e-11
8.08409e-11
6.68198e-11
5.36481e-11
4.15064e-11
3.04388e-11
2.0356e-11
1.10485e-11
7.80628e-14
3.00547e-16
2.96491e-16
7.7027e-14
1.09075e-11
2.01035e-11
3.00749e-11
4.10335e-11
5.30735e-11
6.61568e-11
8.01091e-11
9.46273e-11
1.09297e-10
1.23619e-10
1.37043e-10
1.49008e-10
1.58981e-10
1.66498e-10
1.71198e-10
1.72851e-10
1.71374e-10
1.66842e-10
1.59474e-10
1.49624e-10
1.37751e-10
1.24384e-10
1.10084e-10
9.54021e-11
8.08409e-11
6.68198e-11
5.36481e-11
4.15064e-11
3.04388e-11
2.0356e-11
1.10485e-11
7.80628e-14
3.00547e-16
2.96491e-16
7.7027e-14
1.09075e-11
2.01035e-11
3.00749e-11
4.10335e-11
5.30735e-11
6.61568e-11
8.01091e-11
9.46273e-11
1.09297e-10
1.23619e-10
1.37043e-10
1.49008e-10
1.58981e-10
1.66498e-10
1.71198e-10
1.72851e-10
1.71374e-10
1.66842e-10
1.59474e-10
1.49624e-10
1.37751e-10
1.24384e-10
1.10084e-10
9.54021e-11
8.08409e-11
6.68198e-11
5.36481e-11
4.15064e-11
3.04388e-11
2.0356e-11
1.10485e-11
7.80628e-14
3.00547e-16
2.96491e-16
7.7027e-14
1.09075e-11
2.01035e-11
3.00749e-11
4.10335e-11
5.30735e-11
6.61568e-11
8.01091e-11
9.46273e-11
1.09297e-10
1.23619e-10
1.37043e-10
1.49008e-10
1.58981e-10
1.66498e-10
1.71198e-10
1.72851e-10
1.71374e-10
1.66842e-10
1.59474e-10
1.49624e-10
1.37751e-10
1.24384e-10
1.10084e-10
9.54021e-11
8.08409e-11
6.68198e-11
5.36481e-11
4.15064e-11
3.04388e-11
2.0356e-11
1.10485e-11
7.80628e-14
3.00547e-16
2.96491e-16
7.7027e-14
1.09075e-11
2.01035e-11
3.00749e-11
4.10335e-11
5.30735e-11
6.61568e-11
8.01091e-11
9.46273e-11
1.09297e-10
1.23619e-10
1.37043e-10
1.49008e-10
1.58981e-10
1.66498e-10
1.71198e-10
1.72851e-10
1.71374e-10
1.66842e-10
1.59474e-10
1.49624e-10
1.37751e-10
1.24384e-10
1.10084e-10
9.54021e-11
8.08409e-11
6.68198e-11
5.36481e-11
4.15064e-11
3.04388e-11
2.0356e-11
1.10485e-11
7.80628e-14
3.00547e-16
2.96491e-16
7.7027e-14
1.09075e-11
2.01035e-11
3.00749e-11
4.10335e-11
5.30735e-11
6.61568e-11
8.01091e-11
9.46273e-11
1.09297e-10
1.23619e-10
1.37043e-10
1.49008e-10
1.58981e-10
1.66498e-10
1.71198e-10
1.72851e-10
1.71374e-10
1.66842e-10
1.59474e-10
1.49624e-10
1.37751e-10
1.24384e-10
1.10084e-10
9.54021e-11
8.08409e-11
6.68198e-11
5.36481e-11
4.15064e-11
3.04388e-11
2.0356e-11
1.10485e-11
7.80628e-14
3.00547e-16
2.96491e-16
7.7027e-14
1.09075e-11
2.01035e-11
3.00749e-11
4.10335e-11
5.30735e-11
6.61568e-11
8.01091e-11
9.46273e-11
1.09297e-10
1.23619e-10
1.37043e-10
1.49008e-10
1.58981e-10
1.66498e-10
1.71198e-10
1.72851e-10
1.71374e-10
1.66842e-10
1.59474e-10
1.49624e-10
1.37751e-10
1.24384e-10
1.10084e-10
9.54021e-11
8.08409e-11
6.68198e-11
5.36481e-11
4.15064e-11
3.04388e-11
2.0356e-11
1.10485e-11
7.80628e-14
3.00547e-16
2.96491e-16
7.7027e-14
1.09075e-11
2.01035e-11
3.00749e-11
4.10335e-11
5.30735e-11
6.61568e-11
8.01091e-11
9.46273e-11
1.09297e-10
1.23619e-10
1.37043e-10
1.49008e-10
1.58981e-10
1.66498e-10
1.71198e-10
1.72851e-10
1.71374e-10
1.66842e-10
1.59474e-10
1.49624e-10
1.37751e-10
1.24384e-10
1.10084e-10
9.54021e-11
8.08409e-11
6.68198e-11
5.36481e-11
4.15064e-11
3.04388e-11
2.0356e-11
1.10485e-11
7.80628e-14
3.00547e-16
2.96491e-16
7.7027e-14
1.09075e-11
2.01035e-11
3.00749e-11
4.10335e-11
5.30735e-11
6.61568e-11
8.01091e-11
9.46273e-11
1.09297e-10
1.23619e-10
1.37043e-10
1.49008e-10
1.58981e-10
1.66498e-10
1.71198e-10
1.72851e-10
1.71374e-10
1.66842e-10
1.59474e-10
1.49624e-10
1.37751e-10
1.24384e-10
1.10084e-10
9.54021e-11
8.08409e-11
6.68198e-11
5.36481e-11
4.15064e-11
3.04388e-11
2.0356e-11
1.10485e-11
7.80628e-14
3.00547e-16
2.96491e-16
7.7027e-14
1.09075e-11
2.01035e-11
3.00749e-11
4.10335e-11
5.30735e-11
6.61568e-11
8.01091e-11
9.46273e-11
1.09297e-10
1.23619e-10
1.37043e-10
1.49008e-10
1.58981e-10
1.66498e-10
1.71198e-10
1.72851e-10
1.71374e-10
1.66842e-10
1.59474e-10
1.49624e-10
1.37751e-10
1.24384e-10
1.10084e-10
9.54021e-11
8.08409e-11
6.68198e-11
5.36481e-11
4.15064e-11
3.04388e-11
2.0356e-11
1.10485e-11
7.80628e-14
3.00547e-16
2.96491e-16
7.7027e-14
1.09075e-11
2.01035e-11
3.00749e-11
4.10335e-11
5.30735e-11
6.61568e-11
8.01091e-11
9.46273e-11
1.09297e-10
1.23619e-10
1.37043e-10
1.49008e-10
1.58981e-10
1.66498e-10
1.71198e-10
1.72851e-10
1.71374e-10
1.66842e-10
1.59474e-10
1.49624e-10
1.37751e-10
1.24384e-10
1.10084e-10
9.54021e-11
8.08409e-11
6.68198e-11
5.36481e-11
4.15064e-11
3.04388e-11
2.0356e-11
1.10485e-11
7.80628e-14
3.00547e-16
2.96491e-16
7.7027e-14
1.09075e-11
2.01035e-11
3.00749e-11
4.10335e-11
5.30735e-11
6.61568e-11
8.01091e-11
9.46273e-11
1.09297e-10
1.23619e-10
1.37043e-10
1.49008e-10
1.58981e-10
1.66498e-10
1.71198e-10
1.72851e-10
1.71374e-10
1.66842e-10
1.59474e-10
1.49624e-10
1.37751e-10
1.24384e-10
1.10084e-10
9.54021e-11
8.08409e-11
6.68198e-11
5.36481e-11
4.15064e-11
3.04388e-11
2.0356e-11
1.10485e-11
7.80628e-14
3.00547e-16
2.96491e-16
7.7027e-14
1.09075e-11
2.01035e-11
3.00749e-11
4.10335e-11
5.30735e-11
6.61568e-11
8.01091e-11
9.46273e-11
1.09297e-10
1.23619e-10
1.37043e-10
1.49008e-10
1.58981e-10
1.66498e-10
1.71198e-10
1.72851e-10
1.71374e-10
1.66842e-10
1.59474e-10
1.49624e-10
1.37751e-10
1.24384e-10
1.10084e-10
9.54021e-11
8.08409e-11
6.68198e-11
5.36481e-11
4.15064e-11
3.04388e-11
2.0356e-11
1.10485e-11
7.80628e-14
3.00547e-16
2.96491e-16
7.7027e-14
1.09075e-11
2.01035e-11
3.00749e-11
4.10335e-11
5.30735e-11
6.61568e-11
8.01091e-11
9.46273e-11
1.09297e-10
1.23619e-10
1.37043e-10
1.49008e-10
1.58981e-10
1.66498e-10
1.71198e-10
1.72851e-10
1.71374e-10
1.66842e-10
1.59474e-10
1.49624e-10
1.37751e-10
1.24384e-10
1.10084e-10
9.54021e-11
8.08409e-11
6.68198e-11
5.36481e-11
4.15064e-11
3.04388e-11
2.0356e-11
1.10485e-11
7.80628e-14
3.00547e-16
2.96491e-16
7.7027e-14
1.09075e-11
2.01035e-11
3.00749e-11
4.10335e-11
5.30735e-11
6.61568e-11
8.01091e-11
9.46273e-11
1.09297e-10
1.23619e-10
1.37043e-10
1.49008e-10
1.58981e-10
1.66498e-10
1.71198e-10
1.72851e-10
1.71374e-10
1.66842e-10
1.59474e-10
1.49624e-10
1.37751e-10
1.24384e-10
1.10084e-10
9.54021e-11
8.08409e-11
6.68198e-11
5.36481e-11
4.15064e-11
3.04388e-11
2.0356e-11
1.10485e-11
7.80628e-14
3.00547e-16
2.96491e-16
7.7027e-14
1.09075e-11
2.01035e-11
3.00749e-11
4.10335e-11
5.30735e-11
6.61568e-11
8.01091e-11
9.46273e-11
1.09297e-10
1.23619e-10
1.37043e-10
1.49008e-10
1.58981e-10
1.66498e-10
1.71198e-10
1.72851e-10
1.71374e-10
1.66842e-10
1.59474e-10
1.49624e-10
1.37751e-10
1.24384e-10
1.10084e-10
9.54021e-11
8.08409e-11
6.68198e-11
5.36481e-11
4.15064e-11
3.04388e-11
2.0356e-11
1.10485e-11
7.80628e-14
3.00547e-16
2.96491e-16
7.7027e-14
1.09075e-11
2.01035e-11
3.00749e-11
4.10335e-11
5.30735e-11
6.61568e-11
8.01091e-11
9.46273e-11
1.09297e-10
1.23619e-10
1.37043e-10
1.49008e-10
1.58981e-10
1.66498e-10
1.71198e-10
1.72851e-10
1.71374e-10
1.66842e-10
1.59474e-10
1.49624e-10
1.37751e-10
1.24384e-10
1.10084e-10
9.54021e-11
8.08409e-11
6.68198e-11
5.36481e-11
4.15064e-11
3.04388e-11
2.0356e-11
1.10485e-11
7.80628e-14
3.00547e-16
2.96491e-16
7.7027e-14
1.09075e-11
2.01035e-11
3.00749e-11
4.10335e-11
5.30735e-11
6.61568e-11
8.01091e-11
9.46273e-11
1.09297e-10
1.23619e-10
1.37043e-10
1.49008e-10
1.58981e-10
1.66498e-10
1.71198e-10
1.72851e-10
1.71374e-10
1.66842e-10
1.59474e-10
1.49624e-10
1.37751e-10
1.24384e-10
1.10084e-10
9.54021e-11
8.08409e-11
6.68198e-11
5.36481e-11
4.15064e-11
3.04388e-11
2.0356e-11
1.10485e-11
7.80628e-14
3.00547e-16
2.96491e-16
7.7027e-14
1.09075e-11
2.01035e-11
3.00749e-11
4.10335e-11
5.30735e-11
6.61568e-11
8.01091e-11
9.46273e-11
1.09297e-10
1.23619e-10
1.37043e-10
1.49008e-10
1.58981e-10
1.66498e-10
1.71198e-10
1.72851e-10
1.71374e-10
1.66842e-10
1.59474e-10
1.49624e-10
1.37751e-10
1.24384e-10
1.10084e-10
9.54021e-11
8.08409e-11
6.68198e-11
5.36481e-11
4.15064e-11
3.04388e-11
2.0356e-11
1.10485e-11
7.80628e-14
3.00547e-16
2.96491e-16
7.7027e-14
1.09075e-11
2.01035e-11
3.00749e-11
4.10335e-11
5.30735e-11
6.61568e-11
8.01091e-11
9.46273e-11
1.09297e-10
1.23619e-10
1.37043e-10
1.49008e-10
1.58981e-10
1.66498e-10
1.71198e-10
1.72851e-10
1.71374e-10
1.66842e-10
1.59474e-10
1.49624e-10
1.37751e-10
1.24384e-10
1.10084e-10
9.54021e-11
8.08409e-11
6.68198e-11
5.36481e-11
4.15064e-11
3.04388e-11
2.0356e-11
1.10485e-11
7.80628e-14
3.00547e-16
2.96491e-16
7.7027e-14
1.09075e-11
2.01035e-11
3.00749e-11
4.10335e-11
5.30735e-11
6.61568e-11
8.01091e-11
9.46273e-11
1.09297e-10
1.23619e-10
1.37043e-10
1.49008e-10
1.58981e-10
1.66498e-10
1.71198e-10
1.72851e-10
1.71374e-10
1.66842e-10
1.59474e-10
1.49624e-10
1.37751e-10
1.24384e-10
1.10084e-10
9.54021e-11
8.08409e-11
6.68198e-11
5.36481e-11
4.15064e-11
3.04388e-11
2.0356e-11
1.10485e-11
7.80628e-14
3.00547e-16
2.96491e-16
7.7027e-14
1.09075e-11
2.01035e-11
3.00749e-11
4.10335e-11
5.30735e-11
6.61568e-11
8.01091e-11
9.46273e-11
1.09297e-10
1.23619e-10
1.37043e-10
1.49008e-10
1.58981e-10
1.66498e-10
1.71198e-10
1.72851e-10
1.71374e-10
1.66842e-10
1.59474e-10
1.49624e-10
1.37751e-10
1.24384e-10
1.10084e-10
9.54021e-11
8.08409e-11
6.68198e-11
5.36481e-11
4.15064e-11
3.04388e-11
2.0356e-11
1.10485e-11
7.80628e-14
3.00547e-16
2.96491e-16
7.7027e-14
1.09075e-11
2.01035e-11
3.00749e-11
4.10335e-11
5.30735e-11
6.61568e-11
8.01091e-11
9.46273e-11
1.09297e-10
1.23619e-10
1.37043e-10
1.49008e-10
1.58981e-10
1.66498e-10
1.71198e-10
1.72851e-10
1.71374e-10
1.66842e-10
1.59474e-10
1.49624e-10
1.37751e-10
1.24384e-10
1.10084e-10
9.54021e-11
8.08409e-11
6.68198e-11
5.36481e-11
4.15064e-11
3.04388e-11
2.0356e-11
1.10485e-11
7.80628e-14
3.00547e-16
2.96491e-16
7.7027e-14
1.09075e-11
2.01035e-11
3.00749e-11
4.10335e-11
5.30735e-11
6.61568e-11
8.01091e-11
9.46273e-11
1.09297e-10
1.23619e-10
1.37043e-10
1.49008e-10
1.58981e-10
1.66498e-10
1.71198e-10
1.72851e-10
1.71374e-10
1.66842e-10
1.59474e-10
1.49624e-10
1.37751e-10
1.24384e-10
1.10084e-10
9.54021e-11
8.08409e-11
6.68198e-11
5.36481e-11
4.15064e-11
3.04388e-11
2.0356e-11
1.10485e-11
7.80628e-14
3.00547e-16
2.96491e-16
7.7027e-14
1.09075e-11
2.01035e-11
3.00749e-11
4.10335e-11
5.30735e-11
6.61568e-11
8.01091e-11
9.46273e-11
1.09297e-10
1.23619e-10
1.37043e-10
1.49008e-10
1.58981e-10
1.66498e-10
1.71198e-10
1.72851e-10
1.71374e-10
1.66842e-10
1.59474e-10
1.49624e-10
1.37751e-10
1.24384e-10
1.10084e-10
9.54021e-11
8.08409e-11
6.68198e-11
5.36481e-11
4.15064e-11
3.04388e-11
2.0356e-11
1.10485e-11
7.80628e-14
3.00547e-16
2.96491e-16
7.7027e-14
1.09075e-11
2.01035e-11
3.00749e-11
4.10335e-11
5.30735e-11
6.61568e-11
8.01091e-11
9.46273e-11
1.09297e-10
1.23619e-10
1.37043e-10
1.49008e-10
1.58981e-10
1.66498e-10
1.71198e-10
1.72851e-10
1.71374e-10
1.66842e-10
1.59474e-10
1.49624e-10
1.37751e-10
1.24384e-10
1.10084e-10
9.54021e-11
8.08409e-11
6.68198e-11
5.36481e-11
4.15064e-11
3.04388e-11
2.0356e-11
1.10485e-11
7.80628e-14
3.00547e-16
2.96491e-16
7.7027e-14
1.09075e-11
2.01035e-11
3.00749e-11
4.10335e-11
5.30735e-11
6.61568e-11
8.01091e-11
9.46273e-11
1.09297e-10
1.23619e-10
1.37043e-10
1.49008e-10
1.58981e-10
1.66498e-10
1.71198e-10
1.72851e-10
1.71374e-10
1.66842e-10
1.59474e-10
1.49624e-10
1.37751e-10
1.24384e-10
1.10084e-10
9.54021e-11
8.08409e-11
6.68198e-11
5.36481e-11
4.15064e-11
3.04388e-11
2.0356e-11
1.10485e-11
7.80628e-14
3.00547e-16
2.96491e-16
7.7027e-14
1.09075e-11
2.01035e-11
3.00749e-11
4.10335e-11
5.30735e-11
6.61568e-11
8.01091e-11
9.46273e-11
1.09297e-10
1.23619e-10
1.37043e-10
1.49008e-10
1.58981e-10
1.66498e-10
1.71198e-10
1.72851e-10
1.71374e-10
1.66842e-10
1.59474e-10
1.49624e-10
1.37751e-10
1.24384e-10
1.10084e-10
9.54021e-11
8.08409e-11
6.68198e-11
5.36481e-11
4.15064e-11
3.04388e-11
2.0356e-11
1.10485e-11
7.80628e-14
3.00547e-16
2.96491e-16
7.7027e-14
1.09075e-11
2.01035e-11
3.00749e-11
4.10335e-11
5.30735e-11
6.61568e-11
8.01091e-11
9.46273e-11
1.09297e-10
1.23619e-10
1.37043e-10
1.49008e-10
1.58981e-10
1.66498e-10
1.71198e-10
1.72851e-10
1.71374e-10
1.66842e-10
1.59474e-10
1.49624e-10
1.37751e-10
1.24384e-10
1.10084e-10
9.54021e-11
8.08409e-11
6.68198e-11
5.36481e-11
4.15064e-11
3.04388e-11
2.0356e-11
1.10485e-11
7.80628e-14
3.00547e-16
2.96491e-16
7.7027e-14
1.09075e-11
2.01035e-11
3.00749e-11
4.10335e-11
5.30735e-11
6.61568e-11
8.01091e-11
9.46273e-11
1.09297e-10
1.23619e-10
1.37043e-10
1.49008e-10
1.58981e-10
1.66498e-10
1.71198e-10
1.72851e-10
1.71374e-10
1.66842e-10
1.59474e-10
1.49624e-10
1.37751e-10
1.24384e-10
1.10084e-10
9.54021e-11
8.08409e-11
6.68198e-11
5.36481e-11
4.15064e-11
3.04388e-11
2.0356e-11
1.10485e-11
7.80628e-14
3.00547e-16
2.96491e-16
7.7027e-14
1.09075e-11
2.01035e-11
3.00749e-11
4.10335e-11
5.30735e-11
6.61568e-11
8.01091e-11
9.46273e-11
1.09297e-10
1.23619e-10
1.37043e-10
1.49008e-10
1.58981e-10
1.66498e-10
1.71198e-10
1.72851e-10
1.71374e-10
1.66842e-10
1.59474e-10
1.49624e-10
1.37751e-10
1.24384e-10
1.10084e-10
9.54021e-11
8.08409e-11
6.68198e-11
5.36481e-11
4.15064e-11
3.04388e-11
2.0356e-11
1.10485e-11
7.80628e-14
3.00547e-16
2.96491e-16
7.7027e-14
1.09075e-11
2.01035e-11
3.00749e-11
4.10335e-11
5.30735e-11
6.61568e-11
8.01091e-11
9.46273e-11
1.09297e-10
1.23619e-10
1.37043e-10
1.49008e-10
1.58981e-10
1.66498e-10
1.71198e-10
1.72851e-10
1.71374e-10
1.66842e-10
1.59474e-10
1.49624e-10
1.37751e-10
1.24384e-10
1.10084e-10
9.54021e-11
8.08409e-11
6.68198e-11
5.36481e-11
4.15064e-11
3.04388e-11
2.0356e-11
1.10485e-11
7.80628e-14
3.00547e-16
2.96491e-16
7.7027e-14
1.09075e-11
2.01035e-11
3.00749e-11
4.10335e-11
5.30735e-11
6.61568e-11
8.01091e-11
9.46273e-11
1.09297e-10
1.23619e-10
1.37043e-10
1.49008e-10
1.58981e-10
1.66498e-10
1.71198e-10
1.72851e-10
1.71374e-10
1.66842e-10
1.59474e-10
1.49624e-10
1.37751e-10
1.24384e-10
1.10084e-10
9.54021e-11
8.08409e-11
6.68198e-11
5.36481e-11
4.15064e-11
3.04388e-11
2.0356e-11
1.10485e-11
7.80628e-14
3.00547e-16
2.96491e-16
7.7027e-14
1.09075e-11
2.01035e-11
3.00749e-11
4.10335e-11
5.30735e-11
6.61568e-11
8.01091e-11
9.46273e-11
1.09297e-10
1.23619e-10
1.37043e-10
1.49008e-10
1.58981e-10
1.66498e-10
1.71198e-10
1.72851e-10
1.71374e-10
1.66842e-10
1.59474e-10
1.49624e-10
1.37751e-10
1.24384e-10
1.10084e-10
9.54021e-11
8.08409e-11
6.68198e-11
5.36481e-11
4.15064e-11
3.04388e-11
2.0356e-11
1.10485e-11
7.80628e-14
3.00547e-16
2.96491e-16
7.7027e-14
1.09075e-11
2.01035e-11
3.00749e-11
4.10335e-11
5.30735e-11
6.61568e-11
8.01091e-11
9.46273e-11
1.09297e-10
1.23619e-10
1.37043e-10
1.49008e-10
1.58981e-10
1.66498e-10
1.71198e-10
1.72851e-10
1.71374e-10
1.66842e-10
1.59474e-10
1.49624e-10
1.37751e-10
1.24384e-10
1.10084e-10
9.54021e-11
8.08409e-11
6.68198e-11
5.36481e-11
4.15064e-11
3.04388e-11
2.0356e-11
1.10485e-11
7.80628e-14
3.00547e-16
2.96491e-16
7.7027e-14
1.09075e-11
2.01035e-11
3.00749e-11
4.10335e-11
5.30735e-11
6.61568e-11
8.01091e-11
9.46273e-11
1.09297e-10
1.23619e-10
1.37043e-10
1.49008e-10
1.58981e-10
1.66498e-10
1.71198e-10
1.72851e-10
1.71374e-10
1.66842e-10
1.59474e-10
1.49624e-10
1.37751e-10
1.24384e-10
1.10084e-10
9.54021e-11
8.08409e-11
6.68198e-11
5.36481e-11
4.15064e-11
3.04388e-11
2.0356e-11
1.10485e-11
7.80628e-14
3.00547e-16
2.96491e-16
7.7027e-14
1.09075e-11
2.01035e-11
3.00749e-11
4.10335e-11
5.30735e-11
6.61568e-11
8.01091e-11
9.46273e-11
1.09297e-10
1.23619e-10
1.37043e-10
1.49008e-10
1.58981e-10
1.66498e-10
1.71198e-10
1.72851e-10
1.71374e-10
1.66842e-10
1.59474e-10
1.49624e-10
1.37751e-10
1.24384e-10
1.10084e-10
9.54021e-11
8.08409e-11
6.68198e-11
5.36481e-11
4.15064e-11
3.04388e-11
2.0356e-11
1.10485e-11
7.80628e-14
3.00547e-16
2.96491e-16
7.7027e-14
1.09075e-11
2.01035e-11
3.00749e-11
4.10335e-11
5.30735e-11
6.61568e-11
8.01091e-11
9.46273e-11
1.09297e-10
1.23619e-10
1.37043e-10
1.49008e-10
1.58981e-10
1.66498e-10
1.71198e-10
1.72851e-10
1.71374e-10
1.66842e-10
1.59474e-10
1.49624e-10
1.37751e-10
1.24384e-10
1.10084e-10
9.54021e-11
8.08409e-11
6.68198e-11
5.36481e-11
4.15064e-11
3.04388e-11
2.0356e-11
1.10485e-11
7.80628e-14
3.00547e-16
2.96491e-16
7.7027e-14
1.09075e-11
2.01035e-11
3.00749e-11
4.10335e-11
5.30735e-11
6.61568e-11
8.01091e-11
9.46273e-11
1.09297e-10
1.23619e-10
1.37043e-10
1.49008e-10
1.58981e-10
1.66498e-10
1.71198e-10
1.72851e-10
1.71374e-10
1.66842e-10
1.59474e-10
1.49624e-10
1.37751e-10
1.24384e-10
1.10084e-10
9.54021e-11
8.08409e-11
6.68198e-11
5.36481e-11
4.15064e-11
3.04388e-11
2.0356e-11
1.10485e-11
7.80628e-14
3.00547e-16
2.96491e-16
7.7027e-14
1.09075e-11
2.01035e-11
3.00749e-11
4.10335e-11
5.30735e-11
6.61568e-11
8.01091e-11
9.46273e-11
1.09297e-10
1.23619e-10
1.37043e-10
1.49008e-10
1.58981e-10
1.66498e-10
1.71198e-10
1.72851e-10
1.71374e-10
1.66842e-10
1.59474e-10
1.49624e-10
1.37751e-10
1.24384e-10
1.10084e-10
9.54021e-11
8.08409e-11
6.68198e-11
5.36481e-11
4.15064e-11
3.04388e-11
2.0356e-11
1.10485e-11
7.80628e-14
3.00547e-16
2.96491e-16
7.7027e-14
1.09075e-11
2.01035e-11
3.00749e-11
4.10335e-11
5.30735e-11
6.61568e-11
8.01091e-11