/*--------------------------------*- C++ -*----------------------------------*\
  =========                 |
  \\      /  F ield         | OpenFOAM: The Open Source CFD Toolbox
   \\    /   O peration     | Website:  https://openfoam.org
    \\  /    A nd           | Version:  13
     \\/     M anipulation  |
\*---------------------------------------------------------------------------*/
FoamFile
{
    format      ascii;
    class       volScalarField;
    location    "90";
    object      nut;
}
// * * * * * * * * * * * * * * * * * * * * * * * * * * * * * * * * * * * * * //

dimensions      [0 2 -1 0 0 0 0];

internalField   nonuniform List<scalar> 
315000
(
1.80637e-14
4.73e-12
1.07912e-10
1.93621e-10
2.80606e-10
3.69004e-10
4.59002e-10
5.5076e-10
6.44379e-10
7.39881e-10
8.37199e-10
9.36181e-10
1.03659e-09
1.13811e-09
1.24037e-09
1.34291e-09
1.44524e-09
1.54685e-09
1.64716e-09
1.7456e-09
1.84158e-09
1.93449e-09
2.02375e-09
2.10878e-09
2.189e-09
2.26388e-09
2.3329e-09
2.39557e-09
2.45145e-09
2.50014e-09
2.54129e-09
2.57459e-09
2.59982e-09
2.61677e-09
2.62533e-09
2.62544e-09
2.61708e-09
2.60032e-09
2.57529e-09
2.54218e-09
2.50121e-09
2.4527e-09
2.39699e-09
2.33447e-09
2.26561e-09
2.19086e-09
2.11076e-09
2.02584e-09
1.93667e-09
1.84383e-09
1.74791e-09
1.64952e-09
1.54924e-09
1.44764e-09
1.3453e-09
1.24274e-09
1.14045e-09
1.03888e-09
9.38402e-10
8.39336e-10
7.41918e-10
6.46301e-10
5.52549e-10
4.60637e-10
3.70464e-10
2.81858e-10
1.94618e-10
1.08575e-10
4.76574e-12
1.82151e-14
4.5215e-13
1.20391e-10
2.73915e-08
4.94855e-08
7.17807e-08
9.43659e-08
1.17313e-07
1.40675e-07
1.64482e-07
1.88739e-07
2.13428e-07
2.38509e-07
2.6392e-07
2.89577e-07
3.15382e-07
3.4122e-07
3.66967e-07
3.92489e-07
4.17645e-07
4.42291e-07
4.66282e-07
4.89471e-07
5.11714e-07
5.32871e-07
5.52804e-07
5.71385e-07
5.88489e-07
6.04003e-07
6.17821e-07
6.29851e-07
6.40009e-07
6.48225e-07
6.54443e-07
6.58619e-07
6.60725e-07
6.60745e-07
6.58679e-07
6.54541e-07
6.48362e-07
6.40183e-07
6.30061e-07
6.18066e-07
6.0428e-07
5.88797e-07
5.71721e-07
5.53167e-07
5.33257e-07
5.12122e-07
4.89896e-07
4.66722e-07
4.42743e-07
4.18106e-07
3.92955e-07
3.67436e-07
3.41687e-07
3.15844e-07
2.90031e-07
2.64362e-07
2.38936e-07
2.13836e-07
1.89124e-07
1.64841e-07
1.41004e-07
1.17608e-07
9.46204e-08
7.19897e-08
4.96418e-08
2.74859e-08
1.20843e-10
4.53912e-13
1.82214e-12
4.85877e-10
2.79545e-07
5.01301e-07
7.2232e-07
9.43823e-07
1.16675e-06
1.39174e-06
1.61914e-06
1.84902e-06
2.08117e-06
2.31511e-06
2.55019e-06
2.78556e-06
3.02024e-06
3.25317e-06
3.48323e-06
3.70926e-06
3.93014e-06
4.1447e-06
4.35185e-06
4.55051e-06
4.73965e-06
4.9183e-06
5.08552e-06
5.24046e-06
5.38231e-06
5.51033e-06
5.62387e-06
5.72233e-06
5.80519e-06
5.87204e-06
5.92251e-06
5.95634e-06
5.97336e-06
5.97349e-06
5.95671e-06
5.92311e-06
5.87288e-06
5.80627e-06
5.72363e-06
5.62539e-06
5.51206e-06
5.38424e-06
5.24258e-06
5.08781e-06
4.92075e-06
4.74225e-06
4.55323e-06
4.35468e-06
4.14762e-06
3.93313e-06
3.71231e-06
3.4863e-06
3.25625e-06
3.0233e-06
2.78858e-06
2.55314e-06
2.31797e-06
2.08391e-06
1.85161e-06
1.62156e-06
1.39394e-06
1.16871e-06
9.45514e-07
7.23699e-07
5.02323e-07
2.80155e-07
4.87016e-10
1.82652e-12
3.35307e-12
8.94233e-10
5.10645e-07
9.09061e-07
1.30201e-06
1.6924e-06
2.0824e-06
2.47348e-06
2.86641e-06
3.26136e-06
3.65798e-06
4.05542e-06
4.45248e-06
4.8477e-06
5.23944e-06
5.62599e-06
6.00561e-06
6.37657e-06
6.73718e-06
7.08578e-06
7.4208e-06
7.7407e-06
8.04412e-06
8.32971e-06
8.59624e-06
8.84252e-06
9.06747e-06
9.27008e-06
9.44944e-06
9.60474e-06
9.73528e-06
9.84046e-06
9.91981e-06
9.97296e-06
9.99966e-06
9.99981e-06
9.97339e-06
9.92052e-06
9.84146e-06
9.73655e-06
9.60628e-06
9.45124e-06
9.27213e-06
9.06976e-06
8.84503e-06
8.59896e-06
8.33263e-06
8.04721e-06
7.74396e-06
7.42419e-06
7.0893e-06
6.74079e-06
6.38026e-06
6.00934e-06
5.62974e-06
5.24318e-06
4.8514e-06
4.45611e-06
4.05895e-06
3.66137e-06
3.26458e-06
2.86941e-06
2.47623e-06
2.08486e-06
1.69452e-06
1.30374e-06
9.10353e-07
5.11423e-07
8.95706e-10
3.35874e-12
5.01282e-12
1.3371e-09
7.57515e-07
1.33853e-06
1.90573e-06
2.46464e-06
3.01922e-06
3.57206e-06
4.12459e-06
4.67722e-06
5.22952e-06
5.7804e-06
6.32824e-06
6.87117e-06
7.40712e-06
7.93395e-06
8.44955e-06
8.95189e-06
9.43903e-06
9.90909e-06
1.03603e-05
1.07908e-05
1.1199e-05
1.15832e-05
1.19418e-05
1.22732e-05
1.25759e-05
1.28485e-05
1.30898e-05
1.32988e-05
1.34744e-05
1.36158e-05
1.37225e-05
1.3794e-05
1.38299e-05
1.383e-05
1.37944e-05
1.37233e-05
1.36168e-05
1.34756e-05
1.33003e-05
1.30916e-05
1.28505e-05
1.25782e-05
1.22757e-05
1.19446e-05
1.15862e-05
1.12022e-05
1.07941e-05
1.03637e-05
9.91266e-06
9.4427e-06
8.95565e-06
8.45336e-06
7.93779e-06
7.41096e-06
6.87498e-06
6.33199e-06
5.78405e-06
5.23304e-06
4.68057e-06
4.12773e-06
3.57495e-06
3.02181e-06
2.46689e-06
1.90758e-06
1.33992e-06
7.58361e-07
1.33874e-09
5.01913e-12
6.67375e-12
1.78047e-09
1.00092e-06
1.7562e-06
2.48665e-06
3.20118e-06
3.90596e-06
4.60499e-06
5.3005e-06
5.99328e-06
6.68297e-06
7.36838e-06
8.04775e-06
8.71896e-06
9.37978e-06
1.00279e-05
1.06612e-05
1.12774e-05
1.18745e-05
1.24505e-05
1.30032e-05
1.35307e-05
1.40309e-05
1.45015e-05
1.49405e-05
1.53461e-05
1.57163e-05
1.60495e-05
1.63443e-05
1.65993e-05
1.68136e-05
1.69861e-05
1.71162e-05
1.72032e-05
1.72469e-05
1.7247e-05
1.72036e-05
1.71168e-05
1.6987e-05
1.68148e-05
1.66008e-05
1.63459e-05
1.60514e-05
1.57184e-05
1.53484e-05
1.49431e-05
1.45042e-05
1.40338e-05
1.35338e-05
1.30064e-05
1.24538e-05
1.18779e-05
1.12809e-05
1.06647e-05
1.00315e-05
9.38337e-06
8.72253e-06
8.05127e-06
7.37182e-06
6.6863e-06
5.99645e-06
5.30349e-06
4.60775e-06
3.90845e-06
3.20334e-06
2.48844e-06
1.75755e-06
1.00175e-06
1.78211e-09
6.68013e-12
8.19077e-12
2.1856e-09
1.22024e-06
2.128e-06
2.99914e-06
3.84625e-06
4.67785e-06
5.4994e-06
6.31397e-06
7.12279e-06
7.9257e-06
8.72153e-06
9.50848e-06
1.02844e-05
1.10471e-05
1.17941e-05
1.25232e-05
1.32322e-05
1.39189e-05
1.45812e-05
1.52167e-05
1.58229e-05
1.63973e-05
1.69375e-05
1.74411e-05
1.7906e-05
1.83301e-05
1.87116e-05
1.9049e-05
1.93407e-05
1.95857e-05
1.97829e-05
1.99315e-05
2.0031e-05
2.00809e-05
2.0081e-05
2.00313e-05
1.99321e-05
1.97837e-05
1.95867e-05
1.9342e-05
1.90504e-05
1.87133e-05
1.8332e-05
1.79081e-05
1.74434e-05
1.69399e-05
1.63999e-05
1.58256e-05
1.52195e-05
1.45841e-05
1.3922e-05
1.32353e-05
1.25263e-05
1.17972e-05
1.10502e-05
1.02876e-05
9.51163e-06
8.72461e-06
7.92868e-06
7.12564e-06
6.31666e-06
5.50189e-06
4.6801e-06
3.84821e-06
3.00077e-06
2.12924e-06
1.22101e-06
2.18716e-09
8.19685e-12
9.45684e-12
2.52389e-09
1.40123e-06
2.43185e-06
3.41502e-06
4.36684e-06
5.298e-06
6.21524e-06
7.12243e-06
8.02121e-06
8.91162e-06
9.79258e-06
1.06624e-05
1.15188e-05
1.23596e-05
1.31825e-05
1.39852e-05
1.47655e-05
1.5521e-05
1.62494e-05
1.69481e-05
1.76143e-05
1.82452e-05
1.88382e-05
1.93908e-05
1.99006e-05
2.03655e-05
2.07836e-05
2.11531e-05
2.14726e-05
2.17409e-05
2.19567e-05
2.21194e-05
2.22283e-05
2.22828e-05
2.22829e-05
2.22286e-05
2.21199e-05
2.19574e-05
2.17417e-05
2.14737e-05
2.11544e-05
2.0785e-05
2.03671e-05
1.99024e-05
1.93928e-05
1.88403e-05
1.82474e-05
1.76166e-05
1.69505e-05
1.6252e-05
1.55236e-05
1.47682e-05
1.3988e-05
1.31853e-05
1.23624e-05
1.15216e-05
1.06651e-05
9.7953e-06
8.91426e-06
8.02374e-06
7.12482e-06
6.21746e-06
5.3e-06
4.3686e-06
3.41648e-06
2.43296e-06
1.40193e-06
2.52533e-09
9.46248e-12
1.04273e-11
2.78335e-09
1.53878e-06
2.6611e-06
3.72724e-06
4.75618e-06
5.76038e-06
6.74764e-06
7.72244e-06
8.68677e-06
9.64084e-06
1.05837e-05
1.15136e-05
1.24285e-05
1.33261e-05
1.4204e-05
1.50601e-05
1.58921e-05
1.66975e-05
1.74739e-05
1.82183e-05
1.89278e-05
1.95996e-05
2.02307e-05
2.08186e-05
2.13608e-05
2.18551e-05
2.22995e-05
2.26922e-05
2.30318e-05
2.33168e-05
2.35461e-05
2.37189e-05
2.38345e-05
2.38925e-05
2.38926e-05
2.38348e-05
2.37193e-05
2.35467e-05
2.33175e-05
2.30327e-05
2.26933e-05
2.23007e-05
2.18565e-05
2.13623e-05
2.08203e-05
2.02326e-05
1.96016e-05
1.89299e-05
1.82205e-05
1.74762e-05
1.66999e-05
1.58945e-05
1.50626e-05
1.42065e-05
1.33286e-05
1.2431e-05
1.15161e-05
1.05861e-05
9.64322e-06
8.68905e-06
7.7246e-06
6.74964e-06
5.76219e-06
4.75777e-06
3.72856e-06
2.66211e-06
1.53942e-06
2.78468e-09
1.04326e-11
1.11147e-11
2.96723e-09
1.63565e-06
2.82174e-06
3.94528e-06
5.02743e-06
6.08193e-06
7.11735e-06
8.13861e-06
9.14796e-06
1.01457e-05
1.11311e-05
1.21023e-05
1.30573e-05
1.39938e-05
1.49097e-05
1.58025e-05
1.667e-05
1.75098e-05
1.8319e-05
1.90949e-05
1.98342e-05
2.05339e-05
2.11912e-05
2.18033e-05
2.23677e-05
2.28822e-05
2.33447e-05
2.37534e-05
2.41067e-05
2.44032e-05
2.46417e-05
2.48215e-05
2.49418e-05
2.5002e-05
2.50021e-05
2.4942e-05
2.48219e-05
2.46423e-05
2.44039e-05
2.41075e-05
2.37544e-05
2.33459e-05
2.28835e-05
2.23692e-05
2.18049e-05
2.11929e-05
2.05358e-05
1.98361e-05
1.90969e-05
1.83212e-05
1.7512e-05
1.66723e-05
1.58048e-05
1.4912e-05
1.39962e-05
1.30596e-05
1.21046e-05
1.11333e-05
1.0148e-05
9.15009e-06
8.14063e-06
7.11922e-06
6.08362e-06
5.02891e-06
3.94651e-06
2.82269e-06
1.63624e-06
2.96849e-09
1.11197e-11
1.15673e-11
3.08837e-09
1.6992e-06
2.92681e-06
4.08761e-06
5.20426e-06
6.29136e-06
7.358e-06
8.40938e-06
9.44792e-06
1.04741e-05
1.1487e-05
1.2485e-05
1.34661e-05
1.4428e-05
1.53685e-05
1.62852e-05
1.71759e-05
1.80381e-05
1.88688e-05
1.96651e-05
2.04239e-05
2.11418e-05
2.18162e-05
2.24441e-05
2.3023e-05
2.35507e-05
2.4025e-05
2.44441e-05
2.48063e-05
2.51103e-05
2.5355e-05
2.55393e-05
2.56626e-05
2.57244e-05
2.57244e-05
2.56628e-05
2.55397e-05
2.53555e-05
2.5111e-05
2.48072e-05
2.44451e-05
2.40261e-05
2.35519e-05
2.30244e-05
2.24456e-05
2.18178e-05
2.11436e-05
2.04257e-05
1.96671e-05
1.88709e-05
1.80402e-05
1.71781e-05
1.62875e-05
1.53707e-05
1.44303e-05
1.34683e-05
1.24872e-05
1.14892e-05
1.04762e-05
9.44998e-06
8.41133e-06
7.35981e-06
6.293e-06
5.2057e-06
4.0888e-06
2.92772e-06
1.69978e-06
3.08961e-09
1.15722e-11
1.18458e-11
3.16297e-09
1.73825e-06
2.99124e-06
4.17481e-06
5.31254e-06
6.41957e-06
7.5053e-06
8.57513e-06
9.63158e-06
1.06751e-05
1.1705e-05
1.27195e-05
1.37166e-05
1.46942e-05
1.56499e-05
1.65814e-05
1.74865e-05
1.83624e-05
1.92065e-05
2.00155e-05
2.07862e-05
2.15155e-05
2.22004e-05
2.28381e-05
2.3426e-05
2.39619e-05
2.44435e-05
2.48691e-05
2.52369e-05
2.55456e-05
2.5794e-05
2.59811e-05
2.61063e-05
2.6169e-05
2.61691e-05
2.61065e-05
2.59815e-05
2.57945e-05
2.55463e-05
2.52377e-05
2.487e-05
2.44446e-05
2.39631e-05
2.34274e-05
2.28396e-05
2.22021e-05
2.15173e-05
2.07881e-05
2.00175e-05
1.92085e-05
1.83646e-05
1.74886e-05
1.65837e-05
1.56522e-05
1.46965e-05
1.37189e-05
1.27217e-05
1.17072e-05
1.06773e-05
9.63363e-06
8.57708e-06
7.50711e-06
6.4212e-06
5.31397e-06
4.176e-06
2.99215e-06
1.73883e-06
3.1642e-09
1.18507e-11
1.20067e-11
3.20611e-09
1.7608e-06
3.02843e-06
4.22512e-06
5.37502e-06
6.49356e-06
7.59035e-06
8.67087e-06
9.73771e-06
1.07914e-05
1.18311e-05
1.28552e-05
1.38618e-05
1.48485e-05
1.58131e-05
1.67533e-05
1.76667e-05
1.85508e-05
1.94026e-05
2.02191e-05
2.09969e-05
2.17328e-05
2.24239e-05
2.30674e-05
2.36606e-05
2.42013e-05
2.46873e-05
2.51166e-05
2.54877e-05
2.57992e-05
2.60498e-05
2.62386e-05
2.63649e-05
2.64282e-05
2.64283e-05
2.63651e-05
2.6239e-05
2.60504e-05
2.57999e-05
2.54886e-05
2.51176e-05
2.46884e-05
2.42026e-05
2.36621e-05
2.3069e-05
2.24256e-05
2.17346e-05
2.09988e-05
2.02211e-05
1.94047e-05
1.85529e-05
1.76689e-05
1.67555e-05
1.58153e-05
1.48508e-05
1.3864e-05
1.28575e-05
1.18333e-05
1.07935e-05
9.73979e-06
8.67284e-06
7.59217e-06
6.49521e-06
5.37646e-06
4.22632e-06
3.02935e-06
1.76139e-06
3.20736e-09
1.20117e-11
1.20945e-11
3.22964e-09
1.7731e-06
3.0487e-06
4.25255e-06
5.40909e-06
6.53394e-06
7.63679e-06
8.72318e-06
9.79574e-06
1.0855e-05
1.19001e-05
1.29296e-05
1.39413e-05
1.49331e-05
1.59026e-05
1.68477e-05
1.77658e-05
1.86544e-05
1.95106e-05
2.03312e-05
2.1113e-05
2.18526e-05
2.25472e-05
2.31939e-05
2.37901e-05
2.43335e-05
2.48219e-05
2.52534e-05
2.56263e-05
2.59393e-05
2.61912e-05
2.63809e-05
2.65078e-05
2.65714e-05
2.65715e-05
2.65081e-05
2.63813e-05
2.61917e-05
2.594e-05
2.56272e-05
2.52544e-05
2.4823e-05
2.43348e-05
2.37916e-05
2.31955e-05
2.25489e-05
2.18544e-05
2.11149e-05
2.03332e-05
1.95127e-05
1.86566e-05
1.7768e-05
1.68499e-05
1.5905e-05
1.49354e-05
1.39437e-05
1.29319e-05
1.19024e-05
1.08572e-05
9.79784e-06
8.72517e-06
7.63863e-06
6.53561e-06
5.41056e-06
4.25377e-06
3.04963e-06
1.77369e-06
3.2309e-09
1.20994e-11
1.21397e-11
3.24179e-09
1.77945e-06
3.05917e-06
4.26672e-06
5.4267e-06
6.55482e-06
7.66082e-06
8.75028e-06
9.82582e-06
1.0888e-05
1.1936e-05
1.29683e-05
1.39827e-05
1.49772e-05
1.59493e-05
1.68969e-05
1.78175e-05
1.87085e-05
1.9567e-05
2.03898e-05
2.11737e-05
2.19153e-05
2.26118e-05
2.32602e-05
2.3858e-05
2.44028e-05
2.48924e-05
2.53251e-05
2.5699e-05
2.60129e-05
2.62654e-05
2.64556e-05
2.65829e-05
2.66466e-05
2.66467e-05
2.65831e-05
2.6456e-05
2.62659e-05
2.60136e-05
2.56999e-05
2.53261e-05
2.48936e-05
2.44041e-05
2.38594e-05
2.32618e-05
2.26135e-05
2.19172e-05
2.11756e-05
2.03919e-05
1.95692e-05
1.87107e-05
1.78197e-05
1.68992e-05
1.59517e-05
1.49795e-05
1.39851e-05
1.29706e-05
1.19383e-05
1.08902e-05
9.82795e-06
8.75229e-06
7.66269e-06
6.55651e-06
5.42818e-06
4.26795e-06
3.06011e-06
1.78005e-06
3.24306e-09
1.21447e-11
1.21619e-11
3.24773e-09
1.78256e-06
3.0643e-06
4.27367e-06
5.43535e-06
6.56508e-06
7.67264e-06
8.76362e-06
9.84065e-06
1.09043e-05
1.19537e-05
1.29874e-05
1.40032e-05
1.4999e-05
1.59725e-05
1.69213e-05
1.78431e-05
1.87354e-05
1.95951e-05
2.0419e-05
2.12039e-05
2.19465e-05
2.26439e-05
2.32932e-05
2.38918e-05
2.44373e-05
2.49276e-05
2.53609e-05
2.57353e-05
2.60496e-05
2.63024e-05
2.64929e-05
2.66203e-05
2.66842e-05
2.66843e-05
2.66206e-05
2.64933e-05
2.6303e-05
2.60503e-05
2.57362e-05
2.53619e-05
2.49288e-05
2.44387e-05
2.38933e-05
2.32948e-05
2.26457e-05
2.19484e-05
2.12059e-05
2.04211e-05
1.95972e-05
1.87376e-05
1.78454e-05
1.69236e-05
1.59748e-05
1.50014e-05
1.40056e-05
1.29897e-05
1.1956e-05
1.09065e-05
9.8428e-06
8.76565e-06
7.67452e-06
6.56679e-06
5.43684e-06
4.27491e-06
3.06525e-06
1.78316e-06
3.24902e-09
1.21669e-11
1.21722e-11
3.25051e-09
1.78401e-06
3.0667e-06
4.27692e-06
5.43939e-06
6.56989e-06
7.67818e-06
8.76988e-06
9.84761e-06
1.09119e-05
1.1962e-05
1.29964e-05
1.40129e-05
1.50093e-05
1.59834e-05
1.69328e-05
1.78553e-05
1.87481e-05
1.96083e-05
2.04328e-05
2.12182e-05
2.19613e-05
2.26592e-05
2.33089e-05
2.39079e-05
2.44537e-05
2.49444e-05
2.53779e-05
2.57526e-05
2.6067e-05
2.632e-05
2.65107e-05
2.66382e-05
2.67021e-05
2.67022e-05
2.66384e-05
2.65111e-05
2.63206e-05
2.60678e-05
2.57535e-05
2.53789e-05
2.49456e-05
2.44551e-05
2.39093e-05
2.33105e-05
2.26609e-05
2.19632e-05
2.12202e-05
2.04349e-05
1.96105e-05
1.87503e-05
1.78576e-05
1.69352e-05
1.59857e-05
1.50117e-05
1.40152e-05
1.29987e-05
1.19644e-05
1.09142e-05
9.84977e-06
8.77192e-06
7.68007e-06
6.5716e-06
5.44089e-06
4.27817e-06
3.06765e-06
1.78462e-06
3.2518e-09
1.21773e-11
1.21768e-11
3.25174e-09
1.78466e-06
3.06777e-06
4.27837e-06
5.4412e-06
6.57203e-06
7.68066e-06
8.77268e-06
9.85073e-06
1.09154e-05
1.19658e-05
1.30004e-05
1.40172e-05
1.50139e-05
1.59883e-05
1.6938e-05
1.78608e-05
1.87538e-05
1.96143e-05
2.04391e-05
2.12247e-05
2.19681e-05
2.26661e-05
2.3316e-05
2.39151e-05
2.44612e-05
2.4952e-05
2.53856e-05
2.57604e-05
2.6075e-05
2.6328e-05
2.65187e-05
2.66463e-05
2.67102e-05
2.67103e-05
2.66465e-05
2.65191e-05
2.63286e-05
2.60757e-05
2.57613e-05
2.53867e-05
2.49532e-05
2.44625e-05
2.39166e-05
2.33176e-05
2.26679e-05
2.19699e-05
2.12267e-05
2.04411e-05
1.96165e-05
1.87561e-05
1.78631e-05
1.69404e-05
1.59907e-05
1.50163e-05
1.40196e-05
1.30028e-05
1.19681e-05
1.09176e-05
9.8529e-06
8.77473e-06
7.68255e-06
6.57375e-06
5.4427e-06
4.27962e-06
3.06872e-06
1.78527e-06
3.25303e-09
1.21819e-11
1.21787e-11
3.25227e-09
1.78493e-06
3.06822e-06
4.27899e-06
5.44197e-06
6.57295e-06
7.68172e-06
8.77388e-06
9.85207e-06
1.09168e-05
1.19674e-05
1.30022e-05
1.40191e-05
1.50159e-05
1.59904e-05
1.69403e-05
1.78631e-05
1.87563e-05
1.96169e-05
2.04418e-05
2.12275e-05
2.1971e-05
2.26691e-05
2.33191e-05
2.39183e-05
2.44644e-05
2.49553e-05
2.5389e-05
2.57638e-05
2.60784e-05
2.63315e-05
2.65222e-05
2.66498e-05
2.67137e-05
2.67138e-05
2.665e-05
2.65227e-05
2.63321e-05
2.60792e-05
2.57647e-05
2.539e-05
2.49565e-05
2.44658e-05
2.39198e-05
2.33207e-05
2.26709e-05
2.19728e-05
2.12295e-05
2.04439e-05
1.96191e-05
1.87586e-05
1.78654e-05
1.69426e-05
1.59928e-05
1.50183e-05
1.40215e-05
1.30045e-05
1.19697e-05
1.09191e-05
9.85424e-06
8.77593e-06
7.68362e-06
6.57467e-06
5.44347e-06
4.28024e-06
3.06918e-06
1.78554e-06
3.25356e-09
1.21838e-11
1.21795e-11
3.25248e-09
1.78505e-06
3.06841e-06
4.27924e-06
5.44228e-06
6.57332e-06
7.68215e-06
8.77437e-06
9.85262e-06
1.09174e-05
1.19681e-05
1.30029e-05
1.40198e-05
1.50167e-05
1.59913e-05
1.69412e-05
1.78641e-05
1.87574e-05
1.9618e-05
2.04429e-05
2.12287e-05
2.19722e-05
2.26703e-05
2.33204e-05
2.39196e-05
2.44658e-05
2.49567e-05
2.53904e-05
2.57652e-05
2.60799e-05
2.6333e-05
2.65237e-05
2.66513e-05
2.67152e-05
2.67153e-05
2.66515e-05
2.65241e-05
2.63336e-05
2.60806e-05
2.57662e-05
2.53914e-05
2.49579e-05
2.44671e-05
2.39211e-05
2.3322e-05
2.26721e-05
2.19741e-05
2.12307e-05
2.0445e-05
1.96202e-05
1.87596e-05
1.78664e-05
1.69436e-05
1.59937e-05
1.50191e-05
1.40222e-05
1.30052e-05
1.19704e-05
1.09197e-05
9.85479e-06
8.77642e-06
7.68405e-06
6.57505e-06
5.44379e-06
4.28049e-06
3.06937e-06
1.78566e-06
3.25378e-09
1.21846e-11
1.21798e-11
3.25257e-09
1.78509e-06
3.06848e-06
4.27934e-06
5.44241e-06
6.57347e-06
7.68232e-06
8.77457e-06
9.85283e-06
1.09177e-05
1.19683e-05
1.30032e-05
1.40201e-05
1.50171e-05
1.59917e-05
1.69416e-05
1.78645e-05
1.87578e-05
1.96185e-05
2.04433e-05
2.12291e-05
2.19727e-05
2.26708e-05
2.33209e-05
2.39202e-05
2.44663e-05
2.49572e-05
2.53909e-05
2.57658e-05
2.60804e-05
2.63336e-05
2.65243e-05
2.66519e-05
2.67158e-05
2.67159e-05
2.66521e-05
2.65247e-05
2.63342e-05
2.60812e-05
2.57667e-05
2.5392e-05
2.49584e-05
2.44677e-05
2.39217e-05
2.33225e-05
2.26726e-05
2.19745e-05
2.12311e-05
2.04454e-05
1.96206e-05
1.876e-05
1.78668e-05
1.69439e-05
1.5994e-05
1.50195e-05
1.40225e-05
1.30055e-05
1.19707e-05
1.09199e-05
9.85501e-06
8.77662e-06
7.68423e-06
6.57519e-06
5.44392e-06
4.28059e-06
3.06944e-06
1.7857e-06
3.25386e-09
1.21849e-11
1.21799e-11
3.2526e-09
1.78511e-06
3.06851e-06
4.27938e-06
5.44246e-06
6.57353e-06
7.68239e-06
8.77464e-06
9.85292e-06
1.09178e-05
1.19684e-05
1.30033e-05
1.40203e-05
1.50172e-05
1.59918e-05
1.69417e-05
1.78646e-05
1.87579e-05
1.96186e-05
2.04435e-05
2.12293e-05
2.19728e-05
2.2671e-05
2.33211e-05
2.39204e-05
2.44665e-05
2.49574e-05
2.53912e-05
2.5766e-05
2.60807e-05
2.63338e-05
2.65245e-05
2.66521e-05
2.6716e-05
2.67161e-05
2.66523e-05
2.65249e-05
2.63344e-05
2.60814e-05
2.57669e-05
2.53922e-05
2.49586e-05
2.44679e-05
2.39219e-05
2.33227e-05
2.26728e-05
2.19747e-05
2.12313e-05
2.04456e-05
1.96208e-05
1.87602e-05
1.7867e-05
1.69441e-05
1.59942e-05
1.50196e-05
1.40227e-05
1.30056e-05
1.19708e-05
1.092e-05
9.85509e-06
8.77669e-06
7.68429e-06
6.57525e-06
5.44396e-06
4.28063e-06
3.06947e-06
1.78572e-06
3.25389e-09
1.2185e-11
1.218e-11
3.25261e-09
1.78511e-06
3.06852e-06
4.27939e-06
5.44247e-06
6.57355e-06
7.68241e-06
8.77467e-06
9.85295e-06
1.09178e-05
1.19685e-05
1.30033e-05
1.40203e-05
1.50172e-05
1.59918e-05
1.69418e-05
1.78647e-05
1.8758e-05
1.96187e-05
2.04436e-05
2.12294e-05
2.19729e-05
2.26711e-05
2.33211e-05
2.39204e-05
2.44666e-05
2.49575e-05
2.53912e-05
2.57661e-05
2.60807e-05
2.63339e-05
2.65246e-05
2.66522e-05
2.67161e-05
2.67162e-05
2.66524e-05
2.6525e-05
2.63345e-05
2.60815e-05
2.5767e-05
2.53923e-05
2.49587e-05
2.4468e-05
2.39219e-05
2.33228e-05
2.26729e-05
2.19748e-05
2.12314e-05
2.04457e-05
1.96209e-05
1.87602e-05
1.7867e-05
1.69441e-05
1.59942e-05
1.50196e-05
1.40227e-05
1.30057e-05
1.19708e-05
1.09201e-05
9.85512e-06
8.77672e-06
7.68432e-06
6.57527e-06
5.44398e-06
4.28065e-06
3.06948e-06
1.78572e-06
3.25391e-09
1.21851e-11
1.218e-11
3.25262e-09
1.78512e-06
3.06852e-06
4.27939e-06
5.44248e-06
6.57356e-06
7.68242e-06
8.77468e-06
9.85296e-06
1.09178e-05
1.19685e-05
1.30033e-05
1.40203e-05
1.50173e-05
1.59919e-05
1.69418e-05
1.78647e-05
1.8758e-05
1.96187e-05
2.04436e-05
2.12294e-05
2.19729e-05
2.26711e-05
2.33212e-05
2.39205e-05
2.44666e-05
2.49575e-05
2.53913e-05
2.57661e-05
2.60808e-05
2.63339e-05
2.65246e-05
2.66522e-05
2.67161e-05
2.67162e-05
2.66525e-05
2.6525e-05
2.63345e-05
2.60815e-05
2.57671e-05
2.53923e-05
2.49587e-05
2.4468e-05
2.3922e-05
2.33228e-05
2.26729e-05
2.19748e-05
2.12314e-05
2.04457e-05
1.96209e-05
1.87603e-05
1.7867e-05
1.69442e-05
1.59942e-05
1.50197e-05
1.40227e-05
1.30057e-05
1.19708e-05
1.09201e-05
9.85513e-06
8.77673e-06
7.68432e-06
6.57528e-06
5.44399e-06
4.28065e-06
3.06948e-06
1.78572e-06
3.25391e-09
1.21851e-11
1.218e-11
3.25262e-09
1.78512e-06
3.06852e-06
4.2794e-06
5.44248e-06
6.57356e-06
7.68242e-06
8.77468e-06
9.85296e-06
1.09178e-05
1.19685e-05
1.30033e-05
1.40203e-05
1.50173e-05
1.59919e-05
1.69418e-05
1.78647e-05
1.8758e-05
1.96187e-05
2.04436e-05
2.12294e-05
2.19729e-05
2.26711e-05
2.33212e-05
2.39205e-05
2.44666e-05
2.49575e-05
2.53913e-05
2.57662e-05
2.60808e-05
2.63339e-05
2.65246e-05
2.66522e-05
2.67162e-05
2.67162e-05
2.66525e-05
2.65251e-05
2.63345e-05
2.60815e-05
2.57671e-05
2.53923e-05
2.49588e-05
2.4468e-05
2.3922e-05
2.33228e-05
2.26729e-05
2.19748e-05
2.12314e-05
2.04457e-05
1.96209e-05
1.87603e-05
1.7867e-05
1.69442e-05
1.59942e-05
1.50197e-05
1.40227e-05
1.30057e-05
1.19708e-05
1.09201e-05
9.85514e-06
8.77673e-06
7.68433e-06
6.57528e-06
5.44399e-06
4.28065e-06
3.06948e-06
1.78573e-06
3.25391e-09
1.21851e-11
1.218e-11
3.25262e-09
1.78512e-06
3.06852e-06
4.2794e-06
5.44248e-06
6.57356e-06
7.68242e-06
8.77468e-06
9.85296e-06
1.09178e-05
1.19685e-05
1.30033e-05
1.40203e-05
1.50173e-05
1.59919e-05
1.69418e-05
1.78647e-05
1.8758e-05
1.96187e-05
2.04436e-05
2.12294e-05
2.19729e-05
2.26711e-05
2.33212e-05
2.39205e-05
2.44666e-05
2.49575e-05
2.53913e-05
2.57662e-05
2.60808e-05
2.63339e-05
2.65246e-05
2.66522e-05
2.67162e-05
2.67162e-05
2.66525e-05
2.65251e-05
2.63345e-05
2.60815e-05
2.57671e-05
2.53923e-05
2.49588e-05
2.4468e-05
2.3922e-05
2.33228e-05
2.26729e-05
2.19748e-05
2.12314e-05
2.04457e-05
1.96209e-05
1.87603e-05
1.7867e-05
1.69442e-05
1.59942e-05
1.50197e-05
1.40227e-05
1.30057e-05
1.19708e-05
1.09201e-05
9.85514e-06
8.77674e-06
7.68433e-06
6.57528e-06
5.44399e-06
4.28065e-06
3.06948e-06
1.78573e-06
3.25391e-09
1.21851e-11
1.218e-11
3.25262e-09
1.78512e-06
3.06852e-06
4.2794e-06
5.44248e-06
6.57356e-06
7.68242e-06
8.77468e-06
9.85296e-06
1.09178e-05
1.19685e-05
1.30033e-05
1.40203e-05
1.50173e-05
1.59919e-05
1.69418e-05
1.78647e-05
1.8758e-05
1.96187e-05
2.04436e-05
2.12294e-05
2.19729e-05
2.26711e-05
2.33212e-05
2.39205e-05
2.44666e-05
2.49575e-05
2.53913e-05
2.57662e-05
2.60808e-05
2.63339e-05
2.65246e-05
2.66522e-05
2.67162e-05
2.67162e-05
2.66525e-05
2.65251e-05
2.63345e-05
2.60815e-05
2.57671e-05
2.53923e-05
2.49588e-05
2.4468e-05
2.3922e-05
2.33228e-05
2.26729e-05
2.19748e-05
2.12314e-05
2.04457e-05
1.96209e-05
1.87603e-05
1.7867e-05
1.69442e-05
1.59942e-05
1.50197e-05
1.40227e-05
1.30057e-05
1.19708e-05
1.09201e-05
9.85514e-06
8.77674e-06
7.68433e-06
6.57528e-06
5.44399e-06
4.28065e-06
3.06948e-06
1.78573e-06
3.25391e-09
1.21851e-11
1.218e-11
3.25262e-09
1.78512e-06
3.06852e-06
4.2794e-06
5.44248e-06
6.57356e-06
7.68242e-06
8.77468e-06
9.85296e-06
1.09178e-05
1.19685e-05
1.30033e-05
1.40203e-05
1.50173e-05
1.59919e-05
1.69418e-05
1.78647e-05
1.8758e-05
1.96187e-05
2.04436e-05
2.12294e-05
2.19729e-05
2.26711e-05
2.33212e-05
2.39205e-05
2.44666e-05
2.49575e-05
2.53913e-05
2.57662e-05
2.60808e-05
2.63339e-05
2.65246e-05
2.66522e-05
2.67162e-05
2.67162e-05
2.66525e-05
2.65251e-05
2.63345e-05
2.60815e-05
2.57671e-05
2.53923e-05
2.49588e-05
2.4468e-05
2.3922e-05
2.33228e-05
2.26729e-05
2.19748e-05
2.12314e-05
2.04457e-05
1.96209e-05
1.87603e-05
1.7867e-05
1.69442e-05
1.59942e-05
1.50197e-05
1.40227e-05
1.30057e-05
1.19708e-05
1.09201e-05
9.85514e-06
8.77674e-06
7.68433e-06
6.57528e-06
5.44399e-06
4.28065e-06
3.06948e-06
1.78573e-06
3.25391e-09
1.21851e-11
1.218e-11
3.25262e-09
1.78512e-06
3.06852e-06
4.2794e-06
5.44248e-06
6.57356e-06
7.68242e-06
8.77468e-06
9.85296e-06
1.09178e-05
1.19685e-05
1.30033e-05
1.40203e-05
1.50173e-05
1.59919e-05
1.69418e-05
1.78647e-05
1.8758e-05
1.96187e-05
2.04436e-05
2.12294e-05
2.19729e-05
2.26711e-05
2.33212e-05
2.39205e-05
2.44666e-05
2.49575e-05
2.53913e-05
2.57662e-05
2.60808e-05
2.63339e-05
2.65246e-05
2.66522e-05
2.67162e-05
2.67162e-05
2.66525e-05
2.65251e-05
2.63345e-05
2.60815e-05
2.57671e-05
2.53923e-05
2.49588e-05
2.4468e-05
2.3922e-05
2.33228e-05
2.26729e-05
2.19748e-05
2.12314e-05
2.04457e-05
1.96209e-05
1.87603e-05
1.7867e-05
1.69442e-05
1.59942e-05
1.50197e-05
1.40227e-05
1.30057e-05
1.19708e-05
1.09201e-05
9.85514e-06
8.77674e-06
7.68433e-06
6.57528e-06
5.44399e-06
4.28065e-06
3.06948e-06
1.78573e-06
3.25391e-09
1.21851e-11
1.218e-11
3.25262e-09
1.78512e-06
3.06852e-06
4.2794e-06
5.44248e-06
6.57356e-06
7.68242e-06
8.77468e-06
9.85296e-06
1.09178e-05
1.19685e-05
1.30033e-05
1.40203e-05
1.50173e-05
1.59919e-05
1.69418e-05
1.78647e-05
1.8758e-05
1.96187e-05
2.04436e-05
2.12294e-05
2.19729e-05
2.26711e-05
2.33212e-05
2.39205e-05
2.44666e-05
2.49575e-05
2.53913e-05
2.57662e-05
2.60808e-05
2.63339e-05
2.65246e-05
2.66522e-05
2.67162e-05
2.67162e-05
2.66525e-05
2.65251e-05
2.63345e-05
2.60815e-05
2.57671e-05
2.53923e-05
2.49588e-05
2.4468e-05
2.3922e-05
2.33228e-05
2.26729e-05
2.19748e-05
2.12314e-05
2.04457e-05
1.96209e-05
1.87603e-05
1.7867e-05
1.69442e-05
1.59942e-05
1.50197e-05
1.40227e-05
1.30057e-05
1.19708e-05
1.09201e-05
9.85514e-06
8.77674e-06
7.68433e-06
6.57528e-06
5.44399e-06
4.28065e-06
3.06948e-06
1.78573e-06
3.25391e-09
1.21851e-11
1.218e-11
3.25262e-09
1.78512e-06
3.06852e-06
4.2794e-06
5.44248e-06
6.57356e-06
7.68242e-06
8.77468e-06
9.85296e-06
1.09178e-05
1.19685e-05
1.30033e-05
1.40203e-05
1.50173e-05
1.59919e-05
1.69418e-05
1.78647e-05
1.8758e-05
1.96187e-05
2.04436e-05
2.12294e-05
2.19729e-05
2.26711e-05
2.33212e-05
2.39205e-05
2.44666e-05
2.49575e-05
2.53913e-05
2.57662e-05
2.60808e-05
2.63339e-05
2.65246e-05
2.66522e-05
2.67162e-05
2.67162e-05
2.66525e-05
2.65251e-05
2.63345e-05
2.60815e-05
2.57671e-05
2.53923e-05
2.49588e-05
2.4468e-05
2.3922e-05
2.33228e-05
2.26729e-05
2.19748e-05
2.12314e-05
2.04457e-05
1.96209e-05
1.87603e-05
1.7867e-05
1.69442e-05
1.59942e-05
1.50197e-05
1.40227e-05
1.30057e-05
1.19708e-05
1.09201e-05
9.85514e-06
8.77674e-06
7.68433e-06
6.57528e-06
5.44399e-06
4.28065e-06
3.06948e-06
1.78573e-06
3.25391e-09
1.21851e-11
1.218e-11
3.25262e-09
1.78512e-06
3.06852e-06
4.2794e-06
5.44248e-06
6.57356e-06
7.68242e-06
8.77468e-06
9.85296e-06
1.09178e-05
1.19685e-05
1.30033e-05
1.40203e-05
1.50173e-05
1.59919e-05
1.69418e-05
1.78647e-05
1.8758e-05
1.96187e-05
2.04436e-05
2.12294e-05
2.19729e-05
2.26711e-05
2.33212e-05
2.39205e-05
2.44666e-05
2.49575e-05
2.53913e-05
2.57662e-05
2.60808e-05
2.63339e-05
2.65246e-05
2.66522e-05
2.67162e-05
2.67162e-05
2.66525e-05
2.65251e-05
2.63345e-05
2.60815e-05
2.57671e-05
2.53923e-05
2.49588e-05
2.4468e-05
2.3922e-05
2.33228e-05
2.26729e-05
2.19748e-05
2.12314e-05
2.04457e-05
1.96209e-05
1.87603e-05
1.7867e-05
1.69442e-05
1.59942e-05
1.50197e-05
1.40227e-05
1.30057e-05
1.19708e-05
1.09201e-05
9.85514e-06
8.77674e-06
7.68433e-06
6.57528e-06
5.44399e-06
4.28065e-06
3.06948e-06
1.78573e-06
3.25391e-09
1.21851e-11
1.218e-11
3.25262e-09
1.78512e-06
3.06852e-06
4.2794e-06
5.44248e-06
6.57356e-06
7.68242e-06
8.77468e-06
9.85296e-06
1.09178e-05
1.19685e-05
1.30033e-05
1.40203e-05
1.50173e-05
1.59919e-05
1.69418e-05
1.78647e-05
1.8758e-05
1.96187e-05
2.04436e-05
2.12294e-05
2.19729e-05
2.26711e-05
2.33212e-05
2.39205e-05
2.44666e-05
2.49575e-05
2.53913e-05
2.57662e-05
2.60808e-05
2.63339e-05
2.65246e-05
2.66522e-05
2.67162e-05
2.67162e-05
2.66525e-05
2.65251e-05
2.63345e-05
2.60815e-05
2.57671e-05
2.53923e-05
2.49588e-05
2.4468e-05
2.3922e-05
2.33228e-05
2.26729e-05
2.19748e-05
2.12314e-05
2.04457e-05
1.96209e-05
1.87603e-05
1.7867e-05
1.69442e-05
1.59942e-05
1.50197e-05
1.40227e-05
1.30057e-05
1.19708e-05
1.09201e-05
9.85514e-06
8.77674e-06
7.68433e-06
6.57528e-06
5.44399e-06
4.28065e-06
3.06948e-06
1.78573e-06
3.25391e-09
1.21851e-11
1.218e-11
3.25262e-09
1.78512e-06
3.06852e-06
4.2794e-06
5.44248e-06
6.57356e-06
7.68242e-06
8.77468e-06
9.85296e-06
1.09178e-05
1.19685e-05
1.30033e-05
1.40203e-05
1.50173e-05
1.59919e-05
1.69418e-05
1.78647e-05
1.8758e-05
1.96187e-05
2.04436e-05
2.12294e-05
2.19729e-05
2.26711e-05
2.33212e-05
2.39205e-05
2.44666e-05
2.49575e-05
2.53913e-05
2.57662e-05
2.60808e-05
2.63339e-05
2.65246e-05
2.66522e-05
2.67162e-05
2.67162e-05
2.66525e-05
2.65251e-05
2.63345e-05
2.60815e-05
2.57671e-05
2.53923e-05
2.49588e-05
2.4468e-05
2.3922e-05
2.33228e-05
2.26729e-05
2.19748e-05
2.12314e-05
2.04457e-05
1.96209e-05
1.87603e-05
1.7867e-05
1.69442e-05
1.59942e-05
1.50197e-05
1.40227e-05
1.30057e-05
1.19708e-05
1.09201e-05
9.85514e-06
8.77674e-06
7.68433e-06
6.57528e-06
5.44399e-06
4.28065e-06
3.06948e-06
1.78573e-06
3.25391e-09
1.21851e-11
1.218e-11
3.25262e-09
1.78512e-06
3.06852e-06
4.2794e-06
5.44248e-06
6.57356e-06
7.68242e-06
8.77468e-06
9.85296e-06
1.09178e-05
1.19685e-05
1.30033e-05
1.40203e-05
1.50173e-05
1.59919e-05
1.69418e-05
1.78647e-05
1.8758e-05
1.96187e-05
2.04436e-05
2.12294e-05
2.19729e-05
2.26711e-05
2.33212e-05
2.39205e-05
2.44666e-05
2.49575e-05
2.53913e-05
2.57662e-05
2.60808e-05
2.63339e-05
2.65246e-05
2.66522e-05
2.67162e-05
2.67162e-05
2.66525e-05
2.65251e-05
2.63345e-05
2.60815e-05
2.57671e-05
2.53923e-05
2.49588e-05
2.4468e-05
2.3922e-05
2.33228e-05
2.26729e-05
2.19748e-05
2.12314e-05
2.04457e-05
1.96209e-05
1.87603e-05
1.7867e-05
1.69442e-05
1.59942e-05
1.50197e-05
1.40227e-05
1.30057e-05
1.19708e-05
1.09201e-05
9.85514e-06
8.77674e-06
7.68433e-06
6.57528e-06
5.44399e-06
4.28065e-06
3.06948e-06
1.78573e-06
3.25391e-09
1.21851e-11
1.218e-11
3.25262e-09
1.78512e-06
3.06852e-06
4.2794e-06
5.44248e-06
6.57356e-06
7.68242e-06
8.77468e-06
9.85296e-06
1.09178e-05
1.19685e-05
1.30033e-05
1.40203e-05
1.50173e-05