/*--------------------------------*- C++ -*----------------------------------*\
  =========                 |
  \\      /  F ield         | OpenFOAM: The Open Source CFD Toolbox
   \\    /   O peration     | Website:  https://openfoam.org
    \\  /    A nd           | Version:  13
     \\/     M anipulation  |
\*---------------------------------------------------------------------------*/
FoamFile
{
    format      ascii;
    class       volVectorField;
    location    "1000";
    object      C;
}
// * * * * * * * * * * * * * * * * * * * * * * * * * * * * * * * * * * * * * //

dimensions      [0 1 0 0 0 0 0];

internalField   nonuniform List<vector> 
78750
(
(0.00108571 0.00726667 -0.242667)
(0.00325714 0.00726667 -0.242667)
(0.00542857 0.00726667 -0.242667)
(0.0076 0.00726667 -0.242667)
(0.00977143 0.00726667 -0.242667)
(0.0119429 0.00726667 -0.242667)
(0.0141143 0.00726667 -0.242667)
(0.0162857 0.00726667 -0.242667)
(0.0184571 0.00726667 -0.242667)
(0.0206286 0.00726667 -0.242667)
(0.0228 0.00726667 -0.242667)
(0.0249714 0.00726667 -0.242667)
(0.0271429 0.00726667 -0.242667)
(0.0293143 0.00726667 -0.242667)
(0.0314857 0.00726667 -0.242667)
(0.0336571 0.00726667 -0.242667)
(0.0358286 0.00726667 -0.242667)
(0.038 0.00726667 -0.242667)
(0.0401714 0.00726667 -0.242667)
(0.0423429 0.00726667 -0.242667)
(0.0445143 0.00726667 -0.242667)
(0.0466857 0.00726667 -0.242667)
(0.0488571 0.00726667 -0.242667)
(0.0510286 0.00726667 -0.242667)
(0.0532 0.00726667 -0.242667)
(0.0553714 0.00726667 -0.242667)
(0.0575429 0.00726667 -0.242667)
(0.0597143 0.00726667 -0.242667)
(0.0618857 0.00726667 -0.242667)
(0.0640571 0.00726667 -0.242667)
(0.0662286 0.00726667 -0.242667)
(0.0684 0.00726667 -0.242667)
(0.0705714 0.00726667 -0.242667)
(0.0727429 0.00726667 -0.242667)
(0.0749143 0.00726667 -0.242667)
(0.00108571 0.0218 -0.242667)
(0.00325714 0.0218 -0.242667)
(0.00542857 0.0218 -0.242667)
(0.0076 0.0218 -0.242667)
(0.00977143 0.0218 -0.242667)
(0.0119429 0.0218 -0.242667)
(0.0141143 0.0218 -0.242667)
(0.0162857 0.0218 -0.242667)
(0.0184571 0.0218 -0.242667)
(0.0206286 0.0218 -0.242667)
(0.0228 0.0218 -0.242667)
(0.0249714 0.0218 -0.242667)
(0.0271429 0.0218 -0.242667)
(0.0293143 0.0218 -0.242667)
(0.0314857 0.0218 -0.242667)
(0.0336571 0.0218 -0.242667)
(0.0358286 0.0218 -0.242667)
(0.038 0.0218 -0.242667)
(0.0401714 0.0218 -0.242667)
(0.0423429 0.0218 -0.242667)
(0.0445143 0.0218 -0.242667)
(0.0466857 0.0218 -0.242667)
(0.0488571 0.0218 -0.242667)
(0.0510286 0.0218 -0.242667)
(0.0532 0.0218 -0.242667)
(0.0553714 0.0218 -0.242667)
(0.0575429 0.0218 -0.242667)
(0.0597143 0.0218 -0.242667)
(0.0618857 0.0218 -0.242667)
(0.0640571 0.0218 -0.242667)
(0.0662286 0.0218 -0.242667)
(0.0684 0.0218 -0.242667)
(0.0705714 0.0218 -0.242667)
(0.0727429 0.0218 -0.242667)
(0.0749143 0.0218 -0.242667)
(0.00108571 0.0363333 -0.242667)
(0.00325714 0.0363333 -0.242667)
(0.00542857 0.0363333 -0.242667)
(0.0076 0.0363333 -0.242667)
(0.00977143 0.0363333 -0.242667)
(0.0119429 0.0363333 -0.242667)
(0.0141143 0.0363333 -0.242667)
(0.0162857 0.0363333 -0.242667)
(0.0184571 0.0363333 -0.242667)
(0.0206286 0.0363333 -0.242667)
(0.0228 0.0363333 -0.242667)
(0.0249714 0.0363333 -0.242667)
(0.0271429 0.0363333 -0.242667)
(0.0293143 0.0363333 -0.242667)
(0.0314857 0.0363333 -0.242667)
(0.0336571 0.0363333 -0.242667)
(0.0358286 0.0363333 -0.242667)
(0.038 0.0363333 -0.242667)
(0.0401714 0.0363333 -0.242667)
(0.0423429 0.0363333 -0.242667)
(0.0445143 0.0363333 -0.242667)
(0.0466857 0.0363333 -0.242667)
(0.0488571 0.0363333 -0.242667)
(0.0510286 0.0363333 -0.242667)
(0.0532 0.0363333 -0.242667)
(0.0553714 0.0363333 -0.242667)
(0.0575429 0.0363333 -0.242667)
(0.0597143 0.0363333 -0.242667)
(0.0618857 0.0363333 -0.242667)
(0.0640571 0.0363333 -0.242667)
(0.0662286 0.0363333 -0.242667)
(0.0684 0.0363333 -0.242667)
(0.0705714 0.0363333 -0.242667)
(0.0727429 0.0363333 -0.242667)
(0.0749143 0.0363333 -0.242667)
(0.00108571 0.0508667 -0.242667)
(0.00325714 0.0508667 -0.242667)
(0.00542857 0.0508667 -0.242667)
(0.0076 0.0508667 -0.242667)
(0.00977143 0.0508667 -0.242667)
(0.0119429 0.0508667 -0.242667)
(0.0141143 0.0508667 -0.242667)
(0.0162857 0.0508667 -0.242667)
(0.0184571 0.0508667 -0.242667)
(0.0206286 0.0508667 -0.242667)
(0.0228 0.0508667 -0.242667)
(0.0249714 0.0508667 -0.242667)
(0.0271429 0.0508667 -0.242667)
(0.0293143 0.0508667 -0.242667)
(0.0314857 0.0508667 -0.242667)
(0.0336571 0.0508667 -0.242667)
(0.0358286 0.0508667 -0.242667)
(0.038 0.0508667 -0.242667)
(0.0401714 0.0508667 -0.242667)
(0.0423429 0.0508667 -0.242667)
(0.0445143 0.0508667 -0.242667)
(0.0466857 0.0508667 -0.242667)
(0.0488571 0.0508667 -0.242667)
(0.0510286 0.0508667 -0.242667)
(0.0532 0.0508667 -0.242667)
(0.0553714 0.0508667 -0.242667)
(0.0575429 0.0508667 -0.242667)
(0.0597143 0.0508667 -0.242667)
(0.0618857 0.0508667 -0.242667)
(0.0640571 0.0508667 -0.242667)
(0.0662286 0.0508667 -0.242667)
(0.0684 0.0508667 -0.242667)
(0.0705714 0.0508667 -0.242667)
(0.0727429 0.0508667 -0.242667)
(0.0749143 0.0508667 -0.242667)
(0.00108571 0.0654 -0.242667)
(0.00325714 0.0654 -0.242667)
(0.00542857 0.0654 -0.242667)
(0.0076 0.0654 -0.242667)
(0.00977143 0.0654 -0.242667)
(0.0119429 0.0654 -0.242667)
(0.0141143 0.0654 -0.242667)
(0.0162857 0.0654 -0.242667)
(0.0184571 0.0654 -0.242667)
(0.0206286 0.0654 -0.242667)
(0.0228 0.0654 -0.242667)
(0.0249714 0.0654 -0.242667)
(0.0271429 0.0654 -0.242667)
(0.0293143 0.0654 -0.242667)
(0.0314857 0.0654 -0.242667)
(0.0336571 0.0654 -0.242667)
(0.0358286 0.0654 -0.242667)
(0.038 0.0654 -0.242667)
(0.0401714 0.0654 -0.242667)
(0.0423429 0.0654 -0.242667)
(0.0445143 0.0654 -0.242667)
(0.0466857 0.0654 -0.242667)
(0.0488571 0.0654 -0.242667)
(0.0510286 0.0654 -0.242667)
(0.0532 0.0654 -0.242667)
(0.0553714 0.0654 -0.242667)
(0.0575429 0.0654 -0.242667)
(0.0597143 0.0654 -0.242667)
(0.0618857 0.0654 -0.242667)
(0.0640571 0.0654 -0.242667)
(0.0662286 0.0654 -0.242667)
(0.0684 0.0654 -0.242667)
(0.0705714 0.0654 -0.242667)
(0.0727429 0.0654 -0.242667)
(0.0749143 0.0654 -0.242667)
(0.00108571 0.0799333 -0.242667)
(0.00325714 0.0799333 -0.242667)
(0.00542857 0.0799333 -0.242667)
(0.0076 0.0799333 -0.242667)
(0.00977143 0.0799333 -0.242667)
(0.0119429 0.0799333 -0.242667)
(0.0141143 0.0799333 -0.242667)
(0.0162857 0.0799333 -0.242667)
(0.0184571 0.0799333 -0.242667)
(0.0206286 0.0799333 -0.242667)
(0.0228 0.0799333 -0.242667)
(0.0249714 0.0799333 -0.242667)
(0.0271429 0.0799333 -0.242667)
(0.0293143 0.0799333 -0.242667)
(0.0314857 0.0799333 -0.242667)
(0.0336571 0.0799333 -0.242667)
(0.0358286 0.0799333 -0.242667)
(0.038 0.0799333 -0.242667)
(0.0401714 0.0799333 -0.242667)
(0.0423429 0.0799333 -0.242667)
(0.0445143 0.0799333 -0.242667)
(0.0466857 0.0799333 -0.242667)
(0.0488571 0.0799333 -0.242667)
(0.0510286 0.0799333 -0.242667)
(0.0532 0.0799333 -0.242667)
(0.0553714 0.0799333 -0.242667)
(0.0575429 0.0799333 -0.242667)
(0.0597143 0.0799333 -0.242667)
(0.0618857 0.0799333 -0.242667)
(0.0640571 0.0799333 -0.242667)
(0.0662286 0.0799333 -0.242667)
(0.0684 0.0799333 -0.242667)
(0.0705714 0.0799333 -0.242667)
(0.0727429 0.0799333 -0.242667)
(0.0749143 0.0799333 -0.242667)
(0.00108571 0.0944667 -0.242667)
(0.00325714 0.0944667 -0.242667)
(0.00542857 0.0944667 -0.242667)
(0.0076 0.0944667 -0.242667)
(0.00977143 0.0944667 -0.242667)
(0.0119429 0.0944667 -0.242667)
(0.0141143 0.0944667 -0.242667)
(0.0162857 0.0944667 -0.242667)
(0.0184571 0.0944667 -0.242667)
(0.0206286 0.0944667 -0.242667)
(0.0228 0.0944667 -0.242667)
(0.0249714 0.0944667 -0.242667)
(0.0271429 0.0944667 -0.242667)
(0.0293143 0.0944667 -0.242667)
(0.0314857 0.0944667 -0.242667)
(0.0336571 0.0944667 -0.242667)
(0.0358286 0.0944667 -0.242667)
(0.038 0.0944667 -0.242667)
(0.0401714 0.0944667 -0.242667)
(0.0423429 0.0944667 -0.242667)
(0.0445143 0.0944667 -0.242667)
(0.0466857 0.0944667 -0.242667)
(0.0488571 0.0944667 -0.242667)
(0.0510286 0.0944667 -0.242667)
(0.0532 0.0944667 -0.242667)
(0.0553714 0.0944667 -0.242667)
(0.0575429 0.0944667 -0.242667)
(0.0597143 0.0944667 -0.242667)
(0.0618857 0.0944667 -0.242667)
(0.0640571 0.0944667 -0.242667)
(0.0662286 0.0944667 -0.242667)
(0.0684 0.0944667 -0.242667)
(0.0705714 0.0944667 -0.242667)
(0.0727429 0.0944667 -0.242667)
(0.0749143 0.0944667 -0.242667)
(0.00108571 0.109 -0.242667)
(0.00325714 0.109 -0.242667)
(0.00542857 0.109 -0.242667)
(0.0076 0.109 -0.242667)
(0.00977143 0.109 -0.242667)
(0.0119429 0.109 -0.242667)
(0.0141143 0.109 -0.242667)
(0.0162857 0.109 -0.242667)
(0.0184571 0.109 -0.242667)
(0.0206286 0.109 -0.242667)
(0.0228 0.109 -0.242667)
(0.0249714 0.109 -0.242667)
(0.0271429 0.109 -0.242667)
(0.0293143 0.109 -0.242667)
(0.0314857 0.109 -0.242667)
(0.0336571 0.109 -0.242667)
(0.0358286 0.109 -0.242667)
(0.038 0.109 -0.242667)
(0.0401714 0.109 -0.242667)
(0.0423429 0.109 -0.242667)
(0.0445143 0.109 -0.242667)
(0.0466857 0.109 -0.242667)
(0.0488571 0.109 -0.242667)
(0.0510286 0.109 -0.242667)
(0.0532 0.109 -0.242667)
(0.0553714 0.109 -0.242667)
(0.0575429 0.109 -0.242667)
(0.0597143 0.109 -0.242667)
(0.0618857 0.109 -0.242667)
(0.0640571 0.109 -0.242667)
(0.0662286 0.109 -0.242667)
(0.0684 0.109 -0.242667)
(0.0705714 0.109 -0.242667)
(0.0727429 0.109 -0.242667)
(0.0749143 0.109 -0.242667)
(0.00108571 0.123533 -0.242667)
(0.00325714 0.123533 -0.242667)
(0.00542857 0.123533 -0.242667)
(0.0076 0.123533 -0.242667)
(0.00977143 0.123533 -0.242667)
(0.0119429 0.123533 -0.242667)
(0.0141143 0.123533 -0.242667)
(0.0162857 0.123533 -0.242667)
(0.0184571 0.123533 -0.242667)
(0.0206286 0.123533 -0.242667)
(0.0228 0.123533 -0.242667)
(0.0249714 0.123533 -0.242667)
(0.0271429 0.123533 -0.242667)
(0.0293143 0.123533 -0.242667)
(0.0314857 0.123533 -0.242667)
(0.0336571 0.123533 -0.242667)
(0.0358286 0.123533 -0.242667)
(0.038 0.123533 -0.242667)
(0.0401714 0.123533 -0.242667)
(0.0423429 0.123533 -0.242667)
(0.0445143 0.123533 -0.242667)
(0.0466857 0.123533 -0.242667)
(0.0488571 0.123533 -0.242667)
(0.0510286 0.123533 -0.242667)
(0.0532 0.123533 -0.242667)
(0.0553714 0.123533 -0.242667)
(0.0575429 0.123533 -0.242667)
(0.0597143 0.123533 -0.242667)
(0.0618857 0.123533 -0.242667)
(0.0640571 0.123533 -0.242667)
(0.0662286 0.123533 -0.242667)
(0.0684 0.123533 -0.242667)
(0.0705714 0.123533 -0.242667)
(0.0727429 0.123533 -0.242667)
(0.0749143 0.123533 -0.242667)
(0.00108571 0.138067 -0.242667)
(0.00325714 0.138067 -0.242667)
(0.00542857 0.138067 -0.242667)
(0.0076 0.138067 -0.242667)
(0.00977143 0.138067 -0.242667)
(0.0119429 0.138067 -0.242667)
(0.0141143 0.138067 -0.242667)
(0.0162857 0.138067 -0.242667)
(0.0184571 0.138067 -0.242667)
(0.0206286 0.138067 -0.242667)
(0.0228 0.138067 -0.242667)
(0.0249714 0.138067 -0.242667)
(0.0271429 0.138067 -0.242667)
(0.0293143 0.138067 -0.242667)
(0.0314857 0.138067 -0.242667)
(0.0336571 0.138067 -0.242667)
(0.0358286 0.138067 -0.242667)
(0.038 0.138067 -0.242667)
(0.0401714 0.138067 -0.242667)
(0.0423429 0.138067 -0.242667)
(0.0445143 0.138067 -0.242667)
(0.0466857 0.138067 -0.242667)
(0.0488571 0.138067 -0.242667)
(0.0510286 0.138067 -0.242667)
(0.0532 0.138067 -0.242667)
(0.0553714 0.138067 -0.242667)
(0.0575429 0.138067 -0.242667)
(0.0597143 0.138067 -0.242667)
(0.0618857 0.138067 -0.242667)
(0.0640571 0.138067 -0.242667)
(0.0662286 0.138067 -0.242667)
(0.0684 0.138067 -0.242667)
(0.0705714 0.138067 -0.242667)
(0.0727429 0.138067 -0.242667)
(0.0749143 0.138067 -0.242667)
(0.00108571 0.1526 -0.242667)
(0.00325714 0.1526 -0.242667)
(0.00542857 0.1526 -0.242667)
(0.0076 0.1526 -0.242667)
(0.00977143 0.1526 -0.242667)
(0.0119429 0.1526 -0.242667)
(0.0141143 0.1526 -0.242667)
(0.0162857 0.1526 -0.242667)
(0.0184571 0.1526 -0.242667)
(0.0206286 0.1526 -0.242667)
(0.0228 0.1526 -0.242667)
(0.0249714 0.1526 -0.242667)
(0.0271429 0.1526 -0.242667)
(0.0293143 0.1526 -0.242667)
(0.0314857 0.1526 -0.242667)
(0.0336571 0.1526 -0.242667)
(0.0358286 0.1526 -0.242667)
(0.038 0.1526 -0.242667)
(0.0401714 0.1526 -0.242667)
(0.0423429 0.1526 -0.242667)
(0.0445143 0.1526 -0.242667)
(0.0466857 0.1526 -0.242667)
(0.0488571 0.1526 -0.242667)
(0.0510286 0.1526 -0.242667)
(0.0532 0.1526 -0.242667)
(0.0553714 0.1526 -0.242667)
(0.0575429 0.1526 -0.242667)
(0.0597143 0.1526 -0.242667)
(0.0618857 0.1526 -0.242667)
(0.0640571 0.1526 -0.242667)
(0.0662286 0.1526 -0.242667)
(0.0684 0.1526 -0.242667)
(0.0705714 0.1526 -0.242667)
(0.0727429 0.1526 -0.242667)
(0.0749143 0.1526 -0.242667)
(0.00108571 0.167133 -0.242667)
(0.00325714 0.167133 -0.242667)
(0.00542857 0.167133 -0.242667)
(0.0076 0.167133 -0.242667)
(0.00977143 0.167133 -0.242667)
(0.0119429 0.167133 -0.242667)
(0.0141143 0.167133 -0.242667)
(0.0162857 0.167133 -0.242667)
(0.0184571 0.167133 -0.242667)
(0.0206286 0.167133 -0.242667)
(0.0228 0.167133 -0.242667)
(0.0249714 0.167133 -0.242667)
(0.0271429 0.167133 -0.242667)
(0.0293143 0.167133 -0.242667)
(0.0314857 0.167133 -0.242667)
(0.0336571 0.167133 -0.242667)
(0.0358286 0.167133 -0.242667)
(0.038 0.167133 -0.242667)
(0.0401714 0.167133 -0.242667)
(0.0423429 0.167133 -0.242667)
(0.0445143 0.167133 -0.242667)
(0.0466857 0.167133 -0.242667)
(0.0488571 0.167133 -0.242667)
(0.0510286 0.167133 -0.242667)
(0.0532 0.167133 -0.242667)
(0.0553714 0.167133 -0.242667)
(0.0575429 0.167133 -0.242667)
(0.0597143 0.167133 -0.242667)
(0.0618857 0.167133 -0.242667)
(0.0640571 0.167133 -0.242667)
(0.0662286 0.167133 -0.242667)
(0.0684 0.167133 -0.242667)
(0.0705714 0.167133 -0.242667)
(0.0727429 0.167133 -0.242667)
(0.0749143 0.167133 -0.242667)
(0.00108571 0.181667 -0.242667)
(0.00325714 0.181667 -0.242667)
(0.00542857 0.181667 -0.242667)
(0.0076 0.181667 -0.242667)
(0.00977143 0.181667 -0.242667)
(0.0119429 0.181667 -0.242667)
(0.0141143 0.181667 -0.242667)
(0.0162857 0.181667 -0.242667)
(0.0184571 0.181667 -0.242667)
(0.0206286 0.181667 -0.242667)
(0.0228 0.181667 -0.242667)
(0.0249714 0.181667 -0.242667)
(0.0271429 0.181667 -0.242667)
(0.0293143 0.181667 -0.242667)
(0.0314857 0.181667 -0.242667)
(0.0336571 0.181667 -0.242667)
(0.0358286 0.181667 -0.242667)
(0.038 0.181667 -0.242667)
(0.0401714 0.181667 -0.242667)
(0.0423429 0.181667 -0.242667)
(0.0445143 0.181667 -0.242667)
(0.0466857 0.181667 -0.242667)
(0.0488571 0.181667 -0.242667)
(0.0510286 0.181667 -0.242667)
(0.0532 0.181667 -0.242667)
(0.0553714 0.181667 -0.242667)
(0.0575429 0.181667 -0.242667)
(0.0597143 0.181667 -0.242667)
(0.0618857 0.181667 -0.242667)
(0.0640571 0.181667 -0.242667)
(0.0662286 0.181667 -0.242667)
(0.0684 0.181667 -0.242667)
(0.0705714 0.181667 -0.242667)
(0.0727429 0.181667 -0.242667)
(0.0749143 0.181667 -0.242667)
(0.00108571 0.1962 -0.242667)
(0.00325714 0.1962 -0.242667)
(0.00542857 0.1962 -0.242667)
(0.0076 0.1962 -0.242667)
(0.00977143 0.1962 -0.242667)
(0.0119429 0.1962 -0.242667)
(0.0141143 0.1962 -0.242667)
(0.0162857 0.1962 -0.242667)
(0.0184571 0.1962 -0.242667)
(0.0206286 0.1962 -0.242667)
(0.0228 0.1962 -0.242667)
(0.0249714 0.1962 -0.242667)
(0.0271429 0.1962 -0.242667)
(0.0293143 0.1962 -0.242667)
(0.0314857 0.1962 -0.242667)
(0.0336571 0.1962 -0.242667)
(0.0358286 0.1962 -0.242667)
(0.038 0.1962 -0.242667)
(0.0401714 0.1962 -0.242667)
(0.0423429 0.1962 -0.242667)
(0.0445143 0.1962 -0.242667)
(0.0466857 0.1962 -0.242667)
(0.0488571 0.1962 -0.242667)
(0.0510286 0.1962 -0.242667)
(0.0532 0.1962 -0.242667)
(0.0553714 0.1962 -0.242667)
(0.0575429 0.1962 -0.242667)
(0.0597143 0.1962 -0.242667)
(0.0618857 0.1962 -0.242667)
(0.0640571 0.1962 -0.242667)
(0.0662286 0.1962 -0.242667)
(0.0684 0.1962 -0.242667)
(0.0705714 0.1962 -0.242667)
(0.0727429 0.1962 -0.242667)
(0.0749143 0.1962 -0.242667)
(0.00108571 0.210733 -0.242667)
(0.00325714 0.210733 -0.242667)
(0.00542857 0.210733 -0.242667)
(0.0076 0.210733 -0.242667)
(0.00977143 0.210733 -0.242667)
(0.0119429 0.210733 -0.242667)
(0.0141143 0.210733 -0.242667)
(0.0162857 0.210733 -0.242667)
(0.0184571 0.210733 -0.242667)
(0.0206286 0.210733 -0.242667)
(0.0228 0.210733 -0.242667)
(0.0249714 0.210733 -0.242667)
(0.0271429 0.210733 -0.242667)
(0.0293143 0.210733 -0.242667)
(0.0314857 0.210733 -0.242667)
(0.0336571 0.210733 -0.242667)
(0.0358286 0.210733 -0.242667)
(0.038 0.210733 -0.242667)
(0.0401714 0.210733 -0.242667)
(0.0423429 0.210733 -0.242667)
(0.0445143 0.210733 -0.242667)
(0.0466857 0.210733 -0.242667)
(0.0488571 0.210733 -0.242667)
(0.0510286 0.210733 -0.242667)
(0.0532 0.210733 -0.242667)
(0.0553714 0.210733 -0.242667)
(0.0575429 0.210733 -0.242667)
(0.0597143 0.210733 -0.242667)
(0.0618857 0.210733 -0.242667)
(0.0640571 0.210733 -0.242667)
(0.0662286 0.210733 -0.242667)
(0.0684 0.210733 -0.242667)
(0.0705714 0.210733 -0.242667)
(0.0727429 0.210733 -0.242667)
(0.0749143 0.210733 -0.242667)
(0.00108571 0.225267 -0.242667)
(0.00325714 0.225267 -0.242667)
(0.00542857 0.225267 -0.242667)
(0.0076 0.225267 -0.242667)
(0.00977143 0.225267 -0.242667)
(0.0119429 0.225267 -0.242667)
(0.0141143 0.225267 -0.242667)
(0.0162857 0.225267 -0.242667)
(0.0184571 0.225267 -0.242667)
(0.0206286 0.225267 -0.242667)
(0.0228 0.225267 -0.242667)
(0.0249714 0.225267 -0.242667)
(0.0271429 0.225267 -0.242667)
(0.0293143 0.225267 -0.242667)
(0.0314857 0.225267 -0.242667)
(0.0336571 0.225267 -0.242667)
(0.0358286 0.225267 -0.242667)
(0.038 0.225267 -0.242667)
(0.0401714 0.225267 -0.242667)
(0.0423429 0.225267 -0.242667)
(0.0445143 0.225267 -0.242667)
(0.0466857 0.225267 -0.242667)
(0.0488571 0.225267 -0.242667)
(0.0510286 0.225267 -0.242667)
(0.0532 0.225267 -0.242667)
(0.0553714 0.225267 -0.242667)
(0.0575429 0.225267 -0.242667)
(0.0597143 0.225267 -0.242667)
(0.0618857 0.225267 -0.242667)
(0.0640571 0.225267 -0.242667)
(0.0662286 0.225267 -0.242667)
(0.0684 0.225267 -0.242667)
(0.0705714 0.225267 -0.242667)
(0.0727429 0.225267 -0.242667)
(0.0749143 0.225267 -0.242667)
(0.00108571 0.2398 -0.242667)
(0.00325714 0.2398 -0.242667)
(0.00542857 0.2398 -0.242667)
(0.0076 0.2398 -0.242667)
(0.00977143 0.2398 -0.242667)
(0.0119429 0.2398 -0.242667)
(0.0141143 0.2398 -0.242667)
(0.0162857 0.2398 -0.242667)
(0.0184571 0.2398 -0.242667)
(0.0206286 0.2398 -0.242667)
(0.0228 0.2398 -0.242667)
(0.0249714 0.2398 -0.242667)
(0.0271429 0.2398 -0.242667)
(0.0293143 0.2398 -0.242667)
(0.0314857 0.2398 -0.242667)
(0.0336571 0.2398 -0.242667)
(0.0358286 0.2398 -0.242667)
(0.038 0.2398 -0.242667)
(0.0401714 0.2398 -0.242667)
(0.0423429 0.2398 -0.242667)
(0.0445143 0.2398 -0.242667)
(0.0466857 0.2398 -0.242667)
(0.0488571 0.2398 -0.242667)
(0.0510286 0.2398 -0.242667)
(0.0532 0.2398 -0.242667)
(0.0553714 0.2398 -0.242667)
(0.0575429 0.2398 -0.242667)
(0.0597143 0.2398 -0.242667)
(0.0618857 0.2398 -0.242667)
(0.0640571 0.2398 -0.242667)
(0.0662286 0.2398 -0.242667)
(0.0684 0.2398 -0.242667)
(0.0705714 0.2398 -0.242667)
(0.0727429 0.2398 -0.242667)
(0.0749143 0.2398 -0.242667)
(0.00108571 0.254333 -0.242667)
(0.00325714 0.254333 -0.242667)
(0.00542857 0.254333 -0.242667)
(0.0076 0.254333 -0.242667)
(0.00977143 0.254333 -0.242667)
(0.0119429 0.254333 -0.242667)
(0.0141143 0.254333 -0.242667)
(0.0162857 0.254333 -0.242667)
(0.0184571 0.254333 -0.242667)
(0.0206286 0.254333 -0.242667)
(0.0228 0.254333 -0.242667)
(0.0249714 0.254333 -0.242667)
(0.0271429 0.254333 -0.242667)
(0.0293143 0.254333 -0.242667)
(0.0314857 0.254333 -0.242667)
(0.0336571 0.254333 -0.242667)
(0.0358286 0.254333 -0.242667)
(0.038 0.254333 -0.242667)
(0.0401714 0.254333 -0.242667)
(0.0423429 0.254333 -0.242667)
(0.0445143 0.254333 -0.242667)
(0.0466857 0.254333 -0.242667)
(0.0488571 0.254333 -0.242667)
(0.0510286 0.254333 -0.242667)
(0.0532 0.254333 -0.242667)
(0.0553714 0.254333 -0.242667)
(0.0575429 0.254333 -0.242667)
(0.0597143 0.254333 -0.242667)
(0.0618857 0.254333 -0.242667)
(0.0640571 0.254333 -0.242667)
(0.0662286 0.254333 -0.242667)
(0.0684 0.254333 -0.242667)
(0.0705714 0.254333 -0.242667)
(0.0727429 0.254333 -0.242667)
(0.0749143 0.254333 -0.242667)
(0.00108571 0.268867 -0.242667)
(0.00325714 0.268867 -0.242667)
(0.00542857 0.268867 -0.242667)
(0.0076 0.268867 -0.242667)
(0.00977143 0.268867 -0.242667)
(0.0119429 0.268867 -0.242667)
(0.0141143 0.268867 -0.242667)
(0.0162857 0.268867 -0.242667)
(0.0184571 0.268867 -0.242667)
(0.0206286 0.268867 -0.242667)
(0.0228 0.268867 -0.242667)
(0.0249714 0.268867 -0.242667)
(0.0271429 0.268867 -0.242667)
(0.0293143 0.268867 -0.242667)
(0.0314857 0.268867 -0.242667)
(0.0336571 0.268867 -0.242667)
(0.0358286 0.268867 -0.242667)
(0.038 0.268867 -0.242667)
(0.0401714 0.268867 -0.242667)
(0.0423429 0.268867 -0.242667)
(0.0445143 0.268867 -0.242667)
(0.0466857 0.268867 -0.242667)
(0.0488571 0.268867 -0.242667)
(0.0510286 0.268867 -0.242667)
(0.0532 0.268867 -0.242667)
(0.0553714 0.268867 -0.242667)
(0.0575429 0.268867 -0.242667)
(0.0597143 0.268867 -0.242667)
(0.0618857 0.268867 -0.242667)
(0.0640571 0.268867 -0.242667)
(0.0662286 0.268867 -0.242667)
(0.0684 0.268867 -0.242667)
(0.0705714 0.268867 -0.242667)
(0.0727429 0.268867 -0.242667)
(0.0749143 0.268867 -0.242667)
(0.00108571 0.2834 -0.242667)
(0.00325714 0.2834 -0.242667)
(0.00542857 0.2834 -0.242667)
(0.0076 0.2834 -0.242667)
(0.00977143 0.2834 -0.242667)
(0.0119429 0.2834 -0.242667)
(0.0141143 0.2834 -0.242667)
(0.0162857 0.2834 -0.242667)
(0.0184571 0.2834 -0.242667)
(0.0206286 0.2834 -0.242667)
(0.0228 0.2834 -0.242667)
(0.0249714 0.2834 -0.242667)
(0.0271429 0.2834 -0.242667)
(0.0293143 0.2834 -0.242667)
(0.0314857 0.2834 -0.242667)
(0.0336571 0.2834 -0.242667)
(0.0358286 0.2834 -0.242667)
(0.038 0.2834 -0.242667)
(0.0401714 0.2834 -0.242667)
(0.0423429 0.2834 -0.242667)
(0.0445143 0.2834 -0.242667)
(0.0466857 0.2834 -0.242667)
(0.0488571 0.2834 -0.242667)
(0.0510286 0.2834 -0.242667)
(0.0532 0.2834 -0.242667)
(0.0553714 0.2834 -0.242667)
(0.0575429 0.2834 -0.242667)
(0.0597143 0.2834 -0.242667)
(0.0618857 0.2834 -0.242667)
(0.0640571 0.2834 -0.242667)
(0.0662286 0.2834 -0.242667)
(0.0684 0.2834 -0.242667)
(0.0705714 0.2834 -0.242667)
(0.0727429 0.2834 -0.242667)
(0.0749143 0.2834 -0.242667)
(0.00108571 0.297933 -0.242667)
(0.00325714 0.297933 -0.242667)
(0.00542857 0.297933 -0.242667)
(0.0076 0.297933 -0.242667)
(0.00977143 0.297933 -0.242667)
(0.0119429 0.297933 -0.242667)
(0.0141143 0.297933 -0.242667)
(0.0162857 0.297933 -0.242667)
(0.0184571 0.297933 -0.242667)
(0.0206286 0.297933 -0.242667)
(0.0228 0.297933 -0.242667)
(0.0249714 0.297933 -0.242667)
(0.0271429 0.297933 -0.242667)
(0.0293143 0.297933 -0.242667)
(0.0314857 0.297933 -0.242667)
(0.0336571 0.297933 -0.242667)
(0.0358286 0.297933 -0.242667)
(0.038 0.297933 -0.242667)
(0.0401714 0.297933 -0.242667)
(0.0423429 0.297933 -0.242667)
(0.0445143 0.297933 -0.242667)
(0.0466857 0.297933 -0.242667)
(0.0488571 0.297933 -0.242667)
(0.0510286 0.297933 -0.242667)
(0.0532 0.297933 -0.242667)
(0.0553714 0.297933 -0.242667)
(0.0575429 0.297933 -0.242667)
(0.0597143 0.297933 -0.242667)
(0.0618857 0.297933 -0.242667)
(0.0640571 0.297933 -0.242667)
(0.0662286 0.297933 -0.242667)
(0.0684 0.297933 -0.242667)
(0.0705714 0.297933 -0.242667)
(0.0727429 0.297933 -0.242667)
(0.0749143 0.297933 -0.242667)
(0.00108571 0.312467 -0.242667)
(0.00325714 0.312467 -0.242667)
(0.00542857 0.312467 -0.242667)
(0.0076 0.312467 -0.242667)
(0.00977143 0.312467 -0.242667)
(0.0119429 0.312467 -0.242667)
(0.0141143 0.312467 -0.242667)
(0.0162857 0.312467 -0.242667)
(0.0184571 0.312467 -0.242667)
(0.0206286 0.312467 -0.242667)
(0.0228 0.312467 -0.242667)
(0.0249714 0.312467 -0.242667)
(0.0271429 0.312467 -0.242667)
(0.0293143 0.312467 -0.242667)
(0.0314857 0.312467 -0.242667)
(0.0336571 0.312467 -0.242667)
(0.0358286 0.312467 -0.242667)
(0.038 0.312467 -0.242667)
(0.0401714 0.312467 -0.242667)
(0.0423429 0.312467 -0.242667)
(0.0445143 0.312467 -0.242667)
(0.0466857 0.312467 -0.242667)
(0.0488571 0.312467 -0.242667)
(0.0510286 0.312467 -0.242667)
(0.0532 0.312467 -0.242667)
(0.0553714 0.312467 -0.242667)
(0.0575429 0.312467 -0.242667)
(0.0597143 0.312467 -0.242667)
(0.0618857 0.312467 -0.242667)
(0.0640571 0.312467 -0.242667)
(0.0662286 0.312467 -0.242667)
(0.0684 0.312467 -0.242667)
(0.0705714 0.312467 -0.242667)
(0.0727429 0.312467 -0.242667)
(0.0749143 0.312467 -0.242667)
(0.00108571 0.327 -0.242667)
(0.00325714 0.327 -0.242667)
(0.00542857 0.327 -0.242667)
(0.0076 0.327 -0.242667)
(0.00977143 0.327 -0.242667)
(0.0119429 0.327 -0.242667)
(0.0141143 0.327 -0.242667)
(0.0162857 0.327 -0.242667)
(0.0184571 0.327 -0.242667)
(0.0206286 0.327 -0.242667)
(0.0228 0.327 -0.242667)
(0.0249714 0.327 -0.242667)
(0.0271429 0.327 -0.242667)
(0.0293143 0.327 -0.242667)
(0.0314857 0.327 -0.242667)
(0.0336571 0.327 -0.242667)
(0.0358286 0.327 -0.242667)
(0.038 0.327 -0.242667)
(0.0401714 0.327 -0.242667)
(0.0423429 0.327 -0.242667)
(0.0445143 0.327 -0.242667)
(0.0466857 0.327 -0.242667)
(0.0488571 0.327 -0.242667)
(0.0510286 0.327 -0.242667)
(0.0532 0.327 -0.242667)
(0.0553714 0.327 -0.242667)
(0.0575429 0.327 -0.242667)
(0.0597143 0.327 -0.242667)
(0.0618857 0.327 -0.242667)
(0.0640571 0.327 -0.242667)
(0.0662286 0.327 -0.242667)
(0.0684 0.327 -0.242667)
(0.0705714 0.327 -0.242667)
(0.0727429 0.327 -0.242667)
(0.0749143 0.327 -0.242667)
(0.00108571 0.341533 -0.242667)
(0.00325714 0.341533 -0.242667)
(0.00542857 0.341533 -0.242667)
(0.0076 0.341533 -0.242667)
(0.00977143 0.341533 -0.242667)
(0.0119429 0.341533 -0.242667)
(0.0141143 0.341533 -0.242667)
(0.0162857 0.341533 -0.242667)
(0.0184571 0.341533 -0.242667)
(0.0206286 0.341533 -0.242667)
(0.0228 0.341533 -0.242667)
(0.0249714 0.341533 -0.242667)
(0.0271429 0.341533 -0.242667)
(0.0293143 0.341533 -0.242667)
(0.0314857 0.341533 -0.242667)
(0.0336571 0.341533 -0.242667)
(0.0358286 0.341533 -0.242667)
(0.038 0.341533 -0.242667)
(0.0401714 0.341533 -0.242667)
(0.0423429 0.341533 -0.242667)
(0.0445143 0.341533 -0.242667)
(0.0466857 0.341533 -0.242667)
(0.0488571 0.341533 -0.242667)
(0.0510286 0.341533 -0.242667)
(0.0532 0.341533 -0.242667)
(0.0553714 0.341533 -0.242667)
(0.0575429 0.341533 -0.242667)
(0.0597143 0.341533 -0.242667)
(0.0618857 0.341533 -0.242667)
(0.0640571 0.341533 -0.242667)
(0.0662286 0.341533 -0.242667)
(0.0684 0.341533 -0.242667)
(0.0705714 0.341533 -0.242667)
(0.0727429 0.341533 -0.242667)
(0.0749143 0.341533 -0.242667)
(0.00108571 0.356067 -0.242667)
(0.00325714 0.356067 -0.242667)
(0.00542857 0.356067 -0.242667)
(0.0076 0.356067 -0.242667)
(0.00977143 0.356067 -0.242667)
(0.0119429 0.356067 -0.242667)
(0.0141143 0.356067 -0.242667)
(0.0162857 0.356067 -0.242667)
(0.0184571 0.356067 -0.242667)
(0.0206286 0.356067 -0.242667)
(0.0228 0.356067 -0.242667)
(0.0249714 0.356067 -0.242667)
(0.0271429 0.356067 -0.242667)
(0.0293143 0.356067 -0.242667)
(0.0314857 0.356067 -0.242667)
(0.0336571 0.356067 -0.242667)
(0.0358286 0.356067 -0.242667)
(0.038 0.356067 -0.242667)
(0.0401714 0.356067 -0.242667)
(0.0423429 0.356067 -0.242667)
(0.0445143 0.356067 -0.242667)
(0.0466857 0.356067 -0.242667)
(0.0488571 0.356067 -0.242667)
(0.0510286 0.356067 -0.242667)
(0.0532 0.356067 -0.242667)
(0.0553714 0.356067 -0.242667)
(0.0575429 0.356067 -0.242667)
(0.0597143 0.356067 -0.242667)
(0.0618857 0.356067 -0.242667)
(0.0640571 0.356067 -0.242667)
(0.0662286 0.356067 -0.242667)
(0.0684 0.356067 -0.242667)
(0.0705714 0.356067 -0.242667)
(0.0727429 0.356067 -0.242667)
(0.0749143 0.356067 -0.242667)
(0.00108571 0.3706 -0.242667)
(0.00325714 0.3706 -0.242667)
(0.00542857 0.3706 -0.242667)
(0.0076 0.3706 -0.242667)
(0.00977143 0.3706 -0.242667)
(0.0119429 0.3706 -0.242667)
(0.0141143 0.3706 -0.242667)
(0.0162857 0.3706 -0.242667)
(0.0184571 0.3706 -0.242667)
(0.0206286 0.3706 -0.242667)
(0.0228 0.3706 -0.242667)
(0.0249714 0.3706 -0.242667)
(0.0271429 0.3706 -0.242667)
(0.0293143 0.3706 -0.242667)
(0.0314857 0.3706 -0.242667)
(0.0336571 0.3706 -0.242667)
(0.0358286 0.3706 -0.242667)
(0.038 0.3706 -0.242667)
(0.0401714 0.3706 -0.242667)
(0.0423429 0.3706 -0.242667)
(0.0445143 0.3706 -0.242667)
(0.0466857 0.3706 -0.242667)
(0.0488571 0.3706 -0.242667)
(0.0510286 0.3706 -0.242667)
(0.0532 0.3706 -0.242667)
(0.0553714 0.3706 -0.242667)
(0.0575429 0.3706 -0.242667)
(0.0597143 0.3706 -0.242667)
(0.0618857 0.3706 -0.242667)
(0.0640571 0.3706 -0.242667)
(0.0662286 0.3706 -0.242667)
(0.0684 0.3706 -0.242667)
(0.0705714 0.3706 -0.242667)
(0.0727429 0.3706 -0.242667)
(0.0749143 0.3706 -0.242667)
(0.00108571 0.385133 -0.242667)
(0.00325714 0.385133 -0.242667)
(0.00542857 0.385133 -0.242667)
(0.0076 0.385133 -0.242667)
(0.00977143 0.385133 -0.242667)
(0.0119429 0.385133 -0.242667)
(0.0141143 0.385133 -0.242667)
(0.0162857 0.385133 -0.242667)
(0.0184571 0.385133 -0.242667)
(0.0206286 0.385133 -0.242667)
(0.0228 0.385133 -0.242667)
(0.0249714 0.385133 -0.242667)
(0.0271429 0.385133 -0.242667)
(0.0293143 0.385133 -0.242667)
(0.0314857 0.385133 -0.242667)
(0.0336571 0.385133 -0.242667)
(0.0358286 0.385133 -0.242667)
(0.038 0.385133 -0.242667)
(0.0401714 0.385133 -0.242667)
(0.0423429 0.385133 -0.242667)
(0.0445143 0.385133 -0.242667)
(0.0466857 0.385133 -0.242667)
(0.0488571 0.385133 -0.242667)
(0.0510286 0.385133 -0.242667)
(0.0532 0.385133 -0.242667)
(0.0553714 0.385133 -0.242667)
(0.0575429 0.385133 -0.242667)
(0.0597143 0.385133 -0.242667)
(0.0618857 0.385133 -0.242667)
(0.0640571 0.385133 -0.242667)
(0.0662286 0.385133 -0.242667)
(0.0684 0.385133 -0.242667)
(0.0705714 0.385133 -0.242667)
(0.0727429 0.385133 -0.242667)
(0.0749143 0.385133 -0.242667)
(0.00108571 0.399667 -0.242667)
(0.00325714 0.399667 -0.242667)
(0.00542857 0.399667 -0.242667)
(0.0076 0.399667 -0.242667)
(0.00977143 0.399667 -0.242667)
(0.0119429 0.399667 -0.242667)
(0.0141143 0.399667 -0.242667)
(0.0162857 0.399667 -0.242667)
(0.0184571 0.399667 -0.242667)
(0.0206286 0.399667 -0.242667)
(0.0228 0.399667 -0.242667)
(0.0249714 0.399667 -0.242667)
(0.0271429 0.399667 -0.242667)
(0.0293143 0.399667 -0.242667)
(0.0314857 0.399667 -0.242667)
(0.0336571 0.399667 -0.242667)
(0.0358286 0.399667 -0.242667)
(0.038 0.399667 -0.242667)
(0.0401714 0.399667 -0.242667)
(0.0423429 0.399667 -0.242667)
(0.0445143 0.399667 -0.242667)
(0.0466857 0.399667 -0.242667)
(0.0488571 0.399667 -0.242667)
(0.0510286 0.399667 -0.242667)
(0.0532 0.399667 -0.242667)
(0.0553714 0.399667 -0.242667)
(0.0575429 0.399667 -0.242667)