/*--------------------------------*- C++ -*----------------------------------*\
  =========                 |
  \\      /  F ield         | OpenFOAM: The Open Source CFD Toolbox
   \\    /   O peration     | Website:  https://openfoam.org
    \\  /    A nd           | Version:  13
     \\/     M anipulation  |
\*---------------------------------------------------------------------------*/
FoamFile
{
    format      ascii;
    class       volScalarField;
    location    "52.5";
    object      rhok;
}
// * * * * * * * * * * * * * * * * * * * * * * * * * * * * * * * * * * * * * //

dimensions      [];

internalField   nonuniform List<scalar> 
315000
(
0.444388
0.419655
0.415025
0.413191
0.411772
0.410536
0.409375
0.408244
0.407125
0.406014
0.404911
0.403817
0.402735
0.401666
0.400611
0.399572
0.398548
0.397542
0.396553
0.395583
0.39463
0.393697
0.392783
0.391889
0.391014
0.39016
0.389327
0.388514
0.387722
0.38695
0.3862
0.385471
0.384763
0.384075
0.383409
0.382763
0.382138
0.381533
0.380948
0.380383
0.379838
0.379311
0.378803
0.378314
0.377842
0.377388
0.37695
0.376529
0.376124
0.375734
0.375358
0.374997
0.374649
0.374313
0.37399
0.373678
0.373377
0.373086
0.372805
0.372531
0.372266
0.372008
0.371757
0.371511
0.37127
0.371033
0.3708
0.370569
0.370341
0.370113
0.444388
0.419637
0.41501
0.413194
0.41178
0.410541
0.409376
0.40824
0.407117
0.406004
0.404899
0.403804
0.402721
0.401652
0.400597
0.399557
0.398533
0.397527
0.396538
0.395567
0.394614
0.393681
0.392766
0.391872
0.390997
0.390143
0.389309
0.388496
0.387704
0.386932
0.386182
0.385453
0.384745
0.384057
0.383391
0.382745
0.38212
0.381516
0.380931
0.380366
0.379821
0.379295
0.378787
0.378298
0.377827
0.377373
0.376936
0.376515
0.37611
0.375721
0.375346
0.374985
0.374637
0.374303
0.37398
0.373669
0.373368
0.373078
0.372797
0.372524
0.37226
0.372003
0.371752
0.371507
0.371266
0.37103
0.370798
0.370568
0.37034
0.370113
0.444405
0.421059
0.414035
0.412633
0.411634
0.41054
0.409413
0.408278
0.407145
0.406021
0.404908
0.403808
0.402721
0.401649
0.400592
0.399551
0.398527
0.39752
0.39653
0.395559
0.394606
0.393672
0.392758
0.391863
0.390988
0.390134
0.3893
0.388486
0.387694
0.386922
0.386172
0.385442
0.384734
0.384047
0.38338
0.382735
0.382109
0.381505
0.38092
0.380355
0.37981
0.379284
0.378777
0.378288
0.377817
0.377363
0.376926
0.376506
0.376101
0.375712
0.375337
0.374977
0.374629
0.374295
0.373973
0.373662
0.373362
0.373072
0.372791
0.372519
0.372255
0.371998
0.371748
0.371503
0.371264
0.371028
0.370796
0.370567
0.370339
0.370113
0.444388
0.41964
0.415014
0.413183
0.411766
0.410531
0.409369
0.408235
0.407114
0.406
0.404895
0.4038
0.402717
0.401646
0.40059
0.39955
0.398526
0.397519
0.396529
0.395558
0.394605
0.393671
0.392756
0.391861
0.390986
0.390131
0.389297
0.388483
0.38769
0.386918
0.386168
0.385438
0.384729
0.384042
0.383375
0.382729
0.382104
0.381499
0.380915
0.38035
0.379804
0.379278
0.378771
0.378282
0.377811
0.377357
0.37692
0.3765
0.376096
0.375706
0.375332
0.374971
0.374624
0.37429
0.373968
0.373658
0.373358
0.373068
0.372788
0.372516
0.372252
0.371996
0.371746
0.371501
0.371262
0.371027
0.370795
0.370566
0.370339
0.370112
0.444388
0.419642
0.415009
0.41319
0.411775
0.410535
0.409371
0.408236
0.407115
0.406003
0.404898
0.403804
0.402721
0.401651
0.400595
0.399554
0.39853
0.397523
0.396533
0.395561
0.394608
0.393674
0.392758
0.391863
0.390988
0.390133
0.389298
0.388484
0.387691
0.386919
0.386168
0.385438
0.384729
0.384041
0.383375
0.382728
0.382103
0.381498
0.380913
0.380348
0.379802
0.379276
0.378769
0.378279
0.377808
0.377354
0.376918
0.376497
0.376093
0.375703
0.375329
0.374969
0.374622
0.374287
0.373965
0.373655
0.373355
0.373066
0.372785
0.372514
0.37225
0.371994
0.371744
0.3715
0.371261
0.371026
0.370794
0.370565
0.370338
0.370112
0.444419
0.421597
0.414031
0.412572
0.411565
0.410474
0.409357
0.408235
0.407117
0.406004
0.4049
0.403806
0.402724
0.401654
0.400599
0.399559
0.398535
0.397528
0.396538
0.395566
0.394613
0.393679
0.392763
0.391868
0.390992
0.390137
0.389302
0.388488
0.387695
0.386923
0.386171
0.385441
0.384732
0.384044
0.383377
0.38273
0.382105
0.381499
0.380914
0.380349
0.379803
0.379276
0.378769
0.378279
0.377808
0.377354
0.376917
0.376496
0.376092
0.375702
0.375328
0.374967
0.37462
0.374286
0.373964
0.373654
0.373354
0.373064
0.372784
0.372513
0.372249
0.371993
0.371743
0.371499
0.37126
0.371025
0.370794
0.370565
0.370338
0.370112
0.444444
0.422678
0.413494
0.412211
0.411358
0.410379
0.409327
0.408236
0.40713
0.40602
0.404914
0.403818
0.402734
0.401663
0.400606
0.399566
0.398541
0.397534
0.396544
0.395572
0.394619
0.393684
0.392769
0.391874
0.390998
0.390143
0.389308
0.388493
0.3877
0.386927
0.386176
0.385445
0.384736
0.384048
0.38338
0.382734
0.382107
0.381502
0.380916
0.380351
0.379805
0.379278
0.37877
0.378281
0.377809
0.377355
0.376918
0.376497
0.376092
0.375703
0.375328
0.374967
0.37462
0.374286
0.373964
0.373653
0.373354
0.373064
0.372784
0.372512
0.372249
0.371993
0.371743
0.371499
0.37126
0.371025
0.370793
0.370565
0.370338
0.370112
0.444445
0.422687
0.413498
0.412213
0.411362
0.410385
0.409334
0.408244
0.407137
0.406027
0.404921
0.403825
0.40274
0.401669
0.400612
0.399571
0.398547
0.39754
0.39655
0.395578
0.394625
0.39369
0.392775
0.391879
0.391004
0.390148
0.389313
0.388499
0.387705
0.386932
0.386181
0.38545
0.38474
0.384052
0.383384
0.382737
0.382111
0.381505
0.380919
0.380354
0.379807
0.37928
0.378772
0.378282
0.377811
0.377356
0.376919
0.376498
0.376093
0.375703
0.375329
0.374968
0.374621
0.374286
0.373964
0.373654
0.373354
0.373064
0.372784
0.372512
0.372249
0.371993
0.371743
0.371499
0.37126
0.371025
0.370793
0.370565
0.370338
0.370112
0.444444
0.422681
0.4135
0.412215
0.411361
0.410381
0.409329
0.40824
0.407135
0.406027
0.404923
0.403827
0.402743
0.401673
0.400617
0.399577
0.398553
0.397545
0.396556
0.395584
0.394631
0.393696
0.392781
0.391885
0.391009
0.390154
0.389318
0.388504
0.38771
0.386937
0.386185
0.385454
0.384744
0.384056
0.383388
0.382741
0.382114
0.381508
0.380922
0.380356
0.37981
0.379283
0.378774
0.378284
0.377812
0.377358
0.37692
0.376499
0.376094
0.375704
0.375329
0.374969
0.374621
0.374287
0.373965
0.373654
0.373354
0.373064
0.372784
0.372513
0.372249
0.371993
0.371743
0.371499
0.37126
0.371025
0.370793
0.370565
0.370338
0.370112
0.444419
0.421604
0.414025
0.412565
0.411561
0.410471
0.409357
0.408239
0.407124
0.406015
0.404914
0.403822
0.402741
0.401673
0.400619
0.39958
0.398556
0.39755
0.39656
0.395589
0.394635
0.393701
0.392785
0.39189
0.391014
0.390158
0.389323
0.388508
0.387714
0.386941
0.386189
0.385458
0.384748
0.384059
0.383391
0.382744
0.382117
0.381511
0.380925
0.380358
0.379812
0.379284
0.378776
0.378286
0.377814
0.377359
0.376921
0.3765
0.376095
0.375705
0.37533
0.374969
0.374622
0.374287
0.373965
0.373654
0.373354
0.373065
0.372784
0.372513
0.372249
0.371993
0.371743
0.371499
0.37126
0.371025
0.370793
0.370565
0.370338
0.370112
0.444419
0.421594
0.414016
0.41256
0.411556
0.410465
0.409352
0.408235
0.407122
0.406014
0.404914
0.403823
0.402743
0.401676
0.400622
0.399583
0.39856
0.397553
0.396564
0.395592
0.394639
0.393704
0.392789
0.391893
0.391017
0.390161
0.389326
0.388511
0.387717
0.386944
0.386192
0.385461
0.384751
0.384061
0.383393
0.382746
0.382119
0.381513
0.380927
0.38036
0.379813
0.379286
0.378777
0.378287
0.377815
0.37736
0.376922
0.376501
0.376096
0.375706
0.375331
0.37497
0.374622
0.374288
0.373966
0.373655
0.373355
0.373065
0.372785
0.372513
0.372249
0.371993
0.371743
0.371499
0.37126
0.371025
0.370793
0.370565
0.370338
0.370112
0.444419
0.421596
0.414018
0.412562
0.411558
0.410467
0.409354
0.408237
0.407124
0.406017
0.404917
0.403826
0.402746
0.401679
0.400625
0.399586
0.398563
0.397556
0.396567
0.395595
0.394642
0.393707
0.392792
0.391896
0.39102
0.390164
0.389328
0.388513
0.387719
0.386946
0.386194
0.385462
0.384752
0.384063
0.383395
0.382747
0.382121
0.381514
0.380928
0.380361
0.379815
0.379287
0.378778
0.378288
0.377816
0.377361
0.376923
0.376502
0.376097
0.375707
0.375331
0.37497
0.374623
0.374288
0.373966
0.373655
0.373355
0.373065
0.372785
0.372513
0.372249
0.371993
0.371743
0.371499
0.37126
0.371025
0.370794
0.370565
0.370338
0.370112
0.444419
0.421599
0.414022
0.412567
0.411562
0.410472
0.409358
0.408241
0.407128
0.40602
0.40492
0.403829
0.402749
0.401681
0.400627
0.399588
0.398565
0.397558
0.396569
0.395597
0.394643
0.393709
0.392793
0.391897
0.391021
0.390165
0.389329
0.388515
0.38772
0.386947
0.386195
0.385464
0.384753
0.384064
0.383396
0.382748
0.382121
0.381515
0.380929
0.380362
0.379815
0.379288
0.378779
0.378289
0.377816
0.377361
0.376924
0.376502
0.376097
0.375707
0.375332
0.374971
0.374623
0.374288
0.373966
0.373655
0.373355
0.373065
0.372785
0.372513
0.37225
0.371993
0.371743
0.371499
0.37126
0.371025
0.370794
0.370565
0.370338
0.370112
0.44442
0.421612
0.414029
0.412569
0.411565
0.410476
0.409362
0.408245
0.407131
0.406022
0.404922
0.40383
0.40275
0.401682
0.400628
0.399589
0.398566
0.397559
0.396569
0.395597
0.394644
0.393709
0.392794
0.391898
0.391021
0.390165
0.38933
0.388515
0.387721
0.386947
0.386195
0.385464
0.384754
0.384065
0.383396
0.382749
0.382122
0.381515
0.380929
0.380363
0.379816
0.379288
0.378779
0.378289
0.377817
0.377362
0.376924
0.376503
0.376097
0.375707
0.375332
0.374971
0.374623
0.374289
0.373966
0.373655
0.373355
0.373065
0.372785
0.372513
0.37225
0.371993
0.371743
0.371499
0.37126
0.371025
0.370794
0.370565
0.370338
0.370112
0.444455
0.423097
0.413519
0.412183
0.411305
0.410321
0.409276
0.408197
0.407104
0.406007
0.404912
0.403824
0.402745
0.401679
0.400625
0.399587
0.398564
0.397557
0.396568
0.395596
0.394643
0.393708
0.392793
0.391897
0.391021
0.390165
0.38933
0.388515
0.387721
0.386947
0.386195
0.385464
0.384754
0.384065
0.383396
0.382749
0.382122
0.381515
0.380929
0.380363
0.379816
0.379288
0.378779
0.378289
0.377817
0.377362
0.376924
0.376503
0.376097
0.375707
0.375332
0.374971
0.374623
0.374289
0.373966
0.373655
0.373355
0.373066
0.372785
0.372513
0.37225
0.371993
0.371743
0.371499
0.37126
0.371025
0.370794
0.370565
0.370338
0.370112
0.444388
0.419645
0.415007
0.413174
0.411761
0.410532
0.409377
0.408249
0.407133
0.406024
0.404922
0.40383
0.402749
0.40168
0.400626
0.399586
0.398563
0.397556
0.396566
0.395595
0.394642
0.393707
0.392792
0.391896
0.39102
0.390164
0.389329
0.388514
0.38772
0.386947
0.386195
0.385464
0.384754
0.384064
0.383396
0.382749
0.382122
0.381515
0.380929
0.380363
0.379816
0.379288
0.378779
0.378289
0.377817
0.377362
0.376924
0.376503
0.376097
0.375707
0.375332
0.374971
0.374623
0.374289
0.373966
0.373655
0.373355
0.373066
0.372785
0.372513
0.37225
0.371993
0.371743
0.371499
0.37126
0.371025
0.370794
0.370565
0.370338
0.370112
0.444388
0.419646
0.415014
0.413186
0.411772
0.41054
0.409382
0.408253
0.407135
0.406025
0.404923
0.40383
0.402748
0.401679
0.400624
0.399585
0.398561
0.397554
0.396565
0.395593
0.39464
0.393706
0.392791
0.391895
0.391019
0.390163
0.389328
0.388514
0.38772
0.386947
0.386194
0.385463
0.384753
0.384064
0.383396
0.382749
0.382122
0.381515
0.380929
0.380363
0.379816
0.379288
0.378779
0.378289
0.377817
0.377362
0.376924
0.376503
0.376097
0.375707
0.375332
0.374971
0.374623
0.374289
0.373966
0.373655
0.373355
0.373066
0.372785
0.372513
0.37225
0.371993
0.371743
0.371499
0.37126
0.371025
0.370794
0.370565
0.370338
0.370112
0.444388
0.419645
0.415013
0.413185
0.411771
0.410539
0.409381
0.408251
0.407134
0.406024
0.404921
0.403828
0.402746
0.401677
0.400623
0.399583
0.39856
0.397553
0.396564
0.395592
0.394639
0.393705
0.39279
0.391894
0.391019
0.390163
0.389328
0.388513
0.387719
0.386946
0.386194
0.385463
0.384753
0.384064
0.383396
0.382748
0.382122
0.381515
0.380929
0.380363
0.379816
0.379288
0.378779
0.378289
0.377817
0.377362
0.376924
0.376503
0.376097
0.375707
0.375332
0.374971
0.374623
0.374289
0.373966
0.373655
0.373355
0.373066
0.372785
0.372513
0.37225
0.371993
0.371743
0.371499
0.37126
0.371025
0.370794
0.370565
0.370338
0.370112
0.444388
0.419644
0.415012
0.413184
0.41177
0.410538
0.40938
0.408251
0.407133
0.406023
0.40492
0.403827
0.402746
0.401677
0.400622
0.399583
0.398559
0.397553
0.396563
0.395592
0.394639
0.393705
0.39279
0.391894
0.391018
0.390163
0.389328
0.388513
0.387719
0.386946
0.386194
0.385463
0.384753
0.384064
0.383396
0.382748
0.382122
0.381515
0.380929
0.380363
0.379816
0.379288
0.378779
0.378289
0.377817
0.377362
0.376924
0.376503
0.376097
0.375707
0.375332
0.374971
0.374623
0.374289
0.373966
0.373655
0.373355
0.373066
0.372785
0.372513
0.37225
0.371993
0.371743
0.371499
0.37126
0.371025
0.370794
0.370565
0.370338
0.370112
0.444388
0.419644
0.415012
0.413184
0.411769
0.410538
0.40938
0.40825
0.407133
0.406023
0.40492
0.403827
0.402745
0.401677
0.400622
0.399582
0.398559
0.397552
0.396563
0.395592
0.394639
0.393705
0.39279
0.391894
0.391018
0.390163
0.389327
0.388513
0.387719
0.386946
0.386194
0.385463
0.384753
0.384064
0.383396
0.382748
0.382122
0.381515
0.380929
0.380363
0.379816
0.379288
0.378779
0.378289
0.377817
0.377362
0.376924
0.376503
0.376097
0.375707
0.375332
0.374971
0.374623
0.374289
0.373966
0.373655
0.373355
0.373066
0.372785
0.372513
0.37225
0.371993
0.371743
0.371499
0.37126
0.371025
0.370794
0.370565
0.370338
0.370112
0.444388
0.419644
0.415012
0.413183
0.411769
0.410538
0.40938
0.40825
0.407133
0.406023
0.40492
0.403827
0.402745
0.401676
0.400622
0.399582
0.398559
0.397552
0.396563
0.395592
0.394639
0.393705
0.392789
0.391894
0.391018
0.390163
0.389327
0.388513
0.387719
0.386946
0.386194
0.385463
0.384753
0.384064
0.383396
0.382748
0.382122
0.381515
0.380929
0.380363
0.379816
0.379288
0.378779
0.378289
0.377817
0.377362
0.376924
0.376503
0.376097
0.375707
0.375332
0.374971
0.374623
0.374289
0.373966
0.373655
0.373355
0.373066
0.372785
0.372513
0.37225
0.371993
0.371743
0.371499
0.37126
0.371025
0.370794
0.370565
0.370338
0.370112
0.444388
0.419644
0.415012
0.413183
0.411769
0.410538
0.40938
0.40825
0.407133
0.406023
0.40492
0.403827
0.402745
0.401676
0.400622
0.399582
0.398559
0.397552
0.396563
0.395592
0.394639
0.393705
0.392789
0.391894
0.391018
0.390163
0.389327
0.388513
0.387719
0.386946
0.386194
0.385463
0.384753
0.384064
0.383396
0.382748
0.382122
0.381515
0.380929
0.380363
0.379816
0.379288
0.378779
0.378289
0.377817
0.377362
0.376924
0.376503
0.376097
0.375707
0.375332
0.374971
0.374623
0.374289
0.373966
0.373655
0.373355
0.373066
0.372785
0.372513
0.37225
0.371993
0.371743
0.371499
0.37126
0.371025
0.370794
0.370565
0.370338
0.370112
0.444388
0.419644
0.415012
0.413183
0.411769
0.410538
0.40938
0.40825
0.407133
0.406023
0.40492
0.403827
0.402745
0.401676
0.400622
0.399582
0.398559
0.397552
0.396563
0.395592
0.394639
0.393705
0.392789
0.391894
0.391018
0.390163
0.389327
0.388513
0.387719
0.386946
0.386194
0.385463
0.384753
0.384064
0.383396
0.382748
0.382122
0.381515
0.380929
0.380363
0.379816
0.379288
0.378779
0.378289
0.377817
0.377362
0.376924
0.376503
0.376097
0.375707
0.375332
0.374971
0.374623
0.374289
0.373966
0.373655
0.373355
0.373066
0.372785
0.372513
0.37225
0.371993
0.371743
0.371499
0.37126
0.371025
0.370794
0.370565
0.370338
0.370112
0.444388
0.419644
0.415012
0.413183
0.411769
0.410538
0.40938
0.40825
0.407133
0.406023
0.40492
0.403827
0.402745
0.401676
0.400622
0.399582
0.398559
0.397552
0.396563
0.395592
0.394639
0.393705
0.392789
0.391894
0.391018
0.390163
0.389327
0.388513
0.387719
0.386946
0.386194
0.385463
0.384753
0.384064
0.383396
0.382748
0.382122
0.381515
0.380929
0.380363
0.379816
0.379288
0.378779
0.378289
0.377817
0.377362
0.376924
0.376503
0.376097
0.375707
0.375332
0.374971
0.374623
0.374289
0.373966
0.373655
0.373355
0.373066
0.372785
0.372513
0.37225
0.371993
0.371743
0.371499
0.37126
0.371025
0.370794
0.370565
0.370338
0.370112
0.444388
0.419644
0.415012
0.413183
0.411769
0.410538
0.40938
0.40825
0.407133
0.406023
0.40492
0.403827
0.402745
0.401676
0.400622
0.399582
0.398559
0.397552
0.396563
0.395592
0.394639
0.393705
0.392789
0.391894
0.391018
0.390163
0.389327
0.388513
0.387719
0.386946
0.386194
0.385463
0.384753
0.384064
0.383396
0.382748
0.382122
0.381515
0.380929
0.380363
0.379816
0.379288
0.378779
0.378289
0.377817
0.377362
0.376924
0.376503
0.376097
0.375707
0.375332
0.374971
0.374623
0.374289
0.373966
0.373655
0.373355
0.373066
0.372785
0.372513
0.37225
0.371993
0.371743
0.371499
0.37126
0.371025
0.370794
0.370565
0.370338
0.370112
0.444388
0.419644
0.415012
0.413183
0.411769
0.410538
0.40938
0.40825
0.407133
0.406023
0.40492
0.403827
0.402745
0.401676
0.400622
0.399582
0.398559
0.397552
0.396563
0.395592
0.394639
0.393705
0.392789
0.391894
0.391018
0.390163
0.389327
0.388513
0.387719
0.386946
0.386194
0.385463
0.384753
0.384064
0.383396
0.382748
0.382122
0.381515
0.380929
0.380363
0.379816
0.379288
0.378779
0.378289
0.377817
0.377362
0.376924
0.376503
0.376097
0.375707
0.375332
0.374971
0.374623
0.374289
0.373966
0.373655
0.373355
0.373066
0.372785
0.372513
0.37225
0.371993
0.371743
0.371499
0.37126
0.371025
0.370794
0.370565
0.370338
0.370112
0.444388
0.419644
0.415012
0.413183
0.411769
0.410538
0.40938
0.40825
0.407133
0.406023
0.40492
0.403827
0.402745
0.401676
0.400622
0.399582
0.398559
0.397552
0.396563
0.395592
0.394639
0.393705
0.392789
0.391894
0.391018
0.390163
0.389327
0.388513
0.387719
0.386946
0.386194
0.385463
0.384753
0.384064
0.383396
0.382748
0.382122
0.381515
0.380929
0.380363
0.379816
0.379288
0.378779
0.378289
0.377817
0.377362
0.376924
0.376503
0.376097
0.375707
0.375332
0.374971
0.374623
0.374289
0.373966
0.373655
0.373355
0.373066
0.372785
0.372513
0.37225
0.371993
0.371743
0.371499
0.37126
0.371025
0.370794
0.370565
0.370338
0.370112
0.444388
0.419644
0.415012
0.413183
0.411769
0.410538
0.40938
0.40825
0.407133
0.406023
0.40492
0.403827
0.402745
0.401676
0.400622
0.399582
0.398559
0.397552
0.396563
0.395592
0.394639
0.393705
0.392789
0.391894
0.391018
0.390163
0.389327
0.388513
0.387719
0.386946
0.386194
0.385463
0.384753
0.384064
0.383396
0.382748
0.382122
0.381515
0.380929
0.380363
0.379816
0.379288
0.378779
0.378289
0.377817
0.377362
0.376924
0.376503
0.376097
0.375707
0.375332
0.374971
0.374623
0.374289
0.373966
0.373655
0.373355
0.373066
0.372785
0.372513
0.37225
0.371993
0.371743
0.371499
0.37126
0.371025
0.370794
0.370565
0.370338
0.370112
0.444388
0.419644
0.415012
0.413183
0.411769
0.410538
0.40938
0.40825
0.407133
0.406023
0.40492
0.403827
0.402745
0.401676
0.400622
0.399582
0.398559
0.397552
0.396563
0.395592
0.394639
0.393705
0.392789
0.391894
0.391018
0.390163
0.389327
0.388513
0.387719
0.386946
0.386194
0.385463
0.384753
0.384064
0.383396
0.382748
0.382122
0.381515
0.380929
0.380363
0.379816
0.379288
0.378779
0.378289
0.377817
0.377362
0.376924
0.376503
0.376097
0.375707
0.375332
0.374971
0.374623
0.374289
0.373966
0.373655
0.373355
0.373066
0.372785
0.372513
0.37225
0.371993
0.371743
0.371499
0.37126
0.371025
0.370794
0.370565
0.370338
0.370112
0.444388
0.419644
0.415012
0.413183
0.411769
0.410538
0.40938
0.40825
0.407133
0.406023
0.40492
0.403827
0.402745
0.401676
0.400622
0.399582
0.398559
0.397552
0.396563
0.395592
0.394639
0.393705
0.392789
0.391894
0.391018
0.390163
0.389327
0.388513
0.387719
0.386946
0.386194
0.385463
0.384753
0.384064
0.383396
0.382748
0.382122
0.381515
0.380929
0.380363
0.379816
0.379288
0.378779
0.378289
0.377817
0.377362
0.376924
0.376503
0.376097
0.375707
0.375332
0.374971
0.374623
0.374289
0.373966
0.373655
0.373355
0.373066
0.372785
0.372513
0.37225
0.371993
0.371743
0.371499
0.37126
0.371025
0.370794
0.370565
0.370338
0.370112
0.444388
0.419644
0.415012
0.413183
0.411769
0.410538
0.40938
0.40825
0.407133
0.406023
0.40492
0.403827
0.402745
0.401676
0.400622
0.399582
0.398559
0.397552
0.396563
0.395592
0.394639
0.393705
0.392789
0.391894
0.391018
0.390163
0.389327
0.388513
0.387719
0.386946
0.386194
0.385463
0.384753
0.384064
0.383396
0.382748
0.382122
0.381515
0.380929
0.380363
0.379816
0.379288
0.378779
0.378289
0.377817
0.377362
0.376924
0.376503
0.376097
0.375707
0.375332
0.374971
0.374623
0.374289
0.373966
0.373655
0.373355
0.373066
0.372785
0.372513
0.37225
0.371993
0.371743
0.371499
0.37126
0.371025
0.370794
0.370565
0.370338
0.370112
0.444388
0.419644
0.415012
0.413183
0.411769
0.410538
0.40938
0.40825
0.407133
0.406023
0.40492
0.403827
0.402745
0.401676
0.400622
0.399582
0.398559
0.397552
0.396563
0.395592
0.394639
0.393705
0.392789
0.391894
0.391018
0.390163
0.389327
0.388513
0.387719
0.386946
0.386194
0.385463
0.384753
0.384064
0.383396
0.382748
0.382122
0.381515
0.380929
0.380363
0.379816
0.379288
0.378779
0.378289
0.377817
0.377362
0.376924
0.376503
0.376097
0.375707
0.375332
0.374971
0.374623
0.374289
0.373966
0.373655
0.373355
0.373066
0.372785
0.372513
0.37225
0.371993
0.371743
0.371499
0.37126
0.371025
0.370794
0.370565
0.370338
0.370112
0.444388
0.419644
0.415012
0.413183
0.411769
0.410538
0.40938
0.40825
0.407133
0.406023
0.40492
0.403827
0.402745
0.401676
0.400622
0.399582
0.398559
0.397552
0.396563
0.395592
0.394639
0.393705
0.392789
0.391894
0.391018
0.390163
0.389327
0.388513
0.387719
0.386946
0.386194
0.385463
0.384753
0.384064
0.383396
0.382748
0.382122
0.381515
0.380929
0.380363
0.379816
0.379288
0.378779
0.378289
0.377817
0.377362
0.376924
0.376503
0.376097
0.375707
0.375332
0.374971
0.374623
0.374289
0.373966
0.373655
0.373355
0.373066
0.372785
0.372513
0.37225
0.371993
0.371743
0.371499
0.37126
0.371025
0.370794
0.370565
0.370338
0.370112
0.444388
0.419644
0.415012
0.413183
0.411769
0.410538
0.40938
0.40825
0.407133
0.406023
0.40492
0.403827
0.402745
0.401676
0.400622
0.399582
0.398559
0.397552
0.396563
0.395592
0.394639
0.393705
0.392789
0.391894
0.391018
0.390163
0.389327
0.388513
0.387719
0.386946
0.386194
0.385463
0.384753
0.384064
0.383396
0.382748
0.382122
0.381515
0.380929
0.380363
0.379816
0.379288
0.378779
0.378289
0.377817
0.377362
0.376924
0.376503
0.376097
0.375707
0.375332
0.374971
0.374623
0.374289
0.373966
0.373655
0.373355
0.373066
0.372785
0.372513
0.37225
0.371993
0.371743
0.371499
0.37126
0.371025
0.370794
0.370565
0.370338
0.370112
0.444388
0.419644
0.415012
0.413183
0.411769
0.410538
0.40938
0.40825
0.407133
0.406023
0.40492
0.403827
0.402745
0.401676
0.400622
0.399582
0.398559
0.397552
0.396563
0.395592
0.394639
0.393705
0.392789
0.391894
0.391018
0.390163
0.389327
0.388513
0.387719
0.386946
0.386194
0.385463
0.384753
0.384064
0.383396
0.382748
0.382122
0.381515
0.380929
0.380363
0.379816
0.379288
0.378779
0.378289
0.377817
0.377362
0.376924
0.376503
0.376097
0.375707
0.375332
0.374971
0.374623
0.374289
0.373966
0.373655
0.373355
0.373066
0.372785
0.372513
0.37225
0.371993
0.371743
0.371499
0.37126
0.371025
0.370794
0.370565
0.370338
0.370112
0.444388
0.419644
0.415012
0.413183
0.411769
0.410538
0.40938
0.40825
0.407133
0.406023
0.40492
0.403827
0.402745
0.401676
0.400622
0.399582
0.398559
0.397552
0.396563
0.395592
0.394639
0.393705
0.392789
0.391894
0.391018
0.390163
0.389327
0.388513
0.387719
0.386946
0.386194
0.385463
0.384753
0.384064
0.383396
0.382748
0.382122
0.381515
0.380929
0.380363
0.379816
0.379288
0.378779
0.378289
0.377817
0.377362
0.376924
0.376503
0.376097
0.375707
0.375332
0.374971
0.374623
0.374289
0.373966
0.373655
0.373355
0.373066
0.372785
0.372513
0.37225
0.371993
0.371743
0.371499
0.37126
0.371025
0.370794
0.370565
0.370338
0.370112
0.444388
0.419644
0.415012
0.413183
0.411769
0.410538
0.40938
0.40825
0.407133
0.406023
0.40492
0.403827
0.402745
0.401676
0.400622
0.399582
0.398559
0.397552
0.396563
0.395592
0.394639
0.393705
0.392789
0.391894
0.391018
0.390163
0.389327
0.388513
0.387719
0.386946
0.386194
0.385463
0.384753
0.384064
0.383396
0.382748
0.382122
0.381515
0.380929
0.380363
0.379816
0.379288
0.378779
0.378289
0.377817
0.377362
0.376924
0.376503
0.376097
0.375707
0.375332
0.374971
0.374623
0.374289
0.373966
0.373655
0.373355
0.373066
0.372785
0.372513
0.37225
0.371993
0.371743
0.371499
0.37126
0.371025
0.370794
0.370565
0.370338
0.370112
0.444388
0.419644
0.415012
0.413183
0.411769
0.410538
0.40938
0.40825
0.407133
0.406023
0.40492
0.403827
0.402745
0.401676
0.400622
0.399582
0.398559
0.397552
0.396563
0.395592
0.394639
0.393705
0.392789
0.391894
0.391018
0.390163
0.389327
0.388513
0.387719
0.386946
0.386194
0.385463
0.384753
0.384064
0.383396
0.382748
0.382122
0.381515
0.380929
0.380363
0.379816
0.379288
0.378779
0.378289
0.377817
0.377362
0.376924
0.376503
0.376097
0.375707
0.375332
0.374971
0.374623
0.374289
0.373966
0.373655
0.373355
0.373066
0.372785
0.372513
0.37225
0.371993
0.371743
0.371499
0.37126
0.371025
0.370794
0.370565
0.370338
0.370112
0.444388
0.419644
0.415012
0.413183
0.411769
0.410538
0.40938
0.40825
0.407133
0.406023
0.40492
0.403827
0.402745
0.401676
0.400622
0.399582
0.398559
0.397552
0.396563
0.395592
0.394639
0.393705
0.392789
0.391894
0.391018
0.390163
0.389327
0.388513
0.387719
0.386946
0.386194
0.385463
0.384753
0.384064
0.383396
0.382748
0.382122
0.381515
0.380929
0.380363
0.379816
0.379288
0.378779
0.378289
0.377817
0.377362
0.376924
0.376503
0.376097
0.375707
0.375332
0.374971
0.374623
0.374289
0.373966
0.373655
0.373355
0.373066
0.372785
0.372513
0.37225
0.371993
0.371743
0.371499
0.37126
0.371025
0.370794
0.370565
0.370338
0.370112
0.444388
0.419644
0.415012
0.413183
0.411769
0.410538
0.40938
0.40825
0.407133
0.406023
0.40492
0.403827
0.402745
0.401676
0.400622
0.399582
0.398559
0.397552
0.396563
0.395592
0.394639
0.393705
0.392789
0.391894
0.391018
0.390163
0.389327
0.388513
0.387719
0.386946
0.386194
0.385463
0.384753
0.384064
0.383396
0.382748
0.382122
0.381515
0.380929
0.380363
0.379816
0.379288
0.378779
0.378289
0.377817
0.377362
0.376924
0.376503
0.376097
0.375707
0.375332
0.374971
0.374623
0.374289
0.373966
0.373655
0.373355
0.373066
0.372785
0.372513
0.37225
0.371993
0.371743
0.371499
0.37126
0.371025
0.370794
0.370565
0.370338
0.370112
0.444388
0.419644
0.415012
0.413183
0.411769
0.410538
0.40938
0.40825
0.407133
0.406023
0.40492
0.403827
0.402745
0.401676
0.400622
0.399582
0.398559
0.397552
0.396563
0.395592
0.394639
0.393705
0.392789
0.391894
0.391018
0.390163
0.389327
0.388513
0.387719
0.386946
0.386194
0.385463
0.384753
0.384064
0.383396
0.382748
0.382122
0.381515
0.380929
0.380363
0.379816
0.379288
0.378779
0.378289
0.377817
0.377362
0.376924
0.376503
0.376097
0.375707
0.375332
0.374971
0.374623
0.374289
0.373966
0.373655
0.373355
0.373066
0.372785
0.372513
0.37225
0.371993
0.371743
0.371499
0.37126
0.371025
0.370794
0.370565
0.370338
0.370112
0.444388
0.419644
0.415012
0.413183
0.411769
0.410538
0.40938
0.40825
0.407133
0.406023
0.40492
0.403827
0.402745
0.401676
0.400622
0.399582
0.398559
0.397552
0.396563
0.395592
0.394639
0.393705
0.392789
0.391894
0.391018
0.390163
0.389327
0.388513
0.387719
0.386946
0.386194
0.385463
0.384753
0.384064
0.383396
0.382748
0.382122
0.381515
0.380929
0.380363
0.379816
0.379288
0.378779
0.378289
0.377817
0.377362
0.376924
0.376503
0.376097
0.375707
0.375332
0.374971
0.374623
0.374289
0.373966
0.373655
0.373355
0.373066
0.372785
0.372513
0.37225
0.371993
0.371743
0.371499
0.37126
0.371025
0.370794
0.370565
0.370338
0.370112
0.444388
0.419644
0.415012
0.413183
0.411769
0.410538
0.40938
0.40825
0.407133
0.406023
0.40492
0.403827
0.402745
0.401676
0.400622
0.399582
0.398559
0.397552
0.396563
0.395592
0.394639
0.393705
0.392789
0.391894
0.391018
0.390163
0.389327
0.388513
0.387719
0.386946
0.386194
0.385463
0.384753
0.384064
0.383396
0.382748
0.382122
0.381515
0.380929
0.380363
0.379816
0.379288
0.378779
0.378289
0.377817
0.377362
0.376924
0.376503
0.376097
0.375707
0.375332
0.374971
0.374623
0.374289
0.373966
0.373655
0.373355
0.373066
0.372785
0.372513
0.37225
0.371993
0.371743
0.371499
0.37126
0.371025
0.370794
0.370565
0.370338
0.370112
0.444388
0.419644
0.415012
0.413183
0.411769
0.410538
0.40938
0.40825
0.407133
0.406023
0.40492
0.403827
0.402745
0.401676
0.400622
0.399582
0.398559
0.397552
0.396563
0.395592
0.394639
0.393705
0.392789
0.391894
0.391018
0.390163
0.389327
0.388513
0.387719
0.386946
0.386194
0.385463
0.384753
0.384064
0.383396
0.382748
0.382122
0.381515
0.380929
0.380363
0.379816
0.379288
0.378779
0.378289
0.377817
0.377362
0.376924
0.376503
0.376097
0.375707
0.375332
0.374971
0.374623
0.374289
0.373966
0.373655
0.373355
0.373066
0.372785
0.372513
0.37225
0.371993
0.371743
0.371499
0.37126
0.371025
0.370794
0.370565
0.370338
0.370112
0.444388
0.419644
0.415012
0.413183
0.411769
0.410538
0.40938
0.40825
0.407133
0.406023
0.40492
0.403827
0.402745
0.401676
0.400622
0.399582
0.398559
0.397552
0.396563
0.395592
0.394639
0.393705
0.392789
0.391894
0.391018
0.390163
0.389327
0.388513
0.387719
0.386946
0.386194
0.385463
0.384753
0.384064
0.383396
0.382748
0.382122
0.381515
0.380929
0.380363
0.379816
0.379288
0.378779
0.378289
0.377817
0.377362
0.376924
0.376503
0.376097
0.375707
0.375332
0.374971
0.374623
0.374289
0.373966
0.373655
0.373355
0.373066
0.372785
0.372513
0.37225
0.371993
0.371743
0.371499
0.37126
0.371025
0.370794
0.370565
0.370338
0.370112
0.444388
0.419644
0.415012
0.413183
0.411769
0.410538
0.40938
0.40825
0.407133
0.406023
0.40492
0.403827
0.402745
0.401676
0.400622
0.399582
0.398559
0.397552
0.396563
0.395592
0.394639
0.393705
0.392789
0.391894
0.391018
0.390163
0.389327
0.388513
0.387719
0.386946
0.386194
0.385463
0.384753
0.384064
0.383396
0.382748
0.382122
0.381515
0.380929
0.380363
0.379816
0.379288
0.378779
0.378289
0.377817
0.377362
0.376924
0.376503
0.376097
0.375707
0.375332
0.374971
0.374623
0.374289
0.373966
0.373655
0.373355
0.373066
0.372785
0.372513
0.37225
0.371993
0.371743
0.371499
0.37126
0.371025
0.370794
0.370565
0.370338
0.370112
0.444388
0.419644
0.415012
0.413183
0.411769
0.410538
0.40938
0.40825
0.407133
0.406023
0.40492
0.403827
0.402745
0.401676
0.400622
0.399582
0.398559
0.397552
0.396563
0.395592
0.394639
0.393705
0.392789
0.391894
0.391018
0.390163
0.389327
0.388513
0.387719
0.386946
0.386194
0.385463
0.384753
0.384064
0.383396
0.382748
0.382122
0.381515
0.380929
0.380363
0.379816
0.379288
0.378779
0.378289
0.377817
0.377362
0.376924
0.376503
0.376097
0.375707
0.375332
0.374971
0.374623
0.374289
0.373966
0.373655
0.373355
0.373066
0.372785
0.372513
0.37225
0.371993
0.371743
0.371499
0.37126
0.371025
0.370794
0.370565
0.370338
0.370112