/*--------------------------------*- C++ -*----------------------------------*\
  =========                 |
  \\      /  F ield         | OpenFOAM: The Open Source CFD Toolbox
   \\    /   O peration     | Website:  https://openfoam.org
    \\  /    A nd           | Version:  13
     \\/     M anipulation  |
\*---------------------------------------------------------------------------*/
FoamFile
{
    format      ascii;
    class       volScalarField;
    location    "16";
    object      k;
}
// * * * * * * * * * * * * * * * * * * * * * * * * * * * * * * * * * * * * * //

dimensions      [0 2 -2 0 0 0 0];

internalField   nonuniform List<scalar> 
78750
(
3.01061e-12
8.60116e-11
3.91371e-10
7.12734e-10
1.05574e-09
1.42434e-09
1.81953e-09
2.23882e-09
2.67609e-09
3.12199e-09
3.56456e-09
3.99001e-09
4.38371e-09
4.73107e-09
5.01857e-09
5.23459e-09
5.37018e-09
5.41963e-09
5.38085e-09
5.25545e-09
5.04871e-09
4.76919e-09
4.42818e-09
4.03899e-09
3.61607e-09
3.17407e-09
2.72685e-09
2.28659e-09
1.86288e-09
1.46213e-09
1.08706e-09
7.36675e-10
4.06613e-10
8.99834e-11
3.16107e-12
6.62362e-11
1.92219e-09
9.62998e-09
1.76751e-08
2.62644e-08
3.55288e-08
4.55077e-08
5.61412e-08
6.72723e-08
7.86574e-08
8.99839e-08
1.00892e-07
1.10999e-07
1.19923e-07
1.2731e-07
1.32854e-07
1.36323e-07
1.37566e-07
1.36532e-07
1.33262e-07
1.27899e-07
1.20667e-07
1.11864e-07
1.01841e-07
9.09774e-08
7.96549e-08
6.82357e-08
5.70362e-08
4.63053e-08
3.62062e-08
2.68045e-08
1.80648e-08
9.85669e-09
1.97021e-09
6.79252e-11
1.96345e-10
5.69967e-09
2.86225e-08
5.29146e-08
7.9471e-08
1.08909e-07
1.41501e-07
1.77136e-07
2.15309e-07
2.55145e-07
2.9547e-07
3.34893e-07
3.71892e-07
4.04898e-07
4.32423e-07
4.53175e-07
4.66158e-07
4.70741e-07
4.667e-07
4.54234e-07
4.33949e-07
4.0682e-07
3.74121e-07
3.3733e-07
2.98009e-07
2.57681e-07
2.17742e-07
1.79377e-07
1.43476e-07
1.10563e-07
8.07693e-08
5.38352e-08
2.91491e-08
5.80998e-09
2.0021e-10
3.85611e-10
1.11996e-08
5.63006e-08
1.04388e-07
1.57468e-07
2.16948e-07
2.83507e-07
3.56988e-07
4.36371e-07
5.19827e-07
6.04884e-07
6.88596e-07
7.67615e-07
8.38409e-07
8.97607e-07
9.4229e-07
9.70218e-07
9.79977e-07
9.71073e-07
9.4396e-07
9.00013e-07
8.41439e-07
7.7113e-07
6.92439e-07
6.0889e-07
5.23836e-07
4.40229e-07
3.60552e-07
2.86653e-07
2.19582e-07
1.59528e-07
1.05842e-07
5.71265e-08
1.13721e-08
3.91644e-10
5.84263e-10
1.69779e-08
8.53795e-08
1.5844e-07
2.39323e-07
3.30238e-07
4.32223e-07
5.44985e-07
6.66851e-07
7.94895e-07
9.2526e-07
1.05341e-06
1.17421e-06
1.28225e-06
1.37242e-06
1.44037e-06
1.48273e-06
1.49745e-06
1.48377e-06
1.44239e-06
1.37535e-06
1.28594e-06
1.1785e-06
1.05812e-06
9.30184e-07
7.99843e-07
6.71638e-07
5.49431e-07
4.36168e-07
3.33552e-07
2.41917e-07
1.60266e-07
8.64141e-08
1.71938e-08
5.91812e-10
7.50089e-10
2.18071e-08
1.09683e-07
2.03579e-07
3.07614e-07
4.24628e-07
5.55903e-07
7.00959e-07
8.57496e-07
1.02161e-06
1.18828e-06
1.35171e-06
1.50538e-06
1.64249e-06
1.7567e-06
1.84258e-06
1.89604e-06
1.91453e-06
1.89716e-06
1.84477e-06
1.75986e-06
1.64649e-06
1.51003e-06
1.35682e-06
1.19365e-06
1.02702e-06
8.62748e-07
7.05859e-07
5.60267e-07
4.28304e-07
3.10494e-07
2.05605e-07
1.10828e-07
2.20459e-08
7.58437e-10
8.65589e-10
2.51756e-08
1.26643e-07
2.3506e-07
3.55206e-07
4.90343e-07
6.41897e-07
8.0922e-07
9.89536e-07
1.17824e-06
1.3695e-06
1.55667e-06
1.73233e-06
1.88881e-06
2.01894e-06
2.11668e-06
2.17745e-06
2.19842e-06
2.1786e-06
2.11892e-06
2.02217e-06
1.89289e-06
1.7371e-06
1.56192e-06
1.37502e-06
1.18381e-06
9.94959e-07
8.14293e-07
6.46426e-07
4.94163e-07
3.58201e-07
2.37164e-07
1.27829e-07
2.54231e-08
8.74241e-10
9.34553e-10
2.71903e-08
1.36794e-07
2.53898e-07
3.83672e-07
5.29625e-07
6.93261e-07
8.73818e-07
1.06822e-06
1.27144e-06
1.47717e-06
1.67824e-06
1.86674e-06
2.03449e-06
2.17388e-06
2.27849e-06
2.3435e-06
2.36589e-06
2.34464e-06
2.28073e-06
2.17711e-06
2.03858e-06
1.87152e-06
1.6835e-06
1.4827e-06
1.27703e-06
1.07368e-06
8.78929e-07
6.97829e-07
5.33482e-07
3.86694e-07
2.56019e-07
1.37988e-07
2.74396e-08
9.43267e-10
9.70556e-10
2.8244e-08
1.42108e-07
2.6376e-07
3.98572e-07
5.50182e-07
7.20131e-07
9.07595e-07
1.10934e-06
1.3201e-06
1.53334e-06
1.74162e-06
1.93676e-06
2.11032e-06
2.25449e-06
2.36264e-06
2.42983e-06
2.45295e-06
2.43096e-06
2.36487e-06
2.25771e-06
2.1144e-06
1.94151e-06
1.74686e-06
1.53885e-06
1.32568e-06
1.11478e-06
9.12699e-07
7.24696e-07
5.54037e-07
4.01593e-07
2.65878e-07
1.433e-07
2.84929e-08
9.79254e-10
9.87256e-10
2.87337e-08
1.44581e-07
2.68349e-07
4.05506e-07
5.59748e-07
7.32634e-07
9.2331e-07
1.12846e-06
1.34273e-06
1.55945e-06
1.77107e-06
1.96929e-06
2.14555e-06
2.29192e-06
2.40172e-06
2.4699e-06
2.49337e-06
2.47104e-06
2.40393e-06
2.29513e-06
2.14961e-06
1.97403e-06
1.7763e-06
1.56495e-06
1.3483e-06
1.1339e-06
9.28402e-07
7.3719e-07
5.63596e-07
4.0852e-07
2.70462e-07
1.4577e-07
2.89819e-08
9.9593e-10
9.94228e-10
2.89386e-08
1.45617e-07
2.70272e-07
4.08412e-07
5.63758e-07
7.37875e-07
9.29898e-07
1.13648e-06
1.35222e-06
1.5704e-06
1.78342e-06
1.98292e-06
2.16031e-06
2.30761e-06
2.41809e-06
2.4867e-06
2.51031e-06
2.48783e-06
2.42031e-06
2.31081e-06
2.16437e-06
1.98766e-06
1.78864e-06
1.57589e-06
1.35778e-06
1.14191e-06
9.34983e-07
7.42425e-07
5.676e-07
4.11422e-07
2.72382e-07
1.46804e-07
2.91864e-08
1.00289e-09
9.96877e-10
2.90166e-08
1.46012e-07
2.71005e-07
4.0952e-07
5.65287e-07
7.39875e-07
9.32412e-07
1.13954e-06
1.35584e-06
1.57458e-06
1.78814e-06
1.98813e-06
2.16595e-06
2.31361e-06
2.42435e-06
2.49312e-06
2.51678e-06
2.49425e-06
2.42656e-06
2.31681e-06
2.17001e-06
1.99286e-06
1.79335e-06
1.58007e-06
1.3614e-06
1.14496e-06
9.37495e-07
7.44422e-07
5.69128e-07
4.12529e-07
2.73114e-07
1.47198e-07
2.92642e-08
1.00553e-09
9.978e-10
2.90439e-08
1.4615e-07
2.71261e-07
4.09908e-07
5.65823e-07
7.40576e-07
9.33293e-07
1.14062e-06
1.35711e-06
1.57604e-06
1.78979e-06
1.98996e-06
2.16793e-06
2.31571e-06
2.42654e-06
2.49537e-06
2.51905e-06
2.4965e-06
2.42876e-06
2.31891e-06
2.17198e-06
1.99469e-06
1.795e-06
1.58153e-06
1.36267e-06
1.14604e-06
9.38375e-07
7.45122e-07
5.69663e-07
4.12916e-07
2.7337e-07
1.47336e-07
2.92914e-08
1.00645e-09
9.98097e-10
2.90527e-08
1.46195e-07
2.71344e-07
4.10033e-07
5.65996e-07
7.40803e-07
9.33578e-07
1.14096e-06
1.35753e-06
1.57652e-06
1.79033e-06
1.99055e-06
2.16857e-06
2.31639e-06
2.42726e-06
2.4961e-06
2.51979e-06
2.49723e-06
2.42947e-06
2.31959e-06
2.17263e-06
1.99528e-06
1.79554e-06
1.58201e-06
1.36308e-06
1.14638e-06
9.3866e-07
7.45349e-07
5.69836e-07
4.13041e-07
2.73453e-07
1.4738e-07
2.93001e-08
1.00675e-09
9.98186e-10
2.90553e-08
1.46208e-07
2.71369e-07
4.10071e-07
5.66049e-07
7.40871e-07
9.33664e-07
1.14107e-06
1.35765e-06
1.57666e-06
1.79049e-06
1.99073e-06
2.16877e-06
2.3166e-06
2.42747e-06
2.49632e-06
2.52001e-06
2.49745e-06
2.42968e-06
2.3198e-06
2.17282e-06
1.99546e-06
1.7957e-06
1.58215e-06
1.3632e-06
1.14649e-06
9.38746e-07
7.45417e-07
5.69888e-07
4.13079e-07
2.73478e-07
1.47394e-07
2.93028e-08
1.00684e-09
9.98211e-10
2.9056e-08
1.46212e-07
2.71376e-07
4.10082e-07
5.66063e-07
7.4089e-07
9.33688e-07
1.1411e-06
1.35768e-06
1.5767e-06
1.79053e-06
1.99078e-06
2.16882e-06
2.31666e-06
2.42753e-06
2.49639e-06
2.52007e-06
2.49751e-06
2.42974e-06
2.31986e-06
2.17287e-06
1.99551e-06
1.79575e-06
1.58219e-06
1.36324e-06
1.14652e-06
9.3877e-07
7.45436e-07
5.69903e-07
4.1309e-07
2.73485e-07
1.47397e-07
2.93035e-08
1.00686e-09
9.98218e-10
2.90562e-08
1.46213e-07
2.71378e-07
4.10085e-07
5.66067e-07
7.40895e-07
9.33695e-07
1.14111e-06
1.35769e-06
1.57671e-06
1.79055e-06
1.99079e-06
2.16884e-06
2.31667e-06
2.42755e-06
2.4964e-06
2.52009e-06
2.49753e-06
2.42976e-06
2.31987e-06
2.17289e-06
1.99552e-06
1.79576e-06
1.5822e-06
1.36325e-06
1.14653e-06
9.38776e-07
7.45441e-07
5.69906e-07
4.13092e-07
2.73487e-07
1.47398e-07
2.93037e-08
1.00687e-09
9.9822e-10
2.90563e-08
1.46214e-07
2.71379e-07
4.10085e-07
5.66068e-07
7.40896e-07
9.33696e-07
1.14111e-06
1.3577e-06
1.57672e-06
1.79055e-06
1.9908e-06
2.16884e-06
2.31667e-06
2.42755e-06
2.49641e-06
2.52009e-06
2.49754e-06
2.42976e-06
2.31987e-06
2.17289e-06
1.99553e-06
1.79576e-06
1.5822e-06
1.36325e-06
1.14653e-06
9.38778e-07
7.45442e-07
5.69907e-07
4.13093e-07
2.73487e-07
1.47399e-07
2.93038e-08
1.00687e-09
9.9822e-10
2.90563e-08
1.46214e-07
2.71379e-07
4.10085e-07
5.66068e-07
7.40897e-07
9.33697e-07
1.14111e-06
1.3577e-06
1.57672e-06
1.79055e-06
1.9908e-06
2.16884e-06
2.31668e-06
2.42755e-06
2.49641e-06
2.52009e-06
2.49754e-06
2.42977e-06
2.31988e-06
2.17289e-06
1.99553e-06
1.79576e-06
1.5822e-06
1.36325e-06
1.14653e-06
9.38778e-07
7.45443e-07
5.69908e-07
4.13093e-07
2.73487e-07
1.47399e-07
2.93038e-08
1.00687e-09
9.9822e-10
2.90563e-08
1.46214e-07
2.71379e-07
4.10085e-07
5.66068e-07
7.40897e-07
9.33697e-07
1.14111e-06
1.3577e-06
1.57672e-06
1.79055e-06
1.9908e-06
2.16884e-06
2.31668e-06
2.42755e-06
2.49641e-06
2.52009e-06
2.49754e-06
2.42977e-06
2.31988e-06
2.17289e-06
1.99553e-06
1.79576e-06
1.5822e-06
1.36325e-06
1.14653e-06
9.38778e-07
7.45443e-07
5.69908e-07
4.13093e-07
2.73487e-07
1.47399e-07
2.93038e-08
1.00687e-09
9.9822e-10
2.90563e-08
1.46214e-07
2.71379e-07
4.10085e-07
5.66068e-07
7.40897e-07
9.33697e-07
1.14111e-06
1.3577e-06
1.57672e-06
1.79055e-06
1.9908e-06
2.16884e-06
2.31668e-06
2.42755e-06
2.49641e-06
2.52009e-06
2.49754e-06
2.42977e-06
2.31988e-06
2.17289e-06
1.99553e-06
1.79576e-06
1.5822e-06
1.36325e-06
1.14653e-06
9.38778e-07
7.45443e-07
5.69908e-07
4.13093e-07
2.73487e-07
1.47399e-07
2.93038e-08
1.00687e-09
9.9822e-10
2.90563e-08
1.46214e-07
2.71379e-07
4.10085e-07
5.66068e-07
7.40897e-07
9.33697e-07
1.14111e-06
1.3577e-06
1.57672e-06
1.79055e-06
1.9908e-06
2.16884e-06
2.31668e-06
2.42755e-06
2.49641e-06
2.52009e-06
2.49754e-06
2.42977e-06
2.31988e-06
2.17289e-06
1.99553e-06
1.79576e-06
1.5822e-06
1.36325e-06
1.14653e-06
9.38778e-07
7.45443e-07
5.69908e-07
4.13093e-07
2.73487e-07
1.47399e-07
2.93038e-08
1.00687e-09
9.9822e-10
2.90563e-08
1.46214e-07
2.71379e-07
4.10085e-07
5.66068e-07
7.40897e-07
9.33697e-07
1.14111e-06
1.3577e-06
1.57672e-06
1.79055e-06
1.9908e-06
2.16884e-06
2.31668e-06
2.42755e-06
2.49641e-06
2.52009e-06
2.49754e-06
2.42977e-06
2.31988e-06
2.17289e-06
1.99553e-06
1.79576e-06
1.5822e-06
1.36325e-06
1.14653e-06
9.38778e-07
7.45443e-07
5.69908e-07
4.13093e-07
2.73487e-07
1.47399e-07
2.93038e-08
1.00687e-09
9.9822e-10
2.90563e-08
1.46214e-07
2.71379e-07
4.10085e-07
5.66068e-07
7.40897e-07
9.33697e-07
1.14111e-06
1.3577e-06
1.57672e-06
1.79055e-06
1.9908e-06
2.16884e-06
2.31668e-06
2.42755e-06
2.49641e-06
2.52009e-06
2.49754e-06
2.42977e-06
2.31988e-06
2.17289e-06
1.99553e-06
1.79576e-06
1.5822e-06
1.36325e-06
1.14653e-06
9.38778e-07
7.45443e-07
5.69908e-07
4.13093e-07
2.73487e-07
1.47399e-07
2.93038e-08
1.00687e-09
9.9822e-10
2.90563e-08
1.46214e-07
2.71379e-07
4.10085e-07
5.66068e-07
7.40897e-07
9.33697e-07
1.14111e-06
1.3577e-06
1.57672e-06
1.79055e-06
1.9908e-06
2.16884e-06
2.31668e-06
2.42755e-06
2.49641e-06
2.52009e-06
2.49754e-06
2.42977e-06
2.31988e-06
2.17289e-06
1.99553e-06
1.79576e-06
1.5822e-06
1.36325e-06
1.14653e-06
9.38778e-07
7.45443e-07
5.69908e-07
4.13093e-07
2.73487e-07
1.47399e-07
2.93038e-08
1.00687e-09
9.9822e-10
2.90563e-08
1.46214e-07
2.71379e-07
4.10085e-07
5.66068e-07
7.40897e-07
9.33697e-07
1.14111e-06
1.3577e-06
1.57672e-06
1.79055e-06
1.9908e-06
2.16884e-06
2.31668e-06
2.42755e-06
2.49641e-06
2.52009e-06
2.49754e-06
2.42977e-06
2.31988e-06
2.17289e-06
1.99553e-06
1.79576e-06
1.5822e-06
1.36325e-06
1.14653e-06
9.38778e-07
7.45443e-07
5.69908e-07
4.13093e-07
2.73487e-07
1.47399e-07
2.93038e-08
1.00687e-09
9.9822e-10
2.90563e-08
1.46214e-07
2.71379e-07
4.10085e-07
5.66068e-07
7.40897e-07
9.33697e-07
1.14111e-06
1.3577e-06
1.57672e-06
1.79055e-06
1.9908e-06
2.16884e-06
2.31668e-06
2.42755e-06
2.49641e-06
2.52009e-06
2.49754e-06
2.42977e-06
2.31988e-06
2.17289e-06
1.99553e-06
1.79576e-06
1.5822e-06
1.36325e-06
1.14653e-06
9.38778e-07
7.45443e-07
5.69908e-07
4.13093e-07
2.73487e-07
1.47399e-07
2.93038e-08
1.00687e-09
9.9822e-10
2.90563e-08
1.46214e-07
2.71379e-07
4.10085e-07
5.66068e-07
7.40897e-07
9.33697e-07
1.14111e-06
1.3577e-06
1.57672e-06
1.79055e-06
1.9908e-06
2.16884e-06
2.31668e-06
2.42755e-06
2.49641e-06
2.52009e-06
2.49754e-06
2.42977e-06
2.31988e-06
2.17289e-06
1.99553e-06
1.79576e-06
1.5822e-06
1.36325e-06
1.14653e-06
9.38778e-07
7.45443e-07
5.69908e-07
4.13093e-07
2.73487e-07
1.47399e-07
2.93038e-08
1.00687e-09
9.9822e-10
2.90563e-08
1.46214e-07
2.71379e-07
4.10085e-07
5.66068e-07
7.40897e-07
9.33697e-07
1.14111e-06
1.3577e-06
1.57672e-06
1.79055e-06
1.9908e-06
2.16884e-06
2.31668e-06
2.42755e-06
2.49641e-06
2.52009e-06
2.49754e-06
2.42977e-06
2.31988e-06
2.17289e-06
1.99553e-06
1.79576e-06
1.5822e-06
1.36325e-06
1.14653e-06
9.38778e-07
7.45443e-07
5.69908e-07
4.13093e-07
2.73487e-07
1.47399e-07
2.93038e-08
1.00687e-09
9.9822e-10
2.90563e-08
1.46214e-07
2.71379e-07
4.10085e-07
5.66068e-07
7.40897e-07
9.33697e-07
1.14111e-06
1.3577e-06
1.57672e-06
1.79055e-06
1.9908e-06
2.16884e-06
2.31668e-06
2.42755e-06
2.49641e-06
2.52009e-06
2.49754e-06
2.42977e-06
2.31988e-06
2.17289e-06
1.99553e-06
1.79576e-06
1.5822e-06
1.36325e-06
1.14653e-06
9.38778e-07
7.45443e-07
5.69908e-07
4.13093e-07
2.73487e-07
1.47399e-07
2.93038e-08
1.00687e-09
9.9822e-10
2.90563e-08
1.46214e-07
2.71379e-07
4.10085e-07
5.66068e-07
7.40897e-07
9.33697e-07
1.14111e-06
1.3577e-06
1.57672e-06
1.79055e-06
1.9908e-06
2.16884e-06
2.31668e-06
2.42755e-06
2.49641e-06
2.52009e-06
2.49754e-06
2.42977e-06
2.31988e-06
2.17289e-06
1.99553e-06
1.79576e-06
1.5822e-06
1.36325e-06
1.14653e-06
9.38778e-07
7.45443e-07
5.69908e-07
4.13093e-07
2.73487e-07
1.47399e-07
2.93038e-08
1.00687e-09
9.9822e-10
2.90563e-08
1.46214e-07
2.71379e-07
4.10085e-07
5.66068e-07
7.40897e-07
9.33697e-07
1.14111e-06
1.3577e-06
1.57672e-06
1.79055e-06
1.9908e-06
2.16884e-06
2.31668e-06
2.42755e-06
2.49641e-06
2.52009e-06
2.49754e-06
2.42977e-06
2.31988e-06
2.17289e-06
1.99553e-06
1.79576e-06
1.5822e-06
1.36325e-06
1.14653e-06
9.38778e-07
7.45443e-07
5.69908e-07
4.13093e-07
2.73487e-07
1.47399e-07
2.93038e-08
1.00687e-09
9.9822e-10
2.90563e-08
1.46214e-07
2.71379e-07
4.10085e-07
5.66068e-07
7.40897e-07
9.33697e-07
1.14111e-06
1.3577e-06
1.57672e-06
1.79055e-06
1.9908e-06
2.16884e-06
2.31668e-06
2.42755e-06
2.49641e-06
2.52009e-06
2.49754e-06
2.42977e-06
2.31988e-06
2.17289e-06
1.99553e-06
1.79576e-06
1.5822e-06
1.36325e-06
1.14653e-06
9.38778e-07
7.45443e-07
5.69908e-07
4.13093e-07
2.73487e-07
1.47399e-07
2.93038e-08
1.00687e-09
9.9822e-10
2.90563e-08
1.46214e-07
2.71379e-07
4.10085e-07
5.66068e-07
7.40897e-07
9.33697e-07
1.14111e-06
1.3577e-06
1.57672e-06
1.79055e-06
1.9908e-06
2.16884e-06
2.31668e-06
2.42755e-06
2.49641e-06
2.52009e-06
2.49754e-06
2.42977e-06
2.31988e-06
2.17289e-06
1.99553e-06
1.79576e-06
1.5822e-06
1.36325e-06
1.14653e-06
9.38778e-07
7.45443e-07
5.69908e-07
4.13093e-07
2.73487e-07
1.47399e-07
2.93038e-08
1.00687e-09
9.9822e-10
2.90563e-08
1.46214e-07
2.71379e-07
4.10085e-07
5.66068e-07
7.40897e-07
9.33697e-07
1.14111e-06
1.3577e-06
1.57672e-06
1.79055e-06
1.9908e-06
2.16884e-06
2.31668e-06
2.42755e-06
2.49641e-06
2.52009e-06
2.49754e-06
2.42977e-06
2.31988e-06
2.17289e-06
1.99553e-06
1.79576e-06
1.5822e-06
1.36325e-06
1.14653e-06
9.38778e-07
7.45443e-07
5.69908e-07
4.13093e-07
2.73487e-07
1.47399e-07
2.93038e-08
1.00687e-09
9.9822e-10
2.90563e-08
1.46214e-07
2.71379e-07
4.10085e-07
5.66068e-07
7.40897e-07
9.33697e-07
1.14111e-06
1.3577e-06
1.57672e-06
1.79055e-06
1.9908e-06
2.16884e-06
2.31668e-06
2.42755e-06
2.49641e-06
2.52009e-06
2.49754e-06
2.42977e-06
2.31988e-06
2.17289e-06
1.99553e-06
1.79576e-06
1.5822e-06
1.36325e-06
1.14653e-06
9.38778e-07
7.45443e-07
5.69908e-07
4.13093e-07
2.73487e-07
1.47399e-07
2.93038e-08
1.00687e-09
9.9822e-10
2.90563e-08
1.46214e-07
2.71379e-07
4.10085e-07
5.66068e-07
7.40897e-07
9.33697e-07
1.14111e-06
1.3577e-06
1.57672e-06
1.79055e-06
1.9908e-06
2.16884e-06
2.31668e-06
2.42755e-06
2.49641e-06
2.52009e-06
2.49754e-06
2.42977e-06
2.31988e-06
2.17289e-06
1.99553e-06
1.79576e-06
1.5822e-06
1.36325e-06
1.14653e-06
9.38778e-07
7.45443e-07
5.69908e-07
4.13093e-07
2.73487e-07
1.47399e-07
2.93038e-08
1.00687e-09
9.9822e-10
2.90563e-08
1.46214e-07
2.71379e-07
4.10085e-07
5.66068e-07
7.40897e-07
9.33697e-07
1.14111e-06
1.3577e-06
1.57672e-06
1.79055e-06
1.9908e-06
2.16884e-06
2.31668e-06
2.42755e-06
2.49641e-06
2.52009e-06
2.49754e-06
2.42977e-06
2.31988e-06
2.17289e-06
1.99553e-06
1.79576e-06
1.5822e-06
1.36325e-06
1.14653e-06
9.38778e-07
7.45443e-07
5.69908e-07
4.13093e-07
2.73487e-07
1.47399e-07
2.93038e-08
1.00687e-09
9.9822e-10
2.90563e-08
1.46214e-07
2.71379e-07
4.10085e-07
5.66068e-07
7.40897e-07
9.33697e-07
1.14111e-06
1.3577e-06
1.57672e-06
1.79055e-06
1.9908e-06
2.16884e-06
2.31668e-06
2.42755e-06
2.49641e-06
2.52009e-06
2.49754e-06
2.42977e-06
2.31988e-06
2.17289e-06
1.99553e-06
1.79576e-06
1.5822e-06
1.36325e-06
1.14653e-06
9.38778e-07
7.45443e-07
5.69908e-07
4.13093e-07
2.73487e-07
1.47399e-07
2.93038e-08
1.00687e-09
9.9822e-10
2.90563e-08
1.46214e-07
2.71379e-07
4.10085e-07
5.66068e-07
7.40897e-07
9.33697e-07
1.14111e-06
1.3577e-06
1.57672e-06
1.79055e-06
1.9908e-06
2.16884e-06
2.31668e-06
2.42755e-06
2.49641e-06
2.52009e-06
2.49754e-06
2.42977e-06
2.31988e-06
2.17289e-06
1.99553e-06
1.79576e-06
1.5822e-06
1.36325e-06
1.14653e-06
9.38778e-07
7.45443e-07
5.69908e-07
4.13093e-07
2.73487e-07
1.47399e-07
2.93038e-08
1.00687e-09
9.9822e-10
2.90563e-08
1.46214e-07
2.71379e-07
4.10085e-07
5.66068e-07
7.40897e-07
9.33697e-07
1.14111e-06
1.3577e-06
1.57672e-06
1.79055e-06
1.9908e-06
2.16884e-06
2.31668e-06
2.42755e-06
2.49641e-06
2.52009e-06
2.49754e-06
2.42977e-06
2.31988e-06
2.17289e-06
1.99553e-06
1.79576e-06
1.5822e-06
1.36325e-06
1.14653e-06
9.38778e-07
7.45443e-07
5.69908e-07
4.13093e-07
2.73487e-07
1.47399e-07
2.93038e-08
1.00687e-09
9.9822e-10
2.90563e-08
1.46214e-07
2.71379e-07
4.10085e-07
5.66068e-07
7.40897e-07
9.33697e-07
1.14111e-06
1.3577e-06
1.57672e-06
1.79055e-06
1.9908e-06
2.16884e-06
2.31668e-06
2.42755e-06
2.49641e-06
2.52009e-06
2.49754e-06
2.42977e-06
2.31988e-06
2.17289e-06
1.99553e-06
1.79576e-06
1.5822e-06
1.36325e-06
1.14653e-06
9.38778e-07
7.45443e-07
5.69908e-07
4.13093e-07
2.73487e-07
1.47399e-07
2.93038e-08
1.00687e-09
9.9822e-10
2.90563e-08
1.46214e-07
2.71379e-07
4.10085e-07
5.66068e-07
7.40897e-07
9.33697e-07
1.14111e-06
1.3577e-06
1.57672e-06
1.79055e-06
1.9908e-06
2.16884e-06
2.31668e-06
2.42755e-06
2.49641e-06
2.52009e-06
2.49754e-06
2.42977e-06
2.31988e-06
2.17289e-06
1.99553e-06
1.79576e-06
1.5822e-06
1.36325e-06
1.14653e-06
9.38778e-07
7.45443e-07
5.69908e-07
4.13093e-07
2.73487e-07
1.47399e-07
2.93038e-08
1.00687e-09
9.9822e-10
2.90563e-08
1.46214e-07
2.71379e-07
4.10085e-07
5.66068e-07
7.40897e-07
9.33697e-07
1.14111e-06
1.3577e-06
1.57672e-06
1.79055e-06
1.9908e-06
2.16884e-06
2.31668e-06
2.42755e-06
2.49641e-06
2.52009e-06
2.49754e-06
2.42977e-06
2.31988e-06
2.17289e-06
1.99553e-06
1.79576e-06
1.5822e-06
1.36325e-06
1.14653e-06
9.38778e-07
7.45443e-07
5.69908e-07
4.13093e-07
2.73487e-07
1.47399e-07
2.93038e-08
1.00687e-09
9.9822e-10
2.90563e-08
1.46214e-07
2.71379e-07
4.10085e-07
5.66068e-07
7.40897e-07
9.33697e-07
1.14111e-06
1.3577e-06
1.57672e-06
1.79055e-06
1.9908e-06
2.16884e-06
2.31668e-06
2.42755e-06
2.49641e-06
2.52009e-06
2.49754e-06
2.42977e-06
2.31988e-06
2.17289e-06
1.99553e-06
1.79576e-06
1.5822e-06
1.36325e-06
1.14653e-06
9.38778e-07
7.45443e-07
5.69908e-07
4.13093e-07
2.73487e-07
1.47399e-07
2.93038e-08
1.00687e-09
9.9822e-10
2.90563e-08
1.46214e-07
2.71379e-07
4.10085e-07
5.66068e-07
7.40897e-07
9.33697e-07
1.14111e-06
1.3577e-06
1.57672e-06
1.79055e-06
1.9908e-06
2.16884e-06
2.31668e-06
2.42755e-06
2.49641e-06
2.52009e-06
2.49754e-06
2.42977e-06
2.31988e-06
2.17289e-06
1.99553e-06
1.79576e-06
1.5822e-06
1.36325e-06
1.14653e-06
9.38778e-07
7.45443e-07
5.69908e-07
4.13093e-07
2.73487e-07
1.47399e-07
2.93038e-08
1.00687e-09
9.9822e-10
2.90563e-08
1.46214e-07
2.71379e-07
4.10085e-07
5.66068e-07
7.40897e-07
9.33697e-07
1.14111e-06
1.3577e-06
1.57672e-06
1.79055e-06
1.9908e-06
2.16884e-06
2.31668e-06
2.42755e-06
2.49641e-06
2.52009e-06
2.49754e-06
2.42977e-06
2.31988e-06
2.17289e-06
1.99553e-06
1.79576e-06
1.5822e-06
1.36325e-06
1.14653e-06
9.38778e-07
7.45443e-07
5.69908e-07
4.13093e-07
2.73487e-07
1.47399e-07
2.93038e-08
1.00687e-09
9.9822e-10
2.90563e-08
1.46214e-07
2.71379e-07
4.10085e-07
5.66068e-07
7.40897e-07
9.33697e-07
1.14111e-06
1.3577e-06
1.57672e-06
1.79055e-06
1.9908e-06
2.16884e-06
2.31668e-06
2.42755e-06
2.49641e-06
2.52009e-06
2.49754e-06
2.42977e-06
2.31988e-06
2.17289e-06
1.99553e-06
1.79576e-06
1.5822e-06
1.36325e-06
1.14653e-06
9.38778e-07
7.45443e-07
5.69908e-07
4.13093e-07
2.73487e-07
1.47399e-07
2.93038e-08
1.00687e-09
9.9822e-10
2.90563e-08
1.46214e-07
2.71379e-07
4.10085e-07
5.66068e-07
7.40897e-07
9.33697e-07
1.14111e-06
1.3577e-06
1.57672e-06
1.79055e-06
1.9908e-06
2.16884e-06
2.31668e-06
2.42755e-06
2.49641e-06
2.52009e-06
2.49754e-06
2.42977e-06
2.31988e-06
2.17289e-06
1.99553e-06
1.79576e-06
1.5822e-06
1.36325e-06
1.14653e-06
9.38778e-07
7.45443e-07
5.69908e-07
4.13093e-07
2.73487e-07
1.47399e-07
2.93038e-08
1.00687e-09
9.9822e-10
2.90563e-08
1.46214e-07
2.71379e-07
4.10085e-07
5.66068e-07
7.40897e-07
9.33697e-07
1.14111e-06
1.3577e-06
1.57672e-06
1.79055e-06
1.9908e-06
2.16884e-06
2.31668e-06
2.42755e-06
2.49641e-06
2.52009e-06
2.49754e-06
2.42977e-06
2.31988e-06
2.17289e-06
1.99553e-06
1.79576e-06
1.5822e-06
1.36325e-06
1.14653e-06
9.38778e-07
7.45443e-07
5.69908e-07
4.13093e-07
2.73487e-07
1.47399e-07
2.93038e-08
1.00687e-09
9.9822e-10
2.90563e-08
1.46214e-07
2.71379e-07
4.10085e-07
5.66068e-07
7.40897e-07
9.33697e-07
1.14111e-06
1.3577e-06
1.57672e-06
1.79055e-06
1.9908e-06
2.16884e-06
2.31668e-06
2.42755e-06
2.49641e-06
2.52009e-06
2.49754e-06
2.42977e-06
2.31988e-06
2.17289e-06
1.99553e-06
1.79576e-06
1.5822e-06
1.36325e-06
1.14653e-06
9.38778e-07
7.45443e-07
5.69908e-07
4.13093e-07
2.73487e-07
1.47399e-07
2.93038e-08
1.00687e-09
9.9822e-10
2.90563e-08
1.46214e-07
2.71379e-07
4.10085e-07
5.66068e-07
7.40897e-07
9.33697e-07
1.14111e-06
1.3577e-06
1.57672e-06
1.79055e-06
1.9908e-06
2.16884e-06
2.31668e-06
2.42755e-06
2.49641e-06
2.52009e-06
2.49754e-06
2.42977e-06
2.31988e-06
2.17289e-06
1.99553e-06
1.79576e-06
1.5822e-06
1.36325e-06
1.14653e-06
9.38778e-07
7.45443e-07
5.69908e-07
4.13093e-07
2.73487e-07
1.47399e-07
2.93038e-08
1.00687e-09
9.9822e-10
2.90563e-08
1.46214e-07
2.71379e-07
4.10085e-07
5.66068e-07
7.40897e-07
9.33697e-07
1.14111e-06
1.3577e-06
1.57672e-06
1.79055e-06
1.9908e-06
2.16884e-06
2.31668e-06
2.42755e-06
2.49641e-06
2.52009e-06
2.49754e-06
2.42977e-06
2.31988e-06
2.17289e-06
1.99553e-06
1.79576e-06
1.5822e-06
1.36325e-06
1.14653e-06
9.38778e-07
7.45443e-07
5.69908e-07
4.13093e-07
2.73487e-07
1.47399e-07
2.93038e-08
1.00687e-09
9.9822e-10
2.90563e-08
1.46214e-07
2.71379e-07
4.10085e-07
5.66068e-07
7.40897e-07
9.33697e-07
1.14111e-06
1.3577e-06
1.57672e-06
1.79055e-06
1.9908e-06
2.16884e-06
2.31668e-06
2.42755e-06
2.49641e-06
2.52009e-06
2.49754e-06
2.42977e-06
2.31988e-06
2.17289e-06
1.99553e-06
1.79576e-06
1.5822e-06
1.36325e-06
1.14653e-06
9.38778e-07
7.45443e-07
5.69908e-07
4.13093e-07
2.73487e-07
1.47399e-07
2.93038e-08
1.00687e-09
9.9822e-10
2.90563e-08
1.46214e-07
2.71379e-07
4.10085e-07
5.66068e-07
7.40897e-07
9.33697e-07
1.14111e-06
1.3577e-06
1.57672e-06
1.79055e-06
1.9908e-06
2.16884e-06
2.31668e-06
2.42755e-06
2.49641e-06
2.52009e-06
2.49754e-06
2.42977e-06
2.31988e-06
2.17289e-06
1.99553e-06
1.79576e-06
1.5822e-06
1.36325e-06
1.14653e-06
9.38778e-07
7.45443e-07
5.69908e-07
4.13093e-07
2.73487e-07
1.47399e-07
2.93038e-08
1.00687e-09
9.9822e-10
2.90563e-08
1.46214e-07
2.71379e-07
4.10085e-07
5.66068e-07
7.40897e-07
9.33697e-07
1.14111e-06
1.3577e-06
1.57672e-06
1.79055e-06
1.9908e-06
2.16884e-06
2.31668e-06
2.42755e-06
2.49641e-06
2.52009e-06
2.49754e-06
2.42977e-06
2.31988e-06
2.17289e-06
1.99553e-06
1.79576e-06
1.5822e-06
1.36325e-06
1.14653e-06
9.38778e-07
7.45443e-07
5.69908e-07
4.13093e-07
2.73487e-07
1.47399e-07
2.93038e-08
1.00687e-09
9.9822e-10
2.90563e-08
1.46214e-07
2.71379e-07
4.10085e-07
5.66068e-07
7.40897e-07
9.33697e-07
1.14111e-06
1.3577e-06
1.57672e-06
1.79055e-06
1.9908e-06
2.16884e-06
2.31668e-06
2.42755e-06
2.49641e-06
2.52009e-06
2.49754e-06
2.42977e-06
2.31988e-06
2.17289e-06
1.99553e-06
1.79576e-06
1.5822e-06
1.36325e-06
1.14653e-06
9.38778e-07
7.45443e-07
5.69908e-07
4.13093e-07
2.73487e-07
1.47399e-07
2.93038e-08
1.00687e-09
9.9822e-10
2.90563e-08
1.46214e-07
2.71379e-07
4.10085e-07
5.66068e-07
7.40897e-07
9.33697e-07
1.14111e-06
1.3577e-06
1.57672e-06
1.79055e-06
1.9908e-06
2.16884e-06
2.31668e-06
2.42755e-06
2.49641e-06
2.52009e-06
2.49754e-06
2.42977e-06
2.31988e-06
2.17289e-06
1.99553e-06
1.79576e-06
1.5822e-06
1.36325e-06
1.14653e-06
9.38778e-07
7.45443e-07
5.69908e-07
4.13093e-07
2.73487e-07
1.47399e-07
2.93038e-08
1.00687e-09
9.9822e-10
2.90563e-08
1.46214e-07
2.71379e-07
4.10085e-07
5.66068e-07
7.40897e-07
9.33697e-07
1.14111e-06
1.3577e-06
1.57672e-06
1.79055e-06
1.9908e-06
2.16884e-06
2.31668e-06
2.42755e-06
2.49641e-06
2.52009e-06
2.49754e-06
2.42977e-06
2.31988e-06
2.17289e-06
1.99553e-06
1.79576e-06
1.5822e-06
1.36325e-06
1.14653e-06
9.38778e-07
7.45443e-07
5.69908e-07
4.13093e-07
2.73487e-07
1.47399e-07
2.93038e-08
1.00687e-09
9.9822e-10
2.90563e-08
1.46214e-07
2.71379e-07
4.10085e-07
5.66068e-07
7.40897e-07
9.33697e-07
1.14111e-06
1.3577e-06
1.57672e-06
1.79055e-06
1.9908e-06
2.16884e-06
2.31668e-06
2.42755e-06
2.49641e-06
2.52009e-06
2.49754e-06
2.42977e-06
2.31988e-06
2.17289e-06
1.99553e-06
1.79576e-06
1.5822e-06
1.36325e-06
1.14653e-06
9.38778e-07
7.45443e-07
5.69908e-07
4.13093e-07
2.73487e-07
1.47399e-07
2.93038e-08
1.00687e-09
9.9822e-10
2.90563e-08
1.46214e-07
2.71379e-07
4.10085e-07
5.66068e-07
7.40897e-07
9.33697e-07
1.14111e-06
1.3577e-06
1.57672e-06
1.79055e-06
1.9908e-06
2.16884e-06
2.31668e-06
2.42755e-06
2.49641e-06
2.52009e-06
2.49754e-06
2.42977e-06
2.31988e-06
2.17289e-06
1.99553e-06
1.79576e-06
1.5822e-06
1.36325e-06
1.14653e-06
9.38778e-07
7.45443e-07
5.69908e-07
4.13093e-07
2.73487e-07
1.47399e-07
2.93038e-08
1.00687e-09
9.9822e-10
2.90563e-08
1.46214e-07
2.71379e-07
4.10085e-07
5.66068e-07
7.40897e-07
9.33697e-07
1.14111e-06
1.3577e-06
1.57672e-06
1.79055e-06
1.9908e-06
2.16884e-06
2.31668e-06
2.42755e-06
2.49641e-06
2.52009e-06
2.49754e-06
2.42977e-06
2.31988e-06
2.17289e-06
1.99553e-06
1.79576e-06
1.5822e-06
1.36325e-06
1.14653e-06
9.38778e-07
7.45443e-07
5.69908e-07
4.13093e-07
2.73487e-07
1.47399e-07
2.93038e-08
1.00687e-09
9.9822e-10
2.90563e-08
1.46214e-07
2.71379e-07
4.10085e-07
5.66068e-07
7.40897e-07
9.33697e-07
1.14111e-06
1.3577e-06
1.57672e-06
1.79055e-06
1.9908e-06
2.16884e-06
2.31668e-06
2.42755e-06
2.49641e-06
2.52009e-06
2.49754e-06
2.42977e-06
2.31988e-06
2.17289e-06
1.99553e-06
1.79576e-06
1.5822e-06
1.36325e-06
1.14653e-06
9.38778e-07
7.45443e-07
5.69908e-07
4.13093e-07
2.73487e-07
1.47399e-07
2.93038e-08
1.00687e-09
9.9822e-10
2.90563e-08
1.46214e-07
2.71379e-07
4.10085e-07
5.66068e-07
7.40897e-07
9.33697e-07
1.14111e-06
1.3577e-06
1.57672e-06
1.79055e-06
1.9908e-06
2.16884e-06
2.31668e-06
2.42755e-06
2.49641e-06
2.52009e-06
2.49754e-06
2.42977e-06
2.31988e-06
2.17289e-06
1.99553e-06
1.79576e-06
1.5822e-06
1.36325e-06
1.14653e-06
9.38778e-07
7.45443e-07
5.69908e-07
4.13093e-07
2.73487e-07
1.47399e-07
2.93038e-08
1.00687e-09
9.9822e-10
2.90563e-08
1.46214e-07
2.71379e-07
4.10085e-07
5.66068e-07
7.40897e-07
9.33697e-07
1.14111e-06
1.3577e-06
1.57672e-06
1.79055e-06
1.9908e-06
2.16884e-06
2.31668e-06
2.42755e-06
2.49641e-06
2.52009e-06
2.49754e-06
2.42977e-06
2.31988e-06
2.17289e-06
1.99553e-06
1.79576e-06
1.5822e-06
1.36325e-06
1.14653e-06
9.38778e-07
7.45443e-07
5.69908e-07
4.13093e-07
2.73487e-07
1.47399e-07
2.93038e-08
1.00687e-09
9.9822e-10
2.90563e-08
1.46214e-07
2.71379e-07
4.10085e-07
5.66068e-07
7.40897e-07
9.33697e-07
1.14111e-06
1.3577e-06
1.57672e-06
1.79055e-06
1.9908e-06
2.16884e-06
2.31668e-06
2.42755e-06
2.49641e-06
2.52009e-06
2.49754e-06
2.42977e-06
2.31988e-06
2.17289e-06
1.99553e-06
1.79576e-06
1.5822e-06
1.36325e-06
1.14653e-06
9.38778e-07
7.45443e-07
5.69908e-07
4.13093e-07
2.73487e-07
1.47399e-07
2.93038e-08
1.00687e-09
9.9822e-10
2.90563e-08
1.46214e-07
2.71379e-07
4.10085e-07
5.66068e-07
7.40897e-07
9.33697e-07
1.14111e-06
1.3577e-06
1.57672e-06
1.79055e-06
1.9908e-06
2.16884e-06
2.31668e-06
2.42755e-06
2.49641e-06
2.52009e-06
2.49754e-06
2.42977e-06
2.31988e-06
2.17289e-06
1.99553e-06
1.79576e-06
1.5822e-06
1.36325e-06
1.14653e-06
9.38778e-07
7.45443e-07
5.69908e-07
4.13093e-07
2.73487e-07
1.47399e-07
2.93038e-08
1.00687e-09
9.9822e-10
2.90563e-08
1.46214e-07
2.71379e-07
4.10085e-07
5.66068e-07
7.40897e-07
9.33697e-07
1.14111e-06
1.3577e-06
1.57672e-06
1.79055e-06
1.9908e-06
2.16884e-06
2.31668e-06
2.42755e-06
2.49641e-06
2.52009e-06
2.49754e-06
2.42977e-06
2.31988e-06
2.17289e-06
1.99553e-06
1.79576e-06
1.5822e-06
1.36325e-06
1.14653e-06
9.38778e-07
7.45443e-07
5.69908e-07
4.13093e-07
2.73487e-07
1.47399e-07
2.93038e-08
1.00687e-09
9.9822e-10
2.90563e-08
1.46214e-07
2.71379e-07
4.10085e-07
5.66068e-07
7.40897e-07
9.33697e-07
1.14111e-06
1.3577e-06
1.57672e-06
1.79055e-06
1.9908e-06
2.16884e-06
2.31668e-06
2.42755e-06
2.49641e-06
2.52009e-06
2.49754e-06
2.42977e-06
2.31988e-06
2.17289e-06
1.99553e-06
1.79576e-06
1.5822e-06
1.36325e-06
1.14653e-06
9.38778e-07
7.45443e-07
5.69908e-07
4.13093e-07
2.73487e-07
1.47399e-07
2.93038e-08
1.00687e-09
9.9822e-10
2.90563e-08
1.46214e-07
2.71379e-07
4.10085e-07
5.66068e-07
7.40897e-07
9.33697e-07
1.14111e-06
1.3577e-06
1.57672e-06
1.79055e-06
1.9908e-06
2.16884e-06
2.31668e-06
2.42755e-06
2.49641e-06
2.52009e-06
2.49754e-06
2.42977e-06
2.31988e-06
2.17289e-06
1.99553e-06
1.79576e-06
1.5822e-06
1.36325e-06
1.14653e-06
9.38778e-07
7.45443e-07
5.69908e-07
4.13093e-07
2.73487e-07
1.47399e-07
2.93038e-08
1.00687e-09
9.9822e-10
2.90563e-08
1.46214e-07
2.71379e-07
4.10085e-07
5.66068e-07
7.40897e-07
9.33697e-07
1.14111e-06
1.3577e-06
1.57672e-06
1.79055e-06
1.9908e-06
2.16884e-06
2.31668e-06
2.42755e-06
2.49641e-06
2.52009e-06