/*--------------------------------*- C++ -*----------------------------------*\
  =========                 |
  \\      /  F ield         | OpenFOAM: The Open Source CFD Toolbox
   \\    /   O peration     | Website:  https://openfoam.org
    \\  /    A nd           | Version:  13
     \\/     M anipulation  |
\*---------------------------------------------------------------------------*/
FoamFile
{
    format      ascii;
    class       volScalarField;
    location    "155";
    object      nut;
}
// * * * * * * * * * * * * * * * * * * * * * * * * * * * * * * * * * * * * * //

dimensions      [0 2 -1 0 0 0 0];

internalField   nonuniform List<scalar> 
315000
(
7.35545e-16
1.92678e-13
4.39799e-12
7.89763e-12
1.14597e-11
1.50937e-11
1.88109e-11
2.26215e-11
2.65326e-11
3.0548e-11
3.46675e-11
3.8887e-11
4.31983e-11
4.75894e-11
5.20448e-11
5.65453e-11
6.10691e-11
6.55917e-11
7.00865e-11
7.45251e-11
7.88782e-11
8.31156e-11
8.72069e-11
9.1122e-11
9.48311e-11
9.83058e-11
1.01519e-10
1.04445e-10
1.07061e-10
1.09345e-10
1.11279e-10
1.12846e-10
1.14035e-10
1.14836e-10
1.15241e-10
1.15247e-10
1.14855e-10
1.14068e-10
1.12891e-10
1.11336e-10
1.09414e-10
1.07141e-10
1.04535e-10
1.01619e-10
9.84145e-11
9.49476e-11
9.12453e-11
8.73361e-11
8.32495e-11
7.90158e-11
7.46652e-11
7.02279e-11
6.57333e-11
6.12099e-11
5.66841e-11
5.21806e-11
4.77213e-11
4.33253e-11
3.90083e-11
3.47823e-11
3.06555e-11
2.66321e-11
2.27123e-11
1.88922e-11
1.51645e-11
1.1519e-11
7.94361e-12
4.4277e-12
1.94233e-13
7.42045e-16
1.84172e-14
4.90576e-12
1.11774e-09
2.02303e-09
2.94083e-09
3.87579e-09
4.83186e-09
5.81213e-09
6.81876e-09
7.85283e-09
8.91439e-09
1.00024e-08
1.11148e-08
1.22484e-08
1.33992e-08
1.45622e-08
1.57317e-08
1.69014e-08
1.80641e-08
1.92127e-08
2.03394e-08
2.14363e-08
2.24955e-08
2.35092e-08
2.44697e-08
2.53696e-08
2.62017e-08
2.69595e-08
2.76369e-08
2.82283e-08
2.87291e-08
2.91351e-08
2.94429e-08
2.965e-08
2.97547e-08
2.97561e-08
2.96543e-08
2.94499e-08
2.91449e-08
2.87416e-08
2.82434e-08
2.76543e-08
2.69792e-08
2.62235e-08
2.53932e-08
2.44951e-08
2.35361e-08
2.25236e-08
2.14654e-08
2.03692e-08
1.9243e-08
1.80947e-08
1.69319e-08
1.5762e-08
1.4592e-08
1.34283e-08
1.22765e-08
1.11417e-08
1.0028e-08
8.93841e-09
7.87511e-09
6.83913e-09
5.83043e-09
4.8479e-09
3.88938e-09
2.95175e-09
2.03102e-09
1.12245e-09
4.92787e-12
1.85026e-14
7.4249e-14
1.98065e-11
1.15044e-08
2.08422e-08
3.03213e-08
3.99993e-08
4.99256e-08
6.01399e-08
7.0671e-08
8.15354e-08
9.27367e-08
1.04266e-07
1.161e-07
1.28206e-07
1.40536e-07
1.53035e-07
1.65636e-07
1.78266e-07
1.90845e-07
2.03288e-07
2.1551e-07
2.2742e-07
2.3893e-07
2.49951e-07
2.60397e-07
2.70187e-07
2.79242e-07
2.87489e-07
2.94862e-07
3.01299e-07
3.06749e-07
3.11166e-07
3.14514e-07
3.16766e-07
3.17903e-07
3.17916e-07
3.16803e-07
3.14576e-07
3.11251e-07
3.06856e-07
3.01429e-07
2.95012e-07
2.87659e-07
2.7943e-07
2.70391e-07
2.60616e-07
2.50181e-07
2.39171e-07
2.27669e-07
2.15765e-07
2.03547e-07
1.91105e-07
1.78525e-07
1.65893e-07
1.53286e-07
1.40781e-07
1.28441e-07
1.16325e-07
1.04477e-07
9.29339e-08
8.17168e-08
7.08353e-08
6.02859e-08
5.00519e-08
4.01048e-08
3.04047e-08
2.0902e-08
1.15389e-08
1.98687e-11
7.44866e-14
1.41013e-13
3.76192e-11
2.18497e-08
3.96017e-08
5.76657e-08
7.6174e-08
9.5242e-08
1.14964e-07
1.35411e-07
1.56627e-07
1.78629e-07
2.01402e-07
2.24905e-07
2.49066e-07
2.73789e-07
2.98952e-07
3.2441e-07
3.50003e-07
3.75558e-07
4.00891e-07
4.25814e-07
4.50136e-07
4.73667e-07
4.9622e-07
5.17614e-07
5.37674e-07
5.56237e-07
5.73148e-07
5.88269e-07
6.01475e-07
6.12654e-07
6.21716e-07
6.28584e-07
6.33201e-07
6.35529e-07
6.35549e-07
6.33261e-07
6.28683e-07
6.21853e-07
6.12829e-07
6.01685e-07
5.88513e-07
5.73423e-07
5.5654e-07
5.38004e-07
5.17967e-07
4.96593e-07
4.74056e-07
4.50538e-07
4.26226e-07
4.01308e-07
3.75977e-07
3.5042e-07
3.24821e-07
2.99354e-07
2.74179e-07
2.49441e-07
2.2526e-07
2.01736e-07
1.78939e-07
1.56911e-07
1.35667e-07
1.1519e-07
9.54363e-08
7.63353e-08
5.77923e-08
3.96919e-08
2.19014e-08
3.77122e-11
1.41368e-13
2.19158e-13
5.84706e-11
3.39541e-08
6.15503e-08
8.96729e-08
1.18553e-07
1.48392e-07
1.79356e-07
2.11572e-07
2.45119e-07
2.80031e-07
3.16288e-07
3.53824e-07
3.92521e-07
4.32215e-07
4.727e-07
5.13735e-07
5.5505e-07
5.96358e-07
6.37359e-07
6.77746e-07
7.1721e-07
7.5544e-07
7.92126e-07
8.26967e-07
8.59669e-07
8.89957e-07
9.17571e-07
9.42276e-07
9.63861e-07
9.8214e-07
9.96959e-07
1.00819e-06
1.01574e-06
1.01954e-06
1.01957e-06
1.01582e-06
1.00832e-06
9.9714e-07
9.8237e-07
9.64138e-07
9.42597e-07
9.17934e-07
8.90357e-07
8.60103e-07
8.27431e-07
7.92616e-07
7.55951e-07
7.17739e-07
6.78286e-07
6.37906e-07
5.96907e-07
5.55596e-07
5.14274e-07
4.73227e-07
4.32726e-07
3.93011e-07
3.54289e-07
3.16725e-07
2.80435e-07
2.45489e-07
2.11904e-07
1.79649e-07
1.48643e-07
1.18761e-07
8.98355e-08
6.16659e-08
3.40203e-08
5.85896e-11
2.19613e-13
3.05005e-13
8.13787e-11
4.72428e-08
8.56299e-08
1.24771e-07
1.65007e-07
2.06636e-07
2.49903e-07
2.94992e-07
3.42019e-07
3.91031e-07
4.41998e-07
4.94818e-07
5.49315e-07
6.05246e-07
6.62308e-07
7.20148e-07
7.78382e-07
8.36604e-07
8.94394e-07
9.51327e-07
1.00697e-06
1.06089e-06
1.11264e-06
1.1618e-06
1.20795e-06
1.25069e-06
1.28967e-06
1.32453e-06
1.35499e-06
1.38078e-06
1.40169e-06
1.41754e-06
1.42818e-06
1.43354e-06
1.43358e-06
1.42828e-06
1.41769e-06
1.4019e-06
1.38105e-06
1.35532e-06
1.32491e-06
1.29009e-06
1.25116e-06
1.20846e-06
1.16234e-06
1.11322e-06
1.06149e-06
1.00759e-06
9.51962e-07
8.95037e-07
8.37249e-07
7.79025e-07
7.20783e-07
6.62929e-07
6.05848e-07
5.49893e-07
4.95366e-07
4.42513e-07
3.91508e-07
3.42455e-07
2.95383e-07
2.50247e-07
2.06931e-07
1.6525e-07
1.24961e-07
8.57651e-08
4.73201e-08
8.15182e-11
3.05539e-13
3.93209e-13
1.04917e-10
6.08854e-08
1.10328e-07
1.60739e-07
2.12574e-07
2.66226e-07
3.22017e-07
3.80184e-07
4.40876e-07
5.04144e-07
5.69941e-07
6.3812e-07
7.08436e-07
7.80557e-07
8.54074e-07
9.28523e-07
1.0034e-06
1.07819e-06
1.15235e-06
1.22534e-06
1.29663e-06
1.36565e-06
1.43185e-06
1.4947e-06
1.55366e-06
1.60824e-06
1.65799e-06
1.70247e-06
1.74131e-06
1.77419e-06
1.80083e-06
1.82102e-06
1.83458e-06
1.84141e-06
1.84144e-06
1.83468e-06
1.82118e-06
1.80106e-06
1.77448e-06
1.74166e-06
1.70288e-06
1.65845e-06
1.60876e-06
1.55422e-06
1.49529e-06
1.43248e-06
1.3663e-06
1.2973e-06
1.22604e-06
1.15305e-06
1.0789e-06
1.00411e-06
9.29219e-07
8.54756e-07
7.81219e-07
7.09072e-07
6.38724e-07
5.70509e-07
5.0467e-07
4.41357e-07
3.80616e-07
3.22396e-07
2.66551e-07
2.12842e-07
1.60949e-07
1.10476e-07
6.09702e-08
1.05071e-10
3.93798e-13
4.78409e-13
1.27656e-10
7.4053e-08
1.34143e-07
1.95391e-07
2.58358e-07
3.23528e-07
3.91293e-07
4.61938e-07
5.35634e-07
6.12434e-07
6.92263e-07
7.74923e-07
8.60099e-07
9.47365e-07
1.03621e-06
1.12606e-06
1.21631e-06
1.30632e-06
1.39546e-06
1.48309e-06
1.56856e-06
1.65122e-06
1.73043e-06
1.80555e-06
1.87597e-06
1.94111e-06
2.00044e-06
2.05346e-06
2.09973e-06
2.13889e-06
2.17061e-06
2.19463e-06
2.21076e-06
2.21888e-06
2.21892e-06
2.21087e-06
2.1948e-06
2.17085e-06
2.13919e-06
2.1001e-06
2.05388e-06
2.00092e-06
1.94165e-06
1.87655e-06
1.80617e-06
1.73108e-06
1.6519e-06
1.56926e-06
1.48381e-06
1.39619e-06
1.30706e-06
1.21704e-06
1.12679e-06
1.03692e-06
9.48058e-07
8.60765e-07
7.75557e-07
6.92858e-07
6.12986e-07
5.36139e-07
4.62391e-07
3.91691e-07
3.23869e-07
2.58639e-07
1.9561e-07
1.34298e-07
7.41417e-08
1.27817e-10
4.79028e-13
5.56159e-13
1.48408e-10
8.60612e-08
1.55842e-07
2.26936e-07
3.00004e-07
3.75609e-07
4.54202e-07
5.36108e-07
6.21518e-07
7.10476e-07
8.0288e-07
8.98481e-07
9.96891e-07
1.0976e-06
1.2e-06
1.30343e-06
1.40717e-06
1.51051e-06
1.61271e-06
1.71305e-06
1.8108e-06
1.90524e-06
1.99564e-06
2.0813e-06
2.16153e-06
2.23569e-06
2.30319e-06
2.36347e-06
2.41607e-06
2.46055e-06
2.49657e-06
2.52385e-06
2.54216e-06
2.55138e-06
2.55141e-06
2.54227e-06
2.52402e-06
2.49682e-06
2.46086e-06
2.41644e-06
2.3639e-06
2.30367e-06
2.23622e-06
2.16211e-06
2.08192e-06
1.9963e-06
1.90593e-06
1.81151e-06
1.71378e-06
1.61345e-06
1.51125e-06
1.40792e-06
1.30417e-06
1.20073e-06
1.0983e-06
9.97567e-07
8.99124e-07
8.03484e-07
7.11037e-07
6.22031e-07
5.36569e-07
4.54606e-07
3.75954e-07
3.00289e-07
2.27158e-07
1.55998e-07
8.61508e-08
1.48572e-10
5.56788e-13
6.23431e-13
1.66367e-10
9.6446e-08
1.74592e-07
2.54178e-07
3.35945e-07
4.20524e-07
5.08418e-07
5.99985e-07
6.95426e-07
7.94777e-07
8.9791e-07
1.00453e-06
1.11418e-06
1.22627e-06
1.34013e-06
1.45499e-06
1.57008e-06
1.68458e-06
1.7977e-06
1.90864e-06
2.01661e-06
2.12082e-06
2.22049e-06
2.31485e-06
2.40317e-06
2.48476e-06
2.55898e-06
2.62524e-06
2.68302e-06
2.73188e-06
2.77143e-06
2.80137e-06
2.82147e-06
2.83157e-06
2.83161e-06
2.82157e-06
2.80154e-06
2.77166e-06
2.73218e-06
2.68338e-06
2.62566e-06
2.55945e-06
2.48529e-06
2.40374e-06
2.31546e-06
2.22113e-06
2.1215e-06
2.01731e-06
1.90936e-06
1.79843e-06
1.68531e-06
1.57081e-06
1.45572e-06
1.34085e-06
1.22697e-06
1.11485e-06
1.00516e-06
8.98509e-07
7.95334e-07
6.95934e-07
6.00441e-07
5.08819e-07
4.20866e-07
3.36226e-07
2.54397e-07
1.74747e-07
9.65343e-08
1.66528e-10
6.24056e-13
6.78772e-13
1.81142e-10
1.04986e-07
1.90003e-07
2.76556e-07
3.65453e-07
4.57384e-07
5.52891e-07
6.52357e-07
7.55991e-07
8.63822e-07
9.75695e-07
1.09127e-06
1.21005e-06
1.33138e-06
1.4545e-06
1.5786e-06
1.70283e-06
1.82632e-06
1.94821e-06
2.06766e-06
2.18381e-06
2.29583e-06
2.4029e-06
2.5042e-06
2.59896e-06
2.68646e-06
2.76602e-06
2.83702e-06
2.89892e-06
2.95125e-06
2.9936e-06
3.02565e-06
3.04716e-06
3.05798e-06
3.05801e-06
3.04726e-06
3.02582e-06
2.99383e-06
2.95154e-06
2.89928e-06
2.83743e-06
2.76648e-06
2.68697e-06
2.59952e-06
2.50479e-06
2.40353e-06
2.29649e-06
2.18449e-06
2.06836e-06
1.94892e-06
1.82704e-06
1.70355e-06
1.57931e-06
1.4552e-06
1.33206e-06
1.2107e-06
1.0919e-06
9.76282e-07
8.64367e-07
7.56488e-07
6.52803e-07
5.53282e-07
4.57718e-07
3.65728e-07
2.76769e-07
1.90154e-07
1.05072e-07
1.813e-10
6.79383e-13
7.22158e-13
1.92729e-10
1.1168e-07
2.02078e-07
2.94082e-07
3.88559e-07
4.86238e-07
5.87694e-07
6.93331e-07
8.03362e-07
9.1781e-07
1.0365e-06
1.15905e-06
1.28493e-06
1.41343e-06
1.54375e-06
1.67502e-06
1.80633e-06
1.93677e-06
2.06545e-06
2.19146e-06
2.31392e-06
2.43197e-06
2.54473e-06
2.65137e-06
2.75109e-06
2.84313e-06
2.92679e-06
3.00143e-06
3.06649e-06
3.12148e-06
3.16597e-06
3.19964e-06
3.22224e-06
3.2336e-06
3.23363e-06
3.22234e-06
3.1998e-06
3.16619e-06
3.12176e-06
3.06683e-06
3.00183e-06
2.92724e-06
2.84362e-06
2.75163e-06
2.65195e-06
2.54534e-06
2.43261e-06
2.31459e-06
2.19214e-06
2.06614e-06
1.93747e-06
1.80703e-06
1.67571e-06
1.54443e-06
1.4141e-06
1.28557e-06
1.15966e-06
1.03707e-06
9.1834e-07
8.03847e-07
6.93765e-07
5.88075e-07
4.86562e-07
3.88825e-07
2.94289e-07
2.02223e-07
1.11763e-07
1.92882e-10
7.22751e-13
7.54642e-13
2.01405e-10
1.16692e-07
2.11116e-07
3.07199e-07
4.05848e-07
5.07826e-07
6.13733e-07
7.23984e-07
8.38799e-07
9.58193e-07
1.08197e-06
1.20975e-06
1.34093e-06
1.47478e-06
1.61047e-06
1.74708e-06
1.88366e-06
2.01928e-06
2.15301e-06
2.2839e-06
2.41106e-06
2.53357e-06
2.65057e-06
2.76117e-06
2.86457e-06
2.95998e-06
3.04668e-06
3.12402e-06
3.19143e-06
3.24838e-06
3.29447e-06
3.32934e-06
3.35274e-06
3.3645e-06
3.36453e-06
3.35283e-06
3.32949e-06
3.29468e-06
3.24866e-06
3.19176e-06
3.12441e-06
3.04711e-06
2.96046e-06
2.86509e-06
2.76173e-06
2.65116e-06
2.53419e-06
2.4117e-06
2.28456e-06
2.15368e-06
2.01996e-06
1.88434e-06
1.74775e-06
1.61113e-06
1.47543e-06
1.34155e-06
1.21034e-06
1.08253e-06
9.5871e-07
8.39271e-07
7.24407e-07
6.14103e-07
5.08141e-07
4.06106e-07
3.07399e-07
2.11257e-07
1.16773e-07
2.01554e-10
7.55218e-13
7.77917e-13
2.07624e-10
1.20284e-07
2.17592e-07
3.16597e-07
4.18236e-07
5.23295e-07
6.32392e-07
7.45953e-07
8.64199e-07
9.87143e-07
1.11458e-06
1.24609e-06
1.38108e-06
1.51878e-06
1.65831e-06
1.79875e-06
1.93912e-06
2.07845e-06
2.21579e-06
2.35019e-06
2.48071e-06
2.60643e-06
2.72645e-06
2.8399e-06
2.94593e-06
3.04375e-06
3.13263e-06
3.21191e-06
3.28099e-06
3.33935e-06
3.38658e-06
3.42231e-06
3.44629e-06
3.45834e-06
3.45837e-06
3.44638e-06
3.42246e-06
3.38679e-06
3.33962e-06
3.28131e-06
3.21228e-06
3.13305e-06
3.04422e-06
2.94644e-06
2.84044e-06
2.72703e-06
2.60704e-06
2.48134e-06
2.35083e-06
2.21645e-06
2.07912e-06
1.93978e-06
1.79941e-06
1.65896e-06
1.51941e-06
1.38169e-06
1.24667e-06
1.11512e-06
9.87648e-07
8.64661e-07
7.46366e-07
6.32754e-07
5.23603e-07
4.18488e-07
3.16792e-07
2.17729e-07
1.20363e-07
2.07769e-10
7.78479e-13
7.93906e-13
2.11897e-10
1.22753e-07
2.22042e-07
3.23056e-07
4.26749e-07
5.33929e-07
6.45222e-07
7.61062e-07
8.81674e-07
1.00706e-06
1.13702e-06
1.27112e-06
1.40873e-06
1.54908e-06
1.69128e-06
1.83436e-06
1.97734e-06
2.11924e-06
2.25908e-06
2.3959e-06
2.52874e-06
2.65668e-06
2.77879e-06
2.8942e-06
3.00205e-06
3.10154e-06
3.19193e-06
3.27254e-06
3.34278e-06
3.40213e-06
3.45014e-06
3.48646e-06
3.51084e-06
3.52309e-06
3.52312e-06
3.51093e-06
3.48661e-06
3.45034e-06
3.40239e-06
3.3431e-06
3.27291e-06
3.19234e-06
3.102e-06
3.00255e-06
2.89474e-06
2.77936e-06
2.65727e-06
2.52936e-06
2.39653e-06
2.25973e-06
2.1199e-06
1.978e-06
1.83501e-06
1.69191e-06
1.5497e-06
1.40933e-06
1.27169e-06
1.13756e-06
1.00756e-06
8.82128e-07
7.61468e-07
6.45577e-07
5.34231e-07
4.26997e-07
3.23247e-07
2.22177e-07
1.22829e-07
2.1204e-10
7.94459e-13
8.04457e-13
2.14718e-10
1.24382e-07
2.2498e-07
3.2732e-07
4.32372e-07
5.40953e-07
6.537e-07
7.71051e-07
8.93231e-07
1.02025e-06
1.15188e-06
1.28769e-06
1.42705e-06
1.56916e-06
1.71313e-06
1.85797e-06
2.0027e-06
2.14631e-06
2.28781e-06
2.42624e-06
2.56063e-06
2.69004e-06
2.81356e-06
2.93028e-06
3.03934e-06
3.13994e-06
3.23134e-06
3.31284e-06
3.38386e-06
3.44385e-06
3.49239e-06
3.52911e-06
3.55376e-06
3.56614e-06
3.56617e-06
3.55384e-06
3.52926e-06
3.49259e-06
3.44411e-06
3.38417e-06
3.31321e-06
3.23175e-06
3.1404e-06
3.03983e-06
2.93081e-06
2.81412e-06
2.69063e-06
2.56124e-06
2.42686e-06
2.28845e-06
2.14695e-06
2.00334e-06
1.85861e-06
1.71376e-06
1.56978e-06
1.42764e-06
1.28825e-06
1.15241e-06
1.02074e-06
8.93679e-07
7.71452e-07
6.54051e-07
5.41252e-07
4.32616e-07
3.27509e-07
2.25113e-07
1.24458e-07
2.14858e-10
8.05002e-13
8.11155e-13
2.16509e-10
1.25417e-07
2.26847e-07
3.30029e-07
4.35946e-07
5.4542e-07
6.59093e-07
7.77407e-07
9.00589e-07
1.02864e-06
1.16135e-06
1.29826e-06
1.43874e-06
1.58198e-06
1.72708e-06
1.87306e-06
2.0189e-06
2.16361e-06
2.30619e-06
2.44565e-06
2.58104e-06
2.71141e-06
2.83582e-06
2.95338e-06
3.06323e-06
3.16455e-06
3.25659e-06
3.33867e-06
3.41019e-06
3.47061e-06
3.51948e-06
3.55646e-06
3.58128e-06
3.59374e-06
3.59377e-06
3.58136e-06
3.55661e-06
3.51968e-06
3.47086e-06
3.4105e-06
3.33903e-06
3.257e-06
3.165e-06
3.06372e-06
2.95391e-06
2.83638e-06
2.71199e-06
2.58164e-06
2.44627e-06
2.30682e-06
2.16425e-06
2.01954e-06
1.87369e-06
1.72771e-06
1.58259e-06
1.43932e-06
1.29882e-06
1.16187e-06
1.02913e-06
9.01035e-07
7.77806e-07
6.59442e-07
5.45716e-07
4.36188e-07
3.30216e-07
2.26978e-07
1.25492e-07
2.16648e-10
8.11696e-13
8.15252e-13
2.17605e-10
1.26051e-07
2.27989e-07
3.31688e-07
4.38135e-07
5.48157e-07
6.624e-07
7.81308e-07
9.05107e-07
1.0338e-06
1.16717e-06
1.30476e-06
1.44593e-06
1.58988e-06
1.73568e-06
1.88236e-06
2.0289e-06
2.17429e-06
2.31753e-06
2.45764e-06
2.59365e-06
2.7246e-06
2.84958e-06
2.96767e-06
3.078e-06
3.17977e-06
3.27222e-06
3.35466e-06
3.42648e-06
3.48716e-06
3.53625e-06
3.57339e-06
3.59831e-06
3.61083e-06
3.61086e-06
3.5984e-06
3.57354e-06
3.53645e-06
3.48742e-06
3.42679e-06
3.35502e-06
3.27262e-06
3.18022e-06
3.07849e-06
2.96819e-06
2.85013e-06
2.72519e-06
2.59425e-06
2.45826e-06
2.31816e-06
2.17492e-06
2.02954e-06
1.88299e-06
1.7363e-06
1.59048e-06
1.44652e-06
1.30532e-06
1.16769e-06
1.03429e-06
9.05551e-07
7.81705e-07
6.62748e-07
5.48452e-07
4.38376e-07
3.31875e-07
2.2812e-07
1.26125e-07
2.17744e-10
8.15791e-13
8.17671e-13
2.18253e-10
1.26425e-07
2.28664e-07
3.32669e-07
4.3943e-07
5.49776e-07
6.64358e-07
7.83618e-07
9.07785e-07
1.03686e-06
1.17062e-06
1.30862e-06
1.4502e-06
1.59457e-06
1.7408e-06
1.88789e-06
2.03485e-06
2.18065e-06
2.32429e-06
2.46479e-06
2.60117e-06
2.73248e-06
2.85779e-06
2.9762e-06
3.08683e-06
3.18886e-06
3.28156e-06
3.36421e-06
3.43623e-06
3.49706e-06
3.54628e-06
3.58352e-06
3.6085e-06
3.62105e-06
3.62108e-06
3.60859e-06
3.58366e-06
3.54648e-06
3.49732e-06
3.43653e-06
3.36457e-06
3.28196e-06
3.18931e-06
3.08731e-06
2.97672e-06
2.85835e-06
2.73306e-06
2.60177e-06
2.4654e-06
2.32492e-06
2.18128e-06
2.03549e-06
1.88853e-06
1.74142e-06
1.59518e-06
1.45079e-06
1.30917e-06
1.17114e-06
1.03735e-06
9.08227e-07
7.84014e-07
6.64704e-07
5.50071e-07
4.3967e-07
3.32855e-07
2.28795e-07
1.26499e-07
2.18391e-10
8.18209e-13
8.19051e-13
2.18622e-10
1.26639e-07
2.2905e-07
3.33229e-07
4.40169e-07
5.50702e-07
6.65478e-07
7.8494e-07
9.09319e-07
1.03861e-06
1.1726e-06
1.31083e-06
1.45266e-06
1.59727e-06
1.74374e-06
1.89108e-06
2.03828e-06
2.18432e-06
2.32819e-06
2.46891e-06
2.60551e-06
2.73703e-06
2.86254e-06
2.98113e-06
3.09193e-06
3.19412e-06
3.28695e-06
3.36974e-06
3.44186e-06
3.50279e-06
3.55208e-06
3.58938e-06
3.6144e-06
3.62697e-06
3.627e-06
3.61449e-06
3.58952e-06
3.55228e-06
3.50305e-06
3.44217e-06
3.3701e-06
3.28736e-06
3.19457e-06
3.09241e-06
2.98165e-06
2.86309e-06
2.73761e-06
2.60611e-06
2.46953e-06
2.32882e-06
2.18495e-06
2.03891e-06
1.89171e-06
1.74436e-06
1.59788e-06
1.45324e-06
1.31139e-06
1.17313e-06
1.0391e-06
9.09761e-07
7.85336e-07
6.65824e-07
5.50997e-07
4.4041e-07
3.33415e-07
2.2918e-07
1.26713e-07
2.1876e-10
8.19589e-13
8.19813e-13
2.18826e-10
1.26756e-07
2.29263e-07
3.33539e-07
4.40578e-07
5.51215e-07
6.66098e-07
7.85673e-07
9.10169e-07
1.03959e-06
1.1737e-06
1.31207e-06
1.45403e-06
1.59877e-06
1.74538e-06
1.89286e-06
2.04019e-06
2.18636e-06
2.33036e-06
2.47121e-06
2.60793e-06
2.73957e-06
2.86519e-06
2.98388e-06
3.09478e-06
3.19706e-06
3.28998e-06
3.37283e-06
3.44502e-06
3.506e-06
3.55533e-06
3.59266e-06
3.6177e-06
3.63028e-06
3.63031e-06
3.61779e-06
3.5928e-06
3.55553e-06
3.50625e-06
3.44532e-06
3.37319e-06
3.29038e-06
3.19751e-06
3.09527e-06
2.98441e-06
2.86574e-06
2.74015e-06
2.60854e-06
2.47183e-06
2.33099e-06
2.187e-06
2.04083e-06
1.89349e-06
1.746e-06
1.59938e-06
1.45461e-06
1.31262e-06
1.17423e-06
1.04007e-06
9.10611e-07
7.86069e-07
6.66444e-07
5.51509e-07
4.40818e-07
3.33724e-07
2.29393e-07
1.26831e-07
2.18964e-10
8.2035e-13
8.2022e-13
2.18935e-10
1.2682e-07
2.29376e-07
3.33704e-07
4.40797e-07
5.51489e-07
6.6643e-07
7.86066e-07
9.10626e-07
1.04011e-06
1.1743e-06
1.31273e-06
1.45476e-06
1.59958e-06
1.74626e-06
1.89382e-06
2.04122e-06
2.18747e-06
2.33154e-06
2.47246e-06
2.60925e-06
2.74095e-06
2.86663e-06
2.98538e-06
3.09633e-06
3.19866e-06
3.29162e-06
3.37451e-06
3.44673e-06
3.50774e-06
3.5571e-06
3.59444e-06
3.6195e-06
3.63208e-06
3.63211e-06
3.61958e-06
3.59459e-06
3.5573e-06
3.508e-06
3.44704e-06
3.37487e-06
3.29202e-06
3.19911e-06
3.09681e-06
2.9859e-06
2.86718e-06
2.74153e-06
2.60985e-06
2.47308e-06
2.33217e-06
2.1881e-06
2.04186e-06
1.89445e-06
1.74688e-06
1.60019e-06
1.45535e-06
1.31328e-06
1.17482e-06
1.0406e-06
9.11068e-07
7.86462e-07
6.66776e-07
5.51783e-07
4.41037e-07
3.3389e-07
2.29507e-07
1.26894e-07
2.19073e-10
8.20757e-13
8.20431e-13
2.18991e-10
1.26852e-07
2.29436e-07
3.3379e-07
4.40911e-07
5.51632e-07
6.66603e-07
7.86271e-07
9.10863e-07
1.04038e-06
1.1746e-06
1.31308e-06
1.45515e-06
1.60001e-06
1.74673e-06
1.89432e-06
2.04176e-06
2.18805e-06
2.33216e-06
2.47311e-06
2.60994e-06
2.74167e-06
2.86738e-06
2.98616e-06
3.09714e-06
3.1995e-06
3.29248e-06
3.3754e-06
3.44763e-06
3.50866e-06
3.55803e-06
3.59538e-06
3.62044e-06
3.63303e-06
3.63306e-06
3.62053e-06
3.59552e-06
3.55823e-06
3.50891e-06
3.44794e-06
3.37575e-06
3.29288e-06
3.19995e-06
3.09763e-06
2.98669e-06
2.86794e-06
2.74225e-06
2.61054e-06
2.47373e-06
2.33279e-06
2.18868e-06
2.0424e-06
1.89495e-06
1.74735e-06
1.60061e-06
1.45573e-06
1.31363e-06
1.17513e-06
1.04087e-06
9.11306e-07
7.86667e-07
6.66949e-07
5.51926e-07
4.41151e-07
3.33976e-07
2.29566e-07
1.26926e-07
2.19129e-10
8.20968e-13
8.20537e-13
2.1902e-10
1.26869e-07
2.29465e-07
3.33834e-07
4.40968e-07
5.51704e-07
6.6669e-07
7.86374e-07
9.10984e-07
1.04052e-06
1.17476e-06
1.31325e-06
1.45534e-06
1.60022e-06
1.74696e-06
1.89457e-06
2.04204e-06
2.18834e-06
2.33247e-06
2.47345e-06
2.61029e-06
2.74204e-06
2.86777e-06
2.98657e-06
3.09756e-06
3.19993e-06
3.29292e-06
3.37585e-06
3.44809e-06
3.50913e-06
3.5585e-06
3.59586e-06
3.62092e-06
3.63352e-06
3.63355e-06
3.62101e-06
3.596e-06
3.5587e-06
3.50938e-06
3.4484e-06
3.3762e-06
3.29333e-06
3.20038e-06
3.09804e-06
2.98709e-06
2.86832e-06
2.74262e-06
2.61089e-06
2.47406e-06
2.3331e-06
2.18898e-06
2.04268e-06
1.8952e-06
1.74758e-06
1.60083e-06
1.45592e-06
1.31381e-06
1.17528e-06
1.04101e-06
9.11426e-07
7.8677e-07
6.67036e-07
5.51998e-07
4.41209e-07
3.34019e-07
2.29596e-07
1.26943e-07
2.19158e-10
8.21074e-13
8.20589e-13
2.19034e-10
1.26877e-07
2.2948e-07
3.33855e-07
4.40996e-07
5.51739e-07
6.66733e-07
7.86425e-07
9.11043e-07
1.04059e-06
1.17484e-06
1.31334e-06
1.45544e-06
1.60033e-06
1.74708e-06
1.8947e-06
2.04218e-06
2.18849e-06
2.33263e-06
2.47361e-06
2.61046e-06
2.74223e-06
2.86796e-06
2.98676e-06
3.09776e-06
3.20014e-06
3.29314e-06
3.37607e-06
3.44832e-06
3.50936e-06
3.55874e-06
3.5961e-06
3.62116e-06
3.63376e-06
3.63379e-06
3.62125e-06
3.59624e-06
3.55894e-06
3.50962e-06
3.44863e-06
3.37643e-06
3.29354e-06
3.20059e-06
3.09825e-06
2.98729e-06
2.86851e-06
2.7428e-06
2.61106e-06
2.47423e-06
2.33326e-06
2.18912e-06
2.04281e-06
1.89533e-06
1.7477e-06
1.60093e-06
1.45602e-06
1.31389e-06
1.17536e-06
1.04107e-06
9.11485e-07
7.86821e-07
6.67079e-07
5.52033e-07
4.41237e-07
3.3404e-07
2.2961e-07
1.26951e-07
2.19172e-10
8.21126e-13
8.20613e-13
2.1904e-10
1.26881e-07
2.29487e-07
3.33865e-07
4.4101e-07
5.51755e-07
6.66753e-07
7.86449e-07
9.11071e-07
1.04062e-06
1.17487e-06
1.31338e-06
1.45548e-06
1.60038e-06
1.74713e-06
1.89476e-06
2.04224e-06
2.18856e-06
2.3327e-06
2.47369e-06
2.61055e-06
2.74231e-06
2.86805e-06
2.98686e-06
3.09786e-06
3.20024e-06
3.29325e-06
3.37618e-06
3.44843e-06
3.50947e-06
3.55885e-06
3.59621e-06
3.62128e-06
3.63387e-06
3.6339e-06
3.62137e-06
3.59636e-06
3.55905e-06
3.50973e-06
3.44874e-06
3.37654e-06
3.29365e-06
3.20069e-06
3.09835e-06
2.98738e-06
2.86861e-06
2.74289e-06
2.61115e-06
2.47431e-06
2.33333e-06
2.18919e-06
2.04288e-06
1.89539e-06
1.74775e-06
1.60098e-06
1.45607e-06
1.31393e-06
1.1754e-06
1.04111e-06
9.11513e-07
7.86845e-07
6.67099e-07
5.5205e-07
4.4125e-07
3.34051e-07
2.29617e-07
1.26955e-07
2.19178e-10
8.2115e-13
8.20625e-13
2.19043e-10
1.26882e-07
2.2949e-07
3.3387e-07
4.41016e-07
5.51763e-07
6.66763e-07
7.8646e-07
9.11084e-07
1.04064e-06
1.17489e-06
1.3134e-06
1.45551e-06
1.6004e-06
1.74716e-06
1.89479e-06
2.04227e-06
2.18859e-06
2.33274e-06
2.47373e-06
2.61059e-06
2.74235e-06
2.8681e-06
2.9869e-06
3.09791e-06
3.20029e-06
3.2933e-06
3.37623e-06
3.44848e-06
3.50953e-06
3.55891e-06
3.59627e-06
3.62134e-06
3.63393e-06
3.63396e-06
3.62142e-06
3.59641e-06
3.55911e-06
3.50978e-06
3.44879e-06
3.37659e-06
3.2937e-06
3.20074e-06
3.0984e-06
2.98743e-06
2.86865e-06
2.74293e-06
2.61119e-06
2.47435e-06
2.33337e-06
2.18923e-06
2.04291e-06
1.89542e-06
1.74778e-06
1.60101e-06
1.45609e-06
1.31395e-06
1.17541e-06
1.04112e-06
9.11526e-07
7.86856e-07
6.67109e-07
5.52057e-07
4.41256e-07
3.34055e-07
2.2962e-07
1.26957e-07
2.19181e-10
8.21162e-13
8.2063e-13
2.19045e-10
1.26883e-07
2.29491e-07
3.33872e-07
4.41019e-07
5.51767e-07
6.66767e-07
7.86465e-07
9.1109e-07
1.04064e-06
1.1749e-06
1.31341e-06
1.45551e-06
1.60041e-06
1.74717e-06
1.8948e-06
2.04228e-06
2.1886e-06
2.33275e-06
2.47375e-06
2.6106e-06
2.74237e-06
2.86812e-06
2.98693e-06
3.09793e-06
3.20031e-06
3.29332e-06
3.37625e-06
3.44851e-06
3.50955e-06
3.55893e-06
3.59629e-06
3.62136e-06
3.63395e-06
3.63398e-06
3.62145e-06
3.59644e-06
3.55913e-06
3.5098e-06
3.44882e-06
3.37661e-06
3.29372e-06
3.20076e-06
3.09842e-06
2.98745e-06
2.86867e-06
2.74295e-06
2.61121e-06
2.47436e-06
2.33338e-06
2.18924e-06
2.04292e-06
1.89543e-06
1.74779e-06
1.60102e-06
1.4561e-06
1.31396e-06
1.17542e-06
1.04113e-06
9.11532e-07
7.86861e-07
6.67113e-07
5.52061e-07
4.41259e-07
3.34057e-07
2.29622e-07
1.26957e-07
2.19183e-10
8.21167e-13
8.20632e-13
2.19045e-10
1.26884e-07
2.29492e-07
3.33873e-07
4.4102e-07
5.51768e-07
6.66769e-07
7.86467e-07
9.11092e-07
1.04065e-06
1.1749e-06
1.31341e-06
1.45552e-06
1.60042e-06
1.74718e-06
1.89481e-06
2.04229e-06
2.18861e-06
2.33276e-06
2.47375e-06
2.61061e-06
2.74238e-06
2.86813e-06
2.98693e-06
3.09794e-06
3.20032e-06
3.29333e-06
3.37626e-06
3.44852e-06
3.50956e-06
3.55894e-06
3.5963e-06
3.62137e-06
3.63397e-06
3.63399e-06
3.62146e-06
3.59645e-06
3.55914e-06
3.50982e-06
3.44883e-06
3.37662e-06
3.29373e-06
3.20077e-06
3.09843e-06
2.98746e-06
2.86868e-06
2.74296e-06
2.61121e-06
2.47437e-06
2.33339e-06
2.18925e-06
2.04293e-06
1.89544e-06
1.7478e-06
1.60102e-06
1.4561e-06
1.31397e-06
1.17543e-06
1.04113e-06
9.11535e-07
7.86863e-07
6.67115e-07
5.52062e-07
4.4126e-07
3.34058e-07
2.29622e-07
1.26958e-07
2.19183e-10
8.21169e-13
8.20633e-13
2.19046e-10
1.26884e-07
2.29492e-07
3.33873e-07
4.4102e-07
5.51769e-07
6.66769e-07
7.86468e-07
9.11094e-07
1.04065e-06
1.1749e-06
1.31341e-06
1.45552e-06
1.60042e-06
1.74718e-06
1.89481e-06
2.04229e-06
2.18861e-06
2.33276e-06
2.47376e-06
2.61062e-06
2.74239e-06
2.86813e-06
2.98694e-06
3.09794e-06
3.20033e-06
3.29333e-06
3.37627e-06
3.44852e-06
3.50957e-06
3.55895e-06
3.59631e-06
3.62138e-06
3.63397e-06
3.634e-06
3.62146e-06
3.59645e-06
3.55915e-06
3.50982e-06
3.44883e-06
3.37663e-06
3.29374e-06
3.20078e-06
3.09843e-06
2.98746e-06
2.86868e-06
2.74296e-06
2.61122e-06
2.47437e-06
2.33339e-06
2.18925e-06
2.04293e-06
1.89544e-06
1.7478e-06
1.60102e-06
1.4561e-06
1.31397e-06
1.17543e-06
1.04113e-06
9.11536e-07
7.86864e-07
6.67116e-07
5.52063e-07
4.41261e-07
3.34059e-07
2.29623e-07
1.26958e-07
2.19184e-10
8.2117e-13
8.20633e-13
2.19046e-10
1.26884e-07
2.29492e-07
3.33873e-07
4.4102e-07
5.51769e-07
6.6677e-07
7.86469e-07
9.11094e-07
1.04065e-06
1.1749e-06
1.31341e-06
1.45552e-06
1.60042e-06
1.74718e-06
1.89481e-06
2.04229e-06
2.18862e-06
2.33277e-06
2.47376e-06
2.61062e-06
2.74239e-06
2.86813e-06
2.98694e-06
3.09795e-06
3.20033e-06
3.29333e-06
3.37627e-06
3.44853e-06
3.50957e-06
3.55895e-06
3.59631e-06
3.62138e-06
3.63397e-06
3.634e-06
3.62147e-06
3.59645e-06
3.55915e-06
3.50982e-06
3.44883e-06
3.37663e-06
3.29374e-06
3.20078e-06
3.09843e-06
2.98746e-06
2.86868e-06
2.74297e-06
2.61122e-06
2.47438e-06
2.3334e-06
2.18925e-06
2.04293e-06
1.89544e-06
1.7478e-06
1.60102e-06
1.45611e-06
1.31397e-06
1.17543e-06
1.04113e-06
9.11536e-07
7.86865e-07
6.67116e-07
5.52063e-07
4.41261e-07
3.34059e-07
2.29623e-07
1.26958e-07
2.19184e-10
8.21171e-13
8.20634e-13
2.19046e-10
1.26884e-07
2.29492e-07
3.33873e-07
4.41021e-07
5.51769e-07
6.6677e-07
7.86469e-07
9.11094e-07
1.04065e-06
1.1749e-06
1.31341e-06
1.45552e-06
1.60042e-06
1.74718e-06
1.89481e-06
2.0423e-06
2.18862e-06
2.33277e-06
2.47376e-06
2.61062e-06
2.74239e-06
2.86813e-06
2.98694e-06
3.09795e-06
3.20033e-06
3.29334e-06
3.37627e-06
3.44853e-06
3.50957e-06
3.55895e-06
3.59631e-06
3.62138e-06
3.63397e-06
3.634e-06
3.62147e-06
3.59646e-06
3.55915e-06
3.50982e-06
3.44883e-06
3.37663e-06
3.29374e-06
3.20078e-06
3.09843e-06
2.98746e-06
2.86868e-06
2.74297e-06
2.61122e-06
2.47438e-06
2.3334e-06
2.18925e-06
2.04293e-06
1.89544e-06
1.7478e-06
1.60102e-06
1.45611e-06
1.31397e-06
1.17543e-06
1.04113e-06
9.11537e-07
7.86865e-07
6.67116e-07
5.52064e-07
4.41261e-07
3.34059e-07
2.29623e-07
1.26958e-07
2.19184e-10
8.21171e-13
8.20634e-13
2.19046e-10
1.26884e-07
2.29492e-07
3.33873e-07
4.41021e-07
5.51769e-07
6.6677e-07
7.86469e-07
9.11094e-07
1.04065e-06
1.1749e-06
1.31341e-06
1.45552e-06
1.60042e-06
1.74718e-06
1.89481e-06
2.0423e-06
2.18862e-06
2.33277e-06
2.47376e-06
2.61062e-06
2.74239e-06
2.86813e-06
2.98694e-06
3.09795e-06
3.20033e-06
3.29334e-06
3.37627e-06
3.44853e-06
3.50957e-06
3.55895e-06
3.59631e-06
3.62138e-06
3.63397e-06
3.634e-06
3.62147e-06
3.59646e-06
3.55915e-06
3.50982e-06
3.44883e-06
3.37663e-06
3.29374e-06
3.20078e-06
3.09843e-06
2.98746e-06
2.86868e-06
2.74297e-06
2.61122e-06
2.47438e-06
2.3334e-06
2.18925e-06
2.04293e-06
1.89544e-06
1.7478e-06
1.60102e-06
1.45611e-06
1.31397e-06
1.17543e-06
1.04113e-06
9.11537e-07
7.86865e-07
6.67116e-07
5.52064e-07
4.41261e-07
3.34059e-07
2.29623e-07
1.26958e-07
2.19184e-10
8.21171e-13
8.20634e-13
2.19046e-10
1.26884e-07
2.29492e-07
3.33873e-07
4.41021e-07
5.51769e-07
6.6677e-07
7.86469e-07
9.11094e-07
1.04065e-06
1.1749e-06
1.31341e-06
1.45552e-06
1.60042e-06
1.74718e-06
1.89481e-06
2.0423e-06
2.18862e-06
2.33277e-06
2.47376e-06
2.61062e-06
2.74239e-06
2.86813e-06
2.98694e-06
3.09795e-06
3.20033e-06
3.29334e-06
3.37627e-06
3.44853e-06
3.50957e-06
3.55895e-06
3.59631e-06
3.62138e-06
3.63397e-06
3.634e-06
3.62147e-06
3.59646e-06
3.55915e-06
3.50982e-06
3.44883e-06
3.37663e-06
3.29374e-06
3.20078e-06
3.09843e-06
2.98746e-06
2.86868e-06
2.74297e-06
2.61122e-06
2.47438e-06
2.3334e-06
2.18925e-06
2.04293e-06
1.89544e-06
1.7478e-06
1.60103e-06
1.45611e-06
1.31397e-06
1.17543e-06
1.04113e-06
9.11537e-07
7.86865e-07
6.67116e-07
5.52064e-07
4.41261e-07
3.34059e-07
2.29623e-07
1.26958e-07
2.19184e-10
8.21171e-13
8.20634e-13
2.19046e-10
1.26884e-07
2.29492e-07
3.33873e-07
4.41021e-07
5.51769e-07
6.6677e-07
7.86469e-07
9.11094e-07
1.04065e-06
1.1749e-06
1.31341e-06
1.45552e-06
1.60042e-06
1.74718e-06
1.89481e-06
2.0423e-06
2.18862e-06
2.33277e-06
2.47376e-06
2.61062e-06
2.74239e-06
2.86813e-06
2.98694e-06
3.09795e-06
3.20033e-06
3.29334e-06
3.37627e-06
3.44853e-06
3.50957e-06
3.55895e-06
3.59631e-06
3.62138e-06
3.63397e-06
3.634e-06
3.62147e-06
3.59646e-06
3.55915e-06
3.50982e-06
3.44883e-06
3.37663e-06
3.29374e-06
3.20078e-06
3.09843e-06
2.98746e-06
2.86868e-06
2.74297e-06
2.61122e-06
2.47438e-06
2.3334e-06
2.18925e-06
2.04293e-06
1.89544e-06
1.7478e-06
1.60103e-06
1.45611e-06
1.31397e-06
1.17543e-06
1.04113e-06
9.11537e-07
7.86865e-07
6.67116e-07
5.52064e-07
4.41261e-07
3.34059e-07
2.29623e-07
1.26958e-07
2.19184e-10
8.21171e-13
8.20634e-13
2.19046e-10
1.26884e-07
2.29492e-07
3.33873e-07
4.41021e-07
5.51769e-07
6.6677e-07
7.86469e-07
9.11094e-07
1.04065e-06
1.1749e-06
1.31341e-06
1.45552e-06
1.60042e-06
1.74718e-06