/*--------------------------------*- C++ -*----------------------------------*\
  =========                 |
  \\      /  F ield         | OpenFOAM: The Open Source CFD Toolbox
   \\    /   O peration     | Website:  https://openfoam.org
    \\  /    A nd           | Version:  13
     \\/     M anipulation  |
\*---------------------------------------------------------------------------*/
FoamFile
{
    format      ascii;
    class       volScalarField;
    location    "150";
    object      rhok;
}
// * * * * * * * * * * * * * * * * * * * * * * * * * * * * * * * * * * * * * //

dimensions      [];

internalField   nonuniform List<scalar> 
315000
(
0.444627
0.429813
0.414976
0.413557
0.412814
0.412073
0.411335
0.410599
0.409866
0.409135
0.408407
0.407682
0.406959
0.40624
0.405523
0.404809
0.404097
0.403389
0.402684
0.401981
0.401282
0.400585
0.399892
0.399202
0.398514
0.39783
0.397149
0.396471
0.395796
0.395124
0.394455
0.393789
0.393126
0.392467
0.39181
0.391156
0.390505
0.389858
0.389213
0.388571
0.387931
0.387295
0.386661
0.38603
0.385401
0.384775
0.384152
0.383531
0.382912
0.382295
0.381681
0.381069
0.380458
0.37985
0.379243
0.378639
0.378036
0.377434
0.376834
0.376235
0.375637
0.375041
0.374445
0.373851
0.373257
0.372664
0.372071
0.371479
0.370887
0.370295
0.444627
0.429811
0.414974
0.413554
0.412811
0.41207
0.411332
0.410596
0.409863
0.409132
0.408404
0.407679
0.406956
0.406236
0.405519
0.404805
0.404094
0.403386
0.40268
0.401978
0.401278
0.400582
0.399889
0.399198
0.398511
0.397827
0.397145
0.396467
0.395792
0.39512
0.394452
0.393786
0.393123
0.392463
0.391807
0.391153
0.390502
0.389854
0.38921
0.388568
0.387928
0.387292
0.386658
0.386027
0.385398
0.384773
0.384149
0.383528
0.382909
0.382293
0.381679
0.381066
0.380456
0.379848
0.379242
0.378637
0.378034
0.377432
0.376832
0.376234
0.375636
0.37504
0.374444
0.37385
0.373256
0.372663
0.372071
0.371478
0.370887
0.370295
0.444627
0.42981
0.414971
0.413552
0.412808
0.412068
0.411329
0.410593
0.40986
0.409129
0.408401
0.407676
0.406953
0.406234
0.405517
0.404802
0.404091
0.403383
0.402677
0.401975
0.401275
0.400579
0.399886
0.399195
0.398508
0.397824
0.397142
0.396464
0.395789
0.395118
0.394449
0.393783
0.39312
0.392461
0.391804
0.39115
0.390499
0.389852
0.389207
0.388565
0.387926
0.387289
0.386656
0.386024
0.385396
0.38477
0.384147
0.383526
0.382907
0.382291
0.381677
0.381065
0.380454
0.379846
0.37924
0.378635
0.378033
0.377431
0.376831
0.376233
0.375635
0.375039
0.374444
0.373849
0.373256
0.372663
0.37207
0.371478
0.370886
0.370295
0.444627
0.429809
0.414969
0.41355
0.412806
0.412065
0.411327
0.410591
0.409858
0.409127
0.408399
0.407674
0.406951
0.406231
0.405514
0.4048
0.404089
0.40338
0.402675
0.401972
0.401273
0.400576
0.399883
0.399193
0.398505
0.397821
0.39714
0.396462
0.395787
0.395115
0.394446
0.39378
0.393118
0.392458
0.391801
0.391148
0.390497
0.389849
0.389204
0.388563
0.387923
0.387287
0.386653
0.386022
0.385394
0.384768
0.384145
0.383524
0.382905
0.382289
0.381675
0.381063
0.380453
0.379845
0.379239
0.378634
0.378031
0.37743
0.37683
0.376232
0.375634
0.375038
0.374443
0.373849
0.373255
0.372662
0.37207
0.371478
0.370886
0.370295
0.444627
0.429808
0.414968
0.413548
0.412804
0.412064
0.411325
0.410589
0.409856
0.409125
0.408397
0.407672
0.406949
0.406229
0.405512
0.404798
0.404086
0.403378
0.402673
0.40197
0.401271
0.400574
0.399881
0.39919
0.398503
0.397819
0.397138
0.39646
0.395785
0.395113
0.394444
0.393778
0.393115
0.392456
0.391799
0.391146
0.390495
0.389847
0.389202
0.388561
0.387921
0.387285
0.386651
0.386021
0.385392
0.384766
0.384143
0.383522
0.382904
0.382288
0.381674
0.381062
0.380452
0.379844
0.379237
0.378633
0.37803
0.377429
0.376829
0.376231
0.375634
0.375037
0.374442
0.373848
0.373255
0.372662
0.37207
0.371478
0.370886
0.370295
0.444627
0.429807
0.414966
0.413546
0.412803
0.412062
0.411324
0.410588
0.409854
0.409124
0.408395
0.40767
0.406947
0.406227
0.40551
0.404796
0.404085
0.403376
0.402671
0.401968
0.401269
0.400572
0.399879
0.399189
0.398501
0.397817
0.397136
0.396458
0.395783
0.395111
0.394442
0.393776
0.393114
0.392454
0.391797
0.391144
0.390493
0.389846
0.389201
0.388559
0.38792
0.387284
0.38665
0.386019
0.385391
0.384765
0.384142
0.383521
0.382903
0.382286
0.381672
0.38106
0.380451
0.379843
0.379236
0.378632
0.378029
0.377428
0.376829
0.37623
0.375633
0.375037
0.374442
0.373848
0.373254
0.372662
0.372069
0.371478
0.370886
0.370295
0.444627
0.429807
0.414965
0.413545
0.412802
0.412061
0.411322
0.410586
0.409853
0.409122
0.408394
0.407669
0.406946
0.406226
0.405509
0.404795
0.404083
0.403375
0.402669
0.401967
0.401267
0.400571
0.399878
0.399187
0.3985
0.397816
0.397134
0.396456
0.395781
0.39511
0.394441
0.393775
0.393112
0.392453
0.391796
0.391143
0.390492
0.389844
0.3892
0.388558
0.387919
0.387282
0.386649
0.386018
0.38539
0.384764
0.384141
0.38352
0.382902
0.382285
0.381671
0.38106
0.38045
0.379842
0.379236
0.378631
0.378029
0.377428
0.376828
0.37623
0.375632
0.375036
0.374441
0.373847
0.373254
0.372661
0.372069
0.371477
0.370886
0.370295
0.444627
0.429807
0.414964
0.413544
0.412801
0.41206
0.411322
0.410586
0.409852
0.409121
0.408393
0.407668
0.406945
0.406225
0.405508
0.404794
0.404082
0.403374
0.402668
0.401966
0.401266
0.40057
0.399876
0.399186
0.398499
0.397815
0.397133
0.396455
0.39578
0.395108
0.39444
0.393774
0.393111
0.392452
0.391795
0.391142
0.390491
0.389843
0.389199
0.388557
0.387918
0.387281
0.386648
0.386017
0.385389
0.384763
0.38414
0.383519
0.382901
0.382285
0.381671
0.381059
0.380449
0.379841
0.379235
0.378631
0.378028
0.377427
0.376827
0.376229
0.375632
0.375036
0.374441
0.373847
0.373254
0.372661
0.372069
0.371477
0.370886
0.370295
0.444627
0.429806
0.414964
0.413544
0.412801
0.41206
0.411321
0.410585
0.409852
0.409121
0.408393
0.407667
0.406944
0.406224
0.405507
0.404793
0.404082
0.403373
0.402668
0.401965
0.401266
0.400569
0.399876
0.399185
0.398498
0.397814
0.397133
0.396455
0.39578
0.395108
0.394439
0.393773
0.393111
0.392451
0.391794
0.391141
0.39049
0.389843
0.389198
0.388556
0.387917
0.387281
0.386647
0.386016
0.385388
0.384763
0.384139
0.383519
0.3829
0.382284
0.38167
0.381058
0.380449
0.379841
0.379235
0.37863
0.378028
0.377427
0.376827
0.376229
0.375632
0.375036
0.374441
0.373847
0.373254
0.372661
0.372069
0.371477
0.370886
0.370295
0.444627
0.429806
0.414964
0.413544
0.4128
0.412059
0.411321
0.410585
0.409851
0.40912
0.408392
0.407667
0.406944
0.406224
0.405507
0.404793
0.404081
0.403373
0.402667
0.401965
0.401265
0.400569
0.399875
0.399185
0.398498
0.397813
0.397132
0.396454
0.395779
0.395107
0.394439
0.393773
0.39311
0.392451
0.391794
0.39114
0.39049
0.389842
0.389197
0.388556
0.387917
0.38728
0.386647
0.386016
0.385388
0.384762
0.384139
0.383518
0.3829
0.382284
0.38167
0.381058
0.380448
0.37984
0.379234
0.37863
0.378028
0.377427
0.376827
0.376229
0.375632
0.375036
0.374441
0.373847
0.373254
0.372661
0.372069
0.371477
0.370886
0.370295
0.444627
0.429806
0.414964
0.413544
0.4128
0.412059
0.411321
0.410585
0.409851
0.40912
0.408392
0.407667
0.406944
0.406224
0.405507
0.404793
0.404081
0.403373
0.402667
0.401965
0.401265
0.400569
0.399875
0.399185
0.398497
0.397813
0.397132
0.396454
0.395779
0.395107
0.394438
0.393773
0.39311
0.39245
0.391794
0.39114
0.39049
0.389842
0.389197
0.388555
0.387916
0.38728
0.386647
0.386016
0.385388
0.384762
0.384139
0.383518
0.3829
0.382284
0.38167
0.381058
0.380448
0.37984
0.379234
0.37863
0.378028
0.377426
0.376827
0.376229
0.375632
0.375036
0.374441
0.373847
0.373253
0.372661
0.372069
0.371477
0.370886
0.370295
0.444627
0.429806
0.414964
0.413544
0.4128
0.412059
0.411321
0.410585
0.409851
0.40912
0.408392
0.407667
0.406944
0.406224
0.405507
0.404793
0.404081
0.403373
0.402667
0.401965
0.401265
0.400569
0.399875
0.399185
0.398497
0.397813
0.397132
0.396454
0.395779
0.395107
0.394438
0.393773
0.39311
0.39245
0.391794
0.39114
0.39049
0.389842
0.389197
0.388555
0.387916
0.38728
0.386647
0.386016
0.385388
0.384762
0.384139
0.383518
0.3829
0.382284
0.38167
0.381058
0.380448
0.37984
0.379234
0.37863
0.378027
0.377426
0.376827
0.376229
0.375632
0.375036
0.374441
0.373847
0.373253
0.372661
0.372069
0.371477
0.370886
0.370295
0.444627
0.429806
0.414964
0.413544
0.4128
0.412059
0.411321
0.410585
0.409851
0.40912
0.408392
0.407667
0.406944
0.406224
0.405507
0.404793
0.404081
0.403373
0.402667
0.401965
0.401265
0.400569
0.399875
0.399185
0.398497
0.397813
0.397132
0.396454
0.395779
0.395107
0.394438
0.393773
0.39311
0.39245
0.391794
0.39114
0.39049
0.389842
0.389197
0.388555
0.387916
0.38728
0.386647
0.386016
0.385388
0.384762
0.384139
0.383518
0.3829
0.382284
0.38167
0.381058
0.380448
0.37984
0.379234
0.37863
0.378027
0.377426
0.376827
0.376229
0.375632
0.375036
0.374441
0.373847
0.373253
0.372661
0.372069
0.371477
0.370886
0.370295
0.444627
0.429806
0.414964
0.413544
0.4128
0.412059
0.411321
0.410585
0.409851
0.409121
0.408392
0.407667
0.406944
0.406224
0.405507
0.404793
0.404081
0.403373
0.402667
0.401965
0.401265
0.400569
0.399875
0.399185
0.398498
0.397813
0.397132
0.396454
0.395779
0.395107
0.394438
0.393773
0.39311
0.39245
0.391794
0.39114
0.39049
0.389842
0.389197
0.388555
0.387916
0.38728
0.386647
0.386016
0.385388
0.384762
0.384139
0.383518
0.3829
0.382284
0.38167
0.381058
0.380448
0.37984
0.379234
0.37863
0.378028
0.377426
0.376827
0.376229
0.375632
0.375036
0.374441
0.373847
0.373253
0.372661
0.372069
0.371477
0.370886
0.370295
0.444627
0.429806
0.414964
0.413544
0.412801
0.41206
0.411321
0.410585
0.409852
0.409121
0.408393
0.407667
0.406944
0.406224
0.405507
0.404793
0.404082
0.403373
0.402668
0.401965
0.401266
0.400569
0.399876
0.399185
0.398498
0.397814
0.397132
0.396454
0.395779
0.395107
0.394439
0.393773
0.39311
0.392451
0.391794
0.391141
0.39049
0.389842
0.389198
0.388556
0.387917
0.38728
0.386647
0.386016
0.385388
0.384762
0.384139
0.383518
0.3829
0.382284
0.38167
0.381058
0.380448
0.37984
0.379234
0.37863
0.378028
0.377427
0.376827
0.376229
0.375632
0.375036
0.374441
0.373847
0.373253
0.372661
0.372069
0.371477
0.370886
0.370295
0.444627
0.429806
0.414964
0.413544
0.412801
0.41206
0.411321
0.410585
0.409852
0.409121
0.408393
0.407667
0.406945
0.406225
0.405508
0.404793
0.404082
0.403373
0.402668
0.401965
0.401266
0.400569
0.399876
0.399186
0.398498
0.397814
0.397133
0.396455
0.39578
0.395108
0.394439
0.393773
0.393111
0.392451
0.391794
0.391141
0.39049
0.389843
0.389198
0.388556
0.387917
0.387281
0.386647
0.386016
0.385388
0.384762
0.384139
0.383518
0.3829
0.382284
0.38167
0.381058
0.380448
0.379841
0.379235
0.37863
0.378028
0.377427
0.376827
0.376229
0.375632
0.375036
0.374441
0.373847
0.373254
0.372661
0.372069
0.371477
0.370886
0.370295
0.444627
0.429807
0.414965
0.413545
0.412801
0.41206
0.411322
0.410586
0.409852
0.409121
0.408393
0.407668
0.406945
0.406225
0.405508
0.404794
0.404082
0.403374
0.402668
0.401966
0.401266
0.40057
0.399876
0.399186
0.398499
0.397814
0.397133
0.396455
0.39578
0.395108
0.394439
0.393774
0.393111
0.392451
0.391795
0.391141
0.390491
0.389843
0.389198
0.388556
0.387917
0.387281
0.386647
0.386017
0.385388
0.384763
0.384139
0.383519
0.3829
0.382284
0.38167
0.381058
0.380449
0.379841
0.379235
0.378631
0.378028
0.377427
0.376827
0.376229
0.375632
0.375036
0.374441
0.373847
0.373254
0.372661
0.372069
0.371477
0.370886
0.370295
0.444627
0.429807
0.414965
0.413545
0.412802
0.412061
0.411322
0.410586
0.409853
0.409122
0.408394
0.407668
0.406946
0.406226
0.405508
0.404794
0.404083
0.403374
0.402669
0.401966
0.401267
0.40057
0.399877
0.399186
0.398499
0.397815
0.397134
0.396456
0.395781
0.395109
0.39444
0.393774
0.393111
0.392452
0.391795
0.391142
0.390491
0.389843
0.389199
0.388557
0.387918
0.387281
0.386648
0.386017
0.385389
0.384763
0.38414
0.383519
0.382901
0.382284
0.381671
0.381059
0.380449
0.379841
0.379235
0.378631
0.378028
0.377427
0.376827
0.376229
0.375632
0.375036
0.374441
0.373847
0.373254
0.372661
0.372069
0.371477
0.370886
0.370295
0.444627
0.429807
0.414965
0.413546
0.412802
0.412061
0.411323
0.410587
0.409853
0.409122
0.408394
0.407669
0.406946
0.406226
0.405509
0.404795
0.404083
0.403375
0.402669
0.401967
0.401267
0.400571
0.399877
0.399187
0.3985
0.397815
0.397134
0.396456
0.395781
0.395109
0.39444
0.393775
0.393112
0.392452
0.391796
0.391142
0.390491
0.389844
0.389199
0.388557
0.387918
0.387282
0.386648
0.386017
0.385389
0.384763
0.38414
0.383519
0.382901
0.382285
0.381671
0.381059
0.380449
0.379841
0.379235
0.378631
0.378028
0.377427
0.376828
0.376229
0.375632
0.375036
0.374441
0.373847
0.373254
0.372661
0.372069
0.371477
0.370886
0.370295
0.444627
0.429807
0.414966
0.413546
0.412803
0.412062
0.411323
0.410587
0.409854
0.409123
0.408395
0.407669
0.406947
0.406227
0.40551
0.404795
0.404084
0.403376
0.40267
0.401968
0.401268
0.400572
0.399878
0.399188
0.3985
0.397816
0.397135
0.396457
0.395782
0.39511
0.394441
0.393775
0.393113
0.392453
0.391796
0.391143
0.390492
0.389844
0.3892
0.388558
0.387919
0.387282
0.386649
0.386018
0.385389
0.384764
0.384141
0.38352
0.382901
0.382285
0.381671
0.381059
0.380449
0.379842
0.379236
0.378631
0.378029
0.377427
0.376828
0.376229
0.375632
0.375036
0.374441
0.373847
0.373254
0.372661
0.372069
0.371477
0.370886
0.370295
0.444627
0.429808
0.414967
0.413547
0.412803
0.412062
0.411324
0.410588
0.409855
0.409124
0.408396
0.40767
0.406947
0.406228
0.40551
0.404796
0.404085
0.403376
0.402671
0.401968
0.401269
0.400572
0.399879
0.399188
0.398501
0.397817
0.397136
0.396457
0.395782
0.39511
0.394442
0.393776
0.393113
0.392454
0.391797
0.391143
0.390493
0.389845
0.3892
0.388558
0.387919
0.387283
0.386649
0.386018
0.38539
0.384764
0.384141
0.38352
0.382902
0.382286
0.381672
0.38106
0.38045
0.379842
0.379236
0.378631
0.378029
0.377428
0.376828
0.37623
0.375632
0.375036
0.374441
0.373847
0.373254
0.372661
0.372069
0.371477
0.370886
0.370295
0.444627
0.429808
0.414967
0.413547
0.412804
0.412063
0.411325
0.410589
0.409855
0.409124
0.408396
0.407671
0.406948
0.406228
0.405511
0.404797
0.404086
0.403377
0.402672
0.401969
0.40127
0.400573
0.39988
0.399189
0.398502
0.397817
0.397136
0.396458
0.395783
0.395111
0.394442
0.393777
0.393114
0.392454
0.391798
0.391144
0.390493
0.389845
0.389201
0.388559
0.38792
0.387283
0.38665
0.386019
0.38539
0.384765
0.384141
0.383521
0.382902
0.382286
0.381672
0.38106
0.38045
0.379842
0.379236
0.378632
0.378029
0.377428
0.376828
0.37623
0.375633
0.375037
0.374442
0.373847
0.373254
0.372661
0.372069
0.371477
0.370886
0.370295
0.444627
0.429808
0.414968
0.413548
0.412805
0.412064
0.411325
0.410589
0.409856
0.409125
0.408397
0.407672
0.406949
0.406229
0.405512
0.404798
0.404086
0.403378
0.402672
0.40197
0.40127
0.400574
0.39988
0.39919
0.398502
0.397818
0.397137
0.396459
0.395784
0.395112
0.394443
0.393777
0.393115
0.392455
0.391798
0.391145
0.390494
0.389846
0.389201
0.388559
0.38792
0.387284
0.38665
0.386019
0.385391
0.384765
0.384142
0.383521
0.382903
0.382286
0.381672
0.38106
0.38045
0.379843
0.379236
0.378632
0.378029
0.377428
0.376828
0.37623
0.375633
0.375037
0.374442
0.373848
0.373254
0.372661
0.372069
0.371478
0.370886
0.370295
0.444627
0.429809
0.414968
0.413549
0.412805
0.412064
0.411326
0.41059
0.409857
0.409126
0.408398
0.407672
0.40695
0.40623
0.405513
0.404798
0.404087
0.403379
0.402673
0.401971
0.401271
0.400575
0.399881
0.399191
0.398503
0.397819
0.397138
0.39646
0.395785
0.395113
0.394444
0.393778
0.393115
0.392455
0.391799
0.391145
0.390494
0.389847
0.389202
0.38856
0.387921
0.387284
0.386651
0.38602
0.385391
0.384766
0.384142
0.383522
0.382903
0.382287
0.381673
0.381061
0.380451
0.379843
0.379237
0.378632
0.37803
0.377428
0.376829
0.37623
0.375633
0.375037
0.374442
0.373848
0.373254
0.372662
0.372069
0.371478
0.370886
0.370295
0.444627
0.429809
0.414969
0.413549
0.412806
0.412065
0.411327
0.410591
0.409857
0.409127
0.408399
0.407673
0.40695
0.406231
0.405513
0.404799
0.404088
0.403379
0.402674
0.401971
0.401272
0.400575
0.399882
0.399191
0.398504
0.39782
0.397138
0.39646
0.395785
0.395113
0.394444
0.393779
0.393116
0.392456
0.391799
0.391146
0.390495
0.389847
0.389202
0.38856
0.387921
0.387285
0.386651
0.38602
0.385392
0.384766
0.384143
0.383522
0.382903
0.382287
0.381673
0.381061
0.380451
0.379843
0.379237
0.378633
0.37803
0.377429
0.376829
0.37623
0.375633
0.375037
0.374442
0.373848
0.373254
0.372662
0.372069
0.371478
0.370886
0.370295
0.444627
0.429809
0.41497
0.41355
0.412807
0.412066
0.411327
0.410591
0.409858
0.409127
0.408399
0.407674
0.406951
0.406231
0.405514
0.4048
0.404089
0.40338
0.402675
0.401972
0.401273
0.400576
0.399882
0.399192
0.398505
0.39782
0.397139
0.396461
0.395786
0.395114
0.394445
0.393779
0.393116
0.392457
0.3918
0.391146
0.390496
0.389848
0.389203
0.388561
0.387922
0.387285
0.386652
0.386021
0.385392
0.384767
0.384143
0.383522
0.382904
0.382288
0.381673
0.381061
0.380452
0.379844
0.379237
0.378633
0.37803
0.377429
0.376829
0.376231
0.375633
0.375037
0.374442
0.373848
0.373255
0.372662
0.372069
0.371478
0.370886
0.370295
0.444627
0.42981
0.41497
0.413551
0.412807
0.412066
0.411328
0.410592
0.409859
0.409128
0.4084
0.407674
0.406952
0.406232
0.405515
0.404801
0.404089
0.403381
0.402675
0.401973
0.401273
0.400577
0.399883
0.399193
0.398505
0.397821
0.39714
0.396462
0.395787
0.395115
0.394446
0.39378
0.393117
0.392457
0.391801
0.391147
0.390496
0.389848
0.389204
0.388562
0.387922
0.387286
0.386652
0.386021
0.385393
0.384767
0.384144
0.383523
0.382904
0.382288
0.381674
0.381062
0.380452
0.379844
0.379238
0.378633
0.37803
0.377429
0.376829
0.376231
0.375634
0.375037
0.374442
0.373848
0.373255
0.372662
0.37207
0.371478
0.370886
0.370295
0.444627
0.42981
0.414971
0.413551
0.412808
0.412067
0.411329
0.410593
0.409859
0.409129
0.4084
0.407675
0.406952
0.406233
0.405515
0.404801
0.40409
0.403381
0.402676
0.401973
0.401274
0.400577
0.399884
0.399193
0.398506
0.397822
0.39714
0.396462
0.395787
0.395115
0.394446
0.39378
0.393118
0.392458
0.391801
0.391147
0.390497
0.389849
0.389204
0.388562
0.387923
0.387286
0.386653
0.386022
0.385393
0.384767
0.384144
0.383523
0.382905
0.382288
0.381674
0.381062
0.380452
0.379844
0.379238
0.378633
0.378031
0.377429
0.37683
0.376231
0.375634
0.375038
0.374442
0.373848
0.373255
0.372662
0.37207
0.371478
0.370886
0.370295
0.444627
0.42981
0.414971
0.413552
0.412808
0.412067
0.411329
0.410593
0.40986
0.409129
0.408401
0.407676
0.406953
0.406233
0.405516
0.404802
0.40409
0.403382
0.402676
0.401974
0.401274
0.400578
0.399884
0.399194
0.398506
0.397822
0.397141
0.396463
0.395788
0.395116
0.394447
0.393781
0.393118
0.392458
0.391802
0.391148
0.390497
0.389849
0.389204
0.388562
0.387923
0.387287
0.386653
0.386022
0.385394
0.384768
0.384144
0.383523
0.382905
0.382289
0.381674
0.381062
0.380452
0.379844
0.379238
0.378634
0.378031
0.37743
0.37683
0.376231
0.375634
0.375038
0.374443
0.373848
0.373255
0.372662
0.37207
0.371478
0.370886
0.370295
0.444627
0.42981
0.414972
0.413552
0.412809
0.412068
0.41133
0.410594
0.40986
0.40913
0.408402
0.407676
0.406954
0.406234
0.405517
0.404802
0.404091
0.403383
0.402677
0.401974
0.401275
0.400578
0.399885
0.399194
0.398507
0.397823
0.397141
0.396463
0.395788
0.395116
0.394447
0.393781
0.393119
0.392459
0.391802
0.391148
0.390498
0.38985
0.389205
0.388563
0.387924
0.387287
0.386653
0.386022
0.385394
0.384768
0.384145
0.383524
0.382905
0.382289
0.381675
0.381063
0.380453
0.379845
0.379238
0.378634
0.378031
0.37743
0.37683
0.376231
0.375634
0.375038
0.374443
0.373848
0.373255
0.372662
0.37207
0.371478
0.370886
0.370295
0.444627
0.429811
0.414972
0.413552
0.412809
0.412068
0.41133
0.410594
0.409861
0.40913
0.408402
0.407677
0.406954
0.406234
0.405517
0.404803
0.404091
0.403383
0.402677
0.401975
0.401275
0.400579
0.399885
0.399195
0.398507
0.397823
0.397142
0.396464
0.395789
0.395117
0.394448
0.393782
0.393119
0.392459
0.391803
0.391149
0.390498
0.38985
0.389205
0.388563
0.387924
0.387288
0.386654
0.386023
0.385394
0.384768
0.384145
0.383524
0.382905
0.382289
0.381675
0.381063
0.380453
0.379845
0.379239
0.378634
0.378031
0.37743
0.37683
0.376231
0.375634
0.375038
0.374443
0.373848
0.373255
0.372662
0.37207
0.371478
0.370886
0.370295
0.444627
0.429811
0.414972
0.413553
0.41281
0.412069
0.41133
0.410594
0.409861
0.40913
0.408402
0.407677
0.406954
0.406234
0.405517
0.404803
0.404092
0.403383
0.402678
0.401975
0.401276
0.400579
0.399886
0.399195
0.398508
0.397824
0.397142
0.396464
0.395789
0.395117
0.394448
0.393782
0.393119
0.39246
0.391803
0.391149
0.390498
0.389851
0.389206
0.388564
0.387924
0.387288
0.386654
0.386023
0.385395
0.384769
0.384145
0.383524
0.382906
0.382289
0.381675
0.381063
0.380453
0.379845
0.379239
0.378634
0.378031
0.37743
0.37683
0.376232
0.375634
0.375038
0.374443
0.373849
0.373255
0.372662
0.37207
0.371478
0.370886
0.370295
0.444627
0.429811
0.414973
0.413553
0.41281
0.412069
0.411331
0.410595
0.409861
0.409131
0.408403
0.407677
0.406955
0.406235
0.405518
0.404804
0.404092
0.403384
0.402678
0.401976
0.401276
0.40058
0.399886
0.399196
0.398508
0.397824
0.397143
0.396464
0.395789
0.395117
0.394448
0.393782
0.39312
0.39246
0.391803
0.391149
0.390499
0.389851
0.389206
0.388564
0.387925
0.387288
0.386654
0.386023
0.385395
0.384769
0.384145
0.383524
0.382906
0.382289
0.381675
0.381063
0.380453
0.379845
0.379239
0.378634
0.378031
0.37743
0.37683
0.376232
0.375634
0.375038
0.374443
0.373849
0.373255
0.372662
0.37207
0.371478
0.370886
0.370295
0.444627
0.429811
0.414973
0.413553
0.41281
0.412069
0.411331
0.410595
0.409862
0.409131
0.408403
0.407678
0.406955
0.406235
0.405518
0.404804
0.404092
0.403384
0.402678
0.401976
0.401276
0.40058
0.399886
0.399196
0.398508
0.397824
0.397143
0.396465
0.39579
0.395118
0.394449
0.393783
0.39312
0.39246
0.391803
0.39115
0.390499
0.389851
0.389206
0.388564
0.387925
0.387288
0.386654
0.386023
0.385395
0.384769
0.384146
0.383525
0.382906
0.38229
0.381675
0.381063
0.380453
0.379845
0.379239
0.378634
0.378032
0.37743
0.37683
0.376232
0.375634
0.375038
0.374443
0.373849
0.373255
0.372662
0.37207
0.371478
0.370886
0.370295
0.444627
0.429811
0.414973
0.413553
0.41281
0.412069
0.411331
0.410595
0.409862
0.409131
0.408403
0.407678
0.406955
0.406235
0.405518
0.404804
0.404093
0.403384
0.402679
0.401976
0.401277
0.40058
0.399887
0.399196
0.398509
0.397824
0.397143
0.396465
0.39579
0.395118
0.394449
0.393783
0.39312
0.39246
0.391804
0.39115
0.390499
0.389851
0.389206
0.388564
0.387925
0.387288
0.386655
0.386024
0.385395
0.384769
0.384146
0.383525
0.382906
0.38229
0.381676
0.381063
0.380453
0.379845
0.379239
0.378634
0.378032
0.37743
0.37683
0.376232
0.375634
0.375038
0.374443
0.373849
0.373255
0.372662
0.37207
0.371478
0.370886
0.370295
0.444627
0.429811
0.414973
0.413554
0.41281
0.41207
0.411331
0.410595
0.409862
0.409131
0.408403
0.407678
0.406955
0.406235
0.405518
0.404804
0.404093
0.403384
0.402679
0.401976
0.401277
0.40058
0.399887
0.399196
0.398509
0.397824
0.397143
0.396465
0.39579
0.395118
0.394449
0.393783
0.39312
0.39246
0.391804
0.39115
0.390499
0.389851
0.389206
0.388564
0.387925
0.387289
0.386655
0.386024
0.385395
0.384769
0.384146
0.383525
0.382906
0.38229
0.381676
0.381064
0.380453
0.379845
0.379239
0.378635
0.378032
0.37743
0.37683
0.376232
0.375634
0.375038
0.374443
0.373849
0.373255
0.372662
0.37207
0.371478
0.370886
0.370295
0.444627
0.429811
0.414973
0.413554
0.412811
0.41207
0.411331
0.410596
0.409862
0.409132
0.408403
0.407678
0.406955
0.406236
0.405519
0.404804
0.404093
0.403384
0.402679
0.401976
0.401277
0.40058
0.399887
0.399196
0.398509
0.397825
0.397143
0.396465
0.39579
0.395118
0.394449
0.393783
0.39312
0.392461
0.391804
0.39115
0.390499
0.389851
0.389206
0.388564
0.387925
0.387289
0.386655
0.386024
0.385395
0.384769
0.384146
0.383525
0.382906
0.38229
0.381676
0.381064
0.380454
0.379845
0.379239
0.378635
0.378032
0.37743
0.37683
0.376232
0.375635
0.375038
0.374443
0.373849
0.373255
0.372662
0.37207
0.371478
0.370886
0.370295
0.444627
0.429811
0.414973
0.413554
0.412811
0.41207
0.411331
0.410596
0.409862
0.409132
0.408404
0.407678
0.406956
0.406236
0.405519
0.404804
0.404093
0.403385
0.402679
0.401977
0.401277
0.40058
0.399887
0.399196
0.398509
0.397825
0.397143
0.396465
0.39579
0.395118
0.394449
0.393783
0.39312
0.392461
0.391804
0.39115
0.390499
0.389851
0.389207
0.388564
0.387925
0.387289
0.386655
0.386024
0.385395
0.384769
0.384146
0.383525
0.382906
0.38229
0.381676
0.381064
0.380454
0.379845
0.379239
0.378635
0.378032
0.37743
0.37683
0.376232
0.375635
0.375038
0.374443
0.373849
0.373255
0.372662
0.37207
0.371478
0.370886
0.370295
0.444627
0.429811
0.414973
0.413554
0.412811
0.41207
0.411331
0.410596
0.409862
0.409132
0.408404
0.407678
0.406956
0.406236
0.405519
0.404804
0.404093
0.403385
0.402679
0.401977
0.401277
0.40058
0.399887
0.399196
0.398509
0.397825
0.397143
0.396465
0.39579
0.395118
0.394449
0.393783
0.39312
0.392461
0.391804
0.39115
0.390499
0.389852
0.389207
0.388564
0.387925
0.387289
0.386655
0.386024
0.385395
0.384769
0.384146
0.383525
0.382906
0.38229
0.381676
0.381064
0.380454
0.379845
0.379239
0.378635
0.378032
0.37743
0.37683
0.376232
0.375635
0.375038
0.374443
0.373849
0.373255
0.372662
0.37207
0.371478
0.370886
0.370295
0.444627
0.429811
0.414973
0.413554
0.412811
0.41207
0.411332
0.410596
0.409862
0.409132
0.408404
0.407678
0.406956
0.406236
0.405519
0.404804
0.404093
0.403385
0.402679
0.401977
0.401277
0.400581
0.399887
0.399197
0.398509
0.397825
0.397143
0.396465
0.39579
0.395118
0.394449
0.393783
0.393121
0.392461
0.391804
0.39115
0.390499
0.389852
0.389207
0.388564
0.387925
0.387289
0.386655
0.386024
0.385395
0.384769
0.384146
0.383525
0.382906
0.38229
0.381676
0.381064
0.380454
0.379846
0.379239
0.378635
0.378032
0.37743
0.376831
0.376232
0.375635
0.375038
0.374443
0.373849
0.373255
0.372662
0.37207
0.371478
0.370886
0.370295
0.444627
0.429811
0.414974
0.413554
0.412811
0.41207
0.411332
0.410596
0.409862
0.409132
0.408404
0.407678
0.406956
0.406236
0.405519
0.404804
0.404093
0.403385
0.402679
0.401977
0.401277
0.400581
0.399887
0.399197
0.398509
0.397825
0.397144
0.396465
0.39579
0.395118
0.394449
0.393783
0.393121
0.392461
0.391804
0.39115
0.390499
0.389852
0.389207
0.388565
0.387925
0.387289
0.386655
0.386024
0.385395
0.384769
0.384146
0.383525
0.382906
0.38229
0.381676
0.381064
0.380454
0.379846
0.379239
0.378635
0.378032
0.37743
0.376831
0.376232
0.375635
0.375038
0.374443
0.373849
0.373255
0.372662
0.37207
0.371478
0.370886
0.370295
0.444627
0.429811
0.414974
0.413554
0.412811
0.41207
0.411332
0.410596
0.409862
0.409132
0.408404
0.407678
0.406956
0.406236
0.405519
0.404804
0.404093
0.403385
0.402679
0.401977
0.401277
0.400581
0.399887
0.399197
0.398509
0.397825
0.397144
0.396465
0.39579
0.395118
0.394449
0.393783
0.393121
0.392461
0.391804
0.39115
0.390499
0.389852
0.389207
0.388565
0.387925
0.387289
0.386655
0.386024
0.385395
0.38477
0.384146
0.383525
0.382906
0.38229
0.381676
0.381064
0.380454
0.379846
0.379239
0.378635
0.378032
0.37743
0.376831
0.376232
0.375635
0.375038
0.374443
0.373849
0.373255
0.372662
0.37207
0.371478
0.370886
0.370295
0.444627
0.429811
0.414974
0.413554
0.412811
0.41207
0.411332
0.410596
0.409862
0.409132
0.408404
0.407678
0.406956
0.406236
0.405519
0.404805
0.404093
0.403385
0.402679
0.401977
0.401277
0.400581
0.399887
0.399197
0.398509
0.397825
0.397144
0.396465
0.39579
0.395118
0.394449
0.393783
0.393121
0.392461
0.391804
0.39115
0.390499
0.389852
0.389207
0.388565
0.387925
0.387289
0.386655
0.386024
0.385395
0.38477
0.384146
0.383525
0.382906
0.38229
0.381676
0.381064
0.380454
0.379846
0.379239
0.378635
0.378032
0.37743
0.376831
0.376232
0.375635
0.375038
0.374443
0.373849
0.373255
0.372662
0.37207
0.371478
0.370886
0.370295
0.444627
0.429811
0.414974
0.413554
0.412811
0.41207
0.411332
0.410596
0.409862
0.409132
0.408404
0.407678
0.406956
0.406236
0.405519
0.404805
0.404093
0.403385
0.402679
0.401977
0.401277
0.400581
0.399887
0.399197
0.398509
0.397825
0.397144
0.396465
0.39579
0.395118
0.394449
0.393783
0.393121
0.392461
0.391804
0.39115
0.390499
0.389852
0.389207
0.388565
0.387925
0.387289
0.386655
0.386024
0.385395
0.38477
0.384146
0.383525
0.382906
0.38229
0.381676
0.381064
0.380454
0.379846
0.379239
0.378635
0.378032
0.37743
0.376831
0.376232
0.375635
0.375038
0.374443
0.373849
0.373255
0.372662
0.37207
0.371478
0.370886
0.370295
0.444627
0.429811
0.414974
0.413554
0.412811
0.41207
0.411332
0.410596
0.409862
0.409132
0.408404
0.407678
0.406956
0.406236
0.405519
0.404805
0.404093
0.403385
0.402679
0.401977
0.401277
0.400581
0.399887
0.399197
0.398509
0.397825
0.397144
0.396465
0.39579
0.395118
0.394449
0.393783
0.393121
0.392461
0.391804
0.39115
0.390499
0.389852
0.389207
0.388565
0.387925
0.387289
0.386655
0.386024
0.385395
0.38477
0.384146
0.383525
0.382906
0.38229
0.381676
0.381064
0.380454
0.379846
0.379239
0.378635
0.378032
0.37743
0.376831
0.376232
0.375635
0.375038
0.374443
0.373849
0.373255
0.372662
0.37207
0.371478
0.370886
0.370295
0.444627
0.429811
0.414974
0.413554
0.412811
0.41207
0.411332
0.410596
0.409862
0.409132
0.408404
0.407678
0.406956
0.406236
0.405519
0.404805
0.404093
0.403385
0.402679
0.401977
0.401277
0.400581
0.399887
0.399197
0.398509
0.397825
0.397144
0.396465
0.39579
0.395118
0.394449
0.393783
0.393121
0.392461
0.391804
0.39115
0.390499
0.389852
0.389207
0.388565
0.387925
0.387289
0.386655
0.386024
0.385395
0.38477
0.384146
0.383525
0.382906
0.38229
0.381676
0.381064
0.380454
0.379846
0.379239
0.378635
0.378032
0.37743
0.376831
0.376232
0.375635
0.375038
0.374443
0.373849
0.373255
0.372662
0.37207
0.371478
0.370886
0.370295
0.444627
0.429811
0.414974
0.413554
0.412811
0.41207
0.411332
0.410596
0.409862
0.409132
0.408404
0.407678
0.406956
0.406236
0.405519
0.404805
0.404093
0.403385
0.402679
0.401977
0.401277
0.400581
0.399887
0.399197
0.398509
0.397825
0.397144
0.396465
0.39579
0.395118
0.394449
0.393783
0.393121
0.392461
0.391804
0.39115
0.390499
0.389852
0.389207
0.388565
0.387925
0.387289
0.386655
0.386024
0.385395
0.38477
0.384146
0.383525
0.382906
0.38229
0.381676
0.381064
0.380454
0.379846
0.379239
0.378635
0.378032
0.37743
0.376831
0.376232
0.375635
0.375038
0.374443
0.373849
0.373255
0.372662
0.37207
0.371478
0.370886
0.370295
0.444627
0.429811
0.414974
0.413554
0.412811
0.41207
0.411332
0.410596
0.409862
0.409132
0.408404