/*--------------------------------*- C++ -*----------------------------------*\
  =========                 |
  \\      /  F ield         | OpenFOAM: The Open Source CFD Toolbox
   \\    /   O peration     | Website:  https://openfoam.org
    \\  /    A nd           | Version:  13
     \\/     M anipulation  |
\*---------------------------------------------------------------------------*/
FoamFile
{
    format      ascii;
    class       volScalarField;
    location    "320";
    object      nut;
}
// * * * * * * * * * * * * * * * * * * * * * * * * * * * * * * * * * * * * * //

dimensions      [0 2 -1 0 0 0 0];

internalField   nonuniform List<scalar> 
78750
(
3.27176e-19
2.09624e-17
4.69624e-16
8.51374e-16
1.25375e-15
1.67961e-15
2.12915e-15
2.59915e-15
3.08298e-15
3.5709e-15
4.05069e-15
4.50849e-15
4.92967e-15
5.29977e-15
5.60542e-15
5.83518e-15
5.98021e-15
6.03481e-15
5.99679e-15
5.86761e-15
5.65223e-15
5.35889e-15
4.99856e-15
4.58428e-15
4.13033e-15
3.65138e-15
3.16145e-15
2.67307e-15
2.19636e-15
1.73833e-15
1.30248e-15
8.88627e-16
4.9328e-16
2.21958e-17
3.27176e-19
1.76657e-18
4.58575e-16
6.47198e-14
1.18231e-13
1.7456e-13
2.34326e-13
2.97646e-13
3.64094e-13
4.32721e-13
5.02113e-13
5.70492e-13
6.35837e-13
6.96014e-13
7.48915e-13
7.92591e-13
8.25375e-13
8.45979e-13
8.53582e-13
8.47872e-13
8.2907e-13
7.97916e-13
7.55622e-13
7.038e-13
6.44359e-13
5.79389e-13
5.11028e-13
4.41319e-13
3.72076e-13
3.04762e-13
2.40375e-13
1.79388e-13
1.21715e-13
6.67431e-14
4.73702e-16
1.82602e-18
4.8797e-18
1.26715e-15
1.79216e-13
3.29332e-13
4.90495e-13
6.65539e-13
8.55537e-13
1.05961e-12
1.2749e-12
1.49674e-12
1.71895e-12
1.93427e-12
2.13483e-12
2.31274e-12
2.46059e-12
2.57197e-12
2.64194e-12
2.66733e-12
2.64696e-12
2.58174e-12
2.47461e-12
2.33032e-12
2.1551e-12
1.95627e-12
1.7417e-12
1.51928e-12
1.29637e-12
1.07927e-12
8.72801e-13
6.79978e-13
5.01825e-13
3.3737e-13
1.8381e-13
1.30114e-15
5.01287e-18
9.27595e-18
2.40897e-15
3.40965e-13
6.27941e-13
9.38275e-13
1.27823e-12
1.65049e-12
2.05375e-12
2.48258e-12
2.92767e-12
3.37644e-12
3.81378e-12
4.22316e-12
4.58775e-12
4.89161e-12
5.12089e-12
5.26484e-12
5.31654e-12
5.27349e-12
5.13774e-12
4.91576e-12
4.61795e-12
4.2579e-12
3.85137e-12
3.41517e-12
2.9659e-12
2.51882e-12
2.08676e-12
1.67931e-12
1.30219e-12
9.56947e-13
6.41092e-13
3.48429e-13
2.464e-15
9.49132e-18
1.41994e-17
3.68757e-15
5.22039e-13
9.62012e-13
1.43878e-12
1.96234e-12
2.53709e-12
3.16118e-12
3.8263e-12
4.51804e-12
5.21673e-12
5.89869e-12
6.53789e-12
7.10771e-12
7.58293e-12
7.94156e-12
8.1665e-12
8.24678e-12
8.17845e-12
7.96483e-12
7.61627e-12
7.14938e-12
6.58579e-12
5.9505e-12
5.27005e-12
4.57061e-12
3.87606e-12
3.20643e-12
2.57651e-12
1.99501e-12
1.46417e-12
9.7982e-13
5.32106e-13
3.76168e-15
1.44894e-17
1.90006e-17
4.93434e-15
6.98564e-13
1.28749e-12
1.926e-12
2.6276e-12
3.39828e-12
4.2356e-12
5.12844e-12
6.05744e-12
6.99613e-12
7.91264e-12
8.77186e-12
9.53793e-12
1.01768e-11
1.06588e-11
1.09609e-11
1.10682e-11
1.09756e-11
1.06874e-11
1.02177e-11
9.58909e-12
8.83067e-12
7.97622e-12
7.06156e-12
6.12191e-12
5.18944e-12
4.29101e-12
3.44649e-12
2.66749e-12
1.95692e-12
1.30912e-12
7.10758e-13
5.02404e-15
1.93516e-17
2.32628e-17
6.04125e-15
8.55277e-13
1.57635e-12
2.3582e-12
3.21741e-12
4.16133e-12
5.187e-12
6.28077e-12
7.4189e-12
8.56896e-12
9.69187e-12
1.07446e-11
1.16831e-11
1.24656e-11
1.30559e-11
1.34256e-11
1.35566e-11
1.34424e-11
1.30886e-11
1.25124e-11
1.17416e-11
1.08118e-11
9.76457e-12
8.64377e-12
7.49259e-12
6.35045e-12
5.25026e-12
4.21632e-12
3.26284e-12
2.39336e-12
1.60089e-12
8.6908e-13
6.14274e-15
2.36601e-17
2.67618e-17
6.95013e-15
9.83966e-13
1.81351e-12
2.71299e-12
3.70146e-12
4.7874e-12
5.96738e-12
7.22571e-12
8.53506e-12
9.85809e-12
1.11498e-11
1.23607e-11
1.34402e-11
1.43402e-11
1.50189e-11
1.54437e-11
1.55939e-11
1.5462e-11
1.50545e-11
1.43912e-11
1.3504e-11
1.2434e-11
1.12291e-11
9.93961e-12
8.61535e-12
7.30161e-12
6.03625e-12
4.84721e-12
3.75083e-12
2.75113e-12
1.8401e-12
9.98886e-13
7.0598e-15
2.7191e-17
2.94297e-17
7.6434e-15
1.08215e-12
1.99445e-12
2.98364e-12
4.07068e-12
5.2649e-12
6.56252e-12
7.94626e-12
9.38608e-12
1.08409e-11
1.22613e-11
1.35926e-11
1.47794e-11
1.57688e-11
1.65148e-11
1.69815e-11
1.71463e-11
1.70008e-11
1.65523e-11
1.58226e-11
1.48467e-11
1.36699e-11
1.23448e-11
1.09268e-11
9.4707e-12
8.02624e-12
6.63505e-12
5.32784e-12
4.12259e-12
3.02369e-12
2.02233e-12
1.09777e-12
7.75822e-15
2.98792e-17
3.13224e-17
8.13547e-15
1.15186e-12
2.12291e-12
3.17579e-12
4.3328e-12
5.60388e-12
6.985e-12
8.45776e-12
9.99018e-12
1.15385e-11
1.30501e-11
1.4467e-11
1.57299e-11
1.67827e-11
1.75763e-11
1.80728e-11
1.82478e-11
1.80927e-11
1.7615e-11
1.68381e-11
1.57992e-11
1.45466e-11
1.31362e-11
1.16271e-11
1.00774e-11
8.54015e-12
7.0597e-12
5.66868e-12
4.3862e-12
3.21696e-12
2.15153e-12
1.16788e-12
8.25318e-15
3.17832e-17
3.25736e-17
8.46097e-15
1.19799e-12
2.20793e-12
3.30295e-12
4.50627e-12
5.82821e-12
7.26459e-12
8.79626e-12
1.03899e-11
1.20002e-11
1.35722e-11
1.50456e-11
1.63589e-11
1.74536e-11
1.82787e-11
1.87949e-11
1.89766e-11
1.8815e-11
1.83181e-11
1.75099e-11
1.64293e-11
1.51265e-11
1.36596e-11
1.20901e-11
1.04785e-11
8.87994e-12
7.34044e-12
5.89399e-12
4.56045e-12
3.34469e-12
2.23692e-12
1.2142e-12
8.58011e-15
3.30401e-17
3.33462e-17
8.66209e-15
1.2265e-12
2.26048e-12
3.38156e-12
4.61351e-12
5.9669e-12
7.43743e-12
9.00552e-12
1.06371e-11
1.22856e-11
1.38949e-11
1.54033e-11
1.67477e-11
1.78683e-11
1.8713e-11
1.92412e-11
1.94271e-11
1.92615e-11
1.87526e-11
1.7925e-11
1.68186e-11
1.54848e-11
1.3983e-11
1.23762e-11
1.07263e-11
9.08982e-12
7.51383e-12
6.03313e-12
4.66805e-12
3.42356e-12
2.28964e-12
1.2428e-12
8.78183e-15
3.3815e-17
3.37929e-17
8.77846e-15
1.24301e-12
2.2909e-12
3.42707e-12
4.67559e-12
6.04719e-12
7.53751e-12
9.12668e-12
1.07802e-11
1.24508e-11
1.40817e-11
1.56104e-11
1.69728e-11
1.81084e-11
1.89644e-11
1.94996e-11
1.96879e-11
1.952e-11
1.90041e-11
1.81654e-11
1.7044e-11
1.56922e-11
1.41702e-11
1.25418e-11
1.08697e-11
9.21125e-12
7.61413e-12
6.11361e-12
4.73027e-12
3.46916e-12
2.32012e-12
1.25933e-12
8.89839e-15
3.42624e-17
3.40354e-17
8.8417e-15
1.25198e-12
2.30745e-12
3.45182e-12
4.70936e-12
6.09086e-12
7.59193e-12
9.19258e-12
1.0858e-11
1.25407e-11
1.41834e-11
1.5723e-11
1.70953e-11
1.8239e-11
1.91011e-11
1.96401e-11
1.98297e-11
1.96606e-11
1.91409e-11
1.8296e-11
1.71665e-11
1.58049e-11
1.42719e-11
1.26317e-11
1.09476e-11
9.27723e-12
7.66864e-12
6.15734e-12
4.76408e-12
3.49394e-12
2.33667e-12
1.26831e-12
8.96165e-15
3.45051e-17
3.41595e-17
8.87407e-15
1.25658e-12
2.31592e-12
3.46449e-12
4.72665e-12
6.11323e-12
7.61981e-12
9.22634e-12
1.08979e-11
1.25867e-11
1.42355e-11
1.57808e-11
1.7158e-11
1.83059e-11
1.91711e-11
1.97121e-11
1.99024e-11
1.97326e-11
1.92109e-11
1.8363e-11
1.72293e-11
1.58627e-11
1.4324e-11
1.26778e-11
1.09875e-11
9.31102e-12
7.69654e-12
6.17972e-12
4.78138e-12
3.50661e-12
2.34514e-12
1.27291e-12
8.994e-15
3.4629e-17
3.42194e-17
8.88973e-15
1.25881e-12
2.32002e-12
3.47063e-12
4.73502e-12
6.12405e-12
7.63331e-12
9.24268e-12
1.09172e-11
1.2609e-11
1.42607e-11
1.58087e-11
1.71884e-11
1.83383e-11
1.92051e-11
1.9747e-11
1.99376e-11
1.97674e-11
1.92448e-11
1.83954e-11
1.72597e-11
1.58906e-11
1.43492e-11
1.27001e-11
1.10068e-11
9.32736e-12
7.71003e-12
6.19054e-12
4.78974e-12
3.51274e-12
2.34924e-12
1.27513e-12
9.00962e-15
3.46889e-17
3.42469e-17
8.8969e-15
1.25983e-12
2.3219e-12
3.47344e-12
4.73886e-12
6.12902e-12
7.6395e-12
9.25018e-12
1.0926e-11
1.26193e-11
1.42722e-11
1.58215e-11
1.72023e-11
1.83532e-11
1.92206e-11
1.9763e-11
1.99537e-11
1.97834e-11
1.92604e-11
1.84102e-11
1.72736e-11
1.59034e-11
1.43608e-11
1.27103e-11
1.10157e-11
9.33484e-12
7.71621e-12
6.1955e-12
4.79358e-12
3.51555e-12
2.35112e-12
1.27614e-12
9.01677e-15
3.47162e-17
3.42588e-17
8.90002e-15
1.26027e-12
2.32272e-12
3.47467e-12
4.74053e-12
6.13118e-12
7.64219e-12
9.25344e-12
1.09299e-11
1.26237e-11
1.42773e-11
1.58271e-11
1.72084e-11
1.83597e-11
1.92274e-11
1.97699e-11
1.99607e-11
1.97904e-11
1.92672e-11
1.84167e-11
1.72797e-11
1.5909e-11
1.43658e-11
1.27148e-11
1.10195e-11
9.3381e-12
7.7189e-12
6.19766e-12
4.79524e-12
3.51677e-12
2.35193e-12
1.27659e-12
9.01988e-15
3.47281e-17
3.42637e-17
8.90131e-15
1.26045e-12
2.32306e-12
3.47517e-12
4.74122e-12
6.13207e-12
7.64331e-12
9.25479e-12
1.09315e-11
1.26256e-11
1.42794e-11
1.58294e-11
1.72109e-11
1.83623e-11
1.92302e-11
1.97728e-11
1.99637e-11
1.97933e-11
1.927e-11
1.84194e-11
1.72822e-11
1.59113e-11
1.43679e-11
1.27166e-11
1.10211e-11
9.33945e-12
7.72002e-12
6.19855e-12
4.79594e-12
3.51728e-12
2.35227e-12
1.27677e-12
9.02117e-15
3.4733e-17
3.42657e-17
8.90182e-15
1.26053e-12
2.3232e-12
3.47537e-12
4.7415e-12
6.13243e-12
7.64375e-12
9.25533e-12
1.09321e-11
1.26263e-11
1.42802e-11
1.58303e-11
1.72119e-11
1.83634e-11
1.92313e-11
1.9774e-11
1.99648e-11
1.97944e-11
1.92711e-11
1.84204e-11
1.72832e-11
1.59122e-11
1.43687e-11
1.27174e-11
1.10218e-11
9.33999e-12
7.72046e-12
6.1989e-12
4.79621e-12
3.51748e-12
2.3524e-12
1.27684e-12
9.02168e-15
3.47349e-17
3.42664e-17
8.90202e-15
1.26055e-12
2.32325e-12
3.47545e-12
4.7416e-12
6.13256e-12
7.64392e-12
9.25553e-12
1.09324e-11
1.26266e-11
1.42805e-11
1.58307e-11
1.72123e-11
1.83638e-11
1.92317e-11
1.97744e-11
1.99652e-11
1.97948e-11
1.92715e-11
1.84208e-11
1.72835e-11
1.59126e-11
1.4369e-11
1.27176e-11
1.1022e-11
9.34019e-12
7.72062e-12
6.19904e-12
4.79631e-12
3.51755e-12
2.35245e-12
1.27687e-12
9.02187e-15
3.47357e-17
3.42667e-17
8.90209e-15
1.26056e-12
2.32326e-12
3.47548e-12
4.74164e-12
6.13261e-12
7.64398e-12
9.2556e-12
1.09325e-11
1.26267e-11
1.42806e-11
1.58308e-11
1.72124e-11
1.8364e-11
1.92319e-11
1.97745e-11
1.99654e-11
1.9795e-11
1.92717e-11
1.8421e-11
1.72837e-11
1.59127e-11
1.43691e-11
1.27177e-11
1.10221e-11
9.34026e-12
7.72069e-12
6.19909e-12
4.79635e-12
3.51758e-12
2.35247e-12
1.27688e-12
9.02194e-15
3.47359e-17
3.42668e-17
8.90211e-15
1.26057e-12
2.32327e-12
3.47549e-12
4.74165e-12
6.13263e-12
7.644e-12
9.25563e-12
1.09325e-11
1.26267e-11
1.42806e-11
1.58308e-11
1.72125e-11
1.8364e-11
1.92319e-11
1.97746e-11
1.99655e-11
1.9795e-11
1.92717e-11
1.8421e-11
1.72837e-11
1.59127e-11
1.43692e-11
1.27178e-11
1.10221e-11
9.34029e-12
7.72071e-12
6.1991e-12
4.79636e-12
3.51759e-12
2.35248e-12
1.27688e-12
9.02196e-15
3.4736e-17
3.42668e-17
8.90212e-15
1.26057e-12
2.32327e-12
3.47549e-12
4.74166e-12
6.13263e-12
7.64401e-12
9.25564e-12
1.09325e-11
1.26267e-11
1.42807e-11
1.58309e-11
1.72125e-11
1.8364e-11
1.9232e-11
1.97746e-11
1.99655e-11
1.97951e-11
1.92717e-11
1.8421e-11
1.72837e-11
1.59128e-11
1.43692e-11
1.27178e-11
1.10221e-11
9.3403e-12
7.72071e-12
6.19911e-12
4.79637e-12
3.51759e-12
2.35248e-12
1.27688e-12
9.02197e-15
3.47361e-17
3.42668e-17
8.90212e-15
1.26057e-12
2.32327e-12
3.47549e-12
4.74166e-12
6.13264e-12
7.64401e-12
9.25564e-12
1.09325e-11
1.26267e-11
1.42807e-11
1.58309e-11
1.72125e-11
1.8364e-11
1.9232e-11
1.97746e-11
1.99655e-11
1.97951e-11
1.92717e-11
1.8421e-11
1.72837e-11
1.59128e-11
1.43692e-11
1.27178e-11
1.10221e-11
9.3403e-12
7.72072e-12
6.19911e-12
4.79637e-12
3.5176e-12
2.35248e-12
1.27688e-12
9.02197e-15
3.47361e-17
3.42668e-17
8.90212e-15
1.26057e-12
2.32327e-12
3.47549e-12
4.74166e-12
6.13264e-12
7.64401e-12
9.25564e-12
1.09325e-11
1.26267e-11
1.42807e-11
1.58309e-11
1.72125e-11
1.8364e-11
1.9232e-11
1.97746e-11
1.99655e-11
1.97951e-11
1.92717e-11
1.8421e-11
1.72837e-11
1.59128e-11
1.43692e-11
1.27178e-11
1.10221e-11
9.3403e-12
7.72072e-12
6.19911e-12
4.79637e-12
3.5176e-12
2.35248e-12
1.27688e-12
9.02197e-15
3.47361e-17
3.42668e-17
8.90212e-15
1.26057e-12
2.32327e-12
3.47549e-12
4.74166e-12
6.13264e-12
7.64401e-12
9.25564e-12
1.09325e-11
1.26267e-11
1.42807e-11
1.58309e-11
1.72125e-11
1.8364e-11
1.9232e-11
1.97746e-11
1.99655e-11
1.97951e-11
1.92717e-11
1.8421e-11
1.72837e-11
1.59128e-11
1.43692e-11
1.27178e-11
1.10221e-11
9.3403e-12
7.72072e-12
6.19911e-12
4.79637e-12
3.5176e-12
2.35248e-12
1.27688e-12
9.02197e-15
3.47361e-17
3.42668e-17
8.90212e-15
1.26057e-12
2.32327e-12
3.47549e-12
4.74166e-12
6.13264e-12
7.64401e-12
9.25564e-12
1.09325e-11
1.26267e-11
1.42807e-11
1.58309e-11
1.72125e-11
1.8364e-11
1.9232e-11
1.97746e-11
1.99655e-11
1.97951e-11
1.92717e-11
1.8421e-11
1.72837e-11
1.59128e-11
1.43692e-11
1.27178e-11
1.10221e-11
9.3403e-12
7.72072e-12
6.19911e-12
4.79637e-12
3.5176e-12
2.35248e-12
1.27688e-12
9.02197e-15
3.47361e-17
3.42668e-17
8.90212e-15
1.26057e-12
2.32327e-12
3.47549e-12
4.74166e-12
6.13264e-12
7.64401e-12
9.25564e-12
1.09325e-11
1.26267e-11
1.42807e-11
1.58309e-11
1.72125e-11
1.8364e-11
1.9232e-11
1.97746e-11
1.99655e-11
1.97951e-11
1.92717e-11
1.8421e-11
1.72837e-11
1.59128e-11
1.43692e-11
1.27178e-11
1.10221e-11
9.3403e-12
7.72072e-12
6.19911e-12
4.79637e-12
3.5176e-12
2.35248e-12
1.27688e-12
9.02197e-15
3.47361e-17
3.42668e-17
8.90212e-15
1.26057e-12
2.32327e-12
3.47549e-12
4.74166e-12
6.13264e-12
7.64401e-12
9.25564e-12
1.09325e-11
1.26267e-11
1.42807e-11
1.58309e-11
1.72125e-11
1.8364e-11
1.9232e-11
1.97746e-11
1.99655e-11
1.97951e-11
1.92717e-11
1.8421e-11
1.72837e-11
1.59128e-11
1.43692e-11
1.27178e-11
1.10221e-11
9.3403e-12
7.72072e-12
6.19911e-12
4.79637e-12
3.5176e-12
2.35248e-12
1.27688e-12
9.02197e-15
3.47361e-17
3.42668e-17
8.90212e-15
1.26057e-12
2.32327e-12
3.47549e-12
4.74166e-12
6.13264e-12
7.64401e-12
9.25564e-12
1.09325e-11
1.26267e-11
1.42807e-11
1.58309e-11
1.72125e-11
1.8364e-11
1.9232e-11
1.97746e-11
1.99655e-11
1.97951e-11
1.92717e-11
1.8421e-11
1.72837e-11
1.59128e-11
1.43692e-11
1.27178e-11
1.10221e-11
9.3403e-12
7.72072e-12
6.19911e-12
4.79637e-12
3.5176e-12
2.35248e-12
1.27688e-12
9.02197e-15
3.47361e-17
3.42668e-17
8.90212e-15
1.26057e-12
2.32327e-12
3.47549e-12
4.74166e-12
6.13264e-12
7.64401e-12
9.25564e-12
1.09325e-11
1.26267e-11
1.42807e-11
1.58309e-11
1.72125e-11
1.8364e-11
1.9232e-11
1.97746e-11
1.99655e-11
1.97951e-11
1.92717e-11
1.8421e-11
1.72837e-11
1.59128e-11
1.43692e-11
1.27178e-11
1.10221e-11
9.3403e-12
7.72072e-12
6.19911e-12
4.79637e-12
3.5176e-12
2.35248e-12
1.27688e-12
9.02197e-15
3.47361e-17
3.42668e-17
8.90212e-15
1.26057e-12
2.32327e-12
3.47549e-12
4.74166e-12
6.13264e-12
7.64401e-12
9.25564e-12
1.09325e-11
1.26267e-11
1.42807e-11
1.58309e-11
1.72125e-11
1.8364e-11
1.9232e-11
1.97746e-11
1.99655e-11
1.97951e-11
1.92717e-11
1.8421e-11
1.72837e-11
1.59128e-11
1.43692e-11
1.27178e-11
1.10221e-11
9.3403e-12
7.72072e-12
6.19911e-12
4.79637e-12
3.5176e-12
2.35248e-12
1.27688e-12
9.02197e-15
3.47361e-17
3.42668e-17
8.90212e-15
1.26057e-12
2.32327e-12
3.47549e-12
4.74166e-12
6.13264e-12
7.64401e-12
9.25564e-12
1.09325e-11
1.26267e-11
1.42807e-11
1.58309e-11
1.72125e-11
1.8364e-11
1.9232e-11
1.97746e-11
1.99655e-11
1.97951e-11
1.92717e-11
1.8421e-11
1.72837e-11
1.59128e-11
1.43692e-11
1.27178e-11
1.10221e-11
9.3403e-12
7.72072e-12
6.19911e-12
4.79637e-12
3.5176e-12
2.35248e-12
1.27688e-12
9.02197e-15
3.47361e-17
3.42668e-17
8.90212e-15
1.26057e-12
2.32327e-12
3.47549e-12
4.74166e-12
6.13264e-12
7.64401e-12
9.25564e-12
1.09325e-11
1.26267e-11
1.42807e-11
1.58309e-11
1.72125e-11
1.8364e-11
1.9232e-11
1.97746e-11
1.99655e-11
1.97951e-11
1.92717e-11
1.8421e-11
1.72837e-11
1.59128e-11
1.43692e-11
1.27178e-11
1.10221e-11
9.3403e-12
7.72072e-12
6.19911e-12
4.79637e-12
3.5176e-12
2.35248e-12
1.27688e-12
9.02197e-15
3.47361e-17
3.42668e-17
8.90212e-15
1.26057e-12
2.32327e-12
3.47549e-12
4.74166e-12
6.13264e-12
7.64401e-12
9.25564e-12
1.09325e-11
1.26267e-11
1.42807e-11
1.58309e-11
1.72125e-11
1.8364e-11
1.9232e-11
1.97746e-11
1.99655e-11
1.97951e-11
1.92717e-11
1.8421e-11
1.72837e-11
1.59128e-11
1.43692e-11
1.27178e-11
1.10221e-11
9.3403e-12
7.72072e-12
6.19911e-12
4.79637e-12
3.5176e-12
2.35248e-12
1.27688e-12
9.02197e-15
3.47361e-17
3.42668e-17
8.90212e-15
1.26057e-12
2.32327e-12
3.47549e-12
4.74166e-12
6.13264e-12
7.64401e-12
9.25564e-12
1.09325e-11
1.26267e-11
1.42807e-11
1.58309e-11
1.72125e-11
1.8364e-11
1.9232e-11
1.97746e-11
1.99655e-11
1.97951e-11
1.92717e-11
1.8421e-11
1.72837e-11
1.59128e-11
1.43692e-11
1.27178e-11
1.10221e-11
9.3403e-12
7.72072e-12
6.19911e-12
4.79637e-12
3.5176e-12
2.35248e-12
1.27688e-12
9.02197e-15
3.47361e-17
3.42668e-17
8.90212e-15
1.26057e-12
2.32327e-12
3.47549e-12
4.74166e-12
6.13264e-12
7.64401e-12
9.25564e-12
1.09325e-11
1.26267e-11
1.42807e-11
1.58309e-11
1.72125e-11
1.8364e-11
1.9232e-11
1.97746e-11
1.99655e-11
1.97951e-11
1.92717e-11
1.8421e-11
1.72837e-11
1.59128e-11
1.43692e-11
1.27178e-11
1.10221e-11
9.3403e-12
7.72072e-12
6.19911e-12
4.79637e-12
3.5176e-12
2.35248e-12
1.27688e-12
9.02197e-15
3.47361e-17
3.42668e-17
8.90212e-15
1.26057e-12
2.32327e-12
3.47549e-12
4.74166e-12
6.13264e-12
7.64401e-12
9.25564e-12
1.09325e-11
1.26267e-11
1.42807e-11
1.58309e-11
1.72125e-11
1.8364e-11
1.9232e-11
1.97746e-11
1.99655e-11
1.97951e-11
1.92717e-11
1.8421e-11
1.72837e-11
1.59128e-11
1.43692e-11
1.27178e-11
1.10221e-11
9.3403e-12
7.72072e-12
6.19911e-12
4.79637e-12
3.5176e-12
2.35248e-12
1.27688e-12
9.02197e-15
3.47361e-17
3.42668e-17
8.90212e-15
1.26057e-12
2.32327e-12
3.47549e-12
4.74166e-12
6.13264e-12
7.64401e-12
9.25564e-12
1.09325e-11
1.26267e-11
1.42807e-11
1.58309e-11
1.72125e-11
1.8364e-11
1.9232e-11
1.97746e-11
1.99655e-11
1.97951e-11
1.92717e-11
1.8421e-11
1.72837e-11
1.59128e-11
1.43692e-11
1.27178e-11
1.10221e-11
9.3403e-12
7.72072e-12
6.19911e-12
4.79637e-12
3.5176e-12
2.35248e-12
1.27688e-12
9.02197e-15
3.47361e-17
3.42668e-17
8.90212e-15
1.26057e-12
2.32327e-12
3.47549e-12
4.74166e-12
6.13264e-12
7.64401e-12
9.25564e-12
1.09325e-11
1.26267e-11
1.42807e-11
1.58309e-11
1.72125e-11
1.8364e-11
1.9232e-11
1.97746e-11
1.99655e-11
1.97951e-11
1.92717e-11
1.8421e-11
1.72837e-11
1.59128e-11
1.43692e-11
1.27178e-11
1.10221e-11
9.3403e-12
7.72072e-12
6.19911e-12
4.79637e-12
3.5176e-12
2.35248e-12
1.27688e-12
9.02197e-15
3.47361e-17
3.42668e-17
8.90212e-15
1.26057e-12
2.32327e-12
3.47549e-12
4.74166e-12
6.13264e-12
7.64401e-12
9.25564e-12
1.09325e-11
1.26267e-11
1.42807e-11
1.58309e-11
1.72125e-11
1.8364e-11
1.9232e-11
1.97746e-11
1.99655e-11
1.97951e-11
1.92717e-11
1.8421e-11
1.72837e-11
1.59128e-11
1.43692e-11
1.27178e-11
1.10221e-11
9.3403e-12
7.72072e-12
6.19911e-12
4.79637e-12
3.5176e-12
2.35248e-12
1.27688e-12
9.02197e-15
3.47361e-17
3.42668e-17
8.90212e-15
1.26057e-12
2.32327e-12
3.47549e-12
4.74166e-12
6.13264e-12
7.64401e-12
9.25564e-12
1.09325e-11
1.26267e-11
1.42807e-11
1.58309e-11
1.72125e-11
1.8364e-11
1.9232e-11
1.97746e-11
1.99655e-11
1.97951e-11
1.92717e-11
1.8421e-11
1.72837e-11
1.59128e-11
1.43692e-11
1.27178e-11
1.10221e-11
9.3403e-12
7.72072e-12
6.19911e-12
4.79637e-12
3.5176e-12
2.35248e-12
1.27688e-12
9.02197e-15
3.47361e-17
3.42668e-17
8.90212e-15
1.26057e-12
2.32327e-12
3.47549e-12
4.74166e-12
6.13264e-12
7.64401e-12
9.25564e-12
1.09325e-11
1.26267e-11
1.42807e-11
1.58309e-11
1.72125e-11
1.8364e-11
1.9232e-11
1.97746e-11
1.99655e-11
1.97951e-11
1.92717e-11
1.8421e-11
1.72837e-11
1.59128e-11
1.43692e-11
1.27178e-11
1.10221e-11
9.3403e-12
7.72072e-12
6.19911e-12
4.79637e-12
3.5176e-12
2.35248e-12
1.27688e-12
9.02197e-15
3.47361e-17
3.42668e-17
8.90212e-15
1.26057e-12
2.32327e-12
3.47549e-12
4.74166e-12
6.13264e-12
7.64401e-12
9.25564e-12
1.09325e-11
1.26267e-11
1.42807e-11
1.58309e-11
1.72125e-11
1.8364e-11
1.9232e-11
1.97746e-11
1.99655e-11
1.97951e-11
1.92717e-11
1.8421e-11
1.72837e-11
1.59128e-11
1.43692e-11
1.27178e-11
1.10221e-11
9.3403e-12
7.72072e-12
6.19911e-12
4.79637e-12
3.5176e-12
2.35248e-12
1.27688e-12
9.02197e-15
3.47361e-17
3.42668e-17
8.90212e-15
1.26057e-12
2.32327e-12
3.47549e-12
4.74166e-12
6.13264e-12
7.64401e-12
9.25564e-12
1.09325e-11
1.26267e-11
1.42807e-11
1.58309e-11
1.72125e-11
1.8364e-11
1.9232e-11
1.97746e-11
1.99655e-11
1.97951e-11
1.92717e-11
1.8421e-11
1.72837e-11
1.59128e-11
1.43692e-11
1.27178e-11
1.10221e-11
9.3403e-12
7.72072e-12
6.19911e-12
4.79637e-12
3.5176e-12
2.35248e-12
1.27688e-12
9.02197e-15
3.47361e-17
3.42668e-17
8.90212e-15
1.26057e-12
2.32327e-12
3.47549e-12
4.74166e-12
6.13264e-12
7.64401e-12
9.25564e-12
1.09325e-11
1.26267e-11
1.42807e-11
1.58309e-11
1.72125e-11
1.8364e-11
1.9232e-11
1.97746e-11
1.99655e-11
1.97951e-11
1.92717e-11
1.8421e-11
1.72837e-11
1.59128e-11
1.43692e-11
1.27178e-11
1.10221e-11
9.3403e-12
7.72072e-12
6.19911e-12
4.79637e-12
3.5176e-12
2.35248e-12
1.27688e-12
9.02197e-15
3.47361e-17
3.42668e-17
8.90212e-15
1.26057e-12
2.32327e-12
3.47549e-12
4.74166e-12
6.13264e-12
7.64401e-12
9.25564e-12
1.09325e-11
1.26267e-11
1.42807e-11
1.58309e-11
1.72125e-11
1.8364e-11
1.9232e-11
1.97746e-11
1.99655e-11
1.97951e-11
1.92717e-11
1.8421e-11
1.72837e-11
1.59128e-11
1.43692e-11
1.27178e-11
1.10221e-11
9.3403e-12
7.72072e-12
6.19911e-12
4.79637e-12
3.5176e-12
2.35248e-12
1.27688e-12
9.02197e-15
3.47361e-17
3.42668e-17
8.90212e-15
1.26057e-12
2.32327e-12
3.47549e-12
4.74166e-12
6.13264e-12
7.64401e-12
9.25564e-12
1.09325e-11
1.26267e-11
1.42807e-11
1.58309e-11
1.72125e-11
1.8364e-11
1.9232e-11
1.97746e-11
1.99655e-11
1.97951e-11
1.92717e-11
1.8421e-11
1.72837e-11
1.59128e-11
1.43692e-11
1.27178e-11
1.10221e-11
9.3403e-12
7.72072e-12
6.19911e-12
4.79637e-12
3.5176e-12
2.35248e-12
1.27688e-12
9.02197e-15
3.47361e-17
3.42668e-17
8.90212e-15
1.26057e-12
2.32327e-12
3.47549e-12
4.74166e-12
6.13264e-12
7.64401e-12
9.25564e-12
1.09325e-11
1.26267e-11
1.42807e-11
1.58309e-11
1.72125e-11
1.8364e-11
1.9232e-11
1.97746e-11
1.99655e-11
1.97951e-11
1.92717e-11
1.8421e-11
1.72837e-11
1.59128e-11
1.43692e-11
1.27178e-11
1.10221e-11
9.3403e-12
7.72072e-12
6.19911e-12
4.79637e-12
3.5176e-12
2.35248e-12
1.27688e-12
9.02197e-15
3.47361e-17
3.42668e-17
8.90212e-15
1.26057e-12
2.32327e-12
3.47549e-12
4.74166e-12
6.13264e-12
7.64401e-12
9.25564e-12
1.09325e-11
1.26267e-11
1.42807e-11
1.58309e-11
1.72125e-11
1.8364e-11
1.9232e-11
1.97746e-11
1.99655e-11
1.97951e-11
1.92717e-11
1.8421e-11
1.72837e-11
1.59128e-11
1.43692e-11
1.27178e-11
1.10221e-11
9.3403e-12
7.72072e-12
6.19911e-12
4.79637e-12
3.5176e-12
2.35248e-12
1.27688e-12
9.02197e-15
3.47361e-17
3.42668e-17
8.90212e-15
1.26057e-12
2.32327e-12
3.47549e-12
4.74166e-12
6.13264e-12
7.64401e-12
9.25564e-12
1.09325e-11
1.26267e-11
1.42807e-11
1.58309e-11
1.72125e-11
1.8364e-11
1.9232e-11
1.97746e-11
1.99655e-11
1.97951e-11
1.92717e-11
1.8421e-11
1.72837e-11
1.59128e-11
1.43692e-11
1.27178e-11
1.10221e-11
9.3403e-12
7.72072e-12
6.19911e-12
4.79637e-12
3.5176e-12
2.35248e-12
1.27688e-12
9.02197e-15
3.47361e-17
3.42668e-17
8.90212e-15
1.26057e-12
2.32327e-12
3.47549e-12
4.74166e-12
6.13264e-12
7.64401e-12
9.25564e-12
1.09325e-11
1.26267e-11
1.42807e-11
1.58309e-11
1.72125e-11
1.8364e-11
1.9232e-11
1.97746e-11
1.99655e-11
1.97951e-11
1.92717e-11
1.8421e-11
1.72837e-11
1.59128e-11
1.43692e-11
1.27178e-11
1.10221e-11
9.3403e-12
7.72072e-12
6.19911e-12
4.79637e-12
3.5176e-12
2.35248e-12
1.27688e-12
9.02197e-15
3.47361e-17
3.42668e-17
8.90212e-15
1.26057e-12
2.32327e-12
3.47549e-12
4.74166e-12
6.13264e-12
7.64401e-12
9.25564e-12
1.09325e-11
1.26267e-11
1.42807e-11
1.58309e-11
1.72125e-11
1.8364e-11
1.9232e-11
1.97746e-11
1.99655e-11
1.97951e-11
1.92717e-11
1.8421e-11
1.72837e-11
1.59128e-11
1.43692e-11
1.27178e-11
1.10221e-11
9.3403e-12
7.72072e-12
6.19911e-12
4.79637e-12
3.5176e-12
2.35248e-12
1.27688e-12
9.02197e-15
3.47361e-17
3.42668e-17
8.90212e-15
1.26057e-12
2.32327e-12
3.47549e-12
4.74166e-12
6.13264e-12
7.64401e-12
9.25564e-12
1.09325e-11
1.26267e-11
1.42807e-11
1.58309e-11
1.72125e-11
1.8364e-11
1.9232e-11
1.97746e-11
1.99655e-11
1.97951e-11
1.92717e-11
1.8421e-11
1.72837e-11
1.59128e-11
1.43692e-11
1.27178e-11
1.10221e-11
9.3403e-12
7.72072e-12
6.19911e-12
4.79637e-12
3.5176e-12
2.35248e-12
1.27688e-12
9.02197e-15
3.47361e-17
3.42668e-17
8.90212e-15
1.26057e-12
2.32327e-12
3.47549e-12
4.74166e-12
6.13264e-12
7.64401e-12
9.25564e-12
1.09325e-11
1.26267e-11
1.42807e-11
1.58309e-11
1.72125e-11
1.8364e-11
1.9232e-11
1.97746e-11
1.99655e-11
1.97951e-11
1.92717e-11
1.8421e-11
1.72837e-11
1.59128e-11
1.43692e-11
1.27178e-11
1.10221e-11
9.3403e-12
7.72072e-12
6.19911e-12
4.79637e-12
3.5176e-12
2.35248e-12
1.27688e-12
9.02197e-15
3.47361e-17
3.42668e-17
8.90212e-15
1.26057e-12
2.32327e-12
3.47549e-12
4.74166e-12
6.13264e-12
7.64401e-12
9.25564e-12
1.09325e-11
1.26267e-11
1.42807e-11
1.58309e-11
1.72125e-11
1.8364e-11
1.9232e-11
1.97746e-11
1.99655e-11
1.97951e-11
1.92717e-11
1.8421e-11
1.72837e-11
1.59128e-11
1.43692e-11
1.27178e-11
1.10221e-11
9.3403e-12
7.72072e-12
6.19911e-12
4.79637e-12
3.5176e-12
2.35248e-12
1.27688e-12
9.02197e-15
3.47361e-17
3.42668e-17
8.90212e-15
1.26057e-12
2.32327e-12
3.47549e-12
4.74166e-12
6.13264e-12
7.64401e-12
9.25564e-12
1.09325e-11
1.26267e-11
1.42807e-11
1.58309e-11
1.72125e-11
1.8364e-11
1.9232e-11
1.97746e-11
1.99655e-11
1.97951e-11
1.92717e-11
1.8421e-11
1.72837e-11
1.59128e-11
1.43692e-11
1.27178e-11
1.10221e-11
9.3403e-12
7.72072e-12
6.19911e-12
4.79637e-12
3.5176e-12
2.35248e-12
1.27688e-12
9.02197e-15
3.47361e-17
3.42668e-17
8.90212e-15
1.26057e-12
2.32327e-12
3.47549e-12
4.74166e-12
6.13264e-12
7.64401e-12
9.25564e-12
1.09325e-11
1.26267e-11
1.42807e-11
1.58309e-11
1.72125e-11
1.8364e-11
1.9232e-11
1.97746e-11
1.99655e-11
1.97951e-11
1.92717e-11
1.8421e-11
1.72837e-11
1.59128e-11
1.43692e-11
1.27178e-11
1.10221e-11
9.3403e-12
7.72072e-12
6.19911e-12
4.79637e-12
3.5176e-12
2.35248e-12
1.27688e-12
9.02197e-15
3.47361e-17
3.42668e-17
8.90212e-15
1.26057e-12
2.32327e-12
3.47549e-12
4.74166e-12
6.13264e-12
7.64401e-12
9.25564e-12
1.09325e-11
1.26267e-11
1.42807e-11
1.58309e-11
1.72125e-11
1.8364e-11
1.9232e-11
1.97746e-11
1.99655e-11
1.97951e-11
1.92717e-11
1.8421e-11
1.72837e-11
1.59128e-11
1.43692e-11
1.27178e-11
1.10221e-11
9.3403e-12
7.72072e-12
6.19911e-12
4.79637e-12
3.5176e-12
2.35248e-12
1.27688e-12
9.02197e-15
3.47361e-17
3.42668e-17
8.90212e-15
1.26057e-12
2.32327e-12
3.47549e-12
4.74166e-12
6.13264e-12
7.64401e-12
9.25564e-12
1.09325e-11
1.26267e-11
1.42807e-11
1.58309e-11
1.72125e-11
1.8364e-11
1.9232e-11
1.97746e-11
1.99655e-11
1.97951e-11
1.92717e-11
1.8421e-11
1.72837e-11
1.59128e-11
1.43692e-11
1.27178e-11
1.10221e-11
9.3403e-12
7.72072e-12
6.19911e-12
4.79637e-12
3.5176e-12
2.35248e-12
1.27688e-12
9.02197e-15
3.47361e-17
3.42668e-17
8.90212e-15
1.26057e-12
2.32327e-12
3.47549e-12
4.74166e-12
6.13264e-12
7.64401e-12
9.25564e-12
1.09325e-11
1.26267e-11
1.42807e-11
1.58309e-11
1.72125e-11
1.8364e-11
1.9232e-11
1.97746e-11
1.99655e-11
1.97951e-11
1.92717e-11
1.8421e-11
1.72837e-11
1.59128e-11
1.43692e-11
1.27178e-11
1.10221e-11
9.3403e-12
7.72072e-12
6.19911e-12
4.79637e-12
3.5176e-12
2.35248e-12
1.27688e-12
9.02197e-15
3.47361e-17
3.42668e-17
8.90212e-15
1.26057e-12
2.32327e-12
3.47549e-12
4.74166e-12
6.13264e-12
7.64401e-12
9.25564e-12
1.09325e-11
1.26267e-11
1.42807e-11
1.58309e-11
1.72125e-11
1.8364e-11
1.9232e-11
1.97746e-11
1.99655e-11
1.97951e-11
1.92717e-11
1.8421e-11
1.72837e-11
1.59128e-11
1.43692e-11
1.27178e-11
1.10221e-11
9.3403e-12
7.72072e-12
6.19911e-12
4.79637e-12
3.5176e-12
2.35248e-12
1.27688e-12
9.02197e-15
3.47361e-17
3.42668e-17
8.90212e-15
1.26057e-12
2.32327e-12
3.47549e-12
4.74166e-12
6.13264e-12
7.64401e-12
9.25564e-12
1.09325e-11
1.26267e-11
1.42807e-11
1.58309e-11
1.72125e-11
1.8364e-11
1.9232e-11
1.97746e-11
1.99655e-11
1.97951e-11
1.92717e-11
1.8421e-11
1.72837e-11
1.59128e-11
1.43692e-11
1.27178e-11
1.10221e-11
9.3403e-12
7.72072e-12
6.19911e-12
4.79637e-12
3.5176e-12
2.35248e-12
1.27688e-12
9.02197e-15
3.47361e-17
3.42668e-17
8.90212e-15
1.26057e-12
2.32327e-12
3.47549e-12
4.74166e-12
6.13264e-12
7.64401e-12
9.25564e-12
1.09325e-11
1.26267e-11
1.42807e-11
1.58309e-11
1.72125e-11
1.8364e-11
1.9232e-11
1.97746e-11
1.99655e-11
1.97951e-11
1.92717e-11
1.8421e-11
1.72837e-11
1.59128e-11
1.43692e-11
1.27178e-11
1.10221e-11
9.3403e-12
7.72072e-12
6.19911e-12
4.79637e-12
3.5176e-12
2.35248e-12
1.27688e-12
9.02197e-15
3.47361e-17
3.42668e-17
8.90212e-15
1.26057e-12
2.32327e-12
3.47549e-12
4.74166e-12
6.13264e-12
7.64401e-12
9.25564e-12
1.09325e-11
1.26267e-11
1.42807e-11
1.58309e-11
1.72125e-11
1.8364e-11
1.9232e-11
1.97746e-11
1.99655e-11
1.97951e-11
1.92717e-11
1.8421e-11
1.72837e-11
1.59128e-11
1.43692e-11
1.27178e-11
1.10221e-11
9.3403e-12
7.72072e-12
6.19911e-12
4.79637e-12
3.5176e-12
2.35248e-12
1.27688e-12
9.02197e-15
3.47361e-17
3.42668e-17
8.90212e-15
1.26057e-12
2.32327e-12
3.47549e-12
4.74166e-12
6.13264e-12
7.64401e-12
9.25564e-12
1.09325e-11
1.26267e-11
1.42807e-11
1.58309e-11
1.72125e-11
1.8364e-11
1.9232e-11
1.97746e-11
1.99655e-11
1.97951e-11
1.92717e-11
1.8421e-11
1.72837e-11
1.59128e-11
1.43692e-11
1.27178e-11
1.10221e-11
9.3403e-12
7.72072e-12
6.19911e-12
4.79637e-12
3.5176e-12
2.35248e-12
1.27688e-12
9.02197e-15
3.47361e-17
3.42668e-17
8.90212e-15
1.26057e-12
2.32327e-12
3.47549e-12
4.74166e-12
6.13264e-12
7.64401e-12
9.25564e-12
1.09325e-11
1.26267e-11
1.42807e-11
1.58309e-11
1.72125e-11
1.8364e-11
1.9232e-11
1.97746e-11
1.99655e-11
1.97951e-11
1.92717e-11
1.8421e-11
1.72837e-11
1.59128e-11
1.43692e-11
1.27178e-11
1.10221e-11
9.3403e-12
7.72072e-12
6.19911e-12
4.79637e-12
3.5176e-12
2.35248e-12
1.27688e-12
9.02197e-15
3.47361e-17
3.42668e-17
8.90212e-15
1.26057e-12
2.32327e-12
3.47549e-12
4.74166e-12
6.13264e-12
7.64401e-12
9.25564e-12
1.09325e-11
1.26267e-11
1.42807e-11
1.58309e-11
1.72125e-11
1.8364e-11
1.9232e-11
1.97746e-11
1.99655e-11
1.97951e-11
1.92717e-11
1.8421e-11
1.72837e-11
1.59128e-11
1.43692e-11
1.27178e-11
1.10221e-11
9.3403e-12
7.72072e-12
6.19911e-12
4.79637e-12
3.5176e-12
2.35248e-12
1.27688e-12
9.02197e-15
3.47361e-17
3.42668e-17
8.90212e-15
1.26057e-12
2.32327e-12
3.47549e-12
4.74166e-12
6.13264e-12
7.64401e-12
9.25564e-12
1.09325e-11
1.26267e-11
1.42807e-11
1.58309e-11
1.72125e-11
1.8364e-11
1.9232e-11
1.97746e-11
1.99655e-11
1.97951e-11
1.92717e-11
1.8421e-11
1.72837e-11
1.59128e-11
1.43692e-11
1.27178e-11
1.10221e-11
9.3403e-12
7.72072e-12
6.19911e-12
4.79637e-12
3.5176e-12
2.35248e-12
1.27688e-12
9.02197e-15
3.47361e-17
3.42668e-17
8.90212e-15
1.26057e-12
2.32327e-12
3.47549e-12
4.74166e-12
6.13264e-12
7.64401e-12
9.25564e-12
1.09325e-11
1.26267e-11
1.42807e-11
1.58309e-11
1.72125e-11
1.8364e-11
1.9232e-11
1.97746e-11
1.99655e-11
1.97951e-11
1.92717e-11
1.8421e-11
1.72837e-11