/*--------------------------------*- C++ -*----------------------------------*\
  =========                 |
  \\      /  F ield         | OpenFOAM: The Open Source CFD Toolbox
   \\    /   O peration     | Website:  https://openfoam.org
    \\  /    A nd           | Version:  13
     \\/     M anipulation  |
\*---------------------------------------------------------------------------*/
FoamFile
{
    format      ascii;
    class       volScalarField;
    location    "165";
    object      nut;
}
// * * * * * * * * * * * * * * * * * * * * * * * * * * * * * * * * * * * * * //

dimensions      [0 2 -1 0 0 0 0];

internalField   nonuniform List<scalar> 
315000
(
4.58597e-16
1.20136e-13
2.74231e-12
4.92472e-12
7.14645e-12
9.41366e-12
1.17336e-11
1.41127e-11
1.65557e-11
1.90651e-11
2.1641e-11
2.4281e-11
2.69802e-11
2.97314e-11
3.25248e-11
3.53487e-11
3.81895e-11
4.10319e-11
4.38592e-11
4.66535e-11
4.93962e-11
5.20682e-11
5.46502e-11
5.71229e-11
5.94672e-11
6.16649e-11
6.36984e-11
6.55513e-11
6.72085e-11
6.86563e-11
6.98826e-11
7.08772e-11
7.16316e-11
7.21396e-11
7.23968e-11
7.24011e-11
7.21523e-11
7.16527e-11
7.09064e-11
6.99197e-11
6.8701e-11
6.72604e-11
6.56099e-11
6.37631e-11
6.17352e-11
5.95426e-11
5.72026e-11
5.47336e-11
5.21546e-11
4.94848e-11
4.67436e-11
4.395e-11
4.11228e-11
3.82797e-11
3.54376e-11
3.26116e-11
2.98156e-11
2.70612e-11
2.43582e-11
2.17139e-11
1.91333e-11
1.66187e-11
1.41701e-11
1.17849e-11
9.45834e-12
7.18376e-12
4.95359e-12
2.76093e-12
1.21108e-13
4.62656e-16
1.1485e-14
3.05938e-12
6.97097e-10
1.26179e-09
1.8344e-09
2.41789e-09
3.01477e-09
3.62703e-09
4.25605e-09
4.90257e-09
5.56667e-09
6.24775e-09
6.94457e-09
7.65522e-09
8.3772e-09
9.10745e-09
9.8424e-09
1.05781e-08
1.13101e-08
1.20338e-08
1.27443e-08
1.34367e-08
1.41059e-08
1.47469e-08
1.53546e-08
1.59244e-08
1.64517e-08
1.69322e-08
1.73619e-08
1.77374e-08
1.80553e-08
1.83132e-08
1.85088e-08
1.86404e-08
1.8707e-08
1.87079e-08
1.86432e-08
1.85134e-08
1.83196e-08
1.80635e-08
1.77472e-08
1.73733e-08
1.6945e-08
1.64659e-08
1.59399e-08
1.53711e-08
1.47643e-08
1.41241e-08
1.34556e-08
1.27637e-08
1.20534e-08
1.13298e-08
1.05978e-08
9.86193e-09
9.12663e-09
8.39588e-09
7.67326e-09
6.96184e-09
6.26412e-09
5.58201e-09
4.91678e-09
4.26903e-09
3.63867e-09
3.02497e-09
2.42652e-09
1.84133e-09
1.26684e-09
7.00077e-10
3.07334e-12
1.15388e-14
4.6348e-14
1.23643e-11
7.18305e-09
1.30161e-08
1.89402e-08
2.49918e-08
3.12024e-08
3.75978e-08
4.41964e-08
5.10094e-08
5.804e-08
6.52832e-08
7.27261e-08
8.03477e-08
8.812e-08
9.60079e-08
1.03971e-07
1.11962e-07
1.19932e-07
1.27827e-07
1.35592e-07
1.43168e-07
1.505e-07
1.57529e-07
1.64199e-07
1.70457e-07
1.7625e-07
1.81532e-07
1.86258e-07
1.90387e-07
1.93884e-07
1.96721e-07
1.98872e-07
2.00319e-07
2.0105e-07
2.01058e-07
2.00344e-07
1.98913e-07
1.96777e-07
1.93956e-07
1.90473e-07
1.86357e-07
1.81645e-07
1.76375e-07
1.70592e-07
1.64343e-07
1.57681e-07
1.50659e-07
1.43332e-07
1.3576e-07
1.27997e-07
1.20103e-07
1.12132e-07
1.04138e-07
9.6172e-08
8.82791e-08
8.05006e-08
7.28715e-08
6.54201e-08
5.81674e-08
5.11264e-08
4.43021e-08
3.76916e-08
3.12835e-08
2.50594e-08
1.89935e-08
1.30543e-08
7.20508e-09
1.24039e-11
4.64993e-14
8.82585e-14
2.35466e-11
1.36806e-08
2.48049e-08
3.61335e-08
4.77512e-08
5.97321e-08
7.21377e-08
8.50149e-08
9.8394e-08
1.12288e-07
1.26691e-07
1.4158e-07
1.56914e-07
1.72633e-07
1.88663e-07
2.04915e-07
2.21289e-07
2.37675e-07
2.53954e-07
2.70006e-07
2.85704e-07
3.00923e-07
3.15538e-07
3.29428e-07
3.42474e-07
3.54565e-07
3.65597e-07
3.75473e-07
3.84108e-07
3.91425e-07
3.9736e-07
4.01861e-07
4.04889e-07
4.06416e-07
4.0643e-07
4.04929e-07
4.01929e-07
3.97453e-07
3.91543e-07
3.8425e-07
3.75639e-07
3.65784e-07
3.54771e-07
3.42697e-07
3.29666e-07
3.15789e-07
3.01185e-07
2.85974e-07
2.70281e-07
2.54233e-07
2.37954e-07
2.21567e-07
2.05189e-07
1.8893e-07
1.72891e-07
1.57161e-07
1.41814e-07
1.2691e-07
1.12491e-07
9.85794e-08
8.51816e-08
7.22847e-08
5.98582e-08
4.78557e-08
3.62154e-08
2.48631e-08
1.3714e-08
2.36064e-11
8.84868e-14
1.37607e-13
3.67148e-11
2.13309e-08
3.86892e-08
5.63992e-08
7.46096e-08
9.34521e-08
1.13036e-07
1.33448e-07
1.54743e-07
1.76949e-07
2.00063e-07
2.24049e-07
2.4884e-07
2.74339e-07
3.00422e-07
3.26939e-07
3.53722e-07
3.80586e-07
4.07334e-07
4.33764e-07
4.59668e-07
4.84834e-07
5.0905e-07
5.32107e-07
5.53799e-07
5.73932e-07
5.92323e-07
6.08805e-07
6.23225e-07
6.35453e-07
6.45375e-07
6.52902e-07
6.57965e-07
6.60517e-07
6.60535e-07
6.5802e-07
6.52993e-07
6.45501e-07
6.35612e-07
6.23417e-07
6.09027e-07
5.92574e-07
5.74208e-07
5.54098e-07
5.32426e-07
5.09387e-07
4.85185e-07
4.60029e-07
4.34133e-07
4.07706e-07
3.80958e-07
3.54092e-07
3.27303e-07
3.00776e-07
2.74681e-07
2.49167e-07
2.24359e-07
2.00353e-07
1.77218e-07
1.54987e-07
1.33667e-07
1.13229e-07
9.36168e-08
7.47456e-08
5.65053e-08
3.87645e-08
2.13739e-08
3.6792e-11
1.37902e-13
1.92104e-13
5.12578e-11
2.97763e-08
5.40117e-08
7.87605e-08
1.04245e-07
1.30661e-07
1.58172e-07
1.86906e-07
2.16949e-07
2.48341e-07
2.81078e-07
3.1511e-07
3.50338e-07
3.86622e-07
4.23777e-07
4.61586e-07
4.99805e-07
5.38168e-07
5.76398e-07
6.14207e-07
6.51297e-07
6.87363e-07
7.22097e-07
7.55192e-07
7.86346e-07
8.15275e-07
8.41709e-07
8.65404e-07
8.86139e-07
9.03723e-07
9.17992e-07
9.28816e-07
9.36095e-07
9.39762e-07
9.39784e-07
9.3616e-07
9.28924e-07
9.18142e-07
9.03913e-07
8.86368e-07
8.65669e-07
8.42008e-07
8.15604e-07
7.86703e-07
7.55573e-07
7.22499e-07
6.87781e-07
6.51727e-07
6.14646e-07
5.76842e-07
5.38612e-07
5.00246e-07
4.6202e-07
4.242e-07
3.8703e-07
3.50729e-07
3.1548e-07
2.81424e-07
2.4866e-07
2.1724e-07
1.87167e-07
1.58401e-07
1.30856e-07
1.04406e-07
7.8886e-08
5.41005e-08
2.9827e-08
5.1349e-11
1.92453e-13
2.48388e-13
6.62785e-11
3.84944e-08
6.98195e-08
1.01818e-07
1.34786e-07
1.68987e-07
2.04637e-07
2.41904e-07
2.80901e-07
3.21679e-07
3.6423e-07
4.08481e-07
4.54297e-07
5.01486e-07
5.49801e-07
5.9895e-07
6.48611e-07
6.98438e-07
7.48071e-07
7.97139e-07
8.45257e-07
8.92033e-07
9.37067e-07
9.79962e-07
1.02033e-06
1.0578e-06
1.09203e-06
1.1227e-06
1.14953e-06
1.17228e-06
1.19074e-06
1.20473e-06
1.21415e-06
1.21888e-06
1.21891e-06
1.21422e-06
1.20485e-06
1.1909e-06
1.17249e-06
1.14979e-06
1.12299e-06
1.09236e-06
1.05816e-06
1.02072e-06
9.80383e-07
9.37512e-07
8.92496e-07
8.45734e-07
7.97625e-07
7.48563e-07
6.98931e-07
6.491e-07
5.99432e-07
5.50271e-07
5.01941e-07
4.54733e-07
4.08893e-07
3.64615e-07
3.22035e-07
2.81225e-07
2.42194e-07
2.04891e-07
1.69204e-07
1.34965e-07
1.01957e-07
6.99179e-08
3.85504e-08
6.63797e-11
2.48775e-13
3.03116e-13
8.0885e-11
4.69674e-08
8.51731e-08
1.24199e-07
1.64413e-07
2.0614e-07
2.49646e-07
2.95137e-07
3.42746e-07
3.92532e-07
4.44478e-07
4.98485e-07
5.54379e-07
6.11912e-07
6.70771e-07
7.30594e-07
7.90981e-07
8.51511e-07
9.11746e-07
9.71239e-07
1.02953e-06
1.08614e-06
1.1406e-06
1.19244e-06
1.24119e-06
1.28641e-06
1.32769e-06
1.36467e-06
1.397e-06
1.42441e-06
1.44663e-06
1.46348e-06
1.4748e-06
1.4805e-06
1.48053e-06
1.47488e-06
1.4636e-06
1.4468e-06
1.42463e-06
1.39727e-06
1.36498e-06
1.32804e-06
1.28679e-06
1.2416e-06
1.19288e-06
1.14107e-06
1.08663e-06
1.03003e-06
9.71752e-07
9.12265e-07
8.52031e-07
7.91499e-07
7.31104e-07
6.7127e-07
6.12394e-07
5.54841e-07
4.98923e-07
4.44888e-07
3.92911e-07
3.43091e-07
2.95445e-07
2.49916e-07
2.0637e-07
1.64603e-07
1.24346e-07
8.52771e-08
4.70266e-08
8.09922e-11
3.03528e-13
3.53524e-13
9.43394e-11
5.47682e-08
9.93e-08
1.4478e-07
1.91641e-07
2.40264e-07
2.90959e-07
3.43963e-07
3.99428e-07
4.57415e-07
5.17894e-07
5.80742e-07
6.45742e-07
7.12594e-07
7.80923e-07
8.50298e-07
9.20253e-07
9.90295e-07
1.05992e-06
1.12861e-06
1.19585e-06
1.26109e-06
1.32379e-06
1.38342e-06
1.43946e-06
1.4914e-06
1.5388e-06
1.58123e-06
1.61831e-06
1.64973e-06
1.6752e-06
1.6945e-06
1.70747e-06
1.714e-06
1.71402e-06
1.70755e-06
1.69463e-06
1.67537e-06
1.64995e-06
1.61858e-06
1.58154e-06
1.53915e-06
1.49179e-06
1.43988e-06
1.38387e-06
1.32427e-06
1.26159e-06
1.19636e-06
1.12914e-06
1.06045e-06
9.90827e-07
9.20782e-07
8.50821e-07
7.81433e-07
7.13088e-07
6.46216e-07
5.81191e-07
5.18315e-07
4.57804e-07
3.99782e-07
3.4428e-07
2.91236e-07
2.405e-07
1.91835e-07
1.4493e-07
9.94062e-08
5.48286e-08
9.44491e-11
3.53946e-13
3.97681e-13
1.06127e-10
6.15995e-08
1.11665e-07
1.62785e-07
2.15451e-07
2.7009e-07
3.27051e-07
3.86595e-07
4.48889e-07
5.13996e-07
5.81871e-07
6.52366e-07
7.25227e-07
8.00103e-07
8.76566e-07
9.54127e-07
1.03226e-06
1.1104e-06
1.18801e-06
1.2645e-06
1.3393e-06
1.41182e-06
1.48145e-06
1.54763e-06
1.60977e-06
1.66734e-06
1.71985e-06
1.76682e-06
1.80787e-06
1.84262e-06
1.8708e-06
1.89214e-06
1.90648e-06
1.9137e-06
1.91372e-06
1.90656e-06
1.89227e-06
1.87097e-06
1.84285e-06
1.80814e-06
1.76714e-06
1.7202e-06
1.66773e-06
1.61019e-06
1.54808e-06
1.48193e-06
1.41231e-06
1.33981e-06
1.26503e-06
1.18854e-06
1.11094e-06
1.03279e-06
9.54649e-07
8.77078e-07
8.00598e-07
7.25701e-07
6.52816e-07
5.82293e-07
5.14386e-07
4.49244e-07
3.86913e-07
3.27328e-07
2.70326e-07
2.15645e-07
1.62935e-07
1.11771e-07
6.16597e-08
1.06236e-10
3.98103e-13
4.34571e-13
1.15975e-10
6.73057e-08
1.21989e-07
1.77814e-07
2.35318e-07
2.94969e-07
3.57146e-07
4.22132e-07
4.90103e-07
5.61122e-07
6.35132e-07
7.11962e-07
7.91323e-07
8.72826e-07
9.55993e-07
1.04029e-06
1.12513e-06
1.20992e-06
1.29405e-06
1.37691e-06
1.45788e-06
1.53631e-06
1.61157e-06
1.68306e-06
1.75015e-06
1.81227e-06
1.8689e-06
1.91955e-06
1.96379e-06
2.00124e-06
2.03159e-06
2.05458e-06
2.07002e-06
2.07779e-06
2.07781e-06
2.0701e-06
2.0547e-06
2.03176e-06
2.00146e-06
1.96405e-06
1.91985e-06
1.86924e-06
1.81265e-06
1.75056e-06
1.6835e-06
1.61204e-06
1.53679e-06
1.45838e-06
1.37743e-06
1.29458e-06
1.21044e-06
1.12565e-06
1.0408e-06
9.56497e-07
8.73315e-07
7.91792e-07
7.12406e-07
6.35549e-07
5.61507e-07
4.90454e-07
4.22445e-07
3.57419e-07
2.95201e-07
2.35509e-07
1.77962e-07
1.22093e-07
6.73647e-08
1.16083e-10
4.34986e-13
4.64026e-13
1.23841e-10
7.18617e-08
1.3023e-07
1.89807e-07
2.5117e-07
3.14816e-07
3.8115e-07
4.50472e-07
5.22964e-07
5.98688e-07
6.77578e-07
7.59442e-07
8.43966e-07
9.30723e-07
1.0192e-06
1.10882e-06
1.19897e-06
1.289e-06
1.37828e-06
1.46615e-06
1.55196e-06
1.63503e-06
1.71472e-06
1.79036e-06
1.86132e-06
1.92701e-06
1.98686e-06
2.04038e-06
2.08711e-06
2.12667e-06
2.15871e-06
2.18299e-06
2.19929e-06
2.20749e-06
2.20751e-06
2.19937e-06
2.18311e-06
2.15888e-06
2.12688e-06
2.08737e-06
2.04068e-06
1.9872e-06
1.92738e-06
1.86172e-06
1.79079e-06
1.71517e-06
1.63551e-06
1.55245e-06
1.46665e-06
1.37879e-06
1.28951e-06
1.19948e-06
1.10933e-06
1.0197e-06
9.31202e-07
8.44425e-07
7.59878e-07
6.77986e-07
5.99065e-07
5.23307e-07
4.50778e-07
3.81418e-07
3.15043e-07
2.51356e-07
1.89951e-07
1.30331e-07
7.1919e-08
1.23946e-10
4.64432e-13
4.86545e-13
1.29855e-10
7.53452e-08
1.3653e-07
1.98975e-07
2.63285e-07
3.29984e-07
3.99496e-07
4.72131e-07
5.48078e-07
6.27398e-07
7.10016e-07
7.95724e-07
8.84187e-07
9.74953e-07
1.06748e-06
1.16116e-06
1.25534e-06
1.34936e-06
1.44255e-06
1.53423e-06
1.62371e-06
1.71031e-06
1.79334e-06
1.87213e-06
1.94602e-06
2.0144e-06
2.07669e-06
2.13238e-06
2.181e-06
2.22214e-06
2.25547e-06
2.28072e-06
2.29767e-06
2.30619e-06
2.30621e-06
2.29774e-06
2.28083e-06
2.25564e-06
2.22235e-06
2.18125e-06
2.13267e-06
2.07702e-06
2.01476e-06
1.94641e-06
1.87255e-06
1.79378e-06
1.71077e-06
1.62419e-06
1.53472e-06
1.44305e-06
1.34986e-06
1.25584e-06
1.16165e-06
1.06796e-06
9.75422e-07
8.84637e-07
7.96151e-07
7.10415e-07
6.27767e-07
5.48414e-07
4.7243e-07
3.99757e-07
3.30206e-07
2.63466e-07
1.99115e-07
1.36628e-07
7.54009e-08
1.29957e-10
4.86941e-13
5.03058e-13
1.34266e-10
7.79001e-08
1.4115e-07
2.05698e-07
2.72171e-07
3.4111e-07
4.12954e-07
4.88021e-07
5.66506e-07
6.48467e-07
7.33823e-07
8.22356e-07
9.13713e-07
1.00742e-06
1.10292e-06
1.19958e-06
1.29672e-06
1.39367e-06
1.48972e-06
1.58419e-06
1.67636e-06
1.76554e-06
1.85102e-06
1.93211e-06
2.00815e-06
2.0785e-06
2.14258e-06
2.19985e-06
2.24985e-06
2.29215e-06
2.32642e-06
2.35237e-06
2.3698e-06
2.37856e-06
2.37858e-06
2.36987e-06
2.35249e-06
2.32658e-06
2.29235e-06
2.25009e-06
2.20014e-06
2.1429e-06
2.07885e-06
2.00853e-06
1.93252e-06
1.85146e-06
1.76599e-06
1.67683e-06
1.58467e-06
1.49021e-06
1.39416e-06
1.29721e-06
1.20006e-06
1.10339e-06
1.00788e-06
9.14153e-07
8.22774e-07
7.34215e-07
6.48829e-07
5.66835e-07
4.88315e-07
4.13209e-07
3.41327e-07
2.72348e-07
2.05834e-07
1.41246e-07
7.79543e-08
1.34366e-10
5.03445e-13
5.14691e-13
1.37375e-10
7.97006e-08
1.44406e-07
2.10436e-07
2.78434e-07
3.48954e-07
4.22444e-07
4.99229e-07
5.79508e-07
6.63336e-07
7.50629e-07
8.4116e-07
9.34565e-07
1.03036e-06
1.12796e-06
1.22672e-06
1.32596e-06
1.42498e-06
1.52306e-06
1.6195e-06
1.71358e-06
1.80459e-06
1.8918e-06
1.97452e-06
2.05207e-06
2.12382e-06
2.18916e-06
2.24755e-06
2.29852e-06
2.34165e-06
2.37658e-06
2.40303e-06
2.4208e-06
2.42972e-06
2.42975e-06
2.42086e-06
2.40315e-06
2.37674e-06
2.34185e-06
2.29876e-06
2.24783e-06
2.18947e-06
2.12417e-06
2.05245e-06
1.97493e-06
1.89223e-06
1.80503e-06
1.71404e-06
1.61997e-06
1.52354e-06
1.42546e-06
1.32644e-06
1.2272e-06
1.12843e-06
1.03081e-06
9.34998e-07
8.41572e-07
7.51015e-07
6.63692e-07
5.79831e-07
4.99518e-07
4.22695e-07
3.49167e-07
2.78608e-07
2.1057e-07
1.445e-07
7.97537e-08
1.37473e-10
5.15071e-13
5.22578e-13
1.39483e-10
8.09216e-08
1.46614e-07
2.1365e-07
2.82684e-07
3.54277e-07
4.28886e-07
5.06841e-07
5.8834e-07
6.73441e-07
7.62055e-07
8.5395e-07
9.48752e-07
1.04597e-06
1.14501e-06
1.24521e-06
1.34588e-06
1.44631e-06
1.54578e-06
1.64357e-06
1.73895e-06
1.8312e-06
1.9196e-06
2.00344e-06
2.08203e-06
2.15473e-06
2.22093e-06
2.28009e-06
2.33173e-06
2.37542e-06
2.4108e-06
2.4376e-06
2.45559e-06
2.46463e-06
2.46466e-06
2.45566e-06
2.43771e-06
2.41096e-06
2.37561e-06
2.33197e-06
2.28037e-06
2.22124e-06
2.15507e-06
2.0824e-06
2.00384e-06
1.92003e-06
1.83165e-06
1.73941e-06
1.64404e-06
1.54625e-06
1.44679e-06
1.34636e-06
1.24568e-06
1.14547e-06
1.04641e-06
9.4918e-07
8.54356e-07
7.62436e-07
6.73793e-07
5.8866e-07
5.07126e-07
4.29134e-07
3.54487e-07
2.82855e-07
2.13782e-07
1.46707e-07
8.09739e-08
1.39579e-10
5.22952e-13
5.2773e-13
1.4086e-10
8.17196e-08
1.48058e-07
2.15751e-07
2.85462e-07
3.5776e-07
4.33102e-07
5.11824e-07
5.94126e-07
6.80064e-07
7.69547e-07
8.62339e-07
9.58063e-07
1.05622e-06
1.1562e-06
1.25736e-06
1.35897e-06
1.46034e-06
1.56072e-06
1.6594e-06
1.75565e-06
1.84873e-06
1.93791e-06
2.02248e-06
2.10176e-06
2.17509e-06
2.24186e-06
2.30153e-06
2.35361e-06
2.39767e-06
2.43335e-06
2.46038e-06
2.47852e-06
2.48764e-06
2.48766e-06
2.47859e-06
2.46049e-06
2.43351e-06
2.39786e-06
2.35384e-06
2.3018e-06
2.24217e-06
2.17543e-06
2.10213e-06
2.02288e-06
1.93833e-06
1.84916e-06
1.7561e-06
1.65987e-06
1.56119e-06
1.46081e-06
1.35945e-06
1.25782e-06
1.15666e-06
1.05666e-06
9.58488e-07
8.62742e-07
7.69925e-07
6.80412e-07
5.94443e-07
5.12107e-07
4.33348e-07
3.57968e-07
2.85632e-07
2.15882e-07
1.48149e-07
8.17714e-08
1.40956e-10
5.28101e-13
5.30978e-13
1.41729e-10
8.2223e-08
1.48968e-07
2.17077e-07
2.87216e-07
3.59959e-07
4.35766e-07
5.14975e-07
5.97785e-07
6.84254e-07
7.7429e-07
8.67654e-07
9.63964e-07
1.06272e-06
1.16331e-06
1.26507e-06
1.36729e-06
1.46925e-06
1.57022e-06
1.66947e-06
1.76626e-06
1.85987e-06
1.94955e-06
2.0346e-06
2.11432e-06
2.18805e-06
2.25519e-06
2.31518e-06
2.36754e-06
2.41184e-06
2.44772e-06
2.47489e-06
2.49313e-06
2.5023e-06
2.50232e-06
2.4932e-06
2.475e-06
2.44787e-06
2.41204e-06
2.36778e-06
2.31545e-06
2.25549e-06
2.18839e-06
2.11468e-06
2.03499e-06
1.94997e-06
1.8603e-06
1.76671e-06
1.66993e-06
1.57069e-06
1.46972e-06
1.36776e-06
1.26553e-06
1.16376e-06
1.06316e-06
9.64387e-07
8.68055e-07
7.74666e-07
6.84601e-07
5.981e-07
5.15255e-07
4.3601e-07
3.60166e-07
2.87385e-07
2.17207e-07
1.49059e-07
8.22744e-08
1.41823e-10
5.31346e-13
5.32956e-13
1.42258e-10
8.25298e-08
1.49523e-07
2.17886e-07
2.88287e-07
3.61301e-07
4.37392e-07
5.16899e-07
6.00022e-07
6.86818e-07
7.77194e-07
8.70909e-07
9.6758e-07
1.0667e-06
1.16766e-06
1.2698e-06
1.37239e-06
1.47472e-06
1.57606e-06
1.67566e-06
1.7728e-06
1.86673e-06
1.95672e-06
2.04206e-06
2.12205e-06
2.19603e-06
2.2634e-06
2.3236e-06
2.37613e-06
2.42058e-06
2.45658e-06
2.48384e-06
2.50214e-06
2.51134e-06
2.51136e-06
2.5022e-06
2.48395e-06
2.45673e-06
2.42077e-06
2.37637e-06
2.32387e-06
2.2637e-06
2.19637e-06
2.12242e-06
2.04245e-06
1.95714e-06
1.86716e-06
1.77324e-06
1.67612e-06
1.57652e-06
1.47519e-06
1.37286e-06
1.27026e-06
1.16812e-06
1.06714e-06
9.68002e-07
8.71309e-07
7.77568e-07
6.87164e-07
6.00336e-07
5.17179e-07
4.37636e-07
3.61507e-07
2.88454e-07
2.18015e-07
1.49614e-07
8.2581e-08
1.42352e-10
5.33324e-13
5.34122e-13
1.4257e-10
8.27107e-08
1.49851e-07
2.18363e-07
2.88918e-07
3.62093e-07
4.38353e-07
5.18037e-07
6.01345e-07
6.88335e-07
7.78913e-07
8.72838e-07
9.69725e-07
1.06907e-06
1.17025e-06
1.27261e-06
1.37543e-06
1.47798e-06
1.57953e-06
1.67934e-06
1.77668e-06
1.87081e-06
1.961e-06
2.04651e-06
2.12666e-06
2.2008e-06
2.2683e-06
2.32862e-06
2.38126e-06
2.4258e-06
2.46187e-06
2.48918e-06
2.50752e-06
2.51673e-06
2.51676e-06
2.50758e-06
2.48929e-06
2.46202e-06
2.42599e-06
2.38149e-06
2.32889e-06
2.2686e-06
2.20113e-06
2.12703e-06
2.0469e-06
1.96141e-06
1.87125e-06
1.77713e-06
1.6798e-06
1.57999e-06
1.47845e-06
1.3759e-06
1.27307e-06
1.1707e-06
1.0695e-06
9.70146e-07
8.73238e-07
7.79288e-07
6.88681e-07
6.01659e-07
5.18317e-07
4.38597e-07
3.62299e-07
2.89086e-07
2.18492e-07
1.49941e-07
8.27618e-08
1.42664e-10
5.34489e-13
5.34788e-13
1.42748e-10
8.2814e-08
1.50038e-07
2.18636e-07
2.89279e-07
3.62547e-07
4.38903e-07
5.18689e-07
6.02104e-07
6.89206e-07
7.79901e-07
8.73946e-07
9.70958e-07
1.07043e-06
1.17174e-06
1.27423e-06
1.37718e-06
1.47986e-06
1.58153e-06
1.68147e-06
1.77893e-06
1.87317e-06
1.96346e-06
2.04908e-06
2.12933e-06
2.20355e-06
2.27113e-06
2.33152e-06
2.38423e-06
2.42881e-06
2.46493e-06
2.49227e-06
2.51063e-06
2.51986e-06
2.51988e-06
2.5107e-06
2.49238e-06
2.46508e-06
2.42901e-06
2.38446e-06
2.33179e-06
2.27144e-06
2.20389e-06
2.12969e-06
2.04947e-06
1.96388e-06
1.87361e-06
1.77938e-06
1.68193e-06
1.582e-06
1.48032e-06
1.37764e-06
1.27469e-06
1.17219e-06
1.07086e-06
9.71379e-07
8.74346e-07
7.80274e-07
6.89551e-07
6.02418e-07
5.18968e-07
4.39147e-07
3.62752e-07
2.89447e-07
2.18764e-07
1.50128e-07
8.28651e-08
1.42842e-10
5.35154e-13
5.35156e-13
1.42847e-10
8.28712e-08
1.50141e-07
2.18787e-07
2.89479e-07
3.62798e-07
4.39209e-07
5.19051e-07
6.02525e-07
6.8969e-07
7.8045e-07
8.74564e-07
9.71645e-07
1.07118e-06
1.17257e-06
1.27513e-06
1.37816e-06
1.48091e-06
1.58265e-06
1.68266e-06
1.78019e-06
1.87449e-06
1.96485e-06
2.05052e-06
2.13082e-06
2.20509e-06
2.27272e-06
2.33315e-06
2.38589e-06
2.43051e-06
2.46664e-06
2.49401e-06
2.51238e-06
2.52161e-06
2.52163e-06
2.51244e-06
2.49412e-06
2.46679e-06
2.4307e-06
2.38612e-06
2.33342e-06
2.27303e-06
2.20543e-06
2.13119e-06
2.05091e-06
1.96526e-06
1.87493e-06
1.78063e-06
1.68312e-06
1.58312e-06
1.48137e-06
1.37862e-06
1.2756e-06
1.17302e-06
1.07162e-06
9.72066e-07
8.74963e-07
7.80824e-07
6.90035e-07
6.02839e-07
5.1933e-07
4.39452e-07
3.63004e-07
2.89647e-07
2.18915e-07
1.50231e-07
8.29223e-08
1.42941e-10
5.35522e-13
5.35354e-13
1.429e-10
8.2902e-08
1.50197e-07
2.18868e-07
2.89587e-07
3.62933e-07
4.39373e-07
5.19246e-07
6.02753e-07
6.89951e-07
7.80747e-07
8.74897e-07
9.72017e-07
1.0716e-06
1.17302e-06
1.27562e-06
1.37869e-06
1.48148e-06
1.58326e-06
1.68331e-06
1.78087e-06
1.87521e-06
1.9656e-06
2.05131e-06
2.13164e-06
2.20593e-06
2.27359e-06
2.33404e-06
2.3868e-06
2.43143e-06
2.46758e-06
2.49495e-06
2.51333e-06
2.52257e-06
2.52259e-06
2.5134e-06
2.49506e-06
2.46773e-06
2.43162e-06
2.38703e-06
2.33431e-06
2.27389e-06
2.20627e-06
2.132e-06
2.0517e-06
1.96601e-06
1.87565e-06
1.78132e-06
1.68376e-06
1.58373e-06
1.48194e-06
1.37915e-06
1.27609e-06
1.17348e-06
1.07203e-06
9.72438e-07
8.75296e-07
7.8112e-07
6.90296e-07
6.03066e-07
5.19525e-07
4.39616e-07
3.63139e-07
2.89754e-07
2.18997e-07
1.50287e-07
8.2953e-08
1.42994e-10
5.3572e-13
5.35457e-13
1.42927e-10
8.2918e-08
1.50226e-07
2.1891e-07
2.89643e-07
3.63004e-07
4.39459e-07
5.19348e-07
6.02872e-07
6.90088e-07
7.80902e-07
8.75073e-07
9.72213e-07
1.07181e-06
1.17326e-06
1.27588e-06
1.37897e-06
1.48178e-06
1.58358e-06
1.68365e-06
1.78123e-06
1.87559e-06
1.966e-06
2.05172e-06
2.13207e-06
2.20638e-06
2.27405e-06
2.33451e-06
2.38728e-06
2.43192e-06
2.46808e-06
2.49545e-06
2.51384e-06
2.52307e-06
2.5231e-06
2.5139e-06
2.49556e-06
2.46823e-06
2.43211e-06
2.38751e-06
2.33478e-06
2.27435e-06
2.20672e-06
2.13243e-06
2.05211e-06
1.96641e-06
1.87603e-06
1.78168e-06
1.68411e-06
1.58405e-06
1.48224e-06
1.37943e-06
1.27634e-06
1.17371e-06
1.07225e-06
9.72633e-07
8.75472e-07
7.81276e-07
6.90433e-07
6.03185e-07
5.19627e-07
4.39702e-07
3.6321e-07
2.89811e-07
2.19039e-07
1.50316e-07
8.29691e-08
1.43022e-10
5.35823e-13
5.35509e-13
1.42941e-10
8.29262e-08
1.50241e-07
2.18932e-07
2.89672e-07
3.6304e-07
4.39503e-07
5.194e-07
6.02933e-07
6.90158e-07
7.80982e-07
8.75162e-07
9.72313e-07
1.07192e-06
1.17338e-06
1.27602e-06
1.37911e-06
1.48193e-06
1.58375e-06
1.68382e-06
1.78142e-06
1.87579e-06
1.9662e-06
2.05193e-06
2.13229e-06
2.20661e-06
2.27428e-06
2.33475e-06
2.38753e-06
2.43217e-06
2.46833e-06
2.49571e-06
2.5141e-06
2.52334e-06
2.52336e-06
2.51416e-06
2.49582e-06
2.46848e-06
2.43236e-06
2.38776e-06
2.33502e-06
2.27459e-06
2.20695e-06
2.13266e-06
2.05233e-06
1.96662e-06
1.87622e-06
1.78186e-06
1.68428e-06
1.58421e-06
1.4824e-06
1.37957e-06
1.27648e-06
1.17383e-06
1.07236e-06
9.72733e-07
8.75561e-07
7.81356e-07
6.90503e-07
6.03246e-07
5.19679e-07
4.39746e-07
3.63246e-07
2.89839e-07
2.1906e-07
1.50331e-07
8.29772e-08
1.43036e-10
5.35876e-13
5.35535e-13
1.42948e-10
8.29302e-08
1.50248e-07
2.18942e-07
2.89686e-07
3.63058e-07
4.39524e-07
5.19425e-07
6.02963e-07
6.90192e-07
7.81021e-07
8.75207e-07
9.72362e-07
1.07198e-06
1.17344e-06
1.27608e-06
1.37918e-06
1.48201e-06
1.58383e-06
1.68391e-06
1.78151e-06
1.87589e-06
1.9663e-06
2.05204e-06
2.1324e-06
2.20672e-06
2.2744e-06
2.33487e-06
2.38765e-06
2.4323e-06
2.46846e-06
2.49584e-06
2.51423e-06
2.52347e-06
2.52349e-06
2.51429e-06
2.49595e-06
2.46861e-06
2.43249e-06
2.38788e-06
2.33514e-06
2.2747e-06
2.20706e-06
2.13277e-06
2.05243e-06
1.96672e-06
1.87632e-06
1.78196e-06
1.68437e-06
1.5843e-06
1.48248e-06
1.37965e-06
1.27654e-06
1.17389e-06
1.07242e-06
9.72783e-07
8.75606e-07
7.81395e-07
6.90538e-07
6.03276e-07
5.19705e-07
4.39768e-07
3.63264e-07
2.89853e-07
2.19071e-07
1.50338e-07
8.29812e-08
1.43043e-10
5.35901e-13
5.35547e-13
1.42952e-10
8.29321e-08
1.50252e-07
2.18947e-07
2.89693e-07
3.63066e-07
4.39535e-07
5.19438e-07
6.02977e-07
6.90209e-07
7.8104e-07
8.75228e-07
9.72386e-07
1.072e-06
1.17347e-06
1.27611e-06
1.37921e-06
1.48205e-06
1.58387e-06
1.68395e-06
1.78155e-06
1.87593e-06
1.96635e-06
2.05209e-06
2.13245e-06
2.20678e-06
2.27446e-06
2.33493e-06
2.38771e-06
2.43236e-06
2.46852e-06
2.4959e-06
2.51429e-06
2.52353e-06
2.52355e-06
2.51436e-06
2.49601e-06
2.46867e-06
2.43255e-06
2.38794e-06
2.3352e-06
2.27476e-06
2.20712e-06
2.13282e-06
2.05248e-06
1.96677e-06
1.87637e-06
1.782e-06
1.68441e-06
1.58434e-06
1.48251e-06
1.37968e-06
1.27657e-06
1.17392e-06
1.07244e-06
9.72807e-07
8.75627e-07
7.81414e-07
6.90554e-07
6.03291e-07
5.19717e-07
4.39778e-07
3.63272e-07
2.8986e-07
2.19076e-07
1.50342e-07
8.29831e-08
1.43046e-10
5.35914e-13
5.35553e-13
1.42953e-10
8.2933e-08
1.50253e-07
2.1895e-07
2.89696e-07
3.6307e-07
4.3954e-07
5.19444e-07
6.02984e-07
6.90217e-07
7.81049e-07
8.75238e-07
9.72398e-07
1.07202e-06
1.17349e-06
1.27613e-06
1.37923e-06
1.48206e-06
1.58389e-06
1.68397e-06
1.78158e-06
1.87596e-06
1.96638e-06
2.05212e-06
2.13248e-06
2.20681e-06
2.27448e-06
2.33496e-06
2.38774e-06
2.43239e-06
2.46855e-06
2.49593e-06
2.51432e-06
2.52356e-06
2.52358e-06
2.51439e-06
2.49604e-06
2.4687e-06
2.43258e-06
2.38797e-06
2.33523e-06
2.27479e-06
2.20714e-06
2.13285e-06
2.05251e-06
1.96679e-06
1.87639e-06
1.78202e-06
1.68443e-06
1.58435e-06
1.48253e-06
1.3797e-06
1.27659e-06
1.17394e-06
1.07245e-06
9.72818e-07
8.75637e-07
7.81423e-07
6.90562e-07
6.03298e-07
5.19723e-07
4.39783e-07
3.63276e-07
2.89863e-07
2.19079e-07
1.50343e-07
8.2984e-08
1.43047e-10
5.3592e-13
5.35556e-13
1.42954e-10
8.29334e-08
1.50254e-07
2.18951e-07
2.89697e-07
3.63072e-07
4.39542e-07
5.19446e-07
6.02987e-07
6.90221e-07
7.81053e-07
8.75243e-07
9.72403e-07
1.07202e-06
1.17349e-06
1.27613e-06
1.37924e-06
1.48207e-06
1.5839e-06
1.68398e-06
1.78159e-06
1.87597e-06
1.96639e-06
2.05213e-06
2.13249e-06
2.20682e-06
2.2745e-06
2.33497e-06
2.38775e-06
2.4324e-06
2.46857e-06
2.49595e-06
2.51433e-06
2.52357e-06
2.5236e-06
2.5144e-06
2.49606e-06
2.46872e-06
2.4326e-06
2.38798e-06
2.33524e-06
2.2748e-06
2.20715e-06
2.13286e-06
2.05252e-06
1.9668e-06
1.8764e-06
1.78203e-06
1.68444e-06
1.58436e-06
1.48254e-06
1.3797e-06
1.2766e-06
1.17394e-06
1.07246e-06
9.72823e-07
8.75642e-07
7.81427e-07
6.90566e-07
6.03301e-07
5.19726e-07
4.39785e-07
3.63278e-07
2.89865e-07
2.1908e-07
1.50344e-07
8.29845e-08
1.43048e-10
5.35922e-13
5.35557e-13
1.42954e-10
8.29336e-08
1.50254e-07
2.18951e-07
2.89698e-07
3.63073e-07
4.39543e-07
5.19448e-07
6.02988e-07
6.90222e-07
7.81055e-07
8.75245e-07
9.72405e-07
1.07202e-06
1.17349e-06
1.27614e-06
1.37924e-06
1.48207e-06
1.5839e-06
1.68399e-06
1.78159e-06
1.87597e-06
1.96639e-06
2.05213e-06
2.1325e-06
2.20682e-06
2.2745e-06
2.33498e-06
2.38776e-06
2.43241e-06
2.46857e-06
2.49596e-06
2.51434e-06
2.52358e-06
2.5236e-06
2.51441e-06
2.49606e-06
2.46872e-06
2.4326e-06
2.38799e-06
2.33525e-06
2.27481e-06
2.20716e-06
2.13286e-06
2.05253e-06
1.96681e-06
1.8764e-06
1.78204e-06
1.68444e-06
1.58437e-06
1.48254e-06
1.37971e-06
1.2766e-06
1.17395e-06
1.07246e-06
9.72826e-07
8.75644e-07
7.81429e-07
6.90567e-07
6.03302e-07
5.19727e-07
4.39786e-07
3.63279e-07
2.89865e-07
2.1908e-07
1.50344e-07
8.29846e-08
1.43048e-10
5.35923e-13
5.35557e-13
1.42954e-10
8.29337e-08
1.50255e-07
2.18952e-07
2.89698e-07
3.63073e-07
4.39543e-07
5.19448e-07
6.02989e-07
6.90223e-07
7.81056e-07
8.75246e-07
9.72406e-07
1.07203e-06
1.1735e-06
1.27614e-06
1.37924e-06
1.48208e-06
1.5839e-06
1.68399e-06
1.78159e-06
1.87597e-06
1.9664e-06
2.05214e-06
2.1325e-06
2.20683e-06
2.27451e-06
2.33498e-06
2.38776e-06
2.43241e-06
2.46857e-06
2.49596e-06
2.51434e-06
2.52358e-06
2.52361e-06
2.51441e-06
2.49607e-06
2.46873e-06
2.4326e-06
2.38799e-06
2.33525e-06
2.27481e-06
2.20716e-06
2.13287e-06
2.05253e-06
1.96681e-06
1.87641e-06
1.78204e-06
1.68445e-06
1.58437e-06
1.48254e-06
1.37971e-06
1.2766e-06
1.17395e-06
1.07246e-06
9.72827e-07
8.75645e-07
7.8143e-07
6.90568e-07
6.03303e-07
5.19727e-07
4.39787e-07
3.63279e-07
2.89866e-07
2.1908e-07
1.50345e-07
8.29847e-08
1.43049e-10
5.35924e-13
5.35558e-13
1.42954e-10
8.29337e-08
1.50255e-07
2.18952e-07
2.89698e-07
3.63074e-07
4.39544e-07
5.19448e-07
6.02989e-07
6.90223e-07
7.81056e-07
8.75246e-07
9.72407e-07
1.07203e-06
1.1735e-06
1.27614e-06
1.37924e-06
1.48208e-06
1.5839e-06
1.68399e-06
1.78159e-06
1.87597e-06
1.9664e-06
2.05214e-06
2.1325e-06
2.20683e-06
2.27451e-06
2.33498e-06
2.38776e-06
2.43241e-06
2.46858e-06
2.49596e-06
2.51434e-06
2.52359e-06
2.52361e-06
2.51441e-06
2.49607e-06
2.46873e-06
2.43261e-06
2.38799e-06
2.33525e-06
2.27481e-06
2.20716e-06
2.13287e-06
2.05253e-06
1.96681e-06
1.87641e-06
1.78204e-06
1.68445e-06
1.58437e-06
1.48254e-06
1.37971e-06
1.2766e-06
1.17395e-06
1.07246e-06
9.72827e-07
8.75645e-07
7.8143e-07
6.90568e-07
6.03303e-07
5.19728e-07
4.39787e-07
3.63279e-07
2.89866e-07
2.1908e-07
1.50345e-07
8.29848e-08
1.43049e-10
5.35924e-13
5.35558e-13
1.42954e-10
8.29337e-08
1.50255e-07
2.18952e-07
2.89699e-07
3.63074e-07
4.39544e-07
5.19448e-07
6.02989e-07
6.90223e-07
7.81057e-07
8.75246e-07
9.72407e-07
1.07203e-06
1.1735e-06
1.27614e-06
1.37924e-06
1.48208e-06
1.58391e-06
1.68399e-06
1.78159e-06
1.87597e-06
1.9664e-06
2.05214e-06
2.1325e-06
2.20683e-06
2.27451e-06
2.33498e-06
2.38776e-06
2.43241e-06
2.46858e-06
2.49596e-06
2.51435e-06
2.52359e-06
2.52361e-06
2.51441e-06
2.49607e-06
2.46873e-06
2.43261e-06
2.38799e-06
2.33525e-06
2.27481e-06
2.20716e-06
2.13287e-06
2.05253e-06
1.96681e-06
1.87641e-06
1.78204e-06
1.68445e-06
1.58437e-06
1.48254e-06
1.37971e-06
1.2766e-06
1.17395e-06
1.07246e-06
9.72827e-07
8.75645e-07
7.8143e-07
6.90569e-07
6.03303e-07
5.19728e-07
4.39787e-07
3.63279e-07
2.89866e-07
2.19081e-07
1.50345e-07
8.29848e-08
1.43049e-10
5.35924e-13
5.35558e-13
1.42954e-10
8.29337e-08
1.50255e-07
2.18952e-07
2.89699e-07
3.63074e-07
4.39544e-07
5.19448e-07
6.0299e-07
6.90223e-07
7.81057e-07
8.75246e-07
9.72407e-07
1.07203e-06
1.1735e-06
1.27614e-06
1.37924e-06
1.48208e-06
1.58391e-06
1.68399e-06
1.78159e-06
1.87597e-06
1.9664e-06
2.05214e-06
2.1325e-06
2.20683e-06
2.27451e-06
2.33498e-06
2.38776e-06
2.43241e-06
2.46858e-06
2.49596e-06
2.51435e-06
2.52359e-06
2.52361e-06
2.51441e-06
2.49607e-06
2.46873e-06
2.43261e-06
2.38799e-06
2.33525e-06
2.27481e-06
2.20716e-06
2.13287e-06
2.05253e-06
1.96681e-06
1.87641e-06
1.78204e-06
1.68445e-06
1.58437e-06
1.48254e-06
1.37971e-06
1.2766e-06
1.17395e-06
1.07246e-06
9.72827e-07
8.75645e-07
7.81431e-07
6.90569e-07
6.03303e-07
5.19728e-07
4.39787e-07
3.63279e-07
2.89866e-07
2.19081e-07
1.50345e-07
8.29848e-08
1.43049e-10
5.35924e-13
5.35558e-13
1.42954e-10
8.29337e-08
1.50255e-07
2.18952e-07
2.89699e-07
3.63074e-07
4.39544e-07
5.19448e-07
6.0299e-07
6.90223e-07
7.81057e-07
8.75246e-07
9.72407e-07
1.07203e-06
1.1735e-06
1.27614e-06
1.37924e-06
1.48208e-06
1.58391e-06
1.68399e-06
1.78159e-06
1.87597e-06
1.9664e-06
2.05214e-06
2.1325e-06
2.20683e-06
2.27451e-06
2.33498e-06
2.38776e-06
2.43241e-06
2.46858e-06
2.49596e-06
2.51435e-06
2.52359e-06
2.52361e-06
2.51441e-06
2.49607e-06
2.46873e-06
2.43261e-06
2.38799e-06
2.33525e-06
2.27481e-06
2.20716e-06
2.13287e-06
2.05253e-06
1.96681e-06
1.87641e-06
1.78204e-06
1.68445e-06
1.58437e-06
1.48254e-06
1.37971e-06
1.2766e-06
1.17395e-06
1.07246e-06
9.72827e-07
8.75646e-07
7.81431e-07
6.90569e-07
6.03303e-07
5.19728e-07
4.39787e-07
3.63279e-07
2.89866e-07
2.19081e-07
1.50345e-07
8.29848e-08
1.43049e-10
5.35924e-13
5.35558e-13
1.42954e-10
8.29337e-08
1.50255e-07
2.18952e-07
2.89699e-07
3.63074e-07
4.39544e-07
5.19448e-07
6.0299e-07
6.90223e-07
7.81057e-07
8.75246e-07
9.72407e-07
1.07203e-06
1.1735e-06
1.27614e-06