# Selection   : all
# Cells       : 78750
# Volume      : 8.615360e-02
# Time        	min(T)
1000          	5.100000e+02
