/*--------------------------------*- C++ -*----------------------------------*\
  =========                 |
  \\      /  F ield         | OpenFOAM: The Open Source CFD Toolbox
   \\    /   O peration     | Website:  https://openfoam.org
    \\  /    A nd           | Version:  13
     \\/     M anipulation  |
\*---------------------------------------------------------------------------*/
FoamFile
{
    format      ascii;
    class       volScalarField;
    location    "162.5";
    object      nut;
}
// * * * * * * * * * * * * * * * * * * * * * * * * * * * * * * * * * * * * * //

dimensions      [0 2 -1 0 0 0 0];

internalField   nonuniform List<scalar> 
315000
(
5.15865e-16
1.35137e-13
3.0847e-12
5.53952e-12
8.03847e-12
1.05884e-11
1.31975e-11
1.58728e-11
1.86197e-11
2.14409e-11
2.43366e-11
2.73038e-11
3.03372e-11
3.34284e-11
3.65665e-11
3.97384e-11
4.29286e-11
4.61199e-11
4.92936e-11
5.24297e-11
5.55072e-11
5.85049e-11
6.1401e-11
6.41738e-11
6.68024e-11
6.92661e-11
7.15454e-11
7.3622e-11
7.5479e-11
7.71011e-11
7.84749e-11
7.95891e-11
8.04342e-11
8.10032e-11
8.12913e-11
8.1296e-11
8.10173e-11
8.04576e-11
7.96216e-11
7.85163e-11
7.71508e-11
7.55367e-11
7.36872e-11
7.16175e-11
6.93445e-11
6.68864e-11
6.42628e-11
6.1494e-11
5.86012e-11
5.56061e-11
5.25302e-11
4.9395e-11
4.62214e-11
4.30294e-11
3.98377e-11
3.66636e-11
3.35226e-11
3.04278e-11
2.73903e-11
2.44182e-11
2.15173e-11
1.86903e-11
1.59372e-11
1.3255e-11
1.06385e-11
8.08034e-12
5.57194e-12
3.10561e-12
1.3623e-13
5.20429e-16
1.29185e-14
3.44122e-12
7.8409e-10
1.41923e-09
2.06325e-09
2.71946e-09
3.39067e-09
4.0791e-09
4.78631e-09
5.51309e-09
6.25954e-09
7.02497e-09
7.80795e-09
8.60633e-09
9.4173e-09
1.02374e-08
1.10626e-08
1.18884e-08
1.271e-08
1.35221e-08
1.43192e-08
1.50958e-08
1.58462e-08
1.65648e-08
1.72461e-08
1.78847e-08
1.84755e-08
1.90139e-08
1.94953e-08
1.99158e-08
2.02719e-08
2.05607e-08
2.07797e-08
2.09271e-08
2.10016e-08
2.10027e-08
2.09302e-08
2.07849e-08
2.05678e-08
2.0281e-08
1.99267e-08
1.95079e-08
1.90281e-08
1.84913e-08
1.79018e-08
1.72644e-08
1.65842e-08
1.58665e-08
1.51168e-08
1.43407e-08
1.35439e-08
1.2732e-08
1.19104e-08
1.10844e-08
1.02588e-08
9.43816e-09
8.62649e-09
7.82724e-09
7.04327e-09
6.27671e-09
5.529e-09
4.80083e-09
4.09214e-09
3.40208e-09
2.72912e-09
2.07101e-09
1.4249e-09
7.87431e-10
3.45687e-12
1.2979e-14
5.212e-14
1.39039e-11
8.07716e-09
1.46356e-08
2.12958e-08
2.80985e-08
3.50791e-08
4.22661e-08
4.96803e-08
5.73341e-08
6.52307e-08
7.33643e-08
8.17202e-08
9.02746e-08
9.89958e-08
1.07844e-07
1.16774e-07
1.25733e-07
1.34666e-07
1.43511e-07
1.52208e-07
1.60692e-07
1.68898e-07
1.76764e-07
1.84226e-07
1.91225e-07
1.97703e-07
2.03608e-07
2.0889e-07
2.13504e-07
2.17412e-07
2.20581e-07
2.22984e-07
2.24601e-07
2.25417e-07
2.25426e-07
2.24628e-07
2.23029e-07
2.20644e-07
2.17491e-07
2.13599e-07
2.09e-07
2.03733e-07
1.97841e-07
1.91375e-07
1.84386e-07
1.76933e-07
1.69074e-07
1.60874e-07
1.52394e-07
1.437e-07
1.34856e-07
1.25922e-07
1.16961e-07
1.08027e-07
9.91729e-08
9.04449e-08
8.18822e-08
7.3517e-08
6.53728e-08
5.74646e-08
4.97984e-08
4.23708e-08
3.51697e-08
2.8174e-08
2.13554e-08
1.46784e-08
8.10181e-09
1.39482e-11
5.22892e-14
9.9185e-14
2.64613e-11
1.53731e-08
2.78713e-08
4.0597e-08
5.36449e-08
6.70978e-08
8.10243e-08
9.54762e-08
1.10487e-07
1.26071e-07
1.4222e-07
1.58908e-07
1.76088e-07
1.93692e-07
2.11636e-07
2.29821e-07
2.48132e-07
2.66448e-07
2.84636e-07
3.02559e-07
3.2008e-07
3.37057e-07
3.53354e-07
3.68835e-07
3.8337e-07
3.96837e-07
4.09119e-07
4.20111e-07
4.29719e-07
4.37858e-07
4.4446e-07
4.49466e-07
4.52832e-07
4.5453e-07
4.54545e-07
4.52877e-07
4.4954e-07
4.44563e-07
4.37989e-07
4.29876e-07
4.20293e-07
4.09324e-07
3.97064e-07
3.83617e-07
3.69098e-07
3.53632e-07
3.37347e-07
3.20378e-07
3.02864e-07
2.84944e-07
2.66757e-07
2.4844e-07
2.30124e-07
2.11932e-07
1.93978e-07
1.76362e-07
1.59168e-07
1.42464e-07
1.26296e-07
1.10693e-07
9.56618e-08
8.11879e-08
6.72383e-08
5.37613e-08
4.06883e-08
2.79362e-08
1.54102e-08
2.65281e-11
9.94398e-14
1.54521e-13
4.12271e-11
2.395e-08
4.34346e-08
6.33089e-08
8.37391e-08
1.04872e-07
1.26829e-07
1.49704e-07
1.7356e-07
1.98426e-07
2.24295e-07
2.51125e-07
2.78841e-07
3.07331e-07
3.36454e-07
3.66042e-07
3.95905e-07
4.25836e-07
4.55617e-07
4.85023e-07
5.13824e-07
5.41786e-07
5.68675e-07
5.94261e-07
6.1832e-07
6.40639e-07
6.61018e-07
6.79273e-07
6.9524e-07
7.08775e-07
7.19756e-07
7.28084e-07
7.33685e-07
7.36508e-07
7.36528e-07
7.33745e-07
7.28184e-07
7.19894e-07
7.08951e-07
6.95451e-07
6.79517e-07
6.61293e-07
6.40943e-07
6.18649e-07
5.94612e-07
5.69045e-07
5.42171e-07
5.14221e-07
4.85429e-07
4.56027e-07
4.26247e-07
3.96313e-07
3.66444e-07
3.36846e-07
3.07709e-07
2.79203e-07
2.51469e-07
2.24616e-07
1.98723e-07
1.73831e-07
1.49947e-07
1.27043e-07
1.05055e-07
8.38903e-08
6.3427e-08
4.35184e-08
2.39979e-08
4.13132e-11
1.5485e-13
2.15551e-13
5.75136e-11
3.34057e-08
6.05854e-08
8.8332e-08
1.16893e-07
1.46485e-07
1.77292e-07
2.09451e-07
2.43056e-07
2.78151e-07
3.14727e-07
3.52723e-07
3.92026e-07
4.32473e-07
4.73857e-07
5.15933e-07
5.58425e-07
6.0104e-07
6.43467e-07
6.85389e-07
7.26479e-07
7.66402e-07
8.0482e-07
8.41398e-07
8.7581e-07
9.07744e-07
9.36909e-07
9.63039e-07
9.85896e-07
1.00527e-06
1.02099e-06
1.03291e-06
1.04093e-06
1.04497e-06
1.04499e-06
1.041e-06
1.03303e-06
1.02116e-06
1.00548e-06
9.86147e-07
9.63329e-07
9.37236e-07
9.08104e-07
8.76201e-07
8.41815e-07
8.0526e-07
7.6686e-07
7.26951e-07
6.85871e-07
6.43954e-07
6.01528e-07
5.5891e-07
5.1641e-07
4.74323e-07
4.32923e-07
3.92457e-07
3.53131e-07
3.15109e-07
2.78505e-07
2.43379e-07
2.0974e-07
1.77545e-07
1.46702e-07
1.17071e-07
8.84713e-08
6.06841e-08
3.3462e-08
5.7615e-11
2.1594e-13
2.78506e-13
7.43144e-11
4.31541e-08
7.82556e-08
1.14097e-07
1.51009e-07
1.89282e-07
2.29156e-07
2.70814e-07
3.14377e-07
3.599e-07
4.07365e-07
4.56687e-07
5.07709e-07
5.60209e-07
6.13908e-07
6.68477e-07
7.23556e-07
7.7876e-07
8.33691e-07
8.8794e-07
9.41088e-07
9.92704e-07
1.04235e-06
1.08961e-06
1.13404e-06
1.17526e-06
1.2129e-06
1.2466e-06
1.27608e-06
1.30105e-06
1.32131e-06
1.33667e-06
1.347e-06
1.3522e-06
1.35222e-06
1.34708e-06
1.3368e-06
1.32149e-06
1.30128e-06
1.27635e-06
1.24692e-06
1.21326e-06
1.17566e-06
1.13447e-06
1.09007e-06
1.04284e-06
9.93209e-07
9.41609e-07
8.88472e-07
8.34229e-07
7.793e-07
7.24093e-07
6.69006e-07
6.14425e-07
5.60709e-07
5.08188e-07
4.57141e-07
4.0779e-07
3.60293e-07
3.14736e-07
2.71135e-07
2.29437e-07
1.89523e-07
1.51207e-07
1.14251e-07
7.83647e-08
4.32163e-08
7.44267e-11
2.78937e-13
3.39629e-13
9.06273e-11
5.26136e-08
9.53899e-08
1.39064e-07
1.84046e-07
2.30693e-07
2.79302e-07
3.30093e-07
3.83212e-07
4.38717e-07
4.9658e-07
5.56684e-07
6.18826e-07
6.82723e-07
7.48019e-07
8.14307e-07
8.81142e-07
9.48056e-07
1.01457e-06
1.08019e-06
1.14441e-06
1.20672e-06
1.26661e-06
1.32356e-06
1.37708e-06
1.42669e-06
1.47195e-06
1.51247e-06
1.54789e-06
1.57789e-06
1.60222e-06
1.62065e-06
1.63304e-06
1.63928e-06
1.63931e-06
1.63313e-06
1.62079e-06
1.6024e-06
1.57813e-06
1.54818e-06
1.51281e-06
1.47233e-06
1.4271e-06
1.37753e-06
1.32404e-06
1.26712e-06
1.20725e-06
1.14496e-06
1.08075e-06
1.01513e-06
9.48625e-07
8.81708e-07
8.14866e-07
7.48565e-07
6.83251e-07
6.19333e-07
5.57165e-07
4.9703e-07
4.39134e-07
3.83592e-07
3.30433e-07
2.796e-07
2.30948e-07
1.84255e-07
1.39227e-07
9.55049e-08
5.26792e-08
9.07461e-11
3.40085e-13
3.95808e-13
1.05622e-10
6.13038e-08
1.1112e-07
1.61971e-07
2.14337e-07
2.68639e-07
3.25218e-07
3.84332e-07
4.46141e-07
5.10707e-07
5.77986e-07
6.4783e-07
7.19989e-07
7.94117e-07
8.69791e-07
9.4653e-07
1.02381e-06
1.1011e-06
1.17783e-06
1.25344e-06
1.32737e-06
1.39902e-06
1.46782e-06
1.53319e-06
1.59458e-06
1.65144e-06
1.70329e-06
1.74968e-06
1.7902e-06
1.82452e-06
1.85234e-06
1.87341e-06
1.88757e-06
1.8947e-06
1.89472e-06
1.88766e-06
1.87355e-06
1.85253e-06
1.82476e-06
1.7905e-06
1.75002e-06
1.70367e-06
1.65186e-06
1.59503e-06
1.53368e-06
1.46834e-06
1.39956e-06
1.32792e-06
1.25401e-06
1.1784e-06
1.10168e-06
1.02439e-06
9.471e-07
8.70349e-07
7.94657e-07
7.20507e-07
6.48322e-07
5.78448e-07
5.11134e-07
4.4653e-07
3.8468e-07
3.25523e-07
2.68899e-07
2.14551e-07
1.62137e-07
1.11237e-07
6.13706e-08
1.05743e-10
3.96274e-13
4.4488e-13
1.18721e-10
6.88922e-08
1.24848e-07
1.81952e-07
2.40746e-07
3.01704e-07
3.65208e-07
4.31542e-07
5.00881e-07
5.73286e-07
6.48696e-07
7.26935e-07
8.07706e-07
8.90612e-07
9.75167e-07
1.06082e-06
1.147e-06
1.23308e-06
1.31847e-06
1.40252e-06
1.48462e-06
1.56412e-06
1.64039e-06
1.71281e-06
1.78075e-06
1.84366e-06
1.90099e-06
1.95226e-06
1.99703e-06
2.03493e-06
2.06563e-06
2.0889e-06
2.10452e-06
2.11238e-06
2.11241e-06
2.1046e-06
2.08903e-06
2.06582e-06
2.03517e-06
1.99732e-06
1.95259e-06
1.90137e-06
1.84408e-06
1.78121e-06
1.71329e-06
1.64091e-06
1.56466e-06
1.48517e-06
1.40309e-06
1.31904e-06
1.23366e-06
1.14757e-06
1.06139e-06
9.75724e-07
8.91152e-07
8.08224e-07
7.27427e-07
6.49158e-07
5.73713e-07
5.0127e-07
4.3189e-07
3.65512e-07
3.01963e-07
2.40959e-07
1.82117e-07
1.24965e-07
6.89585e-08
1.18842e-10
4.45346e-13
4.8573e-13
1.29628e-10
7.52078e-08
1.36269e-07
1.98568e-07
2.627e-07
3.29181e-07
3.98427e-07
4.70744e-07
5.46318e-07
6.25205e-07
7.07333e-07
7.92496e-07
8.80361e-07
9.70483e-07
1.06233e-06
1.15529e-06
1.24873e-06
1.342e-06
1.43443e-06
1.52534e-06
1.61407e-06
1.69993e-06
1.78224e-06
1.86035e-06
1.93359e-06
2.00136e-06
2.0631e-06
2.11829e-06
2.16647e-06
2.20725e-06
2.24028e-06
2.26529e-06
2.28209e-06
2.29054e-06
2.29057e-06
2.28218e-06
2.26543e-06
2.24046e-06
2.20748e-06
2.16676e-06
2.11862e-06
2.06347e-06
2.00177e-06
1.93403e-06
1.86082e-06
1.78275e-06
1.70046e-06
1.61461e-06
1.5259e-06
1.43499e-06
1.34257e-06
1.2493e-06
1.15585e-06
1.06287e-06
9.71015e-07
8.80872e-07
7.92981e-07
7.07788e-07
6.25626e-07
5.46701e-07
4.71087e-07
3.98727e-07
3.29436e-07
2.62909e-07
1.98729e-07
1.36383e-07
7.52726e-08
1.29746e-10
4.86188e-13
5.18207e-13
1.383e-10
8.02286e-08
1.45345e-07
2.11769e-07
2.80139e-07
3.51003e-07
4.24805e-07
5.01868e-07
5.82383e-07
6.66407e-07
7.53853e-07
8.44493e-07
9.37964e-07
1.03378e-06
1.13137e-06
1.23009e-06
1.32925e-06
1.42816e-06
1.52611e-06
1.6224e-06
1.71632e-06
1.80715e-06
1.89418e-06
1.97672e-06
2.05409e-06
2.12565e-06
2.19083e-06
2.24907e-06
2.2999e-06
2.34291e-06
2.37774e-06
2.40412e-06
2.42183e-06
2.43074e-06
2.43077e-06
2.42191e-06
2.40425e-06
2.37792e-06
2.34313e-06
2.30017e-06
2.24939e-06
2.19119e-06
2.12605e-06
2.05452e-06
1.97718e-06
1.89467e-06
1.80766e-06
1.71685e-06
1.62295e-06
1.52666e-06
1.42871e-06
1.3298e-06
1.23063e-06
1.13191e-06
1.0343e-06
9.38464e-07
8.44968e-07
7.54298e-07
6.66819e-07
5.82758e-07
5.02203e-07
4.25098e-07
3.51252e-07
2.80343e-07
2.11927e-07
1.45456e-07
8.02916e-08
1.38416e-10
5.18654e-13
5.42915e-13
1.44899e-10
8.40486e-08
1.5225e-07
2.2181e-07
2.93402e-07
3.67599e-07
4.44865e-07
5.25535e-07
6.09808e-07
6.97737e-07
7.89225e-07
8.84026e-07
9.81753e-07
1.08189e-06
1.18384e-06
1.28692e-06
1.39041e-06
1.49359e-06
1.59572e-06
1.69607e-06
1.7939e-06
1.88848e-06
1.97907e-06
2.06495e-06
2.14543e-06
2.21985e-06
2.28761e-06
2.34814e-06
2.40097e-06
2.44566e-06
2.48185e-06
2.50925e-06
2.52765e-06
2.5369e-06
2.53693e-06
2.52773e-06
2.50938e-06
2.48202e-06
2.44588e-06
2.40124e-06
2.34846e-06
2.28796e-06
2.22024e-06
2.14585e-06
2.0654e-06
1.97955e-06
1.88898e-06
1.79442e-06
1.6966e-06
1.59626e-06
1.49413e-06
1.39095e-06
1.28745e-06
1.18436e-06
1.0824e-06
9.82241e-07
8.84489e-07
7.8966e-07
6.98139e-07
6.10175e-07
5.25862e-07
4.4515e-07
3.67841e-07
2.936e-07
2.21964e-07
1.52357e-07
8.41097e-08
1.45012e-10
5.4335e-13
5.60933e-13
1.49713e-10
8.6835e-08
1.57285e-07
2.29134e-07
3.03075e-07
3.79704e-07
4.59498e-07
5.42803e-07
6.29821e-07
7.20601e-07
8.15042e-07
9.12883e-07
1.01372e-06
1.11702e-06
1.22215e-06
1.3284e-06
1.43505e-06
1.54135e-06
1.64653e-06
1.74984e-06
1.85053e-06
1.94784e-06
2.04102e-06
2.12933e-06
2.21207e-06
2.28857e-06
2.35821e-06
2.42041e-06
2.47469e-06
2.5206e-06
2.55778e-06
2.58593e-06
2.60482e-06
2.61432e-06
2.61435e-06
2.6049e-06
2.58605e-06
2.55795e-06
2.52082e-06
2.47495e-06
2.42072e-06
2.35855e-06
2.28895e-06
2.21249e-06
2.12977e-06
2.04148e-06
1.94833e-06
1.85103e-06
1.75036e-06
1.64705e-06
1.54188e-06
1.43558e-06
1.32893e-06
1.22266e-06
1.11752e-06
1.0142e-06
9.13337e-07
8.15468e-07
7.20995e-07
6.30179e-07
5.43123e-07
4.59778e-07
3.79941e-07
3.03269e-07
2.29283e-07
1.5739e-07
8.68945e-08
1.49823e-10
5.61359e-13
5.73551e-13
1.53085e-10
8.87868e-08
1.60812e-07
2.34264e-07
3.09853e-07
3.88187e-07
4.69755e-07
5.5491e-07
6.43855e-07
7.36641e-07
8.33157e-07
9.33137e-07
1.03616e-06
1.14168e-06
1.24905e-06
1.35754e-06
1.46642e-06
1.5749e-06
1.68223e-06
1.78762e-06
1.89032e-06
1.98955e-06
2.08455e-06
2.17458e-06
2.25891e-06
2.33687e-06
2.40783e-06
2.47121e-06
2.52651e-06
2.57328e-06
2.61115e-06
2.63982e-06
2.65907e-06
2.66874e-06
2.66877e-06
2.65914e-06
2.63994e-06
2.61132e-06
2.57349e-06
2.52676e-06
2.47151e-06
2.40817e-06
2.33724e-06
2.25932e-06
2.17501e-06
2.08501e-06
1.99003e-06
1.89082e-06
1.78813e-06
1.68274e-06
1.57542e-06
1.46694e-06
1.35806e-06
1.24955e-06
1.14217e-06
1.03663e-06
9.33584e-07
8.33576e-07
7.37028e-07
6.44208e-07
5.55224e-07
4.7003e-07
3.8842e-07
3.10042e-07
2.3441e-07
1.60915e-07
8.8845e-08
1.53192e-10
5.73969e-13
5.8205e-13
1.55356e-10
9.0102e-08
1.63189e-07
2.37722e-07
3.14421e-07
3.93907e-07
4.76674e-07
5.63079e-07
6.53329e-07
7.47472e-07
8.45395e-07
9.46825e-07
1.05133e-06
1.15836e-06
1.26725e-06
1.37726e-06
1.48765e-06
1.59762e-06
1.7064e-06
1.81321e-06
1.91727e-06
2.01781e-06
2.11405e-06
2.20524e-06
2.29066e-06
2.36961e-06
2.44147e-06
2.50565e-06
2.56164e-06
2.60899e-06
2.64734e-06
2.67636e-06
2.69585e-06
2.70565e-06
2.70567e-06
2.69593e-06
2.67648e-06
2.6475e-06
2.6092e-06
2.56189e-06
2.50594e-06
2.4418e-06
2.36998e-06
2.29106e-06
2.20567e-06
2.1145e-06
2.01829e-06
1.91776e-06
1.81371e-06
1.70691e-06
1.59813e-06
1.48816e-06
1.37777e-06
1.26774e-06
1.15884e-06
1.0518e-06
9.47266e-07
8.4581e-07
7.47855e-07
6.53677e-07
5.6339e-07
4.76945e-07
3.94137e-07
3.14608e-07
2.37866e-07
1.6329e-07
9.01593e-08
1.55462e-10
5.82462e-13
5.87564e-13
1.56831e-10
9.09557e-08
1.64732e-07
2.39967e-07
3.17389e-07
3.97624e-07
4.81171e-07
5.68392e-07
6.59493e-07
7.54523e-07
8.53366e-07
9.55743e-07
1.06122e-06
1.16924e-06
1.27912e-06
1.39013e-06
1.50151e-06
1.61246e-06
1.72219e-06
1.82994e-06
1.93489e-06
2.03629e-06
2.13334e-06
2.2253e-06
2.31143e-06
2.39103e-06
2.46348e-06
2.52819e-06
2.58463e-06
2.63237e-06
2.67103e-06
2.70029e-06
2.71994e-06
2.72981e-06
2.72983e-06
2.72001e-06
2.70041e-06
2.67119e-06
2.63258e-06
2.58488e-06
2.52848e-06
2.46381e-06
2.3914e-06
2.31182e-06
2.22572e-06
2.13379e-06
2.03676e-06
1.93538e-06
1.83043e-06
1.7227e-06
1.61297e-06
1.50202e-06
1.39064e-06
1.27961e-06
1.16972e-06
1.06168e-06
9.56181e-07
8.53776e-07
7.54902e-07
6.59838e-07
5.687e-07
4.8144e-07
3.97851e-07
3.17574e-07
2.40109e-07
1.64832e-07
9.10124e-08
1.56936e-10
5.87972e-13
5.91016e-13
1.57754e-10
9.14903e-08
1.65699e-07
2.41373e-07
3.19249e-07
3.99954e-07
4.83992e-07
5.71726e-07
6.63363e-07
7.58952e-07
8.58376e-07
9.61353e-07
1.06745e-06
1.17609e-06
1.2866e-06
1.39824e-06
1.51025e-06
1.62182e-06
1.73216e-06
1.84049e-06
1.94602e-06
2.04796e-06
2.14553e-06
2.23798e-06
2.32455e-06
2.40458e-06
2.4774e-06
2.54244e-06
2.59918e-06
2.64716e-06
2.68602e-06
2.71543e-06
2.73517e-06
2.7451e-06
2.74512e-06
2.73525e-06
2.71555e-06
2.68618e-06
2.64737e-06
2.59943e-06
2.54273e-06
2.47773e-06
2.40494e-06
2.32495e-06
2.2384e-06
2.14598e-06
2.04843e-06
1.94651e-06
1.84099e-06
1.73267e-06
1.62232e-06
1.51075e-06
1.39875e-06
1.28709e-06
1.17656e-06
1.06791e-06
9.61789e-07
8.58785e-07
7.5933e-07
6.63707e-07
5.72032e-07
4.8426e-07
4.0018e-07
3.19433e-07
2.41515e-07
1.65798e-07
9.15467e-08
1.57858e-10
5.91421e-13
5.93102e-13
1.58312e-10
9.18137e-08
1.66284e-07
2.42225e-07
3.20375e-07
4.01365e-07
4.85702e-07
5.73748e-07
6.65712e-07
7.61642e-07
8.6142e-07
9.64764e-07
1.07123e-06
1.18025e-06
1.29115e-06
1.40319e-06
1.51558e-06
1.62753e-06
1.73824e-06
1.84694e-06
1.95282e-06
2.05509e-06
2.15298e-06
2.24572e-06
2.33258e-06
2.41286e-06
2.48592e-06
2.55116e-06
2.60808e-06
2.65621e-06
2.69519e-06
2.72469e-06
2.7445e-06
2.75446e-06
2.75448e-06
2.74457e-06
2.72481e-06
2.69535e-06
2.65642e-06
2.60833e-06
2.55145e-06
2.48624e-06
2.41322e-06
2.33297e-06
2.24615e-06
2.15343e-06
2.05556e-06
1.9533e-06
1.84743e-06
1.73875e-06
1.62803e-06
1.51608e-06
1.40369e-06
1.29164e-06
1.18073e-06
1.07169e-06
9.65198e-07
8.61828e-07
7.62019e-07
6.66055e-07
5.74054e-07
4.85969e-07
4.01591e-07
3.20558e-07
2.42366e-07
1.66383e-07
9.18699e-08
1.58416e-10
5.93507e-13
5.94323e-13
1.58638e-10
9.20029e-08
1.66626e-07
2.42723e-07
3.21034e-07
4.02193e-07
4.86704e-07
5.74934e-07
6.67091e-07
7.63222e-07
8.6321e-07
9.6677e-07
1.07346e-06
1.18271e-06
1.29384e-06
1.4061e-06
1.51872e-06
1.6309e-06
1.74184e-06
1.85074e-06
1.95683e-06
2.05931e-06
2.15739e-06
2.25031e-06
2.33733e-06
2.41776e-06
2.49096e-06
2.55633e-06
2.61335e-06
2.66158e-06
2.70062e-06
2.73018e-06
2.75003e-06
2.76e-06
2.76003e-06
2.7501e-06
2.7303e-06
2.70079e-06
2.66178e-06
2.6136e-06
2.55662e-06
2.49128e-06
2.41813e-06
2.33773e-06
2.25073e-06
2.15783e-06
2.05977e-06
1.95731e-06
1.85124e-06
1.74234e-06
1.6314e-06
1.51922e-06
1.4066e-06
1.29433e-06
1.18319e-06
1.07392e-06
9.67204e-07
8.63617e-07
7.63599e-07
6.67433e-07
5.75239e-07
4.86971e-07
4.02418e-07
3.21218e-07
2.42864e-07
1.66725e-07
9.20591e-08
1.58742e-10
5.94726e-13
5.95014e-13
1.58823e-10
9.21101e-08
1.6682e-07
2.43005e-07
3.21408e-07
4.02662e-07
4.87274e-07
5.75608e-07
6.67875e-07
7.64121e-07
8.64229e-07
9.67913e-07
1.07473e-06
1.18411e-06
1.29537e-06
1.40777e-06
1.52052e-06
1.63282e-06
1.74389e-06
1.85292e-06
1.95913e-06
2.06172e-06
2.15991e-06
2.25294e-06
2.34006e-06
2.42058e-06
2.49385e-06
2.55929e-06
2.61638e-06
2.66466e-06
2.70375e-06
2.73334e-06
2.7532e-06
2.76319e-06
2.76321e-06
2.75327e-06
2.73346e-06
2.70391e-06
2.66486e-06
2.61663e-06
2.55958e-06
2.49418e-06
2.42094e-06
2.34045e-06
2.25336e-06
2.16036e-06
2.06219e-06
1.95961e-06
1.85342e-06
1.74439e-06
1.63333e-06
1.52102e-06
1.40827e-06
1.29586e-06
1.18459e-06
1.07519e-06
9.68347e-07
8.64636e-07
7.64498e-07
6.68217e-07
5.75913e-07
4.8754e-07
4.02887e-07
3.21592e-07
2.43147e-07
1.66919e-07
9.21662e-08
1.58927e-10
5.95417e-13
5.95393e-13
1.58925e-10
9.2169e-08
1.66926e-07
2.43161e-07
3.21614e-07
4.0292e-07
4.87587e-07
5.75979e-07
6.68307e-07
7.64617e-07
8.64792e-07
9.68545e-07
1.07544e-06
1.18489e-06
1.29622e-06
1.40869e-06
1.52151e-06
1.63389e-06
1.74503e-06
1.85414e-06
1.96041e-06
2.06307e-06
2.16132e-06
2.2544e-06
2.34157e-06
2.42214e-06
2.49546e-06
2.56094e-06
2.61806e-06
2.66637e-06
2.70548e-06
2.73509e-06
2.75497e-06
2.76496e-06
2.76498e-06
2.75504e-06
2.73521e-06
2.70565e-06
2.66658e-06
2.61831e-06
2.56123e-06
2.49579e-06
2.4225e-06
2.34197e-06
2.25482e-06
2.16176e-06
2.06353e-06
1.96089e-06
1.85463e-06
1.74553e-06
1.6344e-06
1.52202e-06
1.40919e-06
1.29671e-06
1.18536e-06
1.07589e-06
9.68979e-07
8.65199e-07
7.64993e-07
6.68649e-07
5.76284e-07
4.87853e-07
4.03145e-07
3.21797e-07
2.43302e-07
1.67025e-07
9.22251e-08
1.59029e-10
5.95796e-13
5.95595e-13
1.58979e-10
9.22004e-08
1.66983e-07
2.43243e-07
3.21723e-07
4.03058e-07
4.87754e-07
5.76178e-07
6.68538e-07
7.64883e-07
8.65093e-07
9.68883e-07
1.07581e-06
1.1853e-06
1.29668e-06
1.40919e-06
1.52205e-06
1.63447e-06
1.74565e-06
1.85479e-06
1.9611e-06
2.06379e-06
2.16207e-06
2.25519e-06
2.34239e-06
2.42299e-06
2.49633e-06
2.56183e-06
2.61897e-06
2.6673e-06
2.70642e-06
2.73604e-06
2.75593e-06
2.76592e-06
2.76594e-06
2.756e-06
2.73616e-06
2.70659e-06
2.6675e-06
2.61922e-06
2.56212e-06
2.49666e-06
2.42335e-06
2.34278e-06
2.25561e-06
2.16252e-06
2.06426e-06
1.96158e-06
1.85528e-06
1.74615e-06
1.63497e-06
1.52255e-06
1.40969e-06
1.29717e-06
1.18578e-06
1.07627e-06
9.69317e-07
8.655e-07
7.65259e-07
6.6888e-07
5.76483e-07
4.8802e-07
4.03283e-07
3.21907e-07
2.43385e-07
1.67082e-07
9.22564e-08
1.59083e-10
5.95998e-13
5.95699e-13
1.59007e-10
9.22166e-08
1.67013e-07
2.43286e-07
3.2178e-07
4.03129e-07
4.87841e-07
5.76281e-07
6.68658e-07
7.65021e-07
8.6525e-07
9.6906e-07
1.07601e-06
1.18552e-06
1.29691e-06
1.40945e-06
1.52233e-06
1.63477e-06
1.74597e-06
1.85513e-06
1.96146e-06
2.06417e-06
2.16247e-06
2.2556e-06
2.34282e-06
2.42343e-06
2.49679e-06
2.5623e-06
2.61945e-06
2.66778e-06
2.70692e-06
2.73654e-06
2.75643e-06
2.76642e-06
2.76645e-06
2.7565e-06
2.73666e-06
2.70708e-06
2.66799e-06
2.6197e-06
2.56259e-06
2.49711e-06
2.42379e-06
2.34321e-06
2.25602e-06
2.16292e-06
2.06463e-06
1.96194e-06
1.85562e-06
1.74647e-06
1.63527e-06
1.52283e-06
1.40994e-06
1.2974e-06
1.186e-06
1.07647e-06
9.69494e-07
8.65657e-07
7.65397e-07
6.69e-07
5.76586e-07
4.88107e-07
4.03354e-07
3.21964e-07
2.43427e-07
1.67111e-07
9.22727e-08
1.59111e-10
5.96102e-13
5.95751e-13
1.59021e-10
9.22248e-08
1.67027e-07
2.43308e-07
3.21809e-07
4.03165e-07
4.87885e-07
5.76332e-07
6.68719e-07
7.6509e-07
8.65329e-07
9.69149e-07
1.07611e-06
1.18563e-06
1.29704e-06
1.40958e-06
1.52247e-06
1.63492e-06
1.74613e-06
1.8553e-06
1.96164e-06
2.06436e-06
2.16267e-06
2.25581e-06
2.34304e-06
2.42366e-06
2.49702e-06
2.56254e-06
2.6197e-06
2.66803e-06
2.70717e-06
2.7368e-06
2.75669e-06
2.76668e-06
2.76671e-06
2.75676e-06
2.73691e-06
2.70733e-06
2.66824e-06
2.61995e-06
2.56283e-06
2.49735e-06
2.42402e-06
2.34343e-06
2.25623e-06
2.16312e-06
2.06483e-06
1.96213e-06
1.8558e-06
1.74663e-06
1.63543e-06
1.52298e-06
1.41008e-06
1.29753e-06
1.18611e-06
1.07657e-06
9.69583e-07
8.65736e-07
7.65467e-07
6.69061e-07
5.76638e-07
4.88151e-07
4.0339e-07
3.21992e-07
2.43449e-07
1.67126e-07
9.22808e-08
1.59125e-10
5.96155e-13
5.95777e-13
1.59028e-10
9.22288e-08
1.67035e-07
2.43318e-07
3.21823e-07
4.03183e-07
4.87906e-07
5.76358e-07
6.68748e-07
7.65125e-07
8.65368e-07
9.69193e-07
1.07616e-06
1.18568e-06
1.29709e-06
1.40964e-06
1.52254e-06
1.635e-06
1.74621e-06
1.85539e-06
1.96173e-06
2.06446e-06
2.16277e-06
2.25592e-06
2.34315e-06
2.42377e-06
2.49714e-06
2.56266e-06
2.61982e-06
2.66816e-06
2.70729e-06
2.73692e-06
2.75681e-06
2.76681e-06
2.76683e-06
2.75688e-06
2.73704e-06
2.70746e-06
2.66836e-06
2.62007e-06
2.56295e-06
2.49746e-06
2.42413e-06
2.34354e-06
2.25634e-06
2.16322e-06
2.06492e-06
1.96222e-06
1.85588e-06
1.74671e-06
1.6355e-06
1.52305e-06
1.41014e-06
1.29758e-06
1.18616e-06
1.07661e-06
9.69627e-07
8.65775e-07
7.65501e-07
6.6909e-07
5.76663e-07
4.88172e-07
4.03408e-07
3.22006e-07
2.4346e-07
1.67133e-07
9.22848e-08
1.59132e-10
5.9618e-13
5.95789e-13
1.59031e-10
9.22307e-08
1.67038e-07
2.43323e-07
3.21829e-07
4.03191e-07
4.87916e-07
5.7637e-07
6.68762e-07
7.65141e-07
8.65387e-07
9.69214e-07
1.07618e-06
1.18571e-06
1.29712e-06
1.40967e-06
1.52257e-06
1.63503e-06
1.74625e-06
1.85543e-06
1.96178e-06
2.0645e-06
2.16282e-06
2.25597e-06
2.3432e-06
2.42382e-06
2.49719e-06
2.56272e-06
2.61988e-06
2.66822e-06
2.70735e-06
2.73699e-06
2.75688e-06
2.76687e-06
2.7669e-06
2.75695e-06
2.7371e-06
2.70752e-06
2.66842e-06
2.62013e-06
2.56301e-06
2.49752e-06
2.42419e-06
2.34359e-06
2.25639e-06
2.16327e-06
2.06497e-06
1.96226e-06
1.85592e-06
1.74675e-06
1.63554e-06
1.52308e-06
1.41017e-06
1.29761e-06
1.18619e-06
1.07664e-06
9.69648e-07
8.65794e-07
7.65517e-07
6.69105e-07
5.76675e-07
4.88182e-07
4.03416e-07
3.22013e-07
2.43465e-07
1.67137e-07
9.22867e-08
1.59135e-10
5.96193e-13
5.95795e-13
1.59033e-10
9.22315e-08
1.6704e-07
2.43326e-07
3.21833e-07
4.03195e-07
4.87921e-07
5.76376e-07
6.68769e-07
7.65149e-07
8.65395e-07
9.69224e-07
1.07619e-06
1.18572e-06
1.29714e-06
1.40969e-06
1.52259e-06
1.63505e-06
1.74627e-06
1.85545e-06
1.9618e-06
2.06453e-06
2.16285e-06
2.25599e-06
2.34322e-06
2.42385e-06
2.49722e-06
2.56274e-06
2.6199e-06
2.66824e-06
2.70738e-06
2.73701e-06
2.7569e-06
2.7669e-06
2.76692e-06
2.75698e-06
2.73713e-06
2.70755e-06
2.66845e-06
2.62015e-06
2.56303e-06
2.49755e-06
2.42421e-06
2.34362e-06
2.25641e-06
2.16329e-06
2.06499e-06
1.96228e-06
1.85594e-06
1.74677e-06
1.63556e-06
1.52309e-06
1.41019e-06
1.29763e-06
1.1862e-06
1.07665e-06
9.69658e-07
8.65802e-07
7.65525e-07
6.69111e-07
5.76681e-07
4.88187e-07
4.0342e-07
3.22016e-07
2.43467e-07
1.67138e-07
9.22876e-08
1.59136e-10
5.96198e-13
5.95797e-13
1.59033e-10
9.22319e-08
1.6704e-07
2.43327e-07
3.21834e-07
4.03197e-07
4.87923e-07
5.76378e-07
6.68772e-07
7.65152e-07
8.65399e-07
9.69228e-07
1.0762e-06
1.18573e-06
1.29714e-06
1.40969e-06
1.5226e-06
1.63506e-06
1.74628e-06
1.85546e-06
1.96181e-06
2.06454e-06
2.16286e-06
2.256e-06
2.34324e-06
2.42386e-06
2.49723e-06
2.56276e-06
2.61992e-06
2.66826e-06
2.7074e-06
2.73703e-06
2.75692e-06
2.76691e-06
2.76694e-06
2.75699e-06
2.73714e-06
2.70756e-06
2.66846e-06
2.62017e-06
2.56305e-06
2.49756e-06
2.42422e-06
2.34363e-06
2.25642e-06
2.1633e-06
2.065e-06
1.96229e-06
1.85595e-06
1.74678e-06
1.63556e-06
1.5231e-06
1.41019e-06
1.29763e-06
1.1862e-06
1.07665e-06
9.69662e-07
8.65806e-07
7.65528e-07
6.69114e-07
5.76684e-07
4.88189e-07
4.03422e-07
3.22017e-07
2.43468e-07
1.67139e-07
9.2288e-08
1.59137e-10
5.96201e-13
5.95798e-13
1.59034e-10
9.22321e-08
1.67041e-07
2.43327e-07
3.21835e-07
4.03198e-07
4.87924e-07
5.76379e-07
6.68773e-07
7.65154e-07
8.65401e-07
9.6923e-07
1.0762e-06
1.18573e-06
1.29715e-06
1.4097e-06
1.5226e-06
1.63506e-06
1.74628e-06
1.85546e-06
1.96181e-06
2.06454e-06
2.16286e-06
2.25601e-06
2.34324e-06
2.42387e-06
2.49724e-06
2.56276e-06
2.61992e-06
2.66826e-06
2.7074e-06
2.73703e-06
2.75692e-06
2.76692e-06
2.76694e-06
2.75699e-06
2.73715e-06
2.70756e-06
2.66847e-06
2.62017e-06
2.56305e-06
2.49756e-06
2.42423e-06
2.34363e-06
2.25643e-06
2.16331e-06
2.06501e-06
1.96229e-06
1.85596e-06
1.74678e-06
1.63557e-06
1.52311e-06
1.4102e-06
1.29764e-06
1.18621e-06
1.07666e-06
9.69664e-07
8.65808e-07
7.6553e-07
6.69116e-07
5.76685e-07
4.8819e-07
4.03423e-07
3.22018e-07
2.43468e-07
1.67139e-07
9.22882e-08
1.59137e-10
5.96202e-13
5.95799e-13
1.59034e-10
9.22322e-08
1.67041e-07
2.43327e-07
3.21835e-07
4.03198e-07
4.87925e-07
5.7638e-07
6.68774e-07
7.65154e-07
8.65402e-07
9.69231e-07
1.0762e-06
1.18573e-06
1.29715e-06
1.4097e-06
1.5226e-06
1.63506e-06
1.74628e-06
1.85546e-06
1.96181e-06
2.06454e-06
2.16286e-06
2.25601e-06
2.34324e-06
2.42387e-06
2.49724e-06
2.56276e-06
2.61992e-06
2.66827e-06
2.7074e-06
2.73704e-06
2.75693e-06
2.76692e-06
2.76695e-06
2.757e-06
2.73715e-06
2.70757e-06
2.66847e-06
2.62017e-06
2.56305e-06
2.49757e-06
2.42423e-06
2.34364e-06
2.25643e-06
2.16331e-06
2.06501e-06
1.9623e-06
1.85596e-06
1.74678e-06
1.63557e-06
1.52311e-06
1.4102e-06
1.29764e-06
1.18621e-06
1.07666e-06
9.69665e-07
8.65809e-07
7.65531e-07
6.69116e-07
5.76685e-07
4.88191e-07
4.03423e-07
3.22018e-07
2.43469e-07
1.6714e-07
9.22883e-08
1.59138e-10
5.96202e-13
5.95799e-13
1.59034e-10
9.22322e-08
1.67041e-07
2.43328e-07
3.21835e-07
4.03198e-07
4.87925e-07
5.7638e-07
6.68774e-07
7.65155e-07
8.65402e-07
9.69231e-07
1.0762e-06
1.18573e-06
1.29715e-06
1.4097e-06
1.5226e-06
1.63506e-06
1.74628e-06
1.85546e-06
1.96182e-06
2.06454e-06
2.16286e-06
2.25601e-06
2.34324e-06
2.42387e-06
2.49724e-06
2.56277e-06
2.61993e-06
2.66827e-06
2.70741e-06
2.73704e-06
2.75693e-06
2.76692e-06
2.76695e-06
2.757e-06
2.73715e-06
2.70757e-06
2.66847e-06
2.62018e-06
2.56305e-06
2.49757e-06
2.42423e-06
2.34364e-06
2.25643e-06
2.16331e-06
2.06501e-06
1.9623e-06
1.85596e-06
1.74678e-06
1.63557e-06
1.52311e-06
1.4102e-06
1.29764e-06
1.18621e-06
1.07666e-06
9.69665e-07
8.65809e-07
7.65531e-07
6.69116e-07
5.76685e-07
4.88191e-07
4.03423e-07
3.22018e-07
2.43469e-07
1.6714e-07
9.22883e-08
1.59138e-10
5.96203e-13
5.95799e-13
1.59034e-10
9.22322e-08
1.67041e-07
2.43328e-07
3.21835e-07
4.03198e-07
4.87925e-07
5.7638e-07
6.68774e-07
7.65155e-07
8.65402e-07
9.69231e-07
1.0762e-06
1.18573e-06
1.29715e-06
1.4097e-06
1.5226e-06
1.63506e-06
1.74628e-06
1.85546e-06
1.96182e-06
2.06454e-06
2.16286e-06
2.25601e-06
2.34324e-06
2.42387e-06
2.49724e-06
2.56277e-06
2.61993e-06
2.66827e-06
2.70741e-06
2.73704e-06
2.75693e-06
2.76692e-06
2.76695e-06
2.757e-06
2.73715e-06
2.70757e-06
2.66847e-06
2.62018e-06
2.56306e-06
2.49757e-06
2.42423e-06
2.34364e-06
2.25643e-06
2.16331e-06
2.06501e-06
1.9623e-06
1.85596e-06
1.74678e-06
1.63557e-06
1.52311e-06
1.4102e-06
1.29764e-06
1.18621e-06
1.07666e-06
9.69665e-07
8.65809e-07
7.65531e-07
6.69117e-07
5.76685e-07
4.88191e-07
4.03423e-07
3.22018e-07
2.43469e-07
1.6714e-07
9.22883e-08
1.59138e-10
5.96203e-13
5.95799e-13
1.59034e-10
9.22322e-08
1.67041e-07
2.43328e-07
3.21835e-07
4.03198e-07
4.87925e-07
5.7638e-07
6.68774e-07
7.65155e-07
8.65402e-07
9.69231e-07
1.0762e-06
1.18573e-06
1.29715e-06
1.4097e-06
1.5226e-06
1.63506e-06
1.74628e-06
1.85546e-06
1.96182e-06
2.06454e-06
2.16286e-06
2.25601e-06
2.34325e-06
2.42387e-06
2.49724e-06
2.56277e-06
2.61993e-06
2.66827e-06
2.70741e-06
2.73704e-06
2.75693e-06
2.76692e-06
2.76695e-06
2.757e-06
2.73715e-06
2.70757e-06
2.66847e-06
2.62018e-06
2.56306e-06
2.49757e-06
2.42423e-06
2.34364e-06
2.25643e-06
2.16331e-06
2.06501e-06
1.9623e-06
1.85596e-06
1.74678e-06
1.63557e-06
1.52311e-06
1.4102e-06
1.29764e-06
1.18621e-06
1.07666e-06
9.69666e-07
8.65809e-07
7.65531e-07
6.69117e-07
5.76685e-07
4.88191e-07
4.03423e-07
3.22018e-07
2.43469e-07
1.6714e-07
9.22883e-08
1.59138e-10
5.96203e-13
5.95799e-13
1.59034e-10
9.22322e-08
1.67041e-07
2.43328e-07
3.21835e-07
4.03198e-07
4.87925e-07
5.7638e-07
6.68774e-07
7.65155e-07
8.65402e-07
9.69231e-07
1.0762e-06
1.18573e-06
1.29715e-06
1.4097e-06
1.5226e-06
1.63506e-06
1.74628e-06
1.85546e-06
1.96182e-06
2.06454e-06
2.16286e-06
2.25601e-06
2.34325e-06
2.42387e-06
2.49724e-06
2.56277e-06
2.61993e-06
2.66827e-06
2.70741e-06
2.73704e-06
2.75693e-06
2.76692e-06
2.76695e-06
2.757e-06
2.73715e-06
2.70757e-06
2.66847e-06
2.62018e-06
2.56306e-06
2.49757e-06
2.42423e-06
2.34364e-06
2.25643e-06
2.16331e-06
2.06501e-06
1.9623e-06
1.85596e-06
1.74678e-06
1.63557e-06
1.52311e-06
1.4102e-06
1.29764e-06
1.18621e-06
1.07666e-06
9.69666e-07
8.65809e-07
7.65531e-07
6.69117e-07
5.76685e-07
4.88191e-07
4.03423e-07
3.22018e-07
2.43469e-07
1.6714e-07
9.22883e-08
1.59138e-10
5.96203e-13
5.95799e-13
1.59034e-10
9.22322e-08
1.67041e-07
2.43328e-07
3.21835e-07
4.03198e-07
4.87925e-07
5.7638e-07
6.68774e-07
7.65155e-07
8.65402e-07
9.69231e-07
1.0762e-06
1.18573e-06
1.29715e-06
1.4097e-06
1.5226e-06
1.63506e-06