/*--------------------------------*- C++ -*----------------------------------*\
  =========                 |
  \\      /  F ield         | OpenFOAM: The Open Source CFD Toolbox
   \\    /   O peration     | Website:  https://openfoam.org
    \\  /    A nd           | Version:  13
     \\/     M anipulation  |
\*---------------------------------------------------------------------------*/
FoamFile
{
    format      ascii;
    class       volScalarField;
    location    "187.5";
    object      nut;
}
// * * * * * * * * * * * * * * * * * * * * * * * * * * * * * * * * * * * * * //

dimensions      [0 2 -1 0 0 0 0];

internalField   nonuniform List<scalar> 
315000
(
1.60912e-16
4.2157e-14
9.62379e-13
1.72839e-12
2.50842e-12
3.30472e-12
4.11995e-12
4.95648e-12
5.81608e-12
6.69976e-12
7.60769e-12
8.53915e-12
9.49253e-12
1.04654e-11
1.14544e-11
1.24555e-11
1.34641e-11
1.44746e-11
1.54812e-11
1.64775e-11
1.7457e-11
1.84125e-11
1.93373e-11
2.02241e-11
2.1066e-11
2.18563e-11
2.25885e-11
2.32563e-11
2.38542e-11
2.4377e-11
2.48202e-11
2.51799e-11
2.54528e-11
2.56367e-11
2.57299e-11
2.57315e-11
2.56416e-11
2.54609e-11
2.5191e-11
2.48343e-11
2.4394e-11
2.38739e-11
2.32785e-11
2.2613e-11
2.18829e-11
2.10945e-11
2.02541e-11
1.93686e-11
1.84449e-11
1.74901e-11
1.65111e-11
1.5515e-11
1.45083e-11
1.34974e-11
1.24883e-11
1.14863e-11
1.04963e-11
9.52214e-12
8.56731e-12
7.63422e-12
6.7245e-12
5.83887e-12
4.97718e-12
4.1384e-12
3.32073e-12
2.52174e-12
1.73867e-12
9.68973e-13
4.24998e-14
1.62341e-16
4.03156e-15
1.07403e-12
2.44746e-10
4.43046e-10
6.4419e-10
8.49241e-10
1.05911e-09
1.27452e-09
1.49599e-09
1.72382e-09
1.95806e-09
2.19855e-09
2.44486e-09
2.69637e-09
2.95222e-09
3.21135e-09
3.47253e-09
3.73435e-09
3.99527e-09
4.25363e-09
4.50769e-09
4.75564e-09
4.99564e-09
5.22586e-09
5.44446e-09
5.64969e-09
5.83984e-09
6.01332e-09
6.16863e-09
6.30445e-09
6.41957e-09
6.513e-09
6.5839e-09
6.63164e-09
6.6558e-09
6.65616e-09
6.63272e-09
6.58568e-09
6.51547e-09
6.42271e-09
6.30822e-09
6.173e-09
6.01825e-09
5.84528e-09
5.65559e-09
5.45076e-09
5.2325e-09
5.00257e-09
4.76278e-09
4.51499e-09
4.26103e-09
4.0027e-09
3.74174e-09
3.47983e-09
3.2185e-09
2.95916e-09
2.70306e-09
2.45124e-09
2.20458e-09
1.9637e-09
1.72903e-09
1.50074e-09
1.27877e-09
1.06282e-09
8.5237e-10
6.46695e-10
4.44871e-10
2.45818e-10
1.07904e-12
4.05088e-15
1.63062e-14
4.35039e-12
2.52796e-09
4.58194e-09
6.66917e-09
8.80279e-09
1.09943e-08
1.32529e-08
1.55858e-08
1.79973e-08
2.04889e-08
2.30594e-08
2.57048e-08
2.84181e-08
3.11898e-08
3.40079e-08
3.68583e-08
3.97248e-08
4.25895e-08
4.54333e-08
4.8236e-08
5.09768e-08
5.36343e-08
5.61873e-08
5.86148e-08
6.08962e-08
6.30121e-08
6.4944e-08
6.66748e-08
6.81891e-08
6.94733e-08
7.05157e-08
7.13067e-08
7.18393e-08
7.21084e-08
7.21117e-08
7.1849e-08
7.13229e-08
7.0538e-08
6.95017e-08
6.82232e-08
6.67143e-08
6.49885e-08
6.30611e-08
6.09493e-08
5.86713e-08
5.62469e-08
5.36963e-08
5.10406e-08
4.83011e-08
4.5499e-08
4.26552e-08
3.97899e-08
3.69224e-08
3.40704e-08
3.12501e-08
2.84759e-08
2.57596e-08
2.31109e-08
2.05366e-08
1.8041e-08
1.56252e-08
1.32878e-08
1.10243e-08
8.82777e-09
6.68884e-09
4.59599e-09
2.53604e-09
4.36488e-12
1.63615e-14
3.1218e-14
8.32936e-12
4.84124e-09
8.78158e-09
1.27981e-08
1.69215e-08
2.11792e-08
2.5594e-08
3.01838e-08
3.49607e-08
3.99308e-08
4.50939e-08
5.0443e-08
5.59652e-08
6.16408e-08
6.74448e-08
7.33465e-08
7.93108e-08
8.52982e-08
9.12662e-08
9.71697e-08
1.02962e-07
1.08595e-07
1.14021e-07
1.19193e-07
1.24064e-07
1.28589e-07
1.32727e-07
1.3644e-07
1.39692e-07
1.42451e-07
1.44693e-07
1.46395e-07
1.47541e-07
1.48119e-07
1.48125e-07
1.47557e-07
1.46423e-07
1.44732e-07
1.425e-07
1.3975e-07
1.36508e-07
1.32804e-07
1.28673e-07
1.24155e-07
1.1929e-07
1.14123e-07
1.08701e-07
1.03071e-07
9.72803e-08
9.13775e-08
8.54093e-08
7.94206e-08
7.34542e-08
6.75493e-08
6.17414e-08
5.6061e-08
5.05335e-08
4.51783e-08
4.00087e-08
3.50315e-08
3.02472e-08
2.56497e-08
2.12269e-08
1.69609e-08
1.28289e-08
8.8034e-09
4.8537e-09
8.35163e-12
3.13029e-14
4.89959e-14
1.30736e-11
7.59985e-09
1.37932e-08
2.01206e-08
2.66372e-08
3.33921e-08
4.04271e-08
4.77757e-08
5.54614e-08
6.34978e-08
7.18872e-08
8.06208e-08
8.96787e-08
9.90299e-08
1.08633e-07
1.18437e-07
1.28383e-07
1.38403e-07
1.48425e-07
1.58373e-07
1.68164e-07
1.77717e-07
1.86946e-07
1.95766e-07
2.04094e-07
2.11849e-07
2.18954e-07
2.25339e-07
2.30938e-07
2.35697e-07
2.39564e-07
2.42502e-07
2.44481e-07
2.45479e-07
2.45487e-07
2.44504e-07
2.42542e-07
2.39618e-07
2.35765e-07
2.31021e-07
2.25434e-07
2.19061e-07
2.11966e-07
2.04221e-07
1.95901e-07
1.87087e-07
1.77864e-07
1.68315e-07
1.58526e-07
1.48579e-07
1.38556e-07
1.28534e-07
1.18585e-07
1.08776e-07
9.91672e-08
8.98092e-08
8.07437e-08
7.20015e-08
6.3603e-08
5.55568e-08
4.78608e-08
4.05016e-08
3.34556e-08
2.66895e-08
2.01613e-08
1.38219e-08
7.61621e-09
1.31029e-11
4.91076e-14
6.88462e-14
1.83712e-11
1.068e-08
1.93894e-08
2.82994e-08
3.74933e-08
4.70455e-08
5.70199e-08
6.74678e-08
7.84263e-08
8.99174e-08
1.01947e-07
1.14503e-07
1.2756e-07
1.41073e-07
1.54982e-07
1.69213e-07
1.83681e-07
1.98288e-07
2.12929e-07
2.2749e-07
2.41853e-07
2.55894e-07
2.69485e-07
2.82497e-07
2.948e-07
3.06272e-07
3.16795e-07
3.2626e-07
3.34567e-07
3.4163e-07
3.47375e-07
3.51739e-07
3.54678e-07
3.5616e-07
3.5617e-07
3.54707e-07
3.51787e-07
3.47441e-07
3.41715e-07
3.34668e-07
3.26377e-07
3.16927e-07
3.06417e-07
2.94956e-07
2.82662e-07
2.69659e-07
2.56074e-07
2.42037e-07
2.27677e-07
2.13116e-07
1.98475e-07
1.83866e-07
1.69394e-07
1.55156e-07
1.4124e-07
1.27719e-07
1.14653e-07
1.02086e-07
9.00453e-08
7.85421e-08
6.7571e-08
5.711e-08
4.71222e-08
3.75562e-08
2.83483e-08
1.94238e-08
1.06996e-08
1.84063e-11
6.89802e-14
8.9552e-14
2.38974e-11
1.38925e-08
2.52248e-08
3.68264e-08
4.88097e-08
6.12756e-08
7.43104e-08
8.79839e-08
1.02347e-07
1.17429e-07
1.33238e-07
1.49762e-07
1.66963e-07
1.84783e-07
2.03144e-07
2.21946e-07
2.41074e-07
2.604e-07
2.79785e-07
2.99079e-07
3.18125e-07
3.36757e-07
3.54802e-07
3.72087e-07
3.88439e-07
4.0369e-07
4.17684e-07
4.30273e-07
4.41324e-07
4.50722e-07
4.58365e-07
4.64172e-07
4.68082e-07
4.70053e-07
4.70064e-07
4.68115e-07
4.64226e-07
4.5844e-07
4.50817e-07
4.41439e-07
4.30405e-07
4.17832e-07
4.03854e-07
3.88615e-07
3.72274e-07
3.54999e-07
3.36961e-07
3.18334e-07
2.99291e-07
2.79998e-07
2.60612e-07
2.41283e-07
2.2215e-07
2.03342e-07
1.84974e-07
1.67144e-07
1.49932e-07
1.33396e-07
1.17574e-07
1.02478e-07
8.81007e-08
7.44123e-08
6.13622e-08
4.88807e-08
3.68814e-08
2.52635e-08
1.39145e-08
2.39368e-11
8.97029e-14
1.09913e-13
2.93317e-11
1.7051e-08
3.09605e-08
4.52052e-08
5.99259e-08
7.52489e-08
9.12822e-08
1.08113e-07
1.25804e-07
1.44392e-07
1.63888e-07
1.84273e-07
2.05502e-07
2.275e-07
2.50169e-07
2.73384e-07
2.97003e-07
3.20864e-07
3.44797e-07
3.68616e-07
3.92128e-07
4.15127e-07
4.374e-07
4.58731e-07
4.78908e-07
4.97723e-07
5.14984e-07
5.30509e-07
5.44135e-07
5.5572e-07
5.6514e-07
5.72297e-07
5.77114e-07
5.79541e-07
5.79553e-07
5.77149e-07
5.72355e-07
5.65221e-07
5.55822e-07
5.44258e-07
5.30651e-07
5.15144e-07
4.97899e-07
4.79097e-07
4.58933e-07
4.37612e-07
4.15347e-07
3.92353e-07
3.68845e-07
3.45026e-07
3.21093e-07
2.97229e-07
2.73605e-07
2.50383e-07
2.27706e-07
2.05697e-07
1.84457e-07
1.64059e-07
1.44549e-07
1.25946e-07
1.08239e-07
9.13922e-08
7.53422e-08
6.00023e-08
4.52643e-08
3.10021e-08
1.70745e-08
2.9374e-11
1.10075e-13
1.28947e-13
3.44123e-11
2.00033e-08
3.63205e-08
5.3033e-08
7.0308e-08
8.8295e-08
1.07122e-07
1.26891e-07
1.47676e-07
1.69521e-07
1.92435e-07
2.16397e-07
2.41349e-07
2.67203e-07
2.9384e-07
3.21111e-07
3.48846e-07
3.76856e-07
4.04938e-07
4.32877e-07
4.60444e-07
4.87399e-07
5.13493e-07
5.38473e-07
5.62092e-07
5.8411e-07
6.043e-07
6.22454e-07
6.38383e-07
6.51921e-07
6.62927e-07
6.71286e-07
6.76912e-07
6.79746e-07
6.79758e-07
6.76949e-07
6.71347e-07
6.63011e-07
6.52027e-07
6.3851e-07
6.22601e-07
6.04466e-07
5.84292e-07
5.6229e-07
5.38683e-07
5.13713e-07
4.87628e-07
4.60678e-07
4.33115e-07
4.05178e-07
3.77095e-07
3.49082e-07
3.21342e-07
2.94064e-07
2.67418e-07
2.41553e-07
2.16589e-07
1.92614e-07
1.69685e-07
1.47825e-07
1.27023e-07
1.07237e-07
8.83923e-08
7.03874e-08
5.30944e-08
3.63636e-08
2.00277e-08
3.44563e-11
1.29116e-13
1.4596e-13
3.89535e-11
2.26418e-08
4.11098e-08
6.00258e-08
7.95804e-08
9.99439e-08
1.21261e-07
1.43648e-07
1.67188e-07
1.91929e-07
2.1788e-07
2.45016e-07
2.73268e-07
3.02535e-07
3.32677e-07
3.63525e-07
3.94883e-07
4.26538e-07
4.58258e-07
4.89802e-07
5.2091e-07
5.51313e-07
5.8073e-07
6.0888e-07
6.35483e-07
6.60273e-07
6.82996e-07
7.0342e-07
7.21335e-07
7.36556e-07
7.48928e-07
7.58323e-07
7.64644e-07
7.67827e-07
7.6784e-07
7.64681e-07
7.58384e-07
7.49013e-07
7.36664e-07
7.21464e-07
7.0357e-07
6.83164e-07
6.60458e-07
6.35684e-07
6.09093e-07
5.80954e-07
5.51545e-07
5.21148e-07
4.90043e-07
4.58502e-07
4.26781e-07
3.95123e-07
3.6376e-07
3.32905e-07
3.02754e-07
2.73477e-07
2.45212e-07
2.18063e-07
1.92096e-07
1.6734e-07
1.43783e-07
1.21378e-07
1.00043e-07
7.96611e-08
6.0088e-08
4.11534e-08
2.26665e-08
3.89982e-11
1.46131e-13
1.60546e-13
4.28473e-11
2.4904e-08
4.52152e-08
6.60192e-08
8.75266e-08
1.09925e-07
1.33374e-07
1.58002e-07
1.83898e-07
2.11114e-07
2.3966e-07
2.69504e-07
3.00571e-07
3.32744e-07
3.65868e-07
3.99755e-07
4.34188e-07
4.6893e-07
5.03728e-07
5.38315e-07
5.72409e-07
6.05715e-07
6.37927e-07
6.68738e-07
6.97845e-07
7.24956e-07
7.49799e-07
7.72122e-07
7.91696e-07
8.08323e-07
8.21835e-07
8.32093e-07
8.38994e-07
8.42469e-07
8.42481e-07
8.39031e-07
8.32154e-07
8.2192e-07
8.08431e-07
7.91825e-07
7.72271e-07
7.49968e-07
7.25142e-07
6.98045e-07
6.68951e-07
6.38151e-07
6.05947e-07
5.72647e-07
5.38557e-07
5.03972e-07
4.69173e-07
4.34429e-07
3.99991e-07
3.66097e-07
3.32964e-07
3.0078e-07
2.69701e-07
2.39844e-07
2.11282e-07
1.8405e-07
1.58136e-07
1.33491e-07
1.10024e-07
8.76071e-08
6.60813e-08
4.52586e-08
2.49285e-08
4.28918e-11
1.60717e-13
1.72566e-13
4.60566e-11
2.67683e-08
4.85984e-08
7.09579e-08
9.40741e-08
1.18149e-07
1.43354e-07
1.69827e-07
1.97663e-07
2.26917e-07
2.57599e-07
2.89671e-07
3.2305e-07
3.57611e-07
3.93183e-07
4.29561e-07
4.66512e-07
5.0378e-07
5.41093e-07
5.78165e-07
6.14694e-07
6.50365e-07
6.84851e-07
7.17826e-07
7.48967e-07
7.77964e-07
8.04527e-07
8.28388e-07
8.49307e-07
8.67073e-07
8.81507e-07
8.92464e-07
8.99834e-07
9.03544e-07
9.03557e-07
8.99871e-07
8.92525e-07
8.81591e-07
8.6718e-07
8.49435e-07
8.28536e-07
8.04694e-07
7.78148e-07
7.49165e-07
7.18038e-07
6.85074e-07
6.50595e-07
6.14931e-07
5.78405e-07
5.41335e-07
5.04022e-07
4.66751e-07
4.29795e-07
3.9341e-07
3.57829e-07
3.23258e-07
2.89866e-07
2.57781e-07
2.27084e-07
1.97814e-07
1.6996e-07
1.4347e-07
1.18247e-07
9.41536e-08
7.10192e-08
4.86412e-08
2.67926e-08
4.61006e-11
1.72735e-13
1.82102e-13
4.8603e-11
2.82476e-08
5.12826e-08
7.48762e-08
9.92688e-08
1.24674e-07
1.51273e-07
1.7921e-07
2.08586e-07
2.39458e-07
2.71834e-07
3.05674e-07
3.40888e-07
3.77342e-07
4.14854e-07
4.53206e-07
4.9215e-07
5.31416e-07
5.70717e-07
6.09751e-07
6.48202e-07
6.85738e-07
7.22018e-07
7.56697e-07
7.89438e-07
8.19919e-07
8.47834e-07
8.72905e-07
8.94881e-07
9.13541e-07
9.287e-07
9.40206e-07
9.47945e-07
9.5184e-07
9.51852e-07
9.47981e-07
9.40266e-07
9.28783e-07
9.13647e-07
8.95007e-07
8.73051e-07
8.47999e-07
8.201e-07
7.89634e-07
7.56905e-07
7.22237e-07
6.85966e-07
6.48436e-07
6.09989e-07
5.70956e-07
5.31654e-07
4.92386e-07
4.53437e-07
4.15078e-07
3.77558e-07
3.41094e-07
3.05867e-07
2.72014e-07
2.39623e-07
2.08735e-07
1.79342e-07
1.51387e-07
1.2477e-07
9.9347e-08
7.49363e-08
5.13246e-08
2.82713e-08
4.86461e-11
1.82268e-13
1.89393e-13
5.05502e-11
2.93789e-08
5.33353e-08
7.78728e-08
1.03242e-07
1.29665e-07
1.57331e-07
1.86389e-07
2.16945e-07
2.49056e-07
2.8273e-07
3.17925e-07
3.54545e-07
3.92449e-07
4.31447e-07
4.7131e-07
5.1178e-07
5.52574e-07
5.93396e-07
6.3393e-07
6.7385e-07
7.12811e-07
7.50459e-07
7.86438e-07
8.20401e-07
8.52013e-07
8.8096e-07
9.06954e-07
9.29735e-07
9.49077e-07
9.64788e-07
9.76712e-07
9.84731e-07
9.88767e-07
9.88779e-07
9.84767e-07
9.76771e-07
9.6487e-07
9.49181e-07
9.29859e-07
9.07098e-07
8.81122e-07
8.52192e-07
8.20595e-07
7.86644e-07
7.50674e-07
7.13035e-07
6.7408e-07
6.34164e-07
5.93631e-07
5.52809e-07
5.12012e-07
4.71538e-07
4.31668e-07
3.92662e-07
3.54748e-07
3.18116e-07
2.82908e-07
2.49219e-07
2.17092e-07
1.86519e-07
1.57443e-07
1.2976e-07
1.03319e-07
7.79318e-08
5.33764e-08
2.94021e-08
5.05925e-11
1.89556e-13
1.94771e-13
5.1987e-11
3.02137e-08
5.48501e-08
8.00844e-08
1.06175e-07
1.3335e-07
1.61804e-07
1.91692e-07
2.2312e-07
2.56148e-07
2.90784e-07
3.26981e-07
3.64643e-07
4.03621e-07
4.43719e-07
4.84702e-07
5.26301e-07
5.68228e-07
6.10175e-07
6.5182e-07
6.92827e-07
7.32841e-07
7.71502e-07
8.08444e-07
8.43311e-07
8.75759e-07
9.05468e-07
9.32144e-07
9.5552e-07
9.75366e-07
9.91485e-07
1.00372e-06
1.01194e-06
1.01608e-06
1.0161e-06
1.01198e-06
1.00378e-06
9.91566e-07
9.75469e-07
9.55643e-07
9.32286e-07
9.05628e-07
8.75935e-07
8.43501e-07
8.08647e-07
7.71715e-07
7.33063e-07
6.93054e-07
6.52051e-07
6.10407e-07
5.6846e-07
5.26531e-07
4.84927e-07
4.43938e-07
4.03831e-07
3.64843e-07
3.27169e-07
2.90958e-07
2.56308e-07
2.23265e-07
1.9182e-07
1.61915e-07
1.33443e-07
1.0625e-07
8.01423e-08
5.48905e-08
3.02364e-08
5.20285e-11
1.94932e-13
1.98604e-13
5.30111e-11
3.08087e-08
5.59301e-08
8.16613e-08
1.08266e-07
1.35978e-07
1.64996e-07
1.95476e-07
2.27528e-07
2.61213e-07
2.96536e-07
3.33452e-07
3.7186e-07
4.11608e-07
4.52495e-07
4.9428e-07
5.3669e-07
5.79428e-07
6.22183e-07
6.64625e-07
7.0641e-07
7.47181e-07
7.86568e-07
8.242e-07
8.59714e-07
8.92762e-07
9.23019e-07
9.50183e-07
9.73986e-07
9.94194e-07
1.01061e-06
1.02306e-06
1.03144e-06
1.03565e-06
1.03566e-06
1.03147e-06
1.02312e-06
1.01069e-06
9.94295e-07
9.74108e-07
9.50324e-07
9.23177e-07
8.92937e-07
8.59902e-07
8.244e-07
7.86778e-07
7.474e-07
7.06635e-07
6.64853e-07
6.22413e-07
5.79658e-07
5.36917e-07
4.94503e-07
4.52711e-07
4.11816e-07
3.72058e-07
3.33638e-07
2.96709e-07
2.61371e-07
2.27671e-07
1.95602e-07
1.65105e-07
1.3607e-07
1.0834e-07
8.17183e-08
5.59698e-08
3.08311e-08
5.3052e-11
1.98763e-13
2.01245e-13
5.37169e-11
3.12189e-08
5.66745e-08
8.27485e-08
1.09708e-07
1.37791e-07
1.67198e-07
1.98088e-07
2.30572e-07
2.64711e-07
3.00512e-07
3.37926e-07
3.76852e-07
4.17134e-07
4.58569e-07
5.00911e-07
5.43883e-07
5.87186e-07
6.30501e-07
6.73497e-07
7.15825e-07
7.57121e-07
7.97012e-07
8.35124e-07
8.71089e-07
9.04555e-07
9.35191e-07
9.62696e-07
9.86796e-07
1.00726e-06
1.02387e-06
1.03648e-06
1.04496e-06
1.04922e-06
1.04924e-06
1.04499e-06
1.03654e-06
1.02395e-06
1.00736e-06
9.86917e-07
9.62835e-07
9.35348e-07
9.04728e-07
8.71276e-07
8.35323e-07
7.97221e-07
7.57338e-07
7.16047e-07
6.73723e-07
6.30729e-07
5.87414e-07
5.44109e-07
5.01132e-07
4.58783e-07
4.1734e-07
3.77048e-07
3.3811e-07
3.00683e-07
2.64868e-07
2.30714e-07
1.98213e-07
1.67306e-07
1.37882e-07
1.09782e-07
8.28049e-08
5.67138e-08
3.1241e-08
5.37573e-11
2.01402e-13
2.03007e-13
5.41877e-11
3.14926e-08
5.71714e-08
8.34742e-08
1.10671e-07
1.39002e-07
1.6867e-07
1.99834e-07
2.32608e-07
2.67052e-07
3.03172e-07
3.40921e-07
3.80195e-07
4.20836e-07
4.6264e-07
5.05357e-07
5.48709e-07
5.92392e-07
6.36085e-07
6.79454e-07
7.22147e-07
7.63798e-07
8.0403e-07
8.42466e-07
8.78735e-07
9.12482e-07
9.43375e-07
9.7111e-07
9.95411e-07
1.01604e-06
1.03279e-06
1.0455e-06
1.05405e-06
1.05835e-06
1.05837e-06
1.05409e-06
1.04556e-06
1.03287e-06
1.01614e-06
9.9553e-07
9.71248e-07
9.43531e-07
9.12654e-07
8.7892e-07
8.42663e-07
8.04238e-07
7.64013e-07
7.22368e-07
6.79679e-07
6.36312e-07
5.92618e-07
5.48933e-07
5.05577e-07
4.62853e-07
4.21041e-07
3.8039e-07
3.41104e-07
3.03342e-07
2.67208e-07
2.32748e-07
1.99958e-07
1.68777e-07
1.39092e-07
1.10744e-07
8.35302e-08
5.72103e-08
3.15146e-08
5.42279e-11
2.03162e-13
2.04146e-13
5.44922e-11
3.16696e-08
5.74927e-08
8.39436e-08
1.11294e-07
1.39786e-07
1.69622e-07
2.00965e-07
2.33927e-07
2.68569e-07
3.04898e-07
3.42865e-07
3.82365e-07
4.23241e-07
4.65285e-07
5.08248e-07
5.51848e-07
5.95779e-07
6.39719e-07
6.83332e-07
7.26265e-07
7.68147e-07
8.08603e-07
8.47251e-07
8.83719e-07
9.17651e-07
9.48713e-07
9.76597e-07
1.00103e-06
1.02177e-06
1.03861e-06
1.05139e-06
1.05999e-06
1.06431e-06
1.06432e-06
1.06002e-06
1.05145e-06
1.03869e-06
1.02187e-06
1.00115e-06
9.76735e-07
9.48868e-07
9.17822e-07
8.83904e-07
8.47447e-07
8.0881e-07
7.68362e-07
7.26485e-07
6.83556e-07
6.39945e-07
5.96004e-07
5.5207e-07
5.08467e-07
4.65498e-07
4.23446e-07
3.8256e-07
3.43048e-07
3.05068e-07
2.68724e-07
2.34067e-07
2.01089e-07
1.69729e-07
1.39876e-07
1.11367e-07
8.39993e-08
5.75314e-08
3.16914e-08
5.45321e-11
2.043e-13
2.04859e-13
5.4683e-11
3.17806e-08
5.76942e-08
8.42381e-08
1.11685e-07
1.40278e-07
1.70221e-07
2.01676e-07
2.34756e-07
2.69523e-07
3.05984e-07
3.44089e-07
3.83733e-07
4.24757e-07
4.66954e-07
5.10072e-07
5.53828e-07
5.97917e-07
6.42015e-07
6.85783e-07
7.28867e-07
7.70898e-07
8.11495e-07
8.50278e-07
8.86873e-07
9.20922e-07
9.52091e-07
9.80072e-07
1.00459e-06
1.0254e-06
1.0423e-06
1.05512e-06
1.06375e-06
1.06809e-06
1.0681e-06
1.06378e-06
1.05518e-06
1.04238e-06
1.0255e-06
1.00471e-06
9.8021e-07
9.52246e-07
9.21093e-07
8.87057e-07
8.50474e-07
8.11701e-07
7.71112e-07
7.29087e-07
6.86007e-07
6.4224e-07
5.98142e-07
5.54051e-07
5.1029e-07
4.67166e-07
4.24961e-07
3.83927e-07
3.44271e-07
3.06153e-07
2.69678e-07
2.34896e-07
2.01799e-07
1.70327e-07
1.40367e-07
1.11758e-07
8.42936e-08
5.77328e-08
3.18023e-08
5.47228e-11
2.05013e-13
2.05294e-13
5.47992e-11
3.18481e-08
5.78169e-08
8.44175e-08
1.11923e-07
1.40578e-07
1.70586e-07
2.02109e-07
2.35262e-07
2.70106e-07
3.06648e-07
3.44837e-07
3.84569e-07
4.25685e-07
4.67976e-07
5.11189e-07
5.55043e-07
5.99229e-07
6.43423e-07
6.87287e-07
7.30466e-07
7.72587e-07
8.13272e-07
8.52138e-07
8.88812e-07
9.22934e-07
9.54169e-07
9.82209e-07
1.00678e-06
1.02763e-06
1.04457e-06
1.05742e-06
1.06606e-06
1.07041e-06
1.07042e-06
1.0661e-06
1.05748e-06
1.04465e-06
1.02773e-06
1.0069e-06
9.82347e-07
9.54324e-07
9.23104e-07
8.88996e-07
8.52334e-07
8.13478e-07
7.72801e-07
7.30685e-07
6.87511e-07
6.43648e-07
5.99453e-07
5.55265e-07
5.11407e-07
4.68187e-07
4.25889e-07
3.84763e-07
3.45019e-07
3.06817e-07
2.70261e-07
2.35402e-07
2.02232e-07
1.70692e-07
1.40667e-07
1.11996e-07
8.44728e-08
5.78554e-08
3.18698e-08
5.48389e-11
2.05447e-13
2.0555e-13
5.48679e-11
3.18881e-08
5.78895e-08
8.45236e-08
1.12064e-07
1.40755e-07
1.70802e-07
2.02366e-07
2.35563e-07
2.70452e-07
3.07042e-07
3.45282e-07
3.85067e-07
4.26237e-07
4.68584e-07
5.11855e-07
5.55766e-07
6.00011e-07
6.44263e-07
6.88185e-07
7.31419e-07
7.73596e-07
8.14333e-07
8.5325e-07
8.8997e-07
9.24137e-07
9.55412e-07
9.83488e-07
1.00809e-06
1.02897e-06
1.04593e-06
1.05879e-06
1.06745e-06
1.0718e-06
1.07181e-06
1.06748e-06
1.05885e-06
1.046e-06
1.02907e-06
1.00821e-06
9.83625e-07
9.55566e-07
9.24307e-07
8.90154e-07
8.53446e-07
8.14539e-07
7.73809e-07
7.31639e-07
6.88408e-07
6.44488e-07
6.00235e-07
5.55988e-07
5.12072e-07
4.68795e-07
4.2644e-07
3.8526e-07
3.45464e-07
3.07211e-07
2.70607e-07
2.35702e-07
2.02489e-07
1.70908e-07
1.40845e-07
1.12137e-07
8.45789e-08
5.79279e-08
3.19098e-08
5.49075e-11
2.05704e-13
2.05698e-13
5.49074e-11
3.19111e-08
5.79312e-08
8.45847e-08
1.12146e-07
1.40857e-07
1.70926e-07
2.02514e-07
2.35736e-07
2.70652e-07
3.07269e-07
3.45539e-07
3.85354e-07
4.26556e-07
4.68936e-07
5.1224e-07
5.56185e-07
6.00464e-07
6.4475e-07
6.88706e-07
7.31973e-07
7.74181e-07
8.1495e-07
8.53896e-07
8.90644e-07
9.24836e-07
9.56134e-07
9.84231e-07
1.00885e-06
1.02975e-06
1.04672e-06
1.05959e-06
1.06825e-06
1.07261e-06
1.07262e-06
1.06829e-06
1.05965e-06
1.04679e-06
1.02984e-06
1.00897e-06
9.84368e-07
9.56289e-07
9.25006e-07
8.90828e-07
8.54092e-07
8.15156e-07
7.74395e-07
7.32192e-07
6.88928e-07
6.44975e-07
6.00688e-07
5.56407e-07
5.12458e-07
4.69147e-07
4.2676e-07
3.85548e-07
3.4572e-07
3.07438e-07
2.70806e-07
2.35875e-07
2.02637e-07
1.71033e-07
1.40947e-07
1.12218e-07
8.46399e-08
5.79697e-08
3.19328e-08
5.4947e-11
2.05852e-13
2.05781e-13
5.49295e-11
3.1924e-08
5.79546e-08
8.46189e-08
1.12191e-07
1.40915e-07
1.70996e-07
2.02598e-07
2.35833e-07
2.70764e-07
3.07397e-07
3.45683e-07
3.85516e-07
4.26736e-07
4.69134e-07
5.12457e-07
5.56422e-07
6.0072e-07
6.45026e-07
6.89e-07
7.32286e-07
7.74513e-07
8.15299e-07
8.54261e-07
8.91025e-07
9.25231e-07
9.56543e-07
9.84652e-07
1.00928e-06
1.03019e-06
1.04716e-06
1.06005e-06
1.06871e-06
1.07307e-06
1.07308e-06
1.06874e-06
1.0601e-06
1.04724e-06
1.03028e-06
1.0094e-06
9.84789e-07
9.56698e-07
9.25401e-07
8.91209e-07
8.54457e-07
8.15504e-07
7.74726e-07
7.32505e-07
6.89223e-07
6.4525e-07
6.00944e-07
5.56644e-07
5.12675e-07
4.69345e-07
4.26939e-07
3.85709e-07
3.45865e-07
3.07566e-07
2.70918e-07
2.35972e-07
2.0272e-07
1.71102e-07
1.41004e-07
1.12263e-07
8.46741e-08
5.7993e-08
3.19456e-08
5.49691e-11
2.05934e-13
2.05825e-13
5.49415e-11
3.1931e-08
5.79673e-08
8.46375e-08
1.12216e-07
1.40946e-07
1.71034e-07
2.02643e-07
2.35886e-07
2.70825e-07
3.07467e-07
3.45762e-07
3.85605e-07
4.26835e-07
4.69243e-07
5.12577e-07
5.56552e-07
6.0086e-07
6.45177e-07
6.89161e-07
7.32458e-07
7.74695e-07
8.15491e-07
8.54462e-07
8.91235e-07
9.2545e-07
9.56769e-07
9.84884e-07
1.00952e-06
1.03043e-06
1.04741e-06
1.0603e-06
1.06896e-06
1.07332e-06
1.07333e-06
1.06899e-06
1.06035e-06
1.04749e-06
1.03053e-06
1.00964e-06
9.85021e-07
9.56923e-07
9.2562e-07
8.91419e-07
8.54658e-07
8.15696e-07
7.74908e-07
7.32677e-07
6.89384e-07
6.45401e-07
6.01084e-07
5.56773e-07
5.12794e-07
4.69454e-07
4.27038e-07
3.85798e-07
3.45944e-07
3.07636e-07
2.7098e-07
2.36025e-07
2.02766e-07
1.7114e-07
1.41035e-07
1.12288e-07
8.46928e-08
5.80058e-08
3.19526e-08
5.49812e-11
2.05979e-13
2.05849e-13
5.49479e-11
3.19347e-08
5.79741e-08
8.46474e-08
1.12229e-07
1.40963e-07
1.71054e-07
2.02667e-07
2.35914e-07
2.70858e-07
3.07504e-07
3.45804e-07
3.85652e-07
4.26887e-07
4.69301e-07
5.1264e-07
5.56621e-07
6.00935e-07
6.45258e-07
6.89248e-07
7.3255e-07
7.74793e-07
8.15594e-07
8.54571e-07
8.91348e-07
9.25567e-07
9.5689e-07
9.85009e-07
1.00965e-06
1.03056e-06
1.04754e-06
1.06043e-06
1.0691e-06
1.07346e-06
1.07347e-06
1.06913e-06
1.06049e-06
1.04762e-06
1.03066e-06
1.00976e-06
9.85146e-07
9.57045e-07
9.25737e-07
8.91532e-07
8.54766e-07
8.15799e-07
7.75006e-07
7.3277e-07
6.89471e-07
6.45482e-07
6.01159e-07
5.56843e-07
5.12858e-07
4.69512e-07
4.27091e-07
3.85845e-07
3.45986e-07
3.07673e-07
2.71012e-07
2.36053e-07
2.0279e-07
1.71161e-07
1.41052e-07
1.12301e-07
8.47027e-08
5.80125e-08
3.19563e-08
5.49875e-11
2.06003e-13
2.05862e-13
5.49512e-11
3.19366e-08
5.79776e-08
8.46525e-08
1.12236e-07
1.40971e-07
1.71065e-07
2.0268e-07
2.35929e-07
2.70875e-07
3.07524e-07
3.45826e-07
3.85677e-07
4.26915e-07
4.69331e-07
5.12674e-07
5.56657e-07
6.00975e-07
6.453e-07
6.89294e-07
7.32599e-07
7.74844e-07
8.15648e-07
8.54627e-07
8.91407e-07
9.25628e-07
9.56954e-07
9.85075e-07
1.00971e-06
1.03063e-06
1.04761e-06
1.0605e-06
1.06917e-06
1.07353e-06
1.07354e-06
1.0692e-06
1.06056e-06
1.04769e-06
1.03073e-06
1.00983e-06
9.85212e-07
9.57108e-07
9.25798e-07
8.91591e-07
8.54823e-07
8.15853e-07
7.75057e-07
7.32818e-07
6.89516e-07
6.45525e-07
6.01199e-07
5.56879e-07
5.12891e-07
4.69542e-07
4.27118e-07
3.8587e-07
3.46008e-07
3.07693e-07
2.71029e-07
2.36068e-07
2.02803e-07
1.71171e-07
1.41061e-07
1.12308e-07
8.47078e-08
5.8016e-08
3.19583e-08
5.49908e-11
2.06015e-13
2.05868e-13
5.49529e-11
3.19376e-08
5.79794e-08
8.46551e-08
1.12239e-07
1.40976e-07
1.7107e-07
2.02686e-07
2.35937e-07
2.70884e-07
3.07534e-07
3.45837e-07
3.85689e-07
4.26929e-07
4.69347e-07
5.12691e-07
5.56676e-07
6.00995e-07
6.45322e-07
6.89317e-07
7.32623e-07
7.7487e-07
8.15675e-07
8.54656e-07
8.91437e-07
9.2566e-07
9.56986e-07
9.85108e-07
1.00975e-06
1.03066e-06
1.04765e-06
1.06054e-06
1.0692e-06
1.07356e-06
1.07357e-06
1.06924e-06
1.06059e-06
1.04773e-06
1.03076e-06
1.00987e-06
9.85245e-07
9.57141e-07
9.2583e-07
8.91621e-07
8.54852e-07
8.15881e-07
7.75083e-07
7.32842e-07
6.8954e-07
6.45546e-07
6.01219e-07
5.56898e-07
5.12908e-07
4.69558e-07
4.27132e-07
3.85883e-07
3.46019e-07
3.07702e-07
2.71038e-07
2.36076e-07
2.02809e-07
1.71177e-07
1.41065e-07
1.12312e-07
8.47104e-08
5.80178e-08
3.19592e-08
5.49925e-11
2.06021e-13
2.05871e-13
5.49537e-11
3.19381e-08
5.79803e-08
8.46564e-08
1.12241e-07
1.40978e-07
1.71073e-07
2.02689e-07
2.3594e-07
2.70888e-07
3.07539e-07
3.45843e-07
3.85695e-07
4.26936e-07
4.69354e-07
5.12699e-07
5.56685e-07
6.01005e-07
6.45332e-07
6.89328e-07
7.32636e-07
7.74883e-07
8.15689e-07
8.5467e-07
8.91452e-07
9.25675e-07
9.57002e-07
9.85125e-07
1.00976e-06
1.03068e-06
1.04767e-06
1.06055e-06
1.06922e-06
1.07358e-06
1.07359e-06
1.06926e-06
1.06061e-06
1.04774e-06
1.03078e-06
1.00988e-06
9.85262e-07
9.57157e-07
9.25845e-07
8.91636e-07
8.54866e-07
8.15895e-07
7.75096e-07
7.32855e-07
6.89551e-07
6.45557e-07
6.01229e-07
5.56907e-07
5.12916e-07
4.69566e-07
4.27139e-07
3.85889e-07
3.46025e-07
3.07707e-07
2.71042e-07
2.36079e-07
2.02812e-07
1.71179e-07
1.41067e-07
1.12313e-07
8.47117e-08
5.80187e-08
3.19597e-08
5.49933e-11
2.06024e-13
2.05872e-13
5.49541e-11
3.19383e-08
5.79807e-08
8.4657e-08
1.12242e-07
1.40979e-07
1.71074e-07
2.02691e-07
2.35942e-07
2.7089e-07
3.07541e-07
3.45846e-07
3.85698e-07
4.26939e-07
4.69358e-07
5.12703e-07
5.5669e-07
6.01009e-07
6.45338e-07
6.89334e-07
7.32641e-07
7.74889e-07
8.15696e-07
8.54678e-07
8.9146e-07
9.25683e-07
9.5701e-07
9.85133e-07
1.00977e-06
1.03069e-06
1.04767e-06
1.06056e-06
1.06923e-06
1.07359e-06
1.0736e-06
1.06926e-06
1.06062e-06
1.04775e-06
1.03079e-06
1.00989e-06
9.8527e-07
9.57165e-07
9.25853e-07
8.91644e-07
8.54873e-07
8.15901e-07
7.75103e-07
7.32861e-07
6.89557e-07
6.45562e-07
6.01234e-07
5.56911e-07
5.12921e-07
4.69569e-07
4.27142e-07
3.85892e-07
3.46027e-07
3.0771e-07
2.71044e-07
2.36081e-07
2.02814e-07
1.7118e-07
1.41068e-07
1.12314e-07
8.47123e-08
5.80191e-08
3.19599e-08
5.49937e-11
2.06026e-13
2.05873e-13
5.49543e-11
3.19384e-08
5.79809e-08
8.46573e-08
1.12242e-07
1.40979e-07
1.71075e-07
2.02691e-07
2.35943e-07
2.70891e-07
3.07542e-07
3.45847e-07
3.857e-07
4.26941e-07
4.6936e-07
5.12705e-07
5.56692e-07
6.01012e-07
6.4534e-07
6.89336e-07
7.32644e-07
7.74892e-07
8.15699e-07
8.54681e-07
8.91463e-07
9.25687e-07
9.57014e-07
9.85137e-07
1.00978e-06
1.03069e-06
1.04768e-06
1.06057e-06
1.06923e-06
1.07359e-06
1.07361e-06
1.06927e-06
1.06062e-06
1.04776e-06
1.03079e-06
1.0099e-06
9.85274e-07
9.57168e-07
9.25857e-07
8.91647e-07
8.54877e-07
8.15904e-07
7.75106e-07
7.32864e-07
6.89559e-07
6.45565e-07
6.01236e-07
5.56913e-07
5.12922e-07
4.69571e-07
4.27144e-07
3.85893e-07
3.46029e-07
3.07711e-07
2.71045e-07
2.36082e-07
2.02814e-07
1.71181e-07
1.41069e-07
1.12314e-07
8.47126e-08
5.80193e-08
3.19601e-08
5.49939e-11
2.06027e-13
2.05873e-13
5.49544e-11
3.19385e-08
5.7981e-08
8.46574e-08
1.12242e-07
1.4098e-07
1.71075e-07
2.02692e-07
2.35943e-07
2.70891e-07
3.07543e-07
3.45848e-07
3.857e-07
4.26941e-07
4.69361e-07
5.12706e-07
5.56693e-07
6.01013e-07
6.45341e-07
6.89338e-07
7.32646e-07
7.74894e-07
8.157e-07
8.54682e-07
8.91465e-07
9.25688e-07
9.57016e-07
9.85139e-07
1.00978e-06
1.03069e-06
1.04768e-06
1.06057e-06
1.06924e-06
1.0736e-06
1.07361e-06
1.06927e-06
1.06063e-06
1.04776e-06
1.03079e-06
1.0099e-06
9.85276e-07
9.5717e-07
9.25858e-07
8.91649e-07
8.54878e-07
8.15906e-07
7.75107e-07
7.32865e-07
6.89561e-07
6.45566e-07
6.01237e-07
5.56914e-07
5.12923e-07
4.69572e-07
4.27145e-07
3.85894e-07
3.46029e-07
3.07711e-07
2.71046e-07
2.36082e-07
2.02815e-07
1.71181e-07
1.41069e-07
1.12315e-07
8.47127e-08
5.80194e-08
3.19601e-08
5.4994e-11
2.06027e-13
2.05874e-13
5.49544e-11
3.19385e-08
5.7981e-08
8.46575e-08
1.12242e-07
1.4098e-07
1.71075e-07
2.02692e-07
2.35943e-07
2.70891e-07
3.07543e-07
3.45848e-07
3.85701e-07
4.26942e-07
4.69361e-07
5.12706e-07
5.56693e-07
6.01013e-07
6.45342e-07
6.89338e-07
7.32646e-07
7.74894e-07
8.15701e-07
8.54683e-07
8.91466e-07
9.25689e-07
9.57017e-07
9.85139e-07
1.00978e-06
1.0307e-06
1.04768e-06
1.06057e-06
1.06924e-06
1.0736e-06
1.07361e-06
1.06927e-06
1.06063e-06
1.04776e-06
1.03079e-06
1.0099e-06
9.85277e-07
9.57171e-07
9.25859e-07
8.91649e-07
8.54879e-07
8.15907e-07
7.75108e-07
7.32865e-07
6.89561e-07
6.45566e-07
6.01237e-07
5.56915e-07
5.12924e-07
4.69572e-07
4.27145e-07
3.85894e-07
3.4603e-07
3.07712e-07
2.71046e-07
2.36082e-07
2.02815e-07
1.71181e-07
1.41069e-07
1.12315e-07
8.47128e-08
5.80194e-08
3.19601e-08
5.4994e-11
2.06027e-13
2.05874e-13
5.49544e-11
3.19385e-08
5.7981e-08
8.46575e-08
1.12242e-07
1.4098e-07
1.71075e-07
2.02692e-07
2.35943e-07
2.70892e-07
3.07543e-07
3.45848e-07
3.85701e-07
4.26942e-07
4.69361e-07
5.12707e-07
5.56693e-07
6.01014e-07
6.45342e-07
6.89338e-07
7.32647e-07
7.74895e-07
8.15701e-07
8.54683e-07
8.91466e-07
9.25689e-07
9.57017e-07
9.8514e-07
1.00978e-06
1.0307e-06
1.04768e-06
1.06057e-06
1.06924e-06
1.0736e-06
1.07361e-06
1.06927e-06
1.06063e-06
1.04776e-06
1.03079e-06
1.0099e-06
9.85277e-07
9.57171e-07
9.25859e-07
8.9165e-07
8.54879e-07
8.15907e-07
7.75108e-07
7.32866e-07
6.89561e-07
6.45566e-07
6.01238e-07
5.56915e-07
5.12924e-07
4.69572e-07
4.27145e-07
3.85894e-07
3.4603e-07
3.07712e-07
2.71046e-07
2.36083e-07
2.02815e-07
1.71182e-07
1.41069e-07
1.12315e-07
8.47128e-08
5.80195e-08
3.19601e-08
5.49941e-11
2.06027e-13
2.05874e-13
5.49544e-11
3.19385e-08
5.7981e-08
8.46575e-08
1.12243e-07
1.4098e-07
1.71075e-07
2.02692e-07
2.35943e-07
2.70892e-07
3.07543e-07
3.45848e-07
3.85701e-07
4.26942e-07
4.69361e-07
5.12707e-07
5.56693e-07
6.01014e-07
6.45342e-07
6.89339e-07
7.32647e-07
7.74895e-07
8.15701e-07
8.54684e-07
8.91466e-07
9.25689e-07
9.57017e-07
9.8514e-07
1.00978e-06
1.0307e-06
1.04768e-06
1.06057e-06
1.06924e-06
1.0736e-06
1.07361e-06
1.06927e-06
1.06063e-06
1.04776e-06
1.03079e-06
1.0099e-06
9.85277e-07
9.57172e-07
9.25859e-07
8.9165e-07
8.54879e-07
8.15907e-07
7.75108e-07
7.32866e-07
6.89561e-07
6.45567e-07
6.01238e-07
5.56915e-07
5.12924e-07
4.69572e-07
4.27145e-07
3.85894e-07
3.4603e-07
3.07712e-07
2.71046e-07
2.36083e-07
2.02815e-07
1.71182e-07
1.41069e-07
1.12315e-07
8.47128e-08
5.80195e-08
3.19601e-08
5.49941e-11
2.06027e-13
2.05874e-13
5.49544e-11
3.19385e-08
5.7981e-08
8.46575e-08
1.12243e-07
1.4098e-07
1.71075e-07
2.02692e-07
2.35943e-07
2.70892e-07
3.07543e-07
3.45848e-07
3.85701e-07
4.26942e-07
4.69361e-07