/*--------------------------------*- C++ -*----------------------------------*\
  =========                 |
  \\      /  F ield         | OpenFOAM: The Open Source CFD Toolbox
   \\    /   O peration     | Website:  https://openfoam.org
    \\  /    A nd           | Version:  13
     \\/     M anipulation  |
\*---------------------------------------------------------------------------*/
FoamFile
{
    format      ascii;
    class       volScalarField;
    location    "100";
    object      nut;
}
// * * * * * * * * * * * * * * * * * * * * * * * * * * * * * * * * * * * * * //

dimensions      [0 2 -1 0 0 0 0];

internalField   nonuniform List<scalar> 
315000
(
1.087e-14
2.84651e-12
6.49478e-11
1.16557e-10
1.68971e-10
2.22286e-10
2.76626e-10
3.32098e-10
3.88773e-10
4.46674e-10
5.05767e-10
5.65966e-10
6.27133e-10
6.89078e-10
7.51569e-10
8.14332e-10
8.77063e-10
9.39431e-10
1.00108e-09
1.06165e-09
1.12077e-09
1.17806e-09
1.23314e-09
1.28564e-09
1.33521e-09
1.38149e-09
1.42418e-09
1.46295e-09
1.49753e-09
1.52767e-09
1.55315e-09
1.57378e-09
1.5894e-09
1.59991e-09
1.60521e-09
1.60528e-09
1.60011e-09
1.58974e-09
1.57425e-09
1.55375e-09
1.5284e-09
1.49838e-09
1.46391e-09
1.42524e-09
1.38265e-09
1.33646e-09
1.28697e-09
1.23453e-09
1.17951e-09
1.12228e-09
1.0632e-09
1.00265e-09
9.41013e-10
8.7865e-10
8.15911e-10
7.5313e-10
6.9061e-10
6.28625e-10
5.67408e-10
5.07149e-10
4.47985e-10
3.90005e-10
3.33238e-10
2.77663e-10
2.23207e-10
1.69756e-10
1.17178e-10
6.5358e-11
2.86846e-12
1.09627e-14
2.72048e-13
7.24411e-11
1.64898e-08
2.98091e-08
4.32689e-08
5.69258e-08
7.08268e-08
8.50066e-08
9.9486e-08
1.14272e-07
1.29356e-07
1.44715e-07
1.60312e-07
1.76099e-07
1.92014e-07
2.07986e-07
2.23937e-07
2.39782e-07
2.55432e-07
2.70793e-07
2.85771e-07
3.00271e-07
3.14201e-07
3.27466e-07
3.3998e-07
3.51656e-07
3.62414e-07
3.72179e-07
3.80883e-07
3.88465e-07
3.9487e-07
4.00053e-07
4.03977e-07
4.06614e-07
4.07944e-07
4.07958e-07
4.06655e-07
4.04046e-07
4.00149e-07
3.94992e-07
3.88611e-07
3.81054e-07
3.72372e-07
3.62628e-07
3.5189e-07
3.40232e-07
3.27734e-07
3.14482e-07
3.00565e-07
2.86074e-07
2.71103e-07
2.55747e-07
2.40101e-07
2.24256e-07
2.08303e-07
1.92326e-07
1.76404e-07
1.60608e-07
1.44999e-07
1.29626e-07
1.14527e-07
9.97222e-08
8.52217e-08
7.10182e-08
5.70905e-08
4.34033e-08
2.99091e-08
1.65498e-08
7.27269e-11
2.73159e-13
1.09509e-12
2.92026e-10
1.68657e-07
3.03663e-07
4.39143e-07
5.75822e-07
7.14274e-07
8.54913e-07
9.97978e-07
1.14353e-06
1.29147e-06
1.4415e-06
1.59321e-06
1.74605e-06
1.89935e-06
2.05238e-06
2.20434e-06
2.35441e-06
2.50174e-06
2.64551e-06
2.78487e-06
2.91901e-06
3.04716e-06
3.16857e-06
3.28252e-06
3.38835e-06
3.48544e-06
3.57323e-06
3.6512e-06
3.7189e-06
3.77595e-06
3.82201e-06
3.85681e-06
3.88015e-06
3.89191e-06
3.892e-06
3.88044e-06
3.85728e-06
3.82266e-06
3.77678e-06
3.71991e-06
3.65237e-06
3.57456e-06
3.48693e-06
3.38997e-06
3.28427e-06
3.17044e-06
3.04913e-06
2.92107e-06
2.787e-06
2.6477e-06
2.50398e-06
2.35667e-06
2.2066e-06
2.05463e-06
1.90158e-06
1.74823e-06
1.59533e-06
1.44354e-06
1.2934e-06
1.14535e-06
9.99657e-07
8.56434e-07
7.15618e-07
5.76967e-07
4.40069e-07
3.04342e-07
1.69058e-07
2.92765e-10
1.09793e-12
2.0343e-12
5.42546e-10
3.1191e-07
5.591e-07
8.05651e-07
1.05319e-06
1.30296e-06
1.55584e-06
1.81231e-06
2.07248e-06
2.33609e-06
2.60256e-06
2.87101e-06
3.14035e-06
3.40932e-06
3.67656e-06
3.94068e-06
4.20029e-06
4.45398e-06
4.70043e-06
4.93832e-06
5.16643e-06
5.38355e-06
5.58856e-06
5.78041e-06
5.9581e-06
6.12071e-06
6.26739e-06
6.3974e-06
6.51006e-06
6.60483e-06
6.68124e-06
6.73892e-06
6.77757e-06
6.79701e-06
6.79713e-06
6.77793e-06
6.73952e-06
6.68208e-06
6.60589e-06
6.51135e-06
6.39891e-06
6.26911e-06
6.12262e-06
5.96019e-06
5.78267e-06
5.59098e-06
5.3861e-06
5.1691e-06
4.9411e-06
4.70328e-06
4.4569e-06
4.20324e-06
3.94366e-06
3.67953e-06
3.41226e-06
3.14324e-06
2.87382e-06
2.60527e-06
2.33867e-06
2.0749e-06
1.81455e-06
1.55787e-06
1.30475e-06
1.05471e-06
8.06886e-07
5.60006e-07
3.12446e-07
5.43544e-10
2.03814e-12
3.07798e-12
8.21e-10
4.69612e-07
8.37695e-07
1.20235e-06
1.56644e-06
1.93214e-06
2.30089e-06
2.67347e-06
3.05003e-06
3.43014e-06
3.81288e-06
4.19693e-06
4.58068e-06
4.96237e-06
5.34014e-06
5.71214e-06
6.07652e-06
6.43149e-06
6.77533e-06
7.10639e-06
7.4232e-06
7.72431e-06
8.00836e-06
8.274e-06
8.51998e-06
8.74508e-06
8.94819e-06
9.12828e-06
9.28442e-06
9.41581e-06
9.52178e-06
9.60177e-06
9.65537e-06
9.68231e-06
9.68244e-06
9.65576e-06
9.60242e-06
9.52268e-06
9.41696e-06
9.28581e-06
9.1299e-06
8.95004e-06
8.74714e-06
8.52224e-06
8.27644e-06
8.01096e-06
7.72707e-06
7.42609e-06
7.1094e-06
6.77843e-06
6.43466e-06
6.07974e-06
5.71539e-06
5.34339e-06
4.9656e-06
4.58386e-06
4.20003e-06
3.81588e-06
3.433e-06
3.05272e-06
2.67597e-06
2.30316e-06
1.93416e-06
1.56817e-06
1.20374e-06
8.38724e-07
4.70226e-07
8.22157e-10
3.08244e-12
4.15592e-12
1.10868e-09
6.30894e-07
1.11985e-06
1.60091e-06
2.07853e-06
2.55597e-06
3.03535e-06
3.5178e-06
4.00357e-06
4.4921e-06
4.98221e-06
5.47223e-06
5.96021e-06
6.44402e-06
6.92148e-06
7.39041e-06
7.84878e-06
8.29463e-06
8.72612e-06
9.14146e-06
9.53891e-06
9.91674e-06
1.02732e-05
1.06067e-05
1.09154e-05
1.11979e-05
1.14527e-05
1.16786e-05
1.18743e-05
1.2039e-05
1.21717e-05
1.22718e-05
1.23389e-05
1.23726e-05
1.23727e-05
1.23393e-05
1.22725e-05
1.21726e-05
1.20401e-05
1.18757e-05
1.16802e-05
1.14545e-05
1.11999e-05
1.09176e-05
1.0609e-05
1.02758e-05
9.91945e-06
9.54175e-06
9.14441e-06
8.72917e-06
8.29776e-06
7.85196e-06
7.39363e-06
6.9247e-06
6.44723e-06
5.96338e-06
5.47533e-06
4.98521e-06
4.49497e-06
4.00628e-06
3.52033e-06
3.03765e-06
2.55802e-06
2.08029e-06
1.60234e-06
1.1209e-06
6.31531e-07
1.1099e-09
4.16064e-12
5.17921e-12
1.38186e-09
7.82555e-07
1.38274e-06
1.96955e-06
2.54922e-06
3.12617e-06
3.70329e-06
4.2821e-06
4.86299e-06
5.44535e-06
6.02784e-06
6.60858e-06
7.1854e-06
7.75596e-06
8.31792e-06
8.86902e-06
9.40711e-06
9.93011e-06
1.0436e-05
1.09229e-05
1.13887e-05
1.18314e-05
1.22489e-05
1.26392e-05
1.30004e-05
1.33307e-05
1.36284e-05
1.3892e-05
1.41204e-05
1.43124e-05
1.44672e-05
1.45839e-05
1.4662e-05
1.47012e-05
1.47014e-05
1.46624e-05
1.45845e-05
1.4468e-05
1.43135e-05
1.41217e-05
1.38935e-05
1.363e-05
1.33325e-05
1.30024e-05
1.26414e-05
1.22513e-05
1.18339e-05
1.13913e-05
1.09256e-05
1.04389e-05
9.93302e-06
9.41007e-06
8.87202e-06
8.32093e-06
7.75896e-06
7.18838e-06
6.6115e-06
6.03067e-06
5.44806e-06
4.86556e-06
4.2845e-06
3.70548e-06
3.12812e-06
2.5509e-06
1.97092e-06
1.38376e-06
7.83175e-07
1.38306e-09
5.18389e-12
6.0722e-12
1.62035e-09
9.13816e-07
1.60849e-06
2.28416e-06
2.94885e-06
3.60815e-06
4.26566e-06
4.9233e-06
5.58162e-06
6.24003e-06
6.8971e-06
7.55085e-06
8.19897e-06
8.83905e-06
9.46867e-06
1.00855e-05
1.06873e-05
1.12719e-05
1.18373e-05
1.23811e-05
1.29012e-05
1.33953e-05
1.3861e-05
1.42961e-05
1.46985e-05
1.50661e-05
1.53974e-05
1.56907e-05
1.59446e-05
1.6158e-05
1.63299e-05
1.64595e-05
1.65463e-05
1.65898e-05
1.65899e-05
1.65466e-05
1.646e-05
1.63306e-05
1.61589e-05
1.59457e-05
1.5692e-05
1.53989e-05
1.50678e-05
1.47003e-05
1.42981e-05
1.38632e-05
1.33976e-05
1.29036e-05
1.23836e-05
1.18398e-05
1.12746e-05
1.069e-05
1.00882e-05
9.47141e-06
8.84178e-06
8.20168e-06
7.55351e-06
6.89969e-06
6.24252e-06
5.58398e-06
4.92551e-06
4.26768e-06
3.60996e-06
2.95041e-06
2.28544e-06
1.60944e-06
9.14397e-07
1.62149e-09
6.07666e-12
6.79139e-12
1.81251e-09
1.01884e-06
1.78798e-06
2.53313e-06
3.26389e-06
3.98688e-06
4.7063e-06
5.42445e-06
6.14201e-06
6.85845e-06
7.5723e-06
8.28151e-06
8.98375e-06
9.67655e-06
1.03574e-05
1.1024e-05
1.16741e-05
1.23053e-05
1.29155e-05
1.35024e-05
1.40634e-05
1.45961e-05
1.5098e-05
1.55666e-05
1.59998e-05
1.63954e-05
1.67518e-05
1.70671e-05
1.73401e-05
1.75695e-05
1.77542e-05
1.78935e-05
1.79867e-05
1.80334e-05
1.80335e-05
1.7987e-05
1.78939e-05
1.77548e-05
1.75703e-05
1.73411e-05
1.70683e-05
1.67531e-05
1.63969e-05
1.60014e-05
1.55684e-05
1.50999e-05
1.45982e-05
1.40656e-05
1.35046e-05
1.29178e-05
1.23077e-05
1.16765e-05
1.10265e-05
1.03599e-05
9.67904e-06
8.98622e-06
8.28394e-06
7.57466e-06
6.86072e-06
6.14417e-06
5.42647e-06
4.70815e-06
3.98853e-06
3.26532e-06
2.5343e-06
1.78885e-06
1.01937e-06
1.81358e-09
6.79559e-12
7.32866e-12
1.95613e-09
1.09692e-06
1.92081e-06
2.71677e-06
3.49565e-06
4.26488e-06
5.02917e-06
5.79106e-06
6.5514e-06
7.30967e-06
8.06442e-06
8.81356e-06
9.55472e-06
1.02854e-05
1.10032e-05
1.17055e-05
1.23902e-05
1.3055e-05
1.36974e-05
1.43152e-05
1.49055e-05
1.54659e-05
1.59936e-05
1.64862e-05
1.69414e-05
1.73571e-05
1.77313e-05
1.80625e-05
1.83491e-05
1.85898e-05
1.87837e-05
1.89299e-05
1.90277e-05
1.90768e-05
1.90768e-05
1.9028e-05
1.89303e-05
1.87843e-05
1.85906e-05
1.835e-05
1.80636e-05
1.77325e-05
1.73584e-05
1.69429e-05
1.64878e-05
1.59954e-05
1.54677e-05
1.49075e-05
1.43172e-05
1.36996e-05
1.30572e-05
1.23925e-05
1.17078e-05
1.10055e-05
1.02877e-05
9.55701e-06
8.81581e-06
8.06661e-06
7.31179e-06
6.55341e-06
5.79294e-06
5.03089e-06
4.26642e-06
3.49698e-06
2.71786e-06
1.92162e-06
1.09742e-06
1.95714e-09
7.33263e-12
7.70285e-12
2.05621e-09
1.15113e-06
2.01275e-06
2.8436e-06
3.65546e-06
4.45634e-06
5.2513e-06
6.04309e-06
6.83264e-06
7.61948e-06
8.40213e-06
9.17852e-06
9.94626e-06
1.07028e-05
1.14457e-05
1.21726e-05
1.2881e-05
1.35686e-05
1.42331e-05
1.48719e-05
1.54823e-05
1.60615e-05
1.66069e-05
1.71159e-05
1.75861e-05
1.80154e-05
1.84019e-05
1.87438e-05
1.90397e-05
1.92883e-05
1.94884e-05
1.96393e-05
1.97402e-05
1.97909e-05
1.9791e-05
1.97405e-05
1.96397e-05
1.9489e-05
1.9289e-05
1.90406e-05
1.87449e-05
1.84031e-05
1.80167e-05
1.75875e-05
1.71174e-05
1.66086e-05
1.60633e-05
1.54842e-05
1.48739e-05
1.42352e-05
1.35707e-05
1.28831e-05
1.21747e-05
1.14479e-05
1.0705e-05
9.94844e-06
9.18067e-06
8.40422e-06
7.62149e-06
6.83456e-06
6.04488e-06
5.25294e-06
4.45781e-06
3.65673e-06
2.84464e-06
2.01353e-06
1.15161e-06
2.05719e-09
7.70667e-12
7.94701e-12
2.12155e-09
1.18645e-06
2.07253e-06
2.92596e-06
3.75915e-06
4.58049e-06
5.39529e-06
6.20642e-06
7.01487e-06
7.8202e-06
8.62094e-06
9.415e-06
1.02e-05
1.09733e-05
1.17326e-05
1.24753e-05
1.31991e-05
1.39017e-05
1.45805e-05
1.5233e-05
1.58564e-05
1.64479e-05
1.70048e-05
1.75244e-05
1.80044e-05
1.84426e-05
1.88371e-05
1.91861e-05
1.9488e-05
1.97416e-05
1.99458e-05
2.00998e-05
2.02028e-05
2.02544e-05
2.02545e-05
2.0203e-05
2.01002e-05
1.99464e-05
1.97423e-05
1.94888e-05
1.9187e-05
1.88382e-05
1.84439e-05
1.80058e-05
1.75259e-05
1.70064e-05
1.64497e-05
1.58583e-05
1.52349e-05
1.45825e-05
1.39037e-05
1.32012e-05
1.24774e-05
1.17347e-05
1.09755e-05
1.02021e-05
9.41709e-06
8.62298e-06
7.82217e-06
7.01675e-06
6.20817e-06
5.39689e-06
4.58193e-06
3.76039e-06
2.92698e-06
2.07329e-06
1.18692e-06
2.12251e-09
7.95077e-12
8.09694e-12
2.1617e-09
1.20812e-06
2.10918e-06
2.97643e-06
3.82267e-06
4.65654e-06
5.48349e-06
6.30649e-06
7.12655e-06
7.94325e-06
8.75511e-06
9.56005e-06
1.03557e-05
1.11394e-05
1.19088e-05
1.26613e-05
1.33946e-05
1.41064e-05
1.47941e-05
1.54552e-05
1.60867e-05
1.66858e-05
1.72498e-05
1.7776e-05
1.82621e-05
1.87058e-05
1.91052e-05
1.94585e-05
1.97642e-05
2.0021e-05
2.02277e-05
2.03836e-05
2.04879e-05
2.05402e-05
2.05402e-05
2.04881e-05
2.0384e-05
2.02283e-05
2.00217e-05
1.97651e-05
1.94595e-05
1.91063e-05
1.87071e-05
1.82635e-05
1.77775e-05
1.72514e-05
1.66875e-05
1.60885e-05
1.54571e-05
1.47961e-05
1.41084e-05
1.33967e-05
1.26634e-05
1.19109e-05
1.11415e-05
1.03578e-05
9.56214e-06
8.75715e-06
7.94521e-06
7.12841e-06
6.30823e-06
5.48509e-06
4.65797e-06
3.8239e-06
2.97743e-06
2.10994e-06
1.20859e-06
2.16265e-09
8.10068e-12
8.18392e-12
2.185e-09
1.2207e-06
2.13044e-06
3.00569e-06
3.85951e-06
4.70066e-06
5.53469e-06
6.3646e-06
7.19144e-06
8.01478e-06
8.83316e-06
9.64448e-06
1.04463e-05
1.12361e-05
1.20114e-05
1.27698e-05
1.35087e-05
1.42259e-05
1.49189e-05
1.5585e-05
1.62212e-05
1.68249e-05
1.73931e-05
1.79232e-05
1.84129e-05
1.88599e-05
1.92622e-05
1.96181e-05
1.9926e-05
2.01847e-05
2.03929e-05
2.05499e-05
2.0655e-05
2.07076e-05
2.07077e-05
2.06552e-05
2.05503e-05
2.03935e-05
2.01854e-05
1.99269e-05
1.96191e-05
1.92633e-05
1.88611e-05
1.84143e-05
1.79247e-05
1.73947e-05
1.68266e-05
1.62231e-05
1.55869e-05
1.49209e-05
1.4228e-05
1.35108e-05
1.27719e-05
1.20136e-05
1.12383e-05
1.04484e-05
9.64657e-06
8.8352e-06
8.01675e-06
7.19331e-06
6.36634e-06
5.53629e-06
4.70209e-06
3.86074e-06
3.0067e-06
2.13119e-06
1.22116e-06
2.18596e-09
8.18768e-12
8.23176e-12
2.19783e-09
1.22762e-06
2.14213e-06
3.0218e-06
3.8798e-06
4.72497e-06
5.56291e-06
6.39666e-06
7.22727e-06
8.05431e-06
8.87631e-06
9.69119e-06
1.04965e-05
1.12898e-05
1.20684e-05
1.28299e-05
1.35721e-05
1.42923e-05
1.49883e-05
1.56571e-05
1.62961e-05
1.69023e-05
1.74728e-05
1.80052e-05
1.84969e-05
1.89458e-05
1.93497e-05
1.97071e-05
2.00163e-05
2.0276e-05
2.04851e-05
2.06427e-05
2.07482e-05
2.08011e-05
2.08012e-05
2.07484e-05
2.06431e-05
2.04857e-05
2.02767e-05
2.00172e-05
1.97081e-05
1.93509e-05
1.8947e-05
1.84983e-05
1.80067e-05
1.74745e-05
1.6904e-05
1.6298e-05
1.56591e-05
1.49903e-05
1.42944e-05
1.35742e-05
1.28321e-05
1.20705e-05
1.12919e-05
1.04987e-05
9.6933e-06
8.87837e-06
8.05628e-06
7.22915e-06
6.39842e-06
5.56453e-06
4.72641e-06
3.88104e-06
3.02282e-06
2.14289e-06
1.22809e-06
2.19879e-09
8.23554e-12
8.25679e-12
2.20454e-09
1.23124e-06
2.14826e-06
3.03024e-06
3.89043e-06
4.73772e-06
5.57773e-06
6.4135e-06
7.2461e-06
8.07511e-06
8.89904e-06
9.71582e-06
1.0523e-05
1.13181e-05
1.20985e-05
1.28618e-05
1.36056e-05
1.43275e-05
1.5025e-05
1.56954e-05
1.63358e-05
1.69434e-05
1.75152e-05
1.80488e-05
1.85416e-05
1.89914e-05
1.93963e-05
1.97544e-05
2.00643e-05
2.03246e-05
2.05342e-05
2.06921e-05
2.07978e-05
2.08508e-05
2.08509e-05
2.07981e-05
2.06925e-05
2.05347e-05
2.03253e-05
2.00652e-05
1.97555e-05
1.93974e-05
1.89927e-05
1.8543e-05
1.80503e-05
1.75169e-05
1.69451e-05
1.63377e-05
1.56974e-05
1.5027e-05
1.43296e-05
1.36077e-05
1.28639e-05
1.21006e-05
1.13202e-05
1.05252e-05
9.71794e-06
8.90111e-06
8.0771e-06
7.248e-06
6.41527e-06
5.57935e-06
4.73917e-06
3.89168e-06
3.03126e-06
2.14902e-06
1.23171e-06
2.2055e-09
8.26058e-12
8.26926e-12
2.20789e-09
1.23305e-06
2.15132e-06
3.03446e-06
3.89575e-06
4.74411e-06
5.58515e-06
6.42195e-06
7.25556e-06
8.08556e-06
8.91047e-06
9.72821e-06
1.05363e-05
1.13323e-05
1.21136e-05
1.28778e-05
1.36225e-05
1.43453e-05
1.50436e-05
1.57148e-05
1.63559e-05
1.69642e-05
1.75367e-05
1.80709e-05
1.85642e-05
1.90146e-05
1.94199e-05
1.97785e-05
2.00887e-05
2.03493e-05
2.05591e-05
2.07172e-05
2.0823e-05
2.08761e-05
2.08762e-05
2.08233e-05
2.07176e-05
2.05596e-05
2.035e-05
2.00896e-05
1.97795e-05
1.94211e-05
1.90159e-05
1.85657e-05
1.80724e-05
1.75384e-05
1.6966e-05
1.63578e-05
1.57167e-05
1.50456e-05
1.43474e-05
1.36246e-05
1.288e-05
1.21158e-05
1.13345e-05
1.05385e-05
9.73034e-06
8.91255e-06
8.08756e-06
7.25746e-06
6.42372e-06
5.58678e-06
4.74556e-06
3.897e-06
3.03549e-06
2.15209e-06
1.23352e-06
2.20886e-09
8.27308e-12
8.27521e-12
2.20949e-09
1.23391e-06
2.15278e-06
3.03647e-06
3.89829e-06
4.74716e-06
5.58871e-06
6.42599e-06
7.26009e-06
8.09057e-06
8.91597e-06
9.73417e-06
1.05428e-05
1.13392e-05
1.2121e-05
1.28856e-05
1.36307e-05
1.43539e-05
1.50526e-05
1.57242e-05
1.63657e-05
1.69743e-05
1.75471e-05
1.80816e-05
1.85752e-05
1.90258e-05
1.94314e-05
1.97902e-05
2.01006e-05
2.03613e-05
2.05712e-05
2.07294e-05
2.08353e-05
2.08884e-05
2.08885e-05
2.08356e-05
2.07298e-05
2.05718e-05
2.0362e-05
2.01015e-05
1.97912e-05
1.94326e-05
1.90271e-05
1.85767e-05
1.80831e-05
1.75488e-05
1.69761e-05
1.63676e-05
1.57261e-05
1.50546e-05
1.4356e-05
1.36328e-05
1.28878e-05
1.21232e-05
1.13414e-05
1.05449e-05
9.73631e-06
8.91805e-06
8.09258e-06
7.262e-06
6.42778e-06
5.59034e-06
4.74862e-06
3.89955e-06
3.0375e-06
2.15355e-06
1.23439e-06
2.21046e-09
8.27904e-12
8.27793e-12
2.21022e-09
1.23431e-06
2.15345e-06
3.03739e-06
3.89945e-06
4.74856e-06
5.59034e-06
6.42785e-06
7.26218e-06
8.09288e-06
8.9185e-06
9.73693e-06
1.05457e-05
1.13424e-05
1.21244e-05
1.28892e-05
1.36345e-05
1.43579e-05
1.50568e-05
1.57285e-05
1.63702e-05
1.6979e-05
1.7552e-05
1.80866e-05
1.85803e-05
1.90311e-05
1.94368e-05
1.97956e-05
2.01061e-05
2.03669e-05
2.05769e-05
2.07351e-05
2.0841e-05
2.08942e-05
2.08942e-05
2.08413e-05
2.07355e-05
2.05774e-05
2.03676e-05
2.0107e-05
1.97966e-05
1.94379e-05
1.90324e-05
1.85818e-05
1.80881e-05
1.75536e-05
1.69808e-05
1.63721e-05
1.57305e-05
1.50588e-05
1.436e-05
1.36366e-05
1.28914e-05
1.21265e-05
1.13446e-05
1.05479e-05
9.73907e-06
8.92059e-06
8.0949e-06
7.26409e-06
6.42964e-06
5.59198e-06
4.75002e-06
3.90072e-06
3.03843e-06
2.15422e-06
1.23478e-06
2.21119e-09
8.28176e-12
8.27911e-12
2.21054e-09
1.23448e-06
2.15374e-06
3.0378e-06
3.89997e-06
4.74917e-06
5.59105e-06
6.42867e-06
7.2631e-06
8.0939e-06
8.91962e-06
9.73814e-06
1.05471e-05
1.13438e-05
1.21259e-05
1.28908e-05
1.36362e-05
1.43596e-05
1.50586e-05
1.57305e-05
1.63722e-05
1.69811e-05
1.75541e-05
1.80888e-05
1.85826e-05
1.90334e-05
1.94392e-05
1.97981e-05
2.01086e-05
2.03694e-05
2.05794e-05
2.07377e-05
2.08436e-05
2.08967e-05
2.08968e-05
2.08439e-05
2.07381e-05
2.058e-05
2.03701e-05
2.01095e-05
1.97991e-05
1.94403e-05
1.90347e-05
1.85841e-05
1.80904e-05
1.75558e-05
1.69829e-05
1.63741e-05
1.57324e-05
1.50607e-05
1.43617e-05
1.36383e-05
1.2893e-05
1.21281e-05
1.1346e-05
1.05492e-05
9.74029e-06
8.92171e-06
8.09592e-06
7.26501e-06
6.43046e-06
5.5927e-06
4.75064e-06
3.90123e-06
3.03883e-06
2.15451e-06
1.23496e-06
2.21151e-09
8.28295e-12
8.27962e-12
2.21067e-09
1.23455e-06
2.15386e-06
3.03797e-06
3.90018e-06
4.74943e-06
5.59136e-06
6.42902e-06
7.26349e-06
8.09434e-06
8.9201e-06
9.73866e-06
1.05476e-05
1.13444e-05
1.21265e-05
1.28915e-05
1.36369e-05
1.43604e-05
1.50594e-05
1.57313e-05
1.63731e-05
1.6982e-05
1.75551e-05
1.80898e-05
1.85836e-05
1.90344e-05
1.94402e-05
1.97991e-05
2.01096e-05
2.03705e-05
2.05805e-05
2.07388e-05
2.08447e-05
2.08978e-05
2.08979e-05
2.0845e-05
2.07392e-05
2.0581e-05
2.03712e-05
2.01105e-05
1.98001e-05
1.94414e-05
1.90357e-05
1.85851e-05
1.80913e-05
1.75567e-05
1.69837e-05
1.6375e-05
1.57333e-05
1.50615e-05
1.43625e-05
1.3639e-05
1.28936e-05
1.21287e-05
1.13466e-05
1.05498e-05
9.74081e-06
8.92219e-06
8.09635e-06
7.2654e-06
6.43081e-06
5.593e-06
4.7509e-06
3.90145e-06
3.03901e-06
2.15464e-06
1.23503e-06
2.21165e-09
8.28345e-12
8.27982e-12
2.21073e-09
1.23458e-06
2.15391e-06
3.03804e-06
3.90027e-06
4.74954e-06
5.59148e-06
6.42916e-06
7.26365e-06
8.09452e-06
8.92029e-06
9.73887e-06
1.05478e-05
1.13446e-05
1.21268e-05
1.28917e-05
1.36372e-05
1.43607e-05
1.50598e-05
1.57316e-05
1.63735e-05
1.69823e-05
1.75554e-05
1.80902e-05
1.8584e-05
1.90348e-05
1.94406e-05
1.97995e-05
2.01101e-05
2.03709e-05
2.05809e-05
2.07392e-05
2.08452e-05
2.08983e-05
2.08984e-05
2.08454e-05
2.07396e-05
2.05815e-05
2.03716e-05
2.0111e-05
1.98006e-05
1.94418e-05
1.90362e-05
1.85855e-05
1.80917e-05
1.75571e-05
1.69841e-05
1.63753e-05
1.57336e-05
1.50618e-05
1.43628e-05
1.36393e-05
1.28939e-05
1.2129e-05
1.13468e-05
1.055e-05
9.74102e-06
8.92238e-06
8.09653e-06
7.26557e-06
6.43095e-06
5.59313e-06
4.75101e-06
3.90153e-06
3.03907e-06
2.15469e-06
1.23506e-06
2.2117e-09
8.28366e-12
8.2799e-12
2.21075e-09
1.23459e-06
2.15393e-06
3.03807e-06
3.9003e-06
4.74958e-06
5.59153e-06
6.42922e-06
7.26371e-06
8.09459e-06
8.92037e-06
9.73896e-06
1.05479e-05
1.13447e-05
1.21269e-05
1.28919e-05
1.36373e-05
1.43608e-05
1.50599e-05
1.57318e-05
1.63736e-05
1.69825e-05
1.75556e-05
1.80903e-05
1.85842e-05
1.9035e-05
1.94408e-05
1.97997e-05
2.01103e-05
2.03711e-05
2.05811e-05
2.07394e-05
2.08454e-05
2.08985e-05
2.08986e-05
2.08456e-05
2.07398e-05
2.05817e-05
2.03718e-05
2.01111e-05
1.98007e-05
1.94419e-05
1.90363e-05
1.85856e-05
1.80919e-05
1.75573e-05
1.69843e-05
1.63755e-05
1.57337e-05
1.50619e-05
1.43629e-05
1.36394e-05
1.2894e-05
1.21291e-05
1.13469e-05
1.05501e-05
9.7411e-06
8.92246e-06
8.0966e-06
7.26563e-06
6.43101e-06
5.59317e-06
4.75105e-06
3.90157e-06
3.0391e-06
2.15471e-06
1.23507e-06
2.21172e-09
8.28374e-12
8.27993e-12
2.21075e-09
1.2346e-06
2.15394e-06
3.03808e-06
3.90032e-06
4.7496e-06
5.59155e-06
6.42924e-06
7.26374e-06
8.09461e-06
8.9204e-06
9.73899e-06
1.0548e-05
1.13448e-05
1.21269e-05
1.28919e-05
1.36374e-05
1.43609e-05
1.50599e-05
1.57318e-05
1.63737e-05
1.69825e-05
1.75557e-05
1.80904e-05
1.85843e-05
1.90351e-05
1.94408e-05
1.97998e-05
2.01103e-05
2.03712e-05
2.05812e-05
2.07395e-05
2.08454e-05
2.08985e-05
2.08986e-05
2.08457e-05
2.07399e-05
2.05817e-05
2.03719e-05
2.01112e-05
1.98008e-05
1.9442e-05
1.90364e-05
1.85857e-05
1.80919e-05
1.75573e-05
1.69843e-05
1.63755e-05
1.57338e-05
1.5062e-05
1.4363e-05
1.36395e-05
1.28941e-05
1.21291e-05
1.1347e-05
1.05501e-05
9.74114e-06
8.92249e-06
8.09663e-06
7.26565e-06
6.43103e-06
5.59319e-06
4.75107e-06
3.90158e-06
3.03911e-06
2.15472e-06
1.23508e-06
2.21173e-09
8.28377e-12
8.27994e-12
2.21076e-09
1.2346e-06
2.15394e-06
3.03808e-06
3.90032e-06
4.7496e-06
5.59156e-06
6.42925e-06
7.26375e-06
8.09462e-06
8.92041e-06
9.739e-06
1.0548e-05
1.13448e-05
1.21269e-05
1.28919e-05
1.36374e-05
1.43609e-05
1.506e-05
1.57319e-05
1.63737e-05
1.69826e-05
1.75557e-05
1.80904e-05
1.85843e-05
1.90351e-05
1.94409e-05
1.97998e-05
2.01104e-05
2.03712e-05
2.05812e-05
2.07395e-05
2.08455e-05
2.08986e-05
2.08986e-05
2.08457e-05
2.07399e-05
2.05818e-05
2.03719e-05
2.01112e-05
1.98008e-05
1.9442e-05
1.90364e-05
1.85857e-05
1.8092e-05
1.75574e-05
1.69843e-05
1.63756e-05
1.57338e-05
1.5062e-05
1.4363e-05
1.36395e-05
1.28941e-05
1.21291e-05
1.1347e-05
1.05502e-05
9.74115e-06
8.9225e-06
8.09664e-06
7.26566e-06
6.43104e-06
5.5932e-06
4.75107e-06
3.90159e-06
3.03912e-06
2.15472e-06
1.23508e-06
2.21173e-09
8.28378e-12
8.27994e-12
2.21076e-09
1.2346e-06
2.15394e-06
3.03808e-06
3.90032e-06
4.74961e-06
5.59156e-06
6.42925e-06
7.26375e-06
8.09463e-06
8.92041e-06
9.73901e-06
1.0548e-05
1.13448e-05
1.21269e-05
1.28919e-05
1.36374e-05
1.43609e-05
1.506e-05
1.57319e-05
1.63737e-05
1.69826e-05
1.75557e-05
1.80904e-05
1.85843e-05
1.90351e-05
1.94409e-05
1.97998e-05
2.01104e-05
2.03712e-05
2.05812e-05
2.07395e-05
2.08455e-05
2.08986e-05
2.08987e-05
2.08457e-05
2.07399e-05
2.05818e-05
2.03719e-05
2.01112e-05
1.98008e-05
1.9442e-05
1.90364e-05
1.85857e-05
1.8092e-05
1.75574e-05
1.69844e-05
1.63756e-05
1.57338e-05
1.5062e-05
1.4363e-05
1.36395e-05
1.28941e-05
1.21291e-05
1.1347e-05
1.05502e-05
9.74115e-06
8.9225e-06
8.09664e-06
7.26566e-06
6.43104e-06
5.5932e-06
4.75107e-06
3.90159e-06
3.03912e-06
2.15472e-06
1.23508e-06
2.21173e-09
8.28378e-12
8.27994e-12
2.21076e-09
1.2346e-06
2.15394e-06
3.03808e-06
3.90032e-06
4.74961e-06
5.59156e-06
6.42925e-06
7.26375e-06
8.09463e-06
8.92041e-06
9.73901e-06
1.0548e-05
1.13448e-05
1.21269e-05
1.28919e-05
1.36374e-05
1.43609e-05
1.506e-05
1.57319e-05
1.63737e-05
1.69826e-05
1.75557e-05
1.80904e-05
1.85843e-05
1.90351e-05
1.94409e-05
1.97998e-05
2.01104e-05
2.03712e-05
2.05812e-05
2.07395e-05
2.08455e-05
2.08986e-05
2.08987e-05
2.08457e-05
2.07399e-05
2.05818e-05
2.03719e-05
2.01112e-05
1.98008e-05
1.94421e-05
1.90364e-05
1.85857e-05
1.8092e-05
1.75574e-05
1.69844e-05
1.63756e-05
1.57338e-05
1.5062e-05
1.4363e-05
1.36395e-05
1.28941e-05
1.21291e-05
1.1347e-05
1.05502e-05
9.74115e-06
8.9225e-06
8.09664e-06
7.26567e-06
6.43104e-06
5.5932e-06
4.75107e-06
3.90159e-06
3.03912e-06
2.15472e-06
1.23508e-06
2.21174e-09
8.28378e-12
8.27994e-12
2.21076e-09
1.2346e-06
2.15394e-06
3.03808e-06
3.90032e-06
4.74961e-06
5.59156e-06
6.42925e-06
7.26375e-06
8.09463e-06
8.92041e-06
9.73901e-06
1.0548e-05
1.13448e-05
1.21269e-05
1.28919e-05
1.36374e-05
1.43609e-05
1.506e-05
1.57319e-05
1.63737e-05
1.69826e-05
1.75557e-05
1.80904e-05
1.85843e-05
1.90351e-05
1.94409e-05
1.97998e-05
2.01104e-05
2.03712e-05
2.05812e-05
2.07395e-05
2.08455e-05
2.08986e-05
2.08987e-05
2.08457e-05
2.07399e-05
2.05818e-05
2.03719e-05
2.01112e-05
1.98008e-05
1.94421e-05
1.90364e-05
1.85857e-05
1.8092e-05
1.75574e-05
1.69844e-05
1.63756e-05
1.57338e-05
1.5062e-05
1.4363e-05
1.36395e-05
1.28941e-05
1.21291e-05
1.1347e-05
1.05502e-05
9.74115e-06
8.92251e-06
8.09664e-06
7.26567e-06
6.43104e-06
5.5932e-06
4.75108e-06
3.90159e-06
3.03912e-06
2.15472e-06
1.23508e-06
2.21174e-09
8.28378e-12
8.27995e-12
2.21076e-09
1.2346e-06
2.15394e-06
3.03808e-06
3.90032e-06
4.74961e-06
5.59156e-06
6.42925e-06
7.26375e-06
8.09463e-06
8.92041e-06
9.73901e-06
1.0548e-05
1.13448e-05
1.21269e-05
1.28919e-05
1.36374e-05
1.43609e-05
1.506e-05
1.57319e-05
1.63737e-05
1.69826e-05
1.75557e-05
1.80904e-05
1.85843e-05
1.90351e-05
1.94409e-05
1.97998e-05
2.01104e-05
2.03712e-05
2.05812e-05
2.07395e-05
2.08455e-05
2.08986e-05
2.08987e-05
2.08457e-05
2.07399e-05
2.05818e-05
2.03719e-05
2.01112e-05
1.98008e-05
1.94421e-05
1.90364e-05
1.85857e-05
1.8092e-05
1.75574e-05
1.69844e-05
1.63756e-05
1.57338e-05
1.5062e-05
1.4363e-05
1.36395e-05
1.28941e-05
1.21291e-05
1.1347e-05
1.05502e-05
9.74115e-06
8.92251e-06
8.09664e-06
7.26567e-06
6.43104e-06
5.5932e-06
4.75108e-06
3.90159e-06
3.03912e-06
2.15472e-06
1.23508e-06
2.21174e-09
8.28378e-12
8.27995e-12
2.21076e-09
1.2346e-06
2.15394e-06
3.03808e-06
3.90032e-06
4.74961e-06
5.59156e-06
6.42925e-06
7.26375e-06
8.09463e-06
8.92041e-06
9.73901e-06
1.0548e-05
1.13448e-05
1.21269e-05
1.28919e-05
1.36374e-05
1.43609e-05
1.506e-05
1.57319e-05
1.63737e-05
1.69826e-05
1.75557e-05
1.80904e-05
1.85843e-05
1.90351e-05
1.94409e-05
1.97998e-05
2.01104e-05
2.03712e-05
2.05812e-05
2.07395e-05
2.08455e-05
2.08986e-05
2.08987e-05
2.08457e-05
2.07399e-05
2.05818e-05
2.03719e-05
2.01112e-05
1.98008e-05
1.94421e-05
1.90364e-05
1.85857e-05
1.8092e-05
1.75574e-05
1.69844e-05
1.63756e-05
1.57338e-05
1.5062e-05
1.4363e-05
1.36395e-05
1.28941e-05
1.21291e-05
1.1347e-05
1.05502e-05
9.74115e-06
8.92251e-06
8.09664e-06
7.26567e-06
6.43104e-06
5.5932e-06
4.75108e-06
3.90159e-06
3.03912e-06
2.15472e-06
1.23508e-06
2.21174e-09
8.28378e-12
8.27995e-12
2.21076e-09
1.2346e-06
2.15394e-06
3.03808e-06
3.90032e-06
4.74961e-06
5.59156e-06
6.42925e-06
7.26375e-06
8.09463e-06
8.92041e-06
9.73901e-06
1.0548e-05
1.13448e-05
1.21269e-05
1.28919e-05
1.36374e-05
1.43609e-05
1.506e-05
1.57319e-05
1.63737e-05
1.69826e-05
1.75557e-05
1.80904e-05
1.85843e-05
1.90351e-05
1.94409e-05
1.97998e-05
2.01104e-05
2.03712e-05
2.05812e-05
2.07395e-05
2.08455e-05
2.08986e-05
2.08987e-05
2.08457e-05
2.07399e-05
2.05818e-05
2.03719e-05
2.01112e-05
1.98008e-05
1.94421e-05
1.90364e-05
1.85857e-05
1.8092e-05
1.75574e-05
1.69844e-05
1.63756e-05
1.57338e-05
1.5062e-05
1.4363e-05
1.36395e-05
1.28941e-05
1.21291e-05
1.1347e-05
1.05502e-05
9.74115e-06
8.92251e-06
8.09664e-06
7.26567e-06
6.43104e-06
5.5932e-06
4.75108e-06
3.90159e-06
3.03912e-06
2.15472e-06
1.23508e-06
2.21174e-09
8.28378e-12
8.27995e-12
2.21076e-09
1.2346e-06
2.15394e-06
3.03808e-06
3.90032e-06
4.74961e-06
5.59156e-06
6.42925e-06
7.26375e-06
8.09463e-06
8.92041e-06
9.73901e-06
1.0548e-05
1.13448e-05
1.21269e-05
1.28919e-05
1.36374e-05
1.43609e-05
1.506e-05
1.57319e-05
1.63737e-05
1.69826e-05
1.75557e-05
1.80904e-05
1.85843e-05
1.90351e-05
1.94409e-05
1.97998e-05
2.01104e-05
2.03712e-05
2.05812e-05
2.07395e-05
2.08455e-05
2.08986e-05
2.08987e-05
2.08457e-05
2.07399e-05
2.05818e-05
2.03719e-05
2.01112e-05
1.98008e-05
1.94421e-05
1.90364e-05
1.85857e-05
1.8092e-05
1.75574e-05
1.69844e-05
1.63756e-05
1.57338e-05
1.5062e-05
1.4363e-05
1.36395e-05
1.28941e-05
1.21291e-05
1.1347e-05
1.05502e-05
9.74115e-06
8.92251e-06
8.09664e-06
7.26567e-06
6.43104e-06
5.5932e-06
4.75108e-06
3.90159e-06
3.03912e-06
2.15472e-06
1.23508e-06
2.21174e-09
8.28378e-12
8.27995e-12
2.21076e-09
1.2346e-06
2.15394e-06
3.03808e-06
3.90032e-06
4.74961e-06
5.59156e-06
6.42925e-06
7.26375e-06
8.09463e-06
8.92041e-06
9.73901e-06
1.0548e-05
1.13448e-05
1.21269e-05
1.28919e-05
1.36374e-05
1.43609e-05
1.506e-05
1.57319e-05
1.63737e-05
1.69826e-05
1.75557e-05
1.80904e-05
1.85843e-05
1.90351e-05
1.94409e-05
1.97998e-05
2.01104e-05
2.03712e-05
2.05812e-05
2.07395e-05
2.08455e-05
2.08986e-05
2.08987e-05
2.08457e-05
2.07399e-05
2.05818e-05
2.03719e-05
2.01112e-05
1.98008e-05
1.94421e-05
1.90364e-05
1.85857e-05
1.8092e-05
1.75574e-05
1.69844e-05
1.63756e-05
1.57338e-05
1.5062e-05
1.4363e-05
1.36395e-05
1.28941e-05
1.21291e-05
1.1347e-05
1.05502e-05
9.74115e-06
8.92251e-06
8.09664e-06
7.26567e-06
6.43104e-06
5.5932e-06
4.75108e-06
3.90159e-06
3.03912e-06
2.15472e-06
1.23508e-06
2.21174e-09
8.28378e-12
8.27995e-12
2.21076e-09
1.2346e-06
2.15394e-06
3.03808e-06
3.90032e-06
4.74961e-06
5.59156e-06
6.42925e-06
7.26375e-06
8.09463e-06
8.92041e-06
9.73901e-06
1.0548e-05
1.13448e-05
1.21269e-05
1.28919e-05
1.36374e-05
1.43609e-05
1.506e-05
1.57319e-05
1.63737e-05
1.69826e-05
1.75557e-05
1.80904e-05
1.85843e-05
1.90351e-05
1.94409e-05
1.97998e-05
2.01104e-05
2.03712e-05
2.05812e-05
2.07395e-05
2.08455e-05
2.08986e-05
2.08987e-05
2.08457e-05
2.07399e-05
2.05818e-05
2.03719e-05
2.01112e-05
1.98008e-05
1.94421e-05
1.90364e-05
1.85857e-05
1.8092e-05
1.75574e-05
1.69844e-05
1.63756e-05
1.57338e-05
1.5062e-05
1.4363e-05
1.36395e-05
1.28941e-05
1.21291e-05
1.1347e-05
1.05502e-05
9.74115e-06
8.92251e-06
8.09664e-06
7.26567e-06
6.43104e-06
5.5932e-06
4.75108e-06
3.90159e-06
3.03912e-06
2.15472e-06
1.23508e-06
2.21174e-09
8.28378e-12
8.27995e-12
2.21076e-09
1.2346e-06
2.15394e-06
3.03808e-06
3.90032e-06
4.74961e-06
5.59156e-06
6.42925e-06
7.26375e-06
8.09463e-06
8.92041e-06
9.73901e-06
1.0548e-05
1.13448e-05
1.21269e-05
1.28919e-05
1.36374e-05
1.43609e-05
1.506e-05
1.57319e-05
1.63737e-05
1.69826e-05
1.75557e-05
1.80904e-05
1.85843e-05
1.90351e-05
1.94409e-05
1.97998e-05
2.01104e-05
2.03712e-05
2.05812e-05
2.07395e-05
2.08455e-05
2.08986e-05
2.08987e-05
2.08457e-05
2.07399e-05
2.05818e-05
2.03719e-05
2.01112e-05
1.98008e-05
1.94421e-05
1.90364e-05
1.85857e-05
1.8092e-05
1.75574e-05
1.69844e-05
1.63756e-05
1.57338e-05
1.5062e-05
1.4363e-05
1.36395e-05
1.28941e-05
1.21291e-05
1.1347e-05
1.05502e-05
9.74115e-06
8.92251e-06
8.09664e-06
7.26567e-06
6.43104e-06
5.5932e-06
4.75108e-06
3.90159e-06
3.03912e-06
2.15472e-06
1.23508e-06
2.21174e-09
8.28378e-12
8.27995e-12
2.21076e-09
1.2346e-06
2.15394e-06
3.03808e-06
3.90032e-06
4.74961e-06
5.59156e-06
6.42925e-06
7.26375e-06
8.09463e-06
8.92041e-06
9.73901e-06
1.0548e-05
1.13448e-05
1.21269e-05
1.28919e-05
1.36374e-05
1.43609e-05