/*--------------------------------*- C++ -*----------------------------------*\
  =========                 |
  \\      /  F ield         | OpenFOAM: The Open Source CFD Toolbox
   \\    /   O peration     | Website:  https://openfoam.org
    \\  /    A nd           | Version:  13
     \\/     M anipulation  |
\*---------------------------------------------------------------------------*/
FoamFile
{
    format      ascii;
    class       volScalarField;
    location    "310";
    object      nut;
}
// * * * * * * * * * * * * * * * * * * * * * * * * * * * * * * * * * * * * * //

dimensions      [0 2 -1 0 0 0 0];

internalField   nonuniform List<scalar> 
78750
(
3.27176e-19
4.30279e-17
9.67963e-16
1.75542e-15
2.58528e-15
3.46351e-15
4.39055e-15
5.35979e-15
6.35755e-15
7.36375e-15
8.35321e-15
9.29732e-15
1.01659e-14
1.09292e-14
1.15595e-14
1.20334e-14
1.23324e-14
1.2445e-14
1.23666e-14
1.21002e-14
1.1656e-14
1.10511e-14
1.0308e-14
9.45358e-15
8.51742e-15
7.52968e-15
6.51934e-15
5.5122e-15
4.52911e-15
3.58456e-15
2.68573e-15
1.83221e-15
1.01673e-15
4.55703e-17
3.27176e-19
3.64314e-18
9.45749e-16
1.33479e-13
2.43842e-13
3.60016e-13
4.83281e-13
6.13876e-13
7.50926e-13
8.92469e-13
1.03559e-12
1.17663e-12
1.31141e-12
1.43553e-12
1.54464e-12
1.63473e-12
1.70235e-12
1.74485e-12
1.76053e-12
1.74875e-12
1.70997e-12
1.64571e-12
1.55848e-12
1.45159e-12
1.32898e-12
1.19498e-12
1.05398e-12
9.10203e-13
7.6739e-13
6.28554e-13
4.95758e-13
3.69974e-13
2.51027e-13
1.37652e-13
9.7695e-16
3.76575e-18
1.00732e-17
2.61585e-15
3.69969e-13
6.79862e-13
1.01255e-12
1.3739e-12
1.76611e-12
2.18736e-12
2.63176e-12
3.08969e-12
3.54838e-12
3.99284e-12
4.40685e-12
4.77409e-12
5.07927e-12
5.30919e-12
5.45362e-12
5.50602e-12
5.46398e-12
5.32936e-12
5.10823e-12
4.81038e-12
4.44869e-12
4.03827e-12
3.59536e-12
3.13625e-12
2.67611e-12
2.22796e-12
1.80176e-12
1.40372e-12
1.03596e-12
6.96462e-13
3.79457e-13
2.68606e-15
1.03483e-17
1.91735e-17
4.97939e-15
7.04782e-13
1.29796e-12
1.9394e-12
2.64204e-12
3.41145e-12
4.2449e-12
5.13117e-12
6.05106e-12
6.97852e-12
7.88237e-12
8.72843e-12
9.4819e-12
1.01099e-11
1.05837e-11
1.08812e-11
1.09881e-11
1.08991e-11
1.06186e-11
1.01598e-11
9.54436e-12
8.80026e-12
7.96012e-12
7.05862e-12
6.13012e-12
5.20612e-12
4.31318e-12
3.47106e-12
2.69159e-12
1.97802e-12
1.32516e-12
7.20222e-13
5.09322e-15
1.96191e-17
2.93856e-17
7.63134e-15
1.08034e-12
1.99083e-12
2.97744e-12
4.06083e-12
5.25013e-12
6.54149e-12
7.91773e-12
9.34902e-12
1.07947e-11
1.22057e-11
1.35282e-11
1.47072e-11
1.56905e-11
1.64325e-11
1.68979e-11
1.7064e-11
1.69227e-11
1.64807e-11
1.57595e-11
1.47935e-11
1.36274e-11
1.2313e-11
1.09051e-11
9.45786e-12
8.02077e-12
6.63519e-12
5.33175e-12
4.12849e-12
3.03e-12
2.0277e-12
1.10119e-12
7.78481e-15
2.99862e-17
3.93481e-17
1.02183e-14
1.44661e-12
2.66616e-12
3.98835e-12
5.44113e-12
7.03692e-12
8.77066e-12
1.06193e-11
1.25428e-11
1.44863e-11
1.63839e-11
1.81629e-11
1.9749e-11
2.10718e-11
2.20697e-11
2.26952e-11
2.29174e-11
2.27256e-11
2.21289e-11
2.11565e-11
1.9855e-11
1.82847e-11
1.65156e-11
1.46218e-11
1.26763e-11
1.07456e-11
8.88542e-12
7.13676e-12
5.52375e-12
4.05239e-12
2.71096e-12
1.47187e-12
1.04041e-14
4.00752e-17
4.81714e-17
1.25097e-14
1.77101e-12
3.26409e-12
4.883e-12
6.66203e-12
8.61642e-12
1.074e-11
1.30046e-11
1.5361e-11
1.7742e-11
2.00668e-11
2.22462e-11
2.41892e-11
2.58094e-11
2.70315e-11
2.77968e-11
2.8068e-11
2.78315e-11
2.70991e-11
2.59063e-11
2.43103e-11
2.23854e-11
2.02172e-11
1.78968e-11
1.55134e-11
1.31488e-11
1.08709e-11
8.7302e-12
6.75605e-12
4.95575e-12
3.31488e-12
1.79957e-12
1.27197e-14
4.89934e-17
5.53733e-17
1.43805e-14
2.03589e-12
3.75226e-12
5.61327e-12
7.65835e-12
9.90506e-12
1.23463e-11
1.49496e-11
1.76584e-11
2.03954e-11
2.30677e-11
2.55728e-11
2.78059e-11
2.96678e-11
3.10718e-11
3.19507e-11
3.22613e-11
3.19885e-11
3.11454e-11
2.97732e-11
2.79377e-11
2.57242e-11
2.32315e-11
2.05639e-11
1.78242e-11
1.51064e-11
1.24886e-11
1.00286e-11
7.76035e-12
5.69206e-12
3.80717e-12
2.06672e-12
1.4607e-14
5.62602e-17
6.08154e-17
1.57947e-14
2.23618e-12
4.12136e-12
6.16537e-12
8.41154e-12
1.08791e-11
1.35603e-11
1.64195e-11
1.93944e-11
2.24003e-11
2.5335e-11
2.80859e-11
3.0538e-11
3.25822e-11
3.41234e-11
3.50878e-11
3.54281e-11
3.51276e-11
3.42008e-11
3.26931e-11
3.06766e-11
2.82453e-11
2.55073e-11
2.25776e-11
1.95689e-11
1.65844e-11
1.37099e-11
1.1009e-11
8.5186e-12
6.24798e-12
4.17884e-12
2.2684e-12
1.60314e-14
6.17422e-17
6.46299e-17
1.67865e-14
2.37669e-12
4.3803e-12
6.55269e-12
8.93992e-12
1.15624e-11
1.4412e-11
1.74505e-11
2.06122e-11
2.38066e-11
2.69253e-11
2.98485e-11
3.2454e-11
3.4626e-11
3.62634e-11
3.72876e-11
3.76487e-11
3.73286e-11
3.6343e-11
3.47401e-11
3.25967e-11
3.00124e-11
2.71025e-11
2.39889e-11
2.07917e-11
1.76202e-11
1.45658e-11
1.16959e-11
9.04985e-12
6.63745e-12
4.43921e-12
2.40967e-12
1.70288e-14
6.55785e-17
6.71152e-17
1.74331e-14
2.46833e-12
4.5492e-12
6.80533e-12
9.28455e-12
1.20081e-11
1.49675e-11
1.81231e-11
2.14064e-11
2.47238e-11
2.79625e-11
3.09981e-11
3.37037e-11
3.5959e-11
3.7659e-11
3.87222e-11
3.90967e-11
3.87637e-11
3.77398e-11
3.60748e-11
3.38484e-11
3.11644e-11
2.81423e-11
2.49088e-11
2.15886e-11
1.82951e-11
1.51234e-11
1.21434e-11
9.39595e-12
6.89115e-12
4.6088e-12
2.50167e-12
1.7678e-14
6.80741e-17
6.86243e-17
1.7826e-14
2.52405e-12
4.65188e-12
6.95893e-12
9.4941e-12
1.22791e-11
1.53052e-11
1.8532e-11
2.18894e-11
2.52816e-11
2.85931e-11
3.16971e-11
3.44635e-11
3.67694e-11
3.85075e-11
3.95944e-11
3.9977e-11
3.96362e-11
3.85889e-11
3.6886e-11
3.46093e-11
3.18646e-11
2.87742e-11
2.54678e-11
2.20727e-11
1.87052e-11
1.54622e-11
1.24152e-11
9.60613e-12
7.0452e-12
4.71177e-12
2.55753e-12
1.8072e-14
6.95872e-17
6.94809e-17
1.80492e-14
2.55572e-12
4.71025e-12
7.04624e-12
9.61321e-12
1.24332e-11
1.54972e-11
1.87645e-11
2.2164e-11
2.55986e-11
2.89517e-11
3.20945e-11
3.48955e-11
3.72302e-11
3.89899e-11
4.00903e-11
4.04774e-11
4.01322e-11
3.90715e-11
3.73471e-11
3.50417e-11
3.22624e-11
2.91333e-11
2.57854e-11
2.23478e-11
1.89381e-11
1.56546e-11
1.25696e-11
9.72549e-12
7.13267e-12
4.77023e-12
2.58924e-12
1.82954e-14
7.0445e-17
6.9937e-17
1.81681e-14
2.5726e-12
4.74137e-12
7.0928e-12
9.67673e-12
1.25153e-11
1.55996e-11
1.88884e-11
2.23104e-11
2.57677e-11
2.91429e-11
3.23064e-11
3.51259e-11
3.74759e-11
3.92472e-11
4.03547e-11
4.07443e-11
4.03967e-11
3.93288e-11
3.75929e-11
3.52722e-11
3.24745e-11
2.93246e-11
2.59546e-11
2.24944e-11
1.90622e-11
1.57571e-11
1.26518e-11
9.78906e-12
7.17926e-12
4.80136e-12
2.60612e-12
1.84144e-14
7.0901e-17
7.01654e-17
1.82278e-14
2.58107e-12
4.75699e-12
7.11615e-12
9.70859e-12
1.25566e-11
1.5651e-11
1.89507e-11
2.23839e-11
2.58526e-11
2.92389e-11
3.24128e-11
3.52415e-11
3.75993e-11
3.93763e-11
4.04874e-11
4.08782e-11
4.05293e-11
3.94579e-11
3.77163e-11
3.53878e-11
3.25809e-11
2.94206e-11
2.60395e-11
2.25679e-11
1.91244e-11
1.58085e-11
1.2693e-11
9.82092e-12
7.2026e-12
4.81696e-12
2.61458e-12
1.84739e-14
7.11291e-17
7.02733e-17
1.8256e-14
2.58508e-12
4.76438e-12
7.12721e-12
9.72368e-12
1.25761e-11
1.56753e-11
1.89801e-11
2.24187e-11
2.58928e-11
2.92844e-11
3.24632e-11
3.52963e-11
3.76577e-11
3.94374e-11
4.05502e-11
4.09416e-11
4.05922e-11
3.95191e-11
3.77747e-11
3.54426e-11
3.26313e-11
2.94661e-11
2.60797e-11
2.26027e-11
1.91539e-11
1.58328e-11
1.27125e-11
9.836e-12
7.21365e-12
4.82434e-12
2.61858e-12
1.85021e-14
7.12369e-17
7.03216e-17
1.82686e-14
2.58688e-12
4.76769e-12
7.13217e-12
9.73045e-12
1.25848e-11
1.56862e-11
1.89933e-11
2.24343e-11
2.59108e-11
2.93047e-11
3.24858e-11
3.53208e-11
3.76839e-11
3.94649e-11
4.05784e-11
4.09701e-11
4.06204e-11
3.95465e-11
3.78009e-11
3.54671e-11
3.26539e-11
2.94865e-11
2.60977e-11
2.26183e-11
1.91671e-11
1.58437e-11
1.27213e-11
9.84275e-12
7.2186e-12
4.82765e-12
2.62037e-12
1.85147e-14
7.1285e-17
7.03422e-17
1.8274e-14
2.58764e-12
4.7691e-12
7.13428e-12
9.73333e-12
1.25885e-11
1.56909e-11
1.89989e-11
2.24409e-11
2.59185e-11
2.93134e-11
3.24954e-11
3.53313e-11
3.7695e-11
3.94765e-11
4.05904e-11
4.09822e-11
4.06324e-11
3.95582e-11
3.7812e-11
3.54776e-11
3.26635e-11
2.94951e-11
2.61054e-11
2.26249e-11
1.91727e-11
1.58483e-11
1.2725e-11
9.84562e-12
7.2207e-12
4.82905e-12
2.62113e-12
1.852e-14
7.13054e-17
7.03505e-17
1.82762e-14
2.58795e-12
4.76967e-12
7.13513e-12
9.73449e-12
1.259e-11
1.56927e-11
1.90012e-11
2.24436e-11
2.59216e-11
2.93169e-11
3.24993e-11
3.53355e-11
3.76995e-11
3.94813e-11
4.05953e-11
4.09871e-11
4.06372e-11
3.95629e-11
3.78165e-11
3.54818e-11
3.26674e-11
2.94986e-11
2.61085e-11
2.26276e-11
1.9175e-11
1.58502e-11
1.27265e-11
9.84678e-12
7.22155e-12
4.82962e-12
2.62144e-12
1.85222e-14
7.13137e-17
7.03536e-17
1.8277e-14
2.58807e-12
4.76989e-12
7.13546e-12
9.73494e-12
1.25906e-11
1.56935e-11
1.90021e-11
2.24446e-11
2.59228e-11
2.93183e-11
3.25008e-11
3.53372e-11
3.77013e-11
3.94831e-11
4.05972e-11
4.0989e-11
4.06391e-11
3.95647e-11
3.78183e-11
3.54834e-11
3.26689e-11
2.95e-11
2.61097e-11
2.26286e-11
1.91759e-11
1.58509e-11
1.27271e-11
9.84723e-12
7.22188e-12
4.82984e-12
2.62156e-12
1.8523e-14
7.13169e-17
7.03548e-17
1.82773e-14
2.58812e-12
4.76997e-12
7.13558e-12
9.73511e-12
1.25908e-11
1.56937e-11
1.90024e-11
2.2445e-11
2.59232e-11
2.93188e-11
3.25013e-11
3.53378e-11
3.77019e-11
3.94838e-11
4.05978e-11
4.09897e-11
4.06398e-11
3.95654e-11
3.78189e-11
3.5484e-11
3.26694e-11
2.95005e-11
2.61101e-11
2.2629e-11
1.91762e-11
1.58512e-11
1.27273e-11
9.8474e-12
7.222e-12
4.82992e-12
2.6216e-12
1.85233e-14
7.1318e-17
7.03552e-17
1.82774e-14
2.58813e-12
4.77e-12
7.13563e-12
9.73516e-12
1.25909e-11
1.56938e-11
1.90025e-11
2.24452e-11
2.59234e-11
2.9319e-11
3.25015e-11
3.5338e-11
3.77021e-11
3.9484e-11
4.05981e-11
4.09899e-11
4.064e-11
3.95656e-11
3.78191e-11
3.54842e-11
3.26696e-11
2.95007e-11
2.61103e-11
2.26291e-11
1.91763e-11
1.58513e-11
1.27274e-11
9.84745e-12
7.22204e-12
4.82995e-12
2.62162e-12
1.85234e-14
7.13184e-17
7.03554e-17
1.82775e-14
2.58814e-12
4.77001e-12
7.13564e-12
9.73518e-12
1.25909e-11
1.56939e-11
1.90026e-11
2.24452e-11
2.59234e-11
2.9319e-11
3.25016e-11
3.53381e-11
3.77022e-11
3.94841e-11
4.05982e-11
4.099e-11
4.06401e-11
3.95657e-11
3.78192e-11
3.54843e-11
3.26697e-11
2.95007e-11
2.61103e-11
2.26292e-11
1.91763e-11
1.58513e-11
1.27274e-11
9.84747e-12
7.22206e-12
4.82996e-12
2.62162e-12
1.85235e-14
7.13186e-17
7.03554e-17
1.82775e-14
2.58814e-12
4.77001e-12
7.13565e-12
9.73519e-12
1.2591e-11
1.56939e-11
1.90026e-11
2.24452e-11
2.59235e-11
2.9319e-11
3.25016e-11
3.53381e-11
3.77022e-11
3.94841e-11
4.05982e-11
4.099e-11
4.06401e-11
3.95657e-11
3.78192e-11
3.54843e-11
3.26697e-11
2.95007e-11
2.61104e-11
2.26292e-11
1.91763e-11
1.58513e-11
1.27274e-11
9.84748e-12
7.22206e-12
4.82996e-12
2.62163e-12
1.85235e-14
7.13186e-17
7.03554e-17
1.82775e-14
2.58814e-12
4.77002e-12
7.13565e-12
9.73519e-12
1.2591e-11
1.56939e-11
1.90026e-11
2.24452e-11
2.59235e-11
2.9319e-11
3.25016e-11
3.53381e-11
3.77022e-11
3.94841e-11
4.05982e-11
4.099e-11
4.06402e-11
3.95657e-11
3.78192e-11
3.54843e-11
3.26697e-11
2.95007e-11
2.61104e-11
2.26292e-11
1.91764e-11
1.58513e-11
1.27274e-11
9.84748e-12
7.22206e-12
4.82996e-12
2.62163e-12
1.85235e-14
7.13186e-17
7.03554e-17
1.82775e-14
2.58814e-12
4.77002e-12
7.13565e-12
9.73519e-12
1.2591e-11
1.56939e-11
1.90026e-11
2.24452e-11
2.59235e-11
2.9319e-11
3.25016e-11
3.53381e-11
3.77022e-11
3.94841e-11
4.05982e-11
4.099e-11
4.06402e-11
3.95658e-11
3.78192e-11
3.54843e-11
3.26697e-11
2.95007e-11
2.61104e-11
2.26292e-11
1.91764e-11
1.58513e-11
1.27274e-11
9.84748e-12
7.22206e-12
4.82996e-12
2.62163e-12
1.85235e-14
7.13186e-17
7.03554e-17
1.82775e-14
2.58814e-12
4.77002e-12
7.13565e-12
9.73519e-12
1.2591e-11
1.56939e-11
1.90026e-11
2.24452e-11
2.59235e-11
2.9319e-11
3.25016e-11
3.53381e-11
3.77022e-11
3.94841e-11
4.05982e-11
4.099e-11
4.06402e-11
3.95658e-11
3.78192e-11
3.54843e-11
3.26697e-11
2.95007e-11
2.61104e-11
2.26292e-11
1.91764e-11
1.58513e-11
1.27274e-11
9.84748e-12
7.22206e-12
4.82996e-12
2.62163e-12
1.85235e-14
7.13187e-17
7.03554e-17
1.82775e-14
2.58814e-12
4.77002e-12
7.13565e-12
9.73519e-12
1.2591e-11
1.56939e-11
1.90026e-11
2.24452e-11
2.59235e-11
2.9319e-11
3.25016e-11
3.53381e-11
3.77022e-11
3.94841e-11
4.05982e-11
4.099e-11
4.06402e-11
3.95658e-11
3.78192e-11
3.54843e-11
3.26697e-11
2.95007e-11
2.61104e-11
2.26292e-11
1.91764e-11
1.58513e-11
1.27274e-11
9.84748e-12
7.22206e-12
4.82996e-12
2.62163e-12
1.85235e-14
7.13187e-17
7.03554e-17
1.82775e-14
2.58814e-12
4.77002e-12
7.13565e-12
9.73519e-12
1.2591e-11
1.56939e-11
1.90026e-11
2.24452e-11
2.59235e-11
2.9319e-11
3.25016e-11
3.53381e-11
3.77022e-11
3.94841e-11
4.05982e-11
4.099e-11
4.06402e-11
3.95658e-11
3.78192e-11
3.54843e-11
3.26697e-11
2.95007e-11
2.61104e-11
2.26292e-11
1.91764e-11
1.58513e-11
1.27274e-11
9.84748e-12
7.22206e-12
4.82996e-12
2.62163e-12
1.85235e-14
7.13187e-17
7.03554e-17
1.82775e-14
2.58814e-12
4.77002e-12
7.13565e-12
9.73519e-12
1.2591e-11
1.56939e-11
1.90026e-11
2.24452e-11
2.59235e-11
2.9319e-11
3.25016e-11
3.53381e-11
3.77022e-11
3.94841e-11
4.05982e-11
4.099e-11
4.06402e-11
3.95658e-11
3.78192e-11
3.54843e-11
3.26697e-11
2.95007e-11
2.61104e-11
2.26292e-11
1.91764e-11
1.58513e-11
1.27274e-11
9.84748e-12
7.22206e-12
4.82996e-12
2.62163e-12
1.85235e-14
7.13187e-17
7.03554e-17
1.82775e-14
2.58814e-12
4.77002e-12
7.13565e-12
9.73519e-12
1.2591e-11
1.56939e-11
1.90026e-11
2.24452e-11
2.59235e-11
2.9319e-11
3.25016e-11
3.53381e-11
3.77022e-11
3.94841e-11
4.05982e-11
4.099e-11
4.06402e-11
3.95658e-11
3.78192e-11
3.54843e-11
3.26697e-11
2.95007e-11
2.61104e-11
2.26292e-11
1.91764e-11
1.58513e-11
1.27274e-11
9.84748e-12
7.22206e-12
4.82996e-12
2.62163e-12
1.85235e-14
7.13187e-17
7.03554e-17
1.82775e-14
2.58814e-12
4.77002e-12
7.13565e-12
9.73519e-12
1.2591e-11
1.56939e-11
1.90026e-11
2.24452e-11
2.59235e-11
2.9319e-11
3.25016e-11
3.53381e-11
3.77022e-11
3.94841e-11
4.05982e-11
4.099e-11
4.06402e-11
3.95658e-11
3.78192e-11
3.54843e-11
3.26697e-11
2.95007e-11
2.61104e-11
2.26292e-11
1.91764e-11
1.58513e-11
1.27274e-11
9.84748e-12
7.22206e-12
4.82996e-12
2.62163e-12
1.85235e-14
7.13187e-17
7.03554e-17
1.82775e-14
2.58814e-12
4.77002e-12
7.13565e-12
9.73519e-12
1.2591e-11
1.56939e-11
1.90026e-11
2.24452e-11
2.59235e-11
2.9319e-11
3.25016e-11
3.53381e-11
3.77022e-11
3.94841e-11
4.05982e-11
4.099e-11
4.06402e-11
3.95658e-11
3.78192e-11
3.54843e-11
3.26697e-11
2.95007e-11
2.61104e-11
2.26292e-11
1.91764e-11
1.58513e-11
1.27274e-11
9.84748e-12
7.22206e-12
4.82996e-12
2.62163e-12
1.85235e-14
7.13187e-17
7.03554e-17
1.82775e-14
2.58814e-12
4.77002e-12
7.13565e-12
9.73519e-12
1.2591e-11
1.56939e-11
1.90026e-11
2.24452e-11
2.59235e-11
2.9319e-11
3.25016e-11
3.53381e-11
3.77022e-11
3.94841e-11
4.05982e-11
4.099e-11
4.06402e-11
3.95658e-11
3.78192e-11
3.54843e-11
3.26697e-11
2.95007e-11
2.61104e-11
2.26292e-11
1.91764e-11
1.58513e-11
1.27274e-11
9.84748e-12
7.22206e-12
4.82996e-12
2.62163e-12
1.85235e-14
7.13187e-17
7.03554e-17
1.82775e-14
2.58814e-12
4.77002e-12
7.13565e-12
9.73519e-12
1.2591e-11
1.56939e-11
1.90026e-11
2.24452e-11
2.59235e-11
2.9319e-11
3.25016e-11
3.53381e-11
3.77022e-11
3.94841e-11
4.05982e-11
4.099e-11
4.06402e-11
3.95658e-11
3.78192e-11
3.54843e-11
3.26697e-11
2.95007e-11
2.61104e-11
2.26292e-11
1.91764e-11
1.58513e-11
1.27274e-11
9.84748e-12
7.22206e-12
4.82996e-12
2.62163e-12
1.85235e-14
7.13187e-17
7.03554e-17
1.82775e-14
2.58814e-12
4.77002e-12
7.13565e-12
9.73519e-12
1.2591e-11
1.56939e-11
1.90026e-11
2.24452e-11
2.59235e-11
2.9319e-11
3.25016e-11
3.53381e-11
3.77022e-11
3.94841e-11
4.05982e-11
4.099e-11
4.06402e-11
3.95658e-11
3.78192e-11
3.54843e-11
3.26697e-11
2.95007e-11
2.61104e-11
2.26292e-11
1.91764e-11
1.58513e-11
1.27274e-11
9.84748e-12
7.22206e-12
4.82996e-12
2.62163e-12
1.85235e-14
7.13187e-17
7.03554e-17
1.82775e-14
2.58814e-12
4.77002e-12
7.13565e-12
9.73519e-12
1.2591e-11
1.56939e-11
1.90026e-11
2.24452e-11
2.59235e-11
2.9319e-11
3.25016e-11
3.53381e-11
3.77022e-11
3.94841e-11
4.05982e-11
4.099e-11
4.06402e-11
3.95658e-11
3.78192e-11
3.54843e-11
3.26697e-11
2.95007e-11
2.61104e-11
2.26292e-11
1.91764e-11
1.58513e-11
1.27274e-11
9.84748e-12
7.22206e-12
4.82996e-12
2.62163e-12
1.85235e-14
7.13187e-17
7.03554e-17
1.82775e-14
2.58814e-12
4.77002e-12
7.13565e-12
9.73519e-12
1.2591e-11
1.56939e-11
1.90026e-11
2.24452e-11
2.59235e-11
2.9319e-11
3.25016e-11
3.53381e-11
3.77022e-11
3.94841e-11
4.05982e-11
4.099e-11
4.06402e-11
3.95658e-11
3.78192e-11
3.54843e-11
3.26697e-11
2.95007e-11
2.61104e-11
2.26292e-11
1.91764e-11
1.58513e-11
1.27274e-11
9.84748e-12
7.22206e-12
4.82996e-12
2.62163e-12
1.85235e-14
7.13187e-17
7.03554e-17
1.82775e-14
2.58814e-12
4.77002e-12
7.13565e-12
9.73519e-12
1.2591e-11
1.56939e-11
1.90026e-11
2.24452e-11
2.59235e-11
2.9319e-11
3.25016e-11
3.53381e-11
3.77022e-11
3.94841e-11
4.05982e-11
4.099e-11
4.06402e-11
3.95658e-11
3.78192e-11
3.54843e-11
3.26697e-11
2.95007e-11
2.61104e-11
2.26292e-11
1.91764e-11
1.58513e-11
1.27274e-11
9.84748e-12
7.22206e-12
4.82996e-12
2.62163e-12
1.85235e-14
7.13187e-17
7.03554e-17
1.82775e-14
2.58814e-12
4.77002e-12
7.13565e-12
9.73519e-12
1.2591e-11
1.56939e-11
1.90026e-11
2.24452e-11
2.59235e-11
2.9319e-11
3.25016e-11
3.53381e-11
3.77022e-11
3.94841e-11
4.05982e-11
4.099e-11
4.06402e-11
3.95658e-11
3.78192e-11
3.54843e-11
3.26697e-11
2.95007e-11
2.61104e-11
2.26292e-11
1.91764e-11
1.58513e-11
1.27274e-11
9.84748e-12
7.22206e-12
4.82996e-12
2.62163e-12
1.85235e-14
7.13187e-17
7.03554e-17
1.82775e-14
2.58814e-12
4.77002e-12
7.13565e-12
9.73519e-12
1.2591e-11
1.56939e-11
1.90026e-11
2.24452e-11
2.59235e-11
2.9319e-11
3.25016e-11
3.53381e-11
3.77022e-11
3.94841e-11
4.05982e-11
4.099e-11
4.06402e-11
3.95658e-11
3.78192e-11
3.54843e-11
3.26697e-11
2.95007e-11
2.61104e-11
2.26292e-11
1.91764e-11
1.58513e-11
1.27274e-11
9.84748e-12
7.22206e-12
4.82996e-12
2.62163e-12
1.85235e-14
7.13187e-17
7.03554e-17
1.82775e-14
2.58814e-12
4.77002e-12
7.13565e-12
9.73519e-12
1.2591e-11
1.56939e-11
1.90026e-11
2.24452e-11
2.59235e-11
2.9319e-11
3.25016e-11
3.53381e-11
3.77022e-11
3.94841e-11
4.05982e-11
4.099e-11
4.06402e-11
3.95658e-11
3.78192e-11
3.54843e-11
3.26697e-11
2.95007e-11
2.61104e-11
2.26292e-11
1.91764e-11
1.58513e-11
1.27274e-11
9.84748e-12
7.22206e-12
4.82996e-12
2.62163e-12
1.85235e-14
7.13187e-17
7.03554e-17
1.82775e-14
2.58814e-12
4.77002e-12
7.13565e-12
9.73519e-12
1.2591e-11
1.56939e-11
1.90026e-11
2.24452e-11
2.59235e-11
2.9319e-11
3.25016e-11
3.53381e-11
3.77022e-11
3.94841e-11
4.05982e-11
4.099e-11
4.06402e-11
3.95658e-11
3.78192e-11
3.54843e-11
3.26697e-11
2.95007e-11
2.61104e-11
2.26292e-11
1.91764e-11
1.58513e-11
1.27274e-11
9.84748e-12
7.22206e-12
4.82996e-12
2.62163e-12
1.85235e-14
7.13187e-17
7.03554e-17
1.82775e-14
2.58814e-12
4.77002e-12
7.13565e-12
9.73519e-12
1.2591e-11
1.56939e-11
1.90026e-11
2.24452e-11
2.59235e-11
2.9319e-11
3.25016e-11
3.53381e-11
3.77022e-11
3.94841e-11
4.05982e-11
4.099e-11
4.06402e-11
3.95658e-11
3.78192e-11
3.54843e-11
3.26697e-11
2.95007e-11
2.61104e-11
2.26292e-11
1.91764e-11
1.58513e-11
1.27274e-11
9.84748e-12
7.22206e-12
4.82996e-12
2.62163e-12
1.85235e-14
7.13187e-17
7.03554e-17
1.82775e-14
2.58814e-12
4.77002e-12
7.13565e-12
9.73519e-12
1.2591e-11
1.56939e-11
1.90026e-11
2.24452e-11
2.59235e-11
2.9319e-11
3.25016e-11
3.53381e-11
3.77022e-11
3.94841e-11
4.05982e-11
4.099e-11
4.06402e-11
3.95658e-11
3.78192e-11
3.54843e-11
3.26697e-11
2.95007e-11
2.61104e-11
2.26292e-11
1.91764e-11
1.58513e-11
1.27274e-11
9.84748e-12
7.22206e-12
4.82996e-12
2.62163e-12
1.85235e-14
7.13187e-17
7.03554e-17
1.82775e-14
2.58814e-12
4.77002e-12
7.13565e-12
9.73519e-12
1.2591e-11
1.56939e-11
1.90026e-11
2.24452e-11
2.59235e-11
2.9319e-11
3.25016e-11
3.53381e-11
3.77022e-11
3.94841e-11
4.05982e-11
4.099e-11
4.06402e-11
3.95658e-11
3.78192e-11
3.54843e-11
3.26697e-11
2.95007e-11
2.61104e-11
2.26292e-11
1.91764e-11
1.58513e-11
1.27274e-11
9.84748e-12
7.22206e-12
4.82996e-12
2.62163e-12
1.85235e-14
7.13187e-17
7.03554e-17
1.82775e-14
2.58814e-12
4.77002e-12
7.13565e-12
9.73519e-12
1.2591e-11
1.56939e-11
1.90026e-11
2.24452e-11
2.59235e-11
2.9319e-11
3.25016e-11
3.53381e-11
3.77022e-11
3.94841e-11
4.05982e-11
4.099e-11
4.06402e-11
3.95658e-11
3.78192e-11
3.54843e-11
3.26697e-11
2.95007e-11
2.61104e-11
2.26292e-11
1.91764e-11
1.58513e-11
1.27274e-11
9.84748e-12
7.22206e-12
4.82996e-12
2.62163e-12
1.85235e-14
7.13187e-17
7.03554e-17
1.82775e-14
2.58814e-12
4.77002e-12
7.13565e-12
9.73519e-12
1.2591e-11
1.56939e-11
1.90026e-11
2.24452e-11
2.59235e-11
2.9319e-11
3.25016e-11
3.53381e-11
3.77022e-11
3.94841e-11
4.05982e-11
4.099e-11
4.06402e-11
3.95658e-11
3.78192e-11
3.54843e-11
3.26697e-11
2.95007e-11
2.61104e-11
2.26292e-11
1.91764e-11
1.58513e-11
1.27274e-11
9.84748e-12
7.22206e-12
4.82996e-12
2.62163e-12
1.85235e-14
7.13187e-17
7.03554e-17
1.82775e-14
2.58814e-12
4.77002e-12
7.13565e-12
9.73519e-12
1.2591e-11
1.56939e-11
1.90026e-11
2.24452e-11
2.59235e-11
2.9319e-11
3.25016e-11
3.53381e-11
3.77022e-11
3.94841e-11
4.05982e-11
4.099e-11
4.06402e-11
3.95658e-11
3.78192e-11
3.54843e-11
3.26697e-11
2.95007e-11
2.61104e-11
2.26292e-11
1.91764e-11
1.58513e-11
1.27274e-11
9.84748e-12
7.22206e-12
4.82996e-12
2.62163e-12
1.85235e-14
7.13187e-17
7.03554e-17
1.82775e-14
2.58814e-12
4.77002e-12
7.13565e-12
9.73519e-12
1.2591e-11
1.56939e-11
1.90026e-11
2.24452e-11
2.59235e-11
2.9319e-11
3.25016e-11
3.53381e-11
3.77022e-11
3.94841e-11
4.05982e-11
4.099e-11
4.06402e-11
3.95658e-11
3.78192e-11
3.54843e-11
3.26697e-11
2.95007e-11
2.61104e-11
2.26292e-11
1.91764e-11
1.58513e-11
1.27274e-11
9.84748e-12
7.22206e-12
4.82996e-12
2.62163e-12
1.85235e-14
7.13187e-17
7.03554e-17
1.82775e-14
2.58814e-12
4.77002e-12
7.13565e-12
9.73519e-12
1.2591e-11
1.56939e-11
1.90026e-11
2.24452e-11
2.59235e-11
2.9319e-11
3.25016e-11
3.53381e-11
3.77022e-11
3.94841e-11
4.05982e-11
4.099e-11
4.06402e-11
3.95658e-11
3.78192e-11
3.54843e-11
3.26697e-11
2.95007e-11
2.61104e-11
2.26292e-11
1.91764e-11
1.58513e-11
1.27274e-11
9.84748e-12
7.22206e-12
4.82996e-12
2.62163e-12
1.85235e-14
7.13187e-17
7.03554e-17
1.82775e-14
2.58814e-12
4.77002e-12
7.13565e-12
9.73519e-12
1.2591e-11
1.56939e-11
1.90026e-11
2.24452e-11
2.59235e-11
2.9319e-11
3.25016e-11
3.53381e-11
3.77022e-11
3.94841e-11
4.05982e-11
4.099e-11
4.06402e-11
3.95658e-11
3.78192e-11
3.54843e-11
3.26697e-11
2.95007e-11
2.61104e-11
2.26292e-11
1.91764e-11
1.58513e-11
1.27274e-11
9.84748e-12
7.22206e-12
4.82996e-12
2.62163e-12
1.85235e-14
7.13187e-17
7.03554e-17
1.82775e-14
2.58814e-12
4.77002e-12
7.13565e-12
9.73519e-12
1.2591e-11
1.56939e-11
1.90026e-11
2.24452e-11
2.59235e-11
2.9319e-11
3.25016e-11
3.53381e-11
3.77022e-11
3.94841e-11
4.05982e-11
4.099e-11
4.06402e-11
3.95658e-11
3.78192e-11
3.54843e-11
3.26697e-11
2.95007e-11
2.61104e-11
2.26292e-11
1.91764e-11
1.58513e-11
1.27274e-11
9.84748e-12
7.22206e-12
4.82996e-12
2.62163e-12
1.85235e-14
7.13187e-17
7.03554e-17
1.82775e-14
2.58814e-12
4.77002e-12
7.13565e-12
9.73519e-12
1.2591e-11
1.56939e-11
1.90026e-11
2.24452e-11
2.59235e-11
2.9319e-11
3.25016e-11
3.53381e-11
3.77022e-11
3.94841e-11
4.05982e-11
4.099e-11
4.06402e-11
3.95658e-11
3.78192e-11
3.54843e-11
3.26697e-11
2.95007e-11
2.61104e-11
2.26292e-11
1.91764e-11
1.58513e-11
1.27274e-11
9.84748e-12
7.22206e-12
4.82996e-12
2.62163e-12
1.85235e-14
7.13187e-17
7.03554e-17
1.82775e-14
2.58814e-12
4.77002e-12
7.13565e-12
9.73519e-12
1.2591e-11
1.56939e-11
1.90026e-11
2.24452e-11
2.59235e-11
2.9319e-11
3.25016e-11
3.53381e-11
3.77022e-11
3.94841e-11
4.05982e-11
4.099e-11
4.06402e-11
3.95658e-11
3.78192e-11
3.54843e-11
3.26697e-11
2.95007e-11
2.61104e-11
2.26292e-11
1.91764e-11
1.58513e-11
1.27274e-11
9.84748e-12
7.22206e-12
4.82996e-12
2.62163e-12
1.85235e-14
7.13187e-17
7.03554e-17
1.82775e-14
2.58814e-12
4.77002e-12
7.13565e-12
9.73519e-12
1.2591e-11
1.56939e-11
1.90026e-11
2.24452e-11
2.59235e-11
2.9319e-11
3.25016e-11
3.53381e-11
3.77022e-11
3.94841e-11
4.05982e-11
4.099e-11
4.06402e-11
3.95658e-11
3.78192e-11
3.54843e-11
3.26697e-11
2.95007e-11
2.61104e-11
2.26292e-11
1.91764e-11
1.58513e-11
1.27274e-11
9.84748e-12
7.22206e-12
4.82996e-12
2.62163e-12
1.85235e-14
7.13187e-17
7.03554e-17
1.82775e-14
2.58814e-12
4.77002e-12
7.13565e-12
9.73519e-12
1.2591e-11
1.56939e-11
1.90026e-11
2.24452e-11
2.59235e-11
2.9319e-11
3.25016e-11
3.53381e-11
3.77022e-11
3.94841e-11
4.05982e-11
4.099e-11
4.06402e-11
3.95658e-11
3.78192e-11
3.54843e-11
3.26697e-11
2.95007e-11
2.61104e-11
2.26292e-11
1.91764e-11
1.58513e-11
1.27274e-11
9.84748e-12
7.22206e-12
4.82996e-12
2.62163e-12
1.85235e-14
7.13187e-17
7.03554e-17
1.82775e-14
2.58814e-12
4.77002e-12
7.13565e-12
9.73519e-12
1.2591e-11
1.56939e-11
1.90026e-11
2.24452e-11
2.59235e-11
2.9319e-11
3.25016e-11
3.53381e-11
3.77022e-11
3.94841e-11
4.05982e-11
4.099e-11
4.06402e-11
3.95658e-11
3.78192e-11
3.54843e-11
3.26697e-11
2.95007e-11
2.61104e-11
2.26292e-11
1.91764e-11
1.58513e-11
1.27274e-11
9.84748e-12
7.22206e-12
4.82996e-12
2.62163e-12
1.85235e-14
7.13187e-17
7.03554e-17
1.82775e-14
2.58814e-12
4.77002e-12
7.13565e-12
9.73519e-12
1.2591e-11
1.56939e-11
1.90026e-11
2.24452e-11
2.59235e-11
2.9319e-11
3.25016e-11
3.53381e-11
3.77022e-11
3.94841e-11
4.05982e-11
4.099e-11
4.06402e-11
3.95658e-11
3.78192e-11
3.54843e-11
3.26697e-11
2.95007e-11
2.61104e-11
2.26292e-11
1.91764e-11
1.58513e-11
1.27274e-11
9.84748e-12
7.22206e-12
4.82996e-12
2.62163e-12
1.85235e-14
7.13187e-17
7.03554e-17
1.82775e-14
2.58814e-12
4.77002e-12
7.13565e-12
9.73519e-12
1.2591e-11
1.56939e-11
1.90026e-11
2.24452e-11
2.59235e-11
2.9319e-11
3.25016e-11
3.53381e-11
3.77022e-11
3.94841e-11
4.05982e-11
4.099e-11
4.06402e-11
3.95658e-11
3.78192e-11
3.54843e-11
3.26697e-11
2.95007e-11
2.61104e-11
2.26292e-11
1.91764e-11
1.58513e-11
1.27274e-11
9.84748e-12
7.22206e-12
4.82996e-12
2.62163e-12
1.85235e-14
7.13187e-17
7.03554e-17
1.82775e-14
2.58814e-12
4.77002e-12
7.13565e-12
9.73519e-12
1.2591e-11
1.56939e-11
1.90026e-11
2.24452e-11
2.59235e-11
2.9319e-11
3.25016e-11
3.53381e-11
3.77022e-11
3.94841e-11
4.05982e-11
4.099e-11
4.06402e-11
3.95658e-11
3.78192e-11
3.54843e-11
3.26697e-11
2.95007e-11
2.61104e-11
2.26292e-11
1.91764e-11
1.58513e-11
1.27274e-11
9.84748e-12
7.22206e-12
4.82996e-12
2.62163e-12
1.85235e-14
7.13187e-17
7.03554e-17
1.82775e-14
2.58814e-12
4.77002e-12
7.13565e-12
9.73519e-12
1.2591e-11
1.56939e-11
1.90026e-11
2.24452e-11
2.59235e-11
2.9319e-11
3.25016e-11
3.53381e-11
3.77022e-11
3.94841e-11
4.05982e-11
4.099e-11
4.06402e-11
3.95658e-11
3.78192e-11
3.54843e-11
3.26697e-11
2.95007e-11
2.61104e-11
2.26292e-11
1.91764e-11
1.58513e-11
1.27274e-11
9.84748e-12
7.22206e-12
4.82996e-12
2.62163e-12
1.85235e-14
7.13187e-17
7.03554e-17
1.82775e-14
2.58814e-12
4.77002e-12
7.13565e-12
9.73519e-12
1.2591e-11
1.56939e-11
1.90026e-11
2.24452e-11
2.59235e-11
2.9319e-11
3.25016e-11
3.53381e-11
3.77022e-11
3.94841e-11
4.05982e-11
4.099e-11
4.06402e-11
3.95658e-11
3.78192e-11
3.54843e-11
3.26697e-11
2.95007e-11
2.61104e-11
2.26292e-11
1.91764e-11
1.58513e-11
1.27274e-11
9.84748e-12
7.22206e-12
4.82996e-12
2.62163e-12
1.85235e-14
7.13187e-17
7.03554e-17
1.82775e-14
2.58814e-12
4.77002e-12
7.13565e-12
9.73519e-12
1.2591e-11
1.56939e-11
1.90026e-11
2.24452e-11
2.59235e-11
2.9319e-11
3.25016e-11
3.53381e-11
3.77022e-11
3.94841e-11
4.05982e-11
4.099e-11
4.06402e-11
3.95658e-11
3.78192e-11
3.54843e-11
3.26697e-11
2.95007e-11
2.61104e-11
2.26292e-11
1.91764e-11
1.58513e-11
1.27274e-11
9.84748e-12
7.22206e-12
4.82996e-12
2.62163e-12
1.85235e-14
7.13187e-17
7.03554e-17
1.82775e-14
2.58814e-12
4.77002e-12
7.13565e-12
9.73519e-12
1.2591e-11
1.56939e-11
1.90026e-11
2.24452e-11
2.59235e-11
2.9319e-11
3.25016e-11
3.53381e-11
3.77022e-11
3.94841e-11
4.05982e-11
4.099e-11
4.06402e-11
3.95658e-11
3.78192e-11
3.54843e-11
3.26697e-11
2.95007e-11
2.61104e-11
2.26292e-11
1.91764e-11
1.58513e-11
1.27274e-11
9.84748e-12
7.22206e-12
4.82996e-12
2.62163e-12
1.85235e-14
7.13187e-17
7.03554e-17
1.82775e-14
2.58814e-12
4.77002e-12
7.13565e-12
9.73519e-12
1.2591e-11
1.56939e-11
1.90026e-11
2.24452e-11
2.59235e-11
2.9319e-11
3.25016e-11
3.53381e-11
3.77022e-11
3.94841e-11
4.05982e-11
4.099e-11
4.06402e-11
3.95658e-11
3.78192e-11
3.54843e-11
3.26697e-11
2.95007e-11
2.61104e-11
2.26292e-11
1.91764e-11
1.58513e-11
1.27274e-11
9.84748e-12
7.22206e-12
4.82996e-12
2.62163e-12
1.85235e-14
7.13187e-17
7.03554e-17
1.82775e-14
2.58814e-12
4.77002e-12
7.13565e-12
9.73519e-12
1.2591e-11
1.56939e-11
1.90026e-11
2.24452e-11
2.59235e-11
2.9319e-11
3.25016e-11
3.53381e-11
3.77022e-11
3.94841e-11
4.05982e-11
4.099e-11
4.06402e-11
3.95658e-11
3.78192e-11
3.54843e-11
3.26697e-11
2.95007e-11
2.61104e-11
2.26292e-11
1.91764e-11
1.58513e-11
1.27274e-11
9.84748e-12
7.22206e-12
4.82996e-12
2.62163e-12
1.85235e-14
7.13187e-17
7.03554e-17
1.82775e-14
2.58814e-12
4.77002e-12
7.13565e-12
9.73519e-12
1.2591e-11
1.56939e-11
1.90026e-11
2.24452e-11
2.59235e-11
2.9319e-11
3.25016e-11
3.53381e-11
3.77022e-11
3.94841e-11
4.05982e-11
4.099e-11
4.06402e-11
3.95658e-11
3.78192e-11
3.54843e-11
3.26697e-11
2.95007e-11
2.61104e-11
2.26292e-11
1.91764e-11
1.58513e-11
1.27274e-11
9.84748e-12
7.22206e-12
4.82996e-12
2.62163e-12
1.85235e-14
7.13187e-17
7.03554e-17
1.82775e-14
2.58814e-12
4.77002e-12
7.13565e-12
9.73519e-12
1.2591e-11
1.56939e-11
1.90026e-11
2.24452e-11
2.59235e-11
2.9319e-11
3.25016e-11
3.53381e-11
3.77022e-11
3.94841e-11
4.05982e-11
4.099e-11
4.06402e-11
3.95658e-11
3.78192e-11
3.54843e-11
3.26697e-11
2.95007e-11
2.61104e-11
2.26292e-11
1.91764e-11
1.58513e-11
1.27274e-11
9.84748e-12
7.22206e-12
4.82996e-12
2.62163e-12
1.85235e-14
7.13187e-17
7.03554e-17
1.82775e-14
2.58814e-12
4.77002e-12
7.13565e-12
9.73519e-12
1.2591e-11
1.56939e-11
1.90026e-11
2.24452e-11
2.59235e-11
2.9319e-11
3.25016e-11
3.53381e-11
3.77022e-11
3.94841e-11
4.05982e-11
4.099e-11
4.06402e-11
3.95658e-11
3.78192e-11
3.54843e-11
3.26697e-11
2.95007e-11
2.61104e-11
2.26292e-11
1.91764e-11
1.58513e-11
1.27274e-11
9.84748e-12
7.22206e-12
4.82996e-12
2.62163e-12
1.85235e-14
7.13187e-17
7.03554e-17
1.82775e-14
2.58814e-12
4.77002e-12
7.13565e-12
9.73519e-12
1.2591e-11
1.56939e-11
1.90026e-11
2.24452e-11
2.59235e-11
2.9319e-11
3.25016e-11
3.53381e-11
3.77022e-11
3.94841e-11
4.05982e-11
4.099e-11