/*--------------------------------*- C++ -*----------------------------------*\
  =========                 |
  \\      /  F ield         | OpenFOAM: The Open Source CFD Toolbox
   \\    /   O peration     | Website:  https://openfoam.org
    \\  /    A nd           | Version:  13
     \\/     M anipulation  |
\*---------------------------------------------------------------------------*/
FoamFile
{
    format      ascii;
    class       volScalarField;
    location    "17";
    object      nut;
}
// * * * * * * * * * * * * * * * * * * * * * * * * * * * * * * * * * * * * * //

dimensions      [0 2 -1 0 0 0 0];

internalField   nonuniform List<scalar> 
78750
(
2.44926e-15
6.29435e-13
1.42491e-11
2.59402e-11
3.84055e-11
5.17849e-11
6.61149e-11
8.13059e-11
9.71404e-11
1.13284e-10
1.29308e-10
1.44716e-10
1.58981e-10
1.71575e-10
1.82006e-10
1.89851e-10
1.94783e-10
1.96592e-10
1.95201e-10
1.90668e-10
1.83185e-10
1.73063e-10
1.60713e-10
1.46619e-10
1.31303e-10
1.15295e-10
9.90955e-11
8.31406e-11
6.77757e-11
5.32293e-11
3.95994e-11
2.68506e-11
1.48271e-11
6.59613e-13
2.57617e-15
5.38247e-14
1.40505e-11
1.99259e-09
3.65576e-09
5.42926e-09
7.33961e-09
9.39486e-09
1.1583e-08
1.38722e-08
1.62133e-08
1.85426e-08
2.07866e-08
2.28669e-08
2.47049e-08
2.62274e-08
2.73713e-08
2.8088e-08
2.83464e-08
2.81351e-08
2.74633e-08
2.63599e-08
2.48718e-08
2.30606e-08
2.09986e-08
1.87637e-08
1.64346e-08
1.40853e-08
1.17803e-08
9.57024e-09
7.48819e-09
5.54748e-09
3.7409e-09
2.04203e-09
1.44197e-11
5.52675e-14
1.58826e-13
4.14701e-11
5.89498e-09
1.08916e-08
1.63438e-08
2.23756e-08
2.9043e-08
3.6325e-08
4.41216e-08
5.22594e-08
6.0502e-08
6.85674e-08
7.61439e-08
8.29106e-08
8.85608e-08
9.28266e-08
9.55003e-08
9.64493e-08
9.56261e-08
9.30719e-08
8.89134e-08
8.33535e-08
7.66557e-08
6.91243e-08
6.10793e-08
5.28327e-08
4.46686e-08
3.68259e-08
2.94824e-08
2.27423e-08
1.66306e-08
1.10946e-08
6.01085e-09
4.2326e-11
1.62158e-13
3.13844e-13
8.1981e-11
1.16668e-08
2.16218e-08
3.2593e-08
4.487e-08
5.85969e-08
7.37521e-08
9.01415e-08
1.07405e-07
1.25044e-07
1.4245e-07
1.58927e-07
1.73732e-07
1.86149e-07
1.95548e-07
2.01439e-07
2.03508e-07
2.01645e-07
1.9595e-07
1.86726e-07
1.74456e-07
1.59763e-07
1.43361e-07
1.25988e-07
1.08343e-07
9.10365e-08
7.45721e-08
5.93152e-08
4.54677e-08
3.30582e-08
2.19487e-08
1.18521e-08
8.33444e-11
3.19144e-13
4.80309e-13
1.25526e-10
1.78732e-08
3.31605e-08
5.00695e-08
6.90658e-08
9.0383e-08
1.1399e-07
1.39578e-07
1.66576e-07
1.94195e-07
2.21478e-07
2.47322e-07
2.70547e-07
2.90019e-07
3.04745e-07
3.13958e-07
3.17172e-07
3.14216e-07
3.05248e-07
2.90743e-07
2.71457e-07
2.48375e-07
2.22627e-07
1.95388e-07
1.67766e-07
1.4072e-07
1.1504e-07
9.13057e-08
6.98344e-08
5.06673e-08
3.35795e-08
1.81097e-08
1.27264e-10
4.87059e-13
6.23229e-13
1.62956e-10
2.32103e-08
4.30802e-08
6.50883e-08
8.98474e-08
1.17661e-07
1.48479e-07
1.81883e-07
2.17107e-07
2.53109e-07
2.88639e-07
3.22255e-07
3.52426e-07
3.77684e-07
3.9676e-07
4.08675e-07
4.12813e-07
4.08959e-07
3.97315e-07
3.78484e-07
3.53433e-07
3.23423e-07
2.89915e-07
2.54439e-07
2.18437e-07
1.83163e-07
1.49661e-07
1.18702e-07
9.0716e-08
6.57637e-08
4.35527e-08
2.34762e-08
1.64909e-10
6.30812e-13
7.26212e-13
1.89965e-10
2.70637e-08
5.02411e-08
7.5927e-08
1.04839e-07
1.37326e-07
1.7332e-07
2.12315e-07
2.53399e-07
2.95348e-07
3.367e-07
3.75778e-07
4.10809e-07
4.40104e-07
4.62204e-07
4.75992e-07
4.80768e-07
4.76287e-07
4.6278e-07
4.40935e-07
4.11856e-07
3.76993e-07
3.38029e-07
2.96735e-07
2.5479e-07
2.13656e-07
1.74561e-07
1.38422e-07
1.05754e-07
7.66385e-08
5.0738e-08
2.73428e-08
1.92014e-10
7.34166e-13
7.90154e-13
2.06762e-10
2.94622e-08
5.46978e-08
8.26719e-08
1.14166e-07
1.49556e-07
1.88761e-07
2.31216e-07
2.75918e-07
3.21528e-07
3.66453e-07
4.08876e-07
4.46875e-07
4.78629e-07
5.02568e-07
5.17494e-07
5.22656e-07
5.17792e-07
5.0315e-07
4.79468e-07
4.47933e-07
4.10104e-07
3.67798e-07
3.22932e-07
2.77328e-07
2.32577e-07
1.90022e-07
1.50671e-07
1.15097e-07
8.33958e-08
5.52028e-08
2.97453e-08
2.0884e-10
7.98223e-13
8.25002e-13
2.15931e-10
3.0773e-08
5.71336e-08
8.63581e-08
1.19263e-07
1.56239e-07
1.97195e-07
2.41538e-07
2.8821e-07
3.35809e-07
3.82674e-07
4.26908e-07
4.66514e-07
4.99597e-07
5.2453e-07
5.40069e-07
5.45438e-07
5.40367e-07
5.25111e-07
5.00436e-07
4.67572e-07
4.28137e-07
3.8402e-07
3.37215e-07
2.89622e-07
2.42902e-07
1.98461e-07
1.57358e-07
1.20198e-07
8.70845e-08
5.76398e-08
3.10565e-08
2.18013e-10
8.33084e-13
8.41922e-13
2.20392e-10
3.14113e-08
5.83199e-08
8.81537e-08
1.21746e-07
1.59494e-07
2.01304e-07
2.46565e-07
2.94195e-07
3.42762e-07
3.90569e-07
4.35684e-07
4.7607e-07
5.09797e-07
5.35211e-07
5.51048e-07
5.56517e-07
5.51345e-07
5.35792e-07
5.10635e-07
4.77126e-07
4.36911e-07
3.91914e-07
3.44167e-07
2.95606e-07
2.47928e-07
2.02569e-07
1.60613e-07
1.2268e-07
8.88796e-08
5.88257e-08
3.16944e-08
2.22471e-10
8.49992e-13
8.49332e-13
2.22349e-10
3.16917e-08
5.88412e-08
8.89428e-08
1.22837e-07
1.60925e-07
2.03111e-07
2.48776e-07
2.96828e-07
3.4582e-07
3.94041e-07
4.39543e-07
4.80271e-07
5.14282e-07
5.39907e-07
5.55875e-07
5.61388e-07
5.56172e-07
5.40487e-07
5.15118e-07
4.81326e-07
4.40768e-07
3.95384e-07
3.47222e-07
2.98236e-07
2.50137e-07
2.04374e-07
1.62043e-07
1.23771e-07
8.9668e-08
5.93463e-08
3.19744e-08
2.24425e-10
8.57391e-13
8.52289e-13
2.23132e-10
3.1804e-08
5.90499e-08
8.92588e-08
1.23274e-07
1.61499e-07
2.03835e-07
2.49662e-07
2.97883e-07
3.47045e-07
3.95434e-07
4.4109e-07
4.81956e-07
5.16081e-07
5.41791e-07
5.57811e-07
5.63342e-07
5.58108e-07
5.42371e-07
5.16917e-07
4.8301e-07
4.42315e-07
3.96775e-07
3.48448e-07
2.99291e-07
2.51023e-07
2.05097e-07
1.62616e-07
1.24207e-07
8.99836e-08
5.95548e-08
3.20864e-08
2.25206e-10
8.60342e-13
8.53373e-13
2.23419e-10
3.18453e-08
5.91267e-08
8.93751e-08
1.23435e-07
1.6171e-07
2.04101e-07
2.49988e-07
2.98272e-07
3.47497e-07
3.95947e-07
4.41661e-07
4.82578e-07
5.16744e-07
5.42486e-07
5.58525e-07
5.64063e-07
5.58822e-07
5.43065e-07
5.1758e-07
4.83632e-07
4.42885e-07
3.97288e-07
3.48899e-07
2.99679e-07
2.51349e-07
2.05364e-07
1.62827e-07
1.24368e-07
9.00997e-08
5.96314e-08
3.21276e-08
2.25493e-10
8.61424e-13
8.5374e-13
2.23517e-10
3.18593e-08
5.91529e-08
8.94147e-08
1.2349e-07
1.61782e-07
2.04192e-07
2.501e-07
2.98404e-07
3.47651e-07
3.96122e-07
4.41855e-07
4.8279e-07
5.16971e-07
5.42723e-07
5.58769e-07
5.64309e-07
5.59065e-07
5.43302e-07
5.17806e-07
4.83844e-07
4.4308e-07
3.97463e-07
3.49053e-07
2.99812e-07
2.5146e-07
2.05454e-07
1.62898e-07
1.24423e-07
9.01393e-08
5.96575e-08
3.21417e-08
2.2559e-10
8.6179e-13
8.53856e-13
2.23547e-10
3.18638e-08
5.91611e-08
8.94272e-08
1.23507e-07
1.61805e-07
2.04221e-07
2.50135e-07
2.98446e-07
3.477e-07
3.96178e-07
4.41917e-07
4.82857e-07
5.17043e-07
5.42798e-07
5.58847e-07
5.64387e-07
5.59143e-07
5.43378e-07
5.17878e-07
4.83911e-07
4.43142e-07
3.97519e-07
3.49102e-07
2.99854e-07
2.51495e-07
2.05483e-07
1.62921e-07
1.2444e-07
9.01518e-08
5.96658e-08
3.21461e-08
2.25621e-10
8.61906e-13
8.53891e-13
2.23557e-10
3.18651e-08
5.91636e-08
8.9431e-08
1.23512e-07
1.61811e-07
2.0423e-07
2.50145e-07
2.98459e-07
3.47715e-07
3.96194e-07
4.41936e-07
4.82877e-07
5.17064e-07
5.42821e-07
5.5887e-07
5.6441e-07
5.59166e-07
5.434e-07
5.179e-07
4.83931e-07
4.4316e-07
3.97535e-07
3.49117e-07
2.99866e-07
2.51506e-07
2.05492e-07
1.62928e-07
1.24445e-07
9.01555e-08
5.96682e-08
3.21474e-08
2.2563e-10
8.6194e-13
8.539e-13
2.23559e-10
3.18654e-08
5.91643e-08
8.9432e-08
1.23514e-07
1.61813e-07
2.04232e-07
2.50148e-07
2.98462e-07
3.47719e-07
3.96199e-07
4.41941e-07
4.82883e-07
5.1707e-07
5.42827e-07
5.58876e-07
5.64416e-07
5.59172e-07
5.43406e-07
5.17905e-07
4.83936e-07
4.43165e-07
3.9754e-07
3.49121e-07
2.9987e-07
2.51509e-07
2.05494e-07
1.6293e-07
1.24447e-07
9.01566e-08
5.96689e-08
3.21478e-08
2.25632e-10
8.6195e-13
8.53903e-13
2.2356e-10
3.18655e-08
5.91644e-08
8.94323e-08
1.23514e-07
1.61814e-07
2.04233e-07
2.50149e-07
2.98463e-07
3.4772e-07
3.962e-07
4.41942e-07
4.82884e-07
5.17072e-07
5.42829e-07
5.58878e-07
5.64418e-07
5.59174e-07
5.43408e-07
5.17907e-07
4.83938e-07
4.43167e-07
3.97541e-07
3.49122e-07
2.99871e-07
2.51509e-07
2.05495e-07
1.6293e-07
1.24447e-07
9.01568e-08
5.96691e-08
3.21479e-08
2.25633e-10
8.61952e-13
8.53903e-13
2.2356e-10
3.18656e-08
5.91645e-08
8.94323e-08
1.23514e-07
1.61814e-07
2.04233e-07
2.50149e-07
2.98463e-07
3.4772e-07
3.962e-07
4.41942e-07
4.82884e-07
5.17072e-07
5.42829e-07
5.58878e-07
5.64419e-07
5.59174e-07
5.43408e-07
5.17907e-07
4.83938e-07
4.43167e-07
3.97541e-07
3.49122e-07
2.99871e-07
2.5151e-07
2.05495e-07
1.6293e-07
1.24447e-07
9.01569e-08
5.96691e-08
3.21479e-08
2.25633e-10
8.61953e-13
8.53903e-13
2.2356e-10
3.18656e-08
5.91645e-08
8.94323e-08
1.23514e-07
1.61814e-07
2.04233e-07
2.50149e-07
2.98463e-07
3.4772e-07
3.962e-07
4.41943e-07
4.82884e-07
5.17072e-07
5.42829e-07
5.58878e-07
5.64419e-07
5.59174e-07
5.43408e-07
5.17908e-07
4.83938e-07
4.43167e-07
3.97541e-07
3.49122e-07
2.99871e-07
2.5151e-07
2.05495e-07
1.6293e-07
1.24447e-07
9.01569e-08
5.96691e-08
3.21479e-08
2.25633e-10
8.61953e-13
8.53903e-13
2.2356e-10
3.18656e-08
5.91645e-08
8.94324e-08
1.23514e-07
1.61814e-07
2.04233e-07
2.50149e-07
2.98463e-07
3.4772e-07
3.962e-07
4.41943e-07
4.82884e-07
5.17072e-07
5.42829e-07
5.58878e-07
5.64419e-07
5.59174e-07
5.43408e-07
5.17908e-07
4.83938e-07
4.43167e-07
3.97541e-07
3.49122e-07
2.99871e-07
2.5151e-07
2.05495e-07
1.6293e-07
1.24447e-07
9.01569e-08
5.96691e-08
3.21479e-08
2.25633e-10
8.61953e-13
8.53903e-13
2.2356e-10
3.18656e-08
5.91645e-08
8.94324e-08
1.23514e-07
1.61814e-07
2.04233e-07
2.50149e-07
2.98463e-07
3.4772e-07
3.962e-07
4.41943e-07
4.82884e-07
5.17072e-07
5.42829e-07
5.58878e-07
5.64419e-07
5.59174e-07
5.43408e-07
5.17908e-07
4.83938e-07
4.43167e-07
3.97541e-07
3.49122e-07
2.99871e-07
2.5151e-07
2.05495e-07
1.6293e-07
1.24447e-07
9.01569e-08
5.96691e-08
3.21479e-08
2.25633e-10
8.61953e-13
8.53903e-13
2.2356e-10
3.18656e-08
5.91645e-08
8.94324e-08
1.23514e-07
1.61814e-07
2.04233e-07
2.50149e-07
2.98463e-07
3.4772e-07
3.962e-07
4.41943e-07
4.82884e-07
5.17072e-07
5.42829e-07
5.58878e-07
5.64419e-07
5.59174e-07
5.43408e-07
5.17908e-07
4.83938e-07
4.43167e-07
3.97541e-07
3.49122e-07
2.99871e-07
2.5151e-07
2.05495e-07
1.6293e-07
1.24447e-07
9.01569e-08
5.96691e-08
3.21479e-08
2.25633e-10
8.61953e-13
8.53903e-13
2.2356e-10
3.18656e-08
5.91645e-08
8.94324e-08
1.23514e-07
1.61814e-07
2.04233e-07
2.50149e-07
2.98463e-07
3.4772e-07
3.962e-07
4.41943e-07
4.82884e-07
5.17072e-07
5.42829e-07
5.58878e-07
5.64419e-07
5.59174e-07
5.43408e-07
5.17908e-07
4.83938e-07
4.43167e-07
3.97541e-07
3.49122e-07
2.99871e-07
2.5151e-07
2.05495e-07
1.6293e-07
1.24447e-07
9.01569e-08
5.96691e-08
3.21479e-08
2.25633e-10
8.61953e-13
8.53903e-13
2.2356e-10
3.18656e-08
5.91645e-08
8.94324e-08
1.23514e-07
1.61814e-07
2.04233e-07
2.50149e-07
2.98463e-07
3.4772e-07
3.962e-07
4.41943e-07
4.82884e-07
5.17072e-07
5.42829e-07
5.58878e-07
5.64419e-07
5.59174e-07
5.43408e-07
5.17908e-07
4.83938e-07
4.43167e-07
3.97541e-07
3.49122e-07
2.99871e-07
2.5151e-07
2.05495e-07
1.6293e-07
1.24447e-07
9.01569e-08
5.96691e-08
3.21479e-08
2.25633e-10
8.61953e-13
8.53903e-13
2.2356e-10
3.18656e-08
5.91645e-08
8.94324e-08
1.23514e-07
1.61814e-07
2.04233e-07
2.50149e-07
2.98463e-07
3.4772e-07
3.962e-07
4.41943e-07
4.82884e-07
5.17072e-07
5.42829e-07
5.58878e-07
5.64419e-07
5.59174e-07
5.43408e-07
5.17908e-07
4.83938e-07
4.43167e-07
3.97541e-07
3.49122e-07
2.99871e-07
2.5151e-07
2.05495e-07
1.6293e-07
1.24447e-07
9.01569e-08
5.96691e-08
3.21479e-08
2.25633e-10
8.61953e-13
8.53903e-13
2.2356e-10
3.18656e-08
5.91645e-08
8.94324e-08
1.23514e-07
1.61814e-07
2.04233e-07
2.50149e-07
2.98463e-07
3.4772e-07
3.962e-07
4.41943e-07
4.82884e-07
5.17072e-07
5.42829e-07
5.58878e-07
5.64419e-07
5.59174e-07
5.43408e-07
5.17908e-07
4.83938e-07
4.43167e-07
3.97541e-07
3.49122e-07
2.99871e-07
2.5151e-07
2.05495e-07
1.6293e-07
1.24447e-07
9.01569e-08
5.96691e-08
3.21479e-08
2.25633e-10
8.61953e-13
8.53903e-13
2.2356e-10
3.18656e-08
5.91645e-08
8.94324e-08
1.23514e-07
1.61814e-07
2.04233e-07
2.50149e-07
2.98463e-07
3.4772e-07
3.962e-07
4.41943e-07
4.82884e-07
5.17072e-07
5.42829e-07
5.58878e-07
5.64419e-07
5.59174e-07
5.43408e-07
5.17908e-07
4.83938e-07
4.43167e-07
3.97541e-07
3.49122e-07
2.99871e-07
2.5151e-07
2.05495e-07
1.6293e-07
1.24447e-07
9.01569e-08
5.96691e-08
3.21479e-08
2.25633e-10
8.61953e-13
8.53903e-13
2.2356e-10
3.18656e-08
5.91645e-08
8.94324e-08
1.23514e-07
1.61814e-07
2.04233e-07
2.50149e-07
2.98463e-07
3.4772e-07
3.962e-07
4.41943e-07
4.82884e-07
5.17072e-07
5.42829e-07
5.58878e-07
5.64419e-07
5.59174e-07
5.43408e-07
5.17908e-07
4.83938e-07
4.43167e-07
3.97541e-07
3.49122e-07
2.99871e-07
2.5151e-07
2.05495e-07
1.6293e-07
1.24447e-07
9.01569e-08
5.96691e-08
3.21479e-08
2.25633e-10
8.61953e-13
8.53903e-13
2.2356e-10
3.18656e-08
5.91645e-08
8.94324e-08
1.23514e-07
1.61814e-07
2.04233e-07
2.50149e-07
2.98463e-07
3.4772e-07
3.962e-07
4.41943e-07
4.82884e-07
5.17072e-07
5.42829e-07
5.58878e-07
5.64419e-07
5.59174e-07
5.43408e-07
5.17908e-07
4.83938e-07
4.43167e-07
3.97541e-07
3.49122e-07
2.99871e-07
2.5151e-07
2.05495e-07
1.6293e-07
1.24447e-07
9.01569e-08
5.96691e-08
3.21479e-08
2.25633e-10
8.61953e-13
8.53903e-13
2.2356e-10
3.18656e-08
5.91645e-08
8.94324e-08
1.23514e-07
1.61814e-07
2.04233e-07
2.50149e-07
2.98463e-07
3.4772e-07
3.962e-07
4.41943e-07
4.82884e-07
5.17072e-07
5.42829e-07
5.58878e-07
5.64419e-07
5.59174e-07
5.43408e-07
5.17908e-07
4.83938e-07
4.43167e-07
3.97541e-07
3.49122e-07
2.99871e-07
2.5151e-07
2.05495e-07
1.6293e-07
1.24447e-07
9.01569e-08
5.96691e-08
3.21479e-08
2.25633e-10
8.61953e-13
8.53903e-13
2.2356e-10
3.18656e-08
5.91645e-08
8.94324e-08
1.23514e-07
1.61814e-07
2.04233e-07
2.50149e-07
2.98463e-07
3.4772e-07
3.962e-07
4.41943e-07
4.82884e-07
5.17072e-07
5.42829e-07
5.58878e-07
5.64419e-07
5.59174e-07
5.43408e-07
5.17908e-07
4.83938e-07
4.43167e-07
3.97541e-07
3.49122e-07
2.99871e-07
2.5151e-07
2.05495e-07
1.6293e-07
1.24447e-07
9.01569e-08
5.96691e-08
3.21479e-08
2.25633e-10
8.61953e-13
8.53903e-13
2.2356e-10
3.18656e-08
5.91645e-08
8.94324e-08
1.23514e-07
1.61814e-07
2.04233e-07
2.50149e-07
2.98463e-07
3.4772e-07
3.962e-07
4.41943e-07
4.82884e-07
5.17072e-07
5.42829e-07
5.58878e-07
5.64419e-07
5.59174e-07
5.43408e-07
5.17908e-07
4.83938e-07
4.43167e-07
3.97541e-07
3.49122e-07
2.99871e-07
2.5151e-07
2.05495e-07
1.6293e-07
1.24447e-07
9.01569e-08
5.96691e-08
3.21479e-08
2.25633e-10
8.61953e-13
8.53903e-13
2.2356e-10
3.18656e-08
5.91645e-08
8.94324e-08
1.23514e-07
1.61814e-07
2.04233e-07
2.50149e-07
2.98463e-07
3.4772e-07
3.962e-07
4.41943e-07
4.82884e-07
5.17072e-07
5.42829e-07
5.58878e-07
5.64419e-07
5.59174e-07
5.43408e-07
5.17908e-07
4.83938e-07
4.43167e-07
3.97541e-07
3.49122e-07
2.99871e-07
2.5151e-07
2.05495e-07
1.6293e-07
1.24447e-07
9.01569e-08
5.96691e-08
3.21479e-08
2.25633e-10
8.61953e-13
8.53903e-13
2.2356e-10
3.18656e-08
5.91645e-08
8.94324e-08
1.23514e-07
1.61814e-07
2.04233e-07
2.50149e-07
2.98463e-07
3.4772e-07
3.962e-07
4.41943e-07
4.82884e-07
5.17072e-07
5.42829e-07
5.58878e-07
5.64419e-07
5.59174e-07
5.43408e-07
5.17908e-07
4.83938e-07
4.43167e-07
3.97541e-07
3.49122e-07
2.99871e-07
2.5151e-07
2.05495e-07
1.6293e-07
1.24447e-07
9.01569e-08
5.96691e-08
3.21479e-08
2.25633e-10
8.61953e-13
8.53903e-13
2.2356e-10
3.18656e-08
5.91645e-08
8.94324e-08
1.23514e-07
1.61814e-07
2.04233e-07
2.50149e-07
2.98463e-07
3.4772e-07
3.962e-07
4.41943e-07
4.82884e-07
5.17072e-07
5.42829e-07
5.58878e-07
5.64419e-07
5.59174e-07
5.43408e-07
5.17908e-07
4.83938e-07
4.43167e-07
3.97541e-07
3.49122e-07
2.99871e-07
2.5151e-07
2.05495e-07
1.6293e-07
1.24447e-07
9.01569e-08
5.96691e-08
3.21479e-08
2.25633e-10
8.61953e-13
8.53903e-13
2.2356e-10
3.18656e-08
5.91645e-08
8.94324e-08
1.23514e-07
1.61814e-07
2.04233e-07
2.50149e-07
2.98463e-07
3.4772e-07
3.962e-07
4.41943e-07
4.82884e-07
5.17072e-07
5.42829e-07
5.58878e-07
5.64419e-07
5.59174e-07
5.43408e-07
5.17908e-07
4.83938e-07
4.43167e-07
3.97541e-07
3.49122e-07
2.99871e-07
2.5151e-07
2.05495e-07
1.6293e-07
1.24447e-07
9.01569e-08
5.96691e-08
3.21479e-08
2.25633e-10
8.61953e-13
8.53903e-13
2.2356e-10
3.18656e-08
5.91645e-08
8.94324e-08
1.23514e-07
1.61814e-07
2.04233e-07
2.50149e-07
2.98463e-07
3.4772e-07
3.962e-07
4.41943e-07
4.82884e-07
5.17072e-07
5.42829e-07
5.58878e-07
5.64419e-07
5.59174e-07
5.43408e-07
5.17908e-07
4.83938e-07
4.43167e-07
3.97541e-07
3.49122e-07
2.99871e-07
2.5151e-07
2.05495e-07
1.6293e-07
1.24447e-07
9.01569e-08
5.96691e-08
3.21479e-08
2.25633e-10
8.61953e-13
8.53903e-13
2.2356e-10
3.18656e-08
5.91645e-08
8.94324e-08
1.23514e-07
1.61814e-07
2.04233e-07
2.50149e-07
2.98463e-07
3.4772e-07
3.962e-07
4.41943e-07
4.82884e-07
5.17072e-07
5.42829e-07
5.58878e-07
5.64419e-07
5.59174e-07
5.43408e-07
5.17908e-07
4.83938e-07
4.43167e-07
3.97541e-07
3.49122e-07
2.99871e-07
2.5151e-07
2.05495e-07
1.6293e-07
1.24447e-07
9.01569e-08
5.96691e-08
3.21479e-08
2.25633e-10
8.61953e-13
8.53903e-13
2.2356e-10
3.18656e-08
5.91645e-08
8.94324e-08
1.23514e-07
1.61814e-07
2.04233e-07
2.50149e-07
2.98463e-07
3.4772e-07
3.962e-07
4.41943e-07
4.82884e-07
5.17072e-07
5.42829e-07
5.58878e-07
5.64419e-07
5.59174e-07
5.43408e-07
5.17908e-07
4.83938e-07
4.43167e-07
3.97541e-07
3.49122e-07
2.99871e-07
2.5151e-07
2.05495e-07
1.6293e-07
1.24447e-07
9.01569e-08
5.96691e-08
3.21479e-08
2.25633e-10
8.61953e-13
8.53903e-13
2.2356e-10
3.18656e-08
5.91645e-08
8.94324e-08
1.23514e-07
1.61814e-07
2.04233e-07
2.50149e-07
2.98463e-07
3.4772e-07
3.962e-07
4.41943e-07
4.82884e-07
5.17072e-07
5.42829e-07
5.58878e-07
5.64419e-07
5.59174e-07
5.43408e-07
5.17908e-07
4.83938e-07
4.43167e-07
3.97541e-07
3.49122e-07
2.99871e-07
2.5151e-07
2.05495e-07
1.6293e-07
1.24447e-07
9.01569e-08
5.96691e-08
3.21479e-08
2.25633e-10
8.61953e-13
8.53903e-13
2.2356e-10
3.18656e-08
5.91645e-08
8.94324e-08
1.23514e-07
1.61814e-07
2.04233e-07
2.50149e-07
2.98463e-07
3.4772e-07
3.962e-07
4.41943e-07
4.82884e-07
5.17072e-07
5.42829e-07
5.58878e-07
5.64419e-07
5.59174e-07
5.43408e-07
5.17908e-07
4.83938e-07
4.43167e-07
3.97541e-07
3.49122e-07
2.99871e-07
2.5151e-07
2.05495e-07
1.6293e-07
1.24447e-07
9.01569e-08
5.96691e-08
3.21479e-08
2.25633e-10
8.61953e-13
8.53903e-13
2.2356e-10
3.18656e-08
5.91645e-08
8.94324e-08
1.23514e-07
1.61814e-07
2.04233e-07
2.50149e-07
2.98463e-07
3.4772e-07
3.962e-07
4.41943e-07
4.82884e-07
5.17072e-07
5.42829e-07
5.58878e-07
5.64419e-07
5.59174e-07
5.43408e-07
5.17908e-07
4.83938e-07
4.43167e-07
3.97541e-07
3.49122e-07
2.99871e-07
2.5151e-07
2.05495e-07
1.6293e-07
1.24447e-07
9.01569e-08
5.96691e-08
3.21479e-08
2.25633e-10
8.61953e-13
8.53903e-13
2.2356e-10
3.18656e-08
5.91645e-08
8.94324e-08
1.23514e-07
1.61814e-07
2.04233e-07
2.50149e-07
2.98463e-07
3.4772e-07
3.962e-07
4.41943e-07
4.82884e-07
5.17072e-07
5.42829e-07
5.58878e-07
5.64419e-07
5.59174e-07
5.43408e-07
5.17908e-07
4.83938e-07
4.43167e-07
3.97541e-07
3.49122e-07
2.99871e-07
2.5151e-07
2.05495e-07
1.6293e-07
1.24447e-07
9.01569e-08
5.96691e-08
3.21479e-08
2.25633e-10
8.61953e-13
8.53903e-13
2.2356e-10
3.18656e-08
5.91645e-08
8.94324e-08
1.23514e-07
1.61814e-07
2.04233e-07
2.50149e-07
2.98463e-07
3.4772e-07
3.962e-07
4.41943e-07
4.82884e-07
5.17072e-07
5.42829e-07
5.58878e-07
5.64419e-07
5.59174e-07
5.43408e-07
5.17908e-07
4.83938e-07
4.43167e-07
3.97541e-07
3.49122e-07
2.99871e-07
2.5151e-07
2.05495e-07
1.6293e-07
1.24447e-07
9.01569e-08
5.96691e-08
3.21479e-08
2.25633e-10
8.61953e-13
8.53903e-13
2.2356e-10
3.18656e-08
5.91645e-08
8.94324e-08
1.23514e-07
1.61814e-07
2.04233e-07
2.50149e-07
2.98463e-07
3.4772e-07
3.962e-07
4.41943e-07
4.82884e-07
5.17072e-07
5.42829e-07
5.58878e-07
5.64419e-07
5.59174e-07
5.43408e-07
5.17908e-07
4.83938e-07
4.43167e-07
3.97541e-07
3.49122e-07
2.99871e-07
2.5151e-07
2.05495e-07
1.6293e-07
1.24447e-07
9.01569e-08
5.96691e-08
3.21479e-08
2.25633e-10
8.61953e-13
8.53903e-13
2.2356e-10
3.18656e-08
5.91645e-08
8.94324e-08
1.23514e-07
1.61814e-07
2.04233e-07
2.50149e-07
2.98463e-07
3.4772e-07
3.962e-07
4.41943e-07
4.82884e-07
5.17072e-07
5.42829e-07
5.58878e-07
5.64419e-07
5.59174e-07
5.43408e-07
5.17908e-07
4.83938e-07
4.43167e-07
3.97541e-07
3.49122e-07
2.99871e-07
2.5151e-07
2.05495e-07
1.6293e-07
1.24447e-07
9.01569e-08
5.96691e-08
3.21479e-08
2.25633e-10
8.61953e-13
8.53903e-13
2.2356e-10
3.18656e-08
5.91645e-08
8.94324e-08
1.23514e-07
1.61814e-07
2.04233e-07
2.50149e-07
2.98463e-07
3.4772e-07
3.962e-07
4.41943e-07
4.82884e-07
5.17072e-07
5.42829e-07
5.58878e-07
5.64419e-07
5.59174e-07
5.43408e-07
5.17908e-07
4.83938e-07
4.43167e-07
3.97541e-07
3.49122e-07
2.99871e-07
2.5151e-07
2.05495e-07
1.6293e-07
1.24447e-07
9.01569e-08
5.96691e-08
3.21479e-08
2.25633e-10
8.61953e-13
8.53903e-13
2.2356e-10
3.18656e-08
5.91645e-08
8.94324e-08
1.23514e-07
1.61814e-07
2.04233e-07
2.50149e-07
2.98463e-07
3.4772e-07
3.962e-07
4.41943e-07
4.82884e-07
5.17072e-07
5.42829e-07
5.58878e-07
5.64419e-07
5.59174e-07
5.43408e-07
5.17908e-07
4.83938e-07
4.43167e-07
3.97541e-07
3.49122e-07
2.99871e-07
2.5151e-07
2.05495e-07
1.6293e-07
1.24447e-07
9.01569e-08
5.96691e-08
3.21479e-08
2.25633e-10
8.61953e-13
8.53903e-13
2.2356e-10
3.18656e-08
5.91645e-08
8.94324e-08
1.23514e-07
1.61814e-07
2.04233e-07
2.50149e-07
2.98463e-07
3.4772e-07
3.962e-07
4.41943e-07
4.82884e-07
5.17072e-07
5.42829e-07
5.58878e-07
5.64419e-07
5.59174e-07
5.43408e-07
5.17908e-07
4.83938e-07
4.43167e-07
3.97541e-07
3.49122e-07
2.99871e-07
2.5151e-07
2.05495e-07
1.6293e-07
1.24447e-07
9.01569e-08
5.96691e-08
3.21479e-08
2.25633e-10
8.61953e-13
8.53903e-13
2.2356e-10
3.18656e-08
5.91645e-08
8.94324e-08
1.23514e-07
1.61814e-07
2.04233e-07
2.50149e-07
2.98463e-07
3.4772e-07
3.962e-07
4.41943e-07
4.82884e-07
5.17072e-07
5.42829e-07
5.58878e-07
5.64419e-07
5.59174e-07
5.43408e-07
5.17908e-07
4.83938e-07
4.43167e-07
3.97541e-07
3.49122e-07
2.99871e-07
2.5151e-07
2.05495e-07
1.6293e-07
1.24447e-07
9.01569e-08
5.96691e-08
3.21479e-08
2.25633e-10
8.61953e-13
8.53903e-13
2.2356e-10
3.18656e-08
5.91645e-08
8.94324e-08
1.23514e-07
1.61814e-07
2.04233e-07
2.50149e-07
2.98463e-07
3.4772e-07
3.962e-07
4.41943e-07
4.82884e-07
5.17072e-07
5.42829e-07
5.58878e-07
5.64419e-07
5.59174e-07
5.43408e-07
5.17908e-07
4.83938e-07
4.43167e-07
3.97541e-07
3.49122e-07
2.99871e-07
2.5151e-07
2.05495e-07
1.6293e-07
1.24447e-07
9.01569e-08
5.96691e-08
3.21479e-08
2.25633e-10
8.61953e-13
8.53903e-13
2.2356e-10
3.18656e-08
5.91645e-08
8.94324e-08
1.23514e-07
1.61814e-07
2.04233e-07
2.50149e-07
2.98463e-07
3.4772e-07
3.962e-07
4.41943e-07
4.82884e-07
5.17072e-07
5.42829e-07
5.58878e-07
5.64419e-07
5.59174e-07
5.43408e-07
5.17908e-07
4.83938e-07
4.43167e-07
3.97541e-07
3.49122e-07
2.99871e-07
2.5151e-07
2.05495e-07
1.6293e-07
1.24447e-07
9.01569e-08
5.96691e-08
3.21479e-08
2.25633e-10
8.61953e-13
8.53903e-13
2.2356e-10
3.18656e-08
5.91645e-08
8.94324e-08
1.23514e-07
1.61814e-07
2.04233e-07
2.50149e-07
2.98463e-07
3.4772e-07
3.962e-07
4.41943e-07
4.82884e-07
5.17072e-07
5.42829e-07
5.58878e-07
5.64419e-07
5.59174e-07
5.43408e-07
5.17908e-07
4.83938e-07
4.43167e-07
3.97541e-07
3.49122e-07
2.99871e-07
2.5151e-07
2.05495e-07
1.6293e-07
1.24447e-07
9.01569e-08
5.96691e-08
3.21479e-08
2.25633e-10
8.61953e-13
8.53903e-13
2.2356e-10
3.18656e-08
5.91645e-08
8.94324e-08
1.23514e-07
1.61814e-07
2.04233e-07
2.50149e-07
2.98463e-07
3.4772e-07
3.962e-07
4.41943e-07
4.82884e-07
5.17072e-07
5.42829e-07
5.58878e-07
5.64419e-07
5.59174e-07
5.43408e-07
5.17908e-07
4.83938e-07
4.43167e-07
3.97541e-07
3.49122e-07
2.99871e-07
2.5151e-07
2.05495e-07
1.6293e-07
1.24447e-07
9.01569e-08
5.96691e-08
3.21479e-08
2.25633e-10
8.61953e-13
8.53903e-13
2.2356e-10
3.18656e-08
5.91645e-08
8.94324e-08
1.23514e-07
1.61814e-07
2.04233e-07
2.50149e-07
2.98463e-07
3.4772e-07
3.962e-07
4.41943e-07
4.82884e-07
5.17072e-07
5.42829e-07
5.58878e-07
5.64419e-07
5.59174e-07
5.43408e-07
5.17908e-07
4.83938e-07
4.43167e-07
3.97541e-07
3.49122e-07
2.99871e-07
2.5151e-07
2.05495e-07
1.6293e-07
1.24447e-07
9.01569e-08
5.96691e-08
3.21479e-08
2.25633e-10
8.61953e-13
8.53903e-13
2.2356e-10
3.18656e-08
5.91645e-08
8.94324e-08
1.23514e-07
1.61814e-07
2.04233e-07
2.50149e-07
2.98463e-07
3.4772e-07
3.962e-07
4.41943e-07
4.82884e-07
5.17072e-07
5.42829e-07
5.58878e-07
5.64419e-07
5.59174e-07
5.43408e-07
5.17908e-07
4.83938e-07
4.43167e-07
3.97541e-07
3.49122e-07
2.99871e-07
2.5151e-07
2.05495e-07
1.6293e-07
1.24447e-07
9.01569e-08
5.96691e-08
3.21479e-08
2.25633e-10
8.61953e-13
8.53903e-13
2.2356e-10
3.18656e-08
5.91645e-08
8.94324e-08
1.23514e-07
1.61814e-07
2.04233e-07
2.50149e-07
2.98463e-07
3.4772e-07
3.962e-07
4.41943e-07
4.82884e-07
5.17072e-07
5.42829e-07
5.58878e-07
5.64419e-07
5.59174e-07
5.43408e-07
5.17908e-07
4.83938e-07
4.43167e-07
3.97541e-07
3.49122e-07
2.99871e-07
2.5151e-07
2.05495e-07
1.6293e-07
1.24447e-07
9.01569e-08
5.96691e-08
3.21479e-08
2.25633e-10
8.61953e-13
8.53903e-13
2.2356e-10
3.18656e-08
5.91645e-08
8.94324e-08
1.23514e-07
1.61814e-07
2.04233e-07
2.50149e-07
2.98463e-07
3.4772e-07
3.962e-07
4.41943e-07
4.82884e-07
5.17072e-07
5.42829e-07
5.58878e-07
5.64419e-07
5.59174e-07
5.43408e-07
5.17908e-07
4.83938e-07
4.43167e-07
3.97541e-07
3.49122e-07
2.99871e-07
2.5151e-07
2.05495e-07
1.6293e-07
1.24447e-07
9.01569e-08
5.96691e-08
3.21479e-08
2.25633e-10
8.61953e-13
8.53903e-13
2.2356e-10
3.18656e-08
5.91645e-08
8.94324e-08
1.23514e-07
1.61814e-07
2.04233e-07
2.50149e-07
2.98463e-07
3.4772e-07
3.962e-07
4.41943e-07
4.82884e-07
5.17072e-07
5.42829e-07
5.58878e-07
5.64419e-07
5.59174e-07
5.43408e-07
5.17908e-07
4.83938e-07
4.43167e-07
3.97541e-07
3.49122e-07
2.99871e-07
2.5151e-07
2.05495e-07
1.6293e-07
1.24447e-07
9.01569e-08
5.96691e-08
3.21479e-08
2.25633e-10
8.61953e-13
8.53903e-13
2.2356e-10
3.18656e-08
5.91645e-08
8.94324e-08
1.23514e-07
1.61814e-07
2.04233e-07
2.50149e-07
2.98463e-07
3.4772e-07
3.962e-07
4.41943e-07
4.82884e-07
5.17072e-07
5.42829e-07
5.58878e-07
5.64419e-07
5.59174e-07
5.43408e-07
5.17908e-07
4.83938e-07
4.43167e-07
3.97541e-07
3.49122e-07
2.99871e-07
2.5151e-07
2.05495e-07
1.6293e-07
1.24447e-07
9.01569e-08
5.96691e-08
3.21479e-08
2.25633e-10
8.61953e-13
8.53903e-13
2.2356e-10
3.18656e-08
5.91645e-08
8.94324e-08
1.23514e-07
1.61814e-07
2.04233e-07
2.50149e-07
2.98463e-07
3.4772e-07
3.962e-07
4.41943e-07
4.82884e-07
5.17072e-07
5.42829e-07
5.58878e-07
5.64419e-07
5.59174e-07
5.43408e-07
5.17908e-07
4.83938e-07
4.43167e-07
3.97541e-07
3.49122e-07
2.99871e-07
2.5151e-07
2.05495e-07
1.6293e-07
1.24447e-07
9.01569e-08
5.96691e-08
3.21479e-08
2.25633e-10
8.61953e-13
8.53903e-13
2.2356e-10
3.18656e-08
5.91645e-08
8.94324e-08
1.23514e-07
1.61814e-07
2.04233e-07
2.50149e-07
2.98463e-07
3.4772e-07
3.962e-07
4.41943e-07
4.82884e-07
5.17072e-07
5.42829e-07
5.58878e-07
5.64419e-07
5.59174e-07
5.43408e-07
5.17908e-07
4.83938e-07
4.43167e-07
3.97541e-07
3.49122e-07
2.99871e-07
2.5151e-07
2.05495e-07
1.6293e-07
1.24447e-07
9.01569e-08
5.96691e-08
3.21479e-08
2.25633e-10
8.61953e-13
8.53903e-13
2.2356e-10
3.18656e-08
5.91645e-08
8.94324e-08
1.23514e-07
1.61814e-07
2.04233e-07
2.50149e-07
2.98463e-07
3.4772e-07
3.962e-07
4.41943e-07
4.82884e-07
5.17072e-07
5.42829e-07
5.58878e-07
5.64419e-07
5.59174e-07
5.43408e-07
5.17908e-07
4.83938e-07
4.43167e-07
3.97541e-07
3.49122e-07
2.99871e-07
2.5151e-07
2.05495e-07
1.6293e-07
1.24447e-07
9.01569e-08
5.96691e-08
3.21479e-08
2.25633e-10
8.61953e-13
8.53903e-13
2.2356e-10
3.18656e-08
5.91645e-08
8.94324e-08
1.23514e-07
1.61814e-07
2.04233e-07
2.50149e-07
2.98463e-07
3.4772e-07
3.962e-07
4.41943e-07
4.82884e-07
5.17072e-07
5.42829e-07
5.58878e-07
5.64419e-07
5.59174e-07
5.43408e-07
5.17908e-07
4.83938e-07
4.43167e-07
3.97541e-07
3.49122e-07
2.99871e-07
2.5151e-07
2.05495e-07
1.6293e-07
1.24447e-07
9.01569e-08
5.96691e-08
3.21479e-08
2.25633e-10
8.61953e-13
8.53903e-13
2.2356e-10
3.18656e-08
5.91645e-08
8.94324e-08
1.23514e-07
1.61814e-07
2.04233e-07
2.50149e-07
2.98463e-07
3.4772e-07
3.962e-07
4.41943e-07
4.82884e-07
5.17072e-07
5.42829e-07
5.58878e-07
5.64419e-07
5.59174e-07
5.43408e-07
5.17908e-07
4.83938e-07
4.43167e-07
3.97541e-07
3.49122e-07
2.99871e-07
2.5151e-07
2.05495e-07
1.6293e-07
1.24447e-07
9.01569e-08
5.96691e-08
3.21479e-08
2.25633e-10
8.61953e-13
8.53903e-13
2.2356e-10
3.18656e-08
5.91645e-08
8.94324e-08
1.23514e-07
1.61814e-07
2.04233e-07
2.50149e-07
2.98463e-07
3.4772e-07
3.962e-07
4.41943e-07
4.82884e-07
5.17072e-07
5.42829e-07
5.58878e-07
5.64419e-07
5.59174e-07
5.43408e-07
5.17908e-07
4.83938e-07
4.43167e-07
3.97541e-07
3.49122e-07
2.99871e-07
2.5151e-07
2.05495e-07
1.6293e-07
1.24447e-07
9.01569e-08
5.96691e-08
3.21479e-08
2.25633e-10
8.61953e-13
8.53903e-13
2.2356e-10
3.18656e-08
5.91645e-08
8.94324e-08
1.23514e-07
1.61814e-07
2.04233e-07
2.50149e-07
2.98463e-07
3.4772e-07
3.962e-07
4.41943e-07
4.82884e-07
5.17072e-07
5.42829e-07
5.58878e-07
5.64419e-07
5.59174e-07
5.43408e-07
5.17908e-07
4.83938e-07
4.43167e-07
3.97541e-07
3.49122e-07
2.99871e-07
2.5151e-07
2.05495e-07
1.6293e-07
1.24447e-07
9.01569e-08
5.96691e-08
3.21479e-08
2.25633e-10
8.61953e-13
8.53903e-13
2.2356e-10
3.18656e-08
5.91645e-08
8.94324e-08
1.23514e-07
1.61814e-07
2.04233e-07
2.50149e-07
2.98463e-07
3.4772e-07
3.962e-07
4.41943e-07
4.82884e-07
5.17072e-07
5.42829e-07
5.58878e-07
5.64419e-07
5.59174e-07
5.43408e-07
5.17908e-07
4.83938e-07
4.43167e-07
3.97541e-07
3.49122e-07
2.99871e-07
2.5151e-07
2.05495e-07
1.6293e-07
1.24447e-07
9.01569e-08
5.96691e-08
3.21479e-08
2.25633e-10
8.61953e-13
8.53903e-13
2.2356e-10
3.18656e-08
5.91645e-08
8.94324e-08
1.23514e-07
1.61814e-07
2.04233e-07
2.50149e-07
2.98463e-07
3.4772e-07
3.962e-07
4.41943e-07
4.82884e-07
5.17072e-07
5.42829e-07
5.58878e-07
5.64419e-07
5.59174e-07
5.43408e-07
5.17908e-07
4.83938e-07
4.43167e-07
3.97541e-07
3.49122e-07
2.99871e-07
2.5151e-07
2.05495e-07
1.6293e-07
1.24447e-07
9.01569e-08
5.96691e-08
3.21479e-08
2.25633e-10
8.61953e-13
8.53903e-13
2.2356e-10
3.18656e-08
5.91645e-08
8.94324e-08
1.23514e-07
1.61814e-07
2.04233e-07
2.50149e-07
2.98463e-07
3.4772e-07
3.962e-07
4.41943e-07
4.82884e-07
5.17072e-07
5.42829e-07
5.58878e-07
5.64419e-07
5.59174e-07
5.43408e-07
5.17908e-07
4.83938e-07
4.43167e-07
3.97541e-07
3.49122e-07
2.99871e-07
2.5151e-07