/*--------------------------------*- C++ -*----------------------------------*\
  =========                 |
  \\      /  F ield         | OpenFOAM: The Open Source CFD Toolbox
   \\    /   O peration     | Website:  https://openfoam.org
    \\  /    A nd           | Version:  13
     \\/     M anipulation  |
\*---------------------------------------------------------------------------*/
FoamFile
{
    format      ascii;
    class       volScalarField;
    location    "105";
    object      nut;
}
// * * * * * * * * * * * * * * * * * * * * * * * * * * * * * * * * * * * * * //

dimensions      [0 2 -1 0 0 0 0];

internalField   nonuniform List<scalar> 
315000
(
8.4497e-15
2.21277e-12
5.04902e-11
9.06188e-11
1.31386e-10
1.7287e-10
2.15171e-10
2.58378e-10
3.02548e-10
3.47701e-10
3.93816e-10
4.40826e-10
4.88625e-10
5.37066e-10
5.85967e-10
6.35115e-10
6.84269e-10
7.33168e-10
7.81534e-10
8.29077e-10
8.755e-10
9.20505e-10
9.63793e-10
1.00507e-09
1.04405e-09
1.08046e-09
1.11405e-09
1.14456e-09
1.17178e-09
1.1955e-09
1.21556e-09
1.2318e-09
1.24411e-09
1.25238e-09
1.25656e-09
1.25662e-09
1.25255e-09
1.24439e-09
1.23219e-09
1.21605e-09
1.1961e-09
1.17247e-09
1.14534e-09
1.11491e-09
1.08141e-09
1.04507e-09
1.00615e-09
9.64928e-10
9.21687e-10
8.76721e-10
8.30326e-10
7.82803e-10
7.34449e-10
6.85552e-10
6.3639e-10
5.87226e-10
5.383e-10
4.89825e-10
4.41984e-10
3.94923e-10
3.48751e-10
3.03531e-10
2.59286e-10
2.15996e-10
1.736e-10
1.32006e-10
9.11087e-11
5.08127e-11
2.22997e-12
8.52223e-15
2.11465e-13
5.63108e-11
1.28203e-08
2.31809e-08
3.36564e-08
4.42922e-08
5.51257e-08
6.61851e-08
7.74877e-08
8.90395e-08
1.00835e-07
1.12857e-07
1.25077e-07
1.37458e-07
1.49951e-07
1.62501e-07
1.75046e-07
1.87518e-07
1.99846e-07
2.11956e-07
2.23774e-07
2.35222e-07
2.46226e-07
2.56711e-07
2.66607e-07
2.75845e-07
2.8436e-07
2.92092e-07
2.98986e-07
3.04993e-07
3.10069e-07
3.14177e-07
3.17288e-07
3.19378e-07
3.20433e-07
3.20444e-07
3.19412e-07
3.17344e-07
3.14256e-07
3.10169e-07
3.05114e-07
2.99127e-07
2.92252e-07
2.84537e-07
2.76038e-07
2.66815e-07
2.56932e-07
2.46457e-07
2.35463e-07
2.24023e-07
2.12211e-07
2.00105e-07
1.87778e-07
1.75306e-07
1.62759e-07
1.50205e-07
1.37706e-07
1.25318e-07
1.13088e-07
1.01054e-07
8.92453e-08
7.76781e-08
6.63582e-08
5.52794e-08
4.44241e-08
3.37639e-08
2.32606e-08
1.2868e-08
5.65376e-11
2.12346e-13
8.50917e-13
2.2692e-10
1.31226e-07
2.36599e-07
3.42601e-07
4.49799e-07
5.58653e-07
6.69498e-07
7.82537e-07
8.97833e-07
1.01531e-06
1.13477e-06
1.25587e-06
1.37818e-06
1.50116e-06
1.62423e-06
1.74672e-06
1.86795e-06
1.98723e-06
2.10384e-06
2.21709e-06
2.32629e-06
2.43077e-06
2.52989e-06
2.62305e-06
2.70968e-06
2.78925e-06
2.86126e-06
2.92528e-06
2.98091e-06
3.02782e-06
3.06571e-06
3.09435e-06
3.11357e-06
3.12325e-06
3.12333e-06
3.11382e-06
3.09476e-06
3.06627e-06
3.02853e-06
2.98178e-06
2.92629e-06
2.8624e-06
2.79052e-06
2.71107e-06
2.62455e-06
2.53149e-06
2.43245e-06
2.32804e-06
2.2189e-06
2.1057e-06
1.98912e-06
1.86986e-06
1.74863e-06
1.62613e-06
1.50303e-06
1.38e-06
1.25764e-06
1.13646e-06
1.01692e-06
8.99336e-07
7.83921e-07
6.70748e-07
5.59753e-07
4.50734e-07
3.43353e-07
2.37149e-07
1.31549e-07
2.27513e-10
8.53192e-13
1.58627e-12
4.23064e-10
2.43788e-07
4.38064e-07
6.32647e-07
8.28792e-07
1.02749e-06
1.22945e-06
1.43508e-06
1.64447e-06
1.85746e-06
2.07357e-06
2.29211e-06
2.51217e-06
2.73268e-06
2.95249e-06
3.1704e-06
3.38516e-06
3.59558e-06
3.80046e-06
3.99865e-06
4.18904e-06
4.37057e-06
4.54225e-06
4.70314e-06
4.85236e-06
4.9891e-06
5.11261e-06
5.22221e-06
5.31731e-06
5.39739e-06
5.46201e-06
5.51082e-06
5.54354e-06
5.56e-06
5.56011e-06
5.54386e-06
5.51136e-06
5.46276e-06
5.39835e-06
5.31847e-06
5.22356e-06
5.11413e-06
4.9908e-06
4.85422e-06
4.70514e-06
4.54438e-06
4.37282e-06
4.19139e-06
4.00109e-06
3.80297e-06
3.59814e-06
3.38775e-06
3.17299e-06
2.95507e-06
2.73523e-06
2.51466e-06
2.29453e-06
2.07589e-06
1.85966e-06
1.64653e-06
1.43697e-06
1.23116e-06
1.029e-06
8.3007e-07
6.33673e-07
4.38813e-07
2.44229e-07
4.23879e-10
1.5894e-12
2.4108e-12
6.43042e-10
3.69071e-07
6.60641e-07
9.51135e-07
1.24273e-06
1.5371e-06
1.83538e-06
2.13821e-06
2.4457e-06
2.75753e-06
3.07291e-06
3.39073e-06
3.70959e-06
4.02793e-06
4.34409e-06
4.65641e-06
4.9632e-06
5.26285e-06
5.55379e-06
5.83451e-06
6.10356e-06
6.35955e-06
6.60122e-06
6.82741e-06
7.03701e-06
7.22896e-06
7.40228e-06
7.55605e-06
7.68945e-06
7.80177e-06
7.89239e-06
7.96082e-06
8.00669e-06
8.02975e-06
8.02987e-06
8.00705e-06
7.96142e-06
7.89322e-06
7.80282e-06
7.69073e-06
7.55754e-06
7.40397e-06
7.23085e-06
7.03907e-06
6.82964e-06
6.60359e-06
6.36206e-06
6.10618e-06
5.83723e-06
5.55659e-06
5.26571e-06
4.9661e-06
4.65932e-06
4.347e-06
4.03081e-06
3.71241e-06
3.39348e-06
3.07555e-06
2.76004e-06
2.44806e-06
2.14038e-06
1.83735e-06
1.53883e-06
1.24421e-06
9.52322e-07
6.6151e-07
3.69586e-07
6.44003e-10
2.4145e-12
3.27244e-12
8.72974e-10
4.98958e-07
8.89547e-07
1.27649e-06
1.66308e-06
2.05176e-06
2.44419e-06
2.84123e-06
3.24303e-06
3.64911e-06
4.05841e-06
4.46943e-06
4.88041e-06
5.28938e-06
5.69434e-06
6.09326e-06
6.48417e-06
6.86515e-06
7.23446e-06
7.59047e-06
7.93157e-06
8.25621e-06
8.56286e-06
8.85e-06
9.11617e-06
9.35998e-06
9.58012e-06
9.77542e-06
9.94481e-06
1.00874e-05
1.02024e-05
1.02892e-05
1.03474e-05
1.03766e-05
1.03768e-05
1.03478e-05
1.02898e-05
1.02032e-05
1.00885e-05
9.94609e-06
9.77691e-06
9.58182e-06
9.36187e-06
9.11824e-06
8.85224e-06
8.56525e-06
8.25874e-06
7.93422e-06
7.59322e-06
7.2373e-06
6.86804e-06
6.48711e-06
6.09622e-06
5.6973e-06
5.29232e-06
4.88329e-06
4.47225e-06
4.06112e-06
3.6517e-06
3.24547e-06
2.84348e-06
2.44623e-06
2.05357e-06
1.66462e-06
1.27773e-06
8.90463e-07
4.99504e-07
8.74007e-10
3.27642e-12
4.10265e-12
1.09458e-09
6.2314e-07
1.1067e-06
1.58317e-06
2.05708e-06
2.53173e-06
3.00928e-06
3.49088e-06
3.97673e-06
4.46623e-06
4.95813e-06
5.45066e-06
5.94177e-06
6.42926e-06
6.91086e-06
7.38436e-06
7.84767e-06
8.29882e-06
8.73593e-06
9.15716e-06
9.56071e-06
9.94474e-06
1.03074e-05
1.06469e-05
1.09615e-05
1.12494e-05
1.15093e-05
1.17397e-05
1.19394e-05
1.21074e-05
1.22429e-05
1.23451e-05
1.24136e-05
1.2448e-05
1.24481e-05
1.24139e-05
1.23457e-05
1.22437e-05
1.21084e-05
1.19406e-05
1.17411e-05
1.15109e-05
1.12512e-05
1.09634e-05
1.0649e-05
1.03097e-05
9.94713e-06
9.56322e-06
9.15977e-06
8.73862e-06
8.30158e-06
7.85047e-06
7.38718e-06
6.91369e-06
6.43207e-06
5.94455e-06
5.45337e-06
4.96075e-06
4.46874e-06
3.97909e-06
3.49307e-06
3.01127e-06
2.53349e-06
2.05859e-06
1.5844e-06
1.10761e-06
6.23681e-07
1.09562e-09
4.10667e-12
4.84025e-12
1.29154e-09
7.3271e-07
1.297e-06
1.85044e-06
2.39882e-06
2.94627e-06
3.49548e-06
4.04785e-06
4.60367e-06
5.16228e-06
5.72229e-06
6.28177e-06
6.8385e-06
7.3901e-06
7.93419e-06
8.46851e-06
8.99085e-06
9.49915e-06
9.99141e-06
1.04656e-05
1.09198e-05
1.13519e-05
1.17597e-05
1.21412e-05
1.24945e-05
1.28177e-05
1.31091e-05
1.33674e-05
1.35912e-05
1.37794e-05
1.39311e-05
1.40455e-05
1.41222e-05
1.41606e-05
1.41607e-05
1.41225e-05
1.4046e-05
1.39318e-05
1.37803e-05
1.35923e-05
1.33687e-05
1.31106e-05
1.28193e-05
1.24962e-05
1.21431e-05
1.17617e-05
1.1354e-05
1.09221e-05
1.0468e-05
9.99388e-06
9.50169e-06
8.99343e-06
8.47112e-06
7.93681e-06
7.3927e-06
6.84107e-06
6.28429e-06
5.72473e-06
5.16462e-06
4.60587e-06
4.0499e-06
3.49735e-06
2.94793e-06
2.40024e-06
1.85159e-06
1.29785e-06
7.33224e-07
1.29254e-09
4.84414e-12
5.44662e-12
1.45351e-09
8.22278e-07
1.45169e-06
2.06675e-06
2.67439e-06
3.27949e-06
3.88518e-06
4.49312e-06
5.10368e-06
5.7162e-06
6.32918e-06
6.9406e-06
7.54813e-06
8.14932e-06
8.74173e-06
9.323e-06
9.8909e-06
1.04433e-05
1.0978e-05
1.1493e-05
1.19861e-05
1.24549e-05
1.28972e-05
1.33108e-05
1.36936e-05
1.40436e-05
1.43591e-05
1.46386e-05
1.48807e-05
1.50842e-05
1.52482e-05
1.53719e-05
1.54547e-05
1.54962e-05
1.54963e-05
1.54549e-05
1.53723e-05
1.52488e-05
1.5085e-05
1.48817e-05
1.46397e-05
1.43604e-05
1.40451e-05
1.36952e-05
1.33126e-05
1.28991e-05
1.24569e-05
1.19882e-05
1.14952e-05
1.09803e-05
1.04456e-05
9.89326e-06
9.3254e-06
8.74413e-06
8.15172e-06
7.5505e-06
6.94292e-06
6.33143e-06
5.71836e-06
5.10573e-06
4.49502e-06
3.88691e-06
3.28102e-06
2.67571e-06
2.06782e-06
1.45248e-06
8.22758e-07
1.45446e-09
5.4503e-12
5.90994e-12
1.57733e-09
8.90432e-07
1.5689e-06
2.23013e-06
2.88199e-06
3.52996e-06
4.17755e-06
4.82661e-06
5.47761e-06
6.12985e-06
6.78182e-06
7.43143e-06
8.07628e-06
8.71388e-06
9.34173e-06
9.95746e-06
1.05588e-05
1.11434e-05
1.17093e-05
1.22542e-05
1.27757e-05
1.32714e-05
1.37388e-05
1.41758e-05
1.458e-05
1.49495e-05
1.52825e-05
1.55774e-05
1.58328e-05
1.60474e-05
1.62204e-05
1.63508e-05
1.64381e-05
1.64819e-05
1.6482e-05
1.64384e-05
1.63512e-05
1.6221e-05
1.60482e-05
1.58337e-05
1.55785e-05
1.52838e-05
1.49509e-05
1.45815e-05
1.41774e-05
1.37406e-05
1.32732e-05
1.27776e-05
1.22562e-05
1.17114e-05
1.11456e-05
1.0561e-05
9.95967e-06
9.34396e-06
8.7161e-06
8.07848e-06
7.43359e-06
6.78392e-06
6.13186e-06
5.47951e-06
4.82838e-06
4.17916e-06
3.53139e-06
2.88322e-06
2.23113e-06
1.56964e-06
8.90881e-07
1.57822e-09
5.91343e-12
6.24055e-12
1.66573e-09
9.38931e-07
1.65206e-06
2.34581e-06
3.02872e-06
3.70675e-06
4.38369e-06
5.06152e-06
5.74078e-06
6.42078e-06
7.09997e-06
7.77623e-06
8.44712e-06
9.11012e-06
9.76272e-06
1.04025e-05
1.10271e-05
1.16344e-05
1.2222e-05
1.27877e-05
1.3329e-05
1.38434e-05
1.43284e-05
1.47816e-05
1.52007e-05
1.55838e-05
1.5929e-05
1.62346e-05
1.64993e-05
1.67217e-05
1.69008e-05
1.70359e-05
1.71263e-05
1.71717e-05
1.71718e-05
1.71266e-05
1.70363e-05
1.69014e-05
1.67224e-05
1.65001e-05
1.62356e-05
1.59302e-05
1.55851e-05
1.52021e-05
1.47831e-05
1.433e-05
1.38451e-05
1.33308e-05
1.27896e-05
1.2224e-05
1.16364e-05
1.10292e-05
1.04046e-05
9.76483e-06
9.11223e-06
8.44921e-06
7.77828e-06
7.10196e-06
6.42269e-06
5.74259e-06
5.0632e-06
4.38522e-06
3.70811e-06
3.02989e-06
2.34675e-06
1.65276e-06
9.39358e-07
1.66658e-09
6.2439e-12
6.46188e-12
1.72493e-09
9.71347e-07
1.70754e-06
2.42288e-06
3.1264e-06
3.82436e-06
4.52075e-06
5.21766e-06
5.91565e-06
6.61406e-06
7.3113e-06
8.00524e-06
8.69342e-06
9.37329e-06
1.00423e-05
1.06981e-05
1.13382e-05
1.19604e-05
1.25625e-05
1.31421e-05
1.36966e-05
1.42234e-05
1.472e-05
1.51841e-05
1.56132e-05
1.60053e-05
1.63586e-05
1.66713e-05
1.69421e-05
1.71697e-05
1.7353e-05
1.74912e-05
1.75837e-05
1.76301e-05
1.76302e-05
1.75839e-05
1.74916e-05
1.73535e-05
1.71704e-05
1.69429e-05
1.66723e-05
1.63597e-05
1.60066e-05
1.56145e-05
1.51855e-05
1.47216e-05
1.42251e-05
1.36983e-05
1.31439e-05
1.25645e-05
1.19624e-05
1.13402e-05
1.07001e-05
1.00444e-05
9.37533e-06
8.69544e-06
8.00722e-06
7.31323e-06
6.61591e-06
5.9174e-06
5.21929e-06
4.52223e-06
3.82568e-06
3.12753e-06
2.42379e-06
1.70822e-06
9.71761e-07
1.72576e-09
6.46515e-12
6.60146e-12
1.76229e-09
9.91778e-07
1.74247e-06
2.47137e-06
3.18784e-06
3.89833e-06
4.60694e-06
5.31585e-06
6.02565e-06
6.73565e-06
7.44428e-06
8.14938e-06
8.84848e-06
9.53901e-06
1.02184e-05
1.08843e-05
1.15343e-05
1.2166e-05
1.27773e-05
1.33656e-05
1.39285e-05
1.44632e-05
1.49673e-05
1.54382e-05
1.58736e-05
1.62715e-05
1.66299e-05
1.69472e-05
1.72218e-05
1.74527e-05
1.76386e-05
1.77788e-05
1.78727e-05
1.79197e-05
1.79198e-05
1.78729e-05
1.77792e-05
1.76391e-05
1.74534e-05
1.72227e-05
1.69481e-05
1.6631e-05
1.62727e-05
1.58749e-05
1.54396e-05
1.49688e-05
1.44649e-05
1.39302e-05
1.33675e-05
1.27792e-05
1.2168e-05
1.15363e-05
1.08863e-05
1.02205e-05
9.54103e-06
8.85048e-06
8.15134e-06
7.44619e-06
6.73748e-06
6.02738e-06
5.31747e-06
4.60841e-06
3.89963e-06
3.18895e-06
2.47228e-06
1.74314e-06
9.92187e-07
1.76311e-09
6.6047e-12
6.68471e-12
1.78458e-09
1.00396e-06
1.7633e-06
2.50028e-06
3.22446e-06
3.94243e-06
4.65835e-06
5.37445e-06
6.09131e-06
6.80827e-06
7.52374e-06
8.23554e-06
8.94122e-06
9.63818e-06
1.03239e-05
1.09959e-05
1.16518e-05
1.22893e-05
1.29061e-05
1.34997e-05
1.40677e-05
1.46072e-05
1.51157e-05
1.55908e-05
1.603e-05
1.64314e-05
1.67929e-05
1.7113e-05
1.739e-05
1.76229e-05
1.78104e-05
1.79518e-05
1.80465e-05
1.80939e-05
1.8094e-05
1.80467e-05
1.79522e-05
1.78109e-05
1.76235e-05
1.73909e-05
1.71139e-05
1.6794e-05
1.64326e-05
1.60314e-05
1.55922e-05
1.51173e-05
1.46089e-05
1.40694e-05
1.35016e-05
1.2908e-05
1.22912e-05
1.16537e-05
1.09979e-05
1.03259e-05
9.64019e-06
8.94321e-06
8.2375e-06
7.52564e-06
6.81009e-06
6.09304e-06
5.37605e-06
4.65982e-06
3.94373e-06
3.22558e-06
2.50118e-06
1.76397e-06
1.00437e-06
1.78541e-09
6.68794e-12
6.73183e-12
1.79721e-09
1.01086e-06
1.77509e-06
2.51665e-06
3.24521e-06
3.96742e-06
4.6875e-06
5.40769e-06
6.12859e-06
6.84952e-06
7.56891e-06
8.28456e-06
8.99401e-06
9.69467e-06
1.0384e-05
1.10595e-05
1.17188e-05
1.23596e-05
1.29797e-05
1.35764e-05
1.41472e-05
1.46896e-05
1.52007e-05
1.56781e-05
1.61196e-05
1.6523e-05
1.68863e-05
1.7208e-05
1.74864e-05
1.77204e-05
1.79089e-05
1.8051e-05
1.81461e-05
1.81938e-05
1.81939e-05
1.81463e-05
1.80514e-05
1.79094e-05
1.77211e-05
1.74873e-05
1.72089e-05
1.68874e-05
1.65242e-05
1.6121e-05
1.56796e-05
1.52023e-05
1.46912e-05
1.4149e-05
1.35782e-05
1.29816e-05
1.23616e-05
1.17208e-05
1.10615e-05
1.0386e-05
9.69669e-06
8.99601e-06
8.28653e-06
7.57082e-06
6.85136e-06
6.13032e-06
5.4093e-06
4.68898e-06
3.96873e-06
3.24633e-06
2.51755e-06
1.77576e-06
1.01127e-06
1.79803e-09
6.73507e-12
6.75721e-12
1.80401e-09
1.01458e-06
1.78144e-06
2.52548e-06
3.2564e-06
3.98092e-06
4.70326e-06
5.42567e-06
6.14876e-06
6.87187e-06
7.5934e-06
8.31116e-06
9.02267e-06
9.72536e-06
1.04166e-05
1.10941e-05
1.17553e-05
1.2398e-05
1.30198e-05
1.36182e-05
1.41907e-05
1.47345e-05
1.52471e-05
1.57259e-05
1.61686e-05
1.65731e-05
1.69374e-05
1.726e-05
1.75392e-05
1.77738e-05
1.79628e-05
1.81053e-05
1.82007e-05
1.82485e-05
1.82486e-05
1.82009e-05
1.81057e-05
1.79633e-05
1.77745e-05
1.754e-05
1.72609e-05
1.69385e-05
1.65743e-05
1.61699e-05
1.57274e-05
1.52487e-05
1.47362e-05
1.41924e-05
1.362e-05
1.30217e-05
1.23999e-05
1.17573e-05
1.10961e-05
1.04187e-05
9.72739e-06
9.02469e-06
8.31313e-06
7.59532e-06
6.87371e-06
6.15051e-06
5.42729e-06
4.70474e-06
3.98223e-06
3.25753e-06
2.52639e-06
1.78212e-06
1.015e-06
1.80484e-09
6.76046e-12
6.77025e-12
1.80751e-09
1.0165e-06
1.78472e-06
2.53002e-06
3.26217e-06
3.98788e-06
4.71139e-06
5.43495e-06
6.15919e-06
6.88343e-06
7.60608e-06
8.32494e-06
9.03754e-06
9.74129e-06
1.04336e-05
1.11121e-05
1.17743e-05
1.24179e-05
1.30407e-05
1.364e-05
1.42133e-05
1.4758e-05
1.52713e-05
1.57508e-05
1.61942e-05
1.65993e-05
1.69641e-05
1.72871e-05
1.75668e-05
1.78017e-05
1.7991e-05
1.81337e-05
1.82292e-05
1.82771e-05
1.82772e-05
1.82294e-05
1.81341e-05
1.79915e-05
1.78024e-05
1.75676e-05
1.72881e-05
1.69653e-05
1.66005e-05
1.61955e-05
1.57523e-05
1.52729e-05
1.47597e-05
1.42151e-05
1.36418e-05
1.30426e-05
1.24199e-05
1.17763e-05
1.11141e-05
1.04357e-05
9.74333e-06
9.03956e-06
8.32693e-06
7.60801e-06
6.88528e-06
6.16094e-06
5.43658e-06
4.71287e-06
3.98919e-06
3.2633e-06
2.53094e-06
1.78539e-06
1.01691e-06
1.80834e-09
6.77352e-12
6.77666e-12
1.80923e-09
1.01744e-06
1.78633e-06
2.53226e-06
3.26502e-06
3.99131e-06
4.7154e-06
5.43954e-06
6.16435e-06
6.88916e-06
7.61237e-06
8.33178e-06
9.04493e-06
9.74921e-06
1.04421e-05
1.1121e-05
1.17837e-05
1.24279e-05
1.30511e-05
1.36509e-05
1.42246e-05
1.47697e-05
1.52834e-05
1.57633e-05
1.6207e-05
1.66124e-05
1.69775e-05
1.73008e-05
1.75806e-05
1.78157e-05
1.80051e-05
1.81479e-05
1.82435e-05
1.82915e-05
1.82915e-05
1.82438e-05
1.81483e-05
1.80057e-05
1.78164e-05
1.75814e-05
1.73017e-05
1.69786e-05
1.66136e-05
1.62084e-05
1.57648e-05
1.5285e-05
1.47714e-05
1.42264e-05
1.36527e-05
1.3053e-05
1.24298e-05
1.17858e-05
1.11231e-05
1.04441e-05
9.75126e-06
9.04695e-06
8.33377e-06
7.6143e-06
6.89102e-06
6.16611e-06
5.44118e-06
4.71689e-06
3.99263e-06
3.26615e-06
2.53318e-06
1.78701e-06
1.01785e-06
1.81007e-09
6.77994e-12
6.77969e-12
1.81004e-09
1.01788e-06
1.78709e-06
2.53332e-06
3.26636e-06
3.99293e-06
4.7173e-06
5.44172e-06
6.1668e-06
6.89188e-06
7.61535e-06
8.33504e-06
9.04844e-06
9.75298e-06
1.04461e-05
1.11253e-05
1.17883e-05
1.24326e-05
1.30561e-05
1.36561e-05
1.42301e-05
1.47753e-05
1.52892e-05
1.57693e-05
1.62131e-05
1.66187e-05
1.6984e-05
1.73073e-05
1.75872e-05
1.78225e-05
1.80119e-05
1.81548e-05
1.82504e-05
1.82984e-05
1.82984e-05
1.82506e-05
1.81552e-05
1.80125e-05
1.78232e-05
1.75881e-05
1.73083e-05
1.69851e-05
1.66199e-05
1.62145e-05
1.57708e-05
1.52908e-05
1.4777e-05
1.42318e-05
1.36579e-05
1.3058e-05
1.24346e-05
1.17903e-05
1.11274e-05
1.04482e-05
9.75504e-06
9.05047e-06
8.33703e-06
7.61729e-06
6.89374e-06
6.16856e-06
5.44336e-06
4.71879e-06
3.99426e-06
3.26749e-06
2.53424e-06
1.78777e-06
1.0183e-06
1.81088e-09
6.78297e-12
6.78105e-12
1.81041e-09
1.01809e-06
1.78743e-06
2.5338e-06
3.26697e-06
3.99367e-06
4.71816e-06
5.44271e-06
6.16792e-06
6.89312e-06
7.61672e-06
8.33652e-06
9.05005e-06
9.75471e-06
1.04479e-05
1.11273e-05
1.17903e-05
1.24348e-05
1.30584e-05
1.36585e-05
1.42326e-05
1.47779e-05
1.52919e-05
1.5772e-05
1.6216e-05
1.66216e-05
1.69869e-05
1.73103e-05
1.75903e-05
1.78256e-05
1.80151e-05
1.8158e-05
1.82536e-05
1.83016e-05
1.83016e-05
1.82538e-05
1.81583e-05
1.80156e-05
1.78263e-05
1.75911e-05
1.73113e-05
1.6988e-05
1.66228e-05
1.62173e-05
1.57735e-05
1.52935e-05
1.47796e-05
1.42343e-05
1.36603e-05
1.30603e-05
1.24368e-05
1.17924e-05
1.11293e-05
1.045e-05
9.75677e-06
9.05209e-06
8.33852e-06
7.61866e-06
6.89498e-06
6.16968e-06
5.44435e-06
4.71966e-06
3.995e-06
3.2681e-06
2.53472e-06
1.78811e-06
1.0185e-06
1.81125e-09
6.78434e-12
6.78165e-12
1.81057e-09
1.01817e-06
1.78758e-06
2.53401e-06
3.26723e-06
3.99399e-06
4.71854e-06
5.44314e-06
6.16841e-06
6.89366e-06
7.61732e-06
8.33718e-06
9.05076e-06
9.75547e-06
1.04488e-05
1.11281e-05
1.17913e-05
1.24358e-05
1.30594e-05
1.36595e-05
1.42337e-05
1.47791e-05
1.52931e-05
1.57733e-05
1.62172e-05
1.66229e-05
1.69882e-05
1.73117e-05
1.75917e-05
1.7827e-05
1.80165e-05
1.81594e-05
1.8255e-05
1.8303e-05
1.8303e-05
1.82552e-05
1.81598e-05
1.8017e-05
1.78276e-05
1.75925e-05
1.73127e-05
1.69894e-05
1.66241e-05
1.62186e-05
1.57748e-05
1.52947e-05
1.47808e-05
1.42355e-05
1.36614e-05
1.30613e-05
1.24378e-05
1.17933e-05
1.11302e-05
1.04508e-05
9.75753e-06
9.0528e-06
8.33917e-06
7.61926e-06
6.89553e-06
6.17017e-06
5.44478e-06
4.72004e-06
3.99532e-06
3.26837e-06
2.53493e-06
1.78827e-06
1.01859e-06
1.81141e-09
6.78493e-12
6.7819e-12
1.81064e-09
1.01821e-06
1.78764e-06
2.53409e-06
3.26735e-06
3.99413e-06
4.7187e-06
5.44332e-06
6.16861e-06
6.89389e-06
7.61757e-06
8.33745e-06
9.05106e-06
9.7558e-06
1.04491e-05
1.11285e-05
1.17916e-05
1.24362e-05
1.30598e-05
1.366e-05
1.42341e-05
1.47795e-05
1.52936e-05
1.57738e-05
1.62178e-05
1.66234e-05
1.69888e-05
1.73122e-05
1.75923e-05
1.78275e-05
1.80171e-05
1.816e-05
1.82556e-05
1.83036e-05
1.83037e-05
1.82558e-05
1.81604e-05
1.80176e-05
1.78282e-05
1.75931e-05
1.73132e-05
1.69899e-05
1.66247e-05
1.62191e-05
1.57753e-05
1.52952e-05
1.47813e-05
1.42359e-05
1.36619e-05
1.30617e-05
1.24382e-05
1.17937e-05
1.11306e-05
1.04512e-05
9.75786e-06
9.0531e-06
8.33945e-06
7.61951e-06
6.89576e-06
6.17037e-06
5.44497e-06
4.7202e-06
3.99546e-06
3.26848e-06
2.53502e-06
1.78833e-06
1.01863e-06
1.81148e-09
6.78518e-12
6.782e-12
1.81067e-09
1.01823e-06
1.78767e-06
2.53413e-06
3.26739e-06
3.99418e-06
4.71877e-06
5.4434e-06
6.1687e-06
6.89399e-06
7.61767e-06
8.33757e-06
9.05118e-06
9.75593e-06
1.04492e-05
1.11287e-05
1.17918e-05
1.24364e-05
1.306e-05
1.36602e-05
1.42343e-05
1.47797e-05
1.52938e-05
1.5774e-05
1.6218e-05
1.66236e-05
1.6989e-05
1.73125e-05
1.75925e-05
1.78278e-05
1.80173e-05
1.81602e-05
1.82559e-05
1.83038e-05
1.83039e-05
1.82561e-05
1.81606e-05
1.80179e-05
1.78285e-05
1.75933e-05
1.73135e-05
1.69902e-05
1.66249e-05
1.62194e-05
1.57755e-05
1.52954e-05
1.47815e-05
1.42361e-05
1.3662e-05
1.30619e-05
1.24383e-05
1.17938e-05
1.11307e-05
1.04513e-05
9.75799e-06
9.05322e-06
8.33957e-06
7.61962e-06
6.89585e-06
6.17046e-06
5.44504e-06
4.72026e-06
3.99551e-06
3.26853e-06
2.53505e-06
1.78835e-06
1.01864e-06
1.8115e-09
6.78529e-12
6.78204e-12
1.81068e-09
1.01823e-06
1.78768e-06
2.53414e-06
3.26741e-06
3.9942e-06
4.71879e-06
5.44343e-06
6.16873e-06
6.89402e-06
7.61771e-06
8.33761e-06
9.05123e-06
9.75598e-06
1.04493e-05
1.11287e-05
1.17919e-05
1.24364e-05
1.30601e-05
1.36602e-05
1.42344e-05
1.47798e-05
1.52939e-05
1.57741e-05
1.62181e-05
1.66237e-05
1.69891e-05
1.73126e-05
1.75926e-05
1.78279e-05
1.80174e-05
1.81603e-05
1.8256e-05
1.83039e-05
1.8304e-05
1.82562e-05
1.81607e-05
1.8018e-05
1.78286e-05
1.75934e-05
1.73136e-05
1.69903e-05
1.6625e-05
1.62195e-05
1.57756e-05
1.52955e-05
1.47815e-05
1.42362e-05
1.36621e-05
1.3062e-05
1.24384e-05
1.17939e-05
1.11308e-05
1.04514e-05
9.75804e-06
9.05327e-06
8.33961e-06
7.61966e-06
6.89589e-06
6.17049e-06
5.44507e-06
4.72029e-06
3.99553e-06
3.26855e-06
2.53507e-06
1.78836e-06
1.01865e-06
1.81151e-09
6.78532e-12
6.78205e-12
1.81068e-09
1.01823e-06
1.78768e-06
2.53415e-06
3.26742e-06
3.99421e-06
4.7188e-06
5.44344e-06
6.16874e-06
6.89404e-06
7.61773e-06
8.33763e-06
9.05125e-06
9.756e-06
1.04493e-05
1.11287e-05
1.17919e-05
1.24365e-05
1.30601e-05
1.36603e-05
1.42344e-05
1.47799e-05
1.52939e-05
1.57741e-05
1.62181e-05
1.66238e-05
1.69892e-05
1.73126e-05
1.75926e-05
1.78279e-05
1.80174e-05
1.81604e-05
1.8256e-05
1.8304e-05
1.8304e-05
1.82562e-05
1.81607e-05
1.8018e-05
1.78286e-05
1.75935e-05
1.73136e-05
1.69903e-05
1.6625e-05
1.62195e-05
1.57756e-05
1.52955e-05
1.47816e-05
1.42362e-05
1.36621e-05
1.3062e-05
1.24384e-05
1.17939e-05
1.11308e-05
1.04514e-05
9.75806e-06
9.05329e-06
8.33963e-06
7.61967e-06
6.8959e-06
6.17051e-06
5.44508e-06
4.7203e-06
3.99554e-06
3.26855e-06
2.53507e-06
1.78837e-06
1.01865e-06
1.81152e-09
6.78534e-12
6.78206e-12
1.81068e-09
1.01823e-06
1.78769e-06
2.53415e-06
3.26742e-06
3.99422e-06
4.71881e-06
5.44344e-06
6.16875e-06
6.89404e-06
7.61774e-06
8.33763e-06
9.05126e-06
9.75601e-06
1.04493e-05
1.11288e-05
1.17919e-05
1.24365e-05
1.30601e-05
1.36603e-05
1.42344e-05
1.47799e-05
1.52939e-05
1.57741e-05
1.62181e-05
1.66238e-05
1.69892e-05
1.73126e-05
1.75926e-05
1.78279e-05
1.80175e-05
1.81604e-05
1.8256e-05
1.8304e-05
1.83041e-05
1.82562e-05
1.81608e-05
1.8018e-05
1.78286e-05
1.75935e-05
1.73136e-05
1.69903e-05
1.6625e-05
1.62195e-05
1.57756e-05
1.52955e-05
1.47816e-05
1.42362e-05
1.36622e-05
1.3062e-05
1.24385e-05
1.17939e-05
1.11308e-05
1.04514e-05
9.75807e-06
9.05329e-06
8.33963e-06
7.61968e-06
6.89591e-06
6.17051e-06
5.44508e-06
4.7203e-06
3.99554e-06
3.26856e-06
2.53507e-06
1.78837e-06
1.01865e-06
1.81152e-09
6.78535e-12
6.78206e-12
1.81068e-09
1.01823e-06
1.78769e-06
2.53415e-06
3.26742e-06
3.99422e-06
4.71881e-06
5.44344e-06
6.16875e-06
6.89405e-06
7.61774e-06
8.33764e-06
9.05126e-06
9.75601e-06
1.04493e-05
1.11288e-05
1.17919e-05
1.24365e-05
1.30601e-05
1.36603e-05
1.42344e-05
1.47799e-05
1.52939e-05
1.57741e-05
1.62181e-05
1.66238e-05
1.69892e-05
1.73126e-05
1.75926e-05
1.78279e-05
1.80175e-05
1.81604e-05
1.8256e-05
1.8304e-05
1.83041e-05
1.82563e-05
1.81608e-05
1.8018e-05
1.78286e-05
1.75935e-05
1.73136e-05
1.69903e-05
1.6625e-05
1.62195e-05
1.57756e-05
1.52955e-05
1.47816e-05
1.42362e-05
1.36622e-05
1.3062e-05
1.24385e-05
1.17939e-05
1.11308e-05
1.04514e-05
9.75807e-06
9.0533e-06
8.33964e-06
7.61968e-06
6.89591e-06
6.17051e-06
5.44509e-06
4.7203e-06
3.99555e-06
3.26856e-06
2.53508e-06
1.78837e-06
1.01865e-06
1.81152e-09
6.78535e-12
6.78206e-12
1.81068e-09
1.01823e-06
1.78769e-06
2.53415e-06
3.26742e-06
3.99422e-06
4.71881e-06
5.44345e-06
6.16875e-06
6.89405e-06
7.61774e-06
8.33764e-06
9.05126e-06
9.75601e-06
1.04493e-05
1.11288e-05
1.17919e-05
1.24365e-05
1.30601e-05
1.36603e-05
1.42344e-05
1.47799e-05
1.52939e-05
1.57741e-05
1.62181e-05
1.66238e-05
1.69892e-05
1.73126e-05
1.75926e-05
1.78279e-05
1.80175e-05
1.81604e-05
1.8256e-05
1.8304e-05
1.83041e-05
1.82563e-05
1.81608e-05
1.8018e-05
1.78286e-05
1.75935e-05
1.73136e-05
1.69903e-05
1.6625e-05
1.62195e-05
1.57756e-05
1.52955e-05
1.47816e-05
1.42362e-05
1.36622e-05
1.3062e-05
1.24385e-05
1.17939e-05
1.11308e-05
1.04514e-05
9.75807e-06
9.0533e-06
8.33964e-06
7.61968e-06
6.89591e-06
6.17051e-06
5.44509e-06
4.7203e-06
3.99555e-06
3.26856e-06
2.53508e-06
1.78837e-06
1.01865e-06
1.81152e-09
6.78535e-12
6.78206e-12
1.81068e-09
1.01823e-06
1.78769e-06
2.53415e-06
3.26742e-06
3.99422e-06
4.71881e-06
5.44345e-06
6.16875e-06
6.89405e-06
7.61774e-06
8.33764e-06
9.05126e-06
9.75601e-06
1.04493e-05
1.11288e-05
1.17919e-05
1.24365e-05
1.30601e-05
1.36603e-05
1.42344e-05
1.47799e-05
1.52939e-05
1.57741e-05
1.62181e-05
1.66238e-05
1.69892e-05
1.73126e-05
1.75926e-05
1.78279e-05
1.80175e-05
1.81604e-05
1.8256e-05
1.8304e-05
1.83041e-05
1.82563e-05
1.81608e-05
1.8018e-05
1.78286e-05
1.75935e-05
1.73136e-05
1.69903e-05
1.6625e-05
1.62195e-05
1.57756e-05
1.52955e-05
1.47816e-05
1.42362e-05
1.36622e-05
1.3062e-05
1.24385e-05
1.17939e-05
1.11308e-05
1.04514e-05
9.75807e-06
9.0533e-06
8.33964e-06
7.61968e-06
6.89591e-06
6.17051e-06
5.44509e-06
4.7203e-06
3.99555e-06
3.26856e-06
2.53508e-06
1.78837e-06
1.01865e-06
1.81152e-09
6.78535e-12
6.78206e-12
1.81068e-09
1.01823e-06
1.78769e-06
2.53415e-06
3.26742e-06
3.99422e-06
4.71881e-06
5.44345e-06
6.16875e-06
6.89405e-06
7.61774e-06
8.33764e-06
9.05126e-06
9.75601e-06
1.04493e-05
1.11288e-05
1.17919e-05
1.24365e-05
1.30601e-05
1.36603e-05
1.42344e-05
1.47799e-05
1.52939e-05
1.57741e-05
1.62181e-05
1.66238e-05
1.69892e-05
1.73126e-05
1.75926e-05
1.78279e-05
1.80175e-05
1.81604e-05
1.8256e-05
1.8304e-05
1.83041e-05
1.82563e-05
1.81608e-05
1.8018e-05
1.78286e-05
1.75935e-05
1.73136e-05
1.69903e-05
1.6625e-05
1.62195e-05
1.57756e-05
1.52955e-05
1.47816e-05
1.42362e-05
1.36622e-05
1.3062e-05
1.24385e-05
1.17939e-05
1.11308e-05
1.04514e-05
9.75807e-06
9.0533e-06
8.33964e-06
7.61968e-06
6.89591e-06
6.17051e-06
5.44509e-06
4.7203e-06
3.99555e-06
3.26856e-06
2.53508e-06
1.78837e-06
1.01865e-06
1.81152e-09
6.78535e-12
6.78206e-12
1.81068e-09
1.01823e-06
1.78769e-06
2.53415e-06
3.26742e-06
3.99422e-06
4.71881e-06
5.44345e-06
6.16875e-06
6.89405e-06
7.61774e-06
8.33764e-06
9.05126e-06
9.75601e-06
1.04493e-05
1.11288e-05
1.17919e-05
1.24365e-05
1.30601e-05
1.36603e-05
1.42344e-05
1.47799e-05
1.52939e-05
1.57741e-05
1.62181e-05
1.66238e-05
1.69892e-05
1.73126e-05
1.75926e-05
1.78279e-05
1.80175e-05
1.81604e-05
1.8256e-05
1.8304e-05
1.83041e-05
1.82563e-05
1.81608e-05
1.8018e-05
1.78286e-05
1.75935e-05
1.73136e-05
1.69903e-05
1.6625e-05
1.62195e-05
1.57756e-05
1.52955e-05
1.47816e-05
1.42362e-05
1.36622e-05
1.3062e-05
1.24385e-05
1.17939e-05
1.11308e-05
1.04514e-05
9.75807e-06
9.0533e-06
8.33964e-06
7.61968e-06
6.89591e-06
6.17051e-06
5.44509e-06
4.7203e-06
3.99555e-06
3.26856e-06
2.53508e-06
1.78837e-06
1.01865e-06
1.81152e-09
6.78535e-12
6.78206e-12
1.81068e-09
1.01823e-06
1.78769e-06
2.53415e-06
3.26742e-06
3.99422e-06
4.71881e-06
5.44345e-06
6.16875e-06
6.89405e-06
7.61774e-06
8.33764e-06
9.05126e-06
9.75601e-06
1.04493e-05
1.11288e-05
1.17919e-05
1.24365e-05
1.30601e-05
1.36603e-05
1.42344e-05
1.47799e-05
1.52939e-05
1.57741e-05
1.62181e-05
1.66238e-05
1.69892e-05
1.73126e-05
1.75926e-05
1.78279e-05
1.80175e-05
1.81604e-05
1.8256e-05
1.8304e-05
1.83041e-05
1.82563e-05
1.81608e-05
1.8018e-05
1.78286e-05
1.75935e-05
1.73136e-05
1.69903e-05
1.6625e-05
1.62195e-05
1.57756e-05
1.52955e-05
1.47816e-05
1.42362e-05
1.36622e-05
1.3062e-05
1.24385e-05
1.17939e-05
1.11308e-05
1.04514e-05
9.75807e-06
9.0533e-06
8.33964e-06
7.61968e-06
6.89591e-06
6.17051e-06
5.44509e-06
4.7203e-06
3.99555e-06
3.26856e-06
2.53508e-06
1.78837e-06
1.01865e-06
1.81152e-09
6.78535e-12
6.78206e-12
1.81068e-09
1.01823e-06
1.78769e-06
2.53415e-06
3.26742e-06
3.99422e-06
4.71881e-06
5.44345e-06
6.16875e-06
6.89405e-06
7.61774e-06
8.33764e-06
9.05126e-06
9.75601e-06
1.04493e-05
1.11288e-05
1.17919e-05
1.24365e-05
1.30601e-05
1.36603e-05
1.42344e-05
1.47799e-05
1.52939e-05
1.57741e-05
1.62181e-05
1.66238e-05
1.69892e-05
1.73126e-05
1.75926e-05
1.78279e-05
1.80175e-05
1.81604e-05
1.8256e-05
1.8304e-05
1.83041e-05
1.82563e-05
1.81608e-05
1.8018e-05
1.78286e-05
1.75935e-05
1.73136e-05
1.69903e-05
1.6625e-05
1.62195e-05
1.57756e-05
1.52955e-05
1.47816e-05
1.42362e-05
1.36622e-05
1.3062e-05
1.24385e-05
1.17939e-05
1.11308e-05
1.04514e-05
9.75807e-06
9.0533e-06
8.33964e-06
7.61968e-06
6.89591e-06
6.17051e-06
5.44509e-06
4.7203e-06
3.99555e-06
3.26856e-06
2.53508e-06
1.78837e-06
1.01865e-06
1.81152e-09
6.78535e-12
6.78206e-12
1.81068e-09
1.01823e-06
1.78769e-06
2.53415e-06
3.26742e-06
3.99422e-06
4.71881e-06
5.44345e-06
6.16875e-06
6.89405e-06
7.61774e-06
8.33764e-06
9.05126e-06
9.75601e-06
1.04493e-05
1.11288e-05
1.17919e-05
1.24365e-05
1.30601e-05
1.36603e-05
1.42344e-05
1.47799e-05
1.52939e-05
1.57741e-05
1.62181e-05
1.66238e-05
1.69892e-05
1.73126e-05
1.75926e-05
1.78279e-05
1.80175e-05
1.81604e-05
1.8256e-05
1.8304e-05
1.83041e-05
1.82563e-05
1.81608e-05
1.8018e-05
1.78286e-05
1.75935e-05
1.73136e-05
1.69903e-05
1.6625e-05
1.62195e-05
1.57756e-05
1.52955e-05
1.47816e-05
1.42362e-05
1.36622e-05
1.3062e-05
1.24385e-05
1.17939e-05
1.11308e-05
1.04514e-05
9.75807e-06
9.0533e-06
8.33964e-06
7.61968e-06
6.89591e-06
6.17051e-06
5.44509e-06
4.7203e-06
3.99555e-06
3.26856e-06
2.53508e-06
1.78837e-06
1.01865e-06
1.81152e-09
6.78535e-12
6.78206e-12
1.81068e-09
1.01823e-06
1.78769e-06
2.53415e-06
3.26742e-06
3.99422e-06
4.71881e-06
5.44345e-06
6.16875e-06
6.89405e-06
7.61774e-06
8.33764e-06
9.05126e-06
9.75601e-06
1.04493e-05
1.11288e-05
1.17919e-05
1.24365e-05
1.30601e-05
1.36603e-05
1.42344e-05
1.47799e-05
1.52939e-05
1.57741e-05
1.62181e-05
1.66238e-05
1.69892e-05
1.73126e-05
1.75926e-05
1.78279e-05
1.80175e-05
1.81604e-05
1.8256e-05
1.8304e-05
1.83041e-05
1.82563e-05
1.81608e-05
1.8018e-05
1.78286e-05
1.75935e-05
1.73136e-05
1.69903e-05
1.6625e-05
1.62195e-05
1.57756e-05
1.52955e-05
1.47816e-05
1.42362e-05
1.36622e-05
1.3062e-05
1.24385e-05
1.17939e-05
1.11308e-05
1.04514e-05
9.75807e-06
9.0533e-06
8.33964e-06
7.61968e-06
6.89591e-06
6.17051e-06
5.44509e-06
4.7203e-06
3.99555e-06
3.26856e-06
2.53508e-06
1.78837e-06
1.01865e-06
1.81152e-09
6.78535e-12
6.78206e-12
1.81068e-09
1.01823e-06
1.78769e-06
2.53415e-06
3.26742e-06
3.99422e-06
4.71881e-06
5.44345e-06
6.16875e-06
6.89405e-06
7.61774e-06
8.33764e-06
9.05126e-06
9.75601e-06
1.04493e-05