/*--------------------------------*- C++ -*----------------------------------*\
  =========                 |
  \\      /  F ield         | OpenFOAM: The Open Source CFD Toolbox
   \\    /   O peration     | Website:  https://openfoam.org
    \\  /    A nd           | Version:  13
     \\/     M anipulation  |
\*---------------------------------------------------------------------------*/
FoamFile
{
    format      ascii;
    class       volScalarField;
    location    "0s";
    object      difft;
}
// * * * * * * * * * * * * * * * * * * * * * * * * * * * * * * * * * * * * * //

dimensions      [0 2 -1 0 0 0 0];

internalField   nonuniform List<scalar> 
78750
(
4.96085e-08
7.13596e-06
1.09337e-05
1.19297e-05
9.68595e-06
9.18915e-06
1.0598e-05
9.96233e-06
9.56256e-06
1.12092e-05
9.74114e-06
9.36112e-06
8.97924e-06
8.66942e-06
8.5344e-06
8.58795e-06
8.67969e-06
8.25349e-06
8.3475e-06
8.46329e-06
7.87847e-06
8.57129e-06
8.14026e-06
8.64873e-06
8.61659e-06
1.01785e-05
9.2321e-06
8.48056e-06
9.52663e-06
8.31623e-06
7.22937e-06
6.25001e-06
7.30036e-06
7.74989e-06
4.54409e-07
1.94919e-07
5.18389e-06
5.60015e-06
5.92926e-06
8.10515e-06
6.4144e-06
8.98641e-06
1.25396e-05
9.62933e-06
1.12367e-05
1.09031e-05
1.15457e-05
1.03547e-05
1.05067e-05
1.01254e-05
1.0097e-05
9.85214e-06
9.7446e-06
9.67385e-06
9.75139e-06
9.9136e-06
1.04914e-05
1.03875e-05
1.15696e-05
1.06767e-05
9.66301e-06
1.6314e-05
6.42431e-06
5.87665e-06
1.10719e-05
6.68272e-06
5.66159e-06
4.67809e-06
5.91495e-06
6.28156e-07
1.86811e-07
8.93583e-06
4.2271e-06
4.63628e-06
9.32475e-06
8.27108e-06
9.30051e-06
1.19641e-05
1.05812e-05
1.76756e-05
1.34826e-05
1.55473e-05
1.61808e-05
1.61542e-05
1.61935e-05
1.60281e-05
1.56776e-05
1.5476e-05
1.53511e-05
1.51459e-05
1.49225e-05
1.46265e-05
1.51616e-05
1.50981e-05
1.51266e-05
1.23855e-05
1.67889e-05
8.47157e-06
7.61445e-06
1.20628e-05
8.58485e-06
5.29914e-06
3.14741e-06
4.23059e-06
4.74571e-07
1.21597e-06
2.48851e-05
7.52904e-06
7.6167e-06
1.14402e-05
9.83515e-06
1.04691e-05
1.45135e-05
1.01848e-05
1.4951e-05
1.41947e-05
1.53505e-05
1.60474e-05
1.66436e-05
1.67713e-05
1.67836e-05
1.65441e-05
1.65412e-05
1.66021e-05
1.6552e-05
1.65538e-05
1.67627e-05
1.61613e-05
1.49346e-05
1.64777e-05
1.36086e-05
1.40606e-05
9.72877e-06
1.08878e-05
1.63252e-05
1.06748e-05
7.02996e-06
3.80758e-06
7.97709e-06
1.24074e-06
2.76689e-06
1.25907e-05
9.52145e-06
1.23653e-05
1.62687e-05
1.118e-05
1.15853e-05
1.96063e-05
1.25636e-05
1.47392e-05
1.51746e-05
1.62839e-05
1.67214e-05
1.69479e-05
1.70716e-05
1.69613e-05
1.68397e-05
1.67655e-05
1.65688e-05
1.63941e-05
1.62851e-05
1.62823e-05
1.62061e-05
1.57478e-05
1.59827e-05
1.30832e-05
1.93975e-05
1.30253e-05
1.23127e-05
1.66819e-05
1.33948e-05
1.22586e-05
1.13259e-05
3.10114e-05
1.56593e-06
1.66081e-06
1.15258e-05
6.06664e-06
8.75558e-06
1.45992e-05
1.09735e-05
1.06962e-05
1.92264e-05
1.47336e-05
1.5611e-05
1.70178e-05
1.73179e-05
1.74636e-05
1.70833e-05
1.67984e-05
1.65315e-05
1.63395e-05
1.62589e-05
1.60506e-05
1.56785e-05
1.55335e-05
1.56214e-05
1.57936e-05
1.60285e-05
1.61307e-05
1.48674e-05
2.19514e-05
1.3266e-05
1.42987e-05
2.35754e-05
1.94313e-05
1.66744e-05
1.4026e-05
2.54994e-05
7.42695e-06
6.88851e-06
3.34729e-05
7.03471e-06
6.9112e-06
1.08156e-05
1.16587e-05
1.0532e-05
1.77835e-05
1.65745e-05
1.56873e-05
1.75736e-05
1.8187e-05
1.79727e-05
1.75743e-05
1.7057e-05
1.66248e-05
1.64758e-05
1.65057e-05
1.6484e-05
1.6324e-05
1.62667e-05
1.63377e-05
1.66704e-05
1.73462e-05
1.83228e-05
1.77723e-05
2.36244e-05
1.55322e-05
1.8249e-05
3.00951e-05
2.25465e-05
1.60913e-05
1.0543e-05
1.59977e-05
8.07781e-06
8.06931e-06
3.99649e-05
1.22405e-05
1.3369e-05
1.4622e-05
1.02763e-05
9.24355e-06
1.56467e-05
1.6483e-05
1.5239e-05
1.69561e-05
1.68549e-05
1.69125e-05
1.69616e-05
1.67035e-05
1.64603e-05
1.64774e-05
1.67829e-05
1.72035e-05
1.74702e-05
1.77074e-05
1.7875e-05
1.79736e-05
1.85521e-05
1.95094e-05
1.96826e-05
2.61935e-05
1.7395e-05
1.90485e-05
2.65201e-05
1.99944e-05
1.48085e-05
1.34296e-05
2.91898e-05
1.35108e-05
2.09468e-05
3.2726e-05
1.52477e-05
1.66668e-05
2.17378e-05
1.42854e-05
1.01022e-05
1.63242e-05
1.76091e-05
1.56496e-05
1.69234e-05
1.63041e-05
1.69355e-05
1.70429e-05
1.67127e-05
1.63934e-05
1.6428e-05
1.68394e-05
1.74104e-05
1.80541e-05
1.88764e-05
1.94278e-05
1.95406e-05
1.94884e-05
2.08625e-05
2.1049e-05
2.48342e-05
1.65446e-05
1.7886e-05
2.33917e-05
2.1285e-05
1.98895e-05
1.75459e-05
4.34292e-05
3.56826e-05
2.53412e-05
4.5624e-05
1.67084e-05
1.96702e-05
2.94793e-05
1.99777e-05
1.14105e-05
1.3963e-05
1.63078e-05
1.50754e-05
1.69913e-05
1.626e-05
1.69766e-05
1.70473e-05
1.66298e-05
1.61399e-05
1.6206e-05
1.67963e-05
1.7522e-05
1.84917e-05
1.97153e-05
2.09721e-05
2.18063e-05
2.22076e-05
2.42101e-05
2.16734e-05
2.15383e-05
1.53022e-05
2.01947e-05
3.48592e-05
2.85785e-05
2.44627e-05
2.34302e-05
6.25684e-05
2.62126e-05
3.61572e-05
7.46327e-05
2.13929e-05
1.99252e-05
2.33427e-05
2.18878e-05
1.2891e-05
1.07034e-05
1.39064e-05
1.2823e-05
1.47763e-05
1.43185e-05
1.49906e-05
1.52745e-05
1.51451e-05
1.52204e-05
1.5629e-05
1.66917e-05
1.80068e-05
1.95892e-05
2.15114e-05
2.36813e-05
2.55839e-05
2.68311e-05
2.5357e-05
2.16943e-05
1.42996e-05
1.81137e-05
3.21272e-05
3.34049e-05
3.37409e-05
2.64638e-05
2.71619e-05
9.02477e-05
3.38054e-05
2.56114e-05
6.79298e-05
2.34526e-05
2.11722e-05
2.75211e-05
2.90643e-05
1.25546e-05
8.47716e-06
1.04604e-05
1.05658e-05
1.34972e-05
1.35058e-05
1.39949e-05
1.41494e-05
1.42419e-05
1.45203e-05
1.52288e-05
1.65539e-05
1.83126e-05
2.04073e-05
2.27184e-05
2.50933e-05
2.70663e-05
2.76745e-05
2.27761e-05
1.59828e-05
1.30666e-05
1.87166e-05
2.69045e-05
3.01507e-05
3.33666e-05
3.1236e-05
4.41857e-05
0.000127663
2.60221e-05
2.01522e-05
8.73516e-05
2.42238e-05
1.7327e-05
2.35915e-05
3.56169e-05
1.73012e-05
7.84434e-06
7.89059e-06
9.6084e-06
1.14122e-05
1.28306e-05
1.38505e-05
1.36585e-05
1.40357e-05
1.41959e-05
1.4997e-05
1.64743e-05
1.80468e-05
2.00328e-05
2.25266e-05
2.46987e-05
2.70024e-05
2.92309e-05
2.50369e-05
1.51868e-05
1.38952e-05
1.77477e-05
2.57241e-05
3.64018e-05
3.72948e-05
3.50801e-05
5.08709e-05
0.000130319
2.3392e-05
1.94106e-05
0.000121473
4.78003e-05
2.46935e-05
1.9386e-05
1.54739e-05
1.1655e-05
7.98538e-06
5.78111e-06
6.57009e-06
1.0302e-05
1.43479e-05
1.52255e-05
1.52018e-05
1.48934e-05
1.47699e-05
1.55258e-05
1.68198e-05
1.79337e-05
1.94103e-05
2.15466e-05
2.37832e-05
2.64386e-05
2.81017e-05
2.39265e-05
1.65796e-05
1.61215e-05
1.69156e-05
2.29217e-05
3.49688e-05
3.40375e-05
3.50488e-05
6.39145e-05
0.000131342
2.09651e-05
2.10894e-05
0.000119916
8.33977e-05
3.93825e-05
2.59675e-05
2.14346e-05
9.04231e-06
5.20519e-06
5.02386e-06
5.08981e-06
9.33332e-06
1.23248e-05
1.37249e-05
1.43966e-05
1.44857e-05
1.48863e-05
1.57951e-05
1.70741e-05
1.83416e-05
1.97187e-05
2.16293e-05
2.48175e-05
2.81922e-05
2.94482e-05
2.58236e-05
1.77076e-05
1.80617e-05
1.65952e-05
1.93356e-05
2.97431e-05
3.4625e-05
4.46075e-05
8.67679e-05
0.000137099
3.74206e-05
2.56413e-05
0.00012312
0.000124224
5.02788e-05
2.6538e-05
2.04231e-05
7.4104e-06
4.63037e-06
5.64555e-06
6.1768e-06
9.87342e-06
1.20155e-05
1.25036e-05
1.301e-05
1.399e-05
1.45859e-05
1.58182e-05
1.7325e-05
1.89789e-05
2.09494e-05
2.2615e-05
2.3951e-05
2.63372e-05
2.9549e-05
2.93221e-05
2.23016e-05
2.05193e-05
1.667e-05
1.89673e-05
2.9261e-05
3.51765e-05
5.00582e-05
0.000110169
0.000137458
3.96034e-05
2.84566e-05
0.000123688
0.000126123
5.67544e-05
3.09344e-05
2.05872e-05
6.93639e-06
4.44023e-06
5.9801e-06
7.55722e-06
1.10938e-05
1.28068e-05
1.34036e-05
1.39655e-05
1.47494e-05
1.55851e-05
1.68235e-05
1.82481e-05
1.99556e-05
2.17889e-05
2.38995e-05
2.62691e-05
2.90185e-05
3.14434e-05
2.97984e-05
2.52356e-05
1.99681e-05
1.84141e-05
2.45386e-05
3.56586e-05
4.1482e-05
5.44173e-05
9.22566e-05
0.00013351
3.89385e-05
2.76286e-05
0.000122971
6.83036e-05
5.79736e-05
4.93657e-05
2.06942e-05
6.82422e-06
4.73996e-06
7.28542e-06
1.06184e-05
1.19802e-05
1.24688e-05
1.29958e-05
1.37498e-05
1.48624e-05
1.58608e-05
1.73316e-05
1.90496e-05
2.02572e-05
2.1955e-05
2.41428e-05
2.65442e-05
2.88541e-05
2.93258e-05
2.69042e-05
2.75213e-05
2.14869e-05
2.29995e-05
3.51662e-05
4.67221e-05
6.33172e-05
5.0591e-05
5.01597e-05
0.000106507
4.48438e-05
2.03772e-05
5.19534e-05
3.46892e-05
4.19713e-05
3.85597e-05
2.62767e-05
8.93362e-06
5.64049e-06
9.71587e-06
1.12813e-05
1.29269e-05
1.37381e-05
1.41845e-05
1.43462e-05
1.51862e-05
1.63682e-05
1.78336e-05
1.90378e-05
2.05004e-05
2.22399e-05
2.53261e-05
2.90241e-05
3.27252e-05
3.26745e-05
2.69778e-05
3.01095e-05
2.24802e-05
2.71045e-05
5.47708e-05
6.3084e-05
6.97889e-05
3.68613e-05
3.04905e-05
6.3616e-05
2.20984e-05
2.99957e-05
5.88307e-05
2.63087e-05
2.60946e-05
2.95954e-05
2.51129e-05
9.96223e-06
6.56125e-06
1.08257e-05
1.21725e-05
1.39678e-05
1.47555e-05
1.50283e-05
1.48136e-05
1.53288e-05
1.6456e-05
1.81868e-05
2.0198e-05
2.23124e-05
2.39786e-05
2.6597e-05
3.23737e-05
3.33295e-05
3.10203e-05
2.75396e-05
2.67153e-05
2.25267e-05
3.52051e-05
7.78407e-05
5.18784e-05
3.14641e-05
2.57584e-05
4.02264e-05
0.000135402
1.83112e-05
3.10344e-05
8.71391e-05
2.2832e-05
1.80649e-05
2.77455e-05
2.55702e-05
1.07898e-05
7.34114e-06
1.04574e-05
1.23236e-05
1.44409e-05
1.49481e-05
1.50411e-05
1.46732e-05
1.51148e-05
1.63582e-05
1.82419e-05
2.05957e-05
2.38998e-05
2.71913e-05
3.00936e-05
3.17492e-05
3.40783e-05
2.78612e-05
2.28432e-05
2.17294e-05
2.80352e-05
4.09873e-05
3.24776e-05
2.71494e-05
2.9943e-05
4.26791e-05
8.51947e-05
0.000134131
1.90902e-05
2.24702e-05
0.000127747
2.82305e-05
1.40053e-05
1.69308e-05
2.65048e-05
1.113e-05
7.05398e-06
9.41319e-06
1.15327e-05
1.32169e-05
1.42592e-05
1.4868e-05
1.48127e-05
1.54034e-05
1.66397e-05
1.84522e-05
2.11559e-05
2.35159e-05
2.73983e-05
3.14914e-05
3.12529e-05
2.63437e-05
1.82631e-05
1.63681e-05
2.34171e-05
2.77803e-05
2.4302e-05
2.73933e-05
3.40212e-05
4.32204e-05
6.5817e-05
0.000127406
0.000137307
2.14229e-05
1.95135e-05
0.000125741
5.54427e-05
1.59226e-05
1.02015e-05
1.39693e-05
1.16376e-05
6.86849e-06
7.61887e-06
9.95443e-06
1.43436e-05
1.42245e-05
1.46777e-05
1.55445e-05
1.60691e-05
1.7283e-05
1.89464e-05
2.12569e-05
2.19092e-05
2.42567e-05
2.99353e-05
2.95075e-05
2.12578e-05
1.52484e-05
1.92579e-05
2.47102e-05
2.19413e-05
2.53776e-05
3.10686e-05
3.83435e-05
5.1932e-05
7.95462e-05
0.000141863
0.000141113
3.06329e-05
1.96868e-05
0.000124859
9.69766e-05
2.72849e-05
1.22971e-05
9.46823e-06
8.00145e-06
6.23361e-06
6.2295e-06
9.08425e-06
1.57333e-05
1.58893e-05
1.62282e-05
1.64692e-05
1.63783e-05
1.74194e-05
1.89239e-05
2.07277e-05
2.40246e-05
2.70252e-05
2.80288e-05
2.67154e-05
2.03774e-05
1.56239e-05
2.02656e-05
2.12231e-05
1.95265e-05
2.67208e-05
3.38581e-05
4.03003e-05
5.14804e-05
8.06711e-05
0.000142255
0.000138773
3.39736e-05
1.88821e-05
0.000122104
0.000104389
3.62813e-05
1.55593e-05
9.5934e-06
6.52506e-06
5.36112e-06
4.9099e-06
6.08847e-06
1.27762e-05
2.0842e-05
1.80173e-05
1.63391e-05
1.73411e-05
1.79138e-05
1.89726e-05
2.079e-05
2.27862e-05
2.59816e-05
2.91393e-05
2.82834e-05
2.24805e-05
1.77034e-05
2.1202e-05
2.19692e-05
2.15473e-05
2.80945e-05
3.49074e-05
4.15482e-05
5.22238e-05
8.11478e-05
0.000143591
0.000138432
3.23838e-05
1.95323e-05
0.000119755
0.000100276
3.57192e-05
1.64094e-05
9.81285e-06
5.81776e-06
4.40625e-06
4.73185e-06
6.4366e-06
1.18764e-05
1.50527e-05
1.75641e-05
1.77647e-05
1.82378e-05
1.892e-05
1.96971e-05
2.19655e-05
2.51917e-05
2.79054e-05
3.02168e-05
2.97613e-05
2.36623e-05
1.89399e-05
2.18461e-05
2.24386e-05
2.24701e-05
2.85257e-05
3.48604e-05
4.14679e-05
5.50947e-05
8.63304e-05
0.000140422
0.000136928
2.47114e-05
1.97878e-05
0.000118761
9.78e-05
3.63184e-05
1.67319e-05
1.07241e-05
6.28722e-06
4.27911e-06
4.69061e-06
6.56119e-06
1.24563e-05
1.74145e-05
1.81912e-05
1.83621e-05
1.87274e-05
2.00967e-05
2.10347e-05
2.21315e-05
2.53656e-05
3.00617e-05
3.32566e-05
3.2305e-05
2.52544e-05
1.9541e-05
2.19243e-05
2.31032e-05
2.29907e-05
2.88265e-05
3.77099e-05
4.87083e-05
6.06178e-05
8.69845e-05
0.000147149
0.000139413
2.20152e-05
2.00205e-05
0.000120993
0.000100095
3.67619e-05
1.70946e-05
1.13938e-05
6.53596e-06
4.51245e-06
4.95969e-06
7.09034e-06
1.27658e-05
1.59411e-05
1.74248e-05
1.88896e-05
1.94492e-05
2.04255e-05
2.19599e-05
2.4466e-05
2.62814e-05
2.85512e-05
3.23091e-05
3.2128e-05
2.52011e-05
1.91963e-05
2.17067e-05
2.23685e-05
2.32014e-05
3.18685e-05
4.0964e-05
4.95922e-05
6.11729e-05
8.7212e-05
0.000144141
0.000136913
2.20048e-05
1.60711e-05
0.000119797
9.48591e-05
3.49795e-05
1.63912e-05
1.04659e-05
5.93447e-06
4.08333e-06
4.80193e-06
7.82606e-06
1.28232e-05
1.6772e-05
1.84112e-05
1.9943e-05
2.06059e-05
2.21711e-05
2.41365e-05
2.61571e-05
2.75235e-05
2.90491e-05
3.2644e-05
3.38557e-05
2.7032e-05
2.01861e-05
2.21294e-05
2.28541e-05
2.43651e-05
3.2983e-05
4.13424e-05
5.0551e-05
6.17788e-05
8.80883e-05
0.000145335
0.000138727
2.25729e-05
3.60938e-05
0.000128286
8.76209e-05
3.28782e-05
1.57029e-05
9.53179e-06
5.65989e-06
4.21475e-06
4.96167e-06
8.27459e-06
1.29162e-05
1.7229e-05
1.93281e-05
2.06958e-05
2.18579e-05
2.28037e-05
2.50656e-05
2.76395e-05
2.85578e-05
3.11571e-05
3.48463e-05
3.51527e-05
2.81208e-05
2.0808e-05
2.20667e-05
2.32578e-05
2.55489e-05
3.4261e-05
4.21085e-05
5.12629e-05
6.30512e-05
8.86939e-05
0.000142888
0.000142873
3.41115e-05
3.56363e-05
0.000132544
8.42698e-05
3.06031e-05
1.56245e-05
9.61011e-06
5.70024e-06
4.26154e-06
5.09589e-06
8.54463e-06
1.34638e-05
1.89748e-05
2.08434e-05
2.15347e-05
2.28991e-05
2.38986e-05
2.49359e-05
2.82777e-05
3.12135e-05
3.37968e-05
3.45974e-05
3.36093e-05
2.78284e-05
2.20534e-05
2.40104e-05
2.57462e-05
2.73785e-05
3.56393e-05
4.45204e-05
5.27733e-05
6.41342e-05
8.68868e-05
0.000139545
0.000137778
3.4872e-05
3.17677e-05
0.000127329
8.03731e-05
2.94089e-05
1.52195e-05
9.38935e-06
5.07038e-06
3.76243e-06
4.74902e-06
7.7988e-06
1.34187e-05
2.08949e-05
2.24916e-05
2.22701e-05
2.37727e-05
2.54e-05
2.72479e-05
2.82063e-05
3.04989e-05
3.40522e-05
3.69451e-05
3.45625e-05
2.72121e-05
2.14925e-05
2.3582e-05
2.54892e-05
2.63378e-05
3.41922e-05
4.60576e-05
5.64583e-05
6.7422e-05
9.19471e-05
0.000141055
0.000139665
3.53346e-05
3.15957e-05
0.000127769
8.72128e-05
2.83219e-05
1.34496e-05
8.6498e-06
4.75509e-06
3.72775e-06
4.95983e-06
8.35296e-06
1.50096e-05
1.92396e-05
2.2007e-05
2.3843e-05
2.53283e-05
2.72405e-05
2.97083e-05
3.1364e-05
3.37027e-05
3.55371e-05
3.80527e-05
3.48554e-05
2.66614e-05
2.13348e-05
2.42752e-05
2.64893e-05
2.76735e-05
3.68825e-05
4.84993e-05
5.84341e-05
6.75706e-05
9.00883e-05
0.000136337
0.000134172
2.9386e-05
3.30038e-05
0.000129755
8.85254e-05
2.81934e-05
1.29751e-05
8.13082e-06
4.57873e-06
3.72192e-06
5.10252e-06
8.57703e-06
1.49988e-05
1.95704e-05
2.2071e-05
2.41292e-05
2.59812e-05
2.83426e-05
3.04534e-05
3.22003e-05
3.46137e-05
3.66112e-05
3.85421e-05
3.33789e-05
2.45392e-05
2.08057e-05
2.47812e-05
2.70569e-05
2.87434e-05
3.83168e-05
4.82999e-05
5.91789e-05
6.99019e-05
8.92339e-05
0.000135208
0.000133636
2.35291e-05
2.3791e-05
0.000127322
8.67507e-05
2.68291e-05
1.20404e-05
7.56754e-06
4.33439e-06
3.63784e-06
5.59736e-06
9.04513e-06
1.38077e-05
1.64892e-05
1.98689e-05
2.46909e-05
2.69081e-05
2.93171e-05
3.11383e-05
3.37447e-05
3.63051e-05
4.05663e-05
4.04288e-05
3.25678e-05
2.31638e-05
2.16098e-05
2.75449e-05
2.8457e-05
3.03428e-05
4.05869e-05
4.97353e-05
5.75679e-05
7.01993e-05
9.34566e-05
0.000136542
0.000134647
2.12201e-05
1.86658e-05
0.000123587
7.98653e-05
2.57504e-05
1.12534e-05
7.09079e-06
4.35423e-06
3.69321e-06
5.83316e-06
1.03422e-05
1.33585e-05
1.65681e-05
2.00669e-05
2.29079e-05
2.57579e-05
2.8847e-05
3.23112e-05
3.36997e-05
3.51986e-05
3.91165e-05
4.01497e-05
3.22152e-05
2.11768e-05
2.13146e-05
2.86694e-05
2.73579e-05
2.99486e-05
4.20549e-05
5.23535e-05
6.0503e-05
6.90142e-05
8.96033e-05
0.000137973
0.000140823
3.12508e-05
3.07263e-05
0.000126425
8.24335e-05
2.53398e-05
1.05307e-05
6.92605e-06
4.45173e-06
3.76564e-06
5.86208e-06
1.01042e-05
1.25339e-05
1.61107e-05
2.04203e-05
2.3061e-05
2.53132e-05
2.82675e-05
3.13867e-05
3.50578e-05
3.80876e-05
3.96951e-05
4.09368e-05
3.3648e-05
2.1652e-05
2.00501e-05
2.69636e-05
2.80463e-05
3.02683e-05
4.10298e-05
5.17636e-05
6.16349e-05
7.18162e-05
9.25692e-05
0.000135208
0.000138833
3.35958e-05
3.17591e-05
0.000126837
7.92926e-05
2.45828e-05
1.00737e-05
6.64959e-06
5.00627e-06
4.03298e-06
5.20398e-06
9.63049e-06
1.18296e-05
1.58896e-05
1.88827e-05
2.107e-05
2.33295e-05
2.61264e-05
2.92651e-05
3.13701e-05
3.53615e-05
4.10702e-05
4.17877e-05
3.49151e-05
2.289e-05
1.75031e-05
2.15512e-05
2.56012e-05
2.86855e-05
4.0089e-05
5.12123e-05
6.09428e-05
7.05982e-05
9.14411e-05
0.00013957
0.000142159
3.52254e-05
2.68103e-05
0.000123739
7.05345e-05
2.21426e-05
9.45077e-06
6.19481e-06
5.16642e-06
4.41103e-06
4.88796e-06
8.83311e-06
1.21097e-05
1.48745e-05
1.8569e-05
2.1006e-05
2.29328e-05
2.54775e-05
2.84203e-05
3.22178e-05
3.59461e-05
3.79952e-05
3.99695e-05
3.6939e-05
2.49501e-05
1.60092e-05
1.82628e-05
2.36121e-05
2.73578e-05
3.94577e-05
5.0276e-05
6.13238e-05
7.08657e-05
8.94108e-05
0.000137403
0.000137646
3.1349e-05
2.14894e-05
0.000122006
8.19174e-05
2.39845e-05
9.28726e-06
5.63641e-06
4.80802e-06
4.51565e-06
4.88931e-06
8.61556e-06
1.14986e-05
1.42267e-05
1.70167e-05
1.85419e-05
2.04244e-05
2.27491e-05
2.56664e-05
2.93192e-05
3.21984e-05
3.53797e-05
3.79122e-05
3.28172e-05
2.14845e-05
1.41103e-05
1.5632e-05
1.93886e-05
2.36024e-05
3.61821e-05
4.93209e-05
6.11766e-05
7.04954e-05
9.0852e-05
0.000133873
0.000137155
2.95717e-05
2.85938e-05
0.00012293
7.47182e-05
2.37849e-05
1.05126e-05
5.82531e-06
4.26836e-06
3.97647e-06
4.58957e-06
8.18261e-06
1.11161e-05
1.3537e-05
1.46367e-05
1.61765e-05
1.84269e-05
2.07642e-05
2.37524e-05
2.73516e-05
3.13961e-05
3.49704e-05
3.61998e-05
3.02223e-05
1.91881e-05
1.29767e-05
1.41979e-05
1.58993e-05
1.83205e-05
2.80024e-05
4.12788e-05
5.80982e-05
6.96891e-05
8.99646e-05
0.000134924
0.000139406
3.63687e-05
3.05495e-05
0.000125387
7.22896e-05
2.2909e-05
1.05661e-05
6.35445e-06
4.55899e-06
3.85928e-06
4.28495e-06
7.33972e-06
1.09079e-05
1.25991e-05
1.31134e-05
1.44039e-05
1.46914e-05
1.58584e-05
1.81178e-05
2.13979e-05
2.53987e-05
2.90854e-05
3.08119e-05
2.64424e-05
1.80113e-05
1.25597e-05
1.29957e-05
1.33609e-05
1.46025e-05
2.10797e-05
3.11716e-05
4.63296e-05
6.19754e-05
8.10174e-05
0.00011795
0.00013535
2.24184e-05
2.53493e-05
0.000119707
7.10341e-05
2.23409e-05
1.03372e-05
6.65244e-06
4.98162e-06
4.16392e-06
4.19024e-06
6.47136e-06
1.08942e-05
1.28821e-05
1.32158e-05
1.35772e-05
1.39568e-05
1.4211e-05
1.51819e-05
1.75001e-05
2.10285e-05
2.49192e-05
2.78398e-05
2.5955e-05
1.81051e-05
1.17772e-05
1.11552e-05
1.13842e-05
1.25504e-05
1.79997e-05
2.60323e-05
3.77556e-05
4.84296e-05
6.83141e-05
0.000119824
0.000138243
2.99186e-05
2.22453e-05
0.000120375
6.96868e-05
2.21809e-05
1.06418e-05
7.85415e-06
5.54421e-06
4.45167e-06
4.64393e-06
6.17829e-06
1.05733e-05
1.33707e-05
1.34739e-05
1.30667e-05
1.30722e-05
1.26718e-05
1.23287e-05
1.26192e-05
1.46481e-05
1.71002e-05
1.83006e-05
1.76267e-05
1.2948e-05
8.97787e-06
8.86692e-06
9.32477e-06
1.07267e-05
1.53725e-05
2.1624e-05
3.09348e-05
4.55116e-05
7.12239e-05
0.000122039
0.000138079
3.2018e-05
3.13039e-05
0.000122011
7.48223e-05
2.21061e-05
1.08252e-05
8.1302e-06
5.11332e-06
4.6115e-06
5.84601e-06
6.3815e-06
1.08866e-05
1.54817e-05
1.47734e-05
1.46961e-05
1.36325e-05
1.24497e-05
1.21773e-05
1.28339e-05
1.39011e-05
1.56442e-05
1.70562e-05
1.6377e-05
1.15233e-05
8.521e-06
7.43323e-06
7.3704e-06
8.81018e-06
1.30838e-05
1.96614e-05
2.8576e-05
4.00392e-05
6.63951e-05
0.000120341
0.000134256
3.27994e-05
3.07946e-05
0.000121
7.99665e-05
2.38102e-05
1.08272e-05
8.09302e-06
4.93264e-06
4.61102e-06
7.08167e-06
8.63578e-06
1.16204e-05
1.24971e-05
1.60243e-05
1.50843e-05
1.29666e-05
1.1849e-05
1.0727e-05
1.02477e-05
1.09202e-05
1.22078e-05
1.2778e-05
1.25196e-05
1.05437e-05
9.02084e-06
7.55577e-06
7.34834e-06
9.35695e-06
1.36251e-05
1.89094e-05
2.61205e-05
3.87188e-05
6.30016e-05
0.000108203
0.000133153
3.0986e-05
2.41718e-05
0.000118492
5.49643e-05
2.4114e-05
1.30682e-05
7.74417e-06
4.93423e-06
5.03914e-06
8.41386e-06
1.12705e-05
1.40687e-05
1.45413e-05
1.32952e-05
1.2613e-05
1.21439e-05
1.16361e-05
1.06303e-05
9.74659e-06
9.44497e-06
9.16529e-06
1.06627e-05
1.08878e-05
8.33467e-06
7.27217e-06
8.15182e-06
9.11758e-06
1.04821e-05
1.19124e-05
1.61289e-05
2.53215e-05
3.83438e-05
6.15674e-05
0.000103357
0.000129005
2.84819e-05
2.13504e-05
0.000117919
2.86994e-05
1.21442e-05
1.17688e-05
1.24916e-05
6.30344e-06
6.4738e-06
1.28693e-05
1.312e-05
1.21509e-05
1.17822e-05
1.20005e-05
1.18135e-05
1.12364e-05
1.03491e-05
9.49204e-06
9.30933e-06
9.29222e-06
9.22168e-06
9.91808e-06
8.73325e-06
5.80672e-06
5.21132e-06
7.92395e-06
9.99746e-06
9.36644e-06
1.12889e-05
1.68978e-05
2.47066e-05
3.64923e-05
6.06503e-05
0.00010648
0.000127202
2.77835e-05
2.96378e-05
0.000125471
2.53424e-05
8.63053e-06
8.15447e-06
1.48366e-05
9.10441e-06
8.57368e-06
1.44778e-05
1.41005e-05
1.55218e-05
1.48018e-05
1.44473e-05
1.33134e-05
1.25812e-05
1.14845e-05
1.07886e-05
1.0375e-05
9.99337e-06
9.65901e-06
9.09877e-06
7.06761e-06
4.0224e-06
3.2869e-06
4.92827e-06
8.6345e-06
8.95146e-06
1.20883e-05
1.8575e-05
2.65893e-05
3.64937e-05
5.57427e-05
9.99918e-05
0.000129662
3.50754e-05
2.15115e-05
0.000122613
4.41343e-05
1.01372e-05
6.30829e-06
1.06465e-05
9.75935e-06
6.88051e-06
1.05154e-05
1.54691e-05
1.745e-05
1.84e-05
1.77852e-05
1.66015e-05
1.49518e-05
1.34797e-05
1.21692e-05
1.10746e-05
1.02851e-05
9.87508e-06
9.25977e-06
7.80806e-06
5.02147e-06
2.97986e-06
2.92942e-06
3.85817e-06
7.08513e-06
1.19775e-05
1.44161e-05
2.13536e-05
3.16884e-05
4.78559e-05
9.2501e-05
0.000124772
2.24196e-05
2.00149e-05
0.000118212
6.37797e-05
1.63433e-05
7.43603e-06
6.76911e-06
8.03097e-06
6.83967e-06
6.52534e-06
1.02199e-05
1.69362e-05
2.09809e-05
1.92958e-05
1.73109e-05
1.52794e-05
1.34452e-05
1.22094e-05
1.10331e-05
9.92313e-06
9.20177e-06
8.69997e-06
7.24618e-06
4.96783e-06
3.18638e-06
2.34916e-06
2.90887e-06
7.93265e-06
1.23413e-05
1.26432e-05
1.76836e-05
2.78524e-05
4.29714e-05
7.26934e-05
0.00012566
1.95382e-05
1.42486e-05
0.000112529
6.55307e-05
1.89025e-05
9.66796e-06
7.14384e-06
5.40987e-06
4.88235e-06
5.55933e-06
7.97418e-06
1.45499e-05
1.89372e-05
1.94569e-05
1.73784e-05
1.58124e-05
1.38165e-05
1.24159e-05
1.15413e-05
1.06223e-05
9.50313e-06
8.6614e-06
6.76411e-06
4.65654e-06
2.97899e-06
2.12879e-06
2.78435e-06
5.69626e-06
7.38931e-06
9.23249e-06
1.61666e-05
2.16681e-05
3.11404e-05
6.25057e-05
0.000130049
2.60134e-05
3.37704e-05
0.000119797
7.50882e-05
2.11598e-05
1.03397e-05
7.70961e-06
5.13132e-06
4.35699e-06
5.39699e-06
7.24574e-06
1.33771e-05
1.69051e-05
1.67699e-05
1.7924e-05
1.64178e-05
1.45936e-05
1.33455e-05
1.22013e-05
1.16764e-05
1.08586e-05
9.32416e-06
7.6668e-06
3.89031e-06
2.4243e-06
2.23891e-06
2.87584e-06
3.67737e-06
5.36317e-06
8.65942e-06
1.35488e-05
2.02151e-05
3.44203e-05
8.1844e-05
0.000130103
2.93015e-05
3.98522e-05
0.000127486
7.84756e-05
2.2759e-05
1.05201e-05
6.65019e-06
4.91561e-06
4.97337e-06
5.7603e-06
8.334e-06
1.24159e-05
1.5426e-05
1.95251e-05
1.87902e-05
1.69198e-05
1.59971e-05
1.46133e-05
1.39132e-05
1.25359e-05
1.09065e-05
9.52849e-06
6.96883e-06
3.68274e-06
2.5956e-06
2.05587e-06
2.60709e-06
3.76767e-06
6.77391e-06
1.05681e-05
1.46652e-05
2.15141e-05
4.26075e-05
8.54591e-05
0.000122313
2.61624e-05
2.62944e-05
0.000122187
6.1456e-05
2.43394e-05
1.31461e-05
6.05466e-06
4.42006e-06
5.2581e-06
6.34678e-06
1.15081e-05
1.7859e-05
1.85229e-05
1.48645e-05
1.30305e-05
1.59231e-05
1.5137e-05
1.51014e-05
1.3522e-05
1.34593e-05
1.30155e-05
1.00583e-05
6.22492e-06
3.65653e-06
3.33019e-06
2.60676e-06
2.56611e-06
3.76266e-06
5.91737e-06
1.00715e-05
1.36868e-05
2.09702e-05
4.35631e-05
8.86129e-05
0.000122439
2.15225e-05
3.54746e-05
0.000121761
4.28774e-05
1.76424e-05
1.33081e-05
6.13168e-06
3.75935e-06
5.49703e-06
1.06308e-05
1.38032e-05
1.36417e-05
1.46677e-05
1.8076e-05
1.82384e-05
1.68521e-05
1.65928e-05
1.59692e-05
1.56617e-05
1.47997e-05
1.294e-05
1.17608e-05
7.61825e-06
4.19422e-06
3.82908e-06
4.93505e-06
3.62206e-06
3.89567e-06
4.9377e-06
5.31757e-06
9.27425e-06
1.71442e-05
3.99474e-05
8.97625e-05
0.000122077
3.28893e-05
3.72919e-05
0.000127286
2.96212e-05
1.04795e-05
8.68029e-06
9.00369e-06
5.52866e-06
5.80761e-06
1.08882e-05
1.33589e-05
1.62984e-05
1.9834e-05
2.1028e-05
2.12186e-05
2.14056e-05
2.09938e-05
1.99812e-05
1.87664e-05
1.74317e-05
1.58409e-05
1.31174e-05
8.86962e-06
5.09405e-06
5.37685e-06
4.40405e-06
3.94478e-06
7.57832e-06
6.56778e-06
5.14102e-06
9.75326e-06
1.95121e-05
3.55145e-05
7.97202e-05
0.000120828
3.09707e-05
2.38904e-05
0.000124666
2.90354e-05
8.49045e-06
6.67409e-06
9.59672e-06
6.39433e-06
5.90059e-06
1.13884e-05
1.68124e-05
2.11645e-05
2.31375e-05
2.4192e-05
2.40641e-05
2.34582e-05
2.22428e-05
2.08308e-05
1.90467e-05
1.72284e-05
1.51887e-05
1.25584e-05
9.837e-06
7.05887e-06
4.4225e-06
4.05886e-06
3.72422e-06
6.00654e-06
1.01053e-05
9.985e-06
1.35344e-05
1.40999e-05
2.12948e-05
5.6486e-05
0.000118786
2.35119e-05
2.10754e-05
0.000120886
3.89345e-05
9.71159e-06
5.93252e-06
7.7525e-06
6.70139e-06
5.27292e-06
8.94623e-06
1.59242e-05
2.21057e-05
2.49778e-05
2.54333e-05
2.39238e-05
2.2315e-05
2.09605e-05
1.97641e-05
1.83835e-05
1.73436e-05
1.72356e-05
1.54554e-05
1.22937e-05
8.55781e-06
6.05677e-06
6.43746e-06
3.88966e-06
4.4043e-06
1.64856e-05
1.3629e-05
8.55859e-06
7.91701e-06
1.36235e-05
3.66911e-05
0.000107458
1.61119e-05
1.53521e-05
0.000116086
4.79615e-05
1.10665e-05
6.1052e-06
7.1888e-06
6.64857e-06
5.1435e-06
6.97721e-06
1.31579e-05
2.18997e-05
2.56033e-05
2.48537e-05
2.39064e-05
2.28551e-05
2.17596e-05
2.1176e-05
2.07781e-05
2.04483e-05
1.99664e-05
1.893e-05
1.46764e-05
9.73881e-06
7.21078e-06
7.55599e-06
4.58825e-06
5.23315e-06
1.19462e-05
8.91223e-06
5.70534e-06
7.14358e-06
1.61325e-05
5.16095e-05
0.000111937
2.50169e-05
2.81199e-05
0.000119375
5.17558e-05
1.16191e-05
6.15182e-06
7.5385e-06
6.75877e-06
4.7481e-06
5.97133e-06
1.06994e-05
1.85939e-05
2.43748e-05
2.55667e-05
2.52151e-05
2.47275e-05
2.44803e-05
2.42012e-05
2.3632e-05
2.29223e-05
2.30269e-05
2.20999e-05
1.73485e-05
1.16997e-05
9.46956e-06
9.18748e-06
6.45102e-06
3.86624e-06
4.90086e-06
4.55082e-06
5.53287e-06
9.98754e-06
2.49086e-05
6.53408e-05
0.000108384
1.95573e-05
2.10925e-05
0.000116662
5.9108e-05
1.27154e-05
5.94121e-06
6.64718e-06
7.78635e-06
5.60523e-06
5.18857e-06
8.61017e-06
1.72885e-05
2.54466e-05
2.79832e-05
2.71514e-05
2.64576e-05
2.72193e-05
2.73127e-05
2.62299e-05
2.56512e-05
2.6644e-05
2.6605e-05
1.94998e-05
1.1512e-05
1.03675e-05
1.20683e-05
1.13515e-05
5.43245e-06
3.07188e-06
3.54678e-06
5.94339e-06
1.0772e-05
2.57601e-05
7.32052e-05
0.000117726
1.88863e-05
1.94068e-05
0.000115326
6.21846e-05
1.7291e-05
7.42422e-06
6.02532e-06
6.38131e-06
5.6057e-06
5.18597e-06
7.69622e-06
1.55507e-05
2.39221e-05
2.99089e-05
3.02039e-05
3.04271e-05
3.07146e-05
3.03118e-05
2.98194e-05
3.07809e-05
3.41562e-05
3.10162e-05
1.90228e-05
1.20353e-05
1.00554e-05
1.06691e-05
1.09028e-05
6.03959e-06
4.29245e-06
3.61407e-06
4.67175e-06
8.69421e-06
2.34356e-05
7.73336e-05
0.000122587
2.90325e-05
3.08519e-05
0.000118305
7.31106e-05
1.90982e-05
9.54827e-06
8.06129e-06
5.91797e-06
4.60632e-06
4.7687e-06
6.57457e-06
1.5665e-05
2.15113e-05
3.05472e-05
3.21761e-05
3.23097e-05
3.33756e-05
3.30654e-05
3.21912e-05
3.12567e-05
3.02564e-05
2.74733e-05
2.13765e-05
1.54207e-05
1.17384e-05
1.14867e-05
9.32676e-06
7.43691e-06
6.2394e-06
3.80476e-06
3.54514e-06
7.08257e-06
2.25144e-05
7.32364e-05
0.000120158
2.30337e-05
3.27962e-05
0.000117869
7.17067e-05
1.99977e-05
1.19119e-05
8.08297e-06
4.58618e-06
3.90858e-06
4.97868e-06
7.61531e-06
1.71789e-05
2.74047e-05
3.17676e-05
3.43093e-05
3.50143e-05
3.60906e-05
3.5172e-05
3.45192e-05
3.46583e-05
3.45895e-05
3.23826e-05
2.41551e-05
1.65906e-05
1.47255e-05
1.22569e-05
8.86602e-06
8.12949e-06
6.61763e-06
4.73364e-06
3.2813e-06
6.32298e-06
2.27339e-05
7.24034e-05
0.000117199
1.96016e-05
2.61079e-05
0.00011499
7.79729e-05
2.10454e-05
1.34677e-05
6.16287e-06
4.06153e-06
4.50002e-06
5.79979e-06
1.16376e-05
1.94625e-05
2.873e-05
3.25596e-05
3.54108e-05
3.73247e-05
3.87902e-05
3.78857e-05
3.78006e-05
3.88366e-05
4.01596e-05
3.85862e-05
2.73605e-05
1.98726e-05
1.73782e-05
1.8074e-05
1.18573e-05
8.2049e-06
5.2318e-06
3.07714e-06
3.32062e-06
7.80152e-06
2.43636e-05
7.54651e-05
0.000120402
1.92299e-05
4.27837e-05
0.000109715
8.15939e-05
2.14001e-05
1.24339e-05
4.89825e-06
3.51806e-06
5.58312e-06
8.10815e-06
1.48215e-05
2.09681e-05
2.53189e-05
2.94461e-05
3.38129e-05
3.78725e-05
4.04933e-05
4.19863e-05
4.48722e-05
4.89015e-05
5.26045e-05
4.69432e-05
2.67798e-05
2.13394e-05
2.08709e-05
2.2589e-05
1.6734e-05
1.20796e-05
9.85833e-06
5.6315e-06
4.54293e-06
1.10866e-05
3.33976e-05
9.86474e-05
0.000123023
1.98228e-05
4.41963e-05
0.000117666
5.92201e-05
2.54384e-05
9.8342e-06
4.05767e-06
3.80835e-06
9.14839e-06
1.22565e-05
1.63661e-05
1.98286e-05
2.39494e-05
2.82596e-05
3.2885e-05
3.93726e-05
4.43113e-05
5.18771e-05
5.81817e-05
6.01845e-05
6.01859e-05
4.56702e-05
2.80429e-05
2.50528e-05
1.88002e-05
1.91134e-05
3.10381e-05
2.57766e-05
2.00467e-05
1.5721e-05
9.56567e-06
1.29417e-05
3.95347e-05
0.000124563
0.000127148
3.02982e-05
2.7148e-05
3.58962e-05
1.66713e-05
1.66671e-05
1.52973e-05
6.44427e-06
7.28745e-06
1.54949e-05
1.22162e-05
1.64589e-05
1.83819e-05
2.19774e-05
2.60466e-05
3.21653e-05
3.94322e-05
4.63958e-05
5.03283e-05
5.22066e-05
5.59847e-05
5.80877e-05
5.61244e-05
3.96135e-05
2.54999e-05
2.4301e-05
1.96121e-05
2.4921e-05
5.09299e-05
3.9284e-05
3.12212e-05
1.89345e-05
1.38255e-05
4.15859e-05
8.4486e-05
0.000126379
3.57438e-05
1.91087e-05
2.78052e-05
1.0279e-05
1.04209e-05
1.90972e-05
7.64475e-06
7.75457e-06
1.52934e-05
1.64853e-05
2.28344e-05
2.16918e-05
2.541e-05
2.96038e-05
3.59638e-05
4.07265e-05
4.30133e-05
4.60274e-05
4.79714e-05
4.9037e-05
5.1762e-05
5.36443e-05
4.64096e-05
3.0947e-05
2.65913e-05
1.96251e-05
2.1983e-05
4.11698e-05
4.87142e-05
4.46386e-05
3.9484e-05
3.34258e-05
3.21511e-05
6.07088e-05
0.000122522
3.08056e-05
2.24794e-05
7.53186e-05
1.1162e-05
5.27481e-06
9.93748e-06
9.1184e-06
6.03412e-06
1.01269e-05
1.47875e-05
2.21637e-05
3.01667e-05
2.73771e-05
3.15192e-05
3.11585e-05
3.00037e-05
3.36339e-05
3.5719e-05