/*--------------------------------*- C++ -*----------------------------------*\
  =========                 |
  \\      /  F ield         | OpenFOAM: The Open Source CFD Toolbox
   \\    /   O peration     | Website:  https://openfoam.org
    \\  /    A nd           | Version:  13
     \\/     M anipulation  |
\*---------------------------------------------------------------------------*/
FoamFile
{
    format      ascii;
    class       volScalarField;
    location    "0s";
    object      p_rgh;
}
// * * * * * * * * * * * * * * * * * * * * * * * * * * * * * * * * * * * * * //

dimensions      [0 2 -2 0 0 0 0];

internalField   nonuniform List<scalar> 
78750
(
0.0776954
0.0802334
0.083106
0.0873218
0.0923058
0.0956826
0.101717
0.107349
0.114667
0.121042
0.127528
0.133294
0.138632
0.142642
0.145925
0.148004
0.148847
0.14906
0.148612
0.146785
0.143368
0.139699
0.13514
0.129629
0.123986
0.117391
0.110826
0.10415
0.0982482
0.093375
0.0894142
0.0855586
0.0809656
0.0776875
0.0751736
-0.0731828
-0.0530396
-0.0338272
-0.0152899
0.00222199
0.0185584
0.0353639
0.0504496
0.0640394
0.0756941
0.0863951
0.095293
0.102461
0.10819
0.112227
0.115092
0.11659
0.116761
0.115769
0.113707
0.110478
0.106048
0.100082
0.0932148
0.0843673
0.074496
0.0636123
0.0511121
0.0362547
0.0214676
0.00606171
-0.0109885
-0.0292228
-0.0485951
-0.0694873
-0.2006
-0.163798
-0.128557
-0.0953553
-0.0644456
-0.0362637
-0.0108455
0.0113706
0.0307958
0.0469338
0.0598566
0.0703986
0.0783197
0.0842858
0.0884055
0.0909833
0.0921937
0.0920893
0.0907025
0.0880093
0.0838929
0.0782401
0.0706593
0.0610534
0.0488706
0.0341444
0.0161343
-0.00608542
-0.0304256
-0.0572221
-0.0880208
-0.121288
-0.156562
-0.194
-0.233176
-0.308597
-0.256117
-0.206334
-0.15939
-0.116793
-0.0784686
-0.0444236
-0.015849
0.00819922
0.0278294
0.0432205
0.0552105
0.0640428
0.0703749
0.0745762
0.077045
0.0779482
0.077483
0.0756445
0.0723363
0.0674432
0.0605519
0.0513069
0.0392322
0.0238108
0.00449789
-0.0192512
-0.0473258
-0.0798392
-0.117968
-0.161134
-0.208577
-0.259875
-0.313538
-0.369412
-0.433302
-0.366318
-0.300808
-0.239112
-0.18374
-0.13414
-0.0901622
-0.0533206
-0.0229096
0.00222089
0.0217954
0.037094
0.0486065
0.0570111
0.0628933
0.0667601
0.0688787
0.0694139
0.0684867
0.0659484
0.061553
0.0549154
0.045518
0.0327109
0.0157238
-0.00605478
-0.0333714
-0.0666988
-0.107059
-0.154318
-0.208006
-0.267908
-0.333116
-0.402313
-0.474402
-0.591888
-0.508967
-0.428836
-0.352852
-0.282522
-0.220008
-0.1649
-0.116409
-0.0764306
-0.0430057
-0.0160694
0.0051494
0.0216661
0.034144
0.0434241
0.0501167
0.0546244
0.057208
0.0579862
0.0568444
0.053525
0.0476002
0.0384504
0.0252333
0.00714812
-0.0169185
-0.0480818
-0.086588
-0.134318
-0.190685
-0.254996
-0.327178
-0.406574
-0.492696
-0.581786
-0.725032
-0.626346
-0.532072
-0.443361
-0.361164
-0.286621
-0.220814
-0.16233
-0.113717
-0.0737393
-0.0413928
-0.0158031
0.00387208
0.0187776
0.029701
0.0374241
0.042469
0.0450651
0.0454249
0.0434696
0.0388317
0.0309918
0.0191735
0.00246963
-0.0201364
-0.0499182
-0.0877844
-0.135104
-0.192535
-0.260015
-0.337618
-0.425358
-0.520708
-0.621976
-0.728108
-0.813036
-0.698121
-0.58869
-0.48566
-0.3912
-0.306392
-0.232281
-0.168892
-0.115737
-0.0725172
-0.038414
-0.0119765
0.00783724
0.0222504
0.0322518
0.0386511
0.0420993
0.0428353
0.0410227
0.0365249
0.0288865
0.017436
0.00132156
-0.0205615
-0.0494683
-0.0867218
-0.133411
-0.190917
-0.259246
-0.339472
-0.431211
-0.532813
-0.643972
-0.76109
-0.883315
-0.904604
-0.774794
-0.649598
-0.531997
-0.425306
-0.330088
-0.246921
-0.176844
-0.119784
-0.0730776
-0.0367701
-0.00893471
0.0117149
0.0265198
0.0365903
0.0428797
0.0460671
0.0464445
0.0441602
0.0390762
0.030655
0.0181403
0.000569086
-0.0234446
-0.0551531
-0.0960524
-0.147875
-0.211508
-0.288189
-0.378064
-0.481415
-0.5961
-0.720298
-0.852475
-0.991549
-1.02261
-0.87704
-0.738444
-0.607566
-0.487811
-0.380527
-0.287958
-0.209039
-0.144456
-0.0927449
-0.0519805
-0.020855
0.00216251
0.0186663
0.0297628
0.0366627
0.0400364
0.0402823
0.0376034
0.0318657
0.0225117
0.0087373
-0.0105611
-0.0367026
-0.0713194
-0.116104
-0.17244
-0.242408
-0.325751
-0.425135
-0.538087
-0.665638
-0.806897
-0.956447
-1.11033
-1.1303
-0.969477
-0.815648
-0.671253
-0.538619
-0.419625
-0.316928
-0.229747
-0.159685
-0.103554
-0.0599703
-0.0271437
-0.00359157
0.0126447
0.0228396
0.0283044
0.0296718
0.0274176
0.0217059
0.012391
-0.00116193
-0.0198732
-0.0450598
-0.0781374
-0.120751
-0.174957
-0.2418
-0.32144
-0.414981
-0.525995
-0.652062
-0.792744
-0.946605
-1.11082
-1.282
-1.24278
-1.06861
-0.897493
-0.736069
-0.591029
-0.462518
-0.350517
-0.256085
-0.179311
-0.119018
-0.0730798
-0.0374971
-0.0123172
0.00469169
0.0153438
0.0207966
0.0216872
0.0186135
0.0118186
0.00106027
-0.0144536
-0.0357449
-0.064233
-0.101525
-0.149946
-0.209463
-0.28274
-0.369415
-0.473121
-0.594167
-0.732592
-0.887438
-1.05653
-1.23527
-1.42136
-1.43075
-1.2396
-1.0568
-0.886731
-0.730229
-0.589282
-0.464947
-0.36135
-0.273012
-0.200251
-0.14123
-0.0947311
-0.0591951
-0.033108
-0.0140198
-0.00141976
0.00553718
0.00806412
0.00588886
-0.000973921
-0.0134053
-0.0325002
-0.0596276
-0.0965064
-0.145106
-0.20709
-0.28327
-0.376165
-0.488272
-0.619252
-0.769418
-0.937454
-1.12054
-1.31598
-1.51948
-1.59879
-1.39524
-1.20125
-1.0183
-0.849136
-0.697611
-0.56571
-0.450819
-0.351059
-0.258669
-0.186142
-0.131884
-0.0879793
-0.05429
-0.0286436
-0.0102221
0.00182206
0.00877095
0.0105546
0.00696277
-0.00274333
-0.0196455
-0.0452485
-0.0814935
-0.130537
-0.194802
-0.276152
-0.376572
-0.497711
-0.639774
-0.802849
-0.984531
-1.18272
-1.39434
-1.61512
-1.6512
-1.42901
-1.21977
-1.02517
-0.844784
-0.682651
-0.539914
-0.416168
-0.313264
-0.226812
-0.153272
-0.0921035
-0.0448223
-0.00861998
0.0183834
0.0377762
0.0509149
0.0581856
0.0597702
0.0555147
0.0446168
0.0259612
-0.00224499
-0.0419988
-0.0954547
-0.165097
-0.253428
-0.362387
-0.492727
-0.644936
-0.81948
-1.01458
-1.22642
-1.45184
-1.68952
-1.6576
-1.41872
-1.19098
-0.979182
-0.783244
-0.608938
-0.457996
-0.32864
-0.220437
-0.132576
-0.0619828
-0.00614135
0.0369491
0.069254
0.0926636
0.109037
0.119651
0.124598
0.124493
0.118743
0.106573
0.0865324
0.0567687
0.0150122
-0.0411761
-0.114752
-0.2077
-0.322899
-0.461461
-0.623948
-0.809437
-1.01706
-1.24409
-1.48755
-1.74179
-1.67657
-1.42464
-1.18154
-0.953137
-0.744103
-0.557914
-0.395333
-0.257333
-0.142948
-0.0506538
0.0230181
0.0800415
0.12322
0.155465
0.178699
0.195126
0.205502
0.210805
0.211213
0.20611
0.194788
0.175747
0.146879
0.106508
0.0508457
-0.0237573
-0.119322
-0.240748
-0.387301
-0.56021
-0.758973
-0.98169
-1.22699
-1.48724
-1.756
-1.70166
-1.43508
-1.17643
-0.933397
-0.711751
-0.514305
-0.342161
-0.196666
-0.0782257
0.0168744
0.092916
0.151555
0.195435
0.227241
0.249776
0.265027
0.274327
0.27856
0.277977
0.27213
0.260018
0.240037
0.210077
0.166039
0.10567
0.0260036
-0.0741199
-0.20157
-0.356533
-0.539263
-0.750418
-0.986684
-1.24654
-1.52417
-1.80904
-1.78892
-1.50756
-1.23425
-0.977921
-0.744227
-0.534894
-0.352962
-0.199298
-0.0751183
0.0235536
0.100057
0.157904
0.20127
0.232823
0.254434
0.268329
0.275732
0.27744
0.274121
0.265057
0.24938
0.225665
0.191491
0.144986
0.0840392
0.00428502
-0.101978
-0.236991
-0.399532
-0.592518
-0.815869
-1.0676
-1.34271
-1.63478
-1.93445
-1.92027
-1.62253
-1.33535
-1.0642
-0.816209
-0.594103
-0.401685
-0.239692
-0.10749
-0.00114928
0.081748
0.144625
0.190736
0.223285
0.244726
0.257274
0.262556
0.260987
0.253234
0.239003
0.216773
0.185693
0.141957
0.08169
0.00455838
-0.0917615
-0.213529
-0.360525
-0.538408
-0.748573
-0.985775
-1.24955
-1.53705
-1.8421
-2.15909
-2.04628
-1.73354
-1.43231
-1.14731
-0.886785
-0.653955
-0.451448
-0.280371
-0.14033
-0.0289064
0.0588575
0.124771
0.172777
0.206315
0.227848
0.239658
0.243247
0.239658
0.229468
0.210871
0.181518
0.140364
0.0886773
0.0258121
-0.0564701
-0.1609
-0.288486
-0.444057
-0.631479
-0.848863
-1.09729
-1.37439
-1.67235
-1.9907
-2.32346
-2.17833
-1.8501
-1.53375
-1.23812
-0.964095
-0.719601
-0.507161
-0.32722
-0.178046
-0.0586619
0.0344602
0.105217
0.157368
0.194219
0.217927
0.230692
0.234278
0.230305
0.217349
0.200619
0.177347
0.143358
0.0955294
0.0296847
-0.05516
-0.160891
-0.292182
-0.452829
-0.645958
-0.871939
-1.12959
-1.41693
-1.72966
-2.06514
-2.41692
-2.31721
-1.9738
-1.64438
-1.33608
-1.05095
-0.795578
-0.572548
-0.382375
-0.222965
-0.0934074
0.00949458
0.0883963
0.147884
0.190828
0.220289
0.239168
0.249225
0.251686
0.246862
0.233218
0.209312
0.174708
0.126624
0.0621745
-0.0221137
-0.129594
-0.265377
-0.432127
-0.632029
-0.866985
-1.13704
-1.44007
-1.77097
-2.12373
-2.4921
-2.42241
-2.0632
-1.71984
-1.39884
-1.10375
-0.837441
-0.604882
-0.406754
-0.238747
-0.101575
0.00902939
0.0957038
0.15958
0.207191
0.240866
0.263751
0.277691
0.282933
0.279792
0.268647
0.248117
0.215916
0.169431
0.105299
0.019894
-0.0914683
-0.232536
-0.406484
-0.616314
-0.863383
-1.14757
-1.46569
-1.81227
-2.18157
-2.56577
-2.49601
-2.12137
-1.76188
-1.42492
-1.11661
-0.840989
-0.599854
-0.393797
-0.22145
-0.078431
0.0351124
0.123227
0.191083
0.240748
0.276772
0.300613
0.314545
0.320329
0.318639
0.308229
0.287845
0.255395
0.208002
0.141956
0.0530967
-0.0630499
-0.210168
-0.392142
-0.611543
-0.869525
-1.16585
-1.49723
-1.85904
-2.24441
-2.6446
-2.55837
-2.16829
-1.79298
-1.44079
-1.11762
-0.829639
-0.579058
-0.365086
-0.187272
-0.0422765
0.0734113
0.16287
0.230617
0.280628
0.31609
0.339638
0.353376
0.358649
0.355512
0.343573
0.321389
0.286764
0.23664
0.167225
0.0739364
-0.0473507
-0.20071
-0.390244
-0.61862
-0.886806
-1.19445
-1.53908
-1.91536
-2.31634
-2.73253
-2.62086
-2.21543
-1.82534
-1.45893
-1.12324
-0.823037
-0.562049
-0.340041
-0.155719
-0.00652536
0.111397
0.202678
0.271423
0.321543
0.356499
0.379367
0.392173
0.396031
0.39133
0.37745
0.352992
0.315612
0.262188
0.188879
0.0913337
-0.034917
-0.194482
-0.391396
-0.62853
-0.907182
-1.2267
-1.58437
-1.97516
-2.39153
-2.82396
-2.68988
-2.26966
-1.86445
-1.48415
-1.13587
-0.824718
-0.553245
-0.322795
-0.131613
0.0227095
0.14453
0.238029
0.308192
0.35942
0.394971
0.417911
0.430301
0.433618
0.428156
0.413256
0.387498
0.348434
0.292844
0.216692
0.115449
-0.0156064
-0.181211
-0.385463
-0.631331
-0.920503
-1.25264
-1.62418
-2.02979
-2.46204
-2.91115
-2.77072
-2.33452
-1.91469
-1.52039
-1.1592
-0.836768
-0.555522
-0.316695
-0.118599
0.0411822
0.167553
0.264818
0.337664
0.390619
0.427525
0.451313
0.464287
0.467672
0.462087
0.446865
0.420329
0.380026
0.322654
0.244019
0.139312
0.00358945
-0.167944
-0.379669
-0.634759
-0.934769
-1.27883
-1.66404
-2.08425
-2.53204
-2.99771
-2.85718
-2.40551
-1.97173
-1.56356
-1.19
-0.856239
-0.565227
-0.318014
-0.112842
0.0532709
0.184411
0.285577
0.361345
0.416384
0.454901
0.480018
0.493815
0.497839
0.49236
0.47691
0.449673
0.408165
0.348797
0.267397
0.158995
0.0184892
-0.159068
-0.378328
-0.642581
-0.95331
-1.3097
-1.70871
-2.1447
-2.60824
-3.09055
-2.94704
-2.48087
-2.0322
-1.61017
-1.22407
-0.878966
-0.578291
-0.322556
-0.110322
0.0619211
0.198084
0.303164
0.382023
0.439324
0.479283
0.505192
0.519609
0.523913
0.518367
0.502238
0.473926
0.430966
0.369595
0.285473
0.173422
0.0282195
-0.155411
-0.382266
-0.655487
-0.976747
-1.34555
-1.75781
-2.20821
-2.6875
-3.18574
-3.03487
-2.55368
-2.09014
-1.65497
-1.25607
-0.900022
-0.589584
-0.325261
-0.105985
0.0719061
0.212705
0.321225
0.402951
0.462363
0.503792
0.530509
0.545367
0.549608
0.543663
0.526858
0.497529
0.45292
0.389299
0.30206
0.186125
0.0360839
-0.153618
-0.38774
-0.669592
-1.00092
-1.38103
-1.80663
-2.2707
-2.76588
-3.28007
-3.11892
-2.62221
-2.14453
-1.69587
-1.28478
-0.917566
-0.597309
-0.324746
-0.098509
0.0850528
0.230163
0.342082
0.426116
0.487245
0.529859
0.557467
0.572523
0.576661
0.570301
0.552766
0.522421
0.476306
0.410605
0.320581
0.201023
0.0461701
-0.149577
-0.391038
-0.681746
-1.02347
-1.41538
-1.85445
-2.33389
-2.84442
-3.37448
-3.2029
-2.691
-2.19794
-1.73522
-1.3115
-0.93287
-0.602833
-0.322026
-0.088999
0.0997688
0.248985
0.363905
0.450251
0.513142
0.55677
0.585171
0.600381
0.604396
0.597686
0.579486
0.547807
0.499896
0.431985
0.339143
0.216073
0.0565081
-0.145199
-0.394097
-0.69396
-1.0465
-1.45083
-1.90327
-2.39744
-2.92386
-3.47025
-3.28412
-2.75783
-2.2501
-1.77345
-1.33689
-0.946876
-0.606944
-0.317837
-0.0779593
0.116009
0.26936
0.387241
0.475481
0.539818
0.584407
0.61315
0.62872
0.632448
0.625154
0.60617
0.573538
0.524257
0.454079
0.357927
0.231111
0.0667128
-0.140958
-0.39712
-0.705648
-1.06844
-1.4848
-1.9508
-2.45956
-3.00155
-3.56495
-3.36638
-2.82379
-2.30132
-1.81071
-1.36133
-0.959712
-0.609819
-0.312248
-0.06538
0.134277
0.291881
0.41285
0.503082
0.568378
0.613693
0.64268
0.658413
0.662255
0.65446
0.634474
0.600831
0.550063
0.478178
0.380007
0.249504
0.0804213
-0.133205
-0.396829
-0.714459
-1.08791
-1.51648
-1.99616
-2.51982
-3.07767
-3.65771
-3.44888
-2.89051
-2.35323
-1.84871
-1.3868
-0.973818
-0.614005
-0.308249
-0.0546033
0.14989
0.311609
0.436224
0.529557
0.597023
0.643495
0.673247
0.689272
0.693306
0.685742
0.66551
0.630772
0.578429
0.504386
0.403342
0.268925
0.095161
-0.12468
-0.396039
-0.723084
-1.1075
-1.54833
-2.04186
-2.58053
-3.15394
-3.75012
-3.53528
-2.96209
-2.40962
-1.89025
-1.41532
-0.99096
-0.621236
-0.307381
-0.0470785
0.163039
0.328837
0.456575
0.55198
0.621303
0.66937
0.700169
0.716761
0.720857
0.713183
0.692614
0.657191
0.60368
0.527701
0.423837
0.285471
0.106803
-0.119193
-0.398117
-0.734109
-1.12893
-1.58186
-2.08885
-2.64248
-3.23182
-3.84387
-3.63087
-3.04258
-2.47552
-1.94314
-1.45514
-1.01929
-0.639612
-0.317288
-0.0500118
0.166221
0.337052
0.468632
0.567323
0.638967
0.688838
0.720982
0.738428
0.743112
0.735494
0.714773
0.678757
0.624113
0.546273
0.439634
0.297806
0.114429
-0.117422
-0.403476
-0.74798
-1.15292
-1.6176
-2.13776
-2.70563
-3.31071
-3.93929
-3.73224
-3.1285
-2.54796
-2.00244
-1.5026
-1.05648
-0.666478
-0.33529
-0.0602249
0.162929
0.339391
0.475582
0.57791
0.652633
0.705016
0.739251
0.758507
0.764611
0.757839
0.737503
0.701426
0.646166
0.567004
0.458229
0.313322
0.125379
-0.112318
-0.405502
-0.758718
-1.17403
-1.65058
-2.18416
-2.76644
-3.38673
-4.03124
-3.83451
-3.21566
-2.61954
-2.05965
-1.54705
-1.08931
-0.689684
-0.349752
-0.0673374
0.162541
0.344382
0.484942
0.591069
0.668751
0.723298
0.759363
0.780153
0.787138
0.78105
0.761109
0.72508
0.669365
0.589146
0.478499
0.330494
0.137912
-0.105843
-0.406788
-0.769501
-1.19608
-1.68518
-2.23254
-2.83026
-3.4665
-4.12753
-3.93136
-3.2971
-2.68671
-2.11381
-1.58909
-1.11996
-0.710866
-0.362752
-0.0734497
0.162391
0.348872
0.493368
0.602693
0.682843
0.739505
0.777298
0.799251
0.807148
0.801616
0.78185
0.745571
0.689066
0.607413
0.494499
0.342988
0.145627
-0.104148
-0.412632
-0.784358
-1.22139
-1.72269
-2.28398
-2.89671
-3.54865
-4.22593
-4.03197
-3.38336
-2.7588
-2.17232
-1.63553
-1.1552
-0.736631
-0.380282
-0.0841938
0.157484
0.348463
0.497939
0.61171
0.69548
0.755198
0.795511
0.81911
0.827909
0.822464
0.802292
0.765266
0.707428
0.623654
0.507678
0.352173
0.149942
-0.105898
-0.421816
-0.802262
-1.24977
-1.76328
-2.3379
-2.96554
-3.63367
-4.3274
-4.12996
-3.46527
-2.82582
-2.22588
-1.67625
-1.18486
-0.756549
-0.391537
-0.0886532
0.158391
0.358168
0.513082
0.629983
0.715098
0.775084
0.815676
0.838911
0.847542
0.842741
0.822364
0.783929
0.72499
0.640194
0.521381
0.361912
0.154752
-0.1071
-0.430416
-0.819986
-1.27798
-1.80306
-2.39103
-3.03276
-3.71603
-4.42608
-4.21082
-3.53061
-2.87783
-2.26504
-1.70387
-1.20281
-0.765689
-0.392339
-0.0817763
0.17262
0.373927
0.529981
0.650019
0.737518
0.799732
0.841132
0.864963
0.874421
0.870225
0.850685
0.813604
0.753028
0.66461
0.542909
0.380265
0.168222
-0.0997926
-0.430964
-0.829154
-1.29744
-1.8347
-2.43607
-3.09241
-3.7915
-4.51792
-4.27351
-3.57843
-2.90936
-2.28196
-1.70856
-1.19569
-0.74877
-0.367511
-0.0500514
0.207487
0.41203
0.570478
0.688867
0.776201
0.838037
0.878169
0.902138
0.909967
0.902112
0.878654
0.837221
0.774
0.683613
0.559593
0.392979
0.176468
-0.0973517
-0.435819
-0.844209
-1.32425
-1.87444
-2.49035
-3.16312
-3.87918
-4.6219
-4.26866
-3.55813
-2.87354
-2.22929
-1.64028
-1.119
-0.663701
-0.276583
0.0432828
0.299955
0.499964
0.650765
0.763235
0.844381
0.900235
0.934269
0.949707
0.950468
0.936919
0.906881
0.859003
0.788956
0.690202
0.558934
0.386719
0.164825
-0.115669
-0.462456
-0.879557
-1.36948
-1.93119
-2.55973
-3.2457
-3.97633
-4.73511
-4.30609
-3.57945
-2.87628
-2.21575
-1.61174
-1.07394
-0.605508
-0.211247
0.104213
0.362949
0.567675
0.723468
0.83775
0.913765
0.959279
0.987452
1.00154
0.997139
0.975217
0.941008
0.887074
0.810296
0.705656
0.565714
0.387282
0.15953
-0.126983
-0.480307
-0.905078
-1.40398
-1.97604
-2.61671
-3.31666
-4.06216
-4.83762
-4.43625
-3.69467
-2.97729
-2.30331
-1.68562
-1.13534
-0.659159
-0.255133
0.0754282
0.336331
0.541421
0.697484
0.814239
0.900209
0.960295
0.99747
1.01503
1.01772
1.00575
0.975773
0.925177
0.852167
0.750929
0.614475
0.434973
0.202481
-0.0914755
-0.451499
-0.88462
-1.39425
-1.97942
-2.63543
-3.35197
-4.1149
-4.90681
-4.6325
-3.87784
-3.15202
-2.47114
-1.84608
-1.28423
-0.794246
-0.377839
-0.0278234
0.256438
0.483642
0.659785
0.792579
0.890744
0.960746
1.00727
1.03479
1.04576
1.04017
1.01799
0.976669
0.911484
0.816964
0.684411
0.506023
0.271057
-0.0269408
-0.394184
-0.837249
-1.35935
-1.95831
-2.6279
-3.35891
-4.13745
-4.94519
-4.77249
-4.00238
-3.26277
-2.56803
-1.93116
-1.35959
-0.860872
-0.435858
-0.0774746
0.218919
0.454541
0.6391
0.779597
0.884999
0.961412
1.01386
1.04683
1.06301
1.06301
1.04567
1.00675
0.942077
0.846807
0.714331
0.533549
0.293966
-0.00957017
-0.384525
-0.836551
-1.36923
-1.98004
-2.66381
-3.40968
-4.20246
-5.02521
-4.86981
-4.08304
-3.3271
-2.61881
-1.9707
-1.39097
-0.884346
-0.45143
-0.0905742
0.206995
0.445489
0.630985
0.772262
0.878563
0.95524
1.00732
1.04038
1.05619
1.05289
1.03156
0.991073
0.925095
0.8283
0.689279
0.501799
0.257628
-0.052401
-0.435163
-0.894876
-1.43719
-2.05911
-2.75482
-3.51498
-4.32397
-5.16506
-4.93368
-4.13041
-3.36027
-2.63787
-1.97512
-1.38302
-0.866895
-0.427271
-0.0609006
0.237759
0.476597
0.663501
0.805022
0.906131
0.976267
1.0223
1.04741
1.05465
1.04443
1.01519
0.964979
0.889064
0.781139
0.633719
0.438729
0.187775
-0.12859
-0.517968
-0.986094
-1.53674
-2.16883
-2.87563
-3.64686
-4.46966
-5.32583
-4.97035
-4.15239
-3.36592
-2.62805
-1.95262
-1.34978
-0.823044
-0.376411
-0.00461554
0.29608
0.533661
0.716367
0.85319
0.952118
1.01979
1.06175
1.08389
1.08632
1.07189
1.0393
0.983836
0.901439
0.786468
0.632572
0.433601
0.177625
-0.145007
-0.542058
-1.02031
-1.58124
-2.22463
-2.94529
-3.73201
-4.57053
-5.44355
-4.99484
-4.16215
-3.36011
-2.60593
-1.91642
-1.30235
-0.765603
-0.310454
0.0634939
0.366277
0.605488
0.788181
0.923904
1.0201
1.08635
1.12751
1.14549
1.14616
1.12848
1.09171
1.03364
0.948996
0.832565
0.676877
0.473887
0.214248
-0.112928
-0.515871
-1.00167
-1.57253
-2.22791
-2.96059
-3.76119
-4.61569
-5.50526
-5.00121
-4.15112
-3.33216
-2.56226
-1.85751
-1.2302
-0.685345
-0.223449
0.152175
0.45364
0.688403
0.869973
1.00406
1.09882
1.16179
1.19974
1.21738
1.21633
1.19782
1.16046
1.10085
1.01496
0.896865
0.738182
0.53216
0.267054
-0.0664188
-0.4761
-0.971117
-1.55222
-2.21855
-2.966
-3.78367
-4.65514
-5.56239
-5.07188
-4.20867
-3.37322
-2.58913
-1.87137
-1.23154
-0.676153
-0.204941
0.180573
0.493348
0.739958
0.923289
1.05927
1.15757
1.22497
1.26704
1.28866
1.29257
1.27902
1.24707
1.19339
1.11275
0.99859
0.843964
0.637389
0.369921
0.0329101
-0.383611
-0.887041
-1.47766
-2.15735
-2.92157
-3.7556
-4.64246
-5.56437
-5.21238
-4.33416
-3.48715
-2.6915
-1.96158
-1.30931
-0.742809
-0.26107
0.139705
0.463598
0.720277
0.920153
1.07093
1.18212
1.26081
1.31321
1.34492
1.35846
1.35502
1.33382
1.28904
1.21437
1.10425
0.953686
0.748643
0.479714
0.136402
-0.285224
-0.796869
-1.40372
-2.10213
-2.88312
-3.7358
-4.64474
-5.58428
-5.36265
-4.47131
-3.61168
-2.80498
-2.06523
-1.4028
-0.825242
-0.332693
0.08064
0.417186
0.685807
0.894147
1.05358
1.17222
1.25749
1.31642
1.35143
1.36624
1.36133
1.33568
1.28841
1.21601
1.11018
0.958233
0.749174
0.475365
0.12555
-0.31144
-0.834476
-1.44881
-2.15754
-2.9524
-3.81875
-4.7403
-5.69379
-5.48338
-4.57392
-3.69861
-2.87786
-2.12557
-1.45296
-0.866202
-0.366391
0.0513535
0.39241
0.663308
0.872436
1.03051
1.14665
1.22858
1.28252
1.31357
1.32414
1.31535
1.28608
1.233
1.1512
1.03328
0.870181
0.653954
0.368963
0.00785514
-0.438795
-0.980518
-1.61403
-2.33692
-3.14268
-4.02003
-4.95444
-5.92549
-5.58163
-4.65664
-3.76665
-2.9317
-2.1665
-1.48255
-0.886112
-0.378872
0.043193
0.385222
0.655265
0.863921
1.02021
1.13391
1.21257
1.26166
1.28686
1.29054
1.27388
1.23756
1.17726
1.08669
0.958739
0.787128
0.562277
0.269369
-0.0981941
-0.552706
-1.09968
-1.73704
-2.46501
-3.27849
-4.16518
-5.11064
-6.0955
-5.68197
-4.74236
-3.83901
-2.98956
-2.21247
-1.51758
-0.910923
-0.395303
0.0328207
0.380479
0.65531
0.867649
1.02748
1.14199
1.22166
1.27387
1.30221
1.30984
1.29728
1.26173
1.19824
1.10347
0.972488
0.796614
0.565607
0.269212
-0.103346
-0.562738
-1.11456
-1.76058
-2.50007
-3.32644
-4.23054
-5.19556
-6.19978
-5.78746
-4.83275
-3.91463
-3.05391
-2.26489
-1.55873
-0.943143
-0.418654
0.0171012
0.374992
0.658774
0.876952
1.04278
1.16615
1.25165
1.30716
1.33856
1.34849
1.33799
1.30599
1.24872
1.16069
1.03476
0.861595
0.630237
0.331398
-0.0463749
-0.511082
-1.0694
-1.72541
-2.4785
-3.3225
-4.24427
-5.22557
-6.24571
-5.87264
-4.90161
-3.96899
-3.0932
-2.29135
-1.57524
-0.949863
-0.416777
0.026801
0.38779
0.677185
0.909144
1.07918
1.20269
1.29148
1.35277
1.38924
1.40401
1.39785
1.36943
1.31558
1.23091
1.10729
0.935139
0.703882
0.402512
0.0202994
-0.451517
-1.02055
-1.68925
-2.45707
-3.31652
-4.25489
-5.25395
-6.29101
-5.92072
-4.93497
-3.98763
-3.09953
-2.2859
-1.55898
-0.923822
-0.383983
0.0669293
0.436573
0.731415
0.958475
1.13087
1.25837
1.34917
1.41009
1.44602
1.46012
1.453
1.4236
1.36835
1.2817
1.15555
0.980527
0.745323
0.438528
0.0504766
-0.428747
-1.00669
-1.68682
-2.46692
-3.34059
-4.29239
-5.30617
-6.35837
-5.94984
-4.9484
-3.98711
-3.0871
-2.26059
-1.52525
-0.88085
-0.333736
0.123099
0.495155
0.788311
1.01431
1.18494
1.31011
1.3976
1.45489
1.48687
1.49651
1.48484
1.45053
1.38991
1.29774
1.16564
0.985016
0.743987
0.431936
0.0369908
-0.45133
-1.03704
-1.72663
-2.51753
-3.4017
-4.36888
-5.39863
-6.46844
-5.96941
-4.95222
-3.97424
-3.05885
-2.21962
-1.47047
-0.816171
-0.261049
0.198258
0.571232
0.865576
1.09199
1.26113
1.38277
1.46592
1.51838
1.54511
1.5491
1.53134
1.49036
1.42261
1.32327
1.18307
0.994837
0.747281
0.428574
0.0275607
-0.466099
-1.05962
-1.75548
-2.55538
-3.45178
-4.42716
-5.46869
-6.55355
-5.8728
-4.8412
-3.84447
-2.90744
-2.05627
-1.29558
-0.634714
-0.0780846
0.378143
0.74265
1.0273
1.24363
1.40194
1.512
1.58303
1.62467
1.64232
1.63881
1.61512
1.56911
1.49734
1.39206
1.24915
1.05742
0.805961
0.481092
0.0732738
-0.427985
-1.03091
-1.73882
-2.54954
-3.45687
-4.44813
-5.50732
-6.61077
-5.91108
-4.86774
-3.85877
-2.91383
-2.04861
-1.27459
-0.608366
-0.051514
0.414994
0.789451
1.08293
1.30705
1.47305
1.59098
1.67012
1.71693
1.73521
1.73049
1.70271
1.653
1.57847
1.47406
1.32964
1.1345
0.881732
0.55434
0.142052
-0.365571
-0.976264
-1.69456
-2.51963
-3.44407
-4.45694
-5.53381
-6.65216
-6.09504
-5.03453
-4.01091
-3.04575
-2.16088
-1.37528
-0.692702
-0.115216
0.357666
0.740608
1.04129
1.27327
1.44599
1.57192
1.65867
1.71626
1.74955
1.7603
1.74945
1.71477
1.65339
1.55893
1.42297
1.23578
0.98176
0.65387
0.238886
-0.273487
-0.890036
-1.61723
-2.45622
-3.39866
-4.42837
-5.52187
-6.65657
-6.38859
-5.31311
-4.28018
-3.30735
-2.41271
-1.61067
-0.911021
-0.308211
0.195844
0.615973
0.946508
1.20075
1.39652
1.53989
1.64321
1.71529
1.7595
1.78012
1.7778
1.7515
1.69597
1.60567
1.47321
1.28905
1.03679
0.705004
0.281016
-0.243004
-0.87478
-1.6179
-2.46892
-3.42281
-4.46603
-5.57675
-6.72413
-6.55407
-5.46492
-4.41824
-3.43486
-2.52866
-1.7183
-1.01085
-0.401618
0.112119
0.525285
0.857835
1.12673
1.33216
1.48301
1.59177
1.66763
1.71392
1.73599
1.73319
1.70461
1.64725
1.55447
1.41778
1.22692
0.970678
0.633366
0.202983
-0.328942
-0.973752
-1.73167
-2.60164
-3.57263
-4.62836
-5.75418
-6.92114
-6.60292
-5.49397
-4.43063
-3.43451
-2.52002
-1.70183
-0.98509
-0.375333
0.134119
0.558931
0.892114
1.14634
1.3391
1.4809
1.58057
1.64616
1.68335
1.69539
1.68388
1.64764
1.58131
1.47839
1.32996
1.12565
0.855433
0.506174
0.0668559
-0.477416
-1.13241
-1.89616
-2.7699
-3.74711
-4.8127
-5.94869
-7.12949
-6.63276
-5.50925
-4.42833
-3.41256
-2.48273
-1.65437
-0.930594
-0.314646
0.196711
0.611346
0.940932
1.19621
1.38812
1.52785
1.62514
1.68827
1.72229
1.73087
1.71519
1.67379
1.60292
1.4962
1.34476
1.13752
0.861712
0.505997
0.0607053
-0.488278
-1.1489
-1.92325
-2.8085
-3.79806
-4.8777
-6.02917
-7.22888
-6.67844
-5.53891
-4.44148
-3.41084
-2.46714
-1.62405
-0.889998
-0.266096
0.250345
0.668742
0.999711
1.25425
1.44486
1.58334
1.67961
1.74143
1.77496
1.78344
1.76779
1.72666
1.65583
1.54884
1.39686
1.18922
0.913873
0.558328
0.108923
-0.444581
-1.11036
-1.89275
-2.7905
-3.7958
-4.89361
-6.06355
-7.28049
-6.74683
-5.59264
-4.48139
-3.43815
-2.48295
-1.62888
-0.88519
-0.252723
0.27177
0.696811
1.03303
1.29193
1.48614
1.62744
1.72579
1.78949
1.82461
1.83454
1.82026
1.78013
1.71012
1.60362
1.45172
1.24341
0.966174
0.606899
0.152305
-0.408276
-1.08397
-1.87858
-2.7906
-3.81141
-4.92588
-6.11218
-7.3447
-6.82192
-5.65292
-4.52756
-3.47078
-2.50285
-1.63745
-0.883926
-0.242596
0.290205
0.72161
1.06253
1.32566
1.52339
1.66726
1.76768
1.83286
1.86887
1.8793
1.86525
1.8249
1.75432
1.64676
1.49316
1.2823
1.00143
0.637156
0.176663
-0.391859
-1.07691
-1.88225
-2.8063
-3.84059
-4.96972
-6.17212
-7.4202
-6.88493
-5.70103
-4.56141
-3.49008
-2.51073
-1.63444
-0.870843
-0.221532
0.317531
0.754021
1.09887
1.36463
1.56417
1.70903
1.81006
1.87551
1.91143
1.92122
1.9063
1.8648
1.79258
1.68292
1.5267
1.31261
1.02766
0.658452
0.191745
-0.384294
-1.07846
-1.89447
-2.83039
-3.87796
-5.02173
-6.24038
-7.50571
-6.94187
-5.74245
-4.58623
-3.50059
-2.50784
-1.62072
-0.847671
-0.192114
0.351742
0.791521
1.13838
1.4056
1.60593
1.75105
1.85151
1.91618
1.95133
1.96017
1.94374
1.90076
1.82634
1.71403
1.55453
1.33686
1.0478
0.673645
0.200708
-0.382886
-1.08572
-1.9119
-2.85966
-3.92051
-5.07885
-6.31235
-7.5935
-7.01839
-5.8039
-4.63325
-3.53435
-2.52764
-1.62911
-0.846451
-0.183172
0.36735
0.813198
1.16492
1.43526
1.63711
1.78388
1.88588
1.95108
1.98597
1.99466
1.97763
1.93334
1.85775
1.7438
1.58168
1.36015
1.06679
0.687785
0.208881
-0.381961
-1.09357
-1.93019
-2.88995
-3.96426
-5.13736
-6.38672
-7.68367
-7.11093
-5.88088
-4.69579
-3.58316
-2.564
-1.65382
-0.861
-0.187978
0.370032
0.822218
1.17945
1.45429
1.65996
1.80907
1.91269
1.97935
2.01533
2.02457
2.00808
1.96399
1.88803
1.77318
1.61007
1.38725
1.09109
0.707521
0.222631
-0.375756
-1.09655
-1.94383
-2.91591
-4.00398
-5.19212
-6.45715
-7.77122
-7.20098
-5.95564
-4.75593
-3.62965
-2.59811
-1.6767
-0.873931
-0.192108
0.373228
0.831228
1.19296
1.47194
1.68116
1.83293
1.93835
2.00659
2.04383
2.05377
2.03757
1.99388
1.91785
1.80252
1.63818
1.4129
1.11336
0.725237
0.234514
-0.371047
-1.10051
-1.95815
-2.94219
-4.04368
-5.2463
-6.52685
-7.85761
-7.30204
-6.0406
-4.82659
-3.68596
-2.64174
-1.70918
-0.896192
-0.204607
0.369138
0.834074
1.20169
1.48527
1.6982
1.85333
1.96157
2.03198
2.07128
2.08285
2.06782
2.02445
1.94847
1.83252
1.66691
1.43955
1.13678
0.744049
0.247393
-0.365611
-1.10414
-1.97247
-2.96872
-4.08369
-5.30095
-6.59715
-7.94367
-7.41706
-6.14086
-4.91253
-3.76087
-2.70422
-1.75966
-0.936132
-0.233335
0.349837
0.822953
1.1997
1.49126
1.71039
1.87106
1.98396
2.05826
2.09895
2.11163
2.09763
2.05498
1.97921
1.86273
1.69567
1.46588
1.1596
0.762111
0.259412
-0.36121
-1.10895
-1.98794
-2.99628
-4.12485
-5.35705
-6.66888
-8.03129
-7.51754
-6.22605
-4.98794
-3.822
-2.75433
-1.79784
-0.963833
-0.249194
0.344926
0.827102
1.20853
1.50313
1.72566
1.88871
2.00322
2.07833
2.12207
2.13709
2.12508
2.0839
2.00757
1.89023
1.72166
1.48954
1.17984
0.777673
0.269073
-0.358976
-1.11557
-2.00494
-3.02529
-4.16724
-5.41394
-6.74207
-8.12145
-7.58052
-6.27352
-5.01643
-3.83763
-2.7582
-1.79044
-0.947133
-0.228458
0.370835
0.856983
1.24262
1.54126
1.76611
1.93055
2.04608
2.12201
2.16491
2.17913
2.16491
2.12063
2.04343
1.92442
1.75366
1.51857
1.20491
0.797853
0.283111
-0.352373
-1.11798
-2.01792
-3.05043
-4.20635
-5.46826
-6.81225
-8.20758
-7.57819
-6.25622
-4.98207
-3.78686
-2.69434
-1.71713
-0.865753
-0.14247
0.457678
0.942419
1.32486
1.61897
1.83936
1.99937
2.11035
2.18158
2.22015
2.22966
2.21155
2.16402
2.0817
1.95793
1.7824
1.54251
1.22398
0.81184
0.290792
-0.352444
-1.12706
-2.0378
-3.08237
-4.25104
-5.5274
-6.88636
-8.29815
-7.62229
-6.28665
-4.99737
-3.78782
-2.6805
-1.69338
-0.838181
-0.11107
0.49326
0.981976
1.36732
1.66351
1.88458
2.04293
2.15252
2.22227
2.25838
2.26655
2.24722
2.19782
2.11365
1.98706
1.80772
1.56374
1.241
0.82402
0.296998
-0.353408
-1.13685
-2.05765
-3.11429
-4.29692
-5.58782
-6.9627
-8.39126
-7.73371
-6.38155
-5.07722
-3.85254
-2.73206
-1.7321
-0.86195
-0.125278
0.484727
0.977492
1.36564
1.66454
1.88931
2.05278
2.16595
2.23866
2.27793
2.28721
2.26731
2.21819
2.13467
2.00846
1.82916
1.58409
1.25827
0.836469
0.30339
-0.354322
-1.14641
-2.07759
-3.14558
-4.34146
-5.64736
-7.03812
-8.48302
-7.86022
-6.49256
-5.17744
-3.94107
-2.80828
-1.79623
-0.913438
-0.162752
0.460231
0.964968
1.36391
1.67137
1.90177
2.06916
2.1855
2.26072
2.30199
2.31329
2.29573
2.24751
2.16386
2.03697
1.85627
1.60873
1.27967
0.853381
0.3144
-0.350619
-1.15176
-2.09384
-3.17445
-4.38405
-5.70428
-7.11004
-8.56992
-7.95432
-6.57216
-5.24158
-3.99076
-2.8455
-1.8222
-0.929449
-0.16987
0.460773
0.971731
1.37565
1.68734
1.92119
2.09112
2.20961
2.2865
2.32884
2.34084
2.32369
2.27553
2.19145
2.06356
1.88116
1.63117
1.29857
0.867598
0.322709
-0.349746
-1.15989
-2.11235
-3.20494
-4.42759
-5.76289
-7.18512
-8.66244
-8.03711
-6.63854
-5.29163
-4.02716
-2.86931
-1.83513
-0.933376
-0.166434
0.470258
0.986139
1.39421
1.70881
1.94498
2.11687
2.23686
2.31472
2.35753
2.36974
2.35256
2.30403
2.21922
2.09011
1.90587
1.65324
1.31702
0.881285
0.330343
-0.349592
-1.16871
-2.13169
-3.23668
-4.47352
-5.82385
-7.26179
-8.75513
-8.12364
-6.70974
-5.34914
-4.07151
-2.9007
-1.85504
-0.943597
-0.168311