/*--------------------------------*- C++ -*----------------------------------*\
  =========                 |
  \\      /  F ield         | OpenFOAM: The Open Source CFD Toolbox
   \\    /   O peration     | Website:  https://openfoam.org
    \\  /    A nd           | Version:  13
     \\/     M anipulation  |
\*---------------------------------------------------------------------------*/
FoamFile
{
    format      ascii;
    class       volScalarField;
    location    "6";
    object      difft;
}
// * * * * * * * * * * * * * * * * * * * * * * * * * * * * * * * * * * * * * //

dimensions      [0 2 -1 0 0 0 0];

internalField   nonuniform List<scalar> 
78750
(
8.9583e-11
2.72613e-08
7.80502e-07
1.8615e-06
3.397e-06
4.59711e-06
5.60544e-06
7.19846e-06
7.86483e-06
7.86103e-06
7.48112e-06
7.69977e-06
8.32375e-06
8.21311e-06
7.96999e-06
7.66156e-06
7.32551e-06
6.98356e-06
6.63863e-06
6.28578e-06
5.93195e-06
5.57961e-06
5.23595e-06
4.89865e-06
4.57985e-06
4.27503e-06
4.00568e-06
3.73612e-06
3.50969e-06
3.35762e-06
3.00941e-06
2.28688e-06
2.08913e-06
4.32834e-07
3.00515e-09
8.65371e-10
2.22101e-07
6.68725e-06
1.3015e-05
1.34802e-05
1.20122e-05
1.09924e-05
1.24805e-05
2.37335e-05
6.70319e-05
7.83663e-05
6.65881e-05
5.29541e-05
4.31933e-05
3.86068e-05
3.69632e-05
3.68135e-05
3.7443e-05
3.85647e-05
4.01599e-05
4.20897e-05
4.42237e-05
4.6979e-05
5.27257e-05
6.53903e-05
7.50521e-05
7.35962e-05
4.42057e-05
2.54896e-05
1.52587e-05
1.04009e-05
7.82408e-06
6.15881e-06
8.59973e-07
4.76234e-09
1.80331e-09
4.64262e-07
1.44671e-05
1.30369e-05
1.12627e-05
1.00446e-05
1.06537e-05
1.36004e-05
2.3503e-05
5.38739e-05
7.88953e-05
7.81317e-05
7.76794e-05
7.74166e-05
7.54144e-05
7.44771e-05
7.43213e-05
7.45658e-05
7.51245e-05
7.61367e-05
7.65971e-05
7.62498e-05
7.57849e-05
7.53278e-05
7.51991e-05
7.56852e-05
5.40241e-05
3.05995e-05
1.59125e-05
1.02489e-05
7.10275e-06
5.42415e-06
5.40296e-06
9.67886e-07
4.70632e-09
1.93435e-09
4.98965e-07
1.51339e-05
1.27429e-05
9.99456e-06
9.33286e-06
9.99731e-06
1.18005e-05
1.75961e-05
3.42374e-05
6.65735e-05
7.68172e-05
7.54253e-05
7.42649e-05
7.34066e-05
7.28312e-05
7.24746e-05
7.22655e-05
7.21364e-05
7.20356e-05
7.19408e-05
7.18811e-05
7.19251e-05
7.23142e-05
7.34545e-05
5.76492e-05
3.87547e-05
2.39697e-05
1.48234e-05
1.005e-05
6.25236e-06
4.93575e-06
5.19583e-06
9.13123e-07
4.38551e-09
2.0705e-09
5.32398e-07
1.49597e-05
1.16071e-05
9.50353e-06
9.06876e-06
9.79001e-06
1.20417e-05
1.78028e-05
3.40423e-05
6.79814e-05
7.68358e-05
7.51799e-05
7.38571e-05
7.28806e-05
7.21992e-05
7.1749e-05
7.1459e-05
7.12664e-05
7.11306e-05
7.10515e-05
7.10611e-05
7.12654e-05
7.19758e-05
7.35118e-05
5.84448e-05
2.93722e-05
2.18539e-05
1.38527e-05
7.7041e-06
5.26559e-06
4.15875e-06
4.44581e-06
8.53373e-07
3.86733e-09
2.14564e-09
5.52482e-07
1.53697e-05
1.14804e-05
9.53102e-06
9.11904e-06
9.87033e-06
1.20197e-05
1.71111e-05
3.09247e-05
6.1218e-05
7.67608e-05
7.47491e-05
7.31092e-05
7.18743e-05
7.10006e-05
7.04064e-05
7.00119e-05
6.97667e-05
6.96517e-05
6.96611e-05
6.98698e-05
7.04686e-05
7.16496e-05
7.36471e-05
5.37849e-05
2.56855e-05
1.82782e-05
1.01303e-05
5.9013e-06
4.49171e-06
4.02793e-06
4.76598e-06
8.31415e-07
3.68553e-09
2.19892e-09
5.64806e-07
1.52454e-05
1.21544e-05
9.59903e-06
9.3228e-06
1.01159e-05
1.21649e-05
1.70075e-05
2.89698e-05
5.73217e-05
7.64817e-05
7.45689e-05
7.29201e-05
7.16514e-05
7.07447e-05
7.01315e-05
6.97349e-05
6.95051e-05
6.94291e-05
6.95081e-05
6.98674e-05
7.07097e-05
7.22562e-05
7.46829e-05
4.53354e-05
2.27426e-05
1.71631e-05
1.14779e-05
6.27411e-06
4.71166e-06
4.15445e-06
4.50366e-06
8.02391e-07
3.63392e-09
2.22685e-09
5.70248e-07
1.50403e-05
1.17422e-05
9.59312e-06
9.4506e-06
1.03934e-05
1.24593e-05
1.70034e-05
2.79413e-05
5.41838e-05
7.64745e-05
7.44751e-05
7.27445e-05
7.14114e-05
7.04521e-05
6.98066e-05
6.94006e-05
6.91798e-05
6.91385e-05
6.92814e-05
6.97496e-05
7.07177e-05
7.23807e-05
7.48956e-05
4.56212e-05
2.18214e-05
1.57655e-05
9.03495e-06
5.46753e-06
4.24021e-06
3.82176e-06
4.42788e-06
7.7631e-07
3.37329e-09
2.27287e-09
5.81535e-07
1.49493e-05
1.12215e-05
9.59437e-06
9.46693e-06
1.0594e-05
1.28278e-05
1.70776e-05
2.74066e-05
5.20733e-05
7.62452e-05
7.42653e-05
7.25336e-05
7.11844e-05
7.02053e-05
6.95397e-05
6.91246e-05
6.89131e-05
6.89003e-05
6.90967e-05
6.96474e-05
7.07258e-05
7.2524e-05
7.52056e-05
4.95281e-05
2.18827e-05
1.43293e-05
7.57649e-06
4.7575e-06
3.97234e-06
3.92061e-06
5.1018e-06
7.78503e-07
3.31222e-09
2.30705e-09
5.8897e-07
1.49471e-05
1.09545e-05
9.54741e-06
9.50472e-06
1.04083e-05
1.26673e-05
1.70513e-05
2.70771e-05
5.05875e-05
7.6306e-05
7.42639e-05
7.24887e-05
7.111e-05
7.01085e-05
6.94249e-05
6.90059e-05
6.88178e-05
6.88502e-05
6.91702e-05
6.98919e-05
7.11533e-05
7.3095e-05
7.58417e-05
4.81979e-05
2.04413e-05
1.27204e-05
6.84164e-06
4.60988e-06
4.06164e-06
4.21239e-06
5.14982e-06
7.7602e-07
3.31299e-09
2.32844e-09
5.94811e-07
1.50467e-05
1.13095e-05
9.49825e-06
9.41489e-06
1.05538e-05
1.30583e-05
1.7351e-05
2.68714e-05
4.8159e-05
7.62185e-05
7.42834e-05
7.25108e-05
7.11312e-05
7.01394e-05
6.94742e-05
6.90787e-05
6.89239e-05
6.90068e-05
6.93973e-05
7.02035e-05
7.15443e-05
7.35033e-05
7.61172e-05
4.39771e-05
1.84469e-05
9.65109e-06
6.13877e-06
4.62777e-06
4.08064e-06
4.0516e-06
5.5084e-06
7.93453e-07
3.37282e-09
2.3437e-09
5.99029e-07
1.50237e-05
1.15605e-05
9.56064e-06
9.86575e-06
1.09714e-05
1.31648e-05
1.72619e-05
2.72012e-05
4.76706e-05
7.68872e-05
7.44944e-05
7.25873e-05
7.11833e-05
7.02029e-05
6.95608e-05
6.91864e-05
6.90469e-05
6.91507e-05
6.95734e-05
7.04256e-05
7.18362e-05
7.39232e-05
7.68504e-05
4.16992e-05
1.81997e-05
1.12433e-05
6.20011e-06
4.43303e-06
4.22048e-06
4.55268e-06
5.74845e-06
8.10923e-07
3.44885e-09
2.35885e-09
6.03542e-07
1.5124e-05
1.15338e-05
9.57275e-06
9.63485e-06
1.08963e-05
1.4652e-05
1.92854e-05
2.82901e-05
4.82918e-05
7.74525e-05
7.48493e-05
7.28178e-05
7.13399e-05
7.03168e-05
6.96491e-05
6.92797e-05
6.91699e-05
6.93119e-05
6.97866e-05
7.06936e-05
7.21096e-05
7.40072e-05
7.61931e-05
3.75358e-05
1.48377e-05
8.47574e-06
5.75078e-06
4.49334e-06
4.31488e-06
4.51967e-06
5.88458e-06
8.19604e-07
3.45097e-09
2.36408e-09
6.04439e-07
1.4547e-05
1.13517e-05
9.64661e-06
9.48364e-06
1.04405e-05
1.26443e-05
1.7135e-05
2.61037e-05
4.5877e-05
7.6837e-05
7.46383e-05
7.27483e-05
7.13203e-05
7.0317e-05
6.96629e-05
6.92974e-05
6.91986e-05
6.93678e-05
6.98839e-05
7.08403e-05
7.23062e-05
7.42496e-05
7.64916e-05
3.78302e-05
1.47496e-05
8.17731e-06
5.61338e-06
4.56129e-06
4.11342e-06
4.46419e-06
6.63867e-06
8.2386e-07
3.47107e-09
2.37625e-09
6.07875e-07
1.51951e-05
1.19828e-05
9.47754e-06
9.21001e-06
1.05572e-05
1.32049e-05
1.71708e-05
2.61317e-05
4.50796e-05
7.65339e-05
7.45729e-05
7.27553e-05
7.13466e-05
7.03414e-05
6.96792e-05
6.93095e-05
6.92253e-05
6.94299e-05
6.99903e-05
7.09934e-05
7.25124e-05
7.45337e-05
7.6912e-05
3.6519e-05
1.54007e-05
7.73838e-06
5.35624e-06
4.64513e-06
4.43307e-06
4.6738e-06
6.3204e-06
8.22447e-07
3.48327e-09
2.37365e-09
6.06887e-07
1.48024e-05
1.18568e-05
9.63828e-06
9.57624e-06
1.09043e-05
1.33072e-05
1.77379e-05
2.6414e-05
4.57105e-05
7.69767e-05
7.4743e-05
7.28556e-05
7.14311e-05
7.0427e-05
6.97737e-05
6.94145e-05
6.93265e-05
6.95302e-05
7.01008e-05
7.11277e-05
7.26498e-05
7.45585e-05
7.64484e-05
3.46576e-05
1.36163e-05
7.51429e-06
5.36483e-06
4.58791e-06
4.38744e-06
4.6584e-06
6.13624e-06
8.24371e-07
3.48211e-09
2.37564e-09
6.06712e-07
1.48402e-05
1.0977e-05
9.41942e-06
9.51174e-06
1.07558e-05
1.36944e-05
1.84913e-05
2.69624e-05
4.56605e-05
7.71747e-05
7.49103e-05
7.29464e-05
7.14797e-05
7.04608e-05
6.98048e-05
6.94471e-05
6.93643e-05
6.95797e-05
7.01734e-05
7.12473e-05
7.2883e-05
7.50118e-05
7.72534e-05
3.41692e-05
1.40783e-05
7.99942e-06
5.50468e-06
4.45349e-06
4.37241e-06
4.82061e-06
6.42452e-06
8.24047e-07
3.48227e-09
2.37572e-09
6.06929e-07
1.46749e-05
1.15818e-05
9.49938e-06
9.65693e-06
1.06815e-05
1.26148e-05
1.74643e-05
2.68118e-05
4.53063e-05
7.68533e-05
7.47678e-05
7.28946e-05
7.14748e-05
7.04813e-05
6.98355e-05
6.94823e-05
6.94033e-05
6.96202e-05
7.02021e-05
7.12383e-05
7.27829e-05
7.47637e-05
7.55738e-05
3.29648e-05
1.35172e-05
7.52735e-06
5.55245e-06
4.68709e-06
4.4446e-06
4.81949e-06
6.36594e-06
8.20078e-07
3.49215e-09
2.40804e-09
6.16212e-07
1.4928e-05
1.16661e-05
9.58044e-06
9.4414e-06
1.06369e-05
1.27714e-05
1.68694e-05
2.58262e-05
4.49683e-05
7.65843e-05
7.46479e-05
7.28497e-05
7.14603e-05
7.04777e-05
6.98396e-05
6.94912e-05
6.9415e-05
6.96343e-05
7.02212e-05
7.12625e-05
7.28325e-05
7.48879e-05
7.67819e-05
3.43375e-05
1.35744e-05
7.60392e-06
5.41633e-06
4.63426e-06
4.45305e-06
4.66889e-06
6.32824e-06
8.30326e-07
3.50764e-09
2.40581e-09
6.14547e-07
1.4928e-05
1.14366e-05
9.57889e-06
9.58979e-06
1.06846e-05
1.30489e-05
1.73695e-05
2.74576e-05
4.60279e-05
7.73864e-05
7.4918e-05
7.29338e-05
7.14776e-05
7.04709e-05
6.98238e-05
6.94749e-05
6.94044e-05
6.96358e-05
7.02386e-05
7.12873e-05
7.28623e-05
7.49494e-05
7.66991e-05
3.27545e-05
1.3298e-05
7.31384e-06
5.31229e-06
4.62893e-06
4.66357e-06
4.94417e-06
6.30409e-06
8.26976e-07
3.4901e-09
2.39495e-09
6.10597e-07
1.47838e-05
1.12313e-05
9.59746e-06
9.5674e-06
1.05688e-05
1.30536e-05
1.72208e-05
2.63198e-05
4.55967e-05
7.72122e-05
7.48231e-05
7.28897e-05
7.14603e-05
7.04653e-05
6.98239e-05
6.94788e-05
6.94135e-05
6.96549e-05
7.02754e-05
7.13601e-05
7.29677e-05
7.50422e-05
7.39453e-05
3.24777e-05
1.30216e-05
7.40094e-06
5.42922e-06
4.69648e-06
4.57487e-06
4.80112e-06
6.2239e-06
8.25047e-07
3.5176e-09
2.40813e-09
6.14202e-07
1.44258e-05
1.08064e-05
9.574e-06
9.61374e-06
1.07729e-05
1.29963e-05
1.74214e-05
2.7332e-05
4.54675e-05
7.71258e-05
7.47002e-05
7.27801e-05
7.13779e-05
7.04076e-05
6.97847e-05
6.9449e-05
6.93814e-05
6.96209e-05
7.02504e-05
7.13617e-05
7.30105e-05
7.51668e-05
7.68071e-05
3.41155e-05
1.34591e-05
7.53148e-06
5.42609e-06
4.59731e-06
4.38479e-06
4.714e-06
6.42089e-06
8.46521e-07
3.57938e-09
2.43373e-09
6.1828e-07
1.49602e-05
1.16128e-05
9.42215e-06
9.55051e-06
1.06049e-05
1.26666e-05
1.779e-05
2.68519e-05
4.62349e-05
7.69212e-05
7.47691e-05
7.28813e-05
7.14588e-05
7.04635e-05
6.98303e-05
6.95009e-05
6.94513e-05
6.96883e-05
7.02883e-05
7.13451e-05
7.29547e-05
7.51677e-05
7.8103e-05
3.44862e-05
1.46946e-05
7.44306e-06
5.32524e-06
4.66595e-06
4.65883e-06
4.98599e-06
6.42997e-06
8.36856e-07
3.55059e-09
2.39902e-09
6.12669e-07
1.47296e-05
1.1028e-05
9.70441e-06
9.59438e-06
1.08369e-05
1.36946e-05
1.75893e-05
2.53089e-05
4.33011e-05
7.56904e-05
7.4799e-05
7.28968e-05
7.14626e-05
7.04688e-05
6.98451e-05
6.95216e-05
6.94877e-05
6.97605e-05
7.04118e-05
7.15262e-05
7.31816e-05
7.54101e-05
7.64895e-05
3.36317e-05
1.46313e-05
7.60109e-06
5.42849e-06
4.68365e-06
4.4977e-06
4.77738e-06
6.41796e-06
8.42429e-07
3.55032e-09
2.3898e-09
6.08328e-07
1.4524e-05
1.1034e-05
9.43883e-06
9.59591e-06
1.07434e-05
1.30399e-05
1.75238e-05
2.63725e-05
4.41801e-05
7.64985e-05
7.45429e-05
7.27573e-05
7.13929e-05
7.04391e-05
6.98315e-05
6.95242e-05
6.95042e-05
6.97877e-05
7.04416e-05
7.15447e-05
7.31255e-05
7.50505e-05
7.64148e-05
3.26501e-05
1.29668e-05
7.23771e-06
5.38102e-06
4.62725e-06
4.4527e-06
4.83832e-06
6.49219e-06
8.49188e-07
3.58812e-09
2.40719e-09
6.13273e-07
1.47573e-05
1.13725e-05
9.43523e-06
9.58429e-06
1.07969e-05
1.28889e-05
1.71536e-05
2.74832e-05
4.55574e-05
7.71361e-05
7.47195e-05
7.2798e-05
7.13991e-05
7.04401e-05
6.98339e-05
6.95328e-05
6.9509e-05
6.98055e-05
7.0492e-05
7.16695e-05
7.34075e-05
7.56362e-05
7.75948e-05
3.2414e-05
1.31633e-05
7.47048e-06
5.30539e-06
4.65089e-06
4.69823e-06
5.06613e-06
6.5357e-06
8.38476e-07
3.55974e-09
2.38573e-09
6.097e-07
1.47833e-05
1.15509e-05
9.58923e-06
9.65594e-06
1.07836e-05
1.32519e-05
1.79517e-05
2.70524e-05
4.55594e-05
7.69029e-05
7.45928e-05
7.27267e-05
7.13505e-05
7.04011e-05
6.9803e-05
6.9504e-05
6.9489e-05
6.97862e-05
7.0459e-05
7.15918e-05
7.32288e-05
7.52581e-05
7.59105e-05
3.1606e-05
1.24445e-05
7.02506e-06
5.41193e-06
4.81203e-06
4.63699e-06
4.87313e-06
6.4857e-06
8.45807e-07
3.56048e-09
2.40487e-09
6.13509e-07
1.41658e-05
1.10042e-05
9.57569e-06
9.50302e-06
1.09056e-05
1.39651e-05
1.85684e-05
2.65109e-05
4.32451e-05
7.53336e-05
7.46122e-05
7.27526e-05
7.13613e-05
7.03992e-05
6.97981e-05
6.95052e-05
6.95014e-05
6.98134e-05
7.05226e-05
7.17138e-05
7.34502e-05
7.56681e-05
7.6644e-05
3.23561e-05
1.32584e-05
7.48835e-06
5.44854e-06
4.70331e-06
4.48386e-06
4.89124e-06
6.61731e-06
8.45338e-07
3.58192e-09
2.41133e-09
6.15345e-07
1.52426e-05
1.08671e-05
9.26653e-06
9.7775e-06
1.10854e-05
1.37173e-05
1.83326e-05
2.63468e-05
4.37944e-05
7.63815e-05
7.46771e-05
7.27703e-05
7.13551e-05
7.03855e-05
6.9779e-05
6.94894e-05
6.94969e-05
6.98277e-05
7.054e-05
7.17188e-05
7.34352e-05
7.5721e-05
7.76706e-05
3.36202e-05
1.46992e-05
7.55899e-06
5.43296e-06
4.63791e-06
4.60144e-06
5.06557e-06
6.64483e-06
8.53627e-07
3.60895e-09
2.3962e-09
6.13586e-07
1.47757e-05
1.18366e-05
9.73046e-06
9.42127e-06
1.07499e-05
1.32203e-05
1.90129e-05
2.78521e-05
4.5443e-05
7.73389e-05
7.47588e-05
7.27556e-05
7.13261e-05
7.03664e-05
6.97828e-05
6.9501e-05
6.95114e-05
6.98395e-05
7.05489e-05
7.17261e-05
7.34513e-05
7.57537e-05
7.74881e-05
3.35444e-05
1.44126e-05
7.38255e-06
5.30875e-06
4.80714e-06
4.71291e-06
4.94253e-06
6.6593e-06
8.53271e-07
3.59251e-09
2.40931e-09
6.16568e-07
1.49446e-05
1.15649e-05
9.61837e-06
9.90578e-06
1.10131e-05
1.33872e-05
1.69939e-05
2.55921e-05
4.58217e-05
7.68993e-05
7.46524e-05
7.27531e-05
7.13471e-05
7.03823e-05
6.9778e-05
6.94882e-05
6.94934e-05
6.98158e-05
7.05137e-05
7.16579e-05
7.32778e-05
7.52476e-05
7.70013e-05
3.14224e-05
1.24041e-05
6.93094e-06
5.30746e-06
4.73606e-06
4.60891e-06
5.04013e-06
6.75206e-06
8.58204e-07
3.6153e-09
2.42644e-09
6.21467e-07
1.48121e-05
1.17792e-05
1.00381e-05
9.96469e-06
1.07479e-05
1.27668e-05
1.72264e-05
2.62734e-05
4.55112e-05
7.67086e-05
7.46911e-05
7.27691e-05
7.13511e-05
7.0383e-05
6.97842e-05
6.94952e-05
6.94974e-05
6.98223e-05
7.05362e-05
7.17221e-05
7.3436e-05
7.56286e-05
7.6175e-05
3.18445e-05
1.29939e-05
7.1658e-06
5.31759e-06
4.68335e-06
4.67199e-06
5.13046e-06
6.66554e-06
8.50592e-07
3.61531e-09
2.42535e-09
6.20092e-07
1.46802e-05
1.08344e-05
9.55476e-06
9.89393e-06
1.1514e-05
1.40462e-05
1.76938e-05
2.55381e-05
4.27493e-05
7.63165e-05
7.4643e-05
7.27499e-05
7.13296e-05
7.03506e-05
6.97401e-05
6.94414e-05
6.94316e-05
6.97453e-05
7.04492e-05
7.16181e-05
7.32871e-05
7.53323e-05
7.54531e-05
3.13693e-05
1.25448e-05
7.00682e-06
5.2489e-06
4.76468e-06
4.74806e-06
5.06795e-06
6.55822e-06
8.4995e-07
3.58246e-09
2.44073e-09
6.22918e-07
1.5013e-05
1.17241e-05
9.77696e-06
1.00556e-05
1.15779e-05
1.42699e-05
1.82432e-05
2.67647e-05
4.50123e-05
7.54666e-05
7.46719e-05
7.27775e-05
7.1362e-05
7.03968e-05
6.98067e-05
6.95308e-05
6.95508e-05
6.98838e-05
7.06012e-05
7.17861e-05
7.34995e-05
7.57108e-05
7.73412e-05
3.1997e-05
1.28988e-05
7.11051e-06
5.37403e-06
4.83183e-06
4.59521e-06
4.86957e-06
6.90875e-06
8.49628e-07
3.59211e-09
2.42814e-09
6.18759e-07
1.49157e-05
1.13867e-05
9.76481e-06
9.85396e-06
1.07425e-05
1.29848e-05
1.77982e-05
2.65561e-05
4.396e-05
7.64948e-05
7.44972e-05
7.26902e-05
7.13192e-05
7.03744e-05
6.97968e-05
6.9533e-05
6.95687e-05
6.99134e-05
7.06244e-05
7.17712e-05
7.33865e-05
7.53913e-05
7.72723e-05
3.2148e-05
1.23543e-05
6.91765e-06
5.24973e-06
4.70789e-06
4.74338e-06
5.14627e-06
6.50334e-06
8.51853e-07
3.6029e-09
2.42293e-09
6.16798e-07
1.45183e-05
1.1153e-05
9.60505e-06
9.38861e-06
1.13371e-05
1.36248e-05
1.69805e-05
2.52961e-05
4.38488e-05
7.63953e-05
7.44575e-05
7.26643e-05
7.13069e-05
7.03701e-05
6.97947e-05
6.95313e-05
6.95607e-05
6.99118e-05
7.06457e-05
7.18328e-05
7.34965e-05
7.54982e-05
7.62171e-05
3.11785e-05
1.24455e-05
6.98119e-06
5.23826e-06
4.79389e-06
4.77476e-06
5.02269e-06
6.65699e-06
8.48489e-07
3.59412e-09
2.45407e-09
6.23673e-07
1.4298e-05
1.11822e-05
9.52686e-06
9.70138e-06
1.08316e-05
1.31033e-05
1.74663e-05
2.71134e-05
4.52162e-05
7.66218e-05
7.45549e-05
7.26715e-05
7.12828e-05
7.03301e-05
6.97449e-05
6.94788e-05
6.95094e-05
6.98575e-05
7.05782e-05
7.17408e-05
7.33678e-05
7.53256e-05
7.60645e-05
3.11164e-05
1.221e-05
6.9114e-06
5.3046e-06
4.75626e-06
4.7043e-06
5.0452e-06
6.52425e-06
8.44004e-07
3.58613e-09
2.44541e-09
6.23703e-07
1.48905e-05
1.19513e-05
9.79675e-06
9.53262e-06
1.05366e-05
1.33146e-05
1.95067e-05
2.81234e-05
4.57303e-05
7.72996e-05
7.47339e-05
7.27417e-05
7.13098e-05
7.03483e-05
6.97613e-05
6.94893e-05
6.95098e-05
6.98591e-05
7.05879e-05
7.17624e-05
7.34153e-05
7.54597e-05
7.63268e-05
3.19554e-05
1.22677e-05
6.91904e-06
5.33118e-06
4.86762e-06
4.75994e-06
5.01339e-06
6.59819e-06
8.49571e-07
3.59184e-09
2.43859e-09
6.22813e-07
1.53483e-05
1.19201e-05
9.35158e-06
9.54503e-06
1.13225e-05
1.54945e-05
2.00081e-05
2.69806e-05
4.35468e-05
7.5559e-05
7.48908e-05
7.27943e-05
7.13103e-05
7.03189e-05
6.97291e-05
6.94617e-05
6.94888e-05
6.98298e-05
7.05422e-05
7.16929e-05
7.33133e-05
7.53387e-05
7.7652e-05
3.25171e-05
1.24988e-05
6.94615e-06
5.35572e-06
4.8319e-06
4.64851e-06
5.08233e-06
6.93932e-06
8.4617e-07
3.57598e-09
2.46098e-09
6.2679e-07
1.40431e-05
1.09763e-05
9.86381e-06
9.71763e-06
1.07596e-05
1.31341e-05
1.73035e-05
2.72375e-05
4.56036e-05
7.59432e-05
7.46194e-05
7.26756e-05
7.12657e-05
7.03121e-05
6.97273e-05
6.9459e-05
6.94887e-05
6.98371e-05
7.0571e-05
7.17522e-05
7.34518e-05
7.56773e-05
7.83522e-05
3.30468e-05
1.4187e-05
7.27797e-06
5.37263e-06
4.83278e-06
4.85017e-06
5.2324e-06
6.56044e-06
8.49348e-07
3.59033e-09
2.4384e-09
6.21735e-07
1.45262e-05
1.13421e-05
9.6438e-06
9.87133e-06
1.11527e-05
1.29186e-05
1.70769e-05
2.61103e-05
4.48762e-05
7.62867e-05
7.45287e-05
7.26462e-05
7.12487e-05
7.02925e-05
6.97078e-05
6.94397e-05
6.94703e-05
6.98197e-05
7.05384e-05
7.16964e-05
7.33031e-05
7.52291e-05
7.71364e-05
3.20892e-05
1.24853e-05
7.01637e-06
5.35764e-06
4.86905e-06
4.76987e-06
5.11797e-06
6.72213e-06
8.46921e-07
3.59603e-09
2.43144e-09
6.19218e-07
1.54136e-05
1.15414e-05
9.52267e-06
9.82974e-06
1.06779e-05
1.32108e-05
1.8179e-05
2.65513e-05
4.32546e-05
7.48076e-05
7.46361e-05
7.27099e-05
7.12713e-05
7.02941e-05
6.97073e-05
6.94403e-05
6.94709e-05
6.98263e-05
7.05587e-05
7.1721e-05
7.33224e-05
7.52309e-05
7.71027e-05
3.18171e-05
1.23177e-05
6.94126e-06
5.34791e-06
4.8633e-06
4.77606e-06
5.08434e-06
7.03144e-06
8.77401e-07
3.68775e-09
2.44768e-09
6.18633e-07
1.44322e-05
1.07601e-05
9.56596e-06
9.50317e-06
1.08482e-05
1.38197e-05
1.93107e-05
2.74057e-05
4.50134e-05
7.52172e-05
7.47072e-05
7.27128e-05
7.12698e-05
7.02887e-05
6.96898e-05
6.943e-05
6.94722e-05
6.98442e-05
7.06038e-05
7.18336e-05
7.35607e-05
7.56373e-05
7.64384e-05
3.09087e-05
1.24688e-05
7.09787e-06
5.43581e-06
4.97106e-06
4.88343e-06
5.15491e-06
6.77637e-06
8.76633e-07
3.70343e-09
2.41e-09
6.13916e-07
1.43034e-05
1.09756e-05
9.69032e-06
9.54681e-06
1.09077e-05
1.36963e-05
1.77812e-05
2.55727e-05
4.15139e-05
7.28864e-05
7.46129e-05
7.26638e-05
7.12417e-05
7.02706e-05
6.96698e-05
6.9393e-05
6.94121e-05
6.97522e-05
7.04759e-05
7.16516e-05
7.3304e-05
7.53158e-05
7.73323e-05
3.26964e-05
1.27722e-05
7.17709e-06
5.48129e-06
4.89612e-06
4.8006e-06
5.25755e-06
6.99849e-06
8.75356e-07
3.67982e-09
2.42236e-09
6.1747e-07
1.47576e-05
1.13877e-05
9.60322e-06
9.5936e-06
1.09272e-05
1.38648e-05
1.83229e-05
2.63086e-05
4.41209e-05
7.57149e-05
7.45883e-05
7.26451e-05
7.12153e-05
7.02487e-05
6.96629e-05
6.93974e-05
6.9441e-05
6.97994e-05
7.05136e-05
7.16384e-05
7.31877e-05
7.50387e-05
7.68636e-05
3.24331e-05
1.23492e-05
6.92291e-06
5.33632e-06
4.93891e-06
4.92694e-06
5.18591e-06
7.01334e-06
8.79609e-07
3.69078e-09
2.44902e-09
6.20275e-07
1.38771e-05
1.10816e-05
9.86233e-06
9.94369e-06
1.05771e-05
1.24546e-05
1.75205e-05
2.65478e-05
4.37372e-05
7.48816e-05
7.44692e-05
7.25774e-05
7.11794e-05
7.0234e-05
6.96587e-05
6.93977e-05
6.94319e-05
6.97978e-05
7.05471e-05
7.17399e-05
7.33962e-05
7.54228e-05
7.76772e-05
3.20744e-05
1.23848e-05
7.01952e-06
5.45758e-06
5.0146e-06
4.932e-06
5.27788e-06
6.90641e-06
8.83843e-07
3.73921e-09
2.42563e-09
6.19456e-07
1.52031e-05
1.14477e-05
9.30777e-06
9.34316e-06
1.08229e-05
1.34706e-05
1.72937e-05
2.71174e-05
4.51283e-05
7.57691e-05
7.44964e-05
7.25324e-05
7.11133e-05
7.01607e-05
6.95973e-05
6.93514e-05
6.93939e-05
6.97442e-05
7.04535e-05
7.15827e-05
7.31541e-05
7.50576e-05
7.70058e-05
3.2944e-05
1.26164e-05
6.9912e-06
5.3955e-06
4.96339e-06
4.9807e-06
5.25599e-06
6.63143e-06
8.79415e-07
3.71249e-09
2.40669e-09
6.15377e-07
1.46214e-05
1.17427e-05
9.97909e-06
9.84137e-06
1.08534e-05
1.52173e-05
1.99816e-05
2.64359e-05
4.26675e-05
7.41148e-05
7.4512e-05
7.25385e-05
7.11257e-05
7.01696e-05
6.95826e-05
6.93176e-05
6.93486e-05
6.96949e-05
7.04154e-05
7.15837e-05
7.32582e-05
7.54711e-05
7.83954e-05
3.43459e-05
1.43836e-05
7.31195e-06
5.4459e-06
4.97362e-06
4.95642e-06
5.42655e-06
7.17345e-06
8.80934e-07
3.70742e-09
2.42563e-09
6.15904e-07
1.42641e-05
1.10716e-05
9.81501e-06
9.52819e-06
1.08236e-05
1.3183e-05
1.66999e-05
2.63441e-05
4.29619e-05
7.33521e-05
7.46442e-05
7.26263e-05
7.11688e-05
7.01911e-05
6.9609e-05
6.93635e-05
6.94266e-05
6.98153e-05
7.05694e-05
7.17532e-05
7.33905e-05
7.53665e-05
7.73675e-05
3.1428e-05
1.23019e-05
7.04314e-06
5.49612e-06
5.06778e-06
5.06138e-06
5.3109e-06
6.74124e-06
8.83183e-07
3.71318e-09
2.41321e-09
6.16746e-07
1.42631e-05
1.11613e-05
9.36984e-06
9.69826e-06
1.09892e-05
1.3356e-05
1.75932e-05
2.49341e-05
4.3847e-05
7.45824e-05
7.4502e-05
7.25545e-05
7.11324e-05
7.01784e-05
6.96101e-05
6.93681e-05
6.94321e-05
6.98301e-05
7.06009e-05
7.1825e-05
7.35649e-05
7.57911e-05
7.83558e-05
3.34442e-05
1.33043e-05
7.34264e-06
5.54544e-06
5.10906e-06
5.01321e-06
5.24897e-06
6.89732e-06
8.93949e-07
3.76317e-09
2.42596e-09
6.19841e-07
1.44425e-05
1.14932e-05
9.82065e-06
9.59502e-06
1.0857e-05
1.39621e-05
1.83971e-05
2.57564e-05
4.27656e-05
7.33718e-05
7.45058e-05
7.25382e-05
7.11143e-05
7.01656e-05
6.96036e-05
6.93667e-05
6.94332e-05
6.98391e-05
7.06168e-05
7.18251e-05
7.35049e-05
7.55977e-05
7.79733e-05
3.38247e-05
1.27309e-05
7.12416e-06
5.55048e-06
4.98571e-06
4.99765e-06
5.5139e-06
7.199e-06
8.9205e-07
3.76711e-09
2.44448e-09
6.20719e-07
1.40223e-05
1.16376e-05
9.5889e-06
9.90583e-06
1.1504e-05
1.36644e-05
1.74937e-05
2.61168e-05
4.26715e-05
7.34354e-05
7.4508e-05
7.2528e-05
7.10921e-05
7.01381e-05
6.95751e-05
6.93524e-05
6.94334e-05
6.98417e-05
7.06395e-05
7.18801e-05
7.35946e-05
7.57196e-05
7.81502e-05
3.30519e-05
1.25044e-05
7.02326e-06
5.46087e-06
5.16101e-06
5.18687e-06
5.40164e-06
6.88067e-06
9.01936e-07
3.78383e-09
2.43428e-09
6.20493e-07
1.46569e-05
1.13554e-05
9.70729e-06
9.87633e-06
1.10297e-05
1.32725e-05
1.76075e-05
2.52429e-05
4.17336e-05
7.3335e-05
7.43307e-05
7.24564e-05
7.10713e-05
7.01368e-05
6.95828e-05
6.93527e-05
6.943e-05
6.984e-05
7.06311e-05
7.18746e-05
7.3593e-05
7.56923e-05
7.80613e-05
3.37249e-05
1.28078e-05
7.11734e-06
5.49011e-06
5.10403e-06
5.0216e-06
5.31755e-06
7.03706e-06
9.08213e-07
3.81036e-09
2.4472e-09
6.21319e-07
1.46968e-05
1.19433e-05
9.65415e-06
9.63881e-06
1.17783e-05
1.46199e-05
1.83962e-05
2.60005e-05
4.28162e-05
7.22267e-05
7.45251e-05
7.25348e-05
7.10985e-05
7.014e-05
6.95774e-05
6.93445e-05
6.94229e-05
6.9835e-05
7.06271e-05
7.18511e-05
7.35185e-05
7.54922e-05
7.74578e-05
3.25964e-05
1.25666e-05
7.09919e-06
5.49012e-06
4.99577e-06
5.0782e-06
5.54701e-06
7.25085e-06
9.07561e-07
3.80236e-09
2.4287e-09
6.18239e-07
1.43334e-05
1.10236e-05
1.00915e-05
1.02134e-05
1.15821e-05
1.4174e-05
1.8311e-05
2.57345e-05
4.1624e-05
7.33288e-05
7.45592e-05
7.25699e-05
7.11139e-05
7.01399e-05
6.95691e-05
6.93341e-05
6.94097e-05
6.98209e-05
7.06081e-05
7.18174e-05
7.34576e-05
7.53983e-05
7.73365e-05
3.26747e-05
1.25398e-05
7.05538e-06
5.49816e-06
5.10517e-06
5.14043e-06
5.45892e-06
6.99804e-06
9.02354e-07
3.81019e-09
2.43425e-09
6.20945e-07
1.4607e-05
1.10257e-05
9.28268e-06
9.8523e-06
1.287e-05
1.52642e-05
1.93549e-05
2.74246e-05
4.35466e-05
7.26688e-05
7.44798e-05
7.25097e-05
7.10874e-05
7.01313e-05
6.95627e-05
6.93281e-05
6.94001e-05
6.98013e-05
7.05789e-05
7.17724e-05
7.33884e-05
7.53039e-05
7.72477e-05
3.23432e-05
1.23699e-05
7.00524e-06
5.55868e-06
5.25174e-06
5.12801e-06
5.31535e-06
7.13732e-06
9.13727e-07
3.83718e-09
2.45417e-09
6.23072e-07
1.43135e-05
1.1072e-05
9.5082e-06
9.47907e-06
1.06924e-05
1.36867e-05
1.86761e-05
2.52381e-05
4.09032e-05
7.11169e-05
7.44717e-05
7.25153e-05
7.10872e-05
7.01281e-05
6.95588e-05
6.93254e-05
6.94031e-05
6.98149e-05
7.0618e-05
7.18537e-05
7.35139e-05
7.54426e-05
7.7284e-05
3.17245e-05
1.2533e-05
7.14239e-06
5.60713e-06
5.12979e-06
5.11234e-06
5.59263e-06
7.46748e-06
9.17077e-07
3.8436e-09
2.43826e-09
6.22646e-07
1.45732e-05
1.21846e-05
9.67757e-06
9.37031e-06
1.07255e-05
1.27178e-05
1.67882e-05
2.4805e-05
4.10011e-05
7.31789e-05
7.44148e-05
7.24786e-05
7.10487e-05
7.00968e-05
6.95414e-05
6.93204e-05
6.94036e-05
6.98113e-05
7.0603e-05
7.18416e-05
7.35458e-05
7.56072e-05
7.77253e-05
3.33357e-05
1.28944e-05
7.19761e-06
5.60546e-06
5.24806e-06
5.26564e-06
5.55036e-06
7.22111e-06
9.16136e-07
3.8414e-09
2.43989e-09
6.21212e-07
1.4553e-05
1.09612e-05
9.4421e-06
9.67778e-06
1.08448e-05
1.31241e-05
1.68858e-05
2.51063e-05
4.19586e-05
7.28473e-05
7.4351e-05
7.24304e-05
7.10088e-05
7.0059e-05
6.95039e-05
6.9284e-05
6.93719e-05
6.97864e-05
7.05633e-05
7.17613e-05
7.33938e-05
7.53978e-05
7.77099e-05
3.2578e-05
1.22954e-05
6.99588e-06
5.53514e-06
5.25613e-06
5.2604e-06
5.62529e-06
7.24481e-06
9.06577e-07
3.83331e-09
2.46631e-09
6.2614e-07
1.42028e-05
1.16931e-05
9.98128e-06
9.60099e-06
1.06141e-05
1.29866e-05
1.73332e-05
2.46291e-05
4.14211e-05
7.14899e-05
7.44417e-05
7.24778e-05
7.10429e-05
7.00767e-05
6.95083e-05
6.92814e-05
6.93701e-05
6.97918e-05
7.05798e-05
7.17929e-05
7.34336e-05
7.54258e-05
7.76851e-05
3.27771e-05
1.25115e-05
7.13578e-06
5.64881e-06
5.29301e-06
5.23695e-06
5.57932e-06
7.31676e-06
9.22468e-07
3.87547e-09
2.42848e-09
6.18408e-07
1.4447e-05
1.09885e-05
9.33408e-06
9.51311e-06
1.08872e-05
1.34917e-05
1.70242e-05
2.42656e-05
4.02115e-05
7.25616e-05
7.43658e-05
7.2461e-05
7.10354e-05
7.00713e-05
6.94994e-05
6.92674e-05
6.93525e-05
6.97822e-05
7.05854e-05
7.18127e-05
7.34764e-05
7.54533e-05
7.74628e-05
3.31961e-05
1.27104e-05
7.15466e-06
5.61728e-06
5.26829e-06
5.2728e-06
5.5472e-06
7.10355e-06
9.27547e-07
3.89133e-09
2.44705e-09
6.23214e-07
1.42089e-05
1.1065e-05
9.70886e-06
9.57438e-06
1.07896e-05
1.30226e-05
1.75241e-05
2.62411e-05
4.19868e-05
7.26696e-05
7.46788e-05
7.25725e-05
7.10743e-05
7.00846e-05
6.95074e-05
6.92744e-05
6.93486e-05
6.97616e-05
7.0557e-05
7.17764e-05
7.34279e-05
7.53966e-05
7.74143e-05
3.18033e-05
1.22986e-05
7.08155e-06
5.64176e-06
5.38077e-06
5.34148e-06
5.65575e-06
7.39689e-06
9.27168e-07
3.89161e-09
2.46637e-09
6.26233e-07
1.3631e-05
1.17631e-05
9.74373e-06
9.50596e-06
1.08328e-05
1.37389e-05
1.84551e-05
2.56306e-05
4.19077e-05
7.23271e-05
7.46275e-05
7.25081e-05
7.10155e-05
7.00328e-05
6.94661e-05
6.92527e-05
6.93599e-05
6.98005e-05
7.06358e-05
7.19192e-05
7.36607e-05
7.57386e-05
7.78692e-05
3.33043e-05
1.28543e-05
7.2681e-06
5.68708e-06
5.27204e-06
5.31897e-06
5.6046e-06
7.16102e-06
9.2169e-07
3.89743e-09
2.45914e-09
6.27932e-07
1.49345e-05
1.16126e-05
9.52037e-06
9.89869e-06
1.11429e-05
1.32602e-05
1.83138e-05
2.63877e-05
4.13044e-05
7.15128e-05
7.43037e-05
7.23644e-05
7.09536e-05
7.00108e-05
6.94559e-05
6.92424e-05
6.93494e-05
6.97899e-05
7.06123e-05
7.1868e-05
7.35747e-05
7.56301e-05
7.77828e-05
3.30803e-05
1.28288e-05
7.28568e-06
5.71787e-06
5.32717e-06
5.29854e-06
5.69547e-06
7.57052e-06
9.48058e-07
4.00804e-09
2.44286e-09
6.21123e-07
1.42354e-05
1.16819e-05
9.82827e-06
9.62272e-06
1.08915e-05
1.4883e-05
1.96762e-05
2.65867e-05
4.16897e-05
7.10942e-05
7.44365e-05
7.23983e-05
7.09376e-05
6.99659e-05
6.93979e-05
6.91768e-05
6.92741e-05
6.97079e-05
7.05195e-05
7.17551e-05
7.34256e-05
7.5477e-05
7.78723e-05
3.31455e-05
1.26232e-05
7.28111e-06
5.77182e-06
5.3796e-06
5.37908e-06
5.76444e-06
7.52078e-06
9.54891e-07
3.99974e-09
2.46593e-09
6.25168e-07
1.40555e-05
1.09688e-05
9.50318e-06
9.51192e-06
1.10349e-05
1.31202e-05
1.6317e-05
2.51975e-05
4.10364e-05
7.10565e-05
7.45922e-05
7.25103e-05
7.10311e-05
7.00555e-05
6.94939e-05
6.92808e-05
6.93828e-05
6.98183e-05
7.06277e-05
7.18568e-05
7.35221e-05
7.55145e-05
7.75978e-05
3.24543e-05
1.24722e-05
7.13896e-06
5.72308e-06
5.45221e-06
5.49791e-06
5.76413e-06
7.48481e-06
9.55812e-07
4.00175e-09
2.47686e-09
6.27545e-07
1.44458e-05
1.15841e-05
9.673e-06
9.65027e-06
1.06156e-05
1.29088e-05
1.73279e-05
2.56883e-05
4.13503e-05
7.15362e-05
7.45151e-05
7.2477e-05
7.10376e-05
7.00907e-05
6.95388e-05
6.9325e-05
6.94217e-05
6.98476e-05
7.06464e-05
7.18663e-05
7.35301e-05
7.55485e-05
7.77132e-05
3.15981e-05
1.24618e-05
7.30481e-06
5.91973e-06
5.60953e-06
5.46451e-06
5.67632e-06
7.4631e-06
9.62583e-07
4.04058e-09
2.46299e-09
6.27713e-07
1.4609e-05
1.01621e-05
8.98882e-06
9.50394e-06
1.08991e-05
1.32348e-05
1.70594e-05
2.56019e-05
4.14537e-05
7.15119e-05
7.46317e-05
7.2565e-05
7.1096e-05
7.01319e-05
6.95894e-05
6.93928e-05
6.95093e-05
6.99557e-05
7.07755e-05
7.2018e-05
7.37098e-05
7.58082e-05
7.82926e-05
3.30649e-05
1.26377e-05
7.27042e-06
5.8533e-06
5.62219e-06
5.59765e-06
5.85613e-06
7.63456e-06
9.60902e-07
4.03008e-09
2.46285e-09
6.28836e-07
1.38273e-05
1.1397e-05
9.76152e-06
9.57848e-06
1.07559e-05
1.33352e-05
1.74554e-05
2.43068e-05
3.9544e-05
7.0175e-05
7.43348e-05
7.24505e-05
7.10564e-05
7.01352e-05
6.96147e-05
6.94369e-05
6.95749e-05
7.00497e-05
7.09068e-05
7.21883e-05
7.38996e-05
7.59477e-05
7.81094e-05
3.17949e-05
1.25067e-05
7.29502e-06
5.84166e-06
5.56969e-06
5.65046e-06
6.07645e-06
7.81411e-06
9.62416e-07
4.02697e-09
2.47896e-09
6.2916e-07
1.45112e-05
1.16819e-05
9.56245e-06
9.45788e-06
1.11058e-05
1.35302e-05
1.67787e-05
2.37539e-05
4.0515e-05
7.05304e-05
7.45279e-05
7.25386e-05
7.10932e-05
7.01446e-05
6.96092e-05
6.94262e-05
6.95654e-05
7.00448e-05
7.09072e-05
7.21975e-05
7.39172e-05
7.59653e-05
7.76677e-05
3.05365e-05
1.21949e-05
7.19279e-06
5.93987e-06
5.73498e-06
5.66806e-06
5.9693e-06
7.57116e-06
9.6357e-07
4.032e-09
2.4755e-09
6.28494e-07
1.34842e-05
1.08746e-05
9.76795e-06
9.86243e-06
1.07584e-05
1.28993e-05
1.72135e-05
2.44962e-05
3.96181e-05
6.98115e-05
7.44324e-05
7.25056e-05
7.1078e-05