/*--------------------------------*- C++ -*----------------------------------*\
  =========                 |
  \\      /  F ield         | OpenFOAM: The Open Source CFD Toolbox
   \\    /   O peration     | Website:  https://openfoam.org
    \\  /    A nd           | Version:  13
     \\/     M anipulation  |
\*---------------------------------------------------------------------------*/
FoamFile
{
    format      ascii;
    class       surfaceScalarField;
    location    "6";
    object      phi;
}
// * * * * * * * * * * * * * * * * * * * * * * * * * * * * * * * * * * * * * //

dimensions      [0 3 -1 0 0 0 0];

internalField   nonuniform List<scalar> 
228225
(
2.75185e-06
-1.3978e-06
-3.57728e-08
5.8783e-06
-3.13544e-06
9.63411e-09
9.46124e-06
-3.6687e-06
8.62829e-08
1.30852e-05
-3.75736e-06
1.33798e-07
1.65238e-05
-3.59677e-06
1.58439e-07
1.94411e-05
-3.07591e-06
1.58888e-07
2.16944e-05
-2.39028e-06
1.37259e-07
2.3113e-05
-1.51102e-06
9.26245e-08
2.3915e-05
-8.60786e-07
5.89106e-08
2.43868e-05
-4.95721e-07
2.4105e-08
2.46219e-05
-2.361e-07
1.1494e-09
2.45862e-05
6.02428e-08
-2.43886e-08
2.43348e-05
3.00584e-07
-4.90196e-08
2.39539e-05
4.49471e-07
-6.82867e-08
2.35122e-05
5.11715e-07
-6.97813e-08
2.30578e-05
5.15023e-07
-6.02585e-08
2.2627e-05
4.8245e-07
-5.12775e-08
2.22386e-05
4.32708e-07
-4.38484e-08
2.1895e-05
3.76969e-07
-3.28288e-08
2.15971e-05
3.18231e-07
-1.97079e-08
2.13443e-05
2.60221e-07
-6.84471e-09
2.11305e-05
2.08498e-07
6.07719e-09
2.09439e-05
1.67445e-07
1.98471e-08
2.07669e-05
1.43434e-07
3.43904e-08
2.0572e-05
1.46858e-07
4.88942e-08
2.03157e-05
1.93882e-07
6.33554e-08
1.99454e-05
2.92207e-07
7.90885e-08
1.93864e-05
4.64429e-07
9.56641e-08
1.85436e-05
7.31586e-07
1.12448e-07
1.72649e-05
1.15128e-06
1.28797e-07
1.54271e-05
1.69929e-06
1.40324e-07
1.26808e-05
2.5944e-06
1.53513e-07
8.96952e-06
3.55211e-06
1.61328e-07
4.30953e-06
4.49828e-06
1.64978e-07
4.21442e-06
9.52274e-08
1.31171e-06
-2.76632e-06
6.00663e-08
3.73939e-06
-5.67783e-06
1.17299e-07
5.98886e-06
-6.04828e-06
1.31948e-07
7.81781e-06
-5.71696e-06
1.32741e-07
8.97969e-06
-4.89665e-06
1.40212e-07
9.61477e-06
-3.86161e-06
1.52728e-07
9.80137e-06
-2.74487e-06
1.70401e-07
9.71158e-06
-1.60025e-06
1.81416e-07
9.36138e-06
-6.80399e-07
1.7152e-07
8.96772e-06
-2.51579e-07
1.50683e-07
8.65906e-06
-5.6261e-08
1.29705e-07
8.57247e-06
3.18475e-08
1.1593e-07
8.68017e-06
8.58303e-08
1.08252e-07
8.91555e-06
1.10831e-07
1.04658e-07
9.2144e-06
1.08216e-07
1.06164e-07
9.536e-06
8.579e-08
1.09228e-07
9.85608e-06
5.1197e-08
1.12806e-07
1.01638e-05
1.00563e-08
1.16639e-07
1.04551e-05
-3.3662e-08
1.20919e-07
1.07262e-05
-7.67515e-08
1.25652e-07
1.09732e-05
-1.15856e-07
1.30736e-07
1.11947e-05
-1.47538e-07
1.36264e-07
1.1389e-05
-1.67613e-07
1.42417e-07
1.1553e-05
-1.6799e-07
1.48923e-07
1.16781e-05
-1.30961e-07
1.54122e-07
1.17603e-05
-4.4132e-08
1.57068e-07
1.17551e-05
1.40507e-07
1.58329e-07
1.16687e-05
3.92325e-07
1.60399e-07
1.13704e-05
8.66766e-07
1.6564e-07
1.07439e-05
1.60702e-06
1.73455e-07
9.599e-06
2.66382e-06
1.83332e-07
7.88178e-06
4.12003e-06
1.94565e-07
5.3381e-06
5.89573e-06
2.0348e-07
2.16192e-06
7.49013e-06
1.88258e-07
6.2666e-06
1.0988e-07
6.85597e-07
-3.48294e-06
3.30974e-08
1.42404e-06
-6.47104e-06
5.61307e-08
1.98984e-06
-6.68081e-06
6.77712e-08
2.38912e-06
-6.19519e-06
7.99256e-08
2.68466e-06
-5.27672e-06
8.56697e-08
2.89012e-06
-4.16121e-06
9.54763e-08
3.02496e-06
-2.97812e-06
9.98762e-08
3.2229e-06
-1.89283e-06
9.60092e-08
3.53319e-06
-1.07435e-06
8.46827e-08
3.8507e-06
-6.40454e-07
7.20581e-08
4.1873e-06
-4.54156e-07
6.18374e-08
4.53466e-06
-3.69959e-07
5.49969e-08
4.89404e-06
-3.24203e-07
5.12579e-08
5.25777e-06
-3.02044e-07
4.97993e-08
5.61205e-06
-2.95391e-07
5.00565e-08
5.94759e-06
-3.00817e-07
5.18709e-08
6.25891e-06
-3.14326e-07
5.5075e-08
6.54353e-06
-3.33175e-07
5.95504e-08
6.8009e-06
-3.552e-07
6.51591e-08
7.0317e-06
-3.78242e-07
7.17527e-08
7.23738e-06
-3.99654e-07
7.92361e-08
7.41913e-06
-4.15701e-07
8.75946e-08
7.57649e-06
-4.20547e-07
9.68323e-08
7.7047e-06
-4.01947e-07
1.06941e-07
7.80594e-06
-3.48786e-07
1.17723e-07
7.86996e-06
-2.35767e-07
1.28819e-07
7.86756e-06
2.51498e-09
1.41898e-07
7.80829e-06
2.96158e-07
1.57946e-07
7.58018e-06
9.18523e-07
1.80255e-07
7.10826e-06
1.88138e-06
2.02044e-07
6.26036e-06
3.29423e-06
2.21781e-07
4.93014e-06
5.21927e-06
2.3467e-07
3.1205e-06
7.4713e-06
2.37997e-07
1.13855e-06
9.26392e-06
2.12707e-07
7.28569e-06
1.19575e-07
2.93435e-07
-3.79221e-06
1.87234e-08
7.10578e-07
-6.90914e-06
2.27086e-08
1.13998e-06
-7.13072e-06
2.19113e-08
1.52671e-06
-6.60636e-06
2.58422e-08
1.8651e-06
-5.64628e-06
3.2706e-08
2.15359e-06
-4.48827e-06
4.0223e-08
2.45485e-06
-3.32545e-06
4.78228e-08
2.79078e-06
-2.27947e-06
5.23802e-08
3.12545e-06
-1.45887e-06
5.11696e-08
3.40809e-06
-9.67714e-07
4.55479e-08
3.66581e-06
-7.50315e-07
3.91507e-08
3.91094e-06
-6.48699e-07
3.42625e-08
4.15015e-06
-5.94572e-07
3.1794e-08
4.38563e-06
-5.68275e-07
3.1441e-08
4.61709e-06
-5.59e-07
3.29136e-08
4.842e-06
-5.60569e-07
3.5652e-08
5.05821e-06
-5.69161e-07
3.94656e-08
5.26407e-06
-5.82373e-07
4.42298e-08
5.45804e-06
-5.98096e-07
4.98544e-08
5.63868e-06
-6.14187e-07
5.62779e-08
5.80442e-06
-6.27827e-07
6.34619e-08
5.95318e-06
-6.34764e-07
7.1376e-08
6.082e-06
-6.28313e-07
7.99503e-08
6.19138e-06
-5.99716e-07
8.93385e-08
6.27873e-06
-5.342e-07
9.91739e-08
6.33191e-06
-3.9824e-07
1.1058e-07
6.34307e-06
-1.31652e-07
1.24639e-07
6.1909e-06
3.0972e-07
1.41105e-07
6.00793e-06
9.43262e-07
1.61466e-07
5.61679e-06
2.09162e-06
1.84372e-07
4.90403e-06
3.80279e-06
2.07594e-07
3.79358e-06
6.10488e-06
2.27616e-07
2.30509e-06
8.72726e-06
2.35423e-07
7.44104e-07
1.06129e-05
2.1552e-07
7.91403e-06
1.15888e-07
1.92551e-07
-3.98876e-06
5.46905e-09
4.78475e-07
-7.20124e-06
7.05921e-09
7.65131e-07
-7.42075e-06
4.11653e-09
1.01803e-06
-6.8626e-06
4.10575e-09
1.23313e-06
-5.86665e-06
6.11518e-09
1.43414e-06
-4.69812e-06
9.77524e-09
1.6457e-06
-3.54986e-06
1.38783e-08
1.88857e-06
-2.5385e-06
1.71805e-08
2.15922e-06
-1.74729e-06
1.86021e-08
2.42171e-06
-1.24755e-06
1.79599e-08
2.66793e-06
-1.01224e-06
1.61991e-08
2.90586e-06
-9.00782e-07
1.46517e-08
3.13867e-06
-8.41118e-07
1.42767e-08
3.36575e-06
-8.09964e-07
1.51875e-08
3.58673e-06
-7.96484e-07
1.71659e-08
3.80146e-06
-7.94809e-07
2.02537e-08
4.00908e-06
-8.00095e-07
2.41197e-08
4.20815e-06
-8.0928e-07
2.8704e-08
4.39801e-06
-8.20894e-07
3.38795e-08
4.57814e-06
-8.32891e-07
3.95876e-08
4.74753e-06
-8.4193e-07
4.58023e-08
4.90345e-06
-8.42148e-07
5.25426e-08
5.04381e-06
-8.27566e-07
5.99294e-08
5.1691e-06
-7.91437e-07
6.7506e-08
5.27749e-06
-7.16716e-07
7.5393e-08
5.37739e-06
-5.8064e-07
8.42789e-08
5.45715e-06
-3.04366e-07
9.52856e-08
5.37307e-06
2.85345e-07
1.11223e-07
5.26025e-06
9.3071e-07
1.29132e-07
4.86544e-06
2.33918e-06
1.51609e-07
4.11146e-06
4.3822e-06
1.78406e-07
2.96456e-06
7.05e-06
2.04798e-07
1.5799e-06
9.89734e-06
2.17653e-07
3.85016e-07
1.16162e-05
1.95272e-07
8.20724e-06
9.1895e-08
1.36535e-07
-4.12357e-06
-1.40925e-09
3.34962e-07
-7.39367e-06
-5.8024e-09
5.38595e-07
-7.6152e-06
-9.0049e-09
7.3607e-07
-7.05061e-06
-9.26213e-09
9.34988e-07
-6.05743e-06
-7.88835e-09
1.13937e-06
-4.89707e-06
-5.13551e-09
1.35841e-06
-3.76687e-06
-1.68e-09
1.59184e-06
-2.77311e-06
1.57077e-09
1.82908e-06
-1.98802e-06
3.85454e-09
2.04765e-06
-1.47069e-06
4.87413e-09
2.24484e-06
-1.21394e-06
4.78176e-09
2.4317e-06
-1.09186e-06
4.5142e-09
2.61311e-06
-1.02718e-06
4.99186e-09
2.78886e-06
-9.91713e-07
6.40425e-09
2.95638e-06
-9.7222e-07
8.66205e-09
3.11669e-06
-9.66054e-07
1.14522e-08
3.27074e-06
-9.686e-07
1.50471e-08
3.4172e-06
-9.74231e-07
1.91437e-08
3.55509e-06
-9.81772e-07
2.37052e-08
3.68359e-06
-9.89277e-07
2.86626e-08
3.80149e-06
-9.93058e-07
3.40308e-08
3.9062e-06
-9.86013e-07
3.99551e-08
3.99967e-06
-9.66253e-07
4.60677e-08
4.07624e-06
-9.19962e-07
5.28205e-08
4.13772e-06
-8.36775e-07
5.95716e-08
4.18246e-06
-6.91315e-07
6.73583e-08
4.1853e-06
-3.81855e-07
7.65681e-08
4.09462e-06
2.87746e-07
9.06992e-08
3.87513e-06
1.046e-06
1.07236e-07
3.43634e-06
2.6486e-06
1.32582e-07
2.74282e-06
4.91344e-06
1.65073e-07
1.86436e-06
7.73243e-06
1.98194e-07
9.7722e-07
1.05687e-05
2.17994e-07
2.51785e-07
1.21414e-05
2.03047e-07
8.36634e-06
9.27783e-08
1.16863e-07
-4.23485e-06
-5.79516e-09
3.0445e-07
-7.5704e-06
-1.09698e-08
4.91887e-07
-7.78759e-06
-1.51185e-08
6.59203e-07
-7.2019e-06
-1.60831e-08
8.08509e-07
-6.19113e-06
-1.56525e-08
9.54346e-07
-5.02887e-06
-1.40443e-08
1.11468e-06
-3.91559e-06
-1.15916e-08
1.29398e-06
-2.94355e-06
-8.75554e-09
1.48392e-06
-2.17174e-06
-6.09085e-09
1.66709e-06
-1.64966e-06
-4.04928e-09
1.83571e-06
-1.37938e-06
-3.01772e-09
1.9963e-06
-1.24978e-06
-2.47067e-09
2.15279e-06
-1.18184e-06
-1.57997e-09
2.30579e-06
-1.14437e-06
-4.48669e-11
2.45508e-06
-1.12325e-06
2.08927e-09
2.59834e-06
-1.11342e-06
4.53343e-09
2.73537e-06
-1.1126e-06
7.4807e-09
2.86748e-06
-1.11659e-06
1.08237e-08
2.99364e-06
-1.12175e-06
1.44715e-08
3.11293e-06
-1.1262e-06
1.83492e-08
3.22396e-06
-1.12577e-06
2.24382e-08
3.32712e-06
-1.11517e-06
2.67863e-08
3.42081e-06
-1.09016e-06
3.10526e-08
3.50332e-06
-1.0371e-06
3.55032e-08
3.5745e-06
-9.46575e-07
3.96958e-08
3.62749e-06
-7.87263e-07
4.46023e-08
3.63565e-06
-4.39074e-07
5.13211e-08
3.56102e-06
3.02745e-07
6.2312e-08
3.39236e-06
1.14116e-06
7.68043e-08
3.07667e-06
2.86753e-06
1.00266e-07
2.62503e-06
5.23481e-06
1.33252e-07
2.0046e-06
8.18428e-06
1.7087e-07
1.21196e-06
1.11627e-05
2.00976e-07
3.68599e-07
1.27896e-05
1.98161e-07
8.64372e-06
9.1285e-08
1.0779e-07
-4.33347e-06
-9.33014e-09
2.48914e-07
-7.6974e-06
-1.41951e-08
3.91147e-07
-7.91184e-06
-1.8037e-08
5.25359e-07
-7.31663e-06
-1.9524e-08
6.56338e-07
-6.30246e-06
-1.96628e-08
7.89145e-07
-5.14302e-06
-1.86537e-08
9.28688e-07
-4.03824e-06
-1.68515e-08
1.09157e-06
-3.09189e-06
-1.44635e-08
1.26294e-06
-2.33121e-06
-1.17811e-08
1.42526e-06
-1.80258e-06
-9.27089e-09
1.572e-06
-1.51836e-06
-7.62061e-09
1.71067e-06
-1.38164e-06
-6.65935e-09
1.84652e-06
-1.31186e-06
-5.64702e-09
1.98125e-06
-1.27464e-06
-4.21264e-09
2.11532e-06
-1.25465e-06
-2.37989e-09
2.24604e-06
-1.24362e-06
-1.79674e-10
2.37357e-06
-1.24185e-06
2.11343e-09
2.49969e-06
-1.24692e-06
4.67334e-09
2.6239e-06
-1.25288e-06
7.42656e-09
2.74582e-06
-1.25783e-06
1.02615e-08
2.86421e-06
-1.25677e-06
1.32036e-08
2.98085e-06
-1.24721e-06
1.60287e-08
3.09493e-06
-1.22225e-06
1.86843e-08
3.20657e-06
-1.16932e-06
2.12609e-08
3.31782e-06
-1.08028e-06
2.32934e-08
3.43282e-06
-9.26324e-07
2.52982e-08
3.5504e-06
-5.82806e-07
2.78905e-08
3.61727e-06
2.0446e-07
3.35239e-08
3.55536e-06
1.16171e-06
4.39015e-08
3.25605e-06
3.10921e-06
6.02315e-08
2.66167e-06
5.74399e-06
8.73369e-08
1.77189e-06
8.95489e-06
1.20792e-07
7.86768e-07
1.20015e-05
1.48061e-07
1.09459e-07
1.33203e-05
1.48738e-07
8.69488e-06
5.8382e-08
8.59946e-08
-4.40978e-06
-9.77216e-09
2.07803e-07
-7.80554e-06
-1.37133e-08
3.40563e-07
-8.02728e-06
-1.73475e-08
4.67239e-07
-7.42447e-06
-1.88495e-08
5.82372e-07
-6.39832e-06
-1.9269e-08
7.06319e-07
-5.24826e-06
-1.86711e-08
8.25887e-07
-4.14041e-06
-1.73336e-08
9.48522e-07
-3.19888e-06
-1.55482e-08
1.0757e-06
-2.44499e-06
-1.32771e-08
1.19879e-06
-1.91461e-06
-1.09273e-08
1.31094e-06
-1.62114e-06
-9.22552e-09
1.41688e-06
-1.47921e-06
-8.23412e-09
1.52082e-06
-1.40825e-06
-7.35702e-09
1.62428e-06
-1.37165e-06
-6.21212e-09
1.72735e-06
-1.35266e-06
-4.77489e-09
1.82999e-06
-1.34286e-06
-3.07346e-09
1.93004e-06
-1.34016e-06
-1.36136e-09
2.02734e-06
-1.34423e-06
4.57825e-10
2.12381e-06
-1.3512e-06
2.36046e-09
2.21879e-06
-1.35651e-06
4.25996e-09
2.31171e-06
-1.35526e-06
6.17663e-09
2.40381e-06
-1.34646e-06
7.82416e-09
2.49507e-06
-1.32209e-06
9.28082e-09
2.58564e-06
-1.26987e-06
1.07048e-08
2.67916e-06
-1.18456e-06
1.16347e-08
2.78129e-06
-1.03917e-06
1.20582e-08
2.88595e-06
-6.977e-07
1.22651e-08
2.93102e-06
1.47788e-07
1.41693e-08
2.76683e-06
1.30694e-06
2.19272e-08
2.34156e-06
3.50296e-06
3.44815e-08
1.67209e-06
6.3584e-06
5.74301e-08
9.4037e-07
9.60462e-06
8.38615e-08
3.77216e-07
1.2464e-05
1.02711e-07
-2.05812e-08
1.36216e-05
9.88481e-08
8.63782e-06
3.65193e-08
7.26307e-08
-4.47139e-06
-1.10711e-08
1.65345e-07
-7.88445e-06
-1.38218e-08
2.70957e-07
-8.11624e-06
-1.66601e-08
3.73729e-07
-7.50924e-06
-1.79918e-08
4.69881e-07
-6.47591e-06
-1.85514e-08
5.60783e-07
-5.3206e-06
-1.85299e-08
6.5173e-07
-4.21368e-06
-1.76181e-08
7.4234e-07
-3.27334e-06
-1.60583e-08
8.43956e-07
-2.53259e-06
-1.39076e-08
9.4526e-07
-2.00427e-06
-1.15293e-08
1.03631e-06
-1.70243e-06
-9.65269e-09
1.12062e-06
-1.55491e-06
-8.50279e-09
1.20195e-06
-1.48186e-06
-7.57457e-09
1.28155e-06
-1.44457e-06
-6.49345e-09
1.35958e-06
-1.42527e-06
-5.20719e-09
1.43633e-06
-1.4156e-06
-3.75376e-09
1.50941e-06
-1.41079e-06
-2.14939e-09
1.57836e-06
-1.41226e-06
-5.9136e-10
1.64471e-06
-1.41814e-06
9.85851e-10
1.707e-06
-1.42098e-06
2.60895e-09
1.76634e-06
-1.41841e-06
4.2599e-09
1.82254e-06
-1.40788e-06
5.72296e-09
1.87386e-06
-1.38e-06
7.12181e-09
1.92082e-06
-1.32491e-06
8.61903e-09
1.9668e-06
-1.23971e-06
9.79893e-09
2.01192e-06
-1.0939e-06
1.05962e-08
2.03718e-06
-7.32058e-07
1.06548e-08
1.9893e-06
1.85599e-07
1.21185e-08
1.74775e-06
1.53146e-06
1.92672e-08
1.38996e-06
3.82979e-06
3.30214e-08
9.88868e-07
6.70743e-06
5.36197e-08
5.74579e-07
9.94514e-06
7.49443e-08
1.60422e-07
1.27911e-05
8.86181e-08
-4.48212e-08
1.37536e-05
7.53176e-08
8.58201e-06
1.10644e-08
7.03561e-08
-4.53015e-06
-1.16865e-08
1.41925e-07
-7.94189e-06
-1.41811e-08
1.96971e-07
-8.15507e-06
-1.62463e-08
2.44638e-07
-7.53984e-06
-1.70994e-08
2.94375e-07
-6.50818e-06
-1.74787e-08
3.47722e-07
-5.35679e-06
-1.71612e-08
4.33242e-07
-4.28301e-06
-1.61764e-08
5.29461e-07
-3.35477e-06
-1.47607e-08
6.23467e-07
-2.61354e-06
-1.30042e-08
7.10873e-07
-2.08074e-06
-1.08738e-08
7.8621e-07
-1.76865e-06
-9.04543e-09
8.5423e-07
-1.61497e-06
-7.86662e-09
9.18857e-07
-1.53941e-06
-6.95557e-09
9.81274e-07
-1.50087e-06
-5.96463e-09
1.04147e-06
-1.48044e-06
-4.82152e-09
1.09935e-06
-1.46969e-06
-3.5499e-09
1.15513e-06
-1.46413e-06
-2.15685e-09
1.20685e-06
-1.46288e-06
-7.75997e-10
1.25378e-06
-1.46532e-06
6.42735e-10
1.29689e-06
-1.46583e-06
2.17258e-09
1.33753e-06
-1.46222e-06
3.6572e-09
1.37463e-06
-1.44958e-06
5.14481e-09
1.40616e-06
-1.4177e-06
6.73885e-09
1.4328e-06
-1.35941e-06
8.43378e-09
1.45696e-06
-1.27304e-06
9.89974e-09
1.47671e-06
-1.12347e-06
1.10227e-08
1.46892e-06
-7.33836e-07
1.15853e-08
1.40323e-06
2.40372e-07
1.35787e-08
1.20725e-06
1.70876e-06
2.14395e-08
9.2074e-07
4.08261e-06
3.60781e-08
5.42347e-07
7.0304e-06
5.73706e-08
2.54749e-07
1.01574e-05
7.73044e-08
1.31751e-08
1.29503e-05
8.43418e-08
-3.91311e-08
1.37266e-05
8.14623e-08
8.52741e-06
1.55117e-08
4.67072e-08
-4.56755e-06
-9.50486e-09
9.62818e-08
-7.97915e-06
-1.24242e-08
1.56906e-07
-8.20168e-06
-1.4092e-08
2.15279e-07
-7.58377e-06
-1.45219e-08
2.79263e-07
-6.55746e-06
-1.47979e-08
3.52353e-07
-5.41548e-06
-1.44891e-08
4.20091e-07
-4.33696e-06
-1.38675e-08
4.87456e-07
-3.40955e-06
-1.26515e-08
5.47994e-07
-2.66316e-06
-1.09688e-08
6.06439e-07
-2.13004e-06
-9.17495e-09
6.59712e-07
-1.81427e-06
-7.64805e-09
7.0931e-07
-1.65791e-06
-6.63771e-09
7.56855e-07
-1.58105e-06
-5.85136e-09
8.02766e-07
-1.54171e-06
-4.99547e-09
8.46942e-07
-1.5205e-06
-4.01514e-09
8.89333e-07
-1.50901e-06
-2.93567e-09
9.30237e-07
-1.50309e-06
-1.78279e-09
9.67909e-07
-1.49979e-06
-5.6648e-10
1.00197e-06
-1.49976e-06
6.11194e-10
1.03399e-06
-1.4994e-06
1.81322e-09
1.06351e-06
-1.49439e-06
2.96071e-09
1.08966e-06
-1.47946e-06
4.06767e-09
1.112e-06
-1.44486e-06
5.17123e-09
1.13056e-06
-1.38385e-06
6.25682e-09
1.14619e-06
-1.29533e-06
7.12832e-09
1.15564e-06
-1.14004e-06
7.88529e-09
1.1364e-06
-7.22233e-07
8.89961e-09
1.06046e-06
3.05984e-07
1.19104e-08
8.94087e-07
1.85708e-06
1.96528e-08
6.532e-07
4.29239e-06
3.27421e-08
3.54266e-07
7.28243e-06
4.82468e-08
1.50821e-07
1.02922e-05
6.94716e-08
1.34662e-07
1.28864e-05
8.12561e-08
1.16894e-08
1.37738e-05
7.71896e-08
8.51338e-06
2.57766e-08
2.73185e-08
-4.5891e-06
-6.116e-09
8.72094e-08
-8.02932e-06
-9.91732e-09
1.59155e-07
-8.26172e-06
-1.21099e-08
2.13782e-07
-7.62572e-06
-1.28797e-08
2.64338e-07
-6.59524e-06
-1.29849e-08
3.10088e-07
-5.44866e-06
-1.27677e-08
3.3911e-07
-4.35413e-06
-1.20476e-08
3.70109e-07
-3.42957e-06
-1.11771e-08
4.11199e-07
-2.69462e-06
-9.80329e-09
4.58935e-07
-2.16964e-06
-8.25332e-09
5.03163e-07
-1.85166e-06
-6.90427e-09
5.43991e-07
-1.69278e-06
-5.98114e-09
5.82862e-07
-1.61467e-06
-5.25628e-09
6.20279e-07
-1.57461e-06
-4.49237e-09
6.56251e-07
-1.55276e-06
-3.64514e-09
6.90706e-07
-1.54064e-06
-2.73439e-09
7.23646e-07
-1.53411e-06
-1.7812e-09
7.55438e-07
-1.5306e-06
-7.96551e-10
7.85378e-07
-1.52962e-06
1.47465e-10
8.13339e-07
-1.52817e-06
1.08269e-09
8.39502e-07
-1.52218e-06
1.95787e-09
8.63074e-07
-1.50543e-06
2.78345e-09
8.83478e-07
-1.46845e-06
3.59082e-09
9.01362e-07
-1.40567e-06
4.37823e-09
9.17253e-07
-1.31564e-06
5.00538e-09
9.2851e-07
-1.15575e-06
5.50261e-09
9.20026e-07
-7.17987e-07
6.06033e-09
8.6319e-07
3.56784e-07
8.37642e-09
7.36742e-07
1.97049e-06
1.53118e-08
5.94253e-07
4.41005e-06
2.67777e-08
5.27654e-07
7.31075e-06
4.01654e-08
2.88999e-07
1.04785e-05
5.38194e-08
9.48269e-08
1.3018e-05
6.3868e-08
2.35101e-08
1.37863e-05
6.04698e-08
8.51374e-06
2.31643e-08
1.36757e-08
-4.59762e-06
-5.69912e-09
8.05209e-08
-8.08806e-06
-8.51432e-09
1.18151e-07
-8.28926e-06
-1.04642e-08
1.62351e-07
-7.65933e-06
-1.08915e-08
2.07125e-07
-6.6294e-06
-1.08915e-08
2.36641e-07
-5.46775e-06
-1.0751e-08
2.66637e-07
-4.3741e-06
-1.03924e-08
2.97295e-07
-3.45108e-06
-9.53043e-09
3.38872e-07
-2.72818e-06
-8.35718e-09
3.79146e-07
-2.20309e-06
-7.07924e-09
4.14553e-07
-1.88135e-06
-5.89501e-09
4.46576e-07
-1.71984e-06
-5.09307e-09
4.76977e-07
-1.64068e-06
-4.49065e-09
5.06405e-07
-1.60025e-06
-3.87358e-09
5.34948e-07
-1.57818e-06
-3.19474e-09
5.62594e-07
-1.56585e-06
-2.47403e-09
5.89424e-07
-1.55922e-06
-1.73345e-09
6.1586e-07
-1.55604e-06
-9.95196e-10
6.41308e-07
-1.55475e-06
-2.87304e-10
6.65776e-07
-1.55294e-06
3.68729e-10
6.89451e-07
-1.5467e-06
9.45696e-10
7.11992e-07
-1.52931e-06
1.46883e-09
7.33778e-07
-1.49207e-06
1.98506e-09
7.55135e-07
-1.42928e-06
2.42453e-09
7.77722e-07
-1.34064e-06
2.66078e-09
8.02766e-07
-1.18293e-06
2.57991e-09
8.18875e-07
-7.35122e-07
1.7864e-09
7.91266e-07
3.83042e-07
2.30528e-09
6.32114e-07
2.12395e-06
6.61069e-09
4.21651e-07
4.6053e-06
1.59125e-08
2.41498e-07
7.46082e-06
3.06104e-08
9.23487e-08
1.05858e-05
4.24525e-08
-2.26563e-08
1.30841e-05
4.95836e-08
-1.22658e-08
1.3728e-05
4.85576e-08
8.48756e-06
1.39478e-08
2.29014e-08
-4.61514e-06
-6.26104e-09
4.23226e-08
-8.09954e-06
-8.53022e-09
5.56591e-08
-8.29354e-06
-9.4837e-09
8.80495e-08
-7.68225e-06
-9.89376e-09
1.34157e-07
-6.66609e-06
-9.89189e-09
1.65005e-07
-5.48962e-06
-9.52142e-09
2.10764e-07
-4.41152e-06
-8.87695e-09
2.38854e-07
-3.47173e-06
-7.96176e-09
2.62338e-07
-2.74508e-06
-7.09103e-09
2.87777e-07
-2.223e-06
-5.91962e-09
3.11743e-07
-1.90074e-06
-4.8419e-09
3.3391e-07
-1.73813e-06
-4.07834e-09
3.54758e-07
-1.6582e-06
-3.48946e-09
3.74483e-07
-1.61722e-06
-2.88742e-09
3.93016e-07
-1.59459e-06
-2.22979e-09
4.10297e-07
-1.58168e-06
-1.53027e-09
4.26372e-07
-1.57454e-06
-8.04927e-10
4.41328e-07
-1.57094e-06
-6.91629e-11
4.54916e-07
-1.56897e-06
6.59927e-10
4.66597e-07
-1.56592e-06
1.37337e-09
4.7537e-07
-1.55742e-06
2.07118e-09
4.81608e-07
-1.53815e-06
2.77285e-09
4.86787e-07
-1.50054e-06
3.51572e-09
4.90603e-07
-1.4372e-06
4.36708e-09
4.93805e-07
-1.34872e-06
5.2586e-09
4.95583e-07
-1.1902e-06
6.2339e-09
4.83397e-07
-7.29138e-07
7.4722e-09
4.42389e-07
4.15881e-07
9.82217e-09
3.27896e-07
2.22582e-06
1.44178e-08
1.95119e-07
4.71846e-06
2.1369e-08
6.87602e-08
7.55747e-06
3.10076e-08
1.82462e-08
1.05969e-05
4.02479e-08
5.93753e-08
1.29978e-05
4.59768e-08
-3.32856e-09
1.37509e-05
4.0949e-08
8.47496e-06
9.28566e-09
2.32872e-08
-4.63353e-06
-5.96093e-09
2.2855e-08
-8.09295e-06
-6.74976e-09
8.46735e-08
-8.34849e-06
-7.3739e-09
1.14894e-07
-7.70526e-06
-7.78393e-09
1.29275e-07
-6.67307e-06
-8.01883e-09
1.52025e-07
-5.50531e-06
-7.79067e-09
1.78278e-07
-4.43109e-06
-7.47902e-09
2.12353e-07
-3.49994e-06
-6.58313e-09
2.28857e-07
-2.75659e-06
-5.653e-09
2.47421e-07
-2.23736e-06
-4.7523e-09
2.64807e-07
-1.91466e-06
-3.85261e-09
2.81389e-07
-1.75179e-06
-3.22252e-09
2.97486e-07
-1.67182e-06
-2.75346e-09
3.13035e-07
-1.63075e-06
-2.28266e-09
3.27805e-07
-1.60784e-06
-1.76833e-09
3.41637e-07
-1.59454e-06
-1.22038e-09
3.54476e-07
-1.58695e-06
-6.51333e-10
3.6629e-07
-1.58289e-06
-7.20427e-11
3.76942e-07
-1.58031e-06
5.08328e-10
3.86076e-07
-1.5763e-06
1.08878e-09
3.93266e-07
-1.56642e-06
1.68089e-09
3.9779e-07
-1.54506e-06
2.29165e-09
4.00284e-07
-1.50605e-06
2.94998e-09
4.01119e-07
-1.44177e-06
3.70065e-09
4.00024e-07
-1.35213e-06
4.5137e-09
3.94211e-07
-1.18977e-06
5.41136e-09
3.73859e-07
-7.15273e-07
6.56415e-09
3.50765e-07
4.29588e-07
9.48856e-09
3.51442e-07
2.21016e-06
1.50805e-08
3.37939e-07
4.70958e-06
2.24648e-08
2.42936e-07
7.6214e-06
3.11438e-08
1.44703e-07
1.06566e-05
3.85258e-08
2.83851e-08
1.30702e-05
4.40385e-08
-4.9871e-09
1.37452e-05
3.92381e-08
8.45801e-06
1.19777e-08
-5.13847e-10
-4.62984e-06
-4.18339e-09
2.71273e-08
-8.11663e-06
-4.67145e-09
7.96899e-08
-8.39604e-06
-5.74654e-09
1.2624e-07
-7.74657e-06
-6.00089e-09
1.39881e-07
-6.68147e-06
-6.05569e-09
1.57843e-07
-5.51826e-06
-5.83627e-09
1.65674e-07
-4.43442e-06
-5.42145e-09
1.76603e-07
-3.50674e-06
-5.09512e-09
1.89759e-07
-2.76624e-06
-4.3307e-09
2.0096e-07
-2.24557e-06
-3.6403e-09
2.13007e-07
-1.92421e-06
-2.96505e-09
2.25245e-07
-1.76191e-06
-2.47588e-09
2.37459e-07
-1.68226e-06
-2.10063e-09
2.49354e-07
-1.64124e-06
-1.71196e-09
2.60697e-07
-1.6182e-06
-1.2802e-09
2.71334e-07
-1.60463e-06
-8.16661e-10
2.81199e-07
-1.59672e-06
-3.34863e-10
2.90247e-07
-1.5923e-06
1.52333e-10
2.98427e-07
-1.5893e-06
6.33053e-10
3.05758e-07
-1.58487e-06
1.10122e-09
3.12657e-07
-1.57496e-06
1.55792e-09
3.18954e-07
-1.55342e-06
2.02663e-09
3.24413e-07
-1.51399e-06
2.50065e-09
3.29159e-07
-1.44944e-06
3.00439e-09
3.33566e-07
-1.35986e-06
3.49839e-09
3.35904e-07
-1.19568e-06
3.97277e-09
3.24981e-07
-7.08114e-07
4.49459e-09
2.90315e-07
4.5906e-07
6.08911e-09
2.24784e-07
2.26602e-06
1.05372e-08
1.84924e-07
4.73268e-06
1.75072e-08
1.16289e-07
7.66522e-06
2.54301e-08
7.84906e-08
1.06613e-05
3.38104e-08
2.47852e-08
1.30859e-05
3.86051e-08
7.02652e-09
1.37256e-05
3.80018e-08
8.45057e-06
1.44591e-08
-1.43443e-10
-4.62776e-06
-3.06244e-09
5.08406e-08
-8.16424e-06
-4.36254e-09
2.44155e-08
-8.36563e-06
-5.03675e-09
3.60573e-08
-7.75407e-06
-5.11846e-09
6.44717e-08
-6.70613e-06
-4.70187e-09
8.61873e-08
-5.53664e-06
-4.35149e-09
1.13241e-07
-4.45859e-06
-3.90187e-09
1.28423e-07
-3.5196e-06
-3.37487e-09
1.45168e-07
-2.78111e-06
-2.90482e-09
1.55942e-07
-2.25482e-06
-2.35042e-09
1.6605e-07
-1.93301e-06
-1.89667e-09
1.76497e-07
-1.77127e-06
-1.56665e-09
1.86603e-07
-1.6915e-06
-1.30132e-09
1.95621e-07
-1.64969e-06
-1.0104e-09
2.03867e-07
-1.6262e-06
-6.73863e-10
2.1105e-07
-1.61193e-06
-3.01601e-10
2.16902e-07
-1.60309e-06
9.38954e-11
2.2203e-07
-1.59833e-06
5.0007e-10
2.26263e-07
-1.59482e-06
9.02812e-10
2.30548e-07
-1.59082e-06
1.29386e-09
2.35453e-07
-1.58188e-06
1.67237e-09
2.41419e-07
-1.56175e-06
2.05105e-09
2.47136e-07
-1.52242e-06
2.4542e-09
2.52135e-07
-1.45757e-06
2.90911e-09
2.55727e-07
-1.36715e-06
3.46487e-09
2.55426e-07
-1.20006e-06
4.3281e-09
2.46897e-07
-7.06058e-07
5.89927e-09
2.19561e-07
4.76895e-07
8.75661e-09
1.70421e-07
2.30199e-06
1.24904e-08
1.52373e-07
4.73282e-06
1.74218e-08
1.37851e-07
7.65588e-06
2.35156e-08
1.05719e-07
1.06636e-05
2.95502e-08
9.06476e-08
1.30661e-05
3.44551e-08
2.35086e-08
1.37587e-05
3.35786e-08
8.46017e-06
1.39113e-08
7.56096e-09
-4.63298e-06
-3.95867e-09
2.98237e-08
-8.18251e-06
-5.18593e-09
3.49716e-08
-8.36604e-06
-5.60139e-09
2.75167e-08
-7.74213e-06
-5.45912e-09
4.49782e-08
-6.71959e-06
-5.06633e-09
6.6697e-08
-5.55479e-06
-4.72254e-09
6.99826e-08
-4.4587e-06
-4.41619e-09
1.00377e-07
-3.54729e-06
-3.98034e-09
1.1848e-07
-2.79694e-06
-3.4451e-09
1.34616e-07
-2.26897e-06
-2.91282e-09
1.49154e-07
-1.94582e-06
-2.39233e-09
1.62535e-07
-1.78313e-06
-2.04641e-09
1.7529e-07
-1.70294e-06
-1.80527e-09
1.87498e-07
-1.66081e-06
-1.56791e-09
1.99298e-07
-1.63715e-06
-1.31343e-09
2.10439e-07
-1.62248e-06
-1.04294e-09
2.21537e-07
-1.61384e-06
-7.684e-10
2.32344e-07
-1.60902e-06
-5.20834e-10
2.4264e-07
-1.60519e-06
-2.97873e-10
2.53669e-07
-1.60205e-06
-1.23224e-10
2.65634e-07
-1.59412e-06
-4.20069e-12
2.78386e-07
-1.57478e-06
5.16601e-11
2.91701e-07
-1.53594e-06
4.71712e-11
3.05468e-07
-1.47143e-06
2.94666e-12
3.19919e-07
-1.38157e-06
-6.27007e-11
3.34737e-07
-1.2148e-06
-3.76071e-11
3.43224e-07
-7.14798e-07
3.97787e-10
3.35139e-07
4.82856e-07
2.31655e-09
2.86356e-07
2.34463e-06
6.33432e-09
1.55114e-07
4.85273e-06
1.15504e-08
5.29251e-08
7.7409e-06
1.73923e-08
5.28785e-08
1.06404e-05
2.33477e-08
1.23536e-08
1.30798e-05
2.70038e-08
8.91888e-09
1.3736e-05
2.63249e-08
8.45742e-06
1.16547e-08
9.28759e-09
-4.64041e-06
-3.53794e-09
2.81775e-09
-8.17253e-06
-4.75479e-09
2.20636e-08
-8.38123e-06
-5.04562e-09
3.21681e-08
-7.7487e-06
-4.56361e-09
3.34223e-08
-6.71783e-06
-4.22575e-09
4.66872e-08
-5.56562e-06
-3.7459e-09
5.56983e-08
-4.46596e-06
-3.27445e-09
5.58817e-08
-3.54613e-06
-2.91483e-09
7.8489e-08
-2.81858e-06
-2.32906e-09
8.62028e-08
-2.27589e-06
-1.86964e-09
9.55605e-08
-1.95447e-06
-1.48764e-09
1.03228e-07
-1.79019e-06
-1.24433e-09
1.09998e-07
-1.70923e-06
-1.0748e-09
1.16662e-07
-1.66716e-06
-9.06539e-10
1.22711e-07
-1.64308e-06
-7.15618e-10
1.28413e-07
-1.62827e-06
-5.13349e-10
1.33941e-07
-1.61965e-06
-3.15499e-10
1.38702e-07
-1.61423e-06
-1.33805e-10
1.42957e-07
-1.61001e-06
1.10622e-11
1.45728e-07
-1.60546e-06
9.9077e-11
1.46595e-07
-1.59563e-06
1.19232e-10
1.45675e-07
-1.57441e-06
7.44395e-11
1.4365e-07
-1.53433e-06
-9.22651e-12
1.41269e-07
-1.46933e-06
-8.21745e-11
1.39212e-07
-1.37984e-06
-8.47397e-11
1.35568e-07
-1.21186e-06
3.68463e-11
1.21301e-07
-7.02008e-07
4.1784e-10
9.506e-08
5.06148e-07
1.70934e-09
5.90139e-08
2.37477e-06
4.5931e-09
2.29586e-08
4.87896e-06
8.68238e-09
2.3562e-08
7.7254e-06
1.41772e-08
1.08141e-08
1.06333e-05
1.94214e-08
-1.59868e-08
1.30836e-05
2.23946e-08
-5.06133e-09
1.37032e-05
2.12124e-08
8.44501e-06
7.34279e-09
2.01114e-08
-4.66086e-06
-1.41413e-09
2.58442e-08
-8.17626e-06
-3.31614e-09
3.81196e-08
-8.39104e-06
-3.6584e-09
5.55485e-08
-7.76395e-06
-3.43517e-09
7.04528e-08
-6.73103e-06
-3.1042e-09
7.90209e-08
-5.57296e-06
-2.76533e-09
9.74984e-08
-4.48359e-06
-2.37709e-09
9.96655e-08
-3.54797e-06
-1.98523e-09
1.05085e-07
-2.82385e-06
-1.71945e-09
1.13413e-07
-2.284e-06
-1.38024e-09
1.20321e-07
-1.96107e-06
-1.17526e-09
1.25687e-07
-1.7952e-06
-1.04959e-09
1.30186e-07
-1.71342e-06
-9.66617e-10
1.34887e-07
-1.67164e-06
-8.72391e-10
1.39362e-07
-1.64744e-06
-7.54691e-10
1.43634e-07
-1.63255e-06
-6.21345e-10
1.4693e-07
-1.62307e-06
-4.87136e-10
1.50369e-07
-1.61789e-06
-3.64892e-10
1.54461e-07
-1.61438e-06
-2.73251e-10
1.58416e-07
-1.6097e-06
-2.31704e-10
1.62373e-07
-1.5998e-06
-2.48359e-10
1.66392e-07
-1.57851e-06
-3.2283e-10
1.70368e-07
-1.53818e-06
-4.40445e-10
1.74028e-07
-1.47267e-06
-5.67876e-10
1.76839e-07
-1.38223e-06
-6.40754e-10
1.78768e-07
-1.21351e-06
-5.4546e-10
1.8629e-07
-7.09911e-07
8.47861e-12
2.04293e-07
4.85714e-07
2.0497e-09
2.57913e-07
2.3155e-06
5.37153e-09
3.21566e-07
4.80606e-06
9.05096e-09
3.69549e-07
7.66454e-06
1.27115e-08
2.60451e-07
1.07259e-05
1.6341e-08
1.43526e-07
1.31819e-05
1.84117e-08
2.44862e-08
1.38045e-05
1.74787e-08
8.46371e-06
5.75479e-09
2.84104e-09
-4.66629e-06
8.94588e-10
1.34025e-08
-8.18681e-06
-1.37893e-09
3.19404e-08
-8.40888e-06
-2.1082e-09
5.78095e-08
-7.78922e-06
-2.0459e-09
8.40483e-08
-6.75714e-06
-1.72885e-09
1.13956e-07
-5.60313e-06
-1.49437e-09
1.31021e-07
-4.50124e-06
-1.30004e-09
1.37654e-07
-3.55532e-06
-1.10947e-09
1.21459e-07
-2.80831e-06
-9.85463e-10
1.23073e-07
-2.28614e-06
-8.39193e-10
1.26162e-07
-1.96438e-06
-7.82401e-10
1.32923e-07
-1.80197e-06
-7.97933e-10
1.41147e-07
-1.72154e-06
-8.61144e-10
1.49981e-07
-1.68031e-06
-9.23348e-10
1.59473e-07
-1.65674e-06
-9.62606e-10
1.69625e-07
-1.64247e-06
-9.87523e-10
1.80374e-07
-1.63355e-06
-1.01534e-09
1.92463e-07
-1.62964e-06
-1.07402e-09
2.06006e-07
-1.62747e-06
-1.18278e-09
2.21345e-07
-1.62437e-06
-1.36635e-09
2.38713e-07
-1.61619e-06
-1.64791e-09
2.58329e-07
-1.59672e-06
-2.04412e-09
2.80386e-07
-1.55823e-06
-2.56438e-09
3.04606e-07
-1.49417e-06
-3.21225e-09
3.31338e-07
-1.40552e-06
-3.98487e-09
3.62934e-07
-1.24112e-06
-4.85839e-09
3.9902e-07
-7.4168e-07
-5.71353e-09
4.19857e-07
4.68674e-07
-5.57992e-09
3.81415e-07
2.35525e-06
-3.17358e-09
2.98955e-07
4.88587e-06
1.24358e-09
1.72309e-07
7.78339e-06
6.90074e-09
1.13336e-07
1.07725e-05
1.16531e-08
7.86774e-08
1.32006e-05
1.49373e-08
4.50083e-09
1.38631e-05
1.43249e-08
8.46323e-06
4.96626e-09
-1.14178e-08
-4.6561e-06
-1.02183e-09
1.67627e-08
-8.2137e-06
-2.98588e-09
4.07008e-08
-8.43091e-06
-3.42996e-09
4.10272e-08
-7.78791e-06
-3.21939e-09
3.18017e-08
-6.74701e-06
-2.8572e-09
1.91728e-08
-5.59022e-06
-2.41621e-09
2.25824e-08
-4.50464e-06
-2.04122e-09
2.77831e-08
-3.56094e-06
-1.65006e-09
5.19513e-08
-2.83313e-06
-1.2468e-09
6.23211e-08
-2.29703e-06
-9.50866e-10
6.90362e-08
-1.97136e-06
-8.10504e-10
7.30455e-08
-1.80609e-06
-7.79564e-10
7.69965e-08
-1.72554e-06
-7.78502e-10
8.07791e-08
-1.68414e-06
-7.73748e-10
8.46239e-08
-1.66064e-06
-7.58392e-10
8.86218e-08
-1.64653e-06
-7.37983e-10
9.29675e-08
-1.63794e-06
-7.27836e-10
9.68703e-08
-1.63354e-06
-7.48579e-10
1.00707e-07
-1.63119e-06
-8.20506e-10
1.04028e-07
-1.6274e-06
-9.63414e-10
1.07083e-07
-1.61868e-06
-1.19058e-09
1.09935e-07
-1.59863e-06
-1.50352e-09
1.13322e-07
-1.56021e-06
-1.88194e-09
1.1705e-07
-1.49597e-06
-2.29531e-09
1.21354e-07
-1.4075e-06
-2.68948e-09
1.23516e-07
-1.24073e-06
-3.06534e-09
1.10651e-07
-7.26132e-07
-3.47104e-09
7.88838e-08
5.02925e-07
-3.37459e-09
1.98394e-08
2.41558e-06
-2.02567e-09
-2.17e-08
4.92565e-06
1.07498e-09
-8.96843e-08
7.8456e-06
5.2201e-09
-7.8261e-08
1.0751e-05
9.71987e-09
-5.16076e-08
1.31612e-05
1.24439e-08