/*--------------------------------*- C++ -*----------------------------------*\
  =========                 |
  \\      /  F ield         | OpenFOAM: The Open Source CFD Toolbox
   \\    /   O peration     | Website:  https://openfoam.org
    \\  /    A nd           | Version:  13
     \\/     M anipulation  |
\*---------------------------------------------------------------------------*/
FoamFile
{
    format      ascii;
    class       volVectorField;
    location    "6";
    object      U;
}
// * * * * * * * * * * * * * * * * * * * * * * * * * * * * * * * * * * * * * //

dimensions      [0 1 -1 0 0 0 0];

internalField   nonuniform List<vector> 
78750
(
(0.00279095 -0.00502808 0.000306877)
(0.00922457 -0.0143212 0.00273222)
(0.0153511 -0.0218671 0.00461226)
(0.0227998 -0.0269992 0.00576024)
(0.0294406 -0.0326718 0.00651325)
(0.0361142 -0.0314775 0.00654878)
(0.0410213 -0.0275969 0.0057204)
(0.0453275 -0.0208876 0.0040944)
(0.0468574 -0.0174497 0.00303602)
(0.0481617 -0.013981 0.00236465)
(0.0487176 -0.00999894 0.00212657)
(0.0491191 -0.00364495 0.00214025)
(0.048702 0.00167853 0.00212952)
(0.0480315 0.00510908 0.00198722)
(0.0471827 0.00693617 0.00173817)
(0.0462693 0.00762628 0.00148753)
(0.0453754 0.00759761 0.00129079)
(0.0445484 0.00721039 0.00121817)
(0.0438277 0.00667275 0.0013024)
(0.0431783 0.00600259 0.00140382)
(0.0426346 0.00524254 0.00150998)
(0.0421706 0.00449863 0.00166037)
(0.0417816 0.00386204 0.00187535)
(0.0414147 0.00342109 0.0021548)
(0.0410838 0.00316688 0.00243207)
(0.0405995 0.00324351 0.00270235)
(0.0401093 0.00364466 0.00299049)
(0.0390507 0.00471287 0.00328892)
(0.037983 0.0062688 0.00358427)
(0.0355803 0.00950889 0.00390134)
(0.033078 0.0119691 0.0040782)
(0.0281806 0.0191252 0.00437482)
(0.0220129 0.0258834 0.00459807)
(0.014013 0.0311754 0.00451701)
(0.00445227 0.0299944 0.00287417)
(0.000799148 -0.0299107 0.00231186)
(0.00465591 -0.067894 0.00403838)
(0.0104523 -0.0753664 0.00430126)
(0.013342 -0.0730825 0.00429246)
(0.0174449 -0.063554 0.00459001)
(0.0187899 -0.0508814 0.00490982)
(0.0191639 -0.0366786 0.00546839)
(0.0197219 -0.0203013 0.00568092)
(0.0191017 -0.00621306 0.00482206)
(0.0181931 0.000188994 0.00366304)
(0.0174065 0.00322952 0.00284674)
(0.017031 0.0046745 0.0025653)
(0.017097 0.00569007 0.00259359)
(0.0174783 0.00618434 0.00278687)
(0.0180316 0.00605766 0.00301054)
(0.0186601 0.00552353 0.00320486)
(0.0192993 0.00475884 0.00337328)
(0.0199206 0.00389157 0.00353985)
(0.0205135 0.00300638 0.00371586)
(0.0210688 0.00216279 0.00389916)
(0.0215786 0.00141582 0.00408757)
(0.0220385 0.000805331 0.00428468)
(0.0224477 0.000356106 0.00449698)
(0.0228043 0.000149745 0.00470662)
(0.0230863 0.000460411 0.00481273)
(0.0232883 0.00156262 0.00475886)
(0.0233642 0.00364033 0.00457408)
(0.0232896 0.00694652 0.00440799)
(0.0229569 0.0121891 0.00441765)
(0.0222296 0.0197607 0.00455887)
(0.0204404 0.0313882 0.00479417)
(0.0176474 0.0471312 0.00504244)
(0.0138768 0.0660435 0.0053257)
(0.00763837 0.0846429 0.00513103)
(0.00155225 0.0743336 0.00315525)
(0.000538581 -0.0433281 0.00109715)
(0.00231719 -0.0825787 0.00160514)
(0.00344754 -0.0851102 0.00183855)
(0.00448522 -0.0785635 0.0020423)
(0.00473811 -0.0660804 0.00229353)
(0.00590688 -0.0514479 0.00295612)
(0.00584132 -0.03576 0.00331153)
(0.00612783 -0.0214055 0.00320797)
(0.00672043 -0.0111686 0.00268583)
(0.0073647 -0.00636227 0.00214539)
(0.00802252 -0.00429866 0.00177262)
(0.00865503 -0.00340144 0.00161458)
(0.00938303 -0.00289784 0.00159116)
(0.0101019 -0.00266256 0.00164945)
(0.0108184 -0.00262949 0.00175695)
(0.0115076 -0.00274322 0.00190444)
(0.0121508 -0.00295886 0.00208567)
(0.0127415 -0.00324495 0.00229583)
(0.0132778 -0.00357639 0.00252882)
(0.0137591 -0.00392589 0.00277599)
(0.0141882 -0.00425845 0.00302886)
(0.0145691 -0.0045229 0.00328005)
(0.0149021 -0.00463549 0.00351982)
(0.0151855 -0.00446706 0.00373509)
(0.0154125 -0.00381882 0.00390528)
(0.0155646 -0.00262703 0.00399056)
(0.0156335 0.000208235 0.00410064)
(0.0155546 0.00361888 0.00425728)
(0.0153711 0.0110122 0.00462153)
(0.0146431 0.0230504 0.00504829)
(0.0135773 0.0394734 0.0055137)
(0.0113762 0.0624164 0.00577061)
(0.00843626 0.0906462 0.00568903)
(0.00429754 0.114408 0.00503773)
(0.000623951 0.092263 0.00295008)
(0.000228793 -0.0484141 0.000568056)
(0.00104891 -0.0888405 0.000657938)
(0.00190899 -0.0919859 0.000581971)
(0.00262421 -0.085629 0.00060272)
(0.00342868 -0.0736103 0.000765535)
(0.00396518 -0.058518 0.00103354)
(0.00455718 -0.0429607 0.00139627)
(0.00518276 -0.0286614 0.0016575)
(0.00588175 -0.0173207 0.00163751)
(0.00652445 -0.0106962 0.00139817)
(0.00704759 -0.0078571 0.00115488)
(0.00753019 -0.00654396 0.001012)
(0.00802015 -0.00584719 0.000995198)
(0.00848294 -0.00550254 0.00106784)
(0.00895472 -0.00536518 0.00119893)
(0.00940772 -0.00539123 0.00136307)
(0.0098466 -0.00552649 0.00155532)
(0.0102658 -0.00573026 0.00177017)
(0.0106623 -0.00597095 0.00200139)
(0.0110331 -0.0062191 0.00224135)
(0.0113747 -0.00644 0.00248045)
(0.0116877 -0.00658588 0.00270621)
(0.0119546 -0.00658631 0.00290165)
(0.0121949 -0.00624296 0.00306363)
(0.0123718 -0.0054665 0.00315018)
(0.0125198 -0.00364378 0.00321335)
(0.0125745 -0.000133266 0.00332297)
(0.012466 0.00427172 0.00348041)
(0.012075 0.0134634 0.00381743)
(0.0116806 0.0270579 0.00435667)
(0.0106575 0.0482099 0.00500143)
(0.00887849 0.0763978 0.00564177)
(0.00639781 0.107986 0.00578)
(0.00306772 0.131845 0.00502665)
(0.000314968 0.101522 0.00264657)
(0.00016829 -0.0520489 0.00016197)
(0.000758542 -0.0945539 0.000129226)
(0.00128655 -0.0973399 4.56955e-05)
(0.0017894 -0.0897828 2.0557e-05)
(0.00225597 -0.0763088 5.2707e-05)
(0.0026414 -0.0606283 0.000161248)
(0.00301977 -0.0452601 0.000307785)
(0.00345893 -0.0317533 0.000438956)
(0.00398745 -0.0212946 0.000494752)
(0.00457128 -0.0148953 0.000459934)
(0.00507066 -0.0119787 0.000388337)
(0.0055338 -0.0105962 0.000347515)
(0.00601055 -0.0098573 0.000373685)
(0.00647228 -0.00949699 0.000456308)
(0.00690826 -0.00937891 0.000579045)
(0.00734911 -0.00939687 0.000742128)
(0.00776722 -0.00949401 0.000926359)
(0.00817082 -0.00964859 0.00112695)
(0.00855582 -0.00983549 0.0013369)
(0.00892108 -0.0100271 0.00154822)
(0.009265 -0.0101831 0.00175212)
(0.00958618 -0.010238 0.00193968)
(0.00988417 -0.0100807 0.00210527)
(0.010125 -0.00968776 0.00220396)
(0.0103571 -0.00874887 0.0022444)
(0.0105265 -0.00698995 0.00222985)
(0.010737 -0.00347894 0.00224399)
(0.0107319 0.0037964 0.0023917)
(0.010537 0.0113671 0.00255284)
(0.0101508 0.0281695 0.00297907)
(0.00916271 0.0524845 0.00371857)
(0.00728691 0.0855268 0.0046342)
(0.00471947 0.123674 0.00509646)
(0.00189019 0.14995 0.00440328)
(8.90324e-05 0.108488 0.00203979)
(0.000159089 -0.0537397 -6.76973e-05)
(0.000577353 -0.0966663 -0.000281174)
(0.000911444 -0.0997313 -0.00040753)
(0.00127896 -0.0924591 -0.000457315)
(0.00166694 -0.0794574 -0.000441688)
(0.00204156 -0.0640823 -0.000359059)
(0.00244359 -0.048937 -0.000235609)
(0.00288528 -0.0355761 -0.00011191)
(0.00336682 -0.0250377 -2.61817e-05)
(0.00385585 -0.0181987 4.29957e-06)
(0.00426897 -0.0148887 -1.00915e-05)
(0.00464062 -0.0133212 -1.82353e-05)
(0.00500899 -0.0124819 2.1764e-05)
(0.00536808 -0.012023 0.000107989)
(0.00571629 -0.0117851 0.000228314)
(0.00603079 -0.0117233 0.000364317)
(0.0063517 -0.0117712 0.00053248)
(0.00664736 -0.0118618 0.000712429)
(0.00692828 -0.011984 0.000897815)
(0.00719038 -0.0121109 0.0010823)
(0.0074329 -0.0121944 0.00126022)
(0.007649 -0.0121417 0.00143031)
(0.00783129 -0.011917 0.00155961)
(0.00800562 -0.0113526 0.00166104)
(0.00812045 -0.0102985 0.00169625)
(0.00820294 -0.00844355 0.0016759)
(0.00824832 -0.00462151 0.00166009)
(0.00814813 0.00376065 0.00179505)
(0.0078821 0.0133167 0.00196903)
(0.00733799 0.0339799 0.00254986)
(0.00629106 0.0639556 0.00352001)
(0.00472081 0.101797 0.00457171)
(0.00292923 0.139301 0.00506631)
(0.00130849 0.158697 0.00444666)
(0.000158589 0.109597 0.00191891)
(0.000152521 -0.0555974 -0.000151908)
(0.000544285 -0.0996485 -0.000323472)
(0.000847283 -0.102487 -0.000433123)
(0.00117087 -0.0947564 -0.000504704)
(0.0014744 -0.0813571 -0.000553977)
(0.00173112 -0.0658912 -0.000558027)
(0.00201 -0.0510005 -0.000515331)
(0.002339 -0.0379577 -0.000438752)
(0.00271629 -0.0276519 -0.00035479)
(0.00312094 -0.020778 -0.00029055)
(0.00348003 -0.0172909 -0.00026683)
(0.00380092 -0.0156227 -0.000253636)
(0.00411679 -0.0147407 -0.000210979)
(0.00442822 -0.0142512 -0.000132125)
(0.00473584 -0.0139691 -2.65292e-05)
(0.00501986 -0.0138616 8.80348e-05)
(0.00530268 -0.0138708 0.000223387)
(0.00556873 -0.0139228 0.000371045)
(0.00582361 -0.013994 0.000522055)
(0.00606474 -0.0140587 0.000670468)
(0.00628927 -0.0140671 0.000810996)
(0.00650035 -0.0139302 0.000939829)
(0.00668147 -0.0136189 0.00103047)
(0.00685659 -0.0129355 0.00108849)
(0.00698904 -0.0117581 0.00108048)
(0.00708134 -0.00968189 0.00102361)
(0.00713396 -0.00514476 0.000989538)
(0.00704441 0.00434453 0.00105638)
(0.00686898 0.0150193 0.00122014)
(0.00642697 0.037043 0.00184086)
(0.00577394 0.0671659 0.00293598)
(0.00478087 0.104117 0.00422617)
(0.00342667 0.141895 0.00504906)
(0.00174675 0.164262 0.00446955)
(0.000273655 0.113315 0.00191265)
(0.0001878 -0.0568783 -0.00027366)
(0.000499883 -0.101464 -0.000482977)
(0.000691264 -0.104399 -0.000578163)
(0.000936991 -0.0965677 -0.000634892)
(0.00118508 -0.0831084 -0.000675436)
(0.00141548 -0.0676935 -0.000685886)
(0.00165571 -0.0530066 -0.000666517)
(0.0019466 -0.0402258 -0.000613269)
(0.00229071 -0.0300321 -0.000532834)
(0.00265424 -0.0230443 -0.000450701)
(0.00297184 -0.0193565 -0.000403335)
(0.00325085 -0.0175862 -0.000378712)
(0.00352452 -0.0166679 -0.000339535)
(0.00379932 -0.0161671 -0.000273607)
(0.00406857 -0.0158944 -0.000187908)
(0.0043364 -0.0157453 -8.60424e-05)
(0.00458568 -0.0157199 1.60929e-05)
(0.00484364 -0.015782 0.000129739)
(0.00508825 -0.0158548 0.000245793)
(0.00532995 -0.0159157 0.000357856)
(0.00556547 -0.0159023 0.000464554)
(0.00578879 -0.0157658 0.000551839)
(0.00601351 -0.0154239 0.000611195)
(0.00622923 -0.0147095 0.000633097)
(0.00642006 -0.0135019 0.000584177)
(0.00661294 -0.0113972 0.000452077)
(0.00680884 -0.00678616 0.000262532)
(0.00703256 0.00336732 0.000128785)
(0.00702334 0.0149081 0.00014921)
(0.0068528 0.0386537 0.000508307)
(0.00607151 0.0714887 0.00146561)
(0.00464352 0.112985 0.00280798)
(0.00265789 0.154404 0.00378587)
(0.000912313 0.175302 0.00349672)
(0.000115964 0.115968 0.00112881)
(0.000188414 -0.058088 -0.000256693)
(0.000443405 -0.102953 -0.000404777)
(0.000602286 -0.105727 -0.000500511)
(0.000837448 -0.097743 -0.000568885)
(0.00105012 -0.0842471 -0.00062578)
(0.00126116 -0.0688467 -0.000655633)
(0.0014733 -0.054176 -0.000656288)
(0.00170368 -0.0418163 -0.000632391)
(0.00195532 -0.0318123 -0.000572159)
(0.0022332 -0.0247792 -0.000497426)
(0.00247991 -0.0209377 -0.00044672)
(0.00269517 -0.0190864 -0.000420729)
(0.00290564 -0.0181538 -0.00038938)
(0.00311807 -0.0176669 -0.000338941)
(0.00332557 -0.0174102 -0.000273004)
(0.00353251 -0.0172697 -0.000194599)
(0.00373013 -0.0172508 -0.000117391)
(0.00393013 -0.0173254 -3.57053e-05)
(0.00411788 -0.0174144 4.68749e-05)
(0.00430615 -0.0174898 0.000125836)
(0.00448565 -0.0174821 0.00020063)
(0.004657 -0.017372 0.000255172)
(0.00483785 -0.0170591 0.000288387)
(0.00500088 -0.0163776 0.000292576)
(0.00515206 -0.0152333 0.000231273)
(0.00529829 -0.0132757 6.90525e-05)
(0.0054957 -0.00881994 -0.000209099)
(0.00563385 0.00187588 -0.000508532)
(0.00558943 0.015745 -0.000579025)
(0.00513913 0.0437201 -0.000391624)
(0.00412656 0.0809324 0.000395276)
(0.0026768 0.12479 0.00150508)
(0.00142612 0.164347 0.00229194)
(0.000470498 0.17848 0.00216247)
(3.79441e-05 0.114936 0.000589282)
(0.000204349 -0.0589922 -0.000278027)
(0.000402512 -0.104383 -0.000385906)
(0.000491067 -0.107504 -0.000449761)
(0.000686049 -0.0994704 -0.000504803)
(0.000845379 -0.0856959 -0.000563638)
(0.00100155 -0.070541 -0.000617002)
(0.00115231 -0.0557776 -0.00063643)
(0.00131494 -0.0431247 -0.000622041)
(0.00151312 -0.0331042 -0.000569011)
(0.00174489 -0.026056 -0.000495276)
(0.00195088 -0.0221106 -0.000438424)
(0.00212629 -0.0201956 -0.000407511)
(0.0022934 -0.0192439 -0.00037669)
(0.00245972 -0.0187578 -0.000332079)
(0.00261804 -0.0185096 -0.000275583)
(0.00277397 -0.0183903 -0.000210077)
(0.00292335 -0.0183357 -0.000137544)
(0.00306038 -0.0183673 -6.9133e-05)
(0.0031956 -0.0184633 -5.70363e-07)
(0.00331886 -0.0185275 6.65602e-05)
(0.0034314 -0.0185013 0.000129769)
(0.00353528 -0.0183753 0.000175603)
(0.00363647 -0.0180375 0.000204703)
(0.00371426 -0.01733 0.000210383)
(0.00377517 -0.0162029 0.000158764)
(0.00382164 -0.0142833 1.6855e-05)
(0.00385659 -0.00963981 -0.000244336)
(0.00380658 0.00214013 -0.000519211)
(0.00357653 0.0190708 -0.000566871)
(0.0030689 0.0494779 -0.000284287)
(0.00242206 0.088116 0.000387138)
(0.00169012 0.130484 0.00118089)
(0.00092672 0.166882 0.00167163)
(0.000415485 0.183474 0.00114764)
(0.000223512 0.114627 -9.69821e-05)
(0.000223817 -0.0597608 -0.000292673)
(0.000401321 -0.105069 -0.000398635)
(0.000401666 -0.108112 -0.000441578)
(0.000492762 -0.100016 -0.000482468)
(0.000558221 -0.0863305 -0.000529893)
(0.000592559 -0.0707767 -0.000565598)
(0.000712187 -0.0561225 -0.000575682)
(0.000881722 -0.0437871 -0.000566486)
(0.00108013 -0.0341329 -0.000530497)
(0.0012868 -0.0271562 -0.000467416)
(0.00146531 -0.0230937 -0.00041124)
(0.00161118 -0.0210946 -0.000377914)
(0.00174577 -0.0201065 -0.000347606)
(0.00187848 -0.0196014 -0.000307265)
(0.00200235 -0.019336 -0.000257622)
(0.00212116 -0.0191981 -0.000200976)
(0.00223429 -0.0191251 -0.000139017)
(0.00233883 -0.0191322 -7.95317e-05)
(0.00243652 -0.0191911 -1.98889e-05)
(0.0025187 -0.0192021 4.02462e-05)
(0.00259344 -0.0191618 9.1648e-05)
(0.00266345 -0.0190087 0.000133613)
(0.00271889 -0.0186051 0.000164057)
(0.00275763 -0.0178503 0.000172893)
(0.00277698 -0.0167139 0.000132208)
(0.00277358 -0.0147552 1.75391e-05)
(0.00272769 -0.00977251 -0.000191581)
(0.00260823 0.00284228 -0.000389757)
(0.00240303 0.0216756 -0.000356929)
(0.00206159 0.0523273 1.10946e-05)
(0.00146586 0.0901182 0.000688783)
(0.000913101 0.13377 0.00129411)
(0.000420571 0.17295 0.00143029)
(0.00032042 0.182027 0.00115416)
(0.0002523 0.113478 -0.000101715)
(0.000210968 -0.0604345 -0.00020589)
(0.000329416 -0.10585 -0.000301895)
(0.000318398 -0.108476 -0.000342026)
(0.000406279 -0.100219 -0.000374755)
(0.000493827 -0.0864831 -0.000411089)
(0.000592237 -0.0714431 -0.000443182)
(0.000701958 -0.0575679 -0.000468326)
(0.00083198 -0.0452459 -0.000459688)
(0.000960655 -0.0352118 -0.000423599)
(0.00109978 -0.0280516 -0.000373865)
(0.00123096 -0.0238437 -0.000329893)
(0.00133959 -0.0217715 -0.000302453)
(0.00144059 -0.0207547 -0.000276649)
(0.00153973 -0.020235 -0.000241483)
(0.00163141 -0.0199569 -0.000197995)
(0.00171852 -0.0198084 -0.000148419)
(0.00180183 -0.0197337 -9.47845e-05)
(0.00187867 -0.0196926 -3.86484e-05)
(0.00194607 -0.0196971 1.43543e-05)
(0.00200693 -0.0196997 6.6721e-05)
(0.00205906 -0.0196431 0.000112566)
(0.00210521 -0.0194593 0.000151454)
(0.00214012 -0.0190159 0.000180607)
(0.00216282 -0.0182218 0.00019217)
(0.00216724 -0.0170594 0.000166357)
(0.00214414 -0.0150274 9.33887e-05)
(0.00204809 -0.00962649 -2.18935e-05)
(0.00190282 0.00366553 -9.01108e-05)
(0.00172646 0.0238395 2.34435e-05)
(0.0014664 0.0562448 0.000384577)
(0.00106796 0.0967674 0.000874823)
(0.000570543 0.136183 0.00157135)
(0.000509967 0.171255 0.00166341)
(0.000644569 0.182722 0.00127457)
(0.000337474 0.113171 0.000235468)
(0.000191424 -0.06073 -0.000148322)
(0.000318676 -0.106045 -0.000239593)
(0.000314773 -0.10935 -0.000288665)
(0.000397572 -0.101198 -0.000320163)
(0.000463755 -0.0876536 -0.000350542)
(0.000547633 -0.0723508 -0.000380749)
(0.000584952 -0.0575721 -0.000397996)
(0.000620505 -0.0452549 -0.000401604)
(0.000696149 -0.0354707 -0.000376931)
(0.000809829 -0.028483 -0.000335177)
(0.000924321 -0.0243189 -0.000296326)
(0.00101733 -0.022246 -0.00027086)
(0.00110184 -0.0212231 -0.000247025)
(0.00118396 -0.0206969 -0.00021587)
(0.00125958 -0.0204108 -0.000178334)
(0.0013312 -0.0202533 -0.00013634)
(0.0013986 -0.0201698 -9.16438e-05)
(0.00146158 -0.0201228 -4.56855e-05)
(0.00151959 -0.0201163 -2.47717e-06)
(0.00157243 -0.0201029 3.91075e-05)
(0.00161727 -0.0200251 7.50873e-05)
(0.00165633 -0.0198103 0.00010481)
(0.00168616 -0.0193335 0.000125824)
(0.00170624 -0.0185049 0.000131143)
(0.00170822 -0.0173088 0.00010346)
(0.0016768 -0.0151913 3.20519e-05)
(0.00157485 -0.00944064 -8.29638e-05)
(0.0014275 0.00463808 -0.000149333)
(0.00131807 0.0256697 -2.00701e-05)
(0.00122614 0.0579518 0.000352619)
(0.00117122 0.0968479 0.000829019)
(0.00102744 0.137366 0.00135141)
(0.000547337 0.171155 0.00159384)
(0.000552437 0.183368 0.00122948)
(0.000342246 0.113232 0.000316204)
(0.000218686 -0.061008 -0.000137947)
(0.000332576 -0.107194 -0.00020163)
(0.000287417 -0.110066 -0.000231357)
(0.000320258 -0.10133 -0.000249988)
(0.000371806 -0.0874878 -0.000278958)
(0.000412317 -0.072321 -0.000310251)
(0.000426269 -0.0580225 -0.000332052)
(0.000455796 -0.0457673 -0.00033237)
(0.000539209 -0.0360348 -0.000312181)
(0.0006485 -0.0290939 -0.000280594)
(0.000747526 -0.0248313 -0.000246529)
(0.000825874 -0.022696 -0.000224229)
(0.00089477 -0.0216488 -0.000204532)
(0.000961188 -0.0211133 -0.000179395)
(0.00102217 -0.0208219 -0.000149192)
(0.00108015 -0.0206602 -0.00011565)
(0.00113491 -0.0205737 -8.04166e-05)
(0.00118687 -0.0205315 -4.5142e-05)
(0.00123522 -0.020516 -1.17554e-05)
(0.0012787 -0.0204955 1.85536e-05)
(0.00131763 -0.0204198 4.39261e-05)
(0.00135354 -0.0201957 6.39515e-05)
(0.00138048 -0.0196974 7.77733e-05)
(0.00140555 -0.018868 7.59159e-05)
(0.00141322 -0.0176875 4.12611e-05)
(0.00138931 -0.0155927 -4.62155e-05)
(0.00133396 -0.00978743 -0.000215314)
(0.00125206 0.00461663 -0.000372474)
(0.00116411 0.026449 -0.000371083)
(0.000876276 0.0589953 -0.000104758)
(0.000741962 0.0972332 0.00047467)
(0.000546309 0.140931 0.000911429)
(0.000270281 0.17464 0.00112797)
(0.000420448 0.182816 0.000962787)
(0.000314232 0.112827 0.000165258)
(0.000255919 -0.0611321 -0.000137907)
(0.000323156 -0.107701 -0.000178392)
(0.000202911 -0.11016 -0.000184542)
(0.000226107 -0.102146 -0.000206759)
(0.000245652 -0.0886077 -0.000233232)
(0.000258607 -0.0728952 -0.000251821)
(0.00029102 -0.0581194 -0.000262684)
(0.000342856 -0.045855 -0.000263313)
(0.000400523 -0.0363889 -0.000255557)
(0.000472844 -0.0293904 -0.000229005)
(0.000549399 -0.0251185 -0.00020026)
(0.000609357 -0.0229703 -0.000179632)
(0.000659954 -0.0219155 -0.000160571)
(0.00070697 -0.0213754 -0.000136189)
(0.000748643 -0.0210793 -0.000106958)
(0.000786481 -0.0209124 -7.44861e-05)
(0.000820139 -0.0208219 -4.0306e-05)
(0.000849838 -0.0207786 -5.90093e-06)
(0.000875031 -0.0207594 2.72871e-05)
(0.000894082 -0.0207314 5.79716e-05)
(0.00090476 -0.0206406 8.49552e-05)
(0.000904987 -0.0204026 0.000107333)
(0.000903302 -0.0199114 0.000123405)
(0.000890371 -0.0190713 0.00013147)
(0.000861124 -0.0178922 0.000121959)
(0.000797465 -0.0157802 9.09123e-05)
(0.000651401 -0.0096555 4.6838e-05)
(0.000502279 0.00565791 2.76963e-05)
(0.000405493 0.0300557 9.08229e-05)
(0.00036539 0.0634188 0.000267337)
(0.000240244 0.101 0.000589213)
(0.000289374 0.140337 0.000886472)
(0.000276891 0.173042 0.00104685)
(0.000539952 0.181964 0.00084632)
(0.000432993 0.112742 0.000136615)
(0.000249666 -0.0614632 -0.000124586)
(0.000283817 -0.107459 -0.00013406)
(0.000226744 -0.11015 -0.000134166)
(0.00028382 -0.101927 -0.000151063)
(0.000262767 -0.0884669 -0.000176763)
(0.000233072 -0.0729171 -0.000195201)
(0.000248672 -0.0590431 -0.000218938)
(0.000292038 -0.0463333 -0.000216663)
(0.00033882 -0.0364891 -0.00020556)
(0.000399663 -0.0296271 -0.000186984)
(0.00046176 -0.025349 -0.000164196)
(0.000510483 -0.0231839 -0.000147845)
(0.000551412 -0.0221166 -0.000133361)
(0.000589333 -0.021567 -0.000115059)
(0.000623234 -0.0212611 -9.31816e-05)
(0.000653986 -0.0210842 -6.91411e-05)
(0.00068106 -0.0209842 -4.43342e-05)
(0.000704202 -0.0209309 -2.00611e-05)
(0.000722985 -0.0208969 2.47433e-06)
(0.000736949 -0.0208429 2.21927e-05)
(0.000743434 -0.0207066 3.8223e-05)
(0.000741637 -0.0204314 4.91666e-05)
(0.000733018 -0.0199226 5.42822e-05)
(0.000716133 -0.0190791 5.22825e-05)
(0.000681231 -0.0179014 3.79328e-05)
(0.000597107 -0.0157795 7.55613e-06)
(0.000408412 -0.0096005 -2.94025e-05)
(0.00025844 0.00556406 8.45857e-06)
(0.000357046 0.0292668 0.000159612)
(0.000594898 0.0621076 0.000391552)
(0.000641169 0.0999271 0.000689824)
(0.00058984 0.141276 0.000905261)
(0.000425496 0.172323 0.00104028)
(0.000699518 0.183419 0.000777542)
(0.000532575 0.112499 0.000188895)
(0.000186419 -0.0614138 -7.39193e-05)
(0.000287525 -0.107426 -8.19394e-05)
(0.000212805 -0.111547 -9.97543e-05)
(0.000266082 -0.102674 -0.000103838)
(0.000265694 -0.0887164 -0.000113826)
(0.000238456 -0.0732499 -0.000127947)
(0.000221454 -0.058591 -0.000136981)
(0.000237767 -0.0465807 -0.000151188)
(0.000261233 -0.0366854 -0.000147471)
(0.000310199 -0.029761 -0.000138645)
(0.000360963 -0.0254823 -0.00012456)
(0.000401421 -0.02333 -0.000112868)
(0.000435112 -0.0222756 -0.000101082)
(0.000465753 -0.0217345 -8.51603e-05)
(0.000492841 -0.0214324 -6.57377e-05)
(0.000517087 -0.0212562 -4.42455e-05)
(0.000537972 -0.0211555 -2.20328e-05)
(0.000555162 -0.0211019 -3.75231e-07)
(0.000568179 -0.021069 1.9505e-05)
(0.000576179 -0.0210186 3.65081e-05)
(0.000580148 -0.0208951 4.96233e-05)
(0.000578249 -0.0206064 5.85654e-05)
(0.000572632 -0.0200834 6.18279e-05)
(0.000560734 -0.019225 5.77287e-05)
(0.000530821 -0.0180293 4.10708e-05)
(0.000458187 -0.0158525 6.31241e-06)
(0.000293039 -0.00945698 -4.71437e-05)
(0.000154422 0.0057539 -6.78149e-05)
(0.000145492 0.0293473 3.83575e-05)
(0.000260695 0.0629248 0.000276078)
(0.000371948 0.102504 0.000544749)
(0.000438902 0.141847 0.000804791)
(0.000421157 0.174935 0.000881764)
(0.000658062 0.181818 0.000745212)
(0.000464529 0.112324 0.000183367)
(0.000232768 -0.0615014 -6.18139e-05)
(0.000346489 -0.108165 -8.83209e-05)
(0.000193428 -0.111486 -8.97295e-05)
(0.000121649 -0.103106 -8.80664e-05)
(0.000106333 -0.0887561 -8.14442e-05)
(0.000110327 -0.0733004 -8.46605e-05)
(0.000102491 -0.05915 -9.17782e-05)
(0.000120511 -0.0465105 -9.15258e-05)
(0.000169889 -0.0367458 -9.1068e-05)
(0.000220339 -0.0298477 -8.33961e-05)
(0.000268726 -0.0256027 -7.66201e-05)
(0.000306688 -0.0234513 -7.034e-05)
(0.000337196 -0.0223908 -6.26346e-05)
(0.000362949 -0.0218409 -5.08422e-05)
(0.00038408 -0.0215292 -3.56299e-05)
(0.000401751 -0.0213433 -1.82246e-05)
(0.000415226 -0.0212324 1.40542e-07)
(0.000424337 -0.0211665 1.82352e-05)
(0.000428891 -0.0211175 3.47862e-05)
(0.000429035 -0.0210479 4.86151e-05)
(0.000426396 -0.0209056 5.88049e-05)
(0.000422196 -0.0206196 6.49183e-05)
(0.000414728 -0.0200918 6.69806e-05)
(0.000402361 -0.0192318 6.4531e-05)
(0.000368546 -0.0180368 5.71406e-05)
(0.00028212 -0.0158159 5.00186e-05)
(9.30977e-05 -0.00919078 6.2542e-05)
(-8.88635e-05 0.00666436 0.000131473)
(-5.58223e-05 0.03106 0.000231307)
(0.000121044 0.0629738 0.000381246)
(0.000339352 0.101249 0.000579128)
(0.000513188 0.141497 0.000766622)
(0.000544348 0.172851 0.000858036)
(0.000789561 0.182936 0.000698635)
(0.000548417 0.11226 0.000236557)
(0.000251888 -0.0614893 -9.86901e-05)
(0.000339639 -0.108795 -0.000131786)
(0.000180455 -0.110792 -0.000123978)
(0.000158887 -0.102917 -0.000115992)
(9.82213e-05 -0.0894152 -0.000109561)
(8.06498e-05 -0.0737913 -0.00010996)
(5.28417e-05 -0.0592959 -0.000118952)
(4.25692e-05 -0.0469771 -0.000121711)
(9.72897e-05 -0.0371212 -0.000115014)
(0.000166733 -0.0300415 -0.000106051)
(0.000229964 -0.025742 -9.39484e-05)
(0.000275933 -0.0235992 -8.62788e-05)
(0.000312234 -0.0225415 -7.99989e-05)
(0.000343904 -0.0219807 -7.14555e-05)
(0.000372741 -0.0216686 -6.10069e-05)
(0.00039805 -0.0214759 -4.91455e-05)
(0.000420046 -0.0213525 -3.70223e-05)
(0.00044066 -0.0212934 -2.63784e-05)
(0.000456394 -0.0212509 -1.7697e-05)
(0.00047016 -0.0212161 -1.24844e-05)
(0.000481421 -0.0211233 -1.15316e-05)
(0.000490244 -0.0208774 -1.57871e-05)
(0.000497337 -0.0203638 -2.59205e-05)
(0.000502101 -0.0195043 -4.23968e-05)
(0.000487458 -0.0183028 -6.66395e-05)
(0.000419149 -0.0160996 -9.93359e-05)
(0.000254533 -0.00962749 -0.000129554)
(0.000153679 0.00592516 -9.85244e-05)
(0.000227971 0.0300168 3.46756e-05)
(0.000323944 0.0626977 0.000226593)
(0.000219549 0.102114 0.000443409)
(0.000378884 0.141785 0.000645228)
(0.000419119 0.17427 0.000719494)
(0.000654737 0.182632 0.00061126)
(0.000528779 0.11256 0.000210923)
(0.000239571 -0.0615244 -8.8843e-05)
(0.00030896 -0.108519 -0.000124341)
(0.000163211 -0.111425 -0.000119303)
(0.000152199 -0.102708 -0.000102685)
(8.09163e-05 -0.0890389 -9.37064e-05)
(2.55974e-05 -0.0737167 -8.69557e-05)
(1.76886e-06 -0.059094 -8.1417e-05)
(-2.50664e-05 -0.0472033 -8.21301e-05)
(1.1537e-05 -0.0371249 -7.305e-05)
(7.25229e-05 -0.0301903 -6.41861e-05)
(0.000125776 -0.0259195 -5.62118e-05)
(0.000162869 -0.0237487 -5.12786e-05)
(0.000187339 -0.022678 -4.68049e-05)
(0.000208051 -0.0221189 -4.0472e-05)
(0.000225038 -0.0218022 -3.19888e-05)
(0.000239658 -0.0216047 -2.24548e-05)
(0.000252048 -0.0214986 -1.30855e-05)
(0.00025995 -0.0214288 -4.7759e-06)
(0.000265115 -0.0213697 8.82271e-07)
(0.000264186 -0.0213213 2.86432e-06)
(0.000255624 -0.0212043 1.90084e-07)
(0.000238233 -0.0209378 -7.4855e-06)
(0.00021483 -0.020422 -1.95892e-05)
(0.000183971 -0.0195711 -3.47594e-05)
(0.000133234 -0.0183874 -5.19207e-05)
(3.25337e-05 -0.016158 -7.41001e-05)
(-0.000189507 -0.00934508 -9.66003e-05)
(-0.000370162 0.00690353 -8.38689e-05)
(-0.000302311 0.0322689 1.71472e-06)
(-0.000124488 0.0662239 0.00014993)
(0.000102584 0.10357 0.000356525)
(0.000208636 0.140919 0.000556557)
(0.000295295 0.173245 0.000624394)
(0.000621896 0.182324 0.000514131)
(0.000495687 0.112185 0.000157777)
(0.00027896 -0.0617192 -4.18405e-05)
(0.000378923 -0.108582 -9.09173e-05)
(0.000210187 -0.111227 -9.26502e-05)
(0.000191935 -0.103143 -8.17347e-05)
(0.000147936 -0.0894093 -7.0132e-05)
(9.39623e-05 -0.0741119 -6.26741e-05)
(6.42893e-05 -0.0595112 -5.4445e-05)
(6.31872e-05 -0.0469583 -4.55306e-05)
(6.9943e-05 -0.0377215 -4.36825e-05)
(0.000124582 -0.0302414 -3.82824e-05)
(0.000176259 -0.025981 -3.71099e-05)
(0.000208335 -0.0237916 -3.77003e-05)
(0.000229158 -0.0227116 -3.81297e-05)
(0.0002451 -0.0221512 -3.65215e-05)
(0.000259049 -0.0218265 -3.28663e-05)
(0.000270403 -0.0216289 -2.79646e-05)
(0.000278626 -0.0215047 -2.29639e-05)
(0.000283701 -0.0214286 -1.89994e-05)
(0.000286303 -0.0213741 -1.73819e-05)
(0.000285453 -0.0212994 -1.95625e-05)
(0.000279943 -0.0211527 -2.63979e-05)
(0.000269677 -0.0208533 -3.84408e-05)
(0.000256018 -0.0203017 -5.56032e-05)
(0.000236895 -0.019423 -7.69914e-05)
(0.000192033 -0.0182198 -0.00010068)
(8.52862e-05 -0.0159558 -0.000125604)
(-0.000123991 -0.00916179 -0.000138554)
(-0.000218614 0.00674275 -7.61458e-05)
(3.00796e-05 0.030989 5.14483e-05)
(0.000432373 0.0635225 0.000194042)
(0.000799311 0.101764 0.00033064)
(0.0010327 0.141642 0.000465205)
(0.000769356 0.174369 0.00051855)
(0.000825969 0.181738 0.000454539)
(0.000486018 0.112197 0.00014345)
(0.000261022 -0.0619729 -5.23922e-06)
(0.000324965 -0.108539 -6.57701e-05)
(0.000171737 -0.111602 -7.13588e-05)
(0.000182393 -0.103028 -6.41454e-05)
(0.000174679 -0.0893105 -5.01857e-05)
(0.000150036 -0.0738336 -4.54706e-05)
(0.00013004 -0.0594987 -4.41133e-05)
(0.000141794 -0.0472073 -4.03777e-05)
(0.000125308 -0.0372128 -3.74128e-05)
(0.000141703 -0.0303814 -3.33227e-05)
(0.000182031 -0.0260817 -3.22199e-05)
(0.000214679 -0.0238773 -3.40275e-05)
(0.000242813 -0.0227902 -3.78044e-05)
(0.000268713 -0.0222438 -4.14855e-05)
(0.000292028 -0.0219286 -4.40975e-05)
(0.000314741 -0.0217334 -4.60401e-05)
(0.000335202 -0.021609 -4.82936e-05)
(0.000356305 -0.0215511 -5.24188e-05)
(0.000376618 -0.0215165 -5.95788e-05)
(0.000396316 -0.0214708 -7.11031e-05)
(0.00041512 -0.0213589 -8.81269e-05)
(0.000432992 -0.0210976 -0.000111396)
(0.000451823 -0.020583 -0.000141249)
(0.000471036 -0.0197269 -0.000178119)
(0.000469737 -0.0185378 -0.000223369)
(0.000414729 -0.0163473 -0.000282448)
(0.000261453 -0.00982199 -0.000356568)
(0.000176649 0.00597563 -0.000393476)
(0.000259319 0.0303438 -0.000312485)
(0.000438099 0.0640059 -0.000120617)
(0.000526797 0.101773 0.000125865)
(0.000578844 0.143287 0.000317281)
(0.000626609 0.175892 0.000407262)
(0.00103728 0.185052 0.000334348)
(0.000714425 0.112672 9.96882e-05)
(0.000280246 -0.0618474 -3.59209e-05)
(0.000350735 -0.108878 -8.12062e-05)
(0.000195685 -0.111732 -8.64495e-05)
(0.000181423 -0.103844 -7.30439e-05)
(8.32017e-05 -0.0901375 -6.20162e-05)
(-8.0835e-06 -0.0749325 -5.35374e-05)
(-8.58542e-05 -0.0599931 -4.94053e-05)
(-0.000107798 -0.0471522 -4.20846e-05)
(-5.13076e-05 -0.0373027 -3.16722e-05)
(1.57917e-05 -0.030275 -2.38392e-05)
(6.54584e-05 -0.0260489 -2.25051e-05)
(9.70094e-05 -0.0239519 -2.51757e-05)
(0.000117335 -0.0229056 -2.82251e-05)
(0.000133677 -0.0223563 -3.03463e-05)
(0.000147102 -0.022045 -3.15181e-05)
(0.000158663 -0.0218607 -3.21801e-05)
(0.000168072 -0.0217484 -3.33742e-05)
(0.000174099 -0.0217019 -3.63013e-05)
(0.000176523 -0.0216782 -4.23702e-05)
(0.000174438 -0.0216415 -5.28724e-05)
(0.000166819 -0.021536 -6.87535e-05)
(0.000153291 -0.0212798 -9.03063e-05)
(0.000136426 -0.0207721 -0.000116801)
(0.000114663 -0.0199267 -0.000146704)
(7.01563e-05 -0.0187557 -0.000178227)
(-3.40156e-05 -0.0165564 -0.000216808)
(-0.000268194 -0.00976327 -0.000269254)
(-0.000474026 0.00663957 -0.000306448)
(-0.000398983 0.0324009 -0.000283679)
(-0.000185585 0.065977 -0.000162403)
(-4.6416e-05 0.105158 2.1464e-05)
(0.000153178 0.143022 0.000215136)
(0.00023444 0.17491 0.000312879)
(0.000721356 0.183395 0.000282818)
(0.000591996 0.112375 0.000105227)
(0.000347414 -0.0619256 -9.9119e-05)
(0.000499009 -0.10942 -0.000115026)
(0.000268396 -0.112306 -0.000103638)
(0.000187824 -0.103099 -8.26094e-05)
(4.44661e-05 -0.0891488 -7.39795e-05)
(-9.26632e-05 -0.0736161 -7.25436e-05)
(-0.000213356 -0.0597314 -7.34003e-05)
(-0.000261813 -0.0474783 -6.56333e-05)