/*--------------------------------*- C++ -*----------------------------------*\
  =========                 |
  \\      /  F ield         | OpenFOAM: The Open Source CFD Toolbox
   \\    /   O peration     | Website:  https://openfoam.org
    \\  /    A nd           | Version:  13
     \\/     M anipulation  |
\*---------------------------------------------------------------------------*/
FoamFile
{
    format      ascii;
    class       volScalarField;
    location    "7";
    object      difft;
}
// * * * * * * * * * * * * * * * * * * * * * * * * * * * * * * * * * * * * * //

dimensions      [0 2 -1 0 0 0 0];

internalField   nonuniform List<scalar> 
78750
(
1.64543e-09
2.60756e-07
2.75037e-06
4.16964e-06
5.42445e-06
6.57856e-06
7.21133e-06
7.92104e-06
8.66063e-06
9.90873e-06
1.13283e-05
1.06847e-05
1.0175e-05
9.22039e-06
9.38138e-06
9.44211e-06
8.98338e-06
8.45775e-06
7.92488e-06
7.42026e-06
6.95661e-06
6.53247e-06
6.15043e-06
5.8054e-06
5.51185e-06
5.24886e-06
5.04107e-06
4.82351e-06
4.67124e-06
4.57539e-06
4.04315e-06
3.16807e-06
2.91977e-06
6.28905e-07
4.4166e-09
1.06917e-09
2.73603e-07
6.69891e-06
1.24703e-05
1.19644e-05
1.18292e-05
1.33364e-05
1.3803e-05
1.25134e-05
1.46244e-05
2.97919e-05
6.66694e-05
6.73524e-05
4.99096e-05
4.38592e-05
3.79068e-05
3.45126e-05
3.31494e-05
3.20315e-05
3.27496e-05
3.40735e-05
3.60761e-05
3.88234e-05
4.49096e-05
5.86264e-05
7.36641e-05
6.44326e-05
3.69607e-05
2.28891e-05
1.41691e-05
9.76184e-06
7.65379e-06
6.3415e-06
9.93647e-07
5.48727e-09
2.0813e-09
5.34433e-07
1.43771e-05
1.53688e-05
1.23064e-05
1.08267e-05
1.01515e-05
1.03276e-05
1.21941e-05
1.877e-05
3.91448e-05
7.18083e-05
7.43325e-05
6.99475e-05
6.64749e-05
6.39632e-05
6.28227e-05
6.28207e-05
6.36949e-05
6.5348e-05
6.84577e-05
7.37316e-05
7.74026e-05
7.67436e-05
7.65203e-05
7.43005e-05
4.24242e-05
2.38967e-05
1.48342e-05
9.86122e-06
7.4067e-06
5.77069e-06
5.62347e-06
9.53431e-07
4.76128e-09
2.18738e-09
5.6177e-07
1.44106e-05
1.45049e-05
1.10686e-05
9.71793e-06
9.78888e-06
1.05827e-05
1.18487e-05
1.48646e-05
2.42439e-05
4.99261e-05
7.72399e-05
7.59732e-05
7.46941e-05
7.3575e-05
7.26363e-05
7.18599e-05
7.12055e-05
7.0646e-05
7.01922e-05
6.99282e-05
7.00147e-05
7.07997e-05
7.06437e-05
4.4205e-05
3.0812e-05
1.77282e-05
1.12e-05
7.61517e-06
5.67876e-06
4.92101e-06
5.57057e-06
9.2663e-07
4.45456e-09
2.35934e-09
6.03252e-07
1.51014e-05
1.26553e-05
1.03366e-05
9.586e-06
9.96252e-06
1.14022e-05
1.36328e-05
1.7858e-05
2.82714e-05
5.24351e-05
7.82103e-05
7.61765e-05
7.43486e-05
7.28136e-05
7.15542e-05
7.05271e-05
6.97098e-05
6.91006e-05
6.87491e-05
6.87718e-05
6.93549e-05
7.08823e-05
5.93955e-05
3.37052e-05
2.54664e-05
1.62665e-05
9.94847e-06
7.3214e-06
5.6461e-06
4.64888e-06
4.92275e-06
9.21435e-07
4.37664e-09
2.40936e-09
6.1572e-07
1.50132e-05
1.29312e-05
1.06854e-05
9.83291e-06
1.00616e-05
1.13598e-05
1.33517e-05
1.71444e-05
2.59594e-05
4.68451e-05
7.75524e-05
7.5128e-05
7.28403e-05
7.08961e-05
6.93357e-05
6.81334e-05
6.72661e-05
6.67588e-05
6.66919e-05
6.71081e-05
6.82967e-05
7.04188e-05
6.29174e-05
3.29945e-05
2.36201e-05
1.44743e-05
8.82405e-06
6.16384e-06
4.66763e-06
4.08249e-06
4.64624e-06
8.54035e-07
3.78848e-09
2.49649e-09
6.38845e-07
1.51542e-05
1.27729e-05
1.04501e-05
9.76429e-06
1.00059e-05
1.08431e-05
1.27245e-05
1.69953e-05
2.60536e-05
4.6312e-05
7.68451e-05
7.45072e-05
7.22328e-05
7.02716e-05
6.86919e-05
6.75052e-05
6.67143e-05
6.636e-05
6.6499e-05
6.72816e-05
6.88385e-05
7.11885e-05
5.7605e-05
2.8374e-05
1.89895e-05
1.26018e-05
7.57405e-06
5.33976e-06
4.43604e-06
4.2255e-06
5.13549e-06
8.33231e-07
3.73668e-09
2.5701e-09
6.56105e-07
1.52858e-05
1.29205e-05
1.06087e-05
9.95715e-06
1.0206e-05
1.11324e-05
1.29119e-05
1.65961e-05
2.48629e-05
4.31567e-05
7.50237e-05
7.42672e-05
7.19824e-05
7.00168e-05
6.8438e-05
6.72821e-05
6.65739e-05
6.63616e-05
6.66823e-05
6.77325e-05
6.95876e-05
7.22399e-05
4.95127e-05
2.58565e-05
1.84705e-05
1.15815e-05
7.32799e-06
5.4053e-06
4.46413e-06
4.12823e-06
4.73966e-06
8.34913e-07
3.82296e-09
2.59713e-09
6.62841e-07
1.5285e-05
1.32394e-05
1.0632e-05
1.00008e-05
1.03097e-05
1.13395e-05
1.3323e-05
1.72912e-05
2.51907e-05
4.28464e-05
7.45784e-05
7.44549e-05
7.19822e-05
6.99072e-05
6.8293e-05
6.71528e-05
6.6501e-05
6.63709e-05
6.67883e-05
6.79553e-05
6.99233e-05
7.26836e-05
5.08738e-05
2.59987e-05
1.69074e-05
1.11654e-05
7.11699e-06
4.99094e-06
4.06133e-06
3.86058e-06
5.00611e-06
8.58229e-07
3.81653e-09
2.64752e-09
6.74411e-07
1.52484e-05
1.26794e-05
1.06022e-05
1.01039e-05
1.04132e-05
1.14074e-05
1.33171e-05
1.68816e-05
2.4593e-05
4.16225e-05
7.29001e-05
7.41672e-05
7.17155e-05
6.96718e-05
6.81141e-05
6.70539e-05
6.64956e-05
6.64858e-05
6.70426e-05
6.83693e-05
7.04802e-05
7.33767e-05
5.61209e-05
2.75313e-05
1.57053e-05
1.05681e-05
6.54838e-06
4.47367e-06
3.96859e-06
4.12174e-06
5.36057e-06
8.81013e-07
3.81044e-09
2.66377e-09
6.78079e-07
1.52503e-05
1.27372e-05
1.05984e-05
1.00982e-05
1.05722e-05
1.16576e-05
1.378e-05
1.7624e-05
2.44762e-05
4.05609e-05
7.02976e-05
7.42634e-05
7.17103e-05
6.9646e-05
6.81127e-05
6.71108e-05
6.66538e-05
6.67638e-05
6.75213e-05
6.89834e-05
7.11482e-05
7.38744e-05
5.9907e-05
2.68558e-05
1.22481e-05
8.62265e-06
5.94446e-06
4.32619e-06
3.93195e-06
4.11425e-06
5.63017e-06
8.87373e-07
3.85083e-09
2.68832e-09
6.82748e-07
1.51362e-05
1.24302e-05
1.05504e-05
1.02401e-05
1.0872e-05
1.18692e-05
1.35192e-05
1.70977e-05
2.39172e-05
3.89349e-05
6.86256e-05
7.43338e-05
7.17548e-05
6.96906e-05
6.82008e-05
6.72834e-05
6.69461e-05
6.72042e-05
6.81491e-05
6.98113e-05
7.21574e-05
7.49895e-05
5.90039e-05
2.48176e-05
1.19753e-05
7.91366e-06
5.48167e-06
4.246e-06
4.03108e-06
4.32584e-06
6.57075e-06
9.52445e-07
4.12269e-09
2.69399e-09
6.84607e-07
1.50408e-05
1.25253e-05
1.07286e-05
1.02554e-05
1.05743e-05
1.15359e-05
1.3295e-05
1.66399e-05
2.38848e-05
3.88328e-05
6.74918e-05
7.39954e-05
7.16007e-05
6.96546e-05
6.82639e-05
6.74493e-05
6.72291e-05
6.76195e-05
6.87044e-05
7.04757e-05
7.28483e-05
7.55773e-05
5.25514e-05
2.14265e-05
1.07993e-05
7.08973e-06
5.17704e-06
4.36112e-06
4.34337e-06
4.68484e-06
6.69892e-06
9.76491e-07
4.22951e-09
2.69987e-09
6.85736e-07
1.4993e-05
1.25064e-05
1.04598e-05
1.00771e-05
1.04253e-05
1.14413e-05
1.36007e-05
1.72228e-05
2.35425e-05
3.81055e-05
6.50531e-05
7.41462e-05
7.16915e-05
6.97325e-05
6.83503e-05
6.7562e-05
6.73844e-05
6.7831e-05
6.89792e-05
7.08143e-05
7.32652e-05
7.61524e-05
5.19254e-05
2.11999e-05
1.07115e-05
7.08101e-06
5.19041e-06
4.37921e-06
4.12896e-06
4.7816e-06
7.8068e-06
1.01063e-06
4.37113e-09
2.74393e-09
6.96709e-07
1.50436e-05
1.23255e-05
1.05933e-05
1.01715e-05
1.05148e-05
1.15334e-05
1.367e-05
1.71305e-05
2.37487e-05
3.74294e-05
6.43532e-05
7.41477e-05
7.17256e-05
6.97784e-05
6.84207e-05
6.76722e-05
6.75435e-05
6.80408e-05
6.92236e-05
7.10732e-05
7.35283e-05
7.64883e-05
5.24177e-05
2.15049e-05
1.01153e-05
6.48309e-06
4.87235e-06
4.31598e-06
4.60854e-06
5.36461e-06
7.56475e-06
1.03765e-06
4.49103e-09
2.76537e-09
7.01473e-07
1.49798e-05
1.2356e-05
1.08208e-05
1.00015e-05
1.01956e-05
1.15951e-05
1.35933e-05
1.73497e-05
2.49832e-05
3.79424e-05
6.34295e-05
7.41113e-05
7.16891e-05
6.9788e-05
6.8487e-05
6.7799e-05
6.77359e-05
6.83055e-05
6.95505e-05
7.14351e-05
7.38789e-05
7.67583e-05
5.02853e-05
2.0573e-05
9.6108e-06
6.25543e-06
4.98022e-06
4.57812e-06
4.64664e-06
5.35664e-06
7.88076e-06
1.04432e-06
4.52783e-09
2.79468e-09
7.08355e-07
1.50608e-05
1.27994e-05
1.02745e-05
9.74112e-06
1.04184e-05
1.1557e-05
1.3711e-05
1.70018e-05
2.34149e-05
3.6669e-05
6.2776e-05
7.40062e-05
7.17042e-05
6.98422e-05
6.85589e-05
6.7888e-05
6.78493e-05
6.84535e-05
6.97361e-05
7.16433e-05
7.40181e-05
7.6509e-05
4.7377e-05
1.92288e-05
9.38615e-06
6.18629e-06
5.00349e-06
4.559e-06
4.65144e-06
5.27819e-06
8.30147e-06
1.08699e-06
4.69434e-09
2.79882e-09
7.09389e-07
1.49772e-05
1.19571e-05
1.03296e-05
1.01684e-05
1.03316e-05
1.13915e-05
1.34404e-05
1.7007e-05
2.48816e-05
3.83041e-05
6.28833e-05
7.4314e-05
7.18169e-05
6.99028e-05
6.86169e-05
6.79655e-05
6.7952e-05
6.85843e-05
6.98888e-05
7.18292e-05
7.4318e-05
7.72409e-05
4.78099e-05
1.9606e-05
9.05751e-06
5.96241e-06
4.98284e-06
4.82867e-06
4.94629e-06
5.51748e-06
8.17245e-06
1.10573e-06
4.79348e-09
2.8046e-09
7.10548e-07
1.49968e-05
1.22411e-05
1.05412e-05
1.00093e-05
1.04154e-05
1.13507e-05
1.34452e-05
1.70608e-05
2.35303e-05
3.78278e-05
6.22448e-05
7.43068e-05
7.18838e-05
6.99942e-05
6.8716e-05
6.80694e-05
6.8062e-05
6.86978e-05
6.99896e-05
7.1869e-05
7.4173e-05
7.66103e-05
4.60897e-05
1.80407e-05
8.97402e-06
6.05903e-06
5.02221e-06
4.71528e-06
4.87747e-06
5.65017e-06
8.46105e-06
1.11764e-06
4.85609e-09
2.80866e-09
7.11897e-07
1.50111e-05
1.26616e-05
1.07888e-05
9.75687e-06
9.97647e-06
1.14596e-05
1.35694e-05
1.70365e-05
2.46147e-05
3.85099e-05
6.29495e-05
7.43965e-05
7.1899e-05
7.00012e-05
6.87398e-05
6.81254e-05
6.8161e-05
6.88503e-05
7.01901e-05
7.21149e-05
7.44588e-05
7.69372e-05
4.54278e-05
1.75875e-05
8.73952e-06
6.05087e-06
5.1499e-06
4.93732e-06
4.98308e-06
5.62911e-06
9.08856e-06
1.16618e-06
5.02923e-09
2.80308e-09
7.12072e-07
1.49987e-05
1.20041e-05
1.04042e-05
1.01425e-05
1.05013e-05
1.14115e-05
1.33084e-05
1.65386e-05
2.322e-05
3.77299e-05
6.24865e-05
7.42519e-05
7.18626e-05
7.00013e-05
6.87634e-05
6.81667e-05
6.82224e-05
6.89399e-05
7.03186e-05
7.22889e-05
7.46734e-05
7.48944e-05
4.32052e-05
1.7289e-05
8.8039e-06
6.17123e-06
5.22136e-06
4.95365e-06
5.04205e-06
5.76681e-06
8.7317e-06
1.17614e-06
5.09156e-09
2.81115e-09
7.13029e-07
1.50868e-05
1.26979e-05
1.0529e-05
9.88049e-06
1.02866e-05
1.16268e-05
1.35932e-05
1.69106e-05
2.31442e-05
3.68762e-05
6.08412e-05
7.41636e-05
7.18385e-05
7.00119e-05
6.87871e-05
6.81888e-05
6.82317e-05
6.89312e-05
7.02923e-05
7.22495e-05
7.46406e-05
7.56787e-05
4.48831e-05
1.76335e-05
8.93964e-06
6.12952e-06
5.19442e-06
4.97576e-06
5.10276e-06
5.83846e-06
8.50902e-06
1.17439e-06
5.10137e-09
2.81171e-09
7.13222e-07
1.50782e-05
1.2657e-05
1.05374e-05
1.03541e-05
1.06224e-05
1.1273e-05
1.34119e-05
1.6847e-05
2.32766e-05
3.68283e-05
6.19525e-05
7.40847e-05
7.18158e-05
7.00238e-05
6.88246e-05
6.82498e-05
6.83101e-05
6.90161e-05
7.03709e-05
7.23141e-05
7.46974e-05
7.70247e-05
4.48969e-05
1.75591e-05
8.81678e-06
6.03542e-06
5.04699e-06
4.90785e-06
5.26965e-06
6.01715e-06
8.93298e-06
1.20419e-06
5.14122e-09
2.79289e-09
7.07027e-07
1.4884e-05
1.24307e-05
1.06261e-05
9.72526e-06
1.013e-05
1.16921e-05
1.36557e-05
1.70296e-05
2.31371e-05
3.64327e-05
6.00383e-05
7.41864e-05
7.18883e-05
7.00869e-05
6.88884e-05
6.83207e-05
6.8393e-05
6.91113e-05
7.04683e-05
7.23931e-05
7.47176e-05
7.50601e-05
4.27638e-05
1.73892e-05
8.77143e-06
6.17553e-06
5.25978e-06
5.02225e-06
5.1677e-06
5.93766e-06
9.01955e-06
1.2051e-06
5.17697e-09
2.81283e-09
7.12429e-07
1.48629e-05
1.23295e-05
1.04378e-05
9.89593e-06
1.03965e-05
1.15508e-05
1.36807e-05
1.70336e-05
2.30501e-05
3.57244e-05
6.1146e-05
7.41877e-05
7.19437e-05
7.01434e-05
6.89359e-05
6.83623e-05
6.84343e-05
6.91575e-05
7.05139e-05
7.24026e-05
7.46039e-05
7.51672e-05
4.34886e-05
1.71981e-05
8.82129e-06
6.17358e-06
5.22442e-06
4.99664e-06
5.06744e-06
5.9015e-06
9.11055e-06
1.22738e-06
5.26912e-09
2.81738e-09
7.13457e-07
1.49782e-05
1.2181e-05
1.03698e-05
1.02682e-05
1.05752e-05
1.13653e-05
1.3142e-05
1.66339e-05
2.31301e-05
3.61477e-05
6.13172e-05
7.40705e-05
7.18599e-05
7.00894e-05
6.89068e-05
6.83506e-05
6.84316e-05
6.91528e-05
7.0505e-05
7.23927e-05
7.4589e-05
7.60139e-05
4.32521e-05
1.70262e-05
8.70648e-06
6.10813e-06
5.06131e-06
4.91239e-06
5.3714e-06
6.20268e-06
9.26301e-06
1.21527e-06
5.25659e-09
2.80178e-09
7.11112e-07
1.4826e-05
1.23065e-05
1.07651e-05
9.8321e-06
9.98603e-06
1.14604e-05
1.37873e-05
1.73072e-05
2.45024e-05
3.70209e-05
6.14449e-05
7.42714e-05
7.19303e-05
7.01149e-05
6.89222e-05
6.83716e-05
6.84647e-05
6.91989e-05
7.05529e-05
7.2431e-05
7.46172e-05
7.61303e-05
4.34983e-05
1.67858e-05
8.38149e-06
5.94195e-06
5.32854e-06
5.16683e-06
5.28071e-06
5.98505e-06
9.0772e-06
1.23552e-06
5.27343e-09
2.80985e-09
7.11248e-07
1.4949e-05
1.28703e-05
1.02765e-05
9.8187e-06
1.05649e-05
1.18429e-05
1.41979e-05
1.77789e-05
2.27687e-05
3.45888e-05
5.79067e-05
7.42462e-05
7.19683e-05
7.01664e-05
6.89745e-05
6.84229e-05
6.85143e-05
6.92473e-05
7.05968e-05
7.24618e-05
7.46185e-05
7.58518e-05
4.33376e-05
1.6913e-05
8.50306e-06
6.0382e-06
5.23018e-06
5.08765e-06
5.09186e-06
5.90101e-06
9.44934e-06
1.25589e-06
5.38136e-09
2.83822e-09
7.16745e-07
1.48736e-05
1.18296e-05
1.026e-05
1.03321e-05
1.04927e-05
1.15969e-05
1.3965e-05
1.71774e-05
2.34577e-05
3.63496e-05
6.07377e-05
7.40669e-05
7.18558e-05
7.01017e-05
6.89438e-05
6.84133e-05
6.85197e-05
6.92628e-05
7.06192e-05
7.24941e-05
7.46695e-05
7.43743e-05
4.13506e-05
1.62979e-05
8.44416e-06
6.10397e-06
5.30141e-06
4.93289e-06
5.24019e-06
6.29955e-06
9.21932e-06
1.24004e-06
5.3645e-09
2.82989e-09
7.16036e-07
1.47673e-05
1.17576e-05
1.05412e-05
9.90738e-06
1.05967e-05
1.1885e-05
1.39355e-05
1.76798e-05
2.3732e-05
3.64495e-05
6.08479e-05
7.40944e-05
7.18558e-05
7.00957e-05
6.89442e-05
6.84235e-05
6.85403e-05
6.93006e-05
7.06886e-05
7.26048e-05
7.48232e-05
7.3958e-05
4.19632e-05
1.64331e-05
8.4397e-06
6.04495e-06
5.18521e-06
5.12831e-06
5.30537e-06
6.03956e-06
9.6878e-06
1.25558e-06
5.36101e-09
2.8082e-09
7.10275e-07
1.48484e-05
1.23882e-05
1.03716e-05
9.89591e-06
1.03195e-05
1.1762e-05
1.46998e-05
1.82326e-05
2.42605e-05
3.71789e-05
6.02438e-05
7.4271e-05
7.19197e-05
7.0113e-05
6.89429e-05
6.8412e-05
6.85214e-05
6.92711e-05
7.06406e-05
7.25358e-05
7.47434e-05
7.60808e-05
4.25784e-05
1.65273e-05
8.39371e-06
6.051e-06
5.27556e-06
5.1498e-06
5.24974e-06
6.18354e-06
9.49652e-06
1.2668e-06
5.4177e-09
2.82082e-09
7.1306e-07
1.47745e-05
1.24109e-05
1.07648e-05
9.77983e-06
9.92326e-06
1.14382e-05
1.53829e-05
1.93514e-05
2.54361e-05
3.74795e-05
6.17882e-05
7.42478e-05
7.18807e-05
7.0096e-05
6.89459e-05
6.84496e-05
6.86018e-05
6.93988e-05
7.08178e-05
7.27644e-05
7.50146e-05
7.51524e-05
4.17209e-05
1.62728e-05
8.18812e-06
5.87004e-06
5.31664e-06
5.14426e-06
5.39069e-06
6.43784e-06
9.54579e-06
1.24867e-06
5.39945e-09
2.8239e-09
7.14158e-07
1.48971e-05
1.19482e-05
9.99961e-06
1.0034e-05
1.04757e-05
1.15407e-05
1.34251e-05
1.65509e-05
2.34554e-05
3.71692e-05
6.12634e-05
7.41797e-05
7.18583e-05
7.00934e-05
6.89552e-05
6.84648e-05
6.86223e-05
6.94286e-05
7.0864e-05
7.28369e-05
7.51347e-05
7.37065e-05
4.10275e-05
1.6438e-05
8.42599e-06
6.11885e-06
5.38871e-06
5.15303e-06
5.37268e-06
6.21772e-06
9.43839e-06
1.25729e-06
5.37698e-09
2.8363e-09
7.16624e-07
1.47366e-05
1.17544e-05
1.03862e-05
9.75919e-06
1.03471e-05
1.1589e-05
1.35449e-05
1.76619e-05
2.41914e-05
3.66913e-05
6.04093e-05
7.42355e-05
7.19058e-05
7.01329e-05
6.89877e-05
6.84836e-05
6.86253e-05
6.94116e-05
7.08206e-05
7.27872e-05
7.52059e-05
7.52968e-05
4.3193e-05
1.79716e-05
8.68825e-06
6.09575e-06
5.39949e-06
5.25721e-06
5.24083e-06
6.06807e-06
1.02377e-05
1.2717e-06
5.42401e-09
2.82376e-09
7.14627e-07
1.48789e-05
1.25778e-05
1.06131e-05
9.90001e-06
9.84862e-06
1.10066e-05
1.36868e-05
1.76343e-05
2.4251e-05
3.75823e-05
6.2164e-05
7.42525e-05
7.19125e-05
7.01175e-05
6.89717e-05
6.84843e-05
6.86357e-05
6.94177e-05
7.07951e-05
7.26674e-05
7.48514e-05
7.48176e-05
4.10927e-05
1.5876e-05
8.23772e-06
6.02168e-06
5.32164e-06
5.21815e-06
5.65861e-06
6.45706e-06
9.23011e-06
1.26517e-06
5.40607e-09
2.83032e-09
7.16975e-07
1.48606e-05
1.19293e-05
1.01748e-05
9.78313e-06
1.05536e-05
1.18144e-05
1.35275e-05
1.66133e-05
2.41359e-05
3.83269e-05
6.24331e-05
7.42788e-05
7.18935e-05
7.01095e-05
6.8974e-05
6.84912e-05
6.86473e-05
6.94367e-05
7.08299e-05
7.27306e-05
7.49524e-05
7.40854e-05
4.13295e-05
1.59174e-05
8.14692e-06
6.08111e-06
5.4371e-06
5.2726e-06
5.44794e-06
6.29291e-06
9.92313e-06
1.26744e-06
5.41643e-09
2.864e-09
7.23318e-07
1.48457e-05
1.15738e-05
1.02478e-05
9.96489e-06
1.03598e-05
1.15102e-05
1.35482e-05
1.72786e-05
2.41093e-05
3.77487e-05
6.18766e-05
7.43188e-05
7.19681e-05
7.01747e-05
6.90263e-05
6.85374e-05
6.87006e-05
6.95041e-05
7.09168e-05
7.28482e-05
7.51123e-05
7.42024e-05
4.1181e-05
1.60149e-05
8.29973e-06
6.00274e-06
5.37822e-06
5.34773e-06
5.50586e-06
6.28753e-06
9.61156e-06
1.26396e-06
5.40263e-09
2.8225e-09
7.14515e-07
1.49464e-05
1.22328e-05
1.03164e-05
1.01432e-05
1.04418e-05
1.11335e-05
1.3246e-05
1.74709e-05
2.39571e-05
3.79486e-05
6.23418e-05
7.42888e-05
7.19847e-05
7.02059e-05
6.9052e-05
6.85497e-05
6.86966e-05
6.94986e-05
7.09354e-05
7.29027e-05
7.51817e-05
7.35768e-05
3.98209e-05
1.57777e-05
8.27441e-06
6.07858e-06
5.52794e-06
5.43286e-06
5.59065e-06
6.3666e-06
9.67926e-06
1.26751e-06
5.43942e-09
2.82605e-09
7.17029e-07
1.49395e-05
1.21029e-05
1.05271e-05
9.88367e-06
1.01706e-05
1.14163e-05
1.39509e-05
1.76922e-05
2.38282e-05
3.6631e-05
5.93096e-05
7.42361e-05
7.19182e-05
7.01486e-05
6.90114e-05
6.85265e-05
6.86895e-05
6.94923e-05
7.09113e-05
7.28532e-05
7.51423e-05
7.36578e-05
4.04005e-05
1.57483e-05
8.27802e-06
6.1336e-06
5.43255e-06
5.36499e-06
5.62938e-06
6.42429e-06
9.50402e-06
1.25921e-06
5.45089e-09
2.85667e-09
7.22053e-07
1.4978e-05
1.23405e-05
1.02871e-05
9.72244e-06
1.03366e-05
1.16381e-05
1.36651e-05
1.70349e-05
2.36595e-05
3.8802e-05
6.35963e-05
7.41962e-05
7.18931e-05
7.0136e-05
6.90101e-05
6.85376e-05
6.87175e-05
6.95458e-05
7.09973e-05
7.29799e-05
7.5319e-05
7.30809e-05
3.9519e-05
1.56364e-05
8.29328e-06
6.1333e-06
5.4879e-06
5.38486e-06
5.67931e-06
6.33471e-06
9.44765e-06
1.24819e-06
5.40699e-09
2.84011e-09
7.19103e-07
1.49584e-05
1.20709e-05
1.02901e-05
1.00561e-05
1.05117e-05
1.15018e-05
1.312e-05
1.65827e-05
2.41121e-05
3.86691e-05
6.36805e-05
7.42326e-05
7.19319e-05
7.01602e-05
6.90183e-05
6.85336e-05
6.86981e-05
6.9514e-05
7.09564e-05
7.2932e-05
7.52644e-05
7.32892e-05
4.03482e-05
1.58164e-05
8.40087e-06
6.28003e-06
5.53613e-06
5.33022e-06
5.609e-06
6.4643e-06
9.49091e-06
1.26438e-06
5.40805e-09
2.82134e-09
7.14019e-07
1.48656e-05
1.21878e-05
1.01386e-05
9.7952e-06
1.0257e-05
1.13304e-05
1.35888e-05
1.74783e-05
2.42874e-05
3.73931e-05
6.0932e-05
7.40244e-05
7.18209e-05
7.00889e-05
6.89662e-05
6.84883e-05
6.86607e-05
6.94799e-05
7.0922e-05
7.2896e-05
7.5234e-05
7.32006e-05
3.98024e-05
1.57111e-05
8.42138e-06
6.20254e-06
5.54189e-06
5.4554e-06
5.53472e-06
6.38772e-06
1.01767e-05
1.25006e-06
5.4184e-09
2.85162e-09
7.20082e-07
1.48105e-05
1.17869e-05
1.02847e-05
9.80748e-06
1.01378e-05
1.14442e-05
1.38247e-05
1.76709e-05
2.5289e-05
3.84228e-05
6.216e-05
7.43404e-05
7.19296e-05
7.01213e-05
6.89607e-05
6.84612e-05
6.86177e-05
6.94272e-05
7.08682e-05
7.2856e-05
7.52231e-05
7.23016e-05
3.80476e-05
1.51029e-05
8.12167e-06
6.19316e-06
5.74945e-06
5.6127e-06
5.65177e-06
6.25954e-06
9.42043e-06
1.27088e-06
5.49635e-09
2.84589e-09
7.217e-07
1.50331e-05
1.27546e-05
1.02026e-05
9.47117e-06
1.0281e-05
1.15919e-05
1.35984e-05
1.7387e-05
2.49346e-05
3.89562e-05
6.26406e-05
7.42082e-05
7.18194e-05
7.00287e-05
6.88895e-05
6.84057e-05
6.85671e-05
6.93732e-05
7.08068e-05
7.27852e-05
7.51459e-05
7.22031e-05
3.97229e-05
1.5682e-05
8.43917e-06
6.27788e-06
5.61967e-06
5.49794e-06
5.59557e-06
6.29287e-06
9.51989e-06
1.27735e-06
5.56637e-09
2.84315e-09
7.21211e-07
1.49512e-05
1.17674e-05
1.04084e-05
1.00056e-05
1.00226e-05
1.12885e-05
1.37853e-05
1.80157e-05
2.486e-05
3.84137e-05
6.38351e-05
7.40031e-05
7.17298e-05
6.99979e-05
6.88818e-05
6.84107e-05
6.85765e-05
6.93786e-05
7.0803e-05
7.27751e-05
7.51478e-05
7.32484e-05
3.96063e-05
1.56606e-05
8.47613e-06
6.328e-06
5.4653e-06
5.2842e-06
5.77305e-06
6.79975e-06
1.03756e-05
1.30057e-06
5.56697e-09
2.85151e-09
7.19681e-07
1.48753e-05
1.20531e-05
1.02855e-05
9.77987e-06
1.02903e-05
1.15351e-05
1.3699e-05
1.84618e-05
2.57236e-05
3.97718e-05
6.33118e-05
7.42668e-05
7.18505e-05
7.00575e-05
6.89233e-05
6.84495e-05
6.86205e-05
6.94358e-05
7.08755e-05
7.28575e-05
7.52296e-05
7.24073e-05
3.79245e-05
1.49794e-05
8.11359e-06
6.2318e-06
5.77941e-06
5.72171e-06
5.79201e-06
6.40097e-06
9.75207e-06
1.2922e-06
5.56923e-09
2.8735e-09
7.27341e-07
1.50508e-05
1.22835e-05
1.03153e-05
9.8362e-06
1.00732e-05
1.11902e-05
1.34313e-05
1.73772e-05
2.55338e-05
3.98684e-05
6.42281e-05
7.41776e-05
7.18254e-05
7.00541e-05
6.89223e-05
6.84468e-05
6.86186e-05
6.94313e-05
7.0866e-05
7.28407e-05
7.52049e-05
7.24907e-05
3.86181e-05
1.53129e-05
8.38566e-06
6.31745e-06
5.69616e-06
5.47461e-06
5.69342e-06
6.73048e-06
9.92419e-06
1.28575e-06
5.55763e-09
2.85312e-09
7.22587e-07
1.49435e-05
1.17721e-05
1.02516e-05
9.77701e-06
1.02596e-05
1.13699e-05
1.38701e-05
1.78453e-05
2.48128e-05
3.84083e-05
6.35052e-05
7.40725e-05
7.17608e-05
7.00254e-05
6.89219e-05
6.84703e-05
6.86562e-05
6.94704e-05
7.08854e-05
7.28086e-05
7.50481e-05
7.20676e-05
3.72504e-05
1.5054e-05
8.34495e-06
6.25602e-06
5.47259e-06
5.43122e-06
5.83292e-06
6.8353e-06
1.0447e-05
1.28046e-06
5.54874e-09
2.84101e-09
7.19212e-07
1.49266e-05
1.19153e-05
1.01066e-05
9.83331e-06
1.05236e-05
1.15663e-05
1.3339e-05
1.73738e-05
2.53093e-05
3.97792e-05
6.37625e-05
7.40451e-05
7.17657e-05
7.00475e-05
6.89621e-05
6.85318e-05
6.87489e-05
6.96051e-05
7.1068e-05
7.30336e-05
7.52977e-05
7.07282e-05
3.53753e-05
1.45688e-05
8.14505e-06
6.40308e-06
5.82703e-06
5.58523e-06
5.86263e-06
6.56781e-06
9.91088e-06
1.30017e-06
5.58156e-09
2.88266e-09
7.28681e-07
1.51075e-05
1.20273e-05
1.02968e-05
9.90385e-06
1.01962e-05
1.15149e-05
1.40619e-05
1.91373e-05
2.6498e-05
4.00432e-05
6.39413e-05
7.41613e-05
7.18033e-05
7.00534e-05
6.89503e-05
6.8503e-05
6.87008e-05
6.95438e-05
7.10048e-05
7.29892e-05
7.52947e-05
7.03263e-05
3.63355e-05
1.48217e-05
8.31295e-06
6.36841e-06
5.65648e-06
5.61132e-06
5.7529e-06
6.39685e-06
9.95781e-06
1.28408e-06
5.56697e-09
2.8764e-09
7.29463e-07
1.51269e-05
1.22488e-05
1.01739e-05
9.64389e-06
1.02571e-05
1.17104e-05
1.38337e-05
1.73654e-05
2.56015e-05
3.99307e-05
6.48541e-05
7.42101e-05
7.18364e-05
7.00669e-05
6.89518e-05
6.85012e-05
6.86987e-05
6.95401e-05
7.09997e-05
7.29814e-05
7.52954e-05
7.06156e-05
3.60488e-05
1.47957e-05
8.4271e-06
6.47146e-06
5.82721e-06
5.47623e-06
5.76555e-06
6.87403e-06
9.91351e-06
1.27723e-06
5.54798e-09
2.8493e-09
7.2477e-07
1.52621e-05
1.26794e-05
1.04352e-05
9.93901e-06
1.02139e-05
1.1287e-05
1.36247e-05
1.77596e-05
2.46469e-05
3.97014e-05
6.47205e-05
7.41547e-05
7.183e-05
7.00701e-05
6.89551e-05
6.85045e-05
6.87093e-05
6.9559e-05
7.10278e-05
7.30245e-05
7.53668e-05
7.01384e-05
3.51979e-05
1.44115e-05
8.14272e-06
6.4037e-06
5.87615e-06
5.8591e-06
6.08591e-06
6.59102e-06
9.88721e-06
1.30187e-06
5.69167e-09
2.85008e-09
7.2276e-07
1.50438e-05
1.21831e-05
1.02672e-05
9.6767e-06
1.01495e-05
1.14115e-05
1.37277e-05
1.78021e-05
2.54623e-05
4.04284e-05
6.46195e-05
7.42132e-05
7.19142e-05
7.01286e-05
6.89823e-05
6.85017e-05
6.86743e-05
6.94983e-05
7.09572e-05
7.29851e-05
7.54639e-05
7.00337e-05
3.57128e-05
1.47385e-05
8.45147e-06
6.54837e-06
5.95168e-06
5.88406e-06
5.95237e-06
6.55914e-06
9.63901e-06
1.32754e-06
5.79363e-09
2.8502e-09
7.22687e-07
1.50592e-05
1.21219e-05
1.0205e-05
9.76647e-06
1.02399e-05
1.15505e-05
1.39078e-05
1.75609e-05
2.41244e-05
3.90315e-05
6.50406e-05
7.40422e-05
7.17508e-05
7.00079e-05
6.88954e-05
6.84388e-05
6.86332e-05
6.94774e-05
7.09518e-05
7.29863e-05
7.5461e-05
7.01649e-05
3.58078e-05
1.4616e-05
8.47656e-06
6.64608e-06
5.92202e-06
5.6481e-06
6.04451e-06
7.14889e-06
1.06296e-05
1.34573e-06
5.86573e-09
2.84493e-09
7.20386e-07
1.494e-05
1.21618e-05
1.04232e-05
9.97148e-06
1.00825e-05
1.10046e-05
1.33473e-05
1.79187e-05
2.50434e-05
4.03538e-05
6.54288e-05
7.39697e-05
7.17147e-05
6.99935e-05
6.88885e-05
6.84343e-05
6.86296e-05
6.94731e-05
7.09534e-05
7.3003e-05
7.55099e-05
6.85095e-05
3.45578e-05
1.42656e-05
8.34611e-06
6.69046e-06
6.13928e-06
5.9849e-06
6.19446e-06
6.89428e-06
1.00295e-05
1.38022e-06
5.9246e-09
2.85891e-09
7.24623e-07
1.50739e-05
1.25893e-05
1.0099e-05
9.49031e-06
1.01504e-05
1.15915e-05
1.4044e-05
1.91819e-05
2.71128e-05
4.21172e-05
6.53811e-05
7.40945e-05
7.17734e-05
7.00255e-05
6.89091e-05
6.84471e-05
6.86345e-05
6.94735e-05
7.09528e-05
7.3005e-05
7.55141e-05
6.89025e-05
3.43604e-05
1.42185e-05
8.26636e-06
6.63697e-06
6.20923e-06
5.92762e-06
5.98905e-06
6.93935e-06
1.04505e-05
1.36684e-06
5.94466e-09
2.8638e-09
7.26807e-07
1.52276e-05
1.28328e-05
1.01175e-05
9.57469e-06
1.02064e-05
1.17735e-05
1.39315e-05
1.71465e-05
2.45243e-05
3.90969e-05
6.46057e-05
7.38093e-05
7.16339e-05
6.99444e-05
6.88662e-05
6.84382e-05
6.86537e-05
6.95138e-05
7.0997e-05
7.304e-05
7.55366e-05
7.03576e-05
3.4649e-05
1.43103e-05
8.30007e-06
6.46515e-06
5.94436e-06
6.00747e-06
6.30409e-06
7.12792e-06
1.10411e-05
1.40606e-06
6.07255e-09
2.86028e-09
7.24937e-07
1.49691e-05
1.2134e-05
1.03573e-05
9.99391e-06
1.02757e-05
1.12706e-05
1.36964e-05
1.8186e-05
2.55189e-05
4.14674e-05
6.73746e-05
7.37842e-05
7.15539e-05
6.98634e-05
6.88019e-05
6.83939e-05
6.86321e-05
6.95165e-05
7.10325e-05
7.31178e-05
7.56634e-05
6.85497e-05
3.3871e-05
1.41945e-05
8.37165e-06
6.58818e-06
6.05339e-06
6.05141e-06
6.36297e-06
7.14112e-06
1.02612e-05
1.39331e-06
6.00157e-09
2.87248e-09
7.2766e-07
1.50782e-05
1.21933e-05
1.00549e-05
9.44585e-06
1.0029e-05
1.18308e-05
1.48181e-05
1.87249e-05
2.6141e-05
4.12366e-05
6.72241e-05
7.36899e-05
7.15244e-05
6.98537e-05
6.87992e-05
6.83949e-05
6.86358e-05
6.95236e-05
7.10426e-05
7.31432e-05
7.57246e-05
6.78809e-05
3.2831e-05
1.37384e-05
8.20856e-06
6.72876e-06
6.30788e-06
6.22998e-06
6.29626e-06
6.88259e-06
1.06841e-05
1.40509e-06
6.04601e-09
2.90041e-09
7.33419e-07
1.50812e-05
1.19605e-05
1.00898e-05
9.68167e-06
1.01944e-05
1.16424e-05
1.53552e-05
1.9695e-05
2.68673e-05
4.09616e-05
6.56616e-05
7.38837e-05
7.16039e-05
6.98957e-05
6.8828e-05
6.84234e-05
6.86731e-05
6.95778e-05
7.11091e-05
7.32072e-05
7.57612e-05
6.74073e-05
3.27527e-05
1.39323e-05
8.39539e-06
6.79597e-06
6.29776e-06
5.95069e-06
6.23223e-06
7.38629e-06
1.10257e-05
1.40874e-06
6.07532e-09
2.89066e-09
7.31082e-07
1.50543e-05
1.17029e-05
1.02059e-05
9.97378e-06
1.02488e-05
1.10145e-05
1.33468e-05
1.80183e-05
2.58491e-05
4.10707e-05
6.69111e-05
7.35798e-05
7.14551e-05
6.98129e-05
6.87809e-05
6.83941e-05
6.8651e-05
6.95527e-05
7.10751e-05
7.31148e-05
7.54483e-05
6.62285e-05
3.16977e-05
1.37806e-05
8.30504e-06
6.68053e-06
6.19013e-06
6.17817e-06
6.47722e-06
7.31167e-06
1.06184e-05
1.40232e-06
6.0986e-09
2.90491e-09
7.3556e-07
1.52203e-05
1.20135e-05
1.01055e-05
9.45733e-06
9.95576e-06
1.15544e-05
1.41191e-05
1.9453e-05
2.71875e-05
4.24041e-05
6.84218e-05
7.37665e-05
7.1513e-05
6.9833e-05
6.87876e-05
6.84021e-05
6.86655e-05
6.95757e-05
7.11069e-05
7.31646e-05
7.55447e-05
6.66559e-05
3.09627e-05
1.34356e-05
8.16777e-06
6.67296e-06
6.36359e-06
6.39629e-06
6.48536e-06
7.33691e-06
1.07657e-05
1.42008e-06
6.10909e-09
2.90821e-09
7.35149e-07
1.5171e-05
1.19252e-05
9.99446e-06
9.71038e-06
1.01889e-05
1.15591e-05
1.39186e-05
1.76573e-05
2.60788e-05
4.18793e-05
6.76006e-05
7.37955e-05
7.15455e-05
6.98472e-05
6.87891e-05
6.83983e-05
6.86727e-05
6.96177e-05
7.1216e-05
7.33903e-05
7.59733e-05
6.51927e-05
3.09785e-05
1.37152e-05
8.47011e-06
6.87595e-06
6.36652e-06
6.30336e-06
6.41737e-06
7.15842e-06
1.09016e-05
1.42268e-06
6.12163e-09
2.90521e-09
7.34129e-07
1.51541e-05
1.19326e-05
1.00786e-05
9.78925e-06
1.01403e-05
1.10895e-05
1.36413e-05
1.83784e-05
2.67713e-05
4.26696e-05
6.75785e-05
7.38818e-05
7.16141e-05
6.98771e-05
6.87933e-05
6.83869e-05
6.86488e-05
6.95786e-05
7.11572e-05
7.33275e-05
7.59397e-05
6.49263e-05
3.10364e-05
1.36282e-05
8.47598e-06
6.85451e-06
6.35397e-06
6.21659e-06
6.47781e-06
7.47804e-06
1.0637e-05
1.4284e-06
6.15723e-09
2.89029e-09
7.29553e-07
1.4982e-05
1.14086e-05
9.80053e-06
9.54972e-06
1.0159e-05
1.14796e-05
1.37187e-05
1.8075e-05
2.62176e-05
4.21815e-05
6.77574e-05
7.37276e-05
7.15376e-05
6.98507e-05
6.87905e-05
6.83938e-05
6.86563e-05
6.9578e-05
7.11449e-05
7.32898e-05
7.59156e-05
6.46323e-05
3.11171e-05
1.35432e-05
8.5175e-06
7.01633e-06
6.42012e-06
6.35991e-06
6.62361e-06
7.36889e-06
1.04777e-05
1.41644e-06
6.18191e-09
2.87839e-09
7.29692e-07
1.51036e-05
1.17126e-05
1.00389e-05
9.59861e-06
1.00918e-05
1.1673e-05
1.40166e-05
1.92463e-05
2.71944e-05
4.2361e-05
6.80764e-05
7.37812e-05
7.14909e-05
6.98103e-05
6.87827e-05
6.84164e-05
6.87012e-05
6.96299e-05
7.11756e-05
7.32371e-05
7.56091e-05
6.43165e-05
2.96759e-05
1.33424e-05
8.42098e-06
6.88956e-06
6.43477e-06
6.43515e-06
6.82195e-06
7.38763e-06
1.08102e-05
1.43828e-06
6.18692e-09
2.87902e-09
7.29115e-07
1.51538e-05
1.19187e-05
9.99119e-06
9.737e-06
1.02059e-05
1.12168e-05
1.374e-05
1.82099e-05
2.70905e-05
4.3895e-05
6.97008e-05
7.37101e-05
7.14624e-05
6.97973e-05
6.87796e-05
6.84241e-05
6.87163e-05
6.96509e-05
7.11989e-05
7.3265e-05
7.56548e-05
6.53579e-05
2.96035e-05
1.32593e-05
8.45516e-06
7.06479e-06
6.60185e-06
6.3924e-06
6.54569e-06
7.63196e-06
1.18474e-05
1.46997e-06
6.31178e-09
2.88948e-09
7.30895e-07
1.51512e-05
1.18058e-05
9.78971e-06
9.47552e-06
1.00663e-05
1.14918e-05
1.405e-05
1.87445e-05
2.68566e-05
4.27026e-05
6.88815e-05
7.3822e-05
7.15659e-05
6.98775e-05
6.88521e-05
6.85037e-05
6.88133e-05
6.97743e-05
7.1354e-05
7.34532e-05
7.58627e-05
6.31281e-05
2.86458e-05
1.31004e-05
8.45742e-06
7.18504e-06
6.70562e-06
6.45149e-06
6.65797e-06
7.6822e-06
1.10719e-05
1.46327e-06
6.30836e-09
2.86903e-09
7.2515e-07
1.49552e-05
1.18352e-05
1.00118e-05
9.56725e-06
1.01242e-05
1.15226e-05
1.4221e-05
1.8832e-05
2.62874e-05
4.14499e-05
6.83115e-05
7.37912e-05
7.1556e-05
6.98781e-05
6.88554e-05
6.85048e-05
6.88092e-05
6.97594e-05
7.1321e-05
7.33944e-05
7.57971e-05
6.25927e-05
2.84472e-05
1.31125e-05
8.46543e-06
7.07434e-06
6.53929e-06
6.69055e-06
7.08843e-06
7.735e-06
1.11132e-05
1.46198e-06
6.29042e-09
2.86671e-09
7.24149e-07
1.49835e-05
1.14809e-05
9.91819e-06
9.6465e-06
1.03119e-05
1.16592e-05
1.35416e-05
1.77206e-05
2.65922e-05
4.31029e-05
6.90001e-05
7.36615e-05
7.14869e-05
6.98397e-05
6.88357e-05
6.8499e-05
6.88117e-05
6.97652e-05
7.13259e-05
7.33979e-05
7.57877e-05
6.31971e-05
2.79902e-05
1.27351e-05
8.19533e-06
7.02347e-06
7.05657e-06
7.06311e-06
6.68915e-06
7.30169e-06
1.16187e-05
1.46804e-06
6.31792e-09
2.88001e-09
7.26529e-07
1.49931e-05
1.15481e-05
9.937e-06
9.73559e-06
1.00928e-05
1.13822e-05
1.42741e-05
1.87112e-05
2.78844e-05
4.4477e-05
7.05024e-05
7.36827e-05
7.14709e-05
6.98268e-05
6.88289e-05
6.85029e-05