/*--------------------------------*- C++ -*----------------------------------*\
  =========                 |
  \\      /  F ield         | OpenFOAM: The Open Source CFD Toolbox
   \\    /   O peration     | Website:  https://openfoam.org
    \\  /    A nd           | Version:  13
     \\/     M anipulation  |
\*---------------------------------------------------------------------------*/
FoamFile
{
    format      ascii;
    class       volScalarField;
    location    "7";
    object      k;
}
// * * * * * * * * * * * * * * * * * * * * * * * * * * * * * * * * * * * * * //

dimensions      [0 2 -2 0 0 0 0];

internalField   nonuniform List<scalar> 
78750
(
8.88291e-07
1.51996e-05
6.26235e-05
9.15015e-05
0.000112955
0.000123003
0.000127538
0.000129055
0.000133996
0.000132246
0.000126357
0.000118867
0.000112442
0.000108761
0.000106699
0.000103574
9.88257e-05
9.31254e-05
8.71909e-05
8.1463e-05
7.61623e-05
7.13052e-05
6.69321e-05
6.29881e-05
5.96456e-05
5.67013e-05
5.43986e-05
5.2054e-05
5.04001e-05
4.99418e-05
4.99066e-05
5.26724e-05
5.43852e-05
3.43907e-05
2.1714e-06
5.03914e-07
1.43075e-05
7.92707e-05
0.000128026
0.000145128
0.000149482
0.000150441
0.000149639
0.00014834
0.000146833
0.000152201
0.000148361
0.000147504
0.000147472
0.000147599
0.000148118
0.000148456
0.000144481
0.000145093
0.000145411
0.00014547
0.000145171
0.000144115
0.000142459
0.000139913
0.000136854
0.000134445
0.000132889
0.000132748
0.000133555
0.000140199
0.000144347
0.000138196
5.09336e-05
2.60219e-06
9.99882e-07
2.84291e-05
9.79332e-05
0.000141954
0.000149145
0.000152229
0.000151892
0.000150574
0.000150261
0.00016045
0.000154646
0.00015085
0.000148965
0.000148265
0.000147967
0.000147821
0.000147641
0.000147478
0.000147381
0.000147221
0.000146772
0.000145913
0.000144699
0.000143481
0.000143093
0.000143933
0.000146636
0.000145231
0.000146537
0.000145294
0.00014497
0.000144939
0.000138337
5.28305e-05
2.34467e-06
1.05228e-06
3.00122e-05
0.000100494
0.000144597
0.000154604
0.00015849
0.0001591
0.00015869
0.000156624
0.000152772
0.000157344
0.000151247
0.000146415
0.000142785
0.000139887
0.000137575
0.000135702
0.000134166
0.000132868
0.000131752
0.000130841
0.0001303
0.000130446
0.000131885
0.000135081
0.00013928
0.000140707
0.000142434
0.000143404
0.000144814
0.000146714
0.000149074
0.000141027
5.00273e-05
2.1366e-06
1.13439e-06
3.22351e-05
0.000103389
0.000146303
0.000155906
0.000159391
0.00015962
0.000158839
0.000157318
0.000153372
0.000148931
0.000146541
0.000145145
0.000142151
0.00013897
0.000136113
0.000133689
0.000131669
0.000130041
0.000128821
0.000128121
0.000128162
0.000129314
0.000132329
0.000137534
0.000145728
0.000153611
0.000151374
0.000150914
0.00015237
0.000156008
0.000157328
0.000144623
4.97661e-05
2.10936e-06
1.16556e-06
3.3159e-05
0.000104828
0.000145891
0.000157633
0.000161015
0.000160122
0.000158838
0.000155535
0.000152198
0.000148529
0.000145421
0.000143633
0.000139945
0.000135988
0.0001324
0.000129413
0.000127062
0.000125338
0.000124304
0.00012415
0.000124958
0.000127275
0.000131359
0.000137518
0.000146115
0.000148839
0.000150071
0.000151465
0.000155577
0.000161922
0.000164586
0.000148911
4.52434e-05
1.81688e-06
1.21312e-06
3.44992e-05
0.000107768
0.000150411
0.000160913
0.000162713
0.000159772
0.000154219
0.000149681
0.000147983
0.000146928
0.000147369
0.000143526
0.000139111
0.000134849
0.000131133
0.000128096
0.000125782
0.000124222
0.000123509
0.000123737
0.000125211
0.000128167
0.000132655
0.000138722
0.000146213
0.000146083
0.000147859
0.000151529
0.000158284
0.000167247
0.000170256
0.000151119
4.40807e-05
1.77431e-06
1.23945e-06
3.50903e-05
0.000108283
0.000145371
0.000161473
0.00016446
0.000161475
0.000156128
0.000151202
0.000148055
0.000146734
0.000147442
0.00014349
0.00013892
0.000134534
0.000130731
0.000127659
0.000125394
0.000123994
0.000123564
0.000124184
0.000126228
0.000129806
0.000134789
0.000140958
0.000144955
0.000151391
0.000153133
0.000155662
0.000161274
0.000170742
0.000173443
0.000153104
4.43592e-05
1.82693e-06
1.25492e-06
3.55168e-05
0.00010955
0.000147416
0.000163071
0.000165703
0.000162502
0.000157097
0.000152499
0.000149945
0.0001482
0.000148464
0.000144142
0.000139231
0.000134579
0.000130623
0.000127494
0.000125263
0.000123977
0.000123717
0.000124544
0.000126856
0.000130716
0.000135993
0.000142474
0.000146999
0.000154185
0.000155543
0.000157898
0.000162858
0.000172741
0.000176711
0.000156517
4.55132e-05
1.83706e-06
1.27472e-06
3.59666e-05
0.000109985
0.000146709
0.000163353
0.000166449
0.000163321
0.000157369
0.000152244
0.000148598
0.000147036
0.000147706
0.000143699
0.00013879
0.000134139
0.000130212
0.000127201
0.000125123
0.000124024
0.000124009
0.000125121
0.000127764
0.000131942
0.000137547
0.000144438
0.000150077
0.000159353
0.000162731
0.000166168
0.000169305
0.000178423
0.000182251
0.000159679
4.73644e-05
1.84945e-06
1.28385e-06
3.62167e-05
0.000110622
0.000147517
0.000163977
0.000166769
0.000162832
0.000157682
0.000153233
0.000150646
0.000147988
0.000145452
0.000143194
0.000138594
0.000134021
0.000130141
0.000127192
0.00012524
0.000124338
0.000124546
0.000126033
0.000128894
0.000133152
0.000138652
0.00014551
0.000154374
0.000154051
0.000159162
0.000166184
0.00017269
0.000182286
0.000185993
0.000160059
4.75946e-05
1.86133e-06
1.29417e-06
3.6458e-05
0.00011077
0.000147263
0.000163998
0.000166832
0.000163138
0.000157305
0.000152876
0.000150757
0.000149375
0.000149321
0.000144338
0.000138978
0.000134152
0.000130223
0.000127345
0.000125557
0.000124892
0.000125387
0.000127215
0.000130389
0.000134795
0.000139996
0.000145413
0.000147843
0.000152145
0.000159784
0.000168782
0.000177326
0.00018812
0.000191594
0.000161499
5.11033e-05
1.9975e-06
1.29985e-06
3.6642e-05
0.000111047
0.000147636
0.000164194
0.000167093
0.000163258
0.000157012
0.000151866
0.000150227
0.00015514
0.00014975
0.000144082
0.00013864
0.000133928
0.000130156
0.000127448
0.000125861
0.000125433
0.0001262
0.000128331
0.000131799
0.000136511
0.000142246
0.000149519
0.00015952
0.000156655
0.000160953
0.000169833
0.00018088
0.000193494
0.000195002
0.000163091
5.28542e-05
2.06393e-06
1.30503e-06
3.67826e-05
0.000111247
0.000147337
0.000164068
0.000166245
0.00016227
0.000156294
0.000151291
0.00014952
0.000154067
0.000146829
0.000143428
0.000138523
0.000133967
0.000130261
0.000127616
0.000126097
0.000125758
0.000126631
0.000128853
0.000132319
0.00013674
0.000141337
0.00014449
0.00014802
0.00015316
0.000160754
0.000170505
0.000182786
0.000196898
0.000199518
0.000165097
5.48355e-05
2.13881e-06
1.32419e-06
3.72508e-05
0.000111871
0.000147873
0.000164142
0.000166162
0.000162201
0.000156516
0.000151443
0.000148388
0.000147105
0.000148094
0.00014377
0.000138656
0.000134046
0.000130347
0.000127751
0.000126315
0.000126075
0.000127052
0.000129357
0.000132901
0.000137451
0.00014239
0.000146477
0.000151788
0.000155744
0.000162831
0.00017404
0.000187663
0.000201521
0.000202329
0.000166746
5.64528e-05
2.20463e-06
1.3331e-06
3.74729e-05
0.000112166
0.000147663
0.000164001
0.000166036
0.000161455
0.000155872
0.000151333
0.000148887
0.00014858
0.000145416
0.000142889
0.000138259
0.000133881
0.000130326
0.000127854
0.000126545
0.000126443
0.000127566
0.000129989
0.000133588
0.000138088
0.000142843
0.000146549
0.000151392
0.000154628
0.000161871
0.000174462
0.000190907
0.000206242
0.000206266
0.000168605
5.67019e-05
2.21733e-06
1.3467e-06
3.78381e-05
0.000112613
0.000148025
0.000164155
0.000166351
0.000161619
0.000155331
0.000150797
0.000149473
0.000154447
0.000149724
0.000144123
0.000138701
0.000134088
0.00013048
0.000128009
0.000126726
0.000126668
0.000127852
0.000130333
0.000133979
0.000138491
0.000143335
0.000148166
0.000149477
0.000153318
0.000161613
0.00017452
0.000192305
0.000208661
0.000208086
0.000170563
5.90326e-05
2.30365e-06
1.35016e-06
3.79621e-05
0.000112733
0.000148273
0.000164234
0.000166284
0.000161491
0.000154915
0.00015017
0.000147911
0.00014791
0.000145955
0.000143649
0.000138781
0.000134229
0.000130607
0.000128143
0.000126894
0.000126886
0.000128131
0.000130665
0.000134364
0.000138918
0.00014366
0.000147247
0.000151753
0.000154777
0.000162741
0.000177199
0.000195773
0.000211735
0.000211483
0.000172197
6.00874e-05
2.34968e-06
1.35374e-06
3.80799e-05
0.000113136
0.000148689
0.000164429
0.000166087
0.000161415
0.000155344
0.000150682
0.000148063
0.000146632
0.000145164
0.000143307
0.000138718
0.000134304
0.000130751
0.00012832
0.000127092
0.000127097
0.000128341
0.000130838
0.000134444
0.000138872
0.000143614
0.000148313
0.000147992
0.000152177
0.000162132
0.000177326
0.000196459
0.00021371
0.000212786
0.00017414
6.07247e-05
2.37541e-06
1.35561e-06
3.81408e-05
0.000113526
0.000149117
0.000164654
0.00016627
0.000161106
0.000155574
0.00015235
0.00015169
0.000149789
0.000146016
0.000143648
0.00013886
0.000134364
0.000130792
0.000128383
0.000127211
0.000127292
0.000128627
0.000131173
0.000134742
0.000138888
0.000142762
0.000144633
0.000146978
0.000152722
0.000163762
0.000180568
0.000201222
0.000217687
0.000217575
0.000178507
6.30638e-05
2.47417e-06
1.35877e-06
3.83089e-05
0.000114023
0.000151056
0.000165174
0.000166299
0.000161464
0.000156325
0.000155284
0.000164653
0.000158959
0.000148256
0.000143999
0.00013888
0.000134349
0.000130801
0.000128435
0.000127304
0.000127432
0.000128828
0.000131452
0.000135107
0.000139323
0.000143258
0.00014512
0.000147365
0.000153145
0.000164769
0.000182022
0.000202973
0.000219974
0.000220286
0.000181173
6.49661e-05
2.52452e-06
1.36238e-06
3.83402e-05
0.000114591
0.00015207
0.000165376
0.00016606
0.000161695
0.000156057
0.000151119
0.000148256
0.000153387
0.000150423
0.00014442
0.000138934
0.000134361
0.000130836
0.000128487
0.000127351
0.000127457
0.000128828
0.000131432
0.000135083
0.000139344
0.000143392
0.000145515
0.000148139
0.000154136
0.000165465
0.000182881
0.000203834
0.000221537
0.000221184
0.000182029
6.50593e-05
2.52529e-06
1.3602e-06
3.8339e-05
0.000114736
0.000152943
0.000165183
0.000166569
0.000162237
0.000156562
0.00015165
0.000148305
0.000147298
0.000148132
0.000143536
0.000138584
0.000134233
0.000130814
0.000128533
0.000127451
0.000127594
0.000128979
0.00013158
0.000135229
0.000139516
0.000143618
0.000145884
0.000148972
0.000155527
0.000167213
0.000183999
0.000205382
0.000223278
0.000224333
0.000185507
6.53623e-05
2.55648e-06
1.35156e-06
3.80696e-05
0.000114197
0.000154238
0.000165131
0.000166205
0.000161618
0.000155867
0.000151728
0.000150335
0.000155089
0.000150779
0.000144611
0.000139072
0.000134488
0.000130983
0.000128673
0.000127591
0.000127752
0.000129165
0.000131803
0.000135525
0.000140041
0.000144887
0.000149998
0.00015092
0.000156715
0.000168203
0.000185085
0.000206668
0.00022573
0.000227048
0.000186597
6.72074e-05
2.60694e-06
1.35878e-06
3.81921e-05
0.000113341
0.000148917
0.00016433
0.000166187
0.000161687
0.000155686
0.000151275
0.000149822
0.000155041
0.000149387
0.000143754
0.000138761
0.000134436
0.000131027
0.000128744
0.000127664
0.000127821
0.000129223
0.000131825
0.000135437
0.000139704
0.00014421
0.000148792
0.000149423
0.000156169
0.00016893
0.000186042
0.000207951
0.000228452
0.000229612
0.000188208
6.78963e-05
2.6283e-06
1.36209e-06
3.82342e-05
0.000113299
0.000148861
0.000163967
0.00016614
0.000161987
0.000156151
0.000151344
0.000149649
0.000153638
0.000149499
0.000143882
0.000138737
0.00013437
0.000130971
0.000128711
0.000127653
0.000127823
0.000129227
0.000131822
0.000135419
0.00013967
0.000144105
0.000148563
0.00014935
0.000156577
0.00016981
0.000188056
0.000210041
0.000228448
0.000229438
0.000186158
6.75415e-05
2.61321e-06
1.35478e-06
3.81418e-05
0.000113204
0.000149799
0.000164417
0.000166021
0.000161952
0.000156897
0.000152649
0.000150189
0.000150325
0.000149242
0.000144159
0.000138983
0.0001345
0.000131025
0.000128739
0.000127686
0.000127874
0.000129295
0.000131892
0.000135487
0.000139739
0.000144161
0.000148682
0.000149486
0.000156992
0.000171249
0.000190141
0.000213861
0.000232062
0.000228579
0.000189095
6.72553e-05
2.62407e-06
1.35538e-06
3.80843e-05
0.000113162
0.000149584
0.00016409
0.000166537
0.000162889
0.000158203
0.000154357
0.000152269
0.000156264
0.000150158
0.000144197
0.000138954
0.000134532
0.000131095
0.000128821
0.000127771
0.000127959
0.000129378
0.000131966
0.000135535
0.000139737
0.00014413
0.000148601
0.000149206
0.000156527
0.000170502
0.000189791
0.000212934
0.000231924
0.000232811
0.000190491
7.00568e-05
2.69968e-06
1.3616e-06
3.81265e-05
0.000112356
0.000147389
0.000163417
0.000165773
0.000162665
0.000158856
0.000155767
0.000153027
0.00015519
0.000150035
0.000144049
0.000138776
0.000134375
0.000130975
0.00012876
0.000127755
0.000127972
0.000129416
0.000132031
0.000135635
0.000139877
0.00014433
0.000148874
0.000149316
0.000156576
0.000170909
0.000190445
0.000213185
0.000228947
0.000229604
0.000189915
6.93599e-05
2.68785e-06
1.36159e-06
3.82313e-05
0.000112958
0.000148459
0.0001636
0.000165834
0.000162999
0.000159601
0.000157533
0.000153035
0.000148232
0.000147839
0.000143473
0.000138585
0.000134299
0.000130957
0.000128767
0.000127783
0.000128029
0.000129513
0.000132187
0.000135858
0.000140162
0.000144668
0.000149282
0.000149967
0.000157445
0.000171536
0.000192006
0.000214316
0.00023171
0.000232128
0.000188583
6.85966e-05
2.67891e-06
1.35545e-06
3.81192e-05
0.00011326
0.000149836
0.000163472
0.000165561
0.000161681
0.000159188
0.000159393
0.000155897
0.000150531
0.000146518
0.000143675
0.000138843
0.000134463
0.000131036
0.000128793
0.00012778
0.000128007
0.000129466
0.000132106
0.000135746
0.000140051
0.000144589
0.000149259
0.000150171
0.000158016
0.000172802
0.000192368
0.000213246
0.000230557
0.000233324
0.00018944
7.02434e-05
2.70849e-06
1.36558e-06
3.83718e-05
0.000114096
0.00015383
0.000164127
0.000165294
0.000161124
0.000157517
0.000158283
0.000155983
0.000152062
0.000147153
0.000143832
0.000138795
0.000134359
0.000130958
0.000128772
0.000127839
0.000128153
0.000129706
0.000132437
0.000136166
0.000140533
0.000145109
0.000149793
0.000150515
0.000157879
0.00017234
0.00019209
0.000216196
0.000231213
0.000231307
0.000188768
6.94774e-05
2.69049e-06
1.35913e-06
3.81488e-05
0.000112725
0.000147454
0.000163006
0.000164687
0.000160178
0.000154294
0.000149531
0.000147442
0.000147508
0.000145296
0.00014305
0.000138503
0.000134272
0.000130951
0.000128787
0.000127867
0.000128201
0.000129789
0.00013258
0.000136398
0.000140897
0.000145728
0.000150914
0.000152613
0.000159802
0.000173082
0.000192797
0.000215824
0.000232182
0.000234439
0.000191736
6.89743e-05
2.68999e-06
1.36554e-06
3.8296e-05
0.000112876
0.000147902
0.000163402
0.000165104
0.000160149
0.000154662
0.000150575
0.000148585
0.000146278
0.000145025
0.000142986
0.000138531
0.00013433
0.000131013
0.000128846
0.000127904
0.000128196
0.000129736
0.000132459
0.000136251
0.000140824
0.000145656
0.000149595
0.000156312
0.000162855
0.000175346
0.000193354
0.000214972
0.000231754
0.000234178
0.000189681
7.08385e-05
2.72105e-06
1.36237e-06
3.83122e-05
0.000112957
0.00014791
0.000163534
0.000165376
0.000160535
0.000154399
0.00015049
0.000148739
0.000148206
0.000148612
0.000144069
0.000138927
0.000134454
0.000131022
0.000128832
0.000127887
0.000128178
0.000129678
0.000132306
0.000135827
0.000139816
0.000143565
0.00014544
0.000148832
0.000158323
0.000174726
0.000197028
0.000220962
0.000238449
0.000235014
0.000191908
7.03501e-05
2.71015e-06
1.36467e-06
3.83044e-05
0.000112946
0.000147984
0.000163434
0.000165113
0.000160247
0.000154183
0.000149549
0.000147323
0.000147154
0.00014529
0.000143194
0.000138608
0.000134336
0.000130991
0.000128821
0.0001279
0.000128211
0.000129735
0.000132396
0.000135977
0.000140039
0.000143884
0.000145904
0.000149191
0.000158135
0.000173886
0.000195112
0.000220002
0.000237868
0.000232659
0.0001902
7.01465e-05
2.70702e-06
1.37772e-06
3.86029e-05
0.000113557
0.000148918
0.00016399
0.000165359
0.000160512
0.0001544
0.000149597
0.000146842
0.000145063
0.000144324
0.000142869
0.00013857
0.00013439
0.000131072
0.000128914
0.000127997
0.000128331
0.00012989
0.000132596
0.000136252
0.000140425
0.000144411
0.000146563
0.000149838
0.000158902
0.000174847
0.000196364
0.000219081
0.000237021
0.000236988
0.000193809
7.06049e-05
2.71435e-06
1.36401e-06
3.83699e-05
0.000113479
0.000148749
0.000163815
0.000164817
0.000159997
0.000154105
0.000149582
0.00014665
0.000144935
0.000143891
0.000142634
0.000138468
0.000134377
0.000131101
0.000128943
0.000128008
0.000128316
0.000129886
0.000132665
0.000136456
0.000140927
0.00014575
0.000150957
0.000151827
0.000160275
0.000175983
0.000197498
0.000220349
0.000241146
0.00023813
0.000193899
7.04854e-05
2.73621e-06
1.36754e-06
3.84559e-05
0.0001137
0.000149701
0.000164153
0.000164818
0.000159761
0.000153871
0.000149631
0.000147156
0.000145885
0.000143982
0.000142683
0.000138444
0.0001343
0.000131008
0.000128876
0.000127971
0.000128304
0.000129865
0.000132586
0.000136251
0.000140437
0.000144445
0.000146547
0.000150163
0.000159719
0.000176007
0.000197168
0.000223115
0.000240986
0.00023824
0.000190935
6.95463e-05
2.72205e-06
1.37623e-06
3.86121e-05
0.000113967
0.000150286
0.000164138
0.000164954
0.000159974
0.000153999
0.000149671
0.000148267
0.000152336
0.000146185
0.000143114
0.000138521
0.000134304
0.000131012
0.000128887
0.000128006
0.000128374
0.000129983
0.000132764
0.000136504
0.000140773
0.000144872
0.000147065
0.000150942
0.000160606
0.00017695
0.000199183
0.000223044
0.000241703
0.000236366
0.000193124
6.98456e-05
2.69861e-06
1.36878e-06
3.83966e-05
0.000113167
0.000149091
0.000163607
0.000164891
0.000160102
0.000154005
0.000149191
0.000146151
0.000144841
0.00014414
0.000142415
0.000138282
0.000134236
0.000130992
0.00012887
0.000127966
0.000128308
0.000129894
0.000132661
0.000136399
0.000140692
0.000144865
0.000147313
0.000151342
0.000161227
0.000177229
0.000198151
0.000222696
0.000242464
0.000240053
0.000193814
7.00007e-05
2.7035e-06
1.35959e-06
3.82111e-05
0.000112563
0.00014762
0.000162566
0.000164668
0.000160031
0.000153962
0.000149075
0.000146435
0.000146047
0.000147214
0.00014327
0.000138485
0.000134227
0.000130911
0.000128763
0.000127866
0.000128218
0.000129811
0.000132582
0.000136323
0.000140617
0.000144786
0.000147128
0.000151341
0.000161701
0.000178403
0.000199645
0.000222967
0.000240892
0.000239486
0.000193857
7.02122e-05
2.71011e-06
1.375e-06
3.85503e-05
0.000113004
0.00014778
0.000163113
0.000164503
0.000160063
0.000154367
0.00015041
0.000148647
0.000148165
0.000145901
0.000143503
0.000138774
0.000134404
0.000130992
0.000128774
0.000127821
0.000128137
0.000129713
0.000132487
0.000136255
0.000140594
0.000144848
0.000147261
0.000151544
0.000162309
0.000180244
0.000203284
0.000227485
0.000245126
0.000239818
0.000191929
6.99587e-05
2.74617e-06
1.37415e-06
3.86264e-05
0.00011351
0.000148572
0.000163526
0.000164924
0.000160086
0.000154369
0.000150947
0.000149463
0.00014912
0.000146346
0.000143309
0.000138532
0.000134167
0.000130789
0.000128624
0.000127723
0.000128063
0.000129639
0.000132395
0.000136144
0.000140506
0.000144764
0.000147162
0.00015142
0.000161864
0.000179134
0.00020177
0.000226618
0.000244386
0.000240044
0.000190493
6.93752e-05
2.74542e-06
1.36829e-06
3.84437e-05
0.000113046
0.000148524
0.000163016
0.000164245
0.000159463
0.000154119
0.000151264
0.000150861
0.000148854
0.000148298
0.000143566
0.000138483
0.000134111
0.000130771
0.000128628
0.000127726
0.000128066
0.000129639
0.000132404
0.000136167
0.000140551
0.000144929
0.000147644
0.000152154
0.000162856
0.000179592
0.000201534
0.000225302
0.000246885
0.000242975
0.000196442
7.18692e-05
2.78514e-06
1.37694e-06
3.85804e-05
0.000113116
0.000147792
0.000163055
0.000164484
0.000159387
0.000153764
0.000150911
0.000151356
0.000149588
0.000146288
0.000143491
0.000138697
0.0001343
0.000130901
0.000128724
0.000127813
0.00012816
0.000129754
0.000132537
0.000136323
0.000140718
0.000145075
0.000147658
0.000152389
0.000164094
0.000182992
0.000206549
0.000230784
0.000245862
0.000243126
0.000196456
7.1392e-05
2.78318e-06
1.38032e-06
3.87667e-05
0.000113519
0.000148575
0.000163352
0.000164228
0.000159513
0.000153344
0.000148872
0.000147315
0.000148065
0.000145672
0.000143051
0.000138423
0.00013414
0.000130813
0.000128677
0.000127796
0.000128157
0.000129752
0.000132531
0.000136304
0.00014073
0.000145195
0.000148051
0.000152422
0.000163615
0.000181602
0.00020358
0.000228014
0.000248369
0.000241205
0.000195053
7.07294e-05
2.77588e-06
1.37275e-06
3.85777e-05
0.000113197
0.000148675
0.000162978
0.00016436
0.000159305
0.000153391
0.000149111
0.000147345
0.000147363
0.00014542
0.000142903
0.000138254
0.000134034
0.00013077
0.000128679
0.000127826
0.000128208
0.000129813
0.000132596
0.000136419
0.00014103
0.00014626
0.00015239
0.000154159
0.000164911
0.0001828
0.000207472
0.000232592
0.000250729
0.00024596
0.000194633
7.15748e-05
2.77031e-06
1.37445e-06
3.86561e-05
0.000113313
0.000148049
0.000162965
0.000164493
0.000159834
0.00015446
0.000150913
0.00014974
0.000148564
0.000145526
0.000142903
0.000138281
0.000134057
0.000130807
0.000128749
0.000127943
0.000128384
0.000130066
0.000132934
0.000136821
0.000141461
0.000146727
0.000152941
0.000154662
0.000165674
0.000183991
0.000205872
0.000231992
0.000247931
0.000244571
0.000199014
7.22542e-05
2.79906e-06
1.39357e-06
3.91557e-05
0.000114739
0.000150778
0.00016374
0.000164419
0.000160216
0.00015511
0.000152187
0.00015254
0.000150125
0.000146294
0.000143333
0.00013852
0.000134174
0.000130848
0.000128746
0.000127899
0.000128309
0.000129969
0.000132832
0.000136749
0.000141475
0.000146804
0.000153046
0.000154836
0.000165725
0.000183995
0.000207358
0.00023241
0.000251166
0.000245883
0.000198575
7.16149e-05
2.79766e-06
1.39122e-06
3.91583e-05
0.000114908
0.000151505
0.000164032
0.000164603
0.000159552
0.000153986
0.000149873
0.00014782
0.000148275
0.000145448
0.000142996
0.000138424
0.000134161
0.000130844
0.000128731
0.000127884
0.00012829
0.000129946
0.000132804
0.000136707
0.000141414
0.000146765
0.000153048
0.000155464
0.000166926
0.000184918
0.000207421
0.000231108
0.000248397
0.000242384
0.000194918
7.16632e-05
2.7758e-06
1.37775e-06
3.87737e-05
0.000114325
0.000150473
0.000163604
0.000164218
0.000159522
0.000154053
0.000150446
0.000149253
0.000152641
0.00014628
0.000143014
0.000138388
0.000134148
0.000130842
0.00012873
0.000127889
0.000128302
0.000129956
0.000132782
0.000136568
0.000140899
0.000145126
0.000147391
0.000153728
0.000167291
0.000187019
0.000210484
0.000234225
0.000250712
0.00024375
0.000194515
7.11884e-05
2.81533e-06
1.37258e-06
3.86055e-05
0.000113257
0.000147918
0.000162752
0.000164028
0.000159443
0.000153941
0.000150108
0.000148343
0.000147503
0.00014721
0.000143291
0.000138571
0.0001343
0.000130954
0.000128785
0.000127876
0.000128236
0.000129865
0.000132729
0.000136678
0.000141366
0.000146257
0.000149551
0.000155611
0.000168779
0.000188386
0.000212274
0.000236944
0.000253104
0.000246477
0.000198852
7.29204e-05
2.86978e-06
1.37561e-06
3.86719e-05
0.000113598
0.000149384
0.000163133
0.00016393
0.000159065
0.000153733
0.000150011
0.00014917
0.000153498
0.000146266
0.000142835
0.000138158
0.000133936
0.000130666
0.000128576
0.000127734
0.000128144
0.000129816
0.000132718
0.000136676
0.000141384
0.000146271
0.000149568
0.000155841
0.000169651
0.000189812
0.000214185
0.000239764
0.000257291
0.000248643
0.000199735
7.32386e-05
2.89329e-06
1.37349e-06
3.86443e-05
0.000113653
0.000149965
0.000163357
0.000164175
0.000159397
0.00015424
0.000151281
0.000151177
0.000153995
0.00014978
0.00014392
0.000138527
0.000134068
0.00013072
0.000128598
0.000127743
0.000128155
0.000129833
0.00013274
0.000136733
0.00014151
0.000146559
0.000150068
0.000156431
0.000170657
0.000191856
0.000217093
0.00024307
0.000264018
0.000256857
0.000203053
7.58754e-05
2.954e-06
1.3816e-06
3.89145e-05
0.00011449
0.000152805
0.000163763
0.000164218
0.000159182
0.000154808
0.00015317
0.000154736
0.000150533
0.00014591
0.000142791
0.000138217
0.000134018
0.000130737
0.000128626
0.000127764
0.000128155
0.00012982
0.00013273
0.000136714
0.000141476
0.000146522
0.00014998
0.000156479
0.000170752
0.000191955
0.000217351
0.000243725
0.000263717
0.000255127
0.000204001
7.64019e-05
2.972e-06
1.38211e-06
3.88777e-05
0.000114167
0.000150562
0.000163112
0.000163895
0.000159467
0.000155506
0.000154812
0.000163317
0.00015815
0.000149857
0.000143409
0.000138138
0.000133814
0.000130562
0.00012851
0.000127715
0.000128173
0.000129882
0.000132794
0.000136767
0.000141493
0.000146475
0.000149995
0.000156718
0.000171552
0.000193769
0.000220787
0.000245509
0.000263853
0.000258801
0.000204621
7.72295e-05
3.02497e-06
1.37892e-06
3.87761e-05
0.000113497
0.000149937
0.000163157
0.000164433
0.000160409
0.000156677
0.000153701
0.000149148
0.000146451
0.000147165
0.00014261
0.000137774
0.000133575
0.000130389
0.0001284
0.000127656
0.000128161
0.000129918
0.000132904
0.000136973
0.00014182
0.000146985
0.000150679
0.000157303
0.000171849
0.000193433
0.000220964
0.000246865
0.000263775
0.000256154
0.000205313
7.71095e-05
3.0002e-06
1.38098e-06
3.87939e-05
0.000113033
0.000147658
0.000162631
0.000164073
0.000160518
0.000157447
0.000156996
0.00015368
0.000149386
0.000147377
0.000142599
0.000137759
0.00013358
0.000130398
0.000128399
0.00012765
0.000128154
0.000129919
0.000132914
0.000137013
0.000141928
0.000147213
0.00015091
0.000157971
0.000173434
0.000196226
0.000222604
0.000247528
0.000264864
0.00025695
0.000205907
7.68964e-05
3.01724e-06
1.3895e-06
3.89716e-05
0.000113385
0.000147925
0.000162554
0.000163796
0.000159086
0.000155476
0.000155746
0.000153799
0.000150302
0.000145408
0.000142266
0.000137734
0.000133611
0.000130433
0.000128437
0.000127702
0.000128228
0.000130021
0.000133037
0.000137139
0.00014203
0.000147292
0.000151156
0.000157602
0.000172646
0.000194941
0.000221685
0.000248229
0.000265053
0.000258345
0.000207174
7.82219e-05
3.0431e-06
1.39279e-06
3.90407e-05
0.000113465
0.000147713
0.000162534
0.00016366
0.000158539
0.000153253
0.000150001
0.000149957
0.000153735
0.000148067
0.000142632
0.000137672
0.000133483
0.000130326
0.00012836
0.000127643
0.000128177
0.00012997
0.00013298
0.00013707
0.000142027
0.000147936
0.000155615
0.000159044
0.000173732
0.000196785
0.000224351
0.000249491
0.000270707
0.000263365
0.000211214
7.80128e-05
3.04564e-06
1.39515e-06
3.91885e-05
0.000114009
0.000149238
0.00016302
0.000163732
0.000158448
0.000153228
0.00015072
0.000151247
0.000148802
0.000144975
0.000142085
0.000137599
0.000133486
0.000130332
0.000128362
0.000127652
0.000128186
0.000129967
0.000132923
0.000136841
0.000141295
0.000145698
0.000148141
0.000156537
0.000173381
0.000196975
0.000226325
0.000254391
0.000268665
0.000261866
0.000211744
7.7814e-05
3.05175e-06
1.39746e-06
3.92009e-05
0.000114152
0.000149006
0.000162773
0.000163551
0.000158409
0.000152639
0.000148756
0.000147041
0.000146649
0.000144128
0.00014176
0.000137536
0.000133507
0.000130358
0.000128377
0.000127666
0.000128242
0.000130111
0.000133228
0.000137398
0.000142218
0.000147157
0.000150172
0.000158478
0.000174836
0.000197625
0.000224821
0.00025239
0.000272967
0.000266231
0.000213429
7.80729e-05
3.07637e-06
1.40076e-06
3.92214e-05
0.000114512
0.000151157
0.000162936
0.000163605
0.000158577
0.000152968
0.000149406
0.000148122
0.000147326
0.000146633
0.000142462
0.000137833
0.000133668
0.000130444
0.000128411
0.000127666
0.000128211
0.000130048
0.000133131
0.000137324
0.000142245
0.000147361
0.000150635
0.000159175
0.000175989
0.000199394
0.000228349
0.000255887
0.000270875
0.000264973
0.000214244
7.95859e-05
3.103e-06
1.39145e-06
3.91436e-05
0.000115209
0.000157358
0.000164422
0.000163823
0.000158601
0.000153024
0.000149739
0.000149766
0.000153682
0.000148365
0.000142947
0.000137901
0.000133619
0.000130392
0.000128383
0.000127656
0.000128208
0.00013005
0.000133136
0.000137314
0.000142341
0.000147888
0.000151933
0.000160057
0.000176756
0.000199863
0.000226991
0.00025481
0.000273743
0.000270051
0.00021411
7.89512e-05
3.08822e-06
1.38156e-06
3.8819e-05
0.00011336
0.000147396
0.000162082
0.000162992
0.000158474
0.00015337
0.000150974
0.000151593
0.000149122
0.000145257
0.000142259
0.000137645
0.000133457
0.000130289
0.000128342
0.000127663
0.000128238
0.000130052
0.000133044
0.000137016
0.000141579
0.000146285
0.000149337
0.00015914
0.000177796
0.000202306
0.000230132
0.000257192
0.000273882
0.000270137
0.000213115
7.82414e-05
3.08792e-06
1.38634e-06
3.8933e-05
0.000113669
0.000148464
0.000162633
0.000163453
0.000158535
0.000152834
0.000148925
0.000147174
0.000146843
0.000144334
0.000141682
0.000137398
0.000133365
0.000130262
0.000128343
0.000127681
0.00012827
0.000130095
0.000133091
0.000137063
0.00014165
0.000146431
0.000149736
0.00016013
0.000179639
0.000204917
0.00023323
0.00026129
0.000283484
0.000274197
0.000219969
8.24469e-05
3.18411e-06
1.39211e-06
3.90648e-05
0.0001139
0.000149635
0.000162594
0.000163291
0.000158486
0.000153045
0.000149447
0.000147743
0.000146477
0.000146588
0.000142416
0.000137755
0.000133591
0.000130427
0.000128489
0.000127836
0.000128453
0.000130325
0.000133378
0.000137409
0.000142044
0.000146875
0.000150076
0.000160489
0.000180127
0.000205738
0.000234529
0.000262818
0.000283866
0.000275573
0.000219789
8.09402e-05
3.18175e-06
1.37858e-06
3.8762e-05
0.000113705
0.000150964
0.000162219
0.000162908
0.000158345
0.000153119
0.000149486
0.000148036
0.000146393
0.000146432
0.00014224
0.000137616
0.000133519
0.000130403
0.000128483
0.000127832
0.000128443
0.000130301
0.000133331
0.000137337
0.00014196
0.000146853
0.000150184
0.000160856
0.000180664
0.000206555
0.000236526
0.000267212
0.000286626
0.000276948
0.000220899
8.22011e-05
3.18206e-06
1.38673e-06
3.90259e-05
0.000115381
0.000158561
0.00016391
0.000163407
0.000158877
0.000153647
0.000149211
0.000146606
0.00014581
0.000146105
0.000142001
0.000137457
0.000133398
0.000130315
0.000128432
0.000127816
0.000128444
0.000130312
0.000133347
0.000137365
0.000142026
0.000146993
0.000150605
0.000162175
0.000183799
0.000212212
0.000243118
0.000269439
0.000286875
0.00027639
0.000217338
8.24156e-05
3.19278e-06
1.39233e-06
3.90319e-05
0.000113874
0.000152693
0.000162155
0.000163384
0.000159093
0.000153947
0.000150158
0.000148207
0.000148136
0.000147692
0.0001427
0.000137721
0.000133483