/*--------------------------------*- C++ -*----------------------------------*\
  =========                 |
  \\      /  F ield         | OpenFOAM: The Open Source CFD Toolbox
   \\    /   O peration     | Website:  https://openfoam.org
    \\  /    A nd           | Version:  13
     \\/     M anipulation  |
\*---------------------------------------------------------------------------*/
FoamFile
{
    format      ascii;
    class       volVectorField;
    location    "7";
    object      U;
}
// * * * * * * * * * * * * * * * * * * * * * * * * * * * * * * * * * * * * * //

dimensions      [0 1 -1 0 0 0 0];

internalField   nonuniform List<vector> 
78750
(
(-0.00561821 -0.0159326 0.000556436)
(-0.00491061 -0.042002 0.00262836)
(0.00557439 -0.0474107 0.00307218)
(0.0155538 -0.0455353 0.00288482)
(0.0247881 -0.042314 0.00332237)
(0.0334873 -0.0397527 0.00426861)
(0.0397973 -0.0370295 0.00523009)
(0.0464224 -0.0314476 0.0059679)
(0.0500013 -0.0261666 0.00604777)
(0.0536837 -0.01802 0.00484505)
(0.0543191 -0.0140016 0.00367921)
(0.0551381 -0.0108112 0.00286001)
(0.0549774 -0.00863741 0.00236477)
(0.0553424 -0.00434484 0.00223165)
(0.0546097 0.000706676 0.00223827)
(0.0537004 0.00487483 0.00220147)
(0.0525984 0.00758501 0.0020728)
(0.0513891 0.00892983 0.00187049)
(0.0501886 0.0092716 0.00166769)
(0.0490572 0.00902543 0.00156349)
(0.0480362 0.00848243 0.00157742)
(0.0471054 0.00779635 0.00165966)
(0.0462943 0.00704822 0.00176143)
(0.0455184 0.00636107 0.001887)
(0.0448347 0.00584603 0.00207132)
(0.0439962 0.00568577 0.00230801)
(0.0431424 0.00592358 0.00255258)
(0.0417315 0.00696574 0.0027882)
(0.0402953 0.00823506 0.00299426)
(0.0372671 0.0117042 0.00323799)
(0.0345655 0.0141977 0.00342197)
(0.0296176 0.0199471 0.00358188)
(0.0226366 0.0269879 0.00360436)
(0.0136866 0.0323757 0.00329696)
(0.00464605 0.030418 0.00198681)
(0.00075244 -0.0300579 0.00148022)
(0.00492342 -0.0758323 0.00263566)
(0.00938434 -0.0900043 0.00330948)
(0.0125108 -0.0893772 0.00351207)
(0.0164616 -0.0804438 0.00359652)
(0.0194996 -0.0675984 0.00379999)
(0.0214311 -0.054121 0.00400815)
(0.0219036 -0.0420278 0.0044183)
(0.022405 -0.0286763 0.0050757)
(0.0224091 -0.0139453 0.00555274)
(0.0217466 -0.00188474 0.00500006)
(0.0210766 0.00384788 0.00401685)
(0.0203747 0.00666855 0.00326554)
(0.0199962 0.00778794 0.00306984)
(0.0200131 0.0085945 0.00321518)
(0.0203342 0.00890079 0.00347058)
(0.0208909 0.00862822 0.00373042)
(0.0215778 0.00795465 0.003956)
(0.0223066 0.00702902 0.00415611)
(0.0230253 0.00598649 0.00435186)
(0.0237013 0.00496014 0.00455148)
(0.0243164 0.00406084 0.00476054)
(0.0248549 0.00337888 0.0049932)
(0.0252972 0.00301992 0.00524559)
(0.0256034 0.00331867 0.00538406)
(0.0257583 0.00463197 0.00526854)
(0.0257661 0.00708084 0.00497678)
(0.0255923 0.0109255 0.00471989)
(0.0249747 0.0166836 0.0046042)
(0.0237442 0.0245622 0.00457701)
(0.0216307 0.0363408 0.00465623)
(0.0182884 0.052331 0.00472597)
(0.0142278 0.0709708 0.00479504)
(0.00770551 0.0880307 0.00442614)
(0.00164475 0.0762077 0.00262503)
(0.000492667 -0.0465038 0.000700904)
(0.00230673 -0.0931349 0.000261735)
(0.00364208 -0.0983556 0.000256121)
(0.00473532 -0.093611 0.000452488)
(0.00546515 -0.08396 0.000717925)
(0.00580047 -0.0710887 0.0011822)
(0.00689888 -0.0563168 0.00187652)
(0.00693462 -0.0407881 0.00238782)
(0.00697937 -0.0259934 0.0026379)
(0.00708443 -0.0142353 0.00254169)
(0.00755215 -0.00773602 0.00226971)
(0.00824877 -0.00487953 0.00200825)
(0.00897575 -0.00370054 0.00187695)
(0.00985505 -0.00303441 0.00186324)
(0.0107047 -0.00270098 0.00193298)
(0.0115741 -0.00256491 0.00206344)
(0.0124349 -0.00258445 0.0022365)
(0.0132608 -0.00272027 0.00244118)
(0.0140321 -0.0029327 0.0026719)
(0.0147371 -0.00317631 0.00292507)
(0.0153697 -0.00338994 0.0031924)
(0.0159208 -0.00347346 0.00345238)
(0.0163868 -0.00330526 0.00369693)
(0.0167641 -0.0027406 0.00393523)
(0.0170649 -0.00159375 0.00414084)
(0.0172326 0.000284825 0.00423636)
(0.0172802 0.00327707 0.00432559)
(0.0171706 0.00859707 0.00459457)
(0.0168003 0.0171762 0.00502547)
(0.0159529 0.0303657 0.00541903)
(0.014367 0.0476026 0.00579142)
(0.0117593 0.0696828 0.0059249)
(0.00844751 0.096134 0.00580698)
(0.00408606 0.118093 0.00512207)
(0.00050277 0.0943711 0.00289062)
(0.000239064 -0.0517247 0.000563094)
(0.00105149 -0.101373 0.000504022)
(0.00203193 -0.108406 0.000348409)
(0.00285854 -0.10386 0.0002702)
(0.00374565 -0.0932663 0.000276592)
(0.00426162 -0.0782722 0.000424227)
(0.00467245 -0.0625399 0.000686716)
(0.00507246 -0.0475663 0.00100326)
(0.00553981 -0.0335187 0.00134128)
(0.00617668 -0.0213958 0.00160494)
(0.00684987 -0.0128866 0.00162588)
(0.00745415 -0.00873058 0.00148959)
(0.00797833 -0.00695028 0.00136521)
(0.00851104 -0.00605583 0.00133486)
(0.00901102 -0.00562388 0.00140465)
(0.00953567 -0.00541311 0.00154914)
(0.0100304 -0.00539466 0.0017241)
(0.0105142 -0.00549104 0.00192312)
(0.0109772 -0.00564409 0.00214069)
(0.0114123 -0.00580085 0.00237002)
(0.0118124 -0.0058984 0.00260312)
(0.0121705 -0.0058521 0.0028299)
(0.0124836 -0.0055398 0.00303536)
(0.0127588 -0.00480218 0.00319211)
(0.012938 -0.00359578 0.00325922)
(0.0130809 -0.000692362 0.0033763)
(0.0130118 0.00306502 0.00354356)
(0.0127871 0.00964536 0.00382469)
(0.0122865 0.0204621 0.00427268)
(0.0116373 0.0358986 0.0049321)
(0.010308 0.0584889 0.00565536)
(0.00848912 0.0871103 0.00616403)
(0.0060138 0.11707 0.00616635)
(0.00291205 0.136829 0.00525914)
(0.000286401 0.102712 0.00269577)
(0.000171481 -0.0551656 -9.20221e-05)
(0.000737122 -0.105322 -0.00045359)
(0.00119417 -0.111598 -0.000518716)
(0.00161409 -0.105902 -0.000540329)
(0.00194894 -0.0938535 -0.000565631)
(0.00235458 -0.0789727 -0.000473842)
(0.00267563 -0.0630167 -0.000375147)
(0.00295312 -0.0478624 -0.000270302)
(0.00336752 -0.0349157 -5.12302e-05)
(0.00385931 -0.0244863 0.000181362)
(0.00446902 -0.0173579 0.000352284)
(0.00509172 -0.01362 0.000420195)
(0.00565926 -0.011863 0.000438979)
(0.00621759 -0.0109486 0.000483422)
(0.00679546 -0.0104802 0.000580677)
(0.0073158 -0.0103003 0.000708093)
(0.00785532 -0.0102549 0.000877539)
(0.00836352 -0.0102905 0.00106239)
(0.00885466 -0.0103535 0.00125711)
(0.00932166 -0.0103896 0.00145525)
(0.00975687 -0.0103306 0.00165094)
(0.0101771 -0.0100898 0.00183852)
(0.0105263 -0.0096095 0.00197168)
(0.0108716 -0.00860188 0.00205559)
(0.0111341 -0.00690861 0.00206573)
(0.0113648 -0.00381686 0.00206621)
(0.0114817 0.00199105 0.0021445)
(0.0114239 0.00794286 0.00223375)
(0.0111837 0.0208641 0.00252276)
(0.0106338 0.0386975 0.00302844)
(0.00968984 0.0621828 0.00381359)
(0.00805042 0.092522 0.00480622)
(0.0057008 0.126979 0.00538137)
(0.00260636 0.150935 0.0047807)
(0.000206124 0.11069 0.00232302)
(9.38894e-05 -0.0573792 -8.45295e-06)
(0.000479339 -0.108374 -0.000347424)
(0.000868457 -0.114698 -0.00050511)
(0.001261 -0.109134 -0.000580394)
(0.00166972 -0.0976523 -0.000616474)
(0.00203609 -0.082956 -0.000601561)
(0.00241187 -0.0674576 -0.000529184)
(0.00282398 -0.0527918 -0.00041036)
(0.00327687 -0.0398097 -0.000265246)
(0.00375427 -0.0291095 -0.00011678)
(0.00424972 -0.0214745 -1.39807e-06)
(0.00472885 -0.0172317 5.05862e-05)
(0.00515342 -0.0152433 6.32425e-05)
(0.0055705 -0.0142176 9.79805e-05)
(0.00599787 -0.0136506 0.00017986)
(0.00641352 -0.0133732 0.000292493)
(0.00679258 -0.0132955 0.00041538)
(0.00719015 -0.0133111 0.000566158)
(0.00756169 -0.0133464 0.000723695)
(0.00792152 -0.013341 0.000884335)
(0.00827091 -0.0132201 0.0010459)
(0.00857763 -0.0129403 0.00116986)
(0.00889575 -0.0123216 0.00127382)
(0.00916527 -0.0112687 0.00131954)
(0.00941406 -0.00958836 0.00127558)
(0.00965531 -0.00655167 0.00117895)
(0.00987774 -0.000211051 0.00112726)
(0.00989979 0.00683053 0.0011158)
(0.00974281 0.0211482 0.00118158)
(0.00941283 0.0411482 0.00158264)
(0.00835673 0.0699222 0.00239531)
(0.00632958 0.107811 0.00349852)
(0.00375803 0.146962 0.00413154)
(0.00125894 0.168101 0.00355676)
(-4.32345e-05 0.115119 0.00134307)
(0.000118468 -0.0587657 -0.000250718)
(0.000459452 -0.11097 -0.000557952)
(0.000767157 -0.117383 -0.000647103)
(0.00109779 -0.111432 -0.000711615)
(0.00140607 -0.0992527 -0.000791445)
(0.00166154 -0.0840832 -0.000848321)
(0.00191422 -0.0685707 -0.00085564)
(0.0021878 -0.0541946 -0.000801258)
(0.00250889 -0.0416072 -0.000687928)
(0.00287641 -0.0313814 -0.000537606)
(0.00328675 -0.0240972 -0.000393748)
(0.00369975 -0.0199316 -0.000301325)
(0.00406605 -0.0179293 -0.00025962)
(0.00442015 -0.0169005 -0.000214902)
(0.00478019 -0.0163338 -0.000136878)
(0.00513344 -0.0160263 -3.42408e-05)
(0.00545562 -0.0159155 7.24331e-05)
(0.00577599 -0.0159122 0.000195271)
(0.00607361 -0.0159138 0.000328106)
(0.00636175 -0.0158415 0.000466296)
(0.00661446 -0.0156801 0.000580862)
(0.00686527 -0.0153188 0.000685632)
(0.00708083 -0.014635 0.000759238)
(0.00727442 -0.0135232 0.000773643)
(0.00742288 -0.0117839 0.000717698)
(0.00756009 -0.00847535 0.000633789)
(0.00755665 -0.00136971 0.000588676)
(0.00739393 0.00711607 0.000620497)
(0.00713234 0.0224891 0.000889589)
(0.00644972 0.0469244 0.00150295)
(0.00547246 0.0800779 0.00257756)
(0.00409849 0.119698 0.00372661)
(0.00265707 0.156713 0.00424245)
(0.00122627 0.172895 0.0035828)
(0.000150297 0.11553 0.00131016)
(0.000117316 -0.0599865 -0.000311648)
(0.000403731 -0.112643 -0.000653638)
(0.000630721 -0.119077 -0.000755738)
(0.000905565 -0.113118 -0.000819833)
(0.00117798 -0.101075 -0.000885421)
(0.00144021 -0.0861124 -0.000933346)
(0.00171274 -0.070772 -0.000947666)
(0.00200136 -0.0565856 -0.000918031)
(0.00231892 -0.0442159 -0.000835442)
(0.00266665 -0.0340735 -0.000708046)
(0.00303254 -0.0266888 -0.000572148)
(0.00339379 -0.0222996 -0.000475901)
(0.00370896 -0.0201634 -0.000433599)
(0.00401166 -0.0190679 -0.000397908)
(0.00432197 -0.0184555 -0.000338248)
(0.00461886 -0.0181128 -0.000260651)
(0.00491603 -0.017917 -0.000169973)
(0.00518405 -0.0178311 -8.14479e-05)
(0.00546293 -0.0177596 2.11436e-05)
(0.00570791 -0.0176369 0.00011475)
(0.00595557 -0.0173863 0.000204186)
(0.0061805 -0.016912 0.000275678)
(0.00639316 -0.0161021 0.000314342)
(0.00658237 -0.0148731 0.000288488)
(0.00673269 -0.0129279 0.00019737)
(0.00684481 -0.00908394 7.27078e-05)
(0.00690898 -0.00111548 -2.73083e-05)
(0.0068274 0.00813277 -2.02945e-05)
(0.00653342 0.025521 0.000149036)
(0.00618643 0.0498425 0.000975511)
(0.00564263 0.0826768 0.00231888)
(0.00472393 0.12234 0.0038459)
(0.00326303 0.161244 0.00473195)
(0.00158047 0.180611 0.0040672)
(0.000284887 0.119249 0.00166082)
(0.000138367 -0.0610955 -0.000395247)
(0.000427828 -0.114539 -0.000645907)
(0.000647701 -0.120999 -0.000705492)
(0.000917184 -0.11489 -0.00076806)
(0.0011706 -0.10264 -0.000861119)
(0.00139271 -0.0875637 -0.000949162)
(0.00162258 -0.0722261 -0.00100329)
(0.00186629 -0.0581493 -0.00101056)
(0.002131 -0.0459532 -0.000959072)
(0.00242457 -0.0360009 -0.000851295)
(0.00274075 -0.0286776 -0.000718759)
(0.0030588 -0.0242301 -0.000614981)
(0.0033374 -0.0220485 -0.000569212)
(0.00360846 -0.0209446 -0.000543331)
(0.00389022 -0.0203465 -0.000506215)
(0.0041655 -0.0200227 -0.000458005)
(0.00444589 -0.0198413 -0.000401306)
(0.00471046 -0.019763 -0.000348478)
(0.00499011 -0.0196979 -0.000290525)
(0.00524623 -0.0195741 -0.000239737)
(0.00551595 -0.0193167 -0.000198808)
(0.00577484 -0.0188312 -0.000175037)
(0.00603671 -0.0180026 -0.00018317)
(0.00628623 -0.0167431 -0.000258581)
(0.00652232 -0.0147816 -0.000426915)
(0.00676179 -0.0109865 -0.000692287)
(0.00705383 -0.00260842 -0.00103693)
(0.00716314 0.00799366 -0.00125456)
(0.00708708 0.0252868 -0.00123477)
(0.00694948 0.0511545 -0.000751689)
(0.00609169 0.0870887 0.000534336)
(0.00455016 0.131499 0.00234663)
(0.00277083 0.173243 0.00370786)
(0.00114606 0.188393 0.00364398)
(0.000107414 0.122485 0.00107959)
(0.000167072 -0.0621868 -0.000478539)
(0.000425685 -0.116066 -0.000739639)
(0.000570669 -0.122564 -0.000781687)
(0.000763123 -0.116352 -0.000826538)
(0.000940725 -0.103994 -0.000905561)
(0.00109828 -0.0889305 -0.000991184)
(0.00126342 -0.0737175 -0.00105462)
(0.00146915 -0.0597116 -0.00107352)
(0.00170892 -0.0476292 -0.0010345)
(0.00198761 -0.0377814 -0.000935606)
(0.00229756 -0.030452 -0.000798896)
(0.00260077 -0.0259101 -0.000682311)
(0.0028572 -0.023661 -0.000627681)
(0.00310288 -0.0225465 -0.000603747)
(0.00335638 -0.0219717 -0.000577638)
(0.00360441 -0.0216761 -0.000544247)
(0.00385474 -0.021517 -0.00050508)
(0.00410182 -0.0214393 -0.000466451)
(0.00434565 -0.0213823 -0.000429533)
(0.00458479 -0.0212827 -0.000402037)
(0.00483485 -0.0210541 -0.000385866)
(0.00507651 -0.0205896 -0.000383698)
(0.00532263 -0.0197805 -0.0004113)
(0.00556221 -0.0185515 -0.000506442)
(0.00580134 -0.0166917 -0.000717315)
(0.00607466 -0.013134 -0.0010881)
(0.00639493 -0.00462978 -0.00164145)
(0.00655415 0.00812228 -0.00206293)
(0.006492 0.0258556 -0.00225306)
(0.00605469 0.0569188 -0.00207272)
(0.00500603 0.0973988 -0.0010376)
(0.00346726 0.142373 0.000582971)
(0.00205175 0.181073 0.00186907)
(0.000641866 0.195669 0.00181384)
(-3.57381e-05 0.122633 0.000325159)
(0.000166242 -0.0631462 -0.000440177)
(0.000365431 -0.117176 -0.000633089)
(0.000458418 -0.123399 -0.000677498)
(0.000604277 -0.116975 -0.000723902)
(0.000725072 -0.104562 -0.000793503)
(0.000830791 -0.0893964 -0.000865184)
(0.000957754 -0.0743489 -0.000925264)
(0.00116413 -0.0607366 -0.000952153)
(0.0014207 -0.0489109 -0.000927727)
(0.00169107 -0.0394076 -0.000870766)
(0.00195476 -0.032157 -0.000766729)
(0.00220653 -0.0274703 -0.00066335)
(0.00241619 -0.0250966 -0.0006102)
(0.00261557 -0.0239364 -0.000588868)
(0.00281938 -0.0233599 -0.000570352)
(0.00301814 -0.0230796 -0.000547612)
(0.00321783 -0.0229426 -0.000521071)
(0.00341823 -0.0228719 -0.000493298)
(0.00361597 -0.0228129 -0.000467467)
(0.00380953 -0.022714 -0.000448536)
(0.00399976 -0.0224877 -0.000438381)
(0.00418534 -0.0220171 -0.000440049)
(0.00436841 -0.0212049 -0.000467232)
(0.00454298 -0.0200053 -0.000555142)
(0.00472267 -0.0182672 -0.000755715)
(0.00487395 -0.014988 -0.00112721)
(0.00511435 -0.00627827 -0.00177168)
(0.00516817 0.00896944 -0.00230997)
(0.0050187 0.0289218 -0.00258377)
(0.00441312 0.0625394 -0.00240832)
(0.00343576 0.104529 -0.00156151)
(0.00228644 0.150809 -0.000382869)
(0.000931849 0.189474 0.000484975)
(0.000190624 0.201825 0.000310922)
(7.0833e-05 0.122084 -0.000444913)
(0.000177192 -0.0638281 -0.000417716)
(0.000328125 -0.118169 -0.00053916)
(0.00040097 -0.12446 -0.000562458)
(0.000559245 -0.117912 -0.000600114)
(0.000685897 -0.1054 -0.000664579)
(0.000837668 -0.0903894 -0.000732706)
(0.001022 -0.0757781 -0.000801239)
(0.00120185 -0.06258 -0.000846914)
(0.00137816 -0.0507865 -0.000842524)
(0.00156206 -0.040906 -0.000774305)
(0.00173763 -0.0334063 -0.000675806)
(0.00191256 -0.028561 -0.000579304)
(0.00206414 -0.0260994 -0.000527316)
(0.0022092 -0.0249121 -0.000506296)
(0.00235659 -0.0243415 -0.000490216)
(0.00249925 -0.02408 -0.000470845)
(0.00264013 -0.0239623 -0.00044783)
(0.002779 -0.0239017 -0.000423022)
(0.00291442 -0.023841 -0.000398849)
(0.00304438 -0.0237196 -0.000377674)
(0.00316605 -0.0234564 -0.000362143)
(0.00327918 -0.0229527 -0.000356874)
(0.00338387 -0.0221198 -0.000373515)
(0.00347802 -0.0209301 -0.000442917)
(0.00355798 -0.0192199 -0.000609702)
(0.00362812 -0.0157941 -0.00093421)
(0.00358574 -0.00650089 -0.00144878)
(0.00349545 0.00971419 -0.0018833)
(0.00318159 0.0330216 -0.0020982)
(0.00246631 0.0692661 -0.00191086)
(0.00152935 0.112541 -0.00122464)
(0.000753085 0.158364 -0.000384694)
(0.000220887 0.196263 6.17468e-05)
(0.000136847 0.200587 5.31176e-05)
(0.000182681 0.120749 -0.00072639)
(0.000174871 -0.0642986 -0.00039209)
(0.000306111 -0.118807 -0.000509046)
(0.000317244 -0.125321 -0.000523121)
(0.000466306 -0.118527 -0.000538563)
(0.000641422 -0.10639 -0.000606206)
(0.000788227 -0.0915629 -0.000675598)
(0.000923152 -0.0766291 -0.000738293)
(0.000998411 -0.0628751 -0.000776601)
(0.00104928 -0.0510476 -0.00077264)
(0.00113478 -0.0412488 -0.000710102)
(0.00128142 -0.0339521 -0.00061763)
(0.00143342 -0.0292145 -0.000526395)
(0.00156235 -0.0267632 -0.000473694)
(0.00168182 -0.0255719 -0.000450438)
(0.00179919 -0.024999 -0.000432812)
(0.00191014 -0.0247333 -0.000413097)
(0.00201641 -0.0246082 -0.000390591)
(0.00211792 -0.0245351 -0.000366596)
(0.00221363 -0.024452 -0.000342816)
(0.00230218 -0.0242934 -0.000321041)
(0.00238213 -0.0239776 -0.000303518)
(0.00245247 -0.0234112 -0.00029457)
(0.0025124 -0.0225196 -0.000305075)
(0.00255949 -0.0212978 -0.000362054)
(0.0025775 -0.0194982 -0.000498828)
(0.0025735 -0.0155905 -0.000766262)
(0.00243688 -0.00516243 -0.00112798)
(0.00227837 0.0120244 -0.00133052)
(0.00201509 0.038427 -0.00126519)
(0.00159033 0.0749447 -0.000853934)
(0.00122407 0.117091 -0.000224565)
(0.000618648 0.159098 0.000379575)
(0.000231461 0.195066 0.000430398)
(0.000354372 0.200304 0.000174281)
(0.000269558 0.120513 -0.000498206)
(0.000184254 -0.0647957 -0.000351942)
(0.000327714 -0.119457 -0.000430721)
(0.000351676 -0.125992 -0.000440842)
(0.000461354 -0.119938 -0.000480402)
(0.000561304 -0.107385 -0.000532193)
(0.000618489 -0.0922384 -0.000592789)
(0.000663193 -0.0771006 -0.000646249)
(0.00072713 -0.0632197 -0.000670942)
(0.000805062 -0.0513811 -0.000658697)
(0.000918108 -0.0420645 -0.000625198)
(0.00105192 -0.0348505 -0.000551363)
(0.00118919 -0.0300154 -0.000470318)
(0.00130316 -0.0274619 -0.000421025)
(0.00140671 -0.0262178 -0.000399452)
(0.00150792 -0.0256217 -0.000385443)
(0.00160507 -0.0253434 -0.000370979)
(0.00169913 -0.0252064 -0.000354855)
(0.00179059 -0.0251187 -0.00033813)
(0.00187877 -0.0250161 -0.000322269)
(0.00196309 -0.0248314 -0.000308567)
(0.00204471 -0.0244802 -0.0002982)
(0.00212317 -0.0238712 -0.000294479)
(0.00219729 -0.0229444 -0.000309708)
(0.00226618 -0.0217027 -0.000371027)
(0.0023174 -0.0198797 -0.000507555)
(0.00233804 -0.0158745 -0.000773012)
(0.00233156 -0.00505923 -0.00119834)
(0.00227789 0.0124659 -0.00147558)
(0.0021447 0.0389582 -0.00145766)
(0.00177127 0.0755725 -0.00100723)
(0.0012459 0.118206 -0.000267791)
(0.000587767 0.166045 0.000273167)
(0.000292885 0.195881 0.000563535)
(0.000349482 0.200179 0.000309251)
(0.000263256 0.120564 -0.000328375)
(0.000206213 -0.0653927 -0.000295821)
(0.000341247 -0.120341 -0.000351594)
(0.00034308 -0.126754 -0.000357778)
(0.000396323 -0.120415 -0.000390969)
(0.000402284 -0.107459 -0.000416215)
(0.000465388 -0.0922074 -0.000456526)
(0.000521377 -0.0775378 -0.000515609)
(0.000572581 -0.0637301 -0.000536439)
(0.000649212 -0.0520682 -0.000540648)
(0.0007305 -0.042594 -0.000509102)
(0.000822302 -0.0353586 -0.000450114)
(0.000924869 -0.0305142 -0.000382868)
(0.00101293 -0.0279397 -0.000339566)
(0.0010916 -0.0266894 -0.000318428)
(0.00116784 -0.026099 -0.00030357)
(0.00124063 -0.0258307 -0.000287969)
(0.00131041 -0.025704 -0.000270719)
(0.00137745 -0.0256254 -0.000252892)
(0.00144106 -0.0255303 -0.000235922)
(0.00150063 -0.0253527 -0.000221428)
(0.00155445 -0.0250137 -0.000211605)
(0.00160615 -0.0244257 -0.000209762)
(0.00165716 -0.0235165 -0.000221402)
(0.00169698 -0.0222943 -0.000265878)
(0.0017311 -0.0204792 -0.000376215)
(0.0017206 -0.0163716 -0.000591054)
(0.00167418 -0.00504807 -0.000940754)
(0.00159768 0.014264 -0.00121562)
(0.0013583 0.0435788 -0.0012755)
(0.000951017 0.0823708 -0.000975106)
(0.000450257 0.126327 -0.00041196)
(0.000306527 0.165715 0.000265227)
(0.000274325 0.195929 0.000532511)
(0.000433161 0.200752 0.000256778)
(0.000301909 0.120362 -0.000368498)
(0.00018451 -0.0657283 -0.000220983)
(0.000277184 -0.120798 -0.000281374)
(0.000204421 -0.126976 -0.000277692)
(0.00025699 -0.120327 -0.000285552)
(0.000348667 -0.107912 -0.000312118)
(0.000429478 -0.0932592 -0.000364815)
(0.000452652 -0.0777356 -0.000389336)
(0.000467868 -0.06397 -0.000414136)
(0.000499755 -0.0522737 -0.000419302)
(0.000550052 -0.0427101 -0.000392666)
(0.00061843 -0.0356648 -0.000354193)
(0.000690857 -0.0308667 -0.000305463)
(0.000753617 -0.0282628 -0.000271821)
(0.000807706 -0.0269896 -0.000254525)
(0.000857969 -0.0263844 -0.000242039)
(0.000903949 -0.0261031 -0.000229077)
(0.000945431 -0.0259614 -0.000215009)
(0.000982263 -0.0258631 -0.000200706)
(0.00101374 -0.0257403 -0.000187253)
(0.00103935 -0.025525 -0.000175728)
(0.00105898 -0.0251415 -0.000167413)
(0.00107291 -0.0245141 -0.000164523)
(0.00108045 -0.0235898 -0.000172044)
(0.00107724 -0.022377 -0.000203027)
(0.00104479 -0.0205494 -0.000275364)
(0.000969012 -0.0162378 -0.000420957)
(0.00080754 -0.0044834 -0.000614216)
(0.000700672 0.0160455 -0.000722883)
(0.000592952 0.0458546 -0.000678065)
(0.000594468 0.0831964 -0.000500194)
(0.000625087 0.125207 -0.000128633)
(0.000600184 0.165728 0.000333506)
(0.000267347 0.19566 0.000548245)
(0.000379094 0.200916 0.00029388)
(0.000373496 0.120311 -0.000231566)
(0.000171475 -0.0658392 -0.000191537)
(0.000216853 -0.121295 -0.000253511)
(0.000181631 -0.127158 -0.000244066)
(0.000274365 -0.121074 -0.000254486)
(0.000325276 -0.108954 -0.000280039)
(0.000319932 -0.0933705 -0.000300849)
(0.000319395 -0.0778801 -0.000317974)
(0.0003501 -0.0641328 -0.000333478)
(0.000385351 -0.0524877 -0.000332261)
(0.000447996 -0.0431622 -0.000321676)
(0.000499342 -0.0359485 -0.0002882)
(0.000559234 -0.0310996 -0.000247494)
(0.000611893 -0.0284943 -0.000218947)
(0.000657781 -0.0272239 -0.000203927)
(0.000700338 -0.0266211 -0.000192904)
(0.000739401 -0.0263394 -0.000181409)
(0.000774757 -0.0261942 -0.000169061)
(0.000806247 -0.0260915 -0.000156839)
(0.000833492 -0.0259668 -0.000145948)
(0.000856423 -0.0257544 -0.000137577)
(0.000875303 -0.0253747 -0.000132857)
(0.000891284 -0.0247407 -0.000133388)
(0.000903301 -0.0237946 -0.000143406)
(0.000904691 -0.0225586 -0.00017492)
(0.000884377 -0.0206858 -0.000244223)
(0.000804597 -0.016256 -0.000371994)
(0.000675995 -0.00433347 -0.000565399)
(0.000580447 0.0163536 -0.00067669)
(0.000479139 0.0461948 -0.000587308)
(0.000335704 0.0840934 -0.0003154)
(0.000308697 0.126071 4.78263e-05)
(0.000346787 0.168889 0.000368204)
(0.000208076 0.198306 0.00051882)
(0.00039513 0.200443 0.000342929)
(0.000380803 0.120041 -0.000139726)
(0.000177974 -0.0659135 -0.000163914)
(0.000232632 -0.121411 -0.000215195)
(0.000192273 -0.128104 -0.000224907)
(0.000224854 -0.121532 -0.000228003)
(0.000168165 -0.108887 -0.000238049)
(0.000114778 -0.0934991 -0.000243672)
(0.000124323 -0.0785316 -0.000259329)
(0.000164877 -0.0643101 -0.000250592)
(0.000208286 -0.0530445 -0.000260958)
(0.000252134 -0.0431377 -0.000228963)
(0.000311607 -0.0360751 -0.000201614)
(0.000361979 -0.0312986 -0.000170213)
(0.000407475 -0.0286924 -0.00014756)
(0.000444872 -0.02741 -0.000134685)
(0.000476483 -0.0267973 -0.000124067)
(0.000502541 -0.0265052 -0.000112424)
(0.000521618 -0.0263477 -9.9627e-05)
(0.000534306 -0.0262313 -8.66192e-05)
(0.000541985 -0.0260908 -7.44819e-05)
(0.000545259 -0.02586 -6.42383e-05)
(0.000544601 -0.0254628 -5.67944e-05)
(0.000541802 -0.0248206 -5.3172e-05)
(0.000537581 -0.0238816 -5.55781e-05)
(0.000525341 -0.0226636 -7.07818e-05)
(0.000486888 -0.0207876 -0.000106822)
(0.000395631 -0.0162054 -0.000176405)
(0.000237351 -0.00373624 -0.000251633)
(0.000150735 0.0184338 -0.000277328)
(0.000164066 0.0496442 -0.000213593)
(0.000196523 0.0860644 -2.89382e-05)
(0.000162535 0.126328 0.00025131)
(0.000260068 0.166908 0.000513415)
(0.000254416 0.19641 0.000613403)
(0.000493835 0.199598 0.000442754)
(0.000383022 0.11993 -4.89556e-06)
(0.000163311 -0.0659874 -0.000121209)
(0.000231888 -0.121409 -0.000167453)
(0.000170113 -0.128451 -0.000189445)
(0.000134105 -0.121202 -0.000180011)
(0.000122307 -0.108523 -0.000175052)
(0.00019085 -0.0933678 -0.000177828)
(0.000208422 -0.0785234 -0.000192344)
(0.000186358 -0.0648215 -0.000202507)
(0.000211228 -0.0529816 -0.000201204)
(0.000234204 -0.0437461 -0.00019903)
(0.000281939 -0.0362889 -0.000175058)
(0.000327232 -0.0314331 -0.000152763)
(0.000366415 -0.0288506 -0.000138623)
(0.000397347 -0.0275565 -0.000129654)
(0.000425366 -0.0269288 -0.000122665)
(0.0004488 -0.0265973 -0.000113971)
(0.000471182 -0.0264071 -0.000105718)
(0.000488822 -0.026273 -9.86319e-05)
(0.000501484 -0.0261325 -9.37078e-05)
(0.000509338 -0.025911 -9.15849e-05)
(0.000513043 -0.0255294 -9.31388e-05)
(0.000513965 -0.0249053 -9.9366e-05)
(0.00051293 -0.0239809 -0.000111708)
(0.000502659 -0.0227702 -0.000133737)
(0.000456782 -0.0208945 -0.000169436)
(0.000336553 -0.0162491 -0.000222287)
(0.000169119 -0.00381691 -0.000258871)
(0.000139101 0.0177376 -0.000212697)
(0.000270632 0.0483133 -8.53497e-05)
(0.000438262 0.0855556 0.000104205)
(0.000528951 0.126976 0.000333432)
(0.000517415 0.166961 0.000550257)
(0.000369599 0.197773 0.000609943)
(0.000594338 0.201386 0.000445118)
(0.000467457 0.119686 5.70702e-05)
(0.00019749 -0.0659904 -0.000106264)
(0.000256015 -0.12207 -0.000161354)
(0.00015765 -0.127915 -0.000157702)
(0.000173082 -0.121595 -0.000156979)
(0.000153973 -0.10952 -0.000160674)
(0.000114767 -0.0945161 -0.000162834)
(8.33163e-05 -0.0784281 -0.000153751)
(8.35934e-05 -0.0650703 -0.000157834)
(8.78809e-05 -0.0530404 -0.00014722)
(0.000109203 -0.0435105 -0.000136125)
(0.00012369 -0.0363263 -0.000120404)
(0.000155439 -0.0315278 -0.000102803)
(0.000182593 -0.0289519 -9.0173e-05)
(0.000205392 -0.0276732 -8.33141e-05)
(0.000222652 -0.0270619 -7.81219e-05)
(0.000238908 -0.0267651 -7.332e-05)
(0.000253182 -0.0265989 -6.81591e-05)
(0.000266147 -0.0264606 -6.36466e-05)
(0.000275236 -0.0263022 -6.11877e-05)
(0.000278979 -0.0260573 -6.19039e-05)
(0.000276814 -0.0256522 -6.65126e-05)
(0.00026919 -0.0250066 -7.53673e-05)
(0.000256115 -0.0240691 -8.87654e-05)
(0.000230812 -0.0228524 -0.000107689)
(0.000175304 -0.0209466 -0.000135658)
(3.73845e-05 -0.0161723 -0.000176798)
(-0.000153179 -0.00327829 -0.000215365)
(-0.000214859 0.0189263 -0.000190079)
(-0.000128644 0.0494215 -6.44191e-05)
(3.7494e-05 0.0862217 0.000131146)
(0.000179162 0.12669 0.00035738)
(0.000247368 0.169645 0.000534328)
(0.000283644 0.197934 0.000606204)
(0.000501706 0.199647 0.000487626)
(0.000434926 0.11944 0.000128466)
(0.000189451 -0.0660951 -9.87284e-05)
(0.000280532 -0.121765 -0.000147738)
(0.000172517 -0.128709 -0.000153629)
(0.000176692 -0.121616 -0.000148211)
(0.000135423 -0.10876 -0.000148573)
(4.43423e-05 -0.0935703 -0.0001536)
(-4.13557e-06 -0.0787608 -0.000155335)
(-3.18039e-05 -0.0650362 -0.000153617)
(-4.32314e-05 -0.0534747 -0.000146849)
(-1.01735e-05 -0.0436804 -0.000130249)
(4.37897e-05 -0.0362824 -0.000110663)
(9.30954e-05 -0.0315342 -9.46451e-05)
(0.000126158 -0.0289886 -8.51089e-05)
(0.000151692 -0.0277063 -8.08447e-05)
(0.00016863 -0.027074 -7.78101e-05)
(0.000180366 -0.026765 -7.46969e-05)
(0.000186609 -0.0265893 -7.14974e-05)
(0.000187796 -0.0264544 -6.90643e-05)
(0.000183061 -0.0262907 -6.84684e-05)
(0.000173216 -0.0260335 -7.07334e-05)
(0.000158863 -0.0256057 -7.6636e-05)
(0.000141274 -0.0249304 -8.65607e-05)
(0.000120801 -0.0239645 -0.000100485)
(8.66228e-05 -0.0227231 -0.0001173)
(1.12715e-05 -0.0207443 -0.000135939)
(-0.000144321 -0.0157483 -0.000149263)
(-0.000324225 -0.00287181 -0.000126032)
(-0.000301734 0.0193915 -4.18981e-05)
(-6.14161e-05 0.049149 6.01224e-05)
(0.000108789 0.0853665 0.000210751)
(0.000283649 0.127886 0.000369432)
(0.000403359 0.166973 0.000542819)
(0.000489572 0.19649 0.000598272)
(0.000699424 0.199575 0.000500099)
(0.000397708 0.119363 0.000171183)
(0.000210779 -0.0661747 -8.39934e-05)
(0.000267254 -0.122596 -0.000131861)
(0.000118636 -0.128284 -0.000128665)
(8.33217e-05 -0.121768 -0.000124214)
(5.84032e-05 -0.109207 -0.000118702)
(5.00348e-05 -0.094094 -0.000116891)
(5.79389e-05 -0.0787426 -0.000114815)
(0.000100022 -0.0648535 -0.000111307)
(0.000118205 -0.0532196 -0.000107688)
(0.000130491 -0.044012 -0.000101444)
(0.000167133 -0.0366508 -8.98869e-05)
(0.00021723 -0.0317999 -8.03764e-05)
(0.000256226 -0.0291751 -7.78293e-05)
(0.000281951 -0.027856 -8.01247e-05)
(0.000306111 -0.0272109 -8.49634e-05)
(0.000328771 -0.0268877 -9.06941e-05)
(0.000350647 -0.0266945 -9.70547e-05)
(0.000370125 -0.0265245 -0.000104461)
(0.000390031 -0.0263457 -0.000115046)
(0.000406672 -0.0260878 -0.000129525)
(0.000422417 -0.025676 -0.000149014)
(0.00043775 -0.0250244 -0.000174175)
(0.000454207 -0.0240785 -0.000206031)
(0.000460453 -0.0228439 -0.000246087)
(0.000436469 -0.0209095 -0.000297743)
(0.000347157 -0.0161356 -0.000364858)
(0.000233487 -0.00327852 -0.00041625)
(0.000296759 0.0183319 -0.000373536)
(0.000454797 0.04853 -0.000214296)
(0.000488586 0.0863 -4.5468e-06)
(0.000398621 0.126071 0.000240849)
(0.000459377 0.16829 0.000406033)
(0.000501269 0.197688 0.00047246)
(0.000752949 0.202123 0.000374047)
(0.000547748 0.119986 0.000108567)
(0.00021187 -0.0660737 -8.92536e-05)
(0.000246928 -0.121987 -0.000120006)
(9.2694e-05 -0.128649 -0.000117781)
(6.79768e-05 -0.12176 -0.000109609)
(4.1251e-05 -0.109164 -0.000108142)
(5.70698e-05 -0.094122 -0.00011444)
(2.89113e-05 -0.0795116 -0.000126641)
(-3.14097e-06 -0.0658651 -0.000132176)
(-9.17383e-06 -0.0537532 -0.000124962)
(2.73111e-07 -0.0438327 -0.000108955)
(4.09985e-05 -0.0366753 -9.12511e-05)
(8.63152e-05 -0.0317761 -7.63323e-05)
(0.000121508 -0.0291971 -7.00604e-05)
(0.000144288 -0.0279217 -7.08381e-05)
(0.000161227 -0.0273054 -7.43127e-05)
(0.000175507 -0.0270073 -7.88742e-05)
(0.000187612 -0.0268462 -8.45371e-05)
(0.000200646 -0.0267319 -9.24886e-05)
(0.000211392 -0.0265804 -0.000103052)
(0.00022138 -0.0263325 -0.000117528)
(0.000229254 -0.02593 -0.000136497)
(0.000235063 -0.0252704 -0.000160412)
(0.00024035 -0.0243267 -0.000189417)
(0.000233792 -0.0230986 -0.000224369)
(0.000190259 -0.0211556 -0.000271026)
(6.51491e-05 -0.0162647 -0.000342116)
(-0.000104678 -0.00321929 -0.000423192)
(-0.000126828 0.0190761 -0.000446144)
(-4.33963e-05 0.0508947 -0.000360461)
(0.000173264 0.0881512 -0.000162996)
(0.000256792 0.129817 6.47206e-05)
(0.000261382 0.167268 0.000291591)
(0.000257971 0.197816 0.000359967)
(0.000518927 0.200635 0.000305636)
(0.00044173 0.119418 8.18044e-05)
(0.000211445 -0.066152 -7.55158e-05)
(0.000302171 -0.122123 -7.77683e-05)
(0.000188206 -0.128327 -7.15055e-05)
(0.000175122 -0.121858 -7.39311e-05)
(0.000134607 -0.110159 -9.18256e-05)
(7.79748e-05 -0.0945028 -0.000100736)
(4.66578e-06 -0.0791184 -0.000128347)
(-9.80595e-05 -0.0648864 -0.000138904)