/*--------------------------------*- C++ -*----------------------------------*\
  =========                 |
  \\      /  F ield         | OpenFOAM: The Open Source CFD Toolbox
   \\    /   O peration     | Website:  https://openfoam.org
    \\  /    A nd           | Version:  13
     \\/     M anipulation  |
\*---------------------------------------------------------------------------*/
FoamFile
{
    format      ascii;
    class       volScalarField;
    location    "21";
    object      k;
}
// * * * * * * * * * * * * * * * * * * * * * * * * * * * * * * * * * * * * * //

dimensions      [0 2 -2 0 0 0 0];

internalField   nonuniform List<scalar> 
78750
(
1.32617e-13
3.77591e-12
1.71312e-11
3.11205e-11
4.59351e-11
6.17076e-11
7.84611e-11
9.60836e-11
1.14325e-10
1.32811e-10
1.51066e-10
1.68548e-10
1.84679e-10
1.98887e-10
2.10639e-10
2.1948e-10
2.25055e-10
2.27137e-10
2.25641e-10
2.20624e-10
2.12289e-10
2.00967e-10
1.87098e-10
1.71203e-10
1.53848e-10
1.35612e-10
1.17046e-10
9.86364e-11
8.0772e-11
6.37174e-11
4.75957e-11
3.23852e-11
1.7932e-11
3.98342e-12
1.40477e-13
2.89692e-12
8.37792e-11
4.18449e-10
7.6581e-10
1.13342e-09
1.52593e-09
1.94448e-09
2.38642e-09
2.8454e-09
3.3118e-09
3.77338e-09
4.21608e-09
4.625e-09
4.98535e-09
5.28337e-09
5.50726e-09
5.6479e-09
5.69945e-09
5.65973e-09
5.53034e-09
5.3166e-09
5.02714e-09
4.67342e-09
4.26895e-09
3.82843e-09
3.36681e-09
2.89829e-09
2.43535e-09
1.98795e-09
1.56276e-09
1.16272e-09
7.86906e-10
4.30685e-10
8.6365e-11
2.98808e-12
8.33402e-12
2.4104e-10
1.20637e-09
2.22144e-09
3.31781e-09
4.51688e-09
5.82742e-09
7.2441e-09
8.74731e-09
1.03042e-08
1.18706e-08
1.33943e-08
1.48184e-08
1.60851e-08
1.714e-08
1.79357e-08
1.84355e-08
1.86159e-08
1.84682e-08
1.79993e-08
1.72312e-08
1.61993e-08
1.49498e-08
1.35366e-08
1.20174e-08
1.04492e-08
8.88501e-09
7.36975e-09
5.93736e-09
4.60851e-09
3.38948e-09
2.27215e-09
1.23532e-09
2.47095e-10
8.5468e-12
1.64702e-11
4.7635e-10
2.38597e-09
4.40469e-09
6.60333e-09
9.03139e-09
1.17118e-08
1.46373e-08
1.77698e-08
2.10413e-08
2.43584e-08
2.76078e-08
3.06637e-08
3.33961e-08
3.56807e-08
3.74084e-08
3.84936e-08
3.88814e-08
3.85518e-08
3.75216e-08
3.58427e-08
3.35984e-08
3.0896e-08
2.78587e-08
2.46162e-08
2.1295e-08
1.80095e-08
1.48549e-08
1.1901e-08
9.18801e-09
6.72494e-09
4.49008e-09
2.43432e-09
4.86423e-10
1.68238e-11
2.57923e-11
7.46043e-10
3.73823e-09
6.90798e-09
1.03715e-08
1.42111e-08
1.8466e-08
2.31274e-08
2.81358e-08
3.33835e-08
3.87204e-08
4.39633e-08
4.89068e-08
5.33368e-08
5.70471e-08
5.98556e-08
6.16189e-08
6.22446e-08
6.16996e-08
6.00126e-08
5.72718e-08
5.36172e-08
4.92286e-08
4.43107e-08
3.90771e-08
3.37342e-08
2.84667e-08
2.34272e-08
1.87261e-08
1.44257e-08
1.05375e-08
7.02399e-09
3.80361e-09
7.59634e-10
2.6269e-11
3.46028e-11
1.00112e-09
5.01784e-09
9.27714e-09
1.39386e-08
1.91155e-08
2.48632e-08
3.11709e-08
3.79592e-08
4.50826e-08
5.23375e-08
5.94743e-08
6.62119e-08
7.22562e-08
7.73225e-08
8.11585e-08
8.35655e-08
8.44155e-08
8.36626e-08
8.13473e-08
7.75927e-08
7.25937e-08
6.65994e-08
5.98926e-08
5.27671e-08
4.55049e-08
3.83576e-08
3.15316e-08
2.51757e-08
1.93729e-08
1.41371e-08
9.41535e-09
5.09545e-09
1.01723e-09
3.51677e-11
4.17482e-11
1.20821e-09
6.0574e-09
1.12024e-08
1.68383e-08
2.31042e-08
3.00682e-08
3.77185e-08
4.59594e-08
5.46145e-08
6.34365e-08
7.21217e-08
8.0327e-08
8.76923e-08
9.38684e-08
9.85454e-08
1.01479e-07
1.02511e-07
1.01586e-07
9.87539e-08
9.41671e-08
8.80654e-08
8.07555e-08
7.25844e-08
6.39118e-08
5.50818e-08
4.64003e-08
3.81175e-08
3.04136e-08
2.33882e-08
1.70569e-08
1.13542e-08
6.14238e-09
1.22583e-09
4.2366e-11
4.68242e-11
1.3555e-09
6.79744e-09
1.25734e-08
1.8904e-08
2.59468e-08
3.37795e-08
4.23895e-08
5.16693e-08
6.14207e-08
7.1365e-08
8.11598e-08
9.04174e-08
9.87303e-08
1.05702e-07
1.10983e-07
1.14293e-07
1.15455e-07
1.14405e-07
1.11201e-07
1.06016e-07
9.91222e-08
9.08677e-08
8.16462e-08
7.18647e-08
6.19122e-08
5.2133e-08
4.2809e-08
3.41425e-08
2.62449e-08
1.9133e-08
1.27321e-08
6.88612e-09
1.37388e-09
4.74685e-11
5.00268e-11
1.44855e-09
7.26542e-09
1.34406e-08
2.02111e-08
2.77462e-08
3.61298e-08
4.53487e-08
5.52882e-08
6.5736e-08
7.63937e-08
8.68942e-08
9.68213e-08
1.05737e-07
1.13216e-07
1.1888e-07
1.2243e-07
1.23674e-07
1.22545e-07
1.19103e-07
1.13536e-07
1.06137e-07
9.72813e-08
8.73912e-08
7.69046e-08
6.62385e-08
5.57623e-08
4.57775e-08
3.65006e-08
2.80506e-08
2.04447e-08
1.36022e-08
7.35559e-09
1.46724e-09
5.06818e-11
5.18419e-11
1.50137e-09
7.53128e-09
1.39333e-08
2.0954e-08
2.87693e-08
3.74666e-08
4.70323e-08
5.73479e-08
6.81929e-08
7.92575e-08
9.01606e-08
1.0047e-07
1.0973e-07
1.17498e-07
1.23381e-07
1.27068e-07
1.28359e-07
1.27184e-07
1.23606e-07
1.17821e-07
1.10133e-07
1.00933e-07
9.06616e-08
7.97725e-08
6.86995e-08
5.78258e-08
4.74647e-08
3.78403e-08
2.9076e-08
2.11892e-08
1.4096e-08
7.6219e-09
1.52015e-09
5.25e-11
5.27752e-11
1.52857e-09
7.66833e-09
1.41874e-08
2.13372e-08
2.92971e-08
3.81563e-08
4.79013e-08
5.84111e-08
6.94614e-08
8.07365e-08
9.18478e-08
1.02355e-07
1.11793e-07
1.19711e-07
1.25707e-07
1.29465e-07
1.3078e-07
1.29581e-07
1.25933e-07
1.20034e-07
1.12197e-07
1.02819e-07
9.235e-08
8.12527e-08
6.99692e-08
5.88902e-08
4.83346e-08
3.85308e-08
2.96043e-08
2.15727e-08
1.43502e-08
7.75899e-09
1.54735e-09
5.34336e-11
5.32144e-11
1.54138e-09
7.73298e-09
1.43073e-08
2.1518e-08
2.95462e-08
3.84819e-08
4.83116e-08
5.89134e-08
7.00608e-08
8.14353e-08
9.26453e-08
1.03246e-07
1.12768e-07
1.20757e-07
1.26807e-07
1.30598e-07
1.31925e-07
1.30714e-07
1.27032e-07
1.2108e-07
1.13173e-07
1.03711e-07
9.31476e-08
8.19517e-08
7.05688e-08
5.93926e-08
4.87451e-08
3.88566e-08
2.98534e-08
2.17535e-08
1.447e-08
7.82359e-09
1.56016e-09
5.38725e-11
5.34049e-11
1.54695e-09
7.7611e-09
1.43595e-08
2.15967e-08
2.96546e-08
3.86237e-08
4.84903e-08
5.91321e-08
7.03218e-08
8.17398e-08
9.29927e-08
1.03634e-07
1.13193e-07
1.21213e-07
1.27286e-07
1.31092e-07
1.32423e-07
1.31208e-07
1.27512e-07
1.21536e-07
1.13598e-07
1.04099e-07
9.3495e-08
8.22561e-08
7.08298e-08
5.96113e-08
4.89237e-08
3.89983e-08
2.99618e-08
2.18321e-08
1.45221e-08
7.85167e-09
1.56572e-09
5.40627e-11
5.34816e-11
1.5492e-09
7.77245e-09
1.43805e-08
2.16284e-08
2.96984e-08
3.86809e-08
4.85625e-08
5.92205e-08
7.04273e-08
8.18629e-08
9.31332e-08
1.03791e-07
1.13365e-07
1.21397e-07
1.2748e-07
1.31291e-07
1.32625e-07
1.31407e-07
1.27706e-07
1.21721e-07
1.13769e-07
1.04256e-07
9.36354e-08
8.23791e-08
7.09352e-08
5.96996e-08
4.89958e-08
3.90555e-08
3.00055e-08
2.18638e-08
1.45432e-08
7.86299e-09
1.56796e-09
5.41392e-11
5.35105e-11
1.55005e-09
7.77673e-09
1.43884e-08
2.16404e-08
2.97149e-08
3.87025e-08
4.85897e-08
5.92538e-08
7.04671e-08
8.19093e-08
9.31861e-08
1.0385e-07
1.1343e-07
1.21467e-07
1.27553e-07
1.31367e-07
1.32701e-07
1.31483e-07
1.27779e-07
1.2179e-07
1.13834e-07
1.04315e-07
9.36883e-08
8.24255e-08
7.09749e-08
5.97329e-08
4.9023e-08
3.9077e-08
3.0022e-08
2.18758e-08
1.45511e-08
7.86726e-09
1.5688e-09
5.4168e-11
5.35206e-11
1.55034e-09
7.77824e-09
1.43913e-08
2.16446e-08
2.97207e-08
3.87102e-08
4.85993e-08
5.92656e-08
7.04812e-08
8.19257e-08
9.32049e-08
1.03871e-07
1.13453e-07
1.21491e-07
1.27579e-07
1.31394e-07
1.32728e-07
1.31509e-07
1.27805e-07
1.21815e-07
1.13857e-07
1.04336e-07
9.3707e-08
8.24419e-08
7.0989e-08
5.97447e-08
4.90326e-08
3.90846e-08
3.00278e-08
2.188e-08
1.45539e-08
7.86876e-09
1.5691e-09
5.41781e-11
5.3524e-11
1.55044e-09
7.77874e-09
1.43922e-08
2.1646e-08
2.97227e-08
3.87127e-08
4.86025e-08
5.92695e-08
7.04858e-08
8.19311e-08
9.32111e-08
1.03878e-07
1.1346e-07
1.215e-07
1.27587e-07
1.31402e-07
1.32737e-07
1.31518e-07
1.27813e-07
1.21823e-07
1.13865e-07
1.04343e-07
9.37132e-08
8.24474e-08
7.09937e-08
5.97486e-08
4.90358e-08
3.90872e-08
3.00298e-08
2.18814e-08
1.45548e-08
7.86926e-09
1.5692e-09
5.41814e-11
5.3525e-11
1.55047e-09
7.7789e-09
1.43925e-08
2.16465e-08
2.97233e-08
3.87135e-08
4.86035e-08
5.92707e-08
7.04873e-08
8.19329e-08
9.32131e-08
1.0388e-07
1.13463e-07
1.21502e-07
1.2759e-07
1.31405e-07
1.3274e-07
1.31521e-07
1.27816e-07
1.21826e-07
1.13867e-07
1.04345e-07
9.37152e-08
8.24491e-08
7.09951e-08
5.97498e-08
4.90368e-08
3.9088e-08
3.00304e-08
2.18818e-08
1.45551e-08
7.86942e-09
1.56923e-09
5.41825e-11
5.35253e-11
1.55048e-09
7.77894e-09
1.43926e-08
2.16466e-08
2.97234e-08
3.87137e-08
4.86038e-08
5.92711e-08
7.04878e-08
8.19334e-08
9.32136e-08
1.03881e-07
1.13464e-07
1.21503e-07
1.27591e-07
1.31406e-07
1.32741e-07
1.31522e-07
1.27817e-07
1.21826e-07
1.13868e-07
1.04346e-07
9.37158e-08
8.24496e-08
7.09956e-08
5.97502e-08
4.90371e-08
3.90882e-08
3.00305e-08
2.1882e-08
1.45552e-08
7.86946e-09
1.56924e-09
5.41828e-11
5.35254e-11
1.55048e-09
7.77896e-09
1.43926e-08
2.16466e-08
2.97235e-08
3.87138e-08
4.86039e-08
5.92712e-08
7.04879e-08
8.19335e-08
9.32138e-08
1.03881e-07
1.13464e-07
1.21503e-07
1.27591e-07
1.31406e-07
1.32741e-07
1.31522e-07
1.27817e-07
1.21826e-07
1.13868e-07
1.04346e-07
9.37159e-08
8.24497e-08
7.09957e-08
5.97503e-08
4.90372e-08
3.90883e-08
3.00306e-08
2.1882e-08
1.45552e-08
7.86948e-09
1.56924e-09
5.41829e-11
5.35254e-11
1.55049e-09
7.77896e-09
1.43926e-08
2.16467e-08
2.97235e-08
3.87138e-08
4.86039e-08
5.92712e-08
7.04879e-08
8.19335e-08
9.32139e-08
1.03881e-07
1.13464e-07
1.21503e-07
1.27591e-07
1.31406e-07
1.32741e-07
1.31522e-07
1.27817e-07
1.21827e-07
1.13868e-07
1.04346e-07
9.3716e-08
8.24498e-08
7.09957e-08
5.97503e-08
4.90372e-08
3.90883e-08
3.00306e-08
2.1882e-08
1.45552e-08
7.86948e-09
1.56924e-09
5.41829e-11
5.35254e-11
1.55049e-09
7.77896e-09
1.43926e-08
2.16467e-08
2.97235e-08
3.87138e-08
4.86039e-08
5.92712e-08
7.04879e-08
8.19336e-08
9.32139e-08
1.03881e-07
1.13464e-07
1.21503e-07
1.27591e-07
1.31406e-07
1.32741e-07
1.31522e-07
1.27817e-07
1.21827e-07
1.13868e-07
1.04346e-07
9.3716e-08
8.24498e-08
7.09957e-08
5.97503e-08
4.90372e-08
3.90883e-08
3.00306e-08
2.1882e-08
1.45552e-08
7.86948e-09
1.56924e-09
5.41829e-11
5.35254e-11
1.55049e-09
7.77896e-09
1.43926e-08
2.16467e-08
2.97235e-08
3.87138e-08
4.86039e-08
5.92712e-08
7.04879e-08
8.19336e-08
9.32139e-08
1.03881e-07
1.13464e-07
1.21503e-07
1.27591e-07
1.31406e-07
1.32741e-07
1.31522e-07
1.27817e-07
1.21827e-07
1.13868e-07
1.04346e-07
9.3716e-08
8.24498e-08
7.09957e-08
5.97503e-08
4.90372e-08
3.90883e-08
3.00306e-08
2.1882e-08
1.45552e-08
7.86948e-09
1.56924e-09
5.41829e-11
5.35254e-11
1.55049e-09
7.77896e-09
1.43926e-08
2.16467e-08
2.97235e-08
3.87138e-08
4.86039e-08
5.92712e-08
7.04879e-08
8.19336e-08
9.32139e-08
1.03881e-07
1.13464e-07
1.21503e-07
1.27591e-07
1.31406e-07
1.32741e-07
1.31522e-07
1.27817e-07
1.21827e-07
1.13868e-07
1.04346e-07
9.3716e-08
8.24498e-08
7.09957e-08
5.97503e-08
4.90372e-08
3.90883e-08
3.00306e-08
2.1882e-08
1.45552e-08
7.86948e-09
1.56924e-09
5.41829e-11
5.35254e-11
1.55049e-09
7.77896e-09
1.43926e-08
2.16467e-08
2.97235e-08
3.87138e-08
4.86039e-08
5.92712e-08
7.04879e-08
8.19336e-08
9.32139e-08
1.03881e-07
1.13464e-07
1.21503e-07
1.27591e-07
1.31406e-07
1.32741e-07
1.31522e-07
1.27817e-07
1.21827e-07
1.13868e-07
1.04346e-07
9.3716e-08
8.24498e-08
7.09957e-08
5.97503e-08
4.90372e-08
3.90883e-08
3.00306e-08
2.1882e-08
1.45552e-08
7.86948e-09
1.56924e-09
5.41829e-11
5.35254e-11
1.55049e-09
7.77896e-09
1.43926e-08
2.16467e-08
2.97235e-08
3.87138e-08
4.86039e-08
5.92712e-08
7.04879e-08
8.19336e-08
9.32139e-08
1.03881e-07
1.13464e-07
1.21503e-07
1.27591e-07
1.31406e-07
1.32741e-07
1.31522e-07
1.27817e-07
1.21827e-07
1.13868e-07
1.04346e-07
9.3716e-08
8.24498e-08
7.09957e-08
5.97503e-08
4.90372e-08
3.90883e-08
3.00306e-08
2.1882e-08
1.45552e-08
7.86948e-09
1.56924e-09
5.41829e-11
5.35254e-11
1.55049e-09
7.77896e-09
1.43926e-08
2.16467e-08
2.97235e-08
3.87138e-08
4.86039e-08
5.92712e-08
7.04879e-08
8.19336e-08
9.32139e-08
1.03881e-07
1.13464e-07
1.21503e-07
1.27591e-07
1.31406e-07
1.32741e-07
1.31522e-07
1.27817e-07
1.21827e-07
1.13868e-07
1.04346e-07
9.3716e-08
8.24498e-08
7.09957e-08
5.97503e-08
4.90372e-08
3.90883e-08
3.00306e-08
2.1882e-08
1.45552e-08
7.86948e-09
1.56924e-09
5.41829e-11
5.35254e-11
1.55049e-09
7.77896e-09
1.43926e-08
2.16467e-08
2.97235e-08
3.87138e-08
4.86039e-08
5.92712e-08
7.04879e-08
8.19336e-08
9.32139e-08
1.03881e-07
1.13464e-07
1.21503e-07
1.27591e-07
1.31406e-07
1.32741e-07
1.31522e-07
1.27817e-07
1.21827e-07
1.13868e-07
1.04346e-07
9.3716e-08
8.24498e-08
7.09957e-08
5.97503e-08
4.90372e-08
3.90883e-08
3.00306e-08
2.1882e-08
1.45552e-08
7.86948e-09
1.56924e-09
5.41829e-11
5.35254e-11
1.55049e-09
7.77896e-09
1.43926e-08
2.16467e-08
2.97235e-08
3.87138e-08
4.86039e-08
5.92712e-08
7.04879e-08
8.19336e-08
9.32139e-08
1.03881e-07
1.13464e-07
1.21503e-07
1.27591e-07
1.31406e-07
1.32741e-07
1.31522e-07
1.27817e-07
1.21827e-07
1.13868e-07
1.04346e-07
9.3716e-08
8.24498e-08
7.09957e-08
5.97503e-08
4.90372e-08
3.90883e-08
3.00306e-08
2.1882e-08
1.45552e-08
7.86948e-09
1.56924e-09
5.41829e-11
5.35254e-11
1.55049e-09
7.77896e-09
1.43926e-08
2.16467e-08
2.97235e-08
3.87138e-08
4.86039e-08
5.92712e-08
7.04879e-08
8.19336e-08
9.32139e-08
1.03881e-07
1.13464e-07
1.21503e-07
1.27591e-07
1.31406e-07
1.32741e-07
1.31522e-07
1.27817e-07
1.21827e-07
1.13868e-07
1.04346e-07
9.3716e-08
8.24498e-08
7.09957e-08
5.97503e-08
4.90372e-08
3.90883e-08
3.00306e-08
2.1882e-08
1.45552e-08
7.86948e-09
1.56924e-09
5.41829e-11
5.35254e-11
1.55049e-09
7.77896e-09
1.43926e-08
2.16467e-08
2.97235e-08
3.87138e-08
4.86039e-08
5.92712e-08
7.04879e-08
8.19336e-08
9.32139e-08
1.03881e-07
1.13464e-07
1.21503e-07
1.27591e-07
1.31406e-07
1.32741e-07
1.31522e-07
1.27817e-07
1.21827e-07
1.13868e-07
1.04346e-07
9.3716e-08
8.24498e-08
7.09957e-08
5.97503e-08
4.90372e-08
3.90883e-08
3.00306e-08
2.1882e-08
1.45552e-08
7.86948e-09
1.56924e-09
5.41829e-11
5.35254e-11
1.55049e-09
7.77896e-09
1.43926e-08
2.16467e-08
2.97235e-08
3.87138e-08
4.86039e-08
5.92712e-08
7.04879e-08
8.19336e-08
9.32139e-08
1.03881e-07
1.13464e-07
1.21503e-07
1.27591e-07
1.31406e-07
1.32741e-07
1.31522e-07
1.27817e-07
1.21827e-07
1.13868e-07
1.04346e-07
9.3716e-08
8.24498e-08
7.09957e-08
5.97503e-08
4.90372e-08
3.90883e-08
3.00306e-08
2.1882e-08
1.45552e-08
7.86948e-09
1.56924e-09
5.41829e-11
5.35254e-11
1.55049e-09
7.77896e-09
1.43926e-08
2.16467e-08
2.97235e-08
3.87138e-08
4.86039e-08
5.92712e-08
7.04879e-08
8.19336e-08
9.32139e-08
1.03881e-07
1.13464e-07
1.21503e-07
1.27591e-07
1.31406e-07
1.32741e-07
1.31522e-07
1.27817e-07
1.21827e-07
1.13868e-07
1.04346e-07
9.3716e-08
8.24498e-08
7.09957e-08
5.97503e-08
4.90372e-08
3.90883e-08
3.00306e-08
2.1882e-08
1.45552e-08
7.86948e-09
1.56924e-09
5.41829e-11
5.35254e-11
1.55049e-09
7.77896e-09
1.43926e-08
2.16467e-08
2.97235e-08
3.87138e-08
4.86039e-08
5.92712e-08
7.04879e-08
8.19336e-08
9.32139e-08
1.03881e-07
1.13464e-07
1.21503e-07
1.27591e-07
1.31406e-07
1.32741e-07
1.31522e-07
1.27817e-07
1.21827e-07
1.13868e-07
1.04346e-07
9.3716e-08
8.24498e-08
7.09957e-08
5.97503e-08
4.90372e-08
3.90883e-08
3.00306e-08
2.1882e-08
1.45552e-08
7.86948e-09
1.56924e-09
5.41829e-11
5.35254e-11
1.55049e-09
7.77896e-09
1.43926e-08
2.16467e-08
2.97235e-08
3.87138e-08
4.86039e-08
5.92712e-08
7.04879e-08
8.19336e-08
9.32139e-08
1.03881e-07
1.13464e-07
1.21503e-07
1.27591e-07
1.31406e-07
1.32741e-07
1.31522e-07
1.27817e-07
1.21827e-07
1.13868e-07
1.04346e-07
9.3716e-08
8.24498e-08
7.09957e-08
5.97503e-08
4.90372e-08
3.90883e-08
3.00306e-08
2.1882e-08
1.45552e-08
7.86948e-09
1.56924e-09
5.41829e-11
5.35254e-11
1.55049e-09
7.77896e-09
1.43926e-08
2.16467e-08
2.97235e-08
3.87138e-08
4.86039e-08
5.92712e-08
7.04879e-08
8.19336e-08
9.32139e-08
1.03881e-07
1.13464e-07
1.21503e-07
1.27591e-07
1.31406e-07
1.32741e-07
1.31522e-07
1.27817e-07
1.21827e-07
1.13868e-07
1.04346e-07
9.3716e-08
8.24498e-08
7.09957e-08
5.97503e-08
4.90372e-08
3.90883e-08
3.00306e-08
2.1882e-08
1.45552e-08
7.86948e-09
1.56924e-09
5.41829e-11
5.35254e-11
1.55049e-09
7.77896e-09
1.43926e-08
2.16467e-08
2.97235e-08
3.87138e-08
4.86039e-08
5.92712e-08
7.04879e-08
8.19336e-08
9.32139e-08
1.03881e-07
1.13464e-07
1.21503e-07
1.27591e-07
1.31406e-07
1.32741e-07
1.31522e-07
1.27817e-07
1.21827e-07
1.13868e-07
1.04346e-07
9.3716e-08
8.24498e-08
7.09957e-08
5.97503e-08
4.90372e-08
3.90883e-08
3.00306e-08
2.1882e-08
1.45552e-08
7.86948e-09
1.56924e-09
5.41829e-11
5.35254e-11
1.55049e-09
7.77896e-09
1.43926e-08
2.16467e-08
2.97235e-08
3.87138e-08
4.86039e-08
5.92712e-08
7.04879e-08
8.19336e-08
9.32139e-08
1.03881e-07
1.13464e-07
1.21503e-07
1.27591e-07
1.31406e-07
1.32741e-07
1.31522e-07
1.27817e-07
1.21827e-07
1.13868e-07
1.04346e-07
9.3716e-08
8.24498e-08
7.09957e-08
5.97503e-08
4.90372e-08
3.90883e-08
3.00306e-08
2.1882e-08
1.45552e-08
7.86948e-09
1.56924e-09
5.41829e-11
5.35254e-11
1.55049e-09
7.77896e-09
1.43926e-08
2.16467e-08
2.97235e-08
3.87138e-08
4.86039e-08
5.92712e-08
7.04879e-08
8.19336e-08
9.32139e-08
1.03881e-07
1.13464e-07
1.21503e-07
1.27591e-07
1.31406e-07
1.32741e-07
1.31522e-07
1.27817e-07
1.21827e-07
1.13868e-07
1.04346e-07
9.3716e-08
8.24498e-08
7.09957e-08
5.97503e-08
4.90372e-08
3.90883e-08
3.00306e-08
2.1882e-08
1.45552e-08
7.86948e-09
1.56924e-09
5.41829e-11
5.35254e-11
1.55049e-09
7.77896e-09
1.43926e-08
2.16467e-08
2.97235e-08
3.87138e-08
4.86039e-08
5.92712e-08
7.04879e-08
8.19336e-08
9.32139e-08
1.03881e-07
1.13464e-07
1.21503e-07
1.27591e-07
1.31406e-07
1.32741e-07
1.31522e-07
1.27817e-07
1.21827e-07
1.13868e-07
1.04346e-07
9.3716e-08
8.24498e-08
7.09957e-08
5.97503e-08
4.90372e-08
3.90883e-08
3.00306e-08
2.1882e-08
1.45552e-08
7.86948e-09
1.56924e-09
5.41829e-11
5.35254e-11
1.55049e-09
7.77896e-09
1.43926e-08
2.16467e-08
2.97235e-08
3.87138e-08
4.86039e-08
5.92712e-08
7.04879e-08
8.19336e-08
9.32139e-08
1.03881e-07
1.13464e-07
1.21503e-07
1.27591e-07
1.31406e-07
1.32741e-07
1.31522e-07
1.27817e-07
1.21827e-07
1.13868e-07
1.04346e-07
9.3716e-08
8.24498e-08
7.09957e-08
5.97503e-08
4.90372e-08
3.90883e-08
3.00306e-08
2.1882e-08
1.45552e-08
7.86948e-09
1.56924e-09
5.41829e-11
5.35254e-11
1.55049e-09
7.77896e-09
1.43926e-08
2.16467e-08
2.97235e-08
3.87138e-08
4.86039e-08
5.92712e-08
7.04879e-08
8.19336e-08
9.32139e-08
1.03881e-07
1.13464e-07
1.21503e-07
1.27591e-07
1.31406e-07
1.32741e-07
1.31522e-07
1.27817e-07
1.21827e-07
1.13868e-07
1.04346e-07
9.3716e-08
8.24498e-08
7.09957e-08
5.97503e-08
4.90372e-08
3.90883e-08
3.00306e-08
2.1882e-08
1.45552e-08
7.86948e-09
1.56924e-09
5.41829e-11
5.35254e-11
1.55049e-09
7.77896e-09
1.43926e-08
2.16467e-08
2.97235e-08
3.87138e-08
4.86039e-08
5.92712e-08
7.04879e-08
8.19336e-08
9.32139e-08
1.03881e-07
1.13464e-07
1.21503e-07
1.27591e-07
1.31406e-07
1.32741e-07
1.31522e-07
1.27817e-07
1.21827e-07
1.13868e-07
1.04346e-07
9.3716e-08
8.24498e-08
7.09957e-08
5.97503e-08
4.90372e-08
3.90883e-08
3.00306e-08
2.1882e-08
1.45552e-08
7.86948e-09
1.56924e-09
5.41829e-11
5.35254e-11
1.55049e-09
7.77896e-09
1.43926e-08
2.16467e-08
2.97235e-08
3.87138e-08
4.86039e-08
5.92712e-08
7.04879e-08
8.19336e-08
9.32139e-08
1.03881e-07
1.13464e-07
1.21503e-07
1.27591e-07
1.31406e-07
1.32741e-07
1.31522e-07
1.27817e-07
1.21827e-07
1.13868e-07
1.04346e-07
9.3716e-08
8.24498e-08
7.09957e-08
5.97503e-08
4.90372e-08
3.90883e-08
3.00306e-08
2.1882e-08
1.45552e-08
7.86948e-09
1.56924e-09
5.41829e-11
5.35254e-11
1.55049e-09
7.77896e-09
1.43926e-08
2.16467e-08
2.97235e-08
3.87138e-08
4.86039e-08
5.92712e-08
7.04879e-08
8.19336e-08
9.32139e-08
1.03881e-07
1.13464e-07
1.21503e-07
1.27591e-07
1.31406e-07
1.32741e-07
1.31522e-07
1.27817e-07
1.21827e-07
1.13868e-07
1.04346e-07
9.3716e-08
8.24498e-08
7.09957e-08
5.97503e-08
4.90372e-08
3.90883e-08
3.00306e-08
2.1882e-08
1.45552e-08
7.86948e-09
1.56924e-09
5.41829e-11
5.35254e-11
1.55049e-09
7.77896e-09
1.43926e-08
2.16467e-08
2.97235e-08
3.87138e-08
4.86039e-08
5.92712e-08
7.04879e-08
8.19336e-08
9.32139e-08
1.03881e-07
1.13464e-07
1.21503e-07
1.27591e-07
1.31406e-07
1.32741e-07
1.31522e-07
1.27817e-07
1.21827e-07
1.13868e-07
1.04346e-07
9.3716e-08
8.24498e-08
7.09957e-08
5.97503e-08
4.90372e-08
3.90883e-08
3.00306e-08
2.1882e-08
1.45552e-08
7.86948e-09
1.56924e-09
5.41829e-11
5.35254e-11
1.55049e-09
7.77896e-09
1.43926e-08
2.16467e-08
2.97235e-08
3.87138e-08
4.86039e-08
5.92712e-08
7.04879e-08
8.19336e-08
9.32139e-08
1.03881e-07
1.13464e-07
1.21503e-07
1.27591e-07
1.31406e-07
1.32741e-07
1.31522e-07
1.27817e-07
1.21827e-07
1.13868e-07
1.04346e-07
9.3716e-08
8.24498e-08
7.09957e-08
5.97503e-08
4.90372e-08
3.90883e-08
3.00306e-08
2.1882e-08
1.45552e-08
7.86948e-09
1.56924e-09
5.41829e-11
5.35254e-11
1.55049e-09
7.77896e-09
1.43926e-08
2.16467e-08
2.97235e-08
3.87138e-08
4.86039e-08
5.92712e-08
7.04879e-08
8.19336e-08
9.32139e-08
1.03881e-07
1.13464e-07
1.21503e-07
1.27591e-07
1.31406e-07
1.32741e-07
1.31522e-07
1.27817e-07
1.21827e-07
1.13868e-07
1.04346e-07
9.3716e-08
8.24498e-08
7.09957e-08
5.97503e-08
4.90372e-08
3.90883e-08
3.00306e-08
2.1882e-08
1.45552e-08
7.86948e-09
1.56924e-09
5.41829e-11
5.35254e-11
1.55049e-09
7.77896e-09
1.43926e-08
2.16467e-08
2.97235e-08
3.87138e-08
4.86039e-08
5.92712e-08
7.04879e-08
8.19336e-08
9.32139e-08
1.03881e-07
1.13464e-07
1.21503e-07
1.27591e-07
1.31406e-07
1.32741e-07
1.31522e-07
1.27817e-07
1.21827e-07
1.13868e-07
1.04346e-07
9.3716e-08
8.24498e-08
7.09957e-08
5.97503e-08
4.90372e-08
3.90883e-08
3.00306e-08
2.1882e-08
1.45552e-08
7.86948e-09
1.56924e-09
5.41829e-11
5.35254e-11
1.55049e-09
7.77896e-09
1.43926e-08
2.16467e-08
2.97235e-08
3.87138e-08
4.86039e-08
5.92712e-08
7.04879e-08
8.19336e-08
9.32139e-08
1.03881e-07
1.13464e-07
1.21503e-07
1.27591e-07
1.31406e-07
1.32741e-07
1.31522e-07
1.27817e-07
1.21827e-07
1.13868e-07
1.04346e-07
9.3716e-08
8.24498e-08
7.09957e-08
5.97503e-08
4.90372e-08
3.90883e-08
3.00306e-08
2.1882e-08
1.45552e-08
7.86948e-09
1.56924e-09
5.41829e-11
5.35254e-11
1.55049e-09
7.77896e-09
1.43926e-08
2.16467e-08
2.97235e-08
3.87138e-08
4.86039e-08
5.92712e-08
7.04879e-08
8.19336e-08
9.32139e-08
1.03881e-07
1.13464e-07
1.21503e-07
1.27591e-07
1.31406e-07
1.32741e-07
1.31522e-07
1.27817e-07
1.21827e-07
1.13868e-07
1.04346e-07
9.3716e-08
8.24498e-08
7.09957e-08
5.97503e-08
4.90372e-08
3.90883e-08
3.00306e-08
2.1882e-08
1.45552e-08
7.86948e-09
1.56924e-09
5.41829e-11
5.35254e-11
1.55049e-09
7.77896e-09
1.43926e-08
2.16467e-08
2.97235e-08
3.87138e-08
4.86039e-08
5.92712e-08
7.04879e-08
8.19336e-08
9.32139e-08
1.03881e-07
1.13464e-07
1.21503e-07
1.27591e-07
1.31406e-07
1.32741e-07
1.31522e-07
1.27817e-07
1.21827e-07
1.13868e-07
1.04346e-07
9.3716e-08
8.24498e-08
7.09957e-08
5.97503e-08
4.90372e-08
3.90883e-08
3.00306e-08
2.1882e-08
1.45552e-08
7.86948e-09
1.56924e-09
5.41829e-11
5.35254e-11
1.55049e-09
7.77896e-09
1.43926e-08
2.16467e-08
2.97235e-08
3.87138e-08
4.86039e-08
5.92712e-08
7.04879e-08
8.19336e-08
9.32139e-08
1.03881e-07
1.13464e-07
1.21503e-07
1.27591e-07
1.31406e-07
1.32741e-07
1.31522e-07
1.27817e-07
1.21827e-07
1.13868e-07
1.04346e-07
9.3716e-08
8.24498e-08
7.09957e-08
5.97503e-08
4.90372e-08
3.90883e-08
3.00306e-08
2.1882e-08
1.45552e-08
7.86948e-09
1.56924e-09
5.41829e-11
5.35254e-11
1.55049e-09
7.77896e-09
1.43926e-08
2.16467e-08
2.97235e-08
3.87138e-08
4.86039e-08
5.92712e-08
7.04879e-08
8.19336e-08
9.32139e-08
1.03881e-07
1.13464e-07
1.21503e-07
1.27591e-07
1.31406e-07
1.32741e-07
1.31522e-07
1.27817e-07
1.21827e-07
1.13868e-07
1.04346e-07
9.3716e-08
8.24498e-08
7.09957e-08
5.97503e-08
4.90372e-08
3.90883e-08
3.00306e-08
2.1882e-08
1.45552e-08
7.86948e-09
1.56924e-09
5.41829e-11
5.35254e-11
1.55049e-09
7.77896e-09
1.43926e-08
2.16467e-08
2.97235e-08
3.87138e-08
4.86039e-08
5.92712e-08
7.04879e-08
8.19336e-08
9.32139e-08
1.03881e-07
1.13464e-07
1.21503e-07
1.27591e-07
1.31406e-07
1.32741e-07
1.31522e-07
1.27817e-07
1.21827e-07
1.13868e-07
1.04346e-07
9.3716e-08
8.24498e-08
7.09957e-08
5.97503e-08
4.90372e-08
3.90883e-08
3.00306e-08
2.1882e-08
1.45552e-08
7.86948e-09
1.56924e-09
5.41829e-11
5.35254e-11
1.55049e-09
7.77896e-09
1.43926e-08
2.16467e-08
2.97235e-08
3.87138e-08
4.86039e-08
5.92712e-08
7.04879e-08
8.19336e-08
9.32139e-08
1.03881e-07
1.13464e-07
1.21503e-07
1.27591e-07
1.31406e-07
1.32741e-07
1.31522e-07
1.27817e-07
1.21827e-07
1.13868e-07
1.04346e-07
9.3716e-08
8.24498e-08
7.09957e-08
5.97503e-08
4.90372e-08
3.90883e-08
3.00306e-08
2.1882e-08
1.45552e-08
7.86948e-09
1.56924e-09
5.41829e-11
5.35254e-11
1.55049e-09
7.77896e-09
1.43926e-08
2.16467e-08
2.97235e-08
3.87138e-08
4.86039e-08
5.92712e-08
7.04879e-08
8.19336e-08
9.32139e-08
1.03881e-07
1.13464e-07
1.21503e-07
1.27591e-07
1.31406e-07
1.32741e-07
1.31522e-07
1.27817e-07
1.21827e-07
1.13868e-07
1.04346e-07
9.3716e-08
8.24498e-08
7.09957e-08
5.97503e-08
4.90372e-08
3.90883e-08
3.00306e-08
2.1882e-08
1.45552e-08
7.86948e-09
1.56924e-09
5.41829e-11
5.35254e-11
1.55049e-09
7.77896e-09
1.43926e-08
2.16467e-08
2.97235e-08
3.87138e-08
4.86039e-08
5.92712e-08
7.04879e-08
8.19336e-08
9.32139e-08
1.03881e-07
1.13464e-07
1.21503e-07
1.27591e-07
1.31406e-07
1.32741e-07
1.31522e-07
1.27817e-07
1.21827e-07
1.13868e-07
1.04346e-07
9.3716e-08
8.24498e-08
7.09957e-08
5.97503e-08
4.90372e-08
3.90883e-08
3.00306e-08
2.1882e-08
1.45552e-08
7.86948e-09
1.56924e-09
5.41829e-11
5.35254e-11
1.55049e-09
7.77896e-09
1.43926e-08
2.16467e-08
2.97235e-08
3.87138e-08
4.86039e-08
5.92712e-08
7.04879e-08
8.19336e-08
9.32139e-08
1.03881e-07
1.13464e-07
1.21503e-07
1.27591e-07
1.31406e-07
1.32741e-07
1.31522e-07
1.27817e-07
1.21827e-07
1.13868e-07
1.04346e-07
9.3716e-08
8.24498e-08
7.09957e-08
5.97503e-08
4.90372e-08
3.90883e-08
3.00306e-08
2.1882e-08
1.45552e-08
7.86948e-09
1.56924e-09
5.41829e-11
5.35254e-11
1.55049e-09
7.77896e-09
1.43926e-08
2.16467e-08
2.97235e-08
3.87138e-08
4.86039e-08
5.92712e-08
7.04879e-08
8.19336e-08
9.32139e-08
1.03881e-07
1.13464e-07
1.21503e-07
1.27591e-07
1.31406e-07
1.32741e-07
1.31522e-07
1.27817e-07
1.21827e-07
1.13868e-07
1.04346e-07
9.3716e-08
8.24498e-08
7.09957e-08
5.97503e-08
4.90372e-08
3.90883e-08
3.00306e-08
2.1882e-08
1.45552e-08
7.86948e-09
1.56924e-09
5.41829e-11
5.35254e-11
1.55049e-09
7.77896e-09
1.43926e-08
2.16467e-08
2.97235e-08
3.87138e-08
4.86039e-08
5.92712e-08
7.04879e-08
8.19336e-08
9.32139e-08
1.03881e-07
1.13464e-07
1.21503e-07
1.27591e-07
1.31406e-07
1.32741e-07
1.31522e-07
1.27817e-07
1.21827e-07
1.13868e-07
1.04346e-07
9.3716e-08
8.24498e-08
7.09957e-08
5.97503e-08
4.90372e-08
3.90883e-08
3.00306e-08
2.1882e-08
1.45552e-08
7.86948e-09
1.56924e-09
5.41829e-11
5.35254e-11
1.55049e-09
7.77896e-09
1.43926e-08
2.16467e-08
2.97235e-08
3.87138e-08
4.86039e-08
5.92712e-08
7.04879e-08
8.19336e-08
9.32139e-08
1.03881e-07
1.13464e-07
1.21503e-07
1.27591e-07
1.31406e-07
1.32741e-07
1.31522e-07
1.27817e-07
1.21827e-07
1.13868e-07
1.04346e-07
9.3716e-08
8.24498e-08
7.09957e-08
5.97503e-08
4.90372e-08
3.90883e-08
3.00306e-08
2.1882e-08
1.45552e-08
7.86948e-09
1.56924e-09
5.41829e-11
5.35254e-11
1.55049e-09
7.77896e-09
1.43926e-08
2.16467e-08
2.97235e-08
3.87138e-08
4.86039e-08
5.92712e-08
7.04879e-08
8.19336e-08
9.32139e-08
1.03881e-07
1.13464e-07
1.21503e-07
1.27591e-07
1.31406e-07
1.32741e-07
1.31522e-07
1.27817e-07
1.21827e-07
1.13868e-07
1.04346e-07
9.3716e-08
8.24498e-08
7.09957e-08
5.97503e-08
4.90372e-08
3.90883e-08
3.00306e-08
2.1882e-08
1.45552e-08
7.86948e-09
1.56924e-09
5.41829e-11
5.35254e-11
1.55049e-09
7.77896e-09
1.43926e-08
2.16467e-08
2.97235e-08
3.87138e-08
4.86039e-08
5.92712e-08
7.04879e-08
8.19336e-08
9.32139e-08
1.03881e-07
1.13464e-07
1.21503e-07
1.27591e-07
1.31406e-07
1.32741e-07
1.31522e-07
1.27817e-07
1.21827e-07
1.13868e-07
1.04346e-07
9.3716e-08
8.24498e-08
7.09957e-08
5.97503e-08
4.90372e-08
3.90883e-08
3.00306e-08
2.1882e-08
1.45552e-08
7.86948e-09
1.56924e-09
5.41829e-11
5.35254e-11
1.55049e-09
7.77896e-09
1.43926e-08
2.16467e-08
2.97235e-08
3.87138e-08
4.86039e-08
5.92712e-08
7.04879e-08
8.19336e-08
9.32139e-08
1.03881e-07
1.13464e-07
1.21503e-07
1.27591e-07
1.31406e-07
1.32741e-07
1.31522e-07
1.27817e-07
1.21827e-07
1.13868e-07
1.04346e-07
9.3716e-08
8.24498e-08
7.09957e-08
5.97503e-08
4.90372e-08
3.90883e-08
3.00306e-08
2.1882e-08
1.45552e-08
7.86948e-09
1.56924e-09
5.41829e-11
5.35254e-11
1.55049e-09
7.77896e-09
1.43926e-08
2.16467e-08
2.97235e-08
3.87138e-08
4.86039e-08
5.92712e-08
7.04879e-08
8.19336e-08
9.32139e-08
1.03881e-07
1.13464e-07
1.21503e-07
1.27591e-07
1.31406e-07
1.32741e-07
1.31522e-07
1.27817e-07
1.21827e-07
1.13868e-07
1.04346e-07
9.3716e-08
8.24498e-08
7.09957e-08
5.97503e-08
4.90372e-08
3.90883e-08
3.00306e-08
2.1882e-08
1.45552e-08
7.86948e-09
1.56924e-09
5.41829e-11
5.35254e-11
1.55049e-09
7.77896e-09
1.43926e-08
2.16467e-08
2.97235e-08
3.87138e-08
4.86039e-08
5.92712e-08
7.04879e-08
8.19336e-08
9.32139e-08
1.03881e-07
1.13464e-07
1.21503e-07
1.27591e-07
1.31406e-07
1.32741e-07
1.31522e-07
1.27817e-07
1.21827e-07
1.13868e-07
1.04346e-07
9.3716e-08
8.24498e-08
7.09957e-08
5.97503e-08
4.90372e-08
3.90883e-08
3.00306e-08
2.1882e-08
1.45552e-08
7.86948e-09
1.56924e-09
5.41829e-11
5.35254e-11
1.55049e-09
7.77896e-09
1.43926e-08
2.16467e-08
2.97235e-08
3.87138e-08
4.86039e-08
5.92712e-08
7.04879e-08
8.19336e-08
9.32139e-08
1.03881e-07
1.13464e-07
1.21503e-07
1.27591e-07
1.31406e-07
1.32741e-07
1.31522e-07
1.27817e-07
1.21827e-07
1.13868e-07
1.04346e-07
9.3716e-08
8.24498e-08
7.09957e-08
5.97503e-08
4.90372e-08
3.90883e-08
3.00306e-08
2.1882e-08
1.45552e-08
7.86948e-09
1.56924e-09
5.41829e-11
5.35254e-11
1.55049e-09
7.77896e-09
1.43926e-08
2.16467e-08
2.97235e-08
3.87138e-08
4.86039e-08
5.92712e-08
7.04879e-08
8.19336e-08
9.32139e-08
1.03881e-07
1.13464e-07
1.21503e-07
1.27591e-07
1.31406e-07
1.32741e-07
1.31522e-07
1.27817e-07
1.21827e-07
1.13868e-07
1.04346e-07
9.3716e-08
8.24498e-08
7.09957e-08
5.97503e-08
4.90372e-08
3.90883e-08
3.00306e-08
2.1882e-08
1.45552e-08
7.86948e-09
1.56924e-09
5.41829e-11
5.35254e-11
1.55049e-09
7.77896e-09
1.43926e-08
2.16467e-08
2.97235e-08
3.87138e-08
4.86039e-08
5.92712e-08
7.04879e-08
8.19336e-08
9.32139e-08
1.03881e-07
1.13464e-07
1.21503e-07
1.27591e-07
1.31406e-07
1.32741e-07
1.31522e-07
1.27817e-07
1.21827e-07
1.13868e-07
1.04346e-07
9.3716e-08
8.24498e-08
7.09957e-08
5.97503e-08
4.90372e-08
3.90883e-08
3.00306e-08
2.1882e-08
1.45552e-08
7.86948e-09
1.56924e-09
5.41829e-11
5.35254e-11
1.55049e-09
7.77896e-09
1.43926e-08
2.16467e-08
2.97235e-08
3.87138e-08
4.86039e-08
5.92712e-08