/*--------------------------------*- C++ -*----------------------------------*\
  =========                 |
  \\      /  F ield         | OpenFOAM: The Open Source CFD Toolbox
   \\    /   O peration     | Website:  https://openfoam.org
    \\  /    A nd           | Version:  13
     \\/     M anipulation  |
\*---------------------------------------------------------------------------*/
FoamFile
{
    format      ascii;
    class       volScalarField;
    location    "21";
    object      nut;
}
// * * * * * * * * * * * * * * * * * * * * * * * * * * * * * * * * * * * * * //

dimensions      [0 2 -1 0 0 0 0];

internalField   nonuniform List<scalar> 
78750
(
1.95407e-16
5.00732e-14
1.13076e-12
2.05413e-12
3.03197e-12
4.07304e-12
5.17887e-12
6.34205e-12
7.54608e-12
8.76624e-12
9.97121e-12
1.11251e-11
1.21898e-11
1.31276e-11
1.39034e-11
1.44869e-11
1.48549e-11
1.49923e-11
1.48935e-11
1.45624e-11
1.40123e-11
1.3265e-11
1.23495e-11
1.13003e-11
1.01548e-11
8.95115e-12
7.72569e-12
6.51055e-12
5.3314e-12
4.2057e-12
3.14158e-12
2.1376e-12
1.18361e-12
5.28251e-14
2.06989e-16
4.26853e-15
1.11101e-12
1.57151e-10
2.87604e-10
4.25662e-10
5.73071e-10
7.30259e-10
8.96231e-10
1.06861e-09
1.24377e-09
1.41711e-09
1.58337e-09
1.73695e-09
1.87228e-09
1.9842e-09
2.06828e-09
2.1211e-09
2.14046e-09
2.12554e-09
2.07695e-09
1.99668e-09
1.88797e-09
1.75513e-09
1.60323e-09
1.43779e-09
1.26443e-09
1.08847e-09
9.14609e-10
7.46585e-10
5.86902e-10
4.36668e-10
2.95527e-10
1.61746e-10
1.14531e-12
4.40284e-15
1.22799e-14
3.19649e-12
4.53061e-10
8.34273e-10
1.24602e-09
1.69634e-09
2.18852e-09
2.72056e-09
3.2851e-09
3.86978e-09
4.45807e-09
5.03032e-09
5.56515e-09
6.04087e-09
6.43702e-09
6.73585e-09
6.92356e-09
6.99129e-09
6.93582e-09
6.75973e-09
6.47127e-09
6.08372e-09
5.61448e-09
5.08376e-09
4.51319e-09
3.92425e-09
3.33681e-09
2.76775e-09
2.22981e-09
1.73075e-09
1.27294e-09
8.5332e-10
4.63931e-10
3.27678e-12
1.25935e-14
2.42683e-14
6.31698e-12
8.96063e-10
1.65421e-09
2.47992e-09
3.39179e-09
4.39842e-09
5.49713e-09
6.67354e-09
7.90218e-09
9.14794e-09
1.03683e-08
1.15159e-08
1.25421e-08
1.34001e-08
1.40489e-08
1.44565e-08
1.46021e-08
1.44783e-08
1.40914e-08
1.34609e-08
1.26181e-08
1.16031e-08
1.04625e-08
9.24474e-09
7.99744e-09
6.76355e-09
5.57883e-09
4.46947e-09
3.45061e-09
2.52559e-09
1.68627e-09
9.14224e-10
6.45057e-12
2.47893e-14
3.80041e-14
9.89345e-12
1.40391e-09
2.59433e-09
3.89509e-09
5.33704e-09
6.93502e-09
8.68562e-09
1.05665e-08
1.25373e-08
1.45417e-08
1.65107e-08
1.83672e-08
2.00309e-08
2.14244e-08
2.24791e-08
2.31413e-08
2.33763e-08
2.31716e-08
2.25381e-08
2.15087e-08
2.01363e-08
1.84881e-08
1.66411e-08
1.46756e-08
1.2669e-08
1.06908e-08
8.79822e-09
7.0327e-09
5.41766e-09
3.95743e-09
2.6379e-09
1.42847e-09
1.00737e-11
3.87065e-14
5.09862e-14
1.32761e-11
1.88448e-09
3.48408e-09
5.23471e-09
7.17894e-09
9.33751e-09
1.17064e-08
1.42558e-08
1.6931e-08
1.96556e-08
2.23359e-08
2.48663e-08
2.71362e-08
2.90389e-08
3.04795e-08
3.13835e-08
3.17027e-08
3.14199e-08
3.05504e-08
2.91404e-08
2.7263e-08
2.50118e-08
2.2493e-08
1.9817e-08
1.70896e-08
1.44054e-08
1.18419e-08
9.45486e-09
7.27559e-09
5.30925e-09
3.53599e-09
1.91362e-09
1.34898e-11
5.18185e-14
6.15146e-14
1.60223e-11
2.27489e-09
4.20712e-09
6.32373e-09
8.6769e-09
1.12923e-08
1.41654e-08
1.72603e-08
2.05108e-08
2.38239e-08
2.70857e-08
3.01673e-08
3.29333e-08
3.52528e-08
3.70093e-08
3.81109e-08
3.84985e-08
3.81511e-08
3.70876e-08
3.5365e-08
3.30735e-08
3.03282e-08
2.72595e-08
2.40024e-08
2.06863e-08
1.74259e-08
1.43152e-08
1.1422e-08
8.78356e-09
6.40581e-09
4.26412e-09
2.3068e-09
1.6256e-11
6.2425e-14
6.8994e-14
1.79756e-11
2.55282e-09
4.72199e-09
7.0995e-09
9.74447e-09
1.26861e-08
1.59196e-08
1.94047e-08
2.30669e-08
2.68015e-08
3.048e-08
3.39568e-08
3.70787e-08
3.96972e-08
4.16801e-08
4.29233e-08
4.33598e-08
4.29656e-08
4.17623e-08
3.9815e-08
3.72259e-08
3.41259e-08
3.06627e-08
2.69892e-08
2.32515e-08
1.95788e-08
1.60772e-08
1.28224e-08
9.85643e-09
7.18552e-09
4.78161e-09
2.58612e-09
1.82193e-11
6.99434e-14
7.3713e-14
1.92096e-11
2.72857e-09
5.04767e-09
7.59038e-09
1.04202e-08
1.35688e-08
1.70309e-08
2.07638e-08
2.46875e-08
2.86901e-08
3.26336e-08
3.63618e-08
3.97101e-08
4.25189e-08
4.46459e-08
4.59792e-08
4.64466e-08
4.60224e-08
4.47299e-08
4.26392e-08
3.98605e-08
3.65345e-08
3.28203e-08
2.88819e-08
2.48762e-08
2.09418e-08
1.7192e-08
1.3708e-08
1.05346e-08
7.67811e-09
5.10839e-09
2.76243e-09
1.94574e-11
7.46781e-14
7.63874e-14
1.991e-11
2.82842e-09
5.23274e-09
7.8694e-09
1.08045e-08
1.40708e-08
1.76633e-08
2.15373e-08
2.56102e-08
2.97656e-08
3.38603e-08
3.7732e-08
4.12096e-08
4.4127e-08
4.63364e-08
4.7721e-08
4.82059e-08
4.77645e-08
4.6421e-08
4.42483e-08
4.13612e-08
3.79061e-08
3.40485e-08
2.9959e-08
2.58005e-08
2.17168e-08
1.78256e-08
1.42111e-08
1.09196e-08
7.95772e-09
5.29382e-09
2.86245e-09
2.0159e-11
7.73572e-14
7.77626e-14
2.02707e-11
2.87988e-09
5.32816e-09
8.01329e-09
1.10027e-08
1.43298e-08
1.79896e-08
2.19366e-08
2.60866e-08
3.0321e-08
3.4494e-08
3.84399e-08
4.19844e-08
4.4958e-08
4.72099e-08
4.86212e-08
4.91151e-08
4.86647e-08
4.72947e-08
4.50795e-08
4.21363e-08
3.86144e-08
3.46826e-08
3.05149e-08
2.62773e-08
2.21166e-08
1.81523e-08
1.44705e-08
1.1118e-08
8.10174e-09
5.3893e-09
2.91393e-09
2.05198e-11
7.87328e-14
7.84097e-14
2.04406e-11
2.90416e-09
5.37319e-09
8.0812e-09
1.10962e-08
1.44521e-08
1.81437e-08
2.21252e-08
2.63117e-08
3.05835e-08
3.47934e-08
3.87745e-08
4.23507e-08
4.53509e-08
4.7623e-08
4.90467e-08
4.9545e-08
4.90903e-08
4.77078e-08
4.54724e-08
4.25026e-08
3.89491e-08
3.49821e-08
3.07774e-08
2.65025e-08
2.23052e-08
1.83065e-08
1.45928e-08
1.12116e-08
8.16965e-09
5.4343e-09
2.93819e-09
2.06896e-11
7.93794e-14
7.86905e-14
2.05145e-11
2.91472e-09
5.39277e-09
8.11075e-09
1.11369e-08
1.45053e-08
1.82108e-08
2.22074e-08
2.64097e-08
3.06978e-08
3.49239e-08
3.89203e-08
4.25103e-08
4.55221e-08
4.7803e-08
4.92322e-08
4.97323e-08
4.92758e-08
4.78877e-08
4.56436e-08
4.26622e-08
3.90949e-08
3.51126e-08
3.08918e-08
2.66005e-08
2.23874e-08
1.83736e-08
1.4646e-08
1.12523e-08
8.19917e-09
5.45387e-09
2.94874e-09
2.07634e-11
7.96597e-14
7.88035e-14
2.05443e-11
2.91899e-09
5.40068e-09
8.12268e-09
1.11534e-08
1.45268e-08
1.82379e-08
2.22406e-08
2.64494e-08
3.07441e-08
3.49767e-08
3.89793e-08
4.25749e-08
4.55914e-08
4.78758e-08
4.93073e-08
4.98081e-08
4.93508e-08
4.79605e-08
4.57129e-08
4.27267e-08
3.91538e-08
3.51653e-08
3.09379e-08
2.66401e-08
2.24205e-08
1.84007e-08
1.46675e-08
1.12687e-08
8.21109e-09
5.46176e-09
2.95299e-09
2.07931e-11
7.97725e-14
7.8846e-14
2.05555e-11
2.92059e-09
5.40366e-09
8.12717e-09
1.11596e-08
1.45349e-08
1.82481e-08
2.22531e-08
2.64643e-08
3.07615e-08
3.49966e-08
3.90015e-08
4.25992e-08
4.56175e-08
4.79032e-08
4.93356e-08
4.98367e-08
4.93791e-08
4.7988e-08
4.5739e-08
4.27511e-08
3.9176e-08
3.51852e-08
3.09554e-08
2.6655e-08
2.2433e-08
1.84109e-08
1.46756e-08
1.12749e-08
8.21557e-09
5.46473e-09
2.95459e-09
2.08043e-11
7.98148e-14
7.8861e-14
2.05594e-11
2.92116e-09
5.40471e-09
8.12876e-09
1.11618e-08
1.45378e-08
1.82517e-08
2.22575e-08
2.64696e-08
3.07676e-08
3.50036e-08
3.90094e-08
4.26078e-08
4.56267e-08
4.7913e-08
4.93456e-08
4.98468e-08
4.93891e-08
4.79977e-08
4.57482e-08
4.27597e-08
3.91839e-08
3.51922e-08
3.09615e-08
2.66603e-08
2.24374e-08
1.84145e-08
1.46785e-08
1.12771e-08
8.21716e-09
5.46578e-09
2.95516e-09
2.08082e-11
7.98297e-14
7.88659e-14
2.05608e-11
2.92135e-09
5.40506e-09
8.12929e-09
1.11625e-08
1.45388e-08
1.82529e-08
2.2259e-08
2.64714e-08
3.07697e-08
3.50059e-08
3.9012e-08
4.26107e-08
4.56298e-08
4.79162e-08
4.93489e-08
4.98502e-08
4.93924e-08
4.80009e-08
4.57513e-08
4.27625e-08
3.91865e-08
3.51945e-08
3.09636e-08
2.66621e-08
2.24389e-08
1.84157e-08
1.46794e-08
1.12778e-08
8.21768e-09
5.46613e-09
2.95534e-09
2.08095e-11
7.98347e-14
7.88675e-14
2.05612e-11
2.92141e-09
5.40517e-09
8.12946e-09
1.11627e-08
1.45391e-08
1.82533e-08
2.22594e-08
2.64719e-08
3.07703e-08
3.50067e-08
3.90128e-08
4.26116e-08
4.56308e-08
4.79172e-08
4.93499e-08
4.98512e-08
4.93935e-08
4.8002e-08
4.57522e-08
4.27634e-08
3.91873e-08
3.51953e-08
3.09642e-08
2.66626e-08
2.24394e-08
1.8416e-08
1.46797e-08
1.12781e-08
8.21785e-09
5.46624e-09
2.9554e-09
2.08099e-11
7.98362e-14
7.88679e-14
2.05613e-11
2.92143e-09
5.40521e-09
8.1295e-09
1.11628e-08
1.45392e-08
1.82534e-08
2.22596e-08
2.64721e-08
3.07705e-08
3.50069e-08
3.90131e-08
4.26119e-08
4.56311e-08
4.79175e-08
4.93503e-08
4.98515e-08
4.93938e-08
4.80023e-08
4.57525e-08
4.27637e-08
3.91876e-08
3.51955e-08
3.09644e-08
2.66628e-08
2.24395e-08
1.84162e-08
1.46798e-08
1.12781e-08
8.2179e-09
5.46627e-09
2.95542e-09
2.081e-11
7.98367e-14
7.88681e-14
2.05613e-11
2.92143e-09
5.40521e-09
8.12952e-09
1.11628e-08
1.45392e-08
1.82535e-08
2.22596e-08
2.64721e-08
3.07706e-08
3.5007e-08
3.90131e-08
4.2612e-08
4.56312e-08
4.79176e-08
4.93503e-08
4.98516e-08
4.93939e-08
4.80023e-08
4.57526e-08
4.27638e-08
3.91876e-08
3.51955e-08
3.09645e-08
2.66628e-08
2.24395e-08
1.84162e-08
1.46798e-08
1.12782e-08
8.21791e-09
5.46628e-09
2.95543e-09
2.08101e-11
7.98368e-14
7.88681e-14
2.05613e-11
2.92143e-09
5.40522e-09
8.12952e-09
1.11628e-08
1.45392e-08
1.82535e-08
2.22596e-08
2.64721e-08
3.07706e-08
3.5007e-08
3.90132e-08
4.2612e-08
4.56312e-08
4.79176e-08
4.93504e-08
4.98517e-08
4.93939e-08
4.80024e-08
4.57526e-08
4.27638e-08
3.91876e-08
3.51956e-08
3.09645e-08
2.66628e-08
2.24396e-08
1.84162e-08
1.46798e-08
1.12782e-08
8.21791e-09
5.46628e-09
2.95543e-09
2.08101e-11
7.98368e-14
7.88681e-14
2.05613e-11
2.92143e-09
5.40522e-09
8.12952e-09
1.11628e-08
1.45392e-08
1.82535e-08
2.22596e-08
2.64721e-08
3.07706e-08
3.5007e-08
3.90132e-08
4.2612e-08
4.56312e-08
4.79176e-08
4.93504e-08
4.98517e-08
4.93939e-08
4.80024e-08
4.57526e-08
4.27638e-08
3.91877e-08
3.51956e-08
3.09645e-08
2.66628e-08
2.24396e-08
1.84162e-08
1.46798e-08
1.12782e-08
8.21792e-09
5.46628e-09
2.95543e-09
2.08101e-11
7.98368e-14
7.88681e-14
2.05613e-11
2.92143e-09
5.40522e-09
8.12952e-09
1.11628e-08
1.45392e-08
1.82535e-08
2.22596e-08
2.64721e-08
3.07706e-08
3.5007e-08
3.90132e-08
4.2612e-08
4.56312e-08
4.79176e-08
4.93504e-08
4.98517e-08
4.93939e-08
4.80024e-08
4.57526e-08
4.27638e-08
3.91877e-08
3.51956e-08
3.09645e-08
2.66628e-08
2.24396e-08
1.84162e-08
1.46798e-08
1.12782e-08
8.21792e-09
5.46628e-09
2.95543e-09
2.08101e-11
7.98368e-14
7.88681e-14
2.05613e-11
2.92143e-09
5.40522e-09
8.12952e-09
1.11628e-08
1.45392e-08
1.82535e-08
2.22596e-08
2.64721e-08
3.07706e-08
3.5007e-08
3.90132e-08
4.2612e-08
4.56312e-08
4.79176e-08
4.93504e-08
4.98517e-08
4.93939e-08
4.80024e-08
4.57526e-08
4.27638e-08
3.91877e-08
3.51956e-08
3.09645e-08
2.66628e-08
2.24396e-08
1.84162e-08
1.46798e-08
1.12782e-08
8.21792e-09
5.46628e-09
2.95543e-09
2.08101e-11
7.98368e-14
7.88681e-14
2.05613e-11
2.92143e-09
5.40522e-09
8.12952e-09
1.11628e-08
1.45392e-08
1.82535e-08
2.22596e-08
2.64721e-08
3.07706e-08
3.5007e-08
3.90132e-08
4.2612e-08
4.56312e-08
4.79176e-08
4.93504e-08
4.98517e-08
4.93939e-08
4.80024e-08
4.57526e-08
4.27638e-08
3.91877e-08
3.51956e-08
3.09645e-08
2.66628e-08
2.24396e-08
1.84162e-08
1.46798e-08
1.12782e-08
8.21792e-09
5.46628e-09
2.95543e-09
2.08101e-11
7.98368e-14
7.88681e-14
2.05613e-11
2.92143e-09
5.40522e-09
8.12952e-09
1.11628e-08
1.45392e-08
1.82535e-08
2.22596e-08
2.64721e-08
3.07706e-08
3.5007e-08
3.90132e-08
4.2612e-08
4.56312e-08
4.79176e-08
4.93504e-08
4.98517e-08
4.93939e-08
4.80024e-08
4.57526e-08
4.27638e-08
3.91877e-08
3.51956e-08
3.09645e-08
2.66628e-08
2.24396e-08
1.84162e-08
1.46798e-08
1.12782e-08
8.21792e-09
5.46628e-09
2.95543e-09
2.08101e-11
7.98368e-14
7.88681e-14
2.05613e-11
2.92143e-09
5.40522e-09
8.12952e-09
1.11628e-08
1.45392e-08
1.82535e-08
2.22596e-08
2.64721e-08
3.07706e-08
3.5007e-08
3.90132e-08
4.2612e-08
4.56312e-08
4.79176e-08
4.93504e-08
4.98517e-08
4.93939e-08
4.80024e-08
4.57526e-08
4.27638e-08
3.91877e-08
3.51956e-08
3.09645e-08
2.66628e-08
2.24396e-08
1.84162e-08
1.46798e-08
1.12782e-08
8.21792e-09
5.46628e-09
2.95543e-09
2.08101e-11
7.98368e-14
7.88681e-14
2.05613e-11
2.92143e-09
5.40522e-09
8.12952e-09
1.11628e-08
1.45392e-08
1.82535e-08
2.22596e-08
2.64721e-08
3.07706e-08
3.5007e-08
3.90132e-08
4.2612e-08
4.56312e-08
4.79176e-08
4.93504e-08
4.98517e-08
4.93939e-08
4.80024e-08
4.57526e-08
4.27638e-08
3.91877e-08
3.51956e-08
3.09645e-08
2.66628e-08
2.24396e-08
1.84162e-08
1.46798e-08
1.12782e-08
8.21792e-09
5.46628e-09
2.95543e-09
2.08101e-11
7.98368e-14
7.88681e-14
2.05613e-11
2.92143e-09
5.40522e-09
8.12952e-09
1.11628e-08
1.45392e-08
1.82535e-08
2.22596e-08
2.64721e-08
3.07706e-08
3.5007e-08
3.90132e-08
4.2612e-08
4.56312e-08
4.79176e-08
4.93504e-08
4.98517e-08
4.93939e-08
4.80024e-08
4.57526e-08
4.27638e-08
3.91877e-08
3.51956e-08
3.09645e-08
2.66628e-08
2.24396e-08
1.84162e-08
1.46798e-08
1.12782e-08
8.21792e-09
5.46628e-09
2.95543e-09
2.08101e-11
7.98368e-14
7.88681e-14
2.05613e-11
2.92143e-09
5.40522e-09
8.12952e-09
1.11628e-08
1.45392e-08
1.82535e-08
2.22596e-08
2.64721e-08
3.07706e-08
3.5007e-08
3.90132e-08
4.2612e-08
4.56312e-08
4.79176e-08
4.93504e-08
4.98517e-08
4.93939e-08
4.80024e-08
4.57526e-08
4.27638e-08
3.91877e-08
3.51956e-08
3.09645e-08
2.66628e-08
2.24396e-08
1.84162e-08
1.46798e-08
1.12782e-08
8.21792e-09
5.46628e-09
2.95543e-09
2.08101e-11
7.98368e-14
7.88681e-14
2.05613e-11
2.92143e-09
5.40522e-09
8.12952e-09
1.11628e-08
1.45392e-08
1.82535e-08
2.22596e-08
2.64721e-08
3.07706e-08
3.5007e-08
3.90132e-08
4.2612e-08
4.56312e-08
4.79176e-08
4.93504e-08
4.98517e-08
4.93939e-08
4.80024e-08
4.57526e-08
4.27638e-08
3.91877e-08
3.51956e-08
3.09645e-08
2.66628e-08
2.24396e-08
1.84162e-08
1.46798e-08
1.12782e-08
8.21792e-09
5.46628e-09
2.95543e-09
2.08101e-11
7.98368e-14
7.88681e-14
2.05613e-11
2.92143e-09
5.40522e-09
8.12952e-09
1.11628e-08
1.45392e-08
1.82535e-08
2.22596e-08
2.64721e-08
3.07706e-08
3.5007e-08
3.90132e-08
4.2612e-08
4.56312e-08
4.79176e-08
4.93504e-08
4.98517e-08
4.93939e-08
4.80024e-08
4.57526e-08
4.27638e-08
3.91877e-08
3.51956e-08
3.09645e-08
2.66628e-08
2.24396e-08
1.84162e-08
1.46798e-08
1.12782e-08
8.21792e-09
5.46628e-09
2.95543e-09
2.08101e-11
7.98368e-14
7.88681e-14
2.05613e-11
2.92143e-09
5.40522e-09
8.12952e-09
1.11628e-08
1.45392e-08
1.82535e-08
2.22596e-08
2.64721e-08
3.07706e-08
3.5007e-08
3.90132e-08
4.2612e-08
4.56312e-08
4.79176e-08
4.93504e-08
4.98517e-08
4.93939e-08
4.80024e-08
4.57526e-08
4.27638e-08
3.91877e-08
3.51956e-08
3.09645e-08
2.66628e-08
2.24396e-08
1.84162e-08
1.46798e-08
1.12782e-08
8.21792e-09
5.46628e-09
2.95543e-09
2.08101e-11
7.98368e-14
7.88681e-14
2.05613e-11
2.92143e-09
5.40522e-09
8.12952e-09
1.11628e-08
1.45392e-08
1.82535e-08
2.22596e-08
2.64721e-08
3.07706e-08
3.5007e-08
3.90132e-08
4.2612e-08
4.56312e-08
4.79176e-08
4.93504e-08
4.98517e-08
4.93939e-08
4.80024e-08
4.57526e-08
4.27638e-08
3.91877e-08
3.51956e-08
3.09645e-08
2.66628e-08
2.24396e-08
1.84162e-08
1.46798e-08
1.12782e-08
8.21792e-09
5.46628e-09
2.95543e-09
2.08101e-11
7.98368e-14
7.88681e-14
2.05613e-11
2.92143e-09
5.40522e-09
8.12952e-09
1.11628e-08
1.45392e-08
1.82535e-08
2.22596e-08
2.64721e-08
3.07706e-08
3.5007e-08
3.90132e-08
4.2612e-08
4.56312e-08
4.79176e-08
4.93504e-08
4.98517e-08
4.93939e-08
4.80024e-08
4.57526e-08
4.27638e-08
3.91877e-08
3.51956e-08
3.09645e-08
2.66628e-08
2.24396e-08
1.84162e-08
1.46798e-08
1.12782e-08
8.21792e-09
5.46628e-09
2.95543e-09
2.08101e-11
7.98368e-14
7.88681e-14
2.05613e-11
2.92143e-09
5.40522e-09
8.12952e-09
1.11628e-08
1.45392e-08
1.82535e-08
2.22596e-08
2.64721e-08
3.07706e-08
3.5007e-08
3.90132e-08
4.2612e-08
4.56312e-08
4.79176e-08
4.93504e-08
4.98517e-08
4.93939e-08
4.80024e-08
4.57526e-08
4.27638e-08
3.91877e-08
3.51956e-08
3.09645e-08
2.66628e-08
2.24396e-08
1.84162e-08
1.46798e-08
1.12782e-08
8.21792e-09
5.46628e-09
2.95543e-09
2.08101e-11
7.98368e-14
7.88681e-14
2.05613e-11
2.92143e-09
5.40522e-09
8.12952e-09
1.11628e-08
1.45392e-08
1.82535e-08
2.22596e-08
2.64721e-08
3.07706e-08
3.5007e-08
3.90132e-08
4.2612e-08
4.56312e-08
4.79176e-08
4.93504e-08
4.98517e-08
4.93939e-08
4.80024e-08
4.57526e-08
4.27638e-08
3.91877e-08
3.51956e-08
3.09645e-08
2.66628e-08
2.24396e-08
1.84162e-08
1.46798e-08
1.12782e-08
8.21792e-09
5.46628e-09
2.95543e-09
2.08101e-11
7.98368e-14
7.88681e-14
2.05613e-11
2.92143e-09
5.40522e-09
8.12952e-09
1.11628e-08
1.45392e-08
1.82535e-08
2.22596e-08
2.64721e-08
3.07706e-08
3.5007e-08
3.90132e-08
4.2612e-08
4.56312e-08
4.79176e-08
4.93504e-08
4.98517e-08
4.93939e-08
4.80024e-08
4.57526e-08
4.27638e-08
3.91877e-08
3.51956e-08
3.09645e-08
2.66628e-08
2.24396e-08
1.84162e-08
1.46798e-08
1.12782e-08
8.21792e-09
5.46628e-09
2.95543e-09
2.08101e-11
7.98368e-14
7.88681e-14
2.05613e-11
2.92143e-09
5.40522e-09
8.12952e-09
1.11628e-08
1.45392e-08
1.82535e-08
2.22596e-08
2.64721e-08
3.07706e-08
3.5007e-08
3.90132e-08
4.2612e-08
4.56312e-08
4.79176e-08
4.93504e-08
4.98517e-08
4.93939e-08
4.80024e-08
4.57526e-08
4.27638e-08
3.91877e-08
3.51956e-08
3.09645e-08
2.66628e-08
2.24396e-08
1.84162e-08
1.46798e-08
1.12782e-08
8.21792e-09
5.46628e-09
2.95543e-09
2.08101e-11
7.98368e-14
7.88681e-14
2.05613e-11
2.92143e-09
5.40522e-09
8.12952e-09
1.11628e-08
1.45392e-08
1.82535e-08
2.22596e-08
2.64721e-08
3.07706e-08
3.5007e-08
3.90132e-08
4.2612e-08
4.56312e-08
4.79176e-08
4.93504e-08
4.98517e-08
4.93939e-08
4.80024e-08
4.57526e-08
4.27638e-08
3.91877e-08
3.51956e-08
3.09645e-08
2.66628e-08
2.24396e-08
1.84162e-08
1.46798e-08
1.12782e-08
8.21792e-09
5.46628e-09
2.95543e-09
2.08101e-11
7.98368e-14
7.88681e-14
2.05613e-11
2.92143e-09
5.40522e-09
8.12952e-09
1.11628e-08
1.45392e-08
1.82535e-08
2.22596e-08
2.64721e-08
3.07706e-08
3.5007e-08
3.90132e-08
4.2612e-08
4.56312e-08
4.79176e-08
4.93504e-08
4.98517e-08
4.93939e-08
4.80024e-08
4.57526e-08
4.27638e-08
3.91877e-08
3.51956e-08
3.09645e-08
2.66628e-08
2.24396e-08
1.84162e-08
1.46798e-08
1.12782e-08
8.21792e-09
5.46628e-09
2.95543e-09
2.08101e-11
7.98368e-14
7.88681e-14
2.05613e-11
2.92143e-09
5.40522e-09
8.12952e-09
1.11628e-08
1.45392e-08
1.82535e-08
2.22596e-08
2.64721e-08
3.07706e-08
3.5007e-08
3.90132e-08
4.2612e-08
4.56312e-08
4.79176e-08
4.93504e-08
4.98517e-08
4.93939e-08
4.80024e-08
4.57526e-08
4.27638e-08
3.91877e-08
3.51956e-08
3.09645e-08
2.66628e-08
2.24396e-08
1.84162e-08
1.46798e-08
1.12782e-08
8.21792e-09
5.46628e-09
2.95543e-09
2.08101e-11
7.98368e-14
7.88681e-14
2.05613e-11
2.92143e-09
5.40522e-09
8.12952e-09
1.11628e-08
1.45392e-08
1.82535e-08
2.22596e-08
2.64721e-08
3.07706e-08
3.5007e-08
3.90132e-08
4.2612e-08
4.56312e-08
4.79176e-08
4.93504e-08
4.98517e-08
4.93939e-08
4.80024e-08
4.57526e-08
4.27638e-08
3.91877e-08
3.51956e-08
3.09645e-08
2.66628e-08
2.24396e-08
1.84162e-08
1.46798e-08
1.12782e-08
8.21792e-09
5.46628e-09
2.95543e-09
2.08101e-11
7.98368e-14
7.88681e-14
2.05613e-11
2.92143e-09
5.40522e-09
8.12952e-09
1.11628e-08
1.45392e-08
1.82535e-08
2.22596e-08
2.64721e-08
3.07706e-08
3.5007e-08
3.90132e-08
4.2612e-08
4.56312e-08
4.79176e-08
4.93504e-08
4.98517e-08
4.93939e-08
4.80024e-08
4.57526e-08
4.27638e-08
3.91877e-08
3.51956e-08
3.09645e-08
2.66628e-08
2.24396e-08
1.84162e-08
1.46798e-08
1.12782e-08
8.21792e-09
5.46628e-09
2.95543e-09
2.08101e-11
7.98368e-14
7.88681e-14
2.05613e-11
2.92143e-09
5.40522e-09
8.12952e-09
1.11628e-08
1.45392e-08
1.82535e-08
2.22596e-08
2.64721e-08
3.07706e-08
3.5007e-08
3.90132e-08
4.2612e-08
4.56312e-08
4.79176e-08
4.93504e-08
4.98517e-08
4.93939e-08
4.80024e-08
4.57526e-08
4.27638e-08
3.91877e-08
3.51956e-08
3.09645e-08
2.66628e-08
2.24396e-08
1.84162e-08
1.46798e-08
1.12782e-08
8.21792e-09
5.46628e-09
2.95543e-09
2.08101e-11
7.98368e-14
7.88681e-14
2.05613e-11
2.92143e-09
5.40522e-09
8.12952e-09
1.11628e-08
1.45392e-08
1.82535e-08
2.22596e-08
2.64721e-08
3.07706e-08
3.5007e-08
3.90132e-08
4.2612e-08
4.56312e-08
4.79176e-08
4.93504e-08
4.98517e-08
4.93939e-08
4.80024e-08
4.57526e-08
4.27638e-08
3.91877e-08
3.51956e-08
3.09645e-08
2.66628e-08
2.24396e-08
1.84162e-08
1.46798e-08
1.12782e-08
8.21792e-09
5.46628e-09
2.95543e-09
2.08101e-11
7.98368e-14
7.88681e-14
2.05613e-11
2.92143e-09
5.40522e-09
8.12952e-09
1.11628e-08
1.45392e-08
1.82535e-08
2.22596e-08
2.64721e-08
3.07706e-08
3.5007e-08
3.90132e-08
4.2612e-08
4.56312e-08
4.79176e-08
4.93504e-08
4.98517e-08
4.93939e-08
4.80024e-08
4.57526e-08
4.27638e-08
3.91877e-08
3.51956e-08
3.09645e-08
2.66628e-08
2.24396e-08
1.84162e-08
1.46798e-08
1.12782e-08
8.21792e-09
5.46628e-09
2.95543e-09
2.08101e-11
7.98368e-14
7.88681e-14
2.05613e-11
2.92143e-09
5.40522e-09
8.12952e-09
1.11628e-08
1.45392e-08
1.82535e-08
2.22596e-08
2.64721e-08
3.07706e-08
3.5007e-08
3.90132e-08
4.2612e-08
4.56312e-08
4.79176e-08
4.93504e-08
4.98517e-08
4.93939e-08
4.80024e-08
4.57526e-08
4.27638e-08
3.91877e-08
3.51956e-08
3.09645e-08
2.66628e-08
2.24396e-08
1.84162e-08
1.46798e-08
1.12782e-08
8.21792e-09
5.46628e-09
2.95543e-09
2.08101e-11
7.98368e-14
7.88681e-14
2.05613e-11
2.92143e-09
5.40522e-09
8.12952e-09
1.11628e-08
1.45392e-08
1.82535e-08
2.22596e-08
2.64721e-08
3.07706e-08
3.5007e-08
3.90132e-08
4.2612e-08
4.56312e-08
4.79176e-08
4.93504e-08
4.98517e-08
4.93939e-08
4.80024e-08
4.57526e-08
4.27638e-08
3.91877e-08
3.51956e-08
3.09645e-08
2.66628e-08
2.24396e-08
1.84162e-08
1.46798e-08
1.12782e-08
8.21792e-09
5.46628e-09
2.95543e-09
2.08101e-11
7.98368e-14
7.88681e-14
2.05613e-11
2.92143e-09
5.40522e-09
8.12952e-09
1.11628e-08
1.45392e-08
1.82535e-08
2.22596e-08
2.64721e-08
3.07706e-08
3.5007e-08
3.90132e-08
4.2612e-08
4.56312e-08
4.79176e-08
4.93504e-08
4.98517e-08
4.93939e-08
4.80024e-08
4.57526e-08
4.27638e-08
3.91877e-08
3.51956e-08
3.09645e-08
2.66628e-08
2.24396e-08
1.84162e-08
1.46798e-08
1.12782e-08
8.21792e-09
5.46628e-09
2.95543e-09
2.08101e-11
7.98368e-14
7.88681e-14
2.05613e-11
2.92143e-09
5.40522e-09
8.12952e-09
1.11628e-08
1.45392e-08
1.82535e-08
2.22596e-08
2.64721e-08
3.07706e-08
3.5007e-08
3.90132e-08
4.2612e-08
4.56312e-08
4.79176e-08
4.93504e-08
4.98517e-08
4.93939e-08
4.80024e-08
4.57526e-08
4.27638e-08
3.91877e-08
3.51956e-08
3.09645e-08
2.66628e-08
2.24396e-08
1.84162e-08
1.46798e-08
1.12782e-08
8.21792e-09
5.46628e-09
2.95543e-09
2.08101e-11
7.98368e-14
7.88681e-14
2.05613e-11
2.92143e-09
5.40522e-09
8.12952e-09
1.11628e-08
1.45392e-08
1.82535e-08
2.22596e-08
2.64721e-08
3.07706e-08
3.5007e-08
3.90132e-08
4.2612e-08
4.56312e-08
4.79176e-08
4.93504e-08
4.98517e-08
4.93939e-08
4.80024e-08
4.57526e-08
4.27638e-08
3.91877e-08
3.51956e-08
3.09645e-08
2.66628e-08
2.24396e-08
1.84162e-08
1.46798e-08
1.12782e-08
8.21792e-09
5.46628e-09
2.95543e-09
2.08101e-11
7.98368e-14
7.88681e-14
2.05613e-11
2.92143e-09
5.40522e-09
8.12952e-09
1.11628e-08
1.45392e-08
1.82535e-08
2.22596e-08
2.64721e-08
3.07706e-08
3.5007e-08
3.90132e-08
4.2612e-08
4.56312e-08
4.79176e-08
4.93504e-08
4.98517e-08
4.93939e-08
4.80024e-08
4.57526e-08
4.27638e-08
3.91877e-08
3.51956e-08
3.09645e-08
2.66628e-08
2.24396e-08
1.84162e-08
1.46798e-08
1.12782e-08
8.21792e-09
5.46628e-09
2.95543e-09
2.08101e-11
7.98368e-14
7.88681e-14
2.05613e-11
2.92143e-09
5.40522e-09
8.12952e-09
1.11628e-08
1.45392e-08
1.82535e-08
2.22596e-08
2.64721e-08
3.07706e-08
3.5007e-08
3.90132e-08
4.2612e-08
4.56312e-08
4.79176e-08
4.93504e-08
4.98517e-08
4.93939e-08
4.80024e-08
4.57526e-08
4.27638e-08
3.91877e-08
3.51956e-08
3.09645e-08
2.66628e-08
2.24396e-08
1.84162e-08
1.46798e-08
1.12782e-08
8.21792e-09
5.46628e-09
2.95543e-09
2.08101e-11
7.98368e-14
7.88681e-14
2.05613e-11
2.92143e-09
5.40522e-09
8.12952e-09
1.11628e-08
1.45392e-08
1.82535e-08
2.22596e-08
2.64721e-08
3.07706e-08
3.5007e-08
3.90132e-08
4.2612e-08
4.56312e-08
4.79176e-08
4.93504e-08
4.98517e-08
4.93939e-08
4.80024e-08
4.57526e-08
4.27638e-08
3.91877e-08
3.51956e-08
3.09645e-08
2.66628e-08
2.24396e-08
1.84162e-08
1.46798e-08
1.12782e-08
8.21792e-09
5.46628e-09
2.95543e-09
2.08101e-11
7.98368e-14
7.88681e-14
2.05613e-11
2.92143e-09
5.40522e-09
8.12952e-09
1.11628e-08
1.45392e-08
1.82535e-08
2.22596e-08
2.64721e-08
3.07706e-08
3.5007e-08
3.90132e-08
4.2612e-08
4.56312e-08
4.79176e-08
4.93504e-08
4.98517e-08
4.93939e-08
4.80024e-08
4.57526e-08
4.27638e-08
3.91877e-08
3.51956e-08
3.09645e-08
2.66628e-08
2.24396e-08
1.84162e-08
1.46798e-08
1.12782e-08
8.21792e-09
5.46628e-09
2.95543e-09
2.08101e-11
7.98368e-14
7.88681e-14
2.05613e-11
2.92143e-09
5.40522e-09
8.12952e-09
1.11628e-08
1.45392e-08
1.82535e-08
2.22596e-08
2.64721e-08
3.07706e-08
3.5007e-08
3.90132e-08
4.2612e-08
4.56312e-08
4.79176e-08
4.93504e-08
4.98517e-08
4.93939e-08
4.80024e-08
4.57526e-08
4.27638e-08
3.91877e-08
3.51956e-08
3.09645e-08
2.66628e-08
2.24396e-08
1.84162e-08
1.46798e-08
1.12782e-08
8.21792e-09
5.46628e-09
2.95543e-09
2.08101e-11
7.98368e-14
7.88681e-14
2.05613e-11
2.92143e-09
5.40522e-09
8.12952e-09
1.11628e-08
1.45392e-08
1.82535e-08
2.22596e-08
2.64721e-08
3.07706e-08
3.5007e-08
3.90132e-08
4.2612e-08
4.56312e-08
4.79176e-08
4.93504e-08
4.98517e-08
4.93939e-08
4.80024e-08
4.57526e-08
4.27638e-08
3.91877e-08
3.51956e-08
3.09645e-08
2.66628e-08
2.24396e-08
1.84162e-08
1.46798e-08
1.12782e-08
8.21792e-09
5.46628e-09
2.95543e-09
2.08101e-11
7.98368e-14
7.88681e-14
2.05613e-11
2.92143e-09
5.40522e-09
8.12952e-09
1.11628e-08
1.45392e-08
1.82535e-08
2.22596e-08
2.64721e-08
3.07706e-08
3.5007e-08
3.90132e-08
4.2612e-08
4.56312e-08
4.79176e-08
4.93504e-08
4.98517e-08
4.93939e-08
4.80024e-08
4.57526e-08
4.27638e-08
3.91877e-08
3.51956e-08
3.09645e-08
2.66628e-08
2.24396e-08
1.84162e-08
1.46798e-08
1.12782e-08
8.21792e-09
5.46628e-09
2.95543e-09
2.08101e-11
7.98368e-14
7.88681e-14
2.05613e-11
2.92143e-09
5.40522e-09
8.12952e-09
1.11628e-08
1.45392e-08
1.82535e-08
2.22596e-08
2.64721e-08
3.07706e-08
3.5007e-08
3.90132e-08
4.2612e-08
4.56312e-08
4.79176e-08
4.93504e-08
4.98517e-08
4.93939e-08
4.80024e-08
4.57526e-08
4.27638e-08
3.91877e-08
3.51956e-08
3.09645e-08
2.66628e-08
2.24396e-08
1.84162e-08
1.46798e-08
1.12782e-08
8.21792e-09
5.46628e-09
2.95543e-09
2.08101e-11
7.98368e-14
7.88681e-14
2.05613e-11
2.92143e-09
5.40522e-09
8.12952e-09
1.11628e-08
1.45392e-08
1.82535e-08
2.22596e-08
2.64721e-08
3.07706e-08
3.5007e-08
3.90132e-08
4.2612e-08
4.56312e-08
4.79176e-08
4.93504e-08
4.98517e-08
4.93939e-08
4.80024e-08
4.57526e-08
4.27638e-08
3.91877e-08
3.51956e-08
3.09645e-08
2.66628e-08
2.24396e-08
1.84162e-08
1.46798e-08
1.12782e-08
8.21792e-09
5.46628e-09
2.95543e-09
2.08101e-11
7.98368e-14
7.88681e-14
2.05613e-11
2.92143e-09
5.40522e-09
8.12952e-09
1.11628e-08
1.45392e-08
1.82535e-08
2.22596e-08
2.64721e-08
3.07706e-08
3.5007e-08
3.90132e-08
4.2612e-08
4.56312e-08
4.79176e-08
4.93504e-08
4.98517e-08
4.93939e-08
4.80024e-08
4.57526e-08
4.27638e-08
3.91877e-08
3.51956e-08
3.09645e-08
2.66628e-08
2.24396e-08
1.84162e-08
1.46798e-08
1.12782e-08
8.21792e-09
5.46628e-09
2.95543e-09
2.08101e-11
7.98368e-14
7.88681e-14
2.05613e-11
2.92143e-09
5.40522e-09
8.12952e-09
1.11628e-08
1.45392e-08
1.82535e-08
2.22596e-08
2.64721e-08
3.07706e-08
3.5007e-08
3.90132e-08
4.2612e-08
4.56312e-08
4.79176e-08
4.93504e-08
4.98517e-08
4.93939e-08
4.80024e-08
4.57526e-08
4.27638e-08
3.91877e-08
3.51956e-08
3.09645e-08
2.66628e-08
2.24396e-08
1.84162e-08
1.46798e-08
1.12782e-08
8.21792e-09
5.46628e-09
2.95543e-09
2.08101e-11
7.98368e-14
7.88681e-14
2.05613e-11
2.92143e-09
5.40522e-09
8.12952e-09
1.11628e-08
1.45392e-08
1.82535e-08
2.22596e-08
2.64721e-08
3.07706e-08
3.5007e-08
3.90132e-08
4.2612e-08
4.56312e-08
4.79176e-08
4.93504e-08
4.98517e-08
4.93939e-08
4.80024e-08
4.57526e-08
4.27638e-08
3.91877e-08
3.51956e-08
3.09645e-08
2.66628e-08
2.24396e-08
1.84162e-08
1.46798e-08
1.12782e-08
8.21792e-09
5.46628e-09
2.95543e-09
2.08101e-11
7.98368e-14
7.88681e-14
2.05613e-11
2.92143e-09
5.40522e-09
8.12952e-09
1.11628e-08
1.45392e-08
1.82535e-08
2.22596e-08
2.64721e-08
3.07706e-08
3.5007e-08
3.90132e-08
4.2612e-08
4.56312e-08
4.79176e-08
4.93504e-08
4.98517e-08
4.93939e-08
4.80024e-08
4.57526e-08
4.27638e-08
3.91877e-08
3.51956e-08
3.09645e-08
2.66628e-08
2.24396e-08
1.84162e-08
1.46798e-08
1.12782e-08
8.21792e-09
5.46628e-09
2.95543e-09
2.08101e-11
7.98368e-14
7.88681e-14
2.05613e-11
2.92143e-09
5.40522e-09
8.12952e-09
1.11628e-08
1.45392e-08
1.82535e-08
2.22596e-08
2.64721e-08
3.07706e-08
3.5007e-08
3.90132e-08
4.2612e-08
4.56312e-08
4.79176e-08
4.93504e-08
4.98517e-08
4.93939e-08
4.80024e-08
4.57526e-08
4.27638e-08
3.91877e-08
3.51956e-08
3.09645e-08
2.66628e-08
2.24396e-08
1.84162e-08
1.46798e-08
1.12782e-08
8.21792e-09
5.46628e-09
2.95543e-09
2.08101e-11
7.98368e-14
7.88681e-14
2.05613e-11
2.92143e-09
5.40522e-09
8.12952e-09
1.11628e-08
1.45392e-08
1.82535e-08
2.22596e-08
2.64721e-08
3.07706e-08
3.5007e-08
3.90132e-08
4.2612e-08
4.56312e-08
4.79176e-08
4.93504e-08
4.98517e-08
4.93939e-08
4.80024e-08
4.57526e-08
4.27638e-08
3.91877e-08
3.51956e-08
3.09645e-08
2.66628e-08
2.24396e-08
1.84162e-08
1.46798e-08
1.12782e-08
8.21792e-09
5.46628e-09
2.95543e-09
2.08101e-11
7.98368e-14
7.88681e-14
2.05613e-11
2.92143e-09
5.40522e-09
8.12952e-09
1.11628e-08
1.45392e-08
1.82535e-08
2.22596e-08
2.64721e-08
3.07706e-08
3.5007e-08
3.90132e-08
4.2612e-08
4.56312e-08
4.79176e-08
4.93504e-08
4.98517e-08
4.93939e-08
4.80024e-08
4.57526e-08
4.27638e-08
3.91877e-08
3.51956e-08
3.09645e-08
2.66628e-08
2.24396e-08
1.84162e-08
1.46798e-08
1.12782e-08
8.21792e-09
5.46628e-09
2.95543e-09
2.08101e-11
7.98368e-14
7.88681e-14
2.05613e-11
2.92143e-09
5.40522e-09
8.12952e-09
1.11628e-08
1.45392e-08
1.82535e-08
2.22596e-08
2.64721e-08
3.07706e-08
3.5007e-08
3.90132e-08
4.2612e-08
4.56312e-08
4.79176e-08
4.93504e-08
4.98517e-08
4.93939e-08
4.80024e-08
4.57526e-08
4.27638e-08
3.91877e-08
3.51956e-08
3.09645e-08
2.66628e-08
2.24396e-08
1.84162e-08
1.46798e-08
1.12782e-08
8.21792e-09
5.46628e-09
2.95543e-09
2.08101e-11
7.98368e-14
7.88681e-14
2.05613e-11
2.92143e-09
5.40522e-09
8.12952e-09
1.11628e-08
1.45392e-08
1.82535e-08
2.22596e-08
2.64721e-08
3.07706e-08
3.5007e-08
3.90132e-08
4.2612e-08
4.56312e-08
4.79176e-08
4.93504e-08
4.98517e-08
4.93939e-08
4.80024e-08
4.57526e-08
4.27638e-08
3.91877e-08
3.51956e-08
3.09645e-08
2.66628e-08
2.24396e-08
1.84162e-08
1.46798e-08
1.12782e-08
8.21792e-09
5.46628e-09
2.95543e-09
2.08101e-11
7.98368e-14
7.88681e-14
2.05613e-11
2.92143e-09
5.40522e-09
8.12952e-09
1.11628e-08
1.45392e-08
1.82535e-08