/*--------------------------------*- C++ -*----------------------------------*\
  =========                 |
  \\      /  F ield         | OpenFOAM: The Open Source CFD Toolbox
   \\    /   O peration     | Website:  https://openfoam.org
    \\  /    A nd           | Version:  13
     \\/     M anipulation  |
\*---------------------------------------------------------------------------*/
FoamFile
{
    format      ascii;
    class       volScalarField;
    location    "125";
    object      nut;
}
// * * * * * * * * * * * * * * * * * * * * * * * * * * * * * * * * * * * * * //

dimensions      [0 2 -1 0 0 0 0];

internalField   nonuniform List<scalar> 
315000
(
3.12904e-15
8.19523e-13
1.87026e-11
3.35765e-11
4.87019e-11
6.41136e-11
7.98542e-11
9.59611e-11
1.1246e-10
1.29362e-10
1.46662e-10
1.6434e-10
1.82355e-10
2.00656e-10
2.19174e-10
2.37829e-10
2.56527e-10
2.75169e-10
2.93644e-10
3.11839e-10
3.29637e-10
3.46919e-10
3.63565e-10
3.79458e-10
3.94484e-10
4.08534e-10
4.21504e-10
4.33297e-10
4.43825e-10
4.53006e-10
4.60773e-10
4.67064e-10
4.71832e-10
4.75039e-10
4.76661e-10
4.76685e-10
4.75111e-10
4.71951e-10
4.6723e-10
4.60984e-10
4.5326e-10
4.4412e-10
4.33631e-10
4.21874e-10
4.08937e-10
3.94917e-10
3.79917e-10
3.64046e-10
3.47419e-10
3.30153e-10
3.12366e-10
2.94178e-10
2.75705e-10
2.57063e-10
2.38359e-10
2.19696e-10
2.01165e-10
1.82848e-10
1.64812e-10
1.47112e-10
1.29786e-10
1.12855e-10
9.63233e-11
8.01808e-11
6.44005e-11
4.89438e-11
3.37657e-11
1.8826e-11
8.2604e-13
3.1564e-15
7.83118e-14
2.08562e-11
4.75044e-09
8.59457e-09
1.24873e-08
1.64469e-08
2.04886e-08
2.46243e-08
2.88617e-08
3.3204e-08
3.76504e-08
4.21951e-08
4.68285e-08
5.15364e-08
5.63012e-08
6.11017e-08
6.59139e-08
7.07114e-08
7.54661e-08
8.01483e-08
8.47277e-08
8.91735e-08
9.34551e-08
9.75423e-08
1.01406e-07
1.05018e-07
1.08351e-07
1.11382e-07
1.14086e-07
1.16445e-07
1.18439e-07
1.20055e-07
1.21278e-07
1.22101e-07
1.22517e-07
1.22522e-07
1.22116e-07
1.21304e-07
1.2009e-07
1.18484e-07
1.16499e-07
1.14149e-07
1.11452e-07
1.0843e-07
1.05103e-07
1.01498e-07
9.76395e-08
9.3557e-08
8.92793e-08
8.48366e-08
8.02594e-08
7.55785e-08
7.08242e-08
6.60262e-08
6.12126e-08
5.64099e-08
5.16421e-08
4.69303e-08
4.22923e-08
3.77422e-08
3.32897e-08
2.89404e-08
2.46955e-08
2.05514e-08
1.65004e-08
1.25306e-08
8.62642e-09
4.76936e-09
2.09456e-11
7.86575e-14
3.15054e-13
8.40284e-11
4.87364e-08
8.81529e-08
1.28038e-07
1.68616e-07
2.10077e-07
2.52568e-07
2.96185e-07
3.40977e-07
3.86934e-07
4.33997e-07
4.82052e-07
5.30938e-07
5.8045e-07
6.30348e-07
6.80359e-07
7.30189e-07
7.7953e-07
8.28062e-07
8.75461e-07
9.21408e-07
9.65587e-07
1.00769e-06
1.04742e-06
1.08451e-06
1.11868e-06
1.1497e-06
1.17735e-06
1.20144e-06
1.22178e-06
1.23824e-06
1.2507e-06
1.25907e-06
1.26329e-06
1.26333e-06
1.25919e-06
1.2509e-06
1.23852e-06
1.22213e-06
1.20186e-06
1.17785e-06
1.15027e-06
1.11931e-06
1.08519e-06
1.04816e-06
1.00847e-06
9.66402e-07
9.22255e-07
8.76332e-07
8.2895e-07
7.80428e-07
7.31091e-07
6.81255e-07
6.31232e-07
5.81315e-07
5.31776e-07
4.82856e-07
4.34761e-07
3.87652e-07
3.41642e-07
2.96792e-07
2.53111e-07
2.10551e-07
1.69015e-07
1.28355e-07
8.83823e-08
4.88698e-08
8.42705e-11
3.15981e-13
5.92912e-13
1.58149e-10
9.1618e-08
1.65576e-07
2.40412e-07
3.16629e-07
3.94647e-07
4.7479e-07
5.57276e-07
6.42208e-07
7.29573e-07
8.19237e-07
9.10954e-07
1.00437e-06
1.09904e-06
1.19444e-06
1.29e-06
1.38511e-06
1.47915e-06
1.57148e-06
1.6615e-06
1.74858e-06
1.83215e-06
1.91164e-06
1.98652e-06
2.05629e-06
2.12048e-06
2.17866e-06
2.23046e-06
2.27551e-06
2.31353e-06
2.34427e-06
2.36751e-06
2.38312e-06
2.39097e-06
2.39103e-06
2.3833e-06
2.36781e-06
2.34468e-06
2.31406e-06
2.27615e-06
2.23119e-06
2.1795e-06
2.12141e-06
2.0573e-06
1.98761e-06
1.91279e-06
1.83336e-06
1.74984e-06
1.66279e-06
1.5728e-06
1.48048e-06
1.38645e-06
1.29133e-06
1.19576e-06
1.10032e-06
1.00562e-06
9.12149e-07
8.20372e-07
7.30637e-07
6.43192e-07
5.58171e-07
4.75588e-07
3.9534e-07
3.1721e-07
2.40872e-07
1.65907e-07
9.18098e-08
1.58497e-10
5.94246e-13
9.11665e-13
2.4319e-10
1.40678e-07
2.53923e-07
3.68389e-07
4.84928e-07
6.04241e-07
7.26861e-07
8.53135e-07
9.83212e-07
1.11704e-06
1.25438e-06
1.3948e-06
1.53767e-06
1.68226e-06
1.82772e-06
1.97314e-06
2.11758e-06
2.26012e-06
2.39981e-06
2.53577e-06
2.6671e-06
2.79296e-06
2.91254e-06
3.02508e-06
3.12984e-06
3.22615e-06
3.3134e-06
3.39101e-06
3.4585e-06
3.51542e-06
3.56142e-06
3.59619e-06
3.61953e-06
3.63127e-06
3.63134e-06
3.61974e-06
3.59656e-06
3.56192e-06
3.51606e-06
3.45927e-06
3.39191e-06
3.31441e-06
3.22728e-06
3.13106e-06
3.02639e-06
2.91394e-06
2.79443e-06
2.66863e-06
2.53734e-06
2.40142e-06
2.26175e-06
2.11922e-06
1.97477e-06
1.82933e-06
1.68384e-06
1.5392e-06
1.39627e-06
1.25578e-06
1.11835e-06
9.84424e-07
8.54237e-07
7.27844e-07
6.05094e-07
4.85642e-07
3.68954e-07
2.54329e-07
1.40914e-07
2.4362e-10
9.13315e-13
1.25463e-12
3.34699e-10
1.93298e-07
3.48364e-07
5.04801e-07
6.63843e-07
8.26493e-07
9.93493e-07
1.1653e-06
1.3421e-06
1.52377e-06
1.70991e-06
1.89986e-06
2.09273e-06
2.28746e-06
2.48291e-06
2.67785e-06
2.87105e-06
3.0613e-06
3.24742e-06
3.42826e-06
3.60271e-06
3.7697e-06
3.9282e-06
4.07724e-06
4.21589e-06
4.3433e-06
4.45866e-06
4.56125e-06
4.65044e-06
4.72564e-06
4.7864e-06
4.83233e-06
4.86314e-06
4.87864e-06
4.87872e-06
4.86338e-06
4.83273e-06
4.78696e-06
4.72634e-06
4.65128e-06
4.56223e-06
4.45977e-06
4.34453e-06
4.21724e-06
4.07868e-06
3.92973e-06
3.77131e-06
3.60439e-06
3.42999e-06
3.24919e-06
3.06309e-06
2.87285e-06
2.67964e-06
2.48469e-06
2.28921e-06
2.09442e-06
1.90149e-06
1.71146e-06
1.52523e-06
1.34345e-06
1.16653e-06
9.9459e-07
8.27446e-07
6.64641e-07
5.05433e-07
3.48819e-07
1.93563e-07
3.35185e-10
1.25649e-12
1.59799e-12
4.26329e-10
2.45809e-07
4.42276e-07
6.40023e-07
8.40678e-07
1.04554e-06
1.25554e-06
1.47124e-06
1.69283e-06
1.92009e-06
2.15246e-06
2.38905e-06
2.62872e-06
2.87012e-06
3.11183e-06
3.35238e-06
3.59028e-06
3.82411e-06
4.05246e-06
4.274e-06
4.48742e-06
4.69149e-06
4.885e-06
5.06681e-06
5.23584e-06
5.39108e-06
5.53159e-06
5.65656e-06
5.7652e-06
5.85683e-06
5.93087e-06
5.98684e-06
6.02438e-06
6.04325e-06
6.04333e-06
6.02462e-06
5.98724e-06
5.93143e-06
5.85754e-06
5.76606e-06
5.65756e-06
5.53273e-06
5.39233e-06
5.23721e-06
5.06828e-06
4.88656e-06
4.69313e-06
4.48914e-06
4.27577e-06
4.05428e-06
3.82595e-06
3.59214e-06
3.35423e-06
3.11367e-06
2.87193e-06
2.63047e-06
2.39074e-06
2.15407e-06
1.9216e-06
1.69423e-06
1.47253e-06
1.25668e-06
1.04653e-06
8.41512e-07
6.40684e-07
4.42752e-07
2.46086e-07
4.26843e-10
1.59997e-12
1.91824e-12
5.11806e-10
2.94635e-07
5.29301e-07
7.64958e-07
1.00361e-06
1.24682e-06
1.4957e-06
1.7509e-06
2.01258e-06
2.28045e-06
2.55379e-06
2.83151e-06
3.11223e-06
3.39438e-06
3.67632e-06
3.95637e-06
4.23286e-06
4.50418e-06
4.76877e-06
5.02513e-06
5.27182e-06
5.50746e-06
5.73078e-06
5.94058e-06
6.13569e-06
6.31494e-06
6.47725e-06
6.62161e-06
6.7471e-06
6.85293e-06
6.93842e-06
7.00304e-06
7.04637e-06
7.06814e-06
7.06822e-06
7.0466e-06
7.00343e-06
6.93896e-06
6.85362e-06
6.74793e-06
6.62258e-06
6.47835e-06
6.31616e-06
6.13702e-06
5.94202e-06
5.73231e-06
5.50907e-06
5.2735e-06
5.02687e-06
4.77055e-06
4.50599e-06
4.23468e-06
3.95819e-06
3.67813e-06
3.39616e-06
3.11396e-06
2.83318e-06
2.55539e-06
2.28195e-06
2.01397e-06
1.75217e-06
1.49684e-06
1.24781e-06
1.00444e-06
7.65617e-07
5.29777e-07
2.94912e-07
5.12323e-10
1.92024e-12
2.19739e-12
5.8633e-10
3.37083e-07
6.04734e-07
8.72969e-07
1.14413e-06
1.42002e-06
1.70191e-06
1.9905e-06
2.28595e-06
2.58788e-06
2.89545e-06
3.20739e-06
3.52215e-06
3.83798e-06
4.15307e-06
4.46558e-06
4.77371e-06
5.0757e-06
5.36987e-06
5.6546e-06
5.92844e-06
6.19001e-06
6.43795e-06
6.67091e-06
6.88752e-06
7.08651e-06
7.26664e-06
7.42679e-06
7.56597e-06
7.68331e-06
7.77808e-06
7.84968e-06
7.89769e-06
7.92181e-06
7.92188e-06
7.89791e-06
7.85005e-06
7.77859e-06
7.68396e-06
7.56676e-06
7.42771e-06
7.26768e-06
7.08766e-06
6.88879e-06
6.67227e-06
6.43941e-06
6.19154e-06
5.93004e-06
5.65625e-06
5.37156e-06
5.07742e-06
4.77545e-06
4.46733e-06
4.15481e-06
3.83969e-06
3.52381e-06
3.209e-06
2.89699e-06
2.58933e-06
2.28729e-06
1.99173e-06
1.70301e-06
1.42098e-06
1.14493e-06
8.73606e-07
6.05193e-07
3.37351e-07
5.86835e-10
2.19935e-12
2.42559e-12
6.47268e-10
3.71711e-07
6.66121e-07
9.60688e-07
1.25804e-06
1.56018e-06
1.8685e-06
2.18375e-06
2.50609e-06
2.83507e-06
3.16974e-06
3.50871e-06
3.85029e-06
4.1926e-06
4.5337e-06
4.87165e-06
5.20452e-06
5.53047e-06
5.84774e-06
6.15474e-06
6.44998e-06
6.73199e-06
6.99927e-06
7.25035e-06
7.48378e-06
7.69814e-06
7.89212e-06
8.06455e-06
8.21434e-06
8.3406e-06
8.44254e-06
8.51955e-06
8.57117e-06
8.5971e-06
8.59717e-06
8.57138e-06
8.5199e-06
8.44302e-06
8.34121e-06
8.21509e-06
8.06541e-06
7.89311e-06
7.69923e-06
7.48497e-06
7.25164e-06
7.00064e-06
6.73343e-06
6.45149e-06
6.1563e-06
5.84934e-06
5.53211e-06
5.20617e-06
4.8733e-06
4.53535e-06
4.19422e-06
3.85187e-06
3.51024e-06
3.17121e-06
2.83645e-06
2.50737e-06
2.18493e-06
1.86955e-06
1.56109e-06
1.2588e-06
9.61295e-07
6.66559e-07
3.71968e-07
6.47753e-10
2.42748e-12
2.60114e-12
6.9416e-10
3.98311e-07
7.13188e-07
1.02784e-06
1.34512e-06
1.6672e-06
1.99556e-06
2.331e-06
2.67365e-06
3.02304e-06
3.37812e-06
3.73741e-06
4.09912e-06
4.46129e-06
4.82188e-06
5.17887e-06
5.53025e-06
5.87412e-06
6.20874e-06
6.53249e-06
6.84381e-06
7.14114e-06
7.42291e-06
7.68755e-06
7.93352e-06
8.15935e-06
8.36366e-06
8.54521e-06
8.7029e-06
8.83578e-06
8.94306e-06
9.02408e-06
9.07839e-06
9.10566e-06
9.10572e-06
9.07859e-06
9.02441e-06
8.94351e-06
8.83636e-06
8.70361e-06
8.54603e-06
8.36459e-06
8.16038e-06
7.93465e-06
7.68877e-06
7.42421e-06
7.14251e-06
6.84524e-06
6.53397e-06
6.21026e-06
5.87567e-06
5.53182e-06
5.18044e-06
4.82345e-06
4.46283e-06
4.10063e-06
3.73887e-06
3.37951e-06
3.02436e-06
2.67488e-06
2.33212e-06
1.99656e-06
1.66807e-06
1.34585e-06
1.02842e-06
7.13605e-07
3.98555e-07
6.94624e-10
2.60295e-12
2.72863e-12
7.28225e-10
4.17612e-07
7.47296e-07
1.07646e-06
1.40811e-06
1.74456e-06
2.08734e-06
2.4373e-06
2.79455e-06
3.15859e-06
3.52831e-06
3.90218e-06
4.27832e-06
4.65471e-06
5.02926e-06
5.39988e-06
5.76451e-06
6.12124e-06
6.46833e-06
6.80411e-06
7.12697e-06
7.43529e-06
7.72743e-06
8.00178e-06
8.25673e-06
8.49075e-06
8.70244e-06
8.89052e-06
9.05385e-06
9.19146e-06
9.30254e-06
9.38643e-06
9.44265e-06
9.47088e-06
9.47094e-06
9.44284e-06
9.38674e-06
9.30297e-06
9.19201e-06
9.05452e-06
8.8913e-06
8.70333e-06
8.49174e-06
8.25781e-06
8.00295e-06
7.72868e-06
7.4366e-06
7.12834e-06
6.80553e-06
6.46978e-06
6.12273e-06
5.76602e-06
5.40138e-06
5.03077e-06
4.6562e-06
4.27977e-06
3.90358e-06
3.52966e-06
3.15986e-06
2.79573e-06
2.43837e-06
2.08831e-06
1.7454e-06
1.40881e-06
1.07701e-06
7.47695e-07
4.17845e-07
7.28672e-10
2.73037e-12
2.81631e-12
7.51663e-10
4.30881e-07
7.70725e-07
1.10983e-06
1.45134e-06
1.79763e-06
2.15029e-06
2.51019e-06
2.87745e-06
3.25152e-06
3.63127e-06
4.01512e-06
4.40114e-06
4.78728e-06
5.17139e-06
5.55134e-06
5.92506e-06
6.29063e-06
6.64627e-06
6.99032e-06
7.3211e-06
7.63697e-06
7.93624e-06
8.21725e-06
8.47835e-06
8.718e-06
8.93475e-06
9.1273e-06
9.29449e-06
9.43535e-06
9.54904e-06
9.6349e-06
9.69243e-06
9.72131e-06
9.72137e-06
9.69261e-06
9.6352e-06
9.54946e-06
9.43589e-06
9.29515e-06
9.12806e-06
8.93561e-06
8.71896e-06
8.4794e-06
8.21838e-06
7.93745e-06
7.63824e-06
7.32243e-06
6.99169e-06
6.64769e-06
6.29207e-06
5.92652e-06
5.55281e-06
5.17285e-06
4.78872e-06
4.40255e-06
4.01648e-06
3.63258e-06
3.25275e-06
2.87859e-06
2.51124e-06
2.15123e-06
1.79844e-06
1.45202e-06
1.11037e-06
7.71112e-07
4.31107e-07
7.52097e-10
2.81801e-12
2.87359e-12
7.6698e-10
4.39549e-07
7.86025e-07
1.13162e-06
1.47956e-06
1.83227e-06
2.19139e-06
2.55778e-06
2.93158e-06
3.31221e-06
3.69853e-06
4.08891e-06
4.48141e-06
4.87394e-06
5.26432e-06
5.6504e-06
6.03008e-06
6.40146e-06
6.76274e-06
7.11221e-06
7.44821e-06
7.76904e-06
8.07301e-06
8.3584e-06
8.62356e-06
8.86691e-06
9.08699e-06
9.28248e-06
9.45222e-06
9.59521e-06
9.71061e-06
9.79777e-06
9.85617e-06
9.88548e-06
9.88554e-06
9.85635e-06
9.79807e-06
9.71103e-06
9.59574e-06
9.45286e-06
9.28322e-06
9.08784e-06
8.86785e-06
8.62459e-06
8.35951e-06
8.07419e-06
7.77029e-06
7.44952e-06
7.11357e-06
6.76413e-06
6.40287e-06
6.03152e-06
5.65184e-06
5.26575e-06
4.87536e-06
4.4828e-06
4.09025e-06
3.69982e-06
3.31343e-06
2.9327e-06
2.55881e-06
2.19231e-06
1.83307e-06
1.48023e-06
1.13215e-06
7.86405e-07
4.39771e-07
7.67407e-10
2.87526e-12
2.90923e-12
7.76515e-10
4.44945e-07
7.95547e-07
1.14518e-06
1.49712e-06
1.85384e-06
2.21698e-06
2.58743e-06
2.96532e-06
3.35006e-06
3.74049e-06
4.13497e-06
4.53153e-06
4.92806e-06
5.32238e-06
5.71232e-06
6.09576e-06
6.47079e-06
6.83562e-06
7.18852e-06
7.52781e-06
7.85178e-06
8.1587e-06
8.44686e-06
8.71458e-06
8.96027e-06
9.18245e-06
9.37981e-06
9.55115e-06
9.69549e-06
9.81198e-06
9.89995e-06
9.9589e-06
9.98849e-06
9.98855e-06
9.95908e-06
9.90025e-06
9.8124e-06
9.69602e-06
9.55179e-06
9.38054e-06
9.18329e-06
8.96121e-06
8.71561e-06
8.44797e-06
8.15988e-06
7.85302e-06
7.5291e-06
7.18986e-06
6.83699e-06
6.47219e-06
6.09718e-06
5.71375e-06
5.32381e-06
4.92947e-06
4.53291e-06
4.1363e-06
3.74176e-06
3.35126e-06
2.96643e-06
2.58846e-06
2.2179e-06
1.85463e-06
1.49778e-06
1.1457e-06
7.95923e-07
4.45165e-07
7.76938e-10
2.91088e-12
2.93041e-12
7.82184e-10
4.48153e-07
8.01209e-07
1.15325e-06
1.50757e-06
1.86667e-06
2.23222e-06
2.6051e-06
2.98543e-06
3.37263e-06
3.76553e-06
4.16247e-06
4.56148e-06
4.96042e-06
5.35711e-06
5.74937e-06
6.13508e-06
6.51232e-06
6.8793e-06
7.23427e-06
7.57555e-06
7.90142e-06
8.21014e-06
8.49998e-06
8.76925e-06
9.01636e-06
9.23982e-06
9.4383e-06
9.61062e-06
9.75578e-06
9.87293e-06
9.9614e-06
1.00207e-05
1.00504e-05
1.00505e-05
1.00209e-05
9.96169e-06
9.87334e-06
9.7563e-06
9.61125e-06
9.43903e-06
9.24065e-06
9.01729e-06
8.77027e-06
8.50108e-06
8.21131e-06
7.90265e-06
7.57684e-06
7.23561e-06
6.88067e-06
6.51372e-06
6.1365e-06
5.7508e-06
5.35853e-06
4.96182e-06
4.56285e-06
4.16379e-06
3.7668e-06
3.37383e-06
2.98654e-06
2.60612e-06
2.23313e-06
1.86746e-06
1.50823e-06
1.15377e-06
8.01583e-07
4.48372e-07
7.82605e-10
2.93206e-12
2.94245e-12
7.8541e-10
4.4998e-07
8.04432e-07
1.15784e-06
1.51353e-06
1.87399e-06
2.24092e-06
2.61518e-06
2.99692e-06
3.38554e-06
3.77986e-06
4.17821e-06
4.57863e-06
4.97897e-06
5.37703e-06
5.77064e-06
6.15766e-06
6.53618e-06
6.90441e-06
7.26059e-06
7.60303e-06
7.93e-06
8.23976e-06
8.53058e-06
8.80076e-06
9.04869e-06
9.27289e-06
9.47203e-06
9.64493e-06
9.79056e-06
9.9081e-06
9.99685e-06
1.00563e-05
1.00862e-05
1.00862e-05
1.00565e-05
9.99715e-06
9.90851e-06
9.79109e-06
9.64556e-06
9.47277e-06
9.27373e-06
9.04962e-06
8.80178e-06
8.53168e-06
8.24093e-06
7.93123e-06
7.60432e-06
7.26192e-06
6.90578e-06
6.53758e-06
6.15907e-06
5.77206e-06
5.37845e-06
4.98037e-06
4.58e-06
4.17954e-06
3.78113e-06
3.38674e-06
2.99803e-06
2.6162e-06
2.24183e-06
1.87478e-06
1.51418e-06
1.15836e-06
8.04806e-07
4.50198e-07
7.85831e-10
2.9441e-12
2.94903e-12
7.87171e-10
4.50977e-07
8.06193e-07
1.16035e-06
1.51678e-06
1.878e-06
2.24568e-06
2.62071e-06
3.00322e-06
3.39262e-06
3.78772e-06
4.18686e-06
4.58806e-06
4.98918e-06
5.38801e-06
5.78236e-06
6.17011e-06
6.54935e-06
6.91827e-06
7.27513e-06
7.61821e-06
7.9458e-06
8.25615e-06
8.54752e-06
8.8182e-06
9.0666e-06
9.29122e-06
9.49073e-06
9.66394e-06
9.80984e-06
9.9276e-06
1.00165e-05
1.00761e-05
1.0106e-05
1.01061e-05
1.00763e-05
1.00168e-05
9.92801e-06
9.81037e-06
9.66457e-06
9.49146e-06
9.29205e-06
9.06753e-06
8.81922e-06
8.54862e-06
8.25732e-06
7.94704e-06
7.6195e-06
7.27646e-06
6.91964e-06
6.55075e-06
6.17153e-06
5.78378e-06
5.38942e-06
4.99058e-06
4.58944e-06
4.18819e-06
3.78899e-06
3.39382e-06
3.00433e-06
2.62173e-06
2.24659e-06
1.87878e-06
1.51744e-06
1.16087e-06
8.06567e-07
4.51196e-07
7.87592e-10
2.95068e-12
2.95248e-12
7.88094e-10
4.515e-07
8.07117e-07
1.16167e-06
1.51849e-06
1.8801e-06
2.24818e-06
2.62362e-06
3.00654e-06
3.39636e-06
3.79188e-06
4.19144e-06
4.59306e-06
4.99458e-06
5.39382e-06
5.78857e-06
6.17672e-06
6.55634e-06
6.92564e-06
7.28285e-06
7.62629e-06
7.95421e-06
8.26487e-06
8.55654e-06
8.82749e-06
9.07614e-06
9.30099e-06
9.50069e-06
9.67408e-06
9.82013e-06
9.938e-06
1.0027e-05
1.00866e-05
1.01166e-05
1.01166e-05
1.00868e-05
1.00273e-05
9.93841e-06
9.82065e-06
9.67471e-06
9.50143e-06
9.30182e-06
9.07707e-06
8.82851e-06
8.55764e-06
8.26605e-06
7.95545e-06
7.62758e-06
7.28419e-06
6.92701e-06
6.55775e-06
6.17814e-06
5.79e-06
5.39524e-06
4.99599e-06
4.59443e-06
4.19277e-06
3.79315e-06
3.39756e-06
3.00765e-06
2.62464e-06
2.24909e-06
1.88089e-06
1.51915e-06
1.16219e-06
8.07492e-07
4.51719e-07
7.88516e-10
2.95413e-12
2.95422e-12
7.88561e-10
4.51765e-07
8.07584e-07
1.16233e-06
1.51936e-06
1.88117e-06
2.24945e-06
2.6251e-06
3.00822e-06
3.39826e-06
3.79399e-06
4.19377e-06
4.5956e-06
4.99734e-06
5.39679e-06
5.79174e-06
6.1801e-06
6.55992e-06
6.9294e-06
7.28681e-06
7.63042e-06
7.95852e-06
8.26935e-06
8.56116e-06
8.83226e-06
9.08104e-06
9.306e-06
9.50581e-06
9.67929e-06
9.82542e-06
9.94335e-06
1.00324e-05
1.00921e-05
1.0122e-05
1.01221e-05
1.00922e-05
1.00327e-05
9.94376e-06
9.82594e-06
9.67992e-06
9.50655e-06
9.30684e-06
9.08197e-06
8.83328e-06
8.56226e-06
8.27052e-06
7.95976e-06
7.63172e-06
7.28815e-06
6.93078e-06
6.56132e-06
6.18152e-06
5.79317e-06
5.39821e-06
4.99874e-06
4.59697e-06
4.1951e-06
3.79527e-06
3.39946e-06
3.00934e-06
2.62612e-06
2.25036e-06
1.88196e-06
1.52002e-06
1.16285e-06
8.07959e-07
4.51984e-07
7.88983e-10
2.95587e-12
2.95506e-12
7.88788e-10
4.51893e-07
8.07812e-07
1.16266e-06
1.51978e-06
1.88169e-06
2.25007e-06
2.62582e-06
3.00905e-06
3.39919e-06
3.79503e-06
4.19491e-06
4.59685e-06
4.9987e-06
5.39825e-06
5.79331e-06
6.18176e-06
6.56168e-06
6.93126e-06
7.28877e-06
7.63247e-06
7.96065e-06
8.27156e-06
8.56345e-06
8.83463e-06
9.08347e-06
9.30849e-06
9.50835e-06
9.68187e-06
9.82804e-06
9.946e-06
1.00351e-05
1.00948e-05
1.01247e-05
1.01248e-05
1.00949e-05
1.00354e-05
9.94641e-06
9.82856e-06
9.68251e-06
9.50909e-06
9.30933e-06
9.0844e-06
8.83565e-06
8.56456e-06
8.27274e-06
7.96189e-06
7.63376e-06
7.29011e-06
6.93264e-06
6.56309e-06
6.18318e-06
5.79474e-06
5.39967e-06
5.0001e-06
4.59822e-06
4.19624e-06
3.7963e-06
3.40039e-06
3.01017e-06
2.62684e-06
2.25098e-06
1.88248e-06
1.52044e-06
1.16318e-06
8.08187e-07
4.52113e-07
7.89211e-10
2.95672e-12
2.95546e-12
7.88895e-10
4.51954e-07
8.07919e-07
1.16281e-06
1.51998e-06
1.88193e-06
2.25036e-06
2.62616e-06
3.00944e-06
3.39963e-06
3.79552e-06
4.19545e-06
4.59744e-06
4.99934e-06
5.39894e-06
5.79405e-06
6.18255e-06
6.56252e-06
6.93215e-06
7.2897e-06
7.63345e-06
7.96167e-06
8.27262e-06
8.56455e-06
8.83575e-06
9.08463e-06
9.30968e-06
9.50957e-06
9.68311e-06
9.82929e-06
9.94727e-06
1.00364e-05
1.0096e-05
1.0126e-05
1.01261e-05
1.00962e-05
1.00367e-05
9.94768e-06
9.82982e-06
9.68374e-06
9.51031e-06
9.31052e-06
9.08556e-06
8.83678e-06
8.56565e-06
8.27379e-06
7.96291e-06
7.63474e-06
7.29104e-06
6.93353e-06
6.56393e-06
6.18398e-06
5.79548e-06
5.40036e-06
5.00075e-06
4.59882e-06
4.19678e-06
3.79679e-06
3.40083e-06
3.01056e-06
2.62718e-06
2.25128e-06
1.88272e-06
1.52064e-06
1.16333e-06
8.08294e-07
4.52174e-07
7.89318e-10
2.95711e-12
2.95564e-12
7.88943e-10
4.51982e-07
8.07968e-07
1.16288e-06
1.52007e-06
1.88204e-06
2.2505e-06
2.62631e-06
3.00962e-06
3.39983e-06
3.79574e-06
4.1957e-06
4.59771e-06
4.99963e-06
5.39926e-06
5.79439e-06
6.18292e-06
6.56291e-06
6.93256e-06
7.29013e-06
7.6339e-06
7.96214e-06
8.27311e-06
8.56505e-06
8.83628e-06
9.08516e-06
9.31023e-06
9.51013e-06
9.68368e-06
9.82987e-06
9.94786e-06
1.00369e-05
1.00966e-05
1.01266e-05
1.01267e-05
1.00968e-05
1.00372e-05
9.94827e-06
9.8304e-06
9.68432e-06
9.51087e-06
9.31107e-06
9.0861e-06
8.8373e-06
8.56616e-06
8.27428e-06
7.96338e-06
7.63519e-06
7.29147e-06
6.93394e-06
6.56432e-06
6.18434e-06
5.79582e-06
5.40068e-06
5.00104e-06
4.59909e-06
4.19703e-06
3.79702e-06
3.40103e-06
3.01074e-06
2.62734e-06
2.25141e-06
1.88284e-06
1.52073e-06
1.1634e-06
8.08343e-07
4.52201e-07
7.89366e-10
2.9573e-12
2.95572e-12
7.88965e-10
4.51994e-07
8.07989e-07
1.16291e-06
1.52011e-06
1.88209e-06
2.25056e-06
2.62638e-06
3.0097e-06
3.39992e-06
3.79584e-06
4.19581e-06
4.59783e-06
4.99977e-06
5.3994e-06
5.79455e-06
6.18308e-06
6.56308e-06
6.93274e-06
7.29032e-06
7.6341e-06
7.96235e-06
8.27333e-06
8.56528e-06
8.83651e-06
9.0854e-06
9.31048e-06
9.51038e-06
9.68394e-06
9.83013e-06
9.94812e-06
1.00372e-05
1.00969e-05
1.01269e-05
1.01269e-05
1.00971e-05
1.00375e-05
9.94853e-06
9.83066e-06
9.68457e-06
9.51112e-06
9.31132e-06
9.08634e-06
8.83753e-06
8.56638e-06
8.2745e-06
7.96359e-06
7.63539e-06
7.29166e-06
6.93412e-06
6.56449e-06
6.1845e-06
5.79598e-06
5.40083e-06
5.00117e-06
4.59921e-06
4.19714e-06
3.79712e-06
3.40112e-06
3.01082e-06
2.6274e-06
2.25147e-06
1.88289e-06
1.52077e-06
1.16343e-06
8.08365e-07
4.52213e-07
7.89388e-10
2.95737e-12
2.95575e-12
7.88974e-10
4.51999e-07
8.07998e-07
1.16292e-06
1.52013e-06
1.88211e-06
2.25058e-06
2.62641e-06
3.00973e-06
3.39995e-06
3.79589e-06
4.19586e-06
4.59789e-06
4.99982e-06
5.39946e-06
5.79461e-06
6.18315e-06
6.56316e-06
6.93282e-06
7.2904e-06
7.63418e-06
7.96244e-06
8.27342e-06
8.56538e-06
8.83661e-06
9.08551e-06
9.31058e-06
9.51049e-06
9.68405e-06
9.83025e-06
9.94823e-06
1.00373e-05
1.0097e-05
1.0127e-05
1.01271e-05
1.00972e-05
1.00376e-05
9.94865e-06
9.83077e-06
9.68469e-06
9.51123e-06
9.31142e-06
9.08644e-06
8.83763e-06
8.56648e-06
8.2746e-06
7.96368e-06
7.63548e-06
7.29174e-06
6.9342e-06
6.56456e-06
6.18457e-06
5.79604e-06
5.40089e-06
5.00123e-06
4.59926e-06
4.19719e-06
3.79716e-06
3.40116e-06
3.01085e-06
2.62743e-06
2.25149e-06
1.88291e-06
1.52079e-06
1.16345e-06
8.08374e-07
4.52219e-07
7.89397e-10
2.95741e-12
2.95577e-12
7.88978e-10
4.52001e-07
8.08002e-07
1.16293e-06
1.52013e-06
1.88212e-06
2.25059e-06
2.62642e-06
3.00974e-06
3.39997e-06
3.7959e-06
4.19588e-06
4.59791e-06
4.99985e-06
5.39949e-06
5.79464e-06
6.18318e-06
6.56319e-06
6.93285e-06
7.29044e-06
7.63422e-06
7.96248e-06
8.27346e-06
8.56542e-06
8.83665e-06
9.08555e-06
9.31063e-06
9.51054e-06
9.6841e-06
9.8303e-06
9.94828e-06
1.00374e-05
1.00971e-05
1.0127e-05
1.01271e-05
1.00973e-05
1.00377e-05
9.94869e-06
9.83082e-06
9.68473e-06
9.51128e-06
9.31147e-06
9.08649e-06
8.83768e-06
8.56652e-06
8.27464e-06
7.96372e-06
7.63552e-06
7.29178e-06
6.93423e-06
6.5646e-06
6.1846e-06
5.79607e-06
5.40091e-06
5.00125e-06
4.59928e-06
4.19721e-06
3.79718e-06
3.40117e-06
3.01086e-06
2.62745e-06
2.2515e-06
1.88292e-06
1.52079e-06
1.16345e-06
8.08378e-07
4.52221e-07
7.894e-10
2.95742e-12
2.95577e-12
7.88979e-10
4.52002e-07
8.08004e-07
1.16293e-06
1.52014e-06
1.88213e-06
2.2506e-06
2.62643e-06
3.00975e-06
3.39998e-06
3.79591e-06
4.19589e-06
4.59792e-06
4.99986e-06
5.3995e-06
5.79465e-06
6.18319e-06
6.5632e-06
6.93287e-06
7.29045e-06
7.63424e-06
7.96249e-06
8.27348e-06
8.56544e-06
8.83667e-06
9.08557e-06
9.31065e-06
9.51056e-06
9.68412e-06
9.83031e-06
9.9483e-06
1.00374e-05
1.00971e-05
1.01271e-05
1.01271e-05
1.00973e-05
1.00377e-05
9.94871e-06
9.83084e-06
9.68475e-06
9.5113e-06
9.31149e-06
9.08651e-06
8.83769e-06
8.56654e-06
8.27465e-06
7.96373e-06
7.63553e-06
7.29179e-06
6.93425e-06
6.56461e-06
6.18461e-06
5.79608e-06
5.40092e-06
5.00126e-06
4.59929e-06
4.19722e-06
3.79719e-06
3.40118e-06
3.01087e-06
2.62745e-06
2.25151e-06
1.88292e-06
1.5208e-06
1.16345e-06
8.08379e-07
4.52222e-07
7.89402e-10
2.95743e-12
2.95578e-12
7.8898e-10
4.52002e-07
8.08004e-07
1.16293e-06
1.52014e-06
1.88213e-06
2.2506e-06
2.62643e-06
3.00975e-06
3.39998e-06
3.79591e-06
4.19589e-06
4.59792e-06
4.99986e-06
5.3995e-06
5.79465e-06
6.1832e-06
6.56321e-06
6.93287e-06
7.29046e-06
7.63424e-06
7.9625e-06
8.27348e-06
8.56544e-06
8.83668e-06
9.08558e-06
9.31065e-06
9.51056e-06
9.68412e-06
9.83032e-06
9.94831e-06
1.00374e-05
1.00971e-05
1.01271e-05
1.01271e-05
1.00973e-05
1.00377e-05
9.94872e-06
9.83085e-06
9.68476e-06
9.5113e-06
9.31149e-06
9.08651e-06
8.8377e-06
8.56655e-06
8.27466e-06
7.96374e-06
7.63554e-06
7.2918e-06
6.93425e-06
6.56461e-06
6.18462e-06
5.79608e-06
5.40093e-06
5.00127e-06
4.5993e-06
4.19722e-06
3.79719e-06
3.40118e-06
3.01087e-06
2.62745e-06
2.25151e-06
1.88292e-06
1.5208e-06
1.16346e-06
8.0838e-07
4.52222e-07
7.89402e-10
2.95743e-12
2.95578e-12
7.8898e-10
4.52002e-07
8.08004e-07
1.16293e-06
1.52014e-06
1.88213e-06
2.2506e-06
2.62643e-06
3.00975e-06
3.39998e-06
3.79592e-06
4.19589e-06
4.59792e-06
4.99986e-06
5.3995e-06
5.79466e-06
6.1832e-06
6.56321e-06
6.93288e-06
7.29046e-06
7.63424e-06
7.9625e-06
8.27348e-06
8.56544e-06
8.83668e-06
9.08558e-06
9.31066e-06
9.51057e-06
9.68413e-06
9.83033e-06
9.94831e-06
1.00374e-05
1.00971e-05
1.01271e-05
1.01271e-05
1.00973e-05
1.00377e-05
9.94872e-06
9.83085e-06
9.68476e-06
9.51131e-06
9.3115e-06
9.08652e-06
8.8377e-06
8.56655e-06
8.27466e-06
7.96374e-06
7.63554e-06
7.2918e-06
6.93425e-06
6.56462e-06
6.18462e-06
5.79609e-06
5.40093e-06
5.00127e-06
4.5993e-06
4.19722e-06
3.79719e-06
3.40118e-06
3.01087e-06
2.62745e-06
2.25151e-06
1.88292e-06
1.5208e-06
1.16346e-06
8.0838e-07
4.52222e-07
7.89403e-10
2.95743e-12
2.95578e-12
7.8898e-10
4.52002e-07
8.08005e-07
1.16293e-06
1.52014e-06
1.88213e-06
2.2506e-06
2.62643e-06
3.00975e-06
3.39998e-06
3.79592e-06
4.19589e-06
4.59792e-06
4.99986e-06
5.3995e-06
5.79466e-06
6.1832e-06
6.56321e-06
6.93288e-06
7.29046e-06
7.63424e-06
7.9625e-06
8.27349e-06
8.56545e-06
8.83668e-06
9.08558e-06
9.31066e-06
9.51057e-06
9.68413e-06
9.83033e-06
9.94831e-06
1.00374e-05
1.00971e-05
1.01271e-05
1.01271e-05
1.00973e-05
1.00377e-05
9.94872e-06
9.83085e-06
9.68476e-06
9.51131e-06
9.3115e-06
9.08652e-06
8.8377e-06
8.56655e-06
8.27466e-06
7.96374e-06
7.63554e-06
7.2918e-06
6.93426e-06
6.56462e-06
6.18462e-06
5.79609e-06
5.40093e-06
5.00127e-06
4.5993e-06
4.19722e-06
3.79719e-06
3.40118e-06
3.01087e-06
2.62745e-06
2.25151e-06
1.88292e-06
1.5208e-06
1.16346e-06
8.0838e-07
4.52222e-07
7.89403e-10
2.95743e-12
2.95578e-12
7.8898e-10
4.52002e-07
8.08005e-07
1.16293e-06
1.52014e-06
1.88213e-06
2.2506e-06
2.62643e-06
3.00975e-06
3.39998e-06
3.79592e-06
4.19589e-06
4.59792e-06
4.99986e-06
5.3995e-06
5.79466e-06
6.1832e-06
6.56321e-06
6.93288e-06
7.29046e-06
7.63424e-06
7.9625e-06
8.27349e-06
8.56545e-06
8.83668e-06
9.08558e-06
9.31066e-06
9.51057e-06
9.68413e-06
9.83033e-06
9.94831e-06
1.00374e-05
1.00971e-05
1.01271e-05
1.01271e-05
1.00973e-05
1.00377e-05
9.94873e-06
9.83085e-06
9.68476e-06
9.51131e-06
9.3115e-06
9.08652e-06
8.83771e-06
8.56655e-06
8.27466e-06
7.96374e-06
7.63554e-06
7.2918e-06
6.93426e-06
6.56462e-06
6.18462e-06
5.79609e-06
5.40093e-06
5.00127e-06
4.5993e-06
4.19722e-06
3.79719e-06
3.40118e-06
3.01087e-06
2.62745e-06
2.25151e-06
1.88292e-06
1.5208e-06
1.16346e-06
8.0838e-07
4.52222e-07
7.89403e-10
2.95743e-12
2.95578e-12
7.8898e-10
4.52002e-07
8.08005e-07
1.16293e-06
1.52014e-06
1.88213e-06
2.2506e-06
2.62643e-06
3.00975e-06
3.39998e-06
3.79592e-06
4.19589e-06
4.59792e-06
4.99986e-06
5.3995e-06
5.79466e-06
6.1832e-06
6.56321e-06
6.93288e-06
7.29046e-06
7.63424e-06
7.9625e-06
8.27349e-06
8.56545e-06
8.83668e-06
9.08558e-06
9.31066e-06
9.51057e-06
9.68413e-06
9.83033e-06
9.94831e-06
1.00374e-05
1.00971e-05
1.01271e-05
1.01271e-05
1.00973e-05
1.00377e-05
9.94873e-06
9.83085e-06
9.68476e-06
9.51131e-06
9.3115e-06
9.08652e-06
8.83771e-06
8.56655e-06
8.27466e-06
7.96374e-06
7.63554e-06
7.2918e-06
6.93426e-06
6.56462e-06
6.18462e-06
5.79609e-06
5.40093e-06
5.00127e-06
4.5993e-06
4.19722e-06
3.79719e-06
3.40118e-06
3.01087e-06
2.62745e-06
2.25151e-06
1.88292e-06
1.5208e-06
1.16346e-06
8.0838e-07
4.52222e-07
7.89403e-10
2.95743e-12
2.95578e-12
7.8898e-10
4.52002e-07
8.08005e-07
1.16293e-06
1.52014e-06
1.88213e-06
2.2506e-06
2.62643e-06
3.00975e-06
3.39998e-06
3.79592e-06
4.19589e-06
4.59792e-06
4.99986e-06
5.3995e-06
5.79466e-06
6.1832e-06
6.56321e-06
6.93288e-06
7.29046e-06
7.63424e-06
7.9625e-06
8.27349e-06
8.56545e-06
8.83668e-06
9.08558e-06
9.31066e-06
9.51057e-06
9.68413e-06
9.83033e-06
9.94831e-06
1.00374e-05
1.00971e-05
1.01271e-05
1.01271e-05
1.00973e-05
1.00377e-05
9.94873e-06
9.83085e-06
9.68476e-06
9.51131e-06
9.3115e-06
9.08652e-06
8.83771e-06
8.56655e-06
8.27466e-06
7.96374e-06
7.63554e-06
7.2918e-06
6.93426e-06
6.56462e-06
6.18462e-06
5.79609e-06
5.40093e-06
5.00127e-06
4.5993e-06
4.19722e-06
3.79719e-06
3.40118e-06
3.01087e-06
2.62745e-06
2.25151e-06
1.88292e-06
1.5208e-06
1.16346e-06
8.0838e-07
4.52222e-07
7.89403e-10
2.95743e-12
2.95578e-12
7.8898e-10
4.52002e-07
8.08005e-07
1.16293e-06
1.52014e-06
1.88213e-06
2.2506e-06
2.62643e-06
3.00975e-06
3.39998e-06
3.79592e-06
4.19589e-06
4.59792e-06
4.99986e-06
5.3995e-06
5.79466e-06
6.1832e-06
6.56321e-06
6.93288e-06
7.29046e-06
7.63424e-06
7.9625e-06
8.27349e-06
8.56545e-06
8.83668e-06
9.08558e-06
9.31066e-06
9.51057e-06
9.68413e-06
9.83033e-06
9.94831e-06
1.00374e-05
1.00971e-05
1.01271e-05
1.01271e-05
1.00973e-05
1.00377e-05
9.94873e-06
9.83085e-06
9.68476e-06
9.51131e-06
9.3115e-06
9.08652e-06
8.83771e-06
8.56655e-06
8.27466e-06
7.96374e-06
7.63554e-06
7.2918e-06
6.93426e-06
6.56462e-06
6.18462e-06
5.79609e-06
5.40093e-06
5.00127e-06
4.5993e-06
4.19722e-06
3.79719e-06
3.40118e-06
3.01087e-06
2.62745e-06
2.25151e-06
1.88292e-06
1.5208e-06
1.16346e-06
8.0838e-07
4.52222e-07
7.89403e-10
2.95743e-12
2.95578e-12
7.8898e-10
4.52002e-07
8.08005e-07
1.16293e-06
1.52014e-06
1.88213e-06
2.2506e-06
2.62643e-06
3.00975e-06
3.39998e-06
3.79592e-06
4.19589e-06
4.59792e-06
4.99986e-06
5.3995e-06
5.79466e-06
6.1832e-06
6.56321e-06
6.93288e-06
7.29046e-06
7.63424e-06
7.9625e-06
8.27349e-06
8.56545e-06
8.83668e-06
9.08558e-06
9.31066e-06
9.51057e-06
9.68413e-06
9.83033e-06
9.94831e-06
1.00374e-05
1.00971e-05
1.01271e-05
1.01271e-05
1.00973e-05
1.00377e-05
9.94873e-06
9.83085e-06
9.68476e-06
9.51131e-06
9.3115e-06
9.08652e-06
8.83771e-06
8.56655e-06
8.27466e-06
7.96374e-06
7.63554e-06
7.2918e-06
6.93426e-06
6.56462e-06
6.18462e-06
5.79609e-06
5.40093e-06
5.00127e-06
4.5993e-06
4.19722e-06
3.79719e-06
3.40118e-06
3.01087e-06
2.62745e-06
2.25151e-06
1.88292e-06
1.5208e-06
1.16346e-06
8.0838e-07
4.52222e-07
7.89403e-10
2.95743e-12
2.95578e-12
7.8898e-10
4.52002e-07
8.08005e-07
1.16293e-06
1.52014e-06
1.88213e-06
2.2506e-06
2.62643e-06
3.00975e-06
3.39998e-06
3.79592e-06
4.19589e-06
4.59792e-06
4.99986e-06
5.3995e-06
5.79466e-06