/*--------------------------------*- C++ -*----------------------------------*\
  =========                 |
  \\      /  F ield         | OpenFOAM: The Open Source CFD Toolbox
   \\    /   O peration     | Website:  https://openfoam.org
    \\  /    A nd           | Version:  13
     \\/     M anipulation  |
\*---------------------------------------------------------------------------*/
FoamFile
{
    format      ascii;
    class       volScalarField;
    location    "125";
    object      rhok;
}
// * * * * * * * * * * * * * * * * * * * * * * * * * * * * * * * * * * * * * //

dimensions      [];

internalField   nonuniform List<scalar> 
315000
(
0.444619
0.429512
0.414381
0.412934
0.412176
0.411421
0.410668
0.409918
0.40917
0.408425
0.407683
0.406944
0.406208
0.405475
0.404745
0.404018
0.403294
0.402574
0.401857
0.401144
0.400434
0.399728
0.399026
0.398327
0.397632
0.396941
0.396254
0.395571
0.394893
0.394218
0.393547
0.392881
0.392219
0.391561
0.390907
0.390258
0.389613
0.388972
0.388335
0.387703
0.387074
0.38645
0.38583
0.385215
0.384603
0.383995
0.383391
0.38279
0.382194
0.381601
0.381011
0.380425
0.379842
0.379262
0.378685
0.378111
0.377539
0.37697
0.376404
0.375839
0.375277
0.374716
0.374158
0.3736
0.373044
0.372489
0.371935
0.371381
0.370828
0.370275
0.444619
0.429511
0.414378
0.41293
0.412173
0.411417
0.410664
0.409914
0.409166
0.408422
0.407679
0.40694
0.406204
0.405471
0.404741
0.404014
0.40329
0.40257
0.401853
0.40114
0.40043
0.399724
0.399021
0.398322
0.397628
0.396937
0.39625
0.395567
0.394888
0.394213
0.393543
0.392876
0.392214
0.391556
0.390902
0.390253
0.389608
0.388967
0.38833
0.387698
0.38707
0.386446
0.385826
0.38521
0.384598
0.383991
0.383387
0.382786
0.38219
0.381597
0.381007
0.380421
0.379839
0.379259
0.378682
0.378108
0.377537
0.376968
0.376402
0.375837
0.375275
0.374715
0.374156
0.373599
0.373043
0.372488
0.371934
0.371381
0.370828
0.370275
0.444619
0.429509
0.414375
0.412927
0.412169
0.411414
0.410661
0.409911
0.409163
0.408418
0.407676
0.406937
0.4062
0.405467
0.404737
0.40401
0.403286
0.402566
0.401849
0.401136
0.400426
0.399719
0.399017
0.398318
0.397623
0.396932
0.396245
0.395562
0.394884
0.394209
0.393538
0.392872
0.39221
0.391552
0.390898
0.390249
0.389604
0.388963
0.388326
0.387694
0.387066
0.386442
0.385822
0.385206
0.384595
0.383987
0.383383
0.382783
0.382187
0.381594
0.381004
0.380418
0.379836
0.379256
0.378679
0.378106
0.377535
0.376966
0.3764
0.375836
0.375274
0.374713
0.374155
0.373598
0.373042
0.372487
0.371933
0.37138
0.370828
0.370275
0.444619
0.429508
0.414373
0.412925
0.412167
0.411411
0.410658
0.409908
0.40916
0.408415
0.407673
0.406933
0.406197
0.405464
0.404734
0.404007
0.403283
0.402562
0.401846
0.401132
0.400422
0.399716
0.399013
0.398315
0.39762
0.396929
0.396242
0.395559
0.39488
0.394205
0.393535
0.392868
0.392206
0.391548
0.390895
0.390245
0.3896
0.388959
0.388323
0.387691
0.387063
0.386439
0.385819
0.385203
0.384592
0.383984
0.38338
0.38278
0.382184
0.381591
0.381002
0.380416
0.379833
0.379254
0.378677
0.378104
0.377533
0.376964
0.376398
0.375834
0.375272
0.374712
0.374154
0.373597
0.373041
0.372487
0.371933
0.37138
0.370827
0.370275
0.444619
0.429507
0.41437
0.412922
0.412164
0.411409
0.410656
0.409905
0.409157
0.408412
0.40767
0.406931
0.406194
0.405461
0.404731
0.404004
0.40328
0.40256
0.401843
0.401129
0.400419
0.399713
0.39901
0.398312
0.397617
0.396926
0.396239
0.395556
0.394877
0.394202
0.393532
0.392865
0.392203
0.391545
0.390892
0.390242
0.389597
0.388957
0.38832
0.387688
0.38706
0.386436
0.385816
0.385201
0.384589
0.383981
0.383378
0.382778
0.382182
0.381589
0.381
0.380414
0.379831
0.379252
0.378676
0.378102
0.377531
0.376963
0.376397
0.375833
0.375271
0.374711
0.374153
0.373596
0.37304
0.372486
0.371932
0.37138
0.370827
0.370275
0.444619
0.429506
0.414369
0.412921
0.412163
0.411407
0.410654
0.409904
0.409156
0.408411
0.407668
0.406929
0.406193
0.405459
0.404729
0.404002
0.403278
0.402558
0.401841
0.401127
0.400417
0.399711
0.399008
0.39831
0.397615
0.396924
0.396237
0.395554
0.394875
0.3942
0.393529
0.392863
0.392201
0.391543
0.390889
0.39024
0.389595
0.388954
0.388318
0.387686
0.387058
0.386434
0.385814
0.385199
0.384587
0.38398
0.383376
0.382776
0.38218
0.381587
0.380998
0.380412
0.37983
0.379251
0.378674
0.378101
0.37753
0.376962
0.376396
0.375832
0.37527
0.37471
0.374152
0.373595
0.37304
0.372486
0.371932
0.371379
0.370827
0.370275
0.444619
0.429506
0.414368
0.41292
0.412162
0.411406
0.410653
0.409903
0.409155
0.40841
0.407667
0.406928
0.406192
0.405458
0.404728
0.404001
0.403277
0.402556
0.401839
0.401126
0.400416
0.39971
0.399007
0.398308
0.397613
0.396922
0.396235
0.395552
0.394873
0.394199
0.393528
0.392862
0.392199
0.391542
0.390888
0.390239
0.389594
0.388953
0.388316
0.387684
0.387056
0.386433
0.385813
0.385197
0.384586
0.383978
0.383375
0.382775
0.382179
0.381586
0.380997
0.380411
0.379829
0.37925
0.378673
0.3781
0.377529
0.376961
0.376395
0.375831
0.37527
0.37471
0.374152
0.373595
0.37304
0.372485
0.371932
0.371379
0.370827
0.370275
0.444619
0.429506
0.414368
0.41292
0.412162
0.411406
0.410653
0.409902
0.409155
0.408409
0.407667
0.406928
0.406191
0.405458
0.404728
0.404
0.403277
0.402556
0.401839
0.401125
0.400415
0.399709
0.399006
0.398308
0.397613
0.396922
0.396234
0.395551
0.394873
0.394198
0.393527
0.392861
0.392199
0.391541
0.390887
0.390238
0.389593
0.388952
0.388316
0.387683
0.387055
0.386432
0.385812
0.385196
0.384585
0.383977
0.383374
0.382774
0.382178
0.381585
0.380996
0.380411
0.379828
0.379249
0.378673
0.378099
0.377528
0.37696
0.376394
0.375831
0.375269
0.374709
0.374151
0.373595
0.373039
0.372485
0.371932
0.371379
0.370827
0.370275
0.444619
0.429506
0.414368
0.41292
0.412162
0.411406
0.410653
0.409903
0.409155
0.40841
0.407667
0.406928
0.406192
0.405458
0.404728
0.404001
0.403277
0.402556
0.401839
0.401125
0.400415
0.399709
0.399006
0.398308
0.397613
0.396921
0.396234
0.395551
0.394872
0.394197
0.393527
0.39286
0.392198
0.39154
0.390887
0.390237
0.389592
0.388952
0.388315
0.387683
0.387055
0.386431
0.385812
0.385196
0.384584
0.383977
0.383373
0.382773
0.382177
0.381585
0.380996
0.38041
0.379828
0.379249
0.378672
0.378099
0.377528
0.37696
0.376394
0.375831
0.375269
0.374709
0.374151
0.373594
0.373039
0.372485
0.371932
0.371379
0.370827
0.370275
0.444619
0.429506
0.414369
0.412921
0.412163
0.411407
0.410654
0.409903
0.409156
0.40841
0.407668
0.406929
0.406192
0.405459
0.404728
0.404001
0.403277
0.402557
0.401839
0.401126
0.400416
0.399709
0.399007
0.398308
0.397613
0.396922
0.396235
0.395551
0.394872
0.394198
0.393527
0.392861
0.392198
0.39154
0.390887
0.390237
0.389592
0.388952
0.388315
0.387683
0.387055
0.386431
0.385811
0.385196
0.384584
0.383977
0.383373
0.382773
0.382177
0.381585
0.380996
0.38041
0.379828
0.379248
0.378672
0.378099
0.377528
0.37696
0.376394
0.37583
0.375269
0.374709
0.374151
0.373594
0.373039
0.372485
0.371932
0.371379
0.370827
0.370275
0.444619
0.429506
0.41437
0.412922
0.412163
0.411408
0.410655
0.409904
0.409156
0.408411
0.407669
0.406929
0.406193
0.405459
0.404729
0.404002
0.403278
0.402557
0.40184
0.401126
0.400416
0.39971
0.399007
0.398308
0.397613
0.396922
0.396235
0.395552
0.394873
0.394198
0.393527
0.392861
0.392199
0.391541
0.390887
0.390238
0.389592
0.388952
0.388315
0.387683
0.387055
0.386431
0.385811
0.385196
0.384584
0.383977
0.383373
0.382773
0.382177
0.381585
0.380996
0.38041
0.379828
0.379248
0.378672
0.378099
0.377528
0.37696
0.376394
0.37583
0.375269
0.374709
0.374151
0.373594
0.373039
0.372485
0.371932
0.371379
0.370827
0.370275
0.444619
0.429507
0.41437
0.412922
0.412164
0.411408
0.410655
0.409905
0.409157
0.408412
0.407669
0.40693
0.406193
0.40546
0.404729
0.404002
0.403278
0.402558
0.401841
0.401127
0.400417
0.39971
0.399008
0.398309
0.397614
0.396923
0.396235
0.395552
0.394873
0.394198
0.393528
0.392861
0.392199
0.391541
0.390887
0.390238
0.389593
0.388952
0.388315
0.387683
0.387055
0.386431
0.385812
0.385196
0.384584
0.383977
0.383373
0.382773
0.382177
0.381585
0.380996
0.38041
0.379828
0.379248
0.378672
0.378099
0.377528
0.37696
0.376394
0.37583
0.375269
0.374709
0.374151
0.373594
0.373039
0.372485
0.371932
0.371379
0.370827
0.370275
0.444619
0.429507
0.41437
0.412922
0.412164
0.411409
0.410655
0.409905
0.409157
0.408412
0.40767
0.40693
0.406194
0.40546
0.40473
0.404003
0.403279
0.402558
0.401841
0.401127
0.400417
0.399711
0.399008
0.398309
0.397614
0.396923
0.396236
0.395552
0.394873
0.394199
0.393528
0.392861
0.392199
0.391541
0.390887
0.390238
0.389593
0.388952
0.388316
0.387683
0.387055
0.386431
0.385812
0.385196
0.384585
0.383977
0.383373
0.382774
0.382177
0.381585
0.380996
0.38041
0.379828
0.379248
0.378672
0.378099
0.377528
0.37696
0.376394
0.37583
0.375269
0.374709
0.374151
0.373594
0.373039
0.372485
0.371932
0.371379
0.370827
0.370275
0.444619
0.429507
0.41437
0.412922
0.412164
0.411408
0.410655
0.409905
0.409157
0.408412
0.407669
0.40693
0.406194
0.40546
0.40473
0.404002
0.403279
0.402558
0.401841
0.401127
0.400417
0.399711
0.399008
0.398309
0.397614
0.396923
0.396236
0.395553
0.394874
0.394199
0.393528
0.392861
0.392199
0.391541
0.390887
0.390238
0.389593
0.388952
0.388316
0.387683
0.387055
0.386432
0.385812
0.385196
0.384585
0.383977
0.383374
0.382774
0.382177
0.381585
0.380996
0.38041
0.379828
0.379249
0.378672
0.378099
0.377528
0.37696
0.376394
0.37583
0.375269
0.374709
0.374151
0.373594
0.373039
0.372485
0.371932
0.371379
0.370827
0.370275
0.444619
0.429507
0.41437
0.412922
0.412164
0.411408
0.410655
0.409905
0.409157
0.408412
0.407669
0.40693
0.406193
0.40546
0.404729
0.404002
0.403278
0.402558
0.401841
0.401127
0.400417
0.399711
0.399008
0.398309
0.397614
0.396923
0.396236
0.395553
0.394873
0.394199
0.393528
0.392861
0.392199
0.391541
0.390888
0.390238
0.389593
0.388952
0.388316
0.387684
0.387056
0.386432
0.385812
0.385196
0.384585
0.383977
0.383374
0.382774
0.382178
0.381585
0.380996
0.38041
0.379828
0.379249
0.378672
0.378099
0.377528
0.37696
0.376394
0.375831
0.375269
0.374709
0.374151
0.373595
0.373039
0.372485
0.371932
0.371379
0.370827
0.370275
0.444619
0.429506
0.41437
0.412922
0.412164
0.411408
0.410655
0.409904
0.409156
0.408411
0.407669
0.40693
0.406193
0.40546
0.404729
0.404002
0.403278
0.402558
0.401841
0.401127
0.400417
0.39971
0.399008
0.398309
0.397614
0.396923
0.396236
0.395553
0.394874
0.394199
0.393528
0.392862
0.392199
0.391541
0.390888
0.390238
0.389593
0.388952
0.388316
0.387684
0.387056
0.386432
0.385812
0.385197
0.384585
0.383977
0.383374
0.382774
0.382178
0.381585
0.380996
0.380411
0.379828
0.379249
0.378673
0.378099
0.377528
0.37696
0.376394
0.375831
0.375269
0.374709
0.374151
0.373595
0.373039
0.372485
0.371932
0.371379
0.370827
0.370275
0.444619
0.429506
0.41437
0.412922
0.412164
0.411408
0.410655
0.409904
0.409157
0.408411
0.407669
0.40693
0.406193
0.40546
0.404729
0.404002
0.403278
0.402558
0.401841
0.401127
0.400417
0.399711
0.399008
0.398309
0.397614
0.396923
0.396236
0.395553
0.394874
0.394199
0.393528
0.392862
0.3922
0.391542
0.390888
0.390239
0.389593
0.388953
0.388316
0.387684
0.387056
0.386432
0.385812
0.385197
0.384585
0.383978
0.383374
0.382774
0.382178
0.381585
0.380996
0.380411
0.379828
0.379249
0.378673
0.378099
0.377529
0.37696
0.376394
0.375831
0.375269
0.374709
0.374151
0.373595
0.373039
0.372485
0.371932
0.371379
0.370827
0.370275
0.444619
0.429507
0.41437
0.412922
0.412164
0.411408
0.410655
0.409905
0.409157
0.408412
0.40767
0.40693
0.406194
0.40546
0.40473
0.404003
0.403279
0.402558
0.401841
0.401128
0.400418
0.399711
0.399009
0.39831
0.397615
0.396923
0.396236
0.395553
0.394874
0.394199
0.393529
0.392862
0.3922
0.391542
0.390888
0.390239
0.389594
0.388953
0.388317
0.387684
0.387056
0.386432
0.385813
0.385197
0.384586
0.383978
0.383374
0.382774
0.382178
0.381586
0.380997
0.380411
0.379829
0.379249
0.378673
0.378099
0.377529
0.37696
0.376395
0.375831
0.375269
0.37471
0.374151
0.373595
0.373039
0.372485
0.371932
0.371379
0.370827
0.370275
0.444619
0.429507
0.414371
0.412923
0.412165
0.411409
0.410656
0.409906
0.409158
0.408413
0.407671
0.406931
0.406195
0.405461
0.404731
0.404004
0.40328
0.402559
0.401842
0.401129
0.400418
0.399712
0.399009
0.39831
0.397615
0.396924
0.396237
0.395554
0.394875
0.3942
0.393529
0.392863
0.392201
0.391543
0.390889
0.39024
0.389595
0.388954
0.388317
0.387685
0.387057
0.386433
0.385813
0.385198
0.384586
0.383978
0.383375
0.382775
0.382179
0.381586
0.380997
0.380411
0.379829
0.37925
0.378673
0.3781
0.377529
0.376961
0.376395
0.375831
0.375269
0.37471
0.374152
0.373595
0.373039
0.372485
0.371932
0.371379
0.370827
0.370275
0.444619
0.429508
0.414372
0.412924
0.412166
0.411411
0.410657
0.409907
0.409159
0.408414
0.407672
0.406932
0.406196
0.405462
0.404732
0.404005
0.403281
0.40256
0.401843
0.40113
0.40042
0.399713
0.39901
0.398312
0.397616
0.396925
0.396238
0.395555
0.394876
0.394201
0.39353
0.392864
0.392202
0.391544
0.39089
0.39024
0.389595
0.388954
0.388318
0.387686
0.387057
0.386434
0.385814
0.385198
0.384587
0.383979
0.383375
0.382775
0.382179
0.381586
0.380997
0.380412
0.379829
0.37925
0.378674
0.3781
0.377529
0.376961
0.376395
0.375831
0.37527
0.37471
0.374152
0.373595
0.37304
0.372485
0.371932
0.371379
0.370827
0.370275
0.444619
0.429508
0.414373
0.412925
0.412167
0.411412
0.410659
0.409908
0.40916
0.408415
0.407673
0.406934
0.406197
0.405464
0.404733
0.404006
0.403282
0.402562
0.401845
0.401131
0.400421
0.399714
0.399012
0.398313
0.397618
0.396926
0.396239
0.395556
0.394877
0.394202
0.393531
0.392865
0.392202
0.391544
0.390891
0.390241
0.389596
0.388955
0.388319
0.387686
0.387058
0.386434
0.385814
0.385199
0.384587
0.38398
0.383376
0.382776
0.38218
0.381587
0.380998
0.380412
0.37983
0.37925
0.378674
0.3781
0.377529
0.376961
0.376395
0.375832
0.37527
0.37471
0.374152
0.373595
0.37304
0.372485
0.371932
0.371379
0.370827
0.370275
0.444619
0.429509
0.414374
0.412926
0.412168
0.411413
0.41066
0.409909
0.409162
0.408417
0.407674
0.406935
0.406198
0.405465
0.404735
0.404007
0.403283
0.402563
0.401846
0.401132
0.400422
0.399715
0.399013
0.398314
0.397619
0.396927
0.39624
0.395557
0.394878
0.394203
0.393532
0.392866
0.392203
0.391545
0.390891
0.390242
0.389597
0.388956
0.388319
0.387687
0.387059
0.386435
0.385815
0.385199
0.384588
0.38398
0.383376
0.382776
0.38218
0.381587
0.380998
0.380412
0.37983
0.379251
0.378674
0.378101
0.37753
0.376961
0.376395
0.375832
0.37527
0.37471
0.374152
0.373595
0.37304
0.372485
0.371932
0.371379
0.370827
0.370275
0.444619
0.429509
0.414375
0.412927
0.412169
0.411414
0.410661
0.40991
0.409163
0.408418
0.407675
0.406936
0.406199
0.405466
0.404736
0.404008
0.403285
0.402564
0.401847
0.401133
0.400423
0.399717
0.399014
0.398315
0.39762
0.396928
0.396241
0.395558
0.394879
0.394204
0.393533
0.392867
0.392204
0.391546
0.390892
0.390243
0.389598
0.388957
0.38832
0.387688
0.387059
0.386435
0.385816
0.3852
0.384588
0.383981
0.383377
0.382777
0.38218
0.381588
0.380999
0.380413
0.37983
0.379251
0.378674
0.378101
0.37753
0.376962
0.376396
0.375832
0.37527
0.37471
0.374152
0.373595
0.37304
0.372486
0.371932
0.371379
0.370827
0.370275
0.444619
0.42951
0.414376
0.412928
0.41217
0.411415
0.410662
0.409911
0.409164
0.408419
0.407676
0.406937
0.406201
0.405467
0.404737
0.40401
0.403286
0.402565
0.401848
0.401134
0.400424
0.399718
0.399015
0.398316
0.397621
0.396929
0.396242
0.395559
0.39488
0.394205
0.393534
0.392867
0.392205
0.391547
0.390893
0.390244
0.389598
0.388957
0.388321
0.387688
0.38706
0.386436
0.385816
0.385201
0.384589
0.383981
0.383377
0.382777
0.382181
0.381588
0.380999
0.380413
0.379831
0.379251
0.378675
0.378101
0.37753
0.376962
0.376396
0.375832
0.37527
0.37471
0.374152
0.373595
0.37304
0.372486
0.371932
0.371379
0.370827
0.370275
0.444619
0.42951
0.414377
0.412929
0.412171
0.411416
0.410663
0.409913
0.409165
0.40842
0.407677
0.406938
0.406202
0.405468
0.404738
0.404011
0.403287
0.402566
0.401849
0.401135
0.400425
0.399719
0.399016
0.398317
0.397622
0.39693
0.396243
0.39556
0.394881
0.394206
0.393535
0.392868
0.392206
0.391548
0.390894
0.390244
0.389599
0.388958
0.388321
0.387689
0.387061
0.386437
0.385817
0.385201
0.384589
0.383982
0.383378
0.382778
0.382181
0.381589
0.380999
0.380414
0.379831
0.379252
0.378675
0.378101
0.377531
0.376962
0.376396
0.375832
0.375271
0.374711
0.374152
0.373596
0.37304
0.372486
0.371932
0.371379
0.370827
0.370275
0.444619
0.429511
0.414378
0.41293
0.412173
0.411417
0.410664
0.409914
0.409166
0.408421
0.407679
0.406939
0.406203
0.405469
0.404739
0.404012
0.403288
0.402567
0.40185
0.401136
0.400426
0.39972
0.399017
0.398318
0.397623
0.396932
0.396244
0.395561
0.394882
0.394207
0.393536
0.392869
0.392207
0.391549
0.390895
0.390245
0.3896
0.388959
0.388322
0.38769
0.387061
0.386437
0.385818
0.385202
0.38459
0.383982
0.383378
0.382778
0.382182
0.381589
0.381
0.380414
0.379831
0.379252
0.378675
0.378102
0.377531
0.376962
0.376396
0.375833
0.375271
0.374711
0.374153
0.373596
0.37304
0.372486
0.371932
0.371379
0.370827
0.370275
0.444619
0.429511
0.414379
0.412932
0.412174
0.411418
0.410665
0.409915
0.409167
0.408422
0.40768
0.40694
0.406204
0.405471
0.40474
0.404013
0.403289
0.402569
0.401851
0.401138
0.400427
0.399721
0.399018
0.398319
0.397624
0.396933
0.396245
0.395562
0.394883
0.394208
0.393537
0.39287
0.392208
0.39155
0.390896
0.390246
0.389601
0.38896
0.388323
0.38769
0.387062
0.386438
0.385818
0.385202
0.384591
0.383983
0.383379
0.382779
0.382182
0.38159
0.381
0.380414
0.379832
0.379252
0.378676
0.378102
0.377531
0.376963
0.376397
0.375833
0.375271
0.374711
0.374153
0.373596
0.37304
0.372486
0.371932
0.37138
0.370827
0.370275
0.444619
0.429512
0.41438
0.412933
0.412175
0.411419
0.410666
0.409916
0.409168
0.408423
0.407681
0.406942
0.406205
0.405472
0.404741
0.404014
0.40329
0.40257
0.401853
0.401139
0.400429
0.399722
0.399019
0.39832
0.397625
0.396934
0.396246
0.395563
0.394884
0.394209
0.393538
0.392871
0.392209
0.391551
0.390897
0.390247
0.389602
0.388961
0.388324
0.387691
0.387063
0.386439
0.385819
0.385203
0.384591
0.383983
0.383379
0.382779
0.382183
0.38159
0.381001
0.380415
0.379832
0.379253
0.378676
0.378102
0.377531
0.376963
0.376397
0.375833
0.375271
0.374711
0.374153
0.373596
0.37304
0.372486
0.371932
0.37138
0.370827
0.370275
0.444619
0.429512
0.414381
0.412934
0.412176
0.41142
0.410668
0.409917
0.409169
0.408424
0.407682
0.406943
0.406206
0.405473
0.404743
0.404015
0.403292
0.402571
0.401854
0.40114
0.40043
0.399723
0.39902
0.398321
0.397626
0.396935
0.396247
0.395564
0.394885
0.39421
0.393539
0.392872
0.39221
0.391551
0.390897
0.390248
0.389602
0.388961
0.388324
0.387692
0.387064
0.386439
0.38582
0.385204
0.384592
0.383984
0.38338
0.38278
0.382183
0.38159
0.381001
0.380415
0.379833
0.379253
0.378676
0.378103
0.377532
0.376963
0.376397
0.375833
0.375271
0.374711
0.374153
0.373596
0.373041
0.372486
0.371932
0.37138
0.370827
0.370275
0.444619
0.429513
0.414382
0.412935
0.412177
0.411422
0.410669
0.409918
0.409171
0.408426
0.407683
0.406944
0.406208
0.405474
0.404744
0.404017
0.403293
0.402572
0.401855
0.401141
0.400431
0.399724
0.399021
0.398322
0.397627
0.396936
0.396248
0.395565
0.394886
0.394211
0.39354
0.392873
0.39221
0.391552
0.390898
0.390249
0.389603
0.388962
0.388325
0.387693
0.387064
0.38644
0.38582
0.385204
0.384592
0.383984
0.38338
0.38278
0.382184
0.381591
0.381002
0.380416
0.379833
0.379253
0.378677
0.378103
0.377532
0.376963
0.376397
0.375833
0.375271
0.374711
0.374153
0.373596
0.373041
0.372486
0.371933
0.37138
0.370827
0.370275
0.444619
0.429513
0.414383
0.412936
0.412178
0.411422
0.41067
0.409919
0.409172
0.408427
0.407684
0.406945
0.406209
0.405475
0.404745
0.404018
0.403294
0.402573
0.401856
0.401142
0.400432
0.399725
0.399022
0.398323
0.397628
0.396937
0.396249
0.395566
0.394887
0.394212
0.393541
0.392874
0.392211
0.391553
0.390899
0.390249
0.389604
0.388963
0.388326
0.387693
0.387065
0.386441
0.385821
0.385205
0.384593
0.383985
0.383381
0.382781
0.382184
0.381591
0.381002
0.380416
0.379833
0.379254
0.378677
0.378103
0.377532
0.376964
0.376397
0.375834
0.375272
0.374712
0.374153
0.373596
0.373041
0.372486
0.371933
0.37138
0.370827
0.370275
0.444619
0.429514
0.414384
0.412936
0.412179
0.411423
0.41067
0.40992
0.409172
0.408427
0.407685
0.406946
0.406209
0.405476
0.404746
0.404018
0.403294
0.402574
0.401857
0.401143
0.400433
0.399726
0.399023
0.398324
0.397629
0.396937
0.39625
0.395567
0.394887
0.394212
0.393541
0.392874
0.392212
0.391553
0.390899
0.39025
0.389604
0.388963
0.388326
0.387694
0.387065
0.386441
0.385821
0.385205
0.384593
0.383985
0.383381
0.382781
0.382184
0.381591
0.381002
0.380416
0.379833
0.379254
0.378677
0.378103
0.377532
0.376964
0.376398
0.375834
0.375272
0.374712
0.374153
0.373596
0.373041
0.372486
0.371933
0.37138
0.370827
0.370275
0.444619
0.429514
0.414385
0.412937
0.412179
0.411424
0.410671
0.409921
0.409173
0.408428
0.407686
0.406946
0.40621
0.405477
0.404746
0.404019
0.403295
0.402574
0.401857
0.401143
0.400433
0.399727
0.399024
0.398325
0.397629
0.396938
0.396251
0.395567
0.394888
0.394213
0.393542
0.392875
0.392212
0.391554
0.3909
0.39025
0.389605
0.388964
0.388327
0.387694
0.387066
0.386441
0.385821
0.385205
0.384593
0.383985
0.383381
0.382781
0.382185
0.381592
0.381002
0.380416
0.379834
0.379254
0.378677
0.378103
0.377532
0.376964
0.376398
0.375834
0.375272
0.374712
0.374153
0.373596
0.373041
0.372486
0.371933
0.37138
0.370827
0.370275
0.444619
0.429514
0.414385
0.412937
0.41218
0.411424
0.410671
0.409921
0.409173
0.408428
0.407686
0.406947
0.40621
0.405477
0.404747
0.404019
0.403296
0.402575
0.401858
0.401144
0.400434
0.399727
0.399024
0.398325
0.39763
0.396938
0.396251
0.395568
0.394888
0.394213
0.393542
0.392875
0.392213
0.391554
0.3909
0.39025
0.389605
0.388964
0.388327
0.387694
0.387066
0.386442
0.385822
0.385206
0.384594
0.383986
0.383382
0.382781
0.382185
0.381592
0.381002
0.380416
0.379834
0.379254
0.378677
0.378104
0.377532
0.376964
0.376398
0.375834
0.375272
0.374712
0.374153
0.373596
0.373041
0.372486
0.371933
0.37138
0.370827
0.370275
0.444619
0.429514
0.414385
0.412938
0.41218
0.411425
0.410672
0.409921
0.409174
0.408429
0.407687
0.406947
0.406211
0.405477
0.404747
0.40402
0.403296
0.402575
0.401858
0.401144
0.400434
0.399727
0.399024
0.398325
0.39763
0.396939
0.396251
0.395568
0.394888
0.394213
0.393542
0.392875
0.392213
0.391554
0.3909
0.390251
0.389605
0.388964
0.388327
0.387694
0.387066
0.386442
0.385822
0.385206
0.384594
0.383986
0.383382
0.382781
0.382185
0.381592
0.381003
0.380416
0.379834
0.379254
0.378677
0.378104
0.377533
0.376964
0.376398
0.375834
0.375272
0.374712
0.374153
0.373596
0.373041
0.372486
0.371933
0.37138
0.370827
0.370275
0.444619
0.429515
0.414385
0.412938
0.41218
0.411425
0.410672
0.409922
0.409174
0.408429
0.407687
0.406947
0.406211
0.405478
0.404747
0.40402
0.403296
0.402575
0.401858
0.401144
0.400434
0.399728
0.399025
0.398326
0.39763
0.396939
0.396251
0.395568
0.394889
0.394213
0.393542
0.392876
0.392213
0.391555
0.390901
0.390251
0.389605
0.388964
0.388327
0.387694
0.387066
0.386442
0.385822
0.385206
0.384594
0.383986
0.383382
0.382781
0.382185
0.381592
0.381003
0.380417
0.379834
0.379254
0.378677
0.378104
0.377533
0.376964
0.376398
0.375834
0.375272
0.374712
0.374153
0.373597
0.373041
0.372486
0.371933
0.37138
0.370827
0.370275
0.444619
0.429515
0.414385
0.412938
0.41218
0.411425
0.410672
0.409922
0.409174
0.408429
0.407687
0.406948
0.406211
0.405478
0.404747
0.40402
0.403296
0.402576
0.401858
0.401144
0.400434
0.399728
0.399025
0.398326
0.39763
0.396939
0.396251
0.395568
0.394889
0.394214
0.393542
0.392876
0.392213
0.391555
0.390901
0.390251
0.389605
0.388964
0.388327
0.387695
0.387066
0.386442
0.385822
0.385206
0.384594
0.383986
0.383382
0.382782
0.382185
0.381592
0.381003
0.380417
0.379834
0.379254
0.378677
0.378104
0.377533
0.376964
0.376398
0.375834
0.375272
0.374712
0.374153
0.373597
0.373041
0.372486
0.371933
0.37138
0.370827
0.370275
0.444619
0.429515
0.414386
0.412938
0.41218
0.411425
0.410672
0.409922
0.409174
0.408429
0.407687
0.406948
0.406211
0.405478
0.404747
0.40402
0.403296
0.402576
0.401858
0.401145
0.400434
0.399728
0.399025
0.398326
0.39763
0.396939
0.396252
0.395568
0.394889
0.394214
0.393543
0.392876
0.392213
0.391555
0.390901
0.390251
0.389605
0.388964
0.388327
0.387695
0.387066
0.386442
0.385822
0.385206
0.384594
0.383986
0.383382
0.382782
0.382185
0.381592
0.381003
0.380417
0.379834
0.379254
0.378678
0.378104
0.377533
0.376964
0.376398
0.375834
0.375272
0.374712
0.374153
0.373597
0.373041
0.372486
0.371933
0.37138
0.370827
0.370275
0.444619
0.429515
0.414386
0.412938
0.41218
0.411425
0.410672
0.409922
0.409174
0.408429
0.407687
0.406948
0.406211
0.405478
0.404747
0.40402
0.403296
0.402576
0.401858
0.401145
0.400434
0.399728
0.399025
0.398326
0.39763
0.396939
0.396252
0.395568
0.394889
0.394214
0.393543
0.392876
0.392213
0.391555
0.390901
0.390251
0.389605
0.388964
0.388327
0.387695
0.387066
0.386442
0.385822
0.385206
0.384594
0.383986
0.383382
0.382782
0.382185
0.381592
0.381003
0.380417
0.379834
0.379254
0.378678
0.378104
0.377533
0.376964
0.376398
0.375834
0.375272
0.374712
0.374153
0.373597
0.373041
0.372486
0.371933
0.37138
0.370827
0.370275
0.444619
0.429515
0.414386
0.412938
0.41218
0.411425
0.410672
0.409922
0.409174
0.408429
0.407687
0.406948
0.406211
0.405478
0.404747
0.40402
0.403296
0.402576
0.401858
0.401145
0.400434
0.399728
0.399025
0.398326
0.39763
0.396939
0.396252
0.395568
0.394889
0.394214
0.393543
0.392876
0.392213
0.391555
0.390901
0.390251
0.389605
0.388964
0.388327
0.387695
0.387066
0.386442
0.385822
0.385206
0.384594
0.383986
0.383382
0.382782
0.382185
0.381592
0.381003
0.380417
0.379834
0.379254
0.378678
0.378104
0.377533
0.376964
0.376398
0.375834
0.375272
0.374712
0.374153
0.373597
0.373041
0.372486
0.371933
0.37138
0.370827
0.370275
0.444619
0.429515
0.414386
0.412938
0.41218
0.411425
0.410672
0.409922
0.409174
0.408429
0.407687
0.406948
0.406211
0.405478
0.404747
0.40402
0.403296
0.402576
0.401858
0.401145
0.400434
0.399728
0.399025
0.398326
0.39763
0.396939
0.396252
0.395568
0.394889
0.394214
0.393543
0.392876
0.392213
0.391555
0.390901
0.390251
0.389605
0.388964
0.388327
0.387695
0.387066
0.386442
0.385822
0.385206
0.384594
0.383986
0.383382
0.382782
0.382185
0.381592
0.381003
0.380417
0.379834
0.379254
0.378678
0.378104
0.377533
0.376964
0.376398
0.375834
0.375272
0.374712
0.374153
0.373597
0.373041
0.372486
0.371933
0.37138
0.370827
0.370275
0.444619
0.429515
0.414386
0.412938
0.41218
0.411425
0.410672
0.409922
0.409174
0.408429
0.407687
0.406948
0.406211
0.405478
0.404747
0.40402
0.403296
0.402576
0.401858
0.401145
0.400434
0.399728
0.399025
0.398326
0.39763
0.396939
0.396252
0.395568
0.394889
0.394214
0.393543
0.392876
0.392213
0.391555
0.390901
0.390251
0.389605
0.388964
0.388327
0.387695
0.387066
0.386442
0.385822
0.385206
0.384594
0.383986
0.383382
0.382782
0.382185
0.381592
0.381003
0.380417
0.379834
0.379254
0.378678
0.378104
0.377533
0.376964
0.376398
0.375834
0.375272
0.374712
0.374153
0.373597
0.373041
0.372486
0.371933
0.37138
0.370827
0.370275
0.444619
0.429515
0.414386
0.412938
0.41218
0.411425
0.410672
0.409922
0.409174
0.408429
0.407687
0.406948
0.406211
0.405478
0.404747
0.40402
0.403296
0.402576
0.401858
0.401145
0.400434
0.399728
0.399025
0.398326
0.39763
0.396939
0.396252
0.395568
0.394889
0.394214
0.393543
0.392876
0.392213
0.391555
0.390901
0.390251
0.389605
0.388964
0.388327
0.387695
0.387066
0.386442
0.385822
0.385206
0.384594
0.383986
0.383382
0.382782
0.382185
0.381592
0.381003
0.380417
0.379834
0.379254
0.378678
0.378104
0.377533
0.376964
0.376398
0.375834
0.375272
0.374712
0.374153
0.373597
0.373041
0.372486
0.371933
0.37138
0.370827
0.370275
0.444619
0.429515
0.414386
0.412938
0.41218
0.411425
0.410672
0.409922
0.409174
0.408429
0.407687
0.406948
0.406211
0.405478
0.404747
0.40402
0.403296
0.402576
0.401858
0.401145
0.400434
0.399728
0.399025
0.398326
0.39763
0.396939
0.396252
0.395568
0.394889
0.394214
0.393543
0.392876
0.392213
0.391555
0.390901
0.390251
0.389605
0.388964
0.388327
0.387695
0.387066
0.386442
0.385822
0.385206
0.384594
0.383986
0.383382
0.382782
0.382185
0.381592
0.381003
0.380417
0.379834
0.379254
0.378678
0.378104
0.377533
0.376964
0.376398
0.375834
0.375272
0.374712
0.374153
0.373597
0.373041
0.372486
0.371933
0.37138
0.370827
0.370275
0.444619
0.429515
0.414386
0.412938
0.41218
0.411425
0.410672
0.409922
0.409174
0.408429
0.407687
0.406948
0.406211
0.405478
0.404747
0.40402
0.403296
0.402576
0.401858
0.401145
0.400434
0.399728
0.399025
0.398326
0.39763
0.396939
0.396252
0.395568
0.394889
0.394214
0.393543
0.392876
0.392213
0.391555
0.390901
0.390251
0.389605
0.388964
0.388327
0.387695
0.387066
0.386442
0.385822
0.385206
0.384594
0.383986
0.383382
0.382782
0.382185
0.381592
0.381003
0.380417
0.379834
0.379254
0.378678
0.378104
0.377533
0.376964
0.376398
0.375834
0.375272
0.374712
0.374153
0.373597
0.373041
0.372486
0.371933
0.37138
0.370827
0.370275
0.444619
0.429515
0.414386
0.412938
0.41218
0.411425
0.410672
0.409922
0.409174
0.408429
0.407687
0.406948
0.406211
0.405478
0.404747
0.40402
0.403296
0.402576
0.401858
0.401145
0.400434
0.399728
0.399025
0.398326
0.39763
0.396939
0.396252
0.395568
0.394889
0.394214
0.393543
0.392876
0.392213
0.391555
0.390901
0.390251
0.389605
0.388964
0.388327
0.387695
0.387066
0.386442
0.385822
0.385206
0.384594
0.383986
0.383382
0.382782
0.382185
0.381592
0.381003
0.380417
0.379834
0.379254
0.378678
0.378104
0.377533
0.376964
0.376398
0.375834
0.375272
0.374712
0.374153
0.373597
0.373041
0.372486
0.371933
0.37138
0.370827
0.370275
0.444619
0.429515
0.414386
0.412938
0.41218
0.411425
0.410672
0.409922
0.409174
0.408429
0.407687
0.406948
0.406211
0.405478
0.404747
0.40402
0.403296
0.402576
0.401858
0.401145
0.400434
0.399728
0.399025
0.398326
0.39763
0.396939
0.396252
0.395568
0.394889
0.394214
0.393543
0.392876
0.392213
0.391555
0.390901
0.390251
0.389605
0.388964
0.388327
0.387695
0.387066
0.386442
0.385822
0.385206
0.384594
0.383986
0.383382
0.382782
0.382185
0.381592
0.381003
0.380417
0.379834
0.379254
0.378678
0.378104
0.377533
0.376964
0.376398
0.375834
0.375272
0.374712
0.374153
0.373597
0.373041
0.372486
0.371933
0.37138
0.370827
0.370275
0.444619
0.429515
0.414386
0.412938
0.41218
0.411425