/*--------------------------------*- C++ -*----------------------------------*\
  =========                 |
  \\      /  F ield         | OpenFOAM: The Open Source CFD Toolbox
   \\    /   O peration     | Website:  https://openfoam.org
    \\  /    A nd           | Version:  13
     \\/     M anipulation  |
\*---------------------------------------------------------------------------*/
FoamFile
{
    format      ascii;
    class       volScalarField;
    location    "11";
    object      nut;
}
// * * * * * * * * * * * * * * * * * * * * * * * * * * * * * * * * * * * * * //

dimensions      [0 2 -1 0 0 0 0];

internalField   nonuniform List<scalar> 
78750
(
8.49034e-14
2.17932e-11
4.92721e-10
8.95204e-10
1.32148e-09
1.77504e-09
2.25585e-09
2.7597e-09
3.27828e-09
3.79994e-09
4.31062e-09
4.79504e-09
5.2377e-09
5.62384e-09
5.94025e-09
6.1759e-09
6.32248e-09
6.37481e-09
6.33101e-09
6.19264e-09
5.96462e-09
5.65498e-09
5.27451e-09
4.83624e-09
4.35479e-09
3.84557e-09
3.32384e-09
2.8037e-09
2.29693e-09
1.81193e-09
1.35304e-09
9.20181e-10
5.09217e-10
2.26883e-11
8.87332e-14
1.86947e-12
4.87473e-10
6.8892e-08
1.25865e-07
1.86001e-07
2.49984e-07
3.1784e-07
3.88919e-07
4.6196e-07
5.35228e-07
6.06698e-07
6.7422e-07
7.35667e-07
7.89054e-07
8.32631e-07
8.64958e-07
8.84963e-07
8.91977e-07
8.85769e-07
8.66543e-07
8.34938e-07
7.92004e-07
7.39157e-07
6.78127e-07
6.10885e-07
5.39545e-07
4.6625e-07
3.93027e-07
3.21615e-07
2.53288e-07
1.88716e-07
1.27881e-07
7.00985e-08
4.9673e-10
1.90594e-12
5.53304e-12
1.44423e-09
2.03856e-07
3.7373e-07
5.56232e-07
7.54257e-07
9.67811e-07
1.19395e-06
1.42732e-06
1.66119e-06
1.88846e-06
2.10214e-06
2.29565e-06
2.46302e-06
2.59909e-06
2.69965e-06
2.76158e-06
2.78299e-06
2.7632e-06
2.70283e-06
2.60373e-06
2.46896e-06
2.30269e-06
2.11005e-06
1.89698e-06
1.67003e-06
1.43615e-06
1.20246e-06
9.75668e-07
7.61148e-07
5.6188e-07
3.77897e-07
2.06329e-07
1.46314e-09
5.60717e-12
1.03503e-11
2.70395e-09
3.79921e-07
6.93904e-07
1.03001e-06
1.39305e-06
1.78178e-06
2.18936e-06
2.6053e-06
3.01775e-06
3.41496e-06
3.78576e-06
4.11975e-06
4.40745e-06
4.64073e-06
4.81288e-06
4.91873e-06
4.95504e-06
4.9207e-06
4.81676e-06
4.6464e-06
4.41473e-06
4.12841e-06
3.79552e-06
3.42551e-06
3.02876e-06
2.6164e-06
2.20016e-06
1.79186e-06
1.40198e-06
1.03739e-06
6.99395e-07
3.83201e-07
2.72929e-09
1.04494e-11
1.47721e-11
3.86242e-09
5.40209e-07
9.81963e-07
1.45136e-06
1.9543e-06
2.48786e-06
3.04176e-06
3.60174e-06
4.1525e-06
4.67928e-06
5.16875e-06
5.60899e-06
5.98831e-06
6.29584e-06
6.52253e-06
6.66166e-06
6.70916e-06
6.66362e-06
6.52638e-06
6.30148e-06
5.99556e-06
5.61765e-06
5.17853e-06
4.6899e-06
4.16364e-06
3.61304e-06
3.05284e-06
2.49828e-06
1.96361e-06
1.45911e-06
9.87767e-07
5.43697e-07
3.88969e-09
1.48788e-11
1.78298e-11
4.66554e-09
6.5052e-07
1.17842e-06
1.73624e-06
2.33046e-06
2.95693e-06
3.60329e-06
4.25317e-06
4.88941e-06
5.49614e-06
6.05936e-06
6.56544e-06
7.00088e-06
7.35336e-06
7.61279e-06
7.77179e-06
7.8259e-06
7.77362e-06
7.6164e-06
7.35865e-06
7.0077e-06
6.57358e-06
6.06858e-06
5.50617e-06
4.89997e-06
4.26392e-06
3.61388e-06
2.96693e-06
2.33943e-06
1.74374e-06
1.18405e-06
6.53915e-07
4.69233e-09
1.79347e-11
1.95098e-11
5.10811e-09
7.11093e-07
1.28572e-06
1.89107e-06
2.53388e-06
3.2094e-06
3.90422e-06
4.60095e-06
5.28156e-06
5.92992e-06
6.53137e-06
7.07139e-06
7.53561e-06
7.91105e-06
8.18714e-06
8.35623e-06
8.4137e-06
8.35797e-06
8.19057e-06
7.91608e-06
7.5421e-06
7.07914e-06
6.54016e-06
5.93949e-06
5.29164e-06
4.61125e-06
3.91437e-06
3.219e-06
2.54251e-06
1.89829e-06
1.29115e-06
7.14364e-07
5.13406e-09
1.96116e-11
2.02741e-11
5.3101e-09
7.38722e-07
1.33455e-06
1.96136e-06
2.62603e-06
3.32352e-06
4.03998e-06
4.7576e-06
5.45799e-06
6.12489e-06
6.74333e-06
7.2984e-06
7.77536e-06
8.16094e-06
8.44439e-06
8.61794e-06
8.67688e-06
8.61963e-06
8.44774e-06
8.16585e-06
7.78169e-06
7.30597e-06
6.75192e-06
6.13425e-06
5.46784e-06
4.76766e-06
4.04991e-06
3.33292e-06
2.63448e-06
1.96843e-06
1.33986e-06
7.41925e-07
5.33558e-09
2.03741e-11
2.05714e-11
5.38894e-09
7.49517e-07
1.35361e-06
1.98878e-06
2.66196e-06
3.36799e-06
4.09285e-06
4.81855e-06
5.52664e-06
6.20074e-06
6.82578e-06
7.38668e-06
7.86857e-06
8.25808e-06
8.54439e-06
8.71966e-06
8.77917e-06
8.72134e-06
8.54771e-06
8.26296e-06
7.87486e-06
7.3942e-06
6.8343e-06
6.21003e-06
5.53642e-06
4.82855e-06
4.10271e-06
3.37732e-06
2.67035e-06
1.99581e-06
1.35889e-06
7.52697e-07
5.41425e-09
2.06708e-11
2.06728e-11
5.41589e-09
7.53215e-07
1.36014e-06
1.99818e-06
2.67427e-06
3.38323e-06
4.11096e-06
4.83945e-06
5.55017e-06
6.22675e-06
6.85404e-06
7.41695e-06
7.90054e-06
8.2914e-06
8.57868e-06
8.75455e-06
8.81426e-06
8.75623e-06
8.58201e-06
8.29627e-06
7.90683e-06
7.42447e-06
6.86256e-06
6.23603e-06
5.55995e-06
4.84943e-06
4.12082e-06
3.39255e-06
2.68265e-06
2.0052e-06
1.36541e-06
7.5639e-07
5.44117e-09
2.0772e-11
2.07036e-11
5.42411e-09
7.54345e-07
1.36214e-06
2.00105e-06
2.67804e-06
3.38789e-06
4.11651e-06
4.84585e-06
5.55738e-06
6.23472e-06
6.86271e-06
7.42624e-06
7.91035e-06
8.30162e-06
8.58921e-06
8.76526e-06
8.82503e-06
8.76694e-06
8.59253e-06
8.3065e-06
7.91663e-06
7.43375e-06
6.87123e-06
6.244e-06
5.56716e-06
4.85583e-06
4.12637e-06
3.39722e-06
2.68642e-06
2.00807e-06
1.36741e-06
7.57521e-07
5.44939e-09
2.08028e-11
2.0712e-11
5.42637e-09
7.54657e-07
1.36269e-06
2.00185e-06
2.67908e-06
3.38918e-06
4.11805e-06
4.84762e-06
5.55938e-06
6.23693e-06
6.86511e-06
7.42881e-06
7.91307e-06
8.30446e-06
8.59213e-06
8.76823e-06
8.82802e-06
8.76991e-06
8.59546e-06
8.30934e-06
7.91936e-06
7.43633e-06
6.87364e-06
6.24621e-06
5.56916e-06
4.85761e-06
4.1279e-06
3.39851e-06
2.68746e-06
2.00887e-06
1.36796e-06
7.57833e-07
5.45166e-09
2.08113e-11
2.07141e-11
5.42694e-09
7.54736e-07
1.36283e-06
2.00205e-06
2.67935e-06
3.38951e-06
4.11844e-06
4.84807e-06
5.55988e-06
6.23749e-06
6.86572e-06
7.42946e-06
7.91376e-06
8.30518e-06
8.59287e-06
8.76898e-06
8.82878e-06
8.77067e-06
8.5962e-06
8.31006e-06
7.92005e-06
7.43698e-06
6.87425e-06
6.24678e-06
5.56967e-06
4.85806e-06
4.12829e-06
3.39884e-06
2.68773e-06
2.00907e-06
1.3681e-06
7.57912e-07
5.45223e-09
2.08135e-11
2.07146e-11
5.42707e-09
7.54754e-07
1.36286e-06
2.00209e-06
2.67941e-06
3.38959e-06
4.11853e-06
4.84817e-06
5.56e-06
6.23762e-06
6.86587e-06
7.42962e-06
7.91392e-06
8.30535e-06
8.59304e-06
8.76916e-06
8.82896e-06
8.77085e-06
8.59637e-06
8.31022e-06
7.92021e-06
7.43714e-06
6.87439e-06
6.24691e-06
5.56979e-06
4.85817e-06
4.12839e-06
3.39891e-06
2.68779e-06
2.00911e-06
1.36813e-06
7.57931e-07
5.45237e-09
2.08139e-11
2.07147e-11
5.4271e-09
7.54758e-07
1.36287e-06
2.0021e-06
2.67942e-06
3.3896e-06
4.11855e-06
4.84819e-06
5.56003e-06
6.23765e-06
6.8659e-06
7.42965e-06
7.91395e-06
8.30538e-06
8.59308e-06
8.7692e-06
8.829e-06
8.77088e-06
8.59641e-06
8.31026e-06
7.92025e-06
7.43717e-06
6.87442e-06
6.24693e-06
5.56981e-06
4.85819e-06
4.12841e-06
3.39893e-06
2.6878e-06
2.00912e-06
1.36814e-06
7.57935e-07
5.4524e-09
2.08141e-11
2.07147e-11
5.42711e-09
7.54759e-07
1.36287e-06
2.00211e-06
2.67942e-06
3.3896e-06
4.11855e-06
4.8482e-06
5.56003e-06
6.23765e-06
6.8659e-06
7.42966e-06
7.91396e-06
8.30539e-06
8.59309e-06
8.76921e-06
8.829e-06
8.77089e-06
8.59642e-06
8.31027e-06
7.92025e-06
7.43718e-06
6.87443e-06
6.24694e-06
5.56982e-06
4.85819e-06
4.12841e-06
3.39893e-06
2.68781e-06
2.00913e-06
1.36814e-06
7.57935e-07
5.4524e-09
2.08141e-11
2.07147e-11
5.42711e-09
7.54759e-07
1.36287e-06
2.00211e-06
2.67942e-06
3.38961e-06
4.11855e-06
4.8482e-06
5.56003e-06
6.23765e-06
6.8659e-06
7.42966e-06
7.91396e-06
8.30539e-06
8.59309e-06
8.76921e-06
8.82901e-06
8.77089e-06
8.59642e-06
8.31027e-06
7.92025e-06
7.43718e-06
6.87443e-06
6.24694e-06
5.56982e-06
4.85819e-06
4.12841e-06
3.39893e-06
2.68781e-06
2.00913e-06
1.36814e-06
7.57936e-07
5.4524e-09
2.08141e-11
2.07147e-11
5.42711e-09
7.54759e-07
1.36287e-06
2.00211e-06
2.67942e-06
3.38961e-06
4.11855e-06
4.8482e-06
5.56003e-06
6.23765e-06
6.8659e-06
7.42966e-06
7.91396e-06
8.30539e-06
8.59309e-06
8.76921e-06
8.82901e-06
8.77089e-06
8.59642e-06
8.31027e-06
7.92025e-06
7.43718e-06
6.87443e-06
6.24694e-06
5.56982e-06
4.85819e-06
4.12841e-06
3.39893e-06
2.68781e-06
2.00913e-06
1.36814e-06
7.57936e-07
5.4524e-09
2.08141e-11
2.07147e-11
5.42711e-09
7.54759e-07
1.36287e-06
2.00211e-06
2.67942e-06
3.38961e-06
4.11855e-06
4.8482e-06
5.56003e-06
6.23765e-06
6.8659e-06
7.42966e-06
7.91396e-06
8.30539e-06
8.59309e-06
8.76921e-06
8.82901e-06
8.77089e-06
8.59642e-06
8.31027e-06
7.92025e-06
7.43718e-06
6.87443e-06
6.24694e-06
5.56982e-06
4.85819e-06
4.12841e-06
3.39893e-06
2.68781e-06
2.00913e-06
1.36814e-06
7.57936e-07
5.4524e-09
2.08141e-11
2.07147e-11
5.42711e-09
7.54759e-07
1.36287e-06
2.00211e-06
2.67942e-06
3.38961e-06
4.11855e-06
4.8482e-06
5.56003e-06
6.23765e-06
6.8659e-06
7.42966e-06
7.91396e-06
8.30539e-06
8.59309e-06
8.76921e-06
8.82901e-06
8.77089e-06
8.59642e-06
8.31027e-06
7.92025e-06
7.43718e-06
6.87443e-06
6.24694e-06
5.56982e-06
4.85819e-06
4.12841e-06
3.39893e-06
2.68781e-06
2.00913e-06
1.36814e-06
7.57936e-07
5.4524e-09
2.08141e-11
2.07147e-11
5.42711e-09
7.54759e-07
1.36287e-06
2.00211e-06
2.67942e-06
3.38961e-06
4.11855e-06
4.8482e-06
5.56003e-06
6.23765e-06
6.8659e-06
7.42966e-06
7.91396e-06
8.30539e-06
8.59309e-06
8.76921e-06
8.82901e-06
8.77089e-06
8.59642e-06
8.31027e-06
7.92025e-06
7.43718e-06
6.87443e-06
6.24694e-06
5.56982e-06
4.85819e-06
4.12841e-06
3.39894e-06
2.68781e-06
2.00913e-06
1.36814e-06
7.57936e-07
5.4524e-09
2.08141e-11
2.07147e-11
5.42711e-09
7.54759e-07
1.36287e-06
2.00211e-06
2.67942e-06
3.38961e-06
4.11855e-06
4.8482e-06
5.56003e-06
6.23765e-06
6.8659e-06
7.42966e-06
7.91396e-06
8.30539e-06
8.59309e-06
8.76921e-06
8.82901e-06
8.77089e-06
8.59642e-06
8.31027e-06
7.92025e-06
7.43718e-06
6.87443e-06
6.24694e-06
5.56982e-06
4.85819e-06
4.12841e-06
3.39894e-06
2.68781e-06
2.00913e-06
1.36814e-06
7.57936e-07
5.4524e-09
2.08141e-11
2.07147e-11
5.42711e-09
7.54759e-07
1.36287e-06
2.00211e-06
2.67942e-06
3.38961e-06
4.11855e-06
4.8482e-06
5.56003e-06
6.23765e-06
6.8659e-06
7.42966e-06
7.91396e-06
8.30539e-06
8.59309e-06
8.76921e-06
8.82901e-06
8.77089e-06
8.59642e-06
8.31027e-06
7.92025e-06
7.43718e-06
6.87443e-06
6.24694e-06
5.56982e-06
4.85819e-06
4.12841e-06
3.39893e-06
2.68781e-06
2.00913e-06
1.36814e-06
7.57936e-07
5.4524e-09
2.08141e-11
2.07147e-11
5.42711e-09
7.54759e-07
1.36287e-06
2.00211e-06
2.67942e-06
3.38961e-06
4.11855e-06
4.8482e-06
5.56003e-06
6.23765e-06
6.8659e-06
7.42966e-06
7.91396e-06
8.30539e-06
8.59309e-06
8.76921e-06
8.82901e-06
8.77089e-06
8.59642e-06
8.31027e-06
7.92025e-06
7.43718e-06
6.87443e-06
6.24694e-06
5.56982e-06
4.85819e-06
4.12841e-06
3.39894e-06
2.68781e-06
2.00913e-06
1.36814e-06
7.57936e-07
5.4524e-09
2.08141e-11
2.07147e-11
5.42711e-09
7.54759e-07
1.36287e-06
2.00211e-06
2.67942e-06
3.38961e-06
4.11855e-06
4.8482e-06
5.56003e-06
6.23765e-06
6.8659e-06
7.42966e-06
7.91396e-06
8.30539e-06
8.59309e-06
8.76921e-06
8.82901e-06
8.77089e-06
8.59642e-06
8.31027e-06
7.92025e-06
7.43718e-06
6.87443e-06
6.24694e-06
5.56982e-06
4.85819e-06
4.12841e-06
3.39894e-06
2.68781e-06
2.00913e-06
1.36814e-06
7.57936e-07
5.4524e-09
2.08141e-11
2.07147e-11
5.42711e-09
7.54759e-07
1.36287e-06
2.00211e-06
2.67942e-06
3.38961e-06
4.11855e-06
4.8482e-06
5.56003e-06
6.23765e-06
6.8659e-06
7.42966e-06
7.91396e-06
8.30539e-06
8.59309e-06
8.76921e-06
8.82901e-06
8.77089e-06
8.59642e-06
8.31027e-06
7.92025e-06
7.43718e-06
6.87443e-06
6.24694e-06
5.56982e-06
4.85819e-06
4.12841e-06
3.39893e-06
2.68781e-06
2.00913e-06
1.36814e-06
7.57936e-07
5.4524e-09
2.08141e-11
2.07147e-11
5.42711e-09
7.54759e-07
1.36287e-06
2.00211e-06
2.67942e-06
3.38961e-06
4.11855e-06
4.8482e-06
5.56003e-06
6.23765e-06
6.8659e-06
7.42966e-06
7.91396e-06
8.30539e-06
8.59309e-06
8.76921e-06
8.82901e-06
8.77089e-06
8.59642e-06
8.31027e-06
7.92025e-06
7.43718e-06
6.87443e-06
6.24694e-06
5.56982e-06
4.85819e-06
4.12841e-06
3.39894e-06
2.68781e-06
2.00913e-06
1.36814e-06
7.57936e-07
5.4524e-09
2.08141e-11
2.07147e-11
5.42711e-09
7.54759e-07
1.36287e-06
2.00211e-06
2.67942e-06
3.38961e-06
4.11855e-06
4.8482e-06
5.56003e-06
6.23765e-06
6.8659e-06
7.42966e-06
7.91396e-06
8.30539e-06
8.59309e-06
8.76921e-06
8.82901e-06
8.77089e-06
8.59642e-06
8.31027e-06
7.92025e-06
7.43718e-06
6.87443e-06
6.24694e-06
5.56982e-06
4.85819e-06
4.12841e-06
3.39894e-06
2.68781e-06
2.00913e-06
1.36814e-06
7.57936e-07
5.4524e-09
2.08141e-11
2.07147e-11
5.42711e-09
7.54759e-07
1.36287e-06
2.00211e-06
2.67942e-06
3.38961e-06
4.11855e-06
4.8482e-06
5.56003e-06
6.23765e-06
6.8659e-06
7.42966e-06
7.91396e-06
8.30539e-06
8.59309e-06
8.76921e-06
8.82901e-06
8.77089e-06
8.59642e-06
8.31027e-06
7.92025e-06
7.43718e-06
6.87443e-06
6.24694e-06
5.56982e-06
4.85819e-06
4.12841e-06
3.39893e-06
2.68781e-06
2.00913e-06
1.36814e-06
7.57936e-07
5.4524e-09
2.08141e-11
2.07147e-11
5.42711e-09
7.54759e-07
1.36287e-06
2.00211e-06
2.67942e-06
3.38961e-06
4.11855e-06
4.8482e-06
5.56003e-06
6.23765e-06
6.8659e-06
7.42966e-06
7.91396e-06
8.30539e-06
8.59309e-06
8.76921e-06
8.82901e-06
8.77089e-06
8.59642e-06
8.31027e-06
7.92025e-06
7.43718e-06
6.87443e-06
6.24694e-06
5.56982e-06
4.85819e-06
4.12841e-06
3.39894e-06
2.68781e-06
2.00913e-06
1.36814e-06
7.57936e-07
5.4524e-09
2.08141e-11
2.07147e-11
5.42711e-09
7.54759e-07
1.36287e-06
2.00211e-06
2.67942e-06
3.38961e-06
4.11855e-06
4.8482e-06
5.56003e-06
6.23765e-06
6.8659e-06
7.42966e-06
7.91396e-06
8.30539e-06
8.59309e-06
8.76921e-06
8.82901e-06
8.77089e-06
8.59642e-06
8.31027e-06
7.92025e-06
7.43718e-06
6.87443e-06
6.24694e-06
5.56982e-06
4.85819e-06
4.12841e-06
3.39894e-06
2.68781e-06
2.00913e-06
1.36814e-06
7.57936e-07
5.4524e-09
2.08141e-11
2.07147e-11
5.42711e-09
7.54759e-07
1.36287e-06
2.00211e-06
2.67942e-06
3.38961e-06
4.11855e-06
4.8482e-06
5.56003e-06
6.23765e-06
6.8659e-06
7.42966e-06
7.91396e-06
8.30539e-06
8.59309e-06
8.76921e-06
8.82901e-06
8.77089e-06
8.59642e-06
8.31027e-06
7.92025e-06
7.43718e-06
6.87443e-06
6.24694e-06
5.56982e-06
4.85819e-06
4.12841e-06
3.39893e-06
2.68781e-06
2.00913e-06
1.36814e-06
7.57936e-07
5.4524e-09
2.08141e-11
2.07147e-11
5.42711e-09
7.54759e-07
1.36287e-06
2.00211e-06
2.67942e-06
3.38961e-06
4.11855e-06
4.8482e-06
5.56003e-06
6.23765e-06
6.8659e-06
7.42966e-06
7.91396e-06
8.30539e-06
8.59309e-06
8.76921e-06
8.82901e-06
8.77089e-06
8.59642e-06
8.31027e-06
7.92025e-06
7.43718e-06
6.87443e-06
6.24694e-06
5.56982e-06
4.85819e-06
4.12841e-06
3.39894e-06
2.68781e-06
2.00913e-06
1.36814e-06
7.57936e-07
5.4524e-09
2.08141e-11
2.07147e-11
5.42711e-09
7.54759e-07
1.36287e-06
2.00211e-06
2.67942e-06
3.38961e-06
4.11855e-06
4.8482e-06
5.56003e-06
6.23765e-06
6.8659e-06
7.42966e-06
7.91396e-06
8.30539e-06
8.59309e-06
8.76921e-06
8.82901e-06
8.77089e-06
8.59642e-06
8.31027e-06
7.92025e-06
7.43718e-06
6.87443e-06
6.24694e-06
5.56982e-06
4.85819e-06
4.12841e-06
3.39894e-06
2.68781e-06
2.00913e-06
1.36814e-06
7.57936e-07
5.4524e-09
2.08141e-11
2.07147e-11
5.42711e-09
7.54759e-07
1.36287e-06
2.00211e-06
2.67942e-06
3.38961e-06
4.11855e-06
4.8482e-06
5.56003e-06
6.23765e-06
6.8659e-06
7.42966e-06
7.91396e-06
8.30539e-06
8.59309e-06
8.76921e-06
8.82901e-06
8.77089e-06
8.59642e-06
8.31027e-06
7.92025e-06
7.43718e-06
6.87443e-06
6.24694e-06
5.56982e-06
4.85819e-06
4.12841e-06
3.39893e-06
2.68781e-06
2.00913e-06
1.36814e-06
7.57936e-07
5.4524e-09
2.08141e-11
2.07147e-11
5.42711e-09
7.54759e-07
1.36287e-06
2.00211e-06
2.67942e-06
3.38961e-06
4.11855e-06
4.8482e-06
5.56003e-06
6.23765e-06
6.8659e-06
7.42966e-06
7.91396e-06
8.30539e-06
8.59309e-06
8.76921e-06
8.82901e-06
8.77089e-06
8.59642e-06
8.31027e-06
7.92025e-06
7.43718e-06
6.87443e-06
6.24694e-06
5.56982e-06
4.85819e-06
4.12841e-06
3.39894e-06
2.68781e-06
2.00913e-06
1.36814e-06
7.57936e-07
5.4524e-09
2.08141e-11
2.07147e-11
5.42711e-09
7.54759e-07
1.36287e-06
2.00211e-06
2.67942e-06
3.38961e-06
4.11855e-06
4.8482e-06
5.56003e-06
6.23765e-06
6.8659e-06
7.42966e-06
7.91396e-06
8.30539e-06
8.59309e-06
8.76921e-06
8.82901e-06
8.77089e-06
8.59642e-06
8.31027e-06
7.92025e-06
7.43718e-06
6.87443e-06
6.24694e-06
5.56982e-06
4.85819e-06
4.12841e-06
3.39894e-06
2.68781e-06
2.00913e-06
1.36814e-06
7.57936e-07
5.4524e-09
2.08141e-11
2.07147e-11
5.42711e-09
7.54759e-07
1.36287e-06
2.00211e-06
2.67942e-06
3.38961e-06
4.11855e-06
4.8482e-06
5.56003e-06
6.23765e-06
6.8659e-06
7.42966e-06
7.91396e-06
8.30539e-06
8.59309e-06
8.76921e-06
8.82901e-06
8.77089e-06
8.59642e-06
8.31027e-06
7.92025e-06
7.43718e-06
6.87443e-06
6.24694e-06
5.56982e-06
4.85819e-06
4.12841e-06
3.39893e-06
2.68781e-06
2.00913e-06
1.36814e-06
7.57936e-07
5.4524e-09
2.08141e-11
2.07147e-11
5.42711e-09
7.54759e-07
1.36287e-06
2.00211e-06
2.67942e-06
3.38961e-06
4.11855e-06
4.8482e-06
5.56003e-06
6.23765e-06
6.8659e-06
7.42966e-06
7.91396e-06
8.30539e-06
8.59309e-06
8.76921e-06
8.82901e-06
8.77089e-06
8.59642e-06
8.31027e-06
7.92025e-06
7.43718e-06
6.87443e-06
6.24694e-06
5.56982e-06
4.85819e-06
4.12841e-06
3.39894e-06
2.68781e-06
2.00913e-06
1.36814e-06
7.57936e-07
5.4524e-09
2.08141e-11
2.07147e-11
5.42711e-09
7.54759e-07
1.36287e-06
2.00211e-06
2.67942e-06
3.38961e-06
4.11855e-06
4.8482e-06
5.56003e-06
6.23765e-06
6.8659e-06
7.42966e-06
7.91396e-06
8.30539e-06
8.59309e-06
8.76921e-06
8.82901e-06
8.77089e-06
8.59642e-06
8.31027e-06
7.92025e-06
7.43718e-06
6.87443e-06
6.24694e-06
5.56982e-06
4.85819e-06
4.12841e-06
3.39894e-06
2.68781e-06
2.00913e-06
1.36814e-06
7.57936e-07
5.4524e-09
2.08141e-11
2.07147e-11
5.42711e-09
7.54759e-07
1.36287e-06
2.00211e-06
2.67942e-06
3.38961e-06
4.11855e-06
4.8482e-06
5.56003e-06
6.23765e-06
6.8659e-06
7.42966e-06
7.91396e-06
8.30539e-06
8.59309e-06
8.76921e-06
8.82901e-06
8.77089e-06
8.59642e-06
8.31027e-06
7.92025e-06
7.43718e-06
6.87443e-06
6.24694e-06
5.56982e-06
4.85819e-06
4.12841e-06
3.39893e-06
2.68781e-06
2.00913e-06
1.36814e-06
7.57936e-07
5.4524e-09
2.08141e-11
2.07147e-11
5.42711e-09
7.54759e-07
1.36287e-06
2.00211e-06
2.67942e-06
3.38961e-06
4.11855e-06
4.8482e-06
5.56003e-06
6.23765e-06
6.8659e-06
7.42966e-06
7.91396e-06
8.30539e-06
8.59309e-06
8.76921e-06
8.82901e-06
8.77089e-06
8.59642e-06
8.31027e-06
7.92025e-06
7.43718e-06
6.87443e-06
6.24694e-06
5.56982e-06
4.85819e-06
4.12841e-06
3.39894e-06
2.68781e-06
2.00913e-06
1.36814e-06
7.57936e-07
5.4524e-09
2.08141e-11
2.07147e-11
5.42711e-09
7.54759e-07
1.36287e-06
2.00211e-06
2.67942e-06
3.38961e-06
4.11855e-06
4.8482e-06
5.56003e-06
6.23765e-06
6.8659e-06
7.42966e-06
7.91396e-06
8.30539e-06
8.59309e-06
8.76921e-06
8.82901e-06
8.77089e-06
8.59642e-06
8.31027e-06
7.92025e-06
7.43718e-06
6.87443e-06
6.24694e-06
5.56982e-06
4.85819e-06
4.12841e-06
3.39894e-06
2.68781e-06
2.00913e-06
1.36814e-06
7.57936e-07
5.4524e-09
2.08141e-11
2.07147e-11
5.42711e-09
7.54759e-07
1.36287e-06
2.00211e-06
2.67942e-06
3.38961e-06
4.11855e-06
4.8482e-06
5.56003e-06
6.23765e-06
6.8659e-06
7.42966e-06
7.91396e-06
8.30539e-06
8.59309e-06
8.76921e-06
8.82901e-06
8.77089e-06
8.59642e-06
8.31027e-06
7.92025e-06
7.43718e-06
6.87443e-06
6.24694e-06
5.56982e-06
4.85819e-06
4.12841e-06
3.39893e-06
2.68781e-06
2.00913e-06
1.36814e-06
7.57936e-07
5.4524e-09
2.08141e-11
2.07147e-11
5.42711e-09
7.54759e-07
1.36287e-06
2.00211e-06
2.67942e-06
3.38961e-06
4.11855e-06
4.8482e-06
5.56003e-06
6.23765e-06
6.8659e-06
7.42966e-06
7.91396e-06
8.30539e-06
8.59309e-06
8.76921e-06
8.82901e-06
8.77089e-06
8.59642e-06
8.31027e-06
7.92025e-06
7.43718e-06
6.87443e-06
6.24694e-06
5.56982e-06
4.85819e-06
4.12841e-06
3.39894e-06
2.68781e-06
2.00913e-06
1.36814e-06
7.57936e-07
5.4524e-09
2.08141e-11
2.07147e-11
5.42711e-09
7.54759e-07
1.36287e-06
2.00211e-06
2.67942e-06
3.38961e-06
4.11855e-06
4.8482e-06
5.56003e-06
6.23765e-06
6.8659e-06
7.42966e-06
7.91396e-06
8.30539e-06
8.59309e-06
8.76921e-06
8.82901e-06
8.77089e-06
8.59642e-06
8.31027e-06
7.92025e-06
7.43718e-06
6.87443e-06
6.24694e-06
5.56982e-06
4.85819e-06
4.12841e-06
3.39894e-06
2.68781e-06
2.00913e-06
1.36814e-06
7.57936e-07
5.4524e-09
2.08141e-11
2.07147e-11
5.42711e-09
7.54759e-07
1.36287e-06
2.00211e-06
2.67942e-06
3.38961e-06
4.11855e-06
4.8482e-06
5.56003e-06
6.23765e-06
6.8659e-06
7.42966e-06
7.91396e-06
8.30539e-06
8.59309e-06
8.76921e-06
8.82901e-06
8.77089e-06
8.59642e-06
8.31027e-06
7.92025e-06
7.43718e-06
6.87443e-06
6.24694e-06
5.56982e-06
4.85819e-06
4.12841e-06
3.39893e-06
2.68781e-06
2.00913e-06
1.36814e-06
7.57936e-07
5.4524e-09
2.08141e-11
2.07147e-11
5.42711e-09
7.54759e-07
1.36287e-06
2.00211e-06
2.67942e-06
3.38961e-06
4.11855e-06
4.8482e-06
5.56003e-06
6.23765e-06
6.8659e-06
7.42966e-06
7.91396e-06
8.30539e-06
8.59309e-06
8.76921e-06
8.82901e-06
8.77089e-06
8.59642e-06
8.31027e-06
7.92025e-06
7.43718e-06
6.87443e-06
6.24694e-06
5.56982e-06
4.85819e-06
4.12841e-06
3.39894e-06
2.68781e-06
2.00913e-06
1.36814e-06
7.57936e-07
5.4524e-09
2.08141e-11
2.07147e-11
5.42711e-09
7.54759e-07
1.36287e-06
2.00211e-06
2.67942e-06
3.38961e-06
4.11855e-06
4.8482e-06
5.56003e-06
6.23765e-06
6.8659e-06
7.42966e-06
7.91396e-06
8.30539e-06
8.59309e-06
8.76921e-06
8.82901e-06
8.77089e-06
8.59642e-06
8.31027e-06
7.92025e-06
7.43718e-06
6.87443e-06
6.24694e-06
5.56982e-06
4.85819e-06
4.12841e-06
3.39894e-06
2.68781e-06
2.00913e-06
1.36814e-06
7.57936e-07
5.4524e-09
2.08141e-11
2.07147e-11
5.42711e-09
7.54759e-07
1.36287e-06
2.00211e-06
2.67942e-06
3.38961e-06
4.11855e-06
4.8482e-06
5.56003e-06
6.23765e-06
6.8659e-06
7.42966e-06
7.91396e-06
8.30539e-06
8.59309e-06
8.76921e-06
8.82901e-06
8.77089e-06
8.59642e-06
8.31027e-06
7.92025e-06
7.43718e-06
6.87443e-06
6.24694e-06
5.56982e-06
4.85819e-06
4.12841e-06
3.39893e-06
2.68781e-06
2.00913e-06
1.36814e-06
7.57936e-07
5.4524e-09
2.08141e-11
2.07147e-11
5.42711e-09
7.54759e-07
1.36287e-06
2.00211e-06
2.67942e-06
3.38961e-06
4.11855e-06
4.8482e-06
5.56003e-06
6.23765e-06
6.8659e-06
7.42966e-06
7.91396e-06
8.30539e-06
8.59309e-06
8.76921e-06
8.82901e-06
8.77089e-06
8.59642e-06
8.31027e-06
7.92025e-06
7.43718e-06
6.87443e-06
6.24694e-06
5.56982e-06
4.85819e-06
4.12841e-06
3.39894e-06
2.68781e-06
2.00913e-06
1.36814e-06
7.57936e-07
5.4524e-09
2.08141e-11
2.07147e-11
5.42711e-09
7.54759e-07
1.36287e-06
2.00211e-06
2.67942e-06
3.38961e-06
4.11855e-06
4.8482e-06
5.56003e-06
6.23765e-06
6.8659e-06
7.42966e-06
7.91396e-06
8.30539e-06
8.59309e-06
8.76921e-06
8.82901e-06
8.77089e-06
8.59642e-06
8.31027e-06
7.92025e-06
7.43718e-06
6.87443e-06
6.24694e-06
5.56982e-06
4.85819e-06
4.12841e-06
3.39894e-06
2.68781e-06
2.00913e-06
1.36814e-06
7.57936e-07
5.4524e-09
2.08141e-11
2.07147e-11
5.42711e-09
7.54759e-07
1.36287e-06
2.00211e-06
2.67942e-06
3.38961e-06
4.11855e-06
4.8482e-06
5.56003e-06
6.23765e-06
6.8659e-06
7.42966e-06
7.91396e-06
8.30539e-06
8.59309e-06
8.76921e-06
8.82901e-06
8.77089e-06
8.59642e-06
8.31027e-06
7.92025e-06
7.43718e-06
6.87443e-06
6.24694e-06
5.56982e-06
4.85819e-06
4.12841e-06
3.39893e-06
2.68781e-06
2.00913e-06
1.36814e-06
7.57936e-07
5.4524e-09
2.08141e-11
2.07147e-11
5.42711e-09
7.54759e-07
1.36287e-06
2.00211e-06
2.67942e-06
3.38961e-06
4.11855e-06
4.8482e-06
5.56003e-06
6.23765e-06
6.8659e-06
7.42966e-06
7.91396e-06
8.30539e-06
8.59309e-06
8.76921e-06
8.82901e-06
8.77089e-06
8.59642e-06
8.31027e-06
7.92025e-06
7.43718e-06
6.87443e-06
6.24694e-06
5.56982e-06
4.85819e-06
4.12841e-06
3.39894e-06
2.68781e-06
2.00913e-06
1.36814e-06
7.57936e-07
5.4524e-09
2.08141e-11
2.07147e-11
5.42711e-09
7.54759e-07
1.36287e-06
2.00211e-06
2.67942e-06
3.38961e-06
4.11855e-06
4.8482e-06
5.56003e-06
6.23765e-06
6.8659e-06
7.42966e-06
7.91396e-06
8.30539e-06
8.59309e-06
8.76921e-06
8.82901e-06
8.77089e-06
8.59642e-06
8.31027e-06
7.92025e-06
7.43718e-06
6.87443e-06
6.24694e-06
5.56982e-06
4.85819e-06
4.12841e-06
3.39894e-06
2.68781e-06
2.00913e-06
1.36814e-06
7.57936e-07
5.4524e-09
2.08141e-11
2.07147e-11
5.42711e-09
7.54759e-07
1.36287e-06
2.00211e-06
2.67942e-06
3.38961e-06
4.11855e-06
4.8482e-06
5.56003e-06
6.23765e-06
6.8659e-06
7.42966e-06
7.91396e-06
8.30539e-06
8.59309e-06
8.76921e-06
8.82901e-06
8.77089e-06
8.59642e-06
8.31027e-06
7.92025e-06
7.43718e-06
6.87443e-06
6.24694e-06
5.56982e-06
4.85819e-06
4.12841e-06
3.39893e-06
2.68781e-06
2.00913e-06
1.36814e-06
7.57936e-07
5.4524e-09
2.08141e-11
2.07147e-11
5.42711e-09
7.54759e-07
1.36287e-06
2.00211e-06
2.67942e-06
3.38961e-06
4.11855e-06
4.8482e-06
5.56003e-06
6.23765e-06
6.8659e-06
7.42966e-06
7.91396e-06
8.30539e-06
8.59309e-06
8.76921e-06
8.82901e-06
8.77089e-06
8.59642e-06
8.31027e-06
7.92025e-06
7.43718e-06
6.87443e-06
6.24694e-06
5.56982e-06
4.85819e-06
4.12841e-06
3.39894e-06
2.68781e-06
2.00913e-06
1.36814e-06
7.57936e-07
5.4524e-09
2.08141e-11
2.07147e-11
5.42711e-09
7.54759e-07
1.36287e-06
2.00211e-06
2.67942e-06
3.38961e-06
4.11855e-06
4.8482e-06
5.56003e-06
6.23765e-06
6.8659e-06
7.42966e-06
7.91396e-06
8.30539e-06
8.59309e-06
8.76921e-06
8.82901e-06
8.77089e-06
8.59642e-06
8.31027e-06
7.92025e-06
7.43718e-06
6.87443e-06
6.24694e-06
5.56982e-06
4.85819e-06
4.12841e-06
3.39894e-06
2.68781e-06
2.00913e-06
1.36814e-06
7.57936e-07
5.4524e-09
2.08141e-11
2.07147e-11
5.42711e-09
7.54759e-07
1.36287e-06
2.00211e-06
2.67942e-06
3.38961e-06
4.11855e-06
4.8482e-06
5.56003e-06
6.23765e-06
6.8659e-06
7.42966e-06
7.91396e-06
8.30539e-06
8.59309e-06
8.76921e-06
8.82901e-06
8.77089e-06
8.59642e-06
8.31027e-06
7.92025e-06
7.43718e-06
6.87443e-06
6.24694e-06
5.56982e-06
4.85819e-06
4.12841e-06
3.39893e-06
2.68781e-06
2.00913e-06
1.36814e-06
7.57936e-07
5.4524e-09
2.08141e-11
2.07147e-11
5.42711e-09
7.54759e-07
1.36287e-06
2.00211e-06
2.67942e-06
3.38961e-06
4.11855e-06
4.8482e-06
5.56003e-06
6.23765e-06
6.8659e-06
7.42966e-06
7.91396e-06
8.30539e-06
8.59309e-06
8.76921e-06
8.82901e-06
8.77089e-06
8.59642e-06
8.31027e-06
7.92025e-06
7.43718e-06
6.87443e-06
6.24694e-06
5.56982e-06
4.85819e-06
4.12841e-06
3.39894e-06
2.68781e-06
2.00913e-06
1.36814e-06
7.57936e-07
5.4524e-09
2.08141e-11
2.07147e-11
5.42711e-09
7.54759e-07
1.36287e-06
2.00211e-06
2.67942e-06
3.38961e-06
4.11855e-06
4.8482e-06
5.56003e-06
6.23765e-06
6.8659e-06
7.42966e-06
7.91396e-06
8.30539e-06
8.59309e-06
8.76921e-06
8.82901e-06
8.77089e-06
8.59642e-06
8.31027e-06
7.92025e-06
7.43718e-06
6.87443e-06
6.24694e-06
5.56982e-06
4.85819e-06
4.12841e-06
3.39894e-06
2.68781e-06
2.00913e-06
1.36814e-06
7.57936e-07
5.4524e-09
2.08141e-11
2.07147e-11
5.42711e-09
7.54759e-07
1.36287e-06
2.00211e-06
2.67942e-06
3.38961e-06
4.11855e-06
4.8482e-06
5.56003e-06
6.23765e-06
6.8659e-06
7.42966e-06
7.91396e-06
8.30539e-06
8.59309e-06
8.76921e-06
8.82901e-06
8.77089e-06
8.59642e-06
8.31027e-06
7.92025e-06
7.43718e-06
6.87443e-06
6.24694e-06
5.56982e-06
4.85819e-06
4.12841e-06
3.39893e-06
2.68781e-06
2.00913e-06
1.36814e-06
7.57936e-07
5.4524e-09
2.08141e-11
2.07147e-11
5.42711e-09
7.54759e-07
1.36287e-06
2.00211e-06
2.67942e-06
3.38961e-06
4.11855e-06
4.8482e-06
5.56003e-06
6.23765e-06
6.8659e-06
7.42966e-06
7.91396e-06
8.30539e-06
8.59309e-06
8.76921e-06
8.82901e-06
8.77089e-06
8.59642e-06
8.31027e-06
7.92025e-06
7.43718e-06
6.87443e-06
6.24694e-06
5.56982e-06
4.85819e-06
4.12841e-06
3.39894e-06
2.68781e-06
2.00913e-06
1.36814e-06
7.57936e-07
5.4524e-09
2.08141e-11
2.07147e-11
5.42711e-09
7.54759e-07
1.36287e-06
2.00211e-06
2.67942e-06
3.38961e-06
4.11855e-06
4.8482e-06
5.56003e-06
6.23765e-06
6.8659e-06
7.42966e-06
7.91396e-06
8.30539e-06
8.59309e-06
8.76921e-06
8.82901e-06
8.77089e-06
8.59642e-06
8.31027e-06
7.92025e-06
7.43718e-06
6.87443e-06
6.24694e-06
5.56982e-06
4.85819e-06
4.12841e-06
3.39894e-06
2.68781e-06
2.00913e-06
1.36814e-06
7.57936e-07
5.4524e-09
2.08141e-11
2.07147e-11
5.42711e-09
7.54759e-07
1.36287e-06
2.00211e-06
2.67942e-06
3.38961e-06
4.11855e-06
4.8482e-06
5.56003e-06
6.23765e-06
6.8659e-06
7.42966e-06
7.91396e-06
8.30539e-06
8.59309e-06
8.76921e-06
8.82901e-06
8.77089e-06
8.59642e-06
8.31027e-06
7.92025e-06
7.43718e-06
6.87443e-06
6.24694e-06
5.56982e-06
4.85819e-06
4.12841e-06
3.39893e-06
2.68781e-06
2.00913e-06
1.36814e-06
7.57936e-07
5.4524e-09
2.08141e-11
2.07147e-11
5.42711e-09
7.54759e-07
1.36287e-06
2.00211e-06
2.67942e-06
3.38961e-06
4.11855e-06
4.8482e-06
5.56003e-06
6.23765e-06
6.8659e-06
7.42966e-06
7.91396e-06
8.30539e-06
8.59309e-06
8.76921e-06
8.82901e-06
8.77089e-06
8.59642e-06
8.31027e-06
7.92025e-06
7.43718e-06
6.87443e-06
6.24694e-06
5.56982e-06
4.85819e-06
4.12841e-06
3.39894e-06
2.68781e-06
2.00913e-06
1.36814e-06
7.57936e-07
5.4524e-09
2.08141e-11
2.07147e-11
5.42711e-09
7.54759e-07
1.36287e-06
2.00211e-06
2.67942e-06
3.38961e-06
4.11855e-06
4.8482e-06
5.56003e-06
6.23765e-06
6.8659e-06
7.42966e-06
7.91396e-06
8.30539e-06
8.59309e-06
8.76921e-06
8.82901e-06
8.77089e-06
8.59642e-06
8.31027e-06
7.92025e-06
7.43718e-06
6.87443e-06
6.24694e-06
5.56982e-06
4.85819e-06
4.12841e-06
3.39894e-06
2.68781e-06
2.00913e-06
1.36814e-06
7.57936e-07
5.4524e-09
2.08141e-11
2.07147e-11
5.42711e-09
7.54759e-07
1.36287e-06
2.00211e-06
2.67942e-06
3.38961e-06
4.11855e-06
4.8482e-06
5.56003e-06
6.23765e-06
6.8659e-06
7.42966e-06
7.91396e-06
8.30539e-06
8.59309e-06
8.76921e-06
8.82901e-06
8.77089e-06
8.59642e-06
8.31027e-06
7.92025e-06
7.43718e-06
6.87443e-06
6.24694e-06
5.56982e-06
4.85819e-06
4.12841e-06
3.39894e-06
2.68781e-06
2.00913e-06
1.36814e-06
7.57936e-07
5.4524e-09
2.08141e-11
2.07147e-11
5.42711e-09
7.54759e-07
1.36287e-06
2.00211e-06
2.67942e-06
3.38961e-06
4.11855e-06
4.8482e-06
5.56003e-06
6.23765e-06
6.8659e-06
7.42966e-06
7.91396e-06
8.30539e-06
8.59309e-06
8.76921e-06
8.82901e-06
8.77089e-06
8.59642e-06
8.31027e-06
7.92025e-06
7.43718e-06
6.87443e-06
6.24694e-06
5.56982e-06
4.85819e-06
4.12841e-06
3.39894e-06
2.68781e-06
2.00913e-06
1.36814e-06
7.57936e-07
5.4524e-09
2.08141e-11
2.07147e-11
5.42711e-09
7.54759e-07
1.36287e-06
2.00211e-06
2.67942e-06
3.38961e-06
4.11855e-06
4.8482e-06
5.56003e-06
6.23765e-06
6.8659e-06
7.42966e-06
7.91396e-06
8.30539e-06
8.59309e-06
8.76921e-06
8.82901e-06
8.77089e-06
8.59642e-06
8.31027e-06
7.92025e-06
7.43718e-06
6.87443e-06
6.24694e-06
5.56982e-06
4.85819e-06
4.12841e-06
3.39894e-06
2.68781e-06
2.00913e-06
1.36814e-06
7.57936e-07
5.4524e-09
2.08141e-11
2.07147e-11
5.42711e-09
7.54759e-07
1.36287e-06
2.00211e-06
2.67942e-06
3.38961e-06
4.11855e-06
4.8482e-06
5.56003e-06
6.23765e-06
6.8659e-06
7.42966e-06