/*--------------------------------*- C++ -*----------------------------------*\
  =========                 |
  \\      /  F ield         | OpenFOAM: The Open Source CFD Toolbox
   \\    /   O peration     | Website:  https://openfoam.org
    \\  /    A nd           | Version:  13
     \\/     M anipulation  |
\*---------------------------------------------------------------------------*/
FoamFile
{
    format      ascii;
    class       volScalarField;
    location    "26";
    object      k;
}
// * * * * * * * * * * * * * * * * * * * * * * * * * * * * * * * * * * * * * //

dimensions      [0 2 -2 0 0 0 0];

internalField   nonuniform List<scalar> 
78750
(
4.15625e-15
1.18084e-13
5.34802e-13
9.70199e-13
1.4293e-12
1.91552e-12
2.42917e-12
2.96663e-12
3.52029e-12
4.07898e-12
4.62867e-12
5.15341e-12
5.63634e-12
6.06083e-12
6.41148e-12
6.67509e-12
6.84146e-12
6.90405e-12
6.86032e-12
6.71196e-12
6.4647e-12
6.12804e-12
5.71463e-12
5.23949e-12
4.7191e-12
4.17032e-12
3.60929e-12
3.05042e-12
2.5053e-12
1.98197e-12
1.4844e-12
1.01229e-12
5.61509e-13
1.25022e-13
4.41989e-15
9.0273e-14
2.60515e-12
1.29881e-11
2.37326e-11
3.50504e-11
4.70685e-11
5.98116e-11
7.31947e-11
8.70263e-11
1.01021e-10
1.14819e-10
1.2801e-10
1.40162e-10
1.50849e-10
1.59673e-10
1.66298e-10
1.70462e-10
1.71997e-10
1.70841e-10
1.67039e-10
1.60741e-10
1.52194e-10
1.41723e-10
1.29718e-10
1.16601e-10
1.02807e-10
8.87478e-11
7.47923e-11
6.12351e-11
4.82781e-11
3.60155e-11
2.44288e-11
1.33924e-11
2.69072e-12
9.32975e-14
2.52356e-13
7.28413e-12
3.63891e-11
6.68833e-11
9.96399e-11
1.35241e-10
1.73908e-10
2.15463e-10
2.59326e-10
3.04543e-10
3.49855e-10
3.93774e-10
4.34697e-10
4.71005e-10
5.01182e-10
5.2392e-10
5.38205e-10
5.43386e-10
5.39224e-10
5.25907e-10
5.04035e-10
4.74578e-10
4.38817e-10
3.98247e-10
3.54478e-10
3.09124e-10
2.63688e-10
2.19456e-10
1.77413e-10
1.38172e-10
1.0194e-10
6.85145e-11
3.73214e-11
7.4795e-12
2.59241e-13
4.86575e-13
1.40442e-11
7.02079e-11
1.29324e-10
1.93285e-10
2.63394e-10
3.40213e-10
4.23473e-10
5.12056e-10
6.04039e-10
6.96815e-10
7.8726e-10
8.71947e-10
9.47385e-10
1.01027e-09
1.05773e-09
1.08753e-09
1.09823e-09
1.08931e-09
1.06121e-09
1.01526e-09
9.53623e-10
8.79121e-10
7.95023e-10
7.04812e-10
6.11929e-10
5.19534e-10
4.30284e-10
3.46158e-10
2.68335e-10
1.97136e-10
1.32035e-10
7.17471e-11
1.43656e-11
4.97891e-13
7.53787e-13
2.17549e-11
1.0877e-10
2.00482e-10
2.99926e-10
4.09201e-10
5.29243e-10
6.5967e-10
7.9875e-10
9.43467e-10
1.0897e-09
1.23249e-09
1.36637e-09
1.48575e-09
1.58534e-09
1.66051e-09
1.70766e-09
1.72449e-09
1.71016e-09
1.66537e-09
1.59231e-09
1.49446e-09
1.37637e-09
1.2433e-09
1.10083e-09
9.54435e-10
8.0913e-10
6.69106e-10
5.37459e-10
4.1601e-10
3.05214e-10
2.04192e-10
1.10867e-10
2.2192e-11
7.69176e-13
1.01494e-12
2.92907e-11
1.46451e-10
2.69982e-10
4.04009e-10
5.51395e-10
7.13423e-10
8.89592e-10
1.07756e-09
1.27326e-09
1.4711e-09
1.66436e-09
1.84561e-09
2.00727e-09
2.14213e-09
2.24389e-09
2.30767e-09
2.33033e-09
2.31075e-09
2.24987e-09
2.15069e-09
2.01798e-09
1.85791e-09
1.67766e-09
1.48478e-09
1.28674e-09
1.09031e-09
9.01165e-10
7.23487e-10
5.59719e-10
4.10457e-10
2.74492e-10
1.48993e-10
2.982e-11
1.03357e-12
1.24176e-12
3.58377e-11
1.79192e-10
3.30355e-10
4.94396e-10
6.74835e-10
8.73247e-10
1.08902e-09
1.3193e-09
1.55909e-09
1.80153e-09
2.03837e-09
2.26051e-09
2.45863e-09
2.62389e-09
2.74857e-09
2.82666e-09
2.85431e-09
2.83015e-09
2.75536e-09
2.63363e-09
2.4708e-09
2.27449e-09
2.05348e-09
1.81707e-09
1.57439e-09
1.33377e-09
1.10215e-09
8.84648e-10
6.8425e-10
5.01676e-10
3.35434e-10
1.82046e-10
3.64319e-11
1.26268e-12
1.41928e-12
4.09643e-11
2.04836e-10
3.77642e-10
5.65186e-10
7.715e-10
9.98393e-10
1.24517e-09
1.50855e-09
1.78282e-09
2.06014e-09
2.33106e-09
2.58517e-09
2.81179e-09
3.0008e-09
3.14337e-09
3.23262e-09
3.26415e-09
3.23638e-09
3.15069e-09
3.01129e-09
2.8249e-09
2.60023e-09
2.34734e-09
2.07688e-09
1.7993e-09
1.52412e-09
1.25929e-09
1.01065e-09
7.81609e-10
5.72989e-10
3.83075e-10
2.07884e-10
4.15984e-11
1.44161e-12
1.5453e-12
4.46062e-11
2.23063e-10
4.11251e-10
6.15501e-10
8.40208e-10
1.08735e-09
1.35615e-09
1.64307e-09
1.94185e-09
2.24397e-09
2.53911e-09
2.81594e-09
3.06281e-09
3.2687e-09
3.42398e-09
3.52114e-09
3.5554e-09
3.52506e-09
3.4316e-09
3.27962e-09
3.07646e-09
2.83161e-09
2.55606e-09
2.26139e-09
1.959e-09
1.65927e-09
1.37084e-09
1.10008e-09
8.50702e-10
6.23591e-10
4.16876e-10
2.26212e-10
4.52614e-11
1.56837e-12
1.62689e-12
4.69659e-11
2.34879e-10
4.33041e-10
6.48124e-10
8.8476e-10
1.14503e-09
1.42813e-09
1.73031e-09
2.045e-09
2.3632e-09
2.67406e-09
2.96562e-09
3.22564e-09
3.44247e-09
3.60598e-09
3.70827e-09
3.7443e-09
3.71226e-09
3.61375e-09
3.4536e-09
3.23954e-09
2.9816e-09
2.69133e-09
2.38096e-09
2.06248e-09
1.74682e-09
1.44309e-09
1.15799e-09
8.95437e-10
6.56349e-10
4.38753e-10
2.38073e-10
4.76303e-11
1.65028e-12
1.67531e-12
4.8368e-11
2.41904e-10
4.45998e-10
6.67523e-10
9.11253e-10
1.17933e-09
1.47094e-09
1.7822e-09
2.10635e-09
2.43412e-09
2.75434e-09
3.05467e-09
3.3225e-09
3.54585e-09
3.71426e-09
3.81959e-09
3.85666e-09
3.82362e-09
3.72209e-09
3.55707e-09
3.33652e-09
3.07078e-09
2.77175e-09
2.45203e-09
2.12397e-09
1.79884e-09
1.48601e-09
1.19239e-09
9.22004e-10
6.75799e-10
4.51741e-10
2.45114e-10
4.90355e-11
1.69882e-12
1.70181e-12
4.91362e-11
2.45755e-10
4.53102e-10
6.78161e-10
9.25783e-10
1.19815e-09
1.49442e-09
1.81067e-09
2.14001e-09
2.47304e-09
2.79839e-09
3.10353e-09
3.37565e-09
3.60257e-09
3.77366e-09
3.88067e-09
3.91831e-09
3.8847e-09
3.78152e-09
3.61382e-09
3.38971e-09
3.11969e-09
2.81585e-09
2.49099e-09
2.15768e-09
1.82735e-09
1.50953e-09
1.21124e-09
9.36556e-10
6.86451e-10
4.58853e-10
2.48968e-10
4.98042e-11
1.72534e-12
1.71526e-12
4.95264e-11
2.47714e-10
4.56714e-10
6.8357e-10
9.33171e-10
1.20771e-09
1.50636e-09
1.82514e-09
2.15713e-09
2.49283e-09
2.82079e-09
3.12839e-09
3.40269e-09
3.63142e-09
3.80388e-09
3.91174e-09
3.94967e-09
3.91578e-09
3.81174e-09
3.64268e-09
3.41676e-09
3.14455e-09
2.83826e-09
2.5108e-09
2.17481e-09
1.84184e-09
1.52148e-09
1.22081e-09
9.43947e-10
6.9186e-10
4.62464e-10
2.50925e-10
5.01941e-11
1.73878e-12
1.72162e-12
4.97111e-11
2.48641e-10
4.58426e-10
6.86133e-10
9.36672e-10
1.21225e-09
1.51202e-09
1.83201e-09
2.16525e-09
2.50221e-09
2.83141e-09
3.14017e-09
3.41551e-09
3.6451e-09
3.81821e-09
3.92647e-09
3.96453e-09
3.93051e-09
3.82607e-09
3.65636e-09
3.42957e-09
3.15633e-09
2.84889e-09
2.52018e-09
2.18293e-09
1.8487e-09
1.52714e-09
1.22534e-09
9.47445e-10
6.9442e-10
4.64172e-10
2.5185e-10
5.03784e-11
1.74512e-12
1.72443e-12
4.97929e-11
2.49052e-10
4.59185e-10
6.8727e-10
9.38225e-10
1.21426e-09
1.51453e-09
1.83505e-09
2.16885e-09
2.50638e-09
2.83613e-09
3.1454e-09
3.42119e-09
3.65117e-09
3.82457e-09
3.93301e-09
3.97113e-09
3.93704e-09
3.83243e-09
3.66243e-09
3.43526e-09
3.16156e-09
2.8536e-09
2.52434e-09
2.18652e-09
1.85174e-09
1.52965e-09
1.22735e-09
9.48996e-10
6.95555e-10
4.6493e-10
2.52261e-10
5.046e-11
1.74793e-12
1.72561e-12
4.9827e-11
2.49224e-10
4.59501e-10
6.87744e-10
9.38873e-10
1.2151e-09
1.51558e-09
1.83632e-09
2.17035e-09
2.50811e-09
2.83809e-09
3.14758e-09
3.42357e-09
3.65371e-09
3.82722e-09
3.93573e-09
3.97388e-09
3.93977e-09
3.83508e-09
3.66496e-09
3.43763e-09
3.16374e-09
2.85556e-09
2.52608e-09
2.18802e-09
1.85301e-09
1.53069e-09
1.22819e-09
9.49642e-10
6.96027e-10
4.65245e-10
2.52431e-10
5.0494e-11
1.7491e-12
1.72607e-12
4.98404e-11
2.49291e-10
4.59626e-10
6.8793e-10
9.39128e-10
1.21543e-09
1.51599e-09
1.83682e-09
2.17094e-09
2.5088e-09
2.83887e-09
3.14844e-09
3.4245e-09
3.6547e-09
3.82827e-09
3.93681e-09
3.97497e-09
3.94084e-09
3.83612e-09
3.66596e-09
3.43857e-09
3.1646e-09
2.85634e-09
2.52676e-09
2.18861e-09
1.85351e-09
1.5311e-09
1.22852e-09
9.49896e-10
6.96213e-10
4.65369e-10
2.52499e-10
5.05073e-11
1.74955e-12
1.72624e-12
4.98454e-11
2.49317e-10
4.59672e-10
6.88e-10
9.39223e-10
1.21555e-09
1.51614e-09
1.83701e-09
2.17116e-09
2.50905e-09
2.83916e-09
3.14876e-09
3.42485e-09
3.65508e-09
3.82866e-09
3.93721e-09
3.97537e-09
3.94124e-09
3.83651e-09
3.66633e-09
3.43892e-09
3.16492e-09
2.85662e-09
2.52701e-09
2.18883e-09
1.85369e-09
1.53126e-09
1.22864e-09
9.49991e-10
6.96282e-10
4.65415e-10
2.52524e-10
5.05123e-11
1.74972e-12
1.7263e-12
4.98472e-11
2.49325e-10
4.59688e-10
6.88024e-10
9.39256e-10
1.2156e-09
1.5162e-09
1.83707e-09
2.17124e-09
2.50914e-09
2.83926e-09
3.14887e-09
3.42497e-09
3.65521e-09
3.8288e-09
3.93735e-09
3.97551e-09
3.94138e-09
3.83665e-09
3.66646e-09
3.43904e-09
3.16503e-09
2.85672e-09
2.5271e-09
2.18891e-09
1.85376e-09
1.53131e-09
1.22869e-09
9.50024e-10
6.96307e-10
4.65431e-10
2.52532e-10
5.05141e-11
1.74978e-12
1.72632e-12
4.98478e-11
2.49328e-10
4.59694e-10
6.88032e-10
9.39267e-10
1.21561e-09
1.51622e-09
1.83709e-09
2.17127e-09
2.50917e-09
2.83929e-09
3.14891e-09
3.42502e-09
3.65525e-09
3.82884e-09
3.9374e-09
3.97556e-09
3.94143e-09
3.8367e-09
3.66651e-09
3.43908e-09
3.16507e-09
2.85676e-09
2.52713e-09
2.18894e-09
1.85378e-09
1.53133e-09
1.2287e-09
9.50035e-10
6.96315e-10
4.65437e-10
2.52535e-10
5.05146e-11
1.7498e-12
1.72632e-12
4.9848e-11
2.49329e-10
4.59696e-10
6.88035e-10
9.39271e-10
1.21562e-09
1.51622e-09
1.8371e-09
2.17127e-09
2.50918e-09
2.8393e-09
3.14892e-09
3.42503e-09
3.65527e-09
3.82886e-09
3.93741e-09
3.97558e-09
3.94145e-09
3.83671e-09
3.66652e-09
3.43909e-09
3.16508e-09
2.85677e-09
2.52714e-09
2.18895e-09
1.85379e-09
1.53133e-09
1.2287e-09
9.50039e-10
6.96318e-10
4.65439e-10
2.52536e-10
5.05148e-11
1.74981e-12
1.72633e-12
4.9848e-11
2.4933e-10
4.59696e-10
6.88036e-10
9.39272e-10
1.21562e-09
1.51623e-09
1.8371e-09
2.17128e-09
2.50919e-09
2.83931e-09
3.14893e-09
3.42503e-09
3.65527e-09
3.82886e-09
3.93742e-09
3.97558e-09
3.94145e-09
3.83671e-09
3.66652e-09
3.4391e-09
3.16509e-09
2.85677e-09
2.52715e-09
2.18895e-09
1.85379e-09
1.53134e-09
1.22871e-09
9.5004e-10
6.96318e-10
4.65439e-10
2.52537e-10
5.05149e-11
1.74981e-12
1.72633e-12
4.98481e-11
2.4933e-10
4.59696e-10
6.88036e-10
9.39273e-10
1.21562e-09
1.51623e-09
1.8371e-09
2.17128e-09
2.50919e-09
2.83931e-09
3.14893e-09
3.42503e-09
3.65527e-09
3.82886e-09
3.93742e-09
3.97558e-09
3.94145e-09
3.83672e-09
3.66653e-09
3.4391e-09
3.16509e-09
2.85677e-09
2.52715e-09
2.18895e-09
1.85379e-09
1.53134e-09
1.22871e-09
9.5004e-10
6.96319e-10
4.65439e-10
2.52537e-10
5.05149e-11
1.74981e-12
1.72633e-12
4.98481e-11
2.4933e-10
4.59696e-10
6.88036e-10
9.39273e-10
1.21562e-09
1.51623e-09
1.8371e-09
2.17128e-09
2.50919e-09
2.83931e-09
3.14893e-09
3.42503e-09
3.65527e-09
3.82886e-09
3.93742e-09
3.97558e-09
3.94145e-09
3.83672e-09
3.66653e-09
3.4391e-09
3.16509e-09
2.85677e-09
2.52715e-09
2.18895e-09
1.85379e-09
1.53134e-09
1.22871e-09
9.5004e-10
6.96319e-10
4.65439e-10
2.52537e-10
5.05149e-11
1.74981e-12
1.72633e-12
4.98481e-11
2.4933e-10
4.59696e-10
6.88036e-10
9.39273e-10
1.21562e-09
1.51623e-09
1.83711e-09
2.17128e-09
2.50919e-09
2.83931e-09
3.14893e-09
3.42503e-09
3.65527e-09
3.82886e-09
3.93742e-09
3.97558e-09
3.94145e-09
3.83672e-09
3.66653e-09
3.4391e-09
3.16509e-09
2.85677e-09
2.52715e-09
2.18895e-09
1.85379e-09
1.53134e-09
1.22871e-09
9.5004e-10
6.96319e-10
4.65439e-10
2.52537e-10
5.05149e-11
1.74981e-12
1.72633e-12
4.98481e-11
2.4933e-10
4.59696e-10
6.88036e-10
9.39273e-10
1.21562e-09
1.51623e-09
1.83711e-09
2.17128e-09
2.50919e-09
2.83931e-09
3.14893e-09
3.42503e-09
3.65527e-09
3.82886e-09
3.93742e-09
3.97558e-09
3.94145e-09
3.83672e-09
3.66653e-09
3.4391e-09
3.16509e-09
2.85677e-09
2.52715e-09
2.18895e-09
1.85379e-09
1.53134e-09
1.22871e-09
9.5004e-10
6.96319e-10
4.65439e-10
2.52537e-10
5.05149e-11
1.74981e-12
1.72633e-12
4.98481e-11
2.4933e-10
4.59696e-10
6.88036e-10
9.39273e-10
1.21562e-09
1.51623e-09
1.83711e-09
2.17128e-09
2.50919e-09
2.83931e-09
3.14893e-09
3.42503e-09
3.65527e-09
3.82886e-09
3.93742e-09
3.97558e-09
3.94145e-09
3.83672e-09
3.66653e-09
3.4391e-09
3.16509e-09
2.85677e-09
2.52715e-09
2.18895e-09
1.85379e-09
1.53134e-09
1.22871e-09
9.5004e-10
6.96319e-10
4.65439e-10
2.52537e-10
5.05149e-11
1.74981e-12
1.72633e-12
4.98481e-11
2.4933e-10
4.59696e-10
6.88036e-10
9.39273e-10
1.21562e-09
1.51623e-09
1.83711e-09
2.17128e-09
2.50919e-09
2.83931e-09
3.14893e-09
3.42503e-09
3.65527e-09
3.82886e-09
3.93742e-09
3.97558e-09
3.94145e-09
3.83672e-09
3.66653e-09
3.4391e-09
3.16509e-09
2.85677e-09
2.52715e-09
2.18895e-09
1.85379e-09
1.53134e-09
1.22871e-09
9.5004e-10
6.96319e-10
4.65439e-10
2.52537e-10
5.05149e-11
1.74981e-12
1.72633e-12
4.98481e-11
2.4933e-10
4.59696e-10
6.88036e-10
9.39273e-10
1.21562e-09
1.51623e-09
1.83711e-09
2.17128e-09
2.50919e-09
2.83931e-09
3.14893e-09
3.42503e-09
3.65527e-09
3.82886e-09
3.93742e-09
3.97558e-09
3.94145e-09
3.83672e-09
3.66653e-09
3.4391e-09
3.16509e-09
2.85677e-09
2.52715e-09
2.18895e-09
1.85379e-09
1.53134e-09
1.22871e-09
9.5004e-10
6.96319e-10
4.65439e-10
2.52537e-10
5.05149e-11
1.74981e-12
1.72633e-12
4.98481e-11
2.4933e-10
4.59696e-10
6.88036e-10
9.39273e-10
1.21562e-09
1.51623e-09
1.83711e-09
2.17128e-09
2.50919e-09
2.83931e-09
3.14893e-09
3.42503e-09
3.65527e-09
3.82886e-09
3.93742e-09
3.97558e-09
3.94145e-09
3.83672e-09
3.66653e-09
3.4391e-09
3.16509e-09
2.85677e-09
2.52715e-09
2.18895e-09
1.85379e-09
1.53134e-09
1.22871e-09
9.5004e-10
6.96319e-10
4.65439e-10
2.52537e-10
5.05149e-11
1.74981e-12
1.72633e-12
4.98481e-11
2.4933e-10
4.59696e-10
6.88036e-10
9.39273e-10
1.21562e-09
1.51623e-09
1.83711e-09
2.17128e-09
2.50919e-09
2.83931e-09
3.14893e-09
3.42503e-09
3.65527e-09
3.82886e-09
3.93742e-09
3.97558e-09
3.94145e-09
3.83672e-09
3.66653e-09
3.4391e-09
3.16509e-09
2.85677e-09
2.52715e-09
2.18895e-09
1.85379e-09
1.53134e-09
1.22871e-09
9.5004e-10
6.96319e-10
4.65439e-10
2.52537e-10
5.05149e-11
1.74981e-12
1.72633e-12
4.98481e-11
2.4933e-10
4.59696e-10
6.88036e-10
9.39273e-10
1.21562e-09
1.51623e-09
1.83711e-09
2.17128e-09
2.50919e-09
2.83931e-09
3.14893e-09
3.42503e-09
3.65527e-09
3.82886e-09
3.93742e-09
3.97558e-09
3.94145e-09
3.83672e-09
3.66653e-09
3.4391e-09
3.16509e-09
2.85677e-09
2.52715e-09
2.18895e-09
1.85379e-09
1.53134e-09
1.22871e-09
9.5004e-10
6.96319e-10
4.65439e-10
2.52537e-10
5.05149e-11
1.74981e-12
1.72633e-12
4.98481e-11
2.4933e-10
4.59696e-10
6.88036e-10
9.39273e-10
1.21562e-09
1.51623e-09
1.83711e-09
2.17128e-09
2.50919e-09
2.83931e-09
3.14893e-09
3.42503e-09
3.65527e-09
3.82886e-09
3.93742e-09
3.97558e-09
3.94145e-09
3.83672e-09
3.66653e-09
3.4391e-09
3.16509e-09
2.85677e-09
2.52715e-09
2.18895e-09
1.85379e-09
1.53134e-09
1.22871e-09
9.5004e-10
6.96319e-10
4.65439e-10
2.52537e-10
5.05149e-11
1.74981e-12
1.72633e-12
4.98481e-11
2.4933e-10
4.59696e-10
6.88036e-10
9.39273e-10
1.21562e-09
1.51623e-09
1.83711e-09
2.17128e-09
2.50919e-09
2.83931e-09
3.14893e-09
3.42503e-09
3.65527e-09
3.82886e-09
3.93742e-09
3.97558e-09
3.94145e-09
3.83672e-09
3.66653e-09
3.4391e-09
3.16509e-09
2.85677e-09
2.52715e-09
2.18895e-09
1.85379e-09
1.53134e-09
1.22871e-09
9.5004e-10
6.96319e-10
4.65439e-10
2.52537e-10
5.05149e-11
1.74981e-12
1.72633e-12
4.98481e-11
2.4933e-10
4.59696e-10
6.88036e-10
9.39273e-10
1.21562e-09
1.51623e-09
1.83711e-09
2.17128e-09
2.50919e-09
2.83931e-09
3.14893e-09
3.42503e-09
3.65527e-09
3.82886e-09
3.93742e-09
3.97558e-09
3.94145e-09
3.83672e-09
3.66653e-09
3.4391e-09
3.16509e-09
2.85677e-09
2.52715e-09
2.18895e-09
1.85379e-09
1.53134e-09
1.22871e-09
9.5004e-10
6.96319e-10
4.65439e-10
2.52537e-10
5.05149e-11
1.74981e-12
1.72633e-12
4.98481e-11
2.4933e-10
4.59696e-10
6.88036e-10
9.39273e-10
1.21562e-09
1.51623e-09
1.83711e-09
2.17128e-09
2.50919e-09
2.83931e-09
3.14893e-09
3.42503e-09
3.65527e-09
3.82886e-09
3.93742e-09
3.97558e-09
3.94145e-09
3.83672e-09
3.66653e-09
3.4391e-09
3.16509e-09
2.85677e-09
2.52715e-09
2.18895e-09
1.85379e-09
1.53134e-09
1.22871e-09
9.5004e-10
6.96319e-10
4.65439e-10
2.52537e-10
5.05149e-11
1.74981e-12
1.72633e-12
4.98481e-11
2.4933e-10
4.59696e-10
6.88036e-10
9.39273e-10
1.21562e-09
1.51623e-09
1.83711e-09
2.17128e-09
2.50919e-09
2.83931e-09
3.14893e-09
3.42503e-09
3.65527e-09
3.82886e-09
3.93742e-09
3.97558e-09
3.94145e-09
3.83672e-09
3.66653e-09
3.4391e-09
3.16509e-09
2.85677e-09
2.52715e-09
2.18895e-09
1.85379e-09
1.53134e-09
1.22871e-09
9.5004e-10
6.96319e-10
4.65439e-10
2.52537e-10
5.05149e-11
1.74981e-12
1.72633e-12
4.98481e-11
2.4933e-10
4.59696e-10
6.88036e-10
9.39273e-10
1.21562e-09
1.51623e-09
1.83711e-09
2.17128e-09
2.50919e-09
2.83931e-09
3.14893e-09
3.42503e-09
3.65527e-09
3.82886e-09
3.93742e-09
3.97558e-09
3.94145e-09
3.83672e-09
3.66653e-09
3.4391e-09
3.16509e-09
2.85677e-09
2.52715e-09
2.18895e-09
1.85379e-09
1.53134e-09
1.22871e-09
9.5004e-10
6.96319e-10
4.65439e-10
2.52537e-10
5.05149e-11
1.74981e-12
1.72633e-12
4.98481e-11
2.4933e-10
4.59696e-10
6.88036e-10
9.39273e-10
1.21562e-09
1.51623e-09
1.83711e-09
2.17128e-09
2.50919e-09
2.83931e-09
3.14893e-09
3.42503e-09
3.65527e-09
3.82886e-09
3.93742e-09
3.97558e-09
3.94145e-09
3.83672e-09
3.66653e-09
3.4391e-09
3.16509e-09
2.85677e-09
2.52715e-09
2.18895e-09
1.85379e-09
1.53134e-09
1.22871e-09
9.5004e-10
6.96319e-10
4.65439e-10
2.52537e-10
5.05149e-11
1.74981e-12
1.72633e-12
4.98481e-11
2.4933e-10
4.59696e-10
6.88036e-10
9.39273e-10
1.21562e-09
1.51623e-09
1.83711e-09
2.17128e-09
2.50919e-09
2.83931e-09
3.14893e-09
3.42503e-09
3.65527e-09
3.82886e-09
3.93742e-09
3.97558e-09
3.94145e-09
3.83672e-09
3.66653e-09
3.4391e-09
3.16509e-09
2.85677e-09
2.52715e-09
2.18895e-09
1.85379e-09
1.53134e-09
1.22871e-09
9.5004e-10
6.96319e-10
4.65439e-10
2.52537e-10
5.05149e-11
1.74981e-12
1.72633e-12
4.98481e-11
2.4933e-10
4.59696e-10
6.88036e-10
9.39273e-10
1.21562e-09
1.51623e-09
1.83711e-09
2.17128e-09
2.50919e-09
2.83931e-09
3.14893e-09
3.42503e-09
3.65527e-09
3.82886e-09
3.93742e-09
3.97558e-09
3.94145e-09
3.83672e-09
3.66653e-09
3.4391e-09
3.16509e-09
2.85677e-09
2.52715e-09
2.18895e-09
1.85379e-09
1.53134e-09
1.22871e-09
9.5004e-10
6.96319e-10
4.65439e-10
2.52537e-10
5.05149e-11
1.74981e-12
1.72633e-12
4.98481e-11
2.4933e-10
4.59696e-10
6.88036e-10
9.39273e-10
1.21562e-09
1.51623e-09
1.83711e-09
2.17128e-09
2.50919e-09
2.83931e-09
3.14893e-09
3.42503e-09
3.65527e-09
3.82886e-09
3.93742e-09
3.97558e-09
3.94145e-09
3.83672e-09
3.66653e-09
3.4391e-09
3.16509e-09
2.85677e-09
2.52715e-09
2.18895e-09
1.85379e-09
1.53134e-09
1.22871e-09
9.5004e-10
6.96319e-10
4.65439e-10
2.52537e-10
5.05149e-11
1.74981e-12
1.72633e-12
4.98481e-11
2.4933e-10
4.59696e-10
6.88036e-10
9.39273e-10
1.21562e-09
1.51623e-09
1.83711e-09
2.17128e-09
2.50919e-09
2.83931e-09
3.14893e-09
3.42503e-09
3.65527e-09
3.82886e-09
3.93742e-09
3.97558e-09
3.94145e-09
3.83672e-09
3.66653e-09
3.4391e-09
3.16509e-09
2.85677e-09
2.52715e-09
2.18895e-09
1.85379e-09
1.53134e-09
1.22871e-09
9.5004e-10
6.96319e-10
4.65439e-10
2.52537e-10
5.05149e-11
1.74981e-12
1.72633e-12
4.98481e-11
2.4933e-10
4.59696e-10
6.88036e-10
9.39273e-10
1.21562e-09
1.51623e-09
1.83711e-09
2.17128e-09
2.50919e-09
2.83931e-09
3.14893e-09
3.42503e-09
3.65527e-09
3.82886e-09
3.93742e-09
3.97558e-09
3.94145e-09
3.83672e-09
3.66653e-09
3.4391e-09
3.16509e-09
2.85677e-09
2.52715e-09
2.18895e-09
1.85379e-09
1.53134e-09
1.22871e-09
9.5004e-10
6.96319e-10
4.65439e-10
2.52537e-10
5.05149e-11
1.74981e-12
1.72633e-12
4.98481e-11
2.4933e-10
4.59696e-10
6.88036e-10
9.39273e-10
1.21562e-09
1.51623e-09
1.83711e-09
2.17128e-09
2.50919e-09
2.83931e-09
3.14893e-09
3.42503e-09
3.65527e-09
3.82886e-09
3.93742e-09
3.97558e-09
3.94145e-09
3.83672e-09
3.66653e-09
3.4391e-09
3.16509e-09
2.85677e-09
2.52715e-09
2.18895e-09
1.85379e-09
1.53134e-09
1.22871e-09
9.5004e-10
6.96319e-10
4.65439e-10
2.52537e-10
5.05149e-11
1.74981e-12
1.72633e-12
4.98481e-11
2.4933e-10
4.59696e-10
6.88036e-10
9.39273e-10
1.21562e-09
1.51623e-09
1.83711e-09
2.17128e-09
2.50919e-09
2.83931e-09
3.14893e-09
3.42503e-09
3.65527e-09
3.82886e-09
3.93742e-09
3.97558e-09
3.94145e-09
3.83672e-09
3.66653e-09
3.4391e-09
3.16509e-09
2.85677e-09
2.52715e-09
2.18895e-09
1.85379e-09
1.53134e-09
1.22871e-09
9.5004e-10
6.96319e-10
4.65439e-10
2.52537e-10
5.05149e-11
1.74981e-12
1.72633e-12
4.98481e-11
2.4933e-10
4.59696e-10
6.88036e-10
9.39273e-10
1.21562e-09
1.51623e-09
1.83711e-09
2.17128e-09
2.50919e-09
2.83931e-09
3.14893e-09
3.42503e-09
3.65527e-09
3.82886e-09
3.93742e-09
3.97558e-09
3.94145e-09
3.83672e-09
3.66653e-09
3.4391e-09
3.16509e-09
2.85677e-09
2.52715e-09
2.18895e-09
1.85379e-09
1.53134e-09
1.22871e-09
9.5004e-10
6.96319e-10
4.65439e-10
2.52537e-10
5.05149e-11
1.74981e-12
1.72633e-12
4.98481e-11
2.4933e-10
4.59696e-10
6.88036e-10
9.39273e-10
1.21562e-09
1.51623e-09
1.83711e-09
2.17128e-09
2.50919e-09
2.83931e-09
3.14893e-09
3.42503e-09
3.65527e-09
3.82886e-09
3.93742e-09
3.97558e-09
3.94145e-09
3.83672e-09
3.66653e-09
3.4391e-09
3.16509e-09
2.85677e-09
2.52715e-09
2.18895e-09
1.85379e-09
1.53134e-09
1.22871e-09
9.5004e-10
6.96319e-10
4.65439e-10
2.52537e-10
5.05149e-11
1.74981e-12
1.72633e-12
4.98481e-11
2.4933e-10
4.59696e-10
6.88036e-10
9.39273e-10
1.21562e-09
1.51623e-09
1.83711e-09
2.17128e-09
2.50919e-09
2.83931e-09
3.14893e-09
3.42503e-09
3.65527e-09
3.82886e-09
3.93742e-09
3.97558e-09
3.94145e-09
3.83672e-09
3.66653e-09
3.4391e-09
3.16509e-09
2.85677e-09
2.52715e-09
2.18895e-09
1.85379e-09
1.53134e-09
1.22871e-09
9.5004e-10
6.96319e-10
4.65439e-10
2.52537e-10
5.05149e-11
1.74981e-12
1.72633e-12
4.98481e-11
2.4933e-10
4.59696e-10
6.88036e-10
9.39273e-10
1.21562e-09
1.51623e-09
1.83711e-09
2.17128e-09
2.50919e-09
2.83931e-09
3.14893e-09
3.42503e-09
3.65527e-09
3.82886e-09
3.93742e-09
3.97558e-09
3.94145e-09
3.83672e-09
3.66653e-09
3.4391e-09
3.16509e-09
2.85677e-09
2.52715e-09
2.18895e-09
1.85379e-09
1.53134e-09
1.22871e-09
9.5004e-10
6.96319e-10
4.65439e-10
2.52537e-10
5.05149e-11
1.74981e-12
1.72633e-12
4.98481e-11
2.4933e-10
4.59696e-10
6.88036e-10
9.39273e-10
1.21562e-09
1.51623e-09
1.83711e-09
2.17128e-09
2.50919e-09
2.83931e-09
3.14893e-09
3.42503e-09
3.65527e-09
3.82886e-09
3.93742e-09
3.97558e-09
3.94145e-09
3.83672e-09
3.66653e-09
3.4391e-09
3.16509e-09
2.85677e-09
2.52715e-09
2.18895e-09
1.85379e-09
1.53134e-09
1.22871e-09
9.5004e-10
6.96319e-10
4.65439e-10
2.52537e-10
5.05149e-11
1.74981e-12
1.72633e-12
4.98481e-11
2.4933e-10
4.59696e-10
6.88036e-10
9.39273e-10
1.21562e-09
1.51623e-09
1.83711e-09
2.17128e-09
2.50919e-09
2.83931e-09
3.14893e-09
3.42503e-09
3.65527e-09
3.82886e-09
3.93742e-09
3.97558e-09
3.94145e-09
3.83672e-09
3.66653e-09
3.4391e-09
3.16509e-09
2.85677e-09
2.52715e-09
2.18895e-09
1.85379e-09
1.53134e-09
1.22871e-09
9.5004e-10
6.96319e-10
4.65439e-10
2.52537e-10
5.05149e-11
1.74981e-12
1.72633e-12
4.98481e-11
2.4933e-10
4.59696e-10
6.88036e-10
9.39273e-10
1.21562e-09
1.51623e-09
1.83711e-09
2.17128e-09
2.50919e-09
2.83931e-09
3.14893e-09
3.42503e-09
3.65527e-09
3.82886e-09
3.93742e-09
3.97558e-09
3.94145e-09
3.83672e-09
3.66653e-09
3.4391e-09
3.16509e-09
2.85677e-09
2.52715e-09
2.18895e-09
1.85379e-09
1.53134e-09
1.22871e-09
9.5004e-10
6.96319e-10
4.65439e-10
2.52537e-10
5.05149e-11
1.74981e-12
1.72633e-12
4.98481e-11
2.4933e-10
4.59696e-10
6.88036e-10
9.39273e-10
1.21562e-09
1.51623e-09
1.83711e-09
2.17128e-09
2.50919e-09
2.83931e-09
3.14893e-09
3.42503e-09
3.65527e-09
3.82886e-09
3.93742e-09
3.97558e-09
3.94145e-09
3.83672e-09
3.66653e-09
3.4391e-09
3.16509e-09
2.85677e-09
2.52715e-09
2.18895e-09
1.85379e-09
1.53134e-09
1.22871e-09
9.5004e-10
6.96319e-10
4.65439e-10
2.52537e-10
5.05149e-11
1.74981e-12
1.72633e-12
4.98481e-11
2.4933e-10
4.59696e-10
6.88036e-10
9.39273e-10
1.21562e-09
1.51623e-09
1.83711e-09
2.17128e-09
2.50919e-09
2.83931e-09
3.14893e-09
3.42503e-09
3.65527e-09
3.82886e-09
3.93742e-09
3.97558e-09
3.94145e-09
3.83672e-09
3.66653e-09
3.4391e-09
3.16509e-09
2.85677e-09
2.52715e-09
2.18895e-09
1.85379e-09
1.53134e-09
1.22871e-09
9.5004e-10
6.96319e-10
4.65439e-10
2.52537e-10
5.05149e-11
1.74981e-12
1.72633e-12
4.98481e-11
2.4933e-10
4.59696e-10
6.88036e-10
9.39273e-10
1.21562e-09
1.51623e-09
1.83711e-09
2.17128e-09
2.50919e-09
2.83931e-09
3.14893e-09
3.42503e-09
3.65527e-09
3.82886e-09
3.93742e-09
3.97558e-09
3.94145e-09
3.83672e-09
3.66653e-09
3.4391e-09
3.16509e-09
2.85677e-09
2.52715e-09
2.18895e-09
1.85379e-09
1.53134e-09
1.22871e-09
9.5004e-10
6.96319e-10
4.65439e-10
2.52537e-10
5.05149e-11
1.74981e-12
1.72633e-12
4.98481e-11
2.4933e-10
4.59696e-10
6.88036e-10
9.39273e-10
1.21562e-09
1.51623e-09
1.83711e-09
2.17128e-09
2.50919e-09
2.83931e-09
3.14893e-09
3.42503e-09
3.65527e-09
3.82886e-09
3.93742e-09
3.97558e-09
3.94145e-09
3.83672e-09
3.66653e-09
3.4391e-09
3.16509e-09
2.85677e-09
2.52715e-09
2.18895e-09
1.85379e-09
1.53134e-09
1.22871e-09
9.5004e-10
6.96319e-10
4.65439e-10
2.52537e-10
5.05149e-11
1.74981e-12
1.72633e-12
4.98481e-11
2.4933e-10
4.59696e-10
6.88036e-10
9.39273e-10
1.21562e-09
1.51623e-09
1.83711e-09
2.17128e-09
2.50919e-09
2.83931e-09
3.14893e-09
3.42503e-09
3.65527e-09
3.82886e-09
3.93742e-09
3.97558e-09
3.94145e-09
3.83672e-09
3.66653e-09
3.4391e-09
3.16509e-09
2.85677e-09
2.52715e-09
2.18895e-09
1.85379e-09
1.53134e-09
1.22871e-09
9.5004e-10
6.96319e-10
4.65439e-10
2.52537e-10
5.05149e-11
1.74981e-12
1.72633e-12
4.98481e-11
2.4933e-10
4.59696e-10
6.88036e-10
9.39273e-10
1.21562e-09
1.51623e-09
1.83711e-09
2.17128e-09
2.50919e-09
2.83931e-09
3.14893e-09
3.42503e-09
3.65527e-09
3.82886e-09
3.93742e-09
3.97558e-09
3.94145e-09
3.83672e-09
3.66653e-09
3.4391e-09
3.16509e-09
2.85677e-09
2.52715e-09
2.18895e-09
1.85379e-09
1.53134e-09
1.22871e-09
9.5004e-10
6.96319e-10
4.65439e-10
2.52537e-10
5.05149e-11
1.74981e-12
1.72633e-12
4.98481e-11
2.4933e-10
4.59696e-10
6.88036e-10
9.39273e-10
1.21562e-09
1.51623e-09
1.83711e-09
2.17128e-09
2.50919e-09
2.83931e-09
3.14893e-09
3.42503e-09
3.65527e-09
3.82886e-09
3.93742e-09
3.97558e-09
3.94145e-09
3.83672e-09
3.66653e-09
3.4391e-09
3.16509e-09
2.85677e-09
2.52715e-09
2.18895e-09
1.85379e-09
1.53134e-09
1.22871e-09
9.5004e-10
6.96319e-10
4.65439e-10
2.52537e-10
5.05149e-11
1.74981e-12
1.72633e-12
4.98481e-11
2.4933e-10
4.59696e-10
6.88036e-10
9.39273e-10
1.21562e-09
1.51623e-09
1.83711e-09
2.17128e-09
2.50919e-09
2.83931e-09
3.14893e-09
3.42503e-09
3.65527e-09
3.82886e-09
3.93742e-09
3.97558e-09
3.94145e-09
3.83672e-09
3.66653e-09
3.4391e-09
3.16509e-09
2.85677e-09
2.52715e-09
2.18895e-09
1.85379e-09
1.53134e-09
1.22871e-09
9.5004e-10
6.96319e-10
4.65439e-10
2.52537e-10
5.05149e-11
1.74981e-12
1.72633e-12
4.98481e-11
2.4933e-10
4.59696e-10
6.88036e-10
9.39273e-10
1.21562e-09
1.51623e-09
1.83711e-09
2.17128e-09
2.50919e-09
2.83931e-09
3.14893e-09
3.42503e-09
3.65527e-09
3.82886e-09
3.93742e-09
3.97558e-09
3.94145e-09
3.83672e-09
3.66653e-09
3.4391e-09
3.16509e-09
2.85677e-09
2.52715e-09
2.18895e-09
1.85379e-09
1.53134e-09
1.22871e-09
9.5004e-10
6.96319e-10
4.65439e-10
2.52537e-10
5.05149e-11
1.74981e-12
1.72633e-12
4.98481e-11
2.4933e-10
4.59696e-10
6.88036e-10
9.39273e-10
1.21562e-09
1.51623e-09
1.83711e-09
2.17128e-09
2.50919e-09
2.83931e-09
3.14893e-09
3.42503e-09
3.65527e-09
3.82886e-09
3.93742e-09
3.97558e-09
3.94145e-09
3.83672e-09
3.66653e-09
3.4391e-09
3.16509e-09
2.85677e-09
2.52715e-09
2.18895e-09
1.85379e-09
1.53134e-09
1.22871e-09
9.5004e-10
6.96319e-10
4.65439e-10
2.52537e-10
5.05149e-11
1.74981e-12
1.72633e-12
4.98481e-11
2.4933e-10
4.59696e-10
6.88036e-10
9.39273e-10
1.21562e-09
1.51623e-09
1.83711e-09
2.17128e-09
2.50919e-09
2.83931e-09
3.14893e-09
3.42503e-09
3.65527e-09
3.82886e-09
3.93742e-09
3.97558e-09
3.94145e-09
3.83672e-09
3.66653e-09
3.4391e-09
3.16509e-09
2.85677e-09
2.52715e-09
2.18895e-09
1.85379e-09
1.53134e-09
1.22871e-09
9.5004e-10
6.96319e-10
4.65439e-10
2.52537e-10
5.05149e-11
1.74981e-12
1.72633e-12
4.98481e-11
2.4933e-10
4.59696e-10
6.88036e-10
9.39273e-10
1.21562e-09
1.51623e-09
1.83711e-09
2.17128e-09
2.50919e-09
2.83931e-09
3.14893e-09
3.42503e-09
3.65527e-09
3.82886e-09
3.93742e-09
3.97558e-09
3.94145e-09
3.83672e-09
3.66653e-09
3.4391e-09
3.16509e-09
2.85677e-09
2.52715e-09
2.18895e-09
1.85379e-09
1.53134e-09
1.22871e-09
9.5004e-10
6.96319e-10
4.65439e-10
2.52537e-10
5.05149e-11
1.74981e-12
1.72633e-12
4.98481e-11
2.4933e-10
4.59696e-10
6.88036e-10
9.39273e-10
1.21562e-09
1.51623e-09
1.83711e-09
2.17128e-09
2.50919e-09
2.83931e-09
3.14893e-09
3.42503e-09
3.65527e-09
3.82886e-09
3.93742e-09
3.97558e-09
3.94145e-09
3.83672e-09
3.66653e-09
3.4391e-09
3.16509e-09
2.85677e-09
2.52715e-09
2.18895e-09
1.85379e-09
1.53134e-09
1.22871e-09
9.5004e-10
6.96319e-10
4.65439e-10
2.52537e-10
5.05149e-11
1.74981e-12
1.72633e-12
4.98481e-11
2.4933e-10
4.59696e-10
6.88036e-10
9.39273e-10
1.21562e-09
1.51623e-09
1.83711e-09
2.17128e-09
2.50919e-09
2.83931e-09
3.14893e-09
3.42503e-09
3.65527e-09
3.82886e-09
3.93742e-09
3.97558e-09
3.94145e-09
3.83672e-09
3.66653e-09
3.4391e-09
3.16509e-09
2.85677e-09
2.52715e-09
2.18895e-09
1.85379e-09
1.53134e-09
1.22871e-09
9.5004e-10
6.96319e-10
4.65439e-10
2.52537e-10
5.05149e-11
1.74981e-12
1.72633e-12
4.98481e-11
2.4933e-10
4.59696e-10
6.88036e-10
9.39273e-10
1.21562e-09
1.51623e-09
1.83711e-09
2.17128e-09
2.50919e-09
2.83931e-09
3.14893e-09
3.42503e-09
3.65527e-09
3.82886e-09
3.93742e-09
3.97558e-09
3.94145e-09
3.83672e-09
3.66653e-09
3.4391e-09
3.16509e-09
2.85677e-09
2.52715e-09
2.18895e-09
1.85379e-09
1.53134e-09
1.22871e-09
9.5004e-10
6.96319e-10
4.65439e-10
2.52537e-10
5.05149e-11
1.74981e-12
1.72633e-12
4.98481e-11
2.4933e-10
4.59696e-10
6.88036e-10
9.39273e-10
1.21562e-09
1.51623e-09
1.83711e-09
2.17128e-09
2.50919e-09
2.83931e-09
3.14893e-09
3.42503e-09
3.65527e-09
3.82886e-09
3.93742e-09
3.97558e-09
3.94145e-09
3.83672e-09
3.66653e-09
3.4391e-09
3.16509e-09
2.85677e-09
2.52715e-09
2.18895e-09
1.85379e-09
1.53134e-09
1.22871e-09
9.5004e-10
6.96319e-10
4.65439e-10
2.52537e-10
5.05149e-11
1.74981e-12
1.72633e-12
4.98481e-11
2.4933e-10
4.59696e-10
6.88036e-10
9.39273e-10
1.21562e-09
1.51623e-09
1.83711e-09
2.17128e-09
2.50919e-09
2.83931e-09
3.14893e-09
3.42503e-09
3.65527e-09
3.82886e-09
3.93742e-09
3.97558e-09
3.94145e-09
3.83672e-09
3.66653e-09
3.4391e-09
3.16509e-09
2.85677e-09
2.52715e-09
2.18895e-09
1.85379e-09
1.53134e-09
1.22871e-09
9.5004e-10
6.96319e-10
4.65439e-10
2.52537e-10
5.05149e-11
1.74981e-12
1.72633e-12
4.98481e-11
2.4933e-10
4.59696e-10
6.88036e-10
9.39273e-10
1.21562e-09
1.51623e-09
1.83711e-09
2.17128e-09
2.50919e-09
2.83931e-09
3.14893e-09
3.42503e-09