/*--------------------------------*- C++ -*----------------------------------*\
  =========                 |
  \\      /  F ield         | OpenFOAM: The Open Source CFD Toolbox
   \\    /   O peration     | Website:  https://openfoam.org
    \\  /    A nd           | Version:  13
     \\/     M anipulation  |
\*---------------------------------------------------------------------------*/
FoamFile
{
    format      ascii;
    class       volScalarField;
    location    "20";
    object      nut;
}
// * * * * * * * * * * * * * * * * * * * * * * * * * * * * * * * * * * * * * //

dimensions      [0 2 -1 0 0 0 0];

internalField   nonuniform List<scalar> 
315000
(
1.26631e-12
3.29937e-10
7.4857e-09
1.32832e-08
1.89796e-08
2.45394e-08
2.99335e-08
3.51349e-08
4.01172e-08
4.48555e-08
4.93273e-08
5.35149e-08
5.74065e-08
6.09996e-08
6.43058e-08
6.73556e-08
7.01991e-08
7.28337e-08
7.52519e-08
7.74508e-08
7.94331e-08
8.12059e-08
8.27791e-08
8.41645e-08
8.53749e-08
8.64238e-08
8.73242e-08
8.80888e-08
8.87296e-08
8.92574e-08
8.96818e-08
9.0011e-08
9.02516e-08
9.04088e-08
9.04859e-08
9.04847e-08
9.04052e-08
9.02458e-08
9.0003e-08
8.96718e-08
8.92456e-08
8.87162e-08
8.80741e-08
8.73085e-08
8.64077e-08
8.53589e-08
8.41491e-08
8.2765e-08
8.1194e-08
7.94242e-08
7.74458e-08
7.5252e-08
7.28401e-08
7.02125e-08
6.73756e-08
6.43286e-08
6.10246e-08
5.74366e-08
5.35516e-08
4.9371e-08
4.49061e-08
4.01743e-08
3.51975e-08
3.00003e-08
2.46083e-08
1.90477e-08
1.33458e-08
7.5339e-09
3.32893e-10
1.27961e-12
3.1209e-11
8.26726e-09
1.76514e-06
2.99227e-06
4.10443e-06
5.12136e-06
6.05574e-06
6.91585e-06
7.70732e-06
8.43409e-06
9.09912e-06
9.70477e-06
1.02531e-05
1.0746e-05
1.11853e-05
1.15715e-05
1.19357e-05
1.22728e-05
1.25806e-05
1.28586e-05
1.31077e-05
1.33292e-05
1.35249e-05
1.36965e-05
1.3846e-05
1.39753e-05
1.40861e-05
1.41801e-05
1.42589e-05
1.43237e-05
1.43759e-05
1.44164e-05
1.4446e-05
1.44653e-05
1.44748e-05
1.44747e-05
1.44649e-05
1.44454e-05
1.44155e-05
1.43748e-05
1.43225e-05
1.42574e-05
1.41785e-05
1.40844e-05
1.39735e-05
1.38441e-05
1.36946e-05
1.3523e-05
1.33274e-05
1.31061e-05
1.28572e-05
1.25795e-05
1.22721e-05
1.19354e-05
1.15717e-05
1.11861e-05
1.07474e-05
1.02551e-05
9.70733e-06
9.10232e-06
8.43791e-06
7.71172e-06
6.92076e-06
6.06103e-06
5.12684e-06
4.1098e-06
2.99711e-06
1.76876e-06
8.28876e-09
3.1297e-11
1.19489e-10
3.17089e-08
1.30309e-05
1.92104e-05
2.43278e-05
2.87662e-05
3.27058e-05
3.62459e-05
3.94478e-05
4.23527e-05
4.49903e-05
4.73833e-05
4.95598e-05
5.15301e-05
5.32988e-05
4.68254e-05
4.75056e-05
4.81155e-05
4.86592e-05
4.9142e-05
4.95692e-05
4.99459e-05
5.02766e-05
5.05656e-05
5.08168e-05
5.10338e-05
5.12199e-05
5.13779e-05
5.15104e-05
5.16198e-05
5.17079e-05
5.17765e-05
5.18267e-05
5.18596e-05
5.18759e-05
5.18757e-05
5.18592e-05
5.18261e-05
5.17756e-05
5.17068e-05
5.16184e-05
5.15087e-05
5.1376e-05
5.12178e-05
5.10316e-05
5.08145e-05
5.05632e-05
5.02741e-05
4.99434e-05
4.95667e-05
4.91396e-05
4.86569e-05
4.81135e-05
4.75038e-05
4.68239e-05
5.32963e-05
5.15289e-05
4.95598e-05
4.73846e-05
4.49928e-05
4.23563e-05
3.94522e-05
3.62511e-05
3.27119e-05
2.87731e-05
2.43351e-05
1.92178e-05
1.30377e-05
3.17341e-08
1.19591e-10
1.57605e-10
4.18531e-08
1.62097e-05
2.34054e-05
2.93179e-05
3.44139e-05
3.89107e-05
4.2929e-05
4.65436e-05
4.98027e-05
5.27327e-05
4.70913e-05
4.824e-05
4.92799e-05
5.02198e-05
5.10706e-05
5.18353e-05
5.25213e-05
5.31353e-05
5.36835e-05
5.41714e-05
5.46043e-05
5.49867e-05
5.53231e-05
5.56175e-05
5.58734e-05
5.60943e-05
5.6283e-05
5.64423e-05
5.65745e-05
5.66816e-05
5.67652e-05
5.68267e-05
5.68671e-05
5.68871e-05
5.6887e-05
5.68668e-05
5.68262e-05
5.67645e-05
5.66807e-05
5.65734e-05
5.64411e-05
5.62816e-05
5.60927e-05
5.58717e-05
5.56157e-05
5.53212e-05
5.49847e-05
5.46022e-05
5.41693e-05
5.36814e-05
5.31332e-05
5.25192e-05
5.18333e-05
5.10687e-05
5.0218e-05
4.92783e-05
4.82387e-05
4.70903e-05
5.27307e-05
4.98014e-05
4.65427e-05
4.29283e-05
3.89103e-05
3.44138e-05
2.93183e-05
2.34062e-05
1.6211e-05
4.18608e-08
1.5764e-10
1.7457e-10
4.63843e-08
1.75614e-05
2.5173e-05
3.14189e-05
3.67976e-05
4.15413e-05
4.57792e-05
4.959e-05
5.30153e-05
4.74392e-05
4.87876e-05
5.00106e-05
5.11186e-05
5.21221e-05
5.30303e-05
5.38515e-05
5.45931e-05
5.52613e-05
5.58621e-05
5.64009e-05
5.68824e-05
5.73111e-05
5.7691e-05
5.80261e-05
5.83196e-05
5.85747e-05
5.87942e-05
5.89806e-05
5.91362e-05
5.92629e-05
5.93623e-05
5.94357e-05
5.94841e-05
5.9508e-05
5.9508e-05
5.94838e-05
5.94353e-05
5.93618e-05
5.92623e-05
5.91355e-05
5.89797e-05
5.87932e-05
5.85736e-05
5.83184e-05
5.80248e-05
5.76897e-05
5.73097e-05
5.68809e-05
5.63994e-05
5.58607e-05
5.52598e-05
5.45916e-05
5.38501e-05
5.3029e-05
5.21208e-05
5.11174e-05
5.00093e-05
4.87864e-05
4.74383e-05
5.30136e-05
4.95886e-05
4.57778e-05
4.15403e-05
3.67971e-05
3.14188e-05
2.51732e-05
1.7562e-05
4.63896e-08
1.74596e-10
1.81374e-10
4.82086e-08
1.80971e-05
2.58718e-05
3.22491e-05
3.77376e-05
4.25736e-05
4.68925e-05
5.07951e-05
5.43652e-05
4.80639e-05
4.94751e-05
5.07391e-05
5.18826e-05
5.29206e-05
5.38634e-05
5.47194e-05
5.54956e-05
5.61984e-05
5.68332e-05
5.74052e-05
5.7919e-05
5.83787e-05
5.87883e-05
5.91511e-05
5.94705e-05
5.97493e-05
5.99903e-05
6.01958e-05
6.03678e-05
6.05083e-05
6.06189e-05
6.07006e-05
6.07546e-05
6.07814e-05
6.07814e-05
6.07545e-05
6.07004e-05
6.06185e-05
6.05079e-05
6.03673e-05
6.01952e-05
5.99897e-05
5.97486e-05
5.94698e-05
5.91503e-05
5.87874e-05
5.83779e-05
5.79181e-05
5.74044e-05
5.68324e-05
5.61976e-05
5.54948e-05
5.47187e-05
5.38627e-05
5.292e-05
5.18821e-05
5.07387e-05
4.94747e-05
4.80636e-05
5.43643e-05
5.07945e-05
4.68925e-05
4.25742e-05
3.77385e-05
3.22501e-05
2.58729e-05
1.80983e-05
4.82162e-08
1.81408e-10
1.83657e-10
4.88244e-08
1.82783e-05
2.61094e-05
3.25332e-05
3.80612e-05
4.29272e-05
4.72579e-05
5.11314e-05
5.48252e-05
4.83537e-05
4.97437e-05
5.10113e-05
5.21665e-05
5.32191e-05
5.41777e-05
5.50499e-05
5.58426e-05
5.65618e-05
5.72129e-05
5.7801e-05
5.83304e-05
5.88053e-05
5.92293e-05
5.96057e-05
5.99377e-05
6.02282e-05
6.04796e-05
6.06944e-05
6.08745e-05
6.10218e-05
6.11377e-05
6.12236e-05
6.12803e-05
6.13085e-05
6.13084e-05
6.12802e-05
6.12234e-05
6.11375e-05
6.10215e-05
6.08742e-05
6.0694e-05
6.04792e-05
6.02278e-05
5.99373e-05
5.96052e-05
5.92288e-05
5.88048e-05
5.833e-05
5.78006e-05
5.72126e-05
5.65614e-05
5.58423e-05
5.50497e-05
5.41775e-05
5.3219e-05
5.21666e-05
5.10115e-05
4.9744e-05
4.83538e-05
5.48253e-05
5.11322e-05
4.72596e-05
4.29291e-05
3.80631e-05
3.25352e-05
2.61113e-05
1.82802e-05
4.88344e-08
1.837e-10
1.84316e-10
4.9004e-08
1.83318e-05
2.61802e-05
3.26191e-05
3.81607e-05
4.30391e-05
4.73801e-05
5.125e-05
4.689e-05
4.84256e-05
4.98229e-05
5.10962e-05
5.22573e-05
5.3316e-05
5.42807e-05
5.51591e-05
5.5958e-05
5.66834e-05
5.73408e-05
5.79349e-05
5.84703e-05
5.89509e-05
5.93803e-05
5.97619e-05
6.00987e-05
6.03936e-05
6.0649e-05
6.08672e-05
6.10503e-05
6.12002e-05
6.13181e-05
6.14055e-05
6.14633e-05
6.1492e-05
6.1492e-05
6.14632e-05
6.14054e-05
6.1318e-05
6.12e-05
6.10501e-05
6.0867e-05
6.06487e-05
6.03933e-05
6.00985e-05
5.97616e-05
5.938e-05
5.89506e-05
5.84701e-05
5.79348e-05
5.73407e-05
5.66834e-05
5.5958e-05
5.51592e-05
5.42809e-05
5.33162e-05
5.22577e-05
5.10967e-05
4.98234e-05
4.84261e-05
4.68906e-05
5.12519e-05
4.73824e-05
4.30416e-05
3.81632e-05
3.26216e-05
2.61827e-05
1.83341e-05
4.90156e-08
1.84365e-10
1.84492e-10
4.90522e-08
1.83462e-05
2.61994e-05
3.26424e-05
3.8188e-05
4.30702e-05
4.74148e-05
5.12876e-05
4.69085e-05
4.84458e-05
4.98449e-05
5.11201e-05
5.2283e-05
5.33435e-05
5.43102e-05
5.51905e-05
5.59914e-05
5.67187e-05
5.7378e-05
5.79741e-05
5.85113e-05
5.89937e-05
5.94248e-05
5.9808e-05
6.01463e-05
6.04425e-05
6.06992e-05
6.09185e-05
6.11026e-05
6.12532e-05
6.13718e-05
6.14597e-05
6.15178e-05
6.15466e-05
6.15466e-05
6.15177e-05
6.14596e-05
6.13717e-05
6.12531e-05
6.11024e-05
6.09183e-05
6.0699e-05
6.04424e-05
6.01461e-05
5.98078e-05
5.94247e-05
5.89936e-05
5.85112e-05
5.7974e-05
5.7378e-05
5.67188e-05
5.59915e-05
5.51908e-05
5.43105e-05
5.33439e-05
5.22835e-05
5.11207e-05
4.98456e-05
4.84466e-05
4.69093e-05
5.12898e-05
4.74173e-05
4.30728e-05
3.81907e-05
3.26452e-05
2.62021e-05
1.83487e-05
4.90646e-08
1.84544e-10
1.84536e-10
4.90641e-08
1.83498e-05
2.62041e-05
3.26482e-05
3.81947e-05
4.30778e-05
4.74233e-05
5.12969e-05
4.69131e-05
4.84509e-05
4.98504e-05
5.1126e-05
5.22894e-05
5.33504e-05
5.43176e-05
5.51985e-05
5.59998e-05
5.67277e-05
5.73875e-05
5.79841e-05
5.85218e-05
5.90047e-05
5.94363e-05
5.98199e-05
6.01586e-05
6.04552e-05
6.07122e-05
6.09318e-05
6.11161e-05
6.1267e-05
6.13858e-05
6.14738e-05
6.15319e-05
6.15608e-05
6.15608e-05
6.15318e-05
6.14737e-05
6.13857e-05
6.12668e-05
6.1116e-05
6.09317e-05
6.0712e-05
6.04551e-05
6.01585e-05
5.98198e-05
5.94362e-05
5.90046e-05
5.85218e-05
5.79841e-05
5.73876e-05
5.67279e-05
5.6e-05
5.51988e-05
5.4318e-05
5.33509e-05
5.229e-05
5.11267e-05
4.98512e-05
4.84517e-05
4.6914e-05
5.12992e-05
4.74259e-05
4.30805e-05
3.81975e-05
3.2651e-05
2.62069e-05
1.83524e-05
4.90766e-08
1.84588e-10
1.84545e-10
4.90667e-08
1.83505e-05
2.62052e-05
3.26494e-05
3.81961e-05
4.30795e-05
4.74251e-05
5.1299e-05
4.69141e-05
4.8452e-05
4.98516e-05
5.11273e-05
5.22909e-05
5.3352e-05
5.43193e-05
5.52003e-05
5.60017e-05
5.67298e-05
5.73897e-05
5.79864e-05
5.85242e-05
5.90072e-05
5.94389e-05
5.98226e-05
6.01615e-05
6.04581e-05
6.07152e-05
6.09349e-05
6.11193e-05
6.12701e-05
6.1389e-05
6.1477e-05
6.15351e-05
6.15641e-05
6.1564e-05
6.15351e-05
6.14769e-05
6.13889e-05
6.127e-05
6.11191e-05
6.09347e-05
6.0715e-05
6.0458e-05
6.01613e-05
5.98225e-05
5.94388e-05
5.90071e-05
5.85242e-05
5.79864e-05
5.73898e-05
5.67299e-05
5.6002e-05
5.52006e-05
5.43197e-05
5.33525e-05
5.22915e-05
5.1128e-05
4.98524e-05
4.84529e-05
4.6915e-05
5.13013e-05
4.74278e-05
4.30823e-05
3.8199e-05
3.26523e-05
2.6208e-05
1.83532e-05
4.90793e-08
1.84598e-10
1.84547e-10
4.90672e-08
1.83507e-05
2.62054e-05
3.26497e-05
3.81964e-05
4.30798e-05
4.74255e-05
5.12994e-05
4.69144e-05
4.84522e-05
4.98519e-05
5.11276e-05
5.22912e-05
5.33523e-05
5.43196e-05
5.52006e-05
5.60021e-05
5.67302e-05
5.73901e-05
5.79869e-05
5.85247e-05
5.90077e-05
5.94394e-05
5.98232e-05
6.0162e-05
6.04587e-05
6.07158e-05
6.09355e-05
6.11199e-05
6.12708e-05
6.13896e-05
6.14777e-05
6.15358e-05
6.15647e-05
6.15647e-05
6.15358e-05
6.14776e-05
6.13895e-05
6.12707e-05
6.11198e-05
6.09354e-05
6.07156e-05
6.04586e-05
6.01619e-05
5.98231e-05
5.94393e-05
5.90077e-05
5.85247e-05
5.79869e-05
5.73902e-05
5.67303e-05
5.60024e-05
5.52009e-05
5.432e-05
5.33528e-05
5.22918e-05
5.11283e-05
4.98526e-05
4.84531e-05
4.69153e-05
5.13017e-05
4.74282e-05
4.30826e-05
3.81993e-05
3.26526e-05
2.62082e-05
1.83533e-05
4.90798e-08
1.846e-10
1.84547e-10
4.90673e-08
1.83507e-05
2.62054e-05
3.26497e-05
3.81965e-05
4.30798e-05
4.74256e-05
5.12994e-05
4.69144e-05
4.84523e-05
4.98519e-05
5.11277e-05
5.22912e-05
5.33524e-05
5.43197e-05
5.52007e-05
5.60022e-05
5.67303e-05
5.73902e-05
5.79869e-05
5.85248e-05
5.90078e-05
5.94395e-05
5.98233e-05
6.01622e-05
6.04588e-05
6.07159e-05
6.09356e-05
6.112e-05
6.12709e-05
6.13897e-05
6.14778e-05
6.1536e-05
6.15649e-05
6.15649e-05
6.15359e-05
6.14777e-05
6.13897e-05
6.12708e-05
6.11199e-05
6.09355e-05
6.07157e-05
6.04587e-05
6.0162e-05
5.98232e-05
5.94394e-05
5.90078e-05
5.85248e-05
5.7987e-05
5.73903e-05
5.67304e-05
5.60024e-05
5.5201e-05
5.43201e-05
5.33529e-05
5.22918e-05
5.11283e-05
4.98527e-05
4.84531e-05
4.69153e-05
5.13018e-05
4.74282e-05
4.30827e-05
3.81994e-05
3.26526e-05
2.62082e-05
1.83533e-05
4.90799e-08
1.846e-10
1.84547e-10
4.90673e-08
1.83507e-05
2.62054e-05
3.26497e-05
3.81965e-05
4.30799e-05
4.74256e-05
5.12994e-05
4.69144e-05
4.84523e-05
4.98519e-05
5.11277e-05
5.22912e-05
5.33524e-05
5.43197e-05
5.52007e-05
5.60022e-05
5.67303e-05
5.73902e-05
5.7987e-05
5.85248e-05
5.90078e-05
5.94396e-05
5.98233e-05
6.01622e-05
6.04589e-05
6.07159e-05
6.09356e-05
6.11201e-05
6.12709e-05
6.13898e-05
6.14778e-05
6.1536e-05
6.15649e-05
6.15649e-05
6.15359e-05
6.14777e-05
6.13897e-05
6.12708e-05
6.11199e-05
6.09355e-05
6.07158e-05
6.04587e-05
6.0162e-05
5.98232e-05
5.94395e-05
5.90078e-05
5.85248e-05
5.7987e-05
5.73903e-05
5.67304e-05
5.60025e-05
5.5201e-05
5.43201e-05
5.33529e-05
5.22918e-05
5.11284e-05
4.98527e-05
4.84531e-05
4.69153e-05
5.13018e-05
4.74283e-05
4.30827e-05
3.81994e-05
3.26526e-05
2.62082e-05
1.83533e-05
4.90799e-08
1.84601e-10
1.84547e-10
4.90673e-08
1.83507e-05
2.62054e-05
3.26497e-05
3.81965e-05
4.30799e-05
4.74256e-05
5.12994e-05
4.69144e-05
4.84523e-05
4.98519e-05
5.11277e-05
5.22912e-05
5.33524e-05
5.43197e-05
5.52007e-05
5.60022e-05
5.67303e-05
5.73902e-05
5.7987e-05
5.85248e-05
5.90078e-05
5.94396e-05
5.98233e-05
6.01622e-05
6.04589e-05
6.07159e-05
6.09356e-05
6.11201e-05
6.12709e-05
6.13898e-05
6.14778e-05
6.1536e-05
6.15649e-05
6.15649e-05
6.15359e-05
6.14777e-05
6.13897e-05
6.12708e-05
6.11199e-05
6.09355e-05
6.07158e-05
6.04587e-05
6.0162e-05
5.98232e-05
5.94395e-05
5.90078e-05
5.85248e-05
5.7987e-05
5.73903e-05
5.67304e-05
5.60025e-05
5.5201e-05
5.43201e-05
5.33529e-05
5.22918e-05
5.11284e-05
4.98527e-05
4.84531e-05
4.69153e-05
5.13018e-05
4.74283e-05
4.30827e-05
3.81994e-05
3.26526e-05
2.62082e-05
1.83533e-05
4.90799e-08
1.84601e-10
1.84547e-10
4.90673e-08
1.83507e-05
2.62054e-05
3.26497e-05
3.81965e-05
4.30799e-05
4.74256e-05
5.12994e-05
4.69144e-05
4.84523e-05
4.98519e-05
5.11277e-05
5.22912e-05
5.33524e-05
5.43197e-05
5.52007e-05
5.60022e-05
5.67303e-05
5.73902e-05
5.7987e-05
5.85248e-05
5.90078e-05
5.94396e-05
5.98233e-05
6.01622e-05
6.04589e-05
6.07159e-05
6.09356e-05
6.11201e-05
6.12709e-05
6.13898e-05
6.14778e-05
6.1536e-05
6.15649e-05
6.15649e-05
6.15359e-05
6.14777e-05
6.13897e-05
6.12708e-05
6.11199e-05
6.09355e-05
6.07158e-05
6.04587e-05
6.0162e-05
5.98232e-05
5.94395e-05
5.90078e-05
5.85248e-05
5.7987e-05
5.73903e-05
5.67304e-05
5.60025e-05
5.5201e-05
5.43201e-05
5.33529e-05
5.22918e-05
5.11284e-05
4.98527e-05
4.84531e-05
4.69153e-05
5.13018e-05
4.74283e-05
4.30827e-05
3.81994e-05
3.26526e-05
2.62082e-05
1.83533e-05
4.90799e-08
1.84601e-10
1.84547e-10
4.90673e-08
1.83507e-05
2.62054e-05
3.26497e-05
3.81965e-05
4.30799e-05
4.74256e-05
5.12994e-05
4.69144e-05
4.84523e-05
4.98519e-05
5.11277e-05
5.22912e-05
5.33524e-05
5.43197e-05
5.52007e-05
5.60022e-05
5.67303e-05
5.73902e-05
5.7987e-05
5.85248e-05
5.90078e-05
5.94396e-05
5.98233e-05
6.01622e-05
6.04589e-05
6.07159e-05
6.09356e-05
6.11201e-05
6.12709e-05
6.13898e-05
6.14778e-05
6.1536e-05
6.15649e-05
6.15649e-05
6.15359e-05
6.14777e-05
6.13897e-05
6.12708e-05
6.11199e-05
6.09355e-05
6.07158e-05
6.04587e-05
6.0162e-05
5.98232e-05
5.94395e-05
5.90078e-05
5.85248e-05
5.7987e-05
5.73903e-05
5.67304e-05
5.60025e-05
5.5201e-05
5.43201e-05
5.33529e-05
5.22918e-05
5.11284e-05
4.98527e-05
4.84531e-05
4.69153e-05
5.13018e-05
4.74283e-05
4.30827e-05
3.81994e-05
3.26526e-05
2.62082e-05
1.83533e-05
4.90799e-08
1.84601e-10
1.84547e-10
4.90673e-08
1.83507e-05
2.62054e-05
3.26497e-05
3.81965e-05
4.30799e-05
4.74256e-05
5.12994e-05
4.69144e-05
4.84523e-05
4.98519e-05
5.11277e-05
5.22912e-05
5.33524e-05
5.43197e-05
5.52007e-05
5.60022e-05
5.67303e-05
5.73902e-05
5.7987e-05
5.85248e-05
5.90078e-05
5.94396e-05
5.98233e-05
6.01622e-05
6.04589e-05
6.07159e-05
6.09356e-05
6.11201e-05
6.12709e-05
6.13898e-05
6.14778e-05
6.1536e-05
6.15649e-05
6.15649e-05
6.15359e-05
6.14777e-05
6.13897e-05
6.12708e-05
6.11199e-05
6.09355e-05
6.07158e-05
6.04587e-05
6.0162e-05
5.98232e-05
5.94395e-05
5.90078e-05
5.85248e-05
5.7987e-05
5.73903e-05
5.67304e-05
5.60025e-05
5.5201e-05
5.43201e-05
5.33529e-05
5.22918e-05
5.11284e-05
4.98527e-05
4.84531e-05
4.69153e-05
5.13018e-05
4.74283e-05
4.30827e-05
3.81994e-05
3.26526e-05
2.62082e-05
1.83533e-05
4.90799e-08
1.84601e-10
1.84547e-10
4.90673e-08
1.83507e-05
2.62054e-05
3.26497e-05
3.81965e-05
4.30799e-05
4.74256e-05
5.12994e-05
4.69144e-05
4.84523e-05
4.98519e-05
5.11277e-05
5.22912e-05
5.33524e-05
5.43197e-05
5.52007e-05
5.60022e-05
5.67303e-05
5.73902e-05
5.7987e-05
5.85248e-05
5.90078e-05
5.94396e-05
5.98233e-05
6.01622e-05
6.04589e-05
6.07159e-05
6.09356e-05
6.11201e-05
6.12709e-05
6.13898e-05
6.14778e-05
6.1536e-05
6.15649e-05
6.15649e-05
6.15359e-05
6.14777e-05
6.13897e-05
6.12708e-05
6.11199e-05
6.09355e-05
6.07158e-05
6.04587e-05
6.0162e-05
5.98232e-05
5.94395e-05
5.90078e-05
5.85248e-05
5.7987e-05
5.73903e-05
5.67304e-05
5.60025e-05
5.5201e-05
5.43201e-05
5.33529e-05
5.22918e-05
5.11284e-05
4.98527e-05
4.84531e-05
4.69153e-05
5.13018e-05
4.74283e-05
4.30827e-05
3.81994e-05
3.26526e-05
2.62082e-05
1.83533e-05
4.90799e-08
1.84601e-10
1.84547e-10
4.90673e-08
1.83507e-05
2.62054e-05
3.26497e-05
3.81965e-05
4.30799e-05
4.74256e-05
5.12994e-05
4.69144e-05
4.84523e-05
4.98519e-05
5.11277e-05
5.22912e-05
5.33524e-05
5.43197e-05
5.52007e-05
5.60022e-05
5.67303e-05
5.73902e-05
5.7987e-05
5.85248e-05
5.90078e-05
5.94396e-05
5.98233e-05
6.01622e-05
6.04589e-05
6.07159e-05
6.09356e-05
6.11201e-05
6.12709e-05
6.13898e-05
6.14778e-05
6.1536e-05
6.15649e-05
6.15649e-05
6.15359e-05
6.14777e-05
6.13897e-05
6.12708e-05
6.11199e-05
6.09355e-05
6.07158e-05
6.04587e-05
6.0162e-05
5.98232e-05
5.94395e-05
5.90078e-05
5.85248e-05
5.7987e-05
5.73903e-05
5.67304e-05
5.60025e-05
5.5201e-05
5.43201e-05
5.33529e-05
5.22918e-05
5.11284e-05
4.98527e-05
4.84531e-05
4.69153e-05
5.13018e-05
4.74283e-05
4.30827e-05
3.81994e-05
3.26526e-05
2.62082e-05
1.83533e-05
4.90799e-08
1.84601e-10
1.84547e-10
4.90673e-08
1.83507e-05
2.62054e-05
3.26497e-05
3.81965e-05
4.30799e-05
4.74256e-05
5.12994e-05
4.69144e-05
4.84523e-05
4.98519e-05
5.11277e-05
5.22912e-05
5.33524e-05
5.43197e-05
5.52007e-05
5.60022e-05
5.67303e-05
5.73902e-05
5.7987e-05
5.85248e-05
5.90078e-05
5.94396e-05
5.98233e-05
6.01622e-05
6.04589e-05
6.07159e-05
6.09356e-05
6.11201e-05
6.12709e-05
6.13898e-05
6.14778e-05
6.1536e-05
6.15649e-05
6.15649e-05
6.15359e-05
6.14777e-05
6.13897e-05
6.12708e-05
6.11199e-05
6.09355e-05
6.07158e-05
6.04587e-05
6.0162e-05
5.98232e-05
5.94395e-05
5.90078e-05
5.85248e-05
5.7987e-05
5.73903e-05
5.67304e-05
5.60025e-05
5.5201e-05
5.43201e-05
5.33529e-05
5.22918e-05
5.11284e-05
4.98527e-05
4.84531e-05
4.69153e-05
5.13018e-05
4.74283e-05
4.30827e-05
3.81994e-05
3.26526e-05
2.62082e-05
1.83533e-05
4.90799e-08
1.84601e-10
1.84547e-10
4.90673e-08
1.83507e-05
2.62054e-05
3.26497e-05
3.81965e-05
4.30799e-05
4.74256e-05
5.12994e-05
4.69144e-05
4.84523e-05
4.98519e-05
5.11277e-05
5.22912e-05
5.33524e-05
5.43197e-05
5.52007e-05
5.60022e-05
5.67303e-05
5.73902e-05
5.7987e-05
5.85248e-05
5.90078e-05
5.94396e-05
5.98233e-05
6.01622e-05
6.04589e-05
6.07159e-05
6.09356e-05
6.11201e-05
6.12709e-05
6.13898e-05
6.14778e-05
6.1536e-05
6.15649e-05
6.15649e-05
6.15359e-05
6.14777e-05
6.13897e-05
6.12708e-05
6.11199e-05
6.09355e-05
6.07158e-05
6.04587e-05
6.0162e-05
5.98232e-05
5.94395e-05
5.90078e-05
5.85248e-05
5.7987e-05
5.73903e-05
5.67304e-05
5.60025e-05
5.5201e-05
5.43201e-05
5.33529e-05
5.22918e-05
5.11284e-05
4.98527e-05
4.84531e-05
4.69153e-05
5.13018e-05
4.74283e-05
4.30827e-05
3.81994e-05
3.26526e-05
2.62082e-05
1.83533e-05
4.90799e-08
1.84601e-10
1.84547e-10
4.90673e-08
1.83507e-05
2.62054e-05
3.26497e-05
3.81965e-05
4.30799e-05
4.74256e-05
5.12994e-05
4.69144e-05
4.84523e-05
4.98519e-05
5.11277e-05
5.22912e-05
5.33524e-05
5.43197e-05
5.52007e-05
5.60022e-05
5.67303e-05
5.73902e-05
5.7987e-05
5.85248e-05
5.90078e-05
5.94396e-05
5.98233e-05
6.01622e-05
6.04589e-05
6.07159e-05
6.09356e-05
6.11201e-05
6.12709e-05
6.13898e-05
6.14778e-05
6.1536e-05
6.15649e-05
6.15649e-05
6.15359e-05
6.14777e-05
6.13897e-05
6.12708e-05
6.11199e-05
6.09355e-05
6.07158e-05
6.04587e-05
6.0162e-05
5.98232e-05
5.94395e-05
5.90078e-05
5.85248e-05
5.7987e-05
5.73903e-05
5.67304e-05
5.60025e-05
5.5201e-05
5.43201e-05
5.33529e-05
5.22918e-05
5.11284e-05
4.98527e-05
4.84531e-05
4.69153e-05
5.13018e-05
4.74283e-05
4.30827e-05
3.81994e-05
3.26526e-05
2.62082e-05
1.83533e-05
4.90799e-08
1.84601e-10
1.84547e-10
4.90673e-08
1.83507e-05
2.62054e-05
3.26497e-05
3.81965e-05
4.30799e-05
4.74256e-05
5.12994e-05
4.69144e-05
4.84523e-05
4.98519e-05
5.11277e-05
5.22912e-05
5.33524e-05
5.43197e-05
5.52007e-05
5.60022e-05
5.67303e-05
5.73902e-05
5.7987e-05
5.85248e-05
5.90078e-05
5.94396e-05
5.98233e-05
6.01622e-05
6.04589e-05
6.07159e-05
6.09356e-05
6.11201e-05
6.12709e-05
6.13898e-05
6.14778e-05
6.1536e-05
6.15649e-05
6.15649e-05
6.15359e-05
6.14777e-05
6.13897e-05
6.12708e-05
6.11199e-05
6.09355e-05
6.07158e-05
6.04587e-05
6.0162e-05
5.98232e-05
5.94395e-05
5.90078e-05
5.85248e-05
5.7987e-05
5.73903e-05
5.67304e-05
5.60025e-05
5.5201e-05
5.43201e-05
5.33529e-05
5.22918e-05
5.11284e-05
4.98527e-05
4.84531e-05
4.69153e-05
5.13018e-05
4.74283e-05
4.30827e-05
3.81994e-05
3.26526e-05
2.62082e-05
1.83533e-05
4.90799e-08
1.84601e-10
1.84547e-10
4.90673e-08
1.83507e-05
2.62054e-05
3.26497e-05
3.81965e-05
4.30799e-05
4.74256e-05
5.12994e-05
4.69144e-05
4.84523e-05
4.98519e-05
5.11277e-05
5.22912e-05
5.33524e-05
5.43197e-05
5.52007e-05
5.60022e-05
5.67303e-05
5.73902e-05
5.7987e-05
5.85248e-05
5.90078e-05
5.94396e-05
5.98233e-05
6.01622e-05
6.04589e-05
6.07159e-05
6.09356e-05
6.11201e-05
6.12709e-05
6.13898e-05
6.14778e-05
6.1536e-05
6.15649e-05
6.15649e-05
6.15359e-05
6.14777e-05
6.13897e-05
6.12708e-05
6.11199e-05
6.09355e-05
6.07158e-05
6.04587e-05
6.0162e-05
5.98232e-05
5.94395e-05
5.90078e-05
5.85248e-05
5.7987e-05
5.73903e-05
5.67304e-05
5.60025e-05
5.5201e-05
5.43201e-05
5.33529e-05
5.22918e-05
5.11284e-05
4.98527e-05
4.84531e-05
4.69153e-05
5.13018e-05
4.74283e-05
4.30827e-05
3.81994e-05
3.26526e-05
2.62082e-05
1.83533e-05
4.90799e-08
1.84601e-10
1.84547e-10
4.90673e-08
1.83507e-05
2.62054e-05
3.26497e-05
3.81965e-05
4.30799e-05
4.74256e-05
5.12994e-05
4.69144e-05
4.84523e-05
4.98519e-05
5.11277e-05
5.22912e-05
5.33524e-05
5.43197e-05
5.52007e-05
5.60022e-05
5.67303e-05
5.73902e-05
5.7987e-05
5.85248e-05
5.90078e-05
5.94396e-05
5.98233e-05
6.01622e-05
6.04589e-05
6.07159e-05
6.09356e-05
6.11201e-05
6.12709e-05
6.13898e-05
6.14778e-05
6.1536e-05
6.15649e-05
6.15649e-05
6.15359e-05
6.14777e-05
6.13897e-05
6.12708e-05
6.11199e-05
6.09355e-05
6.07158e-05
6.04587e-05
6.0162e-05
5.98232e-05
5.94395e-05
5.90078e-05
5.85248e-05
5.7987e-05
5.73903e-05
5.67304e-05
5.60025e-05
5.5201e-05
5.43201e-05
5.33529e-05
5.22918e-05
5.11284e-05
4.98527e-05
4.84531e-05
4.69153e-05
5.13018e-05
4.74283e-05
4.30827e-05
3.81994e-05
3.26526e-05
2.62082e-05
1.83533e-05
4.90799e-08
1.84601e-10
1.84547e-10
4.90673e-08
1.83507e-05
2.62054e-05
3.26497e-05
3.81965e-05
4.30799e-05
4.74256e-05
5.12994e-05
4.69144e-05
4.84523e-05
4.98519e-05
5.11277e-05
5.22912e-05
5.33524e-05
5.43197e-05
5.52007e-05
5.60022e-05
5.67303e-05
5.73902e-05
5.7987e-05
5.85248e-05
5.90078e-05
5.94396e-05
5.98233e-05
6.01622e-05
6.04589e-05
6.07159e-05
6.09356e-05
6.11201e-05
6.12709e-05
6.13898e-05
6.14778e-05
6.1536e-05
6.15649e-05
6.15649e-05
6.15359e-05
6.14777e-05
6.13897e-05
6.12708e-05
6.11199e-05
6.09355e-05
6.07158e-05
6.04587e-05
6.0162e-05
5.98232e-05
5.94395e-05
5.90078e-05
5.85248e-05
5.7987e-05
5.73903e-05
5.67304e-05
5.60025e-05
5.5201e-05
5.43201e-05
5.33529e-05
5.22918e-05
5.11284e-05
4.98527e-05
4.84531e-05
4.69153e-05
5.13018e-05
4.74283e-05
4.30827e-05
3.81994e-05
3.26526e-05
2.62082e-05
1.83533e-05
4.90799e-08
1.84601e-10
1.84547e-10
4.90673e-08
1.83507e-05
2.62054e-05
3.26497e-05
3.81965e-05
4.30799e-05
4.74256e-05
5.12994e-05
4.69144e-05
4.84523e-05
4.98519e-05
5.11277e-05
5.22912e-05
5.33524e-05
5.43197e-05
5.52007e-05
5.60022e-05
5.67303e-05
5.73902e-05
5.7987e-05
5.85248e-05
5.90078e-05
5.94396e-05
5.98233e-05
6.01622e-05
6.04589e-05
6.07159e-05
6.09356e-05
6.11201e-05
6.12709e-05
6.13898e-05
6.14778e-05
6.1536e-05
6.15649e-05
6.15649e-05
6.15359e-05
6.14777e-05
6.13897e-05
6.12708e-05
6.11199e-05
6.09355e-05
6.07158e-05
6.04587e-05
6.0162e-05
5.98232e-05
5.94395e-05
5.90078e-05
5.85248e-05
5.7987e-05
5.73903e-05
5.67304e-05
5.60025e-05
5.5201e-05
5.43201e-05
5.33529e-05
5.22918e-05
5.11284e-05
4.98527e-05
4.84531e-05
4.69153e-05
5.13018e-05
4.74283e-05
4.30827e-05
3.81994e-05
3.26526e-05
2.62082e-05
1.83533e-05
4.90799e-08
1.84601e-10
1.84547e-10
4.90673e-08
1.83507e-05
2.62054e-05
3.26497e-05
3.81965e-05
4.30799e-05
4.74256e-05
5.12994e-05
4.69144e-05
4.84523e-05
4.98519e-05
5.11277e-05
5.22912e-05
5.33524e-05
5.43197e-05
5.52007e-05
5.60022e-05
5.67303e-05
5.73902e-05
5.7987e-05
5.85248e-05
5.90078e-05
5.94396e-05
5.98233e-05
6.01622e-05
6.04589e-05
6.07159e-05
6.09356e-05
6.11201e-05
6.12709e-05
6.13898e-05
6.14778e-05
6.1536e-05
6.15649e-05
6.15649e-05
6.15359e-05
6.14777e-05
6.13897e-05
6.12708e-05
6.11199e-05
6.09355e-05
6.07158e-05
6.04587e-05
6.0162e-05
5.98232e-05
5.94395e-05
5.90078e-05
5.85248e-05
5.7987e-05
5.73903e-05
5.67304e-05
5.60025e-05
5.5201e-05
5.43201e-05
5.33529e-05
5.22918e-05
5.11284e-05
4.98527e-05
4.84531e-05
4.69153e-05
5.13018e-05
4.74283e-05
4.30827e-05
3.81994e-05
3.26526e-05
2.62082e-05
1.83533e-05
4.90799e-08
1.84601e-10
1.84547e-10
4.90673e-08
1.83507e-05
2.62054e-05
3.26497e-05
3.81965e-05
4.30799e-05
4.74256e-05
5.12994e-05
4.69144e-05
4.84523e-05
4.98519e-05
5.11277e-05
5.22912e-05
5.33524e-05
5.43197e-05
5.52007e-05
5.60022e-05
5.67303e-05
5.73902e-05
5.7987e-05
5.85248e-05
5.90078e-05
5.94396e-05
5.98233e-05
6.01622e-05
6.04589e-05
6.07159e-05
6.09356e-05
6.11201e-05
6.12709e-05
6.13898e-05
6.14778e-05
6.1536e-05
6.15649e-05
6.15649e-05
6.15359e-05
6.14777e-05
6.13897e-05
6.12708e-05
6.11199e-05
6.09355e-05
6.07158e-05
6.04587e-05
6.0162e-05
5.98232e-05
5.94395e-05
5.90078e-05
5.85248e-05
5.7987e-05
5.73903e-05
5.67304e-05
5.60025e-05
5.5201e-05
5.43201e-05
5.33529e-05
5.22918e-05
5.11284e-05
4.98527e-05
4.84531e-05
4.69153e-05
5.13018e-05
4.74283e-05
4.30827e-05
3.81994e-05
3.26526e-05
2.62082e-05
1.83533e-05
4.90799e-08
1.84601e-10
1.84547e-10
4.90673e-08
1.83507e-05
2.62054e-05
3.26497e-05
3.81965e-05
4.30799e-05
4.74256e-05
5.12994e-05
4.69144e-05
4.84523e-05
4.98519e-05
5.11277e-05
5.22912e-05
5.33524e-05
5.43197e-05
5.52007e-05
5.60022e-05
5.67303e-05
5.73902e-05
5.7987e-05
5.85248e-05
5.90078e-05
5.94396e-05
5.98233e-05
6.01622e-05
6.04589e-05
6.07159e-05
6.09356e-05
6.11201e-05
6.12709e-05
6.13898e-05
6.14778e-05
6.1536e-05
6.15649e-05
6.15649e-05
6.15359e-05
6.14777e-05
6.13897e-05
6.12708e-05
6.11199e-05
6.09355e-05
6.07158e-05
6.04587e-05
6.0162e-05
5.98232e-05
5.94395e-05
5.90078e-05
5.85248e-05
5.7987e-05
5.73903e-05
5.67304e-05
5.60025e-05
5.5201e-05
5.43201e-05
5.33529e-05
5.22918e-05
5.11284e-05
4.98527e-05
4.84531e-05
4.69153e-05
5.13018e-05
4.74283e-05
4.30827e-05
3.81994e-05
3.26526e-05
2.62082e-05
1.83533e-05
4.90799e-08
1.84601e-10
1.84547e-10
4.90673e-08
1.83507e-05
2.62054e-05
3.26497e-05
3.81965e-05
4.30799e-05
4.74256e-05
5.12994e-05
4.69144e-05
4.84523e-05
4.98519e-05
5.11277e-05
5.22912e-05
5.33524e-05
5.43197e-05
5.52007e-05
5.60022e-05
5.67303e-05
5.73902e-05
5.7987e-05
5.85248e-05
5.90078e-05
5.94396e-05
5.98233e-05
6.01622e-05
6.04589e-05
6.07159e-05
6.09356e-05
6.11201e-05
6.12709e-05
6.13898e-05
6.14778e-05
6.1536e-05
6.15649e-05
6.15649e-05
6.15359e-05
6.14777e-05
6.13897e-05
6.12708e-05
6.11199e-05
6.09355e-05
6.07158e-05
6.04587e-05
6.0162e-05
5.98232e-05
5.94395e-05
5.90078e-05
5.85248e-05
5.7987e-05
5.73903e-05
5.67304e-05
5.60025e-05
5.5201e-05
5.43201e-05
5.33529e-05
5.22918e-05
5.11284e-05
4.98527e-05
4.84531e-05
4.69153e-05
5.13018e-05
4.74283e-05
4.30827e-05
3.81994e-05
3.26526e-05
2.62082e-05
1.83533e-05
4.90799e-08
1.84601e-10
1.84547e-10
4.90673e-08
1.83507e-05
2.62054e-05
3.26497e-05
3.81965e-05
4.30799e-05
4.74256e-05
5.12994e-05
4.69144e-05
4.84523e-05
4.98519e-05
5.11277e-05
5.22912e-05
5.33524e-05
5.43197e-05
5.52007e-05
5.60022e-05
5.67303e-05
5.73902e-05
5.7987e-05
5.85248e-05
5.90078e-05
5.94396e-05
5.98233e-05
6.01622e-05
6.04589e-05
6.07159e-05
6.09356e-05
6.11201e-05
6.12709e-05
6.13898e-05
6.14778e-05
6.1536e-05
6.15649e-05
6.15649e-05
6.15359e-05
6.14777e-05
6.13897e-05
6.12708e-05
6.11199e-05
6.09355e-05
6.07158e-05
6.04587e-05
6.0162e-05
5.98232e-05
5.94395e-05
5.90078e-05
5.85248e-05
5.7987e-05
5.73903e-05
5.67304e-05
5.60025e-05
5.5201e-05
5.43201e-05
5.33529e-05
5.22918e-05
5.11284e-05
4.98527e-05
4.84531e-05
4.69153e-05
5.13018e-05
4.74283e-05
4.30827e-05
3.81994e-05
3.26526e-05
2.62082e-05
1.83533e-05
4.90799e-08
1.84601e-10
1.84547e-10
4.90673e-08
1.83507e-05
2.62054e-05
3.26497e-05
3.81965e-05
4.30799e-05
4.74256e-05
5.12994e-05
4.69144e-05
4.84523e-05
4.98519e-05
5.11277e-05
5.22912e-05
5.33524e-05
5.43197e-05
5.52007e-05
5.60022e-05
5.67303e-05
5.73902e-05
5.7987e-05
5.85248e-05
5.90078e-05
5.94396e-05
5.98233e-05
6.01622e-05
6.04589e-05
6.07159e-05
6.09356e-05
6.11201e-05
6.12709e-05
6.13898e-05
6.14778e-05
6.1536e-05
6.15649e-05
6.15649e-05
6.15359e-05
6.14777e-05
6.13897e-05
6.12708e-05
6.11199e-05
6.09355e-05
6.07158e-05
6.04587e-05
6.0162e-05
5.98232e-05
5.94395e-05
5.90078e-05
5.85248e-05
5.7987e-05
5.73903e-05
5.67304e-05
5.60025e-05
5.5201e-05
5.43201e-05
5.33529e-05
5.22918e-05
5.11284e-05
4.98527e-05
4.84531e-05
4.69153e-05
5.13018e-05
4.74283e-05
4.30827e-05
3.81994e-05
3.26526e-05
2.62082e-05
1.83533e-05
4.90799e-08
1.84601e-10
1.84547e-10
4.90673e-08
1.83507e-05
2.62054e-05
3.26497e-05
3.81965e-05
4.30799e-05
4.74256e-05
5.12994e-05
4.69144e-05
4.84523e-05
4.98519e-05
5.11277e-05
5.22912e-05
5.33524e-05
5.43197e-05
5.52007e-05
5.60022e-05
5.67303e-05
5.73902e-05
5.7987e-05
5.85248e-05
5.90078e-05
5.94396e-05
5.98233e-05
6.01622e-05
6.04589e-05
6.07159e-05
6.09356e-05
6.11201e-05
6.12709e-05
6.13898e-05
6.14778e-05
6.1536e-05
6.15649e-05
6.15649e-05
6.15359e-05
6.14777e-05
6.13897e-05
6.12708e-05
6.11199e-05
6.09355e-05
6.07158e-05
6.04587e-05
6.0162e-05
5.98232e-05
5.94395e-05
5.90078e-05
5.85248e-05
5.7987e-05
5.73903e-05
5.67304e-05
5.60025e-05
5.5201e-05
5.43201e-05
5.33529e-05
5.22918e-05
5.11284e-05
4.98527e-05
4.84531e-05
4.69153e-05
5.13018e-05
4.74283e-05
4.30827e-05
3.81994e-05
3.26526e-05
2.62082e-05
1.83533e-05
4.90799e-08
1.84601e-10
1.84547e-10
4.90673e-08
1.83507e-05
2.62054e-05
3.26497e-05
3.81965e-05
4.30799e-05
4.74256e-05
5.12994e-05
4.69144e-05
4.84523e-05
4.98519e-05